/*--------------------------------*- C++ -*----------------------------------*\
  =========                 |
  \\      /  F ield         | OpenFOAM: The Open Source CFD Toolbox
   \\    /   O peration     | Website:  https://openfoam.org
    \\  /    A nd           | Version:  13
     \\/     M anipulation  |
\*---------------------------------------------------------------------------*/
FoamFile
{
    format      ascii;
    class       volScalarField;
    location    "0.07";
    object      p;
}
// * * * * * * * * * * * * * * * * * * * * * * * * * * * * * * * * * * * * * //

dimensions      [1 -1 -2 0 0 0 0];

internalField   nonuniform List<scalar> 
1000
(
8350.99
8351
8351.03
8351.08
8351.16
8351.24
8351.34
8351.44
8351.54
8351.65
8351.76
8351.89
8352.02
8352.16
8352.3
8352.46
8352.61
8352.77
8352.94
8353.11
8353.28
8353.45
8353.62
8353.79
8353.97
8354.15
8354.33
8354.52
8354.71
8354.9
8355.1
8355.31
8355.53
8355.75
8355.99
8356.23
8356.48
8356.73
8356.99
8357.26
8357.53
8357.8
8358.08
8358.36
8358.64
8358.93
8359.23
8359.54
8359.86
8360.17
8360.5
8360.83
8361.17
8361.52
8361.83
8362.25
8362.55
8363.04
8363.36
8363.61
8364.17
8364.53
8365.1
8365.4
8366
8366.35
8366.3
8365.91
8367.21
8368.19
8367.7
8366.58
8367.96
8370.4
8371.39
8372.01
8369.64
8368.62
8371.84
8372.52
8373.14
8376.57
8374.7
8369.03
8371.99
8380.03
8380.93
8374.97
8372.63
8375.27
8378.39
8376.52
8373.93
8378.73
8380.78
8375.26
8376.6
8384.73
8381.15
8374.66
8382.97
8389.13
8380.22
8376.27
8388.41
8391.69
8380.64
8378.85
8390.99
8391.99
8382.15
8383.84
8394.4
8391.14
8383.13
8390.45
8397.89
8390.02
8385.56
8397.05
8400.19
8389.64
8389.39
8402.59
8401.82
8390.32
8393.71
8407.19
8403.73
8391.87
8397.22
8411.34
8407.2
8394.12
8398.43
8414.69
8413.22
8398.19
8397.51
8415.2
8419.34
8405.54
8399.92
8414.11
8421.98
8411.37
8403.72
8415.71
8424.96
8415.59
8407.03
8418.2
8428.64
8420.05
8410.05
8419.75
8432.56
8426.06
8413.45
8418.98
8435.61
8434.36
8418.76
8416.53
8434.92
8442.39
8429.69
8418.52
8425.27
8444.25
8445.79
8428.72
8421.21
8431.85
8449.43
8449.34
8432.41
8427.25
8442.67
8453.42
8445
8432.97
8439.28
8454.79
8452.39
8438.93
8440.65
8456
8455.98
8444.02
8444.94
8457.78
8457.02
8447.64
8450.62
8460.1
8456.91
8450.65
8457.27
8462.82
8456.77
8454.64
8464.55
8465.35
8457.46
8460.89
8470.6
8466.44
8459.57
8468.33
8475.13
8467.14
8463.05
8475.14
8478.78
8468.47
8467.11
8480.83
8482.13
8470.58
8471.03
8485.48
8485.64
8473.39
8474.34
8489.27
8489.42
8476.71
8477.14
8492.31
8493.16
8480.31
8479.81
8494.83
8496.46
8483.84
8482.67
8497.23
8499.15
8486.91
8485.8
8499.83
8501.28
8489.36
8489.11
8502.75
8503.02
8491.29
8492.54
8505.77
8504.42
8492.96
8496.06
8508.72
8505.55
8494.47
8499.48
8511.48
8506.57
8495.92
8502.5
8513.94
8507.71
8497.27
8504.8
8516.08
8509.16
8498.5
8506.18
8517.83
8510.99
8499.6
8506.57
8519.15
8513.26
8500.63
8505.93
8519.86
8515.95
8501.74
8504.28
8519.61
8518.82
8503.25
8502.13
8517.9
8521.07
8505.6
8500.36
8514.45
8521.81
8508.76
8499.5
8509.96
8520.87
8511.66
8499.29
8505.89
8518.89
8513.09
8499.12
8503.01
8516.63
8512.89
8498.52
8501.07
8514.57
8511.58
8497.34
8499.63
8512.81
8509.64
8495.71
8498.43
8511.3
8507.39
8493.83
8497.37
8509.91
8505.02
8491.9
8496.39
8508.56
8502.64
8490.02
8495.48
8507.19
8500.22
8488.22
8494.66
8505.8
8497.72
8486.34
8493.83
8504.48
8495.28
8484.28
8492.61
8503.19
8493.32
8482.05
8490.59
8501.89
8492.28
8479.79
8487.36
8500.35
8492.62
8477.85
8482.67
8498.06
8494.47
8476.88
8476.93
8494.12
8496.68
8478.17
8471.99
8487.09
8496.87
8483.36
8469.71
8476.71
8493.5
8490.68
8470.82
8467.96
8485.78
8493.19
8476.84
8464.92
8474.22
8490.01
8484.85
8465.47
8464.56
8483.09
8488.28
8469.75
8460.06
8472.36
8486.31
8477.59
8459.19
8460.49
8479.94
8483.69
8463.27
8453.81
8466.43
8481.81
8475.31
8453.96
8451.07
8470.6
8480.56
8466.1
8448.44
8449.45
8470.9
8477.67
8458.9
8444.21
8448.63
8469.66
8473.28
8451.26
8440.18
8450.07
8468.41
8466.4
8442.85
8436.78
8453.61
8466.73
8455.81
8435.63
8435.56
8456.68
8463.5
8443.72
8429.87
8437.11
8457.3
8457.83
8433.59
8425.07
8439.19
8455.87
8450.45
8426.19
8421.08
8439.67
8453.29
8443.28
8420.58
8417.49
8438.45
8450.02
8436.69
8415.67
8414.31
8436.63
8446.33
8429.66
8410.85
8411.97
8435.05
8442.19
8421.5
8405.88
8410.94
8433.54
8437.1
8412.66
8400.89
8411.34
8431.59
8430.34
8404.08
8396.24
8412.44
8429.03
8421.64
8396.47
8392.27
8413.06
8425.73
8411.87
8389.83
8388.99
8412.35
8421.62
8402.34
8383.69
8385.84
8410.02
8416.88
8394.09
8377.79
8381.84
8406.17
8411.93
8387.58
8372.08
8376.33
8401.03
8407.13
8383.01
8366.64
8369.2
8394.57
8402.32
8380.67
8361.63
8361.23
8386.56
8397.07
8380.51
8357.24
8353.69
8376.73
8391.11
8381.75
8353.9
8347.49
8365.11
8384.62
8382.78
8352.63
8342.85
8352.29
8377.38
8381.88
8354.88
8339.41
8340.06
8367.48
8377.95
8362.04
8337.09
8331.54
8351.18
8370.77
8371.1
8340.23
8328.59
8329.81
8358.34
8368.88
8357.79
8328.83
8321.58
8332.32
8358.67
8365.05
8341.78
8320.9
8316.2
8339
8357.23
8356.26
8324.15
8313.14
8317.22
8346.37
8355.24
8335.5
8311.56
8306.75
8329.95
8348.29
8344.15
8311.95
8302.65
8313.58
8340.57
8344.96
8315.69
8299.81
8301.43
8331.17
8341.4
8321.24
8297.21
8292.9
8318.17
8335.59
8329.03
8296.8
8288.15
8297.97
8326.63
8333.6
8309.05
8287.37
8281.88
8303.77
8325.19
8327.88
8295.83
8280.97
8277.98
8306.56
8322.38
8318.46
8284.3
8274.4
8278.28
8309.94
8319.9
8301.72
8274.24
8267.76
8286.56
8311.32
8313.46
8280.32
8266.06
8266.85
8298.68
8310.51
8293
8264.74
8258.7
8280.76
8303.28
8301.31
8266.61
8255.28
8262.93
8294.53
8301.77
8273.96
8253.32
8250.15
8279.69
8296.49
8286.74
8253.35
8244.89
8256.37
8287.6
8293.58
8264.86
8245.24
8239.26
8264.43
8286.83
8287.36
8252.05
8238.73
8235.74
8266.69
8283.69
8282.12
8245.58
8234.7
8231.14
8261.96
8279.33
8280.16
8244.32
8230.93
8225.72
8252.5
8274.16
8278.31
8245.64
8227.59
8221.3
8241.48
8268.92
8275.14
8247.28
8224.61
8217.9
8232.24
8263.93
8271.59
8247.88
8221.81
8214.85
8225.14
8259.36
8268.17
8247.94
8219.09
8211.88
8218.64
8254.36
8264.48
8248.59
8215.96
8208.21
8215.56
8251.24
8260.93
8238.67
8209.94
8204.59
8232.78
8254.57
8243.88
8209.37
8203.44
8232.64
8251.78
8233.19
8205.59
8210.91
8239.6
8242.4
8218.79
8211.31
8226.46
8234.25
8214.94
8209.92
8233.69
8236.61
8209.36
8200.65
8194.63
8196.14
8232.41
8245.13
8231.64
8200.48
8194.71
8188.03
8199.49
8234.19
8242.98
8223.63
8194.54
8188.55
8182.53
8208.2
8234.4
8240.14
8209.64
8188.91
8182.67
8181.37
8218.11
8233.9
8232.69
8194.73
8183.51
8177.02
8186.83
8224.03
8233.85
8217.92
8184.44
8177.25
8172.97
8206.48
8227.89
8229.62
8191.51
8176.23
8169.89
8195.17
8222.8
8230.34
8207.17
8175.4
8167.75
8179.64
8217.13
8224.07
8190.04
8168.51
8173.18
8211.38
8219.87
8186.12
8167.31
8184.37
8208.85
8203.65
8183.18
8183.93
8197.5
8190.01
8177.73
8193.09
8199.92
8187.46
8185.48
8190.38
8178.79
8173.31
8203.88
8215.4
8184.14
8166.27
8160.41
8156.55
8192.26
8212.89
8209.78
8168.87
8157.1
8152.45
8187.25
8210.85
8204.83
8164.39
8153.54
8158.36
8199.93
8211.2
8181.89
8155.59
8150.68
8184.92
8208.01
8194.15
8157.77
8150.15
8173.95
8200.13
8195.9
8165.1
8160.84
8182.91
8190.06
8168.09
8161.09
8184.3
8190.94
8161.33
8148.02
8141.1
8160.25
8194.18
8190.92
8159.34
8152.2
8146.57
8146.29
8177.49
8185.18
8170.61
8163.83
8172.19
8174.44
8163.13
8165.52
8177.42
8173.35
8165.25
8171.55
8175.46
8164.21
8164.75
8176.95
8173.46
8164.67
8169.66
8174.84
8166.96
8164.52
8173.9
8173.77
8164.44
8169.42
8178.38
8163.29
8156.02
8179.61
8184.88
8155.21
8148.79
8180.21
8190.8
8160.18
8144.46
8169
8192.52
8173.17
8142.61
8136.33
8169.32
8197.38
8192.16
8149.59
8138.18
8163.37
8194.59
8185.35
8146.79
8143.09
8178.98
8192.63
8163.55
8142.93
8161.73
8189.97
8177.61
8145.07
8149.21
8185.12
8186.99
8150.35
8142.62
8175.04
8187.71
8161.81
8146.8
8141.74
8134.07
8161.11
8193.24
8183.87
8142.09
8132.62
8135.4
8180.56
8195.28
8170.09
8136.4
8129.11
8157.01
8190.06
8185.15
8142.45
8130.41
8133.63
8178.72
8192.24
8163.67
8134.94
8127.24
8134.44
8180.44
8192.47
8164.82
8133.34
8125.38
8142.28
8184.21
8188.78
8148.67
8129.8
8124.56
8161.04
8186.1
8170.17
8140.27
8135.25
8127.67
8136.88
8179.99
8185.54
8148.77
8133.11
8126.22
8128.68
8174.31
8187.81
8159.18
8134.76
8128.45
8123.32
8160.74
8185.7
8169.46
8138.72
8133.45
8125.83
8136.74
8179.81
8184.05
8147.31
8133.5
8127
8125.95
8170.2
8187.73
8163.3
8134.08
8127.34
8122.26
8160.62
8187.04
8175.65
8136.67
8128.45
8120.49
8148.64
8186.02
8183.23
8139.79
8129.52
8121.84
8140.96
8178.27
8184.91
8145.42
8128.1
8125.23
8133.85
8174.23
8190.05
8159.43
8121.35
8120.43
8154
8179.2
8177.11
8141.44
8118.86
8143.37
8192.18
8179.86
8126.29
)
;

boundaryField
{
    sides
    {
        type            zeroGradient;
    }
    empty
    {
        type            empty;
    }
}


// ************************************************************************* //
