/*--------------------------------*- C++ -*----------------------------------*\
  =========                 |
  \\      /  F ield         | OpenFOAM: The Open Source CFD Toolbox
   \\    /   O peration     | Website:  https://openfoam.org
    \\  /    A nd           | Version:  13
     \\/     M anipulation  |
\*---------------------------------------------------------------------------*/
FoamFile
{
    format      ascii;
    class       volScalarField;
    location    "0.07";
    object      T;
}
// * * * * * * * * * * * * * * * * * * * * * * * * * * * * * * * * * * * * * //

dimensions      [0 0 0 1 0 0 0];

internalField   nonuniform List<scalar> 
1000
(
170.703
170.703
170.703
170.703
170.704
170.704
170.705
170.705
170.706
170.706
170.707
170.708
170.709
170.709
170.71
170.711
170.712
170.713
170.714
170.715
170.716
170.718
170.719
170.72
170.721
170.722
170.724
170.725
170.727
170.728
170.73
170.731
170.733
170.735
170.737
170.739
170.741
170.743
170.745
170.748
170.75
170.753
170.755
170.758
170.761
170.764
170.767
170.77
170.773
170.776
170.779
170.783
170.786
170.79
170.794
170.798
170.801
170.806
170.81
170.813
170.819
170.823
170.828
170.832
170.838
170.842
170.844
170.844
170.854
170.862
170.862
170.858
170.868
170.885
170.894
170.9
170.889
170.885
170.907
170.914
170.92
170.944
170.937
170.906
170.925
170.976
170.985
170.953
170.942
170.96
170.982
170.975
170.962
170.993
171.009
170.98
170.99
171.042
171.025
170.989
171.04
171.081
171.033
171.012
171.086
171.11
171.049
171.04
171.115
171.126
171.072
171.083
171.15
171.136
171.091
171.136
171.185
171.143
171.119
171.189
171.213
171.155
171.155
171.237
171.238
171.174
171.195
171.279
171.264
171.197
171.23
171.318
171.299
171.225
171.251
171.352
171.349
171.264
171.262
171.37
171.4
171.323
171.292
171.378
171.43
171.373
171.33
171.402
171.462
171.413
171.365
171.432
171.499
171.454
171.398
171.456
171.538
171.505
171.434
171.468
171.571
171.569
171.481
171.47
171.581
171.631
171.562
171.499
171.539
171.657
171.671
171.575
171.533
171.596
171.705
171.71
171.614
171.585
171.677
171.746
171.701
171.632
171.669
171.765
171.755
171.677
171.687
171.78
171.784
171.715
171.72
171.797
171.796
171.741
171.758
171.815
171.798
171.761
171.799
171.833
171.799
171.785
171.843
171.849
171.803
171.821
171.879
171.856
171.815
171.864
171.906
171.86
171.834
171.904
171.927
171.867
171.857
171.937
171.947
171.879
171.879
171.964
171.967
171.895
171.898
171.986
171.989
171.914
171.914
172.003
172.01
171.935
171.93
172.018
172.029
171.955
171.946
172.031
172.044
171.973
171.965
172.047
172.057
171.987
171.984
172.064
172.067
171.998
172.003
172.081
172.075
172.008
172.024
172.099
172.082
172.016
172.043
172.115
172.088
172.025
172.061
172.129
172.095
172.033
172.075
172.142
172.104
172.04
172.083
172.153
172.115
172.047
172.086
172.161
172.128
172.053
172.082
172.165
172.145
172.061
172.073
172.164
172.162
172.071
172.062
172.154
172.175
172.085
172.053
172.134
172.179
172.105
172.049
172.108
172.174
172.122
172.048
172.085
172.162
172.131
172.048
172.068
172.149
172.129
172.044
172.057
172.137
172.121
172.037
172.048
172.126
172.11
172.027
172.041
172.117
172.097
172.016
172.035
172.109
172.083
172.005
172.029
172.101
172.069
171.994
172.023
172.093
172.055
171.983
172.019
172.085
172.04
171.972
172.014
172.078
172.026
171.96
172.007
172.071
172.016
171.948
171.996
172.064
172.01
171.935
171.977
172.055
172.013
171.925
171.951
172.043
172.024
171.92
171.919
172.02
172.037
171.93
171.892
171.979
172.038
171.962
171.88
171.918
172.019
172.005
171.888
171.869
171.973
172.018
171.925
171.853
171.904
171.999
171.972
171.857
171.849
171.958
171.99
171.883
171.824
171.894
171.978
171.93
171.82
171.825
171.94
171.964
171.846
171.788
171.859
171.952
171.918
171.79
171.771
171.885
171.946
171.864
171.758
171.761
171.888
171.93
171.822
171.733
171.756
171.882
171.905
171.777
171.71
171.765
171.876
171.867
171.728
171.691
171.787
171.867
171.807
171.686
171.683
171.808
171.85
171.737
171.653
171.692
171.813
171.819
171.677
171.625
171.705
171.806
171.778
171.633
171.602
171.709
171.792
171.737
171.601
171.581
171.703
171.773
171.699
171.572
171.562
171.693
171.753
171.659
171.545
171.549
171.685
171.73
171.611
171.516
171.542
171.678
171.701
171.559
171.487
171.545
171.667
171.663
171.508
171.459
171.551
171.652
171.613
171.462
171.435
171.556
171.633
171.556
171.423
171.415
171.553
171.61
171.5
171.387
171.396
171.54
171.583
171.452
171.352
171.372
171.518
171.555
171.414
171.319
171.34
171.488
171.527
171.388
171.287
171.299
171.451
171.499
171.375
171.259
171.254
171.404
171.468
171.376
171.234
171.211
171.346
171.434
171.384
171.215
171.176
171.277
171.396
171.389
171.21
171.15
171.201
171.353
171.382
171.225
171.13
171.131
171.294
171.358
171.27
171.117
171.083
171.196
171.316
171.322
171.139
171.068
171.071
171.241
171.306
171.246
171.07
171.027
171.085
171.246
171.285
171.152
171.023
170.994
171.126
171.238
171.237
171.046
170.978
170.997
171.173
171.228
171.116
170.969
170.939
171.073
171.186
171.167
170.973
170.916
170.975
171.14
171.169
170.998
170.9
170.905
171.083
171.147
171.033
170.885
170.857
171.004
171.112
171.079
170.884
170.831
170.884
171.059
171.102
170.962
170.827
170.794
170.92
171.053
171.071
170.883
170.791
170.771
170.939
171.037
171.019
170.813
170.753
170.771
170.962
171.024
170.923
170.753
170.714
170.82
170.973
170.989
170.794
170.705
170.705
170.896
170.97
170.873
170.698
170.662
170.788
170.928
170.922
170.714
170.644
170.684
170.877
170.923
170.762
170.634
170.612
170.786
170.892
170.841
170.636
170.585
170.647
170.84
170.878
170.712
170.589
170.552
170.698
170.838
170.846
170.636
170.553
170.532
170.715
170.822
170.818
170.599
170.531
170.507
170.689
170.798
170.808
170.595
170.511
170.479
170.634
170.77
170.798
170.607
170.493
170.455
170.569
170.741
170.78
170.62
170.478
170.438
170.516
170.713
170.76
170.627
170.463
170.422
170.476
170.688
170.742
170.629
170.449
170.407
170.44
170.659
170.722
170.636
170.433
170.387
170.424
170.643
170.704
170.579
170.399
170.365
170.529
170.667
170.611
170.399
170.36
170.531
170.652
170.549
170.376
170.402
170.578
170.6
170.459
170.41
170.498
170.551
170.437
170.401
170.543
170.568
170.405
170.35
170.315
170.318
170.538
170.618
170.545
170.351
170.317
170.278
170.338
170.553
170.607
170.5
170.317
170.282
170.245
170.392
170.558
170.594
170.417
170.286
170.249
170.237
170.457
170.557
170.555
170.326
170.256
170.217
170.268
170.498
170.558
170.472
170.263
170.22
170.191
170.388
170.524
170.539
170.312
170.215
170.176
170.32
170.496
170.541
170.413
170.212
170.166
170.229
170.462
170.508
170.309
170.172
170.193
170.427
170.484
170.286
170.165
170.26
170.416
170.389
170.263
170.263
170.348
170.309
170.23
170.319
170.366
170.292
170.278
170.309
170.243
170.203
170.385
170.463
170.28
170.166
170.132
170.105
170.316
170.448
170.436
170.187
170.113
170.082
170.287
170.438
170.41
170.162
170.094
170.115
170.37
170.443
170.275
170.107
170.075
170.276
170.424
170.35
170.123
170.075
170.21
170.378
170.359
170.17
170.14
170.272
170.322
170.192
170.142
170.281
170.329
170.153
170.068
170.026
170.131
170.346
170.334
170.139
170.094
170.062
170.055
170.244
170.296
170.21
170.165
170.215
170.233
170.165
170.174
170.249
170.228
170.176
170.212
170.24
170.173
170.172
170.247
170.231
170.175
170.203
170.238
170.192
170.174
170.23
170.234
170.176
170.202
170.261
170.174
170.123
170.264
170.305
170.126
170.078
170.266
170.34
170.159
170.055
170.196
170.348
170.241
170.048
170.007
170.198
170.378
170.356
170.094
170.02
170.163
170.362
170.317
170.077
170.048
170.263
170.354
170.186
170.053
170.157
170.338
170.273
170.069
170.084
170.307
170.328
170.106
170.05
170.244
170.33
170.178
170.081
170.053
170.005
170.158
170.363
170.317
170.058
169.999
170.007
170.284
170.379
170.239
170.023
169.978
170.136
170.348
170.328
170.065
169.99
170
170.276
170.365
170.203
170.018
169.973
170.005
170.291
170.368
170.213
170.011
169.963
170.053
170.318
170.352
170.113
169.991
169.956
170.17
170.333
170.247
170.057
170.027
169.983
170.026
170.295
170.336
170.117
170.016
169.975
169.981
170.26
170.35
170.186
170.028
169.992
169.957
170.176
170.339
170.251
170.056
170.024
169.98
170.033
170.303
170.337
170.116
170.027
169.989
169.975
170.242
170.357
170.221
170.033
169.993
169.959
170.184
170.355
170.298
170.053
170.002
169.953
170.112
170.351
170.343
170.077
170.011
169.965
170.066
170.307
170.352
170.117
170.004
169.991
170.027
170.283
170.383
170.209
169.964
169.96
170.149
170.317
170.315
170.096
169.947
170.093
170.4
170.329
170.007
)
;

boundaryField
{
    sides
    {
        type            zeroGradient;
    }
    empty
    {
        type            empty;
    }
}


// ************************************************************************* //
