/*--------------------------------*- C++ -*----------------------------------*\
  =========                 |
  \\      /  F ield         | OpenFOAM: The Open Source CFD Toolbox
   \\    /   O peration     | Website:  https://openfoam.org
    \\  /    A nd           | Version:  13
     \\/     M anipulation  |
\*---------------------------------------------------------------------------*/
FoamFile
{
    format      ascii;
    class       volVectorField;
    location    "14.202501";
    object      wallShearStress;
}
// * * * * * * * * * * * * * * * * * * * * * * * * * * * * * * * * * * * * * //

dimensions      [0 2 -2 0 0 0 0];

internalField   uniform (0 0 0);

boundaryField
{
    inlet
    {
        type            calculated;
        value           uniform (0 0 0);
    }
    outlet
    {
        type            calculated;
        value           uniform (0 0 0);
    }
    cylinder
    {
        type            calculated;
        value           nonuniform List<vector> 
132
(
(3.9391842e-05 0.0013910327 -9.8725332e-23)
(0.00020448542 -0.0035710398 2.8115329e-23)
(0.00064092993 -0.0084810955 1.603e-21)
(0.0013391877 -0.013175742 -5.6644495e-21)
(0.0022683977 -0.017487838 4.2865359e-21)
(0.0033807688 -0.021261452 1.4204323e-20)
(0.0046103549 -0.02435071 -2.9339883e-21)
(0.0058767241 -0.026635816 -1.266532e-20)
(0.0070922829 -0.028031175 1.2944457e-20)
(0.0081631749 -0.028487608 -3.1213093e-20)
(0.008998378 -0.028002216 -6.0422616e-22)
(0.009516699 -0.026619027 2.1715598e-20)
(0.0096561734 -0.024433399 3.6802403e-20)
(0.0093855989 -0.021597037 -3.0682029e-20)
(0.0087120336 -0.018309207 3.2770257e-20)
(0.0076864351 -0.014804927 5.2934192e-20)
(0.0063994311 -0.011327028 -3.450138e-20)
(0.0049700718 -0.0081027544 5.4677416e-20)
(0.0035285908 -0.0053088553 7.1116296e-20)
(0.0021944107 -0.0030532704 -4.5288005e-20)
(0.0010528475 -0.0013607635 -5.6672056e-20)
(0.00015383174 -0.00019732204 1.9581301e-23)
(-0.00051328321 0.00054556614 7.9645024e-21)
(-0.0009765118 0.00096902348 -9.4144232e-21)
(-0.0012899256 0.0011830733 -1.5840043e-20)
(-0.0013993875 0.0011827066 3.3516866e-21)
(-0.0012369408 0.00096288549 -2.9936247e-20)
(-0.0005480872 0.00039852761 7.9105638e-21)
(0.00062334883 -0.00038645557 6.1726783e-21)
(0.0019129218 -0.001097428 -4.2431726e-20)
(0.0029542 -0.0015290118 5.5511687e-20)
(0.0035179305 -0.0016221405 1.6847922e-21)
(0.0037624629 -0.001524315 1.216009e-20)
(0.0038949643 -0.0013627206 -1.4394208e-20)
(0.0040293184 -0.0011905471 4.5653002e-20)
(0.0040570423 -0.00098164705 -2.883063e-21)
(0.0037857028 -0.0007162226 1.1624749e-20)
(0.0030038933 -0.00041255723 -1.5979182e-21)
(0.0014920538 -0.0001339215 2.3005266e-21)
(-0.00098359456 7.7119973e-06 -1.4441144e-21)
(-0.0048216885 -0.0001641124 2.7245135e-21)
(-0.010162466 -0.00095431456 -8.5345582e-23)
(-0.016656325 -0.0025724142 3.1855388e-20)
(-0.023928565 -0.0051786646 -1.2511058e-20)
(-0.03142576 -0.0088054429 1.1500336e-20)
(-0.038627692 -0.013375824 -7.5130623e-20)
(-0.045043891 -0.01870534 -1.2290537e-20)
(-0.050298608 -0.024535215 1.0905306e-19)
(-0.054137442 -0.030572814 -9.3603253e-20)
(-0.056464871 -0.0365396 -1.7888371e-21)
(-0.05724057 -0.042142905 2.8344363e-20)
(-0.056575701 -0.047165869 -2.5350784e-20)
(-0.054556657 -0.051362463 -4.7584623e-21)
(-0.051369138 -0.05456635 -2.6846278e-21)
(-0.04725029 -0.056680985 -1.8328264e-21)
(-0.042383404 -0.057573216 -6.1190088e-21)
(-0.037012898 -0.05720563 7.5715457e-22)
(-0.031366511 -0.055557076 5.5170129e-20)
(-0.025671517 -0.052648442 -8.071316e-20)
(-0.020144322 -0.048534157 -8.4187936e-20)
(-0.014986208 -0.043300665 -3.3715863e-20)
(-0.010379079 -0.037063989 -7.6638547e-20)
(-0.0064813214 -0.029965819 1.7004147e-20)
(-0.0034226797 -0.022170562 2.4651008e-20)
(-0.0013080122 -0.013872055 -3.8224078e-20)
(-0.00019541241 -0.0052352767 -5.0997739e-21)
(0.00014303639 0.0062972825 -4.6409842e-22)
(0.00050930865 0.011084141 -2.8933075e-23)
(0.0011309996 0.015640507 -1.7696705e-21)
(0.0019814588 0.01981141 6.4169214e-21)
(0.003018136 0.023449717 -4.9377731e-21)
(0.0041819911 0.026419203 -1.648825e-20)
(0.0053991623 0.028606818 3.4067324e-21)
(0.0065891619 0.029930644 1.4628469e-20)
(0.0076641433 0.030341421 -1.481688e-20)
(0.0085370393 0.029831629 3.5327903e-20)
(0.0091276332 0.02843617 6.7560326e-22)
(0.0093712228 0.026238138 -2.396621e-20)
(0.0092287111 0.023373288 -4.0112801e-20)
(0.0086955038 0.020026891 3.3054749e-20)
(0.0078060869 0.016419821 -3.4942522e-20)
(0.0066352059 0.012790131 -5.5958001e-20)
(0.0052871505 0.0093665719 3.6232962e-20)
(0.0038835897 0.0063384071 -5.7165896e-20)
(0.0025423654 0.0038315678 -7.416913e-20)
(0.0013591342 0.0018985163 4.7195684e-20)
(0.00039275885 0.00051989991 5.9086526e-20)
(-0.00033899137 -0.00038491366 5.2078448e-20)
(-0.00086397382 -0.00092795126 4.2205848e-20)
(-0.0012228613 -0.0012168279 9.8526229e-21)
(-0.0014393411 -0.0013222163 1.6590067e-20)
(-0.0014161755 -0.0011993913 -3.5106697e-21)
(-0.0010325438 -0.00080779254 3.1377463e-20)
(-9.4234832e-05 -8.0116292e-05 -8.3110432e-21)
(0.0012006678 0.00075681666 -6.5039333e-21)
(0.0024171728 0.0013914138 4.4842579e-20)
(0.0032529276 0.0016862723 -5.8732535e-20)
(0.0036451304 0.0016820547 -1.7723439e-21)
(0.0038178408 0.0015470337 2.9262457e-20)
(0.0039553209 0.0013838502 1.5231703e-20)
(0.0040762268 0.001204734 -4.8360717e-20)
(0.004024518 0.00097458046 3.058365e-21)
(0.0036053867 0.00068351203 9.0064297e-21)
(0.0026066741 0.00036064758 1.7000388e-21)
(0.00080928675 8.0556718e-05 -2.4503501e-21)
(-0.0020344851 -3.2604779e-05 1.5389124e-21)
(-0.0063018824 0.0002141919 -2.9022761e-21)
(-0.012061396 0.0011290317 2.3917371e-20)
(-0.018907789 0.0029168503 -3.3727392e-20)
(-0.026407299 0.005711841 1.3176474e-20)
(-0.033975432 0.0095167074 -1.2038104e-20)
(-0.041147492 0.01424583 7.8130568e-20)
(-0.047393312 0.019678394 1.2686263e-20)
(-0.052396281 0.025555125 -1.1175851e-19)
(-0.055942133 0.031588738 9.5153285e-20)
(-0.057945011 0.037494379 1.8031274e-21)
(-0.058396501 0.042991034 -2.8273608e-20)
(-0.057428429 0.047874008 2.4951205e-20)
(-0.055118971 0.051889022 -3.6869662e-20)
(-0.051675282 0.054888918 2.4416136e-21)
(-0.047349311 0.05679701 -9.8686995e-22)
(-0.042297979 0.057454262 7.2336628e-21)
(-0.036790215 0.05685836 -8.2172282e-22)
(-0.031043286 0.05498109 -5.825036e-20)
(-0.025285699 0.051853141 8.4007021e-20)
(-0.019731237 0.047533954 8.6810422e-20)
(-0.014577879 0.042114429 3.452753e-20)
(-0.010004069 0.035715809 7.8051487e-20)
(-0.0061635756 0.028482643 -1.7236565e-20)
(-0.003181407 0.020583866 4.9351442e-20)
(-0.0011570201 0.012209413 3.8435411e-20)
(-0.00014571766 0.003549955 5.1120585e-21)
)
;
    }
    frontAndBack
    {
        type            empty;
    }
}


// ************************************************************************* //
