/*--------------------------------*- C++ -*----------------------------------*\
  =========                 |
  \\      /  F ield         | OpenFOAM: The Open Source CFD Toolbox
   \\    /   O peration     | Website:  https://openfoam.org
    \\  /    A nd           | Version:  13
     \\/     M anipulation  |
\*---------------------------------------------------------------------------*/
FoamFile
{
    format      ascii;
    class       volScalarField;
    location    "28.802348";
    object      pPrime2Mean;
}
// * * * * * * * * * * * * * * * * * * * * * * * * * * * * * * * * * * * * * //

dimensions      [0 4 -4 0 0 0 0];

internalField   nonuniform List<scalar> 
17140
(
10812.101
10812.101
10812.101
10812.101
10812.1
10812.099
10812.097
10812.095
10812.091
10812.087
10812.081
10812.074
10812.064
10812.052
10812.037
10812.019
10811.995
10811.965
10811.928
10811.881
10811.822
10811.748
10811.655
10811.539
10811.391
10811.206
10810.973
10810.678
10810.306
10809.837
10809.247
10808.507
10807.579
10806.42
10804.978
10803.19
10800.98
10798.263
10794.936
10790.884
10785.972
10780.05
10772.947
10764.472
10754.412
10742.533
10728.573
10712.251
10693.255
10671.25
10645.868
10616.713
10583.358
10545.34
10502.162
10453.289
10398.141
10336.094
10266.468
10188.54
10101.505
10004.529
9896.6388
9776.8784
9644.1029
10812.366
10812.366
10812.366
10812.366
10812.365
10812.364
10812.362
10812.36
10812.356
10812.352
10812.346
10812.339
10812.329
10812.317
10812.302
10812.283
10812.26
10812.23
10812.192
10812.145
10812.087
10812.013
10811.92
10811.804
10811.657
10811.472
10811.239
10810.945
10810.574
10810.106
10809.518
10808.779
10807.852
10806.695
10805.254
10803.467
10801.259
10798.543
10795.219
10791.168
10786.258
10780.339
10773.239
10764.768
10754.714
10742.84
10728.888
10712.573
10693.587
10671.591
10646.221
10617.08
10583.741
10545.74
10502.583
10453.733
10398.61
10336.593
10266.999
10189.107
10102.112
10005.18
9897.3403
9777.6363
9644.9165
10813.022
10813.022
10813.022
10813.022
10813.021
10813.02
10813.018
10813.015
10813.012
10813.008
10813.002
10812.995
10812.985
10812.973
10812.959
10812.94
10812.916
10812.886
10812.849
10812.802
10812.744
10812.671
10812.578
10812.463
10812.317
10812.133
10811.901
10811.609
10811.24
10810.774
10810.188
10809.452
10808.528
10807.374
10805.936
10804.152
10801.947
10799.234
10795.913
10791.867
10786.963
10781.05
10773.958
10765.497
10755.455
10743.596
10729.661
10713.366
10694.402
10672.432
10647.091
10617.983
10584.682
10546.726
10503.618
10454.824
10399.765
10337.819
10268.305
10190.501
10103.605
10006.782
9899.0627
9779.4954
9646.9118
10814.09
10814.09
10814.09
10814.09
10814.089
10814.088
10814.086
10814.083
10814.08
10814.076
10814.07
10814.063
10814.053
10814.042
10814.027
10814.008
10813.985
10813.956
10813.919
10813.873
10813.815
10813.743
10813.651
10813.537
10813.392
10813.21
10812.981
10812.69
10812.324
10811.862
10811.279
10810.547
10809.627
10808.477
10807.043
10805.264
10803.063
10800.355
10797.04
10793.001
10788.106
10782.204
10775.125
10766.681
10756.658
10744.822
10730.915
10714.652
10695.724
10673.796
10648.502
10619.449
10586.21
10548.325
10505.298
10456.596
10401.64
10339.81
10270.425
10192.766
10106.029
10009.382
9901.8592
9782.5139
9650.1504
10815.592
10815.592
10815.592
10815.591
10815.591
10815.589
10815.587
10815.585
10815.582
10815.578
10815.572
10815.565
10815.555
10815.544
10815.529
10815.511
10815.488
10815.459
10815.423
10815.377
10815.32
10815.248
10815.158
10815.045
10814.902
10814.722
10814.495
10814.208
10813.845
10813.387
10812.809
10812.081
10811.167
10810.022
10808.594
10806.819
10804.625
10801.925
10798.618
10794.59
10789.707
10783.821
10776.762
10768.34
10758.345
10746.541
10732.672
10716.454
10697.577
10675.706
10650.479
10621.503
10588.351
10550.567
10507.654
10459.081
10404.269
10342.601
10273.398
10195.941
10109.428
10013.03
9905.7824
9786.7486
9654.6963
10817.545
10817.545
10817.545
10817.545
10817.544
10817.543
10817.541
10817.538
10817.535
10817.531
10817.525
10817.518
10817.509
10817.497
10817.483
10817.465
10817.442
10817.413
10817.378
10817.333
10817.277
10817.206
10817.118
10817.006
10816.865
10816.688
10816.463
10816.18
10815.821
10815.368
10814.795
10814.073
10813.165
10812.027
10810.606
10808.839
10806.653
10803.963
10800.667
10796.653
10791.788
10785.922
10778.887
10770.496
10760.536
10748.775
10734.955
10718.794
10699.983
10678.189
10653.049
10624.172
10591.135
10553.481
10510.716
10462.31
10407.687
10346.231
10277.264
10200.069
10113.848
10017.773
9910.8856
9792.2591
9660.6144
10819.97
10819.97
10819.97
10819.969
10819.968
10819.967
10819.965
10819.963
10819.959
10819.955
10819.949
10819.942
10819.933
10819.922
10819.908
10819.89
10819.868
10819.84
10819.804
10819.76
10819.705
10819.636
10819.549
10819.439
10819.301
10819.126
10818.905
10818.626
10818.272
10817.824
10817.258
10816.543
10815.642
10814.512
10813.099
10811.342
10809.167
10806.489
10803.209
10799.212
10794.368
10788.528
10781.524
10773.17
10763.254
10751.546
10737.788
10721.697
10702.968
10681.267
10656.236
10627.484
10594.59
10557.098
10514.517
10466.319
10411.93
10350.735
10282.062
10205.193
10119.334
10023.661
9917.2238
9799.1049
9667.9718
10822.887
10822.887
10822.886
10822.886
10822.885
10822.884
10822.882
10822.879
10822.876
10822.871
10822.866
10822.859
10822.85
10822.839
10822.825
10822.808
10822.785
10822.758
10822.724
10822.681
10822.627
10822.559
10822.473
10822.366
10822.231
10822.059
10821.843
10821.568
10821.22
10820.778
10820.219
10819.511
10818.619
10817.498
10816.095
10814.349
10812.187
10809.524
10806.262
10802.287
10797.469
10791.66
10784.693
10776.384
10766.522
10754.876
10741.191
10725.186
10706.555
10684.969
10660.068
10631.466
10598.744
10561.448
10519.088
10471.14
10417.032
10356.153
10287.832
10211.357
10125.935
10030.747
9924.8531
9807.3473
9676.8359
10826.321
10826.321
10826.321
10826.32
10826.319
10826.318
10826.316
10826.313
10826.31
10826.306
10826.3
10826.293
10826.284
10826.274
10826.26
10826.243
10826.221
10826.194
10826.161
10826.119
10826.066
10826
10825.916
10825.812
10825.679
10825.511
10825.299
10825.029
10824.687
10824.252
10823.699
10823
10822.117
10821.006
10819.614
10817.882
10815.735
10813.09
10809.849
10805.9
10801.112
10795.339
10788.417
10780.16
10770.36
10758.788
10745.19
10729.285
10710.771
10689.318
10664.573
10636.149
10603.629
10566.563
10524.464
10476.809
10423.033
10362.525
10294.619
10218.605
10133.698
10039.083
9933.8298
9817.0496
9687.2768
10830.299
10830.299
10830.299
10830.298
10830.298
10830.296
10830.294
10830.292
10830.288
10830.284
10830.279
10830.272
10830.263
10830.253
10830.239
10830.222
10830.201
10830.175
10830.142
10830.101
10830.05
10829.985
10829.904
10829.802
10829.672
10829.508
10829.3
10829.035
10828.698
10828.27
10827.725
10827.034
10826.16
10825.059
10823.68
10821.962
10819.833
10817.208
10813.992
10810.071
10805.318
10799.588
10792.717
10784.52
10774.793
10763.306
10749.806
10734.018
10715.638
10694.342
10669.776
10641.558
10609.273
10572.473
10530.676
10483.362
10429.969
10369.89
10302.463
10226.984
10142.674
10048.723
9944.2159
9828.2789
9699.3659
10834.85
10834.849
10834.849
10834.849
10834.847
10834.846
10834.844
10834.842
10834.838
10834.834
10834.829
10834.822
10834.814
10834.803
10834.79
10834.774
10834.753
10834.728
10834.696
10834.656
10834.605
10834.543
10834.463
10834.363
10834.236
10834.075
10833.871
10833.611
10833.279
10832.856
10832.318
10831.635
10830.77
10829.681
10828.315
10826.613
10824.503
10821.901
10818.712
10814.824
10810.111
10804.428
10797.614
10789.487
10779.841
10768.451
10755.064
10739.408
10721.183
10700.066
10675.705
10647.723
10615.706
10579.212
10537.759
10490.834
10437.878
10378.289
10311.41
10236.543
10152.916
10059.727
9956.0728
9841.0999
9713.174
10839.998
10839.997
10839.997
10839.996
10839.995
10839.994
10839.992
10839.989
10839.986
10839.982
10839.977
10839.97
10839.962
10839.951
10839.938
10839.922
10839.903
10839.878
10839.846
10839.807
10839.758
10839.696
10839.618
10839.52
10839.396
10839.238
10839.036
10838.78
10838.452
10838.034
10837.502
10836.827
10835.971
10834.893
10833.542
10831.857
10829.767
10827.19
10824.031
10820.179
10815.511
10809.882
10803.133
10795.083
10785.529
10774.247
10760.988
10745.481
10727.431
10706.516
10682.388
10654.673
10622.961
10586.811
10545.75
10499.264
10446.803
10387.767
10321.508
10247.331
10164.477
10072.15
9969.4628
9855.5812
9728.7746
10845.765
10845.765
10845.765
10845.764
10845.763
10845.761
10845.759
10845.757
10845.753
10845.749
10845.744
10845.738
10845.73
10845.719
10845.707
10845.691
10845.671
10845.646
10845.616
10845.577
10845.529
10845.468
10845.392
10845.295
10845.172
10845.016
10844.817
10844.563
10844.239
10843.826
10843.3
10842.632
10841.786
10840.719
10839.382
10837.715
10835.647
10833.097
10829.971
10826.16
10821.541
10815.973
10809.296
10801.332
10791.88
10780.719
10767.602
10752.263
10734.408
10713.72
10689.855
10662.439
10631.069
10595.306
10554.682
10508.69
10456.781
10398.366
10332.8
10259.399
10177.412
10086.054
9984.4501
9871.7918
9746.2402
10852.172
10852.171
10852.171
10852.17
10852.169
10852.168
10852.166
10852.163
10852.16
10852.156
10852.151
10852.144
10852.136
10852.126
10852.113
10852.098
10852.078
10852.054
10852.024
10851.986
10851.938
10851.878
10851.803
10851.707
10851.585
10851.431
10851.234
10850.982
10850.661
10850.252
10849.731
10849.07
10848.234
10847.179
10845.858
10844.209
10842.165
10839.645
10836.555
10832.789
10828.224
10822.722
10816.126
10808.257
10798.918
10787.891
10774.933
10759.78
10742.143
10721.708
10698.135
10671.053
10640.063
10604.731
10564.593
10519.15
10467.857
10410.131
10345.337
10272.8
10191.779
10101.498
10001.099
9889.8008
9765.6433
10859.235
10859.235
10859.234
10859.233
10859.232
10859.231
10859.229
10859.226
10859.223
10859.219
10859.214
10859.208
10859.2
10859.19
10859.177
10859.162
10859.143
10859.119
10859.089
10859.051
10859.004
10858.945
10858.87
10858.774
10858.654
10858.501
10858.305
10858.056
10857.738
10857.333
10856.818
10856.164
10855.337
10854.296
10852.99
10851.362
10849.344
10846.856
10843.805
10840.088
10835.584
10830.155
10823.646
10815.882
10806.669
10795.79
10783.008
10768.061
10750.666
10730.511
10707.261
10680.548
10649.977
10615.122
10575.522
10530.684
10480.071
10423.107
10359.167
10287.587
10207.634
10118.543
10019.473
9909.6761
9787.0559
10866.975
10866.975
10866.975
10866.974
10866.973
10866.971
10866.97
10866.967
10866.964
10866.96
10866.955
10866.948
10866.94
10866.931
10866.919
10866.903
10866.884
10866.86
10866.831
10866.793
10866.747
10866.688
10866.613
10866.519
10866.399
10866.247
10866.053
10865.805
10865.491
10865.09
10864.58
10863.934
10863.118
10862.091
10860.803
10859.197
10857.206
10854.753
10851.746
10848.082
10843.643
10838.295
10831.882
10824.234
10815.159
10804.444
10791.855
10777.136
10760.006
10740.16
10717.264
10690.957
10660.848
10626.515
10587.506
10543.333
10493.468
10437.343
10374.343
10303.814
10225.036
10137.25
10039.637
9931.4855
9810.549
10875.417
10875.417
10875.417
10875.416
10875.415
10875.414
10875.412
10875.409
10875.406
10875.402
10875.397
10875.391
10875.383
10875.373
10875.361
10875.346
10875.327
10875.304
10875.274
10875.237
10875.19
10875.131
10875.057
10874.963
10874.844
10874.693
10874.5
10874.255
10873.943
10873.547
10873.044
10872.406
10871.601
10870.588
10869.319
10867.736
10865.775
10863.359
10860.399
10856.795
10852.428
10847.166
10840.86
10833.339
10824.415
10813.879
10801.503
10787.034
10770.195
10750.686
10728.178
10702.314
10672.709
10638.949
10600.586
10557.139
10508.093
10452.886
10390.915
10321.535
10244.038
10157.676
10061.651
9955.295
9836.1924
10884.588
10884.588
10884.587
10884.586
10884.585
10884.584
10884.582
10884.58
10884.576
10884.572
10884.568
10884.561
10884.553
10884.544
10884.532
10884.516
10884.498
10884.474
10884.444
10884.407
10884.361
10884.302
10884.228
10884.134
10884.016
10883.865
10883.674
10883.431
10883.122
10882.73
10882.233
10881.604
10880.81
10879.812
10878.562
10877.005
10875.077
10872.701
10869.792
10866.251
10861.962
10856.796
10850.604
10843.222
10834.463
10824.125
10811.981
10797.784
10781.263
10762.121
10740.035
10714.653
10685.598
10652.459
10614.799
10572.145
10523.988
10469.783
10408.932
10340.802
10264.696
10179.88
10085.578
9981.17
9864.0544
10894.513
10894.513
10894.513
10894.512
10894.511
10894.509
10894.508
10894.505
10894.502
10894.498
10894.493
10894.487
10894.479
10894.469
10894.457
10894.442
10894.422
10894.399
10894.369
10894.331
10894.285
10894.226
10894.152
10894.058
10893.939
10893.79
10893.599
10893.358
10893.052
10892.665
10892.174
10891.553
10890.771
10889.788
10888.559
10887.029
10885.135
10882.803
10879.95
10876.477
10872.272
10867.209
10861.143
10853.911
10845.333
10835.208
10823.317
10809.416
10793.239
10774.496
10752.867
10728.009
10699.549
10667.084
10630.186
10588.391
10541.201
10488.082
10428.443
10361.666
10287.064
10203.919
10111.477
10009.174
9894.202
10905.215
10905.215
10905.215
10905.214
10905.213
10905.212
10905.21
10905.208
10905.205
10905.201
10905.196
10905.189
10905.181
10905.171
10905.159
10905.143
10905.124
10905.1
10905.07
10905.032
10904.985
10904.926
10904.851
10904.757
10904.639
10904.489
10904.3
10904.061
10903.758
10903.375
10902.89
10902.278
10901.508
10900.541
10899.334
10897.832
10895.975
10893.691
10890.897
10887.498
10883.385
10878.433
10872.502
10865.433
10857.05
10847.158
10835.54
10821.959
10806.155
10787.842
10766.708
10742.415
10714.597
10682.86
10646.784
10605.918
10559.775
10507.826
10449.498
10384.176
10311.194
10229.846
10139.408
10039.37
9926.7006
10916.71
10916.711
10916.71
10916.71
10916.709
10916.707
10916.705
10916.703
10916.7
10916.696
10916.691
10916.684
10916.676
10916.666
10916.654
10916.638
10916.618
10916.594
10916.564
10916.526
10916.478
10916.419
10916.344
10916.25
10916.133
10915.984
10915.796
10915.56
10915.26
10914.882
10914.405
10913.803
10913.046
10912.097
10910.913
10909.442
10907.624
10905.39
10902.66
10899.341
10895.325
10890.494
10884.709
10877.816
10869.644
10860.002
10848.679
10835.443
10820.04
10802.19
10781.589
10757.903
10730.774
10699.821
10664.632
10624.769
10579.751
10529.063
10472.139
10408.381
10337.136
10257.717
10169.428
10071.819
9961.6124
10929.008
10929.008
10929.008
10929.007
10929.006
10929.005
10929.003
10929
10928.997
10928.993
10928.988
10928.982
10928.974
10928.964
10928.951
10928.936
10928.916
10928.892
10928.862
10928.824
10928.777
10928.718
10928.644
10928.551
10928.435
10928.288
10928.103
10927.87
10927.576
10927.204
10926.736
10926.146
10925.404
10924.476
10923.318
10921.881
10920.106
10917.927
10915.266
10912.031
10908.121
10903.418
10897.789
10891.086
10883.14
10873.767
10862.761
10849.896
10834.924
10817.571
10797.538
10774.502
10748.113
10718.002
10683.768
10644.982
10601.171
10551.834
10496.413
10434.328
10364.942
10287.586
10201.592
10106.578
9998.9972
10942.114
10942.114
10942.114
10942.114
10942.113
10942.112
10942.11
10942.108
10942.104
10942.101
10942.096
10942.09
10942.082
10942.072
10942.06
10942.045
10942.026
10942.002
10941.973
10941.936
10941.89
10941.833
10941.761
10941.67
10941.556
10941.413
10941.233
10941.005
10940.718
10940.356
10939.899
10939.323
10938.6
10937.696
10936.568
10935.17
10933.443
10931.324
10928.737
10925.594
10921.797
10917.231
10911.771
10905.27
10897.567
10888.482
10877.815
10865.347
10850.834
10834.009
10814.583
10792.24
10766.646
10737.438
10704.229
10666.593
10624.075
10576.177
10522.363
10462.063
10394.66
10319.502
10235.954
10143.705
10038.911
10956.041
10956.041
10956.041
10956.04
10956.039
10956.038
10956.036
10956.034
10956.032
10956.028
10956.023
10956.018
10956.011
10956.001
10955.99
10955.976
10955.958
10955.936
10955.908
10955.873
10955.829
10955.775
10955.705
10955.619
10955.51
10955.372
10955.198
10954.979
10954.701
10954.35
10953.908
10953.35
10952.65
10951.774
10950.681
10949.326
10947.654
10945.601
10943.095
10940.051
10936.376
10931.959
10926.678
10920.394
10912.95
10904.172
10893.867
10881.819
10867.792
10851.529
10832.748
10811.148
10786.402
10758.163
10726.045
10689.64
10648.497
10602.135
10550.03
10491.632
10426.338
10353.516
10272.566
10183.255
10081.407
10970.804
10970.804
10970.804
10970.803
10970.802
10970.801
10970.8
10970.798
10970.795
10970.792
10970.788
10970.783
10970.777
10970.768
10970.758
10970.745
10970.729
10970.708
10970.683
10970.65
10970.61
10970.559
10970.494
10970.413
10970.309
10970.179
10970.013
10969.803
10969.537
10969.201
10968.776
10968.239
10967.565
10966.721
10965.669
10964.364
10962.752
10960.773
10958.356
10955.422
10951.878
10947.62
10942.532
10936.479
10929.311
10920.858
10910.934
10899.329
10885.818
10870.151
10852.06
10831.253
10807.414
10780.203
10749.249
10714.151
10674.471
10629.742
10579.456
10523.077
10460.022
10389.676
10311.475
10225.278
10126.536
10986.427
10986.427
10986.427
10986.427
10986.426
10986.425
10986.424
10986.422
10986.42
10986.417
10986.414
10986.409
10986.404
10986.396
10986.387
10986.375
10986.361
10986.342
10986.319
10986.29
10986.253
10986.206
10986.146
10986.07
10985.973
10985.851
10985.694
10985.495
10985.242
10984.922
10984.516
10984.003
10983.359
10982.551
10981.544
10980.293
10978.748
10976.85
10974.532
10971.716
10968.314
10964.229
10959.347
10953.54
10946.663
10938.553
10929.031
10917.896
10904.932
10889.9
10872.544
10852.579
10829.705
10803.587
10773.868
10740.158
10702.032
10659.037
10610.678
10556.44
10495.755
10428.027
10352.729
10269.826
10174.348
11002.937
11002.937
11002.937
11002.937
11002.936
11002.936
11002.935
11002.933
11002.931
11002.929
11002.926
11002.922
11002.916
11002.91
11002.902
11002.891
11002.878
11002.862
11002.84
11002.814
11002.78
11002.736
11002.681
11002.61
11002.52
11002.405
11002.258
11002.07
11001.83
11001.527
11001.141
11000.655
11000.042
10999.274
10998.315
10997.125
10995.653
10993.843
10991.631
10988.943
10985.696
10981.794
10977.131
10971.585
10965.015
10957.268
10948.171
10937.535
10925.152
10910.796
10894.218
10875.148
10853.294
10828.337
10799.927
10767.688
10731.21
10690.052
10643.736
10591.761
10533.581
10468.615
10396.373
10316.946
10224.891
11020.354
11020.354
11020.354
11020.354
11020.353
11020.353
11020.352
11020.351
11020.349
11020.347
11020.344
11020.34
11020.335
11020.329
11020.322
11020.312
11020.3
11020.284
11020.265
11020.24
11020.208
11020.167
11020.116
11020.049
11019.964
11019.856
11019.717
11019.54
11019.314
11019.027
11018.664
11018.204
11017.626
11016.901
11015.994
11014.868
11013.474
11011.758
11009.66
11007.109
11004.025
11000.319
10995.889
10990.618
10984.375
10977.013
10968.368
10958.26
10946.494
10932.852
10917.098
10898.976
10878.203
10854.473
10827.45
10796.769
10762.034
10722.82
10678.663
10629.08
10573.54
10511.482
10442.451
10366.683
10278.219
11038.687
11038.687
11038.687
11038.686
11038.686
11038.685
11038.684
11038.683
11038.681
11038.679
11038.676
11038.673
11038.668
11038.662
11038.655
11038.646
11038.634
11038.619
11038.6
11038.576
11038.546
11038.507
11038.458
11038.395
11038.314
11038.212
11038.081
11037.914
11037.702
11037.432
11037.091
11036.661
11036.118
11035.438
11034.587
11033.528
11032.216
11030.6
11028.622
11026.216
11023.306
11019.807
11015.624
11010.646
11004.75
10997.796
10989.629
10980.08
10968.966
10956.079
10941.198
10924.077
10904.447
10882.014
10856.456
10827.422
10794.531
10757.371
10715.494
10668.433
10615.674
10556.671
10491.01
10419.082
10334.388
11057.93
11057.93
11057.93
11057.93
11057.929
11057.928
11057.928
11057.926
11057.924
11057.922
11057.919
11057.916
11057.911
11057.906
11057.898
11057.889
11057.877
11057.863
11057.844
11057.821
11057.791
11057.754
11057.706
11057.646
11057.57
11057.473
11057.35
11057.193
11056.995
11056.744
11056.427
11056.026
11055.521
11054.888
11054.095
11053.107
11051.881
11050.369
11048.518
11046.264
11043.537
11040.259
11036.338
11031.67
11026.141
11019.618
11011.957
11003.001
10992.575
10980.487
10966.526
10950.461
10932.037
10910.973
10886.962
10859.669
10828.724
10793.734
10754.263
10709.858
10660.023
10604.227
10542.097
10474.202
10393.454
11078.072
11078.072
11078.072
11078.071
11078.071
11078.071
11078.069
11078.068
11078.067
11078.064
11078.061
11078.058
11078.053
11078.047
11078.04
11078.031
11078.02
11078.005
11077.987
11077.965
11077.936
11077.9
11077.855
11077.799
11077.727
11077.636
11077.521
11077.376
11077.193
11076.961
11076.669
11076.3
11075.835
11075.251
11074.518
11073.603
11072.467
11071.065
11069.346
11067.252
11064.719
11061.673
11058.029
11053.69
11048.549
11042.481
11035.355
11027.024
11017.324
11006.077
10993.087
10978.135
10960.981
10941.361
10918.983
10893.524
10864.634
10831.932
10794.998
10753.392
10706.631
10654.196
10595.767
10532.112
10455.485
11099.099
11099.099
11099.099
11099.099
11099.098
11099.097
11099.096
11099.095
11099.094
11099.092
11099.089
11099.085
11099.081
11099.075
11099.068
11099.06
11099.049
11099.035
11099.019
11098.997
11098.971
11098.937
11098.895
11098.843
11098.777
11098.693
11098.588
11098.456
11098.289
11098.079
11097.813
11097.478
11097.055
11096.522
11095.852
11095.014
11093.971
11092.683
11091.103
11089.177
11086.848
11084.046
11080.693
11076.702
11071.967
11066.381
11059.819
11052.144
11043.209
11032.848
11020.88
11007.1
10991.284
10973.184
10952.524
10929
10902.277
10871.988
10837.73
10799.073
10755.546
10706.634
10652.061
10592.823
10520.64
11120.998
11120.998
11120.998
11120.998
11120.998
11120.997
11120.996
11120.995
11120.994
11120.991
11120.989
11120.986
11120.982
11120.977
11120.971
11120.963
11120.954
11120.941
11120.926
11120.907
11120.884
11120.854
11120.817
11120.77
11120.711
11120.637
11120.544
11120.426
11120.278
11120.091
11119.854
11119.554
11119.174
11118.694
11118.088
11117.329
11116.384
11115.214
11113.779
11112.031
11109.915
11107.37
11104.325
11100.695
11096.391
11091.31
11085.338
11078.355
11070.224
11060.794
11049.9
11037.352
11022.943
11006.442
10987.59
10966.104
10941.663
10913.921
10882.484
10846.937
10806.819
10761.598
10711.004
10656.489
10588.966
11143.763
11143.763
11143.762
11143.762
11143.762
11143.762
11143.761
11143.76
11143.758
11143.757
11143.755
11143.752
11143.749
11143.745
11143.74
11143.734
11143.726
11143.716
11143.703
11143.687
11143.668
11143.642
11143.611
11143.571
11143.521
11143.458
11143.378
11143.277
11143.148
11142.985
11142.778
11142.515
11142.179
11141.753
11141.214
11140.537
11139.691
11138.646
11137.363
11135.8
11133.908
11131.632
11128.907
11125.658
11121.803
11117.25
11111.9
11105.642
11098.355
11089.903
11080.135
11068.881
11055.95
11041.128
11024.178
11004.836
10982.801
10957.743
10929.285
10897.024
10860.497
10819.123
10772.697
10723.182
10660.535
11167.383
11167.383
11167.383
11167.383
11167.382
11167.382
11167.381
11167.381
11167.38
11167.379
11167.377
11167.375
11167.373
11167.37
11167.366
11167.362
11167.356
11167.348
11167.339
11167.327
11167.311
11167.292
11167.267
11167.236
11167.196
11167.144
11167.078
11166.994
11166.886
11166.748
11166.571
11166.343
11166.052
11165.681
11165.21
11164.616
11163.876
11162.96
11161.836
11160.466
11158.809
11156.813
11154.422
11151.57
11148.184
11144.185
11139.484
11133.986
11127.583
11120.156
11111.57
11101.671
11090.288
11077.228
11062.276
11045.189
11025.69
11003.465
10978.157
10949.368
10916.625
10879.345
10837.212
10792.973
10735.572
11191.852
11191.852
11191.852
11191.851
11191.851
11191.851
11191.851
11191.85
11191.85
11191.849
11191.848
11191.847
11191.846
11191.844
11191.841
11191.838
11191.835
11191.83
11191.823
11191.815
11191.805
11191.791
11191.773
11191.749
11191.718
11191.678
11191.626
11191.558
11191.47
11191.356
11191.207
11191.016
11190.769
11190.453
11190.052
11189.546
11188.914
11188.133
11187.174
11186.006
11184.592
11182.887
11180.844
11178.405
11175.509
11172.086
11168.065
11163.361
11157.884
11151.529
11144.177
11135.696
11125.934
11114.721
11101.866
11087.15
11070.321
11051.089
11029.109
11003.992
10975.295
10942.342
10904.701
10865.989
10814.308
11217.152
11217.152
11217.152
11217.152
11217.152
11217.152
11217.151
11217.151
11217.151
11217.15
11217.15
11217.149
11217.149
11217.148
11217.147
11217.145
11217.144
11217.141
11217.137
11217.133
11217.126
11217.117
11217.105
11217.088
11217.065
11217.035
11216.995
11216.942
11216.872
11216.779
11216.659
11216.503
11216.3
11216.041
11215.711
11215.295
11214.776
11214.135
11213.348
11212.388
11211.225
11209.822
11208.14
11206.13
11203.742
11200.923
11197.61
11193.735
11189.224
11183.987
11177.925
11170.924
11162.857
11153.578
11142.92
11130.694
11116.675
11100.594
11082.143
11060.948
11036.56
11008.263
10975.448
10942.489
10896.926
11243.258
11243.258
11243.258
11243.257
11243.258
11243.257
11243.257
11243.257
11243.257
11243.257
11243.257
11243.256
11243.256
11243.256
11243.255
11243.255
11243.254
11243.252
11243.25
11243.248
11243.244
11243.238
11243.23
11243.218
11243.201
11243.179
11243.148
11243.107
11243.052
11242.981
11242.887
11242.765
11242.607
11242.405
11242.147
11241.824
11241.421
11240.924
11240.314
11239.569
11238.666
11237.576
11236.266
11234.702
11232.844
11230.651
11228.076
11225.066
11221.56
11217.488
11212.769
11207.312
11201.014
11193.754
11185.396
11175.775
11164.708
11151.962
11137.257
11120.245
11100.502
11077.284
11049.858
11022.875
10983.424
11270.121
11270.121
11270.121
11270.121
11270.121
11270.12
11270.12
11270.12
11270.12
11270.12
11270.119
11270.119
11270.119
11270.119
11270.119
11270.118
11270.117
11270.116
11270.115
11270.113
11270.11
11270.106
11270.1
11270.091
11270.079
11270.062
11270.039
11270.008
11269.968
11269.915
11269.848
11269.76
11269.647
11269.503
11269.32
11269.091
11268.808
11268.458
11268.029
11267.505
11266.869
11266.101
11265.178
11264.075
11262.767
11261.226
11259.418
11257.306
11254.843
11251.981
11248.657
11244.804
11240.346
11235.193
11229.237
11222.351
11214.383
11205.145
11194.416
11181.896
11167.201
11149.604
11128.363
11107.245
11074.371
11297.686
11297.686
11297.686
11297.685
11297.685
11297.685
11297.685
11297.684
11297.684
11297.683
11297.683
11297.683
11297.682
11297.681
11297.681
11297.68
11297.679
11297.678
11297.676
11297.674
11297.671
11297.667
11297.661
11297.654
11297.644
11297.631
11297.614
11297.592
11297.565
11297.53
11297.488
11297.434
11297.368
11297.283
11297.176
11297.044
11296.881
11296.681
11296.437
11296.141
11295.78
11295.344
11294.82
11294.196
11293.458
11292.592
11291.579
11290.396
11289.015
11287.407
11285.531
11283.346
11280.803
11277.843
11274.394
11270.363
11265.648
11260.105
11253.572
11245.839
11236.605
11225.297
11211.287
11196.933
11172.207
11327.126
11327.126
11327.125
11327.125
11327.124
11327.124
11327.124
11327.123
11327.122
11327.121
11327.121
11327.12
11327.119
11327.117
11327.116
11327.114
11327.112
11327.11
11327.107
11327.103
11327.099
11327.094
11327.087
11327.08
11327.071
11327.06
11327.047
11327.034
11327.019
11327.002
11326.984
11326.966
11326.945
11326.922
11326.898
11326.87
11326.84
11326.805
11326.764
11326.715
11326.655
11326.582
11326.495
11326.394
11326.279
11326.148
11325.999
11325.824
11325.617
11325.366
11325.061
11324.686
11324.224
11323.65
11322.93
11322.016
11320.85
11319.355
11317.434
11314.976
11311.814
11307.631
11302.438
11297.687
11288.607
11358.098
11358.097
11358.097
11358.096
11358.096
11358.095
11358.095
11358.094
11358.093
11358.092
11358.091
11358.089
11358.088
11358.086
11358.083
11358.081
11358.078
11358.074
11358.07
11358.065
11358.059
11358.053
11358.046
11358.038
11358.03
11358.022
11358.015
11358.01
11358.009
11358.013
11358.023
11358.042
11358.073
11358.118
11358.18
11358.265
11358.378
11358.52
11358.696
11358.911
11359.172
11359.486
11359.866
11360.325
11360.874
11361.527
11362.298
11363.197
11364.239
11365.438
11366.809
11368.368
11370.13
11372.107
11374.306
11376.731
11379.374
11382.23
11385.279
11388.517
11391.93
11395.479
11399.501
11404.688
11408.597
11389.009
11389.008
11389.008
11389.007
11389.007
11389.006
11389.005
11389.005
11389.003
11389.002
11389.001
11388.999
11388.998
11388.996
11388.994
11388.991
11388.988
11388.984
11388.981
11388.976
11388.972
11388.966
11388.961
11388.956
11388.952
11388.95
11388.951
11388.958
11388.973
11388.998
11389.038
11389.095
11389.176
11389.286
11389.432
11389.624
11389.871
11390.182
11390.568
11391.044
11391.623
11392.325
11393.172
11394.19
11395.403
11396.841
11398.533
11400.509
11402.804
11405.459
11408.516
11412.023
11416.026
11420.575
11425.72
11431.515
11438.011
11445.269
11453.354
11462.359
11472.388
11483.607
11496.404
11511.198
11527.724
11419.727
11419.727
11419.726
11419.725
11419.725
11419.724
11419.723
11419.723
11419.722
11419.721
11419.72
11419.719
11419.717
11419.716
11419.714
11419.712
11419.71
11419.708
11419.705
11419.703
11419.7
11419.697
11419.695
11419.695
11419.696
11419.701
11419.713
11419.732
11419.762
11419.809
11419.876
11419.971
11420.1
11420.274
11420.504
11420.8
11421.18
11421.658
11422.252
11422.985
11423.879
11424.966
11426.277
11427.851
11429.725
11431.943
11434.551
11437.6
11441.146
11445.255
11449.998
11455.452
11461.698
11468.822
11476.919
11486.09
11496.447
11508.117
11521.242
11536.006
11552.616
11571.374
11592.736
11617.244
11645.664
11450.106
11450.106
11450.105
11450.105
11450.104
11450.104
11450.103
11450.102
11450.102
11450.101
11450.101
11450.1
11450.099
11450.099
11450.098
11450.098
11450.097
11450.096
11450.096
11450.097
11450.097
11450.099
11450.102
11450.108
11450.117
11450.131
11450.153
11450.186
11450.235
11450.305
11450.403
11450.537
11450.718
11450.957
11451.269
11451.67
11452.182
11452.826
11453.626
11454.613
11455.821
11457.289
11459.061
11461.185
11463.714
11466.705
11470.221
11474.333
11479.122
11484.678
11491.097
11498.487
11506.964
11516.651
11527.686
11540.219
11554.42
11570.477
11588.608
11609.08
11632.204
11658.397
11688.217
11722.381
11761.945
11480.03
11480.029
11480.029
11480.029
11480.028
11480.028
11480.027
11480.027
11480.027
11480.027
11480.027
11480.027
11480.027
11480.028
11480.029
11480.029
11480.031
11480.033
11480.035
11480.039
11480.044
11480.05
11480.059
11480.071
11480.089
11480.114
11480.149
11480.198
11480.267
11480.364
11480.495
11480.671
11480.904
11481.209
11481.605
11482.112
11482.755
11483.563
11484.569
11485.808