/*--------------------------------*- C++ -*----------------------------------*\
  =========                 |
  \\      /  F ield         | OpenFOAM: The Open Source CFD Toolbox
   \\    /   O peration     | Website:  https://openfoam.org
    \\  /    A nd           | Version:  13
     \\/     M anipulation  |
\*---------------------------------------------------------------------------*/
FoamFile
{
    format      ascii;
    class       volVectorField;
    location    "28.802348";
    object      UMean;
}
// * * * * * * * * * * * * * * * * * * * * * * * * * * * * * * * * * * * * * //

dimensions      [0 1 -1 0 0 0 0];

internalField   nonuniform List<vector> 
17140
(
(-2.4151699e-06 0.000114432 -1.1778968e-22)
(-2.6957803e-05 0.00035288561 -9.5892193e-24)
(-7.9347795e-05 0.00061431877 6.3391666e-22)
(-0.00017030435 0.00090022436 -6.9723728e-22)
(-0.00030971013 0.0012121623 8.1558563e-23)
(-0.00051101564 0.0015515791 -2.6703748e-22)
(-0.00079078571 0.0019197596 -4.4990068e-22)
(-0.0011690496 0.0023177444 2.2007935e-22)
(-0.0016699569 0.0027462305 7.2091658e-22)
(-0.0023224193 0.0032054526 1.7708549e-21)
(-0.0031607693 0.0036950433 -2.6319738e-21)
(-0.0042254008 0.0042138752 2.35152e-21)
(-0.0055633581 0.0047598887 3.6060278e-22)
(-0.0072288002 0.0053299095 -2.0509422e-21)
(-0.0092832568 0.0059194732 2.2865183e-22)
(-0.011795572 0.0065226689 -1.8227688e-21)
(-0.014841417 0.0071320353 6.8728272e-23)
(-0.018502261 0.0077385347 -1.4957837e-23)
(-0.022863705 0.0083316483 -1.102887e-21)
(-0.028013137 0.0088996313 1.4455456e-21)
(-0.034036799 0.0094299624 -7.0211392e-22)
(-0.041016478 0.009910005 1.3649112e-22)
(-0.049026201 0.010327862 1.0104681e-21)
(-0.058129732 0.010673393 -1.0159244e-21)
(-0.068380447 0.01093933 -1.6333421e-21)
(-0.079821279 0.011122476 1.3288138e-21)
(-0.092483562 0.011224724 6.5742297e-21)
(-0.10639745 0.011252919 7.7547234e-22)
(-0.12159318 0.011218291 -6.9250071e-21)
(-0.13810682 0.01113413 -1.6259556e-21)
(-0.15597494 0.011009146 -5.863914e-21)
(-0.17522505 0.010845604 7.8027792e-21)
(-0.19588624 0.010642162 -2.0404211e-21)
(-0.21797781 0.010396336 -9.8734584e-22)
(-0.24150608 0.010104942 -9.7084128e-21)
(-0.26645661 0.0097635266 4.302375e-21)
(-0.29278467 0.0093663679 -6.4731323e-21)
(-0.32040357 0.0089067932 -4.3809557e-21)
(-0.34917106 0.008377746 -1.9984881e-21)
(-0.37887383 0.0077737736 6.0696735e-21)
(-0.40921283 0.0070929173 1.1376253e-20)
(-0.43978896 0.0063384131 1.0247784e-20)
(-0.47008635 0.0055166783 4.4396332e-21)
(-0.49946363 0.0046341243 -2.1211169e-20)
(-0.52715213 0.0036954942 -1.5269141e-20)
(-0.55225231 0.0027070415 3.6988587e-21)
(-0.57383586 0.001671458 -2.4716248e-20)
(-0.59100597 0.00058507787 -8.2519658e-21)
(-0.60271781 -0.00054915416 8.2811309e-21)
(-0.60821084 -0.0016961212 2.0006363e-20)
(-0.60677281 -0.0028133802 -1.2208308e-20)
(-0.59783609 -0.0038744555 -7.669e-21)
(-0.58078254 -0.0048947216 1.9943542e-20)
(-0.55516739 -0.005884574 9.4486027e-21)
(-0.52032725 -0.0068211887 6.7936397e-21)
(-0.47595584 -0.0077024528 -5.351268e-21)
(-0.42164598 -0.0085733562 1.4819375e-20)
(-0.35739467 -0.0094652048 1.2575311e-20)
(-0.2827104 -0.010397539 3.2275858e-21)
(-0.19873575 -0.011368989 -8.409228e-21)
(-0.10488056 -0.01224236 -6.7542743e-21)
(-0.0054821368 -0.012634523 -2.5501744e-20)
(0.10164628 -0.011805097 -3.8144549e-21)
(0.20408036 -0.0089407318 3.2419046e-20)
(0.31375266 -0.0047417201 -2.5467574e-20)
(-2.1409079e-05 0.00050113558 3.3403761e-23)
(-8.5106926e-05 0.0015440418 -3.3192533e-21)
(-0.00017981609 0.0026858327 2.9545377e-21)
(-0.00031632898 0.0039328681 -8.0602065e-22)
(-0.00050455119 0.0052913817 -1.6655236e-21)
(-0.00075790519 0.0067669925 3.1842626e-21)
(-0.0010928245 0.0083644279 -3.3226324e-21)
(-0.001529112 0.01008713 2.9272921e-22)
(-0.0020905615 0.011936776 -9.1503327e-22)
(-0.0028055767 0.013912706 -1.5270398e-23)
(-0.0037078034 0.016011269 -3.0662098e-21)
(-0.0048367459 0.018225084 4.8858785e-21)
(-0.0062383343 0.020542249 4.0468041e-22)
(-0.0079653738 0.022945531 -4.0092939e-21)
(-0.010077796 0.025411622 1.2375062e-21)
(-0.012642615 0.027910547 7.8958772e-22)
(-0.015733475 0.030405381 -5.031889e-21)
(-0.019429678 0.032852457 1.6499127e-20)
(-0.023814607 0.035202273 -1.0402102e-20)
(-0.028973503 0.037401318 1.2549594e-20)
(-0.034990673 0.039394989 -1.8692914e-20)
(-0.041946323 0.041131613 4.6233917e-21)
(-0.049913401 0.042567385 1.9245391e-21)
(-0.058955151 0.043671669 -6.3348735e-21)
(-0.069124916 0.044431782 2.3027018e-20)
(-0.080466451 0.044856242 3.4501862e-21)
(-0.093011749 0.044974734 -1.8178422e-20)
(-0.10679169 0.044831291 2.0563474e-20)
(-0.12183735 0.044476265 -2.8923448e-21)
(-0.13818436 0.043954994 -2.8258336e-20)
(-0.15586865 0.043302423 2.9840564e-21)
(-0.17491636 0.04254046 2.284105e-20)
(-0.1953549 0.041680191 5.4246488e-22)
(-0.21720108 0.040725338 -1.7299656e-20)
(-0.24045785 0.039672783 1.9454258e-20)
(-0.26510658 0.03851198 -8.7856361e-21)
(-0.29109755 0.037225106 1.0457649e-20)
(-0.31833797 0.035788043 3.3186797e-20)
(-0.34667842 0.034171892 7.3914685e-21)
(-0.37589772 0.032346048 2.8908866e-20)
(-0.40568758 0.03028201 -3.7021092e-20)
(-0.43563752 0.027955325 -3.3713397e-20)
(-0.4652174 0.025345192 -5.6389983e-21)
(-0.49376524 0.022433431 4.5416286e-20)
(-0.52048178 0.019209327 -2.1002474e-20)
(-0.54443568 0.015685095 -7.1460316e-21)
(-0.56463643 0.011898931 3.8576487e-21)
(-0.58013227 0.0078910744 1.1705574e-20)
(-0.58998656 0.0037223667 -5.6577146e-21)
(-0.59334166 -0.00050005678 1.0094042e-20)
(-0.58948887 -0.0046973786 6.0382e-20)
(-0.57784813 -0.0088223928 2.8858608e-21)
(-0.55787154 -0.012862338 -1.2964949e-20)
(-0.52910499 -0.01682588 2.8912541e-20)
(-0.49104129 -0.020697966 -2.4878564e-20)
(-0.44340483 -0.02445865 7.1426678e-20)
(-0.38578245 -0.028144394 2.0621465e-20)
(-0.31830561 -0.031762962 -5.9422842e-20)
(-0.24051038 -0.035281155 1.019072e-20)
(-0.153565 -0.038595909 1.1981343e-20)
(-0.056888481 -0.041312816 2.466216e-21)
(0.044873916 -0.042963282 -3.3192864e-20)
(0.15404221 -0.042196548 6.6170715e-20)
(0.25783891 -0.038935655 1.9987412e-20)
(0.36899297 -0.033131385 3.3880601e-20)
(-6.1563283e-05 0.00087955397 1.8401375e-21)
(-0.00020780254 0.0027099672 -9.9915898e-22)
(-0.00039173087 0.0047139182 -2.6576689e-22)
(-0.00062406555 0.0069027069 2.5220903e-22)
(-0.00091482119 0.0092873092 -1.2223995e-21)
(-0.0012772693 0.011877638 -9.0704581e-23)
(-0.0017275186 0.014682047 -1.1629347e-21)
(-0.0022848145 0.017706637 -1.254141e-21)
(-0.0029721129 0.020954411 1.0270763e-20)
(-0.0038166447 0.024424269 -9.1865983e-21)
(-0.0048504923 0.028109842 4.4061476e-21)
(-0.0061111546 0.031998188 6.4714297e-21)
(-0.0076420688 0.036068378 -1.2876902e-20)
(-0.0094930327 0.040290057 -1.598482e-21)
(-0.01172045 0.044622092 6.2070646e-21)
(-0.014387316 0.049011501 4.2886202e-21)
(-0.017562847 0.053392921 -5.0042848e-21)
(-0.02132164 0.057688929 1.8238456e-20)
(-0.025742296 0.061811636 -1.0870604e-20)
(-0.030905459 0.065665932 5.4168156e-21)
(-0.036891324 0.06915471 -1.8453469e-20)
(-0.043776798 0.072186147 -4.8480337e-21)
(-0.051632628 0.074682693 1.0227749e-20)
(-0.060521056 0.076590758 -1.5551936e-20)
(-0.070495466 0.077889412 -6.1713226e-21)
(-0.081601301 0.078596039 7.550859e-21)
(-0.093872006 0.078765991 4.3238311e-20)
(-0.10734029 0.0784802 1.9725557e-20)
(-0.12203815 0.077827834 -1.0055867e-20)
(-0.13800039 0.076887364 1.073771e-20)
(-0.15526233 0.075721102 -6.9243115e-21)
(-0.17384696 0.074371614 -3.9122299e-20)
(-0.19377793 0.072863039 1.3232784e-20)
(-0.21506668 0.07120548 3.9765333e-20)
(-0.23770902 0.069395887 -1.3532848e-20)
(-0.26167726 0.067417717 -1.8927574e-20)
(-0.28691051 0.065241143 3.2936106e-20)
(-0.3133025 0.062824454 1.0009827e-20)
(-0.34068756 0.060116755 -1.8047478e-20)
(-0.3688252 0.057061907 -7.2825267e-21)
(-0.39738404 0.053603632 3.4705644e-20)
(-0.42592457 0.049688062 -9.9637391e-21)
(-0.45387975 0.045264319 -1.4247213e-20)
(-0.48054162 0.040286661 -3.7518876e-20)
(-0.50505341 0.034726924 7.0972706e-20)
(-0.52642767 0.028605086 -4.5400867e-20)
(-0.54364752 0.02201007 -1.1188214e-20)
(-0.55570942 0.015048641 -4.4434764e-20)
(-0.56166826 0.0078239168 -5.2890654e-20)
(-0.5607099 0.00051583526 -2.6531971e-21)
(-0.55220277 -0.0067220175 1.1125993e-20)
(-0.535652 -0.013817128 -8.2680873e-20)
(-0.51060708 -0.020769005 -3.5385278e-20)
(-0.47666738 -0.027592835 -3.6621648e-20)
(-0.43343603 -0.034269276 -1.2090446e-20)
(-0.38071635 -0.040764658 -9.5329864e-20)
(-0.31823073 -0.047091831 3.8233128e-20)
(-0.24624529 -0.053247121 -1.1951215e-20)
(-0.1643311 -0.059140967 -9.981933e-20)
(-0.07382307 -0.064582912 -4.0469859e-20)
(0.025950231 -0.06886489 4.9450919e-20)
(0.12989044 -0.07153028 1.7380349e-19)
(0.24063195 -0.070521222 -5.6885629e-20)
(0.34408682 -0.06669447 -9.2577813e-20)
(0.45421038 -0.058794401 -4.0264639e-20)
(-0.00012161986 0.0012368215 -6.13347e-21)
(-0.00039126186 0.0038113372 7.1581097e-21)
(-0.0007085848 0.0066306678 -2.5892118e-21)
(-0.0010841426 0.0097110526 2.8168311e-22)
(-0.0015281111 0.013068251 -5.5700219e-21)
(-0.002053541 0.016716625 5.7687367e-21)
(-0.0026760355 0.020668433 -8.7577806e-21)
(-0.0034139927 0.024932872 4.1276723e-21)
(-0.0042890998 0.02951489 1.5712355e-20)
(-0.0053268122 0.034413782 -3.7873143e-21)
(-0.0065568488 0.039621553 -1.4453086e-20)
(-0.0080136747 0.045121062 4.4272246e-21)
(-0.0097369577 0.050884004 2.9835944e-22)
(-0.011771939 0.056868828 -1.1672898e-20)
(-0.014169672 0.063018744 3.6718168e-20)
(-0.016987046 0.06926009 -2.2684786e-20)
(-0.020286527 0.075501408 -2.1731768e-22)
(-0.024135515 0.081633686 1.2743353e-20)
(-0.028605259 0.087532385 -3.2669846e-20)
(-0.033769286 0.093061775 1.5590835e-20)
(-0.039701375 0.098082165 2.3528279e-20)
(-0.046473203 0.10246017 9.6368496e-21)
(-0.054151924 0.10608159 -4.8417344e-20)
(-0.062798048 0.10886562 -2.5652004e-20)
(-0.072464852 0.11077786 1.6892954e-20)
(-0.083199867 0.111839 -9.9583025e-21)
(-0.095039196 0.11212558 3.804057e-20)
(-0.10801822 0.11175441 -1.1078642e-20)
(-0.12216969 0.1108522 3.0355728e-20)
(-0.13752793 0.10953266 -1.7454606e-20)
(-0.15412766 0.10788647 1.0887263e-20)
(-0.17198716 0.10597827 -4.0651655e-20)
(-0.19112433 0.10384637 5.948768e-21)
(-0.21154268 0.10150768 -3.1492756e-20)
(-0.23322763 0.098959446 3.0541324e-20)
(-0.25613833 0.096179227 9.7132081e-21)
(-0.28019747 0.093125186 -1.2411741e-19)
(-0.30527888 0.089737955 -3.2466753e-20)
(-0.33119315 0.085944173 2.7172018e-20)
(-0.35767189 0.081661679 -2.6784436e-20)
(-0.38435056 0.076805243 6.8046849e-21)
(-0.41074901 0.071289782 4.3187491e-20)
(-0.43625112 0.065032471 -2.0413255e-21)
(-0.46009144 0.05795993 -1.4202477e-20)
(-0.48135076 0.050031251 7.0599173e-21)
(-0.49900282 0.041286454 -3.1124844e-21)
(-0.51203275 0.031861828 -9.6300932e-21)
(-0.51941673 0.021934599 1.5073061e-19)
(-0.52026555 0.011694094 -1.6689704e-20)
(-0.51387646 0.0014030534 1.5386282e-20)
(-0.49975004 -0.0087307027 -1.4412942e-19)
(-0.47750713 -0.018615635 7.909968e-20)
(-0.44679197 -0.028263437 6.4978801e-20)
(-0.40728485 -0.037702453 6.2422039e-20)
(-0.35868164 -0.046914936 6.0656631e-20)
(-0.30092182 -0.055862809 9.6472921e-20)
(-0.23385944 -0.064542894 -1.9519707e-19)
(-0.1579057 -0.072962446 1.22155e-19)
(-0.072660598 -0.080979339 1.8943693e-19)
(0.020326956 -0.088354726 -1.4143011e-19)
(0.12182922 -0.094017295 -4.6422841e-20)
(0.22617999 -0.097557907 -4.1895689e-20)
(0.3363751 -0.095996996 2.1450399e-19)
(0.43692779 -0.091298379 1.597737e-19)
(0.54194706 -0.081147831 -7.1546382e-21)
(-0.00019888372 0.0015601153 4.2918581e-21)
(-0.00062732935 0.0048088675 -1.0427562e-20)
(-0.0011163446 0.0083681046 8.5051862e-21)
(-0.0016762897 0.012258942 -3.2160694e-21)
(-0.002317563 0.016501929 -1.1625561e-21)
(-0.0030529503 0.021116043 1.0014214e-20)
(-0.0038974256 0.026117795 -2.5406121e-21)
(-0.0048683218 0.03152005 -5.4010378e-21)
(-0.0059857206 0.037330555 -4.1554932e-22)
(-0.0072728206 0.043550186 -3.5356378e-21)
(-0.0087563245 0.050170887 4.9645377e-21)
(-0.010466813 0.057173313 -3.4635383e-21)
(-0.012439106 0.064524233 -1.2813238e-20)
(-0.014712564 0.072173813 -3.7231475e-22)
(-0.017331298 0.080052923 9.9113177e-21)
(-0.020344232 0.088070861 7.0708331e-21)
(-0.023804964 0.096113829 -6.1342693e-21)
(-0.02777136 0.10404485 5.9924243e-22)
(-0.032304829 0.11170581 1.2226462e-20)
(-0.03746924 0.11892244 1.5074416e-20)
(-0.0433295 0.12551303 -1.7447418e-20)
(-0.049949856 0.13130122 -1.7821939e-20)
(-0.057392096 0.1361325 2.4367633e-20)
(-0.065713856 0.13989291 -3.062778e-20)
(-0.074967839 0.14252694 -5.3871185e-20)
(-0.085203113 0.14405023 1.2913118e-19)
(-0.096460769 0.1445529 -7.2205051e-20)
(-0.10877845 0.14418356 1.0838987e-19)
(-0.12218927 0.143106 -1.373234e-19)
(-0.1367295 0.14147271 1.5518052e-19)
(-0.15243184 0.13940269 -1.6232451e-19)
(-0.16930967 0.13698445 2.7721269e-20)
(-0.18737313 0.13427262 9.6217297e-20)
(-0.20661601 0.13129185 -5.4765332e-20)
(-0.22701086 0.12804026 1.7291727e-20)
(-0.24850035 0.12448954 5.162762e-21)
(-0.27098691 0.12058582 6.2864562e-20)
(-0.2943201 0.11625206 2.044057e-20)
(-0.31828223 0.11139249 2.0496015e-20)
(-0.34257238 0.10589843 2.059643e-20)
(-0.36678773 0.099654444 -1.0504184e-19)
(-0.39040257 0.092542231 4.6035898e-20)
(-0.41274908 0.084446024 7.0240946e-21)
(-0.43300662 0.075266635 -8.3432175e-20)
(-0.45020966 0.06495962 -4.1743834e-20)
(-0.46333126 0.053600789 2.0564857e-20)
(-0.47139321 0.041390989 7.3199698e-20)
(-0.47343741 0.0285715 -3.1861313e-20)
(-0.46867528 0.01543165 9.1355858e-20)
(-0.45653676 0.0023210958 4.9278975e-20)
(-0.43663342 -0.010501707 6.7901299e-20)
(-0.40867933 -0.022948151 1.8114325e-19)
(-0.37237431 -0.035060094 -1.4056115e-19)
(-0.32744517 -0.046883284 4.5481515e-20)
(-0.27367061 -0.058386357 -7.9887819e-20)
(-0.21114938 -0.069511259 -7.6605864e-20)
(-0.13991774 -0.080252099 -3.0129294e-20)
(-0.06055113 -0.090661862 -2.8292333e-19)
(0.027319669 -0.10052566 -7.7951375e-20)
(0.1218653 -0.1095954 1.819359e-19)
(0.22397505 -0.11635516 7.0048055e-20)
(0.32729203 -0.12056443 -5.4306121e-20)
(0.43485301 -0.11821655 -1.1443083e-19)
(0.53057154 -0.11216326 -1.7900321e-19)
(0.6271476 -0.09963391 1.4146478e-20)
(-0.00028922552 0.0018371513 1.2978103e-20)
(-0.00090344756 0.0056648813 3.3420065e-21)
(-0.0015934008 0.0098609474 -2.7088839e-21)
(-0.0023692532 0.014451195 -1.0005768e-20)
(-0.0032417003 0.019460901 5.4859906e-21)
(-0.0042232633 0.024913794 -7.9047278e-21)
(-0.0053282333 0.030831005 3.4247334e-21)
(-0.006572758 0.037229722 8.16872e-22)
(-0.0079751094 0.044121507 -4.6338318e-21)
(-0.0095559199 0.051510267 -1.001168e-20)
(-0.011338436 0.059389835 -5.0205295e-22)
(-0.013348761 0.067741192 1.6578676e-20)
(-0.015616092 0.07652934 -2.3043065e-20)
(-0.018172921 0.085699949 3.7435801e-20)
(-0.021055189 0.095175985 -9.854719e-21)
(-0.024302366 0.10485462 2.1109693e-20)
(-0.027957417 0.11460496 -2.5791659e-20)
(-0.032066635 0.12426725 1.6947142e-20)
(-0.036679302 0.13365446 -2.7183182e-21)
(-0.04184716 0.14255734 -1.1185922e-20)
(-0.047623685 0.15075386 2.7638423e-20)
(-0.054063198 0.15802379 -3.9734961e-20)
(-0.06121987 0.16416835 4.4045731e-20)
(-0.069146705 0.16903329 7.679205e-21)
(-0.077894769 0.17253212 -7.7276495e-20)
(-0.087513698 0.17466405 7.9646481e-20)
(-0.098050689 0.17552108 -5.2838929e-20)
(-0.10954527 0.17527464 6.0312999e-20)
(-0.12203338 0.17412826 5.6990834e-21)
(-0.13555339 0.17227447 3.5806126e-21)
(-0.15013399 0.16986143 -2.518646e-20)
(-0.16578654 0.16700398 1.6060676e-21)
(-0.18251069 0.16377604 -9.7121796e-20)
(-0.20028963 0.16021183 2.6699837e-20)
(-0.21908107 0.1563111 8.0171936e-20)
(-0.23880919 0.15204007 -3.7797512e-20)
(-0.25935399 0.14733323 3.1375169e-20)
(-0.28053877 0.1420964 -3.1522903e-20)
(-0.30211592 0.13621167 -1.7652083e-19)
(-0.32375032 0.1295435 9.7867919e-20)
(-0.34499987 0.12194496 2.3875161e-20)
(-0.36529465 0.11326373 -1.3512427e-19)
(-0.3839218 0.10335218 8.1279582e-21)
(-0.40002182 0.092090875 1.6598909e-20)
(-0.41261759 0.079444832 1.7546562e-19)
(-0.4207421 0.065541288 4.0216405e-20)
(-0.42348125 0.050653229 -6.242559e-20)
(-0.42000989 0.035082041 -6.3146559e-20)
(-0.40964259 0.019216864 -8.874184e-20)
(-0.39189264 0.0034818254 -1.0840705e-19)
(-0.36642315 -0.011823134 -6.5701327e-20)
(-0.33300617 -0.026617051 -1.0258004e-19)
(-0.29137209 -0.040976617 3.5190515e-20)
(-0.24128828 -0.054955089 -2.1759669e-19)
(-0.18262512 -0.06849015 -1.4602296e-20)
(-0.1156656 -0.081499926 -1.2804378e-20)
(-0.040615895 -0.093972069 -6.901394e-21)
(0.041728949 -0.10604738 3.0432924e-19)
(0.13175233 -0.11742853 1.2163163e-19)
(0.22728345 -0.12791256 -1.9107515e-19)
(0.32925972 -0.13547672 -2.8152909e-19)
(0.4307374 -0.13995804 -1.28969e-19)
(0.53369009 -0.13659761 -4.3069092e-20)
(0.62269625 -0.1286869 2.5402247e-19)
(0.70867925 -0.11360731 -6.4928058e-20)
(-0.00038714957 0.002057014 -2.4302741e-21)
(-0.0012031006 0.0063457605 -5.6182555e-21)
(-0.0021111966 0.011050827 1.3568712e-20)
(-0.0031217079 0.016202472 -5.0553876e-22)
(-0.0042456117 0.021830557 -6.6185924e-21)
(-0.0054952222 0.027963613 -2.9204212e-21)
(-0.0068841745 0.034627704 -2.1595216e-21)
(-0.0084274279 0.041844995 4.2639937e-21)
(-0.010141396 0.049631934 -2.2124974e-20)
(-0.012044045 0.057997033 1.6747438e-20)
(-0.01415499 0.066938212 -8.1167994e-22)
(-0.016495588 0.076439669 -1.0215573e-20)
(-0.019089021 0.086468317 3.8430154e-20)
(-0.021960367 0.096969858 -3.8554785e-20)
(-0.025136658 0.1078647 5.1816459e-21)
(-0.028646933 0.11904401 3.2333182e-20)
(-0.032522271 0.13036646 -3.0746337e-20)
(-0.036795817 0.14165638 1.0894816e-20)
(-0.04150281 0.15270436 -2.1460954e-20)
(-0.046680602 0.16327156 2.7999918e-20)
(-0.052368681 0.17309902 5.3518036e-20)
(-0.0586087 0.18192312 -5.4015227e-20)
(-0.065444446 0.18949739 -8.0660359e-20)
(-0.072921747 0.19561959 1.5873474e-19)
(-0.081088134 0.20016046 -1.2976858e-19)
(-0.08999271 0.20308831 7.6691784e-20)
(-0.099686608 0.20448159 -2.015383e-20)
(-0.11021474 0.20452135 4.8310894e-20)
(-0.12161727 0.20344945 -5.0341744e-20)
(-0.13393064 0.20149807 -6.8622564e-20)
(-0.14718363 0.19885092 4.6339767e-20)
(-0.1613871 0.19565016 7.7365731e-20)
(-0.17652831 0.19199215 -6.9589206e-21)
(-0.19257934 0.18792393 -2.9382485e-21)
(-0.20948201 0.18344866 -5.13259e-20)
(-0.22714106 0.17852835 2.2371869e-20)
(-0.24541354 0.17308681 8.2448191e-20)
(-0.26409638 0.1670135 4.1525848e-20)
(-0.28291205 0.16016869 -6.3954715e-20)
(-0.30149202 0.15238975 5.0797871e-20)
(-0.31935733 0.14349809 -4.2939302e-20)
(-0.33590049 0.13330838 1.4573652e-20)
(-0.35037779 0.12164513 5.4490404e-20)
(-0.36191863 0.10837912 -1.2968726e-19)
(-0.36958181 0.093501594 -7.6675824e-20)
(-0.37251054 0.077199118 -4.9353156e-20)
(-0.36989957 0.059807482 1.5320616e-19)
(-0.36105438 0.041682512 9.8376966e-20)
(-0.34534147 0.023279177 1.1426453e-19)
(-0.32226819 0.0050944614 1.9766596e-19)
(-0.2915222 -0.012516359 -6.7738149e-20)
(-0.25292452 -0.029473338 1.4268959e-20)
(-0.20623029 -0.045891595 1.1328513e-19)
(-0.15127132 -0.061826782 3.3408565e-19)
(-0.088049839 -0.077164926 2.2234793e-19)
(-0.017056763 -0.091794566 8.8740515e-20)
(0.061420822 -0.10569055 2.6332521e-19)
(0.14639627 -0.11912235 -1.8168549e-19)
(0.23827769 -0.13168282 1.9033149e-20)
(0.33460389 -0.14321574 3.0792094e-19)
(0.43595146 -0.15123458 2.1430735e-19)
(0.53496944 -0.15544668 1.0259024e-20)
(0.63158368 -0.15071536 -3.58024e-19)
(0.71187953 -0.1406644 3.7894016e-20)
(0.78555617 -0.12287229 -5.5586267e-20)
(-0.00048615146 0.002210824 -9.5074948e-21)
(-0.0015064258 0.0068240316 4.6490811e-21)
(-0.0026354844 0.011889832 -6.2841266e-21)
(-0.0038839916 0.01744243 -3.5743045e-21)
(-0.005263202 0.02351598 9.9851038e-21)
(-0.0067853201 0.03014373 9.3325383e-21)
(-0.0084634274 0.037356861 -9.5922531e-21)
(-0.010311406 0.045183055 1.1558902e-21)
(-0.012343931 0.053644633 2.6834768e-22)
(-0.014576423 0.062756269 1.913819e-20)
(-0.017024984 0.072522198 -2.1091487e-21)
(-0.019706319 0.082932863 -3.891671e-20)
(-0.022637645 0.093961041 3.1288909e-20)
(-0.025836596 0.10555744 -1.08739e-21)
(-0.029321149 0.11764593 -2.128813e-20)
(-0.03310958 0.13011877 -1.8512591e-21)
(-0.037220493 0.14283214 4.7615556e-21)
(-0.041672965 0.15560296 2.1746962e-20)
(-0.046486842 0.16820797 -4.0444209e-20)
(-0.051683244 0.18038647 7.2320354e-20)
(-0.057285324 0.19184843 -1.5906077e-20)
(-0.063319203 0.20228948 1.1901962e-20)
(-0.069815079 0.21141378 -1.0024952e-20)
(-0.076808275 0.218964 4.0685351e-22)
(-0.084339841 0.22475554 -6.1880313e-20)
(-0.092456471 0.22870862 -6.300336e-20)
(-0.10120983 0.23086921 1.2720979e-19)
(-0.11065327 0.23140904 2.1549679e-20)
(-0.12083078 0.23059302 -7.650976e-20)
(-0.13177622 0.228702 -2.7642963e-20)
(-0.14352165 0.22596353 -6.3283096e-20)
(-0.15607704 0.22254346 7.2538835e-20)
(-0.1694211 0.21856549 3.2089856e-20)
(-0.18351196 0.214095 -7.5452176e-20)
(-0.19827561 0.20914128 3.2071143e-20)
(-0.2135976 0.20366455 1.5085718e-20)
(-0.22931248 0.19757963 -4.5551157e-20)
(-0.24519151 0.19076074 -1.1957749e-19)
(-0.2609285 0.18304703 -3.6375858e-20)
(-0.27612347 0.17424932 2.4442532e-20)
(-0.29026519 0.16415876 5.8004892e-20)
(-0.30271861 0.15256069 5.9763189e-20)
(-0.31272783 0.13925977 6.5843142e-20)
(-0.3194422 0.12413039 1.3730297e-19)
(-0.32200351 0.10720563 -3.7133875e-21)
(-0.31968448 0.088735039 5.7099276e-20)
(-0.31181124 0.069089931 -3.0527746e-19)
(-0.29775801 0.048651422 -8.3706657e-20)
(-0.27686272 0.027910044 -9.4859369e-20)
(-0.248625 0.0074477089 -2.6082769e-19)
(-0.21280131 -0.01229982 3.0324824e-19)
(-0.16926562 -0.031252722 -6.7560788e-20)
(-0.11779787 -0.049557306 -2.1768097e-19)
(-0.058316575 -0.067253676 -2.6930203e-19)
(0.0090313413 -0.084166363 -3.4629848e-20)
(0.083596612 -0.10017364 8.8182646e-20)
(0.16503582 -0.11523979 1.4440999e-19)
(0.25231166 -0.12976466 -6.1971233e-20)
(0.34582983 -0.14322772 1.137473e-19)
(0.44294305 -0.15542477 -9.6927693e-20)
(0.5432851 -0.16351182 -3.3318459e-20)
(0.63881764 -0.1667716 -1.0039421e-19)
(0.72717849 -0.16016602 4.4641403e-19)
(0.79640898 -0.14773798 1.4644369e-20)
(0.85575397 -0.12721879 1.8280149e-19)
(-0.00057909421 0.0022924858 8.846286e-21)
(-0.0017914089 0.0070807327 1.7115202e-21)
(-0.0031283471 0.012344628 -1.8819586e-21)
(-0.0046010192 0.018121715 -9.2563086e-21)
(-0.0062210321 0.024449962 1.1111147e-20)
(-0.0080005946 0.031367036 -9.4458779e-21)
(-0.009952392 0.038909208 -4.5201733e-21)
(-0.012089443 0.047109986 2.4301776e-22)
(-0.014424955 0.05599832 3.8313023e-21)
(-0.016972139 0.06559637 2.1843051e-20)
(-0.019743986 0.075916699 -3.6792024e-20)
(-0.022753012 0.086958887 4.4377665e-20)
(-0.026010976 0.098705459 -1.3095064e-20)
(-0.0295286 0.11111717 -1.7872299e-20)
(-0.033315302 0.1241277 2.7602625e-20)
(-0.037379001 0.13763801 -5.4864982e-20)
(-0.041726046 0.15151075 6.71561e-20)
(-0.046361347 0.16556542 1.0649141e-21)
(-0.051288813 0.17957545 3.947616e-20)
(-0.056512193 0.19326859 -1.5919805e-19)
(-0.062036401 0.2063327 3.9242521e-20)
(-0.067869358 0.21842876 1.6546241e-19)
(-0.074024233 0.22921298 -7.987621e-20)
(-0.080521825 0.23836829 -9.7324344e-20)
(-0.087392545 0.24564292 2.5029547e-20)
(-0.094677242 0.2508904 1.3362692e-19)
(-0.10242616 0.25410107 -2.067804e-19)
(-0.11069554 0.25541292 2.3373844e-19)
(-0.11953903 0.25508922 -1.8737066e-19)
(-0.1289938 0.25345353 3.6504423e-20)
(-0.13908383 0.25079552 -6.3499137e-20)
(-0.14982242 0.2473169 -9.1637592e-20)
(-0.161188 0.24315748 3.6746983e-20)
(-0.17312299 0.23840785 9.6796466e-21)
(-0.18553897 0.23309244 1.3864673e-19)
(-0.19830156 0.2271735 -2.7313985e-20)
(-0.21122353 0.22055893 7.0288268e-20)
(-0.22405139 0.21310912 -5.9768895e-20)
(-0.23645153 0.20464334 3.5798071e-20)
(-0.24799487 0.19494748 2.3268203e-20)
(-0.25814308 0.18378587 1.9936955e-20)
(-0.26624422 0.1709212 1.9785158e-20)
(-0.2715483 0.15614955 -1.2015003e-19)
(-0.27324936 0.13936381 -9.3873452e-20)
(-0.2706015 0.12064909 2.6388929e-20)
(-0.26298505 0.10031263 -1.6476884e-20)
(-0.24983542 0.078724098 6.8429249e-20)
(-0.23051686 0.05625221 -1.342273e-19)
(-0.20435443 0.033415546 -1.547905e-19)
(-0.17096656 0.010898447 -4.4549008e-20)
(-0.13023231 -0.010785476 -1.1684894e-19)
(-0.082049299 -0.031552712 3.7298741e-21)
(-0.026187021 -0.051570371 5.6615414e-20)
(0.037333072 -0.070858139 2.7601033e-19)
(0.10826067 -0.089167311 -1.3912207e-19)
(0.18586416 -0.1063743 5.6754129e-20)
(0.26974423 -0.12244585 -1.6860388e-19)
(0.35905409 -0.13786894 2.8747938e-19)
(0.45414587 -0.15199044 -1.6762938e-19)
(0.55200558 -0.16437425 5.8768758e-20)
(0.65080019 -0.17183202 -5.6286296e-23)
(0.74104662 -0.17342853 4.8020507e-20)
(0.81859091 -0.16453389 1.809431e-19)
(0.8739884 -0.14993775 -3.454475e-19)
(0.91703136 -0.12728938 3.5700309e-19)
(-0.00065863496 0.0022993667 -1.9585101e-20)
(-0.0020355499 0.0071074233 -9.6980294e-21)
(-0.0035508775 0.012399984 1.5235772e-20)
(-0.0052161879 0.01821714 -4.0137499e-22)
(-0.0070434887 0.024599973 -1.3802997e-20)
(-0.0090451072 0.031590023 -7.2270698e-21)
(-0.011233523 0.039228316 1.5260876e-20)
(-0.013621171 0.047554149 -2.5105485e-21)
(-0.016220179 0.056603468 3.5501886e-20)
(-0.019042059 0.066406795 -6.9430913e-21)
(-0.022097337 0.076986587 -1.7823722e-22)
(-0.025395132 0.088353942 2.5768916e-20)
(-0.028942683 0.10050456 -8.3097521e-20)
(-0.032744861 0.1134139 3.9013518e-20)
(-0.036803683 0.12703154 7.0532545e-20)
(-0.041117891 0.14127485 -7.598135e-20)
(-0.04568268 0.15602231 9.4662072e-21)
(-0.050489678 0.171107 -5.4608597e-20)
(-0.055527325 0.18631136 -4.1255353e-20)
(-0.060781827 0.2013646 1.3227291e-19)
(-0.066238809 0.21594499 -1.0141924e-19)
(-0.071885862 0.22968932 1.3653723e-19)
(-0.077715817 0.24221224 -1.6442853e-20)
(-0.083730582 0.25313674 6.8751139e-20)
(-0.08994477 0.26213533 -1.5316525e-19)
(-0.096388175 0.26897699 3.7129496e-20)
(-0.1031057 0.27357053 9.5797124e-20)
(-0.11015355 0.2759902 -2.3644567e-19)
(-0.11759056 0.27646826 1.0480953e-19)
(-0.12546527 0.27534256 1.1470524e-19)
(-0.13380094 0.27296366 -9.6444692e-20)
(-0.14259851 0.26960345 -1.297572e-20)
(-0.15184135 0.26543646 6.6584622e-20)
(-0.16146776 0.26056552 -3.7324153e-20)
(-0.17136964 0.25502949 5.7874784e-20)
(-0.18139753 0.248802 -2.0567412e-19)
(-0.19134318 0.24178988 1.0894286e-19)
(-0.20092799 0.2338428 6.6028417e-20)
(-0.20979087 0.22476245 1.3621776e-19)
(-0.21747551 0.21431282 1.7983486e-20)
(-0.22342165 0.20223669 -1.4706239e-19)
(-0.22696967 0.18828284 5.9233198e-20)
(-0.22738893 0.17225109 8.7237524e-20)
(-0.22393173 0.15406647 1.368537e-20)
(-0.21596018 0.13386625 -8.356874e-20)
(-0.20292514 0.11199814 -7.2902798e-20)
(-0.18432006 0.088804949 2.1967105e-19)
(-0.15949401 0.064629247 1.1532835e-19)
(-0.12791965 0.04002741 2.4848418e-19)
(-0.089450168 0.015774783 8.6804696e-20)
(-0.044069579 -0.0075729636 3.3567055e-20)
(0.0083709158 -0.029948311 2.4800456e-19)
(0.068130744 -0.051516018 9.7650259e-20)
(0.13512001 -0.07224512 -3.2980259e-19)
(0.20906968 -0.091801663 2.6630922e-19)
(0.28915478 -0.11005546 -2.4669812e-19)
(0.3751241 -0.126996 1.1940726e-19)
(0.46655475 -0.14312724 -5.8205549e-19)
(0.56343586 -0.15760799 -2.9372814e-19)
(0.66203071 -0.16970369 1.1987395e-19)
(0.75803546 -0.17595554 1.8933732e-19)
(0.83980064 -0.17527841 3.1901903e-19)
(0.90310171 -0.16390473 5.6525853e-20)
(0.9418301 -0.1473873 4.4667659e-20)
(0.96775405 -0.12335743 -4.7688067e-19)
(-0.00071792981 0.002232882 -3.5228597e-22)
(-0.0022178251 0.0069080113 1.7985577e-20)
(-0.0038666443 0.01206196 -2.1217593e-20)
(-0.0056763724 0.017736399 -1.0219584e-20)
(-0.0076594192 0.023974589 2.0489964e-20)
(-0.0098283156 0.030821108 6.6455063e-21)
(-0.012195517 0.03832104 -3.2281691e-20)
(-0.014773174 0.046518995 3.4808744e-20)
(-0.01757278 0.055457738 7.3613207e-21)
(-0.020604767 0.065176407 2.937229e-20)
(-0.023878007 0.07570817 -7.8283438e-20)
(-0.027399256 0.087077205 -9.5959274e-22)
(-0.031172502 0.099294915 7.1014159e-20)
(-0.035198275 0.11235519 -7.673902e-20)
(-0.039472919 0.12622871 5.5380217e-20)
(-0.043987904 0.14085627 2.0732841e-20)
(-0.048729258 0.15614116 -4.381195e-20)
(-0.053677251 0.17194125 4.0070039e-20)
(-0.058806512 0.18806136 5.4161362e-20)
(-0.064086786 0.20424735 -1.1723898e-21)
(-0.069484651 0.22018412 -8.8582232e-20)
(-0.074966308 0.23549999 5.5903573e-20)
(-0.080501681 0.24978087 -3.1827677e-20)
(-0.086069478 0.26259693 -1.5746162e-19)
(-0.091662704 0.27354293 -5.3778854e-20)
(-0.097293352 0.28228972 1.494604e-19)
(-0.10299443 0.28863879 -1.5245758e-20)
(-0.10881748 0.29256567 1.7589121e-19)
(-0.11482377 0.29423351 -1.0628039e-19)
(-0.12106933 0.29395884 5.7162587e-20)
(-0.12758757 0.29212753 -8.449562e-20)
(-0.13438153 0.28909117 -2.0932471e-20)
(-0.14141801 0.28509294 1.0734463e-19)
(-0.14862691 0.28026773 -1.1261273e-19)
(-0.15589932 0.27467474 -1.6725966e-19)
(-0.16306953 0.26829695 1.735066e-20)
(-0.16990719 0.26104078 1.8607682e-19)
(-0.17611007 0.25274808 -2.4098201e-19)
(-0.18129025 0.24320726 5.2688569e-20)
(-0.18496653 0.23216606 -1.1331739e-19)
(-0.18656186 0.21935307 1.752561e-20)
(-0.18541721 0.20451259 -1.7844979e-19)
(-0.18082901 0.1874585 -8.5656332e-20)
(-0.1721139 0.16815247 -1.0577985e-19)
(-0.15870171 0.14678264 4.2474187e-19)
(-0.14010099 0.12371408 1.374843e-19)
(-0.11583747 0.099264659 -1.8235754e-19)
(-0.085351584 0.073764567 1.474938e-19)
(-0.048416279 0.047810626 1.2259702e-19)
(-0.0051133049 0.022211015 -1.3784262e-19)
(0.044544724 -0.0025009804 -7.1854077e-20)
(0.10081055 -0.026288592 -1.6810787e-19)
(0.16398017 -0.049255757 -8.1575056e-20)
(0.23400996 -0.071285391 2.7941087e-19)
(0.31058508 -0.091962143 1.5781192e-19)
(0.39287731 -0.11116892 2.5472464e-20)
(0.48119261 -0.12891499 -1.0328087e-21)
(0.57542995 -0.14559211 1.4410781e-19)
(0.67463881 -0.16007875 -2.0980584e-19)
(0.77328574 -0.17110714 -2.7359039e-19)
(0.86319823 -0.17514732 -7.7143786e-20)
(0.93189967 -0.17169855 -5.8991492e-19)
(0.97699892 -0.1581207 -4.7251936e-19)
(0.99735965 -0.14074389 -1.2088448e-19)
(1.0065948 -0.1169696 -6.4672261e-20)
(-0.00075137387 0.0020988337 1.1897221e-20)
(-0.0023209552 0.00649985 7.5359584e-21)
(-0.0040456083 0.011359889 -1.5682566e-20)
(-0.0059376186 0.016721072 2.6899273e-20)
(-0.0080097281 0.02262769 6.7402549e-21)
(-0.010274692 0.029126227 -2.8913207e-20)