/*--------------------------------*- C++ -*----------------------------------*\
  =========                 |
  \\      /  F ield         | OpenFOAM: The Open Source CFD Toolbox
   \\    /   O peration     | Website:  https://openfoam.org
    \\  /    A nd           | Version:  13
     \\/     M anipulation  |
\*---------------------------------------------------------------------------*/
FoamFile
{
    format      ascii;
    class       surfaceScalarField;
    location    "2500";
    object      phi;
}
// * * * * * * * * * * * * * * * * * * * * * * * * * * * * * * * * * * * * * //

dimensions      [0 3 -1 0 0 0 0];

internalField   nonuniform List<scalar> 
18914
(
1.2386634e-09
-7.0819189e-10
-5.3047216e-10
5.7039077e-09
-2.5557292e-09
-1.9095303e-09
1.4828429e-08
-5.2294788e-09
-3.8950796e-09
3.0570508e-08
-9.0379965e-09
-6.7041303e-09
5.5596874e-08
-1.4400057e-08
-1.0626369e-08
9.3527095e-08
-2.1882595e-08
-1.6047702e-08
1.4926052e-07
-3.2252166e-08
-2.348135e-08
2.2941314e-07
-4.6543916e-08
-3.3608811e-08
3.4290077e-07
-6.6154023e-08
-4.7333723e-08
5.0171661e-07
-9.2963397e-08
-6.5852585e-08
7.2196687e-07
-1.2950291e-07
-9.0747501e-08
1.0252481e-06
-1.7917386e-07
-1.2410756e-07
1.4404765e-06
-2.4654136e-07
-1.6868732e-07
2.0063136e-06
-3.3772426e-07
-2.2811337e-07
2.7743772e-06
-4.609116e-07
-3.0715277e-07
3.8134816e-06
-6.2704517e-07
-4.1206084e-07
5.2152274e-06
-8.5071801e-07
-5.5103034e-07
7.1013457e-06
-1.1513533e-06
-7.3476916e-07
9.6333229e-06
-1.5547431e-06
-9.7724011e-07
1.3024966e-05
-2.0950472e-06
-1.2966037e-06
1.7558741e-05
-2.8173736e-06
-1.7164122e-06
2.3606928e-05
-3.7810857e-06
-2.2671127e-06
3.1658849e-05
-5.0640096e-06
-2.9879257e-06
4.2355738e-05
-6.7677355e-06
-3.9291719e-06
5.6535075e-05
-9.0242322e-06
-5.1551314e-06
7.5286563e-05
-1.2004008e-05
-6.7475195e-06
0.00010002223
-1.5926054e-05
-8.8096683e-06
0.00013256348
-2.106981e-05
-1.1471503e-05
0.00017524816
-2.7789356e-05
-1.4895394e-05
0.00023106108
-3.6530025e-05
-1.928297e-05
0.00030379158
-4.7847597e-05
-2.4882965e-05
0.0003982219
-6.2430203e-05
-3.200019e-05
0.00052035066
-8.1123095e-05
-4.100574e-05
0.00067765563
-0.00010495648
-5.234859e-05
0.00087940105
-0.00013517668
-6.656884e-05
0.001136995
-0.00017328109
-8.4312942e-05
0.0014644037
-0.00022105738
-0.00010635143
0.0018786307
-0.00028062731
-0.00013359978
0.0024002702
-0.00035449631
-0.00016714332
0.0030541433
-0.00044560672
-0.00020826649
0.0038700333
-0.00055740167
-0.00025848851
0.0048835159
-0.00069388438
-0.00031959835
0.0061369371
-0.00085971863
-0.00039370273
0.0076804521
-0.0010602638
-0.00048325143
0.009573366
-0.0013018297
-0.00059108429
0.011885189
-0.0015911477
-0.00072067569
0.014697448
-0.0019364366
-0.00087582169
0.018104985
-0.0023464806
-0.0010610569
0.022215944
-0.0028303472
-0.001280611
0.027164107
-0.0034062329
-0.0015419287
0.033070111
-0.0040607976
-0.0018452056
-0.0049058011
0.040189961
-0.0022140475
1.2722117e-09
-1.9804117e-09
5.8581107e-09
-7.1416541e-09
1.5228576e-08
-1.4599985e-08
3.1394556e-08
-2.5204029e-08
5.7094491e-08
-4.0100059e-08
9.6045235e-08
-6.0833418e-08
1.5327771e-07
-8.9484738e-08
2.3558549e-07
-1.288518e-07
3.5212343e-07
-1.8269207e-07
5.1520592e-07
-2.5604602e-07
7.413699e-07
-3.5566705e-07
1.0527885e-06
-4.9059272e-07
1.4791486e-06
-6.7290175e-07
2.0601392e-06
-9.1871557e-07
2.8487464e-06
-1.2495201e-06
3.9156032e-06
-1.6939041e-06
5.3547214e-06
-2.2898397e-06
7.2910244e-06
-3.0876615e-06
9.8902138e-06
-4.1539396e-06
1.337165e-05
-5.5764929e-06
1.8025101e-05
-7.4708356e-06
2.4232413e-05
-9.9884116e-06
3.2495418e-05
-1.3327034e-05
4.3471652e-05
-1.7743997e-05
5.8019771e-05
-2.3572392e-05
7.7256885e-05
-3.124118e-05
0.00010263035
-4.1299597e-05
0.00013600692
-5.4446464e-05
0.00017978236
-7.1564897e-05
0.00023701514
-9.3762912e-05
0.00031158771
-0.00012242029
0.00040839949
-0.00015924213
0.0005335956
-0.0002063194
0.00069483616
-0.00026619726
0.00090161096
-0.00034195172
0.0011656057
-0.00043727608
0.0015011266
-0.00055657861
0.0019255918
-0.00070509278
0.0024600984
-0.00088900334
0.0031300758
-0.0011155846
0.0039660389
-0.0013933655
0.0050044428
-0.001732289
0.0062886806
-0.0021439572
0.0078701706
-0.0026417544
0.009809708
-0.0032413674
0.012178606
-0.0039600448
0.015060424
-0.0048182538
0.018552621
-0.0058386741
0.022765977
-0.0070436989
0.027838248
-0.0084784964
0.033893
-0.010115538
-0.012205941
0.041193156
1.3155035e-09
-3.2959223e-09
6.0572803e-09
-1.1883455e-08
1.5745847e-08
-2.4288592e-08
3.2459828e-08
-4.1918061e-08
5.9029393e-08
-6.6669688e-08
9.9295378e-08
-1.0109948e-07
1.5845572e-07
-1.4864517e-07
2.4352827e-07
-2.1392447e-07
3.6396859e-07
-3.0313252e-07
5.3249324e-07
-4.2457082e-07
7.6617585e-07
-5.8934987e-07
1.0879047e-06
-8.1232185e-07
1.5283174e-06
-1.1133149e-06
2.1283658e-06
-1.5187648e-06
2.9427087e-06
-2.0638642e-06
4.0441916e-06
-2.7953891e-06
5.529747e-06
-3.7753984e-06
7.5281451e-06
-5.0860644e-06
1.0210143e-05
-6.8359444e-06
1.3801731e-05
-9.1680896e-06
1.8601345e-05
-1.227046e-05
2.5002137e-05
-1.6389217e-05
3.3520638e-05
-2.1845554e-05
4.4833437e-05
-2.9056823e-05
5.9823802e-05
-3.8562793e-05
7.9640515e-05
-5.105794e-05
0.00010577154
-6.7430678e-05
0.00014013545
-8.8810443e-05
0.00018519393
-0.00011662345
0.00024408881
-0.00015265787
0.00032080758
-0.00019913915
0.0004203813
-0.00025881594
0.00054911935
-0.00033505756
0.00071488573
-0.00043196374
0.00092742224
-0.00055448835
0.0011987248
-0.00070857872
0.0015434798
-0.00090133372
0.0019795696
-0.0011411827
0.0025286568
-0.0014380907
0.003216857
-0.001803785
0.0040755153
-0.0022520241
0.0051420901
-0.002798864
0.0064611782
-0.0034630454
0.0080856625
-0.0042662389
0.010078089
-0.005233794
0.012511904
-0.0063938591
0.015473133
-0.0077794827
0.019062362
-0.0094279024
0.02339379
-0.011375126
0.028609746
-0.013694451
0.034838581
-0.016344371
-0.019716731
0.042349374
1.369332e-09
-4.6652611e-09
6.304896e-09
-1.6819042e-08
1.6388843e-08
-3.4372578e-08
3.3783515e-08
-5.9312784e-08
6.1432419e-08
-9.4318656e-08
1.0332912e-07
-1.4299626e-07
1.6487682e-07
-2.1019296e-07
2.5336852e-07
-3.0241628e-07
3.7862745e-07
-4.2839159e-07
5.5386038e-07
-5.9980391e-07
7.9679358e-07
-8.3228326e-07
1.1311816e-06
-1.1467102e-06
1.588811e-06
-1.5709447e-06
2.2121523e-06
-2.1421069e-06
3.0578708e-06
-2.9095839e-06
4.2014549e-06
-3.9389753e-06
5.7433132e-06
-5.3172599e-06
7.8167764e-06
-7.1595323e-06
1.0598573e-05
-9.6177474e-06
1.4322488e-05
-1.2892014e-05
1.9297113e-05
-1.7245096e-05
2.5928785e-05
-2.3020904e-05
3.4751109e-05
-3.0667897e-05
4.6462703e-05
-4.0768443e-05
6.1975163e-05
-5.4075287e-05
8.2473564e-05
-7.1556386e-05
0.00010949218
-9.4449355e-05
0.00014500847
-0.0001243268
0.00019155863
-0.00016317368
0.00025237844
-0.00021347776
0.00033157325
-0.00027833407
0.00043432146
-0.00036156426
0.00056711577
-0.00046785198
0.0007380474
-0.0006028955
0.00095713875
-0.00077357983
0.0012367309
-0.00098817103
0.0015919339
-0.0012565369
0.0020411484
-0.0015903974
0.0026066697
-0.0020036122
0.0033153844
-0.0025124999
0.0041995744
-0.0031362142
0.0052978362
-0.003897126
0.00665614
-0.0048213494
0.0083290529
-0.0059391518
0.010381159
-0.0072858999
0.012888392
-0.0089010915
0.015939725
-0.010830816
0.019639414
-0.01312759
0.024105962
-0.015841673
0.029486852
-0.019075339
0.035917295
-0.022774812
-0.027471096
0.043671663
1.4342929e-09
-6.0995615e-09
6.6036193e-09
-2.1988394e-08
1.7164304e-08
-4.4933306e-08
3.5379397e-08
-7.7527931e-08
6.4328536e-08
-1.2326786e-07
1.0818864e-07
-1.8685646e-07
1.7260898e-07
-2.746134e-07
2.6521173e-07
-3.9501916e-07
3.9625944e-07
-5.5943945e-07
5.7954387e-07
-7.8308852e-07
8.3356799e-07
-1.0863076e-06
1.1831162e-06
-1.4962587e-06
1.6613361e-06
-2.0491651e-06
2.3124961e-06
-2.7932676e-06
3.1956274e-06
-3.7927164e-06
4.3893289e-06
-5.1326788e-06
5.9980869e-06
-6.9260211e-06
8.1605664e-06
-9.3220167e-06
1.1060456e-05
-1.2517644e-05
1.49406e-05
-1.6772167e-05
2.0121345e-05
-2.2425853e-05
2.7024243e-05
-2.9923817e-05
3.620252e-05
-3.9846194e-05
4.8380018e-05
-5.2945967e-05
6.4500645e-05
-7.0195948e-05
8.579071e-05
-9.2846496e-05
0.00011383692
-0.00012249562
0.0001506831
-0.00016117305
0.00019894917
-0.00021143984
0.00026197608
-0.00027650477
0.00034400076
-0.00036035885
0.00045036559
-0.0004679292
0.00058776689
-0.0006052534
0.00076454788
-0.00077967662
0.00099104183
-0.0010000739
0.0012799724
-0.0012771017
0.0016469192
-0.0016234839
0.0021108587
-0.002054337
0.0026947905
-0.0025875441
0.0034264626
-0.0032441722
0.0043392081
-0.0040489599
0.0054729055
-0.0050308236
0.0068750798
-0.0062235238
0.0086022165
-0.0076662886
0.010721248
-0.0094049308
0.013310976
-0.01149082
0.016463837
-0.013983676
0.020288341
-0.016952094
0.02490823
-0.020461561
0.030476794
-0.024643901
0.037138183
-0.029436199
-0.035504281
0.045171371
1.5112197e-09
-7.6107888e-09
6.9573005e-09
-2.74345e-08
1.8082244e-08
-5.6058291e-08
3.7268059e-08
-9.67138e-08
6.7755054e-08
-1.5375493e-07
1.1393629e-07
-2.3303778e-07
1.817507e-07
-3.4242791e-07
2.7920775e-07
-4.9247634e-07
4.1708603e-07
-6.9731787e-07
6.0986344e-07
-9.758661e-07
8.7695273e-07
-1.3533971e-06
1.2443424e-06
-1.8636485e-06
1.7467695e-06
-2.5515927e-06
2.4305964e-06
-3.4770951e-06
3.3576063e-06
-4.7197275e-06
4.6100071e-06
-6.3850815e-06
6.2970055e-06
-8.6130227e-06
8.5634277e-06
-1.1588444e-05
1.1600981e-05
-1.5555204e-05
1.5662916e-05
-2.0834112e-05
2.1083047e-05
-2.7845997e-05
2.8300302e-05
-3.7141088e-05
3.7890247e-05
-4.9436159e-05
5.0605356e-05
-6.5661102e-05
6.7426086e-05
-8.7016712e-05
8.9625241e-05
-0.0001150457
0.00011884843
-0.00015171887
0.00015721383
-0.00019953853
0.00020743483
-0.00026166093
0.00027296942
-0.00034203945
0.00035820058
-0.00044559012
0.00046865224
-0.00057838097
0.00061124575
-0.00074784704
0.00079460242
-0.00096303342
0.0010293983
-0.00123487
0.0013287789
-0.0015764825
0.001708842
-0.0020035472
0.0021892
-0.0025346951
0.0027936329
-0.0031919772
0.0035508455
-0.0040013849
0.0044953429
-0.0049934574
0.0056684378
-0.0062039187
0.0071193999
-0.0076744859
0.0089068821
-0.0094537708
0.011100494
-0.011598542
0.013782312
-0.014172637
0.01704877
-0.017250133
0.021013264
-0.020916587
0.025805733
-0.025254029
0.031586
-0.030424167
0.038509186
-0.036359383
-0.043853411
0.046858318
1.6007885e-09
-9.2115851e-09
7.36905e-09
-3.3202788e-08
1.9150734e-08
-6.7840018e-08
3.946611e-08
-1.1702923e-07
7.1742072e-08
-1.8603096e-07
1.2062246e-07
-2.8191826e-07
1.9238222e-07
-4.1418779e-07
2.9547937e-07
-5.9557362e-07
4.4128989e-07
-8.4312856e-07
6.4508466e-07
-1.1796611e-06
9.2732753e-07
-1.6356402e-06
1.3153954e-06
-2.2517167e-06
1.8458566e-06
-3.0820543e-06
2.5674816e-06
-4.1987209e-06
3.5452147e-06
-5.6974618e-06
4.8654007e-06
-7.7052696e-06
6.6426507e-06
-1.0390276e-05
9.0288269e-06
-1.3974625e-05
1.2224776e-05
-1.8751159e-05
1.6495585e-05
-2.5104931e-05
2.219035e-05
-3.3540774e-05
2.9767658e-05
-4.4718411e-05
3.9828296e-05
-5.9496817e-05
5.3156957e-05
-7.8989787e-05
7.0775121e-05
-0.00010463491
9.400762e-05
-0.00013827824
0.00012456579
-0.0001822771
0.00016465051
-0.00023962333
0.00021707887
-0.00031408938
0.00028543832
-0.00041039901
0.00037427302
-0.00053442493
0.00048930684
-0.00069341491
0.00063770846
-0.0008962488
0.00082840446
-0.0011537296
0.001072447
-0.0014789126
0.0013834441
-0.0018874797
0.0017780622
-0.0023981655
0.0022766128
-0.0030332458
0.0029037348
-0.0038190993
0.0036891893
-0.0047868396
0.0046687797
-0.005973048
0.0058854121
-0.0074205511
0.0073902963
-0.0091793701
0.0092445125
-0.011307987
0.011520693
-0.013874723
0.014304608
-0.016956551
0.017697247
-0.020642772
0.021817548
-0.025036887
0.026802622
-0.030239102
0.032819611
-0.036441154
0.040036539
-0.043576308
-0.052556893
0.048740022
1.7037084e-09
-1.0915301e-08
7.8421172e-09
-3.9341222e-08
2.03782e-08
-8.0376143e-08
4.1990814e-08
-1.386419e-07
7.6320801e-08
-2.2036102e-07
1.2829937e-07
-3.3389692e-07
2.0458614e-07
-4.9047467e-07
3.1415232e-07
-7.0513993e-07
4.6905665e-07
-9.9803304e-07
6.854761e-07
-1.3960807e-06
9.8507329e-07
-1.9352376e-06
1.396808e-06
-2.6634517e-06
1.9593332e-06
-3.6445799e-06
2.7241581e-06
-4.9635465e-06
3.7598162e-06
-6.7331211e-06
5.1573455e-06
-9.1028008e-06
7.0374747e-06
-1.2270408e-05
9.5600217e-06
-1.6497177e-05
1.2936148e-05
-2.2127293e-05
1.7444272e-05
-2.9613065e-05
2.3450667e-05
-3.9547182e-05
3.1435981e-05
-5.2703741e-05
4.2029218e-05
-7.0090074e-05
5.6051051e-05
-9.3011646e-05
7.4568653e-05
-0.00012315255
9.8964646e-05
-0.00016267428
0.00013102319
-0.0002143357
0.00017303657
-0.0002816368
0.00022793614
-0.00036898904
0.00029945175
-0.00048191473
0.00039230434
-0.00062727764
0.00051243666
-0.00081354736
0.00066728776
-0.0010511
0.00086611744
-0.0013525594
0.001120388
-0.0017331834
0.0014442122
-0.002211304
0.0018548768
-0.0028088304
0.0023734566
-0.0035518257
0.0030255305
-0.0044711734
0.0038420181
-0.0056033273
0.0048601516
-0.0069911817
0.0061245929
-0.0086849924
0.0076886899
-0.010743467
0.0096162166
-0.013235513
0.011983186
-0.016241691
0.014879489
-0.019852854
0.018411233
-0.024174515
0.022703576
-0.029329229
0.027901766
-0.035437291
0.034181092
-0.042720479
0.041724275
-0.05111949
-0.061653676
0.050821061
1.8205324e-09
-1.2735841e-08
8.3790445e-09
-4.589976e-08
2.177127e-08
-9.3768413e-08
4.485583e-08
-1.6172652e-07
8.1515953e-08
-2.5702122e-07
1.3700837e-07
-3.8938943e-07
2.18428e-07
-5.7189442e-07
3.3532666e-07
-8.2203874e-07
5.0053471e-07
-1.1632413e-06
7.3125234e-07
-1.6267985e-06
1.0504953e-06
-2.2544808e-06
1.489008e-06
-3.1019647e-06
2.0877917e-06
-4.2433641e-06
2.9014377e-06
-5.7771932e-06
4.0025151e-06
-7.8341996e-06
5.4873301e-06
-1.0587618e-05
7.483472e-06
-1.4266554e-05
1.0159669e-05
-1.9173378e-05
1.3738612e-05
-2.5706244e-05
1.8513609e-05
-3.4388071e-05
2.4870071e-05
-4.5903658e-05
3.3313182e-05
-6.1146868e-05
4.4503278e-05
-8.1280191e-05
5.9300891e-05
-0.00010780929
7.882369e-05
-0.00014267538
0.00010451804
-0.00018836868
0.00013824822
-0.00024806595
0.00018240684
-0.0003257955
0.00024005037
-0.00042663268
0.00031506424
-0.00055692871
0.00041236211
-0.00072457565
0.00053812496
-0.00093931034
0.00070008553
-0.0012130608
0.00090786526
-0.0015603393
0.0011733713
-0.0019986896
0.0015112631
-0.002549196
0.0019395006
-0.003237068
0.0024799864
-0.0040923116
0.0031593212
-0.0051505084
0.0040096861
-0.0064536923
0.0050698746
-0.0080513702
0.0063864688
-0.010001587
0.0080151485
-0.012372147
0.010022651
-0.015243015
0.012488733
-0.018707773
0.015507831
-0.022871951
0.019191725
-0.027858408
0.023672473
-0.033809977
0.029104401
-0.040869218
0.035671799
-0.049287875
0.043573702
-0.059021392
-0.071182366
0.053102394
1.9517309e-09
-1.468758e-08
8.9820173e-09
-5.2930074e-08
2.3335455e-08
-1.081219e-07
4.8072448e-08
-1.8646358e-07
8.7348033e-08
-2.9629689e-07
1.4678355e-07
-4.4882505e-07
2.3396177e-07
-6.5907277e-07
3.5908408e-07
-9.471612e-07
5.3584452e-07
-1.3400019e-06
7.8258725e-07
-1.8735415e-06
1.1238396e-06
-2.5957334e-06
1.5923383e-06
-3.5704638e-06
2.2317047e-06
-4.8827309e-06
3.0999646e-06
-6.6454538e-06
4.2741792e-06
-9.0084154e-06
5.8565157e-06
-1.2169956e-05
7.9821859e-06
-1.6392227e-05
1.0829803e-05
-2.2021e-05
1.4634843e-05
-2.9511291e-05
1.9707079e-05
-3.9460318e-05
2.6453079e-05
-5.2649671e-05
3.5405093e-05
-7.0098898e-05
4.7257961e-05
-9.313308e-05
6.2916022e-05
-0.00012346737
8.355235e-05
-0.00016331174
0.00011068309
-0.00021549946
0.00014626003
-0.00028364295
0.00019278514
-0.00037232069
0.000253451
-0.00048729865
0.00033231185
-0.00063578968
0.00043449015
-0.00082675408
0.00056642441
-0.0010712447
0.00073616446
-0.001382801
0.00095372169
-0.0017778967
0.0012314824
-0.0022764505
0.0015846953
-0.002902409
0.0020320444
-0.0036844173
0.0025963251
-0.0046565925
0.0033052402
-0.0058594235
0.0041923336
-0.0073407859
0.0052980931
-0.0091571297
0.0066711832
-0.011374677
0.0083697983
-0.014070762
0.010463906
-0.017337123
0.013037372
-0.021281239
0.016189584
-0.026024163
0.020038522
-0.031707345
0.024723816
-0.03849527
0.030409755
-0.046555156
0.037290497
-0.056168616
0.045582825
-0.067313718
-0.0811802
0.05558066
2.0975967e-09
-1.6785185e-08
9.652296e-09
-6.0484801e-08
2.5074229e-08
-1.2354388e-07
5.1647702e-08
-2.1303711e-07
9.3829534e-08
-3.384788e-07
1.576459e-07
-5.1264152e-07
2.5122029e-07
-7.5264728e-07
3.8547465e-07
-1.0814157e-06
5.7505974e-07
-1.5295872e-06
8.395863e-07
-2.1380682e-06
1.2052544e-06
-2.9614017e-06
1.7070049e-06
-4.0722146e-06
2.3913529e-06
-5.5670793e-06
3.3201176e-06
-7.5742191e-06
4.575317e-06
-1.0263616e-05
6.2655772e-06
-1.3860218e-05
8.5345036e-06
-1.8661156e-05
1.1571584e-05
-2.5058085e-05
1.5626334e-05
-3.3566049e-05
2.1026604e-05
-4.4860597e-05
2.820214e-05
-5.9825221e-05
3.7714809e-05
-7.9611583e-05
5.0297142e-05
-0.00010571543
6.6901256e-05
-0.00014007151
8.876054e-05
-0.00018517106
0.00011746695
-0.00024420592
0.00015506719
-0.00032124326
0.00020418156
-0.00042143515
0.00026814964
-0.00055126683
0.00035120763
-0.00071884779
0.00045870259
-0.00093424918
0.00059734958
-0.0012098919
0.00077553848
-0.00156099
0.0010036982
-0.0020060566
0.0012947279
-0.0025674804
0.001664506
-0.0032721873
0.0021324914
-0.0041524028
0.0027224335
-0.0052465347
0.0034632143
-0.0066002044
0.004389839
-0.0082674106
0.0055446185
-0.010311909
0.0069784565
-0.012808515
0.0087522251
-0.01584453
0.010939387
-0.019524284
0.013628267
-0.023970118
0.01692357
-0.029319465
0.020949972
-0.035733746
0.025855303
-0.043400601
0.031814625
-0.052514476
0.039032835
-0.063386826
0.047745755
-0.076026637
-0.091682025
0.058247581
2.2582006e-09
-1.9043394e-08
1.0390305e-08
-6.8616932e-08
2.6988498e-08
-1.4014212e-07
5.5583561e-08
-2.4163223e-07
1.0096407e-07
-3.8385939e-07
1.6960114e-07
-5.8127869e-07
2.7021249e-07
-8.5325875e-07
4.1451139e-07
-1.2257148e-06
6.1819861e-07
-1.7332745e-06
9.0227456e-07
-2.4221444e-06
1.2947743e-06
-3.3539017e-06
1.8330522e-06
-4.6104928e-06
2.566793e-06
-6.3008205e-06
3.5619673e-06
-8.5693939e-06
4.9060117e-06
-1.1607661e-05
6.7146085e-06
-1.5668816e-05
9.1405255e-06
-2.1087076e-05
1.2385106e-05
-2.830267e-05
1.6713164e-05
-3.7894114e-05
2.2472214e-05
-5.0619657e-05
3.0117188e-05
-6.7470208e-05
4.0242087e-05
-8.9736499e-05
5.3620293e-05
-0.00011909366
7.125561e-05
-0.00015770686
9.4446569e-05
-0.00020836205
0.00012486687
-0.00027462626
0.00016466534
-0.0003610418
0.0002165894
-0.00047335928
0.00028413617
-0.00061881372
0.00037173655
-0.00080644829
0.00048497743
-0.0010474902
0.00063086872
-0.0013557833
0.0008181622
-0.0017482837
0.0010577307
-0.0022456252
0.0013630179
-0.0028727677
0.0017505706
-0.0036597402
0.0022406695
-0.0046425018
0.002858076
-0.0058639413
0.0036329227
-0.0073750512
0.0046017652
-0.0092362531
0.0058088624
-0.011519006
0.0073075
-0.014307152
0.0091613644
-0.017698394
0.011447674
-0.021810593
0.014259534
-0.026781978
0.017707268
-0.032767198
0.021922691
-0.039949169
0.0270624
-0.048540309
0.033312915
-0.058764991
0.040890769
-0.07096468
0.050052149
-0.085188016
-0.10271979
0.061089917
2.4333908e-09
-2.1476793e-08
1.1195288e-08
-7.7378857e-08
2.9076434e-08
-1.5802331e-07
5.987615e-08
-2.7243201e-07
1.0874457e-07
-4.3272788e-07
1.8263726e-07
-6.5517147e-07
2.90919e-07
-9.6154061e-07
4.4616423e-07
-1.3809602e-06
6.6521559e-07
-1.9523261e-06
9.7058463e-07
-2.7275136e-06
1.3922985e-06
-3.7756158e-06
1.9703343e-06
-5.1885288e-06
2.7578166e-06
-7.0883031e-06
3.8252152e-06
-9.6367931e-06
5.2658406e-06
-1.3048287e-05
7.203016e-06
-1.7605993e-05
9.7994201e-06
-2.3683482e-05
1.3269213e-05
-3.1772467e-05
1.7893726e-05
-4.2518632e-05
2.4041678e-05
-5.6767618e-05
3.2195141e-05
-7.5623684e-05
4.2982702e-05
-0.00010052408
5.722162e-05
-0.0001333326
7.5971166e-05
-0.00017645643
0.00010059964
-0.00023299056
0.00013286816
-0.00030689483
0.0001750346
-0.0004032083
0.00022998177
-0.00052830653
0.00030137437
-0.00069020643
0.00039384994
-0.00089892398
0.00051324944
-0.0011668898
0.00066689461
-0.0015094286
0.00086391932
-0.0019453085
0.0011156645
-0.0024973706
0.0014361475
-0.0031932508
0.0018426185
-0.0040662114
0.0023562225
-0.0051561059
0.0030027843
-0.0065105033
0.0038137502
-0.0081860171
0.0048273035
-0.010249806
0.0060897654
-0.012781468
0.0076569235
-0.01587431
0.0095953793
-0.019636849
0.011986378
-0.024201591
0.01492807
-0.02972367
0.018536581
-0.036375707
0.022951274
-0.044363862
0.028337959
-0.053926993
0.034895151
-0.065322183
0.04285193
-0.078921458
0.052486732
-0.094822817
-0.11433928
0.064106221
2.6227178e-09
-2.4099519e-08
1.2065153e-08
-8.6821319e-08
3.1332415e-08
-1.7729062e-07
6.4513815e-08
-3.0561347e-07
1.1714972e-07
-4.8536386e-07
1.9671854e-07
-7.3474039e-07
3.1328292e-07
-1.0781051e-06
4.8034509e-07
-1.5480225e-06
7.1597871e-07
-2.1879599e-06
1.044323e-06
-3.0558581e-06
1.49755e-06
-4.2288429e-06
2.1184571e-06
-5.8094362e-06
2.9638679e-06
-7.9337141e-06
4.1090891e-06
-1.0782015e-05
5.653736e-06
-1.4592935e-05
7.7293311e-06
-1.9681589e-05
1.0509179e-05
-2.6463332e-05
1.4221167e-05
-3.5484458e-05
1.9164301e-05
-4.7461772e-05
2.5729979e-05
-6.3333304e-05
3.4429247e-05
-8.4322963e-05
4.5927568e-05
-0.00011202241
6.1088953e-05
-0.000148494
8.103165e-05
-0.00019639915
0.00010719807
-0.00025915702
0.00014144199
-0.00034113878
0.00018613666
-0.00044790303
0.00024430794
-0.00058647788
0.00031979719
-0.00076569579
0.00041745935
-0.00099658626
0.00054340228
-0.0012928329
0.00070527454
-0.001671301
0.00091260995
-0.0021526441
0.0011772386
-0.0027619995
0.0015137765
-0.0035297889
0.0019402077
-0.0044926427
0.0024785773
-0.0056944756
0.0031558176
-0.0071877437
0.0040047392
-0.0090349387
0.0050652141
-0.011310281
0.0063857235
-0.014101977
0.0080246321
-0.017513218
0.010051524
-0.021663741
0.012551979
-0.026702045
0.015629379
-0.03280107
0.01940559
-0.040151918
0.024027981
-0.048986252
0.029671825
-0.059570838
0.036547886
-0.072198243
0.044898168
-0.08727174
0.055023631
-0.10494828
-0.12656081
0.067245162
2.8253806e-09
-2.6924908e-08
1.2996227e-08
-9.6992191e-08
3.3747103e-08
-1.9804154e-07
6.9477515e-08
-3.4134394e-07
1.2614489e-07
-5.4203132e-07
2.1178657e-07
-8.2038217e-07
3.3721065e-07
-1.2035293e-06
5.1691083e-07
-1.7277228e-06
7.7027472e-07
-2.4413239e-06
1.1231765e-06
-3.4087601e-06
1.6100775e-06
-4.715744e-06
2.2767805e-06
-6.4761394e-06
3.1840485e-06
-8.8409822e-06
4.4123358e-06
-1.2010302e-05
6.0679654e-06
-1.6248565e-05
8.2911733e-06
-2.1904798e-05
1.126655e-05
-2.943871e-05
1.5236549e-05
-3.9454461e-05
2.0518915e-05
-5.2744142e-05
2.7529055e-05
-7.0343452e-05
3.6808668e-05
-9.3602587e-05
4.9062183e-05
-0.00012427594
6.5202931e-05
-0.00016463477
8.6411311e-05
-0.00021760755
0.00011420768
-0.00028695341
0.00015054314
-0.00037747428
0.00019791189
-0.00049527182
0.00025948947
-0.00064805553
0.00033930173
-0.00084550814
0.00044243018
-0.0010997148
0.00057526024
-0.0014256631
0.00074577978
-0.0018418207
0.000963937
-0.0023708014
0.0012420681
-0.0030401307
0.0015954076
-0.0038831285
0.0020426968
-0.004939932
0.0026069095
-0.0062586885
0.0033161188
-0.0078969531
0.0042045372
-0.0099233572
0.0053137661
-0.01241951
0.0066945145
-0.015482726
0.0084077024
-0.019226406
0.01052585
-0.023781889
0.013139824
-0.029316018
0.016357427
-0.036018672
0.020306292
-0.044100782
0.025142429
-0.05382239
0.031050467
-0.065478875
0.038253309
-0.079401084
0.0470055
-0.09602393
0.057627969
-0.11557075
-0.13937022
0.070437378
3.0401232e-09
-2.9965039e-08
1.3982821e-08
-1.0793492e-07
3.6305558e-08
-2.2036432e-07
7.473622e-08
-3.7977466e-07
1.35674e-07
-6.0296917e-07
2.2774718e-07
-9.1245545e-07
3.6255258e-07
-1.3383348e-06
5.5563167e-07
-1.920802e-06
8.277603e-07
-2.7134527e-06
1.2066469e-06
-3.7876469e-06
1.7291671e-06
-5.2382644e-06
2.4442958e-06
-7.1912682e-06
3.4169501e-06
-9.8136367e-06
4.7330077e-06
-1.332636e-05
6.5058564e-06
-1.8021414e-05
8.8849011e-06
-2.4283844e-05
1.2066596e-05
-3.2620406e-05
1.6308699e-05
-4.3696567e-05
2.1948619e-05
-5.8384066e-05
2.9426935e-05
-7.7821775e-05
3.9317446e-05
-0.00010349311
5.2365337e-05
-0.00013732384
6.9535447e-05
-0.00018180489
9.2072995e-05
-0.00024014511
0.0001215795
-0.00031645994
0.00016010722
-0.00041600202
0.00021027584
-0.00054544048
0.00027541586
-0.00071319562
0.00035974375
-0.0009298361
0.00046857463
-0.0012085458
0.0006085794
-0.001565668
0.00078809425
-0.0020213357
0.0010174919
-0.0026001992
0.001309626
-0.0033322649
0.0016803625
-0.0042538652
0.0021492152
-0.0054087848
0.0027401045
-0.0068495779
0.0034822664
-0.0086391151
0.0044113386
-0.010852429
0.0055706781
-0.01357885
0.0070132468
-0.016925294
0.0088023592
-0.021015518
0.011013818
-0.025993347
0.013744104
-0.032046304
0.017104074
-0.039378641
0.021228257
-0.048224964
0.026281275
-0.058875407
0.032456633
-0.071654234
0.039989003
-0.086933454
0.049144942
-0.10517987
0.060263518
-0.12668933
-0.15276506
0.073658354
3.2653739e-09
-3.3230421e-08
1.5017596e-08
-1.1968716e-07
3.8988856e-08
-2.4433562e-07
8.0251056e-08
-4.2103692e-07
1.4566607e-07
-6.6838426e-07
2.4448141e-07
-1.0112709e-06
3.89119e-07
-1.4829725e-06
5.9621688e-07
-2.1279e-06
8.8800254e-07
-3.0052385e-06
1.2941013e-06
-4.1937458e-06
1.8539107e-06
-5.798074e-06
2.6197172e-06
-7.9570747e-06
3.6607699e-06
-1.0854689e-05
5.0686031e-06
-1.4734193e-05
6.9639614e-06
-1.9916772e-05
9.5057947e-06
-2.6825677e-05
1.2902896e-05
-3.6017509e-05
1.7428922e-05
-4.8222595e-05
2.344169e-05
-6.4396837e-05
3.1407882e-05
-8.5787971e-05
4.1934534e-05
-0.00011401977
5.5808975e-05
-0.00015119829
7.4049248e-05
-0.00020004517
9.7967395e-05
-0.00026406327
0.00012924849
-0.00034774104
0.0001700487
-0.00045680226
0.0002231164
-0.00059850821
0.00029194063
-0.0007820199
0.00038093243
-0.001018828
0.00049564478
-0.0013232582
0.00064303863
-0.0017130619
0.00083180304
-0.0022101002
0.0010727398
-0.002841136
0.0013792244
-0.0036387496
0.0017677586
-0.0046423995
0.0022586324
-0.0058996588
0.002876718
-0.0074676635
0.0036524235
-0.0094148206
0.0046228319
-0.011822838
0.0058331302
-0.014789148
0.0073387094
-0.018430873
0.0092038197
-0.022880628
0.011509266
-0.028298792
0.014355519
-0.034892557
0.017857785
-0.042880907
0.022158561
-0.052525741
0.027427967
-0.064144812
0.033869007
-0.078095274
0.041727436
-0.094791884
0.051281112
-0.11473355
0.062885606
-0.13829382
-0.16673267
0.07685322
3.4987811e-09
-3.6729211e-08
1.6089786e-08
-1.322782e-07
4.176895e-08
-2.7001483e-07
8.5964636e-08
-4.6523266e-07
1.5601728e-07
-7.3843698e-07
2.6181503e-07
-1.1170687e-06
4.1663332e-07
-1.6377909e-06
6.3824355e-07
-2.3495104e-06
9.5037269e-07
-3.3173678e-06
1.3846253e-06
-4.6279985e-06
1.9830026e-06
-6.3964514e-06
2.8012056e-06
-8.7752777e-06
3.9129506e-06
-1.1966434e-05
5.4155961e-06
-1.6236839e-05
7.4374602e-06
-2.1938636e-05
1.0147306e-05
-2.9535523e-05
1.3766609e-05
-3.9636811e-05
1.8585342e-05
-5.3041329e-05
2.498225e-05
-7.0793748e-05
3.3450749e-05
-9.4256474e-05
4.463187e-05
-0.00012520089
5.9355991e-05
-0.00016592242
7.86954e-05
-0.00021938459
0.00010403017
-0.00028939805
0.00013713025
-0.00038084113
0.0001802572
-0.00049992922
0.00023628951
-0.00065454054
0.00030887624
-0.00085460667
0.00040262421
-0.001112576
0.00052332517
-0.0014439593
0.00067823026
-0.0018679671
0.00087638066
-0.0024082507
0.0011290049
-0.0030937604
0.0014499962
-0.003959741
0.0018564849
-0.0050488882
0.0023695269
-0.0064127008
0.003014932
-0.0081130686
0.0038242656
-0.010224154
0.0048360537
-0.012834626
0.0060973807
-0.016050475
0.0076642369
-0.019997729
0.0096031416
-0.024819532
0.012003067
-0.030698718
0.014965206
-0.037854695
0.018608577
-0.046524277
0.023082003
-0.056999167
0.028562608
-0.069625417
0.0352619
-0.084794566
0.043435551
-0.10296554
0.053371599
-0.12466959
0.065440029
-0.15036225
-0.18124415
0.079951511
3.737837e-09
-4.0467055e-08
1.718782e-08
-1.457282e-07
4.4615878e-08
-2.9744293e-07
9.1814774e-08
-5.1243161e-07
1.6661456e-07
-8.1323683e-07
2.7955799e-07
-1.2300122e-06
4.4479258e-07
-1.8030256e-06
6.8124656e-07
-2.5859645e-06
1.0141775e-06
-3.6502989e-06
1.4772071e-06
-5.0910282e-06
2.1149899e-06
-7.0342342e-06
2.9867034e-06
-9.6469912e-06
4.1706081e-06
-1.3150339e-05
5.769982e-06
-1.7836212e-05
7.9208342e-06
-2.4089488e-05
1.0801886e-05
-3.2416575e-05
1.4647457e-05
-4.3482382e-05
1.9764044e-05
-5.8157917e-05
2.6551546e-05
-7.7581251e-05
3.5530365e-05
-0.0001032353
4.7375801e-05
-0.00013704633
6.296156e-05
-0.00018150819
8.3414427e-05
-0.00023983747
0.00011018269
-0.00031616632
0.00014512122
-0.00041577968
0.00019059676
-0.00054540477
0.00024961739
-0.00071356119
0.00032599099
-0.0009309803
0.00042451818
-0.0012111032
0.00055122621
-0.0015706674
0.00071365146
-0.0020303925
0.00092117991
-0.0026157792
0.0011854564
-0.003358037
0.0015208767
-0.0042951613
0.0019451788
-0.0054731903
0.0024801536
-0.0069476758
0.0031525006
-0.0087854156
0.0039948544
-0.011066508
0.0050469994
-0.013886771
0.0063572011
-0.017360677
0.0079832305
-0.021623758
0.0099980218
-0.026834323
0.012490879
-0.033191575
0.015563031
-0.040926847
0.019341537
-0.050302783
0.023979911
-0.061637541
0.029661449
-0.075306955
0.036604926
-0.091738043
0.045074443
-0.11143505
0.05536666
-0.13496181
0.067863332
-0.16285892
-0.19625295
0.082872134
3.9786972e-09
-4.444576e-08
1.8294106e-08
-1.6004364e-07
4.7483922e-08
-3.2663278e-07
9.7707848e-08
-5.6265559e-07
1.7728857e-07
-8.9281762e-07
2.9742722e-07
-1.350151e-06
4.7314738e-07
-1.9787459e-06
7.2453988e-07
-2.8373571e-06
1.0783988e-06
-4.0041578e-06
1.570371e-06
-5.5830004e-06
2.2477702e-06
-7.7116334e-06
3.1732583e-06
-1.0572479e-05
4.4296443e-06
-1.4406725e-05
6.1261321e-06
-1.95327e-05
8.4064136e-06
-2.6369769e-05
1.1459153e-05
-3.5469313e-05
1.5531487e-05
-4.7554715e-05
2.0946359e-05
-6.3572788e-05
2.812472e-05
-8.4759612e-05
3.7613768e-05
-0.00011272435
5.0122796e-05
-0.00014955536
6.6568372e-05
-0.00019795377
8.8131107e-05
-0.00026140021
0.00011632648
-0.0003443617
0.00015309282
-0.00045254602
0.00020089989
-0.00059321184
0.00026288231
-0.00077554362
0.00034300252
-0.0010111005
0.00044624899
-0.0013143497
0.00057887629
-0.0017032947
0.00074869504
-0.0022002113
0.00096542107
-0.0028325053
0.0012410956
-0.0036337116
0.0015905907
-0.0046446564
0.0020322166
-0.0059148163
0.0025884532
-0.0075039123
0.0032868279
-0.0094837902
0.0041609665
-0.011940646
0.0052518387
-0.014977643
0.0066091687
-0.018718006
0.0082934515
-0.023308041
0.01038013
-0.028921002
0.012958288
-0.035769732
0.016134205