/*--------------------------------*- C++ -*----------------------------------*\
  =========                 |
  \\      /  F ield         | OpenFOAM: The Open Source CFD Toolbox
   \\    /   O peration     | Website:  https://openfoam.org
    \\  /    A nd           | Version:  13
     \\/     M anipulation  |
\*---------------------------------------------------------------------------*/
FoamFile
{
    format      ascii;
    class       volVectorField;
    location    "2500";
    object      U;
}
// * * * * * * * * * * * * * * * * * * * * * * * * * * * * * * * * * * * * * //

dimensions      [0 1 -1 0 0 0 0];

internalField   nonuniform List<vector> 
9536
(
(7.397293e-09 -1.9931416e-07 4.2215433e-25)
(1.7051287e-07 -6.306957e-07 -2.7470313e-25)
(5.5767525e-07 -1.1336433e-06 -9.789701e-26)
(1.277999e-06 -1.7245909e-06 -1.1263192e-24)
(2.455368e-06 -2.4243737e-06 2.5232997e-24)
(4.2709112e-06 -3.2575537e-06 -2.3481753e-25)
(6.9665433e-06 -4.2532638e-06 -6.6448221e-26)
(1.0867241e-05 -5.4458608e-06 -8.3186152e-25)
(1.6408544e-05 -6.8756752e-06 -7.7639506e-25)
(2.4172485e-05 -8.5898192e-06 -4.2223588e-25)
(3.4934722e-05 -1.0643025e-05 1.5867738e-24)
(4.9726151e-05 -1.3098496e-05 -2.5991588e-24)
(6.9913064e-05 -1.6028718e-05 3.3244314e-24)
(9.730097e-05 -1.9516164e-05 2.0360423e-24)
(0.00013426833 -2.3653784e-05 -3.4531981e-24)
(0.00018393777 -2.8545163e-05 -1.9737935e-24)
(0.00025039367 -3.430414e-05 2.3561131e-24)
(0.00033895644 -4.1053662e-05 -2.5978088e-24)
(0.00045652474 -4.8923555e-05 -4.5725786e-24)
(0.00061199773 -5.8046834e-05 -2.2492295e-24)
(0.00081678865 -6.8554119e-05 8.0569141e-24)
(0.0010854395 -8.0565624e-05 5.8100038e-24)
(0.0014363419 -9.4180232e-05 -9.8515257e-24)
(0.0018925619 -0.00010946115 -9.1654505e-24)
(0.0024827551 -0.00012641773 1.517059e-23)
(0.003242141 -0.00014498351 -4.5603185e-24)
(0.0042134849 -0.00016499046 -1.5106573e-23)
(0.0054480089 -0.0001861407 8.7284233e-24)
(0.0070061239 -0.000207977 -1.6829723e-24)
(0.0089578499 -0.00022985479 1.8164008e-23)
(0.01138277 -0.00025091888 -1.2156565e-23)
(0.014369362 -0.00027008904 2.2008492e-23)
(0.018013568 -0.00028605841 7.241989e-23)
(0.022416522 -0.0002973084 -5.3559343e-23)
(0.027681407 -0.00030214241 1.1140424e-22)
(0.033909576 -0.00029873745 6.6033378e-23)
(0.041196081 -0.00028521232 1.3138513e-23)
(0.049625078 -0.00025970096 -1.3611348e-22)
(0.059265086 -0.00022043689 -1.218533e-22)
(0.070165618 -0.0001658051 -3.1591993e-22)
(0.082352489 -9.4448039e-05 2.1540298e-22)
(0.095829808 -5.228864e-06 2.1842935e-22)
(0.1105697 0.00010246508 -5.1693736e-22)
(0.12653481 0.00022922427 -1.1616428e-22)
(0.14363032 0.00037420289 -6.1060055e-22)
(0.16181444 0.00053938456 -9.2535352e-23)
(0.18086802 0.00072145528 -1.0220899e-22)
(0.20087534 0.00092403307 9.5934018e-22)
(0.22127554 0.00113896 -8.9237784e-22)
(0.24267214 0.0013700419 1.2271447e-22)
(0.26360834 0.0016215188 -2.7905332e-22)
(0.2858706 0.0018257491 1.657758e-22)
(1.5928904e-07 -3.0202946e-06 1.2691876e-24)
(6.4931412e-07 -9.5062823e-06 -4.088156e-25)
(1.4133054e-06 -1.6963444e-05 -7.6903396e-25)
(2.5693077e-06 -2.5559991e-05 -3.324527e-24)
(4.2516817e-06 -3.5493747e-05 2.2642881e-24)
(6.6538948e-06 -4.6993973e-05 2.4763455e-24)
(1.0032334e-05 -6.0326758e-05 1.9911768e-24)
(1.4728957e-05 -7.5800201e-05 -3.9230468e-24)
(2.1199218e-05 -9.3770198e-05 1.8793878e-24)
(3.0048493e-05 -0.00011464681 6.4360356e-24)
(4.2079784e-05 -0.00013890108 -9.2629856e-24)
(5.8355987e-05 -0.00016707228 6.210593e-24)
(8.0280805e-05 -0.00019977539 9.5039248e-25)
(0.00010970341 -0.0002377084 -1.0485592e-23)
(0.00014905313 -0.0002816594 7.7066004e-24)
(0.00020151167 -0.00033251244 -1.1139929e-23)
(0.00027123187 -0.00039125173 1.3958761e-23)
(0.00036361303 -0.00045896309 -2.9558116e-23)
(0.00048564436 -0.00053683118 2.9116023e-23)
(0.00064632814 -0.00062613102 -1.0208277e-23)
(0.00085719425 -0.00072821185 3.9958928e-23)
(0.0011329153 -0.00084447083 -6.638536e-23)
(0.0014920274 -0.00097631446 7.1189628e-23)
(0.0019577545 -0.0011251049 -3.1232396e-23)
(0.0025589218 -0.0012920895 3.6871985e-23)
(0.0033309274 -0.0014783122 -4.1395432e-23)
(0.0043167204 -0.0016845065 4.9391654e-23)
(0.005567706 -0.0019109745 -4.27399e-23)
(0.007144471 -0.0021574549 2.9645243e-23)
(0.0091171959 -0.0024229918 5.6866292e-23)
(0.0115656 -0.0027058149 -1.419599e-22)
(0.014578266 -0.0030032485 4.251181e-23)
(0.0182512 -0.0033116648 1.1142183e-23)
(0.022685556 -0.0036264996 1.5627062e-22)
(0.02798449 -0.0039423394 -3.8809647e-22)
(0.034249285 -0.0042530835 -1.6708885e-22)
(0.041574885 -0.0045521763 -6.926943e-23)
(0.050045317 -0.0048328768 8.9679958e-23)
(0.059728957 -0.0050885765 2.6794737e-22)
(0.070675181 -0.0053130198 5.9066593e-22)
(0.082909696 -0.0055006954 -2.8967327e-22)
(0.096436509 -0.0056466804 3.0703253e-23)
(0.11122773 -0.0057476071 1.026278e-21)
(0.12724592 -0.00579993 -3.6253405e-22)
(0.14439671 -0.0058040316 1.1728288e-21)
(0.16263836 -0.0057537028 7.4081185e-22)
(0.18175193 -0.0056556111 -8.9872939e-22)
(0.2018228 -0.0054977133 -6.1207185e-22)
(0.22228742 -0.0052951746 2.5608812e-23)
(0.24376082 -0.0050466167 -3.0129951e-21)
(0.26475534 -0.0047001157 -2.0639575e-21)
(0.2871421 -0.0045418251 -2.5876366e-22)
(5.1681968e-07 -5.9127788e-06 2.4596563e-24)
(1.7763299e-06 -1.8606495e-05 -7.160473e-25)
(3.42706e-06 -3.3193175e-05 -3.0222692e-24)
(5.6079564e-06 -4.9996599e-05 3.3622453e-24)
(8.4777027e-06 -6.9395714e-05 1.1825082e-25)
(1.2258393e-05 -9.1829213e-05 -5.490807e-24)
(1.7239957e-05 -0.00011780557 5.0424835e-24)
(2.3803653e-05 -0.0001479128 5.5474797e-24)
(3.2450962e-05 -0.00018282941 -4.5517247e-24)
(4.3841126e-05 -0.00022333637 1.4369452e-25)
(5.8840135e-05 -0.00027033005 -1.3867945e-23)
(7.8584467e-05 -0.00032483585 1.0787812e-23)
(0.00010456367 -0.00038802238 -5.4504653e-24)
(0.00013872689 -0.00046121561 8.7006908e-24)
(0.0001836197 -0.0005459122 -6.4468752e-24)
(0.00024255856 -0.00064379129 -8.1655605e-24)
(0.00031985204 -0.00075672308 -3.0123414e-24)
(0.00042107874 -0.00088677255 6.3783836e-23)
(0.0005534332 -0.001036196 -3.351219e-23)
(0.00072615151 -0.0012074274 -6.3988969e-24)
(0.00095102769 -0.001403051 9.1447539e-24)
(0.0012430301 -0.0016257562 -5.719113e-23)
(0.0016210224 -0.0018782704 5.3108199e-23)
(0.0021085865 -0.0021632649 -8.0825016e-24)
(0.0027349323 -0.002483231 -4.4199158e-23)
(0.0035358634 -0.0028403233 -1.0345549e-22)
(0.0045547465 -0.0032361704 5.8196761e-23)
(0.0058434037 -0.0036716591 -4.5672964e-24)
(0.0074628238 -0.0041466991 -2.3966799e-23)
(0.0094835559 -0.0046599867 1.1000221e-23)
(0.011985636 -0.0052087882 2.015549e-22)
(0.015057894 -0.0057887715 -1.7468135e-22)
(0.018796495 -0.0063939163 -8.2060087e-23)
(0.023302657 -0.0070165303 1.2322671e-22)
(0.028679501 -0.0076473935 4.4567232e-22)
(0.035028176 -0.0082760329 5.0977096e-22)
(0.042443423 -0.008891123 -2.2278899e-22)
(0.05100901 -0.0094809546 1.8541668e-22)
(0.060793052 -0.010033988 8.2396034e-24)
(0.071844671 -0.010539249 -5.0016596e-22)
(0.084189404 -0.010986991 8.070229e-23)
(0.097831127 -0.011368459 -4.8457661e-22)
(0.11274203 -0.011677435 -8.9305031e-22)
(0.12888468 -0.011907499 3.26953e-22)
(0.14616556 -0.012058425 -7.1061372e-22)
(0.16454336 -0.012119915 -9.4097531e-22)
(0.18379964 -0.012101557 -1.6259554e-21)
(0.2040227 -0.011983447 -7.1683248e-22)
(0.22464256 -0.011787026 -1.2361353e-21)
(0.24630031 -0.011513457 3.8456181e-21)
(0.26744005 -0.011065176 3.3420334e-21)
(0.29011776 -0.010937359 -1.7373423e-21)
(1.0978962e-06 -8.8882884e-06 -5.5270391e-25)
(3.6078207e-06 -2.7967332e-05 -3.1274531e-24)
(6.6992203e-06 -4.9886574e-05 1.1195373e-23)
(1.0544761e-05 -7.5129007e-05 -7.4748649e-24)
(1.5342355e-05 -0.00010425904 3.2181717e-26)
(2.1360229e-05 -0.00013792967 -6.0896197e-24)
(2.8942328e-05 -0.00017689727 1.5053811e-23)
(3.8533157e-05 -0.00022203598 -7.4590591e-24)
(5.070821e-05 -0.00027435386 -8.6706253e-24)
(6.6213276e-05 -0.00033501051 5.2134355e-25)
(8.6015465e-05 -0.00040533614 6.0882782e-24)
(0.00011136927 -0.0004868517 6.6939364e-26)
(0.00014390177 -0.00058128968 1.0364318e-23)
(0.00018572217 -0.00069061493 1.2152236e-23)
(0.00023956183 -0.00081704447 -3.6430975e-23)
(0.00030895242 -0.00096306468 8.9368425e-24)
(0.00039845087 -0.0011314442 -4.9681061e-24)
(0.00051392133 -0.0013252395 9.7199908e-24)
(0.00066288501 -0.0015477902 1.3650351e-23)
(0.00085494942 -0.0018026997 1.4478346e-23)
(0.0011023278 -0.0020937956 -2.649019e-23)
(0.0014204575 -0.0024250646 6.3118813e-23)
(0.0018287209 -0.0028005561 -1.2006276e-22)
(0.0023512663 -0.0032242463 6.7432224e-23)
(0.0030179123 -0.0036998594 -2.8281077e-24)
(0.0038651036 -0.0042306416 -6.0089181e-23)
(0.0049368665 -0.0048190885 -3.0046408e-23)
(0.0062856821 -0.0054666331 5.9311118e-23)
(0.0079731737 -0.006173307 -3.0588187e-22)
(0.010070473 -0.0069373983 3.208844e-22)
(0.012658116 -0.007755139 -1.519471e-22)
(0.015825322 -0.0086204603 1.4825024e-22)
(0.019668513 -0.0095248612 -1.60478e-22)
(0.024289005 -0.010457429 -2.5524977e-22)
(0.029789865 -0.011405041 -6.3829945e-23)
(0.036272046 -0.012352759 -5.1084016e-22)
(0.043829973 -0.0132844 4.9826989e-22)
(0.052547024 -0.014183205 6.6864293e-22)
(0.062490913 -0.015032632 -3.4451299e-22)
(0.073710393 -0.015816932 6.9846325e-22)
(0.086230763 -0.016522061 5.6235151e-22)
(0.10005575 -0.017135398 5.2578226e-22)
(0.11515769 -0.017647797 1.3573259e-21)
(0.13149928 -0.018050068 3.3160385e-22)
(0.14898831 -0.01834127 -1.8557193e-21)
(0.16758427 -0.018507071 1.10864e-21)
(0.18706951 -0.018559716 1.6284635e-21)
(0.20753719 -0.018471486 3.2161649e-21)
(0.22840694 -0.018270632 1.4371665e-21)
(0.25036078 -0.0179576 -5.6475192e-21)
(0.27173637 -0.017399249 1.8151274e-21)
(0.29487595 -0.017272066 3.1833945e-21)
(1.9237553e-06 -1.1955927e-05 -1.3981964e-24)
(6.2105312e-06 -3.7617135e-05 1.0852091e-23)
(1.1348645e-05 -6.7093613e-05 -1.2123456e-23)
(1.7558351e-05 -0.00010103148 7.3218925e-24)
(2.5092892e-05 -0.00014018514 1.8209214e-24)
(3.4285515e-05 -0.00018542696 5.0287432e-26)
(4.5556239e-05 -0.00023776685 -1.2462221e-23)
(5.9438573e-05 -0.00029837135 9.5750607e-24)
(7.661208e-05 -0.00036858497 -1.0979952e-23)
(9.7944146e-05 -0.00044995352 -3.0374706e-24)
(0.00012454382 -0.00054424922 6.0307653e-24)
(0.00015783111 -0.00065349729 1.2989931e-23)
(0.00019962581 -0.0007800033 -8.9730554e-24)
(0.00025226114 -0.00092638058 -1.6518423e-23)
(0.00031872826 -0.001095576 3.530023e-23)
(0.00040285937 -0.0012908927 -5.4447591e-24)
(0.00050955791 -0.0015160063 8.1356982e-24)
(0.00064508585 -0.0017749724 2.0596904e-23)
(0.00081741892 -0.0020722196 -9.64386e-23)
(0.0010366807 -0.0024125232 1.9270992e-22)
(0.0013156662 -0.0028009531 -6.7089997e-23)
(0.0016704622 -0.0032427875 5.7328104e-24)
(0.002121169 -0.0037433851 -1.100849e-22)
(0.0026927172 -0.0043080065 1.7576077e-22)
(0.0034157643 -0.0049415796 -2.6492763e-22)
(0.0043276383 -0.0056484023 2.1261457e-22)
(0.0054732719 -0.006431786 -1.0913968e-22)
(0.006906051 -0.0072936471 2.0362873e-23)
(0.0086884676 -0.0082340639 1.1005863e-22)
(0.010892449 -0.0092508309 1.0822702e-22)
(0.013599214 -0.010339051 2.5326133e-23)
(0.016898506 -0.011490817 1.107785e-22)
(0.020887089 -0.012695043 1.6032875e-22)
(0.02566641 -0.013937491 2.9250017e-23)
(0.031339453 -0.015201037 4.4425636e-22)
(0.038006889 -0.016466187 5.3812267e-22)
(0.045762706 -0.01771182 -4.1044896e-22)
(0.054689747 -0.018916065 -1.1406282e-21)
(0.064855182 -0.020057328 -6.2977338e-22)
(0.07630727 -0.021115044 -8.038835e-22)
(0.089071005 -0.022070838 -5.7541234e-22)
(0.10314995 -0.022908205 4.2132401e-23)
(0.11851665 -0.023614996 -4.8392312e-22)
(0.13513405 -0.024179406 -1.0780956e-21)
(0.15291173 -0.024599707 -2.7951776e-21)
(0.17181043 -0.024857492 9.4644957e-22)
(0.19161347 -0.024967573 6.5359844e-22)
(0.21242083 -0.02489395 -2.8256748e-21)
(0.23363793 -0.024673465 -1.8900013e-21)
(0.25600215 -0.024299209 1.1004563e-20)
(0.27770713 -0.023620486 -4.6487316e-21)
(0.30148087 -0.023448151 1.9363906e-21)
(3.0195597e-06 -1.5124971e-05 1.7044963e-24)
(9.6635142e-06 -4.7584684e-05 5.7704194e-24)
(1.7516091e-05 -8.4864863e-05 -2.0529198e-23)
(2.686021e-05 -0.00012777882 4.2475877e-25)
(3.8021945e-05 -0.00017727562 5.8226435e-24)
(5.142004e-05 -0.00023445211 7.0110339e-24)
(6.757446e-05 -0.0003005774 1.192082e-23)
(8.7135535e-05 -0.00037711659 -1.6788006e-23)
(0.00011091929 -0.00046575734 -5.7081612e-24)
(0.00013995241 -0.00056843881 -1.2320229e-23)
(0.00017552967 -0.00068738279 3.8628052e-24)
(0.00021928741 -0.00082512657 5.8148e-24)
(0.00027329704 -0.00098455669 1.7029179e-23)
(0.00034018386 -0.0011689426 -2.9569885e-23)
(0.0004232774 -0.0013819682 7.3154422e-23)
(0.00052680071 -0.0016277594 -2.0864223e-23)
(0.00065610722 -0.0019109034 7.4161851e-23)
(0.00081797485 -0.0022364568 -3.6260179e-23)
(0.0010209679 -0.0026099358 -7.0608913e-23)
(0.001275877 -0.003037282 -2.7602142e-23)
(0.0015962481 -0.0035247959 -3.4852981e-23)
(0.001999005 -0.0040790284 3.7796427e-23)
(0.0025051711 -0.00470662 8.6721577e-23)
(0.0031406812 -0.0054140782 -7.9828592e-24)
(0.0039372685 -0.0062074847 7.8959144e-24)
(0.0049333895 -0.0070921271 -5.9729833e-23)
(0.0061751341 -0.0080720567 -1.4538888e-22)
(0.0077170389 -0.0091495839 2.0133596e-22)
(0.0096226987 -0.010324732 3.9790063e-23)
(0.011965046 -0.011594691 7.2441411e-23)
(0.014826154 -0.012953314 -3.0365637e-22)
(0.018296426 -0.014390734 1.7100419e-22)
(0.022473038 -0.015893157 8.3068833e-23)
(0.027457584 -0.017442906 -5.8480513e-22)
(0.03335292 -0.019018754 -1.1303282e-21)
(0.040259342 -0.020596565 -9.772627e-22)
(0.048270262 -0.022150212 -5.1759452e-22)
(0.057467829 -0.02365267 1.2084578e-21)
(0.067918513 -0.025077261 2.0757873e-21)
(0.079669953 -0.026398601 1.4543322e-22)
(0.09274676 -0.027593966 -8.507407e-23)
(0.10715234 -0.028642962 -2.4917665e-21)
(0.12285945 -0.029530376 1.3389264e-21)
(0.13983141 -0.030241997 -2.1123386e-21)
(0.15798016 -0.030775281 2.3696156e-21)
(0.17726809 -0.031107599 -4.7122862e-21)
(0.19747968 -0.031256399 -3.9298433e-22)
(0.21872358 -0.031176478 -3.2025838e-21)
(0.24038742 -0.030916174 -2.5740454e-21)
(0.26327736 -0.030451431 -6.1541082e-21)
(0.28540748 -0.029639531 6.9366402e-21)
(0.30998572 -0.02936039 -5.7412382e-21)
(4.4144692e-06 -1.840244e-05 1.9341384e-24)
(1.4058336e-05 -5.7891752e-05 -1.3011836e-23)
(2.5364516e-05 -0.00010323854 5.2056844e-24)
(3.8695034e-05 -0.00015542744 1.3456085e-23)
(5.4467864e-05 -0.00021560686 6.3277314e-24)
(7.3209502e-05 -0.00028510318 -1.390105e-23)
(9.5565745e-05 -0.00036545025 6.462028e-25)
(0.00012233385 -0.0004584177 -5.7954879e-24)
(0.0001545013 -0.00056604264 -8.1294995e-24)
(0.00019329462 -0.00069066418 3.7979751e-24)
(0.00024024138 -0.00083496037 1.9377942e-23)
(0.00029724869 -0.0010019872 2.5839194e-23)
(0.00036670241 -0.0011952185 -1.7160546e-23)
(0.00045159242 -0.0014185853 -3.6501127e-23)
(0.00055566989 -0.0016765129 8.8839317e-23)
(0.00068364423 -0.0019739521 -7.7715143e-23)
(0.00084142787 -0.0023164015 4.9999369e-23)
(0.0010364385 -0.0027099145 -3.160931e-23)
(0.0012779691 -0.003161086 7.5894771e-23)
(0.0015776347 -0.0036770084 -1.2363022e-22)
(0.001949907 -0.00426519 -8.0006962e-23)
(0.0024127403 -0.0049334215 -2.0002054e-23)
(0.0029882913 -0.0056895813 1.6759148e-22)
(0.0037037258 -0.0065413671 -6.2844823e-23)
(0.0045920914 -0.0074959432 -7.614337e-23)
(0.0056932212 -0.0085595005 1.4711553e-22)
(0.0070546117 -0.0097367284 1.5502005e-22)
(0.008732194 -0.011030215 -1.6600756e-22)
(0.010790894 -0.012439799 1.3054322e-22)
(0.01330485 -0.013961924 -5.1818801e-22)
(0.016357157 -0.015589052 3.4926852e-23)
(0.020038989 -0.017309211 3.3825634e-25)
(0.024447998 -0.019105763 3.7789356e-22)
(0.029685921 -0.020957468 5.5148009e-22)
(0.035855429 -0.022838891 1.4333594e-21)
(0.043056322 -0.024721176 7.9503817e-22)
(0.051381287 -0.026573139 1.7361889e-21)
(0.060911603 -0.028362574 2.3942266e-22)
(0.071712873 -0.030057727 -2.5947855e-21)
(0.083831982 -0.031628409 1.20416e-21)
(0.097293074 -0.033047568 1.7429344e-21)
(0.1120994 -0.034290923 2.0824659e-21)
(0.12822391 -0.035340141 -2.8381422e-21)
(0.14563044 -0.036178894 1.2858701e-21)
(0.16423386 -0.036803834 2.0483816e-21)
(0.18399859 -0.037187853 1.8675016e-21)
(0.20471049 -0.037351249 -8.0168512e-23)
(0.22648839 -0.037238295 -2.1952623e-21)
(0.24869924 -0.036912732 1.0096375e-20)
(0.27222951 -0.036320659 -4.7832674e-21)
(0.29488169 -0.03535983 -6.3870961e-21)
(0.32042917 -0.034896437 2.9344429e-22)
(6.1420528e-06 -2.1793504e-05 -4.9362398e-25)
(1.9500377e-05 -6.8554234e-05 -9.1922689e-24)
(3.5081393e-05 -0.00012224231 1.0959453e-23)
(5.3344213e-05 -0.00018401774 3.663501e-24)
(7.4819531e-05 -0.00025523279 -1.3770995e-23)
(0.00010016584 -0.00033744829 1.6649888e-24)
(0.0001301829 -0.000432468 1.3296533e-23)
(0.00016584755 -0.00054237156 -1.3589372e-23)
(0.00020835651 -0.00066955123 7.3443062e-25)
(0.00025917995 -0.00081675171 -1.0974752e-23)
(0.00032012875 -0.00098711288 1.4366896e-23)
(0.0003934391 -0.0011842145 3.122098e-23)
(0.00048187845 -0.0014121218 1.4892904e-23)
(0.00058887828 -0.0016754302 -6.3220444e-23)
(0.0007186997 -0.0019793073 5.7689705e-24)
(0.00087663913 -0.0023295268 7.4214278e-24)
(0.0010692825 -0.0027324926 2.0467988e-23)
(0.0013048168 -0.0031952442 -5.3615457e-23)
(0.001593409 -0.0037254373 8.8931819e-23)
(0.0019476616 -0.00433129 6.7493333e-23)
(0.0023831521 -0.0050214821 2.0447966e-23)
(0.0029190625 -0.0058049967 5.1411581e-23)
(0.0035788974 -0.006690889 1.451979e-22)
(0.0043912821 -0.0076879695 -2.8063624e-22)
(0.0053908182 -0.0088043917 2.5298369e-22)
(0.0066189615 -0.010047138 -2.0700657e-22)
(0.0081248607 -0.011421406 7.7106707e-23)
(0.0099660788 -0.012929917 3.8917716e-22)
(0.01220909 -0.014572168 -2.3024919e-23)
(0.014929431 -0.016343689 -4.9951947e-22)
(0.018211363 -0.018235381 1.6704383e-22)
(0.022146932 -0.020233 1.1969407e-22)
(0.026834302 -0.022316916 -3.6550179e-22)
(0.032375335 -0.024462194 -7.6344197e-23)
(0.03887243 -0.026639089 7.7880199e-22)
(0.04642476 -0.028813953 -1.6781103e-21)
(0.055124111 -0.030950514 -2.0843994e-21)
(0.065050702 -0.033011389 -1.0678287e-21)
(0.076269091 -0.034959779 -1.2890464e-21)
(0.088825259 -0.036760745 1.7064504e-21)
(0.1027428 -0.038382965 -2.8120619e-21)
(0.11802483 -0.03979827 -9.7482294e-24)
(0.13464438 -0.040985146 4.0483056e-21)
(0.15256591 -0.041925568 1.9603657e-21)
(0.17170796 -0.042615432 -2.7737508e-21)
(0.19203723 -0.043022751 -1.3029752e-21)
(0.2133411 -0.043171034 5.4318143e-22)
(0.23574984 -0.042992404 1.0664927e-20)
(0.25860753 -0.042570722 7.2941172e-22)
(0.28289004 -0.041807036 -1.4053374e-21)
(0.30616126 -0.040678166 -2.5733495e-21)
(0.33283315 -0.039937684 8.4056406e-21)
(8.2402878e-06 -2.529986e-05 3.1461348e-24)
(2.6108816e-05 -7.9577153e-05 7.1152738e-24)
(4.687868e-05 -0.00014188451 -5.6917183e-24)
(7.1125751e-05 -0.00021356112 2.3439893e-23)
(9.9516205e-05 -0.00029616735 -1.9369094e-23)
(0.00013286696 -0.0003915029 -1.7071166e-23)
(0.00017216235 -0.00050164608 1.6605702e-23)
(0.00021859419 -0.00062899133 -9.1789914e-24)
(0.00027360935 -0.00077629069 -3.7072903e-23)
(0.00033896879 -0.00094669897 7.9538563e-23)
(0.00041682107 -0.0011438218 -4.4699628e-23)
(0.00050979386 -0.0013717656 -7.9535186e-23)
(0.0006211078 -0.0016351888 7.3402621e-23)
(0.00075471786 -0.001939351 1.7415545e-23)
(0.00091548839 -0.0022901583 3.7208318e-23)
(0.0011094089 -0.0026942005 -4.4403487e-23)
(0.0013438585 -0.0031587747 6.0650529e-24)
(0.0016279285 -0.0036918876 6.2644071e-23)
(0.001972811 -0.004302229 2.7875843e-24)
(0.0023922627 -0.0049991052 -2.0821382e-22)
(0.0029031516 -0.0057923189 3.1728483e-22)
(0.0035260881 -0.0066919819 -4.2437605e-22)
(0.0042861402 -0.0077082459 4.0086262e-22)
(0.0052136206 -0.0088509363 -1.1885104e-22)
(0.006344923 -0.010129078 5.6213082e-23)
(0.0077233663 -0.011550306 -1.4971401e-22)
(0.0093999892 -0.013120173 2.4212457e-22)
(0.011434212 -0.014841356 -6.082278e-22)
(0.013894262 -0.016712822 9.1385395e-23)
(0.016857243 -0.018728998 6.6365947e-22)
(0.020408713 -0.020879026 -2.3327251e-22)
(0.024641662 -0.023146212 -2.0527805e-22)
(0.029654784 -0.025507763 -5.4609614e-22)
(0.035550015 -0.027934918 -6.0996139e-22)
(0.042429376 -0.030393521 1.3636445e-21)
(0.050391254 -0.032845077 9.8885806e-22)
(0.059526341 -0.035248215 -1.1625357e-21)
(0.069913587 -0.037560405 4.7095719e-22)
(0.081616309 -0.039739878 1.9653507e-21)
(0.094679428 -0.041747038 -3.1448032e-21)
(0.10912591 -0.043546393 9.5548514e-22)
(0.12495874 -0.045105878 -6.1432585e-21)
(0.1421508 -0.046400723 2.3632706e-21)
(0.16066734 -0.047411801 6.7370286e-22)
(0.18043139 -0.048134318 -1.286018e-22)
(0.20141201 -0.048530873 -3.1609877e-21)
(0.22339825 -0.048628664 4.936896e-21)
(0.24653259 -0.048345863 -4.3771772e-22)
(0.27013504 -0.047791748 -2.3012341e-21)
(0.29527696 -0.046805108 1.3919609e-20)
(0.31926287 -0.045485375 1.4083409e-20)
(0.34720081 -0.044360302 -3.0555917e-21)
(1.0751674e-05 -2.8919137e-05 -3.512037e-24)
(3.4016992e-05 -9.0952737e-05 -8.3045998e-24)
(6.0993436e-05 -0.00016215068 1.5901444e-23)
(9.2395173e-05 -0.00024403468 -3.1834332e-23)
(0.00012904875 -0.0003383769 2.1847012e-23)
(0.00017195832 -0.00044721962 1.9003663e-23)
(0.00022232607 -0.00057291952 9.5643564e-24)
(0.00028159718 -0.00071818941 -3.263534e-23)
(0.00035151287 -0.00088614452 -2.0732758e-23)
(0.00043417576 -0.0010803525 9.8739003e-23)
(0.0005321304 -0.0013048865 -3.6809012e-23)
(0.00064846273 -0.0015643803 -1.0556524e-22)
(0.00078692285 -0.0018640835 2.5363428e-23)
(0.00095207605 -0.0022099156 1.0541495e-22)
(0.0011494884 -0.0026085134 -1.6311679e-22)
(0.0013859537 -0.0030672697 1.1506885e-22)
(0.0016697696 -0.0035943552 -1.1122108e-22)
(0.0020110715 -0.0041987167 2.1055977e-22)
(0.002422232 -0.0048900408 -1.0310775e-22)
(0.0029183335 -0.0056786727 1.3988536e-22)
(0.0035177214 -0.0065754741 -2.0870709e-22)
(0.0042426362 -0.0075916052 2.4941769e-22)
(0.0051199247 -0.0087382148 -3.1133857e-22)
(0.0061818128 -0.010026023 1.1814809e-22)
(0.0074667169 -0.011464784 1.3978692e-22)
(0.0090200515 -0.013062623 -5.3024505e-23)
(0.01089497 -0.014825258 -1.7275523e-23)
(0.01315296 -0.016755123 3.1193651e-22)
(0.015864185 -0.018850442 -9.1108165e-23)
(0.019107461 -0.021104314 -2.2309482e-22)
(0.022969747 -0.02350391 -6.2990598e-22)
(0.027545022 -0.026029883 1.4484583e-21)
(0.032932494 -0.028656106 -1.2849151e-21)
(0.039234096 -0.03134985 1.5501166e-21)
(0.046551336 -0.03407246 -1.2025995e-22)
(0.054981629 -0.036780555 -8.4226514e-22)
(0.064614356 -0.039427675 -4.7864221e-22)
(0.075526969 -0.041966216 3.0156203e-22)
(0.087781335 -0.044349548 1.1543451e-21)
(0.10142114 -0.046533561 -1.1783561e-21)
(0.11646863 -0.048478758 6.2332115e-22)
(0.13292671 -0.050149134 3.4889865e-21)
(0.1507677 -0.051516558 -5.6720948e-21)
(0.1699578 -0.05256165 3.585247e-22)
(0.19042564 -0.053278981 3.3202983e-21)
(0.21214227 -0.053625045 7.3715983e-21)
(0.23489867 -0.053631338 -2.7778293e-22)
(0.2588497 -0.053200232 -1.2545681e-21)
(0.28329132 -0.052472044 3.8989309e-21)
(0.3093928 -0.051204729 -8.1264845e-21)
(0.33418628 -0.049667424 -1.1963489e-21)
(0.36351459 -0.048036657 -5.9475594e-21)
(1.3723004e-05 -3.2643425e-05 -5.8786442e-24)
(4.3371623e-05 -0.00010265582 1.7532779e-24)
(7.7686447e-05 -0.00018299538 -8.6378536e-24)
(0.00011754345 -0.00027536903 -7.4957539e-24)
(0.00016395675 -0.00038176356 2.6966789e-23)
(0.00021814908 -0.00050446654 1.8471038e-23)
(0.00028157665 -0.00064611548 -7.0279845e-23)
(0.00035597953 -0.00080974376 8.772103e-24)
(0.00044344108 -0.00099883124 6.4947573e-23)
(0.00054646025 -0.001217359 -3.3301031e-23)
(0.00066804009 -0.0014698668 -1.7027014e-23)
(0.00081179618 -0.0017615127 -2.7310956e-23)
(0.00098208911 -0.0020981325 5.6026648e-23)
(0.0011841863 -0.002486296 -1.1030579e-22)
(0.0014244593 -0.0029333571 -1.0818004e-23)
(0.0017106227 -0.0034474918 9.761832e-23)
(0.0020520227 -0.004037717 -6.9477564e-23)
(0.0024599834 -0.0047138824 -5.1232957e-23)
(0.0029482171 -0.005486623 2.3859034e-22)
(0.0035333062 -0.0063672604 3.8306844e-23)
(0.0042352618 -0.0073676358 2.4296882e-23)
(0.0050781564 -0.0084998598 -1.5862167e-23)
(0.0060908271 -0.009775959 -3.8029872e-22)
(0.0073076324 -0.011207406 3.1918468e-22)
(0.0087692342 -0.012804516 -3.2941664e-23)
(0.010523361 -0.014575715 1.5121056e-22)
(0.012625487 -0.016526675 -3.8442543e-22)
(0.015139356 -0.018659356 1.825075e-22)
(0.018137223 -0.020970996 7.8221329e-22)
(0.021699739 -0.023453124 -5.8290877e-22)
(0.025915324 -0.026090706 8.0511551e-22)
(0.030878963 -0.028861524 -6.6702289e-22)
(0.036690325 -0.031735938 8.9600379e-22)
(0.043451231 -0.034677118 -9.3097518e-22)
(0.051262505 -0.037641831 -3.5339417e-22)
(0.06022038 -0.040581787 4.9973457e-23)
(0.070412683 -0.043445485 3.2759246e-21)
(0.081915113 -0.046180348 1.4595924e-21)
(0.094787865 -0.048735049 -1.437181e-21)
(0.10907319 -0.051061163 1.905427e-21)
(0.12479254 -0.053115433 -4.776946e-21)
(0.14194883 -0.054857808 -5.0027308e-22)
(0.16051306 -0.056256652 3.2494743e-21)
(0.18045272 -0.057293523 -2.8010738e-21)
(0.20170343 -0.057962319 2.4612668e-21)
(0.22423726 -0.058212631 -3.0694415e-21)
(0.2478475 -0.058080974 -1.4554456e-20)
(0.27270093 -0.057452196 2.813813e-21)
(0.29807077 -0.056503308 -6.5358993e-21)
(0.32522264 -0.054892259 9.1310005e-22)
(0.35091223 -0.053106882 -1.1187675e-20)
(0.38173447 -0.050836082 6.4805868e-21)
(1.7205124e-05 -3.6458141e-05 5.8772924e-24)
(5.433181e-05 -0.00011464045 -9.5655104e-24)
(9.7240594e-05 -0.00020433615 4.2568748e-24)
(0.00014699449 -0.00030743922 1.6194041e-23)
(0.00020482495 -0.00042615261 1.9048919e-23)
(0.00027220738 -0.00056301046 -2.4948342e-23)
(0.00035089111 -0.00072093194 -4.706613e-23)
(0.00044295607 -0.00090327105 3.1993532e-23)
(0.00055087912 -0.0011138714 2.2416589e-23)
(0.00067761425 -0.001357125 -4.0916118e-23)
(0.00082668992 -0.0016380342 9.3566511e-23)
(0.0010023272 -0.0019622744 -2.8911304e-23)
(0.0012095832 -0.0023362569 3.9610227e-23)
(0.0014545243 -0.0027671876 -6.3458445e-23)
(0.0017444362 -0.0032631167 -1.0158929e-22)
(0.0020880755 -0.0038329757 9.643948e-23)
(0.0024959721 -0.0044865913 -3.6915861e-23)
(0.0029807871 -0.0052346684 4.7805333e-23)
(0.0035577347 -0.0060887293 -8.8210988e-23)
(0.0042450734 -0.007060995 3.5608974e-23)
(0.0050646681 -0.0081641911 3.4232997e-23)
(0.0060426217 -0.0094112619 -1.4114895e-22)
(0.0072099687 -0.010814972 2.1204574e-22)
(0.0086034102 -0.01238738 -1.1672909e-22)
(0.010266062 -0.014139174 -2.7355488e-22)
(0.012248167 -0.016078862 9.8322527e-25)
(0.014607707 -0.018211834 -6.8596584e-23)
(0.017410838 -0.020539319 6.1198774e-22)
(0.020732035 -0.023057304 -8.5634911e-22)
(0.024653861 -0.025755483 9.7015244e-22)
(0.029266233 -0.028616364 -2.1417508e-22)
(0.034665104 -0.031614639 -3.443762e-22)
(0.040950519 -0.034716971 -1.2657563e-21)
(0.048224035 -0.037882301 -2.8436076e-22)
(0.056585588 -0.041062754 -1.5627372e-21)
(0.066129986 -0.044205142 -4.9863341e-22)
(0.076943235 -0.047252998 8.9288816e-22)
(0.089099006 -0.050148918 1.3391738e-21)
(0.10265558 -0.052837089 -2.529679e-21)
(0.11765353 -0.055265039 2.9621487e-21)
(0.13411351 -0.057386115 1.3612985e-21)
(0.15203845 -0.059155995 5.7988792e-21)
(0.17139691 -0.060539376 2.1884719e-21)
(0.19215841 -0.061520363 -4.9209135e-21)
(0.21426732 -0.062091936 -4.0174462e-22)
(0.23769453 -0.062195978 -3.4092565e-21)
(0.26223651 -0.061874841 1.4111121e-20)
(0.28807086 -0.060994405 -3.7777481e-21)
(0.31445059 -0.05977378 1.1273797e-20)
(0.34273194 -0.05775208 4.3783679e-21)
(0.36940036 -0.055684544 -1.0514468e-20)
(0.40179588 -0.052621707 -1.2102893e-20)
(2.1251993e-05 -4.0340492e-05 -1.1660219e-23)
(6.706697e-05 -0.00012683472 2.6459533e-23)
(0.00011995674 -0.00022604449 -3.7279803e-24)
(0.00018119905 -0.00034005123 5.9757755e-24)
(0.00025227498 -0.00047127398 -3.583775e-23)
(0.0003349494 -0.0006224928 5.9587388e-24)
(0.00043130707 -0.0007969071 2.3046332e-23)
(0.00054381612 -0.00099818897 -8.0173034e-24)
(0.00067540209 -0.0012305417 2.5885737e-23)
(0.00082953677 -0.0014987625 1.6519513e-23)
(0.0010103453 -0.0018083074 -4.110098e-23)
(0.0012227347 -0.0021653575 -3.4601522e-23)
(0.0014725494 -0.0025768839 -3.6371465e-23)
(0.0017667566 -0.0030507065 2.1117244e-23)
(0.0021136694 -0.0035955441 6.8155401e-23)
(0.0025232129 -0.0042210469 -5.178295e-23)
(0.0030072388 -0.0049378044 1.6637396e-22)
(0.0035798971 -0.0057573175 3.5563863e-23)
(0.0042580684 -0.0066919211 -1.5661254e-22)
(0.0050618631 -0.0077546436 3.3365779e-23)
(0.0060151859 -0.0089589826 -1.2817169e-23)
(0.0071463642 -0.010318581 -3.5153918e-22)
(0.0084888275 -0.011846779 4.5088979e-22)
(0.010081817 -0.013556037 1.2696768e-23)
(0.011971095 -0.0154572 3.6078348e-24)
(0.014209594 -0.017558618 -1.9979913e-22)
(0.016857962 -0.019865136 6.1325142e-22)
(0.019984892 -0.022376974 -6.8825139e-22)
(0.023667165 -0.025088582 -1.607716e-22)
(0.027989297 -0.027987541 -1.110161e-22)
(0.033042681 -0.031053638 -4.4386392e-22)
(0.038924167 -0.034258245 5.3913143e-22)
(0.045734037 -0.037564153 9.271288e-22)
(0.053573389 -0.040925962 -1.3950301e-21)
(0.062541035 -0.044291114 1.3480484e-21)
(0.072730078 -0.047601562 -2.7324803e-21)
(0.084224411 -0.050795986 -4.0372098e-21)
(0.097095379 -0.053812346 -2.282043e-21)
(0.11139909 -0.056590595 -4.1937203e-22)
(0.12717414 -0.059074573 -2.7186693e-21)
(0.14444043 -0.061214749 2.6489009e-21)
(0.16320095 -0.062962132 -3.3945279e-21)
(0.18341989 -0.064277641 -2.5253807e-21)
(0.20507051 -0.065150073 1.9839724e-21)
(0.22810823 -0.065570588 -8.8580714e-21)
(0.25249821 -0.065473034 1.3194012e-20)
(0.27804235 -0.06490639 5.0530966e-21)
(0.30492702 -0.063716532 1.2225028e-21)
(0.33238878 -0.062169617 -1.8587183e-20)
(0.36186464 -0.059668783 -4.3997649e-22)
(0.38958999 -0.057283667 7.2880469e-21)
(0.42362197 -0.053293315 1.5329397e-20)
(2.5920113e-05 -4.4258236e-05 3.624485e-24)
(8.1754138e-05 -0.00013913715 -1.5260963e-23)
(0.00014614926 -0.00024793919 3.8204243e-23)
(0.00022062797 -0.00037293189 -3.250507e-23)
(0.00030695574 -0.00051674821 -1.9094782e-23)
(0.00040722665 -0.00068241106 2.0440487e-23)
(0.0005239063 -0.00087339575 9.4238121e-24)
(0.00065990281 -0.0010936866 2.0361449e-23)
(0.00081864932 -0.0013478388 -4.3070191e-23)
(0.0010042023 -0.0016410441 -2.5989448e-23)
(0.0012213589 -0.0019791988 7.0079762e-23)