/*--------------------------------*- C++ -*----------------------------------*\
  =========                 |
  \\      /  F ield         | OpenFOAM: The Open Source CFD Toolbox
   \\    /   O peration     | Website:  https://openfoam.org
    \\  /    A nd           | Version:  13
     \\/     M anipulation  |
\*---------------------------------------------------------------------------*/
FoamFile
{
    format      ascii;
    class       volScalarField;
    location    "16.396136";
    object      nut;
}
// * * * * * * * * * * * * * * * * * * * * * * * * * * * * * * * * * * * * * //

dimensions      [0 2 -1 0 0 0 0];

internalField   nonuniform List<scalar> 
17140
(
2.2643014e-17
4.4037693e-15
1.1729643e-13
1.18917e-12
7.1921208e-12
3.1867844e-11
1.1508977e-10
3.6020869e-10
1.0150556e-09
2.6412278e-09
6.4579814e-09
1.5025353e-08
3.3576735e-08
7.2579585e-08
1.5259401e-07
3.1339112e-07
6.3090263e-07
1.2484598e-06
2.4339213e-06
4.6833784e-06
8.9079765e-06
1.6767249e-05
3.1254538e-05
5.7692553e-05
0.00010530537
0.00018926622
0.00033193416
0.00055910742
0.00088493512
0.0011414363
0.0012434541
0.0013269164
0.0013930314
0.0014488161
0.0015027355
0.0015581058
0.001621759
0.0016985868
0.0017926506
0.0019083538
0.0020513403
0.0022272303
0.0024423579
0.0027020809
0.0030117208
0.0033773153
0.0038032516
0.0039222003
0.0038244267
0.0036965438
0.0035385385
0.0033530135
0.0031544367
0.0029503253
0.0027629585
0.0025975938
0.0024613753
0.0023613215
0.0022958678
0.0022493786
0.0022156046
0.0020880213
0.001832089
0.0015513267
0.0012884857
2.2446292e-17
4.365506e-15
1.1627739e-13
1.1788417e-12
7.1296803e-12
3.1591288e-11
1.140914e-10
3.5708519e-10
1.0062565e-09
2.6183372e-09
6.4020158e-09
1.489512e-08
3.3285565e-08
7.194959e-08
1.5126741e-07
3.106601e-07
6.2538604e-07
1.2374929e-06
2.4124127e-06
4.6416823e-06
8.8279725e-06
1.6615222e-05
3.0968619e-05
5.7161936e-05
0.00010434098
0.00018757768
0.00032917783
0.00055516167
0.00088053866
0.0011569007
0.0012621618
0.001349761
0.0014203632
0.0014801347
0.0015395821
0.0016019333
0.0016740107
0.0017617991
0.0018697842
0.0020016508
0.0021648235
0.0023638104
0.0026031592
0.0028851206
0.0032107896
0.0035810037
0.0039882743
0.0043243449
0.0043127038
0.0042604382
0.0041756381
0.0040479582
0.0038906713
0.0037041297
0.0034997949
0.0032933147
0.0030873124
0.0029171603
0.0027890229
0.0027020175
0.0026446577
0.0025470095
0.0023339992
0.0019811627
0.0016363214
2.1952261e-17
4.2694228e-15
1.1371814e-13
1.1528951e-12
6.9727485e-12
3.089588e-11
1.1157965e-10
3.4922238e-10
9.8409314e-10
2.5606429e-09
6.2608646e-09
1.4566432e-08
3.2550173e-08
7.0357335e-08
1.4791227e-07
3.0374888e-07
6.1141847e-07
1.2097156e-06
2.3579235e-06
4.5360463e-06
8.6252913e-06
1.6230055e-05
3.0243856e-05
5.5814632e-05
0.000101882
0.00018323193
0.00032194058
0.00054433834
0.00086711253
0.0011848036
0.0012946006
0.0013884293
0.0014671171
0.0015350542
0.0016026065
0.0016765918
0.0017630355
0.0018686393
0.0019990083
0.0021596576
0.0023565929
0.0025934508
0.002871534
0.0031881906
0.0035373807
0.0039103711
0.0042990623
0.0047114303
0.0051124847
0.0052295486
0.005320407
0.005349266
0.0053371117
0.0052684433
0.0051333216
0.0049605483
0.0047205989
0.004459653
0.0042118977
0.0039522785
0.0037162796
0.0033393055
0.0028292901
0.0022315846
0.0017762735
2.1161373e-17
4.115605e-15
1.096211e-13
1.111358e-12
6.721524e-12
2.9782656e-11
1.0755887e-10
3.3663617e-10
9.4861726e-10
2.4683002e-09
6.0349632e-09
1.4040449e-08
3.1373528e-08
6.7810157e-08
1.4254627e-07
2.9269892e-07
5.8909531e-07
1.1653432e-06
2.270932e-06
4.3675135e-06
8.3021689e-06
1.5616442e-05
2.9089834e-05
5.3669363e-05
9.7962091e-05
0.00017627947
0.00031026597
0.00052657735
0.00084430754
0.0012268718
0.0013427351
0.0014441283
0.0015348185
0.0016149531
0.0016954583
0.0017848341
0.0018911727
0.0020219598
0.0021839625
0.0023833455
0.0026247438
0.0029093276
0.0032338939
0.0035905216
0.0039673194
0.0043504769
0.0047318749
0.0051319151
0.005582838
0.0060979502
0.0066422272
0.0069092966
0.0071268751
0.0072372828
0.0072535351
0.007217936
0.0070507236
0.0067335035
0.0063125353
0.0057190486
0.0050389543
0.0040577213
0.0029725492
0.0022230931
0.0016127774
2.0089142e-17
3.9070703e-15
1.0406668e-13
1.0550457e-12
6.3809379e-12
2.8273466e-11
1.02108e-10
3.1957369e-10
9.0052581e-10
2.3431248e-09
5.7287604e-09
1.3327555e-08
2.9778947e-08
6.4358793e-08
1.3527701e-07
2.7773383e-07
5.5887341e-07
1.105296e-06
2.1532705e-06
4.1396929e-06
7.8656378e-06
1.4787912e-05
2.7532076e-05
5.0772642e-05
9.2660141e-05
0.00016683281
0.00029423889
0.00050166388
0.00081083953
0.0012162427
0.0014097587
0.0015223553
0.0016267545
0.0017228006
0.0018204693
0.0019304579
0.0020626117
0.0022257961
0.0024275924
0.0026736674
0.0029662183
0.0033024936
0.0036748492
0.0040716742
0.0044784462
0.0048797135
0.0052688968
0.0056784036
0.006146492
0.0067045234
0.0073791509
0.0082121616
0.0088842039
0.0092482047
0.0094741167
0.0095534647
0.0095381954
0.0092509005
0.0087325807
0.0078232362
0.0065464448
0.0046722717
0.0029874466
0.0019607498
0.001305401
1.8761942e-17
3.6489476e-15
9.7191459e-14
9.8534295e-13
5.9593648e-12
2.6405425e-11
9.5361147e-11
2.9845499e-10
8.4100366e-10
2.1882043e-09
5.3498219e-09
1.2445405e-08
2.7806042e-08
6.0089348e-08
1.262869e-07
2.5923188e-07
5.2152387e-07
1.0311241e-06
2.0080179e-06
3.8586419e-06
7.3275089e-06
1.3767281e-05
2.5614136e-05
4.720599e-05
8.6123117e-05
0.00015513723
0.00027420566
0.00046991904
0.0007666696
0.0011660055
0.0015023118
0.0016282253
0.0017463555
0.0018629685
0.0019826881
0.0021189339
0.002283362
0.0024860972
0.002734632
0.0030323527
0.0033773202
0.0037623953
0.0041772172
0.0046095938
0.0050456443
0.0054698848
0.0058782546
0.006308011
0.0067952115
0.0073777932
0.0080902665
0.0089733522
0.010050497
0.01105865
0.011479702
0.011701306
0.011812591
0.011619765
0.011073916
0.0099145209
0.0078962671
0.0050504681
0.0028155604
0.0016893399
0.0010538
1.7221589e-17
3.3493699e-15
8.9212082e-14
9.0444606e-13
5.4700908e-12
2.4237421e-11
8.753108e-11
2.7394643e-10
7.7193064e-10
2.0084375e-09
4.9101504e-09
1.1422008e-08
2.5517661e-08
5.513843e-08
1.1586525e-07
2.3779304e-07
4.782695e-07
9.4528488e-07
1.8400583e-06
3.5339772e-06
6.7065741e-06
1.2591016e-05
2.3406231e-05
4.3103072e-05
7.8600227e-05
0.00014163852
0.00025090053
0.00043237206
0.00071284673
0.0011017234
0.0015702188
0.0017721859
0.0019046186
0.0020426568
0.0021897615
0.0023588382
0.0025631507
0.0028129669
0.0031136935
0.0034640136
0.0038564471
0.0042805931
0.0047263803
0.0051845158
0.005644425
0.006090823
0.0065213337
0.0069703347
0.0074768312
0.0080789704
0.008811771
0.0097098218
0.010814544
0.012152814
0.013146521
0.013485798
0.013690109
0.013552902
0.012946025
0.011512619
0.008597552
0.0049481786
0.0023914834
0.0013181509
0.00080535525
1.5517035e-17
3.0178573e-15
8.0382099e-14
8.1492572e-13
4.928664e-12
2.183835e-11
7.8866627e-11
2.4682694e-10
6.9550235e-10
1.8095405e-09
4.4237341e-09
1.0289951e-08
2.2986765e-08
4.9664183e-08
1.0434584e-07
2.1410632e-07
4.3050688e-07
8.5056631e-07
1.6548856e-06
3.1764078e-06
6.0235046e-06
1.1298641e-05
2.0983125e-05
3.8603196e-05
7.0344438e-05
0.00012677343
0.00022499917
0.00038981191
0.00064951641
0.0010207936
0.0014867517
0.001963472
0.0021258687
0.0022834377
0.0024590506
0.0026635863
0.0029137
0.0032169991
0.0035740941
0.0039771537
0.004413057
0.0048691724
0.0053358924
0.0058062846
0.0062726777
0.0067246475
0.0071651307
0.0076200324
0.0081358025
0.0087492263
0.0094897031
0.01039055
0.01149315
0.01281743
0.014408654
0.014807177
0.01502989
0.014855399
0.014069607
0.012262831
0.0086042775
0.004148801
0.0018245437
0.00098390574
0.00064705306
1.3703741e-17
2.6651951e-15
7.0988758e-14
7.1969411e-13
4.3526978e-12
1.9286253e-11
6.9649629e-11
2.1797864e-10
6.1420485e-10
1.5979836e-09
3.9064008e-09
9.0860884e-09
2.029581e-08
4.384517e-08
9.2105064e-08
1.8894763e-07
3.7980594e-07
7.5009582e-07
1.4586497e-06
2.797896e-06
5.301355e-06
9.9342286e-06
1.842842e-05
3.3863565e-05
6.1647651e-05
0.00011107196
0.00019742156
0.00034369337
0.0005785876
0.0009250077
0.0013788365
0.0018961602
0.0024106914
0.0026170317
0.0028254555
0.0030745148
0.0033732087
0.0037272971
0.0041343921
0.0045824875
0.0050555246
0.0055385823
0.006018693
0.0064861693
0.0069354686
0.0073632166
0.0077799235
0.008216364
0.008719456
0.0093275742
0.010060033
0.01094365
0.012020701
0.01330061
0.014861664
0.015590871
0.015735079
0.015408594
0.014380564
0.012146459
0.0073729281
0.0029235928
0.0012723787
0.00074024798
0.00054214123
1.1841076e-17
2.3029314e-15
6.1339684e-14
6.2186992e-13
3.7610532e-12
1.6664698e-11
6.0181886e-11
1.8834611e-10
5.3069996e-10
1.3806938e-09
3.3750909e-09
7.8498489e-09
1.7532963e-08
3.7872166e-08
7.9544631e-08
1.631438e-07
3.2783637e-07
6.4719166e-07
1.2578567e-06
2.4110543e-06
4.5643406e-06
8.5438883e-06
1.5829262e-05
2.9047678e-05
5.2813937e-05
9.5091828e-05
0.0001691622
0.00029567715
0.00050243524
0.0008166837
0.0012464362
0.0017619412
0.0023016994
0.0028060804
0.003245727
0.0036222282
0.0039625546
0.004296359
0.0046401257
0.0050001255
0.0053857848
0.0058120892
0.0062928798
0.0068241012
0.0074121095
0.0079538051
0.0083122701
0.0087051795
0.0091716929
0.0097517115
0.010453115
0.011300239
0.012325033
0.013543418
0.015079827
0.015799924
0.015767247
0.015186249
0.013791751
0.010715796
0.0051690703
0.0017735266
0.00091520862
0.00058109097
0.00048672629
9.988579e-18
1.9426451e-15
5.1743249e-14
5.245791e-13
3.1726346e-12
1.4057451e-11
5.0765926e-11
1.5887617e-10
4.4765573e-10
1.1646129e-09
2.8467764e-09
6.6207175e-09
1.4786457e-08
3.1935895e-08
6.7065576e-08
1.3751875e-07
2.7625799e-07
5.4514232e-07
1.0589301e-06
2.0282788e-06
3.8361383e-06
7.1724458e-06
1.3269885e-05
2.4312825e-05
4.4135494e-05
7.9373277e-05
0.00014121143
0.00024752921
0.00042395567
0.00069972126
0.0010931345
0.0015906927
0.0021411161
0.0026796472
0.0031625128
0.003581423
0.0039561102
0.0043083487
0.0046621996
0.005029883
0.0054249119
0.0058645525
0.0063595549
0.0069068258
0.0075119703
0.008172743
0.0086956912
0.0090251711
0.0094403586
0.0099729627
0.010627006
0.011422534
0.012364452
0.013530113
0.015073067
0.015394983
0.015122904
0.014121259
0.012202369
0.0079185986
0.0027954212
0.0010981293
0.00064417561
0.00047388684
0.00046559066
8.2051267e-18
1.5957869e-15
4.2504471e-14
4.3091435e-13
2.6061474e-12
1.1547391e-11
4.1701028e-11
1.3050544e-10
3.677112e-10
9.5660684e-10
2.3382405e-09
5.4377288e-09
1.2143478e-08
2.6224697e-08
5.5063549e-08
1.1288424e-07
2.2670323e-07
4.4717453e-07
8.681547e-07
1.6616574e-06
3.1397493e-06
5.8632818e-06
1.0831535e-05
1.9810475e-05
3.5894365e-05
6.4443402e-05
0.00011456216
0.00020112339
0.00034655936
0.00057959566
0.00092571949
0.0013878008
0.0019307299
0.002492167
0.0030160618
0.003478439
0.0038852945
0.0042635123
0.0046343044
0.0050148962
0.0054217885
0.0058705212
0.0063686798
0.0069186578
0.0075257059
0.0081877222
0.0088848753
0.009173052
0.0095342713
0.010007221
0.010587013
0.011283601
0.012108143
0.013257675
0.014489407
0.014413584
0.013737672
0.012287408
0.0095019971
0.0042727055
0.0014273574
0.00070344244
0.0004895662
0.0004296813
0.00047565038
6.5467418e-18
1.2732529e-15
3.3913603e-14
3.4381854e-13
2.0793907e-12
9.2133825e-12
3.3272003e-11
1.0412525e-10
2.9337773e-10
7.6320866e-10
1.8654511e-09
4.338011e-09
9.6869195e-09
2.0917521e-08
4.3914094e-08
9.0009721e-08
1.807164e-07
3.5633312e-07
6.9144171e-07
1.3225133e-06
2.4966177e-06
4.656627e-06
8.5891561e-06
1.5679699e-05
2.8348926e-05
5.0786676e-05
9.0140766e-05
0.0001582735
0.00027379543
0.00046274558
0.00075381616
0.0011636445
0.0016772025
0.00224368
0.0028006015
0.0033064061
0.0037516567
0.0041564821
0.0045441167
0.0049342983
0.0053462297
0.0057972112
0.0062934015
0.0068384274
0.0074366269
0.0080853242
0.008760261
0.0091073262
0.0093905508
0.0097720917
0.010246582
0.010818968
0.01158436
0.012756725
0.013228664
0.012850668
0.011665494
0.0096435503
0.00555378
0.001882142
0.00073424356
0.00047215481
0.00039710581
0.00042096244
0.0005121251
5.0614371e-18
9.8438071e-16
2.6219341e-14
2.658129e-13
1.6076127e-12
7.1229903e-12
2.5722844e-11
8.0499158e-11
2.2680654e-10
5.9001363e-10
1.4420793e-09
3.3533376e-09
7.4876693e-09
1.6167236e-08
3.3937556e-08
6.9550141e-08
1.3960825e-07
2.7519232e-07
5.337631e-07
1.0203089e-06
1.9245201e-06
3.5855138e-06
6.6036143e-06
1.2032129e-05
2.1704287e-05
3.878493e-05
6.8679844e-05
0.00012045111
0.00020872779
0.0003553734
0.00058832546
0.00093289928
0.0013938691
0.0019403926
0.0025140585
0.0030593633
0.0035492481
0.0039834004
0.004391926
0.004792613
0.005205822
0.0056488855
0.0061311749
0.0066569559
0.0072294683
0.0078464421
0.0084801593
0.008811256
0.0090007125
0.0092753551
0.0096324306
0.010115096
0.010928097
0.01177217
0.01154964
0.010672541
0.0090212117
0.0059345368
0.0022557266
0.00078418944
0.00042688068
0.00035026033
0.00037552089
0.00045085204
0.0005470373
3.7834802e-18
7.3583507e-16
1.9599209e-14
1.9869717e-13
1.2016984e-12
5.3244427e-12
1.9227706e-11
6.01721e-11
1.6953252e-10
4.4101252e-10
1.0778707e-09
2.5063396e-09
5.5961552e-09
1.2082395e-08
2.5360811e-08
5.1967653e-08
1.0429889e-07
2.0554642e-07
3.9855156e-07
7.6149504e-07
1.4353802e-06
2.671653e-06
4.9139468e-06
8.9373938e-06
1.6084759e-05
2.8664275e-05
5.061126e-05
8.8552371e-05
0.00015338199
0.00026214874
0.00043899058
0.00071178114
0.0011002381
0.0015971732
0.0021607205
0.0027314996
0.00326328
0.0037397835
0.0041688118
0.0045835674
0.0049981329
0.0054294944
0.0058898642
0.0063868365
0.006919723
0.0074892495
0.008064462
0.008309423
0.008398666
0.0085592904
0.008821525
0.0093377548
0.010206951
0.010085391
0.0093911501
0.0080068086
0.0055818126
0.0023587425
0.00081957231
0.00036544311
0.00029855134
0.00032024676
0.00038667812
0.0004769912
0.00057894387
2.7299589e-18
5.309395e-16
1.4141735e-14
1.4336885e-13
8.670757e-13
3.8417873e-12
1.3873413e-11
4.3415677e-11
1.2232034e-10
3.181921e-10
7.7767186e-10
1.8082528e-09
4.0373516e-09
8.7165603e-09
1.8295208e-08
3.748732e-08
7.523145e-08
1.48246e-07
2.8739852e-07
5.4897144e-07
1.0343349e-06
1.9238775e-06
3.5348845e-06
6.4194046e-06
1.1528769e-05
2.0489093e-05
3.6059949e-05
6.288533e-05
0.00010866911
0.00018582031
0.00031314604
0.00051586173
0.0008202025
0.0012394177
0.0017569867
0.0023253079
0.0028879277
0.003407797
0.003872373
0.0042975397
0.0047154168
0.0051370144
0.0055711996
0.0060308094
0.0065126064
0.0070186077
0.0075202557
0.0076238194
0.0076240125
0.00770355
0.007987025
0.0085992744
0.0086376585
0.0080152827
0.0068428569
0.0048516719
0.0021357379
0.00076862984
0.00030740166
0.00023520464
0.00025938208
0.00033417021
0.00042972349
0.00052007557
0.00061706049
1.8993464e-18
3.6939685e-16
9.8389903e-15
9.9747397e-14
6.0325659e-13
2.6728584e-12
9.6521195e-12
3.0205203e-11
8.5099854e-11
2.2136741e-10
5.4102134e-10
1.257972e-09
2.8086855e-09
6.0638468e-09
1.2727404e-08
2.6078938e-08
5.2337286e-08
1.0313395e-07
1.9994191e-07
3.8190003e-07
7.1944632e-07
1.3377466e-06
2.4564125e-06
4.4561031e-06
7.9893344e-06
1.4164123e-05
2.4847759e-05
4.3166405e-05
7.4309631e-05
0.00012675393
0.00021387684
0.00035535179
0.00057630614
0.00090047014
0.0013356525
0.0018592957
0.0024225457
0.0029735529
0.0034813558
0.0039335007
0.0043509958
0.0047600564
0.0051725323
0.0055863246
0.0060125626
0.0064407039
0.0068517082
0.0067968227
0.0067642498
0.006873273
0.0072708501
0.0072808322
0.0066939191
0.0056373429
0.0039515351
0.001732542
0.00067765109
0.00026828521
0.00018062026
0.00020775712
0.0002849129
0.00037814098
0.00046124045
0.00054241636
0.00064490727
1.2740787e-18
2.4779085e-16
6.5999726e-15
6.6910166e-14
4.0466058e-13
1.792926e-12
6.4744961e-12
2.0261018e-11
5.708263e-11
1.4848562e-10
3.6289524e-10
8.437926e-10
1.8839485e-09
4.0674384e-09
8.537447e-09
1.7494664e-08
3.5113196e-08
6.9202759e-08
1.3418636e-07
2.5636166e-07
4.8306068e-07
8.9834492e-07
1.6494827e-06
2.9909526e-06
5.3568191e-06
9.479502e-06
1.6582797e-05
2.8697701e-05
4.917486e-05
8.3495541e-05
0.00014046998
0.00023373311
0.00038281695
0.00061168698
0.00094137593
0.0013763021
0.0018916339
0.0024400937
0.0029743814
0.0034647358
0.0039004365
0.0042993828
0.0046762815
0.0050458384
0.0054045114
0.0057515419
0.005969374
0.0059255515
0.0059593432
0.0062107947
0.0060349814
0.005457972
0.0044930935
0.0030230431
0.0012927843
0.00053445499
0.00022532995
0.00013821397
0.00016535725
0.00023896274
0.00033506281
0.00042289003
0.00050388999
0.0005797211
0.00068281038
8.2476617e-19
1.604056e-16
4.2724378e-15
4.3313651e-14
2.6195211e-13
1.1606226e-12
4.191136e-12
1.3115464e-11
3.6950713e-11
9.611697e-11
2.3490655e-10
5.4619872e-10
1.219524e-09
2.6330381e-09
5.5270317e-09
1.1327025e-08
2.2738002e-08
4.4823913e-08
8.6943865e-08
1.6617758e-07
3.132957e-07
5.829966e-07
1.0711538e-06
1.943355e-06
3.4812858e-06
6.1568095e-06
1.0750569e-05
1.8542262e-05
3.1624147e-05
5.3388133e-05
8.929107e-05
0.00014794733
0.00024241714
0.00039095993
0.00061536028
0.00093418284
0.0013500951
0.0018402865
0.0023609008
0.0028694785
0.0033314092
0.0037371776
0.0040925244
0.004409153
0.0046930862
0.0049385866
0.0050794037
0.0051256276
0.0051079413
0.0048546846
0.0043104577
0.0034517991
0.0021831494
0.00089752488
0.00038751908
0.00017305642
0.00010745766
0.00013560214
0.00020211708
0.00029538497
0.0003790547
0.00044496323
0.00051899592
0.00060644139
0.00071972355
5.1636258e-19
1.0042534e-16
2.6748479e-15
2.7117353e-14
1.6399964e-13
7.2662444e-13
2.6239063e-12
8.2110277e-12
2.313311e-11
6.0174067e-11
1.4706333e-10
3.4195085e-10
7.6350798e-10
1.6485461e-09
3.4607694e-09
7.0934386e-09
1.4242507e-08
2.8085462e-08
5.4501151e-08
1.0423266e-07
1.9666604e-07
3.6632317e-07
6.7381394e-07
1.2239457e-06
2.1950683e-06
3.8857493e-06
6.7879303e-06
1.1699846e-05
1.9896639e-05
3.3405986e-05
5.5460367e-05
9.116963e-05
0.00014841145
0.00023883581
0.00037831561
0.00058538018
0.00087549564
0.0012512185
0.0016930916
0.0021641326
0.0026254364
0.0030372192
0.0033872043
0.003670761
0.003882128
0.004015575
0.0040550518
0.0039810633
0.0037517648
0.0032574762
0.0025114124
0.0014427217
0.00057999838
0.00026316823
0.00012541193
8.257927e-05
0.00011102092
0.00017170533
0.00026109089
0.00029680097
0.00032206335
0.00038021506
0.00045214791
0.00062405715
0.00075127768
3.1383499e-19
6.1036555e-17
1.6257194e-15
1.6481365e-14
9.9675328e-14
4.4162465e-13
1.5947401e-12
4.9904229e-12
1.4059582e-11
3.6571877e-11
8.938075e-11
2.0783041e-10
4.6405757e-10
1.0020367e-09
2.1037638e-09
4.3126975e-09
8.6613176e-09
1.7085851e-08
3.3173277e-08
6.3489904e-08
1.1991109e-07
2.2364063e-07
4.1201638e-07
7.4979041e-07
1.3473962e-06
2.389846e-06
4.1815028e-06
7.2143706e-06
1.2271385e-05
2.0581683e-05
3.4037653e-05
5.5525356e-05
8.9452953e-05
0.00014255166
0.00022437619
0.00034745062
0.00052580916
0.00077069193
0.0010831352
0.0014478743
0.0018340229
0.0022064317
0.0025297438
0.0027709009
0.0029175819
0.0029349234
0.0028698805
0.0026806952
0.0022769968
0.0016687274
0.00084750513
0.00034859096
0.00016811089
8.6813355e-05
6.3160803e-05
9.0833644e-05
0.00014798166
0.00023100974
0.00021486468
0.00023004502
0.00026501054
0.00032407795
0.00041219973
0.00057470213
0.00074801724
1.8634609e-19
3.6241724e-17
9.6530405e-16
9.7861368e-15
5.9184108e-14
2.6222254e-13
9.46904e-13
2.9631448e-12
8.3481048e-12
2.1715202e-11
5.3071822e-11
1.2340608e-10
2.7555845e-10
5.950467e-10
1.2494167e-09
2.5617004e-09
5.14601e-09
1.0155126e-08
1.9727636e-08
3.7786058e-08
7.1442916e-08
1.3344045e-07
2.4630784e-07
4.4929338e-07
8.0963187e-07
1.4403314e-06
2.5273645e-06
4.369765e-06
7.4412263e-06
1.2480979e-05
2.0628249e-05
3.3610654e-05
5.3934429e-05
8.5165011e-05
0.00013232213
0.0002025827
0.00030457891
0.00044704752
0.00063551483
0.00086753269
0.0011285279
0.0013922864
0.0016250581
0.0017957737
0.0018639353
0.0018412902
0.0017090263
0.0014285811
0.00097136465
0.0004578746
0.00020306574
0.00010288308
5.8467969e-05
4.8700342e-05
7.5640724e-05
0.00012901544
0.00020331501
0.00015553207
0.00016684227
0.00019037925
0.00022457725
0.00027764868
0.00034498073
0.00049059062
0.00066711189
1.0951566e-19
2.1299264e-17
5.6730888e-16
5.7513101e-15
3.4782514e-14
1.5410857e-13
5.5649894e-13
1.7414611e-12
4.9062829e-12
1.2762454e-11
3.1191977e-11
7.2531814e-11
1.6196667e-10
3.4977913e-10
7.3451048e-10
1.5062332e-09
3.0265297e-09
5.9748045e-09
1.1613241e-08
2.2261538e-08
4.2137587e-08
7.8826051e-08
1.4580186e-07
2.6667868e-07
4.8218016e-07
8.6121638e-07
1.5177868e-06
2.636206e-06
4.5062156e-06
7.5724772e-06
1.2504857e-05
2.0303336e-05
3.246616e-05
5.1136503e-05
7.9249448e-05
0.00012021714
0.00017828076
0.00025804385
0.00036333361
0.00049391383
0.0006429036
0.0007945096
0.00092855879
0.0010112573
0.0010344744
0.00096938284
0.00078876148
0.00048769198
0.00022759904
0.00011404215
6.2071788e-05
3.9447403e-05
3.8643189e-05
6.4715694e-05
0.00011500006
0.00014477376
0.00011794866
0.00012808456
0.0001433188
0.00016347083
0.00019277947
0.0002438496
0.00032345661
0.00046702839
0.00063845322
6.5433066e-20
1.2725818e-17
3.3895417e-16
3.4362862e-15
2.0781927e-14
9.2077936e-14
3.3250571e-13
1.0405354e-12
2.9316145e-12
7.6261201e-12
1.8639444e-11
4.334581e-11
9.6802027e-11
2.0907813e-10
4.3912693e-10
9.0072136e-10
1.8104605e-09
3.5757623e-09
6.9546411e-09
1.334306e-08
2.5286516e-08
4.7380443e-08
8.7832203e-08
1.6112387e-07
2.9244955e-07
5.2489586e-07
9.3064027e-07
1.6276075e-06
2.802774e-06
4.7418404e-06
7.8649807e-06
1.2770747e-05
2.0298814e-05
3.161683e-05
4.8406877e-05
7.2875682e-05
0.00010753867
0.00015438185
0.00021423548
0.00028607886
0.00036572517
0.00044385855
0.00050620884
0.00052642576
0.00049739504
0.00038327345
0.00022432252
0.00011077715
6.1744796e-05
3.7130398e-05
2.722961e-05
3.2068758e-05
5.7096476e-05
0.00010448054
0.00010919364
9.6863974e-05
0.00010641075
0.0001150788
0.00012719151
0.00014524569
0.00017568488
0.00022275622
0.00028619377
0.00041153702
0.00059093262
4.1660205e-20
8.1023349e-18
2.158076e-16
2.1878538e-15
1.3231862e-14
5.8627399e-14
2.117184e-13
6.6257651e-13
1.8668609e-12
4.8567102e-12
1.1871732e-11
2.7610995e-11
6.1671876e-11
1.3322863e-10
2.7989181e-10
5.7429904e-10
1.1548734e-09
2.2823295e-09
4.4426012e-09
8.5327614e-09
1.619379e-08
3.0400074e-08
5.6492054e-08
1.0395913e-07
1.8945965e-07
3.4180068e-07
6.0986989e-07
1.0745908e-06
1.8656262e-06
3.1825726e-06
5.3186761e-06
8.683572e-06
1.3822828e-05
2.1438972e-05
3.237402e-05
4.7701513e-05
6.8640938e-05
9.6625389e-05
0.00013205116
0.00017327859
0.00021495423
0.00024843681
0.00025695326
0.00023373059
0.00016492411
9.4583112e-05
5.2474812e-05
3.2857094e-05
2.2530174e-05
1.9414224e-05
2.7891119e-05
5.1743825e-05
9.6198837e-05
8.9479601e-05
8.6319102e-05
9.3997428e-05
9.9147542e-05
0.00010627061
0.00011737851
0.00013533111
0.00016210789
0.00020648326
0.00027554434
0.00039974837
0.00056846728
2.9534186e-20
5.7439977e-18
1.5299343e-16
1.5510632e-15
9.3808426e-15
4.1565892e-14
1.5011286e-13
4.6981513e-13
1.3238707e-12
3.444546e-12
8.4212574e-12
1.9590204e-11
4.3768753e-11
9.4586048e-11
1.9879804e-10
4.0813126e-10
8.2128486e-10
1.6244653e-09
3.1654728e-09
6.0881186e-09
1.1574295e-08
2.1776374e-08
4.0582288e-08
7.4952107e-08
1.3721181e-07
2.4890119e-07
4.4701145e-07
7.9357225e-07
1.3892493e-06
2.390347e-06
4.0258652e-06
6.6082532e-06
1.053155e-05
1.625581e-05
2.4278966e-05
3.5107382e-05
4.9164136e-05
6.6528587e-05
8.6325981e-05
0.000105458
0.00011857143
0.00011558336
9.670061e-05
6.4309331e-05
3.8162828e-05
2.4627283e-05
1.7276519e-05
1.4183374e-05
1.4899239e-05
2.4803896e-05
4.7925898e-05
8.9545204e-05
7.9754843e-05
8.1851481e-05
8.8223425e-05
9.1262863e-05
9.6240437e-05
0.00010325522
0.00011402405
0.00013131544
0.00015803009
0.00019994998
0.00026165837
0.00038097223
0.00056012349
2.3162058e-20
4.5047099e-18
1.1998518e-16
1.2164375e-15
7.3571891e-15
3.260038e-14
1.1774062e-13
3.685257e-13
1.038558e-12
2.7025697e-12
6.6084686e-12
1.5376799e-11
3.4365619e-11
7.4294581e-11
1.5622766e-10
3.2093538e-10
6.4632708e-10
1.2796525e-09
2.4965736e-09
4.8088033e-09
9.158965e-09
1.7270904e-08
3.2274253e-08
5.9805791e-08
1.099242e-07
2.0036618e-07
3.6190177e-07
6.4664195e-07
1.1399157e-06
1.9744235e-06
3.3417014e-06
5.4905008e-06
8.6991611e-06
1.3218032e-05
1.9191531e-05
2.6568605e-05
3.4997059e-05
4.3454121e-05
4.9964087e-05
5.1620881e-05
4.5953232e-05
3.4751589e-05
2.3525482e-05
1.5449966e-05
1.1601492e-05
9.8113586e-06
9.3040488e-06
1.2058521e-05
2.2679965e-05
4.4990489e-05
8.4583871e-05
7.9302425e-05
8.1370269e-05
8.7030553e-05
8.8820992e-05
9.2715729e-05
9.7530482e-05
0.000104342
0.00011507508
0.00013114998
0.00015447303
0.00019471688
0.00025528954
0.00036970546
0.00054902098
1.8563614e-20
3.6103767e-18
9.6164484e-17
9.7494465e-16
5.896671e-15
2.6129124e-14
9.4371181e-14
2.9539074e-13
8.3249734e-13
2.1665119e-12
5.2982047e-12
1.2329688e-11
2.7560457e-11
5.9595985e-11
1.2535478e-10
2.5760444e-10
5.1900853e-10
1.028105e-09
2.0070134e-09
3.8684664e-09
7.3735435e-09
1.391554e-08
2.6026644e-08
4.8272626e-08
8.8808543e-08
1.6202034e-07
2.9284331e-07
5.2339042e-07
9.2171313e-07
1.5911498e-06
2.6727924e-06
4.3281453e-06
6.6855524e-06
9.7480186e-06
1.3280041e-05
1.6778784e-05
1.961589e-05
2.0816222e-05
1.9485258e-05
1.5969886e-05
1.1802716e-05
8.515127e-06
6.6599641e-06
5.8454109e-06
5.7604926e-06
6.9341671e-06
1.0278053e-05
2.1024599e-05
4.3595783e-05
8.1355726e-05
8.45937e-05
8.4577223e-05
8.8192823e-05
9.0068842e-05
9.2942816e-05
9.6069828e-05
0.00010050573
0.00010779756
0.00011778915
0.00013316708
0.00015643492
0.00019523146
0.00025531339
0.0003723854
0.00055451223
1.3659102e-20
2.6565135e-18
7.0757679e-17
7.1735905e-16
4.3386875e-15
1.9225052e-14
6.9433523e-14
2.1732469e-13
6.1245167e-13
1.5937491e-12
3.8971645e-12
9.0682165e-12
2.0267071e-11
4.3816364e-11
9.2139984e-11
1.8928331e-10
3.8118573e-10
7.5463627e-10
1.4719789e-09
2.8341678e-09
5.3944217e-09
1.0161242e-08
1.8957088e-08
3.5042807e-08
6.4182026e-08
1.1639822e-07
2.0872803e-07
3.6915295e-07
6.4118353e-07
1.0863658e-06
1.7783822e-06
2.7781977e-06
4.0807124e-06
5.5431813e-06
6.8584243e-06
7.6729181e-06
7.6263983e-06
6.6940032e-06
5.3589707e-06
4.2491841e-06
3.4784971e-06
3.0990338e-06
3.3405352e-06
3.9027349e-06
5.3888444e-06
9.4716143e-06
2.103693e-05
4.2864826e-05
7.7552976e-05
9.4613364e-05
9.1896998e-05
9.2863737e-05
9.3535008e-05
9.5168686e-05
9.6400876e-05
9.9332154e-05
0.00010464092
0.00011204295
0.00012220654
0.00013770572
0.00015948757
0.00019710368
0.00025323114
0.00036659492
0.00055356913
8.6934641e-21
1.690761e-18
4.503409e-17
4.565598e-16
2.7612522e-15
1.2234699e-14
4.4183728e-14
1.3827908e-13
3.8963416e-13
1.0137291e-12
2.4782246e-12
5.7646e-12
1.2878016e-11
2.7825769e-11
5.8470516e-11
1.2000024e-10
2.4135815e-10
4.7704191e-10
9.285497e-10
1.7829756e-09
3.3817131e-09
6.3411896e-09
1.1761626e-08
2.1580216e-08
3.9150194e-08
7.0145293e-08
1.2386053e-07
2.1479988e-07
3.6386211e-07
5.9718947e-07
9.3863408e-07
1.3902246e-06
1.9030136e-06
2.3579655e-06
2.6054438e-06
2.5526458e-06
2.2923313e-06
1.9845632e-06
1.7366976e-06
1.6593985e-06
1.8037892e-06
2.1453736e-06
2.9752541e-06
4.7689646e-06
9.6926027e-06
2.0614722e-05
4.0967498e-05
7.3718051e-05
0.00011298613
0.00010424574
0.00010187428
9.9532811e-05
9.8776908e-05
9.8475636e-05
9.997054e-05
0.00010386288
0.00010913304
0.00011697541
0.00012744094
0.00014293945
0.00016420829
0.00020174638
0.00025942585
0.00037651584
0.00056327032
4.7238298e-21
9.1871959e-19
2.4470263e-17
2.4807627e-16
1.5002891e-15
6.6470922e-15
2.4002442e-14
7.5107897e-14
2.115916e-13
5.5035804e-13
1.344953e-12
3.1270049e-12
6.9813071e-12
1.5072318e-11
3.1637894e-11
6.4841384e-11
1.3018287e-10
2.5670936e-10
4.9818516e-10
9.5292084e-10
1.7984384e-09
3.3509464e-09
6.1649196e-09
1.1194296e-08
2.0040688e-08
3.5305344e-08
6.1015523e-08
1.0296143e-07
1.6847305e-07
2.6467928e-07
3.9391418e-07
5.4603316e-07
6.9212838e-07
7.9232829e-07
8.3212955e-07
8.4209346e-07
8.444405e-07
8.6909735e-07
9.2725696e-07
1.1957893e-06
1.6810624e-06
2.6669941e-06
4.7471176e-06
9.6763967e-06
1.9775064e-05
3.929208e-05
6.9836698e-05
0.00010859253
0.00012430644
0.00011574389
0.00010895831
0.00010487257
0.00010234975
0.00010226774
0.00010419246
0.00010773818
0.00011352163
0.00012206071
0.0001328871
0.00014898788
0.00017044259
0.00020788729
0.0002621916
0.00037909499
0.00056855835
2.2503241e-21
4.3765612e-19
1.1656937e-17
1.1817345e-16
7.146418e-16
3.1659984e-15
1.1430977e-14
3.576363e-14
1.007294e-13
2.619217e-13
6.398217e-13
1.4867964e-12
3.3171166e-12
7.1550944e-12
1.5001656e-11
3.0699616e-11
6.1516989e-11
1.2100484e-10
2.3408015e-10
4.4591556e-10
8.3717721e-10
1.5494856e-09
2.8265315e-09
5.0773248e-09
8.96647e-09
1.552691e-08
2.6263607e-08
4.3158655e-08
6.8394955e-08
1.0354866e-07
1.4818729e-07
1.9860513e-07
2.508419e-07
3.0434015e-07
3.567866e-07
4.1849814e-07
5.1567087e-07
6.6194844e-07
9.8202903e-07
1.5485057e-06
2.5742398e-06
4.6125398e-06
9.1068774e-06
1.8457877e-05
3.7153692e-05
6.5700866e-05
0.00010096476
0.00013773433
0.00013673237
0.00012284141
0.00011434122
0.00010858883
0.00010611191
0.00010603702
0.00010773083
0.00011210541
0.00011831532
0.0001272613
0.00013883218
0.00015577328
0.00017713509
0.00021452893
0.0002702441
0.00039293801
0.00058097973
1.0498144e-21
2.0417368e-19
5.4381075e-18
5.5128217e-17
3.3336814e-16
1.4767836e-15
5.3314665e-15
1.6678092e-14
4.6965993e-14
1.2209512e-13
2.9816535e-13
6.9260642e-13
1.544507e-12
3.3295532e-12
6.9756744e-12
1.4261863e-11
2.8545422e-11
5.6068951e-11
1.082724e-10
2.0581002e-10
3.8538029e-10
7.1102937e-10
1.2922073e-09
2.3112408e-09
4.0622774e-09
7.0005531e-09
1.1792987e-08
1.9333957e-08
3.0726458e-08
4.7213079e-08
7.0198167e-08
1.0134956e-07
1.4253842e-07
1.9734458e-07
2.7544481e-07
3.9370149e-07
5.7365904e-07
9.0933481e-07
1.4555341e-06
2.4254059e-06
4.3286402e-06
8.4366432e-06
1.732214e-05
3.5116126e-05
6.1533205e-05
9.3323132e-05
0.00012694175
0.0001623568
0.00014199193
0.00012734812
0.00011728274
0.00011186125
0.00010934824
0.00010924678
0.00011163133
0.00011600207
0.00012252706
0.00013238486
0.00014454469
0.00016225989
0.00018429344
0.0002232013
0.00027737148
0.00039972461
0.00058740317
6.568885e-22
1.2775538e-19
3.4027361e-18
3.4494952e-17
2.085962e-16
9.2406109e-16
3.3360717e-15
1.0436309e-14
2.9390552e-14
7.6412491e-14
1.8663435e-13
4.3363755e-13
9.6736103e-13
2.0864836e-12
4.3746521e-12
8.953535e-12