/*--------------------------------*- C++ -*----------------------------------*\
  =========                 |
  \\      /  F ield         | OpenFOAM: The Open Source CFD Toolbox
   \\    /   O peration     | Website:  https://openfoam.org
    \\  /    A nd           | Version:  13
     \\/     M anipulation  |
\*---------------------------------------------------------------------------*/
FoamFile
{
    format      ascii;
    class       surfaceScalarField;
    location    "49.702864";
    object      phi;
}
// * * * * * * * * * * * * * * * * * * * * * * * * * * * * * * * * * * * * * //

dimensions      [0 3 -1 0 0 0 0];

internalField   nonuniform List<scalar> 
34068
(
-1.0857909e-08
1.1311846e-07
-1.0226055e-07
-4.833247e-08
3.9129211e-07
-3.5381755e-07
-1.213247e-07
7.6330053e-07
-6.903083e-07
-2.4106774e-07
1.2535117e-06
-1.1337687e-06
-4.216773e-07
1.8919156e-06
-1.711306e-06
-6.8081706e-07
2.7153165e-06
-2.4561767e-06
-1.0405091e-06
3.7687337e-06
-3.4090417e-06
-1.5281051e-06
5.1070478e-06
-4.6194518e-06
-2.1774556e-06
6.796924e-06
-6.1475735e-06
-3.030308e-06
8.9190463e-06
-8.066194e-06
-4.1379605e-06
1.1570668e-05
-1.0463016e-05
-5.5632143e-06
1.4868517e-05
-1.3443263e-05
-7.3826553e-06
1.8952017e-05
-1.7132576e-05
-9.6892809e-06
2.3986831e-05
-2.1680206e-05
-1.2595522e-05
3.0168607e-05
-2.7262366e-05
-1.6236608e-05
3.7726808e-05
-3.4085722e-05
-2.0774305e-05
4.6928379e-05
-4.2390682e-05
-2.6400901e-05
5.8080876e-05
-5.245428e-05
-3.3343343e-05
7.1534467e-05
-6.4592025e-05
-4.1867255e-05
8.7682045e-05
-7.9158133e-05
-5.2280508e-05
0.00010695625
-9.6543e-05
-6.4935844e-05
0.00012982202
-0.00011716669
-8.0231691e-05
0.0001567626
-0.00014146676
-9.8610287e-05
0.0001882572
-0.0001698786
-0.00012055163
0.00022474805
-0.00020280671
-0.00014656158
0.00026659638
-0.00024058643
-0.00017715245
0.00031402968
-0.00028343881
-0.00021281455
0.00036709016
-0.00033142807
-0.0002539798
0.00042560831
-0.00038444307
-0.0003009833
0.00048924483
-0.00044224133
-0.00035403791
0.00055765638
-0.00050460178
-0.00041324472
0.00063080174
-0.00057159493
-0.00047865473
0.00070928125
-0.00064387123
-0.00055036532
0.00079449106
-0.00072278047
-0.0006286048
0.00088849092
-0.00081025144
-0.00071377317
0.00099376925
-0.00090860088
-0.000806447
0.0011131566
-0.0010204828
-0.00090737661
0.0012499611
-0.0011490314
-0.0010174976
0.001408272
-0.001298151
-0.0011379694
0.0015933884
-0.0014729166
-0.0012702482
0.0018123752
-0.0016800964
-0.0014162058
0.0020747955
-0.0019288379
-0.0015783041
0.0023936461
-0.0022315478
-0.0017598273
0.0027862283
-0.002604705
-0.0019652076
0.0032751401
-0.0030697598
-0.0022004619
0.0038899656
-0.0036547113
-0.0024737953
0.0046686638
-0.0043953303
-0.0027964251
0.0056582836
-0.0053356538
-0.0031838308
0.0069150737
-0.006527668
-0.003657669
0.0085012351
-0.0080273969
-0.0042485039
0.010472729
-0.0098818939
-0.0049988588
0.0128452
-0.012094845
-0.0059655822
0.015517256
-0.014550533
-0.0072195217
0.018114988
-0.016861048
-0.0088357041
0.019738248
-0.018122066
-0.010828875
0.01829597
-0.016302799
-0.012818613
0.0095283019
-0.007538564
-0.013038081
-0.014787579
0.015007047
-0.0091919623
-0.059351162
0.055505043
-0.0029042581
-0.1072208
0.1009331
0.0021037252
-0.13715948
0.1321515
0.0080809094
-0.13822212
0.13224493
0.023168446
-0.078239171
0.063151634
0.044968395
0.046700927
-0.068500876
0.15474363
0.062944037
-0.17271927
-1.0249925e-08
1.2336838e-07
-4.5631025e-08
4.2667321e-07
-1.145545e-07
8.3222401e-07
-2.2763787e-07
1.3665951e-06
-3.9822272e-07
2.0625004e-06
-6.43007e-07
2.9601008e-06
-9.828097e-07
4.1085364e-06
-1.4434937e-06
5.5677318e-06
-2.0570791e-06
7.4105094e-06
-2.8630687e-06
9.7250359e-06
-3.9100347e-06
1.2617634e-05
-5.257478e-06
1.621596e-05
-6.97803e-06
2.0672569e-05
-9.159984e-06
2.6168785e-05
-1.1910221e-05
3.2918845e-05
-1.5357522e-05
4.1174109e-05
-1.9656225e-05
5.1227083e-05
-2.4990204e-05
6.3414855e-05
-3.1577052e-05
7.8121315e-05
-3.9672218e-05
9.5777212e-05
-4.9572828e-05
0.00011685686
-6.1620612e-05
0.00014186981
-7.6203325e-05
0.00017134532
-9.3753486e-05
0.00020580736
-0.00011474316
0.00024573773
-0.00013967298
0.0002915262
-0.00016905341
0.00034341011
-0.00020337669
0.00040141344
-0.00024307954
0.00046531117
-0.00028850186
0.00053466714
-0.00033985509
0.00060900962
-0.00039722389
0.00068817053
-0.00046061975
0.00077267711
-0.00053007551
0.00086394682
-0.00060573443
0.00096414983
-0.00068789467
0.0010759295
-0.0007770116
0.0012022735
-0.00087368587
0.0013466353
-0.00097866121
0.0015132474
-0.0010928443
0.0017075715
-0.0012173543
0.0019368852
-0.0013536086
0.0022110498
-0.0015034535
0.0025434911
-0.0016693497
0.0029521244
-0.001854634
0.0034604244
-0.0020638621
0.0040991936
-0.0023033025
0.0049081042
-0.0025816459
0.005936627
-0.0029111696
0.0072445974
-0.0033096449
0.0088997104
-0.003803143
0.010966227
-0.0044294508
0.013471508
-0.0052415159
0.016329322
-0.006307917
0.019181389
-0.0077170051
0.021147336
-0.0095004436
0.020079409
-0.011219483
0.011247342
-0.010761602
-0.01524546
-0.0057755841
-0.06433718
0.00080529489
-0.11380168
0.0045770606
-0.14093125
0.0077590908
-0.14140415
0.019020401
-0.089500481
0.039881895
0.025839433
0.13456352
0.060062004
-9.4650817e-09
1.3283346e-07
-4.2146199e-08
4.5935433e-07
-1.0582366e-07
8.9590146e-07
-2.1031978e-07
1.4710912e-06
-3.6797895e-07
2.2201596e-06
-5.9425479e-07
3.1863766e-06
-9.0841764e-07
4.4226993e-06
-1.3344203e-06
5.9937344e-06
-1.9019273e-06
7.9780164e-06
-2.6475652e-06
1.0470674e-05
-3.6164001e-06
1.3586469e-05
-4.8637063e-06
1.7463266e-05
-6.4570316e-06
2.2265894e-05
-8.4786331e-06
2.8190387e-05
-1.1028267e-05
3.5468479e-05
-1.4226394e-05
4.4372235e-05
-1.8217765e-05
5.5218453e-05
-2.3175369e-05
6.8372459e-05
-2.9304621e-05
8.4250568e-05
-3.6847662e-05
0.00010332025
-4.6087413e-05
0.00012609661
-5.7350979e-05
0.00015313337
-7.1011675e-05
0.00018500601
-8.7488641e-05
0.00022228433
-0.00010724276
0.00026549185
-0.0001307669
0.00031505034
-0.00015856842
0.00037121164
-0.00019114195
0.00043398697
-0.00022893161
0.00050310083
-0.00027228655
0.00057802208
-0.00032142204
0.0006581451
-0.00037640936
0.00074315785
-0.00043721823
0.00083348598
-0.00050380743
0.00093053602
-0.00057621908
0.0010365615
-0.00065462879
0.0011543392
-0.00073934646
0.0012869912
-0.00083079437
0.0014380832
-0.0009294886
0.0016119416
-0.0010360366
0.0018141195
-0.0011511571
0.0020520057
-0.0012757252
0.0023356178
-0.0014108481
0.002678614
-0.0015579862
0.0030992626
-0.0017191222
0.0036215603
-0.0018969682
0.0042770396
-0.002095281
0.005106417
-0.0023193412
0.0061606873
-0.0025768735
0.0075021297
-0.0028796948
0.0092025316
-0.0032460859
0.011332618
-0.0037037825
0.013929205
-0.0042933946
0.016918934
-0.0050647641
0.019952758
-0.0060985701
0.022181142
-0.0074051281
0.021385967
-0.0084426652
0.012284879
-0.0066259778
-0.017062148
3.3304036e-06
-0.070966488
0.0068087697
-0.12060712
0.0094938424
-0.14361632
0.010038762
-0.14194907
0.017261366
-0.096723085
0.036240636
0.0068601633
0.1129577
0.057846449
-8.5048161e-09
1.4133828e-07
-3.7883163e-08
4.8873267e-07
-9.5143908e-08
9.5316221e-07
-1.8913746e-07
1.5650848e-06
-3.3099032e-07
2.3620125e-06
-5.3463413e-07
3.3900204e-06
-8.1745491e-07
4.70552e-06
-1.2010699e-06
6.3773494e-06
-1.7122795e-06
8.489226e-06
-2.3842003e-06
1.1142595e-05
-3.2576361e-06
1.4459905e-05
-4.3827023e-06
1.8588332e-05
-5.8207636e-06
2.3703956e-05
-7.6467018e-06
3.0016325e-05
-9.9515712e-06
3.7773348e-05
-1.2845654e-05
4.7266318e-05
-1.6461941e-05
5.883474e-05
-2.096001e-05
7.2870527e-05
-2.6530238e-05
8.9820795e-05
-3.3398199e-05
0.00011018821
-4.1829051e-05
0.00013452747
-5.2131412e-05
0.00016343573
-6.4660125e-05
0.00019753473
-7.9816994e-05
0.0002374412
-9.8047986e-05
0.00028372284
-0.00011983521
0.00033683756
-0.00014568111
0.00039705753
-0.00017608256
0.00046438843
-0.00021149322
0.00053851149
-0.00025227593
0.00061880479
-0.0002986554
0.00070452457
-0.0003506939
0.00079519635
-0.00040831866
0.00089111075
-0.00047140606
0.00099362342
-0.00053988116
0.0011050366
-0.00061377594
0.001228234
-0.00069323011
0.0013664454
-0.00077845875
0.0015233119
-0.00086971479
0.0017031976
-0.00096726042
0.0019116652
-0.0010713518
0.002156097
-0.0011822353
0.0024465013
-0.0013001572
0.0027965359
-0.0014254031
0.0032245085
-0.0015583445
0.0037545017
-0.0016994691
0.0044181643
-0.0018494434
0.0052563913
-0.0020092477
0.0063204916
-0.0021806995
0.0076735815
-0.0023675877
0.0093894199
-0.0025769162
0.011541947
-0.0028202028
0.014172491
-0.0031172168
0.017215948
-0.0034774814
0.020313023
-0.0039311981
0.022634859
-0.0044224649
0.021877234
-0.004225171
0.012087585
-0.00041078603
-0.020876533
0.0076430099
-0.079020284
0.014838116
-0.12780223
0.016768616
-0.14554682
0.014889278
-0.14006973
0.018391169
-0.10022498
0.034577365
-0.0093260326
0.091014313
0.056520755
-7.3795392e-09
1.4871782e-07
-3.2884929e-08
5.1423806e-07
-8.2618355e-08
1.0028956e-06
-1.6428878e-07
1.6467552e-06
-2.8759198e-07
2.4853157e-06
-4.6467845e-07
3.5671069e-06
-7.1071835e-07
4.9515599e-06
-1.0445987e-06
6.7112298e-06
-1.4897554e-06
8.9343827e-06
-2.075199e-06
1.1728038e-05
-2.8367312e-06
1.5221437e-05
-3.818428e-06
1.9570029e-05
-5.0743866e-06
2.4959914e-05
-6.6708331e-06
3.1612771e-05
-8.688579e-06
3.9791094e-05
-1.1225914e-05
4.9803653e-05
-1.4401922e-05
6.2010748e-05
-1.8360265e-05
7.6828871e-05
-2.3273389e-05
9.4733919e-05
-2.9347043e-05
0.00011626187
-3.682493e-05
0.00014200535
-4.5993148e-05
0.00017260395
-5.7183798e-05
0.00020872537
-7.0776939e-05
0.00025103434
-8.7199448e-05
0.00030014535
-0.00010691898
0.00035655709
-0.00013043046
0.00042056901
-0.00015823217
0.00049219014
-0.0001907887
0.00057106802
-0.0002284806
0.0006564967
-0.00027154819
0.00074759215
-0.00032005064
0.0008436988
-0.00037387418
0.00094493429
-0.00043280627
0.0010525555
-0.00049663985
0.0011688702
-0.00056524216
0.0012968363
-0.00063855788
0.0014397611
-0.00071656633
0.0016013203
-0.00079922291
0.0017858542
-0.00088640069
0.0019988429
-0.00097783448
0.0022475308
-0.0010730611
0.0025417279
-0.0011713517
0.0028948265
-0.001271651
0.0033248078
-0.0013724787
0.0038553294
-0.0014717409
0.0045174265
-0.0015664751
0.0053511254
-0.0016525479
0.0064065644
-0.0017247265
0.0077457602
-0.0017771295
0.0094418228
-0.0018028919
0.011567709
-0.0017897708
0.01415937
-0.0017217443
0.017147921
-0.0015581222
0.020149401
-0.0012128498
0.022289586
-0.00053328114
0.021197665
0.0015141609
0.010040143
0.0075205673
-0.026882939
0.016423586
-0.087923303
0.024013715
-0.13539236
0.025786076
-0.14731918
0.02207186
-0.13635551
0.022358138
-0.10051125
0.035157791
-0.022125686
0.069683974
0.05648813
-6.1023581e-09
1.5482017e-07
-2.7209745e-08
5.3534545e-07
-6.8393333e-08
1.0440792e-06
-1.3606366e-07
1.7144255e-06
-2.3829207e-07
2.5875441e-06
-3.8520181e-07
3.7140166e-06
-5.894517e-07
5.1558098e-06
-8.6682003e-07
6.9885981e-06
-1.2369304e-06
9.3044931e-06
-1.7241231e-06
1.2215231e-05
-2.3585205e-06
1.5855835e-05
-3.1773215e-06
2.038883e-05
-4.2263674e-06
2.600896e-05
-5.5620151e-06
3.2948419e-05
-7.2533868e-06
4.1482466e-05
-9.3850371e-06
5.1935303e-05
-1.2060095e-05
6.4685806e-05
-1.5403895e-05
8.0172671e-05
-1.9568125e-05
9.8898149e-05
-2.4735447e-05
0.00012142919
-3.11244e-05
0.00014839431
-3.8994418e-05
0.00018047397
-4.8650351e-05
0.00021838131
-6.0445738e-05
0.00026282972
-7.4783591e-05
0.0003144832
-9.2112691e-05
0.00037388619
-0.00011291692
0.00044137323
-0.00013769392
0.00051696714
-0.00016691962
0.00060029372
-0.00020099575
0.00069057283
-0.0002401845
0.00078678091
-0.00028454945
0.00088806375
-0.00033394029
0.00099432513
-0.00038805178
0.001106667
-0.00044653128
0.0012273497
-0.00050906067
0.0013593657
-0.00057536496
0.0015060654
-0.00064516009
0.0016711155
-0.00071807174
0.0018587658
-0.00079354358
0.0020743148
-0.0008707362
0.0023247234
-0.00094840489
0.0026193966
-0.0010247453
0.0029711669
-0.0010972149
0.0033972774
-0.0011622706
0.0039203851
-0.0012149324
0.0045700883
-0.0012481622
0.0053843553
-0.0012521092
0.0064105114
-0.001213868
0.0077075189
-0.0011178083
0.0093457631
-0.00093917277
0.011389074
-0.00063371708
0.013853914
-0.00013352243
0.016647727
0.00066743076
0.019348447
0.0020059521
0.020951065
0.0041769748
0.019026642
0.0085161365
0.0057009812
0.016506445
-0.034873247
0.025938876
-0.097355734
0.03333469
-0.14278817
0.035446893
-0.14943138
0.031224527
-0.13213315
0.02889212
-0.098178847
0.038409184
-0.031642749
0.049147557
0.058945601
-4.6938317e-09
1.59514e-07
-2.0948951e-08
5.5160057e-07
-5.2696175e-08
1.0758264e-06
-1.0491159e-07
1.7666409e-06
-1.8386976e-07
2.6665022e-06
-2.974568e-07
3.8276036e-06
-4.5555325e-07
5.3139063e-06
-6.705093e-07
7.2035541e-06
-9.5772989e-07
9.5917137e-06
-1.336395e-06
1.2593896e-05
-1.8303457e-06
1.6349785e-05
-2.4691799e-06
2.1027664e-05
-3.2895745e-06
2.6829355e-05
-4.336936e-06
3.3995781e-05
-5.6673821e-06
4.2812912e-05
-7.3501548e-06
5.3618076e-05
-9.4705239e-06
6.6806175e-05
-1.2133234e-05
8.283538e-05
-1.5466526e-05
0.00010223144
-1.9626798e-05
0.00012558946
-2.480379e-05
0.0001535713
-3.1226054e-05
0.00018689623
-3.9166472e-05
0.00022632173
-4.8946982e-05
0.00027261023
-6.0941327e-05
0.00032647755
-7.5574189e-05
0.00038851905
-9.3313662e-05
0.00045911271
-0.00011465348
0.00053830696
-0.00014007979
0.00062572002
-0.00017001775
0.00072051079
-0.0002047578
0.00082152096
-0.00024437702
0.00092768297
-0.00028869621
0.0010386443
-0.00033731742
0.0011552882
-0.00038973157
0.0012797638
-0.00044541582
0.0014150499
-0.00050385172
0.0015645013
-0.00056446565
0.0017317294
-0.00062652438
0.0019208246
-0.0006890073
0.0021367977
-0.00075045613
0.0023861723
-0.00080878554
0.002677726
-0.00086103455
0.0030234159
-0.00090305629
0.0034392991
-0.00092907943
0.0039464082
-0.00093101087
0.0045720197
-0.00089741873
0.0053507632
-0.00081253541
0.006325628
-0.00065619135
0.0075511749
-0.00040066363
0.0090902354
4.8589183e-06
0.010983551
0.00064087484
0.013217899
0.0016316836
0.015656918
0.0031805972
0.017799534
0.0056433679
0.018488294
0.0094750839
0.015194926
0.016080817
-0.00090475236
0.025941123
-0.044733552
0.035907725
-0.10732234
0.042323321
-0.14920377
0.044607686
-0.15171575
0.041342425
-0.12886788
0.037780265
-0.094616686
0.044888825
-0.038751309
0.029210211
0.064826171
-3.1804545e-09
1.6269446e-07
-1.4218751e-08
5.6263886e-07
-3.581756e-08
1.0974252e-06
-7.1407457e-08
1.8022308e-06
-1.2532921e-07
2.720424e-06
-2.0305731e-07
3.9053317e-06
-3.1148048e-07
5.4223294e-06
-4.5925593e-07
7.3513296e-06
-6.5724393e-07
9.7897017e-06
-9.1906238e-07
1.2855714e-05
-1.2617772e-06
1.66925e-05
-1.7067634e-06
2.147265e-05
-2.2808017e-06
2.7403393e-05
-3.0174253e-06
3.4732404e-05
-3.9586333e-06
4.375412e-05
-5.1569879e-06
5.4816431e-05
-6.6782254e-06
6.8327412e-05
-8.6044609e-06
8.4761616e-05
-1.1038061e-05
0.00010466504
-1.4106221e-05
0.00012865762
-1.7966332e-05
0.00015743141
-2.2811968e-05
0.00019174187
-2.8879274e-05
0.00023238903
-3.6453119e-05
0.00028018408
-4.5872129e-05
0.00033589656
-5.7530628e-05
0.00040017755
-7.1874989e-05
0.00047345707
-8.9389932e-05
0.00055582191
-0.0001105689
0.00064689898
-0.00013586103
0.00074580293
-0.00016559051
0.00085125043
-0.00019985855
0.00096195101
-0.00023846847
0.0010772542
-0.00028093403
0.0011977538
-0.00032658258
0.0013254124
-0.00037466973
0.0014631371
-0.00042441126
0.0016142428
-0.00047491993
0.0017822381
-0.00052507821
0.0019709829
-0.00057337303
0.0021850925
-0.00061769321
0.0024304924
-0.00065506971
0.0027151025
-0.00068132745
0.0030496737
-0.00069063646
0.0034486081
-0.0006748911
0.0039306629
-0.0006227496
0.0045198782
-0.00051826165
0.0052462752
-0.00033974901
0.0061471154
-5.9870382e-05
0.0072712962
0.00036758057
0.0086627844
0.0010227339
0.010328398
0.0020258842
0.012214748
0.0035687583
0.014114044
0.0059605904
0.015407702
0.0095832189
0.014865666
0.015037465
0.0097406803
0.023862742
-0.0097300292
0.035548252
-0.056419063
0.045801219
-0.1175753
0.050761794
-0.15416434
0.052361816
-0.15331577
0.05091035
-0.12741642
0.048436697
-0.092143033
0.05451593
-0.044830543
0.0096089278
0.074117213
-1.5953492e-09
1.6428981e-07
-7.1677149e-09
5.6821123e-07
-1.8129829e-08
1.1083874e-06
-3.6290116e-08
1.8203911e-06
-6.3957018e-08
2.7480909e-06
-1.0407224e-07
3.945447e-06
-1.6038464e-07
5.4786418e-06
-2.3766694e-07
7.4286119e-06
-3.4200469e-07
9.8940394e-06
-4.8116314e-07
1.2994873e-05
-6.6506954e-07
1.6876407e-05
-9.0643796e-07
2.1714019e-05
-1.2215896e-06
2.7718545e-05
-1.6314945e-06
3.5142309e-05
-2.1631564e-06
4.4285782e-05
-2.8513744e-06
5.5504649e-05
-3.7410156e-06
6.9217054e-05
-4.8898713e-06
8.5910472e-05
-6.3723052e-06
0.00010614747
-8.283714e-06
0.00013056903
-1.0745921e-05
0.00015989362
-1.3913595e-05
0.00019490954
-1.7981403e-05
0.00023645684
-2.3191623e-05
0.0002853943
-2.9841295e-05
0.00034254623
-3.8287374e-05
0.00040862363
-4.8947117e-05
0.00048411681
-6.2289258e-05
0.00056916405
-7.880913e-05
0.00066341886
-9.8977935e-05
0.00076597173
-0.00012315759
0.00087543009
-0.00015148467
0.00099027809
-0.00018375996
0.0011095295
-0.00021941884
0.0012334126
-0.00025762184
0.0013636154
-0.00029739182
0.0015029071
-0.00033765945
0.0016545104
-0.00037720178
0.0018217804
-0.00041449595
0.002008277
-0.00044751581
0.0022181124
-0.00047347552
0.0024564522
-0.0004884976
0.0027301246
-0.00048716271
0.0030483388
-0.00046192056
0.003423366
-0.00040229282
0.0038710351
-0.00029363093
0.0044112163
-0.00011562202
0.0050682663
0.00015903947
0.0058724539
0.00056767868
0.006862657
0.0011797194
0.0080507438
0.0021030868
0.0094050302
0.0035031799
0.010814655
0.0056538067
0.011963417
0.0089303806
0.012131128
0.013664283
0.010131763
0.020676393
0.0027285711
0.03177601
-0.020829646
0.045195015
-0.069838068
0.055026221
-0.12740651
0.058162562
-0.15730068
0.058421606
-0.15357481
0.058829643
-0.12782446
0.059732914
-0.093046304
0.066752612
-0.05185024
-0.010047014
0.086408553
2.2453387e-11
1.6426735e-07
3.175095e-11
5.6820193e-07
-6.3783439e-11
1.1084829e-06
-4.1080692e-10
1.8207381e-06
-1.2378781e-09
2.748918e-06
-2.8939703e-09
3.9471031e-06
-5.9092346e-09
5.4816571e-06
-1.1078065e-08
7.4337807e-06
-1.9589472e-08
9.9025508e-06
-3.3201771e-08
1.3008485e-05
-5.451499e-08
1.689772e-05
-8.7330054e-08
2.1746834e-05
-1.3718031e-07
2.7768395e-05
-2.1206205e-07
3.5217191e-05
-3.234441e-07
4.4397164e-05
-4.8765233e-07
5.5668857e-05
-7.2772524e-07
6.9457127e-05
-1.0759281e-06
8.6258674e-05
-1.5770042e-06
0.00010664855
-2.2924238e-06
0.00013128445
-3.3057458e-06
0.00016090694
-4.729203e-06
0.000196333
-6.7115627e-06
0.0002384392
-9.4469838e-06
0.00028812972
-1.3184303e-05
0.00034628355
-1.8235255e-05
0.00041367459
-2.4979245e-05
0.0004908608
-3.3859944e-05
0.00057804475
-4.5365999e-05
0.00067492491
-5.9984592e-05
0.00078059033
-7.8114262e-05
0.00089355976
-9.9940815e-05
0.0010121046
-0.00012528505
0.0011348738
-0.00015350708
0.0012616347
-0.0001836135
0.0013937218
-0.00021438977
0.0015336833
-0.00024446675
0.0016845874
-0.00027226469
0.0018495783
-0.00029583824
0.0020318506
-0.00031263548
0.0022349096
-0.00031918745
0.0024630041
-0.0003107026
0.0027216398
-0.00028051636
0.0030181525
-0.00021936245
0.0033622121
-0.0001143921
0.0037660648
5.2319222e-05
0.004244505
0.00030520693
0.0048153786
0.0006772451
0.0055004158
0.0012206596
0.0063192425
0.0020265588
0.0072448446
0.0032328245
0.0081987645
0.0050613888
0.0089860908
0.0078613038
0.0091635018
0.011983801
0.0080086302
0.017721633
0.0043939316
0.02649828
-0.0060480763
0.040067491
-0.034398857
0.05470287
-0.084473447
0.063053019
-0.13575666
0.064115213
-0.15836288
0.063113978
-0.15257358
0.064742272
-0.12945275
0.069755122
-0.098059154
0.08037835
-0.062473469
-0.03098659
0.10131793
1.6264484e-09
1.6264091e-07
7.1729446e-09
5.6265543e-07
1.7861497e-08
1.0977943e-06
3.5199268e-08
1.8034003e-06
6.1028644e-08
2.7230886e-06
9.758237e-08
3.9105493e-06
1.4753885e-07
5.4317006e-06
2.1406935e-07
7.3672502e-06
3.0087518e-07
9.815745e-06
4.1219544e-07
1.2897165e-05
5.5277328e-07
1.6757142e-05
7.2773899e-07
2.1571868e-05
9.423992e-07
2.7553735e-05
1.2018343e-06
3.4957756e-05
1.5102931e-06
4.4088705e-05
1.8702233e-06
5.5308927e-05
2.2808438e-06
6.9046506e-05
2.7361296e-06
8.5803389e-05
3.2219601e-06
0.00010616272
3.7122479e-06
0.00013079416
4.1637721e-06
0.00016045541
4.5095762e-06
0.0001959872
4.6506284e-06
0.00023829815
4.4459038e-06
0.00028833444
3.7012813e-06
0.00034702817
2.1582565e-06
0.00041521761
-5.1506673e-07
0.00049353412
-4.726298e-06
0.00058225598
-1.0946248e-05
0.00068114486
-1.9668674e-05
0.00078931275
-3.1322619e-05
0.0009052137
-4.6132127e-05
0.0010269141
-6.4000271e-05
0.0011527419
-8.4186e-05
0.0012818204
-0.00010557325
0.001415109
-0.00012673846
0.0015548485
-0.00014599216
0.0017038411
-0.00016137291
0.0018649591
-0.00017049929
0.002040977
-0.00017028931
0.0022346996
-0.00015659521
0.00244931
-0.00012372419
0.0026887687
-6.3789996e-05
0.0029582183
3.4156917e-05
0.0032642652
0.00018531306
0.0036149086
0.00041077924
0.0040190388
0.00073921459
0.0044869432
0.0012098563
0.0050297741
0.0018932181
0.0056358807
0.0029011085
0.0062369542
0.0044102853
0.0066895877
0.0067058567
0.0066905194
0.010156014
0.0057133448
0.01501534
0.0031493035
0.021869951
-0.0024606789
0.032971993
-0.017150118
0.04906772
-0.050494585
0.063612258
-0.099017984
0.069274733
-0.14141913
0.068444745
-0.15753289
0.066856559
-0.15098539
0.069133979
-0.13173017
0.077020654
-0.10594583
0.09220765
-0.077660465
-0.055165051
0.11638611
3.1689224e-09
1.5947198e-07
1.4044407e-08
5.5177995e-07
3.5118348e-08
1.0767204e-06
6.9494886e-08
1.7690238e-06
1.2101976e-07
2.6715637e-06
1.9442165e-07
3.8371474e-06
2.9548148e-07
5.3306408e-06
4.3121163e-07
7.23152e-06
6.1005073e-07
9.6369059e-06
8.4206292e-07
1.2665153e-05
1.1391206e-06
1.6460084e-05
1.5150651e-06
2.1195924e-05
1.9857862e-06
2.7083014e-05
2.5691908e-06
3.4374351e-05
3.2849863e-06
4.3372909e-05
4.1541721e-06
5.4439741e-05
5.1981281e-06
6.800255e-05
6.4371032e-06
8.4564414e-05
7.8878979e-06
0.00010471193
9.5605002e-06
0.00012912156
1.1453314e-05
0.0001585626
1.3546689e-05
0.00019389382
1.579446e-05
0.00023605038
1.8113268e-05
0.00028601564
2.036986e-05
0.00034477158
2.2367128e-05
0.00041322034
2.3830858e-05
0.00049207039
2.4401413e-05
0.00058168543
2.3638282e-05
0.00068190799
2.1052235e-05
0.0007918988
1.6178678e-05
0.00091008726
8.7351896e-06
0.0010343576
-1.0685255e-06
0.0011625456
-1.2571608e-05
0.0012933235
-2.4736209e-05
0.0014272736
-3.5810272e-05
0.0015659226
-4.3724909e-05
0.0017117558
-4.6145462e-05
0.0018673796
-4.0249512e-05
0.002035081
-2.2429662e-05
0.0022168798
1.2124823e-05
0.0024147555
6.9981976e-05
0.0026309116
0.00016021512
0.0028679852
0.00029541237
0.0031290679
0.00049305895
0.003417262
0.00077724954
0.0037348482
0.0011811277
0.0040830651
0.0017526608
0.0044582409
0.0025820288
0.0048065128
0.0038077241
0.0050112588
0.0056549481
0.0048423637
0.0084492102
0.0038962574
0.012480957
0.0016815984
0.018087758
-0.0024574979
0.026740534
-0.011113455
0.040935919
-0.031345503
0.05861576
-0.068174425
0.071000172
-0.1114024
0.073511177
-0.14393014
0.071321712
-0.15534343
0.070016727
-0.14968041
0.073041769
-0.13475521
0.082031914
-0.11493597
0.0986637
-0.094292251
-0.080505286
0.12400393
4.5991725e-09
1.5487281e-07
2.0419726e-08
5.3595939e-07
5.1135985e-08
1.0460041e-06
1.0134271e-07
1.7188171e-06
1.7675106e-07
2.5961553e-06
2.8442284e-07
3.7294756e-06
4.3303684e-07
5.1820268e-06
6.3319867e-07
7.0313582e-06
8.9778456e-07
9.37232e-06
1.2423206e-06
1.2320617e-05
1.6853919e-06
1.6017013e-05
2.2490449e-06
2.063227e-05
2.9591885e-06
2.637287e-05
3.8459132e-06
3.3487626e-05
4.9436894e-06
4.2275133e-05
6.2913436e-06
5.3092086e-05
7.9316808e-06
6.6362213e-05
9.9105601e-06
8.2585534e-05
1.2275247e-05
0.00010234724
1.5071662e-05
0.00012632515
1.8340232e-05
0.00015529403
2.2109883e-05
0.00019012417
2.6389741e-05
0.00023177052
3.1158233e-05
0.00028124714
3.6349293e-05
0.00033958052
4.1836286e-05
0.00040773335
4.7415066e-05
0.00048649161
5.2790003e-05
0.00057631049
5.7570786e-05
0.00067712721
6.1294329e-05
0.00078817526
6.3501356e-05
0.00090788023
6.3908632e-05
0.0010339504
6.2568481e-05
0.0011638858
5.9866573e-05
0.0012960254
5.7208464e-05
0.0014299317
5.6632977e-05
0.0015664981
6.0453024e-05
0.0017079357
7.1388037e-05
0.0018564446
9.2712618e-05
0.0020137564
0.00012854942
0.002181043
0.00018435115
0.0023589538
0.0002675321
0.0025477306
0.00038832429
0.002747193
0.00056094253
0.0029564497
0.00080515722
0.0031730474
0.0011480258
0.0033919797
0.0016278154
0.0036032754
0.0023063613
0.0037796951
0.0032955141
0.0038173599
0.0047717201
0.0035350528
0.0070018695
0.0026122143
0.01026473
0.00063339663
0.01488935
-0.0029430209
0.021897105
-0.0094652535
0.0335635
-0.02277985
0.050711762
-0.048493765
0.067443576
-0.08490624
0.075652417
-0.11961124
0.075695713
-0.14397343
0.073301182
-0.15294889
0.072857619
-0.14923684
0.076777686
-0.13867528
0.0861786
-0.12433689
0.10217645
-0.11029011
-0.10361054
0.1252817
5.8585086e-09
1.490143e-07
2.6037975e-08
5.1577993e-07
6.5261003e-08
1.0067811e-06
1.2944319e-07
1.6546349e-06
2.259536e-07
2.4996449e-06
3.6392259e-07
3.5915067e-06
5.5460879e-07
4.9913406e-06
8.1181528e-07
6.7741517e-06
1.1523799e-06
9.0317554e-06
1.5967177e-06
1.1876279e-05
2.1694279e-06
1.5444303e-05
2.8999488e-06
1.9901749e-05
3.8232424e-06
2.5449577e-05
4.9804672e-06
3.2330401e-05
6.4195882e-06
4.0836012e-05
8.1958331e-06
5.1315841e-05
1.037189e-05
6.4186156e-05
1.301763e-05
7.9939795e-05
1.6209166e-05
9.9155703e-05
2.0026903e-05
0.00012250741
2.455218e-05
0.00015076875
2.9862024e-05
0.00018481433
3.6021446e-05
0.0002256111
4.3072692e-05
0.0002741959
5.1021153e-05
0.00033163206
5.9817737e-05
0.00039893677
6.9338947e-05
0.0004769704
7.9367681e-05
0.00056628176
8.9581868e-05
0.00066691302
9.9565585e-05
0.00077819154
0.00010886779
0.00089857803
0.00011710151
0.0010257167
0.00012413226
0.001156855
0.00013058407
0.0012895736
0.00013801856
0.0014224973
0.00014829803
0.0015562186
0.00016413726
0.0016920965
0.00018869602
0.0018318859
0.00022568654
0.0019767659
0.00027974847
0.0021269811
0.00035696474
0.0022817375
0.00046558502
0.0024391104
0.00061701431
0.0025957637
0.00082718685
0.0027462771
0.001118375
0.0028818592
0.0015212406
0.0029891141
0.0020802121
0.0030443039
0.0028793447
0.0029805624
0.0040604159
0.0026362888
0.0058392993
0.0017561694
0.0084671116
-1.5597925e-05
0.012269152
-0.0031686439
0.018143457
-0.0088173257
0.027931788
-0.019253585
0.043066635
-0.037914696
0.060816692
-0.066243823
0.073438006
-0.097527554
0.077595943
-0.12376918
0.076655846
-0.14303334
0.074792275
-0.15108532
0.075472012
-0.14991658
0.080196501
-0.14339977
0.089836324
-0.13397671
0.10507643
-0.12553021
-0.12439973
0.12586562
6.8942166e-09
1.4212009e-07
3.0663486e-08
4.9201066e-07
7.6899992e-08
9.6054461e-07
1.5261605e-07
1.5789188e-06
2.6655541e-07
2.3857056e-06
4.2957258e-07
3.4284895e-06
6.5506816e-07
4.765845e-06
9.5951399e-07
6.4697059e-06
1.3630526e-06
8.6282168e-06
1.8901901e-06
1.1349141e-05
2.5705786e-06
1.4763914e-05
3.4398967e-06
1.9032431e-05
4.5407782e-06
2.4348695e-05
5.9238292e-06
3.094735e-05
7.6486147e-06
3.9111226e-05
9.7845997e-06
4.9179856e-05
1.241188e-05
6.1558875e-05
1.5621628e-05
7.6730047e-05
1.9515873e-05
9.5261457e-05
2.4206476e-05
0.00011781681
2.981273e-05
0.0001451625
3.645712e-05
0.00017816994
4.4258582e-05
0.00021780964
5.3322496e-05
0.00026513199
6.3726755e-05
0.0003212278
7.5503531e-05
0.00038715999
8.8617131e-05
0.0004638568
0.00010294026
0.00055195863
0.00011823478
0.0006516185
0.00013414977
0.00076227655
0.000150259
0.0008824688
0.00016617678
0.0010097989
0.0001818208
0.001141211
0.00019769824
0.0012736961
0.00021516982
0.0014050257
0.00023646647
0.001534922
0.00026447628
0.0016640867
0.00030273127
0.0017936309
0.00035541436
0.0019240828
0.00042769034
0.0020547051
0.00052628161
0.0021831463
0.00066030478
0.0023050872
0.00084244151
0.002413627
0.001090625
0.0024980936
0.0014302142
0.00254227
0.0018969863
0.0025223421
0.0025466986
0.0023945916
0.0034968634
0.0020303976
0.0049279762
0.001205176
0.0070609489
-0.00037680343
0.010223533
-0.0031781821
0.015274006
-0.0082191172
0.023815014
-0.017358334
0.037098871
-0.032537441
0.053835196
-0.054651021
0.068543482
-0.080952109
0.076119781
-0.10510385
0.07804208
-0.12569147
0.077045847
-0.1420371
0.076176731
-0.15021621
0.077865383
-0.15160523
0.083192816
-0.1487272
0.092875618
-0.14365951
0.1073741
-0.14002869
-0.14337786
0.12635223
7.6534016e-09
1.3446668e-07
3.4060468e-08
4.6560359e-07
8.5460419e-08
9.0914466e-07
1.696818e-07
1.4946975e-06
2.9649747e-07
2.2588899e-06
4.7804561e-07
3.2469414e-06
7.2933665e-07
4.514554e-06
1.0688467e-06
6.1301958e-06
1.519212e-06
8.1778516e-06
2.1080414e-06
1.0760312e-05
2.8688424e-06
1.4003113e-05
3.8420721e-06
1.8059202e-05
5.0763164e-06
2.3114451e-05
6.6295536e-06
2.9394113e-05
8.5705191e-06
3.7170261e-05
1.0980062e-05
4.6770313e-05
1.3952447e-05
5.8586491e-05
1.7596394e-05
7.30861e-05
2.2035754e-05
9.0822097e-05
2.7409368e-05
0.00011244319
3.3869831e-05
0.00013870203
4.15805e-05
0.00017045927
5.0710099e-05
0.00020868004
6.1424013e-05
0.00025441807
7.3871438e-05
0.00030878037
8.8167543e-05
0.00037286389
0.00010437058
0.00044765376
0.00012245551
0.0005338737
0.00014228907
0.00063178494
0.00016361843
0.00074094718
0.00018609676
0.00085999047
0.00020938907
0.00098650656
0.0002333835
0.0011172166
0.00025852766
0.001248552
0.00028599809
0.0013775552
0.00031813954
0.0015027805
0.00035812878
0.0016240974
0.00040986463
0.001741895
0.00047799604
0.0018559514
0.00056823278
0.0019644683
0.00068798756
0.0020633915
0.00084736998
0.0021457048
0.001060641
0.002200356
0.0013483177
0.0022104169
0.0017399914
0.0021505964
0.0022807869
0.0019815465
0.0030525738
0.0016228047
0.004214435
0.0008685364
0.0059757828
-0.00055617182
0.0086600162
-0.0030610368
0.013110457
-0.0076286227
0.020807103
-0.015915764
0.032725656
-0.029276886
0.047842247
-0.047654032
0.062545991
-0.069354765
0.072259358
-0.090665476
0.076481403
-0.1093259
0.077621171
-0.12683124
0.077082102
-0.14149803
0.077360087
-0.15049419
0.079956434
-0.15420158
0.085721132
-0.1544919
0.095340061
-0.15327844
0.10911722
-0.15380585
-0.16085152
0.12659088
8.0885164e-09
1.2637817e-07
3.6016118e-08
4.3767599e-07
9.0406238e-08
8.5475454e-07
1.795736e-07