/*--------------------------------*- C++ -*----------------------------------*\
  =========                 |
  \\      /  F ield         | OpenFOAM: The Open Source CFD Toolbox
   \\    /   O peration     | Website:  https://openfoam.org
    \\  /    A nd           | Version:  13
     \\/     M anipulation  |
\*---------------------------------------------------------------------------*/
FoamFile
{
    format      ascii;
    class       volVectorField;
    location    "49.702864";
    object      UMean;
}
// * * * * * * * * * * * * * * * * * * * * * * * * * * * * * * * * * * * * * //

dimensions      [0 1 -1 0 0 0 0];

internalField   nonuniform List<vector> 
17140
(
(-1.4906637e-06 6.2823953e-05 -6.6315913e-23)
(-1.8940105e-05 0.00019332757 -4.694048e-24)
(-5.67816e-05 0.00033595182 3.105319e-22)
(-0.00012283285 0.00049140722 -3.4167898e-22)
(-0.00022427977 0.0006604371 3.998577e-23)
(-0.00037086732 0.00084368374 -1.3097408e-22)
(-0.00057456363 0.0010416552 -2.2079678e-22)
(-0.00084977993 0.0012546702 1.0814313e-22)
(-0.0012138105 0.0014827949 3.5451293e-22)
(-0.0016872476 0.0017257664 8.7183667e-22)
(-0.002294389 0.0019829074 -1.2978974e-21)
(-0.0030636105 0.0022530337 1.1617305e-21)
(-0.0040276738 0.0025343592 1.7845118e-22)
(-0.0052239149 0.0028244053 -1.0183824e-21)
(-0.0066942519 0.0031199293 1.1386245e-22)
(-0.0084849435 0.0034168814 -9.1119367e-22)
(-0.010646033 0.0037104154 3.4589958e-23)
(-0.01323042 0.0039949712 -7.4416286e-24)
(-0.016292551 0.0042644495 -5.5878408e-22)
(-0.019886769 0.0045124901 7.3664687e-22)
(-0.024065462 0.0047328512 -3.5941914e-22)
(-0.028877227 0.0049198602 7.0543381e-23)
(-0.034365692 0.0050688771 5.2322869e-22)
(-0.040570203 0.0051767123 -5.2804184e-22)
(-0.047524182 0.0052419929 -8.5235548e-22)
(-0.055254647 0.005265236 6.966964e-22)
(-0.063787226 0.0052481295 3.4523165e-21)
(-0.073154167 0.0051934817 4.0685328e-22)
(-0.083384254 0.0051058123 -3.6501963e-21)
(-0.094496009 0.0049889106 -8.5678825e-22)
(-0.10650658 0.0048452076 -3.0963211e-21)
(-0.11942586 0.0046768868 4.1316953e-21)
(-0.13325609 0.0044864286 -1.0818711e-21)
(-0.14799197 0.0042761915 -5.2589254e-22)
(-0.1636192 0.0040475735 -5.1772218e-21)
(-0.1801108 0.003800658 2.3030847e-21)
(-0.19742114 0.0035343807 -3.467497e-21)
(-0.21547816 0.0032469152 -2.3484202e-21)
(-0.23417455 0.0029361546 -1.0707284e-21)
(-0.2533591 0.0026004909 3.2524812e-21)
(-0.27282934 0.0022391434 6.0840267e-21)
(-0.29232429 0.001852 5.4676263e-21)
(-0.31151781 0.0014385206 2.3622965e-21)
(-0.3300207 0.00099590254 -1.1236532e-20)
(-0.3473754 0.00051981323 -8.0569475e-21)
(-0.36308494 8.0846887e-06 1.944502e-21)
(-0.37668883 -0.00054668544 -1.293695e-20)
(-0.38764276 -0.0011513329 -4.303807e-21)
(-0.39542905 -0.0018088157 4.3067364e-21)
(-0.39967372 -0.0025198855 1.0383523e-20)
(-0.40007695 -0.0032900117 -6.3308841e-21)
(-0.3963859 -0.004143841 -3.9790686e-21)
(-0.38835653 -0.0051435992 1.0351176e-20)
(-0.37578387 -0.0063435961 4.9122276e-21)
(-0.35824296 -0.0077621602 3.5409717e-21)
(-0.33542566 -0.009406573 -2.7909869e-21)
(-0.30630597 -0.011125303 7.7658311e-21)
(-0.26992531 -0.012540717 6.6051563e-21)
(-0.22350005 -0.012574606 1.7037343e-21)
(-0.16610104 -0.0098472313 -4.447338e-21)
(-0.092619646 -0.0045760029 -3.6062002e-21)
(-0.0079001022 0.001508851 -1.3744724e-20)
(0.092433177 0.0063062079 -2.0854953e-21)
(0.18896496 0.0073554992 1.7883397e-20)
(0.2955022 0.0037959765 -1.4251543e-20)
(-1.4899352e-05 0.00034771172 1.8784631e-23)
(-5.9937067e-05 0.0010699467 -1.6239864e-21)
(-0.00012756633 0.0018589837 1.4458918e-21)
(-0.0002256224 0.0027187251 -3.9463978e-22)
(-0.00036131103 0.0036528444 -8.1571258e-22)
(-0.00054433058 0.004664426 1.5602863e-21)
(-0.00078653742 0.005755736 -1.6292913e-21)
(-0.0011021638 0.0069279236 1.4366151e-22)
(-0.0015082302 0.0081806491 -4.4950925e-22)
(-0.0020249444 0.0095116549 -7.4601811e-24)
(-0.0026760965 0.010916292 -1.510487e-21)
(-0.0034894154 0.012387014 2.4117596e-21)
(-0.0044968671 0.013912857 2.001946e-22)
(-0.0057348376 0.015478975 -1.9888725e-21)
(-0.0072441468 0.017066271 6.1602907e-22)
(-0.0090698267 0.018651254 3.9446988e-22)
(-0.011260599 0.020206212 -2.5235887e-21)
(-0.013868002 0.021699867 8.3143335e-21)
(-0.01694515 0.023098627 -5.2685481e-21)
(-0.020545174 0.02436854 6.3884374e-21)
(-0.024719459 0.025477934 -9.5678206e-21)
(-0.029515899 0.026400566 2.3793159e-21)
(-0.034977733 0.027118868 9.9591633e-22)
(-0.041144167 0.027626635 -3.2888472e-21)
(-0.048049195 0.027930458 1.2008097e-20)
(-0.055720195 0.028048205 1.8002848e-21)
(-0.064182793 0.028001792 -9.5349005e-21)
(-0.073469761 0.027812313 1.079886e-20)
(-0.08360993 0.027497284 -1.5275388e-21)
(-0.094621498 0.027071259 -1.4880449e-20)
(-0.10652113 0.026545418 1.5772802e-21)
(-0.11931827 0.025929978 1.2058754e-20)
(-0.13301444 0.025235803 2.813245e-22)
(-0.14760329 0.024473071 -9.1782043e-21)
(-0.16306904 0.02364829 1.0352776e-20)
(-0.17938274 0.022762157 -4.6837483e-21)
(-0.19649617 0.021809246 5.5949881e-21)
(-0.21433407 0.020779039 1.7753965e-20)
(-0.2327853 0.01965757 3.949517e-21)
(-0.25169404 0.018429733 1.5441882e-20)
(-0.27085207 0.017081061 -1.9755546e-20)
(-0.28999115 0.015598423 -1.793392e-20)
(-0.30877535 0.013969627 -2.9844439e-21)
(-0.3267999 0.012184429 2.4012645e-20)
(-0.34358809 0.010240987 -1.1049067e-20)
(-0.35863157 0.0081539811 -3.7433281e-21)
(-0.37140781 0.005934267 2.0183886e-21)
(-0.38139044 0.0035873534 6.091614e-21)
(-0.38807984 0.0011574546 -2.9372388e-21)
(-0.39106003 -0.0013093966 5.2256787e-21)
(-0.39001669 -0.0037986487 3.1237279e-20)
(-0.38471965 -0.0063263066 1.4937088e-21)
(-0.37493987 -0.0089455303 -6.7199983e-21)
(-0.36048493 -0.011737933 1.5007827e-20)
(-0.34098099 -0.014782546 -1.2943487e-20)
(-0.31607383 -0.018172919 3.7253757e-20)
(-0.28471684 -0.021911401 1.0778134e-20)
(-0.24586968 -0.025819649 -3.1186925e-20)
(-0.19683407 -0.028896577 5.3632966e-21)
(-0.13692935 -0.029925149 6.3432018e-21)
(-0.061080425 -0.028533408 1.3190075e-21)
(0.02551609 -0.02592711 -1.7921877e-20)
(0.12767639 -0.022665187 3.6195858e-20)
(0.22588462 -0.021770184 1.1043318e-20)
(0.33416681 -0.024297058 1.8955319e-20)
(-4.3926905e-05 0.00062711289 1.0342179e-21)
(-0.00014854265 0.001929926 -4.876004e-22)
(-0.00028048342 0.0033534772 -1.2972028e-22)
(-0.00044750075 0.0049049248 1.2317099e-22)
(-0.00065684139 0.0065909576 -5.9712476e-22)
(-0.00091806206 0.0084172388 -4.4273763e-23)
(-0.0012427335 0.010387977 -5.6870435e-22)
(-0.0016446534 0.012505367 -6.137792e-22)
(-0.0021401729 0.014768944 5.0333086e-21)
(-0.0027485978 0.017174819 -4.507982e-21)
(-0.0034925459 0.019714822 2.1657276e-21)
(-0.0043982619 0.022375575 3.1867102e-21)
(-0.0054958934 0.025137542 -6.356495e-21)
(-0.0068196731 0.027974148 -7.909626e-22)
(-0.0084079453 0.030851109 3.0828061e-21)
(-0.010302989 0.033726117 2.1378164e-21)
(-0.012550575 0.036549114 -2.5054045e-21)
(-0.015199214 0.039263421 9.1734604e-21)
(-0.018299076 0.041807974 -5.4967707e-21)
(-0.021900623 0.044120854 2.7522487e-21)
(-0.026053048 0.04614413 -9.4294997e-21)
(-0.030802715 0.04782971 -2.4897759e-21)
(-0.036192031 0.049145457 5.2800254e-21)
(-0.042259909 0.050080351 -8.0603902e-21)
(-0.049041532 0.050647222 -3.204845e-21)
(-0.056564872 0.050880249 3.9469378e-21)
(-0.06485601 0.050822176 2.2611758e-20)
(-0.073948319 0.050512901 1.0318702e-20)
(-0.083870314 0.049982895 -5.2849195e-21)
(-0.094640111 0.049257995 5.6228013e-21)
(-0.10627292 0.048358615 -3.6524948e-21)
(-0.11877708 0.047303092 -2.0589371e-20)
(-0.13215234 0.046110625 6.9807415e-21)
(-0.14638979 0.044799183 2.1015658e-20)
(-0.16147005 0.043380539 -7.1931699e-21)
(-0.1773593 0.04185613 -1.0062872e-20)
(-0.1940031 0.040216128 1.7535478e-20)
(-0.2113183 0.038441231 5.3247699e-21)
(-0.22918412 0.036505477 -9.6217626e-21)
(-0.24743324 0.03437983 -3.8824419e-21)
(-0.2658432 0.032035343 1.8445602e-20)
(-0.28412747 0.029444464 -5.2955012e-21)
(-0.30192689 0.026581408 -7.5397903e-21)
(-0.31880615 0.023426985 -1.9761529e-20)
(-0.33425704 0.01998155 3.7248875e-20)
(-0.34774262 0.016276896 -2.372111e-20)
(-0.3587059 0.012354225 -5.8137108e-21)
(-0.36660135 0.0082462305 -2.3040265e-20)
(-0.37093976 0.0040312182 -2.7358123e-20)
(-0.3713372 -0.00019388169 -1.3712888e-21)
(-0.36751607 -0.0043716246 5.7334524e-21)
(-0.35928879 -0.0085113669 -4.2631256e-20)
(-0.34645474 -0.01268706 -1.8276427e-20)
(-0.3288336 -0.017011348 -1.8961115e-20)
(-0.30604255 -0.021617826 -6.2664404e-21)
(-0.27769751 -0.026699511 -4.9631343e-20)
(-0.2426859 -0.032422577 1.9930126e-20)
(-0.199818 -0.038795603 -6.2661357e-21)
(-0.14622792 -0.044833286 -5.2565547e-20)
(-0.081599066 -0.049465078 -2.1427867e-20)
(-0.0014306932 -0.051660305 2.6463388e-20)
(0.088310382 -0.05222089 9.3811097e-20)
(0.19257835 -0.050241708 -3.1111301e-20)
(0.291694 -0.049316518 -5.1081227e-20)
(0.40011535 -0.050243134 -2.252665e-20)
(-8.7712316e-05 0.00089171091 -3.4402518e-21)
(-0.00028218241 0.0027448417 3.4787914e-21)
(-0.00051112506 0.0047704477 -1.258706e-21)
(-0.00078213427 0.0069789989 1.3700548e-22)
(-0.0011025197 0.0093802899 -2.7098235e-21)
(-0.0014816311 0.011982721 2.8083624e-21)
(-0.0019306123 0.014792709 -4.266168e-21)
(-0.0024625664 0.017813916 2.0129678e-21)
(-0.0030928567 0.021046333 7.6696667e-21)
(-0.0038394123 0.024485177 -1.8516532e-21)
(-0.0047230741 0.028119639 -7.0764962e-21)
(-0.0057678238 0.031931566 2.1723847e-21)
(-0.007001033 0.035894093 1.4706889e-22)
(-0.0084536535 0.039970334 -5.7573285e-21)
(-0.01016025 0.044112323 1.8173154e-20)
(-0.012158872 0.048260427 -1.1272182e-20)
(-0.014490738 0.052343596 -1.084216e-22)
(-0.017199665 0.056280786 6.3911047e-21)
(-0.02033122 0.059983974 -1.646978e-20)
(-0.023931644 0.063363061 7.9034579e-21)
(-0.028046608 0.066332754 1.199123e-20)
(-0.032719939 0.068821056 4.9332723e-21)
(-0.037992602 0.070778375 -2.4925222e-20)
(-0.043902934 0.072185482 -1.3254906e-20)
(-0.05048749 0.073057998 8.7758708e-21)
(-0.057775404 0.073444058 -5.17459e-21)
(-0.065793955 0.073407852 1.9836922e-20)
(-0.074576518 0.073008496 -5.7800083e-21)
(-0.084151333 0.072289887 1.5859451e-20)
(-0.094536971 0.071289786 -9.1313015e-21)
(-0.10574609 0.070038421 5.6898349e-21)
(-0.11778542 0.068562337 -2.1303326e-20)
(-0.13065198 0.066888883 3.1297516e-21)
(-0.14433307 0.065043664 -1.6572875e-20)
(-0.15880393 0.063043656 1.6126344e-20)
(-0.17402343 0.06089119 5.1212639e-21)
(-0.18992774 0.058572229 -6.5833646e-20)
(-0.20642208 0.056058524 -1.7223445e-20)
(-0.22337151 0.053311868 1.4432534e-20)
(-0.24059186 0.050288919 -1.42163e-20)
(-0.25784035 0.046945273 3.5965212e-21)
(-0.27480555 0.043237571 2.2832774e-20)
(-0.29109817 0.0391256 -1.0801119e-21)
(-0.30624693 0.034582134 -7.4453201e-21)
(-0.319717 0.029614438 3.6944132e-21)
(-0.33096207 0.02427482 -1.5964384e-21)
(-0.33940333 0.018630483 -4.9762566e-21)
(-0.34450168 0.012758327 7.788905e-20)
(-0.34580795 0.0067936586 -8.5855398e-21)
(-0.34299755 0.00087745975 7.9136929e-21)
(-0.33584204 -0.0049032278 -7.4091292e-20)
(-0.32418769 -0.010553517 4.0712807e-20)
(-0.30784376 -0.016168157 3.3464398e-20)
(-0.28661262 -0.021900818 3.2227983e-20)
(-0.2600769 -0.027951685 3.1404547e-20)
(-0.22779937 -0.034624172 5.0097356e-20)
(-0.18852221 -0.042271653 -1.0162409e-19)
(-0.14071722 -0.051110787 6.3821055e-20)
(-0.08138932 -0.060073389 9.9611685e-20)
(-0.010625228 -0.068052304 -7.4932884e-20)
(0.074709994 -0.073368704 -2.4807479e-20)
(0.16788196 -0.076628872 -2.2545433e-20)
(0.27356398 -0.075483587 1.1776997e-19)
(0.37224726 -0.074170507 8.8412543e-20)
(0.47831385 -0.072966409 -4.0931622e-21)
(-0.00014435954 0.0011321874 2.4006912e-21)
(-0.0004551179 0.0034862033 -5.0390741e-21)
(-0.00080964222 0.0060606755 4.1114059e-21)
(-0.0012153279 0.0088694146 -1.555257e-21)
(-0.0016795979 0.011925415 -5.6243211e-22)
(-0.002211546 0.015240057 4.8479314e-21)
(-0.0028217888 0.018822354 -1.2311504e-21)
(-0.0035225604 0.022677992 -2.6193175e-21)
(-0.0043279676 0.026808161 -2.0186397e-22)
(-0.0052542104 0.031208183 -1.7192746e-21)
(-0.0063198328 0.03586594 2.418091e-21)
(-0.0075459215 0.040760163 -1.6908146e-21)
(-0.0089562797 0.045858598 -6.2699859e-21)
(-0.010577601 0.051116208 -1.8247288e-22)
(-0.0124395 0.056473697 4.8831007e-21)
(-0.014574462 0.061856539 3.4975736e-21)
(-0.017017663 0.067174987 -3.0476741e-21)
(-0.019806607 0.072325537 3.0036116e-22)
(-0.022980586 0.077194403 6.1407151e-21)
(-0.026579976 0.081663462 7.6105743e-21)
(-0.030645409 0.085618876 -8.8586762e-21)
(-0.035216912 0.088962076 -9.0985496e-21)
(-0.040333133 0.091621935 1.2504349e-20)
(-0.046031344 0.093565936 -1.5782391e-20)
(-0.052348989 0.09480715 -2.7846121e-20)
(-0.059317558 0.095403562 6.6975292e-20)
(-0.066966053 0.095440808 -3.7524105e-20)
(-0.075326422 0.094997309 5.6367603e-20)
(-0.084427877 0.094132102 -7.14944e-20)
(-0.094289982 0.092895384 8.081903e-20)
(-0.10492187 0.091327851 -8.460335e-20)
(-0.11632819 0.089464503 1.4487414e-20)
(-0.12850253 0.087340623 5.0314e-20)
(-0.14142749 0.084989201 -2.8716906e-20)
(-0.15507168 0.082432406 9.0979144e-21)
(-0.16938511 0.0796736 2.733422e-21)
(-0.18429235 0.076694672 3.3200341e-20)
(-0.1996844 0.073458512 1.0790552e-20)
(-0.21540967 0.069914554 1.0806096e-20)
(-0.23126448 0.066004676 1.0884745e-20)
(-0.24698302 0.061668136 -5.5438903e-20)
(-0.2622271 0.056844631 2.4242512e-20)
(-0.27657721 0.051479546 3.6663577e-21)
(-0.2895328 0.045541603 -4.3627536e-20)
(-0.30055203 0.039052941 -2.1730903e-20)
(-0.30909181 0.032093058 1.0685682e-20)
(-0.31459347 0.024753982 3.780234e-20)
(-0.31655587 0.017165904 -1.6439517e-20)
(-0.31457669 0.0095175673 4.6873274e-20)
(-0.30836135 0.0019977462 2.5246151e-20)
(-0.29770501 -0.0052823404 3.4813715e-20)
(-0.28246186 -0.012336344 9.276639e-20)
(-0.26240827 -0.019290756 -7.2134225e-20)
(-0.23729261 -0.026341763 2.3304441e-20)
(-0.20662542 -0.033751005 -4.1202737e-20)
(-0.16986082 -0.041943836 -3.9595768e-20)
(-0.12546292 -0.051503555 -1.5572855e-20)
(-0.071579083 -0.062833394 -1.4745841e-19)
(-0.0051867931 -0.074638163 -4.0936393e-20)
(0.072742647 -0.085596199 9.6291836e-20)
(0.16392243 -0.093324945 3.7611247e-20)
(0.26051065 -0.098510995 -2.9401564e-20)
(0.36669472 -0.097634294 -6.2808383e-20)
(0.46366157 -0.095425254 -9.9191807e-20)
(0.56489369 -0.091410822 8.0217377e-21)
(-0.00021091612 0.0013395565 7.234879e-21)
(-0.00065840452 0.0041264995 1.6035326e-21)
(-0.0011606659 0.0071765739 -1.3005718e-21)
(-0.0017249074 0.010506918 -4.8050855e-21)
(-0.0023587183 0.014133796 2.6357742e-21)
(-0.0030709366 0.018071801 -3.8004935e-21)
(-0.0038716067 0.022332971 1.6479354e-21)
(-0.0047720145 0.026925685 3.9343792e-22)
(-0.0057848535 0.031853309 -2.2348e-21)
(-0.0069243618 0.037112581 -4.8358404e-21)
(-0.008206464 0.042691748 -2.4248419e-22)
(-0.0096488982 0.048568471 8.0413902e-21)
(-0.011271333 0.05470759 -1.1206582e-20)
(-0.013095453 0.061058858 1.8266692e-20)
(-0.015145016 0.067554896 -4.8268184e-21)
(-0.017445849 0.074109695 1.0382572e-20)
(-0.02002579 0.080618159 -1.2749188e-20)
(-0.022914558 0.086957277 8.4218799e-21)
(-0.026143548 0.092989637 -1.3593596e-21)
(-0.029745557 0.098569935 -5.6253264e-21)
(-0.033754473 0.10355489 1.3977403e-20)
(-0.038204944 0.10781642 -2.0208772e-20)
(-0.043132046 0.11125683 2.2513416e-20)
(-0.048571219 0.11382366 3.9314461e-21)
(-0.054559325 0.1155202 -3.9810784e-20)
(-0.061132179 0.11640735 4.1138699e-20)
(-0.068319915 0.11658807 -2.7353087e-20)
(-0.076151756 0.11616385 3.1237236e-20)
(-0.08466088 0.11521225 2.9268707e-21)
(-0.093867025 0.11379427 1.8338153e-21)
(-0.10377582 0.11196189 -1.308196e-20)
(-0.11438919 0.10975951 8.1684619e-22)
(-0.12569701 0.10723027 -5.0556889e-20)
(-0.1376767 0.10441435 1.3955717e-20)
(-0.15028964 0.10133914 4.1940114e-20)
(-0.16347597 0.098009213 -1.983801e-20)
(-0.17714768 0.094402708 1.6513757e-20)
(-0.19118067 0.090474132 -1.6586802e-20)
(-0.2054058 0.086160683 -9.2976168e-20)
(-0.21959939 0.081389188 5.1527609e-20)
(-0.233473 0.076081955 1.2541206e-20)
(-0.24666388 0.070161672 -7.0817829e-20)
(-0.25872848 0.063561374 4.2882096e-21)
(-0.26915309 0.056252019 8.6716196e-21)
(-0.27741599 0.048278658 9.0971169e-20)
(-0.28299394 0.039750062 2.0774414e-20)
(-0.28538284 0.030784518 -3.2101245e-20)
(-0.28412519 0.021561172 -3.237564e-20)
(-0.27883108 0.012313048 -4.5365547e-20)
(-0.26918646 0.0032729313 -5.5305098e-20)
(-0.25497663 -0.0054199522 -3.3503592e-20)
(-0.23604241 -0.013790656 -5.2400691e-20)
(-0.21210161 -0.022002475 1.8066427e-20)
(-0.18282608 -0.030295244 -1.1148048e-19)
(-0.14759416 -0.038994899 -7.4352651e-21)
(-0.10567291 -0.048677138 -6.5960844e-21)
(-0.055107425 -0.060150067 -3.4972244e-21)
(0.0063065576 -0.073945478 1.5823914e-19)
(0.081110599 -0.088345028 6.3854684e-20)
(0.16686055 -0.10173018 -1.0130912e-19)
(0.2640159 -0.11104925 -1.51394e-19)
(0.3638396 -0.11720771 -7.0135571e-20)
(0.46923398 -0.11590338 -2.368531e-20)
(0.56275905 -0.11217288 1.4143196e-19)
(0.65658214 -0.10475712 -3.6710871e-20)
(-0.00028341236 0.001505762 -1.3495067e-21)
(-0.00088018282 0.004640936 -2.673965e-21)
(-0.0015437005 0.0080751519 6.4602922e-21)
(-0.002281273 0.011828745 -2.4098171e-22)
(-0.0031006323 0.015921282 -3.1546093e-21)
(-0.0040104173 0.020370771 -1.3928225e-21)
(-0.0050201344 0.025192698 -1.0308107e-21)
(-0.0061401323 0.03039884 2.0376662e-21)
(-0.0073816707 0.03599578 -1.0586987e-20)
(-0.0087569572 0.041983122 8.0277035e-21)
(-0.010279185 0.048351396 -3.8952286e-22)
(-0.011962556 0.05507966 -4.9181754e-21)
(-0.013822302 0.062132861 1.8556102e-20)
(-0.0158747 0.069459084 -1.8680272e-20)
(-0.018137082 0.076986903 2.5217633e-21)
(-0.020627859 0.084623216 1.5800976e-20)
(-0.023366557 0.092252052 -1.5104099e-20)
(-0.026373891 0.09973508 5.385026e-21)
(-0.02967189 0.10691464 -1.0667179e-20)
(-0.03328408 0.11362022 1.4003252e-20)
(-0.037235746 0.11967899 2.6928866e-20)
(-0.041554235 0.12493063 -2.7340739e-20)
(-0.046269251 0.12924538 -4.1030467e-20)
(-0.051413046 0.13254277 8.1120795e-20)
(-0.057020861 0.13480675 -6.6564279e-20)
(-0.063131243 0.13609106 3.9444562e-20)
(-0.069777152 0.13650787 -1.0394204e-20)
(-0.076987508 0.1361873 2.4916438e-20)
(-0.084795966 0.13522895 -2.6013006e-20)
(-0.093223884 0.13370304 -3.542572e-20)
(-0.10227591 0.13167375 2.3956718e-20)
(-0.11194922 0.12919645 3.9980591e-20)
(-0.12223037 0.12632243 -3.6196951e-21)
(-0.13309143 0.12309899 -1.5354692e-21)
(-0.14448626 0.11955876 -2.6728996e-20)
(-0.15634505 0.11570805 1.1673643e-20)
(-0.16856726 0.11152202 4.3124029e-20)
(-0.1810138 0.10694733 2.1724731e-20)
(-0.19349849 0.10190929 -3.3507473e-20)
(-0.2057788 0.096319737 2.6636396e-20)
(-0.2175461 0.09008413 -2.2447363e-20)
(-0.22841838 0.083109336 7.6524654e-21)
(-0.23793876 0.075320801 2.8369161e-20)
(-0.24560191 0.066700698 -6.7215655e-20)
(-0.25092835 0.057322131 -3.9622762e-20)
(-0.25344215 0.047319312 -2.5351971e-20)
(-0.25269815 0.036834833 7.8355966e-20)
(-0.24825549 0.026071526 5.0126579e-20)
(-0.23967266 0.015294726 5.8087139e-20)
(-0.226584 0.0047920186 1.0031499e-19)
(-0.20876399 -0.0052541207 -3.435365e-20)
(-0.186023 -0.014880842 7.2020837e-21)
(-0.15800065 -0.02429718 5.7616169e-20)
(-0.12426133 -0.033794637 1.7037851e-19)
(-0.083984312 -0.043767759 1.1376445e-19)
(-0.036139496 -0.054967401 4.5543034e-20)
(0.021853383 -0.068409668 1.3575119e-19)
(0.092204207 -0.084576849 -9.414629e-20)
(0.17632232 -0.10115056 1.0031362e-20)
(0.27016464 -0.11619774 1.632759e-19)
(0.37294721 -0.12620818 1.1517543e-19)
(0.47552306 -0.13218251 5.467609e-21)
(0.57837423 -0.12963912 -1.9872861e-19)
(0.66598721 -0.1238603 2.1419997e-20)
(0.7495308 -0.11257197 -3.1731214e-20)
(-0.00035715397 0.0016241335 -5.2568608e-21)
(-0.0011060336 0.0050089148 2.1927826e-21)
(-0.0019339689 0.0087205156 -2.9651493e-21)
(-0.002848538 0.012782253 -1.6873123e-21)
(-0.0038576585 0.017216929 4.7166948e-21)
(-0.0049698638 0.022046078 4.411724e-21)
(-0.0061942234 0.027288988 -4.5389714e-21)
(-0.0075402614 0.032961487 5.4738098e-22)
(-0.009017923 0.0390744 1.2730775e-22)
(-0.010637508 0.045631684 9.0954887e-21)
(-0.012409595 0.052628172 -1.0051068e-21)
(-0.014344945 0.060046956 -1.8583799e-20)
(-0.016454407 0.067856412 1.4987353e-20)
(-0.018748823 0.076006981 -5.2294958e-22)
(-0.021238968 0.084427914 -1.0277959e-20)
(-0.023935532 0.093024292 -8.9866544e-22)
(-0.026849201 0.10167489 2.3235173e-21)
(-0.029990867 0.11023163 1.0676059e-20)
(-0.033372024 0.11852155 -1.997787e-20)
(-0.037005385 0.12635249 3.5952883e-20)
(-0.040905718 0.13352344 -7.9612701e-21)
(-0.045090874 0.13984017 5.9887332e-21)
(-0.049582851 0.14513551 -5.0811663e-21)
(-0.054408652 0.14929207 1.992723e-22)
(-0.05960064 0.15226266 -3.1585459e-20)
(-0.065196492 0.15408157 -3.2249988e-20)
(-0.071235391 0.15485859 6.5240139e-20)
(-0.077747879 0.15474644 1.1053911e-20)
(-0.08476169 0.15387863 -3.9324829e-20)
(-0.092303996 0.15233965 -1.4213579e-20)
(-0.10038143 0.15020036 -3.2483784e-20)
(-0.10898528 0.14752917 3.7317709e-20)
(-0.11809842 0.14438735 1.6525392e-20)
(-0.12768747 0.1408292 -3.8977706e-20)
(-0.13769937 0.13689301 1.6624084e-20)
(-0.14805487 0.13258782 7.767316e-21)
(-0.15864146 0.12788676 -2.3756428e-20)
(-0.16930585 0.12272962 -6.2354398e-20)
(-0.17984607 0.11703056 -1.894546e-20)
(-0.19000239 0.11068694 1.2755114e-20)
(-0.19944944 0.10358848 3.0222488e-20)
(-0.2077924 0.095629225 3.1040855e-20)
(-0.21457278 0.086733426 3.4087168e-20)
(-0.2193154 0.076903665 7.0847306e-20)
(-0.22159194 0.066247024 -1.914246e-21)
(-0.22098922 0.05491203 2.925304e-20)
(-0.21709362 0.043047305 -1.5539684e-19)
(-0.2094265 0.030849786 -4.2488586e-20)
(-0.19746261 0.018614631 -4.7982043e-20)
(-0.18082982 0.0067060108 -1.3174164e-19)
(-0.15931077 -0.0046408214 1.5305495e-19)
(-0.13265557 -0.015484513 -3.4132511e-20)
(-0.10038859 -0.026081041 -1.1018508e-19)
(-0.061895277 -0.03678161 -1.3681086e-19)
(-0.01606375 -0.048061814 -1.7731562e-20)
(0.03860828 -0.060888465 4.4970374e-20)
(0.10531391 -0.076346368 7.4114893e-20)
(0.18560003 -0.09466904 -3.2014484e-20)
(0.27936847 -0.11280456 5.9840106e-20)
(0.38142235 -0.12859153 -5.1519661e-20)
(0.48947162 -0.13831226 -1.8107673e-20)
(0.59348184 -0.14288778 -5.5417684e-20)
(0.69122037 -0.13812846 2.479635e-19)
(0.76954702 -0.12986322 8.608071e-21)
(0.83936311 -0.11462723 1.0359034e-19)
(-0.00042689581 0.0016899183 4.8695931e-21)
(-0.0013198519 0.0052156592 7.9959847e-22)
(-0.0023037382 0.0090867139 -8.7966479e-22)
(-0.003386469 0.013329056 -4.3287881e-21)
(-0.0045762323 0.017968514 5.1996542e-21)
(-0.005881576 0.023030116 -4.4240884e-21)
(-0.007311291 0.028537149 -2.1190868e-21)
(-0.0088742782 0.034509987 1.1410221e-22)
(-0.010579419 0.040964582 1.8013605e-21)
(-0.012435407 0.047910591 1.0289011e-20)
(-0.014450555 0.055349082 -1.7370606e-20)
(-0.016632573 0.063269791 2.101008e-20)
(-0.018988341 0.071647914 -6.2205651e-21)
(-0.021523678 0.080440509 -8.5224635e-21)
(-0.024243155 0.089582643 1.3222834e-20)
(-0.027149986 0.09898358 -2.641918e-20)
(-0.030246055 0.10852351 3.2524289e-20)
(-0.033532172 0.1180516 5.1807053e-22)
(-0.037008623 0.12738635 1.9369107e-20)
(-0.040676123 0.13631968 -7.8655041e-20)
(-0.044537167 0.14462601 1.952144e-20)
(-0.048597798 0.15207756 8.28168e-20)
(-0.052869552 0.15846589 -4.0216309e-20)
(-0.057371263 0.16362793 -4.9226667e-20)
(-0.062130121 0.16747231 1.2716544e-20)
(-0.067181309 0.16999835 6.8024698e-20)
(-0.072565425 0.17129786 -1.0549947e-19)
(-0.078320616 0.17152992 1.1939143e-19)
(-0.084471784 0.17086516 -9.5796935e-20)
(-0.091041661 0.16942603 1.8670484e-20)
(-0.098044249 0.16728767 -3.244796e-20)
(-0.10546933 0.16452243 -4.6849382e-20)
(-0.11329509 0.16120468 1.8879724e-20)
(-0.12148324 0.15739949 5.0118901e-21)
(-0.12997366 0.15315182 7.1434537e-20)
(-0.13867824 0.14847419 -1.4164143e-20)
(-0.14747335 0.14333896 3.6403009e-20)
(-0.15619251 0.13768022 -3.093717e-20)
(-0.16461876 0.13140204 1.8646026e-20)
(-0.17247671 0.12438848 1.2057677e-20)
(-0.17942698 0.11651584 1.0291194e-20)
(-0.18506747 0.10766998 1.02283e-20)
(-0.18894817 0.097781872 -6.1878369e-20)
(-0.19063809 0.086883585 -4.8093296e-20)
(-0.18975139 0.075115798 1.3473383e-20)
(-0.18592384 0.062626492 -8.34307e-21)
(-0.17872958 0.049543108 3.4732598e-20)
(-0.16761741 0.036038673 -6.7646029e-20)
(-0.15205263 0.022451678 -7.7720307e-20)
(-0.13173739 0.0092300646 -2.2322429e-20)
(-0.10645242 -0.0033562382 -5.8736111e-20)
(-0.075825448 -0.015388556 1.892018e-21)
(-0.039183027 -0.027177318 2.8604025e-20)
(0.0043708259 -0.039141224 1.3940712e-19)
(0.056363165 -0.051848543 -7.0468882e-20)
(0.1188911 -0.066465065 2.8769946e-20)
(0.19541756 -0.083926124 -8.6436415e-20)
(0.28643042 -0.10397109 1.4889776e-19)
(0.3904148 -0.12294648 -8.7714753e-20)
(0.50099546 -0.13837406 3.1529531e-20)
(0.61329938 -0.14657125 -4.4973692e-23)
(0.71581936 -0.14847972 2.6260411e-20)
(0.80430232 -0.14068628 1.012597e-19)
(0.86900074 -0.12987381 -1.9385414e-19)
(0.92100983 -0.11140129 2.0311483e-19)
(-0.00048719639 0.0017008102 -1.0734009e-20)
(-0.0015049794 0.0052537984 -4.4882527e-21)
(-0.002624225 0.0091604894 7.0544805e-21)
(-0.0038532261 0.013449039 -1.8594574e-22)
(-0.0052005151 0.018147918 -6.3994373e-21)
(-0.0066747834 0.023285417 -3.3535705e-21)
(-0.0082847333 0.028888787 7.0896466e-21)
(-0.010038909 0.034983182 -1.1677509e-21)
(-0.011945479 0.041590266 1.6542027e-20)
(-0.014011979 0.048726439 -3.2417897e-21)
(-0.016245011 0.056400616 -8.3205666e-23)
(-0.018649894 0.06461149 1.2095636e-20)
(-0.021230297 0.073344237 -3.9143956e-20)
(-0.023987854 0.082566664 1.8453619e-20)
(-0.026921805 0.092224878 3.3522732e-20)
(-0.030028726 0.10223869 -3.631017e-20)
(-0.033302414 0.11249715 4.5483904e-21)
(-0.036734043 0.12285499 -2.6429807e-20)
(-0.040312727 0.13313085 -2.0108418e-20)
(-0.0440266 0.14310899 6.4929317e-20)
(-0.047864574 0.15254598 -5.0136798e-20)
(-0.051818717 0.16118412 6.7937021e-20)
(-0.055887157 0.16877268 -8.2338598e-21)
(-0.060077011 0.1750961 3.4572029e-20)
(-0.064406648 0.18000566 -7.7340169e-20)
(-0.068906168 0.18344742 1.8798604e-20)
(-0.073614764 0.18547506 4.858183e-20)
(-0.078573756 0.18623521 -1.201011e-19)
(-0.083816894 0.18591926 5.3321252e-20)
(-0.089360705 0.18469742 5.8327833e-20)
(-0.095213737 0.18267974 -4.906938e-20)
(-0.10137548 0.17994539 -6.5854239e-21)
(-0.10782013 0.17656821 3.3940532e-20)
(-0.1145035 0.17262124 -1.9079783e-20)
(-0.12136106 0.16816077 2.964198e-20)
(-0.12829704 0.16320582 -1.0566736e-19)
(-0.13517678 0.15773022 5.607327e-20)
(-0.14182052 0.15166432 3.4027362e-20)
(-0.14799625 0.14490343 7.0202016e-20)
(-0.15341348 0.13732028 9.1786618e-21)
(-0.15772061 0.12878099 -7.5817889e-20)
(-0.1605119 0.11916925 3.0459025e-20)
(-0.16135241 0.1084315 4.4756834e-20)
(-0.15985139 0.096630837 7.053163e-21)
(-0.15565004 0.083933757 -4.2403232e-20)
(-0.14839878 0.070479924 -3.6815039e-20)
(-0.13762899 0.056355128 1.1051223e-19)
(-0.12276936 0.041717932 5.7817704e-20)
(-0.10340549 0.02695342 1.2422288e-19)
(-0.079338844 0.012568407 4.3306843e-20)
(-0.050274346 -0.0011609524 1.6713384e-20)
(-0.015632797 -0.014364521 1.2385561e-19)
(0.025570031 -0.027398275 4.9060419e-20)
(0.074631556 -0.040735433 -1.6577926e-19)
(0.13360936 -0.055037928 1.3440858e-19)
(0.20521332 -0.07154752 -1.252382e-19)
(0.29294113 -0.090808692 6.1158307e-20)
(0.3962979 -0.1118813 -3.0183279e-19)
(0.51172331 -0.13062101 -1.5475763e-19)
(0.63045212 -0.14440729 6.4623397e-20)
(0.74390327 -0.14977443 1.0354523e-19)
(0.83909788 -0.14804431 1.7636378e-19)
(0.91202169 -0.13706045 3.200195e-20)
(0.95753256 -0.12423379 2.499152e-20)
(0.98679446 -0.10409273 -2.7151633e-19)
(-0.00053290804 0.0016573934 -1.9231107e-22)
(-0.0016456097 0.0051247554 8.2499345e-21)
(-0.0028680509 0.0089437048 -9.7373992e-21)
(-0.0042089039 0.013143947 -4.6931172e-21)
(-0.0056770877 0.017756019 9.4166719e-21)
(-0.0072815465 0.022810991 3.057077e-21)
(-0.0090310851 0.028339743 -1.4867593e-20)
(-0.010934178 0.034372087 1.605465e-20)
(-0.012998686 0.040935556 3.4012942e-21)
(-0.015231528 0.048053842 1.3600828e-20)
(-0.017638288 0.055744767 -3.6342459e-20)
(-0.020222758 0.064017703 -4.4764076e-22)
(-0.022986436 0.072870355 3.3195133e-20)
(-0.025927973 0.082284857 -3.6027899e-20)
(-0.029042628 0.092223157 2.6132807e-20)
(-0.032321772 0.1026218 9.8399277e-21)
(-0.035752542 0.11338643 -2.0926225e-20)
(-0.039317752 0.12438647 1.9273811e-20)
(-0.042996265 0.13545111 2.6238088e-20)
(-0.046764002 0.1463679 -5.7216128e-22)
(-0.050595781 0.15688598 -4.3542401e-20)
(-0.054468125 0.16672602 2.7656832e-20)
(-0.058362942 0.17559894 -1.5836174e-20)
(-0.062271701 0.18323403 -7.8751099e-20)
(-0.066199246 0.18941439 -2.6976257e-20)
(-0.070165942 0.19401365 7.5238057e-20)
(-0.074206337 0.19702249 -7.6844573e-21)
(-0.078362553 0.19854984 8.880678e-20)
(-0.082673009 0.19878598 -5.3751237e-20)
(-0.087161241 0.19793666 2.8892773e-20)
(-0.091835239 0.19616639 -4.2737165e-20)
(-0.096684137 0.19358251 -1.0580284e-20)
(-0.10168147 0.19026714 5.4394636e-20)
(-0.1067877 0.18629974 -5.720472e-20)
(-0.1119328 0.18174328 -8.5050858e-20)
(-0.11701349 0.17662259 8.999392e-21)
(-0.12188507 0.17091439 9.5205735e-20)
(-0.12635451 0.16454721 -1.2352551e-19)
(-0.13017435 0.15741107 2.7072221e-20)
(-0.13303901 0.14937033 -5.8145764e-20)
(-0.13458624 0.14028489 8.9549328e-21)
(-0.1344089 0.13004128 -9.1255146e-20)
(-0.13209158 0.11860418 -4.3685181e-20)
(-0.12726299 0.10607179 -5.3599834e-20)
(-0.11957944 0.092627188 2.1426663e-19)
(-0.10867995 0.078393839 6.8971789e-20)
(-0.09406552 0.063424915 -9.1173763e-20)
(-0.075265857 0.047876149 7.3384067e-20)
(-0.052047361 0.032169294 6.0810766e-20)
(-0.024235821 0.016810212 -6.8261388e-20)
(0.0086350192 0.0020248098 -3.560495e-20)
(0.047448669 -0.012362082 -8.3547436e-20)
(0.093632446 -0.026717524 -4.0714366e-20)
(0.14898376 -0.041566435 1.3973133e-19)
(0.21623021 -0.057594992 7.9321647e-20)
(0.29902916 -0.07594614 1.284164e-20)
(0.4008637 -0.096514881 -4.1649514e-22)
(0.51922235 -0.11756195 7.4274278e-20)
(0.64661133 -0.13463564 -1.11534e-19)
(0.76997502 -0.14515719 -1.4752595e-19)
(0.87672401 -0.14666206 -4.2065313e-20)
(0.95442817 -0.14141071 -3.2650135e-19)
(1.0027315 -0.12828737 -2.6469485e-19)
(1.0227825 -0.11486665 -6.8186436e-20)
(1.0277981 -0.095772612 -3.6949932e-20)
(-0.0005597348 0.0015634884 6.4713678e-21)