/*--------------------------------*- C++ -*----------------------------------*\
  =========                 |
  \\      /  F ield         | OpenFOAM: The Open Source CFD Toolbox
   \\    /   O peration     | Website:  https://openfoam.org
    \\  /    A nd           | Version:  13
     \\/     M anipulation  |
\*---------------------------------------------------------------------------*/
FoamFile
{
    format      ascii;
    class       volScalarField;
    location    "0.08";
    object      rho;
}
// * * * * * * * * * * * * * * * * * * * * * * * * * * * * * * * * * * * * * //

dimensions      [1 -3 0 0 0 0 0];

internalField   nonuniform List<scalar> 
1000
(
0.180032
0.180031
0.180031
0.18003
0.180029
0.180028
0.180026
0.180025
0.180022
0.18002
0.180017
0.180014
0.18001
0.180006
0.180001
0.179996
0.17999
0.179984
0.179978
0.179971
0.179964
0.179956
0.179948
0.179939
0.17993
0.179921
0.179911
0.179901
0.17989
0.179879
0.179867
0.179856
0.179843
0.17983
0.179817
0.179804
0.17979
0.179775
0.17976
0.179745
0.17973
0.179713
0.179697
0.17968
0.179663
0.179645
0.179628
0.179609
0.17959
0.179571
0.179552
0.179532
0.179512
0.179491
0.17947
0.179449
0.179427
0.179405
0.179382
0.179359
0.179336
0.179312
0.179289
0.179264
0.17924
0.179215
0.179189
0.179164
0.179138
0.179111
0.179085
0.179057
0.17903
0.179002
0.178974
0.178946
0.178917
0.178888
0.178859
0.178829
0.178799
0.178769
0.178738
0.178708
0.178676
0.178645
0.178613
0.178581
0.178549
0.178516
0.178483
0.17845
0.178416
0.178382
0.178348
0.178314
0.178279
0.178244
0.178209
0.178173
0.178137
0.178101
0.178065
0.178028
0.177992
0.177955
0.177917
0.17788
0.177842
0.177804
0.177765
0.177727
0.177688
0.177649
0.17761
0.17757
0.17753
0.17749
0.17745
0.17741
0.177369
0.177328
0.177287
0.177246
0.177204
0.177162
0.17712
0.177078
0.177036
0.176993
0.17695
0.176907
0.176864
0.176821
0.176777
0.176734
0.17669
0.176646
0.176601
0.176557
0.176512
0.176468
0.176423
0.176378
0.176332
0.176287
0.176241
0.176196
0.17615
0.176104
0.176058
0.176011
0.175965
0.175918
0.175872
0.175825
0.175778
0.175731
0.175684
0.175636
0.175589
0.175541
0.175494
0.175446
0.175398
0.17535
0.175302
0.175254
0.175206
0.175158
0.175109
0.175061
0.175012
0.174964
0.174915
0.174866
0.174817
0.174768
0.174719
0.17467
0.174621
0.174572
0.174523
0.174473
0.174424
0.174375
0.174325
0.174276
0.174226
0.174176
0.174127
0.174077
0.174027
0.173978
0.173928
0.173878
0.173828
0.173778
0.173728
0.173678
0.173628
0.173578
0.173529
0.173479
0.173429
0.173379
0.173329
0.173279
0.173229
0.173179
0.173129
0.173079
0.173029
0.17298
0.17293
0.17288
0.17283
0.172781
0.172731
0.172682
0.172632
0.172583
0.172533
0.172484
0.172435
0.172386
0.172336
0.172287
0.172238
0.17219
0.172141
0.172092
0.172043
0.171995
0.171946
0.171898
0.17185
0.171801
0.171753
0.171705
0.171658
0.17161
0.171562
0.171514
0.171467
0.171419
0.171372
0.171325
0.171278
0.171231
0.171184
0.171137
0.17109
0.171044
0.170997
0.170951
0.170904
0.170858
0.170812
0.170766
0.17072
0.170674
0.170628
0.170582
0.170537
0.170491
0.170446
0.1704
0.170355
0.17031
0.170264
0.170219
0.170174
0.170129
0.170084
0.17004
0.169995
0.16995
0.169906
0.169861
0.169817
0.169772
0.169728
0.169684
0.16964
0.169596
0.169551
0.169508
0.169464
0.16942
0.169376
0.169332
0.169289
0.169245
0.169201
0.169158
0.169115
0.169071
0.169028
0.168985
0.168941
0.168898
0.168855
0.168812
0.168769
0.168727
0.168684
0.168641
0.168598
0.168556
0.168513
0.168471
0.168428
0.168386
0.168343
0.168301
0.168259
0.168217
0.168175
0.168133
0.168091
0.168049
0.168007
0.167965
0.167924
0.167882
0.16784
0.167799
0.167757
0.167716
0.167675
0.167634
0.167592
0.167551
0.16751
0.167469
0.167428
0.167387
0.167346
0.167306
0.167265
0.167224
0.167184
0.167143
0.167103
0.167063
0.167022
0.166982
0.166942
0.166902
0.166862
0.166822
0.166782
0.166742
0.166702
0.166663
0.166623
0.166583
0.166544
0.166504
0.166465
0.166426
0.166387
0.166347
0.166308
0.166269
0.16623
0.166191
0.166153
0.166114
0.166075
0.166036
0.165998
0.165959
0.165921
0.165883
0.165844
0.165806
0.165768
0.16573
0.165692
0.165654
0.165616
0.165578
0.16554
0.165503
0.165465
0.165428
0.16539
0.165353
0.165315
0.165278
0.165241
0.165204
0.165167
0.16513
0.165093
0.165056
0.165019
0.164982
0.164946
0.164909
0.164873
0.164836
0.1648
0.164763
0.164727
0.164691
0.164655
0.164619
0.164583
0.164547
0.164511
0.164475
0.16444
0.164404
0.164368
0.164333
0.164297
0.164262
0.164227
0.164192
0.164156
0.164121
0.164086
0.164051
0.164017
0.163982
0.163947
0.163912
0.163878
0.163843
0.163809
0.163774
0.16374
0.163706
0.163672
0.163637
0.163603
0.163569
0.163535
0.163502
0.163468
0.163434
0.1634
0.163367
0.163333
0.1633
0.163267
0.163233
0.1632
0.163167
0.163134
0.163101
0.163068
0.163035
0.163002
0.162969
0.162937
0.162904
0.162871
0.162839
0.162807
0.162774
0.162742
0.16271
0.162678
0.162646
0.162613
0.162582
0.16255
0.162518
0.162486
0.162454
0.162423
0.162391
0.16236
0.162328
0.162297
0.162266
0.162235
0.162204
0.162172
0.162141
0.162111
0.16208
0.162049
0.162018
0.161988
0.161957
0.161926
0.161896
0.161866
0.161835
0.161805
0.161775
0.161745
0.161715
0.161685
0.161655
0.161625
0.161595
0.161565
0.161536
0.161506
0.161477
0.161447
0.161418
0.161388
0.161359
0.16133
0.161301
0.161272
0.161243
0.161214
0.161185
0.161156
0.161128
0.161099
0.16107
0.161042
0.161013
0.160985
0.160957
0.160928
0.1609
0.160872
0.160844
0.160816
0.160788
0.16076
0.160732
0.160705
0.160677
0.160649
0.160622
0.160594
0.160567
0.16054
0.160512
0.160485
0.160458
0.160431
0.160404
0.160377
0.16035
0.160323
0.160297
0.16027
0.160243
0.160217
0.16019
0.160164
0.160138
0.160111
0.160085
0.160059
0.160033
0.160007
0.159981
0.159955
0.159929
0.159903
0.159878
0.159852
0.159826
0.159801
0.159775
0.15975
0.159725
0.159699
0.159674
0.159649
0.159624
0.159599
0.159574
0.159549
0.159524
0.1595
0.159475
0.15945
0.159426
0.159401
0.159377
0.159353
0.159328
0.159304
0.15928
0.159256
0.159232
0.159208
0.159184
0.15916
0.159136
0.159112
0.159089
0.159065
0.159042
0.159018
0.158995
0.158971
0.158948
0.158925
0.158902
0.158879
0.158856
0.158833
0.15881
0.158787
0.158764
0.158741
0.158719
0.158696
0.158674
0.158651
0.158629
0.158606
0.158584
0.158562
0.15854
0.158518
0.158496
0.158474
0.158452
0.15843
0.158408
0.158386
0.158365
0.158343
0.158322
0.1583
0.158279
0.158257
0.158236
0.158215
0.158194
0.158173
0.158152
0.158131
0.15811
0.158089
0.158068
0.158047
0.158027
0.158006
0.157986
0.157965
0.157945
0.157924
0.157904
0.157884
0.157864
0.157843
0.157823
0.157803
0.157783
0.157764
0.157744
0.157724
0.157704
0.157685
0.157665
0.157646
0.157626
0.157607
0.157587
0.157568
0.157549
0.15753
0.157511
0.157492
0.157473
0.157454
0.157435
0.157416
0.157398
0.157379
0.15736
0.157342
0.157323
0.157305
0.157286
0.157268
0.15725
0.157232
0.157214
0.157196
0.157178
0.15716
0.157142
0.157124
0.157106
0.157088
0.157071
0.157053
0.157036
0.157018
0.157001
0.156984
0.156966
0.156949
0.156932
0.156915
0.156898
0.156881
0.156864
0.156847
0.15683
0.156813
0.156797
0.15678
0.156764
0.156747
0.156731
0.156714
0.156698
0.156682
0.156665
0.156649
0.156633
0.156617
0.156601
0.156585
0.156569
0.156554
0.156538
0.156522
0.156506
0.156491
0.156475
0.15646
0.156445
0.156429
0.156414
0.156399
0.156384
0.156369
0.156353
0.156339
0.156324
0.156309
0.156294
0.156279
0.156265
0.15625
0.156235
0.156221
0.156206
0.156192
0.156178
0.156163
0.156149
0.156135
0.156121
0.156107
0.156093
0.156079
0.156065
0.156051
0.156038
0.156024
0.15601
0.155997
0.155983
0.15597
0.155956
0.155943
0.15593
0.155916
0.155903
0.15589
0.155877
0.155864
0.155851
0.155838
0.155825
0.155813
0.1558
0.155787
0.155775
0.155762
0.15575
0.155737
0.155725
0.155713
0.1557
0.155688
0.155676
0.155664
0.155652
0.15564
0.155628
0.155616
0.155605
0.155593
0.155581
0.15557
0.155558
0.155547
0.155535
0.155524
0.155513
0.155501
0.15549
0.155479
0.155468
0.155457
0.155446
0.155435
0.155424
0.155413
0.155403
0.155392
0.155381
0.155371
0.15536
0.15535
0.155339
0.155329
0.155319
0.155309
0.155298
0.155288
0.155278
0.155268
0.155258
0.155248
0.155239
0.155229
0.155219
0.15521
0.1552
0.15519
0.155181
0.155172
0.155162
0.155153
0.155144
0.155135
0.155125
0.155116
0.155107
0.155098
0.15509
0.155081
0.155072
0.155063
0.155055
0.155046
0.155037
0.155029
0.155021
0.155012
0.155004
0.154996
0.154987
0.154979
0.154971
0.154963
0.154955
0.154947
0.154939
0.154932
0.154924
0.154916
0.154909
0.154901
0.154894
0.154886
0.154879
0.154871
0.154864
0.154857
0.15485
0.154843
0.154836
0.154829
0.154822
0.154815
0.154808
0.154801
0.154795
0.154788
0.154781
0.154775
0.154768
0.154762
0.154756
0.154749
0.154743
0.154737
0.154731
0.154725
0.154719
0.154713
0.154707
0.154701
0.154696
0.15469
0.154684
0.154679
0.154673
0.154668
0.154662
0.154657
0.154652
0.154646
0.154641
0.154636
0.154631
0.154626
0.154621
0.154616
0.154611
0.154607
0.154602
0.154597
0.154593
0.154588
0.154584
0.154579
0.154575
0.154571
0.154566
0.154562
0.154558
0.154554
0.15455
0.154546
0.154542
0.154539
0.154535
0.154531
0.154527
0.154524
0.15452
0.154517
0.154514
0.15451
0.154507
0.154504
0.154501
0.154497
0.154494
0.154491
0.154488
0.154486
0.154483
0.15448
0.154477
0.154475
0.154472
0.15447
0.154467
0.154465
0.154463
0.15446
0.154458
0.154456
0.154454
0.154452
0.15445
0.154448
0.154446
0.154444
0.154443
0.154441
0.15444
0.154438
0.154437
0.154435
0.154434
0.154432
0.154431
0.15443
0.154429
0.154428
0.154427
0.154426
0.154425
0.154424
0.154424
0.154423
0.154422
0.154422
0.154421
0.154421
0.15442
0.15442
0.15442
0.15442
0.15442
0.15442
0.15442
0.15442
0.15442
0.15442
0.15442
0.154421
0.154421
)
;

boundaryField
{
    sides
    {
        type            calculated;
        value           nonuniform List<scalar> 2(0.154421 0.180032);
    }
    empty
    {
        type            empty;
    }
}


// ************************************************************************* //
