/*--------------------------------*- C++ -*----------------------------------*\
  =========                 |
  \\      /  F ield         | OpenFOAM: The Open Source CFD Toolbox
   \\    /   O peration     | Website:  https://openfoam.org
    \\  /    A nd           | Version:  13
     \\/     M anipulation  |
\*---------------------------------------------------------------------------*/
FoamFile
{
    format      ascii;
    class       volVectorField;
    location    "0.08";
    object      U;
}
// * * * * * * * * * * * * * * * * * * * * * * * * * * * * * * * * * * * * * //

dimensions      [0 1 -1 0 0 0 0];

internalField   nonuniform List<vector> 
1000
(
(30.3722 0 0)
(30.3744 0 0)
(30.3776 0 0)
(30.3805 0 0)
(30.3828 0 0)
(30.3846 0 0)
(30.3861 0 0)
(30.3874 0 0)
(30.3888 0 0)
(30.3905 0 0)
(30.3926 0 0)
(30.3951 0 0)
(30.3983 0 0)
(30.4019 0 0)
(30.4061 0 0)
(30.4108 0 0)
(30.4159 0 0)
(30.4214 0 0)
(30.4274 0 0)
(30.4338 0 0)
(30.4405 0 0)
(30.4475 0 0)
(30.4549 0 0)
(30.4626 0 0)
(30.4705 0 0)
(30.4788 0 0)
(30.4873 0 0)
(30.4961 0 0)
(30.5052 0 0)
(30.5145 0 0)
(30.5241 0 0)
(30.5339 0 0)
(30.5439 0 0)
(30.5542 0 0)
(30.5647 0 0)
(30.5755 0 0)
(30.5865 0 0)
(30.5977 0 0)
(30.6091 0 0)
(30.6208 0 0)
(30.6326 0 0)
(30.6447 0 0)
(30.657 0 0)
(30.6695 0 0)
(30.6823 0 0)
(30.6952 0 0)
(30.7083 0 0)
(30.7217 0 0)
(30.7353 0 0)
(30.749 0 0)
(30.763 0 0)
(30.7771 0 0)
(30.7915 0 0)
(30.8061 0 0)
(30.8208 0 0)
(30.8358 0 0)
(30.8509 0 0)
(30.8663 0 0)
(30.8818 0 0)
(30.8976 0 0)
(30.9135 0 0)
(30.9296 0 0)
(30.9459 0 0)
(30.9624 0 0)
(30.979 0 0)
(30.9959 0 0)
(31.0129 0 0)
(31.0302 0 0)
(31.0476 0 0)
(31.0651 0 0)
(31.0829 0 0)
(31.1008 0 0)
(31.1189 0 0)
(31.1372 0 0)
(31.1557 0 0)
(31.1743 0 0)
(31.1931 0 0)
(31.2121 0 0)
(31.2313 0 0)
(31.2506 0 0)
(31.2701 0 0)
(31.2897 0 0)
(31.3096 0 0)
(31.3295 0 0)
(31.3497 0 0)
(31.37 0 0)
(31.3905 0 0)
(31.4111 0 0)
(31.4319 0 0)
(31.4528 0 0)
(31.4739 0 0)
(31.4952 0 0)
(31.5166 0 0)
(31.5382 0 0)
(31.5599 0 0)
(31.5817 0 0)
(31.6037 0 0)
(31.6259 0 0)
(31.6482 0 0)
(31.6707 0 0)
(31.6933 0 0)
(31.716 0 0)
(31.7389 0 0)
(31.7619 0 0)
(31.7851 0 0)
(31.8084 0 0)
(31.8319 0 0)
(31.8555 0 0)
(31.8792 0 0)
(31.9031 0 0)
(31.9271 0 0)
(31.9512 0 0)
(31.9755 0 0)
(31.9999 0 0)
(32.0244 0 0)
(32.0491 0 0)
(32.0739 0 0)
(32.0988 0 0)
(32.1239 0 0)
(32.1491 0 0)
(32.1744 0 0)
(32.1999 0 0)
(32.2255 0 0)
(32.2512 0 0)
(32.277 0 0)
(32.303 0 0)
(32.3291 0 0)
(32.3554 0 0)
(32.3817 0 0)
(32.4082 0 0)
(32.4349 0 0)
(32.4616 0 0)
(32.4885 0 0)
(32.5156 0 0)
(32.5427 0 0)
(32.57 0 0)
(32.5975 0 0)
(32.6251 0 0)
(32.6528 0 0)
(32.6806 0 0)
(32.7086 0 0)
(32.7367 0 0)
(32.765 0 0)
(32.7934 0 0)
(32.822 0 0)
(32.8507 0 0)
(32.8795 0 0)
(32.9085 0 0)
(32.9377 0 0)
(32.9669 0 0)
(32.9964 0 0)
(33.026 0 0)
(33.0557 0 0)
(33.0856 0 0)
(33.1157 0 0)
(33.1459 0 0)
(33.1762 0 0)
(33.2068 0 0)
(33.2374 0 0)
(33.2683 0 0)
(33.2993 0 0)
(33.3304 0 0)
(33.3617 0 0)
(33.3932 0 0)
(33.4249 0 0)
(33.4567 0 0)
(33.4887 0 0)
(33.5208 0 0)
(33.5531 0 0)
(33.5856 0 0)
(33.6183 0 0)
(33.6511 0 0)
(33.6841 0 0)
(33.7172 0 0)
(33.7505 0 0)
(33.784 0 0)
(33.8177 0 0)
(33.8516 0 0)
(33.8856 0 0)
(33.9198 0 0)
(33.9541 0 0)
(33.9887 0 0)
(34.0234 0 0)
(34.0583 0 0)
(34.0933 0 0)
(34.1286 0 0)
(34.164 0 0)
(34.1996 0 0)
(34.2354 0 0)
(34.2713 0 0)
(34.3075 0 0)
(34.3438 0 0)
(34.3803 0 0)
(34.4169 0 0)
(34.4538 0 0)
(34.4908 0 0)
(34.528 0 0)
(34.5654 0 0)
(34.603 0 0)
(34.6407 0 0)
(34.6787 0 0)
(34.7168 0 0)
(34.7551 0 0)
(34.7936 0 0)
(34.8322 0 0)
(34.8711 0 0)
(34.9101 0 0)
(34.9493 0 0)
(34.9887 0 0)
(35.0283 0 0)
(35.068 0 0)
(35.108 0 0)
(35.1481 0 0)
(35.1884 0 0)
(35.2289 0 0)
(35.2696 0 0)
(35.3104 0 0)
(35.3515 0 0)
(35.3927 0 0)
(35.4341 0 0)
(35.4757 0 0)
(35.5175 0 0)
(35.5595 0 0)
(35.6016 0 0)
(35.6439 0 0)
(35.6865 0 0)
(35.7292 0 0)
(35.7721 0 0)
(35.8152 0 0)
(35.8584 0 0)
(35.9019 0 0)
(35.9455 0 0)
(35.9893 0 0)
(36.0333 0 0)
(36.0775 0 0)
(36.1219 0 0)
(36.1665 0 0)
(36.2112 0 0)
(36.2561 0 0)
(36.3013 0 0)
(36.3466 0 0)
(36.392 0 0)
(36.4377 0 0)
(36.4836 0 0)
(36.5296 0 0)
(36.5758 0 0)
(36.6223 0 0)
(36.6689 0 0)
(36.7156 0 0)
(36.7626 0 0)
(36.8098 0 0)
(36.8571 0 0)
(36.9046 0 0)
(36.9523 0 0)
(37.0002 0 0)
(37.0483 0 0)
(37.0965 0 0)
(37.145 0 0)
(37.1936 0 0)
(37.2424 0 0)
(37.2914 0 0)
(37.3406 0 0)
(37.3899 0 0)
(37.4394 0 0)
(37.4892 0 0)
(37.5391 0 0)
(37.5892 0 0)
(37.6394 0 0)
(37.6899 0 0)
(37.7405 0 0)
(37.7913 0 0)
(37.8423 0 0)
(37.8935 0 0)
(37.9448 0 0)
(37.9964 0 0)
(38.0481 0 0)
(38.1 0 0)
(38.152 0 0)
(38.2043 0 0)
(38.2567 0 0)
(38.3093 0 0)
(38.3621 0 0)
(38.4151 0 0)
(38.4682 0 0)
(38.5215 0 0)
(38.575 0 0)
(38.6287 0 0)
(38.6826 0 0)
(38.7366 0 0)
(38.7908 0 0)
(38.8452 0 0)
(38.8997 0 0)
(38.9545 0 0)
(39.0094 0 0)
(39.0645 0 0)
(39.1197 0 0)
(39.1751 0 0)
(39.2307 0 0)
(39.2865 0 0)
(39.3425 0 0)
(39.3986 0 0)
(39.4549 0 0)
(39.5114 0 0)
(39.568 0 0)
(39.6248 0 0)
(39.6818 0 0)
(39.7389 0 0)
(39.7962 0 0)
(39.8537 0 0)
(39.9114 0 0)
(39.9692 0 0)
(40.0272 0 0)
(40.0854 0 0)
(40.1437 0 0)
(40.2022 0 0)
(40.2609 0 0)
(40.3197 0 0)
(40.3787 0 0)
(40.4379 0 0)
(40.4972 0 0)
(40.5567 0 0)
(40.6164 0 0)
(40.6762 0 0)
(40.7362 0 0)
(40.7964 0 0)
(40.8567 0 0)
(40.9172 0 0)
(40.9778 0 0)
(41.0386 0 0)
(41.0996 0 0)
(41.1607 0 0)
(41.222 0 0)
(41.2835 0 0)
(41.3451 0 0)
(41.4068 0 0)
(41.4688 0 0)
(41.5309 0 0)
(41.5931 0 0)
(41.6555 0 0)
(41.7181 0 0)
(41.7808 0 0)
(41.8437 0 0)
(41.9067 0 0)
(41.9699 0 0)
(42.0333 0 0)
(42.0968 0 0)
(42.1604 0 0)
(42.2242 0 0)
(42.2882 0 0)
(42.3523 0 0)
(42.4166 0 0)
(42.481 0 0)
(42.5456 0 0)
(42.6103 0 0)
(42.6752 0 0)
(42.7403 0 0)
(42.8054 0 0)
(42.8708 0 0)
(42.9363 0 0)
(43.0019 0 0)
(43.0677 0 0)
(43.1336 0 0)
(43.1997 0 0)
(43.2659 0 0)
(43.3323 0 0)
(43.3988 0 0)
(43.4655 0 0)
(43.5323 0 0)
(43.5993 0 0)
(43.6664 0 0)
(43.7336 0 0)
(43.801 0 0)
(43.8686 0 0)
(43.9363 0 0)
(44.0041 0 0)
(44.0721 0 0)
(44.1402 0 0)
(44.2084 0 0)
(44.2768 0 0)
(44.3454 0 0)
(44.414 0 0)
(44.4829 0 0)
(44.5518 0 0)
(44.6209 0 0)
(44.6902 0 0)
(44.7595 0 0)
(44.8291 0 0)
(44.8987 0 0)
(44.9685 0 0)
(45.0384 0 0)
(45.1085 0 0)
(45.1787 0 0)
(45.2491 0 0)
(45.3195 0 0)
(45.3901 0 0)
(45.4609 0 0)
(45.5318 0 0)
(45.6028 0 0)
(45.6739 0 0)
(45.7452 0 0)
(45.8166 0 0)
(45.8882 0 0)
(45.9598 0 0)
(46.0317 0 0)
(46.1036 0 0)
(46.1757 0 0)
(46.2479 0 0)
(46.3202 0 0)
(46.3927 0 0)
(46.4653 0 0)
(46.538 0 0)
(46.6108 0 0)
(46.6838 0 0)
(46.7569 0 0)
(46.8301 0 0)
(46.9035 0 0)
(46.977 0 0)
(47.0506 0 0)
(47.1243 0 0)
(47.1982 0 0)
(47.2722 0 0)
(47.3463 0 0)
(47.4205 0 0)
(47.4949 0 0)
(47.5694 0 0)
(47.644 0 0)
(47.7187 0 0)
(47.7936 0 0)
(47.8686 0 0)
(47.9437 0 0)
(48.0189 0 0)
(48.0942 0 0)
(48.1697 0 0)
(48.2453 0 0)
(48.321 0 0)
(48.3968 0 0)
(48.4727 0 0)
(48.5488 0 0)
(48.625 0 0)
(48.7012 0 0)
(48.7777 0 0)
(48.8542 0 0)
(48.9308 0 0)
(49.0076 0 0)
(49.0845 0 0)
(49.1615 0 0)
(49.2386 0 0)
(49.3158 0 0)
(49.3932 0 0)
(49.4706 0 0)
(49.5482 0 0)
(49.6259 0 0)
(49.7037 0 0)
(49.7816 0 0)
(49.8596 0 0)
(49.9377 0 0)
(50.016 0 0)
(50.0944 0 0)
(50.1728 0 0)
(50.2514 0 0)
(50.3301 0 0)
(50.4089 0 0)
(50.4878 0 0)
(50.5668 0 0)
(50.646 0 0)
(50.7252 0 0)
(50.8046 0 0)
(50.884 0 0)
(50.9636 0 0)
(51.0433 0 0)
(51.1231 0 0)
(51.203 0 0)
(51.283 0 0)
(51.3631 0 0)
(51.4433 0 0)
(51.5236 0 0)
(51.604 0 0)
(51.6845 0 0)
(51.7652 0 0)
(51.8459 0 0)
(51.9268 0 0)
(52.0077 0 0)
(52.0888 0 0)
(52.1699 0 0)
(52.2512 0 0)
(52.3325 0 0)
(52.414 0 0)
(52.4956 0 0)
(52.5772 0 0)
(52.659 0 0)
(52.7409 0 0)
(52.8228 0 0)
(52.9049 0 0)
(52.9871 0 0)
(53.0693 0 0)
(53.1517 0 0)
(53.2342 0 0)
(53.3167 0 0)
(53.3994 0 0)
(53.4822 0 0)
(53.565 0 0)
(53.648 0 0)
(53.731 0 0)
(53.8142 0 0)
(53.8975 0 0)
(53.9808 0 0)
(54.0643 0 0)
(54.1478 0 0)
(54.2314 0 0)
(54.3152 0 0)
(54.399 0 0)
(54.4829 0 0)
(54.5669 0 0)
(54.651 0 0)
(54.7353 0 0)
(54.8196 0 0)
(54.9039 0 0)
(54.9884 0 0)
(55.073 0 0)
(55.1577 0 0)
(55.2425 0 0)
(55.3273 0 0)
(55.4123 0 0)
(55.4973 0 0)
(55.5824 0 0)
(55.6676 0 0)
(55.753 0 0)
(55.8384 0 0)
(55.9239 0 0)
(56.0094 0 0)
(56.0951 0 0)
(56.1809 0 0)
(56.2667 0 0)
(56.3527 0 0)
(56.4387 0 0)
(56.5248 0 0)
(56.611 0 0)
(56.6973 0 0)
(56.7837 0 0)
(56.8701 0 0)
(56.9567 0 0)
(57.0433 0 0)
(57.1301 0 0)
(57.2169 0 0)
(57.3038 0 0)
(57.3907 0 0)
(57.4778 0 0)
(57.565 0 0)
(57.6522 0 0)
(57.7395 0 0)
(57.8269 0 0)
(57.9144 0 0)
(58.002 0 0)
(58.0896 0 0)
(58.1774 0 0)
(58.2652 0 0)
(58.3531 0 0)
(58.4411 0 0)
(58.5291 0 0)
(58.6173 0 0)
(58.7055 0 0)
(58.7938 0 0)
(58.8822 0 0)
(58.9707 0 0)
(59.0592 0 0)
(59.1479 0 0)
(59.2366 0 0)
(59.3254 0 0)
(59.4142 0 0)
(59.5032 0 0)
(59.5922 0 0)
(59.6813 0 0)
(59.7705 0 0)
(59.8598 0 0)
(59.9491 0 0)
(60.0385 0 0)
(60.128 0 0)
(60.2176 0 0)
(60.3072 0 0)
(60.397 0 0)
(60.4868 0 0)
(60.5766 0 0)
(60.6666 0 0)
(60.7566 0 0)
(60.8467 0 0)
(60.9369 0 0)
(61.0271 0 0)
(61.1175 0 0)
(61.2079 0 0)
(61.2983 0 0)
(61.3889 0 0)
(61.4795 0 0)
(61.5702 0 0)
(61.661 0 0)
(61.7518 0 0)
(61.8427 0 0)
(61.9337 0 0)
(62.0247 0 0)
(62.1159 0 0)
(62.2071 0 0)
(62.2983 0 0)
(62.3897 0 0)
(62.4811 0 0)
(62.5726 0 0)
(62.6641 0 0)
(62.7557 0 0)
(62.8474 0 0)
(62.9392 0 0)
(63.031 0 0)
(63.1229 0 0)
(63.2148 0 0)
(63.3069 0 0)
(63.399 0 0)
(63.4911 0 0)
(63.5834 0 0)
(63.6757 0 0)
(63.768 0 0)
(63.8605 0 0)
(63.953 0 0)
(64.0455 0 0)
(64.1382 0 0)
(64.2309 0 0)
(64.3236 0 0)
(64.4164 0 0)
(64.5093 0 0)
(64.6023 0 0)
(64.6953 0 0)
(64.7884 0 0)
(64.8815 0 0)
(64.9748 0 0)
(65.068 0 0)
(65.1614 0 0)
(65.2548 0 0)
(65.3482 0 0)
(65.4418 0 0)
(65.5353 0 0)
(65.629 0 0)
(65.7227 0 0)
(65.8165 0 0)
(65.9103 0 0)
(66.0042 0 0)
(66.0982 0 0)
(66.1922 0 0)
(66.2863 0 0)
(66.3804 0 0)
(66.4746 0 0)
(66.5688 0 0)
(66.6631 0 0)
(66.7575 0 0)
(66.8519 0 0)
(66.9464 0 0)
(67.041 0 0)
(67.1356 0 0)
(67.2302 0 0)
(67.325 0 0)
(67.4197 0 0)
(67.5146 0 0)
(67.6095 0 0)
(67.7044 0 0)
(67.7994 0 0)
(67.8945 0 0)
(67.9896 0 0)
(68.0847 0 0)
(68.18 0 0)
(68.2752 0 0)
(68.3706 0 0)
(68.466 0 0)
(68.5614 0 0)
(68.6569 0 0)
(68.7524 0 0)
(68.848 0 0)
(68.9437 0 0)
(69.0394 0 0)
(69.1351 0 0)
(69.231 0 0)
(69.3268 0 0)
(69.4227 0 0)
(69.5187 0 0)
(69.6147 0 0)
(69.7108 0 0)
(69.8069 0 0)
(69.9031 0 0)
(69.9993 0 0)
(70.0956 0 0)
(70.1919 0 0)
(70.2882 0 0)
(70.3847 0 0)
(70.4811 0 0)
(70.5776 0 0)
(70.6742 0 0)
(70.7708 0 0)
(70.8675 0 0)
(70.9642 0 0)
(71.0609 0 0)
(71.1577 0 0)
(71.2546 0 0)
(71.3515 0 0)
(71.4484 0 0)
(71.5454 0 0)
(71.6424 0 0)
(71.7395 0 0)
(71.8366 0 0)
(71.9338 0 0)
(72.031 0 0)
(72.1283 0 0)
(72.2256 0 0)
(72.3229 0 0)
(72.4203 0 0)
(72.5177 0 0)
(72.6152 0 0)
(72.7127 0 0)
(72.8103 0 0)
(72.9079 0 0)
(73.0056 0 0)
(73.1033 0 0)
(73.201 0 0)
(73.2988 0 0)
(73.3966 0 0)
(73.4944 0 0)
(73.5923 0 0)
(73.6903 0 0)
(73.7883 0 0)
(73.8863 0 0)
(73.9843 0 0)
(74.0824 0 0)
(74.1806 0 0)
(74.2788 0 0)
(74.377 0 0)
(74.4752 0 0)
(74.5735 0 0)
(74.6719 0 0)
(74.7702 0 0)
(74.8686 0 0)
(74.9671 0 0)
(75.0656 0 0)
(75.1641 0 0)
(75.2626 0 0)
(75.3612 0 0)
(75.4599 0 0)
(75.5585 0 0)
(75.6572 0 0)
(75.756 0 0)
(75.8547 0 0)
(75.9535 0 0)
(76.0524 0 0)
(76.1512 0 0)
(76.2502 0 0)
(76.3491 0 0)
(76.4481 0 0)
(76.5471 0 0)
(76.6461 0 0)
(76.7452 0 0)
(76.8443 0 0)
(76.9435 0 0)
(77.0426 0 0)
(77.1418 0 0)
(77.2411 0 0)
(77.3403 0 0)
(77.4396 0 0)
(77.539 0 0)
(77.6383 0 0)
(77.7377 0 0)
(77.8371 0 0)
(77.9366 0 0)
(78.0361 0 0)
(78.1356 0 0)
(78.2351 0 0)
(78.3347 0 0)
(78.4343 0 0)
(78.5339 0 0)
(78.6336 0 0)
(78.7333 0 0)
(78.833 0 0)
(78.9327 0 0)
(79.0325 0 0)
(79.1323 0 0)
(79.2321 0 0)
(79.3319 0 0)
(79.4318 0 0)
(79.5317 0 0)
(79.6316 0 0)
(79.7316 0 0)
(79.8316 0 0)
(79.9316 0 0)
(80.0316 0 0)
(80.1316 0 0)
(80.2317 0 0)
(80.3318 0 0)
(80.4319 0 0)
(80.5321 0 0)
(80.6322 0 0)
(80.7324 0 0)
(80.8327 0 0)
(80.9329 0 0)
(81.0332 0 0)
(81.1334 0 0)
(81.2337 0 0)
(81.3341 0 0)
(81.4344 0 0)
(81.5348 0 0)
(81.6352 0 0)
(81.7356 0 0)
(81.836 0 0)
(81.9365 0 0)
(82.0369 0 0)
(82.1374 0 0)
(82.2379 0 0)
(82.3385 0 0)
(82.439 0 0)
(82.5396 0 0)
(82.6402 0 0)
(82.7408 0 0)
(82.8414 0 0)
(82.9421 0 0)
(83.0427 0 0)
(83.1434 0 0)
(83.2441 0 0)
(83.3448 0 0)
(83.4455 0 0)
(83.5463 0 0)
(83.647 0 0)
(83.7478 0 0)
(83.8486 0 0)
(83.9494 0 0)
(84.0502 0 0)
(84.1511 0 0)
(84.2519 0 0)
(84.3528 0 0)
(84.4537 0 0)
(84.5546 0 0)
(84.6555 0 0)
(84.7564 0 0)
(84.8573 0 0)
(84.9583 0 0)
(85.0592 0 0)
(85.1602 0 0)
(85.2612 0 0)
(85.3622 0 0)
(85.4632 0 0)
(85.5642 0 0)
(85.6653 0 0)
(85.7663 0 0)
(85.8674 0 0)
(85.9685 0 0)
(86.0695 0 0)
(86.1706 0 0)
(86.2717 0 0)
(86.3728 0 0)
(86.474 0 0)
(86.5751 0 0)
(86.6762 0 0)
(86.7774 0 0)
(86.8785 0 0)
(86.9797 0 0)
(87.0809 0 0)
(87.1821 0 0)
(87.2833 0 0)
(87.3845 0 0)
(87.4857 0 0)
(87.5869 0 0)
(87.6881 0 0)
(87.7893 0 0)
(87.8905 0 0)
(87.9918 0 0)
(88.093 0 0)
(88.1943 0 0)
(88.2955 0 0)
(88.3968 0 0)
(88.4981 0 0)
(88.5993 0 0)
(88.7006 0 0)
(88.8019 0 0)
(88.9032 0 0)
(89.0045 0 0)
(89.1058 0 0)
(89.2071 0 0)
(89.3084 0 0)
(89.4097 0 0)
(89.511 0 0)
(89.6123 0 0)
(89.7136 0 0)
(89.8149 0 0)
(89.9162 0 0)
(90.0176 0 0)
(90.1189 0 0)
(90.2202 0 0)
(90.3215 0 0)
(90.4229 0 0)
(90.5242 0 0)
(90.6255 0 0)
(90.7268 0 0)
(90.8282 0 0)
(90.9295 0 0)
(91.0308 0 0)
(91.1321 0 0)
(91.2335 0 0)
(91.3348 0 0)
(91.4361 0 0)
(91.5374 0 0)
(91.6387 0 0)
(91.7401 0 0)
(91.8414 0 0)
(91.9427 0 0)
(92.044 0 0)
(92.1453 0 0)
(92.2466 0 0)
(92.3479 0 0)
(92.4492 0 0)
(92.5505 0 0)
(92.6518 0 0)
(92.7531 0 0)
(92.8544 0 0)
(92.9557 0 0)
(93.0569 0 0)
(93.1582 0 0)
(93.2595 0 0)
(93.3607 0 0)
(93.462 0 0)
(93.5632 0 0)
(93.6645 0 0)
(93.7657 0 0)
(93.8669 0 0)
(93.9682 0 0)
(94.0694 0 0)
(94.1706 0 0)
(94.2718 0 0)
(94.373 0 0)
(94.4742 0 0)
(94.5754 0 0)
(94.6765 0 0)
(94.7777 0 0)
(94.8789 0 0)
(94.98 0 0)
(95.0811 0 0)
(95.1823 0 0)
(95.2834 0 0)
(95.3845 0 0)
(95.4856 0 0)
(95.5867 0 0)
(95.6878 0 0)
(95.7889 0 0)
(95.8899 0 0)
(95.991 0 0)
(96.092 0 0)
(96.1931 0 0)
(96.2941 0 0)
(96.3951 0 0)
(96.4961 0 0)
(96.5971 0 0)
(96.6981 0 0)
(96.799 0 0)
(96.9 0 0)
(97.0009 0 0)
(97.1018 0 0)
(97.2028 0 0)
(97.3037 0 0)
(97.4045 0 0)
(97.5054 0 0)
(97.6063 0 0)
(97.7071 0 0)
(97.808 0 0)
(97.9088 0 0)
(98.0096 0 0)
(98.1104 0 0)
(98.2112 0 0)
(98.3119 0 0)
(98.4127 0 0)
(98.5134 0 0)
(98.6141 0 0)
(98.7149 0 0)
(98.8155 0 0)
(98.9162 0 0)
(99.0169 0 0)
(99.1175 0 0)
(99.2182 0 0)
(99.3188 0 0)
(99.4194 0 0)
(99.5199 0 0)
(99.6205 0 0)
(99.7211 0 0)
(99.8216 0 0)
(99.9221 0 0)
(100.023 0 0)
(100.123 0 0)
(100.224 0 0)
(100.324 0 0)
(100.424 0 0)
(100.525 0 0)
(100.625 0 0)
(100.725 0 0)
(100.826 0 0)
(100.926 0 0)
(101.026 0 0)
(101.126 0 0)
(101.227 0 0)
(101.327 0 0)
(101.427 0 0)
(101.527 0 0)
(101.627 0 0)
(101.729 0 0)
)
;

boundaryField
{
    sides
    {
        type            zeroGradient;
    }
    empty
    {
        type            empty;
    }
}


// ************************************************************************* //
