/*--------------------------------*- C++ -*----------------------------------*\
  =========                 |
  \\      /  F ield         | OpenFOAM: The Open Source CFD Toolbox
   \\    /   O peration     | Website:  https://openfoam.org
    \\  /    A nd           | Version:  13
     \\/     M anipulation  |
\*---------------------------------------------------------------------------*/
FoamFile
{
    format      ascii;
    class       volVectorField;
    location    "42.301942";
    object      U;
}
// * * * * * * * * * * * * * * * * * * * * * * * * * * * * * * * * * * * * * //

dimensions      [0 1 -1 0 0 0 0];

internalField   nonuniform List<vector> 
17140
(
(1.4510753e-06 -0.00011309687 2.8926149e-23)
(3.1851259e-06 -0.00035356301 3.2034305e-24)
(3.1408153e-06 -0.00062117418 -2.1141747e-22)
(6.1730093e-07 -0.00091632949 2.3232839e-22)
(-5.2158221e-06 -0.0012392887 -2.7146861e-23)
(-1.5433091e-05 -0.0015901468 8.8801221e-23)
(-3.1389674e-05 -0.0019688552 1.493982e-22)
(-5.4759195e-05 -0.00237529 -7.2854345e-23)
(-8.7613715e-05 -0.002809145 -2.382354e-22)
(-0.00013250767 -0.0032699748 -5.835698e-22)
(-0.00019257387 -0.0037572406 8.6385127e-22)
(-0.00027163484 -0.0042703591 -7.6826547e-22)
(-0.00037433397 -0.0048087823 -1.17326e-22)
(-0.00050628183 -0.0053721002 6.6126175e-22)
(-0.00067422129 -0.0059601755 -7.314371e-23)
(-0.00088620667 -0.0065733073 5.7680747e-22)
(-0.001151795 -0.0072124182 -2.1296703e-23)
(-0.0014822415 -0.0078792569 4.8066647e-24)
(-0.0018906899 -0.0085765931 3.3427471e-22)
(-0.0023923395 -0.0093083764 -4.2899358e-22)
(-0.00300457 -0.010079812 2.0429555e-22)
(-0.0037469901 -0.010897293 -3.8395712e-23)
(-0.0046413724 -0.011768107 -2.7823915e-22)
(-0.0057114222 -0.012699848 2.7278152e-22)
(-0.0069823183 -0.013699437 4.2509699e-22)
(-0.0084799501 -0.014771739 -3.3407938e-22)
(-0.010229772 -0.015917796 -1.6060331e-21)
(-0.012255194 -0.017132895 -1.851203e-22)
(-0.014575469 -0.018404875 1.5851666e-21)
(-0.017203119 -0.019713431 3.6233533e-22)
(-0.020141155 -0.021031467 1.2600249e-21)
(-0.023380719 -0.022329583 -1.6109208e-21)
(-0.026900296 -0.02358378 4.0706916e-22)
(-0.030667791 -0.024784091 1.8716337e-22)
(-0.034645879 -0.025939234 1.7545269e-21)
(-0.038798837 -0.027074207 -7.3141413e-22)
(-0.043097227 -0.028223674 1.052991e-21)
(-0.047518568 -0.029427148 6.8131558e-22)
(-0.05204573 -0.030728939 2.9963027e-22)
(-0.056665569 -0.032181946 -8.7960117e-22)
(-0.061369426 -0.033853373 -1.6255072e-21)
(-0.066154799 -0.035831504 -1.4560442e-21)
(-0.071027666 -0.038234466 -6.3218898e-22)
(-0.076010455 -0.041216242 3.0840754e-21)
(-0.081141209 -0.044963815 2.2667351e-21)
(-0.08647454 -0.049705661 -5.600012e-22)
(-0.092086123 -0.05572261 3.8508276e-21)
(-0.09806592 -0.063349144 1.3186424e-21)
(-0.10450858 -0.072969424 -1.3537194e-21)
(-0.11150231 -0.085016854 -3.3377017e-21)
(-0.11911137 -0.099940936 2.0643789e-21)
(-0.1274094 -0.11810003 1.3095053e-21)
(-0.1364172 -0.13944247 -3.426114e-21)
(-0.14618814 -0.16308269 -1.6276102e-21)
(-0.15665973 -0.18623024 -1.1738967e-21)
(-0.16812075 -0.2033812 9.2313704e-22)
(-0.17990863 -0.20635159 -2.5946232e-21)
(-0.19272543 -0.17451302 -2.2695256e-21)
(-0.2014879 -0.080025068 -6.0216886e-22)
(-0.17290408 0.11581822 1.5255573e-21)
(-0.044608952 0.3622588 9.010462e-22)
(0.071053744 0.51003788 2.1071756e-21)
(0.1349281 0.5370063 2.3334791e-22)
(0.17523794 0.39127715 -2.4410842e-21)
(0.34556419 0.026149485 2.2308915e-21)
(3.3484832e-06 -8.3613049e-05 -8.2583889e-24)
(9.0703112e-06 -0.0002622475 1.1122579e-21)
(1.3422385e-05 -0.0004615341 -9.8949645e-22)
(1.5709845e-05 -0.0006811794 2.6963494e-22)
(1.4958777e-05 -0.00092077159 5.5677566e-22)
(9.9399318e-06 -0.0011797656 -1.0632935e-21)
(-5.2005808e-07 -0.001457568 1.1075549e-21)
(-1.8215291e-05 -0.0017532815 -9.7387239e-23)
(-4.5602802e-05 -0.002065698 3.0371518e-22)
(-8.5150141e-05 -0.0023935955 5.1482706e-24)
(-0.00014017614 -0.0027356661 1.0108829e-21)
(-0.00021469568 -0.0030905948 -1.602671e-21)
(-0.00031353134 -0.0034571665 -1.3200894e-22)
(-0.00044251 -0.003834403 1.2985391e-21)
(-0.00060859428 -0.004221746 -3.969919e-22)
(-0.00082008058 -0.0046192737 -2.5078037e-22)
(-0.0010867713 -0.0050279552 1.5800918e-21)
(-0.0014201698 -0.0054499302 -5.1033275e-21)
(-0.0018336601 -0.0058887945 3.1625556e-21)
(-0.0023426659 -0.006349862 -3.7439127e-21)
(-0.0029647643 -0.0068403538 5.4530992e-21)
(-0.0037197256 -0.0073694528 -1.31613e-21)
(-0.0046294403 -0.0079481419 -5.3239729e-22)
(-0.0057176845 -0.008588737 1.7092792e-21)
(-0.0070096618 -0.0093040316 -6.0225037e-21)
(-0.0085312516 -0.010105998 -8.8130199e-22)
(-0.010307881 -0.011004069 4.464123e-21)
(-0.012362944 -0.012003137 -4.9034304e-21)
(-0.014715723 -0.013101609 6.5995805e-22)
(-0.017378859 -0.014290056 6.3230593e-21)
(-0.020355641 -0.015551263 -6.3787687e-22)
(-0.023637681 -0.01686254 -4.7804387e-21)
(-0.027204244 -0.018200477 -1.1944729e-22)
(-0.031024444 -0.01954741 3.3314199e-21)
(-0.035062585 -0.020896882 -3.5600049e-21)
(-0.039284903 -0.022255606 1.5316286e-21)
(-0.043664077 -0.023641964 -1.7145357e-21)
(-0.048179867 -0.025083651 -5.2254658e-21)
(-0.052817599 -0.026617128 -1.1301501e-21)
(-0.057567092 -0.028289663 -4.2916692e-21)
(-0.062423631 -0.030163443 5.375385e-21)
(-0.067390042 -0.032321273 4.9025846e-21)
(-0.072479579 -0.034874719 8.3637281e-22)
(-0.077725656 -0.037970369 -6.7119712e-21)
(-0.083180252 -0.041788847 3.2158148e-21)
(-0.088915741 -0.046553642 1.1243059e-21)
(-0.09503138 -0.052542114 -5.8659829e-22)
(-0.10164604 -0.060089239 -1.9070557e-21)
(-0.10888877 -0.069586018 9.3660499e-22)
(-0.11688484 -0.081477382 -1.7417781e-21)
(-0.12573207 -0.096225343 -1.0428553e-20)
(-0.13551196 -0.11420212 -4.9131012e-22)
(-0.14622591 -0.1353787 2.2470525e-21)
(-0.15782927 -0.15889072 -5.0289735e-21)
(-0.17015315 -0.18195675 4.3079479e-21)
(-0.18309465 -0.19911688 -1.22428e-20)
(-0.19650007 -0.20224073 -3.3651486e-21)
(-0.21021627 -0.17139858 1.0118226e-20)
(-0.21946827 -0.083598108 -1.6697193e-21)
(-0.20033834 0.092133424 -2.0676645e-21)
(-0.097223123 0.32289681 -2.7888127e-22)
(0.021264516 0.47859933 2.1961494e-21)
(0.10418755 0.51570907 -4.2391511e-21)
(0.19876343 0.35431011 -2.1041787e-21)
(0.43712854 -0.028552945 -3.0990112e-21)
(3.547577e-06 -5.2647527e-05 -4.5620448e-22)
(9.7721065e-06 -0.00016632528 3.3709838e-22)
(1.4614207e-05 -0.00029386374 8.9630572e-23)
(1.7470517e-05 -0.0004344485 -8.4947516e-23)
(1.7151234e-05 -0.00058707948 4.115089e-22)
(1.235508e-05 -0.0007503208 3.0601257e-23)
(1.9750957e-06 -0.00092259217 3.9051884e-22)
(-1.6262918e-05 -0.0011023256 4.2041537e-22)
(-4.4595911e-05 -0.001287633 -3.4318362e-21)
(-8.5798074e-05 -0.001476491 3.0599713e-21)
(-0.00014334746 -0.0016668163 -1.4618471e-21)
(-0.000221396 -0.0018565524 -2.1376124e-21)
(-0.00032496269 -0.0020438123 4.2274809e-21)
(-0.00046004359 -0.0022270549 5.2172601e-22)
(-0.00063378651 -0.0024053126 -2.005575e-21)
(-0.00085464897 -0.0025784656 -1.3718519e-21)
(-0.0011325787 -0.002747564 1.5807796e-21)
(-0.0014791882 -0.0029151877 -5.6791772e-21)
(-0.0019079244 -0.0030858251 3.3255462e-21)
(-0.0024342115 -0.003266239 -1.6275385e-21)
(-0.0030755516 -0.0034657728 5.4193783e-21)
(-0.0038515519 -0.0036965292 1.389494e-21)
(-0.0047838446 -0.0039733371 -2.8551732e-21)
(-0.0058958517 -0.0043134126 4.2259554e-21)
(-0.0072123382 -0.0047356171 1.6363861e-21)
(-0.0087586841 -0.0052592476 -1.9284065e-21)
(-0.010559797 -0.005902349 -1.0751206e-20)
(-0.012638584 -0.0066796426 -4.7780059e-21)
(-0.015013933 -0.0076002949 2.3372124e-21)
(-0.017698276 -0.0086658829 -2.456251e-21)
(-0.020695107 -0.0098691088 1.4997929e-21)
(-0.023996698 -0.011194086 8.3046819e-21)
(-0.027583486 -0.012617402 -2.7063224e-21)
(-0.031426434 -0.014113002 -7.8004853e-21)
(-0.035492179 -0.01565864 2.4883849e-21)
(-0.039749443 -0.017242288 3.3504862e-21)
(-0.044173231 -0.018865755 -5.5679508e-21)
(-0.048745432 -0.020544685 -1.6456901e-21)
(-0.053453524 -0.02230737 2.8051966e-21)
(-0.058289819 -0.024194934 1.0891919e-21)
(-0.063252867 -0.026263811 -5.2071167e-21)
(-0.068349878 -0.028590336 1.4782133e-21)
(-0.073600191 -0.031278084 2.1238093e-21)
(-0.079046714 -0.034464711 5.7270975e-21)
(-0.084752849 -0.038323471 -1.1037925e-20)
(-0.090805396 -0.043071411 7.2776592e-21)
(-0.097322652 -0.048980897 1.8843039e-21)
(-0.10444559 -0.056386681 7.4963618e-21)
(-0.11232733 -0.065687096 9.102027e-21)
(-0.12111431 -0.077341743 4.583953e-22)
(-0.13091411 -0.091834254 -2.0643876e-21)
(-0.14178051 -0.10956729 1.4803588e-20)
(-0.15363499 -0.13056093 6.3116026e-21)
(-0.16624101 -0.15400278 6.4779605e-21)
(-0.1791685 -0.17716659 2.098883e-21)
(-0.19187939 -0.19456869 1.6329082e-20)
(-0.2043206 -0.19825091 -5.9805891e-21)
(-0.2156731 -0.16917991 1.3243368e-21)
(-0.22216437 -0.087361978 1.4559896e-20)
(-0.20451452 0.071539096 5.2266654e-21)
(-0.11828805 0.28470941 -4.2717393e-21)
(0.0016120473 0.4426551 -1.1604582e-20)
(0.10499311 0.48326366 3.6602345e-21)
(0.2720063 0.30403275 8.4329712e-21)
(0.55048611 -0.083359531 4.6278284e-21)
(1.9326719e-06 -2.0775188e-05 1.5323931e-21)
(4.8634937e-06 -6.7595836e-05 -2.4378671e-21)
(6.1487881e-06 -0.00012127517 8.8124961e-22)
(4.8906415e-06 -0.00018029116 -9.5762262e-23)
(2.0247674e-08 -0.00024285563 1.8926475e-21)
(-9.8110682e-06 -0.00030700483 -1.9572218e-21)
(-2.6270795e-05 -0.00037046563 2.9672962e-21)
(-5.1393176e-05 -0.0004307396 -1.3948787e-21)
(-8.7652062e-05 -0.00048514648 -5.2989349e-21)
(-0.00013804135 -0.00053086586 1.272486e-21)
(-0.00020617036 -0.0005650272 4.8401856e-21)
(-0.00029636973 -0.00058483237 -1.4748678e-21)
(-0.00041381162 -0.0005877233 -9.8216616e-23)
(-0.00056464285 -0.00057159965 3.840638e-21)
(-0.00075613009 -0.00053509213 -1.1973317e-20)
(-0.00099681481 -0.00047789522 7.3188968e-21)
(-0.0012966739 -0.00040115759 6.9390541e-23)
(-0.0016672789 -0.0003079223 -4.0019024e-21)
(-0.0021219456 -0.00020359842 1.008743e-20)
(-0.002675858 -9.6432266e-05 -4.7195852e-21)
(-0.0033461505 2.0710779e-06 -6.9701111e-21)
(-0.004151921 7.6844388e-05 -2.7933522e-21)
(-0.0051141434 0.00010916159 1.3647687e-20)
(-0.0062554358 7.6850203e-05 7.0454627e-21)
(-0.0075996334 -4.5083784e-05 -4.4899738e-21)
(-0.0091710992 -0.00028333413 2.5885016e-21)
(-0.0109937 -0.00066464071 -9.5687755e-21)
(-0.013089363 -0.0012136436 2.714866e-21)
(-0.015476145 -0.0019503717 -7.2174531e-21)
(-0.018165973 -0.0028875847 4.0233205e-21)
(-0.021162865 -0.0040281563 -2.4554108e-21)
(-0.024459629 -0.0053622167 8.80888e-21)
(-0.028037661 -0.006866894 -1.2333247e-21)
(-0.03187086 -0.0085079336 6.3259646e-21)
(-0.035929033 -0.01024708 -5.8341441e-21)
(-0.040183904 -0.012053234 -1.8040186e-21)
(-0.044613006 -0.013911287 2.147389e-20)
(-0.049200204 -0.015824349 5.4064267e-21)
(-0.053934739 -0.01781199 -4.344319e-21)
(-0.05881085 -0.019908632 4.1780277e-21)
(-0.063829569 -0.022164214 -1.0784182e-21)
(-0.069001437 -0.024647612 -6.6060419e-21)
(-0.074350565 -0.027453015 3.0046441e-22)
(-0.079927407 -0.030707623 2.2646249e-21)
(-0.085803845 -0.034576501 -1.135177e-21)
(-0.092077575 -0.03926877 6.0805956e-22)
(-0.098880736 -0.045050489 1.7059821e-21)
(-0.10636887 -0.052255949 -2.6146255e-20)
(-0.11470797 -0.061292151 3.0044914e-21)
(-0.12404904 -0.072637918 -2.7761438e-21)
(-0.13448495 -0.086809703 2.6297329e-20)
(-0.14600628 -0.10426147 -1.4394439e-20)
(-0.15839583 -0.12509576 -1.1888806e-20)
(-0.17113796 -0.14859287 -1.1242486e-20)
(-0.18339915 -0.17212251 -1.0636927e-20)
(-0.19413909 -0.19011654 -1.6277913e-20)
(-0.20307218 -0.19479354 3.1488135e-20)
(-0.20907882 -0.16766437 -1.8315692e-20)
(-0.20841114 -0.091870344 -2.6125599e-20)
(-0.18769835 0.052076856 1.4027692e-20)
(-0.10894308 0.24817747 4.0928098e-21)
(0.01221964 0.40361807 3.657226e-21)
(0.1450838 0.43848475 -1.3301161e-20)
(0.38432009 0.24461273 -1.650479e-20)
(0.67521161 -0.13105435 9.543804e-22)
(-1.5661733e-06 1.1590086e-05 -1.0825721e-21)
(-5.8889729e-06 3.2685425e-05 3.5937399e-21)
(-1.2553813e-05 5.4052921e-05 -2.9292104e-21)
(-2.2587989e-05 7.7860625e-05 1.1066973e-21)
(-3.7197136e-05 0.00010657247 3.9971417e-22)
(-5.7878146e-05 0.00014293116 -3.4382177e-21)
(-8.6461445e-05 0.00018995623 8.7031698e-22)
(-0.0001251485 0.0002509218 1.8471768e-21)
(-0.00017658699 0.00032931225 1.4158896e-22)
(-0.00024394665 0.00042875073 1.202143e-21)
(-0.00033100906 0.00055289341 -1.6817172e-21)
(-0.00044226598 0.00070528204 1.16724e-21)
(-0.00058303023 0.00088914633 4.2945705e-21)
(-0.0007595565 0.0011071487 1.2479585e-22)
(-0.00097917187 0.001361064 -3.2668719e-21)
(-0.001250413 0.0016513905 -2.3067758e-21)
(-0.0015831662 0.0019768921 1.9775577e-21)
(-0.0019888045 0.0023340788 -1.8825373e-22)
(-0.0024803118 0.0027166439 -3.8139732e-21)
(-0.0030723842 0.0031148894 -4.6168128e-21)
(-0.003781489 0.0035151897 5.2272007e-21)
(-0.0046258624 0.0038995654 5.2105168e-21)
(-0.0056254141 0.004245457 -6.937766e-21)
(-0.0068015042 0.0045258097 8.4908684e-21)
(-0.0081765418 0.00470958 1.4541995e-20)
(-0.0097733459 0.0047627636 -3.382451e-20)
(-0.011614201 0.0046500079 1.8372615e-20)
(-0.013719542 0.0043368158 -2.6861795e-20)
(-0.016106269 0.0037923077 3.3079924e-20)
(-0.018785616 0.0029925308 -3.6364116e-20)
(-0.021760354 0.0019245329 3.6947683e-20)
(-0.025024607 0.00059116835 -6.0858809e-21)
(-0.028563308 -0.00098563699 -2.0500074e-20)
(-0.032352694 -0.0027637336 1.1204652e-20)
(-0.036366042 -0.0046891704 -3.3764667e-21)
(-0.040578696 -0.0067117325 -9.3469543e-22)
(-0.044970923 -0.0087987429 -1.1172074e-20)
(-0.049528382 -0.010940248 -3.503775e-21)
(-0.054241721 -0.013146606 -3.4622609e-21)
(-0.05910651 -0.015444841 -3.3078064e-21)
(-0.06412539 -0.017877659 1.6673937e-20)
(-0.069310961 -0.020505475 -7.2914924e-21)
(-0.07469068 -0.023411751 -1.1734469e-21)
(-0.080319985 -0.026711826 1.3585646e-20)
(-0.086276023 -0.030561576 6.9625657e-21)
(-0.092663639 -0.035160887 -3.4303655e-21)
(-0.099622875 -0.040768424 -1.2824358e-20)
(-0.1073155 -0.047718144 5.5735254e-21)
(-0.11590838 -0.056427663 -1.6763681e-20)
(-0.12553986 -0.067400602 -9.2116883e-21)
(-0.1362634 -0.081199039 -1.2704745e-20)
(-0.14797089 -0.09835289 -3.4483656e-20)
(-0.16024945 -0.11908655 2.6475832e-20)
(-0.17222047 -0.14282548 -8.6108636e-21)
(-0.18254191 -0.16706148 1.4308642e-20)
(-0.18956372 -0.18612623 1.31944e-20)
(-0.19236598 -0.19234482 4.0530029e-21)
(-0.18999832 -0.16795915 3.8792378e-20)
(-0.17892704 -0.097360895 1.0039178e-20)
(-0.15028246 0.033777666 -1.8928991e-20)
(-0.070195004 0.21335993 -3.5718318e-21)
(0.054891009 0.36109504 3.4679711e-21)
(0.22883342 0.38392624 7.4771118e-21)
(0.51536047 0.18152604 1.9334703e-20)
(0.80186455 -0.16897508 -1.9313584e-21)
(-6.9623594e-06 4.3850785e-05 -3.3102279e-21)
(-2.2557784e-05 0.00013265028 -1.1682602e-21)
(-4.1531586e-05 0.00022885946 9.4561155e-22)
(-6.5144729e-05 0.00033527744 3.4912519e-21)
(-9.4740237e-05 0.00045505984 -1.9124011e-21)
(-0.00013199536 0.00059167214 2.751593e-21)
(-0.00017892648 0.00074888889 -1.1900877e-21)
(-0.00023792617 0.00093076432 -2.8333114e-22)
(-0.00031183439 0.0011415778 1.6026295e-21)
(-0.00040400832 0.0013857489 3.4514794e-21)
(-0.00051840495 0.0016677136 1.7339243e-22)
(-0.00065966859 0.0019917541 -5.6633795e-21)
(-0.0008332295 0.0023617725 7.8257075e-21)
(-0.0010454086 0.002780999 -1.2616752e-20)
(-0.0013035293 0.0032516276 3.2911986e-21)
(-0.0016160321 0.0037743735 -6.9787175e-21)
(-0.0019925895 0.0043479508 8.4140234e-21)
(-0.0024442152 0.0049684774 -5.4475887e-21)
(-0.0029833589 0.0056288247 8.5681037e-22)
(-0.0036239788 0.0063179424 3.4611454e-21)
(-0.0043815751 0.0070202109 -8.3709389e-21)
(-0.0052731686 0.0077148925 1.1744339e-20)
(-0.0063171992 0.0083757774 -1.2686185e-20)
(-0.0075333121 0.008971137 -2.1688014e-21)
(-0.0089419911 0.0094641084 2.108434e-20)
(-0.010563985 0.0098136195 -2.1142569e-20)
(-0.012419465 0.0099759455 1.3622406e-20)
(-0.01452685 0.0099069495 -1.5160817e-20)
(-0.016901286 0.0095650747 -1.4468171e-21)
(-0.019552808 0.0089152736 -8.9118236e-22)
(-0.022484361 0.0079341959 5.8132731e-21)
(-0.025690589 0.0066165735 -3.9299006e-22)
(-0.029158132 0.0049830369 2.1095231e-20)
(-0.03286741 0.0030823783 -5.5408658e-21)
(-0.036796339 0.00098329891 -1.6093815e-20)
(-0.040924106 -0.0012449446 7.217181e-21)
(-0.045233964 -0.003551774 -5.7016596e-21)
(-0.049713624 -0.0059134432 5.5723159e-21)
(-0.054354578 -0.0083302422 2.9960103e-20)
(-0.059152816 -0.010821088 -1.6230235e-20)
(-0.064111513 -0.013420549 -3.9236141e-21)
(-0.069243914 -0.016179761 2.2234498e-20)
(-0.074579309 -0.01917028 -1.2470433e-21)
(-0.080175013 -0.022494218 -2.7131657e-21)
(-0.08610983 -0.026297062 -3.0291774e-20)
(-0.092491555 -0.030768203 -7.0654903e-21)
(-0.099461346 -0.036158131 1.1322446e-20)
(-0.10717779 -0.042800805 1.1674813e-20)
(-0.11579531 -0.051126693 1.6818218e-20)
(-0.12542101 -0.061670393 2.1045609e-20)
(-0.13604254 -0.07505345 1.2949029e-20)
(-0.14741497 -0.091909155 1.9897567e-20)
(-0.15887259 -0.11262797 -6.6547682e-21)
(-0.16910254 -0.13683684 4.1401026e-20)
(-0.17617591 -0.16218925 2.6561024e-21)
(-0.17762391 -0.18295647 1.9663657e-21)
(-0.17154686 -0.19127599 3.6397118e-22)
(-0.1583356 -0.17000942 -4.0516468e-20)
(-0.13347223 -0.10463692 -1.1592659e-20)
(-0.091712268 0.015187902 1.3298446e-20)
(-0.0043530689 0.17986962 1.1753977e-20)
(0.13151429 0.31486743 4.9825682e-21)
(0.34537963 0.32413118 2.6598965e-21)
(0.6516367 0.12056287 -2.8733602e-20)
(0.92360064 -0.1957585 8.2958161e-21)
(-1.424758e-05 7.5400448e-05 6.2763068e-22)
(-4.4972914e-05 0.00023044514 1.9945044e-21)
(-8.0563259e-05 0.00039989377 -4.8134706e-21)
(-0.00012243741 0.00058717624 1.788547e-22)
(-0.00017214207 0.00079611368 2.3429302e-21)
(-0.00023155741 0.001030874 1.0325397e-21)
(-0.00030290828 0.0012959659 7.6224923e-22)
(-0.00038879949 0.0015962032 -1.5016187e-21)
(-0.0004922791 0.0019366414 7.7711017e-21)
(-0.00061690208 0.00232248 -5.8612788e-21)
(-0.00076680149 0.0027589228 2.8353007e-22)
(-0.00094676443 0.0032509868 3.543412e-21)
(-0.0011623141 0.0038032487 -1.3245518e-20)
(-0.0014197956 0.004419521 1.3188588e-20)
(-0.001726465 0.0051024463 -1.7541034e-21)
(-0.002090577 0.005853005 -1.0841062e-20)
(-0.0025214702 0.0066699337 1.0174812e-20)
(-0.0030296434 0.0075490594 -3.5465571e-21)
(-0.0036268166 0.008482566 6.8724218e-21)
(-0.0043259697 0.0094582248 -8.7889606e-21)
(-0.0051413476 0.010458638 -1.6431663e-20)
(-0.0060884171 0.011460571 1.6179995e-20)
(-0.0071837583 0.01243447 2.3562555e-20)
(-0.0084448637 0.013344281 -4.5117078e-20)
(-0.0098898121 0.014147701 3.5878144e-20)
(-0.01153677 0.014796994 -2.0637088e-20)
(-0.013403264 0.015240461 5.2621612e-21)
(-0.015505174 0.015424696 -1.2313987e-20)
(-0.017855411 0.015297736 1.2448607e-20)
(-0.020462371 0.014813462 1.6604667e-20)
(-0.023328427 0.013937827 -1.0870024e-20)
(-0.0264491 0.012657435 -1.7766394e-20)
(-0.029813455 0.010989528 1.5127165e-21)
(-0.033406026 0.0089875643 6.000811e-22)
(-0.037209751 0.0067335511 1.0520122e-20)
(-0.041208557 0.004315286 -4.423247e-21)
(-0.045388868 0.001801583 -1.5526465e-20)
(-0.049739924 -0.0007689873 -7.5584456e-21)
(-0.054253702 -0.0033856729 1.1268513e-20)
(-0.058925787 -0.0060584285 -8.6933618e-21)
(-0.063758769 -0.0088129747 7.3391251e-21)
(-0.068765108 -0.011690143 -2.3567223e-21)
(-0.07397397 -0.014748703 -9.3079183e-21)
(-0.079441133 -0.018076633 2.2723655e-20)
(-0.085242946 -0.0218066 1.3560492e-20)
(-0.091484848 -0.026116969 9.0805337e-21)
(-0.098301275 -0.031249665 -2.9077766e-20)
(-0.10583651 -0.037538786 -1.916164e-20)
(-0.11421691 -0.045429792 -2.2701952e-20)
(-0.12349612 -0.055494795 -3.9982456e-20)
(-0.13356371 -0.068428852 1.4034704e-20)
(-0.14399083 -0.084996427 -2.9704488e-21)
(-0.15379805 -0.10579789 -2.2963411e-20)
(-0.16117617 -0.13071789 -6.5713849e-20)
(-0.16351681 -0.15766116 -4.1286034e-20)
(-0.15748389 -0.18092091 -1.4944694e-20)
(-0.14045863 -0.19184991 -3.8748604e-20)
(-0.11364681 -0.17429793 2.279089e-20)
(-0.072241496 -0.11414381 1.0464272e-22)
(-0.013525329 -0.0038668748 -1.9507135e-20)
(0.0832452 0.14645396 -8.6866335e-21)
(0.23643243 0.26674472 -6.3999063e-22)
(0.47543745 0.26336877 2.2235378e-20)
(0.78818734 0.06539801 -3.3995858e-21)
(1.0352366 -0.21152455 5.443075e-21)
(-2.3278045e-05 0.00010558233 2.4883719e-21)
(-7.2778137e-05 0.00032404509 -1.6784458e-21)
(-0.00012899097 0.00056364167 2.2670557e-21)
(-0.00019351313 0.00082840256 1.2883808e-21)
(-0.00026812147 0.0011227813 -3.5946555e-21)
(-0.00035492172 0.0014516153 -3.3550991e-21)
(-0.00045636903 0.0018201145 3.4418712e-21)
(-0.00057529825 0.0022338205 -4.141931e-22)
(-0.0007149801 0.0026985351 -9.5885308e-23)
(-0.00087917504 0.003220212 -6.810195e-21)
(-0.0010721926 0.0038048033 7.4597544e-22)
(-0.0012989524 0.0044580499 1.3716772e-20)
(-0.0015650474 0.0051852059 -1.0959242e-20)
(-0.0018768076 0.0059906846 3.7703507e-22)
(-0.0022413621 0.0068776178 7.3305364e-21)
(-0.0026666973 0.0078473197 6.2970173e-22)
(-0.0031617068 0.0088986517 -1.5994136e-21)
(-0.003736231 0.010027294 -7.1927085e-21)
(-0.0044010797 0.011224934 1.3145224e-20)
(-0.005168033 0.012478412 -2.3045253e-20)
(-0.0060498136 0.01376886 4.9500844e-21)
(-0.0070600197 0.015070918 -3.623985e-21)
(-0.0082130078 0.016352124 2.9588008e-21)
(-0.0095237058 0.017572592 -1.2835663e-22)
(-0.011007331 0.018685132 1.7368228e-20)
(-0.012678972 0.019635916 1.7197516e-20)
(-0.014552995 0.020365864 -3.3828218e-20)
(-0.016642214 0.020812843 -5.5951075e-21)
(-0.01895682 0.020914923 1.9306882e-20)
(-0.021503148 0.020615116 6.7830973e-21)
(-0.024282589 0.019868442 1.5289841e-20)
(-0.027291197 0.018652202 -1.6984679e-20)
(-0.030520497 0.016978578 -7.3094298e-21)
(-0.033959412 0.014903283 1.6524611e-20)
(-0.037596333 0.012519341 -6.7130677e-21)
(-0.041420324 0.0099319788 -3.1973312e-21)
(-0.045421363 0.0072287287 8.7465527e-21)
(-0.049590176 0.0044639079 2.2301521e-20)
(-0.053918585 0.0016603114 6.6617524e-21)
(-0.058400985 -0.0011820472 -4.3386443e-21)
(-0.063037917 -0.0040792804 -1.0154297e-20)
(-0.067839078 -0.0070609332 -1.0533243e-20)
(-0.072830938 -0.010171889 -1.1748309e-20)
(-0.078064819 -0.013485363 -2.4869638e-20)
(-0.083609506 -0.017119657 6.7606029e-22)
(-0.089560915 -0.021240597 -1.0706935e-20)
(-0.096037522 -0.026080879 6.0154228e-20)
(-0.10315494 -0.031975283 1.6842568e-20)
(-0.11099125 -0.039387097 1.9548457e-20)
(-0.11951678 -0.04893133 5.475107e-20)
(-0.12847575 -0.061389783 -6.4654779e-20)
(-0.13718933 -0.077682194 1.4418845e-20)
(-0.14428746 -0.098656329 4.5910176e-20)
(-0.14737305 -0.12450493 5.4529681e-20)
(-0.14302745 -0.15342659 6.5018586e-21)
(-0.12717462 -0.17968304 -1.5007638e-20)
(-0.097051805 -0.19408272 -1.9850872e-20)
(-0.054452082 -0.18063757 6.4050245e-21)
(0.003995033 -0.12592698 -5.7588255e-21)
(0.078265135 -0.02398937 5.2283962e-21)
(0.18686463 0.11258159 6.1182532e-22)
(0.35739366 0.21829419 3.1235835e-21)
(0.60988909 0.20324937 -2.7643494e-20)
(0.92623557 0.018935183 -2.8836344e-22)
(1.1307074 -0.21500793 -1.9787196e-20)
(-3.3854853e-05 0.00013374969 -2.3474311e-21)
(-0.00010536635 0.00041144677 -6.2880702e-22)
(-0.00018575847 0.00071660649 6.9075512e-22)
(-0.00027682665 0.001053818 3.3944732e-21)
(-0.00038059905 0.0014281214 -4.0698168e-21)
(-0.00049942608 0.0018449779 3.4545817e-21)
(-0.00063601107 0.0023102527 1.650356e-21)
(-0.00079343395 0.0028301703 -8.8363455e-23)
(-0.00097519938 0.0034112368 -1.3912227e-21)
(-0.0011852794 0.0040601236 -7.9049584e-21)
(-0.0014281592 0.0047835025 1.3257092e-20)
(-0.0017088811 0.005587822 -1.5905521e-20)
(-0.002033087 0.0064790127 4.6621908e-21)
(-0.0024070571 0.0074621105 6.3145163e-21)
(-0.0028377425 0.0085407862 -9.6597481e-21)
(-0.0033327891 0.009716773 1.8984221e-20)
(-0.0039005504 0.010989187 -2.2930277e-20)
(-0.0045500852 0.012353743 -3.6084295e-22)
(-0.0052911382 0.013801878 -1.3036908e-20)
(-0.0061340991 0.015319816 5.1498236e-20)
(-0.0070899373 0.016887609 -1.2406706e-20)
(-0.0081701085 0.01847825 -5.1085805e-20)
(-0.0093864257 0.020056926 2.4013381e-20)
(-0.010750885 0.021580563 2.85009e-20)
(-0.012275426 0.022997783 -7.1222977e-21)
(-0.013971608 0.024249425 -3.7114569e-20)
(-0.015850138 0.025269789 5.5895036e-20)
(-0.01792025 0.025988744 -6.1652617e-20)
(-0.020188886 0.026334999 4.823165e-20)
(-0.02265981 0.026241045 -9.1651929e-21)
(-0.025332944 0.025650823 1.5611673e-20)
(-0.02820446 0.024531305 2.1985411e-20)
(-0.031268054 0.022887438 -8.4464704e-21)
(-0.034516966 0.020774079 -2.089919e-21)
(-0.037945297 0.018292224 -2.9971513e-20)
(-0.041547649 0.015562818 5.5436592e-21)
(-0.04531783 0.012692096 -1.4028201e-20)
(-0.049248041 0.0097512203 1.167907e-20)
(-0.053329435 0.0067762989 -6.559736e-21)
(-0.057554149 0.0037782913 -4.3167063e-21)
(-0.061919087 0.0007516561 -3.7362059e-21)
(-0.066429133 -0.0023212009 -3.6143407e-21)
(-0.071105256 -0.0054701221 2.2267706e-20)
(-0.07599019 -0.0087525767 1.7917569e-20)
(-0.081138841 -0.012272404 -5.1244899e-21)
(-0.086628508 -0.016180121 3.4013258e-21)
(-0.092549211 -0.020699202 -1.374195e-20)
(-0.098969329 -0.026165934 2.8511547e-20)
(-0.1058892 -0.033062539 3.3900905e-20)
(-0.11314877 -0.042053838 1.0058307e-20)
(-0.12027107 -0.05401743 2.5697095e-20)
(-0.12622729 -0.070044127 -7.8435315e-22)
(-0.12912366 -0.091253111 -1.2007252e-20)
(-0.12575909 -0.11817521 -5.8391827e-20)
(-0.11163116 -0.14925481 2.7888995e-20)
(-0.082012263 -0.17863097 -9.689017e-21)
(-0.034776852 -0.19602442 2.5107986e-20)
(0.025681265 -0.18660892 -3.0002337e-20)
(0.099034679 -0.13718122 1.4094508e-20)
(0.18528081 -0.043696472 -1.2503281e-21)
(0.30613331 0.079446998 -2.9458953e-22)
(0.48838121 0.17017067 -1.6560006e-21)
(0.75429316 0.14714021 -1.0728188e-20)
(1.0660626 -0.016352995 3.3932003e-20)
(1.1972249 -0.2069079 -3.0409316e-20)
(-4.5698907e-05 0.00015928081 5.2685926e-21)
(-0.0001419009 0.00049071979 3.6247473e-21)
(-0.00024940146 0.00085542089 -5.6897058e-21)
(-0.00037023764 0.0012584706 1.497867e-22)
(-0.00050669406 0.0017054403 5.1431707e-21)
(-0.00066138206 0.0022023556 2.6889995e-21)
(-0.00083726633 0.0027556777 -5.6660946e-21)
(-0.0010376832 0.0033722561 9.3034873e-22)
(-0.001266379 0.0040592468 -1.3112624e-20)
(-0.0015275413 0.0048239902 2.5548705e-21)
(-0.0018258295 0.0056738394 6.5542836e-23)
(-0.0021664002 0.0066159254 -9.3915408e-21)
(-0.0025549274 0.0076568504 3.0081327e-20)
(-0.0029976142 0.0088022936 -1.4009455e-20)
(-0.0035011932 0.010056519 -2.5086289e-20)
(-0.0040729148 0.011421777 2.6714022e-20)
(-0.0047205187 0.012897588 -3.2879462e-21)
(-0.0054521872 0.014479913 1.8647794e-20)
(-0.0062764801 0.016160227 1.3835696e-20)
(-0.007202248 0.017924509 -4.3459279e-20)
(-0.0082385262 0.019752202 3.2576724e-20)
(-0.0093944094 0.021615216 -4.2807966e-20)
(-0.010678907 0.023477063 5.0160809e-21)
(-0.012100779 0.025292249 -2.0464704e-20)
(-0.013668335 0.027006067 4.4356063e-20)
(-0.015389194 0.028554946 -1.0484079e-20)
(-0.017269958 0.029867515 -2.6386412e-20)
(-0.019315773 0.030866572 6.3513082e-20)
(-0.021529791 0.031472261 -2.7454646e-20)
(-0.023912624 0.031607083 -2.9433815e-20)
(-0.02646211 0.031203882 2.4146309e-20)
(-0.029173911 0.030218333 3.2235328e-21)
(-0.032043302 0.028645839 -1.5829608e-20)
(-0.035067408 0.026536782 8.5881519e-21)
(-0.038245965 0.023996249 -1.2874993e-20)
(-0.041579386 0.021158377 4.4047862e-20)
(-0.04506563 0.018147648 -2.2560281e-20)
(-0.048698388 0.015053044 -1.3220265e-20)
(-0.05246762 0.011925347 -2.6690504e-20)
(-0.056362085 0.0087875791 -3.654776e-21)
(-0.060373198 0.0056456158 2.7734802e-20)
(-0.064498742 0.0024946698 -1.1242695e-20)
(-0.068750883 -0.0006794531 -1.6627683e-20)
(-0.073157457 -0.0039177864 -2.4832331e-21)
(-0.077752422 -0.0073086119 1.6931111e-20)
(-0.082583435 -0.010986009 1.5227737e-20)
(-0.087693543 -0.015164184 -4.7044729e-20)
(-0.093075471 -0.020180728 -2.5309098e-20)
(-0.098606983 -0.02654001 -5.5839379e-20)
(-0.10391873 -0.034962 -1.987365e-20)
(-0.10818949 -0.046423491 -7.8728672e-21)
(-0.10987478 -0.06219059 -5.7998013e-20)
(-0.10626141 -0.083662172 -2.1911242e-20)
(-0.092798229 -0.11168064 7.2509668e-20)
(-0.06320972 -0.14473761 -5.4322669e-20)
(-0.011960313 -0.17623212 4.4290798e-20)
(0.060131679 -0.19524043 -1.6292253e-20)
(0.14299379 -0.18675187 5.5120181e-20)
(0.23032657 -0.1409644 1.6064618e-20)
(0.32476858 -0.055968939 -1.5108644e-21)
(0.45145019 0.05282431 -1.1181678e-21)
(0.64033866 0.12754462 -7.7920341e-21)
(0.92199623 0.10093287 -2.0408096e-21)
(1.184821 -0.036166739 -4.6793992e-21)
(1.2199113 -0.18749871 3.8151493e-20)
(-5.8473617e-05 0.00018160714 9.6000715e-23)
(-0.00018132344 0.00056010755 -6.8334668e-21)
(-0.00031809137 0.00097701247 8.0546319e-21)
(-0.00047106617 0.0014378393 3.8754705e-21)
(-0.00064279875 0.0019486208 -7.7601957e-21)
(-0.00083617044 0.0025158755 -2.5128038e-21)
(-0.0010544149 0.003146588 1.2182499e-20)
(-0.0013011311 0.0038481618 -1.3103823e-20)
(-0.0015803115 0.0046283347 -2.7628488e-21)
(-0.0018963602 0.0054950555 -1.0982897e-20)
(-0.002254109 0.0064563073 2.9139637e-20)
(-0.0026588226 0.0075198691 3.5451107e-22)
(-0.0031161955 0.0086930012 -2.6108581e-20)
(-0.0036323355 0.0099820418 2.798415e-20)
(-0.0042137313 0.011391902 -1.9996353e-20)
(-0.0048672025 0.01292545 -7.399772e-21)
(-0.0055998287 0.014582771 1.542225e-20)
(-0.0064188562 0.016360307 -1.387907e-20)
(-0.0073315839 0.018249887 -1.842801e-20)
(-0.0083452276 0.020237661 3.8773746e-22)
(-0.009466769 0.022302985 2.8857958e-20)
(-0.010702793 0.024417331 -1.7785713e-20)
(-0.012059323 0.026543298 9.876145e-21)
(-0.013541652 0.028633855 4.7547112e-20)
(-0.015154188 0.03063196 1.5857015e-20)
(-0.016900274 0.032470711 -4.2878315e-20)
(-0.018781999 0.034074193 4.2751494e-21)
(-0.020799953 0.035359245 -4.8125276e-20)
(-0.02295294 0.036238463 2.8394321e-20)
(-0.025237774 0.036625106 -1.498402e-20)
(-0.027649462 0.036441133 2.1664176e-20)
(-0.030182298 0.035630152 5.2772861e-21)
(-0.032832193 0.034175752 -2.6196972e-20)
(-0.035599306 0.03211992 2.6681554e-20)
(-0.038488509 0.029567173 3.8639137e-20)
(-0.041506039 0.026661301 -3.5487525e-21)
(-0.044654286 0.023543856 -3.9840826e-20)
(-0.047928493 0.020322373 4.9924088e-20)
(-0.051316917 0.017063688 -1.0556323e-20)
(-0.054803708 0.013804093 2.2425421e-20)
(-0.058372746 0.010561797 -3.4963306e-21)
(-0.062011835 0.0073455595 3.5099111e-20)