/*--------------------------------*- C++ -*----------------------------------*\
  =========                 |
  \\      /  F ield         | OpenFOAM: The Open Source CFD Toolbox
   \\    /   O peration     | Website:  https://openfoam.org
    \\  /    A nd           | Version:  13
     \\/     M anipulation  |
\*---------------------------------------------------------------------------*/
FoamFile
{
    format      ascii;
    class       volVectorField;
    location    "42.301942";
    object      UMean;
}
// * * * * * * * * * * * * * * * * * * * * * * * * * * * * * * * * * * * * * //

dimensions      [0 1 -1 0 0 0 0];

internalField   nonuniform List<vector> 
17140
(
(-1.6081458e-06 7.3176885e-05 -7.1660989e-23)
(-1.8696357e-05 0.00022558147 -5.5832665e-24)
(-5.5445944e-05 0.00039255074 3.6920345e-22)
(-0.0001193897 0.00057497034 -4.06142e-22)
(-0.0002175312 0.00077376192 4.7516439e-23)
(-0.00035938339 0.00098975766 -1.5560103e-22)
(-0.00055667152 0.0012236665 -2.6221463e-22)
(-0.00082358438 0.0014760201 1.2833445e-22)
(-0.0011772462 0.0017471065 4.2050371e-22)
(-0.0016381799 0.0020368917 1.0333898e-21)
(-0.002230787 0.0023449272 -1.5369077e-21)
(-0.0029838204 0.0026702465 1.3741549e-21)
(-0.0039308274 0.0030112527 2.1085789e-22)
(-0.0051105122 0.003365601 -1.2010467e-21)
(-0.0065669639 0.0037300877 1.3406031e-22)
(-0.0083496743 0.0041005537 -1.0705702e-21)
(-0.010513267 0.0044718264 4.0494474e-23)
(-0.013116858 0.0048377169 -8.7673287e-24)
(-0.016222977 0.0051911024 -6.5203451e-22)
(-0.019896024 0.0055241205 8.5728024e-22)
(-0.024200306 0.0058284968 -4.1758665e-22)
(-0.029197787 0.0060960194 8.1577947e-23)
(-0.034945809 0.006319145 6.0551168e-22)
(-0.041495297 0.0064917116 -6.1093217e-22)
(-0.048890502 0.0066097142 -9.8603361e-22)
(-0.057168695 0.0066721201 8.0562994e-22)
(-0.066358974 0.0066815429 3.9999494e-21)
(-0.076488803 0.0066440885 4.7309371e-22)
(-0.087584163 0.0065688539 -4.2448605e-21)
(-0.099672592 0.0064661533 -9.9972487e-22)
(-0.11277874 0.0063427136 -3.6197042e-21)
(-0.12691718 0.006200085 4.8367078e-21)
(-0.14209964 0.0060363597 -1.2694062e-21)
(-0.15832825 0.0058479513 -6.1739924e-22)
(-0.17559516 0.0056303867 -6.0940475e-21)
(-0.19387932 0.0053785319 2.7142304e-21)
(-0.21314105 0.0050869302 -4.0984619e-21)
(-0.23331408 0.0047499808 -2.7831667e-21)
(-0.25429572 0.0043620963 -1.2727503e-21)
(-0.27593596 0.0039188415 3.8746324e-21)
(-0.29802759 0.0034181022 7.2693153e-21)
(-0.32029708 0.0028612173 6.5508697e-21)
(-0.34239408 0.002251659 2.8376457e-21)
(-0.36388693 0.0015930004 -1.3539087e-20)
(-0.38426338 0.00088811293 -9.731762e-21)
(-0.40292875 0.00014167336 2.3536143e-21)
(-0.41927586 -0.00064286241 -1.5696175e-20)
(-0.43272752 -0.0014643157 -5.2295575e-21)
(-0.44261268 -0.0023140597 5.2377234e-21)
(-0.44846082 -0.0031566724 1.2631221e-20)
(-0.44983297 -0.0039437879 -7.6968779e-21)
(-0.44639231 -0.0046246383 -4.8301626e-21)
(-0.4377417 -0.0051566574 1.2552141e-20)
(-0.42359911 -0.0054653105 5.9456977e-21)
(-0.40341606 -0.0054182522 4.276797e-21)
(-0.37686015 -0.0048693466 -3.3689412e-21)
(-0.34314265 -0.0036892096 9.3513292e-21)
(-0.3016563 -0.0018199534 7.9472298e-21)
(-0.25039406 0.00055210777 2.0473186e-21)
(-0.18850639 0.0024736178 -5.3438625e-21)
(-0.11234505 0.0018268075 -4.3265332e-21)
(-0.02575959 -0.0022106972 -1.645163e-20)
(0.07624742 -0.0078092116 -2.4871573e-21)
(0.17694828 -0.012827813 2.1295294e-20)
(0.28849069 -0.015216761 -1.6923996e-20)
(-1.4801897e-05 0.00034608744 2.0312021e-23)
(-5.9109062e-05 0.0010663853 -1.9324713e-21)
(-0.00012527217 0.0018550396 1.7202893e-21)
(-0.00022089396 0.0027164474 -4.6939747e-22)
(-0.00035299731 0.0036549161 -9.7004849e-22)
(-0.00053107095 0.0046743315 1.8549418e-21)
(-0.00076675437 0.0057779714 -1.9361062e-21)
(-0.0010740885 0.0069682389 1.7062819e-22)
(-0.0014699547 0.0082463281 -5.3356337e-22)
(-0.0019745313 0.0096118346 -8.8811351e-24)
(-0.0026117518 0.011062306 -1.7898985e-21)
(-0.0034097617 0.012592736 2.8544871e-21)
(-0.004401346 0.014195021 2.3663298e-22)
(-0.0056242824 0.015857406 -2.3471322e-21)
(-0.007121564 0.017563968 7.25574e-22)
(-0.0089414261 0.019294209 4.6370172e-22)
(-0.011137098 0.021022854 -2.960164e-21)
(-0.013766201 0.022719979 9.7285704e-21)
(-0.016889734 0.024351625 -6.1494474e-21)
(-0.020570608 0.025881019 7.4398465e-21)
(-0.024871777 0.027270555 -1.111772e-20)
(-0.029854091 0.028484509 2.759442e-21)
(-0.035574113 0.029492389 1.153052e-21)
(-0.042082361 0.030272521 -3.8083099e-21)
(-0.04942301 0.030815279 1.3898445e-20)
(-0.057633829 0.031125272 2.0887516e-21)
(-0.066744301 0.03122128 -1.1056885e-20)
(-0.076782322 0.03113158 1.2551328e-20)
(-0.087774373 0.030888469 -1.7745477e-21)
(-0.09974767 0.030520598 -1.737283e-20)
(-0.11272638 0.030049519 1.8430534e-21)
(-0.12672416 0.029488347 1.4143456e-20)
(-0.14175168 0.028843967 3.344753e-22)
(-0.15780945 0.028120002 -1.0800894e-20)
(-0.17488748 0.027317124 1.2201867e-20)
(-0.19296197 0.026431771 -5.53313e-21)
(-0.21198989 0.025455125 6.6179842e-21)
(-0.23190083 0.024373138 2.1064729e-20)
(-0.2525872 0.023167575 4.7017378e-21)
(-0.27389355 0.021818414 1.8427926e-20)
(-0.29560632 0.020306802 -2.3631882e-20)
(-0.31744409 0.018616671 -2.1520911e-20)
(-0.33904661 0.016734703 -3.5946069e-21)
(-0.35996791 0.014649872 2.8963138e-20)
(-0.37967451 0.012356921 -1.3365539e-20)
(-0.39754942 0.0098666704 -4.5381927e-21)
(-0.41294218 0.0072085352 2.448801e-21)
(-0.42523675 0.0044151231 7.4097805e-21)
(-0.43383356 0.0015350945 -3.574812e-21)
(-0.43819277 -0.0013479069 6.365685e-21)
(-0.43787304 -0.0041631901 3.8028043e-20)
(-0.43252244 -0.00685074 1.8158511e-21)
(-0.42178242 -0.0093580293 -8.1528508e-21)
(-0.40535226 -0.011627198 1.8182474e-20)
(-0.38277312 -0.013563057 -1.5650525e-20)
(-0.35370702 -0.015062823 4.4973662e-20)
(-0.317327 -0.016082297 1.3004527e-20)
(-0.273096 -0.016682197 -3.7546464e-20)
(-0.21902507 -0.017204968 6.4504595e-21)
(-0.15423849 -0.018698143 7.6205987e-21)
(-0.074628538 -0.022795372 1.580668e-21)
(0.01536904 -0.030037856 -2.1391417e-20)
(0.11985747 -0.037345476 4.3122276e-20)
(0.22189219 -0.042948651 1.3122429e-20)
(0.33377237 -0.044138225 2.2509901e-20)
(-4.2944304e-05 0.00061338359 1.118912e-21)
(-0.00014512479 0.0018900942 -5.8128979e-22)
(-0.00027387086 0.0032881029 -1.5462707e-22)
(-0.00043674379 0.0048153608 1.4677065e-22)
(-0.00064085511 0.0064796137 -7.114245e-22)
(-0.00089559838 0.008287904 -5.276836e-23)
(-0.0012124002 0.010246215 -6.7709412e-22)
(-0.0016049412 0.012358984 -7.3040408e-22)
(-0.0020895267 0.014628546 5.9848604e-21)
(-0.0026855471 0.017054437 -5.3558667e-21)
(-0.0034158713 0.019632591 2.5704899e-21)
(-0.0043072764 0.02235444 3.77807e-21)
(-0.0053908418 0.025205934 -7.5250944e-21)
(-0.006702281 0.02816655 -9.3499967e-22)
(-0.0082821602 0.031208348 3.6366512e-21)
(-0.010175944 0.034295219 2.5166673e-21)
(-0.0124338 0.037382485 -2.9423991e-21)
(-0.015110085 0.040417098 1.0747606e-20)
(-0.018262462 0.043338669 -6.423071e-21)
(-0.021950617 0.046081641 3.2092271e-21)
(-0.026234587 0.048578794 -1.0969294e-20)
(-0.031172841 0.050766143 -2.8915703e-21)
(-0.03682028 0.052589002 6.1230419e-21)
(-0.043226566 0.054008511 -9.3442061e-21)
(-0.050435701 0.055007501 -3.7200797e-21)
(-0.058486392 0.055594274 4.5734524e-21)
(-0.067408893 0.055802321 2.627331e-20)
(-0.077232133 0.055681879 1.2023721e-20)
(-0.087983035 0.0552882 -6.1588469e-21)
(-0.099688091 0.054668967 6.5878496e-21)
(-0.112371 0.053861254 -4.2737249e-21)
(-0.12604332 0.052890327 -2.4196813e-20)
(-0.14071337 0.051772164 8.2169308e-21)
(-0.15637835 0.050517605 2.4788087e-20)
(-0.17302373 0.049132428 -8.4839061e-21)
(-0.19061984 0.04761476 -1.1906106e-20)
(-0.20911618 0.045952591 2.0797781e-20)
(-0.22843318 0.044123444 6.3375391e-21)
(-0.24845203 0.042096406 -1.1467522e-20)
(-0.26900397 0.03983566 -4.6375613e-21)
(-0.28985936 0.037304801 2.211159e-20)
(-0.31071664 0.03446919 -6.3580355e-21)
(-0.33118986 0.031296769 -9.0818255e-21)
(-0.35080097 0.027759882 -2.387961e-20)
(-0.36897623 0.023843754 4.5115272e-20)
(-0.38505881 0.01956653 -2.8803557e-20)
(-0.39837798 0.01499385 -7.0771087e-21)
(-0.4082792 0.010204991 -2.8076909e-20)
(-0.41415237 0.0052777462 -3.3358162e-20)
(-0.41548043 0.00034414571 -1.669437e-21)
(-0.41186483 -0.0044771565 6.9913267e-21)
(-0.40299842 -0.0091143783 -5.1938366e-20)
(-0.38857078 -0.013532936 -2.2220102e-20)
(-0.3682944 -0.017699123 -2.2997128e-20)
(-0.34174583 -0.021548842 -7.5958995e-21)
(-0.30858942 -0.02502793 -5.9965903e-20)
(-0.26800848 -0.028161496 2.4085972e-20)
(-0.21951126 -0.031144646 -7.5589702e-21)
(-0.16086586 -0.034449445 -6.3200441e-20)
(-0.091321221 -0.039309847 -2.5709488e-20)
(-0.006215707 -0.04668077 3.1643272e-20)
(0.088254124 -0.056700017 1.1199302e-19)
(0.19576694 -0.065172486 -3.7062848e-20)
(0.29797754 -0.070849255 -6.0760002e-20)
(0.40814504 -0.070237694 -2.6736034e-20)
(-8.5178825e-05 0.00086614628 -3.7272061e-21)
(-0.00027418465 0.002669442 4.1595707e-21)
(-0.00049683306 0.0046446585 -1.5047504e-21)
(-0.00076059589 0.0068033062 1.6373404e-22)
(-0.0010727025 0.0091565947 -3.2379777e-21)
(-0.0014424272 0.011714803 3.3543408e-21)
(-0.0018808709 0.014486796 -5.0935329e-21)
(-0.0024011435 0.017479364 2.4017097e-21)
(-0.003018708 0.020696421 9.1454089e-21)
(-0.0037517453 0.024138025 -2.2057817e-21)
(-0.0046215319 0.027799227 -8.4222414e-21)
(-0.0056527613 0.03166882 2.5821173e-21)
(-0.0068739352 0.035727944 1.7435147e-22)
(-0.0083176427 0.039948626 -6.8218509e-21)
(-0.010020763 0.044292394 2.1489952e-20)
(-0.012024546 0.048709123 -1.3299284e-20)
(-0.014374482 0.053136351 -1.2758994e-22)
(-0.017119922 0.057499388 7.5026474e-21)
(-0.020313392 0.06171263 -1.9284346e-20)
(-0.024009565 0.065682426 9.2304324e-21)
(-0.028263911 0.069311917 1.3973814e-20)
(-0.0331311 0.07250793 5.7416036e-21)
(-0.038663316 0.075189645 -2.8958988e-20)
(-0.044908726 0.077298161 -1.5397117e-20)
(-0.051910922 0.078805243 1.0183027e-20)
(-0.059709667 0.079719139 -6.0203318e-21)
(-0.068336649 0.080085049 2.3091885e-20)
(-0.077822247 0.079974481 -6.7466751e-21)
(-0.088193558 0.079464799 1.8551013e-20)
(-0.099476515 0.078624092 -1.0705631e-20)
(-0.11169427 0.077505564 6.6951516e-21)
(-0.12485528 0.076147395 -2.5100806e-20)
(-0.13896426 0.074575173 3.68995e-21)
(-0.15401353 0.072806951 -1.9596007e-20)
(-0.16998212 0.070853592 1.9091444e-20)
(-0.18683184 0.06871498 6.0874001e-21)
(-0.20450126 0.066376029 -7.8237952e-20)
(-0.22289723 0.063805938 -2.0527647e-20)
(-0.24188459 0.06096092 1.7234479e-20)
(-0.26127521 0.057789101 -1.7021069e-20)
(-0.28081635 0.05423575 4.3246069e-21)
(-0.30017805 0.050246432 2.7483866e-20)
(-0.31894001 0.045769049 -1.3004293e-21)
(-0.33658373 0.040759224 -9.0176766e-21)
(-0.35249115 0.03519578 4.485228e-21)
(-0.36597634 0.029112433 -1.9553971e-21)
(-0.37636621 0.022608624 -6.0756786e-21)
(-0.38298726 0.01581271 9.5075386e-20)
(-0.38525996 0.0088611251 -1.0504999e-20)
(-0.38273251 0.0019405583 9.6705692e-21)
(-0.37508133 -0.0047970154 -9.0472075e-20)
(-0.36205777 -0.011272893 4.9619508e-20)
(-0.34338901 -0.017471794 4.0737574e-20)
(-0.31880138 -0.023390894 3.9145355e-20)
(-0.28787053 -0.029002933 3.8067243e-20)
(-0.25027504 -0.034314026 6.0618647e-20)
(-0.20516599 -0.039417767 -1.228234e-19)
(-0.15193131 -0.044688022 7.7007226e-20)
(-0.088146178 -0.050706831 1.1980909e-19)
(-0.012847251 -0.058894838 -8.9787688e-20)
(0.078219027 -0.069253155 -2.9672675e-20)
(0.17706197 -0.081504922 -2.6997358e-20)
(0.28642556 -0.090347796 1.3983607e-19)
(0.38702066 -0.095443454 1.0499048e-19)
(0.4924497 -0.092481023 -4.8371962e-21)
(-0.00013965829 0.0010954787 2.605901e-21)
(-0.00044069786 0.003377167 -6.0497733e-21)
(-0.00078453578 0.0058775191 4.935038e-21)
(-0.0011785392 0.0086115561 -1.8663519e-21)
(-0.0016301188 0.011593955 -6.7475122e-22)
(-0.0021483958 0.014838355 5.8136905e-21)
(-0.0027440691 0.018356742 -1.4754993e-21)
(-0.0034295403 0.022158639 -3.1375994e-21)
(-0.0042192022 0.02625009 -2.4155026e-22)
(-0.0051297147 0.030632467 -2.055947e-21)
(-0.0061802987 0.035301029 2.8886657e-21)
(-0.0073930061 0.040243313 -2.0170103e-21)
(-0.0087930114 0.045437323 -7.468709e-21)
(-0.010408869 0.050849619 -2.1697873e-22)
(-0.012272674 0.056433468 5.79306e-21)
(-0.01442017 0.062127223 4.1397128e-21)
(-0.016890698 0.067853217 -3.5982406e-21)
(-0.019726973 0.073517624 3.5285339e-22)
(-0.022974632 0.07901174 7.2084802e-21)
(-0.026681542 0.084215296 8.9125353e-21)
(-0.03089685 0.089002232 -1.0349439e-20)
(-0.035669833 0.093249283 -1.0608605e-20)
(-0.041048635 0.096847069 1.4558801e-20)
(-0.04707903 0.099712687 -1.8366057e-20)
(-0.053803731 0.10180172 -3.2419283e-20)
(-0.06126303 0.10311678 7.8010234e-20)
(-0.069491473 0.10370963 -4.3778282e-20)
(-0.078520448 0.10367039 6.5931364e-20)
(-0.088376834 0.10309823 -8.3813713e-20)
(-0.0990875 0.10208407 9.501863e-20)
(-0.11067404 0.10069706 -9.9722635e-20)
(-0.12314167 0.098989308 1.7098235e-20)
(-0.13649024 0.096997017 5.9532216e-20)
(-0.15070618 0.094745681 -3.4024382e-20)
(-0.16576057 0.092251288 1.079179e-20)
(-0.18160468 0.089515417 3.2410881e-21)
(-0.19816362 0.086520008 3.9545198e-20)
(-0.21532772 0.083226138 1.2892987e-20)
(-0.23294228 0.079577339 1.2955352e-20)
(-0.25079648 0.075505437 1.3060032e-20)
(-0.26861078 0.070936557 -6.668787e-20)
(-0.28602318 0.065795084 2.9238367e-20)
(-0.3025768 0.060008166 4.4460969e-21)
(-0.31771376 0.053515868 -5.2907594e-20)
(-0.3307819 0.046296744 -2.6422309e-20)
(-0.34109101 0.038410623 1.3005103e-20)
(-0.34798789 0.030002258 4.6163443e-20)
(-0.35083655 0.021244343 -2.0069903e-20)
(-0.34911563 0.01234079 5.7395157e-20)
(-0.34244903 0.0035350079 3.0908236e-20)
(-0.33056793 -0.0049910041 4.254577e-20)
(-0.31325947 -0.013167424 1.133638e-19)
(-0.29024938 -0.021013038 -8.7954716e-20)
(-0.26122893 -0.028561495 2.8433474e-20)
(-0.22574611 -0.035815418 -5.0037594e-20)
(-0.18345753 -0.042832162 -4.8022332e-20)
(-0.13343154 -0.049806474 -1.8919098e-20)
(-0.074914514 -0.057292529 -1.7813004e-19)
(-0.0051341898 -0.065992616 -4.9248868e-20)
(0.076968938 -0.07733376 1.1542869e-19)
(0.17412771 -0.090169758 4.4820589e-20)
(0.27672119 -0.10385 -3.5052692e-20)
(0.38632503 -0.1122666 -7.464123e-20)
(0.48371394 -0.11590035 -1.1768792e-19)
(0.58150707 -0.11003772 9.5029594e-21)
(-0.00020354005 0.0012928477 7.8717955e-21)
(-0.00063601755 0.0039870932 1.9350233e-21)
(-0.0011220991 0.0069413263 -1.5688237e-21)
(-0.0016690562 0.010173972 -5.795187e-21)
(-0.0022845387 0.013703124 3.1779147e-21)
(-0.0029775228 0.017545865 -4.5801721e-21)
(-0.0037582743 0.021717546 1.9849475e-21)
(-0.0046384188 0.026230866 4.7360182e-22)
(-0.0056311435 0.03109471 -2.6879075e-21)
(-0.0067513782 0.036312748 -5.8105503e-21)
(-0.0080159924 0.041881768 -2.9128964e-22)
(-0.009443989 0.04778975 9.6368244e-21)
(-0.011056695 0.054013707 -1.3407611e-20)
(-0.012877937 0.060517342 2.1809769e-20)
(-0.014934182 0.067248701 -5.7499185e-21)
(-0.017254633 0.074137984 1.2337358e-20)
(-0.019871255 0.081095922 -1.5105954e-20)
(-0.022818696 0.088013117 9.9490334e-21)
(-0.026134103 0.094761015 -1.6007283e-21)
(-0.02985679 0.10119519 -6.6054376e-21)
(-0.034027765 0.1071616 1.6372858e-20)
(-0.03868912 0.11250641 -2.3622645e-20)
(-0.043883322 0.11708907 2.6280905e-20)
(-0.049652425 0.12079794 4.5949398e-21)
(-0.056037408 0.12356582 -4.6449922e-20)
(-0.063078275 0.12538205 4.8045887e-20)
(-0.070813037 0.12629719 -3.199137e-20)
(-0.079273677 0.12641393 3.6631564e-20)
(-0.08848835 0.12585514 3.4595465e-21)
(-0.098484856 0.12473546 2.1779988e-21)
(-0.10928179 0.12314045 -1.5452025e-20)
(-0.12088303 0.12113745 9.7963106e-22)
(-0.13328176 0.11877485 -5.9977329e-20)
(-0.14645809 0.11608612 1.656461e-20)
(-0.16037402 0.1130924 4.9905347e-20)
(-0.1749691 0.10979704 -2.363443e-20)
(-0.19015365 0.1061794 1.9703e-20)
(-0.20580015 0.10219301 -1.9850879e-20)
(-0.22173316 0.097769151 -1.1149105e-19)
(-0.23771789 0.092823226 6.1937687e-20)
(-0.25344708 0.087261384 1.5120516e-20)
(-0.2685273 0.080986259 -8.5609525e-20)
(-0.2824692 0.073904903 5.1712787e-21)
(-0.29468611 0.065945503 1.0520266e-20)
(-0.30451455 0.057094989 1.1084445e-19)
(-0.31130031 0.047449727 2.5363058e-20)
(-0.31442713 0.03720466 -3.9282523e-20)
(-0.31334023 0.026573632 -3.9663766e-20)
(-0.30757498 0.015827169 -5.5627971e-20)
(-0.29679292 0.0052559618 -6.7828372e-20)
(-0.280733 -0.0049350727 -4.1053791e-20)
(-0.25918637 -0.014690575 -6.4083063e-20)
(-0.23183792 -0.024069729 2.1996851e-20)
(-0.19832255 -0.033140292 -1.3589992e-19)
(-0.15812222 -0.04192614 -9.1098053e-21)
(-0.11082117 -0.050545669 -8.0226731e-21)
(-0.055309942 -0.059281579 -4.3143193e-21)
(0.009334936 -0.068925336 1.9132681e-19)
(0.086342771 -0.080222278 7.6790303e-20)
(0.17593756 -0.094356595 -1.2121811e-19)
(0.27888495 -0.10893239 -1.8022055e-19)
(0.38417714 -0.12306241 -8.3277597e-20)
(0.49203159 -0.13018899 -2.8096853e-20)
(0.58411932 -0.13156274 1.6750095e-19)
(0.67174314 -0.12218679 -4.3377834e-20)
(-0.00027303276 0.0014506548 -1.4722961e-21)
(-0.00084874455 0.0044758167 -3.245622e-21)
(-0.0014898129 0.0077954402 7.8395318e-21)
(-0.0022036188 0.011431131 -2.9221889e-22)
(-0.0029980494 0.01540429 -3.8254162e-21)
(-0.0038819825 0.019735469 -1.6883132e-21)
(-0.0048652776 0.024443591 -1.2487932e-21)
(-0.0059587877 0.029544962 2.4667337e-21)
(-0.0071744652 0.035052023 -1.2805214e-20)
(-0.0085254459 0.040971817 9.6988641e-21)
(-0.010026139 0.047304151 -4.7022967e-22)
(-0.011692311 0.054039432 -5.9251808e-21)
(-0.013541168 0.061156197 2.2314239e-20)
(-0.015591441 0.068618376 -2.2415175e-20)
(-0.01786345 0.076372447 3.0177408e-21)
(-0.020379179 0.084344659 1.8860768e-20)
(-0.023162335 0.092438706 -1.7973456e-20)
(-0.026238399 0.10053435 6.3854556e-21)
(-0.029634676 0.10848768 -1.2611093e-20)
(-0.033380336 0.11613387 1.6504487e-20)
(-0.037506439 0.12329337 3.1651136e-20)
(-0.042045945 0.12978212 -3.2061043e-20)
(-0.047033655 0.13542627 -4.8048833e-20)
(-0.052506066 0.14008032 9.4916686e-20)
(-0.058500996 0.14364646 -7.7885834e-20)
(-0.065057272 0.14609111 4.6193965e-20)
(-0.072214731 0.14745326 -1.2185342e-20)
(-0.080008172 0.14783937 2.9296748e-20)
(-0.088467828 0.14739524 -3.0638709e-20)
(-0.097619529 0.14625896 -4.1875425e-20)
(-0.10748152 0.14453674 2.8377599e-20)
(-0.11805732 0.14231153 4.7499391e-20)
(-0.12933217 0.13964532 -4.2960531e-21)
(-0.14127955 0.13658099 -1.8229022e-21)
(-0.15385188 0.13314533 -3.1882071e-20)
(-0.16697656 0.12934397 1.3950169e-20)
(-0.1805489 0.12515444 5.1618208e-20)
(-0.1944235 0.12052354 2.6073729e-20)
(-0.20840415 0.11537075 -4.0285485e-20)
(-0.22223248 0.10959507 3.2079628e-20)
(-0.23557493 0.10308261 -2.7127318e-20)
(-0.24801082 0.095714904 9.2373134e-21)
(-0.25902757 0.08738157 3.443844e-20)
(-0.26802802 0.078005854 -8.1858099e-20)
(-0.27436891 0.067594224 -4.834375e-20)
(-0.27746504 0.056284689 -3.1044743e-20)
(-0.276766 0.044315651 9.6133376e-20)
(-0.27179421 0.0319376 6.1603333e-20)
(-0.26210346 0.019463602 7.1420408e-20)
(-0.24732692 0.0072293075 1.233461e-19)
(-0.22718602 -0.004529368 -4.2204399e-20)
(-0.20145702 -0.015770822 8.8791466e-21)
(-0.16975636 -0.026600798 7.0546977e-20)
(-0.13165651 -0.037124078 2.0814868e-19)
(-0.086531309 -0.047379018 1.3869365e-19)
(-0.033840122 -0.057553498 5.5443222e-20)
(0.027850235 -0.068004565 1.6489312e-19)
(0.099638012 -0.079780572 -1.1402117e-19)
(0.18487708 -0.093448702 1.2030491e-20)
(0.2820911 -0.10973935 1.9532124e-19)
(0.38989387 -0.12512982 1.3713128e-19)
(0.49668014 -0.13858287 6.5511317e-21)
(0.60048107 -0.14359218 -2.3479084e-19)
(0.68463657 -0.14202252 2.519598e-20)
(0.75966577 -0.1288405 -3.7384482e-20)
(-0.00034363861 0.001562693 -5.7521373e-21)
(-0.0010651425 0.0048241329 2.6789155e-21)
(-0.0018639889 0.00840637 -3.621549e-21)
(-0.002747872 0.012333858 -2.060184e-21)
(-0.0037249206 0.016631097 5.7565815e-21)
(-0.0048039872 0.021322035 5.3816858e-21)
(-0.0059946011 0.026429279 -5.5333294e-21)
(-0.0073069251 0.031973101 6.6694988e-22)
(-0.0087517644 0.037970159 1.5490931e-22)
(-0.01034055 0.04443192 1.1056156e-20)
(-0.012085312 0.051362722 -1.219736e-21)
(-0.013998647 0.058757459 -2.2519679e-20)
(-0.016093678 0.066598887 1.8125431e-20)
(-0.018384012 0.07485456 -6.3100582e-22)
(-0.020883719 0.083473517 -1.2367947e-20)
(-0.023607323 0.0923829 -1.0777245e-21)
(-0.026569857 0.10148483 2.7777802e-21)
(-0.029786981 0.11065408 1.2718602e-20)
(-0.033275208 0.11973726 -2.3719884e-20)
(-0.037052264 0.12855453 4.2546344e-20)
(-0.041137605 0.13690485 -9.3912707e-21)
(-0.045553042 0.14457598 7.0501233e-21)
(-0.050323449 0.15135975 -5.9646556e-21)
(-0.055477393 0.15707217 2.399703e-22)
(-0.061047411 0.16157648 -3.7076331e-20)
(-0.067069746 0.16480467 -3.7887234e-20)
(-0.0735836 0.16677155 7.6758092e-20)
(-0.080628494 0.16757471 1.3041751e-20)
(-0.088236322 0.16737261 -4.6465726e-20)
(-0.096430315 0.16633307 -1.6842063e-20)
(-0.10523039 0.16458855 -3.8638394e-20)
(-0.1146393 0.1622347 4.444982e-20)
(-0.12463688 0.15934979 1.9724363e-20)
(-0.13518809 0.15598882 -4.6564908e-20)
(-0.1462359 0.15218515 1.9877389e-20)
(-0.15769593 0.14794784 9.3487882e-21)
(-0.16944898 0.1432537 -2.847196e-20)
(-0.18133234 0.13804391 -7.4944404e-20)
(-0.19312985 0.13222693 -2.2843219e-20)
(-0.20456076 0.12568595 1.5396887e-20)
(-0.2152681 0.11828803 3.6573859e-20)
(-0.22481043 0.10989611 3.7680226e-20)
(-0.23266419 0.10038767 4.1493707e-20)
(-0.23824221 0.089689956 8.6447836e-20)
(-0.24095262 0.077839292 -2.325864e-21)
(-0.24029107 0.065017468 3.5854296e-20)
(-0.23578655 0.051487306 -1.9103858e-19)
(-0.22699385 0.037515282 -5.2277989e-20)
(-0.21342633 0.0234352 -5.9132652e-20)
(-0.19468127 0.0096346247 -1.6232366e-19)
(-0.17048491 -0.003605152 1.8847407e-19)
(-0.14057961 -0.016259924 -4.1963973e-20)
(-0.10449686 -0.028482668 -1.3519544e-19)
(-0.061707347 -0.040411765 -1.6739467e-19)
(-0.011420725 -0.052105458 -2.1577157e-20)
(0.047133802 -0.063835141 5.4950313e-20)
(0.115676 -0.07601295 9.0265051e-20)
(0.1954113 -0.089876144 -3.884834e-20)
(0.28919335 -0.10555824 7.1880846e-20)
(0.39378734 -0.12313045 -6.1553562e-20)
(0.50552288 -0.13836202 -2.1466782e-20)
(0.6119436 -0.14996685 -6.545287e-20)
(0.70889268 -0.15189683 2.9289091e-19)
(0.78197979 -0.14694945 1.0036484e-20)
(0.84176551 -0.12993134 1.2241012e-19)
(-0.00041041092 0.0016246655 5.3446423e-21)
(-0.0012699565 0.0050186777 9.8355843e-22)
(-0.0022183468 0.0087506265 -1.0816912e-21)
(-0.0032636316 0.012847386 -5.3210905e-21)
(-0.0044142374 0.017336209 6.3887503e-21)
(-0.0056790751 0.022244227 -5.4327409e-21)
(-0.0070674572 0.027597691 -2.6005507e-21)
(-0.0085890072 0.033421037 1.3991413e-22)
(-0.010253574 0.039735644 2.2063832e-21)
(-0.012071115 0.04655829 1.2586661e-20)
(-0.014051564 0.053899209 -2.1217171e-20)
(-0.016204664 0.061759744 2.5615762e-20)
(-0.018539801 0.07012952 -7.567607e-21)
(-0.021065823 0.078983158 -1.0342187e-20)
(-0.023790881 0.088276587 1.5999133e-20)
(-0.026722314 0.097943077 -3.1862458e-20)
(-0.029866615 0.10788931 3.9087726e-20)
(-0.033229543 0.11799193 6.20723e-22)
(-0.036816424 0.12809534 2.3102511e-20)
(-0.040632733 0.1380118 -9.3472072e-20)
(-0.044684988 0.14752505 2.3122578e-20)
(-0.048981978 0.15639895 9.7844022e-20)
(-0.053536241 0.16439217 -4.7417404e-20)
(-0.0583656 0.17127931 -5.7991513e-20)
(-0.063494384 0.17687683 1.497284e-20)
(-0.068953792 0.18106995 8.0199977e-20)
(-0.074780924 0.18383382 -1.2454172e-19)
(-0.081016114 0.18524079 1.412202e-19)
(-0.087696693 0.18544548 -1.135503e-19)
(-0.094847136 0.18464154 2.2190137e-20)
(-0.1024811 0.18300007 -3.8696652e-20)
(-0.11060325 0.18063742 -5.600423e-20)
(-0.11919347 0.17763966 2.2562334e-20)
(-0.12820693 0.17407751 5.9789394e-21)
(-0.13757818 0.1699958 8.5681128e-20)
(-0.14721069 0.1654089 -1.6974804e-20)
(-0.15697145 0.16029424 4.377936e-20)
(-0.1666812 0.15458857 -3.7318736e-20)
(-0.17610467 0.14819057 2.2469026e-20)
(-0.18494025 0.14096894 1.4602527e-20)
(-0.1928108 0.13277419 1.251452e-20)
(-0.19926103 0.12345514 1.2442388e-20)
(-0.20376826 0.11288469 -7.5496641e-20)
(-0.20577145 0.10100398 -5.8878887e-20)
(-0.20474899 0.087885741 1.6546707e-20)
(-0.20026111 0.073751542 -1.0282856e-20)
(-0.19189899 0.058862733 4.2734176e-20)
(-0.179193 0.043475121 -8.3538881e-20)
(-0.16162158 0.027936712 -9.6125357e-20)
(-0.13882492 0.012697176 -2.7611935e-20)
(-0.11055736 -0.0019224855 -7.2427207e-20)
(-0.076482955 -0.015917396 2.31371e-21)
(-0.035994374 -0.029488531 3.5091835e-20)
(0.01160482 -0.042816528 1.7107547e-19)
(0.067350791 -0.055972492 -8.6329595e-20)
(0.13226258 -0.069304095 3.5296209e-20)
(0.20815276 -0.08325418 -1.05269e-19)
(0.2964052 -0.099035545 1.8037004e-19)
(0.39906327 -0.11623268 -1.0562045e-19)
(0.51085974 -0.13405281 3.7543316e-20)
(0.62511397 -0.14784105 -4.8651021e-23)
(0.7280424 -0.15642609 3.1099173e-20)
(0.81439978 -0.15456256 1.1937356e-19)
(0.87271313 -0.14620019 -2.2896398e-19)
(0.91475707 -0.12605821 2.3964867e-19)
(-0.00046824928 0.0016346549 -1.1816175e-20)
(-0.0014475538 0.0050533173 -5.5581801e-21)
(-0.0025258519 0.0088171624 8.7333531e-21)
(-0.0037115615 0.012954929 -2.3010706e-22)
(-0.005013445 0.017496128 -7.9153408e-21)
(-0.0064405538 0.02247068 -4.1454948e-21)
(-0.0080021183 0.027908238 8.7570856e-21)
(-0.0097074184 0.033837355 -1.4411489e-21)
(-0.011565615 0.040284364 2.0391428e-20)
(-0.013585548 0.047271938 -3.9906382e-21)
(-0.015775495 0.05481726 -1.0246567e-22)
(-0.018142894 0.062929739 1.4836884e-20)
(-0.020694033 0.0716082 -4.7902317e-20)
(-0.02343373 0.080837507 2.2521785e-20)
(-0.026365005 0.090584646 4.0785616e-20)
(-0.029488814 0.10079429 -4.4024162e-20)
(-0.032803863 0.1113841 5.4963948e-21)
(-0.036306602 0.12224015 -3.1797046e-20)
(-0.039991478 0.13321311 -2.4093268e-20)
(-0.043851584 0.1441163 7.7502442e-20)
(-0.047879759 0.15472693 -5.9635289e-20)
(-0.052070289 0.16479224 8.0582467e-20)
(-0.056421077 0.17404231 -9.7434309e-21)
(-0.060936171 0.18221047 4.0885321e-20)
(-0.065628101 0.18906085 -9.1434366e-20)
(-0.070519386 0.19442006 2.2242048e-20)
(-0.075642238 0.19820628 5.757507e-20)
(-0.081035666 0.20044659 -1.4256464e-19)
(-0.086739235 0.20127207 6.3393471e-20)
(-0.092783956 0.20088309 6.9558323e-20)
(-0.099182001 0.19948866 -5.8659688e-20)
(-0.10592902 0.19724889 -7.9035241e-21)
(-0.11300823 0.1942696 4.0738865e-20)
(-0.12037269 0.1906271 -2.2920071e-20)
(-0.12794488 0.18637586 3.5661453e-20)
(-0.13561954 0.18154089 -1.2723989e-19)
(-0.14325057 0.17610392 6.7634325e-20)
(-0.15064207 0.16999962 4.1122507e-20)
(-0.15753972 0.16311889 8.5045032e-20)
(-0.16362214 0.15531832 1.120355e-20)
(-0.16849537 0.14643555 -9.2185149e-20)
(-0.17169614 0.13631122 3.7145601e-20)
(-0.17271119 0.12482189 5.4700368e-20)
(-0.1710141 0.11193158 8.6071746e-21)
(-0.16614933 0.0977491 -5.2183503e-20)
(-0.15771468 0.082523603 -4.5432193e-20)
(-0.14532602 0.06649707 1.3660181e-19)
(-0.12848152 0.04990408 7.1566786e-20)
(-0.10672693 0.033111925 1.5389527e-19)
(-0.079814551 0.016622007 5.3676177e-20)
(-0.047491933 0.00076643077 2.072513e-20)
(-0.0092702031 -0.014488779 1.530835e-19)
(0.035675095 -0.029386573 6.0346579e-20)
(0.088301087 -0.044132212 -2.0388313e-19)
(0.14992116 -0.058789964 1.6498939e-19)
(0.22164572 -0.073736164 -1.5329471e-19)
(0.30560298 -0.089386207 7.4582429e-20)
(0.40375077 -0.10674768 -3.6557511e-19)
(0.51619428 -0.12465257 -1.8588565e-19)
(0.63442609 -0.14151033 7.6882661e-20)
(0.74801315 -0.15263329 1.2257151e-19)
(0.84245597 -0.15728151 2.0830391e-19)
(0.91300003 -0.15144353 3.76739e-20)
(0.95228729 -0.14021781 2.9524381e-20)
(0.97474193 -0.118113 -3.202947e-19)
(-0.00051238058 0.0015935279 -2.1226345e-22)
(-0.0015832727 0.0049304114 1.0281312e-20)
(-0.0027610942 0.008609578 -1.2130799e-20)
(-0.0040546049 0.012660949 -5.8440469e-21)
(-0.005472906 0.017115638 1.1719944e-20)
(-0.0070252511 0.022005763 3.802282e-21)
(-0.0087209155 0.027363884 -1.8477016e-20)
(-0.010569044 0.033222326 1.9932537e-20)
(-0.012578418 0.039612233 4.2176876e-21)
(-0.014757184 0.046562329 1.6840533e-20)
(-0.017112524 0.054097288 -4.4920902e-20)
(-0.019650279 0.062235635 -5.5140997e-22)
(-0.022374513 0.070987111 4.0841462e-20)
(-0.025287041 0.080349369 -4.4198709e-20)
(-0.028386945 0.090304014 3.1952947e-20)
(-0.031670098 0.1008119 1.1986769e-20)
(-0.035128774 0.11180785 -2.5390469e-20)
(-0.038751433 0.12319505 2.32856e-20)
(-0.042522776 0.13483964 3.1568491e-20)
(-0.046424248 0.14656646 -6.8618094e-22)
(-0.050435171 0.15815736 -5.1991692e-20)
(-0.054534592 0.16935386 3.2932456e-20)
(-0.058704015 0.17986644 -1.8820323e-20)
(-0.062930743 0.1893922 -9.3477094e-20)
(-0.067211507 0.19764193 -3.2035468e-20)
(-0.071555481 0.20437471 8.9365228e-20)
(-0.07598544 0.20943461 -9.1439686e-21)
(-0.080535784 0.21277999 1.0582984e-19)
(-0.085246287 0.21449288 -6.4140675e-20)
(-0.090151649 0.21475647 3.4581117e-20)
(-0.095269692 0.2138004 -5.1259493e-20)
(-0.10059658 0.21183489 -1.2726428e-20)
(-0.10610386 0.20900793 6.5495237e-20)
(-0.11173924 0.20541366 -6.8944514e-20)
(-0.11742576 0.2011186 -1.0269539e-19)
(-0.12304862 0.19615575 1.0773902e-20)
(-0.1284481 0.19051099 1.1515056e-19)
(-0.13341291 0.18411905 -1.4963354e-19)
(-0.13767013 0.17686635 3.2829224e-20)
(-0.14088023 0.16860161 -7.0712875e-20)
(-0.14263562 0.15915478 1.0933996e-20)
(-0.14247022 0.14836471 -1.1153879e-19)
(-0.13988484 0.13611852 -5.3529506e-20)
(-0.13439073 0.12240577 -6.5955368e-20)
(-0.12556939 0.10737002 2.6437843e-19)
(-0.11304539 0.091271716 8.5345556e-20)
(-0.09643796 0.074333948 -1.1301388e-19)
(-0.07527965 0.056777962 9.1192921e-20)
(-0.049277634 0.038990506 7.5637979e-20)
(-0.018275465 0.02148107 -8.4919981e-20)
(0.018071449 0.004545339 -4.422649e-20)
(0.060491728 -0.011908091 -1.0346265e-19)
(0.11012565 -0.028126826 -5.026692e-20)
(0.16825849 -0.044307381 1.7233457e-19)
(0.23636536 -0.060453322 9.7650255e-20)
(0.31595092 -0.076949139 1.5788948e-20)
(0.41034208 -0.094102722 -5.3757799e-22)
(0.52094487 -0.11235621 9.0148967e-20)
(0.64353439 -0.12974986 -1.3361141e-19)
(0.76493124 -0.14406359 -1.7553006e-19)
(0.8713554 -0.15139517 -4.9808851e-20)
(0.94938826 -0.15200241 -3.8570594e-19)
(0.99681383 -0.14306611 -3.1211749e-19)
(1.0132951 -0.13044755 -8.0450266e-20)
(1.016022 -0.10880153 -4.3528839e-20)
(-0.00053887007 0.0015051733 7.1595976e-21)