/*--------------------------------*- C++ -*----------------------------------*\
  =========                 |
  \\      /  F ield         | OpenFOAM: The Open Source CFD Toolbox
   \\    /   O peration     | Website:  https://openfoam.org
    \\  /    A nd           | Version:  13
     \\/     M anipulation  |
\*---------------------------------------------------------------------------*/
FoamFile
{
    format      ascii;
    class       volScalarField;
    location    "44.098476";
    object      pPrime2Mean;
}
// * * * * * * * * * * * * * * * * * * * * * * * * * * * * * * * * * * * * * //

dimensions      [0 4 -4 0 0 0 0];

internalField   nonuniform List<scalar> 
17140
(
7062.5244
7062.5245
7062.5244
7062.5241
7062.5235
7062.5226
7062.5214
7062.5196
7062.5173
7062.5143
7062.5104
7062.5054
7062.4991
7062.4911
7062.4811
7062.4686
7062.4528
7062.4331
7062.4084
7062.3774
7062.3386
7062.29
7062.2288
7062.1519
7062.055
7061.9329
7061.7789
7061.5845
7061.3394
7061.0306
7060.6422
7060.1546
7059.5442
7058.7821
7057.8339
7056.6585
7055.2071
7053.4228
7051.2391
7048.5799
7045.358
7041.4749
7036.8195
7031.2677
7024.6811
7016.9065
7007.7753
6997.1029
6984.6879
6970.3106
6953.7325
6934.6949
6912.9183
6888.1015
6859.9194
6828.022
6792.0291
6751.5324
6706.084
6655.2101
6598.3778
6535.0414
6464.5629
6386.3252
6299.5844
7062.6965
7062.6966
7062.6965
7062.6962
7062.6956
7062.6947
7062.6934
7062.6916
7062.6893
7062.6862
7062.6823
7062.6773
7062.671
7062.663
7062.653
7062.6404
7062.6246
7062.6048
7062.5801
7062.5491
7062.5104
7062.4617
7062.4007
7062.3239
7062.2272
7062.1055
7061.9518
7061.758
7061.5135
7061.2054
7060.8179
7060.3312
7059.7218
7058.9607
7058.0135
7056.839
7055.3886
7053.6052
7051.4225
7048.7645
7045.5441
7041.6628
7037.0097
7031.4605
7024.8771
7017.1063
7007.9796
6997.3125
6984.9035
6970.5329
6953.9625
6934.9337
6913.1673
6888.3621
6860.1931
6828.3104
6792.334
6751.8556
6706.4273
6655.5759
6598.7696
6535.4629
6465.0185
6386.8196
6300.1162
7063.122
7063.1221
7063.122
7063.1217
7063.1211
7063.1202
7063.1189
7063.1171
7063.1148
7063.1117
7063.1079
7063.1029
7063.0966
7063.0887
7063.0787
7063.0662
7063.0505
7063.0309
7063.0063
7062.9755
7062.937
7062.8887
7062.828
7062.7518
7062.6557
7062.5347
7062.3819
7062.1892
7061.946
7061.6394
7061.2535
7060.7687
7060.1611
7059.402
7058.4568
7057.2843
7055.8358
7054.0544
7051.8742
7049.219
7046.0021
7042.1252
7037.4774
7031.9347
7025.3592
7017.5978
7008.4822
6997.828
6985.4336
6971.0797
6954.5283
6935.5213
6913.7798
6889.0031
6860.8666
6829.0204
6793.0849
6752.6523
6707.2748
6656.4801
6599.7372
6536.5018
6466.1375
6388.0297
6301.4162
7063.815
7063.8151
7063.815
7063.8147
7063.8141
7063.8132
7063.8119
7063.8101
7063.8078
7063.8049
7063.801
7063.7961
7063.7899
7063.7821
7063.7722
7063.7599
7063.7444
7063.725
7063.7008
7063.6704
7063.6323
7063.5846
7063.5246
7063.4491
7063.354
7063.2341
7063.0827
7062.8916
7062.6503
7062.3458
7061.9623
7061.4801
7060.8752
7060.1189
7059.1765
7058.0068
7056.5613
7054.7833
7052.6069
7049.9564
7046.7454
7042.8756
7038.2365
7032.7045
7026.1417
7018.3955
7009.2979
6998.6645
6986.2938
6971.967
6955.4465
6936.4749
6914.7742
6890.044
6861.9602
6830.1736
6794.305
6753.9471
6708.6528
6657.9503
6601.3105
6538.19
6467.9549
6389.9935
6303.5253
7064.7898
7064.7899
7064.7898
7064.7894
7064.7888
7064.788
7064.7867
7064.785
7064.7827
7064.7797
7064.7759
7064.7711
7064.765
7064.7572
7064.7475
7064.7354
7064.7201
7064.701
7064.6771
7064.6471
7064.6096
7064.5625
7064.5033
7064.4288
7064.3349
7064.2164
7064.0668
7063.8776
7063.6387
7063.3369
7062.9564
7062.4774
7061.876
7061.1232
7060.1845
7059.0187
7057.5774
7055.8041
7053.6335
7050.9899
7047.7872
7043.9276
7039.3008
7033.7837
7027.2388
7019.514
7010.4414
6999.8369
6987.4994
6973.2106
6956.7336
6937.8121
6916.1687
6891.5039
6863.4942
6831.7913
6796.0168
6755.7639
6710.5864
6660.0136
6603.5183
6540.5593
6470.5054
6392.7495
6306.4857
7066.0584
7066.0585
7066.0583
7066.058
7066.0574
7066.0565
7066.0552
7066.0535
7066.0513
7066.0484
7066.0446
7066.0398
7066.0338
7066.0262
7066.0167
7066.0047
7065.9897
7065.9709
7065.9473
7065.9179
7065.881
7065.8346
7065.7763
7065.703
7065.6105
7065.4937
7065.3461
7065.1594
7064.9233
7064.6248
7064.2479
7063.7729
7063.1756
7062.4273
7061.4932
7060.3324
7058.8968
7057.13
7054.967
7052.3326
7049.1411
7045.2948
7040.6843
7035.1866
7028.665
7020.9679
7011.9277
7001.3607
6989.0663
6974.8269
6958.4068
6939.5506
6917.982
6893.4024
6865.4893
6833.8954
6798.2434
6758.1271
6713.1016
6662.6977
6606.3909
6543.6423
6473.8249
6396.337
6310.3412
7067.6339
7067.6339
7067.6338
7067.6334
7067.6328
7067.6319
7067.6307
7067.629
7067.6267
7067.6238
7067.6201
7067.6154
7067.6095
7067.602
7067.5926
7067.5808
7067.5661
7067.5476
7067.5245
7067.4956
7067.4594
7067.4139
7067.3567
7067.2847
7067.1939
7067.0791
7066.9339
7066.7501
7066.5173
7066.2226
7065.85
7065.3795
7064.7872
7064.0442
7063.1158
7061.9613
7060.5327
7058.7743
7056.6211
7053.9984
7050.8208
7046.9914
7042.401
7036.9276
7030.435
7022.7721
7013.772
7003.2514
6991.0105
6976.8328
6960.4835
6941.7088
6920.2332
6895.7595
6867.9665
6836.508
6801.008
6761.0614
6716.2248
6666.0311
6609.9591
6547.4726
6477.9502
6400.7963
6315.1362
7069.5305
7069.5305
7069.5303
7069.53
7069.5294
7069.5285
7069.5272
7069.5255
7069.5233
7069.5204
7069.5168
7069.5122
7069.5063
7069.499
7069.4898
7069.4783
7069.4638
7069.4458
7069.4232
7069.3949
7069.3595
7069.315
7069.2591
7069.1887
7069.0997
7068.9872
7068.8447
7068.6641
7068.4351
7068.1447
7067.7767
7067.3114
7066.7247
7065.9877
7065.066
7063.9191
7062.4992
7060.7509
7058.6096
7056.0011
7052.8405
7049.0314
7044.4654
7039.0213
7032.5636
7024.9419
7015.9898
7005.525
6993.3487
6979.2453
6962.9817
6944.3053
6922.9419
6898.5959
6870.9473
6839.6517
6804.3346
6764.5922
6719.9832
6670.0432
6614.2548
6552.0853
6482.9193
6406.1683
6320.9157
7071.7651
7071.7651
7071.7649
7071.7645
7071.7639
7071.7629
7071.7617
7071.76
7071.7578
7071.755
7071.7514
7071.7469
7071.7412
7071.734
7071.725
7071.7137
7071.6997
7071.6821
7071.6601
7071.6325
7071.598
7071.5546
7071.5
7071.4313
7071.3443
7071.2343
7071.0947
7070.9175
7070.6923
7070.4063
7070.0433
7069.5834
7069.0028
7068.2725
7067.3585
7066.2202
7064.8105
7063.074
7060.9468
7058.3551
7055.2144
7051.4293
7046.8921
7041.4825
7035.0658
7027.4923
7018.5966
7008.1975
6996.0973
6982.0818
6965.9194
6947.359
6926.128
6901.9322
6874.4538
6843.3498
6808.2477
6768.7456
6724.4049
6674.764
6619.3105
6557.5154
6488.77
6412.4948
6327.7257
7074.3555
7074.3554
7074.3552
7074.3548
7074.3542
7074.3533
7074.352
7074.3503
7074.3482
7074.3454
7074.3419
7074.3375
7074.3319
7074.3249
7074.3161
7074.3051
7074.2914
7074.2743
7074.2529
7074.2261
7074.1925
7074.1503
7074.0971
7074.03
7073.9451
7073.8375
7073.7007
7073.5268
7073.3055
7073.0238
7072.6656
7072.2113
7071.6369
7070.9139
7070.0081
7068.8795
7067.4812
7065.7583
7063.6472
7061.0747
7057.9571
7054.1997
7049.6959
7044.3261
7037.9566
7030.4387
7021.6082
7011.285
6999.273
6985.3596
6969.3147
6950.8887
6929.8111
6905.7894
6878.5078
6847.6256
6812.772
6773.5476
6729.5176
6680.2241
6625.1602
6563.8002
6495.5433
6419.8199
6335.6133
7077.3202
7077.3201
7077.3199
7077.3195
7077.3188
7077.3179
7077.3167
7077.315
7077.3129
7077.3102
7077.3067
7077.3024
7077.2969
7077.2901
7077.2816
7077.2709
7077.2576
7077.2409
7077.2201
7077.194
7077.1612
7077.1201
7077.0682
7077.0026
7076.9196
7076.8141
7076.6799
7076.509
7076.2911
7076.0133
7075.6597
7075.2108
7074.6427
7073.927
7073.0301
7071.9121
7070.5263
7068.8185
7066.7254
7064.1745
7061.0831
7057.3573
7052.8915
7047.567
7041.2512
7033.7965
7025.0402
7014.8037
7002.8926
6989.096
6973.1855
6954.9135
6934.0113
6910.1886
6883.1319
6852.5027
6817.9327
6779.0258
6735.3518
6686.4571
6631.8399
6570.9786
6503.28
6428.1865
6344.6259
7080.6764
7080.6763
7080.6761
7080.6757
7080.675
7080.6741
7080.6729
7080.6712
7080.6691
7080.6665
7080.6631
7080.6588
7080.6535
7080.6468
7080.6384
7080.628
7080.615
7080.5987
7080.5784
7080.5529
7080.5208
7080.4805
7080.4297
7080.3654
7080.2839
7080.1802
7080.0482
7079.8798
7079.6647
7079.3904
7079.041
7078.5971
7078.0352
7077.3271
7076.4394
7075.3327
7073.9606
7072.2692
7070.1961
7067.6694
7064.6074
7060.9171
7056.4941
7051.2205
7044.9651
7037.5815
7028.9087
7018.77
7006.973
6993.3086
6977.5505
6959.4529
6938.7493
6915.1517
6888.3491
6858.0057
6823.7565
6785.2092
6741.9386
6693.4962
6639.3847
6579.0873
6512.0204
6437.6397
6354.8111
7084.4387
7084.4386
7084.4384
7084.4379
7084.4373
7084.4364
7084.4351
7084.4335
7084.4315
7084.4288
7084.4255
7084.4213
7084.4161
7084.4095
7084.4013
7084.3911
7084.3784
7084.3624
7084.3424
7084.3174
7084.2859
7084.2463
7084.1963
7084.133
7084.0526
7083.9503
7083.8199
7083.6534
7083.4408
7083.1695
7082.8239
7082.3849
7081.8291
7081.1288
7080.2508
7079.156
7077.7986
7076.1251
7074.074
7071.5742
7068.5448
7064.8943
7060.5189
7055.3021
7049.1139
7041.8097
7033.2303
7023.2012
7011.5321
6998.0163
6982.4292
6964.5272
6944.0462
6920.7009
6894.1829
6864.1597
6830.27
6792.1264
6749.3089
6701.3739
6647.83
6588.1656
6521.8061
6448.2244
6366.2163
7088.6198
7088.6197
7088.6194
7088.619
7088.6183
7088.6174
7088.6162
7088.6146
7088.6126
7088.61
7088.6067
7088.6026
7088.5974
7088.5909
7088.5829
7088.5728
7088.5602
7088.5445
7088.5248
7088.5002
7088.4691
7088.43
7088.3806
7088.318
7088.2385
7088.1372
7088.0081
7087.8432
7087.6327
7087.3642
7087.0222
7086.588
7086.0385
7085.3463
7084.4785
7083.3965
7082.0549
7080.401
7078.3739
7075.9037
7072.9106
7069.304
7064.9814
7059.8276
7053.7139
7046.4979
7038.0224
7028.1153
7016.5887
7003.2382
6987.8414
6970.1572
6949.9238
6926.8589
6900.6574
6870.9905
6837.5011
6799.807
6757.4946
6710.1248
6657.2129
6598.2514
6532.6786
6459.9851
6378.888
7093.2314
7093.2313
7093.231
7093.2306
7093.2299
7093.229
7093.2278
7093.2263
7093.2242
7093.2217
7093.2184
7093.2144
7093.2093
7093.2029
7093.195
7093.185
7093.1726
7093.1571
7093.1377
7093.1133
7093.0826
7093.0438
7092.9949
7092.9328
7092.8539
7092.7535
7092.6255
7092.4621
7092.2536
7091.9878
7091.6496
7091.2203
7090.6775
7089.9939
7089.137
7088.0687
7086.7442
7085.1115
7083.1108
7080.6731
7077.7199
7074.1618
7069.8974
7064.813
7058.7818
7051.6633
7043.3028
7033.5308
7022.162
7008.9943
6993.808
6976.3642
6956.4043
6933.6493
6907.7976
6878.5243
6845.4777
6808.2815
6766.5278
6719.7833
6667.569
6609.3845
6544.6794
6472.9659
6392.8733
7098.2866
7098.2865
7098.2863
7098.2859
7098.2852
7098.2843
7098.2831
7098.2816
7098.2796
7098.2771
7098.2739
7098.2698
7098.2648
7098.2585
7098.2507
7098.2408
7098.2286
7098.2132
7098.194
7098.1698
7098.1393
7098.1009
7098.0523
7097.9907
7097.9125
7097.8128
7097.6859
7097.5239
7097.3175
7097.0546
7096.7204
7096.2965
7095.7607
7095.0862
7094.241
7093.1875
7091.8815
7090.2719
7088.3
7085.898
7082.9886
7079.4835
7075.283
7070.275
7064.3346
7057.3236
7049.0899
7039.4668
7028.2715
7015.3048
7000.3496
6983.17
6963.5107
6941.0961
6915.6284
6886.7876
6854.2286
6817.5808
6776.4414
6730.3836
6678.9357
6621.6032
6557.8492
6487.2104
6408.218
7103.8012
7103.8011
7103.8008
7103.8004
7103.7998
7103.7989
7103.7977
7103.7962
7103.7942
7103.7917
7103.7885
7103.7846
7103.7796
7103.7733
7103.7655
7103.7558
7103.7436
7103.7283
7103.7091
7103.6851
7103.6548
7103.6166
7103.5683
7103.5071
7103.4293
7103.3304
7103.2045
7103.0441
7102.8398
7102.58
7102.2499
7101.8317
7101.3034
7100.6386
7099.8059
7098.7681
7097.482
7095.8977
7093.9572
7091.5941
7088.7325
7085.2855
7081.1549
7076.2305
7070.3897
7063.4968
7055.4022
7045.9422
7034.9369
7022.19
7007.4875
6990.5968
6971.2659
6949.2229
6924.175
6895.8081
6863.7832
6827.7349
6787.2677
6741.9604
6691.3488
6634.9458
6572.2286
6502.7619
6424.9675
7109.792
7109.792
7109.7917
7109.7913
7109.7907
7109.7898
7109.7887
7109.7871
7109.7852
7109.7827
7109.7795
7109.7755
7109.7706
7109.7643
7109.7565
7109.7468
7109.7346
7109.7193
7109.7002
7109.6761
7109.6459
7109.6077
7109.5595
7109.4985
7109.4211
7109.3228
7109.1979
7109.0389
7108.8368
7108.58
7108.2543
7107.8419
7107.3214
7106.6668
7105.8473
7104.8265
7103.5621
7102.0049
7100.0985
7097.7778
7094.9681
7091.5842
7087.5298
7082.6967
7076.9648
7070.2008
7062.2582
7052.976
7042.1777
7029.6702
7015.2428
6998.6663
6979.6925
6958.0538
6933.4636
6905.6134
6874.1697
6838.775
6799.0391
6754.5471
6704.844
6649.4496
6587.8574
6519.6627
6443.1664
7116.2767
7116.2767
7116.2764
7116.276
7116.2754
7116.2746
7116.2734
7116.2719
7116.2699
7116.2674
7116.2642
7116.2602
7116.2551
7116.2488
7116.2409
7116.2311
7116.2187
7116.2033
7116.184
7116.1598
7116.1294
7116.0911
7116.0428
7115.9818
7115.9046
7115.8068
7115.6826
7115.5251
7115.3251
7115.0713
7114.7499
7114.3435
7113.831
7113.1871
7112.3815
7111.3789
7110.1376
7108.61
7106.7406
7104.4656
7101.7121
7098.3966
7094.4248
7089.691
7084.0774
7077.4537
7069.6762
7060.5873
7050.0136
7037.7657
7023.6364
7007.4002
6988.813
6967.6134
6943.5199
6916.2297
6885.4174
6850.7314
6811.7866
6768.1773
6719.4555
6665.1517
6604.775
6537.9547
6462.8586
7123.2689
7123.2689
7123.2687
7123.2683
7123.2677
7123.2668
7123.2656
7123.2641
7123.2621
7123.2595
7123.2563
7123.2522
7123.2471
7123.2407
7123.2327
7123.2227
7123.2102
7123.1945
7123.175
7123.1505
7123.1198
7123.0813
7123.0328
7122.9718
7122.8947
7122.7973
7122.6739
7122.5178
7122.3199
7122.0693
7121.7524
7121.3521
7120.848
7120.2153
7119.4247
7118.4414
7117.2252
7115.7293
7113.8997
7111.6741
7108.9812
7105.7395
7101.8571
7097.2306
7091.7452
7085.2733
7077.6746
7068.7946
7058.4639
7046.4963
7032.6886
7016.8195
6998.6504
6977.9253
6954.3682
6927.6846
6897.5551
6863.6327
6825.542
6782.8827
6735.2179
6682.088
6623.0197
6557.6784
6484.0865
7130.779
7130.7789
7130.7787
7130.7783
7130.7777
7130.7769
7130.7757
7130.7742
7130.7721
7130.7696
7130.7663
7130.7621
7130.757
7130.7505
7130.7423
7130.7322
7130.7195
7130.7037
7130.684
7130.6593
7130.6284
7130.5898
7130.5412
7130.4802
7130.4035
7130.3066
7130.1844
7130.0299
7129.8345
7129.5876
7129.2756
7128.8822
7128.3874
7127.7669
7126.9924
7126.0301
7124.8409
7123.3792
7121.5924
7119.4199
7116.792
7113.6298
7109.8435
7105.3328
7099.9856
7093.6775
7086.2715
7077.6167
7067.5472
7055.881
7042.419
7026.9451
7009.2263
6989.0117
6966.0338
6940.0044
6910.6086
6877.5085
6840.3341
6798.6951
6752.1647
6700.2942
6642.6288
6578.8736
6506.8909
7138.8128
7138.8128
7138.8126
7138.8122
7138.8116
7138.8108
7138.8096
7138.8081
7138.8061
7138.8035
7138.8002
7138.7961
7138.7909
7138.7844
7138.7763
7138.7662
7138.7535
7138.7378
7138.7181
7138.6935
7138.6628
7138.6244
7138.5763
7138.5159
7138.44
7138.3444
7138.2239
7138.0719
7137.8799
7137.6375
7137.3317
7136.9464
7136.4621
7135.8556
7135.099
7134.1599
7133.0001
7131.5754
7129.8347
7127.719
7125.1611
7122.084
7118.4011
7114.0147
7108.8159
7102.6838
7095.4846
7087.0712
7077.2819
7065.9384
7052.8469
7037.7971
7020.5609
7000.8958
6978.541
6953.2138
6924.6053
6892.3855
6856.1926
6815.6454
6770.3286
6719.8047
6663.6387
6601.5786
6531.3106
7147.3751
7147.375
7147.3749
7147.3745
7147.374
7147.3731
7147.372
7147.3705
7147.3686
7147.3661
7147.363
7147.359
7147.3539
7147.3476
7147.3398
7147.3299
7147.3176
7147.3022
7147.2831
7147.2591
7147.2292
7147.1917
7147.1448
7147.0858
7147.0117
7146.9185
7146.8009
7146.6525
7146.4652
7146.2288
7145.9306
7145.555
7145.0833
7144.493
7143.757
7142.8438
7141.7165
7140.3322
7138.6413
7136.587
7134.104
7131.1184
7127.5462
7123.2929
7118.253
7112.309
7105.3308
7097.1755
7087.6848
7076.6856
7063.9904
7049.3935
7032.6751
7013.6
6991.9132
6967.3362
6939.5704
6908.2905
6873.1454
6833.764
6789.7417
6740.6531
6686.0844
6625.8302
6557.3824
7156.4725
7156.4725
7156.4723
7156.472
7156.4715
7156.4707
7156.4697
7156.4683
7156.4665
7156.4642
7156.4612
7156.4575
7156.4528
7156.4469
7156.4395
7156.4302
7156.4186
7156.4041
7156.3859
7156.3632
7156.3347
7156.299
7156.2541
7156.1976
7156.1264
7156.0367
7155.9233
7155.78
7155.5988
7155.37
7155.0814
7154.7178
7154.2612
7153.6895
7152.977
7152.0929
7151.0017
7149.6618
7148.0253
7146.0373
7143.6351
7140.7476
7137.2938
7133.1827
7128.3124
7122.5688
7115.8258
7107.9442
7098.7704
7088.1387
7075.8654
7061.7528
7045.5894
7027.1455
7006.1703
6982.3956
6955.5268
6925.2489
6891.2202
6853.0799
6810.4351
6762.8718
6709.9994
6651.6639
6585.1411
7166.1162
7166.1162
7166.1161
7166.1158
7166.1153
7166.1147
7166.1137
7166.1125
7166.1109
7166.1088
7166.1061
7166.1028
7166.0985
7166.0931
7166.0864
7166.0779
7166.0673
7166.054
7166.0373
7166.0162
7165.9898
7165.9564
7165.9144
7165.8612
7165.7939
7165.7087
7165.6006
7165.4637
7165.2902
7165.0706
7164.7933
7164.4436
7164.004
7163.4537
7162.7676
7161.9162
7160.865
7159.574
7157.9969
7156.081
7153.766
7150.9838
7147.6567
7143.6973
7139.007
7133.4758
7126.9813
7119.3893
7110.5534
7100.3117
7088.4883
7074.8941
7059.3224
7041.5496
7021.3336
6998.4113
6972.4974
6943.2854
6910.4433
6873.6215
6832.4385
6786.4922
6735.4155
6679.1139
6614.6197
7176.3219
7176.3219
7176.3218
7176.3216
7176.3212
7176.3206
7176.3198
7176.3187
7176.3173
7176.3155
7176.3131
7176.3102
7176.3064
7176.3016
7176.2956
7176.288
7176.2785
7176.2665
7176.2513
7176.2322
7176.2079
7176.1772
7176.1383
7176.0887
7176.0257
7175.9455
7175.8434
7175.7136
7175.5486
7175.3394
7175.0746
7174.7404
7174.3201
7173.7936
7173.1368
7172.3214
7171.3142
7170.0765
7168.564
7166.7261
7164.5051
7161.8359
7158.6442
7154.8458
7150.346
7145.0389
7138.8073
7131.5236
7123.0458
7113.2189
7101.8761
7088.8323
7073.8896
7056.8302
7037.4201
7015.4037
6990.5039
6962.4234
6930.8403
6895.4159
6855.7809
6811.5443
6762.3633
6708.213
6645.8505
7187.1063
7187.1064
7187.1063
7187.1061
7187.1058
7187.1053
7187.1046
7187.1037
7187.1025
7187.1008
7187.0988
7187.0961
7187.0928
7187.0885
7187.0831
7187.0763
7187.0677
7187.0568
7187.043
7187.0255
7187.0032
7186.9749
7186.9388
7186.8928
7186.8339
7186.7586
7186.6625
7186.5399
7186.3838
7186.1855
7185.9342
7185.6168
7185.2174
7184.7166
7184.0916
7183.3152
7182.3555
7181.1755
7179.7326
7177.9787
7175.8586
7173.31
7170.2619
7166.6339
7162.3357
7157.266
7151.3141
7144.3571
7136.2589
7126.8744
7116.0404
7103.581
7089.3045
7073.0025
7054.4469
7033.391
7009.5665
6982.6853
6952.4354
6918.4893
6880.4898
6838.057
6790.8723
6738.9922
6678.8659
7198.4828
7198.4828
7198.4828
7198.4826
7198.4823
7198.4819
7198.4812
7198.4804
7198.4793
7198.4778
7198.4759
7198.4734
7198.4703
7198.4664
7198.4614
7198.4551
7198.4471
7198.4369
7198.4241
7198.4078
7198.387
7198.3605
7198.3266
7198.2833
7198.2279
7198.1571
7198.0665
7197.9508
7197.8035
7197.6164
7197.3792
7197.0796
7196.7023
7196.2292
7195.6383
7194.9036
7193.9946
7192.8761
7191.5075
7189.8429
7187.83
7185.4093
7182.5135
7179.0664
7174.9818
7170.1647
7164.5095
7157.8979
7150.2039
7141.2869
7130.9915
7119.151
7105.5807
7090.0799
7072.4291
7052.3903
7029.7042
7004.0921
6975.2521
6942.8672
6906.5924
6866.0584
6820.9713
6771.4805
6713.7002
7210.4566
7210.4566
7210.4566
7210.4564
7210.4562
7210.4557
7210.4551
7210.4543
7210.4532
7210.4518
7210.4499
7210.4475
7210.4445
7210.4407
7210.4359
7210.4297
7210.422
7210.4122
7210.3999
7210.3842
7210.3643
7210.339
7210.3068
7210.2656
7210.2131
7210.1461
7210.0606
7209.9517
7209.8132
7209.6374
7209.4149
7209.1339
7208.7801
7208.3361
7207.7811
7207.0904
7206.235
7205.1814
7203.8913
7202.3211
7200.4215
7198.1364
7195.4022
7192.1467
7188.2893
7183.7403
7178.3981
7172.1533
7164.8866
7156.4635
7146.7388
7135.552
7122.7277
7108.0739
7091.38
7072.4166
7050.9341
7026.6635
6999.3125
6968.5743
6934.1153
6895.5767
6852.6901
6805.7082
6750.39
7223.025
7223.0251
7223.025
7223.0248
7223.0246
7223.0241
7223.0235
7223.0227
7223.0216
7223.0201
7223.0182
7223.0159
7223.0129
7223.009
7223.0042
7222.9982
7222.9905
7222.9809
7222.9688
7222.9536
7222.9343
7222.9099
7222.8789
7222.8397
7222.7898
7222.7265
7222.646
7222.5439
7222.4144
7222.2506
7222.0434
7221.7819
7221.4527
7221.0394
7220.5221
7219.8775
7219.0782
7218.0927
7216.885
7215.4142
7213.6342
7211.4924
7208.9292
7205.8772
7202.261
7197.9944
7192.9836
7187.1274
7180.3112
7172.4103
7163.2872
7152.7905
7140.7537
7126.9941
7111.3105
7093.4831
7073.2718
7050.4178
7024.6377
6995.6347
6963.0855
6926.641
6886.0609
6841.713
6788.9724
7236.1803
7236.1803
7236.1802
7236.1801
7236.1798
7236.1793
7236.1787
7236.1779
7236.1767
7236.1753
7236.1734
7236.1711
7236.1681
7236.1643
7236.1595
7236.1536
7236.1461
7236.1367
7236.125
7236.1102
7236.0917
7236.0683
7236.0389
7236.0018
7235.9549
7235.8956
7235.8207
7235.726
7235.6062
7235.455
7235.2642
7235.0235
7234.7202
7234.3389
7233.861
7233.2645
7232.5238
7231.6094
7230.488
7229.1216
7227.4676
7225.4772
7223.0948
7220.2585
7216.8958
7212.9274
7208.2678
7202.8205
7196.4793
7189.1287
7180.6399
7170.8707
7159.6641
7146.8472
7132.2292
7115.6002
7096.7305
7075.3711
7051.248
7024.0726
6993.5312
6959.2821
6921.1188
6879.5404
6829.4916
7249.9138
7249.9138
7249.9137
7249.9136
7249.9133
7249.9128
7249.9122
7249.9114
7249.9103
7249.9089
7249.9071
7249.9049
7249.902
7249.8984
7249.8939
7249.8882
7249.8812
7249.8723
7249.8612
7249.8474
7249.83
7249.8083
7249.781
7249.7466
7249.7034
7249.649
7249.5805
7249.4942
7249.3853
7249.248
7249.0748
7248.856
7248.58
7248.2322
7247.7954
7247.2488
7246.5689
7245.7287
7244.6974
7243.4407
7241.9193
7240.0882
7237.8972
7235.2869
7232.191
7228.5382
7224.2476
7219.2302
7213.3894
7206.6181
7198.7971
7189.7937
7179.4611
7167.637
7154.1414
7138.7759
7121.3208
7101.5377
7079.1618
7053.9125
7025.4832
6993.5354
6957.8912
6919.197
6872.0517
7264.2172
7264.2172
7264.2171
7264.2169
7264.2167
7264.2163
7264.2157
7264.215
7264.214
7264.2128
7264.2112
7264.2092
7264.2066
7264.2034
7264.1994
7264.1943
7264.188
7264.1801
7264.1703
7264.1579
7264.1424
7264.1231
7264.0987
7264.0682
7264.0298
7263.9814
7263.9206
7263.8439
7263.7471
7263.625
7263.4705
7263.2749
7263.0272
7262.7141
7262.3195
7261.8246
7261.2078
7260.4448
7259.508
7258.3663
7256.984
7255.3211
7253.3302
7250.957
7248.1426
7244.8205
7240.9168
7236.3517
7231.0369
7224.8745
7217.7553
7209.5569
7200.1433
7189.3634
7177.0492
7163.0144
7147.0506
7128.9297
7108.3967
7085.179
7058.9759
7029.4389
6996.3931
6960.7845
6916.6826
7279.0856
7279.0856
7279.0855
7279.0854
7279.0852
7279.0848
7279.0844
7279.0838
7279.083
7279.082
7279.0806
7279.079
7279.0769
7279.0743
7279.071
7279.0668
7279.0616
7279.055
7279.0468
7279.0365
7279.0236
7279.0073
7278.9868
7278.9609
7278.9282
7278.8869
7278.8347
7278.7686
7278.685
7278.5788
7278.4439
7278.2722
7278.0535
7277.7758
7277.4244
7276.9827
7276.4314
7275.749
7274.9111
7273.89
7272.6541
7271.167
7269.385
7267.2609
7264.7408
7261.7646
7258.2668
7254.1761
7249.4132
7243.89
7237.5073
7230.1539
7221.7053
7212.0225
7200.9504
7188.316
7173.9237
7157.5562
7138.9689
7117.8972
7094.0397
7067.0149
7036.6921
7004.3487
6963.4322
7294.5132
7294.5132
7294.5132
7294.5131
7294.5129
7294.5126
7294.5123
7294.5119
7294.5113
7294.5106
7294.5096
7294.5084
7294.5069
7294.505
7294.5025
7294.4995
7294.4956
7294.4908
7294.4846
7294.4768
7294.4668
7294.4542
7294.438
7294.4175
7294.3911
7294.3575
7294.3146
7294.2597
7294.1895
7294.0996
7293.9842
7293.8363
7293.6467
7293.4047
7293.0976
7292.7108
7292.2277
7291.6295
7290.8952
7290.0004
7288.9175
7287.6129
7286.0496
7284.1854
7281.9721
7279.3576
7276.2847
7272.6908
7268.5063
7263.6528
7258.0417
7251.5737
7244.1369
7235.6054
7225.8381
7214.6767
7201.9401
7187.4236
7170.8931
7152.0888
7130.7027
7106.3523
7078.834
7049.9366
7012.4468
7310.4954
7310.4954
7310.4953
7310.4952
7310.4951
7310.495
7310.4948
7310.4945
7310.4941
7310.4937
7310.4931
7310.4924
7310.4914
7310.4902
7310.4887
7310.4868
7310.4843
7310.4811
7310.477
7310.4717
7310.4648
7310.4558
7310.444
7310.4286
7310.4086
7310.3824
7310.3484
7310.3042
7310.2468
7310.1725
7310.0762
7309.9516
7309.7911
7309.5853
7309.3236
7308.9936
7308.5814
7308.0712
7307.4448
7306.6819
7305.7573
7304.643
7303.3073
7301.713
7299.8196
7297.5826
7294.9536
7291.8793
7288.2995
7284.1462
7279.3422
7273.8005
7267.4228
7260.0979
7251.7002
7242.0873
7231.095
7218.5326
7204.1764
7187.7703
7169.0269
7147.503
7122.9184
7097.6313
7063.8775
7327.0208
7327.0207
7327.0207
7327.0206
7327.0205
7327.0204
7327.0203
7327.0202
7327.02
7327.0198
7327.0195
7327.0191
7327.0187
7327.0181
7327.0174
7327.0164
7327.0151
7327.0134
7327.0111
7327.0079
7327.0037
7326.9978
7326.9899
7326.9791
7326.9645
7326.9448
7326.9187
7326.8841
7326.8385
7326.7787
7326.7005
7326.5989
7326.4673
7326.2983
7326.0832
7325.812
7325.4733
7325.0542
7324.5401
7323.9131
7323.1526
7322.2359
7321.1359
7319.8222
7318.2614
7316.418
7314.2522
7311.72
7308.7712
7305.3486
7301.3872
7296.8129
7291.5423
7285.4804
7278.5183
7270.5316
7261.3744
7250.8707
7238.8194
7224.9753
7209.046
7190.5632
7169.131
7147.6014
7117.8441
7344.0723
7344.0723
7344.0722
7344.0721
7344.0721
7344.072
7344.0719
7344.0718
7344.0717
7344.0716
7344.0715
7344.0713
7344.0711
7344.0709
7344.0706
7344.0702
7344.0696
7344.0687
7344.0675
7344.0657
7344.063
7344.0593
7344.0539
7344.0463
7344.0356
7344.021
7344.0012
7343.9746
7343.9393
7343.8929
7343.8321
7343.7528
7343.6502
7343.5184
7343.3507
7343.1398
7342.8768
7342.552
7342.1531
7341.6662
7341.0757
7340.3632
7339.5072
7338.4845
7337.2699
7335.8363
7334.1531
7332.1855
7329.8937
7327.2321
7324.1484
7320.5829
7316.4677
7311.7249
7306.2649
7299.98
7292.7508
7284.4251
7274.8206
7263.7088
7250.8136
7235.6483
7217.7356
7200.1099
7174.3447
7361.6189
7361.6188
7361.6187
7361.6186
7361.6185
7361.6184
7361.6183
7361.6182
7361.6181
7361.6179
7361.6178
7361.6177
7361.6175
7361.6173
7361.6171
7361.6168
7361.6164
7361.6158
7361.6149
7361.6136
7361.6118
7361.609
7361.605
7361.5994
7361.5914
7361.5805
7361.5657
7361.546
7361.5201
7361.4862
7361.4423
7361.3854
7361.312
7361.218
7361.0989
7360.9498
7360.7648
7360.5362
7360.2554
7359.913
7359.4974
7358.9951
7358.3914
7357.6704
7356.8153
7355.8076
7354.6258
7353.2445
7351.635
7349.7636
7347.5914
7345.0733
7342.1605
7338.7935
7334.9028
7330.4041
7325.1994
7319.1654
7312.1576
7303.98
7294.3819
7282.8877
7269.0153
7255.2202
7233.7514
7379.6238
7379.6237
7379.6235
7379.6234
7379.6233
7379.6231
7379.6229
7379.6227
7379.6225
7379.6222
7379.6219
7379.6216
7379.6212
7379.6208
7379.6204
7379.6199
7379.6192
7379.6184
7379.6174
7379.616
7379.6141
7379.6115
7379.6079
7379.6031
7379.5967
7379.5882
7379.5773
7379.5634
7379.5459
7379.5239
7379.4964
7379.462
7379.4186
7379.3631
7379.2935
7379.2073
7379.1011
7378.9705
7378.8111
7378.6172
7378.3813
7378.0959
7377.7531
7377.3447
7376.8621
7376.2957
7375.6331
7374.859
7373.9564
7372.9045
7371.6783
7370.25
7368.5879
7366.6539
7364.4004
7361.767
7358.6865
7355.0657
7350.7988
7345.7482
7339.7171
7332.331
7323.1814
7313.8051
7297.6577
7398.8538
7398.8536
7398.8534
7398.8531
7398.8528
7398.8525
7398.8522
7398.8518
7398.8514
7398.8509
7398.8503
7398.8496
7398.8489
7398.8481
7398.8471
7398.846
7398.8446
7398.843
7398.8411
7398.8388
7398.8361
7398.8327
7398.8287
7398.8238
7398.8179
7398.811
7398.8032
7398.7945
7398.7849
7398.7744
7398.7632
7398.7511
7398.7378
7398.7231
7398.7071
7398.6892
7398.669
7398.6463
7398.6196
7398.5874
7398.5478
7398.4997
7398.4426
7398.3763
7398.3003
7398.2143
7398.1159
7398.0009
7397.8644
7397.7001
7397.4998
7397.2541
7396.9513
7396.5758
7396.1048
7395.5075
7394.7454
7393.7687
7392.5143
7390.9084
7388.8442
7386.1121
7382.7212
7379.6175
7373.6892
7419.0844
7419.0842
7419.0839
7419.0835
7419.0832
7419.0828
7419.0823
7419.0818
7419.0812
7419.0805
7419.0797
7419.0787
7419.0776
7419.0763
7419.0749
7419.0731
7419.0711
7419.0688
7419.066
7419.0629
7419.0592
7419.0551
7419.0505
7419.0456
7419.0404
7419.0355
7419.0311
7419.0282
7419.0275
7419.0301
7419.0371
7419.0499
7419.0703
7419.0996
7419.1402
7419.1955
7419.2688
7419.3622
7419.4769
7419.6172
7419.7872
7419.9925
7420.2404
7420.5392
7420.8974
7421.3238
7421.8265
7422.4133
7423.0931
7423.8753
7424.7701
7425.7878
7426.9379
7428.2285
7429.6645
7431.2476
7432.9744
7434.8394
7436.8314
7438.9459
7441.1763
7443.4941
7446.1224
7449.5105
7452.0655
7439.2753
7439.275
7439.2747
7439.2743
7439.2739
7439.2735
7439.273
7439.2724
7439.2717
7439.271
7439.2701
7439.2692
7439.268
7439.2667
7439.2653
7439.2636
7439.2616
7439.2594
7439.2569
7439.2541
7439.2509
7439.2476
7439.2442
7439.241
7439.2385
7439.2373
7439.2383
7439.2428
7439.2524
7439.2692
7439.2952
7439.3331
7439.3857
7439.4573
7439.5531
7439.6785
7439.8396
7440.0428
7440.2953
7440.6057
7440.9839
7441.4422
7441.9954
7442.6595
7443.452
7444.3908
7445.4951
7446.7851
7448.2839
7450.0173
7452.0136
7454.3034
7456.9176
7459.8885
7463.2488
7467.0333
7471.2764
7476.0171
7481.2983
7487.1798
7493.7318
7501.0595
7509.4194
7519.0824
7529.8789
7459.3401
7459.3398
7459.3395
7459.3392
7459.3388
7459.3384
7459.3379
7459.3374
7459.3368
7459.3361
7459.3354
7459.3346
7459.3337
7459.3327
7459.3316
7459.3304
7459.329
7459.3275
7459.3258
7459.3241
7459.3224
7459.3208
7459.3196
7459.3192
7459.3203
7459.3239
7459.3311
7459.3437
7459.3638
7459.3942
7459.4384
7459.5
7459.5847
7459.6986
7459.8483
7460.0422
7460.29
7460.6022
7460.9905
7461.4688
7462.0531
7462.7625
7463.6191
7464.6467
7465.8708
7467.3194
7469.0223
7471.0128
7473.3288
7476.0122
7479.1096
7482.6714
7486.7508
7491.404
7496.692
7502.6823
7509.4473
7517.0696
7525.6433
7535.2864
7546.1363
7558.3889
7572.3434
7588.3512
7606.9159
7479.1836
7479.1833
7479.183
7479.1827
7479.1823
7479.182
7479.1816
7479.1812
7479.1808
7479.1804
7479.18
7479.1796
7479.1791
7479.1787
7479.1783
7479.1779
7479.1776
7479.1773
7479.1772
7479.1774
7479.1779
7479.1791
7479.1811
7479.1847
7479.1906
7479.2
7479.2146
7479.2364
7479.2683
7479.3141
7479.378
7479.4657
7479.584
7479.7401
7479.9435
7480.206
7480.5403
7480.9606
7481.4836
7482.1283
7482.9171
7483.8757
7485.0331
7486.4205
7488.0722
7490.0254
7492.3216
7495.0074
7498.1352
7501.7633
7505.9558
7510.7826
7516.3191
7522.6465
7529.8537
7538.0402
7547.3152
7557.8032
7569.6466
7583.0188
7598.1235
7615.2324
7634.7113
7657.0266
7682.8701
7498.7295
7498.7292
7498.7289
7498.7287
7498.7284
7498.7282
7498.728
7498.7278
7498.7276
7498.7275
7498.7275
7498.7275
7498.7277
7498.728
7498.7284
7498.7291
7498.73
7498.7313
7498.733
7498.7353
7498.7384
7498.7427
7498.7485
7498.7566
7498.768
7498.7842
7498.8071
7498.8395
7498.8849
7498.9477
7499.0333
7499.1484
7499.3009
7499.5003
7499.7586
7500.0899
7500.5104
7501.0383
7501.6948
7502.5046
7503.496