/*--------------------------------*- C++ -*----------------------------------*\
  =========                 |
  \\      /  F ield         | OpenFOAM: The Open Source CFD Toolbox
   \\    /   O peration     | Website:  https://openfoam.org
    \\  /    A nd           | Version:  13
     \\/     M anipulation  |
\*---------------------------------------------------------------------------*/
FoamFile
{
    format      ascii;
    class       volScalarField;
    location    "0.09";
    object      mag(U);
}
// * * * * * * * * * * * * * * * * * * * * * * * * * * * * * * * * * * * * * //

dimensions      [0 1 -1 0 0 0 0];

internalField   nonuniform List<scalar> 
1000
(
33.8137
33.8438
33.9278
34.0651
34.2318
34.4036
34.5634
34.6945
34.7937
34.8751
34.9505
35.0251
35.1029
35.1893
35.288
35.3986
35.5175
35.6396
35.7612
35.8805
35.9976
36.1131
36.2268
36.3369
36.4406
36.5349
36.6229
36.7129
36.8122
36.9228
37.0412
37.162
37.2803
37.3933
37.5002
37.603
37.704
37.8057
37.9074
38.0076
38.1029
38.1915
38.2762
38.3546
38.4295
38.5019
38.5778
38.6582
38.7497
38.8642
38.9682
39.0666
39.1852
39.2868
39.3867
39.5059
39.6068
39.7152
39.8322
39.9222
40.0321
40.1559
40.2467
40.3562
40.4893
40.5872
40.6963
40.8424
40.9447
41.039
41.2024
41.3149
41.3687
41.5285
41.6828
41.709
41.8201
42.0309
42.086
42.1156
42.3245
42.4726
42.4631
42.5809
42.8026
42.8412
42.8689
43.0838
43.2084
43.1994
43.3483
43.5488
43.5574
43.6116
43.8444
43.9369
43.9109
44.0742
44.2891
44.2874
44.3091
44.539
44.6645
44.6324
44.7566
44.9728
44.9921
45.0129
45.2257
45.3391
45.317
45.4563
45.6537
45.657
45.6981
45.9206
46.0106
45.9861
46.1463
46.343
46.3345
46.3765
46.6122
46.7116
46.6747
46.8233
47.05
47.0562
47.0591
47.2889
47.4479
47.4038
47.4834
47.7411
47.8142
47.7644
47.9248
48.1607
48.1599
48.1416
48.363
48.5416
48.4923
48.5302
48.7842
48.8929
48.8217
48.9214
49.1822
49.2313
49.1571
49.3066
49.5629
49.5727
49.5004
49.6785
49.9353
49.9302
49.8513
50.0317
50.3039
50.3109
50.2137
50.3652
50.6602
50.7135
50.6027
50.7007
50.9959
51.0947
50.9969
51.0777
51.3526
51.4309
51.3563
51.486
51.7252
51.7344
51.7048
51.907
52.0693
52.0201
52.076
52.3122
52.3689
52.3142
52.4719
52.672
52.6416
52.6414
52.8664
52.9817
52.9118
53.0006
53.2363
53.2581
53.2008
53.3765
53.5663
53.5193
53.5206
53.7503
53.8597
53.7816
53.866
54.1043
54.1282
54.0601
54.226
54.4288
54.3855
54.3616
54.5842
54.7251
54.6429
54.6818
54.9295
55.0014
54.9081
55.0139
55.2573
55.2662
55.1856
55.351
55.563
55.5206
55.4807
55.6933
55.8444
55.7667
55.7954
56.0313
56.0989
56.0154
56.1306
56.3469
56.3308
56.282
56.4746
56.6262
56.5528
56.578
56.8095
56.8723
56.7829
56.896
57.1175
57.1001
57.034
57.2194
57.3947
57.3219
57.307
57.5358
57.6484
57.5453
57.5896
57.8362
57.8892
57.7783
57.8785
58.1213
58.1224
58.0177
58.1638
58.3911
58.3528
58.2643
58.4462
58.6484
58.5788
58.5162
58.726
58.8942
58.8004
58.7749
59.0061
59.1275
59.0185
59.0459
59.2864
59.3437
59.2383
59.3383
59.5564
59.5405
59.4744
59.6481
59.7982
59.7293
59.7444
59.953
60.0128
59.9394
60.039
60.2327
60.2385
60.1948
60.3272
60.4928
60.5046
60.5049
60.6403
60.7487
60.7369
60.787
60.9425
60.9692
60.9371
61.0709
61.2022
61.156
61.1692
61.3599
61.418
61.34
61.4315
61.6218
61.6041
61.544
61.7079
61.849
61.7747
61.7776
61.9864
62.0492
61.9523
62.0397
62.2514
62.2363
62.1562
62.3205
62.4917
62.4186
62.3898
62.6026
62.7094
62.6046
62.6413
62.8728
62.9103
62.799
62.9033
63.1238
63.0996
63.0048
63.165
63.3532
63.2823
63.2223
63.4231
63.5679
63.4657
63.4482
63.6751
63.776
63.657
63.6822
63.9225
63.9848
63.8614
63.9272
64.1704
64.1977
64.0785
64.1835
64.4224
64.4159
64.3045
64.4456
64.6757
64.6403
64.5411
64.7133
64.93
64.8688
64.7812
64.9757
65.1836
65.1067
65.024
65.2269
65.4281
65.3425
65.2607
65.4667
65.6651
65.5762
65.4961
65.7039
65.8989
65.8063
65.7266
65.9352
66.1273
66.0327
65.9553
66.1652
66.3525
66.2543
66.1831
66.3995
66.5808
66.4786
66.415
66.6372
66.8113
66.7042
66.6506
66.8821
67.0494
66.9382
66.8943
67.1337
67.2972
67.1825
67.1436
67.3896
67.5549
67.4393
67.4005
67.6493
67.8188
67.7033
67.6605
67.9087
68.0847
67.9707
67.9202
68.165
68.3491
68.2381
68.1782
68.4165
68.6078
68.5008
68.4304
68.661
68.8624
68.7605
68.6747
68.8932
69.1113
69.0209
68.9117
69.1092
69.3563
69.2924
69.1493
69.3025
69.5841
69.5801
69.4087
69.4781
69.7732
69.8799
69.7161
69.6653
69.9164
70.1511
70.0568
69.9028
70.0499
70.3561
70.402
70.2215
70.2083
70.4788
70.7104
70.6103
70.4569
70.6084
70.9179
70.9642
70.7889
70.8076
71.0974
71.2599
71.1219
71.0565
71.3046
71.5254
71.4271
71.3258
71.5413
71.7839
71.7108
71.5971
71.7937
72.0442
71.9832
71.8628
72.0487
72.3049
72.2521
72.123
72.2971
72.5641
72.5245
72.3815
72.534
72.8124
72.7956
72.6411
72.7651
73.0529
73.0646
72.9017
72.9904
73.2827
73.3308
73.1638
73.2128
73.5039
73.5926
73.4302
73.436
73.7169
73.8509
73.6991
73.6608
73.9252
74.1051
73.9721
73.8904
74.1293
74.3527
74.2489
74.1288
74.3328
74.5919
74.5274
74.3776
74.5368
74.8211
74.8035
74.637
74.7475
75.0436
75.0743
74.902
74.9636
75.2603
75.3387
75.17
75.1861
75.4745
75.5985
75.4401
75.4117
75.6848
75.8539
75.7117
75.6401
75.8905
76.1029
75.986
75.8734
76.0908
76.3427
76.2624
76.1155
76.2892
76.5697
76.535
76.366
76.4891
76.7879
76.8067
76.6247
76.6855
76.9876
77.0736
76.8967
76.8874
77.1733
77.336
77.183
77.0981
77.3439
77.5827
77.4793
77.3269
77.5047
77.8002
77.7785
77.589
77.6695
77.9811
78.0675
77.8818
77.8494
78.129
78.3314
78.1942
78.0593
78.264
78.5522
78.5063
78.3133
78.4061
78.7209
78.8017
78.6112
78.5749
78.853
79.0595
78.9228
78.7858
78.9909
79.2686
79.2083
79.0252
79.1506
79.4526
79.4685
79.2776
79.3329
79.6316
79.7055
79.5214
79.5273
79.8146
79.9308
79.7581
79.7259
79.9993
80.1517
79.9917
79.9256
80.1833
80.3692
80.226
80.127
80.3632
80.5819
80.4619
80.3315
80.5395
80.7902
80.7008
80.5403
80.7109
80.9895
80.9415
80.7585
80.8812
81.1773
81.1803
80.986
81.0512
81.3527
81.4171
81.2254
81.2261
81.5163
81.649
81.4731
81.4063
81.6696
81.8713
81.7293
81.5985
81.8146
82.0778
81.9932
81.8114
81.9542
82.2567
82.2574
82.0538
82.0973
82.4036
82.5148
82.3257
82.2566
82.5217
82.7483
82.6195
82.453
82.6283
82.9332
82.9156
82.7038
82.747
83.0579
83.1896
83.0056
82.9036
83.1462
83.415
83.3252
83.1251
83.2385
83.5614
83.6275
83.4208
83.369
83.6444
83.8797
83.7542
83.5702
83.7183
84.0417
84.0749
83.861
83.8316
84.1173
84.3418
84.2067
84.0251
84.177
84.503
84.5378
84.3231
84.2837
84.5636
84.8036
84.679
84.4856
84.6114
84.9411
85.0145
84.8078
84.7245
84.9723
85.2567
85.1796
84.9651
85.0203
85.3385
85.5027
85.3291
85.1751
85.3514
85.678
85.6999
85.4825
85.435
85.7044
85.9696
85.8662
85.6571
85.743
86.0702
86.2001
86.0088
85.8824
86.0997
86.4086
86.3715
86.1492
86.1798
86.4927
86.664
86.4911
86.3452
86.5513
86.8589
86.8234
86.6031
86.6497
86.9679
87.1049
86.9164
86.807
87.0499
87.3222
87.2305
87.0278
87.1491
87.4727
87.519
87.3052
87.2814
87.5759
87.7706
87.6109
87.4599
87.6669
87.9657
87.9144
87.6987
87.7706
88.0936
88.1958
87.9935
87.9099
88.1719
88.4277
88.3151
88.1142
88.2423
88.5709
88.6223
88.4058
88.35
88.626
88.8731
88.7492
88.5475
88.668
89
89.0741
88.8614
88.7748
89.0265
89.307
89.2194
89.0006
89.0724
89.3989
89.5303
89.3333
89.2038
89.4272
89.7301
89.6748
89.4476
89.4953
89.8157
89.9586
89.7664
89.637
89.8662
90.1554
90.0802
89.8603
89.9473
90.2727
90.3549
90.1414
90.0763
90.3536
90.5781
90.4334
90.2575
90.4413
90.7464
90.7088
90.4873
90.5515
90.8718
90.9619
90.7531
90.6941
90.9744
91.185
91.0325
90.8725
91.0755
91.371
91.3118
91.0967
91.1901
91.5168
91.5823
91.3679
91.3323
91.6275
91.827
91.6658
91.5159
91.7327
92.0369
91.9816
91.7681
91.8575
92.1905
92.2799
92.0746
92.0173
92.3061
92.5513
92.4237
92.2477
92.4258
92.7639
92.778
92.5649
92.5846
92.9135
93.1089
92.9495
92.8134
93.041
93.3734
93.3506
93.1425
93.2032
93.5517
93.7287
93.5638
93.4511
93.701
94.0403
94.0167
93.8172
93.8889
94.2473
94.4379
94.2826
94.1696
94.4181
94.7732
94.7719
94.5787
94.6394
95.001
95.2205
95.0816
94.9596
95.1979
95.5684
95.5937
95.4068
95.4559
95.8169
96.0552
95.9291
95.8068
96.0458
96.422
96.454
96.2708
96.3236
96.6909
96.9294
96.8027
96.6861
96.9344
97.31
97.3324
97.1501
97.2164
97.5894
97.8147
97.6809
97.5732
97.8311
98.2033
98.2148
98.0308
98.1022
98.4766
98.6993
98.5629
98.449
98.6987
99.0754
99.0964
98.9079
98.9557
99.3211
99.5671
99.4403
99.3032
99.5196
99.9044
99.96
99.7687
99.7689
100.106
100.396
100.297
100.126
100.285
100.671
100.788
100.604
100.538
100.829
101.165
101.113
100.915
100.999
101.368
101.559
101.398
101.268
101.491
101.857
101.883
101.677
101.668
101.99
102.276
102.162
101.966
102.104
102.497
102.599
102.395
102.323
102.59
102.86
102.834
102.692
102.653
102.805
)
;

boundaryField
{
    sides
    {
        type            calculated;
        value           nonuniform List<scalar> 2(102.805 33.8137);
    }
    empty
    {
        type            empty;
    }
}


// ************************************************************************* //
