/*--------------------------------*- C++ -*----------------------------------*\
  =========                 |
  \\      /  F ield         | OpenFOAM: The Open Source CFD Toolbox
   \\    /   O peration     | Website:  https://openfoam.org
    \\  /    A nd           | Version:  13
     \\/     M anipulation  |
\*---------------------------------------------------------------------------*/
FoamFile
{
    format      ascii;
    class       volScalarField;
    location    "0.09";
    object      p;
}
// * * * * * * * * * * * * * * * * * * * * * * * * * * * * * * * * * * * * * //

dimensions      [1 -1 -2 0 0 0 0];

internalField   nonuniform List<scalar> 
1000
(
8621.62
8621.45
8620.88
8619.9
8618.74
8617.56
8616.45
8615.51
8614.78
8614.18
8613.61
8613.03
8612.42
8611.75
8610.98
8610.11
8609.17
8608.18
8607.19
8606.2
8605.21
8604.22
8603.24
8602.26
8601.29
8600.33
8599.38
8598.4
8597.37
8596.26
8595.08
8593.87
8592.63
8591.41
8590.18
8589
8587.83
8586.68
8585.58
8584.46
8583.54
8582.34
8581.8
8580.47
8579.69
8578.32
8577.07
8575.44
8573.5
8574.3
8572.8
8569.65
8571.2
8568.57
8565.97
8567.54
8564.15
8562.92
8564.38
8558.9
8558.26
8560.42
8554.61
8553.46
8556.34
8551.12
8548.73
8552.76
8548.26
8542.1
8548.55
8547.65
8533.7
8540.53
8547.85
8529.11
8528.32
8544.61
8532.46
8517.68
8533.07
8538.89
8515.21
8516.67
8535.39
8520.39
8505.93
8523.44
8525.37
8501.58
8508.58
8524.34
8503.54
8494.47
8514.9
8511.7
8486.74
8495.88
8513.46
8492.27
8479.08
8498.93
8501.84
8475.22
8479.11
8497.96
8480.13
8466.03
8484.18
8485.43
8460.18
8466.69
8483.02
8461.85
8451.54
8471.29
8468.17
8443.2
8452.75
8468.45
8445.15
8435.03
8456.25
8454.7
8427.39
8434.49
8454.39
8434.41
8417.43
8436.97
8445.39
8416.21
8412.52
8436.79
8430.54
8402.61
8411.48
8432.46
8412.09
8392.79
8411.26
8423.45
8394.09
8385.16
8409.04
8410.31
8378.46
8378.88
8403.95
8394.96
8365.2
8372.4
8396.37
8380.21
8353.19
8363.94
8387.2
8368.64
8341.91
8352.24
8376.97
8361.34
8331.51
8336.94
8364.76
8357.92
8323.03
8322.23
8350.92
8350.75
8315.22
8313.3
8340.44
8336.11
8304.21
8309.91
8332.95
8314.69
8293.1
8310.48
8321.61
8291.59
8286.1
8309.6
8301.75
8273.62
8284.41
8302.59
8276.74
8262.07
8283.54
8287.49
8254.97
8255.33
8279.22
8265.11
8238.85
8252.5
8269.17
8240.73
8227.3
8249.54
8252.92
8219.49
8219.51
8243.92
8230.78
8202.74
8214.97
8233.91
8206.81
8189.57
8210.5
8219.43
8185.2
8178.74
8204.06
8201.14
8166.79
8170.1
8195.22
8179.94
8151.16
8163.36
8183.76
8157.39
8137.98
8157.75
8168.72
8135.22
8127.6
8151.85
8148.26
8115.59
8121.21
8143.48
8122.39
8100.14
8117.63
8129.54
8096.73
8088.67
8112.81
8108.97
8075.71
8081.12
8104.39
8083.93
8059.24
8075.49
8091.34
8059.51
8045.65
8068.85
8074.58
8038.13
8033.76
8060.09
8055.18
8019.63
8023.16
8049.29
8034.52
8003.12
8013.12
8036.85
8013.93
7987.82
8003.24
8023.1
7993.63
7973.28
7993.36
8008.13
7973.78
7959.74
7983.71
7991.31
7954.26
7948.27
7974.52
7970.77
7935.87
7940.67
7964.48
7944.92
7920.8
7936.88
7949.59
7918.37
7910.1
7931.68
7927.61
7898.22
7902.58
7920.79
7904.67
7885.32
7892.36
7904.43
7888.2
7876.09
7882.44
7887.81
7866.53
7861.93
7874.54
7863.73
7842.94
7851.15
7861.92
7834.46
7825.4
7843.29
7840.26
7809.61
7812.61
7832.22
7812.41
7789.85
7803.35
7815.57
7783.45
7773.42
7794.49
7792.53
7758.11
7760.73
7783.3
7764.32
7737.74
7751.15
7767.62
7735.91
7720.63
7741.56
7747.4
7710.25
7705.76
7730.24
7723.05
7687.98
7692.88
7716.35
7696.21
7668.24
7680.87
7699.6
7669.37
7649.81
7668.22
7680.36
7643.98
7632.04
7654.36
7659.29
7620.54
7614.74
7639.29
7637.16
7598.79
7598.12
7623.5
7614.27
7578.41
7582.35
7607.25
7590.9
7558.75
7567.24
7590.78
7567.76
7539.53
7552.36
7573.92
7545.74
7520.92
7536.72
7556.62
7525.43
7502.62
7519.8
7538.88
7506.5
7484.51
7502.36
7521.07
7488.14
7466.53
7484.79
7503.18
7469.86
7448.69
7467.26
7485.31
7451.58
7430.97
7449.92
7467.57
7433.2
7413.39
7433.45
7449.98
7414.63
7396.06
7417.03
7432.59
7396.18
7378.94
7401.33
7415.56
7378.06
7362.11
7385.56
7399.07
7360.76
7345.44
7369.63
7383.05
7344.52
7329.13
7353.6
7367.41
7328.99
7313.04
7337.4
7352.03
7313.99
7297.07
7320.85
7336.61
7299.29
7281.11
7303.96
7320.98
7284.68
7265
7286.56
7305.1
7270.21
7248.51
7268.04
7288.97
7257.03
7231.75
7247.55
7272.01
7246.41
7215.21
7223.89
7253.01
7240.22
7200.27
7198.32
7229.4
7234.77
7190.46
7176.74
7199.66
7220.8
7190.08
7160.97
7166.28
7197.92
7194.48
7149.99
7139.96
7165.5
7185.62
7153.74
7125.01
7130.62
7162.8
7158.85
7114.75
7107.47
7137.56
7149.65
7108.51
7091.23
7114.66
7134.74
7101.03
7076.81
7095.46
7119.23
7090.32
7062.7
7078.89
7104.24
7077.7
7048.39
7063.13
7089.61
7065.07
7033.99
7046.84
7074.82
7053.5
7019.82
7029.6
7059.42
7043
7006.08
7011.96
7043.37
7032.86
6992.72
6994.29
7026.7
7022.66
6980.12
6976.96
7009.25
7012.04
6968.48
6960.32
6991.21
7000.45
6957.97
6944.52
6972.53
6987.99
6948.97
6929.63
6953.06
6974.45
6941.53
6915.72
6933.13
6959.9
6935.21
6902.84
6913.61
6944.48
6928.99
6890.82
6895.2
6928.45
6921.79
6879.8
6878.34
6912.21
6913.31
6869.76
6862.95
6895.64
6903.56
6860.67
6848.52
6878.7
6892.95
6852.84
6835.07
6861.2
6881.45
6846.55
6822.58
6843.02
6868.91
6841.53
6811.03
6824.64
6855.37
6837.23
6800.41
6806.66
6840.78
6832.88
6791.04
6789.69
6824.94
6827.75
6783.74
6774.37
6807.1
6820.48
6779.55
6761.26
6786.58
6810.2
6779.5
6750.67
6764.09
6796.57
6782.24
6742.57
6742.86
6779.47
6782.74
6738.2
6726.72
6758.19
6776.7
6739.92
6715.82
6733.37
6764.38
6746.21
6708.34
6709.87
6747.06
6749.88
6705.11
6693.51
6725.06
6744.33
6708.18
6683.52
6702.34
6732.59
6711.79
6675.83
6683.03
6718.84
6711.47
6669.27
6668.29
6704.94
6706.76
6663.09
6656.29
6691.72
6699.77
6657.02
6645.47
6678.8
6692.02
6651.13
6635.22
6665.76
6683.81
6646.02
6625.52
6652.24
6675.07
6641.93
6616.38
6637.95
6665.74
6639.04
6607.96
6623.19
6655.51
6637.05
6600.33
6608.34
6644.25
6635.25
6593.79
6594.21
6631.74
6632.64
6588.62
6581.46
6617.71
6628.32
6585.77
6570.59
6601.82
6621.71
6585.46
6561.64
6583.76
6612.72
6588.05
6554.58
6564.55
6600.88
6591.98
6549.63
6547.03
6585.42
6592.97
6548.93
6534.35
6565.07
6587.71
6554.67
6526.81
6540.65
6576.12
6564.5
6522.87
6519.49
6558.26
6568.6
6525.36
6507.69
6533.12
6561.61
6536.71
6502.65
6506.54
6546.06
6547.69
6502.54
6490.21
6521.81
6545.25
6513.35
6484.29
6492.3
6531.21
6528.11
6483.49
6473.17
6506.67
6528.57
6494.58
6467.23
6475.2
6514.37
6511.62
6466.99
6455.95
6487.98
6511.87
6480.2
6451.24
6454.82
6495.51
6498.12
6453.09
6439.06
6463.75
6494.38
6471.98
6436.74
6432.32
6471.82
6486.17
6445
6424.26
6434.37
6473.97
6468.83
6424.71
6413.67
6443
6470.41
6443.1
6410.96
6409.47
6450.63
6460.7
6416.85
6398.69
6417.46
6452.57
6438.08
6397.42
6392.06
6431.27
6446.6
6405.86
6383.91
6401.85
6437.3
6423.13
6382.18
6378.99
6419.52
6430.63
6387.19
6368.91
6395.19
6424.78
6399.91
6365.34
6371.32
6411.93
6410.85
6365.61
6355.96
6392.95
6411.59
6373.22
6349.33
6369
6403.54
6386.47
6347.13
6347.02
6388.75
6395.46
6350.57
6335.3
6365.56
6392.67
6363.86
6332.25
6338.16
6379.86
6379.59
6334.4
6322.32
6354.96
6380.69
6349.82
6319.97
6323.6
6366.33
6369.35
6324.12
6309.96
6336.97
6368.1
6344.44
6309.44
6307.68
6350.36
6360.99
6317.35
6298.89
6320.2
6355.41
6338.66
6299
6295.65
6337.72
6350.17
6307.19
6287.68
6311.67
6344.94
6324.53
6286.75
6288.67
6331.42
6336
6290.46
6277.13
6312.01
6335.29
6300.95
6273.09
6290.17
6327.41
6313.42
6272.21
6272.4
6314.92
6320.36
6275.01
6261.89
6297.86
6319.36
6282.93
6256.9
6277.57
6312.61
6294.11
6255.04
6258.48
6301.04
6302.62
6256.65
6245.84
6283.81
6303.26
6264.51
6239.9
6261.25
6296.13
6277.33
6237.92
6239.67
6282.4
6286.82
6240.54
6226.86
6261.21
6285.54
6251.61
6222.13
6234.54
6274.56
6266.57
6221.47
6214.43
6254.58
6271.19
6229.56
6206.35
6225.31
6262.05
6246.44
6204.24
6200.06
6241.97
6255.21
6210.66
6189.94
6210.57
6246.35
6228.93
6187.25
6182.87
6224.47
6238.35
6193.89
6172.43
6190.91
6227.93
6213.26
6169.79
6163.65
6204.06
6220.76
6177.59
6154.1
6169.25
6208.27
6196.8
6151.42
6143.88
6183.27
6201.71
6159.82
6134.86
6149.33
6188.87
6177.89
6132.21
6124.71
6164.49
6182.63
6140.09
6115.6
6131.67
6170.77
6157.56
6112.74
6106.43
6147.63
6164.08
6120.04
6097.02
6114.78
6153.59
6138.6
6094.87
6088.74
6130.63
6147.17
6103.16
6080.36
6096.71
6137.15
6124.07
6079.68
6071.82
6112.69
6132.67
6091.44
6066.33
6077.3
6121.13
6114.71
6068.2
6057.03
6093.12
6120.3
6085.73
6055.59
6058.54
6105.27
6109.04
6061.42
6046.07
6073.23
6108.93
6085.04
6047.93
6043.42
6089.15
6104.22
6060.11
6038.87
6053.21
6098.16
6088.57
6043.3
6033.54
6071.98
6098.3
6063.35
6036.76
6037.1
6083.27
6091.11
6048.27
6025.83
6048.78
6096.25
6077.23
6022.95
6026.95
6087.05
)
;

boundaryField
{
    sides
    {
        type            zeroGradient;
    }
    empty
    {
        type            empty;
    }
}


// ************************************************************************* //
