/*--------------------------------*- C++ -*----------------------------------*\
  =========                 |
  \\      /  F ield         | OpenFOAM: The Open Source CFD Toolbox
   \\    /   O peration     | Website:  https://openfoam.org
    \\  /    A nd           | Version:  13
     \\/     M anipulation  |
\*---------------------------------------------------------------------------*/
FoamFile
{
    format      ascii;
    class       volScalarField;
    location    "0.09";
    object      p_0;
}
// * * * * * * * * * * * * * * * * * * * * * * * * * * * * * * * * * * * * * //

dimensions      [1 -1 -2 0 0 0 0];

internalField   nonuniform List<scalar> 
1000
(
8621.75
8621.58
8621
8620.03
8618.86
8617.69
8616.57
8615.63
8614.91
8614.31
8613.73
8613.15
8612.55
8611.88
8611.11
8610.24
8609.29
8608.31
8607.31
8606.32
8605.33
8604.35
8603.37
8602.39
8601.42
8600.46
8599.51
8598.53
8597.5
8596.39
8595.21
8594
8592.76
8591.54
8590.31
8589.13
8587.95
8586.81
8585.69
8584.59
8583.65
8582.47
8581.93
8580.57
8579.83
8578.4
8577.22
8575.49
8573.68
8574.56
8572.73
8569.85
8571.46
8568.47
8566.22
8567.74
8564.1
8563.23
8564.44
8558.84
8558.63
8560.5
8554.51
8553.82
8556.51
8550.95
8549.07
8553.09
8547.86
8542.39
8549.24
8546.99
8533.69
8541.65
8547.49
8528.42
8529.43
8545.17
8531.13
8518.07
8534.47
8538.18
8514.48
8518.07
8535.9
8518.92
8506.47
8524.81
8524.33
8501.15
8510.19
8524.37
8502.22
8495.34
8516.15
8510.27
8486.45
8497.66
8513.6
8490.7
8479.73
8500.42
8500.77
8474.57
8480.71
8498.35
8478.56
8466.64
8485.59
8484.26
8459.72
8468.35
8483.1
8460.41
8452.38
8472.59
8466.7
8442.96
8454.52
8468.4
8443.67
8435.92
8457.65
8453.24
8426.92
8436.34
8454.74
8432.6
8417.91
8438.75
8444.62
8415.03
8413.86
8438.04
8428.74
8402.26
8413.48
8432.86
8410.11
8393.13
8413.21
8422.97
8392.59
8386.16
8410.63
8408.9
8377.58
8380.51
8405.11
8392.9
8364.81
8374.44
8397.14
8377.94
8353.02
8366.14
8387.84
8366.28
8341.72
8354.48
8377.77
8358.94
8331.12
8339.01
8365.94
8355.79
8322.29
8323.84
8352.45
8349.11
8314.21
8314.85
8341.86
8334.21
8303.63
8311.91
8333.59
8312.55
8293.42
8312.46
8320.96
8290.2
8287.41
8310.93
8299.74
8273.41
8286.49
8302.64
8274.8
8262.82
8285.34
8286.17
8253.97
8257.04
8280.24
8262.85
8238.88
8254.64
8269.03
8238.81
8228.12
8251.35
8251.51
8218.48
8221.22
8245.03
8228.46
8202.66
8217.17
8234
8204.65
8190.17
8212.53
8218.48
8183.71
8180.04
8205.7
8199.17
8166.05
8172.08
8196.23
8177.45
8151.06
8165.66
8183.98
8155.07
8138.47
8159.87
8167.95
8133.62
8128.82
8153.47
8146.27
8115
8123.26
8144.09
8120.01
8100.5
8119.75
8128.85
8095.08
8089.89
8114.46
8106.91
8075.1
8083.21
8105.1
8081.4
8059.45
8077.76
8091.02
8057.45
8046.48
8070.86
8073.23
8036.76
8035.26
8061.71
8052.94
8018.91
8025.23
8050.4
8031.84
8002.86
8015.5
8037.46
8011.2
7987.91
8005.69
8023.2
7991.11
7973.7
7995.71
8007.65
7971.65
7960.57
7985.82
7990.09
7952.71
7949.68
7976.22
7968.6
7935.18
7942.79
7965.25
7942.41
7921.08
7939.04
7949.01
7916.71
7911.24
7933.22
7925.7
7897.8
7904.33
7921.42
7902.72
7885.46
7893.88
7904.67
7886.87
7876.34
7883.66
7887.32
7865.7
7862.74
7875.49
7861.91
7843.05
7852.82
7861.52
7832.94
7826.29
7844.84
7838.39
7809.08
7814.39
7832.94
7810.02
7790.13
7805.4
7815.02
7781.68
7774.45
7796.24
7790.53
7757.37
7762.67
7784.23
7761.65
7737.89
7753.44
7767.42
7733.68
7721.41
7743.63
7746.01
7708.86
7707.26
7731.87
7720.59
7687.44
7695.03
7717.26
7693.39
7668.32
7683.25
7699.71
7666.83
7650.33
7670.49
7679.65
7641.98
7632.97
7656.42
7657.78
7619.11
7616.1
7641.13
7634.97
7597.86
7599.9
7625.04
7611.6
7577.87
7584.49
7608.42
7587.99
7558.54
7569.64
7591.54
7564.78
7539.56
7554.91
7574.31
7542.82
7521.11
7539.32
7556.79
7522.59
7502.89
7522.4
7538.94
7503.68
7484.82
7504.96
7521.07
7485.34
7466.86
7487.39
7503.15
7467.08
7449.04
7469.86
7485.22
7448.83
7431.34
7452.52
7467.41
7430.5
7413.84
7436.03
7449.68
7412.02
7396.57
7419.59
7432.15
7393.65
7379.56
7403.86
7414.95
7375.64
7362.8
7388.08
7398.35
7358.38
7346.17
7372.16
7382.31
7342.13
7329.86
7356.17
7366.7
7326.55
7313.72
7340.01
7351.43
7311.45
7297.69
7323.51
7336.13
7296.64
7281.64
7306.68
7320.65
7281.91
7265.43
7289.33
7304.97
7267.29
7248.79
7270.89
7289.14
7253.87
7231.79
7250.46
7272.68
7242.99
7214.93
7226.63
7254.35
7236.97
7199.51
7200.13
7231.5
7233.14
7188.44
7177.17
7202.59
7221.18
7186.63
7160.62
7168.86
7199.58
7191.85
7148.66
7140.56
7168.4
7185.92
7150.28
7124.65
7133.27
7164.45
7156.16
7113.44
7108.7
7140.09
7148.78
7105.92
7091.67
7117.61
7134.75
7097.84
7076.93
7098.51
7119.62
7086.97
7062.68
7081.94
7104.81
7074.29
7048.29
7066.17
7090.31
7061.61
7033.78
7049.86
7075.73
7049.99
7019.44
7032.53
7060.62
7039.55
7005.47
7014.68
7044.88
7029.64
6991.84
6996.64
7028.54
7019.88
6978.86
6978.84
7011.42
7009.93
6966.72
6961.68
6993.7
6999.08
6955.66
6945.37
6975.35
6987.37
6946.09
6930.01
6956.16
6974.54
6938.16
6915.69
6936.36
6960.59
6931.57
6902.47
6916.69
6945.71
6925.47
6890.1
6897.88
6930.15
6918.74
6878.64
6880.46
6914.32
6910.97
6868.09
6864.5
6898.1
6901.97
6858.44
6849.54
6881.52
6892.11
6850.05
6835.58
6864.33
6881.31
6843.24
6822.65
6846.35
6869.4
6837.87
6810.73
6827.92
6856.43
6833.56
6799.74
6809.57
6842.4
6829.67
6789.88
6791.87
6827.11
6825.53
6781.85
6775.61
6809.88
6819.53
6776.72
6761.58
6789.93
6810.45
6775.84
6750.32
6767.47
6797.79
6778.61
6741.65
6745.23
6781.61
6780.58
6736.18
6727.6
6761.29
6776.39
6736.54
6715.61
6736.92
6765.39
6742.42
6707.53
6712.4
6749.14
6747.65
6703.1
6694.34
6728.23
6744.09
6704.72
6683.36
6705.92
6733.47
6707.93
6675.14
6686.13
6720.47
6708.2
6668.01
6670.61
6707.12
6704.33
6661.25
6657.97
6694.29
6698.05
6654.68
6646.66
6681.69
6690.89
6648.36
6635.99
6668.93
6683.21
6642.84
6625.87
6655.67
6675.02
6638.38
6616.36
6641.54
6666.23
6635.22
6607.58
6626.75
6656.53
6633.22
6599.58
6611.56
6645.81
6631.82
6592.58
6596.75
6633.86
6630.07
6586.78
6583.07
6620.44
6626.86
6583.11
6571.31
6605.14
6621.37
6582
6561.6
6587.46
6613.36
6584.09
6553.96
6567.96
6602.4
6588.5
6548.36
6549.17
6587.9
6591.18
6546.44
6534.91
6568.57
6587.74
6550.9
6526.35
6544.31
6577.46
6560.81
6521.71
6521.48
6560.89
6567.18
6522.56
6507.77
6536.92
6562.23
6532.66
6501.9
6509.51
6548.09
6545.16
6500.52
6490.78
6525.4
6545.39
6509.47
6483.66
6495.69
6532.97
6525.05
6481.84
6473.93
6510.18
6528.53
6490.78
6466.59
6478.61
6516.15
6508.59
6465.31
6456.51
6491.66
6512.03
6476.28
6450.54
6457.82
6497.63
6495.68
6451
6439
6467.74
6495.15
6467.89
6435.96
6434.04
6474.82
6485.17
6441.85
6423.65
6438
6475.65
6465.55
6423.22
6413.91
6446.93
6470.89
6439
6410.22
6411.75
6453.28
6459.16
6414.03
6398.32
6421.49
6453.75
6434.12
6396.35
6393.69
6434.34
6445.74
6402.51
6383.51
6405.86
6438.51
6419.16
6381.06
6381.07
6422.29
6429.2
6384.23
6368.95
6399.2
6425.41
6395.71
6364.53
6374.64
6413.88
6407.9
6363.71
6357.12
6396.34
6411.03
6369.61
6348.98
6373.08
6404.6
6382.37
6346.08
6349.62
6391.23
6393.41
6348.02
6335.59
6369.53
6393.02
6359.7
6331.47
6341.53
6381.86
6376.7
6332.45
6322.77
6358.9
6380.87
6345.74
6319.19
6326.73
6368.55
6366.83
6321.91
6309.93
6341.18
6368.78
6340.2
6308.58
6309.99
6353.14
6359.42
6314.41
6298.54
6324.45
6356.48
6334.49
6297.93
6297.74
6340.65
6348.83
6304.03
6287.47
6315.92
6345.81
6320.25
6285.76
6291.62
6333.77
6333.63
6288.01
6277.84
6315.83
6335.17
6296.92
6272.57
6294.33
6328.67
6309.33
6270.99
6275.16
6317.39
6318.05
6272.5
6262.77
6301.57
6319.02
6279.03
6256.54
6281.82
6313.62
6289.82
6253.99
6261.67
6303.27
6299.83
6254.45
6246.98
6287.41
6302.69
6260.72
6239.58
6265.55
6297.15
6273
6236.87
6242.66
6284.81
6284.38
6238.08
6227.53
6265.17
6285.56
6247.41
6221.49
6238.58
6276.22
6262.78
6219.95
6216.05
6257.96
6270.33
6225.93
6205.95
6229.65
6263.33
6242.15
6203.09
6202.16
6245.12
6253.89
6207.34
6189.62
6214.98
6247.57
6224.53
6186.19
6184.92
6227.68
6237.15
6190.46
6172.04
6195.3
6229.31
6208.95
6168.62
6165.38
6207.55
6219.87
6173.9
6153.6
6173.56
6209.88
6192.63
6150.09
6145.38
6186.94
6201.05
6155.93
6134.33
6153.65
6190.52
6173.73
6130.84
6126.27
6168.16
6181.87
6136.24
6115.12
6136.1
6172.33
6153.23
6111.47
6108.22
6151.21
6163.05
6116.36
6096.56
6119.33
6155.05
6134.14
6093.67
6090.57
6134.25
6146.1
6099.47
6079.81
6101.28
6138.72
6119.69
6078.38
6073.24
6116.63
6131.99
6087.46
6065.6
6081.6
6123.1
6110.8
6066.54
6057.67
6097.62
6120.33
6081.26
6054.72
6062.02
6107.92
6106.2
6058.95
6045.88
6078.16
6109.75
6080.31
6046.95
6045.58
6092.75
6102.73
6056.65
6038.13
6057.86
6099.88
6084.43
6041.8
6034.08
6076.65
6098.36
6058.85
6035.72
6040.56
6086.14
6088.22
6045.67
6025.85
6053.34
6096.76
6073.79
6021.79
6027.29
6089.19
)
;

boundaryField
{
    sides
    {
        type            calculated;
        value           nonuniform List<scalar> 2(6089.19 8621.75);
    }
    empty
    {
        type            empty;
    }
}


// ************************************************************************* //
