/*--------------------------------*- C++ -*----------------------------------*\
  =========                 |
  \\      /  F ield         | OpenFOAM: The Open Source CFD Toolbox
   \\    /   O peration     | Website:  https://openfoam.org
    \\  /    A nd           | Version:  13
     \\/     M anipulation  |
\*---------------------------------------------------------------------------*/
FoamFile
{
    format      ascii;
    class       surfaceScalarField;
    location    "0.09";
    object      phi;
}
// * * * * * * * * * * * * * * * * * * * * * * * * * * * * * * * * * * * * * //

dimensions      [1 0 -1 0 0 0 0];

internalField   nonuniform List<scalar> 
999
(
23.6268
23.699
23.7713
23.8436
23.9158
23.9881
24.0604
24.1326
24.2048
24.277
24.3492
24.4214
24.4937
24.566
24.6384
24.7108
24.7834
24.856
24.9286
25.0014
25.0742
25.147
25.2199
25.293
25.3662
25.4396
25.5132
25.587
25.661
25.7351
25.8092
25.8834
25.9573
26.0315
26.104
26.1787
26.2479
26.3241
26.389
26.4675
26.5296
26.6075
26.6809
26.7393
26.8222
26.8678
26.9577
26.9893
27.0904
27.2438
27.2033
27.3172
27.47
27.4118
27.5507
27.6677
27.6392
27.817
27.86
27.8219
28.0296
28.0832
28.0198
28.2231
28.3301
28.2263
28.4161
28.6157
28.3832
28.5398
28.9482
28.5795
28.5523
29.2007
29.02
28.6014
29.2285
29.5774
28.8062
29.0101
29.8297
29.4506
29.0054
29.7965
30.1221
29.2672
29.5553
30.362
29.7865
29.5053
30.4331
30.4802
29.6956
30.1754
30.9219
30.1177
29.9164
30.9437
31.0611
30.1387
30.4889
31.3645
30.7827
30.3761
31.288
31.5489
30.6315
30.9614
31.7944
31.1523
30.853
31.804
31.8883
31.0385
31.4976
32.2711
31.4428
31.2664
32.292
32.2969
31.4191
31.9
32.7324
31.9165
31.6076
32.667
32.9039
31.8375
32.0868
33.1305
32.7264
32.0122
32.7558
33.506
32.4848
32.2491
33.3962
33.6618
32.5047
32.6758
33.816
33.5788
32.6776
33.2211
34.1629
33.3865
32.8441
33.763
34.464
33.2918
33.033
34.1988
34.6801
33.3647
33.237
34.5003
34.9067
33.5384
33.4046
34.6914
35.1882
33.8006
33.5573
34.7303
35.4431
34.2441
33.7908
34.6848
35.594
34.6888
34.0673
34.9296
35.7887
34.7192
34.3451
35.4859
35.8998
34.6469
34.8013
35.9612
35.629
34.7829
35.5082
36.3123
35.1587
35.0002
36.2083
36.2812
35.1276
35.5311
36.5924
35.8732
35.2507
36.2175
36.851
35.5376
35.5208
36.7709
36.7345
35.5913
36.0365
37.1066
36.34
35.7067
36.6729
37.3581
36.0127
35.9292
37.213
37.3136
36.0279
36.3421
37.5365
37.0403
36.1346
36.8506
37.8311
36.7202
36.248
37.3746
38.0065
36.5594
36.469
37.8043
37.9825
36.6053
36.8561
38.1038
37.709
36.7332
37.4121
38.3847
37.2599
36.8741
38.0536
38.4578
37.0544
37.2284
38.4782
38.1322
37.1257
37.7978
38.7867
37.6214
37.2203
38.4211
38.8886
37.4016
37.4893
38.8274
38.6979
37.453
37.9019
39.0909
38.3644
37.5214
38.3548
39.3361
38.0664
37.6004
38.7852
39.4818
37.9241
37.7396
39.124
39.5292
37.9184
37.9368
39.3787
39.4932
37.9834
38.1884
39.5815
39.3649
38.071
38.5142
39.7718
39.122
38.1678
38.9516
39.9823
38.7502
38.2971
39.5159
40.0168
38.5279
38.655
39.9297
39.6414
38.625
39.254
40.1855
39.0932
38.8067
39.8176
40.2254
39.0716
39.1341
40.0213
40.1925
39.3952
39.5313
40.2456
39.9951
39.4774
39.9294
40.5205
39.4482
39.4881
40.4732
40.2912
39.3618
39.8582
40.7942
39.7276
39.375
40.4019
40.8745
39.4481
39.5865
40.8033
40.5384
39.4521
40.021
41.0799
39.947
39.4676
40.5857
41.188
39.6047
39.6532
41.0112
40.9602
39.5994
40.0249
41.2639
40.5121
39.6423
40.4868
41.4898
40.067
39.7051
40.9558
41.5465
39.8697
39.8789
41.288
41.4119
39.87
40.1405
41.4984
41.1489
39.9179
40.4308
41.672
40.8526
39.9551
40.7226
41.8415
40.5997
39.9964
41.0158
41.9678
40.4219
40.0625
41.3051
42.0439
40.3216
40.1568
41.569
42.0766
40.29
40.2723
41.7877
42.0818
40.3172
40.3974
41.9485
42.1097
40.3787
40.5047
42.0613
42.1646
40.4482
40.5954
42.1556
42.2276
40.5182
40.676
42.2411
42.2891
40.591
40.7582
42.3236
42.3407
40.6608
40.8411
42.4071
42.3817
40.7221
40.9474
42.5013
42.3969
40.788
41.0496
42.5968
42.4085
40.8481
41.1693
42.7016
42.4146
40.9132
41.2804
42.8094
42.4598
40.9839
41.3707
42.9112
42.5486
41.0647
41.4497
43.0097
42.6709
41.1541
41.513
43.1025
42.8244
41.2481
41.5704
43.192
42.9876
41.3475
41.6199
43.2738
43.1555
41.4433
41.6574
43.3427
43.3404
41.5375
41.6626
43.387
43.5601
41.6263
41.6172
43.3684
43.8303
41.7585
41.5577
43.1815
44.0265
42.1095
41.6154
42.6476
43.9424
43.0503
41.7715
41.9812
43.7621
44.0514
41.9434
41.7106
43.2317
44.2667
42.7529
41.9006
42.2066
43.9835
44.2347
42.1091
41.8714
43.4297
44.465
42.9093
42.0697
42.7456
44.3052
43.8726
42.2402
42.454
44.2629
44.3473
42.3788
42.4112
44.2665
44.5679
42.5108
42.4586
44.3077
44.7139
42.6274
42.5237
44.3645
44.8517
42.7394
42.5705
44.3944
45.0074
42.8805
42.61
44.3648
45.1452
43.0744
42.6686
44.2778
45.2436
43.3351
42.757
44.1324
45.2932
43.6774
42.8641
43.9415
45.2944
44.1036
42.979
43.7375
45.2848
44.5534
43.0867
43.539
45.2829
44.9999
43.1895
43.3629
45.2698
45.4007
43.3049
43.2454
45.2102
45.6976
43.4727
43.2105
45.0658
45.8671
43.7481
43.2671
44.8525
45.9364
44.1355
43.3805
44.6045
45.9297
44.589
43.5074
44.3821
45.9216
45.0541
43.6248
44.174
45.9275
45.5056
43.7384
43.9849
45.9273
45.9233
43.8526
43.8427
45.8918
46.2638
44.006
43.7798
45.7736
46.4825
44.2561
43.8029
45.5392
46.5791
44.6734
43.9167
45.1803
46.5542
45.2887
44.069
44.7498
46.4932
46.0107
44.2112
44.3481
46.4247
46.6551
44.3783
44.1264
46.1801
46.9826
44.7928
44.1943
45.5753
46.9307
45.7006
44.3998
44.8595
46.8028
46.7071
44.579
44.4073
46.5809
47.2584
44.9444
44.4146
45.9011
47.2218
45.9503
44.6479
45.0783
47.0684
47.0135
44.8319
44.6828
46.887
47.4878
45.121
44.66
46.5219
47.575
45.6285
44.8018
46.151
47.5421
46.1448
44.9445
45.895
47.5231
46.5666
45.06
45.7132
47.5348
46.9379
45.1637
45.5602
47.5542
47.2867
45.2652
45.4162
47.5607
47.615
45.376
45.305
47.5311
47.9044
45.5244
45.241
47.4215
48.113
45.7623
45.253
47.1945
48.2135
46.1496
45.3541
46.8419
48.202
46.7122
45.5111
46.4209
48.1494
47.3604
45.6483
46.0123
48.1038
47.9888
45.7899
45.7029
48.0049
48.4663
46.009
45.5837
47.6542
48.647
46.5545
45.7244
46.9593
48.5376
47.542
45.9305
46.1996
48.4077
48.5125
46.1308
45.806
48.047
48.9281
46.6968
45.9432
47.0817
48.7633
47.9942
46.1923
46.1762
48.5558
49.0092
46.491
45.9998
47.7708
49.0792
47.6166
46.2973
46.569
48.8379
49.0066
46.5562
46.1355
48.181
49.3257
47.5162
46.4357
46.8223
49.0477
49.1132
46.7072
46.2859
48.3482
49.5048
47.7084
46.6099
46.8711
49.1949
49.3808
46.906
46.4562
48.2421
49.6087
48.1949
46.8301
46.7282
49.2287
49.7721
47.2311
46.7331
47.6981
49.6169
49.1065
47.0807
46.6785
48.8851
49.9821
48.0238
47.0433
47.1132
49.5905
49.9682
47.397
46.9301
48.2513
49.9597
49.1228
47.2902
47.012
49.5133
50.3043
47.8729
47.1755
48.09
50.0587
49.6323
47.4737
47.1802
49.6677
50.4768
48.0434
47.3117
48.5099
50.2922
49.5165
47.5955
47.5485
50.0754
50.5376
47.9079
47.375
49.374
50.642
48.9026
47.6577
48.2805
50.4503
50.2085
47.8915
47.6189
50.1644
50.8899
48.3527
47.6715
49.197
50.8018
49.6405
47.9716
48.0706
50.5889
50.8883
48.264
47.753
49.7828
51.0853
49.3892
48.106
48.2988
50.804
51.0063
48.4206
47.9191
49.7899
51.2297
49.7684
48.3181
48.2253
50.8797
51.3783
48.7182
48.1655
49.5059
51.3033
50.4478
48.5315
48.2559
50.9158
51.6427
49.0639
48.3687
49.565
51.4591
50.7445
48.6919
48.4946
51.17
51.7817
49.1116
48.4619
50.2146
51.7418
50.3763
48.7724
49.1165
51.5618
51.5888
49.0124
48.6368
51.2205
52.0666
49.5481
48.7418
50.3691
51.9802
50.6571
49.0124
49.4612
51.8429
51.7342
49.2278
48.9451
51.6064
52.3124
49.6469
48.9468
50.8597
52.3138
50.6784
49.2291
49.8412
52.1529
51.9106
49.4668
49.2064
51.9052
52.617
49.921
49.2267
51.0102
52.5787
51.1695
49.5485
49.8683
52.4008
52.513
49.8302
49.385
51.8762
52.9803
50.6735
49.6681
50.5699
52.7564
52.3436
49.986
49.6786
52.3943
53.2608
50.6018
49.849
51.0489
53.0892
52.395
50.2238
49.9639
52.7311
53.559
50.8254
50.1268
51.2994
53.3838
52.7592
50.5218
50.2206
52.9653
53.8962
51.231
50.4629
51.4312
53.6881
53.2606
50.8535
50.4888
53.1765
54.2525
51.694
50.8113
51.6394
54.0102
53.7248
51.1965
50.8178
53.5043
54.6138
52.062
51.1508
52.0166
54.3979
54.0482
51.5368
51.1798
53.9481
55.0021
52.3253
51.478
52.485
54.808
54.2915
51.8786
51.535
54.3885
55.3819
52.6136
51.8153
52.8429
55.1938
54.6555
52.2408
51.8417
54.6983
55.7612
53.0523
52.1933
52.9621
55.5215
55.222
52.6262
52.1299
54.7879
56.1014
53.7168
52.6052
52.8955
55.7983
55.9323
53.0475
52.4844
54.5804
56.3317
54.6666
53.0237
52.8215
55.9581
56.5691
53.5706
52.9364
54.161
56.5149
55.7137
53.4356
52.9238
55.8124
56.9763
54.4242
53.4209
53.6421
56.6619
56.8146
53.9024
53.2493
55.3098
57.1997
55.5056
53.7846
53.7201
56.5972
57.0329
54.888
54.0744
54.1679
)
;

boundaryField
{
    sides
    {
        type            calculated;
        value           nonuniform List<scalar> 2(55.6421 -23.5545);
    }
    empty
    {
        type            empty;
    }
}


// ************************************************************************* //
