/*--------------------------------*- C++ -*----------------------------------*\
  =========                 |
  \\      /  F ield         | OpenFOAM: The Open Source CFD Toolbox
   \\    /   O peration     | Website:  https://openfoam.org
    \\  /    A nd           | Version:  13
     \\/     M anipulation  |
\*---------------------------------------------------------------------------*/
FoamFile
{
    format      ascii;
    class       volScalarField;
    location    "0.09";
    object      rho;
}
// * * * * * * * * * * * * * * * * * * * * * * * * * * * * * * * * * * * * * //

dimensions      [1 -3 0 0 0 0 0];

internalField   nonuniform List<scalar> 
1000
(
0.164482
0.16448
0.164472
0.16446
0.164447
0.164434
0.164423
0.164412
0.164402
0.164392
0.164382
0.164371
0.164359
0.164348
0.164337
0.164325
0.164315
0.164304
0.164294
0.164284
0.164274
0.164264
0.164255
0.164245
0.164237
0.164228
0.164219
0.164211
0.164203
0.164195
0.164186
0.164178
0.16417
0.164161
0.164152
0.164143
0.164134
0.164124
0.164114
0.164104
0.164093
0.164082
0.16407
0.164058
0.164045
0.164032
0.164019
0.164005
0.163991
0.163977
0.163962
0.163948
0.163933
0.163918
0.163902
0.163887
0.163872
0.163856
0.16384
0.163825
0.163809
0.163795
0.163779
0.163764
0.163752
0.163734
0.163714
0.163709
0.163693
0.163665
0.163665
0.163662
0.163623
0.163617
0.163628
0.163588
0.163558
0.163559
0.163581
0.163534
0.163491
0.163493
0.163525
0.163482
0.163424
0.163419
0.163457
0.163441
0.163359
0.163339
0.163361
0.163402
0.163328
0.163266
0.163287
0.163343
0.163274
0.163193
0.163173
0.163185
0.163244
0.163212
0.163128
0.163128
0.163187
0.163141
0.163033
0.163041
0.163129
0.163078
0.16293
0.16293
0.163052
0.163036
0.162838
0.162801
0.162939
0.162994
0.162777
0.162671
0.162783
0.162919
0.162766
0.162569
0.162615
0.162805
0.162756
0.162495
0.16247
0.162665
0.162714
0.162462
0.162359
0.16249
0.162624
0.162487
0.162292
0.162293
0.162465
0.16249
0.16226
0.162178
0.162299
0.162405
0.162204
0.162044
0.162136
0.162307
0.162172
0.161916
0.161931
0.162162
0.162168
0.161839
0.161747
0.161954
0.162096
0.161847
0.161626
0.16172
0.161954
0.16188
0.161563
0.161538
0.161771
0.161829
0.161554
0.161441
0.161572
0.161693
0.161569
0.161402
0.16137
0.161463
0.161531
0.161399
0.161296
0.161311
0.161409
0.161325
0.161153
0.161158
0.161296
0.161254
0.161016
0.160985
0.161152
0.161193
0.160919
0.160816
0.160956
0.161095
0.160889
0.160669
0.160716
0.16094
0.160899
0.16056
0.160489
0.160712
0.160844
0.16056
0.160331
0.160423
0.160685
0.160618
0.160242
0.160194
0.160455
0.160559
0.160249
0.160063
0.16018
0.160392
0.160297
0.159989
0.159947
0.16015
0.160246
0.160016
0.159834
0.15983
0.159994
0.160039
0.159817
0.15971
0.159739
0.159872
0.159786
0.159568
0.159568
0.159708
0.159668
0.159438
0.159414
0.159534
0.159552
0.159362
0.159317
0.159288
0.159326
0.159346
0.15921
0.159144
0.159153
0.159207
0.159096
0.158991
0.158991
0.159056
0.158979
0.158835
0.158822
0.158829
0.158871
0.158774
0.158682
0.15867
0.158707
0.158666
0.158541
0.158525
0.158559
0.158519
0.1584
0.158377
0.158396
0.158379
0.158264
0.158226
0.158234
0.158242
0.158127
0.158071
0.158071
0.158102
0.157994
0.157914
0.15791
0.157957
0.157868
0.157753
0.157748
0.157798
0.157743
0.157599
0.157596
0.157631
0.157616
0.157456
0.15743
0.157427
0.157472
0.157375
0.157268
0.15726
0.157288
0.157262
0.157091
0.157084
0.157085
0.157128
0.157022
0.156923
0.156891
0.156901
0.156929
0.156779
0.156726
0.156712
0.156751
0.156735
0.156556
0.156513
0.156504
0.156543
0.156526
0.156366
0.15634
0.156306
0.156313
0.156333
0.156182
0.156113
0.156106
0.156137
0.156129
0.155956
0.155931
0.155911
0.155944
0.155915
0.155723
0.15571
0.155695
0.155723
0.1557
0.155556
0.155495
0.155487
0.155526
0.155497
0.155323
0.155306
0.155284
0.15531
0.155294
0.155117
0.155083
0.155066
0.155098
0.155085
0.154909
0.15488
0.154869
0.154902
0.154822
0.154704
0.154685
0.154723
0.154687
0.15452
0.154486
0.154484
0.154532
0.154412
0.154317
0.154283
0.154298
0.154317
0.154149
0.154069
0.154062
0.154109
0.154091
0.15392
0.153863
0.153852
0.153897
0.15389
0.153708
0.153638
0.153625
0.153651
0.153678
0.153521
0.153435
0.153404
0.153374
0.153375
0.153421
0.153285
0.153172
0.153153
0.15316
0.153211
0.153067
0.152959
0.152926
0.152927
0.152989
0.152872
0.152748
0.152714
0.152698
0.152734
0.152706
0.152524
0.1525
0.152471
0.152448
0.152496
0.152445
0.152299
0.152238
0.152234
0.152287
0.152221
0.152066
0.152057
0.152074
0.152085
0.151926
0.151881
0.15185
0.151859
0.151849
0.151694
0.151663
0.151653
0.151699
0.151629
0.151447
0.151431
0.151423
0.15148
0.151386
0.151278
0.151239
0.151234
0.151256
0.151164
0.151035
0.151013
0.151
0.151051
0.150986
0.150855
0.150793
0.150779
0.1508
0.150798
0.150645
0.150608
0.150569
0.150571
0.150597
0.150429
0.150387
0.150366
0.150411
0.15039
0.150216
0.150157
0.150153
0.150199
0.150159
0.150018
0.149976
0.149959
0.149984
0.14995
0.149796
0.149771
0.149752
0.14979
0.149775
0.149599
0.149517
0.14952
0.149531
0.149573
0.149414
0.149357
0.149324
0.149318
0.149371
0.149288
0.149144
0.149088
0.14909
0.149114
0.149121
0.148946
0.148917
0.148889
0.148871
0.148915
0.148823
0.148713
0.148695
0.148716
0.148719
0.148551
0.14852
0.148514
0.148562
0.14848
0.148322
0.148326
0.14836
0.148355
0.148203
0.148146
0.148142
0.148201
0.148113
0.147967
0.14797
0.147999
0.147997
0.147827
0.147802
0.147786
0.147801
0.147767
0.14764
0.147589
0.147588
0.147644
0.147549
0.147407
0.147414
0.147445
0.14744
0.147275
0.147256
0.14725
0.147262
0.14718
0.147102
0.147068
0.147072
0.147072
0.146957
0.146894
0.14689
0.146934
0.146831
0.146724
0.146721
0.146772
0.146713
0.14656
0.146558
0.146592
0.146581
0.14642
0.146405
0.146407
0.146419
0.146301
0.146248
0.146226
0.146248
0.146222
0.146058
0.146051
0.146061
0.146098
0.145988
0.14586
0.145863
0.145899
0.145884
0.145769
0.145694
0.145694
0.145738
0.145638
0.145568
0.145531
0.145548
0.145562
0.145399
0.14537
0.145358
0.145406
0.145356
0.145209
0.145187
0.145193
0.145234
0.145118
0.145036
0.145031
0.145063
0.145001
0.144917
0.144871
0.144874
0.144895
0.144766
0.144713
0.144712
0.144761
0.144679
0.144558
0.144542
0.144555
0.144566
0.144425
0.144392
0.144391
0.144439
0.144368
0.144215
0.144206
0.144213
0.144252
0.144121
0.144078
0.144061
0.144096
0.144068
0.143884
0.143876
0.143874
0.143936
0.143853
0.143757
0.143711
0.143721
0.143772
0.143654
0.14355
0.143542
0.143558
0.14358
0.14344
0.143415
0.143393
0.143428
0.143409
0.143226
0.143211
0.14321
0.143269
0.143229
0.143111
0.143059
0.143045
0.143063
0.143053
0.142899
0.142888
0.14287
0.142912
0.142899
0.142762
0.142712
0.142696
0.142722
0.142728
0.142573
0.142556
0.142529
0.142521
0.142568
0.142465
0.142415
0.142377
0.142369
0.142399
0.14231
0.142222
0.142212
0.142224
0.142243
0.142134
0.142084
0.142055
0.14208
0.142095
0.141936
0.141879
0.141872
0.141923
0.141922
0.141814
0.141758
0.141747
0.141774
0.141754
0.141601
0.1416
0.141592
0.141659
0.141607
0.141424
0.141424
0.141436
0.141521
0.141451
0.141321
0.141276
0.141289
0.141361
0.141267
0.141137
0.141145
0.141152
0.141227
0.141152
0.141015
0.140989
0.141001
0.141058
0.140996
0.140856
0.140836
0.14084
0.140915
0.140872
0.140745
0.140735
0.140701
0.140719
0.140772
0.140627
0.140556
0.140522
0.140537
0.14065
0.140579
0.14039
0.140353
0.140338
0.140457
0.140505
0.140305
0.140217
0.140265
0.140376
0.140321
0.140172
0.140145
0.140118
0.140106
0.140184
0.140199
0.140017
0.139958
0.139994
0.140124
0.140072
0.139866
0.139817
0.139779
0.139868
0.140025
0.139836
0.139604
0.139709
0.139971
0.139885
0.139527
0.139454
0.139695
0.139906
0.139729
0.1394
0.139322
0.139463
0.139778
0.139733
0.139313
0.139192
0.139259
0.139643
0.139693
0.139282
0.139117
0.139348
0.139618
0.139455
0.139062
0.138971
0.138912
0.13925
0.139509
0.1393
0.138899
0.138915
0.139316
0.139411
0.13897
0.138738
0.13872
0.139152
0.139342
0.139042
0.138657
0.138617
0.139021
0.13923
0.138953
0.138566
0.138591
0.138999
0.139088
0.138657
0.138445
0.13836
0.138443
0.138903
0.139004
0.13858
0.138307
0.138436
0.138835
0.138831
0.138333
0.13817
0.138383
0.138768
0.138754
0.13824
0.138075
0.138084
0.138545
0.138714
0.138416
0.138016
0.137999
0.138422
0.138593
0.138229
0.137892
0.137892
0.138334
0.138504
0.138171
0.137796
0.137803
0.138237
0.138377
0.137976
0.137681
0.137793
0.138203
0.138228
0.137733
0.137558
0.137817
0.138151
0.138032
0.137537
0.137457
0.137827
0.138066
0.13781
0.137396
0.137375
0.137795
0.137972
0.137614
0.137264
0.137299
0.137746
0.137864
0.137436
0.137156
0.137226
0.137662
0.137755
0.137298
0.137037
0.137142
0.137588
0.137648
0.137162
0.136937
0.137058
0.137497
0.137546
0.137049
0.136843
0.136974
0.137401
0.137446
0.136946
0.136749
0.136893
0.137307
0.137349
0.136859
0.136641
0.136806
0.137243
0.137257
0.136738
0.136567
0.136731
0.137134
0.137171
0.136681
0.136461
0.136613
0.13707
0.137101
0.136592
0.136405
0.136506
0.136938
0.137037
0.136589
0.136302
0.136388
0.136877
0.136957
0.136508
0.136269
0.136267
0.136711
0.136914
0.136623
0.136177
0.136123
0.136431
0.136756
0.136758
0.136265
0.136065
0.136214
0.136649
0.136729
0.136275
0.136012
0.136095
0.136554
0.136696
0.136303
0.135947
0.13593
0.136378
0.136593
0.13647
0.136009
0.135852
0.136106
0.136545
0.136517
0.135972
0.135843
0.136017
0.136413
0.13649
0.136035
0.135753
0.135875
0.136397
0.13646
0.136034
0.135794
0.13571
0.136127
0.136445
0.136325
0.135756
0.135684
0.135866
0.136259
0.136383
0.135975
0.135633
0.135609
0.135978
0.136266
0.136317
0.135842
0.135584
0.135597
0.136109
0.136284
0.136094
0.135648
0.135538
0.135828
0.136181
0.136225
0.135786
0.135522
0.135551
0.136021
0.136277
0.136035
0.135431
0.135555
0.136017
)
;

boundaryField
{
    sides
    {
        type            calculated;
        value           nonuniform List<scalar> 2(0.136017 0.164482);
    }
    empty
    {
        type            empty;
    }
}


// ************************************************************************* //
