/*--------------------------------*- C++ -*----------------------------------*\
  =========                 |
  \\      /  F ield         | OpenFOAM: The Open Source CFD Toolbox
   \\    /   O peration     | Website:  https://openfoam.org
    \\  /    A nd           | Version:  13
     \\/     M anipulation  |
\*---------------------------------------------------------------------------*/
FoamFile
{
    format      ascii;
    class       volScalarField;
    location    "0.09";
    object      T;
}
// * * * * * * * * * * * * * * * * * * * * * * * * * * * * * * * * * * * * * //

dimensions      [0 0 0 1 0 0 0];

internalField   nonuniform List<scalar> 
1000
(
172.08
172.079
172.077
172.073
172.068
172.062
172.057
172.053
172.05
172.047
172.044
172.042
172.039
172.036
172.032
172.028
172.023
172.018
172.013
172.008
172.002
171.997
171.992
171.986
171.981
171.975
171.97
171.964
171.958
171.952
171.945
171.937
171.93
171.923
171.915
171.908
171.901
171.894
171.887
171.88
171.873
171.865
171.86
171.85
171.843
171.834
171.826
171.817
171.806
171.811
171.804
171.785
171.794
171.78
171.764
171.773
171.754
171.746
171.755
171.723
171.718
171.731
171.698
171.69
171.707
171.677
171.662
171.685
171.661
171.623
171.66
171.657
171.575
171.612
171.658
171.55
171.542
171.637
171.571
171.482
171.569
171.608
171.47
171.474
171.586
171.503
171.415
171.515
171.532
171.393
171.429
171.525
171.407
171.35
171.469
171.456
171.308
171.358
171.464
171.345
171.263
171.378
171.401
171.245
171.263
171.377
171.278
171.191
171.296
171.31
171.162
171.197
171.297
171.177
171.113
171.229
171.218
171.071
171.124
171.221
171.089
171.027
171.151
171.15
170.99
171.028
171.15
171.039
170.936
171.05
171.107
170.939
170.913
171.058
171.03
170.865
170.914
171.043
170.931
170.814
170.922
171.001
170.833
170.777
170.919
170.935
170.749
170.748
170.9
170.856
170.679
170.719
170.866
170.78
170.618
170.679
170.823
170.723
170.562
170.621
170.773
170.691
170.512
170.542
170.711
170.681
170.474
170.467
170.64
170.649
170.44
170.426
170.59
170.575
170.385
170.416
170.559
170.46
170.329
170.432
170.507
170.334
170.298
170.441
170.405
170.237
170.299
170.415
170.269
170.179
170.307
170.341
170.15
170.149
170.296
170.223
170.064
170.144
170.252
170.09
170.007
170.141
170.171
169.974
169.971
170.122
170.055
169.885
169.956
170.078
169.924
169.818
169.944
170.008
169.807
169.766
169.921
169.915
169.709
169.726
169.884
169.803
169.628
169.7
169.831
169.682
169.562
169.681
169.758
169.561
169.512
169.662
169.652
169.455
169.487
169.628
169.512
169.375
169.48
169.562
169.37
169.318
169.467
169.456
169.255
169.285
169.434
169.321
169.169
169.266
169.373
169.187
169.101
169.243
169.29
169.072
169.043
169.207
169.19
168.974
168.993
169.16
169.083
168.889
168.949
169.102
168.974
168.813
168.906
169.038
168.868
168.741
168.864
168.965
168.763
168.675
168.824
168.883
168.661
168.622
168.787
168.778
168.565
168.592
168.747
168.639
168.488
168.588
168.677
168.492
168.439
168.576
168.564
168.383
168.409
168.529
168.44
168.32
168.364
168.447
168.354
168.28
168.321
168.362
168.235
168.206
168.288
168.231
168.101
168.151
168.227
168.062
168.003
168.116
168.108
167.917
167.932
168.059
167.946
167.801
167.883
167.968
167.772
167.704
167.836
167.834
167.617
167.628
167.774
167.665
167.492
167.572
167.683
167.489
167.387
167.516
167.562
167.329
167.295
167.449
167.415
167.19
167.214
167.366
167.249
167.066
167.14
167.265
167.081
166.951
167.063
167.148
166.921
166.839
166.978
167.019
166.773
166.73
166.885
166.882
166.636
166.626
166.788
166.74
166.507
166.526
166.688
166.595
166.383
166.432
166.587
166.45
166.262
166.338
166.483
166.311
166.145
166.241
166.375
166.183
166.03
166.134
166.264
166.064
165.915
166.024
166.152
165.947
165.801
165.913
166.039
165.831
165.688
165.802
165.925
165.715
165.574
165.691
165.813
165.597
165.462
165.586
165.701
165.478
165.35
165.481
165.59
165.359
165.24
165.381
165.481
165.243
165.132
165.28
165.376
165.132
165.025
165.178
165.274
165.027
164.92
165.075
165.174
164.928
164.816
164.971
165.075
164.831
164.714
164.864
164.976
164.737
164.611
164.755
164.875
164.644
164.507
164.643
164.772
164.55
164.4
164.522
164.668
164.466
164.292
164.389
164.557
164.399
164.185
164.235
164.432
164.36
164.089
164.071
164.276
164.321
164.029
163.933
164.078
164.225
164.032
163.831
163.859
164.072
164.061
163.762
163.691
163.855
163.996
163.794
163.595
163.625
163.843
163.828
163.53
163.476
163.674
163.763
163.494
163.371
163.521
163.663
163.447
163.277
163.394
163.56
163.377
163.183
163.284
163.461
163.294
163.089
163.18
163.364
163.211
162.994
163.072
163.266
163.135
162.9
162.958
163.164
163.066
162.81
162.841
163.057
162.998
162.721
162.724
162.945
162.93
162.639
162.61
162.828
162.858
162.562
162.5
162.706
162.779
162.494
162.395
162.579
162.694
162.436
162.296
162.448
162.602
162.388
162.203
162.314
162.503
162.347
162.118
162.183
162.398
162.306
162.038
162.06
162.29
162.258
161.966
161.948
162.18
162.2
161.9
161.846
162.068
162.133
161.842
161.751
161.953
162.06
161.791
161.661
161.833
161.982
161.751
161.578
161.71
161.896
161.719
161.501
161.585
161.803
161.691
161.429
161.464
161.703
161.662
161.368
161.35
161.593
161.625
161.32
161.248
161.47
161.573
161.296
161.161
161.328
161.5
161.299
161.091
161.174
161.405
161.319
161.037
161.031
161.286
161.32
161.011
160.924
161.137
161.274
161.028
160.852
160.964
161.187
161.074
160.802
160.805
161.065
161.096
160.785
160.697
160.91
161.054
160.811
160.631
160.752
160.971
160.839
160.579
160.62
160.874
160.836
160.536
160.52
160.777
160.802
160.496
160.439
160.685
160.753
160.456
160.366
160.595
160.699
160.417
160.296
160.504
160.641
160.384
160.231
160.41
160.58
160.357
160.169
160.31
160.514
160.339
160.111
160.208
160.443
160.327
160.06
160.106
160.363
160.314
160.016
160.009
160.275
160.294
159.982
159.923
160.176
160.262
159.965
159.85
160.063
160.213
159.967
159.789
159.936
160.149
159.988
159.742
159.802
160.064
160.016
159.709
159.683
159.954
160.019
159.709
159.598
159.808
159.978
159.755
159.548
159.636
159.894
159.826
159.523
159.492
159.765
159.85
159.547
159.414
159.585
159.797
159.633
159.382
159.4
159.684
159.708
159.386
159.292
159.508
159.685
159.47
159.253
159.3
159.582
159.574
159.252
159.172
159.404
159.57
159.339
159.135
159.181
159.465
159.459
159.137
159.052
159.273
159.454
159.239
159.023
159.039
159.333
159.364
159.041
158.936
159.101
159.33
159.184
158.922
158.884
159.164
159.278
158.989
158.833
158.895
159.185
159.162
158.84
158.757
158.957
159.164
158.981
158.741
158.722
159.018
159.101
158.791
158.653
158.776
159.037
158.948
158.647
158.602
158.88
159.001
158.716
158.549
158.666
158.93
158.843
158.539
158.508
158.799
158.89
158.582
158.442
158.62
158.844
158.678
158.419
158.451
158.749
158.754
158.424
158.347
158.608
158.754
158.486
158.303
158.433
158.692
158.584
158.29
158.28
158.582
158.643
158.32
158.202
158.411
158.617
158.422
158.183
158.214
158.521
158.532
158.202
158.108
158.335
158.532
158.321
158.094
158.11
158.423
158.458
158.129
158.02
158.205
158.441
158.283
158.019
157.997
158.306
158.396
158.083
157.941
158.083
158.349
158.242
157.943
157.911
158.215
158.317
158.009
157.859
158.021
158.273
158.139
157.854
157.857
158.171
158.217
157.885
157.779
158.025
158.206
157.967
157.753
157.864
158.145
158.058
157.748
157.739
158.05
158.103
157.772
157.667
157.922
158.09
157.834
157.634
157.772
158.037
157.917
157.621
157.635
157.949
157.975
157.636
157.548
157.819
157.973
157.698
157.508
157.651
157.916
157.794
157.494
157.496
157.811
157.857
157.518
157.408
157.651
157.84
157.604
157.377
157.455
157.755
157.713
157.374
157.314
157.604
157.738
157.441
157.261
157.387
157.666
157.568
157.247
157.208
157.513
157.623
157.302
157.14
157.279
157.553
157.441
157.123
157.083
157.387
157.502
157.181
157.014
157.137
157.42
157.328
156.998
156.945
157.239
157.375
157.065
156.882
156.981
157.278
157.21
156.865
156.802
157.088
157.237
156.937
156.742
156.836
157.137
157.073
156.725
156.662
156.952
157.099
156.793
156.601
156.706
157.006
156.925
156.582
156.527
156.829
156.964
156.645
156.464
156.582
156.88
156.786
156.45
156.396
156.704
156.84
156.52
156.341
156.448
156.76
156.679
156.338
156.273
156.57
156.733
156.435
156.237
156.305
156.64
156.61
156.255
156.165
156.424
156.64
156.395
156.158
156.168
156.521
156.565
156.208
156.086
156.275
156.554
156.392
156.102
156.06
156.398
156.526
156.201
156.034
156.126
156.472
156.417
156.069
155.991
156.267
156.478
156.229
156.02
156.009
156.358
156.433
156.112
155.934
156.094
156.461
156.333
155.914
155.942
156.388
)
;

boundaryField
{
    sides
    {
        type            zeroGradient;
    }
    empty
    {
        type            empty;
    }
}


// ************************************************************************* //
