/*--------------------------------*- C++ -*----------------------------------*\
  =========                 |
  \\      /  F ield         | OpenFOAM: The Open Source CFD Toolbox
   \\    /   O peration     | Website:  https://openfoam.org
    \\  /    A nd           | Version:  13
     \\/     M anipulation  |
\*---------------------------------------------------------------------------*/
FoamFile
{
    format      ascii;
    class       volScalarField;
    location    "0.09";
    object      T;
}
// * * * * * * * * * * * * * * * * * * * * * * * * * * * * * * * * * * * * * //

dimensions      [0 0 0 1 0 0 0];

internalField   nonuniform List<scalar> 
1000
(
168.425
168.424
168.422
168.418
168.414
168.411
168.408
168.405
168.402
168.399
168.395
168.392
168.388
168.385
168.381
168.377
168.374
168.37
168.367
168.363
168.36
168.356
168.353
168.35
168.347
168.343
168.34
168.337
168.333
168.33
168.327
168.323
168.32
168.316
168.312
168.308
168.304
168.3
168.295
168.291
168.286
168.281
168.276
168.27
168.265
168.259
168.253
168.247
168.241
168.235
168.229
168.222
168.216
168.21
168.203
168.196
168.189
168.183
168.176
168.17
168.163
168.157
168.151
168.144
168.139
168.131
168.123
168.12
168.115
168.103
168.103
168.103
168.086
168.083
168.088
168.072
168.059
168.059
168.069
168.05
168.032
168.033
168.047
168.031
168.006
168.004
168.021
168.016
167.982
167.974
167.983
168.002
167.973
167.946
167.955
167.98
167.955
167.921
167.914
167.919
167.946
167.936
167.901
167.902
167.929
167.913
167.869
167.872
167.912
167.896
167.834
167.834
167.888
167.887
167.806
167.791
167.85
167.879
167.792
167.748
167.795
167.858
167.801
167.718
167.737
167.822
167.809
167.701
167.69
167.775
167.803
167.702
167.659
167.714
167.777
167.727
167.645
167.647
167.724
167.741
167.649
167.616
167.668
167.72
167.644
167.576
167.615
167.694
167.648
167.54
167.547
167.649
167.661
167.527
167.489
167.577
167.646
167.551
167.457
167.496
167.603
167.582
167.45
167.44
167.542
167.576
167.466
167.42
167.476
167.535
167.491
167.422
167.413
167.455
167.491
167.442
167.401
167.41
167.458
167.432
167.361
167.365
167.429
167.421
167.323
167.313
167.387
167.414
167.304
167.262
167.323
167.391
167.314
167.221
167.241
167.344
167.338
167.197
167.168
167.265
167.331
167.221
167.123
167.162
167.282
167.265
167.108
167.088
167.202
167.256
167.135
167.056
167.105
167.204
167.176
167.046
167.03
167.121
167.171
167.081
167.005
167.007
167.081
167.109
167.022
166.979
166.993
167.057
167.03
166.94
166.942
167.008
167.001
166.906
166.898
166.954
166.969
166.894
166.878
166.87
166.89
166.906
166.852
166.827
166.834
166.862
166.821
166.778
166.781
166.813
166.787
166.726
166.724
166.728
166.75
166.714
166.674
166.671
166.689
166.676
166.623
166.617
166.633
166.62
166.568
166.559
166.568
166.565
166.515
166.498
166.501
166.508
166.459
166.433
166.434
166.449
166.404
166.367
166.366
166.387
166.352
166.299
166.299
166.319
166.299
166.234
166.235
166.248
166.244
166.175
166.164
166.161
166.182
166.142
166.094
166.091
166.103
166.095
166.02
166.017
166.016
166.036
165.993
165.948
165.934
165.938
165.953
165.889
165.864
165.859
165.874
165.871
165.793
165.774
165.771
165.786
165.783
165.713
165.701
165.686
165.689
165.7
165.636
165.603
165.602
165.613
165.614
165.538
165.528
165.518
165.533
165.524
165.44
165.433
165.426
165.438
165.433
165.369
165.341
165.339
165.355
165.347
165.269
165.262
165.253
165.264
165.26
165.183
165.167
165.161
165.174
165.172
165.095
165.082
165.077
165.092
165.061
165.007
164.999
165.016
165.005
164.931
164.915
164.914
164.936
164.887
164.844
164.829
164.835
164.847
164.774
164.737
164.735
164.754
164.751
164.675
164.649
164.645
164.664
164.665
164.585
164.553
164.548
164.558
164.573
164.506
164.466
164.452
164.439
164.439
164.46
164.405
164.352
164.344
164.346
164.37
164.311
164.26
164.246
164.246
164.274
164.227
164.169
164.154
164.147
164.163
164.155
164.074
164.062
164.05
164.041
164.061
164.043
163.976
163.949
163.948
163.971
163.946
163.875
163.872
163.878
163.886
163.818
163.797
163.782
163.786
163.786
163.717
163.702
163.698
163.719
163.692
163.609
163.603
163.6
163.625
163.588
163.538
163.521
163.518
163.529
163.493
163.433
163.423
163.419
163.441
163.417
163.356
163.328
163.323
163.332
163.335
163.267
163.249
163.233
163.233
163.247
163.175
163.154
163.144
163.164
163.158
163.081
163.053
163.053
163.071
163.059
162.994
162.975
162.967
162.978
162.968
162.898
162.886
162.878
162.893
162.892
162.812
162.774
162.777
162.78
162.802
162.733
162.705
162.691
162.688
162.712
162.68
162.612
162.588
162.59
162.599
162.606
162.528
162.514
162.501
162.494
162.514
162.477
162.424
162.418
162.426
162.43
162.356
162.342
162.338
162.361
162.328
162.254
162.257
162.271
162.273
162.205
162.178
162.177
162.204
162.168
162.1
162.102
162.114
162.116
162.041
162.029
162.021
162.028
162.018
161.959
161.935
161.935
161.961
161.922
161.855
161.86
161.872
161.873
161.8
161.791
161.787
161.793
161.761
161.724
161.707
161.71
161.713
161.661
161.63
161.63
161.651
161.608
161.556
161.556
161.578
161.556
161.484
161.485
161.498
161.496
161.424
161.417
161.416
161.423
161.373
161.347
161.336
161.346
161.338
161.263
161.26
161.263
161.281
161.235
161.173
161.176
161.191
161.189
161.135
161.1
161.101
161.121
161.08
161.046
161.028
161.036
161.044
160.972
160.958
160.951
160.973
160.955
160.886
160.875
160.878
160.899
160.848
160.809
160.806
160.821
160.798
160.758
160.735
160.737
160.75
160.692
160.666
160.666
160.689
160.656
160.597
160.59
160.596
160.605
160.541
160.525
160.523
160.546
160.518
160.445
160.441
160.444
160.464
160.406
160.385
160.376
160.392
160.383
160.298
160.294
160.293
160.322
160.289
160.242
160.22
160.225
160.25
160.199
160.148
160.145
160.152
160.166
160.102
160.09
160.079
160.094
160.09
160.006
159.998
159.998
160.024
160.01
159.954
159.929
159.923
159.931
159.932
159.859
159.854
159.845
159.863
159.862
159.798
159.774
159.766
159.779
159.785
159.714
159.704
159.692
159.689
159.711
159.667
159.641
159.624
159.62
159.634
159.597
159.554
159.55
159.554
159.565
159.518
159.492
159.478
159.489
159.498
159.428
159.399
159.397
159.419
159.423
159.373
159.346
159.34
159.352
159.348
159.276
159.275
159.271
159.301
159.282
159.196
159.195
159.2
159.24
159.213
159.151
159.129
159.135
159.168
159.13
159.066
159.071
159.073
159.108
159.079
159.013
159.001
159.004
159.032
159.009
158.941
158.932
158.932
158.967
158.953
158.892
158.888
158.872
158.878
158.905
158.842
158.807
158.791
158.796
158.85
158.824
158.733
158.716
158.708
158.761
158.788
158.699
158.655
158.674
158.728
158.708
158.636
158.624
158.612
158.606
158.641
158.652
158.569
158.54
158.553
158.616
158.599
158.5
158.477
158.46
158.496
158.574
158.496
158.381
158.422
158.549
158.521
158.35
158.312
158.417
158.524
158.453
158.292
158.256
158.312
158.466
158.456
158.258
158.199
158.221
158.404
158.437
158.25
158.166
158.264
158.399
158.337
158.145
158.103
158.073
158.221
158.353
158.27
158.073
158.072
158.26
158.315
158.117
158
157.986
158.184
158.282
158.157
157.965
157.942
158.125
158.232
158.118
157.925
157.929
158.121
158.173
157.979
157.871
157.834
157.861
158.082
158.136
157.949
157.81
157.859
158.054
158.064
157.831
157.749
157.835
158.026
158.03
157.79
157.708
157.704
157.919
158.006
157.882
157.682
157.668
157.863
157.953
157.796
157.627
157.62
157.826
157.913
157.772
157.584
157.58
157.783
157.858
157.682
157.532
157.573
157.773
157.796
157.567
157.476
157.585
157.754
157.712
157.472
157.429
157.594
157.717
157.613
157.407
157.39
157.585
157.677
157.524
157.347
157.354
157.566
157.631
157.442
157.298
157.32
157.531
157.584
157.378
157.245
157.283
157.5
157.537
157.316
157.201
157.245
157.46
157.492
157.265
157.159
157.207
157.418
157.448
157.218
157.117
157.171
157.375
157.405
157.178
157.067
157.132
157.348
157.364
157.123
157.035
157.098
157.299
157.326
157.099
156.987
157.046
157.27
157.293
157.06
156.964
156.997
157.209
157.264
157.062
156.915
156.946
157.181
157.227
157.027
156.903
156.893
157.104
157.208
157.086
156.862
156.837
156.968
157.135
157.146
156.914
156.813
156.869
157.085
157.131
156.924
156.79
156.817
157.04
157.116
156.942
156.761
156.75
156.953
157.065
157.023
156.796
156.717
156.824
157.044
157.04
156.784
156.718
156.783
156.983
157.028
156.819
156.675
156.722
156.975
157.011
156.824
156.699
156.652
156.844
157.005
156.961
156.685
156.65
156.718
156.918
156.983
156.8
156.625
156.615
156.775
156.925
156.957
156.737
156.605
156.605
156.844
156.935
156.862
156.639
156.585
156.707
156.888
156.919
156.713
156.58
156.584
156.809
156.937
156.835
156.544
156.6
156.806
)
;

boundaryField
{
    sides
    {
        type            zeroGradient;
    }
    empty
    {
        type            empty;
    }
}


// ************************************************************************* //
