/*--------------------------------*- C++ -*----------------------------------*\
  =========                 |
  \\      /  F ield         | OpenFOAM: The Open Source CFD Toolbox
   \\    /   O peration     | Website:  https://openfoam.org
    \\  /    A nd           | Version:  13
     \\/     M anipulation  |
\*---------------------------------------------------------------------------*/
FoamFile
{
    format      ascii;
    class       volVectorField;
    location    "0.09";
    object      U;
}
// * * * * * * * * * * * * * * * * * * * * * * * * * * * * * * * * * * * * * //

dimensions      [0 1 -1 0 0 0 0];

internalField   nonuniform List<vector> 
1000
(
(33.8137 0 0)
(33.8438 0 0)
(33.9278 0 0)
(34.0651 0 0)
(34.2318 0 0)
(34.4036 0 0)
(34.5634 0 0)
(34.6945 0 0)
(34.7937 0 0)
(34.8751 0 0)
(34.9505 0 0)
(35.0251 0 0)
(35.1029 0 0)
(35.1893 0 0)
(35.288 0 0)
(35.3986 0 0)
(35.5175 0 0)
(35.6396 0 0)
(35.7612 0 0)
(35.8805 0 0)
(35.9976 0 0)
(36.1131 0 0)
(36.2268 0 0)
(36.3369 0 0)
(36.4406 0 0)
(36.5349 0 0)
(36.6229 0 0)
(36.7129 0 0)
(36.8122 0 0)
(36.9228 0 0)
(37.0412 0 0)
(37.162 0 0)
(37.2803 0 0)
(37.3933 0 0)
(37.5002 0 0)
(37.603 0 0)
(37.704 0 0)
(37.8057 0 0)
(37.9074 0 0)
(38.0076 0 0)
(38.1029 0 0)
(38.1915 0 0)
(38.2762 0 0)
(38.3546 0 0)
(38.4295 0 0)
(38.5019 0 0)
(38.5778 0 0)
(38.6582 0 0)
(38.7497 0 0)
(38.8642 0 0)
(38.9682 0 0)
(39.0666 0 0)
(39.1852 0 0)
(39.2868 0 0)
(39.3867 0 0)
(39.5059 0 0)
(39.6068 0 0)
(39.7152 0 0)
(39.8322 0 0)
(39.9222 0 0)
(40.0321 0 0)
(40.1559 0 0)
(40.2467 0 0)
(40.3562 0 0)
(40.4893 0 0)
(40.5872 0 0)
(40.6963 0 0)
(40.8424 0 0)
(40.9447 0 0)
(41.039 0 0)
(41.2024 0 0)
(41.3149 0 0)
(41.3687 0 0)
(41.5285 0 0)
(41.6828 0 0)
(41.709 0 0)
(41.8201 0 0)
(42.0309 0 0)
(42.086 0 0)
(42.1156 0 0)
(42.3245 0 0)
(42.4726 0 0)
(42.4631 0 0)
(42.5809 0 0)
(42.8026 0 0)
(42.8412 0 0)
(42.8689 0 0)
(43.0838 0 0)
(43.2084 0 0)
(43.1994 0 0)
(43.3483 0 0)
(43.5488 0 0)
(43.5574 0 0)
(43.6116 0 0)
(43.8444 0 0)
(43.9369 0 0)
(43.9109 0 0)
(44.0742 0 0)
(44.2891 0 0)
(44.2874 0 0)
(44.3091 0 0)
(44.539 0 0)
(44.6645 0 0)
(44.6324 0 0)
(44.7566 0 0)
(44.9728 0 0)
(44.9921 0 0)
(45.0129 0 0)
(45.2257 0 0)
(45.3391 0 0)
(45.317 0 0)
(45.4563 0 0)
(45.6537 0 0)
(45.657 0 0)
(45.6981 0 0)
(45.9206 0 0)
(46.0106 0 0)
(45.9861 0 0)
(46.1463 0 0)
(46.343 0 0)
(46.3345 0 0)
(46.3765 0 0)
(46.6122 0 0)
(46.7116 0 0)
(46.6747 0 0)
(46.8233 0 0)
(47.05 0 0)
(47.0562 0 0)
(47.0591 0 0)
(47.2889 0 0)
(47.4479 0 0)
(47.4038 0 0)
(47.4834 0 0)
(47.7411 0 0)
(47.8142 0 0)
(47.7644 0 0)
(47.9248 0 0)
(48.1607 0 0)
(48.1599 0 0)
(48.1416 0 0)
(48.363 0 0)
(48.5416 0 0)
(48.4923 0 0)
(48.5302 0 0)
(48.7842 0 0)
(48.8929 0 0)
(48.8217 0 0)
(48.9214 0 0)
(49.1822 0 0)
(49.2313 0 0)
(49.1571 0 0)
(49.3066 0 0)
(49.5629 0 0)
(49.5727 0 0)
(49.5004 0 0)
(49.6785 0 0)
(49.9353 0 0)
(49.9302 0 0)
(49.8513 0 0)
(50.0317 0 0)
(50.3039 0 0)
(50.3109 0 0)
(50.2137 0 0)
(50.3652 0 0)
(50.6602 0 0)
(50.7135 0 0)
(50.6027 0 0)
(50.7007 0 0)
(50.9959 0 0)
(51.0947 0 0)
(50.9969 0 0)
(51.0777 0 0)
(51.3526 0 0)
(51.4309 0 0)
(51.3563 0 0)
(51.486 0 0)
(51.7252 0 0)
(51.7344 0 0)
(51.7048 0 0)
(51.907 0 0)
(52.0693 0 0)
(52.0201 0 0)
(52.076 0 0)
(52.3122 0 0)
(52.3689 0 0)
(52.3142 0 0)
(52.4719 0 0)
(52.672 0 0)
(52.6416 0 0)
(52.6414 0 0)
(52.8664 0 0)
(52.9817 0 0)
(52.9118 0 0)
(53.0006 0 0)
(53.2363 0 0)
(53.2581 0 0)
(53.2008 0 0)
(53.3765 0 0)
(53.5663 0 0)
(53.5193 0 0)
(53.5206 0 0)
(53.7503 0 0)
(53.8597 0 0)
(53.7816 0 0)
(53.866 0 0)
(54.1043 0 0)
(54.1282 0 0)
(54.0601 0 0)
(54.226 0 0)
(54.4288 0 0)
(54.3855 0 0)
(54.3616 0 0)
(54.5842 0 0)
(54.7251 0 0)
(54.6429 0 0)
(54.6818 0 0)
(54.9295 0 0)
(55.0014 0 0)
(54.9081 0 0)
(55.0139 0 0)
(55.2573 0 0)
(55.2662 0 0)
(55.1856 0 0)
(55.351 0 0)
(55.563 0 0)
(55.5206 0 0)
(55.4807 0 0)
(55.6933 0 0)
(55.8444 0 0)
(55.7667 0 0)
(55.7954 0 0)
(56.0313 0 0)
(56.0989 0 0)
(56.0154 0 0)
(56.1306 0 0)
(56.3469 0 0)
(56.3308 0 0)
(56.282 0 0)
(56.4746 0 0)
(56.6262 0 0)
(56.5528 0 0)
(56.578 0 0)
(56.8095 0 0)
(56.8723 0 0)
(56.7829 0 0)
(56.896 0 0)
(57.1175 0 0)
(57.1001 0 0)
(57.034 0 0)
(57.2194 0 0)
(57.3947 0 0)
(57.3219 0 0)
(57.307 0 0)
(57.5358 0 0)
(57.6484 0 0)
(57.5453 0 0)
(57.5896 0 0)
(57.8362 0 0)
(57.8892 0 0)
(57.7783 0 0)
(57.8785 0 0)
(58.1213 0 0)
(58.1224 0 0)
(58.0177 0 0)
(58.1638 0 0)
(58.3911 0 0)
(58.3528 0 0)
(58.2643 0 0)
(58.4462 0 0)
(58.6484 0 0)
(58.5788 0 0)
(58.5162 0 0)
(58.726 0 0)
(58.8942 0 0)
(58.8004 0 0)
(58.7749 0 0)
(59.0061 0 0)
(59.1275 0 0)
(59.0185 0 0)
(59.0459 0 0)
(59.2864 0 0)
(59.3437 0 0)
(59.2383 0 0)
(59.3383 0 0)
(59.5564 0 0)
(59.5405 0 0)
(59.4744 0 0)
(59.6481 0 0)
(59.7982 0 0)
(59.7293 0 0)
(59.7444 0 0)
(59.953 0 0)
(60.0128 0 0)
(59.9394 0 0)
(60.039 0 0)
(60.2327 0 0)
(60.2385 0 0)
(60.1948 0 0)
(60.3272 0 0)
(60.4928 0 0)
(60.5046 0 0)
(60.5049 0 0)
(60.6403 0 0)
(60.7487 0 0)
(60.7369 0 0)
(60.787 0 0)
(60.9425 0 0)
(60.9692 0 0)
(60.9371 0 0)
(61.0709 0 0)
(61.2022 0 0)
(61.156 0 0)
(61.1692 0 0)
(61.3599 0 0)
(61.418 0 0)
(61.34 0 0)
(61.4315 0 0)
(61.6218 0 0)
(61.6041 0 0)
(61.544 0 0)
(61.7079 0 0)
(61.849 0 0)
(61.7747 0 0)
(61.7776 0 0)
(61.9864 0 0)
(62.0492 0 0)
(61.9523 0 0)
(62.0397 0 0)
(62.2514 0 0)
(62.2363 0 0)
(62.1562 0 0)
(62.3205 0 0)
(62.4917 0 0)
(62.4186 0 0)
(62.3898 0 0)
(62.6026 0 0)
(62.7094 0 0)
(62.6046 0 0)
(62.6413 0 0)
(62.8728 0 0)
(62.9103 0 0)
(62.799 0 0)
(62.9033 0 0)
(63.1238 0 0)
(63.0996 0 0)
(63.0048 0 0)
(63.165 0 0)
(63.3532 0 0)
(63.2823 0 0)
(63.2223 0 0)
(63.4231 0 0)
(63.5679 0 0)
(63.4657 0 0)
(63.4482 0 0)
(63.6751 0 0)
(63.776 0 0)
(63.657 0 0)
(63.6822 0 0)
(63.9225 0 0)
(63.9848 0 0)
(63.8614 0 0)
(63.9272 0 0)
(64.1704 0 0)
(64.1977 0 0)
(64.0785 0 0)
(64.1835 0 0)
(64.4224 0 0)
(64.4159 0 0)
(64.3045 0 0)
(64.4456 0 0)
(64.6757 0 0)
(64.6403 0 0)
(64.5411 0 0)
(64.7133 0 0)
(64.93 0 0)
(64.8688 0 0)
(64.7812 0 0)
(64.9757 0 0)
(65.1836 0 0)
(65.1067 0 0)
(65.024 0 0)
(65.2269 0 0)
(65.4281 0 0)
(65.3425 0 0)
(65.2607 0 0)
(65.4667 0 0)
(65.6651 0 0)
(65.5762 0 0)
(65.4961 0 0)
(65.7039 0 0)
(65.8989 0 0)
(65.8063 0 0)
(65.7266 0 0)
(65.9352 0 0)
(66.1273 0 0)
(66.0327 0 0)
(65.9553 0 0)
(66.1652 0 0)
(66.3525 0 0)
(66.2543 0 0)
(66.1831 0 0)
(66.3995 0 0)
(66.5808 0 0)
(66.4786 0 0)
(66.415 0 0)
(66.6372 0 0)
(66.8113 0 0)
(66.7042 0 0)
(66.6506 0 0)
(66.8821 0 0)
(67.0494 0 0)
(66.9382 0 0)
(66.8943 0 0)
(67.1337 0 0)
(67.2972 0 0)
(67.1825 0 0)
(67.1436 0 0)
(67.3896 0 0)
(67.5549 0 0)
(67.4393 0 0)
(67.4005 0 0)
(67.6493 0 0)
(67.8188 0 0)
(67.7033 0 0)
(67.6605 0 0)
(67.9087 0 0)
(68.0847 0 0)
(67.9707 0 0)
(67.9202 0 0)
(68.165 0 0)
(68.3491 0 0)
(68.2381 0 0)
(68.1782 0 0)
(68.4165 0 0)
(68.6078 0 0)
(68.5008 0 0)
(68.4304 0 0)
(68.661 0 0)
(68.8624 0 0)
(68.7605 0 0)
(68.6747 0 0)
(68.8932 0 0)
(69.1113 0 0)
(69.0209 0 0)
(68.9117 0 0)
(69.1092 0 0)
(69.3563 0 0)
(69.2924 0 0)
(69.1493 0 0)
(69.3025 0 0)
(69.5841 0 0)
(69.5801 0 0)
(69.4087 0 0)
(69.4781 0 0)
(69.7732 0 0)
(69.8799 0 0)
(69.7161 0 0)
(69.6653 0 0)
(69.9164 0 0)
(70.1511 0 0)
(70.0568 0 0)
(69.9028 0 0)
(70.0499 0 0)
(70.3561 0 0)
(70.402 0 0)
(70.2215 0 0)
(70.2083 0 0)
(70.4788 0 0)
(70.7104 0 0)
(70.6103 0 0)
(70.4569 0 0)
(70.6084 0 0)
(70.9179 0 0)
(70.9642 0 0)
(70.7889 0 0)
(70.8076 0 0)
(71.0974 0 0)
(71.2599 0 0)
(71.1219 0 0)
(71.0565 0 0)
(71.3046 0 0)
(71.5254 0 0)
(71.4271 0 0)
(71.3258 0 0)
(71.5413 0 0)
(71.7839 0 0)
(71.7108 0 0)
(71.5971 0 0)
(71.7937 0 0)
(72.0442 0 0)
(71.9832 0 0)
(71.8628 0 0)
(72.0487 0 0)
(72.3049 0 0)
(72.2521 0 0)
(72.123 0 0)
(72.2971 0 0)
(72.5641 0 0)
(72.5245 0 0)
(72.3815 0 0)
(72.534 0 0)
(72.8124 0 0)
(72.7956 0 0)
(72.6411 0 0)
(72.7651 0 0)
(73.0529 0 0)
(73.0646 0 0)
(72.9017 0 0)
(72.9904 0 0)
(73.2827 0 0)
(73.3308 0 0)
(73.1638 0 0)
(73.2128 0 0)
(73.5039 0 0)
(73.5926 0 0)
(73.4302 0 0)
(73.436 0 0)
(73.7169 0 0)
(73.8509 0 0)
(73.6991 0 0)
(73.6608 0 0)
(73.9252 0 0)
(74.1051 0 0)
(73.9721 0 0)
(73.8904 0 0)
(74.1293 0 0)
(74.3527 0 0)
(74.2489 0 0)
(74.1288 0 0)
(74.3328 0 0)
(74.5919 0 0)
(74.5274 0 0)
(74.3776 0 0)
(74.5368 0 0)
(74.8211 0 0)
(74.8035 0 0)
(74.637 0 0)
(74.7475 0 0)
(75.0436 0 0)
(75.0743 0 0)
(74.902 0 0)
(74.9636 0 0)
(75.2603 0 0)
(75.3387 0 0)
(75.17 0 0)
(75.1861 0 0)
(75.4745 0 0)
(75.5985 0 0)
(75.4401 0 0)
(75.4117 0 0)
(75.6848 0 0)
(75.8539 0 0)
(75.7117 0 0)
(75.6401 0 0)
(75.8905 0 0)
(76.1029 0 0)
(75.986 0 0)
(75.8734 0 0)
(76.0908 0 0)
(76.3427 0 0)
(76.2624 0 0)
(76.1155 0 0)
(76.2892 0 0)
(76.5697 0 0)
(76.535 0 0)
(76.366 0 0)
(76.4891 0 0)
(76.7879 0 0)
(76.8067 0 0)
(76.6247 0 0)
(76.6855 0 0)
(76.9876 0 0)
(77.0736 0 0)
(76.8967 0 0)
(76.8874 0 0)
(77.1733 0 0)
(77.336 0 0)
(77.183 0 0)
(77.0981 0 0)
(77.3439 0 0)
(77.5827 0 0)
(77.4793 0 0)
(77.3269 0 0)
(77.5047 0 0)
(77.8002 0 0)
(77.7785 0 0)
(77.589 0 0)
(77.6695 0 0)
(77.9811 0 0)
(78.0675 0 0)
(77.8818 0 0)
(77.8494 0 0)
(78.129 0 0)
(78.3314 0 0)
(78.1942 0 0)
(78.0593 0 0)
(78.264 0 0)
(78.5522 0 0)
(78.5063 0 0)
(78.3133 0 0)
(78.4061 0 0)
(78.7209 0 0)
(78.8017 0 0)
(78.6112 0 0)
(78.5749 0 0)
(78.853 0 0)
(79.0595 0 0)
(78.9228 0 0)
(78.7858 0 0)
(78.9909 0 0)
(79.2686 0 0)
(79.2083 0 0)
(79.0252 0 0)
(79.1506 0 0)
(79.4526 0 0)
(79.4685 0 0)
(79.2776 0 0)
(79.3329 0 0)
(79.6316 0 0)
(79.7055 0 0)
(79.5214 0 0)
(79.5273 0 0)
(79.8146 0 0)
(79.9308 0 0)
(79.7581 0 0)
(79.7259 0 0)
(79.9993 0 0)
(80.1517 0 0)
(79.9917 0 0)
(79.9256 0 0)
(80.1833 0 0)
(80.3692 0 0)
(80.226 0 0)
(80.127 0 0)
(80.3632 0 0)
(80.5819 0 0)
(80.4619 0 0)
(80.3315 0 0)
(80.5395 0 0)
(80.7902 0 0)
(80.7008 0 0)
(80.5403 0 0)
(80.7109 0 0)
(80.9895 0 0)
(80.9415 0 0)
(80.7585 0 0)
(80.8812 0 0)
(81.1773 0 0)
(81.1803 0 0)
(80.986 0 0)
(81.0512 0 0)
(81.3527 0 0)
(81.4171 0 0)
(81.2254 0 0)
(81.2261 0 0)
(81.5163 0 0)
(81.649 0 0)
(81.4731 0 0)
(81.4063 0 0)
(81.6696 0 0)
(81.8713 0 0)
(81.7293 0 0)
(81.5985 0 0)
(81.8146 0 0)
(82.0778 0 0)
(81.9932 0 0)
(81.8114 0 0)
(81.9542 0 0)
(82.2567 0 0)
(82.2574 0 0)
(82.0538 0 0)
(82.0973 0 0)
(82.4036 0 0)
(82.5148 0 0)
(82.3257 0 0)
(82.2566 0 0)
(82.5217 0 0)
(82.7483 0 0)
(82.6195 0 0)
(82.453 0 0)
(82.6283 0 0)
(82.9332 0 0)
(82.9156 0 0)
(82.7038 0 0)
(82.747 0 0)
(83.0579 0 0)
(83.1896 0 0)
(83.0056 0 0)
(82.9036 0 0)
(83.1462 0 0)
(83.415 0 0)
(83.3252 0 0)
(83.1251 0 0)
(83.2385 0 0)
(83.5614 0 0)
(83.6275 0 0)
(83.4208 0 0)
(83.369 0 0)
(83.6444 0 0)
(83.8797 0 0)
(83.7542 0 0)
(83.5702 0 0)
(83.7183 0 0)
(84.0417 0 0)
(84.0749 0 0)
(83.861 0 0)
(83.8316 0 0)
(84.1173 0 0)
(84.3418 0 0)
(84.2067 0 0)
(84.0251 0 0)
(84.177 0 0)
(84.503 0 0)
(84.5378 0 0)
(84.3231 0 0)
(84.2837 0 0)
(84.5636 0 0)
(84.8036 0 0)
(84.679 0 0)
(84.4856 0 0)
(84.6114 0 0)
(84.9411 0 0)
(85.0145 0 0)
(84.8078 0 0)
(84.7245 0 0)
(84.9723 0 0)
(85.2567 0 0)
(85.1796 0 0)
(84.9651 0 0)
(85.0203 0 0)
(85.3385 0 0)
(85.5027 0 0)
(85.3291 0 0)
(85.1751 0 0)
(85.3514 0 0)
(85.678 0 0)
(85.6999 0 0)
(85.4825 0 0)
(85.435 0 0)
(85.7044 0 0)
(85.9696 0 0)
(85.8662 0 0)
(85.6571 0 0)
(85.743 0 0)
(86.0702 0 0)
(86.2001 0 0)
(86.0088 0 0)
(85.8824 0 0)
(86.0997 0 0)
(86.4086 0 0)
(86.3715 0 0)
(86.1492 0 0)
(86.1798 0 0)
(86.4927 0 0)
(86.664 0 0)
(86.4911 0 0)
(86.3452 0 0)
(86.5513 0 0)
(86.8589 0 0)
(86.8234 0 0)
(86.6031 0 0)
(86.6497 0 0)
(86.9679 0 0)
(87.1049 0 0)
(86.9164 0 0)
(86.807 0 0)
(87.0499 0 0)
(87.3222 0 0)
(87.2305 0 0)
(87.0278 0 0)
(87.1491 0 0)
(87.4727 0 0)
(87.519 0 0)
(87.3052 0 0)
(87.2814 0 0)
(87.5759 0 0)
(87.7706 0 0)
(87.6109 0 0)
(87.4599 0 0)
(87.6669 0 0)
(87.9657 0 0)
(87.9144 0 0)
(87.6987 0 0)
(87.7706 0 0)
(88.0936 0 0)
(88.1958 0 0)
(87.9935 0 0)
(87.9099 0 0)
(88.1719 0 0)
(88.4277 0 0)
(88.3151 0 0)
(88.1142 0 0)
(88.2423 0 0)
(88.5709 0 0)
(88.6223 0 0)
(88.4058 0 0)
(88.35 0 0)
(88.626 0 0)
(88.8731 0 0)
(88.7492 0 0)
(88.5475 0 0)
(88.668 0 0)
(89 0 0)
(89.0741 0 0)
(88.8614 0 0)
(88.7748 0 0)
(89.0265 0 0)
(89.307 0 0)
(89.2194 0 0)
(89.0006 0 0)
(89.0724 0 0)
(89.3989 0 0)
(89.5303 0 0)
(89.3333 0 0)
(89.2038 0 0)
(89.4272 0 0)
(89.7301 0 0)
(89.6748 0 0)
(89.4476 0 0)
(89.4953 0 0)
(89.8157 0 0)
(89.9586 0 0)
(89.7664 0 0)
(89.637 0 0)
(89.8662 0 0)
(90.1554 0 0)
(90.0802 0 0)
(89.8603 0 0)
(89.9473 0 0)
(90.2727 0 0)
(90.3549 0 0)
(90.1414 0 0)
(90.0763 0 0)
(90.3536 0 0)
(90.5781 0 0)
(90.4334 0 0)
(90.2575 0 0)
(90.4413 0 0)
(90.7464 0 0)
(90.7088 0 0)
(90.4873 0 0)
(90.5515 0 0)
(90.8718 0 0)
(90.9619 0 0)
(90.7531 0 0)
(90.6941 0 0)
(90.9744 0 0)
(91.185 0 0)
(91.0325 0 0)
(90.8725 0 0)
(91.0755 0 0)
(91.371 0 0)
(91.3118 0 0)
(91.0967 0 0)
(91.1901 0 0)
(91.5168 0 0)
(91.5823 0 0)
(91.3679 0 0)
(91.3323 0 0)
(91.6275 0 0)
(91.827 0 0)
(91.6658 0 0)
(91.5159 0 0)
(91.7327 0 0)
(92.0369 0 0)
(91.9816 0 0)
(91.7681 0 0)
(91.8575 0 0)
(92.1905 0 0)
(92.2799 0 0)
(92.0746 0 0)
(92.0173 0 0)
(92.3061 0 0)
(92.5513 0 0)
(92.4237 0 0)
(92.2477 0 0)
(92.4258 0 0)
(92.7639 0 0)
(92.778 0 0)
(92.5649 0 0)
(92.5846 0 0)
(92.9135 0 0)
(93.1089 0 0)
(92.9495 0 0)
(92.8134 0 0)
(93.041 0 0)
(93.3734 0 0)
(93.3506 0 0)
(93.1425 0 0)
(93.2032 0 0)
(93.5517 0 0)
(93.7287 0 0)
(93.5638 0 0)
(93.4511 0 0)
(93.701 0 0)
(94.0403 0 0)
(94.0167 0 0)
(93.8172 0 0)
(93.8889 0 0)
(94.2473 0 0)
(94.4379 0 0)
(94.2826 0 0)
(94.1696 0 0)
(94.4181 0 0)
(94.7732 0 0)
(94.7719 0 0)
(94.5787 0 0)
(94.6394 0 0)
(95.001 0 0)
(95.2205 0 0)
(95.0816 0 0)
(94.9596 0 0)
(95.1979 0 0)
(95.5684 0 0)
(95.5937 0 0)
(95.4068 0 0)
(95.4559 0 0)
(95.8169 0 0)
(96.0552 0 0)
(95.9291 0 0)
(95.8068 0 0)
(96.0458 0 0)
(96.422 0 0)
(96.454 0 0)
(96.2708 0 0)
(96.3236 0 0)
(96.6909 0 0)
(96.9294 0 0)
(96.8027 0 0)
(96.6861 0 0)
(96.9344 0 0)
(97.31 0 0)
(97.3324 0 0)
(97.1501 0 0)
(97.2164 0 0)
(97.5894 0 0)
(97.8147 0 0)
(97.6809 0 0)
(97.5732 0 0)
(97.8311 0 0)
(98.2033 0 0)
(98.2148 0 0)
(98.0308 0 0)
(98.1022 0 0)
(98.4766 0 0)
(98.6993 0 0)
(98.5629 0 0)
(98.449 0 0)
(98.6987 0 0)
(99.0754 0 0)
(99.0964 0 0)
(98.9079 0 0)
(98.9557 0 0)
(99.3211 0 0)
(99.5671 0 0)
(99.4403 0 0)
(99.3032 0 0)
(99.5196 0 0)
(99.9044 0 0)
(99.96 0 0)
(99.7687 0 0)
(99.7689 0 0)
(100.106 0 0)
(100.396 0 0)
(100.297 0 0)
(100.126 0 0)
(100.285 0 0)
(100.671 0 0)
(100.788 0 0)
(100.604 0 0)
(100.538 0 0)
(100.829 0 0)
(101.165 0 0)
(101.113 0 0)
(100.915 0 0)
(100.999 0 0)
(101.368 0 0)
(101.559 0 0)
(101.398 0 0)
(101.268 0 0)
(101.491 0 0)
(101.857 0 0)
(101.883 0 0)
(101.677 0 0)
(101.668 0 0)
(101.99 0 0)
(102.276 0 0)
(102.162 0 0)
(101.966 0 0)
(102.104 0 0)
(102.497 0 0)
(102.599 0 0)
(102.395 0 0)
(102.323 0 0)
(102.59 0 0)
(102.86 0 0)
(102.834 0 0)
(102.692 0 0)
(102.653 0 0)
(102.805 0 0)
)
;

boundaryField
{
    sides
    {
        type            zeroGradient;
    }
    empty
    {
        type            empty;
    }
}


// ************************************************************************* //
