/*--------------------------------*- C++ -*----------------------------------*\
  =========                 |
  \\      /  F ield         | OpenFOAM: The Open Source CFD Toolbox
   \\    /   O peration     | Website:  https://openfoam.org
    \\  /    A nd           | Version:  13
     \\/     M anipulation  |
\*---------------------------------------------------------------------------*/
FoamFile
{
    format      ascii;
    class       volVectorField;
    location    "47.401";
    object      wallShearStress;
}
// * * * * * * * * * * * * * * * * * * * * * * * * * * * * * * * * * * * * * //

dimensions      [0 2 -2 0 0 0 0];

internalField   uniform (0 0 0);

boundaryField
{
    inlet
    {
        type            calculated;
        value           uniform (0 0 0);
    }
    outlet
    {
        type            calculated;
        value           uniform (0 0 0);
    }
    cylinder
    {
        type            calculated;
        value           nonuniform List<vector> 
132
(
(-2.5493825e-05 0.0021524206 -3.0999382e-22)
(-7.17679e-05 0.001845086 8.8419215e-23)
(-0.00010056541 0.001515894 4.88773e-21)
(-0.00011000533 0.0011692745 -1.6415993e-20)
(-9.8585268e-05 0.00080970166 1.1596226e-20)
(-6.5661517e-05 0.00044503575 3.5456903e-20)
(-1.0864338e-05 8.1029345e-05 -6.7227601e-21)
(6.4613247e-05 -0.00027504756 -2.6655071e-20)
(0.00015939185 -0.00061567862 2.5148306e-20)
(0.00027108634 -0.00093344291 -5.64534e-20)
(0.00039619141 -0.0012213835 -1.0287712e-21)
(0.00053071756 -0.0014733825 3.518524e-20)
(0.00067011151 -0.0016845326 5.7499121e-20)
(0.00080958292 -0.0018514887 -4.6812091e-20)
(0.00094447504 -0.0019728268 4.9415499e-20)
(0.0010706138 -0.0020491403 7.9748014e-20)
(0.0011848826 -0.0020834206 -5.2401815e-20)
(0.0012854831 -0.0020806491 8.4292983e-20)
(0.0013727743 -0.0020483137 1.1175737e-19)
(0.0014491633 -0.0019952231 -7.2683758e-20)
(0.0015200701 -0.0019320238 -9.2867828e-20)
(0.0015937059 -0.0018699016 3.2748543e-23)
(0.0016807648 -0.0018195193 1.3529617e-20)
(0.0017939589 -0.001790048 -1.6228241e-20)
(0.0019466615 -0.0017876788 -2.7651829e-20)
(0.0021490162 -0.0018125487 5.9221006e-21)
(0.0024072954 -0.0018597578 -5.3530275e-20)
(0.0027176687 -0.0019164228 1.4314663e-20)
(0.0030660754 -0.0019647368 1.1247035e-20)
(0.0034328593 -0.0019876067 -7.7483065e-20)
(0.0037856923 -0.0019661659 1.0111376e-19)
(0.0040861815 -0.0018860579 3.0599965e-21)
(0.0042816861 -0.0017354616 2.2054141e-20)
(0.0042826718 -0.0015006341 -2.6124467e-20)
(0.0039673914 -0.0011769439 8.295021e-20)
(0.0031711432 -0.00077464658 -5.2391573e-21)
(0.001710213 -0.00033494504 2.1083843e-20)
(-0.00063956755 6.6752644e-05 -2.8840435e-21)
(-0.0040806151 0.00030664979 4.1137644e-21)
(-0.008707696 0.00019943313 -2.546109e-21)
(-0.014910758 -0.00049192143 4.7053786e-21)
(-0.022539939 -0.0020906789 -1.4325843e-22)
(-0.03086642 -0.0047446495 5.1814996e-20)
(-0.039439427 -0.0085153896 -1.96984e-20)
(-0.047676082 -0.013341351 1.7554577e-20)
(-0.055102183 -0.01906602 -1.1155362e-19)
(-0.06130168 -0.025441064 -1.7836966e-20)
(-0.066031834 -0.032194499 1.5565935e-19)
(-0.069111722 -0.039015766 -1.3234429e-19)
(-0.070522573 -0.045624982 -2.528034e-21)
(-0.070265332 -0.051722211 4.0537372e-20)
(-0.068505453 -0.057102739 -3.7429106e-20)
(-0.065321638 -0.06148962 -7.547667e-21)
(-0.060960163 -0.064748103 -5.1285653e-21)
(-0.055679121 -0.066786682 -9.8986032e-21)
(-0.049637947 -0.067423013 1.1475494e-22)
(-0.043135959 -0.066665218 4.6671084e-22)
(-0.036403928 -0.064476063 4.3629487e-20)
(-0.029690916 -0.060888755 -7.0124373e-20)
(-0.023229765 -0.055965545 -7.674925e-20)
(-0.017237407 -0.049803121 -3.1618347e-20)
(-0.011910758 -0.042531808 -7.3171894e-20)
(-0.0074209331 -0.034308192 1.6428834e-20)
(-0.0039082278 -0.025314872 2.400787e-20)
(-0.0014869627 -0.015765684 -3.742321e-20)
(-0.00021933227 -0.0058456235 -5.008896e-21)
(3.6645047e-05 0.002436711 -1.4230096e-21)
(0.00011367623 0.0026986985 -8.4547266e-23)
(0.00020534674 0.0029357716 -4.8386809e-21)
(0.00030929104 0.0031429222 1.616689e-20)
(0.00042300266 0.003315908 -1.1366645e-20)
(0.00054349471 0.0034510155 -3.4584844e-20)
(0.00066742696 0.0035455163 6.5239029e-21)
(0.0007911661 0.0035975984 2.5728422e-20)
(0.00091104682 0.0036067786 -2.4138508e-20)
(0.0010234807 0.0035736402 5.387252e-20)
(0.0011251882 0.0035003319 9.7595441e-22)
(0.0012133447 0.0033901987 -3.3170046e-20)
(0.0012859372 0.003248159 -5.3867653e-20)
(0.0013418326 0.0030801678 4.3580678e-20)
(0.0013810558 0.0028932824 -4.5718702e-20)
(0.0014050484 0.0026956062 -7.3334932e-20)
(0.0014165704 0.0024955098 4.7907283e-20)
(0.0014201423 0.0023019968 -7.6640001e-20)
(0.0014218455 0.0021238503 -1.010949e-19)
(0.0014298568 0.0019700543 6.5447441e-20)
(0.0014542469 0.0018489917 8.3283855e-20)
(0.0015075989 0.0017688158 7.448985e-20)
(0.0016041213 0.0017359044 6.1136431e-20)
(0.0017591685 0.0017542312 1.4430706e-20)
(0.0019859384 0.0018223779 2.4551628e-20)
(0.0022902373 0.0019302415 -5.2535983e-21)
(0.0026697658 0.0020613011 4.7476831e-20)
(0.0031039801 0.0021880001 -1.2700332e-20)
(0.0035575223 0.0022793159 -9.9872689e-21)
(0.0039926574 0.0023118248 6.889146e-20)
(0.0043758583 0.0022730289 -9.0042851e-20)
(0.0046762239 0.0021588541 -2.7142912e-21)
(0.0048436765 0.0019637314 4.4877939e-20)
(0.0047832013 0.0016765293 2.3442422e-20)
(0.0043617637 0.0012945354 -7.4742212e-20)
(0.0033982484 0.00083098024 4.74517e-21)
(0.001698802 0.00033467606 1.4012434e-20)
(-0.00096797516 -0.00010868731 2.6469569e-21)
(-0.0047992348 -0.00036249454 -3.8044068e-21)
(-0.0098541788 -0.00022791999 2.3731289e-21)
(-0.016526308 0.0005434668 -4.4198589e-21)
(-0.024587351 0.0022788043 3.5729849e-20)
(-0.033245926 0.0051084501 -4.9257087e-20)
(-0.042041194 0.009074928 1.8787602e-20)
(-0.050339753 0.014084474 -1.6766874e-20)
(-0.057714337 0.019967582 1.0652784e-19)
(-0.063761799 0.026459226 1.6998017e-20)
(-0.0682606 0.033278364 -1.4778866e-19)
(-0.071062625 0.040114356 1.2491548e-19)
(-0.072169781 0.046687949 2.366161e-21)
(-0.071593108 0.052696924 -3.7467893e-20)
(-0.06953678 0.057959834 3.3957548e-20)
(-0.066053833 0.062176069 -5.3382881e-20)
(-0.061421228 0.065235248 4.212618e-21)
(-0.055922578 0.067075986 -8.9223652e-21)
(-0.049679619 0.06747668 2.8813653e-21)
(-0.043021544 0.066485253 -6.2290652e-22)
(-0.03617048 0.064059069 -5.0516595e-20)
(-0.029377254 0.060241429 7.7056167e-20)
(-0.022872941 0.055100922 8.2013186e-20)
(-0.016871543 0.048739677 3.3188556e-20)
(-0.011566655 0.041294212 7.58287e-20)
(-0.0071247358 0.032925113 -1.6856514e-20)
(-0.0036809023 0.023819976 4.8450187e-20)
(-0.0013438993 0.014190389 3.7802375e-20)
(-0.00017204702 0.0042418626 5.0284049e-21)
)
;
    }
    frontAndBack
    {
        type            empty;
    }
}


// ************************************************************************* //
