/*--------------------------------*- C++ -*----------------------------------*\
  =========                 |
  \\      /  F ield         | OpenFOAM: The Open Source CFD Toolbox
   \\    /   O peration     | Website:  https://openfoam.org
    \\  /    A nd           | Version:  13
     \\/     M anipulation  |
\*---------------------------------------------------------------------------*/
FoamFile
{
    format      ascii;
    class       volVectorField;
    location    "37.798021";
    object      U;
}
// * * * * * * * * * * * * * * * * * * * * * * * * * * * * * * * * * * * * * //

dimensions      [0 1 -1 0 0 0 0];

internalField   nonuniform List<vector> 
17140
(
(-1.5176023e-06 0.00010503559 2.7507477e-23)
(-6.0642171e-06 0.00032386083 3.0464018e-24)
(-1.3122378e-05 0.0005654097 -2.0105741e-22)
(-2.3468892e-05 0.00083379676 2.2094753e-22)
(-3.8015017e-05 0.0011335916 -2.5817577e-23)
(-5.7926348e-05 0.0014698131 8.4456067e-23)
(-8.4655839e-05 0.0018479173 1.420931e-22)
(-0.00011998574 0.0022737634 -6.9293407e-23)
(-0.00016610182 0.0027535555 -2.266057e-22)
(-0.00022567362 0.003293753 -5.5511968e-22)
(-0.00030195006 0.0039009423 8.2179447e-22)
(-0.00039886825 0.0045816607 -7.3092578e-22)
(-0.00052117885 0.0053421631 -1.1163551e-22)
(-0.0006745867 0.0061881222 6.2925689e-22)
(-0.00086590696 0.0071242513 -6.9610377e-23)
(-0.001103234 0.0081538406 5.4905151e-22)
(-0.0013961188 0.009278202 -2.0269266e-23)
(-0.0017557487 0.01049602 4.5837153e-24)
(-0.0021951163 0.011802614 3.1837571e-22)
(-0.0027291643 0.013189137 -4.0866519e-22)
(-0.0033748817 0.014641736 1.9467425e-22)
(-0.0041513217 0.016140744 -3.6597369e-23)
(-0.0050795025 0.017659989 -2.6519067e-22)
(-0.006182141 0.019166348 2.6012529e-22)
(-0.007483157 0.020619711 4.0538495e-22)
(-0.0090068805 0.021973577 -3.1864124e-22)
(-0.010776884 0.023176557 -1.5324603e-21)
(-0.012814378 0.024175116 -1.7670679e-22)
(-0.015136132 0.024917965 1.5134312e-21)
(-0.01775202 0.025362549 3.4614005e-22)
(-0.020662477 0.02548375 1.2042285e-21)
(-0.023856546 0.025283803 -1.5402424e-21)
(-0.027311606 0.024799575 3.8951937e-22)
(-0.03099586 0.024100376 1.79213e-22)
(-0.034873642 0.02327175 1.6802411e-21)
(-0.038911513 0.022391808 -7.0072529e-22)
(-0.043082152 0.021514923 1.0095865e-21)
(-0.047364764 0.020669912 6.5348173e-22)
(-0.051743641 0.019867005 2.8743384e-22)
(-0.056207287 0.01910505 -8.4363213e-22)
(-0.060749045 0.01837498 -1.5589176e-21)
(-0.065369783 0.01765911 -1.3963129e-21)
(-0.070080821 0.016927161 -6.0616812e-22)
(-0.07491024 0.016129495 2.9592467e-21)
(-0.079911692 0.015184701 2.1793103e-21)
(-0.08516209 0.013968086 -5.3943506e-22)
(-0.090769466 0.012302261 3.7219896e-21)
(-0.096878989 0.0099316044 1.2795364e-21)
(-0.1036625 0.0064926716 -1.3198287e-21)
(-0.11131669 0.0014729592 -3.2737126e-21)
(-0.12002029 -0.0058563262 2.0325978e-21)
(-0.12991469 -0.016530208 1.2924697e-21)
(-0.14096278 -0.031989089 -3.3788575e-21)
(-0.15288638 -0.054130519 -1.6003545e-21)
(-0.16481236 -0.085083231 -1.1268081e-21)
(-0.17536155 -0.1261447 8.8770423e-22)
(-0.18171947 -0.17626989 -2.3199172e-21)
(-0.18078765 -0.22884759 -1.8755617e-21)
(-0.16999393 -0.26877252 -4.5270345e-22)
(-0.15289262 -0.2779679 1.1376246e-21)
(-0.13168386 -0.21501508 9.455791e-22)
(-0.084633878 -0.022281804 3.4894478e-21)
(0.083287789 0.25631373 3.5118429e-22)
(0.2176502 0.43400392 -1.8715229e-21)
(0.28400887 0.47210627 8.744195e-22)
(-5.5815762e-06 0.0001344225 -7.8580713e-24)
(-1.8704228e-05 0.00041489798 1.0583602e-21)
(-3.5129036e-05 0.0007245629 -9.415607e-22)
(-5.5885238e-05 0.0010681092 2.5657511e-22)
(-8.1982276e-05 0.0014507307 5.2982492e-22)
(-0.0001147451 0.0018780999 -1.0118525e-21)
(-0.00015579278 0.0023563536 1.0540027e-21)
(-0.00020708085 0.0028920526 -9.2681129e-23)
(-0.00027097181 0.0034921137 2.8905126e-22)
(-0.00035031265 0.0041637079 4.9012035e-24)
(-0.00044852384 0.0049141146 9.621826e-22)
(-0.00056970061 0.0057505238 -1.5255672e-21)
(-0.00071872841 0.0066797753 -1.2566425e-22)
(-0.00090141153 0.0077080241 1.2362647e-21)
(-0.0011246144 0.0088403202 -3.7798775e-22)
(-0.0013964133 0.010080094 -2.3881381e-22)
(-0.0017262537 0.011428538 1.5047704e-21)
(-0.0021251071 0.012883887 -4.8604438e-21)
(-0.0026056168 0.014440593 3.0122798e-21)
(-0.0031822171 0.01608843 -3.5662944e-21)
(-0.0038712062 0.017811547 5.1945299e-21)
(-0.0046907438 0.019587541 -1.2538161e-21)
(-0.0056607394 0.021386645 -5.0710431e-22)
(-0.0068025824 0.023171156 1.6281545e-21)
(-0.0081386612 0.024895278 -5.7358835e-21)
(-0.0096916054 0.026505626 -8.3937165e-22)
(-0.011483184 0.027942677 4.2507623e-21)
(-0.013532798 0.029143567 -4.6692907e-21)
(-0.015855563 0.030046745 6.2861993e-22)
(-0.018460056 0.030599109 6.0231446e-21)
(-0.021346052 0.030766048 -6.0755531e-22)
(-0.024502881 0.030543595 -4.5578935e-21)
(-0.027909368 0.029968548 -1.141322e-22)
(-0.031536237 0.029118252 3.1814007e-21)
(-0.035350904 0.028093343 -3.4028052e-21)
(-0.03932288 0.026989732 1.4654548e-21)
(-0.043427084 0.025877486 -1.6414827e-21)
(-0.047644125 0.024796788 -5.0055727e-21)
(-0.051959141 0.023765451 -1.082916e-21)
(-0.05636126 0.022787854 -4.1118482e-21)
(-0.060844578 0.021860009 5.1489315e-21)
(-0.065411105 0.020969984 4.6964855e-21)
(-0.070074142 0.020094702 8.0179419e-22)
(-0.074865132 0.019193836 -6.4318546e-21)
(-0.079842558 0.018196062 3.0910723e-21)
(-0.085091076 0.016985946 1.0840867e-21)
(-0.090730967 0.015396201 -5.6284662e-22)
(-0.096925282 0.013179985 -1.8507972e-21)
(-0.10387166 0.0099779227 9.1225485e-22)
(-0.11180447 0.0052741129 -1.7268078e-21)
(-0.12095611 -0.0016775619 -1.0349229e-20)
(-0.13154218 -0.011952456 -4.7513032e-22)
(-0.14361958 -0.027073972 2.2120949e-21)
(-0.15700465 -0.049086184 -5.1034214e-21)
(-0.17082848 -0.080335206 4.2848648e-21)
(-0.18354469 -0.12244494 -1.2096893e-20)
(-0.19169911 -0.17471286 -3.4633987e-21)
(-0.19187128 -0.23029381 9.0255716e-21)
(-0.1807332 -0.27314175 -1.458934e-21)
(-0.16362751 -0.28412481 -1.6249814e-21)
(-0.14389235 -0.22516502 -3.1661144e-22)
(-0.11238076 -0.053259481 3.14086e-21)
(0.019851784 0.20978684 -4.9826054e-21)
(0.15084422 0.40006886 -5.5645207e-22)
(0.2363669 0.45403026 -1.1532984e-21)
(-1.1372356e-05 0.00016372244 -4.3433547e-22)
(-3.6560288e-05 0.0005056747 3.2094661e-22)
(-6.6280121e-05 0.0008832646 8.5336731e-23)
(-0.00010170185 0.0013017552 -8.0878952e-23)
(-0.0001440109 0.0017669463 3.9181066e-22)
(-0.00019471146 0.0022851454 2.9135765e-23)
(-0.00025561032 0.0028631503 3.718403e-22)
(-0.00032885614 0.0035082025 4.0031843e-22)
(-0.00041700531 0.0042279107 -3.2679106e-21)
(-0.0005230934 0.0050301361 2.9139227e-21)
(-0.00065071619 0.0059228309 -1.3921364e-21)
(-0.00080412103 0.0069138205 -2.0357803e-21)
(-0.00098830959 0.008010516 4.0262837e-21)
(-0.0012091512 0.0092195472 4.9691401e-22)
(-0.0014735058 0.010546302 -1.9103371e-21)
(-0.0017893541 0.011994364 -1.306766e-21)
(-0.0021659304 0.013564834 1.505802e-21)
(-0.0026138527 0.015255541 -5.4098322e-21)
(-0.0031452391 0.017060138 3.1677063e-21)
(-0.0037737986 0.018967108 -1.550168e-21)
(-0.0045148763 0.020958714 5.161038e-21)
(-0.0053854293 0.023009957 1.3228295e-21)
(-0.0064039008 0.025087632 -2.7177896e-21)
(-0.0075899509 0.027149627 4.0211875e-21)
(-0.0089639955 0.029144637 1.5565725e-21)
(-0.010546496 0.031012558 -1.8337938e-21)
(-0.012356935 0.032685866 -1.0218699e-20)
(-0.014412446 0.034092446 -4.5398881e-21)
(-0.016726068 0.035160478 2.2204958e-21)
(-0.019304762 0.03582619 -2.3331985e-21)
(-0.022147488 0.036045191 1.4252197e-21)
(-0.02524394 0.035806839 7.8951033e-21)
(-0.028574747 0.035147258 -2.5755874e-21)
(-0.032113755 0.034151271 -7.4307244e-21)
(-0.035832146 0.032934373 2.3732383e-21)
(-0.039702861 0.031610419 3.2001239e-21)
(-0.043703246 0.030265488 -5.3239469e-21)
(-0.047815236 0.028951449 -1.5747442e-21)
(-0.052024486 0.027693985 2.684356e-21)
(-0.056320192 0.026503281 1.0421684e-21)
(-0.060696416 0.025380816 -4.9819315e-21)
(-0.065155225 0.024320975 1.4128268e-21)
(-0.069710478 0.023308686 2.031633e-21)
(-0.074395121 0.022313978 5.483705e-21)
(-0.079269668 0.021277064 -1.059083e-20)
(-0.084422992 0.020093832 7.0063101e-21)
(-0.089982619 0.018609572 1.8274172e-21)
(-0.096122846 0.016589434 7.287856e-21)
(-0.10305826 0.013682349 8.9113008e-21)
(-0.11104933 0.0093749016 4.4775967e-22)
(-0.12036668 0.0029107234 -2.1301132e-21)
(-0.13128083 -0.0068179987 1.4983575e-20)
(-0.14391714 -0.021416034 6.4411124e-21)
(-0.15815264 -0.043091773 6.5930021e-21)
(-0.17308547 -0.074469486 2.255958e-21)
(-0.18695687 -0.11766041 1.6670518e-20)
(-0.19522495 -0.1722313 -6.7831907e-21)
(-0.19507561 -0.23148917 1.9318189e-21)
(-0.18025421 -0.27761945 1.3993523e-20)
(-0.15974108 -0.29046264 5.0093903e-21)
(-0.13737005 -0.23431987 -5.0804214e-21)
(-0.11210303 -0.078334442 -1.6881936e-20)
(-0.0098184401 0.16713874 4.1818601e-21)
(0.11392174 0.3623263 3.9156777e-21)
(0.2189066 0.42488882 1.1857538e-21)
(-1.8864358e-05 0.00019242209 1.4597001e-21)
(-5.9666934e-05 0.00059462409 -2.3222748e-21)
(-0.00010658103 0.0010387992 8.3947333e-22)
(-0.00016093676 0.0015307569 -9.1223363e-23)
(-0.00022412144 0.0020768765 1.8029715e-21)
(-0.00029784133 0.0026840723 -1.8645232e-21)
(-0.00038411195 0.0033597738 2.8268068e-21)
(-0.00048529341 0.0041118732 -1.3288774e-21)
(-0.00060415045 0.0049486407 -5.0483101e-21)
(-0.00074391593 0.0058785991 1.2123397e-21)
(-0.00090836235 0.0069103479 4.6115313e-21)
(-0.0011018808 0.0080523266 -1.4052493e-21)
(-0.0013295684 0.0093125044 -9.3589036e-23)
(-0.0015973236 0.010697983 3.6594904e-21)
(-0.0019119469 0.012214501 -1.1408874e-20)
(-0.0022812455 0.013865824 6.9738813e-21)
(-0.0027141383 0.015653016 6.6095316e-23)
(-0.0032207534 0.017573579 -3.8129088e-21)
(-0.0038125118 0.019620481 9.6100683e-21)
(-0.0045021851 0.021781064 -4.4955993e-21)
(-0.005303909 0.024035897 -6.6375851e-21)
(-0.0062331354 0.026357612 -2.65927e-21)
(-0.0073064907 0.028709832 1.2987331e-20)
(-0.0085415098 0.031046333 6.7011364e-21)
(-0.0099561993 0.033310614 -4.2681459e-21)
(-0.011568383 0.035436158 2.4589533e-21)
(-0.013394777 0.03734772 -9.0847618e-21)
(-0.015449764 0.038964145 2.5759642e-21)
(-0.017743872 0.040203438 -6.8444394e-21)
(-0.020282098 0.040991058 3.8145043e-21)
(-0.023062381 0.041272467 -2.3279307e-21)
(-0.026074792 0.041029628 8.3516884e-21)
(-0.02930206 0.040296956 -1.1706387e-21)
(-0.032721701 0.039165676 6.0124583e-21)
(-0.036309298 0.037765435 -5.5540956e-21)
(-0.04004173 0.036227942 -1.7200696e-21)
(-0.04389898 0.034655685 2.0501842e-20)
(-0.047864202 0.033112722 5.1653689e-21)
(-0.051923183 0.031633017 -4.1515561e-21)
(-0.05606456 0.030232903 3.9919093e-21)
(-0.060281485 0.028919676 -1.0295773e-21)
(-0.064574871 0.027694532 -6.3110569e-21)
(-0.068957523 0.026551124 2.8735832e-22)
(-0.073461749 0.025470758 2.1666327e-21)
(-0.078146899 0.024406519 -1.0848142e-21)
(-0.083101756 0.023267566 5.9112391e-22)
(-0.088455145 0.021914119 1.6550672e-21)
(-0.09438458 0.020126537 -2.5405209e-20)
(-0.10111036 0.017566293 2.9474437e-21)
(-0.10890404 0.01372852 -2.7442555e-21)
(-0.1180537 0.0078540993 2.6328681e-20)
(-0.12885663 -0.0011885654 -1.4564405e-20)
(-0.14146638 -0.015082122 -1.2347239e-20)
(-0.15576729 -0.036212901 -1.1920918e-20)
(-0.17077949 -0.06754346 -1.1541236e-20)
(-0.18443491 -0.11183917 -1.781749e-20)
(-0.19194436 -0.16889018 3.462782e-20)
(-0.18761092 -0.23238475 -2.0051091e-20)
(-0.16739302 -0.2824825 -2.6879677e-20)
(-0.14068474 -0.29724817 1.6100399e-20)
(-0.11229589 -0.24297047 4.8258774e-21)
(-0.087031277 -0.098657994 5.2712675e-21)
(-0.0043526415 0.12925561 -7.6375882e-21)
(0.11068374 0.32287432 -4.3173049e-21)
(0.24040894 0.3863669 3.2498933e-22)
(-2.800447e-05 0.00021998368 -1.0316847e-21)
(-8.7861799e-05 0.00068007669 3.4248895e-21)
(-0.00015574908 0.0011882507 -2.7916088e-21)
(-0.00023317431 0.0017508299 1.0547202e-21)
(-0.00032174999 0.0023747365 3.8094345e-22)
(-0.00042340466 0.0030674546 -3.276818e-21)
(-0.00054038088 0.0038370067 8.2948772e-22)
(-0.00067526576 0.0046918966 1.7605388e-21)
(-0.00083104392 0.0056410182 1.3494992e-22)
(-0.0010111517 0.0066935201 1.1457957e-21)
(-0.0012195373 0.0078586183 -1.6029437e-21)
(-0.0014607252 0.0091453432 1.1125866e-21)
(-0.0017398864 0.01056221 4.0935879e-21)
(-0.0020629117 0.012116794 1.1889712e-22)
(-0.0024364886 0.013815206 -3.1141192e-21)
(-0.0028681761 0.015661443 -2.198893e-21)
(-0.0033664772 0.017656607 1.8849954e-21)
(-0.0039409013 0.019797995 -1.7943038e-22)
(-0.0046020101 0.022078047 -3.6348364e-21)
(-0.0053614371 0.024483179 -4.3992838e-21)
(-0.0062318678 0.026992526 4.9800193e-21)
(-0.0072269623 0.029576676 4.9623541e-21)
(-0.0083611988 0.032196457 -6.6046529e-21)
(-0.0096496086 0.034801951 8.0793801e-21)
(-0.011107368 0.037331916 1.3829135e-20)
(-0.012749208 0.039713886 -3.2145614e-20)
(-0.014588597 0.041865329 1.74482e-20)
(-0.016636685 0.043696412 -2.5492116e-20)
(-0.018901034 0.045115172 3.1372789e-20)
(-0.021384282 0.046036269 -3.446897e-20)
(-0.024083081 0.046394586 3.5011103e-20)
(-0.026987808 0.046163732 -5.7674633e-21)
(-0.030083468 0.045374921 -1.9440381e-20)
(-0.033351685 0.044124101 1.0638954e-20)
(-0.03677303 0.042553845 -3.210985e-21)
(-0.040328834 0.040813407 -8.9023856e-22)
(-0.044001964 0.039022111 -1.0649346e-20)
(-0.047776698 0.037256867 -3.3429432e-21)
(-0.051638541 0.035560465 -3.3030022e-21)
(-0.055574879 0.033955778 -3.1567169e-21)
(-0.059576965 0.032456255 1.5904569e-20)
(-0.063643213 0.031070318 -6.9535037e-21)
(-0.067783539 0.029800947 -1.1217972e-21)
(-0.072027212 0.028641452 1.2967971e-20)
(-0.076428665 0.027558897 6.6668351e-21)
(-0.081071561 0.026477498 -3.295875e-21)
(-0.086079065 0.025274633 -1.2377592e-20)
(-0.091622094 0.023748734 5.4061258e-21)
(-0.09791254 0.021577828 -1.6399331e-20)
(-0.10521375 0.018271586 -9.1294133e-21)
(-0.11380324 0.013075487 -1.2746572e-20)
(-0.12396503 0.0048431534 -3.5439741e-20)
(-0.13582349 -0.0081809479 2.7861738e-20)
(-0.14919819 -0.028568305 -9.5167651e-21)
(-0.16294856 -0.059647921 1.6055743e-20)
(-0.17465807 -0.10483176 1.5024943e-20)
(-0.17855965 -0.1649496 6.2248423e-21)
(-0.16792005 -0.233074 4.8351784e-20)
(-0.13917866 -0.28725402 1.1146227e-20)
(-0.10417153 -0.30429046 -2.1211099e-20)
(-0.06810081 -0.25139122 -5.0720744e-21)
(-0.03877923 -0.11596846 4.2038135e-21)
(0.034650266 0.096612038 4.8514413e-21)
(0.14484331 0.28258482 3.4712715e-21)
(0.30687939 0.33948476 -4.1016813e-22)
(-3.8676541e-05 0.00024583828 -3.1557487e-21)
(-0.00012078835 0.00076027411 -1.1137506e-21)
(-0.00021316404 0.0013285515 9.015234e-22)
(-0.00031750484 0.0019574688 3.3284526e-21)
(-0.00043566839 0.0026544451 -1.8232359e-21)
(-0.00056982241 0.0034274876 2.6233452e-21)
(-0.00072245148 0.0042851635 -1.1346359e-21)
(-0.000896382 0.0052365406 -2.7012894e-22)
(-0.001094827 0.00629109 1.5280117e-21)
(-0.0013214299 0.0074585439 3.2908267e-21)
(-0.0015803113 0.0087486989 1.6528069e-22)
(-0.0018761177 0.010171151 -5.4001209e-21)
(-0.0022140719 0.011734948 7.462046e-21)
(-0.002600023 0.013448148 -1.2030792e-20)
(-0.0030404948 0.015317267 3.1384354e-21)
(-0.0035427294 0.017346595 -6.6546559e-21)
(-0.0041147234 0.01953738 8.0233691e-21)
(-0.0047652508 0.021886863 -5.1942966e-21)
(-0.0055038678 0.024387165 8.1706694e-22)
(-0.006340891 0.027024044 3.2996675e-21)
(-0.0072873381 0.029775547 -7.9784745e-21)
(-0.00835482 0.032610627 1.1191372e-20)
(-0.0095553649 0.035487801 -1.2084404e-20)
(-0.010901154 0.03835401 -2.0647744e-21)
(-0.012404144 0.041143866 2.0066736e-20)
(-0.014075539 0.043779572 -2.0110611e-20)
(-0.015925098 0.046171912 1.2949779e-20)
(-0.017960259 0.048222894 -1.4403101e-20)
(-0.020185138 0.049830943 -1.3732714e-21)
(-0.022599578 0.050899962 -8.4500729e-22)
(-0.025198589 0.051353802 5.5171307e-21)
(-0.027972648 0.051156554 -3.7256285e-22)
(-0.030909059 0.050334303 2.0030756e-20)
(-0.033993839 0.048985415 -5.2670535e-21)
(-0.037213044 0.047263577 -1.5314629e-20)
(-0.04055297 0.045334949 6.8759178e-21)
(-0.043999662 0.043336111 -5.4361233e-21)
(-0.047538463 0.041357636 5.3130498e-21)
(-0.051154181 0.039451841 2.8568318e-20)
(-0.054832205 0.037648594 -1.5465197e-20)
(-0.058560802 0.035967795 -3.7372344e-21)
(-0.062334388 0.034425394 2.1167609e-20)
(-0.066157899 0.033034192 -1.1854195e-21)
(-0.070054847 0.031799914 -2.5825801e-21)
(-0.074070474 0.030704427 -2.8931651e-20)
(-0.078277469 0.029688623 -6.7743804e-21)
(-0.082785127 0.028648823 1.0906737e-20)
(-0.087745866 0.027403905 1.1314799e-20)
(-0.093345571 0.025651897 1.6447576e-20)
(-0.099814562 0.022922395 2.0877712e-20)
(-0.10738182 0.018471848 1.3114013e-20)
(-0.1162616 0.011148547 2.0311218e-20)
(-0.12646988 -0.00086745655 -6.9966547e-21)
(-0.13766287 -0.020329454 4.5683857e-20)
(-0.14841008 -0.050977661 3.6368056e-21)
(-0.15565554 -0.097042414 2.8224867e-21)
(-0.15251254 -0.16011232 2.1284168e-21)
(-0.13137832 -0.23319936 -5.3896595e-20)
(-0.090170655 -0.29140091 -1.7229786e-20)
(-0.044328267 -0.31010179 1.9916092e-20)
(-0.0022071834 -0.25864013 1.7785928e-20)
(0.031995215 -0.13022771 5.1183835e-21)
(0.10306462 0.068154853 1.0664299e-21)
(0.21644364 0.2417989 -2.2927402e-21)
(0.41155073 0.2882883 6.1688474e-22)
(-5.0697524e-05 0.0002694099 5.9848043e-22)
(-0.00015788413 0.00083343654 1.9019002e-21)
(-0.00027784754 0.0014565965 -4.5900165e-21)
(-0.00041249451 0.0021461119 1.7057201e-22)
(-0.00056394337 0.002909844 2.2342177e-21)
(-0.00073461411 0.0037562662 9.846398e-22)
(-0.00092724439 0.0046944337 7.2689232e-22)
(-0.0011449086 0.0057339211 -1.4319972e-21)
(-0.0013910534 0.0068847222 7.4109102e-21)
(-0.0016695299 0.0081571039 -5.5898122e-21)
(-0.0019846267 0.009561402 2.703771e-22)
(-0.0023411007 0.011107748 3.3793828e-21)
(-0.002744206 0.012805713 -1.2632939e-20)
(-0.0031997189 0.014663847 1.2578988e-20)
(-0.0037139561 0.016689112 -1.6731577e-21)
(-0.0042937841 0.018886173 -1.0340352e-20)
(-0.0049466162 0.021256549 9.7048819e-21)
(-0.0056803936 0.023797608 -3.3827376e-21)
(-0.0065035448 0.026501404 6.5544252e-21)
(-0.0074249189 0.029353362 -8.3818005e-21)
(-0.0084536839 0.032330851 -1.5667777e-20)
(-0.009599183 0.035401691 1.542532e-20)
(-0.010870736 0.038522676 2.2456834e-20)
(-0.012277373 0.041638279 -4.2985855e-20)
(-0.013827483 0.044679708 3.4169515e-20)
(-0.015528352 0.047564614 -1.9645099e-20)
(-0.017385592 0.050197868 5.0069267e-21)
(-0.01940246 0.052474018 -1.1709286e-20)
(-0.021579133 0.054282391 1.1833223e-20)
(-0.023912169 0.055516298 1.5777461e-20)
(-0.026394481 0.056088129 -1.0328572e-20)
(-0.029016277 0.055951148 -1.6883288e-20)
(-0.031766966 0.055123991 1.4393675e-21)
(-0.034637037 0.053704517 5.715416e-22)
(-0.037618394 0.051855036 1.0028146e-20)
(-0.040702789 0.049757535 -4.2207459e-21)
(-0.043879794 0.047566179 -1.4827855e-20)
(-0.047135823 0.045386157 -7.2173909e-21)
(-0.050454592 0.043280168 1.0750273e-20)
(-0.05381871 0.041285596 -8.2819636e-21)
(-0.057212276 0.039429047 6.9836317e-21)
(-0.060624061 0.037734149 -2.2428095e-21)
(-0.064051766 0.036223791 -8.8511174e-21)
(-0.067509755 0.034916538 2.1597175e-20)
(-0.07102944 0.03380905 1.293025e-20)
(-0.074665832 0.032860333 8.6736682e-21)
(-0.078504543 0.031986887 -2.7950698e-20)
(-0.082665069 0.031029558 -1.8533509e-20)
(-0.087285305 0.029708767 -2.2177139e-20)
(-0.092530603 0.027577994 -3.9565745e-20)
(-0.098529236 0.023908864 1.4288323e-20)
(-0.10534671 0.017554213 -2.9985423e-21)
(-0.11278376 0.0066422035 -2.4591404e-20)
(-0.12017205 -0.011752989 -7.3961587e-20)
(-0.12551592 -0.04180575 -4.964324e-20)
(-0.12470093 -0.08862126 -1.9719789e-20)
(-0.10901014 -0.1546616 -5.5076753e-20)
(-0.070117102 -0.23218157 3.4491891e-20)
(-0.010714782 -0.29299176 -2.6631232e-21)
(0.048347478 -0.31179388 -3.1847017e-20)
(0.091495195 -0.2615075 -1.362527e-20)
(0.12750543 -0.1405322 -1.1888812e-21)
(0.19731373 0.043241383 -2.9673895e-21)
(0.31838025 0.20109013 9.4532374e-22)
(0.53829155 0.23722756 9.4366301e-22)
(-6.3810351e-05 0.00029013885 2.3730041e-21)
(-0.0001983825 0.00089782531 -1.6006582e-21)
(-0.000348454 0.0015693521 2.1619976e-21)
(-0.00051617425 0.0023123005 1.2286685e-21)
(-0.00070392218 0.0031349112 -3.428138e-21)
(-0.0009143793 0.0040460583 -3.1996826e-21)
(-0.0011505433 0.0050552182 3.2825263e-21)
(-0.0014157413 0.006172407 -3.950071e-22)
(-0.0017136553 0.0074080788 -9.1428664e-23)
(-0.0020483428 0.0087729777 -6.4951688e-21)
(-0.0024242542 0.010277932 7.1162647e-22)
(-0.0028462455 0.011933576 1.308316e-20)
(-0.0033195852 0.013749988 -1.0453281e-20)
(-0.0038499516 0.015736227 3.5977339e-22)
(-0.0044434204 0.017899747 6.9926284e-21)
(-0.0051064374 0.020245676 6.0068343e-22)
(-0.0058457755 0.022775952 -1.5257222e-21)
(-0.00666847 0.025488277 -6.8612444e-21)
(-0.0075817311 0.028374925 1.2539531e-20)
(-0.0085928283 0.031421363 -2.1981894e-20)
(-0.0097089424 0.034604754 4.7219296e-21)
(-0.010936982 0.03789236 -3.4553324e-21)
(-0.012283356 0.041239942 2.8218364e-21)
(-0.013753701 0.04459029 -1.2152512e-22)
(-0.015352547 0.047872085 1.6550444e-20)
(-0.017082926 0.050999364 1.6380915e-20)
(-0.018945907 0.053872035 -3.220951e-20)
(-0.020940113 0.056378071 -5.3241551e-21)
(-0.023061286 0.058398403 1.8369288e-20)
(-0.02530215 0.059816076 6.4521828e-21)
(-0.027652951 0.06053168 1.4541553e-20)
(-0.030103071 0.060486289 -1.6161493e-20)
(-0.03264357 0.059688472 -6.9597526e-21)
(-0.035269211 0.058232057 1.5753714e-20)
(-0.037977907 0.05628473 -6.4101557e-21)
(-0.040767305 0.054042643 -3.0513804e-21)
(-0.043630916 0.051677673 8.3681689e-21)
(-0.046556321 0.049310668 2.1326736e-20)
(-0.049525791 0.047015728 6.3624119e-21)
(-0.052518352 0.044838359 -4.1349239e-21)
(-0.055512673 0.042812098 -9.6718946e-21)
(-0.058490066 0.04096827 -1.0018047e-20)
(-0.061438667 0.039339796 -1.1158412e-20)
(-0.064359458 0.037957926 -2.362328e-20)
(-0.067264743 0.036834201 6.6395542e-22)
(-0.070184585 0.035946299 -1.0208213e-20)
(-0.073168842 0.035231248 5.7680905e-20)
(-0.076286639 0.034552239 1.6276828e-20)
(-0.079600322 0.033652795 1.9014783e-20)
(-0.083168727 0.032111438 5.4035447e-20)
(-0.086947321 0.029215828 -6.5090345e-20)
(-0.090749027 0.023832972 1.4963771e-20)
(-0.094013889 0.014048557 4.9369276e-20)
(-0.095487479 -0.0032349093 6.1764439e-20)
(-0.092124471 -0.032648239 7.4834261e-21)
(-0.077881376 -0.080283253 -2.1606666e-20)
(-0.04094976 -0.14903468 -3.3348905e-20)
(0.027681067 -0.22897276 1.3112859e-20)
(0.1139739 -0.28969423 -1.6309025e-20)
(0.18694319 -0.30400196 9.0654829e-21)
(0.22535318 -0.25381988 8.5983867e-22)
(0.25419502 -0.14221795 -9.8886283e-22)
(0.31707186 0.024176697 4.5668277e-21)
(0.44353714 0.16248871 4.8117017e-22)
(0.6782518 0.18815399 -5.0507592e-21)
(-7.7704521e-05 0.00030750384 -2.2384294e-21)
(-0.00024130595 0.00095182631 -5.9960947e-22)
(-0.00042329241 0.0016639952 6.5870695e-22)
(-0.00062606384 0.0024518821 3.2369391e-21)
(-0.00085226307 0.0033240352 -3.8809753e-21)
(-0.0011048365 0.0042896548 3.2943217e-21)
(-0.0013870435 0.0053585635 1.5737847e-21)
(-0.0017024641 0.0065411448 -8.431067e-23)
(-0.0020550139 0.0078482421 -1.3267879e-21)
(-0.0024489526 0.0092910128 -7.5387499e-21)
(-0.002888886 0.010880723 1.2643295e-20)
(-0.0033797597 0.012628472 -1.5169597e-20)
(-0.0039268432 0.01454483 4.4467493e-21)
(-0.0045357 0.016639371 6.0228019e-21)
(-0.0052121429 0.018920092 -9.2137819e-21)
(-0.0059621698 0.021392685 1.8108516e-20)
(-0.0067918788 0.024059655 -2.1873362e-20)
(-0.0077073573 0.026919271 -3.4386499e-22)
(-0.0087145448 0.029964332 -1.2435813e-20)
(-0.0098190655 0.033180761 4.9125724e-20)
(-0.01102603 0.036546031 -1.1835517e-20)
(-0.012339809 0.040027489 -4.8725542e-20)
(-0.013763766 0.043580623 2.290255e-20)
(-0.015299974 0.047147435 2.7175804e-20)
(-0.01694889 0.050655077 -6.7903182e-21)
(-0.018709016 0.05401506 -3.5369673e-20)
(-0.020576544 0.057123455 5.3252201e-20)
(-0.022545044 0.059862742 -5.8718313e-20)
(-0.02460532 0.062106369 4.5924503e-20)
(-0.02674567 0.063727654 -8.7262337e-21)
(-0.028952979 0.064615226 1.4862456e-20)
(-0.031215038 0.06469667 2.0937037e-20)
(-0.033523803 0.063967707 -8.0556728e-21)
(-0.035877761 0.062514084 -1.9981877e-21)
(-0.038280715 0.06050482 -2.865129e-20)
(-0.040736541 0.058147805 5.3131669e-21)
(-0.04324315 0.055632386 -1.3436511e-20)
(-0.045789498 0.053096137 1.1175707e-20)
(-0.048356147 0.050625725 -6.2788498e-21)
(-0.050917742 0.048275492 -4.1202268e-21)
(-0.053446167 0.046086098 -3.551622e-21)
(-0.055913325 0.044096435 -3.4369609e-21)
(-0.058294828 0.042349014 2.1160857e-20)
(-0.06057411 0.040887019 1.7025282e-20)
(-0.062738121 0.039736858 -4.8480337e-21)
(-0.064783134 0.038894392 3.2425837e-21)
(-0.066709019 0.038316362 -1.3165629e-20)
(-0.068513099 0.037887079 2.743714e-20)
(-0.070147369 0.037371256 3.2887498e-20)
(-0.07150892 0.036369091 9.9414922e-21)
(-0.072283155 0.034181532 2.5794584e-20)
(-0.071904334 0.029696855 -8.0229844e-22)
(-0.06924788 0.0209565 -1.2720989e-20)
(-0.062057253 0.004667612 -6.7455238e-20)
(-0.045470892 -0.024344795 3.424354e-20)
(-0.010067769 -0.073164006 -1.5470634e-20)
(0.061134975 -0.14454791 3.835944e-20)
(0.17385978 -0.22404815 -5.6608937e-20)
(0.29642181 -0.27680467 2.5314347e-20)
(0.38306424 -0.27964704 -4.0762401e-21)
(0.41369933 -0.22582484 -4.4408938e-23)
(0.42356474 -0.12648766 -6.6724608e-22)
(0.46872247 0.016815592 4.401573e-21)
(0.59204674 0.13076807 -5.9812409e-22)
(0.83275253 0.14634115 -7.7239429e-21)
(-9.2006472e-05 0.00032104608 5.022699e-21)
(-0.0002855009 0.00099401841 3.4555975e-21)
(-0.00050035686 0.0017380409 -5.4243118e-21)
(-0.00073922384 0.0025611994 1.4278057e-22)
(-0.0010050071 0.0034722698 4.9032401e-21)
(-0.0013009153 0.0044806969 2.5634948e-21)
(-0.0016304661 0.0055965663 -5.4020612e-21)
(-0.0019974875 0.0068305465 8.8688171e-22)
(-0.0024061237 0.0081937915 -1.2501775e-20)
(-0.0028608303 0.0096977997 2.4359628e-21)
(-0.0033663614 0.011354214 6.2524639e-23)
(-0.0039277452 0.013174551 -8.9546178e-21)
(-0.0045502446 0.01516985 2.8683444e-20)
(-0.0052393007 0.017350208 -1.335932e-20)
(-0.0060004561 0.019724211 -2.3922585e-20)
(-0.0068392543 0.022298205 2.5476578e-20)
(-0.0077611118 0.025075423 -3.1357734e-21)
(-0.0087711613 0.028054931 1.7785176e-20)
(-0.0098740628 0.03123038 1.3195486e-20)
(-0.011073783 0.03458857 -4.1453296e-20)
(-0.012373344 0.038107839 3.1072481e-20)
(-0.013774542 0.041756294 -4.0830882e-20)
(-0.015277646 0.045489978 4.7849084e-21)
(-0.01688108 0.049251069 -1.9514741e-20)
(-0.0185811 0.052966298 4.2294569e-20)
(-0.020371487 0.056545869 -9.9948258e-21)
(-0.022243285 0.059883306 -2.5147592e-20)
(-0.024184651 0.062856882 6.0521114e-20)
(-0.026180959 0.065333712 -2.6159684e-20)
(-0.028215444 0.067178185 -2.8040002e-20)
(-0.030270825 0.068267071 2.3008118e-20)
(-0.032332315 0.068513383 3.0706467e-21)
(-0.034391685 0.067897223 -1.5104549e-20)
(-0.03645017 0.066491824 8.2061279e-21)
(-0.038516957 0.064462678 -1.2321019e-20)
(-0.040602314 0.06202608 4.2205882e-20)
(-0.042709039 0.059388006 -2.1624715e-20)
(-0.0448278 0.056703725 -1.267186e-20)
(-0.046937292 0.054073782 -2.5540315e-20)
(-0.049007006 0.051562169 -3.484038e-21)
(-0.05100061 0.049216833 2.6446238e-20)
(-0.052878415 0.047083863 -1.0676079e-20)
(-0.05460025 0.045214607 -1.5780783e-20)
(-0.056127074 0.043663113 -2.3566525e-21)
(-0.057413594 0.042469487 1.6080565e-20)
(-0.058411505 0.041646662 1.447018e-20)
(-0.059053417 0.041168706 -4.4902784e-20)
(-0.059238216 0.040937615 -2.4288651e-20)
(-0.058762944 0.040733431 -5.4005244e-20)
(-0.057287438 0.040169295 -1.9411147e-20)
(-0.054106608 0.038553738 -7.8101267e-21)
(-0.048125638 0.034794883 -5.9810493e-20)
(-0.037359621 0.026850807 -2.411878e-20)
(-0.017969389 0.011155081 8.3300727e-20)
(0.017831146 -0.018113559 -6.8948912e-20)
(0.085239955 -0.069294194 6.2185722e-20)
(0.20607264 -0.14283989 -2.8848205e-20)
(0.36984112 -0.21882858 1.1560999e-19)
(0.5243142 -0.2584575 4.1061005e-20)
(0.61640214 -0.24288882 -7.7946524e-21)
(0.64327186 -0.1761332 -2.7227314e-21)
(0.63713166 -0.084173348 3.2728382e-21)
(0.66127222 0.03208802 1.138361e-21)
(0.77552221 0.11373048 3.2395443e-22)
(0.99615274 0.11587704 9.7589927e-21)
(-0.00010629809 0.00033040489 9.1475897e-23)
(-0.00032967782 0.0010232796 -6.5118404e-21)
(-0.00057740277 0.0017895224 7.6755664e-21)
(-0.00085236475 0.0026373522 3.6930388e-21)
(-0.0011577237 0.0035756867 -7.3951069e-21)
(-0.0014969418 0.0046141267 -2.3945815e-21)
(-0.0018737857 0.0057629316 1.1609456e-20)
(-0.0022923226 0.0070329654 -1.2487767e-20)
(-0.0027569157 0.0084356066 -2.632936e-21)
(-0.0032722081 0.0099826138 -1.0466767e-20)
(-0.0038430959 0.011685936 2.7771661e-20)
(-0.0044746847 0.013557455 3.3763904e-22)
(-0.0051722295 0.015608643 -2.4884875e-20)
(-0.0059410522 0.01785012 2.6673834e-20)
(-0.0067864339 0.02029109 -1.9061374e-20)
(-0.0077134787 0.022938642 -7.0538768e-21)
(-0.0087269449 0.025796884 1.4703157e-20)
(-0.0098310417 0.0288659 -1.3232647e-20)
(-0.011029189 0.032140508 -1.7570072e-20)
(-0.012323743 0.035608813 3.7122605e-22)
(-0.013715685 0.039250565 2.7520421e-20)
(-0.015204286 0.04303533 -1.6960163e-20)
(-0.016786756 0.046920554 9.4190134e-21)
(-0.018457882 0.050849605 4.5342252e-20)
(-0.020209691 0.054749972 1.511719e-20)
(-0.022031154 0.058531877 -4.088372e-20)
(-0.023907986 0.062087734 4.0749211e-21)
(-0.025822626 0.065293086 -4.5872778e-20)
(-0.027754563 0.068010113 2.7067067e-20)
(-0.029681311 0.070095382 -1.4281112e-20)
(-0.031580515 0.07141427 2.0652355e-20)
(-0.033433622 0.071864506 5.0314802e-21)
(-0.035230832 0.071408056 -2.5012614e-20)
(-0.036974645 0.070101024 2.5507647e-20)
(-0.038678583 0.068099904 3.6979378e-20)
(-0.040359201 0.065624981 -3.4189331e-21)
(-0.042024627 0.062897071 -3.8221275e-20)
(-0.043667699 0.060089839 4.7879439e-20)
(-0.045265241 0.057319063 -1.0111778e-20)
(-0.04678087 0.05465934 2.1432457e-20)
(-0.04816852 0.052166038 -3.3359329e-21)
(-0.049374499 0.049891867 3.3381091e-20)
(-0.050339184 0.047895796 1.6126404e-20)
(-0.050995125 0.04624116 2.0622724e-20)
(-0.05125688 0.044979858 -8.4868314e-20)
(-0.051018372 0.044139324 -2.8535583e-20)
(-0.050123394 0.043706869 3.8705794e-20)
(-0.04833876 0.043595896 -3.2490829e-20)
(-0.045247358 0.04359051 -2.8010161e-20)
(-0.040168648 0.043304193 3.234473e-20)
(-0.031876429 0.042040321 1.7318191e-20)
(-0.018558718 0.038711861 4.1636699e-20)
(0.0030311944 0.031127014 2.1147581e-20)