/*--------------------------------*- C++ -*----------------------------------*\
  =========                 |
  \\      /  F ield         | OpenFOAM: The Open Source CFD Toolbox
   \\    /   O peration     | Website:  https://openfoam.org
    \\  /    A nd           | Version:  13
     \\/     M anipulation  |
\*---------------------------------------------------------------------------*/
FoamFile
{
    format      ascii;
    class       volScalarField;
    location    "10.997817";
    object      p;
}
// * * * * * * * * * * * * * * * * * * * * * * * * * * * * * * * * * * * * * //

dimensions      [0 2 -2 0 0 0 0];

internalField   nonuniform List<scalar> 
17140
(
-0.088140364
-0.088297285
-0.088486845
-0.088679272
-0.08888703
-0.08911323
-0.089357949
-0.089621555
-0.089904497
-0.090207092
-0.090529579
-0.090872257
-0.091235706
-0.09162114
-0.092030943
-0.092469446
-0.092943986
-0.093466323
-0.094054432
-0.094734757
-0.095544954
-0.09653706
-0.097781137
-0.099372408
-0.10143926
-0.10408413
-0.10727087
-0.1109846
-0.11545314
-0.12092675
-0.1275867
-0.13566427
-0.14541745
-0.15712921
-0.17111311
-0.18771384
-0.20730342
-0.23027196
-0.25701184
-0.28789307
-0.32322667
-0.36321759
-0.40791609
-0.45712909
-0.51016553
-0.56574734
-0.62272305
-0.67929616
-0.73292861
-0.78028949
-0.81827165
-0.84097266
-0.84352057
-0.82230915
-0.76992316
-0.68349342
-0.56153333
-0.40784787
-0.22639863
-0.059891936
0.071120035
0.14072379
0.16487012
0.1501701
0.1300538
-0.090699658
-0.090853281
-0.091038661
-0.091227148
-0.0914307
-0.091652337
-0.091892142
-0.092150473
-0.092427751
-0.092724261
-0.093040197
-0.093375799
-0.093731566
-0.094108604
-0.094509154
-0.094937364
-0.095400348
-0.095909597
-0.096482779
-0.097145986
-0.097936492
-0.098905934
-0.10012391
-0.10168467
-0.10371572
-0.10632582
-0.10948263
-0.11316175
-0.11758946
-0.1230213
-0.12963774
-0.13767065
-0.14737888
-0.15904647
-0.17298821
-0.18955017
-0.20910591
-0.23204724
-0.25876843
-0.28964103
-0.32497706
-0.36498323
-0.40971375
-0.45897207
-0.5120327
-0.56768294
-0.62477383
-0.68148123
-0.73529659
-0.7829535
-0.82106494
-0.84424637
-0.84728144
-0.82634472
-0.77456949
-0.68874867
-0.56746285
-0.41417618
-0.23231441
-0.065112908
0.066678423
0.13713305
0.16198383
0.14773808
0.12824999
-0.096822984
-0.096968888
-0.0971446
-0.097323939
-0.097517725
-0.09772878
-0.097957206
-0.098203335
-0.098467533
-0.098750015
-0.099050881
-0.099370242
-0.099708418
-0.10006627
-0.10044572
-0.10085051
-0.10128721
-0.10176671
-0.10230594
-0.10293015
-0.10367571
-0.10459328
-0.10575136
-0.10724197
-0.1091903
-0.11171906
-0.11480533
-0.11840697
-0.12274188
-0.12807791
-0.13459432
-0.14252417
-0.1521283
-0.1636931
-0.17753591
-0.19400577
-0.21347952
-0.23635227
-0.26302095
-0.29385976
-0.3291831
-0.36919957
-0.41396984
-0.46328024
-0.51632781
-0.5720743
-0.62932697
-0.68621433
-0.74024926
-0.78823368
-0.82665637
-0.85048228
-0.85470471
-0.83457162
-0.7835861
-0.69911069
-0.5792428
-0.4269859
-0.24441313
-0.076010467
0.057174203
0.12898513
0.15487912
0.14191219
0.12355378
-0.10639473
-0.10652856
-0.10668919
-0.10685419
-0.10703267
-0.10722714
-0.10743773
-0.10766473
-0.10790844
-0.10816896
-0.10844627
-0.10874027
-0.10905105
-0.10937909
-0.10972585
-0.11009444
-0.11049068
-0.11092448
-0.11141165
-0.11197617
-0.11265294
-0.11349112
-0.11455745
-0.11594063
-0.11776207
-0.12016443
-0.12314112
-0.12662405
-0.13081616
-0.13600312
-0.14236417
-0.15013332
-0.15957416
-0.17097659
-0.1846618
-0.2009831
-0.22032134
-0.24307552
-0.26964741
-0.3004147
-0.33569229
-0.37569183
-0.42047909
-0.46979622
-0.52278306
-0.57863968
-0.6360361
-0.693106
-0.74738615
-0.79577009
-0.83469492
-0.8593594
-0.86479562
-0.84597725
-0.79645661
-0.71386197
-0.59634389
-0.445859
-0.26272604
-0.092918851
0.041716312
0.11520655
0.14268636
0.13180965
0.11560117
-0.11912015
-0.11923775
-0.1193782
-0.1195239
-0.11968174
-0.11985386
-0.12004041
-0.12024166
-0.12045777
-0.12068876
-0.12093442
-0.12119447
-0.12146865
-0.12175705
-0.12206053
-0.12238145
-0.12272464
-0.12309881
-0.12351833
-0.1240055
-0.12459333
-0.12532884
-0.12627651
-0.12752209
-0.12918142
-0.13139866
-0.13420987
-0.13755639
-0.14157845
-0.14656014
-0.15271267
-0.16026532
-0.16948532
-0.18066665
-0.19413509
-0.21024827
-0.22939189
-0.25197046
-0.27838982
-0.3090307
-0.34420737
-0.384135
-0.42887644
-0.47809578
-0.53100373
-0.58690652
-0.64432861
-0.70149893
-0.75596467
-0.80473641
-0.84427452
-0.87001397
-0.87700736
-0.85985477
-0.8121499
-0.73176209
-0.61707864
-0.46885519
-0.28536062
-0.11427115
0.021788302
0.096767194
0.12630888
0.11850313
0.10528107
-0.13450208
-0.13459978
-0.13471555
-0.13483747
-0.13496989
-0.13511445
-0.13527136
-0.13544082
-0.13562291
-0.13581752
-0.13602428
-0.13624268
-0.13647215
-0.13671233
-0.13696346
-0.13722705
-0.13750685
-0.13781017
-0.13814966
-0.13854564
-0.13902876
-0.13964338
-0.14045104
-0.1415341
-0.14300187
-0.1449938
-0.14759818
-0.15077948
-0.15460569
-0.15934118
-0.16524266
-0.17253187
-0.18148016
-0.19238634
-0.20558104
-0.22142654
-0.24031346
-0.26265146
-0.28885071
-0.31929297
-0.35428967
-0.39405887
-0.43865786
-0.487649
-0.54040967
-0.59620369
-0.653513
-0.71065219
-0.76521477
-0.81434583
-0.85456835
-0.88152244
-0.89029704
-0.87517712
-0.82971569
-0.75181733
-0.64016368
-0.49427288
-0.31116464
-0.13902296
-0.0019507787
0.074449474
0.10654547
0.10267811
0.093308277
-0.15186628
-0.15194136
-0.15203015
-0.15212455
-0.15222743
-0.15234005
-0.15246259
-0.1525952
-0.15273785
-0.15289032
-0.1530521
-0.15322249
-0.15340064
-0.15358576
-0.15377752
-0.15397661
-0.15418565
-0.15441049
-0.15466197
-0.15495814
-0.15532701
-0.15580979
-0.15646452
-0.15736954
-0.15862685
-0.16036788
-0.16273531
-0.16573122
-0.16934065
-0.17380238
-0.17942047
-0.18641004
-0.19504522
-0.20562993
-0.21849915
-0.23401905
-0.25258553
-0.27461245
-0.30051194
-0.3306649
-0.36538008
-0.40487345
-0.44918652
-0.49779879
-0.55026709
-0.6057687
-0.66281748
-0.71976785
-0.77431434
-0.823747
-0.86468162
-0.89296238
-0.9037084
-0.89080475
-0.84779469
-0.77251983
-0.66372421
-0.51971866
-0.33734912
-0.16498367
-0.027615498
0.049857662
0.084877544
0.085632185
0.080681122
-0.17040292
-0.17045325
-0.17051308
-0.17057713
-0.17064737
-0.17072469
-0.17080923
-0.17090106
-0.17100007
-0.17110597
-0.17121815
-0.17133577
-0.17145779
-0.17158314
-0.171711
-0.17184138
-0.17197593
-0.17211915
-0.17228009
-0.17247455
-0.17272778
-0.17307766
-0.17357824
-0.1743034
-0.17534972
-0.17683937
-0.17891724
-0.18166865
-0.18508867
-0.1893032
-0.19460543
-0.20126912
-0.20955937
-0.21978541
-0.23228418
-0.24742606
-0.26561029
-0.28725246
-0.31276512
-0.34252626
-0.37683994
-0.41591293
-0.45974172
-0.50785464
-0.55988711
-0.61489006
-0.67150552
-0.72810331
-0.78251207
-0.83216154
-0.87377441
-0.90340333
-0.91617899
-0.90552767
-0.86502855
-0.79246611
-0.68605694
-0.54349312
-0.36285242
-0.19118508
-0.053914428
0.02427253
0.062456141
0.068144592
0.067847686
-0.18919406
-0.18921838
-0.18924773
-0.18927977
-0.18931554
-0.1893555
-0.18939977
-0.18944833
-0.18950106
-0.18955756
-0.18961723
-0.18967917
-0.18974226
-0.18980528
-0.18986716
-0.18992746
-0.18998708
-0.19004944
-0.19012204
-0.19021858
-0.19036161
-0.1905856
-0.19094045
-0.19149501
-0.19234023
-0.19359061
-0.19538317
-0.19785734
-0.20106705
-0.20506086
-0.21006169
-0.21638984
-0.22432346
-0.2341671
-0.24626234
-0.26098193
-0.27872628
-0.29991145
-0.32494813
-0.35420949
-0.38799426
-0.42649973
-0.469652
-0.51716068
-0.56858196
-0.62287581
-0.67887611
-0.73496241
-0.78910631
-0.83886561
-0.88105865
-0.91191234
-0.92654252
-0.91808649
-0.87990608
-0.809894
-0.70529931
-0.56373487
-0.38646657
-0.21685161
-0.07901452
-0.00083702814
0.040392114
0.050971649
0.055330939
-0.20728839
-0.20728655
-0.20728519
-0.20728491
-0.20728577
-0.20728784
-0.20729116
-0.20729569
-0.20730122
-0.20730738
-0.20731356
-0.20731893
-0.20732243
-0.20732287
-0.20731918
-0.20731074
-0.20729811
-0.20728402
-0.20727482
-0.20728253
-0.20732731
-0.20744051
-0.20766794
-0.20807335
-0.20874158
-0.20978053
-0.2113195
-0.21350129
-0.2164538
-0.22025583
-0.22502547
-0.23102508
-0.23858944
-0.24804219
-0.25971776
-0.27398597
-0.29124622
-0.31191117
-0.33638795
-0.36504541
-0.39817723
-0.43597246
-0.47830292
-0.52503986
-0.5756359
-0.62906686
-0.6842807
-0.73970509
-0.79344217
-0.84315765
-0.88575203
-0.9176281
-0.93375076
-0.9270519
-0.89091981
-0.82299793
-0.71972951
-0.57823231
-0.40243447
-0.23311694
-0.10252441
-0.024453238
0.019360077
0.03444971
0.04310319
-0.223767
-0.22374009
-0.22370924
-0.2236778
-0.22364492
-0.22361023
-0.22357375
-0.22353533
-0.22349476
-0.22345165
-0.22340549
-0.22335556
-0.22330098
-0.22324082
-0.2231742
-0.22310071
-0.22302097
-0.2229375
-0.2228561
-0.22278768
-0.22275063
-0.22277364
-0.222899
-0.2231858
-0.22371291
-0.2245813
-0.22591398
-0.22785066
-0.23053431
-0.23409173
-0.23866088
-0.24443084
-0.25167366
-0.26073292
-0.27197496
-0.28576595
-0.30249859
-0.32258112
-0.34641848
-0.37437342
-0.40673073
-0.44364589
-0.48507898
-0.53089106
-0.58043439
-0.63284808
-0.68710366
-0.74170591
-0.79486377
-0.8443223
-0.88710765
-0.91961693
-0.93674087
-0.93108385
-0.8965613
-0.83014557
-0.72772802
-0.58565188
-0.41606319
-0.24468614
-0.12565853
-0.04617602
-0.0002267365
0.018807002
0.03132521
-0.2378228
-0.23777322
-0.23771562
-0.23765581
-0.23759205
-0.23752361
-0.23745039
-0.2373722
-0.23728875
-0.23719969
-0.23710456
-0.23700284
-0.23689392
-0.23677721
-0.23665227
-0.23651918
-0.23637897
-0.23623451
-0.23609166
-0.23596094
-0.23585973
-0.23581495
-0.23586612
-0.23606848
-0.23649576
-0.23724241
-0.23842458
-0.24017811
-0.24265044
-0.24598679
-0.25033412
-0.25587355
-0.26285128
-0.27157672
-0.28240522
-0.29571115
-0.3118892
-0.33134159
-0.35446612
-0.38162191
-0.41309241
-0.44901808
-0.48944008
-0.53411535
-0.58242148
-0.63365383
-0.6867847
-0.74040124
-0.79278509
-0.84173336
-0.88434055
-0.91703687
-0.93445831
-0.92925367
-0.89564552
-0.83009405
-0.72789678
-0.586299
-0.4236965
-0.25734882
-0.14410726
-0.065430285
-0.018118122
0.0041098071
0.01995632
-0.24884412
-0.24877564
-0.24869563
-0.24861191
-0.24852196
-0.24842471
-0.24831994
-0.24820734
-0.24808657
-0.24795723
-0.24781894
-0.24767132
-0.24751401
-0.24734681
-0.24716981
-0.24698366
-0.24679012
-0.2465927
-0.24639782
-0.24621627
-0.24606523
-0.24597078
-0.2459707
-0.24611744
-0.24648079
-0.24714981
-0.24823383
-0.24986191
-0.25217947
-0.25534046
-0.2595029
-0.26484132
-0.27158
-0.27999997
-0.29044295
-0.30327548
-0.31888734
-0.33767526
-0.3600253
-0.38629267
-0.41676328
-0.45160239
-0.49081063
-0.53413109
-0.58106977
-0.63095586
-0.68279789
-0.73524345
-0.78663206
-0.83476621
-0.87680241
-0.90912429
-0.92613637
-0.92077328
-0.88736804
-0.82212182
-0.71965664
-0.5792799
-0.42096274
-0.26638907
-0.15842705
-0.0825621
-0.034321685
-0.0096118506
0.0090741524
-0.25647193
-0.25638954
-0.25629293
-0.25619131
-0.25608157
-0.25596231
-0.25583318
-0.25569374
-0.25554351
-0.25538202
-0.25520889
-0.25502377
-0.25482651
-0.25461717
-0.25439626
-0.25416502
-0.25392586
-0.25368305
-0.25344376
-0.25321935
-0.25302733
-0.25289358
-0.25285507
-0.25296265
-0.25328361
-0.25390342
-0.25492656
-0.25647603
-0.25869227
-0.26172169
-0.2657884
-0.27094811
-0.27745768
-0.28559228
-0.29566794
-0.30802392
-0.32304055
-0.34110666
-0.36260389
-0.38788366
-0.41722955
-0.45081178
-0.48863378
-0.53047871
-0.57590229
-0.62427284
-0.67464835
-0.72572784
-0.77587098
-0.82288519
-0.86397427
-0.89532115
-0.91116403
-0.90511927
-0.87144254
-0.80589781
-0.70328236
-0.56546077
-0.41495925
-0.27210992
-0.17054935
-0.097457752
-0.04885059
-0.022337986
-0.0012788637
-0.26067838
-0.26058806
-0.26048177
-0.26036949
-0.2602477
-0.26011476
-0.25997017
-0.2598133
-0.25964351
-0.25946019
-0.25926283
-0.25905103
-0.25882463
-0.25858378
-0.25832918
-0.25806235
-0.2577861
-0.25750519
-0.25722725
-0.25696411
-0.25673354
-0.25656138
-0.25648418
-0.25655188
-0.25683034
-0.25740312
-0.25837183
-0.25985536
-0.26199148
-0.2649169
-0.26871299
-0.27372239
-0.28016551
-0.28802952
-0.29773251
-0.30960135
-0.3239994
-0.34129254
-0.36185299
-0.38603016
-0.41411101
-0.44627784
-0.48255771
-0.52277005
-0.56651458
-0.61320429
-0.66193721
-0.71146024
-0.76010603
-0.8057455
-0.84543627
-0.87519815
-0.88935427
-0.88217595
-0.84794112
-0.78175403
-0.67938348
-0.5453648
-0.40427245
-0.27468913
-0.17985459
-0.11020548
-0.061773459
-0.034045012
-0.011026089
-0.26171581
-0.26162393
-0.26151503
-0.26140001
-0.26127477
-0.26113745
-0.26098738
-0.26082379
-0.26064584
-0.2604527
-0.26024366
-0.26001811
-0.2597757
-0.25951639
-0.25924073
-0.25895012
-0.25864723
-0.2583367
-0.25802597
-0.25772657
-0.25745573
-0.25723854
-0.25711044
-0.25712001
-0.25733161
-0.2578274
-0.25870779
-0.26008991
-0.26210521
-0.26489629
-0.26860922
-0.27351279
-0.27956476
-0.28715776
-0.29661472
-0.30792471
-0.32161162
-0.33804293
-0.35756119
-0.38050804
-0.40717257
-0.43775549
-0.47231466
-0.51071641
-0.55261482
-0.5974606
-0.64438885
-0.69217338
-0.73912055
-0.78310047
-0.82100115
-0.84871031
-0.86093791
-0.85259268
-0.81739582
-0.75063666
-0.64919596
-0.52418479
-0.39146658
-0.27479227
-0.18716742
-0.12099228
-0.07314435
-0.044711623
-0.020108696
-0.26016186
-0.26007424
-0.25996923
-0.25985915
-0.25973883
-0.25960624
-0.25946066
-0.25930115
-0.25912667
-0.25893619
-0.25872872
-0.25850338
-0.25825945
-0.2579965
-0.25771462
-0.25741464
-0.25709858
-0.25677025
-0.25643603
-0.25610612
-0.25579605
-0.25552878
-0.25533721
-0.25526714
-0.25538036
-0.25575719
-0.25649792
-0.25772194
-0.25956445
-0.2621706
-0.26570213
-0.27026104
-0.27605401
-0.28337447
-0.29211163
-0.30291328
-0.31595274
-0.33142123
-0.34974222
-0.37128168
-0.39633826
-0.42513698
-0.45777354
-0.49416951
-0.53404224
-0.57687725
-0.62185955
-0.66773931
-0.71287333
-0.75492496
-0.79074148
-0.81617734
-0.82665068
-0.81729987
-0.78079162
-0.7130934
-0.61394312
-0.49662037
-0.38077008
-0.27299065
-0.19235069
-0.1298892
-0.083011112
-0.054317275
-0.028476928
-0.25672016
-0.25664189
-0.25654721
-0.25644861
-0.25634039
-0.25622055
-0.2560883
-0.2559426
-0.25578229
-0.25560614
-0.25541292
-0.25520144
-0.25497057
-0.25471938
-0.25444729
-0.25415427
-0.25384125
-0.25351058
-0.25316677
-0.25281754
-0.25247524
-0.25215878
-0.25189607
-0.25172709
-0.25170731
-0.25191106
-0.25243417
-0.25339465
-0.25493046
-0.25719185
-0.26034269
-0.26452417
-0.26991726
-0.27662193
-0.2848667
-0.29497518
-0.3069143
-0.32134973
-0.33838969
-0.35837159
-0.38162787
-0.40842767
-0.43892392
-0.47311231
-0.51078186
-0.55146686
-0.59437522
-0.63827992
-0.68146394
-0.72147707
-0.75510397
-0.7785404
-0.78794301
-0.77744066
-0.7386204
-0.67077481
-0.57820955
-0.46770184
-0.36558877
-0.27062369
-0.19582586
-0.13707606
-0.091449381
-0.062859996
-0.036101336
-0.25220292
-0.25213761
-0.25205785
-0.2519753
-0.25188432
-0.25178303
-0.25167064
-0.2515461
-0.25140819
-0.25125559
-0.25108691
-0.2509007
-0.25069552
-0.25046993
-0.2502227
-0.24995291
-0.2496602
-0.24934525
-0.24901025
-0.24865982
-0.24830214
-0.24795065
-0.24762624
-0.24736011
-0.24719735
-0.24720088
-0.2474554
-0.24807019
-0.24917961
-0.25093871
-0.25351745
-0.25708204
-0.26180656
-0.2678168
-0.27533771
-0.28442533
-0.29552942
-0.30864033
-0.32396212
-0.34208041
-0.36327241
-0.38782443
-0.41594364
-0.44771118
-0.48301434
-0.52144003
-0.56222811
-0.60414998
-0.6453662
-0.68341549
-0.71525657
-0.73756161
-0.74641719
-0.7344113
-0.69286817
-0.62674163
-0.53866525
-0.44420276
-0.35073513
-0.2664967
-0.19753978
-0.14262109
-0.098505036
-0.070337837
-0.042959486
-0.24730621
-0.2472553
-0.24719325
-0.24712881
-0.24705745
-0.24697757
-0.24688845
-0.24678908
-0.24667827
-0.24655475
-0.24641708
-0.24626374
-0.2460931
-0.24590343
-0.24569304
-0.24546028
-0.24520379
-0.24492273
-0.24461719
-0.24428876
-0.24394147
-0.24358298
-0.2432264
-0.24289266
-0.24261368
-0.2424363
-0.24242677
-0.24267535
-0.24329975
-0.24444555
-0.24628273
-0.24899346
-0.25276774
-0.25776715
-0.2641962
-0.2721183
-0.28169583
-0.29305297
-0.30665224
-0.32273134
-0.34159906
-0.36365325
-0.38916398
-0.41834156
-0.45117802
-0.4873079
-0.52605038
-0.56605763
-0.60552182
-0.64214588
-0.67316999
-0.69500794
-0.70281027
-0.68549458
-0.64386101
-0.58049248
-0.50323042
-0.41867808
-0.33671938
-0.26148224
-0.19790651
-0.14670693
-0.10426713
-0.076778574
-0.049046596
-0.24262005
-0.24258383
-0.24254074
-0.24249405
-0.24244199
-0.24238349
-0.24231781
-0.24224406
-0.24216119
-0.24206804
-0.2419633
-0.24184549
-0.24171299
-0.24156402
-0.24139667
-0.24120893
-0.24099883
-0.2407645
-0.24050449
-0.24021811
-0.23990598
-0.23957091
-0.23921907
-0.23886169
-0.23851747
-0.23821565
-0.23799999
-0.23793344
-0.23810305
-0.23862402
-0.23964133
-0.24132527
-0.24386495
-0.24744305
-0.25225051
-0.25841702
-0.26614237
-0.27564702
-0.28710739
-0.30077482
-0.31708417
-0.336416
-0.35915093
-0.38563228
-0.4159747
-0.4499382
-0.48678758
-0.52520659
-0.56361742
-0.59995837
-0.63102649
-0.65219012
-0.65763463
-0.63665265
-0.59698333
-0.53399658
-0.46955213
-0.39496873
-0.32251645
-0.2552897
-0.19692742
-0.14941068
-0.10879742
-0.082200684
-0.054363034
-0.23844154
-0.2384176
-0.23838881
-0.23835744
-0.23832226
-0.23828247
-0.23823749
-0.23818659
-0.23812893
-0.23806356
-0.23798935
-0.23790505
-0.23780923
-0.23770025
-0.23757634
-0.23743551
-0.23727566
-0.23709462
-0.23689025
-0.23666069
-0.23640463
-0.23612178
-0.23581353
-0.23548398
-0.23514128
-0.23479962
-0.2344819
-0.23422315
-0.23407452
-0.23410779
-0.23442004
-0.23513646
-0.23640906
-0.23841425
-0.24134862
-0.24539988
-0.2507714
-0.25768332
-0.26636521
-0.27715504
-0.29047729
-0.30680814
-0.32664033
-0.35042665
-0.37844975
-0.41045078
-0.44589032
-0.48347676
-0.52217252
-0.5592957
-0.5901048
-0.60886452
-0.60925285
-0.58644308
-0.5455998
-0.49630771
-0.43695017
-0.37231072
-0.30843671
-0.24835748
-0.19486307
-0.15089047
-0.11217972
-0.086641436
-0.058918811
-0.23501199
-0.23499707
-0.23497907
-0.23495934
-0.23493709
-0.23491177
-0.23488294
-0.23485009
-0.23481259
-0.23476972
-0.23472063
-0.23466435
-0.23459975
-0.23452554
-0.23444035
-0.23434253
-0.23423013
-0.23410091
-0.23395254
-0.23378272
-0.23358938
-0.23337096
-0.23312667
-0.23285681
-0.23256316
-0.23224966
-0.2319234
-0.23159711
-0.23129016
-0.23103109
-0.23086102
-0.23084092
-0.23105184
-0.23159269
-0.2326169
-0.23430499
-0.23689088
-0.24066594
-0.24598591
-0.25328908
-0.26310459
-0.27608863
-0.2928291
-0.31393487
-0.33986453
-0.37049442
-0.40529358
-0.44384703
-0.48399524
-0.52172086
-0.54930496
-0.56261624
-0.55550846
-0.53944507
-0.49819685
-0.45737851
-0.40704255
-0.35094524
-0.29436258
-0.24068589
-0.1917803
-0.15123214
-0.11449254
-0.090144519
-0.062723959
-0.23213813
-0.23212947
-0.23211899
-0.23210747
-0.23209441
-0.23207949
-0.23206242
-0.23204287
-0.23202043
-0.23199461
-0.23196486
-0.23193067
-0.23189118
-0.23184334
-0.23178634
-0.23172139
-0.23164622
-0.23155858
-0.23145775
-0.23134408
-0.23121777
-0.23107835
-0.23092517
-0.23075401
-0.23055779
-0.23032869
-0.23006823
-0.22978186
-0.22946616
-0.22911535
-0.22873735
-0.22831451
-0.22781362
-0.22727888
-0.22677421
-0.2263664
-0.2262526
-0.22675179
-0.22833555
-0.23163756
-0.23743118
-0.24659971
-0.26005581
-0.27881421
-0.30311695
-0.33329921
-0.37054675
-0.41086223
-0.4512272
-0.48495118
-0.50721823
-0.5132245
-0.51114938
-0.48915782
-0.46143979
-0.42440132
-0.37976286
-0.33059445
-0.28045479
-0.23250941
-0.18786045
-0.15057261
-0.11582897
-0.09276014
-0.065799885
-0.22979584
-0.22979239
-0.22978821
-0.22978358
-0.22977829
-0.2297722
-0.22976517
-0.229757
-0.22974745
-0.22973634
-0.22972379
-0.22970909
-0.22968485
-0.22965249
-0.22963213
-0.22962977
-0.22962837
-0.22961045
-0.22956795
-0.22949901
-0.22941246
-0.22932198
-0.22922648
-0.2291205
-0.22900356
-0.22886941
-0.22870755
-0.22850623
-0.22824968
-0.22791566
-0.227472
-0.22685248
-0.22599725
-0.22487697
-0.22337891
-0.22147137
-0.21926694
-0.21703108
-0.21529702
-0.21487787
-0.21686873
-0.22255064
-0.23288842
-0.24925904
-0.27376111
-0.30624143
-0.34416882
-0.38241596
-0.41915941
-0.44735248
-0.46558464
-0.47043162
-0.46612937
-0.45033202
-0.42474492
-0.39258525
-0.35404628
-0.31114069
-0.26669878
-0.22389097
-0.18319461
-0.14900364
-0.11625843
-0.094537199
-0.068176377
-0.2275382
-0.2275408
-0.22754385
-0.22754707
-0.22755062
-0.22755454
-0.22755784
-0.22756007
-0.22756221
-0.22756473
-0.22756739
-0.22756996
-0.22757236
-0.22757632
-0.22758146
-0.22758731
-0.22759627
-0.22759928
-0.22759052
-0.22757493
-0.22754098
-0.22749042
-0.22744845
-0.22741674
-0.22738205
-0.22734392
-0.22729189
-0.22719797
-0.22702964
-0.22675468
-0.226355
-0.22575809
-0.22482676
-0.2234574
-0.22154703
-0.21897176
-0.21566827
-0.2117944
-0.2078588
-0.20476873
-0.20375167
-0.20622351
-0.21463405
-0.23211717
-0.25661884
-0.2869094
-0.32114329
-0.35664837
-0.38674561
-0.41314708
-0.42558692
-0.43271043
-0.42489068
-0.41272814
-0.39193993
-0.364138
-0.33029755
-0.29263395
-0.25318208
-0.21496048
-0.17790635
-0.14663696
-0.11586853
-0.09552995
-0.069881607
-0.22541358
-0.22542608
-0.22544081
-0.225456
-0.22547225
-0.22549622
-0.22552987
-0.2255594
-0.2255784
-0.22559328
-0.22560803
-0.2256241
-0.22564179
-0.22566094
-0.22568316
-0.22571391
-0.22575699
-0.22581083
-0.2258755
-0.22594267
-0.22599439
-0.22602722
-0.22604899
-0.22607824
-0.22611204
-0.2261042
-0.22604577
-0.22596505
-0.22583862
-0.22559736
-0.22518274
-0.2245373
-0.22357096
-0.22215629
-0.22002121
-0.21706485
-0.2132406
-0.20869234
-0.20396761
-0.19977918
-0.19797004
-0.20055202
-0.20871986
-0.2235366
-0.24447643
-0.27248732
-0.30307043
-0.3318876
-0.35895555
-0.37973415
-0.39180381
-0.39338936
-0.39076484
-0.38031236
-0.36192493
-0.33754827
-0.30795316
-0.27492884
-0.23989622
-0.20578274
-0.17208269
-0.14355875
-0.11472811
-0.095790444
-0.07094832
-0.22325993
-0.22328396
-0.22331222
-0.22334209
-0.22337442
-0.2234096
-0.22344875
-0.22349243
-0.22353963
-0.22358987
-0.22364326
-0.22369973
-0.22375907
-0.22382098
-0.22388509
-0.223951
-0.22401781
-0.22408412
-0.2241487
-0.22421085
-0.22426697
-0.22429821
-0.22429928
-0.22431777
-0.22437723
-0.22441786
-0.22438893
-0.22429782
-0.22415691
-0.22395555
-0.22364569
-0.22311313
-0.22218103
-0.22073415
-0.21889102
-0.21656142
-0.21330972
-0.20929055
-0.20497218
-0.20135517
-0.1994514
-0.20048991
-0.20682258
-0.21941502
-0.23822264
-0.26196132
-0.28718758
-0.31083929
-0.33350512
-0.34901787
-0.35908281
-0.36281873
-0.35956455
-0.35008316
-0.33430499
-0.31308315
-0.28708957
-0.25803863
-0.22688443
-0.19643718
-0.16581208
-0.13985704
-0.11291106
-0.095372626
-0.071410759
-0.22285164
-0.2228788
-0.22291077
-0.22294455
-0.22298118
-0.22302111
-0.22306445
-0.22311128
-0.22316168
-0.22321569
-0.22327329
-0.22333437
-0.22339877
-0.22346621
-0.2235363
-0.22360846
-0.22368206
-0.2237563
-0.22383012
-0.2239022
-0.22397091
-0.22403453
-0.22409165
-0.22414065
-0.2241785
-0.22419836
-0.22419336
-0.22415637
-0.22405323
-0.22384427
-0.22354274
-0.22310773
-0.22244852
-0.22156446
-0.22023084
-0.21824824
-0.21566001
-0.21257034
-0.20902853
-0.20553566
-0.20337835
-0.20403257
-0.20903203
-0.21930898
-0.23472087
-0.25400324
-0.27239251
-0.29231577
-0.31077411
-0.32337427
-0.33167177
-0.33398582
-0.33122654
-0.32296873
-0.30904678
-0.2903593
-0.26746054
-0.2418704
-0.21414115
-0.18697421
-0.15916576
-0.13560723
-0.11048234
-0.094328353
-0.071302652
-0.22366166
-0.22368375
-0.22370975
-0.22373727
-0.22376716
-0.22379981
-0.22383532
-0.22387381
-0.22391538
-0.2239601
-0.22400799
-0.22405901
-0.22411297
-0.22416975
-0.22423033
-0.22429374
-0.22435749
-0.22442159
-0.22448616
-0.22455041
-0.22461348
-0.22467458
-0.22473302
-0.22478838
-0.2248408
-0.22488807
-0.2249061
-0.22490842
-0.22491399
-0.22492902
-0.22493175
-0.22472984
-0.22424123
-0.22360073
-0.22275042
-0.22142754
-0.21948796
-0.21689485
-0.21383016
-0.21079057
-0.20868611
-0.20876558
-0.21245417
-0.22038626
-0.2326519
-0.24567823
-0.26092076
-0.27802761
-0.29065575
-0.30041143
-0.30669868
-0.30852264
-0.30566896
-0.2980515
-0.28569891
-0.26922523
-0.24898885
-0.22639372
-0.20167954
-0.1774417
-0.1522071
-0.13087825
-0.10750428
-0.092709007
-0.070658338
-0.22595294
-0.22596531
-0.22597991
-0.22599541
-0.22601228
-0.22603076
-0.22605094
-0.22607288
-0.22609668
-0.22612243
-0.22615009
-0.22617924
-0.22621028
-0.22625043
-0.22629588
-0.2263288
-0.22635632
-0.22639276
-0.22643345
-0.22647404
-0.22651435
-0.22655421
-0.22659656
-0.22664476
-0.22670636
-0.22676771
-0.22683942
-0.22693757
-0.22696847
-0.22690328
-0.22684561
-0.22676655
-0.22654162
-0.22610554
-0.22536362
-0.22421049
-0.22258221
-0.22045114
-0.21788608
-0.2152459
-0.21329234
-0.21314756
-0.2157191
-0.22153477
-0.23009977
-0.24021442
-0.25248865
-0.2630664
-0.27269338
-0.28009608
-0.2845662
-0.28534356
-0.28229224
-0.27525988
-0.26415348
-0.249505
-0.23154102
-0.2115454
-0.18949136
-0.16787339
-0.14499025
-0.12573126
-0.10403298
-0.09056324
-0.069512792
-0.2285803
-0.22858468
-0.22858985
-0.22859534
-0.22860132
-0.22860789
-0.22861504
-0.22862281
-0.22863122
-0.22864025
-0.22864988
-0.22866007
-0.22867079
-0.22868189
-0.2286922
-0.22870187
-0.22871217
-0.22872234
-0.22873133
-0.2287384
-0.22874313
-0.22875078
-0.22876093
-0.2287599
-0.22875858
-0.22874472
-0.22869389
-0.22865374
-0.22863832
-0.22858695
-0.22847677
-0.22829843
-0.22800905
-0.22757621
-0.22694193
-0.22602357
-0.22473056
-0.22299104
-0.22084451
-0.21859247
-0.21685567
-0.21650514
-0.2180739
-0.22230091
-0.22749936
-0.23421962
-0.24228617
-0.24997022
-0.25669756
-0.26169125
-0.26441562
-0.26426478
-0.26091622
-0.25423208
-0.24412089
-0.23102148
-0.21501204
-0.19727613
-0.17757077
-0.15829603
-0.13755959
-0.12021968
-0.1001205
-0.087938487
-0.06789983
-0.2314017
-0.23140295
-0.23140436
-0.23140574
-0.23140712
-0.23140846
-0.2314097
-0.23141075
-0.23141152
-0.23141185
-0.23141154
-0.23141035
-0.23140795
-0.23140392
-0.23139772
-0.23138859
-0.23137576
-0.23135827
-0.23133496
-0.23130434
-0.231265
-0.23121689
-0.23115532
-0.23107383
-0.23096667
-0.23084358
-0.23070908
-0.23055034
-0.23036501
-0.23014285
-0.22988125
-0.22958482
-0.22923023
-0.22878582
-0.22820713
-0.22741336
-0.22629338
-0.22475295
-0.22282642
-0.22077377
-0.21908737
-0.21840232
-0.21914174
-0.22087387
-0.22376759
-0.22841569
-0.23311553
-0.23778638
-0.2419286
-0.24485657
-0.24601535
-0.24489451
-0.24117971
-0.23474338
-0.22543446
-0.21363177
-0.19929853
-0.18353038
-0.16590288
-0.14872748
-0.12995247
-0.11438983
-0.095812885
-0.084878168
-0.065855298
-0.23444567
-0.23444664
-0.23444761
-0.23444837
-0.23444886
-0.23444897
-0.23444856
-0.23444742
-0.2344453
-0.23444188
-0.23443676
-0.23442942
-0.2344192
-0.23440531
-0.23438674
-0.23436225
-0.23433035
-0.23428922
-0.23423672
-0.23417034
-0.23408726
-0.23398431
-0.23385673
-0.23370146
-0.23351573
-0.23329573
-0.23303917
-0.23274335
-0.23241224
-0.23205554
-0.23167289
-0.23126151
-0.23081951
-0.23032335
-0.2297132
-0.22888521
-0.22770503
-0.22609567
-0.22411208
-0.22193775
-0.22000606
-0.21888031
-0.21824501
-0.21873013
-0.21984936
-0.22150589
-0.22377623
-0.22614844
-0.22812949
-0.22921587
-0.2289525
-0.22693593
-0.22284129
-0.21655171
-0.20788832
-0.19718498
-0.18430046
-0.17025355
-0.15447043
-0.13917948
-0.12219892
-0.10828153
-0.09115298
-0.081424084
-0.063412918
-0.23840376
-0.23840383
-0.23840361
-0.23840293
-0.23840162
-0.23839949
-0.23839629
-0.2383917
-0.23838531
-0.23837661
-0.23836497
-0.23834961
-0.23832955
-0.23830358
-0.23827026
-0.23822779
-0.23817406
-0.23810652
-0.23802221
-0.23791771
-0.23778915
-0.23763231
-0.23744269
-0.23721586
-0.2369474
-0.23663404
-0.23627546
-0.23587474
-0.23543405
-0.23495787
-0.2344552
-0.23392884
-0.23336564
-0.23272051
-0.23190443
-0.23079745
-0.22927987
-0.22735006
-0.22501904
-0.22253511
-0.2204072
-0.2183076
-0.21639276
-0.21488916
-0.21443763
-0.21433729
-0.21458988
-0.21492052
-0.21501065
-0.21448682
-0.21296572
-0.2101197
-0.20564641
-0.19944877
-0.19131739
-0.18155161
-0.16992525
-0.15739111
-0.14325193
-0.12965712
-0.11432243
-0.10192719
-0.086177238
-0.077610424
-0.060603333
-0.2437295
-0.24372603
-0.24372152
-0.24371609
-0.24370938
-0.24370105
-0.24369073
-0.24367795
-0.24366213
-0.24364255
-0.24361834
-0.24358843
-0.24355153
-0.24350604
-0.2434501
-0.24338143
-0.24329736
-0.24319479
-0.24307012
-0.24291929
-0.24273782
-0.24252082
-0.24226332
-0.241961
-0.24161065
-0.24121004
-0.2407582
-0.24025691
-0.23971125
-0.239126
-0.23850106
-0.23782173
-0.23704565
-0.23609392
-0.2348579
-0.23323146
-0.23116121
-0.22868409
-0.22578721
-0.22298487
-0.21991631
-0.21652237
-0.2136487
-0.21086412
-0.20868502
-0.20682669
-0.20527711
-0.20386451
-0.20233651
-0.20041314
-0.19778665
-0.19420118
-0.18937853
-0.18324042
-0.17555756
-0.16660418
-0.1560829
-0.14488855
-0.13222367
-0.12016128
-0.1063417
-0.095353547
-0.080919079
-0.073461103
-0.057470207
-0.2508962
-0.25088634
-0.25087417
-0.25086038
-0.25084431
-0.2508254
-0.25080312
-0.2507768
-0.25074565
-0.25070872
-0.25066485
-0.25061264
-0.25055045
-0.25047628
-0.25038782
-0.25028232
-0.2501566
-0.25000702
-0.24982947
-0.24961952
-0.24937257
-0.24908396
-0.24874924
-0.24836417
-0.24792553
-0.24743186
-0.24688322
-0.24628029
-0.24562209
-0.24490066
-0.24409256
-0.24314885
-0.2419879
-0.24050601
-0.23859978
-0.23620818
-0.23333101
-0.22999092
-0.22654223
-0.22269503
-0.21819229
-0.2139699
-0.20979414
-0.2058148
-0.20218574
-0.19884631
-0.19576692
-0.19284731
-0.18991823
-0.18678345
-0.18319911
-0.17896745
-0.17383731
-0.16775051
-0.16046211
-0.15222649
-0.14268846
-0.13269188
-0.12135956
-0.11068837
-0.09827089
-0.088584216
-0.075411499
-0.069026127
-0.054014568
-0.2603157
-0.26029666
-0.26027348
-0.2602478
-0.26021846
-0.26018469
-0.26014578
-0.26010082
-0.26004871
-0.25998825
-0.25991797
-0.25983611
-0.25974062
-0.25962908
-0.25949882
-0.25934677
-0.2591694
-0.25896279
-0.25872269
-0.25844454
-0.25812358
-0.25775522
-0.25733523
-0.25685996
-0.25632626
-0.25573109
-0.25507004
-0.25433424
-0.25350502
-0.25254628
-0.25139711
-0.24996888
-0.24815337
-0.24585531
-0.24299954
-0.23958171
-0.23563952
-0.2313981
-0.22679033
-0.221376
-0.21603963
-0.21069846
-0.20534559
-0.20012078
-0.19513759
-0.19041624
-0.1859591
-0.18171669
-0.17757688
-0.17340264
-0.16900166