/*--------------------------------*- C++ -*----------------------------------*\
  =========                 |
  \\      /  F ield         | OpenFOAM: The Open Source CFD Toolbox
   \\    /   O peration     | Website:  https://openfoam.org
    \\  /    A nd           | Version:  13
     \\/     M anipulation  |
\*---------------------------------------------------------------------------*/
FoamFile
{
    format      ascii;
    class       volScalarField;
    location    "0.0055";
    object      mag(U);
}
// * * * * * * * * * * * * * * * * * * * * * * * * * * * * * * * * * * * * * //

dimensions      [0 1 -1 0 0 0 0];

internalField   nonuniform List<scalar> 
1000
(
2.91746e-13
3.50095e-13
6.56428e-13
5.83492e-13
6.12666e-13
5.68905e-13
6.12666e-13
3.7927e-13
5.25143e-13
3.06333e-13
6.27254e-13
3.20921e-13
5.3973e-13
2.77159e-13
5.68905e-13
2.04222e-13
4.66793e-13
2.77159e-13
1.75048e-13
1.89635e-13
2.62571e-13
5.83492e-14
2.33397e-13
5.83492e-14
8.75238e-14
5.83492e-14
1.16698e-13
5.83492e-14
2.91746e-14
2.91746e-13
5.83492e-14
6.27254e-13
3.50095e-13
7.14777e-13
1.89635e-13
5.54317e-13
1.6046e-13
1.45873e-14
3.50095e-13
4.23032e-13
4.95968e-13
4.66793e-13
6.56428e-13
8.46063e-13
9.77349e-13
7.58539e-13
1.29827e-12
8.46063e-13
1.06487e-12
9.19e-13
1.09405e-12
9.91936e-13
1.56084e-12
1.1524e-12
1.13781e-12
1.32744e-12
9.77349e-13
7.73127e-13
6.71016e-13
6.41841e-13
7.43952e-13
3.50095e-13
5.68905e-13
1.6046e-13
4.08444e-13
5.83492e-14
2.04222e-13
5.83492e-14
2.91746e-13
1.02111e-13
1.31286e-13
1.89635e-13
7.29365e-14
4.37619e-14
1.16698e-13
7.29365e-14
1.45873e-14
1.45873e-14
1.02111e-13
1.45873e-14
1.75048e-13
5.83492e-14
1.75048e-13
1.16698e-13
8.75238e-14
2.62571e-13
1.45873e-14
1.31286e-13
1.45873e-14
1.89635e-13
1.02111e-13
2.77159e-13
1.45873e-13
2.18809e-13
1.89635e-13
1.02111e-13
2.62571e-13
1.16698e-13
7.29365e-14
1.45873e-14
8.75238e-14
1.45873e-14
8.75238e-14
1.45873e-13
7.29365e-14
1.45873e-14
2.33397e-13
1.6046e-13
4.37619e-14
1.16698e-13
1.75048e-13
8.75238e-14
1.31286e-13
2.91746e-14
1.02111e-13
1.45873e-14
1.75048e-13
1.16698e-13
8.75238e-14
3.20921e-13
1.45873e-14
4.23032e-13
2.91746e-14
4.23032e-13
7.29365e-14
1.75048e-13
8.75238e-14
5.83492e-14
6.27133e-27
1.89635e-13
1.75048e-13
1.45873e-14
1.02111e-13
2.91746e-13
2.18809e-13
2.62571e-13
1.02111e-13
3.7927e-13
2.33397e-13
5.10555e-13
5.10555e-13
5.68905e-13
7.43952e-13
4.23032e-13
8.16889e-13
3.35508e-13
5.98079e-13
3.50095e-13
7.14777e-13
5.3973e-13
6.41841e-13
7.14777e-13
6.71016e-13
5.68905e-13
5.83492e-13
5.68905e-13
6.12666e-13
6.27254e-13
8.75238e-13
4.95968e-13
5.10555e-13
6.85603e-13
4.95968e-13
7.29365e-13
5.68905e-13
6.12666e-13
4.23032e-13
7.29365e-13
3.20921e-13
8.75238e-13
3.7927e-13
9.19e-13
4.23032e-13
8.6065e-13
4.37619e-13
7.73127e-13
5.68905e-13
6.27254e-13
6.12666e-13
5.68905e-13
5.25143e-13
7.14777e-13
9.48174e-13
9.04412e-13
8.6065e-13
7.87714e-13
7.29365e-13
8.46063e-13
5.25143e-13
8.02301e-13
5.3973e-13
6.27254e-13
6.71016e-13
7.0019e-13
9.48174e-13
7.0019e-13
9.33587e-13
5.3973e-13
9.91936e-13
7.0019e-13
1.00652e-12
6.71016e-13
8.46063e-13
3.93857e-13
7.73127e-13
6.12666e-13
5.83492e-13
5.10555e-13
7.0019e-13
5.10555e-13
1.1524e-12
1.28368e-12
2.74241e-12
4.02609e-12
7.54163e-12
1.2866e-11
2.26687e-11
3.97796e-11
7.03691e-11
1.24065e-10
2.18386e-10
3.83412e-10
6.70184e-10
1.16643e-09
2.02062e-09
3.4835e-09
5.97644e-09
1.02013e-08
1.73264e-08
2.92766e-08
4.92162e-08
8.23064e-08
1.36923e-07
2.26576e-07
3.72927e-07
6.10498e-07
9.93966e-07
1.60939e-06
2.59138e-06
4.14911e-06
6.60552e-06
1.04559e-05
1.64549e-05
2.57441e-05
4.00391e-05
6.18992e-05
9.51156e-05
0.000145263
0.000220479
0.000332548
0.00049841
0.00074222
0.00109814
0.00161411
0.00235677
0.00341807
0.00492364
0.00704362
0.0100063
0.0141149
0.0197685
0.0274865
0.037938
0.0519752
0.0706715
0.0953621
0.127687
0.169636
0.223585
0.292335
0.379129
0.487666
0.62208
0.786896
0.986957
1.2273
1.513
1.84895
2.23962
2.68872
3.19904
3.7722
4.40861
5.10739
5.86646
6.68262
7.55181
8.46931
9.43004
10.4288
11.4606
12.5208
13.6049
14.7094
15.831
16.9672
18.1157
19.2749
20.4434
21.6203
22.8048
23.9963
25.1942
26.3983
27.6083
28.8239
30.0449
31.2712
32.5025
33.7387
34.9797
36.2254
37.4755
38.7301
39.9889
41.2518
42.5188
43.7897
45.0644
46.3428
47.6248
48.9103
50.1992
51.4915
52.7871
54.0858
55.3875
56.6923
58
59.3106
60.624
61.9401
63.2588
64.5801
65.904
67.2303
68.559
69.89
71.2233
72.5589
73.8966
75.2364
76.5783
77.9222
79.268
80.6158
81.9654
83.3168
84.67
86.0248
87.3814
88.7396
90.0993
91.4606
92.8233
94.1875
95.5532
96.9201
98.2884
99.658
101.029
102.401
103.774
105.148
106.524
107.9
109.277
110.656
112.035
113.415
114.796
116.178
117.561
118.944
120.328
121.713
123.098
124.484
125.871
127.258
128.645
130.033
131.422
132.811
134.2
135.589
136.979
138.369
139.759
141.149
142.54
143.93
145.321
146.712
148.102
149.493
150.883
152.273
153.663
155.053
156.442
157.832
159.22
160.609
161.997
163.384
164.771
166.157
167.543
168.928
170.312
171.696
173.078
174.46
175.841
177.22
178.599
179.976
181.353
182.728
184.101
185.473
186.844
188.214
189.581
190.947
192.312
193.674
195.034
196.393
197.749
199.104
200.456
201.805
203.153
204.497
205.839
207.178
208.515
209.848
211.178
212.506
213.829
215.15
216.466
217.779
219.088
220.393
221.694
222.991
224.283
225.57
226.853
228.13
229.403
230.67
231.932
233.187
234.437
235.681
236.918
238.149
239.373
240.59
241.8
243.002
244.196
245.383
246.561
247.73
248.891
250.042
251.184
252.317
253.439
254.551
255.652
256.742
257.821
258.889
259.944
260.987
262.018
263.035
264.04
265.03
266.006
266.969
267.916
268.848
269.765
270.666
271.551
272.42
273.272
274.107
274.925
275.725
276.507
277.271
278.016
278.743
279.451
280.14
280.81
281.46
282.091
282.703
283.294
283.866
284.419
284.951
285.464
285.957
286.431
286.886
287.321
287.737
288.134
288.513
288.874
289.217
289.542
289.851
290.142
290.417
290.676
290.92
291.148
291.363
291.563
291.75
291.924
292.086
292.236
292.374
292.502
292.62
292.728
292.827
292.918
293.001
293.076
293.144
293.205
293.261
293.311
293.355
293.395
293.43
293.462
293.489
293.513
293.535
293.553
293.569
293.582
293.594
293.604
293.612
293.619
293.624
293.629
293.632
293.635
293.636
293.638
293.638
293.638
293.638
293.638
293.637
293.636
293.634
293.633
293.632
293.63
293.628
293.627
293.625
293.623
293.622
293.62
293.619
293.617
293.615
293.614
293.613
293.611
293.61
293.609
293.607
293.606
293.605
293.604
293.603
293.602
293.602
293.601
293.6
293.6
293.599
293.599
293.598
293.598
293.598
293.598
293.598
293.598
293.599
293.599
293.6
293.601
293.603
293.604
293.607
293.609
293.613
293.617
293.622
293.628
293.634
293.643
293.652
293.663
293.676
293.692
293.709
293.728
293.751
293.776
293.804
293.836
293.871
293.909
293.951
293.997
294.046
294.099
294.156
294.216
294.279
294.345
294.414
294.484
294.557
294.63
294.705
294.779
294.852
294.924
294.993
295.06
295.123
295.181
295.234
295.282
295.322
295.356
295.382
295.4
295.409
295.41
295.402
295.386
295.361
295.328
295.287
295.239
295.184
295.124
295.058
294.988
294.914
294.838
294.76
294.682
294.603
294.525
294.449
294.374
294.303
294.234
294.169
294.107
294.05
293.997
293.947
293.902
293.861
293.823
293.79
293.76
293.733
293.709
293.689
293.67
293.655
293.641
293.629
293.62
293.611
293.604
293.599
293.594
293.59
293.587
293.585
293.583
293.582
293.581
293.58
293.58
293.58
293.58
293.58
293.581
293.581
293.582
293.582
293.583
293.584
293.585
293.586
293.587
293.588
293.588
293.589
293.59
293.591
293.592
293.593
293.594
293.595
293.596
293.597
293.598
293.599
293.6
293.601
293.602
293.603
293.604
293.605
293.606
293.607
293.608
293.608
293.609
293.61
293.61
293.611
293.611
293.611
293.611
293.61
293.609
293.608
293.606
293.604
293.601
293.597
293.592
293.586
293.579
293.57
293.559
293.546
293.53
293.51
293.487
293.459
293.426
293.386
293.339
293.282
293.214
293.134
293.039
292.925
292.79
292.63
292.44
292.214
291.947
291.629
291.251
290.803
290.271
289.639
288.887
287.992
286.925
285.654
284.136
282.319
280.141
277.524
274.368
270.55
265.91
260.241
253.268
244.621
233.784
220.005
202.134
178.362
146.183
104.176
58.2794
23.8139
7.47556
2.02542
0.514376
0.127761
0.0315427
0.00777629
0.00191647
0.000472276
0.000116381
2.86789e-05
7.06707e-06
1.74146e-06
4.29126e-07
1.05744e-07
2.60568e-08
6.42126e-09
1.58258e-09
3.90517e-10
9.67723e-11
2.43754e-11
6.43301e-12
2.24645e-12
8.89826e-13
9.04414e-13
5.39731e-13
7.14779e-13
7.43953e-13
5.9808e-13
7.87715e-13
6.12667e-13
9.7735e-13
4.95969e-13
1.32745e-12
7.29366e-13
1.22533e-12
5.68905e-13
9.19001e-13
1.45873e-13
9.19001e-13
4.66794e-13
9.19001e-13
4.66794e-13
8.60652e-13
3.06334e-13
6.71017e-13
4.66794e-13
7.00191e-13
5.9808e-13
6.85604e-13
6.56429e-13
4.3762e-13
5.39731e-13
4.66794e-13
4.66794e-13
4.08445e-13
8.75239e-14
5.83493e-14
1.45873e-13
1.6046e-13
7.29366e-14
4.23032e-13
1.31286e-13
4.3762e-13
4.56309e-26
2.91746e-13
5.83493e-14
3.06334e-13
4.3762e-14
2.77159e-13
5.83493e-14
2.33397e-13
2.91746e-14
1.89635e-13
4.3762e-14
8.75239e-14
1.02111e-13
2.91746e-14
5.83493e-14
1.89635e-13
1.45873e-13
2.04222e-13
1.45873e-14
3.20921e-13
2.62572e-13
5.83493e-14
2.04222e-13
1.45873e-14
3.93858e-13
4.3762e-14
2.33397e-13
1.16699e-13
1.45873e-13
1.45873e-13
1.16699e-13
2.04222e-13
5.83493e-14
4.23032e-13
5.83493e-14
4.23032e-13
1.02111e-13
2.91746e-13
1.75048e-13
2.00812e-26
2.59964e-26
2.33397e-13
5.83493e-14
2.91746e-14
1.45873e-14
8.75239e-14
2.91746e-13
3.79095e-26
5.95386e-27
2.33397e-13
1.89635e-13
1.02111e-13
2.91746e-14
1.45873e-14
2.47984e-13
2.47984e-13
4.95969e-13
2.91746e-13
1.45873e-13
2.33397e-13
1.26376e-26
7.29366e-14
1.16699e-13
2.47984e-13
8.75239e-14
1.02111e-13
2.62572e-13
2.62572e-13
1.75048e-13
5.83493e-13
2.33397e-13
5.25143e-13
2.1881e-13
1.6046e-13
3.06334e-13
7.29366e-14
1.6046e-13
4.3762e-14
2.47984e-13
1.75048e-13
2.62572e-13
4.52207e-13
3.35508e-13
4.08445e-13
2.91746e-14
2.77159e-13
1.31286e-13
2.77159e-13
1.1956e-26
2.04222e-13
5.83493e-14
1.6046e-13
8.75239e-14
2.62572e-13
1.89635e-13
5.68905e-13
4.81381e-13
4.23032e-13
3.64683e-13
5.54318e-13
2.1881e-13
4.95969e-13
1.02111e-13
7.14779e-13
4.08445e-13
6.27255e-13
5.83493e-13
5.9808e-13
5.25143e-13
2.33397e-13
3.64683e-13
1.31286e-13
3.93858e-13
4.08445e-13
5.9808e-13
4.08445e-13
3.93858e-13
4.81381e-13
4.3762e-13
4.23032e-13
4.66794e-13
6.56429e-13
5.39731e-13
7.5854e-13
7.43953e-13
)
;

boundaryField
{
    sides
    {
        type            calculated;
        value           nonuniform List<scalar> 2(7.43953e-13 2.91746e-13);
    }
    empty
    {
        type            empty;
    }
}


// ************************************************************************* //
