/*--------------------------------*- C++ -*----------------------------------*\
  =========                 |
  \\      /  F ield         | OpenFOAM: The Open Source CFD Toolbox
   \\    /   O peration     | Website:  https://openfoam.org
    \\  /    A nd           | Version:  13
     \\/     M anipulation  |
\*---------------------------------------------------------------------------*/
FoamFile
{
    format      ascii;
    class       volScalarField;
    location    "0.0055";
    object      p;
}
// * * * * * * * * * * * * * * * * * * * * * * * * * * * * * * * * * * * * * //

dimensions      [1 -1 -2 0 0 0 0];

internalField   nonuniform List<scalar> 
1000
(
100000
100000
100000
100000
100000
100000
100000
100000
100000
100000
100000
100000
100000
100000
100000
100000
100000
100000
100000
100000
100000
100000
100000
100000
100000
100000
100000
100000
100000
100000
100000
100000
100000
100000
100000
100000
100000
100000
100000
100000
100000
100000
100000
100000
100000
100000
100000
100000
100000
100000
100000
100000
100000
100000
100000
100000
100000
100000
100000
100000
100000
100000
100000
100000
100000
100000
100000
100000
100000
100000
100000
100000
100000
100000
100000
100000
100000
100000
100000
100000
100000
100000
100000
100000
100000
100000
100000
100000
100000
100000
100000
100000
100000
100000
100000
100000
100000
100000
100000
100000
100000
100000
100000
100000
100000
100000
100000
100000
100000
100000
100000
100000
100000
100000
100000
100000
100000
100000
100000
100000
100000
100000
100000
100000
100000
100000
100000
100000
100000
100000
100000
100000
100000
100000
100000
100000
100000
100000
100000
100000
100000
100000
100000
100000
100000
100000
100000
100000
100000
100000
100000
100000
100000
100000
100000
100000
100000
100000
100000
100000
100000
100000
100000
100000
100000
100000
100000
100000
100000
100000
100000
100000
100000
100000
100000
100000
100000
100000
100000
100000
100000
100000
100000
100000
100000
100000
100000
100000
100000
100000
100000
100000
100000
100000
100000
100000
100000
100000
100000
100000
100000
100000
100000
100000
100000
100000
100000
100000
100000
100000
100000
100000
100000
100000
100000
100000
100000
100000
100000
100000
100000
100000
100000
100000
100000
100000
100000
100000
100000
100000
100000
100000
100000
100000
100000
100000
100000
100000
100000
100000
100000
100000
100000
100000
100000
100000
100000
99999.9
99999.9
99999.9
99999.8
99999.7
99999.6
99999.4
99999.1
99998.7
99998.2
99997.4
99996.3
99994.8
99992.7
99989.8
99986
99980.8
99973.8
99964.7
99952.6
99937.1
99917
99891.4
99859.1
99818.8
99768.7
99707.3
99632.8
99543.2
99436.7
99311.5
99165.8
98998.3
98808
98594.3
98357.1
98096.9
97814.5
97511.2
97188.6
96848.8
96493.7
96125.4
95746
95357.3
94961.1
94558.8
94151.8
93741
93327.5
92911.7
92494.3
92075.7
91656.2
91236.1
90815.5
90394.5
89973.4
89552.1
89130.9
88709.7
88288.6
87867.7
87447
87026.7
86606.7
86187.1
85768
85349.3
84931.2
84513.7
84096.8
83680.6
83265.1
82850.3
82436.3
82023.2
81610.8
81199.3
80788.7
80379.1
79970.4
79562.6
79155.9
78750.2
78345.5
77941.9
77539.4
77138
76737.7
76338.6
75940.7
75543.9
75148.3
74753.9
74360.8
73968.9
73578.2
73188.9
72800.8
72414
72028.5
71644.4
71261.6
70880.1
70500
70121.2
69743.8
69367.8
68993.2
68620
68248.2
67877.8
67508.9
67141.3
66775.3
66410.6
66047.5
65685.7
65325.5
64966.7
64609.4
64253.6
63899.3
63546.5
63195.1
62845.3
62497
62150.2
61804.9
61461.1
61118.9
60778.1
60439
60101.3
59765.2
59430.6
59097.6
58766.1
58436.2
58107.8
57781
57455.7
57132
56809.9
56489.3
56170.3
55852.9
55537.1
55222.8
54910.1
54599
54289.4
53981.5
53675.1
53370.3
53067.2
52765.6
52465.6
52167.2
51870.4
51575.2
51281.6
50989.6
50699.3
50410.5
50123.4
49837.9
49554
49271.8
48991.1
48712.1
48434.8
48159.1
47885
47612.6
47341.8
47072.7
46805.2
46539.5
46275.4
46012.9
45752.2
45493.1
45235.8
44980.1
44726.1
44473.9
44223.4
43974.6
43727.6
43482.3
43238.7
42996.9
42756.9
42518.7
42282.2
42047.6
41814.8
41583.8
41354.6
41127.3
40901.9
40678.3
40456.6
40236.9
40019
39803.1
39589.1
39377.1
39167.1
38959
38753
38549.1
38347.1
38147.3
37949.6
37753.9
37560.4
37369.1
37180
36993
36808.3
36625.9
36445.7
36267.9
36092.3
35919.2
35748.4
35580
35414
35250.6
35089.6
34931.1
34775.2
34621.9
34471.1
34323
34177.6
34034.8
33894.8
33757.5
33623
33491.2
33362.3
33236.2
33113
32992.6
32875.1
32760.6
32649
32540.3
32434.6
32331.8
32232
32135.2
32041.4
31950.5
31862.6
31777.7
31695.7
31616.7
31540.6
31467.4
31397
31329.5
31264.9
31203
31143.9
31087.4
31033.7
30982.5
30933.9
30887.8
30844.1
30802.8
30763.9
30727.2
30692.6
30660.2
30629.9
30601.5
30574.9
30550.2
30527.3
30506
30486.2
30468
30451.2
30435.8
30421.7
30408.7
30396.9
30386.1
30376.4
30367.6
30359.6
30352.4
30346
30340.3
30335.2
30330.6
30326.7
30323.1
30320.1
30317.4
30315.1
30313.1
30311.5
30310
30308.8
30307.9
30307.1
30306.5
30306
30305.6
30305.4
30305.2
30305.2
30305.2
30305.3
30305.4
30305.5
30305.7
30306
30306.2
30306.5
30306.8
30307.1
30307.4
30307.7
30308
30308.3
30308.6
30308.9
30309.3
30309.6
30309.9
30310.2
30310.5
30310.8
30311
30311.3
30311.6
30311.9
30312.1
30312.4
30312.6
30312.9
30313.1
30313.4
30313.6
30313.8
30314
30314.2
30314.5
30314.7
30314.9
30315.1
30315.3
30315.5
30315.7
30315.8
30316
30316.2
30316.4
30316.5
30316.7
30316.9
30317
30317.2
30317.4
30317.5
30317.7
30317.8
30318
30318.1
30318.3
30318.4
30318.6
30318.7
30318.8
30319
30319.1
30319.2
30319.4
30319.5
30319.6
30319.7
30319.8
30320
30320.1
30320.2
30320.3
30320.4
30320.5
30320.6
30320.8
30320.9
30321
30321.1
30321.2
30321.3
30321.4
30321.5
30321.6
30321.7
30321.8
30321.9
30322
30322.1
30322.2
30322.3
30322.4
30322.5
30322.6
30322.7
30322.8
30322.9
30323
30323.1
30323.3
30323.4
30323.4
30323.5
30323.6
30323.7
30323.8
30323.9
30324
30324.1
30324.2
30324.3
30324.3
30324.4
30324.5
30324.6
30324.7
30324.7
30324.8
30324.9
30325
30325
30325.1
30325.2
30325.3
30325.3
30325.4
30325.5
30325.6
30325.6
30325.7
30325.8
30325.9
30326
30326
30326.1
30326.2
30326.3
30326.4
30326.5
30326.5
30326.6
30326.7
30326.8
30326.9
30327
30327.1
30327.2
30327.3
30327.4
30327.5
30327.6
30327.7
30327.8
30327.9
30328
30328.1
30328.2
30328.3
30328.4
30328.5
30328.6
30328.7
30328.8
30328.9
30329
30329.1
30329.3
30329.4
30329.5
30329.6
30329.7
30329.8
30329.9
30330.1
30330.2
30330.3
30330.4
30330.5
30330.6
30330.7
30330.8
30330.9
30330.9
30331
30331
30331.1
30331.1
30331
30331
30330.9
30330.8
30330.6
30330.3
30330
30329.5
30329
30328.3
30327.4
30326.4
30325.2
30323.6
30321.8
30319.6
30316.9
30313.7
30309.9
30305.3
30299.9
30293.3
30285.6
30276.4
30265.4
30252.4
30236.9
30218.5
30196.6
30170.7
30139.8
30103.2
30059.7
30007.9
29946.4
29873.1
29785.8
29681.6
29557.2
29408.3
29229.8
29015.3
28756.7
28444
28064.2
27600.6
27031.4
26327.3
25448.1
24336.2
22905.7
21030.7
18574.8
15592.9
12743.1
10980.2
10282.3
10073.2
10018.3
10004.5
10001.1
10000.3
10000.1
10000
10000
10000
10000
10000
10000
10000
10000
10000
10000
10000
10000
10000
10000
10000
10000
10000
10000
10000
10000
10000
10000
10000
10000
10000
10000
10000
10000
10000
10000
10000
10000
10000
10000
10000
10000
10000
10000
10000
10000
10000
10000
10000
10000
10000
10000
10000
10000
10000
10000
10000
10000
10000
10000
10000
10000
10000
10000
10000
10000
10000
10000
10000
10000
10000
10000
10000
10000
10000
10000
10000
10000
10000
10000
10000
10000
10000
10000
10000
10000
10000
10000
10000
10000
10000
10000
10000
10000
10000
10000
10000
10000
10000
10000
10000
10000
10000
10000
10000
10000
10000
10000
10000
10000
10000
10000
10000
10000
10000
10000
10000
10000
10000
10000
10000
10000
10000
10000
10000
10000
10000
10000
10000
10000
10000
10000
10000
10000
10000
10000
10000
10000
10000
10000
10000
10000
10000
10000
10000
10000
10000
10000
10000
10000
10000
10000
10000
10000
10000
10000
10000
10000
10000
10000
10000
10000
10000
10000
10000
10000
10000
10000
10000
10000
10000
10000
10000
10000
10000
10000
10000
10000
10000
10000
10000
10000
10000
10000
10000
10000
10000
)
;

boundaryField
{
    sides
    {
        type            zeroGradient;
    }
    empty
    {
        type            empty;
    }
}


// ************************************************************************* //
