/*--------------------------------*- C++ -*----------------------------------*\
  =========                 |
  \\      /  F ield         | OpenFOAM: The Open Source CFD Toolbox
   \\    /   O peration     | Website:  https://openfoam.org
    \\  /    A nd           | Version:  13
     \\/     M anipulation  |
\*---------------------------------------------------------------------------*/
FoamFile
{
    format      ascii;
    class       surfaceScalarField;
    location    "0.0055";
    object      phi;
}
// * * * * * * * * * * * * * * * * * * * * * * * * * * * * * * * * * * * * * //

dimensions      [1 0 -1 0 0 0 0];

internalField   nonuniform List<scalar> 
999
(
-1.18956e-12
-2.37011e-12
-2.32876e-12
-2.51958e-12
-2.52553e-12
-2.20984e-12
-2.06283e-12
-2.00713e-12
-1.58988e-12
-1.75784e-12
-1.97304e-12
-1.57198e-12
-1.65255e-12
-1.65735e-12
-1.31198e-12
-1.21614e-12
-1.42774e-12
-1.24173e-12
-5.85688e-13
-1.03858e-12
-4.35073e-13
-6.93704e-13
-4.06545e-13
-3.79381e-13
-3.5358e-13
7.71583e-14
2.87626e-13
-2.94931e-13
-6.01229e-13
-9.19927e-13
-1.15024e-12
-2.04248e-12
-2.36478e-12
-1.8911e-12
-1.15908e-12
-8.80605e-13
3.50461e-13
8.95382e-13
1.28848e-12
2.03176e-12
1.80918e-12
2.36507e-12
3.233e-12
3.45557e-12
3.8028e-12
4.14042e-12
4.1121e-12
4.13633e-12
3.73706e-12
3.88473e-12
3.96852e-12
5.00081e-12
5.1846e-12
4.77344e-12
4.88096e-12
4.76979e-12
3.50254e-12
2.99368e-12
2.52639e-12
2.50904e-12
2.39034e-12
1.62148e-12
1.48564e-12
1.39411e-12
8.24308e-13
5.50563e-13
6.8569e-13
7.2088e-13
6.27978e-13
6.3845e-13
7.45757e-13
5.18384e-13
-5.27789e-14
1.19116e-13
1.21844e-13
-1.93844e-13
-1.26275e-14
8.44211e-14
2.09289e-13
2.92588e-13
2.61331e-13
1.52446e-13
6.09079e-14
-5.41431e-14
-4.5428e-13
-6.88902e-13
-2.62965e-13
-1.51352e-13
2.84189e-13
4.63827e-13
7.50773e-13
1.05234e-12
5.80243e-13
8.28401e-13
5.80243e-13
9.11486e-13
6.05829e-13
3.73654e-13
2.89646e-13
1.49008e-13
3.65308e-13
1.17751e-13
5.62788e-13
1.91835e-13
-5.29925e-14
-6.11221e-13
-5.64571e-15
3.02085e-13
3.53215e-14
-2.93725e-14
-4.74021e-13
-6.02875e-13
-5.09193e-14
-1.69408e-13
-3.25426e-13
-4.35782e-13
-4.28252e-13
-5.07244e-13
-7.45518e-13
-7.66089e-13
-9.34653e-13
-6.99321e-13
-8.27238e-13
-6.27311e-13
-3.84556e-13
-3.00815e-14
1.77323e-13
2.79722e-13
-5.53227e-13
-7.41211e-13
-2.60397e-13
-5.21756e-13
6.77131e-13
7.77014e-13
9.41272e-13
9.88298e-13
9.19016e-13
1.18245e-12
1.69469e-12
1.99773e-12
2.32221e-12
2.4108e-12
2.50643e-12
2.47332e-12
2.50643e-12
1.97122e-12
1.77718e-12
2.36443e-12
2.50163e-12
2.36912e-12
2.88415e-12
2.9806e-12
2.28877e-12
2.26045e-12
2.41511e-12
2.28468e-12
2.39973e-12
3.10945e-12
2.73173e-12
2.1285e-12
2.37458e-12
2.42035e-12
2.56737e-12
2.59382e-12
2.21043e-12
2.18954e-12
2.25118e-12
2.0003e-12
2.24867e-12
2.88148e-12
2.5168e-12
2.83298e-12
2.65001e-12
2.44342e-12
2.39629e-12
3.02637e-12
2.35532e-12
2.37256e-12
2.48352e-12
2.26995e-12
2.37823e-12
3.24627e-12
3.67112e-12
3.38554e-12
3.60527e-12
3.14071e-12
2.96183e-12
2.89255e-12
2.52045e-12
2.55869e-12
2.47468e-12
2.51407e-12
2.56622e-12
3.09996e-12
3.51531e-12
3.22973e-12
3.08752e-12
3.12849e-12
3.28385e-12
3.33431e-12
3.42858e-12
2.86151e-12
2.58837e-12
2.38931e-12
2.67352e-12
2.39274e-12
2.41626e-12
2.13477e-12
2.79813e-12
2.88607e-12
4.80974e-12
7.64477e-12
1.26468e-11
2.22639e-11
3.8243e-11
6.63707e-11
1.16759e-10
2.06158e-10
3.64234e-10
6.41839e-10
1.12912e-09
1.97837e-09
3.45148e-09
5.99598e-09
1.03656e-08
1.78328e-08
3.05278e-08
5.19976e-08
8.81177e-08
1.48566e-07
2.49189e-07
4.15784e-07
6.90102e-07
1.13931e-06
1.87083e-06
3.05539e-06
4.96265e-06
8.0159e-06
1.28753e-05
2.05639e-05
3.26566e-05
5.15616e-05
8.09369e-05
0.0001263
0.000195916
0.000302077
0.000462933
0.000705084
0.00106723
0.00160521
0.00239905
0.0035624
0.00525546
0.00770209
0.0112125
0.0162127
0.0232826
0.0332044
0.0470226
0.0661192
0.0923035
0.12792
0.175973
0.240269
0.325578
0.437797
0.584127
0.773243
1.01544
1.32277
1.70905
2.18994
2.78273
3.50617
4.38007
5.42472
6.66018
8.10533
9.77678
11.6875
13.8461
16.2559
18.915
21.8161
24.9468
28.2905
31.827
35.534
39.3881
43.366
47.4453
51.6055
55.8283
60.0979
64.4008
68.7262
73.0652
77.4108
81.7577
86.1017
90.4395
94.7688
99.0876
103.395
107.688
111.968
116.233
120.482
124.714
128.929
133.127
137.306
141.467
145.608
149.73
153.831
157.912
161.972
166.01
170.026
174.02
177.992
181.941
185.867
189.769
193.648
197.503
201.333
205.14
208.922
212.679
216.411
220.118
223.799
227.456
231.087
234.692
238.271
241.824
245.351
248.852
252.327
255.775
259.197
262.593
265.962
269.304
272.62
275.909
279.171
282.406
285.614
288.796
291.95
295.078
298.179
301.252
304.299
307.319
310.312
313.277
316.216
319.128
322.013
324.871
327.702
330.506
333.283
336.034
338.758
341.455
344.125
346.768
349.385
351.976
354.539
357.077
359.588
362.072
364.53
366.962
369.368
371.747
374.101
376.428
378.73
381.005
383.255
385.48
387.678
389.851
391.998
394.121
396.217
398.289
400.335
402.356
404.353
406.324
408.271
410.192
412.09
413.962
415.81
417.634
419.434
421.209
422.961
424.688
426.392
428.071
429.727
431.36
432.969
434.555
436.117
437.656
439.173
440.666
442.136
443.584
445.009
446.411
447.791
449.149
450.485
451.798
453.09
454.36
455.607
456.834
458.039
459.222
460.384
461.525
462.645
463.744
464.822
465.879
466.916
467.932
468.928
469.904
470.86
471.796
472.712
473.608
474.484
475.342
476.18
476.998
477.798
478.579
479.341
480.084
480.809
481.516
482.204
482.874
483.527
484.161
484.778
485.378
485.96
486.526
487.074
487.605
488.12
488.619
489.101
489.567
490.017
490.452
490.871
491.275
491.663
492.037
492.396
492.74
493.071
493.387
493.689
493.978
494.254
494.516
494.765
495.002
495.227
495.439
495.64
495.829
496.007
496.174
496.33
496.476
496.612
496.738
496.854
496.962
497.06
497.15
497.232
497.305
497.372
497.431
497.483
497.528
497.567
497.6
497.628
497.65
497.667
497.679
497.687
497.691
497.691
497.688
497.681
497.672
497.659
497.645
497.627
497.608
497.588
497.565
497.542
497.517
497.491
497.464
497.437
497.409
497.381
497.353
497.324
497.295
497.266
497.237
497.209
497.18
497.152
497.124
497.096
497.068
497.041
497.014
496.988
496.961
496.935
496.909
496.884
496.858
496.833
496.808
496.783
496.758
496.733
496.709
496.684
496.659
496.634
496.609
496.584
496.559
496.533
496.507
496.481
496.455
496.429
496.402
496.374
496.346
496.318
496.29
496.261
496.231
496.201
496.17
496.139
496.107
496.074
496.041
496.007
495.972
495.936
495.9
495.863
495.825
495.786
495.746
495.705
495.663
495.62
495.576
495.53
495.484
495.436
495.386
495.335
495.283
495.229
495.173
495.116
495.056
494.994
494.93
494.864
494.794
494.722
494.646
494.566
494.482
494.393
494.298
494.196
494.087
493.969
493.84
493.699
493.544
493.372
493.181
492.966
492.724
492.452
492.143
491.793
491.394
490.941
490.425
489.839
489.173
488.418
487.565
486.602
485.519
484.305
482.948
481.439
479.767
477.921
475.893
473.674
471.258
468.638
465.811
462.775
459.53
456.078
452.423
448.572
444.534
440.32
435.944
431.422
426.77
422.009
417.159
412.241
407.279
402.296
397.315
392.36
387.453
382.618
377.875
373.244
368.742
364.388
360.194
356.174
352.338
348.694
345.248
342.004
338.964
336.127
333.493
331.057
328.815
326.76
324.886
323.184
321.645
320.259
319.018
317.911
316.929
316.061
315.297
314.629
314.048
313.544
313.11
312.737
312.42
312.151
311.925
311.736
311.58
311.451
311.346
311.261
311.194
311.142
311.101
311.071
311.05
311.035
311.026
311.022
311.021
311.023
311.028
311.034
311.041
311.05
311.059
311.068
311.078
311.088
311.098
311.108
311.117
311.127
311.136
311.145
311.154
311.163
311.171
311.179
311.187
311.194
311.201
311.208
311.215
311.222
311.228
311.235
311.241
311.246
311.252
311.258
311.263
311.268
311.273
311.278
311.283
311.287
311.292
311.296
311.3
311.303
311.306
311.309
311.312
311.314
311.316
311.317
311.317
311.317
311.316
311.313
311.309
311.304
311.296
311.287
311.275
311.259
311.24
311.217
311.188
311.154
311.112
311.061
311
310.927
310.84
310.735
310.61
310.462
310.285
310.074
309.823
309.525
309.17
308.749
308.248
307.652
306.944
306.101
305.097
303.901
302.474
300.77
298.731
296.287
293.35
289.811
285.532
280.337
273.998
266.218
256.596
244.582
229.384
209.796
183.948
149.359
105.034
57.7156
23.1429
7.13477
1.8889
0.473158
0.116933
0.0288256
0.00710342
0.00175044
0.000431352
0.000106295
2.61936e-05
6.45466e-06
1.59056e-06
3.91942e-07
9.65808e-08
2.3799e-08
5.86452e-09
1.44524e-09
3.56309e-10
8.80218e-11
2.19199e-11
5.60365e-12
1.6038e-12
6.26931e-13
3.98671e-13
3.68678e-13
3.04729e-13
3.41316e-13
3.595e-13
3.34881e-13
3.39919e-13
3.77185e-13
3.45131e-13
4.58481e-13
5.19975e-13
4.77343e-13
4.95023e-13
3.78037e-13
2.2171e-13
2.73012e-13
3.27617e-13
3.41657e-13
3.45805e-13
3.30022e-13
2.78383e-13
2.3211e-13
2.91029e-13
2.97968e-13
3.05074e-13
3.63485e-13
3.0507e-13
2.48226e-13
2.39386e-13
2.44757e-13
2.57233e-13
2.15308e-13
1.35239e-13
-7.21456e-15
-3.47996e-14
-8.97538e-14
-2.955e-14
-8.26563e-14
-1.39565e-13
-1.73362e-13
-9.5303e-14
-7.90203e-14
-7.01762e-14
-1.31395e-13
-5.45637e-14
-6.67068e-14
-6.8608e-14
-7.85128e-14
-8.00769e-14
-4.22461e-14
-8.28189e-14
-2.50734e-14
-6.8612e-14
-1.10291e-14
1.15183e-14
-3.92922e-14
-9.65381e-14
-7.19149e-14
-5.99384e-14
-7.74522e-14
-1.38167e-13
-9.47994e-14
-5.64649e-14
-6.72103e-14
-8.95912e-14
-6.14986e-14
-6.02675e-14
-7.95199e-14
-8.48986e-14
-8.87052e-14
1.04577e-14
-3.67089e-14
-6.68693e-14
-1.03302e-13
-1.40235e-13
-1.46114e-13
-1.12488e-13
-1.21161e-13
-8.33839e-14
-6.70398e-14
4.07985e-15
4.3243e-14
5.76243e-14
1.28453e-15
-7.89269e-15
4.37546e-14
-6.82669e-14
-6.82669e-14
3.02325e-15
-6.84375e-14
-1.26357e-13
-7.5884e-14
-4.25872e-14
3.86391e-15
-9.55149e-14
-1.13532e-13
-1.79285e-13
-2.23494e-13
-1.02238e-13
-1.00174e-13
-6.18436e-14
-3.07891e-14
-4.77993e-14
-1.05041e-13
-5.29995e-14
9.43468e-16
-1.13715e-13
-1.3677e-13
-1.31903e-13
-1.79081e-13
-1.61958e-13
-2.12378e-13
-2.00963e-13
-8.14292e-14
-1.31233e-13
-7.3142e-14
-7.57134e-14
-3.8277e-14
-9.5856e-14
-9.42878e-14
-1.05029e-13
-1.82198e-13
-2.11022e-13
-1.74763e-13
-1.22888e-13
-8.00235e-14
-6.0779e-14
-2.88839e-14
-8.64668e-14
-5.47382e-14
-3.772e-14
-1.81345e-14
-5.2829e-14
-9.5864e-14
-8.89211e-14
-2.26131e-13
-2.49015e-13
-2.3027e-13
-2.13934e-13
-2.07556e-13
-2.26077e-13
-2.03363e-13
-1.31403e-13
-2.09295e-13
-2.78343e-13
-2.52822e-13
-2.99318e-13
-2.91485e-13
-2.78335e-13
-2.12025e-13
-1.75433e-13
-1.18411e-13
-1.30888e-13
-1.89868e-13
-2.76434e-13
-2.32168e-13
-1.9244e-13
-2.53325e-13
-2.0078e-13
-2.40512e-13
-2.23165e-13
-2.89417e-13
-3.08162e-13
-3.55166e-13
-4.06709e-13
)
;

boundaryField
{
    sides
    {
        type            calculated;
        value           nonuniform List<scalar> 2(-3.71074e-13 1.16415e-12);
    }
    empty
    {
        type            empty;
    }
}


// ************************************************************************* //
