/*--------------------------------*- C++ -*----------------------------------*\
  =========                 |
  \\      /  F ield         | OpenFOAM: The Open Source CFD Toolbox
   \\    /   O peration     | Website:  https://openfoam.org
    \\  /    A nd           | Version:  13
     \\/     M anipulation  |
\*---------------------------------------------------------------------------*/
FoamFile
{
    format      ascii;
    class       volScalarField;
    location    "0.07";
    object      mag(U);
}
// * * * * * * * * * * * * * * * * * * * * * * * * * * * * * * * * * * * * * //

dimensions      [0 1 -1 0 0 0 0];

internalField   nonuniform List<scalar> 
1000
(
30.4608
30.457
30.4501
30.4418
30.4329
30.4236
30.4141
30.4044
30.3945
30.3844
30.374
30.3635
30.3526
30.3415
30.3302
30.3186
30.3067
30.2947
30.2825
30.27
30.2574
30.2447
30.2317
30.2187
30.2054
30.1921
30.1786
30.165
30.1513
30.1374
30.1234
30.1094
30.0952
30.0809
30.0665
30.052
30.0375
30.0228
30.008
29.9932
29.9782
29.9632
29.9481
29.9329
29.9176
29.9022
29.8868
29.8713
29.8557
29.84
29.8243
29.8085
29.7927
29.7767
29.7608
29.7447
29.7286
29.7124
29.6962
29.68
29.6636
29.6473
29.6309
29.6144
29.5979
29.5813
29.5647
29.5481
29.5315
29.5148
29.498
29.4813
29.4645
29.4477
29.4309
29.414
29.3971
29.3802
29.3633
29.3464
29.3295
29.3126
29.2956
29.2787
29.2617
29.2448
29.2279
29.2109
29.194
29.1771
29.1602
29.1433
29.1265
29.1097
29.0929
29.0761
29.0594
29.0427
29.026
29.0094
28.9928
28.9762
28.9598
28.9433
28.9269
28.9106
28.8944
28.8782
28.8621
28.846
28.8301
28.8142
28.7984
28.7826
28.767
28.7515
28.736
28.7207
28.7054
28.6903
28.6753
28.6604
28.6456
28.631
28.6164
28.602
28.5878
28.5736
28.5596
28.5458
28.5321
28.5186
28.5052
28.492
28.479
28.4661
28.4534
28.4409
28.4285
28.4164
28.4044
28.3927
28.3811
28.3698
28.3586
28.3477
28.337
28.3265
28.3163
28.3062
28.2964
28.2869
28.2776
28.2685
28.2597
28.2512
28.2429
28.2349
28.2271
28.2197
28.2125
28.2056
28.199
28.1926
28.1866
28.1809
28.1755
28.1704
28.1656
28.1611
28.157
28.1532
28.1497
28.1465
28.1437
28.1413
28.1392
28.1374
28.136
28.135
28.1343
28.134
28.1341
28.1346
28.1354
28.1367
28.1383
28.1403
28.1427
28.1455
28.1487
28.1524
28.1564
28.1609
28.1658
28.1711
28.1768
28.183
28.1896
28.1966
28.2041
28.212
28.2204
28.2292
28.2385
28.2482
28.2584
28.2691
28.2802
28.2918
28.3039
28.3164
28.3294
28.3429
28.3569
28.3714
28.3863
28.4018
28.4177
28.4341
28.4511
28.4685
28.4864
28.5048
28.5238
28.5432
28.5631
28.5836
28.6046
28.626
28.648
28.6705
28.6936
28.7171
28.7412
28.7657
28.7908
28.8165
28.8426
28.8693
28.8965
28.9242
28.9525
28.9813
29.0106
29.0404
29.0708
29.1017
29.1331
29.1651
29.1976
29.2306
29.2642
29.2983
29.3329
29.368
29.4037
29.4399
29.4767
29.514
29.5518
29.5901
29.629
29.6684
29.7084
29.7488
29.7899
29.8314
29.8734
29.916
29.9592
30.0028
30.047
30.0917
30.1369
30.1827
30.229
30.2758
30.3231
30.371
30.4193
30.4683
30.5177
30.5676
30.6181
30.6691
30.7207
30.7727
30.8253
30.8784
30.9321
30.9863
31.041
31.0962
31.1519
31.2082
31.2651
31.3224
31.3803
31.4387
31.4976
31.557
31.617
31.6773
31.7382
31.7995
31.8611
31.9232
31.9855
32.0482
32.1113
32.1748
32.2386
32.3028
32.3674
32.4323
32.4977
32.5634
32.6295
32.696
32.7628
32.8301
32.8977
32.9658
33.0342
33.103
33.1722
33.2417
33.3117
33.382
33.4527
33.5238
33.5953
33.6671
33.7393
33.8119
33.8849
33.9582
34.0319
34.1059
34.1804
34.2552
34.3303
34.4059
34.4817
34.558
34.6346
34.7115
34.7888
34.8664
34.9444
35.0228
35.1015
35.1805
35.2599
35.3396
35.4197
35.5
35.5808
35.6618
35.7432
35.8249
35.907
35.9893
36.072
36.155
36.2384
36.322
36.406
36.4903
36.5749
36.6598
36.745
36.8306
36.9164
37.0025
37.089
37.1757
37.2628
37.3501
37.4378
37.5257
37.6139
37.7024
37.7913
37.8804
37.9697
38.0594
38.1494
38.2396
38.3301
38.4209
38.512
38.6033
38.695
38.7868
38.879
38.9714
39.0641
39.1571
39.2503
39.3438
39.4376
39.5316
39.6259
39.7204
39.8152
39.9103
40.0056
40.1011
40.1969
40.293
40.3893
40.4858
40.5826
40.6796
40.7769
40.8744
40.9722
41.0702
41.1684
41.2669
41.3655
41.4645
41.5636
41.663
41.7627
41.8625
41.9626
42.0629
42.1634
42.2642
42.3651
42.4663
42.5677
42.6694
42.7712
42.8733
42.9755
43.078
43.1807
43.2836
43.3868
43.4901
43.5936
43.6974
43.8013
43.9055
44.0098
44.1144
44.2192
44.3241
44.4293
44.5346
44.6402
44.7459
44.8519
44.958
45.0643
45.1709
45.2776
45.3845
45.4915
45.5988
45.7063
45.8139
45.9218
46.0298
46.138
46.2464
46.3549
46.4636
46.5726
46.6817
46.7909
46.9004
47.01
47.1198
47.2298
47.3399
47.4502
47.5607
47.6713
47.7822
47.8931
48.0043
48.1156
48.2271
48.3387
48.4505
48.5625
48.6747
48.7869
48.8994
49.012
49.1248
49.2377
49.3508
49.464
49.5774
49.691
49.8047
49.9185
50.0325
50.1467
50.261
50.3754
50.49
50.6048
50.7197
50.8347
50.9499
51.0652
51.1807
51.2963
51.412
51.5279
51.644
51.7601
51.8764
51.9929
52.1095
52.2262
52.3431
52.4601
52.5772
52.6945
52.8118
52.9294
53.047
53.1648
53.2827
53.4008
53.519
53.6373
53.7557
53.8743
53.9929
54.1117
54.2307
54.3497
54.4689
54.5882
54.7076
54.8272
54.9468
55.0666
55.1865
55.3066
55.4267
55.5469
55.6673
55.7878
55.9084
56.0291
56.15
56.2709
56.392
56.5131
56.6344
56.7558
56.8773
56.9989
57.1206
57.2424
57.3644
57.4864
57.6086
57.7308
57.8532
57.9756
58.0982
58.2209
58.3436
58.4665
58.5895
58.7126
58.8357
58.959
59.0824
59.2059
59.3294
59.4531
59.5769
59.7007
59.8247
59.9487
60.0729
60.1971
60.3215
60.4459
60.5704
60.695
60.8197
60.9445
61.0694
61.1944
61.3195
61.4446
61.5699
61.6952
61.8206
61.9461
62.0717
62.1974
62.3231
62.449
62.5749
62.7009
62.827
62.9532
63.0795
63.2058
63.3323
63.4588
63.5853
63.712
63.8388
63.9656
64.0925
64.2195
64.3465
64.4737
64.6009
64.7282
64.8555
64.983
65.1105
65.2381
65.3657
65.4935
65.6213
65.7492
65.8771
66.0051
66.1332
66.2614
66.3896
66.5179
66.6463
66.7748
66.9033
67.0319
67.1605
67.2892
67.418
67.5468
67.6758
67.8047
67.9338
68.0629
68.1921
68.3213
68.4506
68.58
68.7094
68.8389
68.9684
69.098
69.2277
69.3575
69.4873
69.6171
69.747
69.877
70.007
70.1371
70.2673
70.3975
70.5277
70.658
70.7884
70.9189
71.0493
71.1799
71.3105
71.4411
71.5718
71.7026
71.8334
71.9643
72.0952
72.2262
72.3572
72.4883
72.6194
72.7506
72.8818
73.0131
73.1444
73.2758
73.4072
73.5387
73.6702
73.8018
73.9334
74.0651
74.1968
74.3286
74.4604
74.5922
74.7241
74.8561
74.9881
75.1201
75.2522
75.3843
75.5165
75.6487
75.781
75.9133
76.0456
76.178
76.3105
76.4429
76.5754
76.708
76.8406
76.9732
77.1059
77.2386
77.3714
77.5042
77.637
77.7699
77.9028
78.0357
78.1687
78.3018
78.4348
78.5679
78.7011
78.8342
78.9675
79.1007
79.234
79.3673
79.5007
79.634
79.7675
79.9009
80.0344
80.1679
80.3015
80.4351
80.5687
80.7024
80.836
80.9698
81.1035
81.2373
81.3711
81.505
81.6388
81.7728
81.9067
82.0407
82.1747
82.3087
82.4427
82.5768
82.7109
82.8451
82.9793
83.1135
83.2477
83.3819
83.5162
83.6505
83.7849
83.9192
84.0536
84.188
84.3225
84.4569
84.5914
84.7259
84.8605
84.995
85.1296
85.2642
85.3989
85.5335
85.6682
85.8029
85.9376
86.0724
86.2072
86.342
86.4768
86.6116
86.7465
86.8814
87.0163
87.1512
87.2861
87.4211
87.5561
87.6911
87.8261
87.9612
88.0962
88.2313
88.3664
88.5015
88.6366
88.7718
88.907
89.0422
89.1774
89.3126
89.4478
89.5831
89.7184
89.8536
89.9889
90.1243
90.2596
90.395
90.5303
90.6657
90.8011
90.9365
91.0719
91.2074
91.3428
91.4783
91.6138
91.7493
91.8848
92.0203
92.1558
92.2914
92.4269
92.5625
92.698
92.8336
92.9692
93.1048
93.2405
93.3761
93.5117
93.6474
93.7831
93.9187
94.0544
94.1901
94.3258
94.4615
94.5972
94.733
94.8687
95.0044
95.1402
95.2759
95.4117
95.5475
95.6833
95.819
95.9548
96.0906
96.2264
96.3622
96.4981
96.6339
96.7697
96.9055
97.0414
97.1772
97.3131
97.4489
97.5848
97.7206
97.8565
97.9923
98.1282
98.2641
98.4
98.5358
98.6717
98.8076
98.9435
99.0794
99.2152
99.3511
99.487
99.6229
99.7588
99.8947
100.031
100.166
100.302
100.438
100.574
100.71
100.846
100.982
101.118
101.254
101.389
101.525
101.661
101.797
101.933
102.069
102.205
102.341
102.476
102.612
102.748
102.884
103.02
103.156
103.292
103.427
103.563
103.699
103.835
103.971
104.106
104.242
104.378
104.514
104.65
104.785
104.921
105.057
105.193
105.328
105.464
105.6
105.736
105.871
106.007
106.143
106.278
106.414
106.55
106.685
106.821
106.957
107.092
107.228
107.364
107.499
107.635
107.77
107.906
108.041
108.177
108.312
108.448
108.583
108.719
108.854
108.99
109.125
109.261
109.396
109.532
109.667
109.802
109.938
110.073
110.209
110.344
110.479
110.614
110.75
110.885
111.02
111.155
111.291
111.426
111.561
111.696
111.831
111.966
112.101
112.236
112.371
112.506
112.641
112.776
112.911
113.046
113.181
113.316
113.451
113.585
113.72
113.855
113.989
114.124
114.259
114.393
114.528
114.662
114.797
114.934
)
;

boundaryField
{
    sides
    {
        type            calculated;
        value           nonuniform List<scalar> 2(114.934 30.4608);
    }
    empty
    {
        type            empty;
    }
}


// ************************************************************************* //
