/*--------------------------------*- C++ -*----------------------------------*\
  =========                 |
  \\      /  F ield         | OpenFOAM: The Open Source CFD Toolbox
   \\    /   O peration     | Website:  https://openfoam.org
    \\  /    A nd           | Version:  13
     \\/     M anipulation  |
\*---------------------------------------------------------------------------*/
FoamFile
{
    format      ascii;
    class       surfaceScalarField;
    location    "0.07";
    object      phi;
}
// * * * * * * * * * * * * * * * * * * * * * * * * * * * * * * * * * * * * * //

dimensions      [1 0 -1 0 0 0 0];

internalField   nonuniform List<scalar> 
999
(
21.3648
21.3551
21.3453
21.3354
21.3256
21.3157
21.3058
21.2958
21.2858
21.2758
21.2657
21.2556
21.2455
21.2353
21.2251
21.2149
21.2046
21.1943
21.184
21.1737
21.1633
21.1528
21.1424
21.1319
21.1214
21.1109
21.1003
21.0897
21.0791
21.0685
21.0579
21.0472
21.0365
21.0257
21.015
21.0042
20.9934
20.9826
20.9718
20.9609
20.9501
20.9392
20.9283
20.9173
20.9064
20.8954
20.8845
20.8735
20.8625
20.8515
20.8405
20.8294
20.8184
20.8073
20.7963
20.7852
20.7741
20.7631
20.752
20.7409
20.7298
20.7187
20.7076
20.6965
20.6855
20.6744
20.6633
20.6522
20.6411
20.6301
20.619
20.608
20.5969
20.5859
20.5749
20.5639
20.5529
20.5419
20.531
20.5201
20.5092
20.4983
20.4874
20.4766
20.4658
20.455
20.4442
20.4335
20.4228
20.4122
20.4016
20.391
20.3804
20.3699
20.3595
20.3491
20.3387
20.3284
20.3181
20.3079
20.2977
20.2876
20.2776
20.2676
20.2576
20.2478
20.238
20.2282
20.2186
20.209
20.1994
20.19
20.1806
20.1713
20.1621
20.153
20.144
20.135
20.1262
20.1174
20.1088
20.1002
20.0917
20.0834
20.0751
20.067
20.0589
20.051
20.0432
20.0355
20.028
20.0205
20.0132
20.006
19.999
19.992
19.9853
19.9786
19.9721
19.9658
19.9595
19.9535
19.9476
19.9418
19.9363
19.9308
19.9256
19.9205
19.9155
19.9108
19.9062
19.9018
19.8976
19.8936
19.8897
19.8861
19.8826
19.8794
19.8763
19.8734
19.8708
19.8683
19.8661
19.8641
19.8623
19.8607
19.8593
19.8582
19.8573
19.8566
19.8562
19.856
19.856
19.8563
19.8568
19.8576
19.8587
19.86
19.8615
19.8633
19.8654
19.8677
19.8704
19.8733
19.8764
19.8799
19.8836
19.8876
19.8919
19.8965
19.9014
19.9066
19.9121
19.9179
19.9239
19.9303
19.937
19.9441
19.9514
19.959
19.967
19.9753
19.9839
19.9929
20.0021
20.0117
20.0217
20.0319
20.0425
20.0535
20.0647
20.0764
20.0883
20.1006
20.1133
20.1263
20.1397
20.1534
20.1674
20.1818
20.1966
20.2117
20.2272
20.243
20.2592
20.2758
20.2927
20.31
20.3277
20.3457
20.3641
20.3828
20.4019
20.4214
20.4412
20.4615
20.482
20.503
20.5243
20.546
20.5681
20.5905
20.6134
20.6365
20.6601
20.684
20.7084
20.733
20.7581
20.7835
20.8093
20.8355
20.8621
20.889
20.9163
20.944
20.972
21.0005
21.0293
21.0585
21.088
21.118
21.1483
21.179
21.21
21.2415
21.2733
21.3055
21.3381
21.371
21.4043
21.4381
21.4721
21.5066
21.5415
21.5767
21.6123
21.6483
21.6847
21.7215
21.7586
21.7961
21.8341
21.8724
21.9111
21.9503
21.9898
22.0297
22.0701
22.1108
22.152
22.1936
22.2357
22.2781
22.321
22.3644
22.4082
22.4525
22.4972
22.5424
22.5879
22.6339
22.6803
22.7271
22.7741
22.8214
22.8688
22.9164
22.964
23.0118
23.0596
23.1077
23.1559
23.2042
23.2528
23.3015
23.3504
23.3995
23.4488
23.4983
23.548
23.5979
23.648
23.6984
23.7489
23.7997
23.8507
23.9019
23.9534
24.005
24.0569
24.109
24.1614
24.2139
24.2667
24.3197
24.3729
24.4264
24.48
24.5339
24.5881
24.6424
24.6969
24.7517
24.8067
24.8619
24.9174
24.973
25.0289
25.085
25.1413
25.1978
25.2546
25.3115
25.3687
25.426
25.4836
25.5414
25.5994
25.6576
25.716
25.7746
25.8335
25.8925
25.9517
26.0112
26.0708
26.1306
26.1906
26.2509
26.3113
26.3719
26.4327
26.4937
26.5549
26.6163
26.6779
26.7396
26.8016
26.8637
26.9261
26.9886
27.0513
27.1141
27.1772
27.2404
27.3039
27.3675
27.4312
27.4952
27.5593
27.6236
27.6881
27.7527
27.8176
27.8826
27.9477
28.0131
28.0786
28.1442
28.2101
28.276
28.3422
28.4085
28.475
28.5417
28.6085
28.6754
28.7426
28.8098
28.8773
28.9449
29.0126
29.0805
29.1486
29.2168
29.2851
29.3536
29.4223
29.4911
29.56
29.6291
29.6984
29.7678
29.8373
29.907
29.9768
30.0468
30.1169
30.1871
30.2575
30.328
30.3987
30.4695
30.5404
30.6114
30.6826
30.754
30.8254
30.897
30.9688
31.0406
31.1126
31.1847
31.2569
31.3293
31.4018
31.4744
31.5472
31.6201
31.693
31.7662
31.8394
31.9128
31.9862
32.0599
32.1336
32.2074
32.2814
32.3554
32.4296
32.5039
32.5784
32.6529
32.7275
32.8023
32.8772
32.9522
33.0273
33.1025
33.1778
33.2532
33.3288
33.4044
33.4802
33.556
33.632
33.7081
33.7842
33.8605
33.9369
34.0134
34.09
34.1667
34.2434
34.3203
34.3973
34.4744
34.5516
34.6289
34.7063
34.7838
34.8613
34.939
35.0168
35.0946
35.1726
35.2506
35.3288
35.407
35.4854
35.5638
35.6423
35.7209
35.7996
35.8784
35.9572
36.0362
36.1152
36.1944
36.2736
36.3529
36.4323
36.5117
36.5913
36.6709
36.7507
36.8305
36.9104
36.9903
37.0704
37.1505
37.2307
37.311
37.3914
37.4719
37.5524
37.633
37.7137
37.7945
37.8753
37.9562
38.0372
38.1183
38.1994
38.2807
38.362
38.4433
38.5248
38.6063
38.6879
38.7695
38.8512
38.933
39.0149
39.0969
39.1789
39.2609
39.3431
39.4253
39.5076
39.5899
39.6724
39.7548
39.8374
39.92
40.0027
40.0854
40.1682
40.2511
40.3341
40.4171
40.5001
40.5833
40.6664
40.7497
40.833
40.9164
40.9998
41.0833
41.1669
41.2505
41.3342
41.4179
41.5017
41.5855
41.6694
41.7534
41.8374
41.9215
42.0056
42.0898
42.1741
42.2584
42.3427
42.4272
42.5116
42.5961
42.6807
42.7653
42.85
42.9348
43.0195
43.1044
43.1893
43.2742
43.3592
43.4442
43.5293
43.6145
43.6997
43.7849
43.8702
43.9555
44.0409
44.1263
44.2118
44.2974
44.3829
44.4686
44.5542
44.6399
44.7257
44.8115
44.8974
44.9833
45.0692
45.1552
45.2412
45.3273
45.4134
45.4996
45.5858
45.6721
45.7584
45.8447
45.9311
46.0175
46.1039
46.1904
46.277
46.3636
46.4502
46.5369
46.6236
46.7103
46.7971
46.8839
46.9708
47.0577
47.1446
47.2316
47.3186
47.4057
47.4928
47.5799
47.6671
47.7543
47.8415
47.9288
48.0161
48.1034
48.1908
48.2782
48.3657
48.4532
48.5407
48.6283
48.7158
48.8035
48.8911
48.9788
49.0665
49.1543
49.2421
49.3299
49.4178
49.5057
49.5936
49.6815
49.7695
49.8576
49.9456
50.0337
50.1218
50.2099
50.2981
50.3863
50.4745
50.5628
50.6511
50.7394
50.8278
50.9161
51.0045
51.093
51.1815
51.2699
51.3585
51.447
51.5356
51.6242
51.7128
51.8015
51.8902
51.9789
52.0676
52.1564
52.2452
52.334
52.4229
52.5117
52.6006
52.6896
52.7785
52.8675
52.9565
53.0455
53.1346
53.2236
53.3127
53.4019
53.491
53.5802
53.6694
53.7586
53.8478
53.9371
54.0264
54.1157
54.205
54.2944
54.3838
54.4732
54.5626
54.6521
54.7415
54.831
54.9205
55.0101
55.0996
55.1892
55.2788
55.3684
55.458
55.5477
55.6374
55.7271
55.8168
55.9066
55.9963
56.0861
56.1759
56.2657
56.3556
56.4454
56.5353
56.6252
56.7151
56.8051
56.895
56.985
57.075
57.165
57.255
57.3451
57.4352
57.5252
57.6154
57.7055
57.7956
57.8858
57.9759
58.0661
58.1563
58.2466
58.3368
58.4271
58.5173
58.6076
58.6979
58.7883
58.8786
58.969
59.0594
59.1497
59.2401
59.3306
59.421
59.5115
59.6019
59.6924
59.7829
59.8734
59.964
60.0545
60.1451
60.2356
60.3262
60.4168
60.5075
60.5981
60.6887
60.7794
60.8701
60.9608
61.0515
61.1422
61.2329
61.3237
61.4144
61.5052
61.596
61.6868
61.7776
61.8684
61.9593
62.0501
62.141
62.2318
62.3227
62.4136
62.5046
62.5955
62.6864
62.7774
62.8683
62.9593
63.0503
63.1413
63.2323
63.3233
63.4144
63.5054
63.5965
63.6875
63.7786
63.8697
63.9608
64.0519
64.1431
64.2342
64.3253
64.4165
64.5077
64.5988
64.69
64.7812
64.8725
64.9637
65.0549
65.1461
65.2374
65.3287
65.4199
65.5112
65.6025
65.6938
65.7851
65.8764
65.9678
66.0591
66.1505
66.2418
66.3332
66.4246
66.5159
66.6073
66.6987
66.7902
66.8816
66.973
67.0645
67.1559
67.2474
67.3388
67.4303
67.5218
67.6133
67.7048
67.7963
67.8878
67.9793
68.0708
68.1624
68.2539
68.3455
68.437
68.5286
68.6202
68.7118
68.8034
68.895
68.9866
69.0782
69.1698
69.2614
69.3531
69.4447
69.5363
69.628
69.7197
69.8113
69.903
69.9947
70.0864
70.1781
70.2698
70.3615
70.4532
70.5449
70.6366
70.7284
70.8201
70.9119
71.0036
71.0954
71.1871
71.2789
71.3707
71.4624
71.5542
71.646
71.7378
71.8296
71.9214
72.0132
72.1051
72.1969
72.2887
72.3805
72.4724
72.5642
72.6561
72.7479
72.8398
72.9316
73.0235
73.1154
73.2072
73.2991
73.391
73.4829
73.5748
73.6667
73.7586
73.8505
73.9424
74.0343
74.1262
74.2182
74.3101
74.402
74.494
74.5859
74.6778
74.7698
74.8617
74.9537
75.0456
75.1376
75.2296
75.3215
75.4135
75.5055
75.5974
75.6894
75.7814
75.8734
75.9654
76.0574
76.1494
76.2414
76.3334
76.4254
76.5174
76.6094
76.7014
76.7934
76.8854
76.9774
77.0695
77.1615
77.2535
77.3455
77.4376
77.5296
77.6216
77.7137
77.8057
77.8978
77.9898
78.0819
78.1739
78.266
78.358
78.4501
78.5421
78.6342
78.7262
78.8183
78.9104
79.0024
79.0945
79.1866
79.2787
79.3707
79.4628
79.5549
)
;

boundaryField
{
    sides
    {
        type            calculated;
        value           nonuniform List<scalar> 2(79.647 -21.3746);
    }
    empty
    {
        type            empty;
    }
}


// ************************************************************************* //
