/*--------------------------------*- C++ -*----------------------------------*\
  =========                 |
  \\      /  F ield         | OpenFOAM: The Open Source CFD Toolbox
   \\    /   O peration     | Website:  https://openfoam.org
    \\  /    A nd           | Version:  13
     \\/     M anipulation  |
\*---------------------------------------------------------------------------*/
FoamFile
{
    format      ascii;
    class       volVectorField;
    location    "0.07";
    object      U;
}
// * * * * * * * * * * * * * * * * * * * * * * * * * * * * * * * * * * * * * //

dimensions      [0 1 -1 0 0 0 0];

internalField   nonuniform List<vector> 
1000
(
(30.4608 0 0)
(30.457 0 0)
(30.4501 0 0)
(30.4418 0 0)
(30.4329 0 0)
(30.4236 0 0)
(30.4141 0 0)
(30.4044 0 0)
(30.3945 0 0)
(30.3844 0 0)
(30.374 0 0)
(30.3635 0 0)
(30.3526 0 0)
(30.3415 0 0)
(30.3302 0 0)
(30.3186 0 0)
(30.3067 0 0)
(30.2947 0 0)
(30.2825 0 0)
(30.27 0 0)
(30.2574 0 0)
(30.2447 0 0)
(30.2317 0 0)
(30.2187 0 0)
(30.2054 0 0)
(30.1921 0 0)
(30.1786 0 0)
(30.165 0 0)
(30.1513 0 0)
(30.1374 0 0)
(30.1234 0 0)
(30.1094 0 0)
(30.0952 0 0)
(30.0809 0 0)
(30.0665 0 0)
(30.052 0 0)
(30.0375 0 0)
(30.0228 0 0)
(30.008 0 0)
(29.9932 0 0)
(29.9782 0 0)
(29.9632 0 0)
(29.9481 0 0)
(29.9329 0 0)
(29.9176 0 0)
(29.9022 0 0)
(29.8868 0 0)
(29.8713 0 0)
(29.8557 0 0)
(29.84 0 0)
(29.8243 0 0)
(29.8085 0 0)
(29.7927 0 0)
(29.7767 0 0)
(29.7608 0 0)
(29.7447 0 0)
(29.7286 0 0)
(29.7124 0 0)
(29.6962 0 0)
(29.68 0 0)
(29.6636 0 0)
(29.6473 0 0)
(29.6309 0 0)
(29.6144 0 0)
(29.5979 0 0)
(29.5813 0 0)
(29.5647 0 0)
(29.5481 0 0)
(29.5315 0 0)
(29.5148 0 0)
(29.498 0 0)
(29.4813 0 0)
(29.4645 0 0)
(29.4477 0 0)
(29.4309 0 0)
(29.414 0 0)
(29.3971 0 0)
(29.3802 0 0)
(29.3633 0 0)
(29.3464 0 0)
(29.3295 0 0)
(29.3126 0 0)
(29.2956 0 0)
(29.2787 0 0)
(29.2617 0 0)
(29.2448 0 0)
(29.2279 0 0)
(29.2109 0 0)
(29.194 0 0)
(29.1771 0 0)
(29.1602 0 0)
(29.1433 0 0)
(29.1265 0 0)
(29.1097 0 0)
(29.0929 0 0)
(29.0761 0 0)
(29.0594 0 0)
(29.0427 0 0)
(29.026 0 0)
(29.0094 0 0)
(28.9928 0 0)
(28.9762 0 0)
(28.9598 0 0)
(28.9433 0 0)
(28.9269 0 0)
(28.9106 0 0)
(28.8944 0 0)
(28.8782 0 0)
(28.8621 0 0)
(28.846 0 0)
(28.8301 0 0)
(28.8142 0 0)
(28.7984 0 0)
(28.7826 0 0)
(28.767 0 0)
(28.7515 0 0)
(28.736 0 0)
(28.7207 0 0)
(28.7054 0 0)
(28.6903 0 0)
(28.6753 0 0)
(28.6604 0 0)
(28.6456 0 0)
(28.631 0 0)
(28.6164 0 0)
(28.602 0 0)
(28.5878 0 0)
(28.5736 0 0)
(28.5596 0 0)
(28.5458 0 0)
(28.5321 0 0)
(28.5186 0 0)
(28.5052 0 0)
(28.492 0 0)
(28.479 0 0)
(28.4661 0 0)
(28.4534 0 0)
(28.4409 0 0)
(28.4285 0 0)
(28.4164 0 0)
(28.4044 0 0)
(28.3927 0 0)
(28.3811 0 0)
(28.3698 0 0)
(28.3586 0 0)
(28.3477 0 0)
(28.337 0 0)
(28.3265 0 0)
(28.3163 0 0)
(28.3062 0 0)
(28.2964 0 0)
(28.2869 0 0)
(28.2776 0 0)
(28.2685 0 0)
(28.2597 0 0)
(28.2512 0 0)
(28.2429 0 0)
(28.2349 0 0)
(28.2271 0 0)
(28.2197 0 0)
(28.2125 0 0)
(28.2056 0 0)
(28.199 0 0)
(28.1926 0 0)
(28.1866 0 0)
(28.1809 0 0)
(28.1755 0 0)
(28.1704 0 0)
(28.1656 0 0)
(28.1611 0 0)
(28.157 0 0)
(28.1532 0 0)
(28.1497 0 0)
(28.1465 0 0)
(28.1437 0 0)
(28.1413 0 0)
(28.1392 0 0)
(28.1374 0 0)
(28.136 0 0)
(28.135 0 0)
(28.1343 0 0)
(28.134 0 0)
(28.1341 0 0)
(28.1346 0 0)
(28.1354 0 0)
(28.1367 0 0)
(28.1383 0 0)
(28.1403 0 0)
(28.1427 0 0)
(28.1455 0 0)
(28.1487 0 0)
(28.1524 0 0)
(28.1564 0 0)
(28.1609 0 0)
(28.1658 0 0)
(28.1711 0 0)
(28.1768 0 0)
(28.183 0 0)
(28.1896 0 0)
(28.1966 0 0)
(28.2041 0 0)
(28.212 0 0)
(28.2204 0 0)
(28.2292 0 0)
(28.2385 0 0)
(28.2482 0 0)
(28.2584 0 0)
(28.2691 0 0)
(28.2802 0 0)
(28.2918 0 0)
(28.3039 0 0)
(28.3164 0 0)
(28.3294 0 0)
(28.3429 0 0)
(28.3569 0 0)
(28.3714 0 0)
(28.3863 0 0)
(28.4018 0 0)
(28.4177 0 0)
(28.4341 0 0)
(28.4511 0 0)
(28.4685 0 0)
(28.4864 0 0)
(28.5048 0 0)
(28.5238 0 0)
(28.5432 0 0)
(28.5631 0 0)
(28.5836 0 0)
(28.6046 0 0)
(28.626 0 0)
(28.648 0 0)
(28.6705 0 0)
(28.6936 0 0)
(28.7171 0 0)
(28.7412 0 0)
(28.7657 0 0)
(28.7908 0 0)
(28.8165 0 0)
(28.8426 0 0)
(28.8693 0 0)
(28.8965 0 0)
(28.9242 0 0)
(28.9525 0 0)
(28.9813 0 0)
(29.0106 0 0)
(29.0404 0 0)
(29.0708 0 0)
(29.1017 0 0)
(29.1331 0 0)
(29.1651 0 0)
(29.1976 0 0)
(29.2306 0 0)
(29.2642 0 0)
(29.2983 0 0)
(29.3329 0 0)
(29.368 0 0)
(29.4037 0 0)
(29.4399 0 0)
(29.4767 0 0)
(29.514 0 0)
(29.5518 0 0)
(29.5901 0 0)
(29.629 0 0)
(29.6684 0 0)
(29.7084 0 0)
(29.7488 0 0)
(29.7899 0 0)
(29.8314 0 0)
(29.8734 0 0)
(29.916 0 0)
(29.9592 0 0)
(30.0028 0 0)
(30.047 0 0)
(30.0917 0 0)
(30.1369 0 0)
(30.1827 0 0)
(30.229 0 0)
(30.2758 0 0)
(30.3231 0 0)
(30.371 0 0)
(30.4193 0 0)
(30.4683 0 0)
(30.5177 0 0)
(30.5676 0 0)
(30.6181 0 0)
(30.6691 0 0)
(30.7207 0 0)
(30.7727 0 0)
(30.8253 0 0)
(30.8784 0 0)
(30.9321 0 0)
(30.9863 0 0)
(31.041 0 0)
(31.0962 0 0)
(31.1519 0 0)
(31.2082 0 0)
(31.2651 0 0)
(31.3224 0 0)
(31.3803 0 0)
(31.4387 0 0)
(31.4976 0 0)
(31.557 0 0)
(31.617 0 0)
(31.6773 0 0)
(31.7382 0 0)
(31.7995 0 0)
(31.8611 0 0)
(31.9232 0 0)
(31.9855 0 0)
(32.0482 0 0)
(32.1113 0 0)
(32.1748 0 0)
(32.2386 0 0)
(32.3028 0 0)
(32.3674 0 0)
(32.4323 0 0)
(32.4977 0 0)
(32.5634 0 0)
(32.6295 0 0)
(32.696 0 0)
(32.7628 0 0)
(32.8301 0 0)
(32.8977 0 0)
(32.9658 0 0)
(33.0342 0 0)
(33.103 0 0)
(33.1722 0 0)
(33.2417 0 0)
(33.3117 0 0)
(33.382 0 0)
(33.4527 0 0)
(33.5238 0 0)
(33.5953 0 0)
(33.6671 0 0)
(33.7393 0 0)
(33.8119 0 0)
(33.8849 0 0)
(33.9582 0 0)
(34.0319 0 0)
(34.1059 0 0)
(34.1804 0 0)
(34.2552 0 0)
(34.3303 0 0)
(34.4059 0 0)
(34.4817 0 0)
(34.558 0 0)
(34.6346 0 0)
(34.7115 0 0)
(34.7888 0 0)
(34.8664 0 0)
(34.9444 0 0)
(35.0228 0 0)
(35.1015 0 0)
(35.1805 0 0)
(35.2599 0 0)
(35.3396 0 0)
(35.4197 0 0)
(35.5 0 0)
(35.5808 0 0)
(35.6618 0 0)
(35.7432 0 0)
(35.8249 0 0)
(35.907 0 0)
(35.9893 0 0)
(36.072 0 0)
(36.155 0 0)
(36.2384 0 0)
(36.322 0 0)
(36.406 0 0)
(36.4903 0 0)
(36.5749 0 0)
(36.6598 0 0)
(36.745 0 0)
(36.8306 0 0)
(36.9164 0 0)
(37.0025 0 0)
(37.089 0 0)
(37.1757 0 0)
(37.2628 0 0)
(37.3501 0 0)
(37.4378 0 0)
(37.5257 0 0)
(37.6139 0 0)
(37.7024 0 0)
(37.7913 0 0)
(37.8804 0 0)
(37.9697 0 0)
(38.0594 0 0)
(38.1494 0 0)
(38.2396 0 0)
(38.3301 0 0)
(38.4209 0 0)
(38.512 0 0)
(38.6033 0 0)
(38.695 0 0)
(38.7868 0 0)
(38.879 0 0)
(38.9714 0 0)
(39.0641 0 0)
(39.1571 0 0)
(39.2503 0 0)
(39.3438 0 0)
(39.4376 0 0)
(39.5316 0 0)
(39.6259 0 0)
(39.7204 0 0)
(39.8152 0 0)
(39.9103 0 0)
(40.0056 0 0)
(40.1011 0 0)
(40.1969 0 0)
(40.293 0 0)
(40.3893 0 0)
(40.4858 0 0)
(40.5826 0 0)
(40.6796 0 0)
(40.7769 0 0)
(40.8744 0 0)
(40.9722 0 0)
(41.0702 0 0)
(41.1684 0 0)
(41.2669 0 0)
(41.3655 0 0)
(41.4645 0 0)
(41.5636 0 0)
(41.663 0 0)
(41.7627 0 0)
(41.8625 0 0)
(41.9626 0 0)
(42.0629 0 0)
(42.1634 0 0)
(42.2642 0 0)
(42.3651 0 0)
(42.4663 0 0)
(42.5677 0 0)
(42.6694 0 0)
(42.7712 0 0)
(42.8733 0 0)
(42.9755 0 0)
(43.078 0 0)
(43.1807 0 0)
(43.2836 0 0)
(43.3868 0 0)
(43.4901 0 0)
(43.5936 0 0)
(43.6974 0 0)
(43.8013 0 0)
(43.9055 0 0)
(44.0098 0 0)
(44.1144 0 0)
(44.2192 0 0)
(44.3241 0 0)
(44.4293 0 0)
(44.5346 0 0)
(44.6402 0 0)
(44.7459 0 0)
(44.8519 0 0)
(44.958 0 0)
(45.0643 0 0)
(45.1709 0 0)
(45.2776 0 0)
(45.3845 0 0)
(45.4915 0 0)
(45.5988 0 0)
(45.7063 0 0)
(45.8139 0 0)
(45.9218 0 0)
(46.0298 0 0)
(46.138 0 0)
(46.2464 0 0)
(46.3549 0 0)
(46.4636 0 0)
(46.5726 0 0)
(46.6817 0 0)
(46.7909 0 0)
(46.9004 0 0)
(47.01 0 0)
(47.1198 0 0)
(47.2298 0 0)
(47.3399 0 0)
(47.4502 0 0)
(47.5607 0 0)
(47.6713 0 0)
(47.7822 0 0)
(47.8931 0 0)
(48.0043 0 0)
(48.1156 0 0)
(48.2271 0 0)
(48.3387 0 0)
(48.4505 0 0)
(48.5625 0 0)
(48.6747 0 0)
(48.7869 0 0)
(48.8994 0 0)
(49.012 0 0)
(49.1248 0 0)
(49.2377 0 0)
(49.3508 0 0)
(49.464 0 0)
(49.5774 0 0)
(49.691 0 0)
(49.8047 0 0)
(49.9185 0 0)
(50.0325 0 0)
(50.1467 0 0)
(50.261 0 0)
(50.3754 0 0)
(50.49 0 0)
(50.6048 0 0)
(50.7197 0 0)
(50.8347 0 0)
(50.9499 0 0)
(51.0652 0 0)
(51.1807 0 0)
(51.2963 0 0)
(51.412 0 0)
(51.5279 0 0)
(51.644 0 0)
(51.7601 0 0)
(51.8764 0 0)
(51.9929 0 0)
(52.1095 0 0)
(52.2262 0 0)
(52.3431 0 0)
(52.4601 0 0)
(52.5772 0 0)
(52.6945 0 0)
(52.8118 0 0)
(52.9294 0 0)
(53.047 0 0)
(53.1648 0 0)
(53.2827 0 0)
(53.4008 0 0)
(53.519 0 0)
(53.6373 0 0)
(53.7557 0 0)
(53.8743 0 0)
(53.9929 0 0)
(54.1117 0 0)
(54.2307 0 0)
(54.3497 0 0)
(54.4689 0 0)
(54.5882 0 0)
(54.7076 0 0)
(54.8272 0 0)
(54.9468 0 0)
(55.0666 0 0)
(55.1865 0 0)
(55.3066 0 0)
(55.4267 0 0)
(55.5469 0 0)
(55.6673 0 0)
(55.7878 0 0)
(55.9084 0 0)
(56.0291 0 0)
(56.15 0 0)
(56.2709 0 0)
(56.392 0 0)
(56.5131 0 0)
(56.6344 0 0)
(56.7558 0 0)
(56.8773 0 0)
(56.9989 0 0)
(57.1206 0 0)
(57.2424 0 0)
(57.3644 0 0)
(57.4864 0 0)
(57.6086 0 0)
(57.7308 0 0)
(57.8532 0 0)
(57.9756 0 0)
(58.0982 0 0)
(58.2209 0 0)
(58.3436 0 0)
(58.4665 0 0)
(58.5895 0 0)
(58.7126 0 0)
(58.8357 0 0)
(58.959 0 0)
(59.0824 0 0)
(59.2059 0 0)
(59.3294 0 0)
(59.4531 0 0)
(59.5769 0 0)
(59.7007 0 0)
(59.8247 0 0)
(59.9487 0 0)
(60.0729 0 0)
(60.1971 0 0)
(60.3215 0 0)
(60.4459 0 0)
(60.5704 0 0)
(60.695 0 0)
(60.8197 0 0)
(60.9445 0 0)
(61.0694 0 0)
(61.1944 0 0)
(61.3195 0 0)
(61.4446 0 0)
(61.5699 0 0)
(61.6952 0 0)
(61.8206 0 0)
(61.9461 0 0)
(62.0717 0 0)
(62.1974 0 0)
(62.3231 0 0)
(62.449 0 0)
(62.5749 0 0)
(62.7009 0 0)
(62.827 0 0)
(62.9532 0 0)
(63.0795 0 0)
(63.2058 0 0)
(63.3323 0 0)
(63.4588 0 0)
(63.5853 0 0)
(63.712 0 0)
(63.8388 0 0)
(63.9656 0 0)
(64.0925 0 0)
(64.2195 0 0)
(64.3465 0 0)
(64.4737 0 0)
(64.6009 0 0)
(64.7282 0 0)
(64.8555 0 0)
(64.983 0 0)
(65.1105 0 0)
(65.2381 0 0)
(65.3657 0 0)
(65.4935 0 0)
(65.6213 0 0)
(65.7492 0 0)
(65.8771 0 0)
(66.0051 0 0)
(66.1332 0 0)
(66.2614 0 0)
(66.3896 0 0)
(66.5179 0 0)
(66.6463 0 0)
(66.7748 0 0)
(66.9033 0 0)
(67.0319 0 0)
(67.1605 0 0)
(67.2892 0 0)
(67.418 0 0)
(67.5468 0 0)
(67.6758 0 0)
(67.8047 0 0)
(67.9338 0 0)
(68.0629 0 0)
(68.1921 0 0)
(68.3213 0 0)
(68.4506 0 0)
(68.58 0 0)
(68.7094 0 0)
(68.8389 0 0)
(68.9684 0 0)
(69.098 0 0)
(69.2277 0 0)
(69.3575 0 0)
(69.4873 0 0)
(69.6171 0 0)
(69.747 0 0)
(69.877 0 0)
(70.007 0 0)
(70.1371 0 0)
(70.2673 0 0)
(70.3975 0 0)
(70.5277 0 0)
(70.658 0 0)
(70.7884 0 0)
(70.9189 0 0)
(71.0493 0 0)
(71.1799 0 0)
(71.3105 0 0)
(71.4411 0 0)
(71.5718 0 0)
(71.7026 0 0)
(71.8334 0 0)
(71.9643 0 0)
(72.0952 0 0)
(72.2262 0 0)
(72.3572 0 0)
(72.4883 0 0)
(72.6194 0 0)
(72.7506 0 0)
(72.8818 0 0)
(73.0131 0 0)
(73.1444 0 0)
(73.2758 0 0)
(73.4072 0 0)
(73.5387 0 0)
(73.6702 0 0)
(73.8018 0 0)
(73.9334 0 0)
(74.0651 0 0)
(74.1968 0 0)
(74.3286 0 0)
(74.4604 0 0)
(74.5922 0 0)
(74.7241 0 0)
(74.8561 0 0)
(74.9881 0 0)
(75.1201 0 0)
(75.2522 0 0)
(75.3843 0 0)
(75.5165 0 0)
(75.6487 0 0)
(75.781 0 0)
(75.9133 0 0)
(76.0456 0 0)
(76.178 0 0)
(76.3105 0 0)
(76.4429 0 0)
(76.5754 0 0)
(76.708 0 0)
(76.8406 0 0)
(76.9732 0 0)
(77.1059 0 0)
(77.2386 0 0)
(77.3714 0 0)
(77.5042 0 0)
(77.637 0 0)
(77.7699 0 0)
(77.9028 0 0)
(78.0357 0 0)
(78.1687 0 0)
(78.3018 0 0)
(78.4348 0 0)
(78.5679 0 0)
(78.7011 0 0)
(78.8342 0 0)
(78.9675 0 0)
(79.1007 0 0)
(79.234 0 0)
(79.3673 0 0)
(79.5007 0 0)
(79.634 0 0)
(79.7675 0 0)
(79.9009 0 0)
(80.0344 0 0)
(80.1679 0 0)
(80.3015 0 0)
(80.4351 0 0)
(80.5687 0 0)
(80.7024 0 0)
(80.836 0 0)
(80.9698 0 0)
(81.1035 0 0)
(81.2373 0 0)
(81.3711 0 0)
(81.505 0 0)
(81.6388 0 0)
(81.7728 0 0)
(81.9067 0 0)
(82.0407 0 0)
(82.1747 0 0)
(82.3087 0 0)
(82.4427 0 0)
(82.5768 0 0)
(82.7109 0 0)
(82.8451 0 0)
(82.9793 0 0)
(83.1135 0 0)
(83.2477 0 0)
(83.3819 0 0)
(83.5162 0 0)
(83.6505 0 0)
(83.7849 0 0)
(83.9192 0 0)
(84.0536 0 0)
(84.188 0 0)
(84.3225 0 0)
(84.4569 0 0)
(84.5914 0 0)
(84.7259 0 0)
(84.8605 0 0)
(84.995 0 0)
(85.1296 0 0)
(85.2642 0 0)
(85.3989 0 0)
(85.5335 0 0)
(85.6682 0 0)
(85.8029 0 0)
(85.9376 0 0)
(86.0724 0 0)
(86.2072 0 0)
(86.342 0 0)
(86.4768 0 0)
(86.6116 0 0)
(86.7465 0 0)
(86.8814 0 0)
(87.0163 0 0)
(87.1512 0 0)
(87.2861 0 0)
(87.4211 0 0)
(87.5561 0 0)
(87.6911 0 0)
(87.8261 0 0)
(87.9612 0 0)
(88.0962 0 0)
(88.2313 0 0)
(88.3664 0 0)
(88.5015 0 0)
(88.6366 0 0)
(88.7718 0 0)
(88.907 0 0)
(89.0422 0 0)
(89.1774 0 0)
(89.3126 0 0)
(89.4478 0 0)
(89.5831 0 0)
(89.7184 0 0)
(89.8536 0 0)
(89.9889 0 0)
(90.1243 0 0)
(90.2596 0 0)
(90.395 0 0)
(90.5303 0 0)
(90.6657 0 0)
(90.8011 0 0)
(90.9365 0 0)
(91.0719 0 0)
(91.2074 0 0)
(91.3428 0 0)
(91.4783 0 0)
(91.6138 0 0)
(91.7493 0 0)
(91.8848 0 0)
(92.0203 0 0)
(92.1558 0 0)
(92.2914 0 0)
(92.4269 0 0)
(92.5625 0 0)
(92.698 0 0)
(92.8336 0 0)
(92.9692 0 0)
(93.1048 0 0)
(93.2405 0 0)
(93.3761 0 0)
(93.5117 0 0)
(93.6474 0 0)
(93.7831 0 0)
(93.9187 0 0)
(94.0544 0 0)
(94.1901 0 0)
(94.3258 0 0)
(94.4615 0 0)
(94.5972 0 0)
(94.733 0 0)
(94.8687 0 0)
(95.0044 0 0)
(95.1402 0 0)
(95.2759 0 0)
(95.4117 0 0)
(95.5475 0 0)
(95.6833 0 0)
(95.819 0 0)
(95.9548 0 0)
(96.0906 0 0)
(96.2264 0 0)
(96.3622 0 0)
(96.4981 0 0)
(96.6339 0 0)
(96.7697 0 0)
(96.9055 0 0)
(97.0414 0 0)
(97.1772 0 0)
(97.3131 0 0)
(97.4489 0 0)
(97.5848 0 0)
(97.7206 0 0)
(97.8565 0 0)
(97.9923 0 0)
(98.1282 0 0)
(98.2641 0 0)
(98.4 0 0)
(98.5358 0 0)
(98.6717 0 0)
(98.8076 0 0)
(98.9435 0 0)
(99.0794 0 0)
(99.2152 0 0)
(99.3511 0 0)
(99.487 0 0)
(99.6229 0 0)
(99.7588 0 0)
(99.8947 0 0)
(100.031 0 0)
(100.166 0 0)
(100.302 0 0)
(100.438 0 0)
(100.574 0 0)
(100.71 0 0)
(100.846 0 0)
(100.982 0 0)
(101.118 0 0)
(101.254 0 0)
(101.389 0 0)
(101.525 0 0)
(101.661 0 0)
(101.797 0 0)
(101.933 0 0)
(102.069 0 0)
(102.205 0 0)
(102.341 0 0)
(102.476 0 0)
(102.612 0 0)
(102.748 0 0)
(102.884 0 0)
(103.02 0 0)
(103.156 0 0)
(103.292 0 0)
(103.427 0 0)
(103.563 0 0)
(103.699 0 0)
(103.835 0 0)
(103.971 0 0)
(104.106 0 0)
(104.242 0 0)
(104.378 0 0)
(104.514 0 0)
(104.65 0 0)
(104.785 0 0)
(104.921 0 0)
(105.057 0 0)
(105.193 0 0)
(105.328 0 0)
(105.464 0 0)
(105.6 0 0)
(105.736 0 0)
(105.871 0 0)
(106.007 0 0)
(106.143 0 0)
(106.278 0 0)
(106.414 0 0)
(106.55 0 0)
(106.685 0 0)
(106.821 0 0)
(106.957 0 0)
(107.092 0 0)
(107.228 0 0)
(107.364 0 0)
(107.499 0 0)
(107.635 0 0)
(107.77 0 0)
(107.906 0 0)
(108.041 0 0)
(108.177 0 0)
(108.312 0 0)
(108.448 0 0)
(108.583 0 0)
(108.719 0 0)
(108.854 0 0)
(108.99 0 0)
(109.125 0 0)
(109.261 0 0)
(109.396 0 0)
(109.532 0 0)
(109.667 0 0)
(109.802 0 0)
(109.938 0 0)
(110.073 0 0)
(110.209 0 0)
(110.344 0 0)
(110.479 0 0)
(110.614 0 0)
(110.75 0 0)
(110.885 0 0)
(111.02 0 0)
(111.155 0 0)
(111.291 0 0)
(111.426 0 0)
(111.561 0 0)
(111.696 0 0)
(111.831 0 0)
(111.966 0 0)
(112.101 0 0)
(112.236 0 0)
(112.371 0 0)
(112.506 0 0)
(112.641 0 0)
(112.776 0 0)
(112.911 0 0)
(113.046 0 0)
(113.181 0 0)
(113.316 0 0)
(113.451 0 0)
(113.585 0 0)
(113.72 0 0)
(113.855 0 0)
(113.989 0 0)
(114.124 0 0)
(114.259 0 0)
(114.393 0 0)
(114.528 0 0)
(114.662 0 0)
(114.797 0 0)
(114.934 0 0)
)
;

boundaryField
{
    sides
    {
        type            zeroGradient;
    }
    empty
    {
        type            empty;
    }
}


// ************************************************************************* //
