/*--------------------------------*- C++ -*----------------------------------*\
  =========                 |
  \\      /  F ield         | OpenFOAM: The Open Source CFD Toolbox
   \\    /   O peration     | Website:  https://openfoam.org
    \\  /    A nd           | Version:  13
     \\/     M anipulation  |
\*---------------------------------------------------------------------------*/
FoamFile
{
    format      ascii;
    class       volScalarField;
    location    "45.203273";
    object      nut;
}
// * * * * * * * * * * * * * * * * * * * * * * * * * * * * * * * * * * * * * //

dimensions      [0 2 -1 0 0 0 0];

internalField   nonuniform List<scalar> 
17140
(
1.8240784e-18
3.5475913e-16
9.4491374e-15
9.5794694e-14
5.7933759e-13
2.5667856e-12
9.2687385e-12
2.9004944e-11
8.1720327e-11
2.1259794e-10
5.1970409e-10
1.2088913e-09
2.7008895e-09
5.8371221e-09
1.2270394e-08
2.5198774e-08
5.0731787e-08
1.004139e-07
1.9585354e-07
3.7716185e-07
7.1824904e-07
1.3544e-06
2.5317147e-06
4.6952237e-06
8.6448204e-06
1.5808565e-05
2.8714797e-05
5.1788184e-05
9.2635313e-05
0.00016395937
0.00028598123
0.00048847008
0.00081018623
0.0012928953
0.0019694779
0.0028508961
0.0039193163
0.005130534
0.0064229201
0.0077283356
0.0089824273
0.010132962
0.011129303
0.011958924
0.012680166
0.013279274
0.013780997
0.014219088
0.014623622
0.015016249
0.015408499
0.015803253
0.016202246
0.016603482
0.016947552
0.017132439
0.01686859
0.015794724
0.013343478
0.0091132612
0.0052343412
0.0070547659
0.014211652
0.017532725
0.0089393497
1.791848e-18
3.4849046e-16
9.2821758e-15
9.4102179e-14
5.6910224e-13
2.5214351e-12
9.1049527e-12
2.8492279e-11
8.027541e-11
2.0883722e-10
5.105056e-10
1.1874795e-09
2.6530106e-09
5.7335396e-09
1.2052376e-08
2.475036e-08
4.9827316e-08
9.8619532e-08
1.9234366e-07
3.7037867e-07
7.0527415e-07
1.329798e-06
2.4854108e-06
4.6086192e-06
8.4837019e-06
1.5510231e-05
2.8164924e-05
5.0780118e-05
9.080136e-05
0.00016066409
0.00028018163
0.00047859585
0.00079417508
0.0012685542
0.001935183
0.0028063299
0.0038658307
0.0050709841
0.0063611248
0.0076684772
0.0089284607
0.010088148
0.011096845
0.011938671
0.012671271
0.013282579
0.013794752
0.014241318
0.014651917
0.015047499
0.015437643
0.015822387
0.016198699
0.016545186
0.016786768
0.0167503
0.016085126
0.014461387
0.011117983
0.0061069125
0.00281959
0.0043943362
0.011268082
0.017949093
0.012886227
1.747432e-18
3.3985209e-16
9.0520851e-15
9.1769405e-14
5.5499241e-13
2.4589068e-12
8.8790899e-12
2.7785192e-11
7.8282224e-11
2.0364878e-10
4.9781331e-10
1.1579314e-09
2.586931e-09
5.5905682e-09
1.1751431e-08
2.4131355e-08
4.8578736e-08
9.614256e-08
1.87499e-07
3.6101751e-07
6.8737309e-07
1.2958697e-06
2.4215934e-06
4.4893623e-06
8.2621027e-06
1.5100563e-05
2.7411402e-05
4.9402228e-05
8.8302089e-05
0.00015618785
0.00027232765
0.00046525357
0.00077255182
0.0012356129
0.0018885144
0.0027450909
0.003791224
0.0049860799
0.0062702199
0.0075763159
0.0088395064
0.010006014
0.011024838
0.011876581
0.012617749
0.013237604
0.013756096
0.014206373
0.014617185
0.015008588
0.015388831
0.015754952
0.016098765
0.016110703
0.016079285
0.016300875
0.015329902
0.013202334
0.0092041435
0.0043992447
0.0021883754
0.0026834518
0.0070322661
0.017859678
0.017105806
1.690919e-18
3.2886101e-16
8.759329e-15
8.8801327e-14
5.3704051e-13
2.3793561e-12
8.5917587e-12
2.688575e-11
7.5747082e-11
1.9705041e-10
4.8167424e-10
1.1203652e-09
2.5029354e-09
5.4088706e-09
1.136906e-08
2.3345078e-08
4.6993246e-08
9.2998345e-08
1.813519e-07
3.4914559e-07
6.6468418e-07
1.2528973e-06
2.3408335e-06
4.3386002e-06
7.9823091e-06
1.458408e-05
2.6463076e-05
4.7671606e-05
8.5169867e-05
0.00015059006
0.00026252307
0.00044861116
0.00074555942
0.0011943725
0.0018297732
0.002667388
0.0036955183
0.0048755869
0.0061496744
0.0074510354
0.008714515
0.0098853636
0.010912244
0.011771933
0.012519042
0.013143719
0.013664248
0.014112963
0.014518122
0.014899061
0.015262146
0.015600755
0.015474252
0.014901925
0.01450161
0.014378071
0.014632685
0.012198959
0.0080257836
0.0041265113
0.0021571775
0.0016421396
0.0045849279
0.016062086
0.018970724
1.6230395e-18
3.1565934e-16
8.4076949e-15
8.5236367e-14
5.1547899e-13
2.2838136e-12
8.2466847e-12
2.5805626e-11
7.2702922e-11
1.8912794e-10
4.6229874e-10
1.0752715e-09
2.4021239e-09
5.190834e-09
1.0910305e-08
2.2401941e-08
4.5091948e-08
8.9228989e-08
1.7398525e-07
3.3492444e-07
6.375195e-07
1.2014797e-06
2.244274e-06
4.1585052e-06
7.6484377e-06
1.3968561e-05
2.5334582e-05
4.5615598e-05
8.1455146e-05
0.0001439617
0.00025092556
0.00042892529
0.00071357914
0.0011453334
0.0017595208
0.002573736
0.0035790566
0.0047395705
0.0059992097
0.0072919943
0.0085525019
0.0097249106
0.010757543
0.0116232
0.012373507
0.012999615
0.01351796
0.013960422
0.014354349
0.014717254
0.015053429
0.015293023
0.014475192
0.013689856
0.01304692
0.012568846
0.01280079
0.011556358
0.0075028435
0.0045567375
0.0024786927
0.0012153607
0.0034899362
0.012500955
0.020074321
1.5448728e-18
3.0045696e-16
8.002772e-15
8.1131173e-14
4.9065039e-13
2.1737973e-12
7.8493522e-12
2.4561994e-11
6.9198168e-11
1.8000748e-10
4.3999541e-10
1.0233692e-09
2.2861051e-09
4.9399422e-09
1.0382508e-08
2.131707e-08
4.2905418e-08
8.4895316e-08
1.6551843e-07
3.1858567e-07
6.0632426e-07
1.142466e-06
2.1335244e-06
3.9521128e-06
7.2661891e-06
1.3264667e-05
2.4045767e-05
4.3270895e-05
7.7224976e-05
0.00013642282
0.00023774283
0.0004065362
0.0006771252
0.0010891934
0.0016785861
0.002464977
0.0034425417
0.0045784539
0.0058188709
0.0070988113
0.0083526517
0.0095234182
0.010559046
0.011428248
0.012179288
0.012802331
0.013314121
0.013744614
0.014120119
0.014457206
0.014759478
0.014430677
0.013473412
0.012566617
0.011768895
0.011142702
0.011403388
0.011189039
0.0074450049
0.0050163539
0.0025848317
0.0010959681
0.0027878993
0.0077950291
0.019678422
1.4577848e-18
2.8351954e-16
7.5516369e-15
7.6557492e-14
4.6298868e-13
2.0512304e-12
7.4067075e-12
2.3176601e-11
6.5294124e-11
1.6984862e-10
4.1515469e-10
9.6556731e-10
2.1569126e-09
4.6605968e-09
9.7949389e-09
2.010955e-08
4.0472189e-08
8.0073874e-08
1.5610144e-07
3.0041987e-07
5.7165589e-07
1.0769169e-06
2.0105897e-06
3.7231913e-06
6.8426106e-06
1.2485518e-05
2.2620934e-05
4.0682203e-05
7.2560687e-05
0.00012811867
0.00022322643
0.00038185876
0.0006368344
0.00102684
0.0015880677
0.0023422973
0.0032870718
0.0043930695
0.0056090858
0.0068714243
0.0081143702
0.0092797394
0.01031497
0.011184554
0.011931326
0.012547531
0.013047461
0.013459651
0.013809702
0.014114656
0.014378029
0.013520185
0.012499871
0.011509132
0.010609047
0.010017569
0.010692635
0.010895192
0.0075085088
0.0051201306
0.0024324249
0.0010353078
0.0019650262
0.0055861276
0.016092529
1.3633816e-18
2.6515942e-16
7.0626079e-15
7.1599662e-14
4.3300401e-13
1.9183735e-12
6.9269154e-12
2.1675002e-11
6.1062823e-11
1.5883884e-10
3.8823514e-10
9.029334e-10
2.0169336e-09
4.3579629e-09
9.1584713e-09
1.8801748e-08
3.7837395e-08
7.4854255e-08
1.4590965e-07
2.8076631e-07
5.3416422e-07
1.0060667e-06
1.8777975e-06
3.4761037e-06
6.3858388e-06
1.1646213e-05
2.1087949e-05
3.7900598e-05
6.7554934e-05
0.00011921453
0.0002076632
0.00035536961
0.00059344961
0.0009593342
0.0014893254
0.0022072383
0.0031141734
0.0041847132
0.0053707352
0.006610167
0.0078373562
0.008992869
0.010023586
0.010890099
0.011628355
0.012231871
0.012713206
0.013099832
0.013416778
0.013680294
0.013697669
0.012594222
0.011513399
0.010450323
0.00952987
0.0092627904
0.01058078
0.01035704
0.0071904639
0.0048370133
0.001888426
0.00097553288
0.0011862195
0.0042296018
0.0097687651
1.2634563e-18
2.4572524e-16
6.5449687e-15
6.6351808e-14
4.0126574e-13
1.7777495e-12
6.4190873e-12
2.0085716e-11
5.6584633e-11
1.4718729e-10
3.5974828e-10
8.3665781e-10
1.8688291e-09
4.0377961e-09
8.4852164e-09
1.7418568e-08
3.5051261e-08
6.9336077e-08
1.351379e-07
2.6000149e-07
4.9456938e-07
9.3128082e-07
1.7377175e-06
3.2156559e-06
5.90481e-06
1.0763281e-05
1.9477219e-05
3.4981639e-05
6.2308252e-05
0.00010988962
0.00019136496
0.00032759109
0.00054779741
0.00088788527
0.0013839615
0.0020616935
0.0029258266
0.003955199
0.0051052315
0.0063158639
0.0075217011
0.0086620025
0.0096829675
0.010542538
0.011266763
0.011850818
0.012305674
0.012657261
0.01292972
0.013137923
0.012775996
0.011608863
0.010444295
0.0093462981
0.0085976203
0.0089764024
0.011031123
0.0092476205
0.0064895094
0.0038631863
0.0013592664
0.0007823746
0.00070289387
0.0027991057
0.0065050722
1.159924e-18
2.2558958e-16
6.0086466e-15
6.0914571e-14
3.6838248e-13
1.6320549e-12
5.8929617e-12
1.8439222e-11
5.194544e-11
1.3511745e-10
3.3024053e-10
7.6801206e-10
1.7154413e-09
3.7062418e-09
7.7881008e-09
1.5986579e-08
3.2167332e-08
6.3625479e-08
1.2399359e-07
2.3852574e-07
4.5363607e-07
8.5400679e-07
1.5930688e-06
2.9469207e-06
5.4089322e-06
9.8540725e-06
1.7820559e-05
3.1983272e-05
5.6925249e-05
0.00010033027
0.00017465688
0.00029907233
0.00050076049
0.0008138162
0.0012737872
0.0019078923
0.0027244772
0.0037069075
0.0048146023
0.0059899462
0.0071680416
0.0082867097
0.0092904683
0.010139737
0.010842133
0.011398085
0.011816021
0.012119607
0.012331513
0.012464464
0.011755353
0.010487798
0.0092452042
0.0082454185
0.008035262
0.0092653986
0.010466773
0.0075540903
0.0054184641
0.0022518027
0.00093709496
0.00062287166
0.00048543252
0.0016510722
0.0057993026
1.0547569e-18
2.05136e-16
5.4638579e-15
5.5391517e-14
3.3498052e-13
1.4840647e-12
5.35856e-12
1.6766882e-11
4.7233608e-11
1.228592e-10
3.0027391e-10
6.9830361e-10
1.5596917e-09
3.3696152e-09
7.0804048e-09
1.4533067e-08
2.9240572e-08
5.7831328e-08
1.1268928e-07
2.1674894e-07
4.1214622e-07
7.7572244e-07
1.4466217e-06
2.6750544e-06
4.9077412e-06
8.9361178e-06
1.6150004e-05
2.8963657e-05
5.1510653e-05
9.0722929e-05
0.00015786507
0.00027036861
0.00045324561
0.00073851998
0.0011607738
0.0017483605
0.0025130272
0.0034428181
0.0045015671
0.0056345719
0.0067777806
0.0078678199
0.0088477191
0.0096755484
0.010348932
0.010865911
0.011232962
0.011470608
0.011598827
0.011627541
0.010551398
0.0091726133
0.0079788671
0.0074179708
0.0081077959
0.0098467329
0.0082151312
0.0055754779
0.0034980709
0.0011653323
0.0006911044
0.00050875713
0.00040524625
0.0008130594
0.002446059
9.4990658e-19
1.84744e-16
4.9207088e-15
4.988511e-14
3.0167954e-13
1.3365243e-12
4.8257946e-12
1.5099713e-11
4.2536524e-11
1.1063989e-10
2.7040409e-10
6.2882489e-10
1.4044675e-09
3.0341561e-09
6.3752438e-09
1.3084963e-08
2.6325204e-08
5.2060957e-08
1.0143433e-07
1.9507438e-07
3.7086809e-07
6.9787728e-07
1.301088e-06
2.4050919e-06
4.4105216e-06
8.0264295e-06
1.4496536e-05
2.5978848e-05
4.6165118e-05
8.1246583e-05
0.0001413035
0.00024201904
0.00040614772
0.00066340723
0.0010469879
0.001585858
0.0022947967
0.0031665157
0.00416959
0.0052526892
0.0063529734
0.0074060261
0.0083528875
0.0091483596
0.0097812986
0.010245009
0.010542491
0.010689542
0.010700991
0.010583243
0.009106522
0.0077441811
0.0069342972
0.0072122326
0.0082213702
0.0073932291
0.0053469047
0.0038763187
0.0014111357
0.00065052853
0.00047870894
0.00041079665
0.00038418138
0.00051788873
0.001044209
8.4722585e-19
1.6477399e-16
4.3888003e-15
4.4492683e-14
2.6906819e-13
1.1920415e-12
4.3040817e-12
1.3467177e-11
3.7937179e-11
9.8675369e-11
2.4115866e-10
5.6080283e-10
1.2525092e-09
2.7057851e-09
5.6850587e-09
1.1667805e-08
2.3472614e-08
4.6416011e-08
9.0426855e-08
1.7388323e-07
3.3052683e-07
6.2183713e-07
1.1590173e-06
2.1417544e-06
3.9259519e-06
7.1408517e-06
1.288889e-05
2.3080627e-05
4.0981314e-05
7.2065777e-05
0.00012526139
0.00021452423
0.00036031197
0.00058984654
0.00093450915
0.0014232863
0.0020734486
0.0028821597
0.0038229125
0.0048481373
0.0058965425
0.0069027364
0.0078052383
0.0085552954
0.0091325651
0.0095245776
0.0097279305
0.0097517362
0.0096020357
0.0090102637
0.0075120424
0.0064898487
0.006422046
0.0066892392
0.0058234461
0.0043138723
0.0031907458
0.0014329549
0.0005681268
0.00043613308
0.00037936851
0.00035778658
0.00038787655
0.00044462461
0.00065217967
7.4839735e-19
1.4555314e-16
3.8768461e-15
3.9302561e-14
2.3768054e-13
1.0529823e-12
3.8019633e-12
1.1895999e-11
3.3510852e-11
8.7161405e-11
2.1301595e-10
4.9534952e-10
1.1063e-09
2.3898646e-09
5.0211128e-09
1.03047e-08
2.0729261e-08
4.0988298e-08
7.9845579e-08
1.5351884e-07
2.9177443e-07
5.4882714e-07
1.0226901e-06
1.8892507e-06
3.4617372e-06
6.293386e-06
1.1352334e-05
2.0314288e-05
3.6039938e-05
6.3323476e-05
0.00010999059
0.0001883246
0.00031649688
0.00051910442
0.00082534057
0.0012635753
0.0018528751
0.0025944073
0.0034665425
0.0044257205
0.00541245
0.0063603375
0.0072048859
0.0078933621
0.0083948421
0.0086927925
0.0087708116
0.0086315474
0.008274087
0.0072462015
0.0060348643
0.0056623534
0.005397944
0.0044447336
0.0031295065
0.0022953641
0.0010888489
0.00046339556
0.00033581003
0.00030614039
0.00030867958
0.00034829266
0.00042043398
0.00048536244
0.0005900667
6.5489946e-19
1.2736904e-16
3.392506e-15
3.4392403e-14
2.0798624e-13
9.2142709e-13
3.3269498e-12
1.0409674e-11
2.9323706e-11
7.6270038e-11
1.8639626e-10
4.3344191e-10
9.6802043e-10
2.0911027e-09
4.3932899e-09
9.0159128e-09
1.8135865e-08
3.585823e-08
6.9846879e-08
1.3428126e-07
2.5517969e-07
4.7991389e-07
8.9408649e-07
1.6512226e-06
3.0245181e-06
5.4960417e-06
9.9084202e-06
1.7718245e-05
3.1409074e-05
5.5139879e-05
9.5702943e-05
0.0001637932
0.00027535603
0.00045230353
0.00072132854
0.0011095594
0.0016370483
0.0023082762
0.0031061696
0.0039911978
0.0049057662
0.005782332
0.0065529992
0.0071594431
0.0075608022
0.0077371802
0.0076539621
0.0073114949
0.0067483155
0.0055507403
0.0049191271
0.0043160148
0.0033635214
0.0022289116
0.0014880792
0.00069653214
0.00034323248
0.00026308077
0.00024283183
0.0002560621
0.00029729461
0.00036083314
0.00043720082
0.00052785381
0.0006179236
5.6797385e-19
1.1046319e-16
2.942215e-15
2.9827454e-14
1.8037984e-13
7.9912349e-13
2.8853495e-12
9.0279309e-12
2.5431293e-11
6.614568e-11
1.6165231e-10
3.7589958e-10
8.3949948e-10
1.8134459e-09
3.8098719e-09
7.8184156e-09
1.572651e-08
3.1093049e-08
6.0561391e-08
1.1642083e-07
2.2121641e-07
4.1598404e-07
7.7484828e-07
1.4306798e-06
2.6197589e-06
4.7586478e-06
8.5746729e-06
1.5323496e-05
2.7143202e-05
4.7610437e-05
8.2565941e-05
0.00014122569
0.00023741441
0.00039037236
0.00062407567
0.00096384682
0.0014298412
0.0020289364
0.002747969
0.003551128
0.0043825464
0.0051732908
0.005851042
0.0063505959
0.0066264023
0.0066467648
0.006370288
0.0058120646
0.0050196058
0.0042085749
0.0034476474
0.0024966084
0.0015841476
0.00091946738
0.00043882967
0.00022490703
0.00018957304
0.00019067581
0.00021206257
0.00026018509
0.0003265826
0.00037684788
0.00042835357
0.0005447052
0.00060832603
4.8856218e-19
9.5018745e-17
2.5308491e-15
2.5657129e-14
1.5516008e-13
6.8739456e-13
2.4819376e-12
7.7657042e-12
2.1875656e-11
5.6897589e-11
1.3905083e-10
3.2334207e-10
7.2211881e-10
1.5598741e-09
3.2771064e-09
6.7249984e-09
1.3526843e-08
2.674328e-08
5.2087069e-08
1.0012476e-07
1.9023776e-07
3.5769567e-07
6.6618739e-07
1.2298287e-06
2.251431e-06
4.0882716e-06
7.3635298e-06
1.3151707e-05
2.3279791e-05
4.0799869e-05
7.0692513e-05
0.00012082418
0.00020304683
0.00033402113
0.00053489277
0.00082868882
0.001234791
0.0017613931
0.0023982455
0.0031125105
0.0038494468
0.0045380945
0.005101006
0.0054662593
0.0055899313
0.0054224695
0.0049412951
0.0042544702
0.0035360367
0.0027156762
0.0018511393
0.0011186319
0.00055934726
0.00027101421
0.00014509917
0.00012921781
0.00014344171
0.00017350353
0.00022499478
0.00028928637
0.00029785209
0.00032073697
0.00036658093
0.00046430276
0.00055700551
4.1729224e-19
8.1157717e-17
2.1616572e-15
2.191436e-14
1.3252607e-13
5.8712209e-13
2.119896e-12
6.6329418e-12
1.8684791e-11
4.8598506e-11
1.1876938e-10
2.7618162e-10
6.1679739e-10
1.332368e-09
2.7991436e-09
5.7441494e-09
1.1553869e-08
2.284237e-08
4.4488645e-08
8.5516466e-08
1.6247582e-07
3.0547939e-07
5.6889243e-07
1.0500948e-06
1.922076e-06
3.4893826e-06
6.2827415e-06
1.1216152e-05
1.9841397e-05
3.4746626e-05
6.0149622e-05
0.00010271042
0.0001724858
0.00028370657
0.00045467385
0.00070576261
0.0010547839
0.001510047
0.0020628781
0.0026821506
0.0033131189
0.0038819045
0.0043059383
0.0045113268
0.0044586669
0.0040933417
0.0034647844
0.0027961734
0.0020878995
0.0013485702
0.00077776743
0.00035724099
0.00016912016
9.338395e-05
8.8492515e-05
0.00010590925
0.00014063668
0.00019305403
0.00025531853
0.00025193419
0.00024690813
0.00028504372
0.00033865683
0.00044061115
0.00054163194
3.5445064e-19
6.8935841e-17
1.8361238e-15
1.86142e-14
1.1256879e-13
4.9870872e-13
1.8006767e-12
5.6341798e-12
1.5871451e-11
4.1281519e-11
1.0088858e-10
2.3460506e-10
5.2395069e-10
1.1318204e-09
2.3778476e-09
4.8796654e-09
9.8151526e-09
1.9405093e-08
3.7794458e-08
7.2649395e-08
1.3802968e-07
2.5951592e-07
4.8328696e-07
8.9204514e-07
1.6326638e-06
2.9635872e-06
5.3348581e-06
9.5206512e-06
1.6833388e-05
2.9457986e-05
5.0947707e-05
8.6904108e-05
0.00014578404
0.00023958614
0.00038384868
0.0005960789
0.0008918076
0.0012782217
0.0017465805
0.0022656742
0.0027791388
0.0032094888
0.0034712215
0.0035043541
0.0032640333
0.0027502783
0.0021487502
0.0015501146
0.00095718951
0.0004977601
0.00022671601
0.00010918921
6.1504084e-05
6.1771329e-05
8.0196037e-05
0.00011520821
0.00016672261
0.00022641546
0.00021431993
0.00020225186
0.00020667142
0.00023927924
0.00029066758
0.00039066416
0.00052280372
2.9999811e-19
5.8345556e-17
1.5540492e-15
1.5754616e-14
9.5275909e-14
4.220996e-13
1.52408e-12
4.7687858e-12
1.343383e-11
3.4941852e-11
8.5396524e-11
1.9858404e-10
4.435137e-10
9.5808645e-10
2.0129023e-09
4.1308678e-09
8.3092549e-09
1.6428423e-08
3.199815e-08
6.1510165e-08
1.1687103e-07
2.1974489e-07
4.0924169e-07
7.5540335e-07
1.3826082e-06
2.5096677e-06
4.5174354e-06
8.0605099e-06
1.4246894e-05
2.4916676e-05
4.305314e-05
7.334386e-05
0.00012284764
0.00020155525
0.00032239284
0.00049988891
0.0007466896
0.0010676074
0.0014519537
0.0018662471
0.0022509028
0.0025258198
0.0026151448
0.0024777252
0.0020980053
0.0015988346
0.0011192441
0.00065813354
0.00030476906
0.00014288784
7.0651247e-05
4.1857906e-05
4.4535964e-05
6.2930911e-05
9.6782433e-05
0.00014592615
0.00020237449
0.00018806552
0.000167696
0.00016674384
0.00018560306
0.00022096505
0.00027257363
0.00036767141
0.00050320001
2.5357842e-19
4.9317578e-17
1.3135876e-15
1.3316897e-14
8.0534249e-14
3.5679296e-13
1.2882925e-12
4.0310794e-12
1.1355903e-11
2.9537752e-11
7.2190958e-11
1.678802e-10
3.7495253e-10
8.1000888e-10
1.7018667e-09
3.4927231e-09
7.0259914e-09
1.3892077e-08
2.7059861e-08
5.2021291e-08
9.8850568e-08
1.8588042e-07
3.4621119e-07
6.3912862e-07
1.1699144e-06
2.1237653e-06
3.8229151e-06
6.8208061e-06
1.2053045e-05
2.1070266e-05
3.6377916e-05
6.1889768e-05
0.00010344606
0.00016924304
0.00026977933
0.00041654874
0.00061877089
0.00087761693
0.0011784598
0.0014835128
0.0017300991
0.0018425124
0.001777949
0.0015158805
0.0011392331
0.00077401049
0.00043485564
0.00018460086
8.8785407e-05
4.593609e-05
2.9053147e-05
3.3266878e-05
5.0892446e-05
8.3235167e-05
0.00012917166
0.00018237663
0.00017423559
0.00015098675
0.0001443744
0.00015038707
0.00016422159
0.00020096076
0.00025699509
0.00036068342
0.0005243166
2.1451052e-19
4.1719398e-17
1.1112085e-15
1.1265246e-14
6.8127265e-14
3.0182918e-13
1.0898479e-12
3.4102098e-12
9.6070842e-12
2.4989604e-11
6.107714e-11
1.4204024e-10
3.1725356e-10
6.8539487e-10
1.4401258e-09
2.9557404e-09
5.9462212e-09
1.1758088e-08
2.2905341e-08
4.4039297e-08
8.3693849e-08
1.5740208e-07
2.9321564e-07
5.4138729e-07
9.9116783e-07
1.7995468e-06
3.2395808e-06
5.7798379e-06
1.0211096e-05
1.7840093e-05
3.0768131e-05
5.2254049e-05
8.7106453e-05
0.00014192942
0.00022486497
0.00034433493
0.00050557143
0.00070485338
0.00092196041
0.0011145059
0.0012222436
0.0011990071
0.0010290052
0.00076683819
0.00050868148
0.00026455183
0.00011311467
5.5290492e-05
3.0089134e-05
2.069876e-05
2.5583196e-05
4.2218856e-05
7.2313331e-05
0.00011557322
0.00016507832
0.00016494086
0.00014307774
0.0001335872
0.00013134048
0.00013727485
0.00015471041
0.00018656169
0.00023934257
0.00034381129
0.00052100573
1.817591e-19
3.5349679e-17
9.4154935e-16
9.5452976e-15
5.7726169e-14
2.5575142e-13
9.2348504e-13
2.8897107e-12
8.1409726e-12
2.1176674e-11
5.1759864e-11
1.2037727e-10
2.6888166e-10
5.8092547e-10
1.2206993e-09
2.5055764e-09
5.0410456e-09
9.969202e-09
1.9422775e-08
3.7348496e-08
7.0989214e-08
1.3353128e-07
2.4879375e-07
4.5945458e-07
8.4131536e-07
1.5276828e-06
2.7502717e-06
4.9061466e-06
8.6636273e-06
1.5121949e-05
2.6035028e-05
4.4088698e-05
7.316498e-05
0.00011841149
0.00018574813
0.00028028731
0.00040268444
0.000543439
0.0006768766
0.00076104076
0.00075742655
0.00065274016
0.00048333823
0.00031390661
0.00015160578
6.5960053e-05
3.4503835e-05
2.0045651e-05
1.5213492e-05
2.0270495e-05
3.5569786e-05
6.3165132e-05
0.00010325409
0.00015027603
0.00015601716
0.00013914679
0.00012951754
0.00012367344
0.00012339363
0.00013058855
0.00014736473
0.00018443615
0.00024289597
0.00035359069
0.00054695462
1.5392103e-19
2.9935554e-17
7.9734312e-16
8.0833807e-15
4.8885419e-14
2.1658566e-13
7.8207559e-13
2.447274e-12
6.8947123e-12
1.7935423e-11
4.3839303e-11
1.019611e-10
2.2775812e-10
4.9210681e-10
1.0341367e-09
2.122813e-09
4.2713441e-09
8.4479153e-09
1.6460811e-08
3.1656961e-08
6.0179554e-08
1.1321452e-07
2.1096901e-07
3.8964704e-07
7.1353127e-07
1.2955853e-06
2.331868e-06
4.1574251e-06
7.3335112e-06
1.2775873e-05
2.1926246e-05
3.6943833e-05
6.0833318e-05
9.7312659e-05
0.00015006436
0.00022064234
0.00030486144
0.00038820013
0.00044441557
0.00044675171
0.00038555255
0.00028375068
0.00017768827
8.2916938e-05
3.8349242e-05
2.1077819e-05
1.361205e-05
1.1468454e-05
1.6547961e-05
3.0309327e-05
5.5402985e-05
9.2091558e-05
0.00013570174
0.00014723836
0.00013535905
0.00012888194
0.00012281513
0.0001199375
0.00012136533
0.00013091462
0.00014846407
0.00018042063
0.00023729104
0.00035038125
0.00056525702
1.2930123e-19
2.5147347e-17
6.6980835e-16
6.7904663e-15
4.1066591e-14
1.819464e-13
6.5700521e-13
2.0559421e-12
5.7923479e-12
1.5068237e-11
3.6832317e-11
8.5667659e-11
1.9137088e-10
4.1350772e-10
8.6901481e-10
1.7839741e-09
3.5898066e-09
7.1004679e-09
1.3836273e-08
2.6611193e-08
5.0589863e-08
9.517459e-08
1.7734364e-07
3.2749364e-07
5.9952762e-07
1.0879702e-06
1.9563172e-06
3.4824254e-06
6.1276133e-06
1.0633758e-05
1.8141399e-05
3.029134e-05
4.9207319e-05
7.7155161e-05
0.00011543695
0.00016218386
0.00020952734
0.00024242336
0.00024486429
0.0002110741
0.00015411887
9.2362167e-05
4.3781436e-05
2.1517206e-05
1.30609e-05
9.2587774e-06
8.9000165e-06
1.3606201e-05
2.6081394e-05
4.8661024e-05
8.2299615e-05
0.00012285444
0.00013773268
0.00013160734
0.0001280751
0.00012439098
0.00012092309
0.00012026389
0.00012367239
0.00013221306
0.0001494121
0.00018647991
0.00024757722
0.00036816654
0.0005972919
1.0618446e-19
2.0651449e-17
5.5005889e-16
5.5764659e-15
3.3724847e-14
1.4941969e-13
5.3955705e-13
1.6884366e-12
4.7570194e-12
1.2375141e-11
3.0249973e-11
7.0359325e-11
1.571772e-10
3.3962973e-10
7.1376608e-10
1.4652796e-09
2.948494e-09
5.8318132e-09
1.1363388e-08
2.1852531e-08
4.1535035e-08
7.8114965e-08
1.454842e-07
2.6846097e-07
4.9091728e-07
8.8942675e-07
1.5955075e-06
2.8303027e-06
4.9549843e-06
8.5354194e-06
1.4404843e-05
2.3675356e-05
3.7579388e-05
5.6902147e-05
8.0809431e-05
0.00010525822
0.00012234434
0.00012360778
0.00010621825
7.6050118e-05
4.3994813e-05
2.1803816e-05
1.1927448e-05
7.9581439e-06
6.5726968e-06
6.8280452e-06
1.1366747e-05
2.2366689e-05
4.3122651e-05
7.4666923e-05
0.00011261925
0.00013000664
0.00012683515
0.00012621759
0.00012489764
0.00012328322
0.00012216077
0.00012332281
0.00012674073
0.00013743099
0.0001562914
0.0001909305
0.00025114134
0.000374737
0.00061754839
8.340527e-20
1.6221201e-17
4.3205764e-16
4.3801776e-15
2.6490067e-14
1.1736579e-13
4.2381038e-13
1.326231e-12
3.7365326e-12
9.7203521e-12
2.3760336e-11
5.5263899e-11
1.2345152e-10
2.6674235e-10
5.6054508e-10
1.1506089e-09
2.3149292e-09
4.5776217e-09
8.9165947e-09
1.7139047e-08
3.2554311e-08
6.1167421e-08
1.1377124e-07
2.0955906e-07
3.8224011e-07
6.901095e-07
1.2319695e-06
2.1707452e-06
3.7648418e-06
6.4006922e-06
1.060252e-05
1.6959983e-05
2.5866381e-05
3.6954528e-05
4.8313175e-05
5.6204808e-05
5.6632481e-05
4.8442276e-05
3.3807449e-05
1.9705216e-05
1.0708942e-05
6.43554e-06
5.027294e-06
4.5878104e-06
5.4703904e-06
9.4047573e-06
1.9486235e-05
3.9480363e-05
6.8006497e-05
0.00010302307
0.00012326756
0.00012175136
0.00012241736
0.00012378836
0.00012359566
0.00012374815
0.00012402615
0.00012643454
0.00013229532
0.00014366238
0.00016198461
0.00019915939
0.00026420133
0.0003957045
0.00065298971
6.0973986e-20
1.1858616e-17
3.1585824e-16
3.2021472e-15
1.9365598e-14
8.5799811e-14
3.0982149e-13
9.6950838e-13
2.7314275e-12
7.1053578e-12
1.7367287e-11
4.0391118e-11
9.021762e-11
1.9490267e-10
4.0948733e-10
8.4028263e-10
1.6898721e-09
3.339703e-09
6.500234e-09
1.248124e-08
2.3673271e-08
4.4394664e-08
8.2359173e-08
1.5116916e-07
2.7443766e-07
4.9233918e-07
8.7139347e-07
1.5175633e-06
2.5900227e-06
4.305747e-06
6.9105538e-06
1.0571057e-05
1.5136125e-05
1.9807845e-05
2.3026767e-05
2.3138224e-05
1.9742728e-05
1.3712463e-05
8.3254952e-06
5.0636024e-06
3.5910005e-06
3.1632795e-06
3.3687608e-06
4.2991805e-06
8.0022092e-06
1.8011156e-05
3.5703861e-05
6.2252712e-05
9.4281454e-05
0.00011726711
0.00011605231
0.00011778234
0.00012011827
0.00012150528
0.0001225964
0.00012407113
0.00012621601
0.00013091936
0.00013753328
0.0001503789
0.00017096429
0.00020944728
0.00027282436
0.00040716516
0.00067358882
4.0272235e-20
7.8324007e-18
2.0861807e-16
2.1149414e-15
1.2790371e-14
5.666705e-14
2.0461783e-13
6.402727e-13
1.8037492e-12
4.6917408e-12
1.1466374e-11
2.6662765e-11
5.9539872e-11
1.2858614e-10
2.7003923e-10
5.5380323e-10
1.1128575e-09
2.1970117e-09
4.2700946e-09
8.1836167e-09
1.5482947e-08
2.8938414e-08
5.3447589e-08
9.7525489e-08
1.7566752e-07
3.1186579e-07
5.4429034e-07
9.3015635e-07
1.5472256e-06
2.483142e-06
3.7962574e-06
5.430514e-06
7.0989094e-06
8.2428115e-06
8.2476086e-06
7.0580129e-06
5.0522576e-06
3.4297027e-06
2.4511003e-06
2.0018904e-06
2.1096542e-06
2.4467536e-06
3.5169773e-06
7.3965857e-06
1.6607257e-05
3.2658469e-05
5.720081e-05
8.6077351e-05
0.0001114206
0.0001102177
0.00011206147
0.00011515642
0.00011699635
0.00011959104
0.00012179632
0.00012499835
0.00012874362
0.00013463081
0.00014333017
0.00015820005
0.00017930203
0.00021915608
0.00028496797
0.00042538175
0.0006999706
2.336565e-20
4.5442953e-18
1.2103794e-16
1.2270522e-15
7.420598e-15
3.2875467e-14
1.1870323e-13
3.7140793e-13
1.0462006e-12
2.7208586e-12
6.6482167e-12
1.5454562e-11
3.4497368e-11
7.4462575e-11
1.5626311e-10
3.201587e-10
6.4252614e-10
1.2663175e-09
2.455654e-09
4.6922362e-09
8.8426029e-09
1.6441842e-08
3.0160514e-08
5.4540652e-08
9.7080868e-08
1.6965845e-07
2.899616e-07
4.8181719e-07
7.7173242e-07
1.1768826e-06
1.6796767e-06
2.1935514e-06
2.5503119e-06
2.5604012e-06
2.2683071e-06
1.8277784e-06
1.4421744e-06
1.2112324e-06
1.231029e-06
1.4168162e-06
1.9114408e-06
3.1697725e-06
6.9954721e-06
1.5039258e-05
2.9854356e-05
5.2326783e-05
7.8142563e-05
0.00010573809
0.0001045203
0.00010628522
0.00010934532
0.00011168267
0.00011453035
0.00011781922
0.00012128364
0.00012563534
0.00013070282
0.00013876444
0.00014899396
0.0001653588
0.00018826935
0.00023015293
0.0002978275
0.00044459577
0.00072336477
1.166069e-20
2.2678397e-18
6.0403784e-17
6.1234737e-16
3.7030513e-15
1.6404768e-14
5.9227867e-14
1.8529508e-13
5.2186123e-13
1.3568887e-12
3.3143852e-12
7.7012828e-12
1.7180419e-11
3.7054345e-11
7.7677541e-11
1.5892466e-10
3.1835129e-10
6.2587981e-10
1.2097964e-09
2.301886e-09
4.3139114e-09
7.9630886e-09
1.4468755e-08
2.5839677e-08
4.5245318e-08
7.7380079e-08
1.2852702e-07
2.0565208e-07
3.1338511e-07
4.4784426e-07
5.8856946e-07
6.956426e-07
7.3484071e-07
7.2409183e-07
6.8459711e-07
6.573868e-07
6.7430825e-07
7.8058413e-07
1.0802864e-06
1.683084e-06
3.0559149e-06
6.4931411e-06
1.3575591e-05
2.7310121e-05
4.7926366e-05
7.1215966e-05
9.7367687e-05
9.9407049e-05
0.0001005158
0.00010339362
0.00010552972
0.00010861087
0.00011195271
0.00011632176
0.00012061437
0.00012624497
0.00013297835
0.00014236193
0.00015429079
0.00017289209
0.00019743521
0.00024136632
0.00030913948
0.00045939012
0.0007382657
5.021752e-21
9.7665784e-19
2.6012954e-17
2.6370151e-16
1.5946121e-15
7.06373e-15
2.5500149e-14
7.9764864e-14
2.2459772e-13
5.837938e-13
1.4253901e-12
3.3101275e-12
7.3787373e-12
1.5898075e-11
3.3282482e-11
6.7973887e-11
1.3584685e-10
2.6626731e-10
5.1265507e-10
9.7044177e-10
1.8066233e-09
3.3062478e-09
5.9407819e-09
1.045791e-08
1.797494e-08
3.0017538e-08
4.8372256e-08
7.4541661e-08
1.0863387e-07
1.4799722e-07
1.8788342e-07
2.2690333e-07
2.6440429e-07
3.0130707e-07
3.4638268e-07
4.3322056e-07
6.0982701e-07
9.649444e-07
1.5991954e-06
2.9134457e-06
5.8874947e-06
1.2110727e-05
2.4861234e-05
4.3875849e-05
6.4990196e-05
8.8964383e-05
9.4910412e-05
9.515838e-05
9.7439625e-05
9.9399938e-05
0.00010211829
0.00010562478
0.0001098987
0.00011479156
0.00012004316
0.00012689971
0.00013469328
0.0001458667
0.00015950894
0.00017991762
0.00020590632
0.00025153162
0.00032090449
0.00047745232
0.0007532297
2.0774462e-21
4.0403236e-19
1.0761173e-17
1.0908703e-16
6.596266e-16
2.9217932e-15
1.0546717e-14
3.2985945e-14
9.2863402e-14
2.4132063e-13
5.8902197e-13
1.3673004e-12
3.0462889e-12
6.5590243e-12
1.3719454e-11
2.7989322e-11
5.5861269e-11
1.0930708e-10
2.1001875e-10
3.9656443e-10
7.3606291e-10
1.3423862e-09
2.4027662e-09
4.2126907e-09
7.2139275e-09
1.2018693e-08
1.9383983e-08
3.0109264e-08
4.5023258e-08
6.5227331e-08
9.2526454e-08
1.2837941e-07
1.7827941e-07
2.5030128e-07
3.609832e-07
5.6731313e-07
9.1441073e-07
1.5083432e-06
2.697602e-06
5.3099732e-06
1.0968181e-05
2.2868406e-05
4.0060699e-05
5.9369114e-05
8.1503562e-05
9.0503396e-05
8.9700782e-05
9.15899e-05
9.3120973e-05
9.5595266e-05
9.8710493e-05
0.00010299161
0.00010763212
0.00011331965
0.00011940595
0.0001272203
0.00013646718
0.0001490475
0.00016419613
0.00018651395
0.00021443453
0.00026260458
0.00033334727
0.00049404673
0.00076174493
1.2100917e-21
2.3534518e-19
6.2683247e-18
6.3543377e-17
3.8424111e-16
1.7020393e-15
6.1441572e-15
1.9218332e-14
5.4112594e-14
1.4065389e-13
3.434344e-13
7.9763215e-13
1.7784208e-12
3.8332009e-12
8.0297145e-12