/*--------------------------------*- C++ -*----------------------------------*\
  =========                 |
  \\      /  F ield         | OpenFOAM: The Open Source CFD Toolbox
   \\    /   O peration     | Website:  https://openfoam.org
    \\  /    A nd           | Version:  13
     \\/     M anipulation  |
\*---------------------------------------------------------------------------*/
FoamFile
{
    format      ascii;
    class       volVectorField;
    location    "13.201146";
    object      UMean;
}
// * * * * * * * * * * * * * * * * * * * * * * * * * * * * * * * * * * * * * //

dimensions      [0 1 -1 0 0 0 0];

internalField   nonuniform List<vector> 
17140
(
(-3.2738923e-06 0.00014149233 -2.7963856e-22)
(-4.2000966e-05 0.00043549243 -2.3435115e-23)
(-0.00012559788 0.0007567219 1.5486998e-21)
(-0.00027168683 0.0011065114 -1.7032609e-21)
(-0.00049609316 0.0014862277 1.9921871e-22)
(-0.00082053308 0.0018969547 -6.5227422e-22)
(-0.0012717081 0.0023394173 -1.0988573e-21)
(-0.0018818676 0.0028138501 5.3728123e-22)
(-0.0026898299 0.003319844 1.7599717e-21)
(-0.0037419813 0.0038561654 4.3223905e-21)
(-0.0050932681 0.0044205538 -6.4217336e-21)
(-0.0068081373 0.0050095011 5.7352619e-21)
(-0.008961352 0.0056180254 8.7946065e-22)
(-0.011638558 0.0062394519 -4.9958368e-21)
(-0.014936457 0.0068652372 5.5666887e-22)
(-0.018962404 0.0074848635 -4.4324982e-21)
(-0.023833248 0.008085871 1.6658252e-22)
(-0.029673234 0.0086540761 -3.6658698e-23)
(-0.036610851 0.0091740553 -2.6713215e-21)
(-0.044774639 0.0096299556 3.4933936e-21)
(-0.054288175 0.010006665 -1.6941279e-21)
(-0.065264775 0.01029132 3.277318e-22)
(-0.077802644 0.010474984 2.4244457e-21)
(-0.091982071 0.010554234 -2.4321475e-21)
(-0.10786783 0.010532182 -3.8985905e-21)
(-0.12551061 0.010418506 3.1589052e-21)
(-0.14494121 0.010227922 1.5585101e-20)
(-0.16619785 0.0099758609 1.8364985e-21)
(-0.18934689 0.0096755512 -1.6294851e-20)
(-0.21443875 0.0093382502 -3.8177647e-21)
(-0.24151815 0.0089722164 -1.3713022e-20)
(-0.27064608 0.0085817498 1.8176257e-20)
(-0.3018714 0.0081683751 -4.7454637e-21)
(-0.33522658 0.007731737 -2.2874401e-21)
(-0.37071935 0.0072702417 -2.2489008e-20)
(-0.40832091 0.0067810635 9.942344e-21)
(-0.44795103 0.0062599516 -1.4971592e-20)
(-0.48945799 0.005701024 -1.0139061e-20)
(-0.53259229 0.0050963186 -4.6332153e-21)
(-0.57697343 0.004436275 1.4074659e-20)
(-0.62205109 0.003709369 2.6446144e-20)
(-0.66706349 0.0029039068 2.3883055e-20)
(-0.71099314 0.0020088668 1.0372745e-20)
(-0.75254514 0.0010164661 -4.9828305e-20)
(-0.79014687 -7.3819763e-05 -3.6036113e-20)
(-0.82195008 -0.001245452 8.7671932e-21)
(-0.84602936 -0.0024761012 -5.8876277e-20)
(-0.86043008 -0.0037466248 -1.9768633e-20)
(-0.86307298 -0.0050319111 1.9946796e-20)
(-0.85255256 -0.0062849655 4.8444999e-20)
(-0.82752849 -0.0074463457 -2.9700067e-20)
(-0.78702008 -0.0084863358 -1.8738298e-20)
(-0.73003189 -0.0094561689 4.8857977e-20)
(-0.65607396 -0.010395931 2.3196933e-20)
(-0.56415783 -0.011247429 1.6686926e-20)
(-0.45489 -0.011906769 -1.3152637e-20)
(-0.32868157 -0.012342159 3.6278635e-20)
(-0.18734163 -0.012487442 3.0663663e-20)
(-0.034093178 -0.012170967 7.8029766e-21)
(0.12475907 -0.011238589 -2.0226819e-20)
(0.28066027 -0.0095818876 -1.5966377e-20)
(0.42330901 -0.0073317265 -5.9294975e-20)
(0.54791143 -0.0047363496 -8.6893931e-21)
(0.64756735 -0.0021343203 7.2843197e-20)
(0.72882699 -0.0001117178 -5.6162903e-20)
(-3.2970306e-05 0.00077032463 7.9386631e-23)
(-0.00013266218 0.002371017 -8.113561e-21)
(-0.0002821316 0.0041206631 7.2219117e-21)
(-0.00049890498 0.0060283733 -1.9699009e-21)
(-0.00079888743 0.0081028923 -4.0705702e-21)
(-0.0012036813 0.010351755 7.7819801e-21)
(-0.0017397315 0.012780806 -8.1187616e-21)
(-0.0024388584 0.015393518 7.1516944e-22)
(-0.0033392393 0.018190174 -2.2351595e-21)
(-0.0044863655 0.021166897 -3.7476783e-23)
(-0.0059339947 0.024314552 -7.4856642e-21)
(-0.0077450542 0.02761753 1.1921857e-20)
(-0.0099924268 0.031052474 9.870232e-22)
(-0.012759502 0.034587029 -9.7718493e-21)
(-0.01614035 0.038178756 3.0129269e-21)
(-0.020239361 0.041774424 1.920536e-21)
(-0.025170151 0.045309942 -1.2228756e-20)
(-0.03105359 0.048711289 4.0035773e-20)
(-0.038014824 0.051896822 -2.5198281e-20)
(-0.046179291 0.054781331 3.0347034e-20)
(-0.055667968 0.057282091 -4.5102536e-20)
(-0.066592312 0.059326782 1.1127918e-20)
(-0.079049629 0.060862653 4.6185389e-21)
(-0.093120286 0.061865439 -1.517144e-20)
(-0.10886987 0.06234576 5.4966423e-20)
(-0.12635135 0.062350491 8.2237369e-21)
(-0.14559727 0.061955718 -4.3096508e-20)
(-0.16664673 0.061245405 4.8596742e-20)
(-0.18956738 0.060294504 -6.7826991e-21)
(-0.21440983 0.059164037 -6.6290621e-20)
(-0.24121796 0.057901854 6.9600571e-21)
(-0.27005071 0.056536034 5.3267267e-20)
(-0.30095479 0.05507801 1.2856949e-21)
(-0.33395941 0.053527589 -4.0157609e-20)
(-0.36906804 0.05187543 4.5075437e-20)
(-0.40624637 0.05010336 -2.0350935e-20)
(-0.44540687 0.048183167 2.4170144e-20)
(-0.48638852 0.046074951 7.6820296e-20)
(-0.52892989 0.043725547 1.7153759e-20)
(-0.57263568 0.041068372 6.7158019e-20)
(-0.61693701 0.038024896 -8.6108801e-20)
(-0.66104861 0.034509426 -7.8718165e-20)
(-0.70392581 0.030438021 -1.3264694e-20)
(-0.74423905 0.025740597 1.0667999e-19)
(-0.78036933 0.020379354 -4.9688032e-20)
(-0.81043025 0.014375752 -1.701204e-20)
(-0.83240295 0.007810649 9.1719814e-21)
(-0.84428928 0.00080272272 2.8069726e-20)
(-0.84422115 -0.0064448667 -1.3637422e-20)
(-0.83056409 -0.013718366 2.4480522e-20)
(-0.80201689 -0.02088331 1.4701257e-19)
(-0.75758506 -0.027847176 7.0381275e-21)
(-0.69645509 -0.034579164 -3.1773896e-20)
(-0.61803299 -0.041078997 7.1041681e-20)
(-0.52200678 -0.04716999 -6.1159482e-20)
(-0.40860298 -0.052634447 1.7549879e-19)
(-0.27854231 -0.057276587 5.0586436e-20)
(-0.13388163 -0.060594193 -1.4497881e-19)
(0.021931483 -0.061828636 2.4770062e-20)
(0.1823434 -0.060066517 2.8749322e-20)
(0.33856657 -0.054764567 5.8224738e-21)
(0.48002473 -0.046719692 -7.737472e-20)
(0.60198605 -0.03698306 1.5093009e-19)
(0.69870396 -0.027397618 4.5036229e-20)
(0.77651183 -0.019308395 7.4760436e-20)
(-9.6992776e-05 0.0013851381 4.3736628e-21)
(-0.00032798072 0.0042639213 -2.4451795e-21)
(-0.00061914364 0.007411353 -6.5041255e-22)
(-0.00098774845 0.010844462 6.1711645e-22)
(-0.0014498255 0.014579503 -2.9911843e-21)
(-0.0020266628 0.018630692 -2.2214229e-22)
(-0.0027440677 0.023009339 -2.8453187e-21)
(-0.0036328372 0.027722634 -3.0681868e-21)
(-0.0047296505 0.032772189 2.5116323e-20)
(-0.0060779349 0.038152304 -2.2458751e-20)
(-0.0077287316 0.043847994 1.0767778e-20)
(-0.0097415182 0.049832791 1.5809386e-20)
(-0.01218493 0.056066408 -3.1438155e-20)
(-0.015137279 0.062492441 -3.9013422e-21)
(-0.018686743 0.069036315 1.5130395e-20)
(-0.022931076 0.075603865 1.0444282e-20)
(-0.027976692 0.082081025 -1.2171949e-20)
(-0.033936955 0.088335259 4.4300002e-20)
(-0.040929572 0.094219437 -2.6354921e-20)
(-0.049073098 0.099578869 1.311192e-20)
(-0.058482717 0.10426196 -4.4560991e-20)
(-0.069265724 0.10813442 -1.1679918e-20)
(-0.081517343 0.11109588 2.4572095e-20)
(-0.095317974 0.11309655 -3.726746e-20)
(-0.11073479 0.11414953 -1.4760018e-20)
(-0.12782528 0.11433438 1.7963815e-20)
(-0.14662584 0.11378612 1.0262491e-19)
(-0.16717735 0.11265919 4.6701002e-20)
(-0.18954905 0.11109116 -2.3645926e-20)
(-0.21379201 0.10919325 2.526986e-20)
(-0.23994803 0.10705541 -1.6144423e-20)
(-0.2680706 0.1047315 -9.1290847e-20)
(-0.29820131 0.10224371 3.0794491e-20)
(-0.33036148 0.099592222 9.2418521e-20)
(-0.36454444 0.096759613 -3.1310626e-20)
(-0.40070285 0.093711701 -4.3849465e-20)
(-0.43873234 0.090395553 7.631625e-20)
(-0.47845033 0.086736215 2.3252198e-20)
(-0.51956801 0.082634138 -4.1865173e-20)
(-0.56165547 0.077964125 -1.6904329e-20)
(-0.60410052 0.072578243 8.0891172e-20)
(-0.64606421 0.066314032 -2.3182645e-20)
(-0.68643691 0.059011209 -3.335204e-20)
(-0.72381485 0.050534555 -8.8357867e-20)
(-0.75649249 0.040807765 1.6774513e-19)
(-0.78250887 0.029865257 -1.0789282e-19)
(-0.79983315 0.017882944 -2.683909e-20)
(-0.8064623 0.0051142536 -1.0673713e-19)
(-0.80054135 -0.0081274251 -1.277355e-19)
(-0.7805241 -0.021454161 -6.4659946e-21)
(-0.74530557 -0.034558337 2.7261606e-20)
(-0.6941211 -0.047274742 -2.0228177e-19)
(-0.62639769 -0.059567307 -8.6835019e-20)
(-0.54177158 -0.071385899 -9.0042444e-20)
(-0.44017662 -0.082502147 -2.977385e-20)
(-0.32201647 -0.092542674 -2.3441475e-19)
(-0.18842764 -0.10104688 9.395109e-20)
(-0.041688816 -0.10718114 -2.9205246e-20)
(0.11459709 -0.1095948 -2.4244075e-19)
(0.2736384 -0.1066134 -9.7448265e-20)
(0.42636275 -0.097229463 1.1725154e-19)
(0.56203386 -0.082958211 4.0545341e-19)
(0.67624112 -0.065965496 -1.2978576e-19)
(0.76501294 -0.049453379 -2.0867572e-19)
(0.833934 -0.035187745 -8.9188805e-20)
(-0.00019316637 0.0019640887 -1.4595948e-20)
(-0.00062138411 0.0060474833 1.7549142e-20)
(-0.0011253655 0.010513648 -6.3475427e-21)
(-0.0017219884 0.015387552 6.904596e-22)
(-0.0024274686 0.020693072 -1.3653852e-20)
(-0.0032626171 0.026451425 1.4138673e-20)
(-0.0042522774 0.03267992 -2.1463097e-20)
(-0.0054257 0.039390284 1.0112497e-20)
(-0.0068173021 0.046586604 3.8490465e-20)
(-0.0084673925 0.054262897 -9.2736509e-21)
(-0.010422906 0.062400303 -3.5382683e-20)
(-0.012738098 0.070963945 1.0832011e-20)
(-0.015475168 0.079899561 7.2845034e-22)
(-0.018704718 0.089130101 -2.8528558e-20)
(-0.022505946 0.098552633 8.9654975e-20)
(-0.026966477 0.10803605 -5.5328992e-20)
(-0.032181672 0.11742024 -5.2982912e-22)
(-0.038253301 0.1265176 3.0997339e-20)
(-0.045287508 0.13511806 -7.9331015e-20)
(-0.053392021 0.14299846 3.7779822e-20)
(-0.062672756 0.14993728 5.6891725e-20)
(-0.07323014 0.15573468 2.3256538e-20)
(-0.085155628 0.16023652 -1.1648274e-19)
(-0.098529155 0.16335905 -6.156021e-20)
(-0.11341994 0.16510832 4.0377615e-20)
(-0.12989131 0.16558729 -2.3765575e-20)
(-0.1479865 0.16498391 9.0385222e-20)
(-0.16774949 0.16352537 -2.6247281e-20)
(-0.18924964 0.16141197 7.1645089e-20)
(-0.21254025 0.1588057 -4.102322e-20)
(-0.23766065 0.15584252 2.5549617e-20)
(-0.26465508 0.15260544 -9.5016855e-20)
(-0.29355736 0.14912899 1.3845276e-20)
(-0.32437668 0.14541419 -7.3306686e-20)
(-0.35709086 0.14143513 7.0942457e-20)
(-0.39163274 0.13714086 2.2632515e-20)
(-0.42787263 0.13245256 -2.879267e-19)
(-0.46559575 0.12725892 -7.5422922e-20)
(-0.50447288 0.12141206 6.3109917e-20)
(-0.54402377 0.11472627 -6.2306422e-20)
(-0.58357474 0.10698229 1.5908488e-20)
(-0.62221353 0.097939686 1.0097853e-19)
(-0.65874752 0.087361414 -4.7717503e-21)
(-0.69168346 0.075050122 -3.3562816e-20)
(-0.71922747 0.060901187 1.6595657e-20)
(-0.7393813 0.044986102 -7.6152318e-21)
(-0.750152 0.027577174 -2.3172641e-20)
(-0.74958559 0.0090684322 3.6238951e-19)
(-0.73600066 -0.010047774 -4.0300813e-20)
(-0.70812888 -0.029197479 3.736555e-20)
(-0.66517396 -0.047933784 -3.5166525e-19)
(-0.60666985 -0.066031979 1.9368518e-19)
(-0.53230598 -0.083451949 1.5968387e-19)
(-0.44193874 -0.10012733 1.5369875e-19)
(-0.33574376 -0.1157648 1.4947459e-19)
(-0.21447058 -0.12987031 2.3750128e-19)
(-0.079590771 -0.14178701 -4.7968432e-19)
(0.066400372 -0.15036959 2.9918392e-19)
(0.21977114 -0.15366878 4.6074946e-19)
(0.3733597 -0.14920468 -3.4148287e-19)
(0.51764465 -0.13551107 -1.1025471e-19)
(0.6421887 -0.11491868 -9.7081537e-20)
(0.74351051 -0.090920853 4.9185144e-19)
(0.81933689 -0.067841206 3.609121e-19)
(0.87503321 -0.048009349 -1.5723123e-20)
(-0.00031687818 0.0024854888 1.0229969e-20)
(-0.00099889116 0.0076553223 -2.5626201e-20)
(-0.0017767858 0.013312768 2.0900694e-20)
(-0.0026669823 0.01949067 -7.9026596e-21)
(-0.0036859647 0.026220592 -2.8565916e-21)
(-0.0048539717 0.033531097 2.4603033e-20)
(-0.0061946532 0.041446175 -6.239898e-21)
(-0.0077353241 0.049983175 -1.3264275e-20)
(-0.0095075476 0.059150242 -1.0200153e-21)
(-0.01154768 0.068943285 -8.6782839e-21)
(-0.013897427 0.079342419 1.2181405e-20)
(-0.016604366 0.090307962 -8.4938262e-21)
(-0.019722428 0.10177605 -3.1407333e-20)
(-0.023312256 0.11365417 -9.1396455e-22)
(-0.027441397 0.12581684 2.4250477e-20)
(-0.032184226 0.13810231 1.7282861e-20)
(-0.03762153 0.15031078 -1.4976526e-20)
(-0.043839644 0.16220552 1.4572079e-21)
(-0.050929098 0.17351821 2.9744807e-20)
(-0.058982736 0.18395993 3.6607865e-20)
(-0.068093396 0.19323891 -4.2271109e-20)
(-0.078351354 0.20108571 -4.3068493e-20)
(-0.089841865 0.20728428 5.872025e-20)
(-0.10264316 0.21170496 -7.3601489e-20)
(-0.11682647 0.2143325 -1.2910596e-19)
(-0.1324603 0.21527897 3.0837374e-19)
(-0.14960008 0.21477407 -1.7183225e-19)
(-0.16829304 0.21311545 2.571375e-19)
(-0.18860391 0.21056983 -3.2456111e-19)
(-0.2105954 0.20735243 3.6552212e-19)
(-0.23430429 0.20364751 -3.8109015e-19)
(-0.25976087 0.19957227 6.4810277e-20)
(-0.28698922 0.19517689 2.2468064e-19)
(-0.31598267 0.19046432 -1.27593e-19)
(-0.34669923 0.18540011 4.0198537e-20)
(-0.37904643 0.1799156 1.1947326e-20)
(-0.41286263 0.1739047 1.4607977e-19)
(-0.44789301 0.16721818 4.7606132e-20)
(-0.48375914 0.15965848 4.7858035e-20)
(-0.51992156 0.15097782 4.8018084e-20)
(-0.55563589 0.14088431 -2.45334e-19)
(-0.58990881 0.12905888 1.0779816e-19)
(-0.62146243 0.11518939 1.6678114e-20)
(-0.64872224 0.099022414 -1.9691592e-19)
(-0.66983879 0.080442972 -9.9115143e-20)
(-0.68284796 0.059589682 4.8960487e-20)
(-0.68587483 0.036863157 1.7544244e-19)
(-0.67715819 0.012798638 -7.6642042e-20)
(-0.6552825 -0.011915916 2.2098813e-19)
(-0.6192953 -0.03651706 1.1986731e-19)
(-0.56868623 -0.06043362 1.6595106e-19)
(-0.50323909 -0.083421538 4.4458189e-19)
(-0.4228381 -0.10547662 -3.4595361e-19)
(-0.32752238 -0.12652404 1.1232472e-19)
(-0.21774585 -0.14619028 -1.9722957e-19)
(-0.094688125 -0.1638434 -1.8903332e-19)
(0.039730081 -0.17866915 -7.4440932e-20)
(0.18268202 -0.18928892 -6.9434796e-19)
(0.3302658 -0.19312877 -1.8982582e-19)
(0.47479179 -0.18683819 4.3919309e-19)
(0.60615978 -0.16866417 1.6708733e-19)
(0.71510673 -0.14187997 -1.2623287e-19)
(0.79961673 -0.11138059 -2.6121742e-19)
(0.85941535 -0.082434258 -4.0520844e-19)
(0.90070009 -0.058048452 3.0840665e-20)
(-0.00046108445 0.0029286576 3.0995125e-20)
(-0.0014391194 0.009024062 8.2377655e-21)
(-0.0025366408 0.015698976 -6.6755313e-21)
(-0.0037696175 0.022993918 -2.4658155e-20)
(-0.005154908 0.030948092 1.3518834e-20)
(-0.0067121699 0.039597725 -1.9476311e-20)
(-0.0084637586 0.048974215 8.436754e-21)
(-0.010434844 0.059101779 2.0120806e-21)
(-0.012653787 0.069994514 -1.1410083e-20)
(-0.015152467 0.081652879 -2.4644607e-20)
(-0.01796662 0.094059525 -1.2372391e-21)
(-0.021136153 0.10717452 4.0770441e-20)
(-0.024705425 0.12093009 -5.6635188e-20)
(-0.028723473 0.13522494 9.1932625e-20)
(-0.033244139 0.14991892 -2.4176719e-20)
(-0.038326067 0.16482813 5.1736887e-20)
(-0.044032533 0.17972204 -6.31175e-20)
(-0.050431056 0.19432345 4.1409199e-20)
(-0.057592788 0.20831322 -6.6257684e-21)
(-0.06559165 0.22134164 -2.7217115e-20)
(-0.074503283 0.23304807 6.7101974e-20)
(-0.084403889 0.24308991 -9.6214491e-20)
(-0.095369119 0.2511799 1.0636112e-19)
(-0.10747307 0.25712773 1.8519717e-20)
(-0.12078789 0.2608778 -1.8551414e-19)
(-0.13538592 0.26253126 1.9061596e-19)
(-0.15133733 0.26234073 -1.2599897e-19)
(-0.16869468 0.26066235 1.4338877e-19)
(-0.18751663 0.25784347 1.3612968e-20)
(-0.20787963 0.25415928 8.5508585e-21)
(-0.22981905 0.24983479 -5.9192691e-20)
(-0.2533479 0.24502903 3.8394863e-21)
(-0.27847843 0.23981505 -2.2721601e-19)
(-0.30518577 0.23420016 6.223997e-20)
(-0.33340465 0.22814179 1.869238e-19)
(-0.36301323 0.22155275 -8.7984092e-20)
(-0.39381339 0.21429868 7.2951346e-20)
(-0.42550594 0.20619164 -7.3424352e-20)
(-0.45765921 0.1969836 -4.1135505e-19)
(-0.48967044 0.18636395 2.2838083e-19)
(-0.5207231 0.17396757 5.5910244e-20)
(-0.54974685 0.1593986 -3.1725028e-19)
(-0.57539308 0.14227559 1.8872224e-20)
(-0.5960391 0.12230185 3.903499e-20)
(-0.6098466 0.099377193 4.1681993e-19)
(-0.61499815 0.073736903 9.5988448e-20)
(-0.6098138 0.045925079 -1.498119e-19)
(-0.59283445 0.016612058 -1.5224217e-19)
(-0.56290358 -0.013325705 -2.1513887e-19)
(-0.51927136 -0.042959096 -2.6438154e-19)
(-0.46158384 -0.071605895 -1.6110402e-19)
(-0.38980258 -0.099008905 -2.519663e-19)
(-0.3039659 -0.12520386 8.6719037e-20)
(-0.2043185 -0.15009272 -5.3762402e-19)
(-0.091685291 -0.1731945 -3.6300012e-20)
(0.032196574 -0.19374286 -3.167555e-20)
(0.16485603 -0.21082552 -1.7348981e-20)
(0.30299894 -0.22293215 7.4823665e-19)
(0.44239136 -0.22688202 2.9750612e-19)
(0.57456575 -0.21841861 -4.6399441e-19)
(0.68926912 -0.19569047 -6.7330174e-19)
(0.77923193 -0.1631383 -3.0325643e-19)
(0.8446082 -0.12700555 -9.8832135e-20)
(0.88755145 -0.093319927 5.7605043e-19)
(0.9155614 -0.065663803 -1.4466068e-19)
(-0.00061645702 0.0032754334 -5.817224e-21)
(-0.0019141306 0.010097772 -1.3894408e-20)
(-0.0033566384 0.017575205 3.3554225e-20)
(-0.0049600848 0.02575542 -1.2494702e-21)
(-0.0067416358 0.034685087 -1.6363544e-20)
(-0.0087204664 0.044408271 -7.2196171e-21)
(-0.01091769 0.054964424 -5.3377728e-21)
(-0.013356335 0.06638588 1.0536827e-20)
(-0.016061493 0.078694685 -5.4659046e-20)
(-0.019060418 0.091898755 4.1357016e-20)
(-0.022382614 0.10598727 -2.0046058e-21)
(-0.026059891 0.12092527 -2.5203859e-20)
(-0.03012642 0.13664765 9.4747185e-20)
(-0.034618752 0.15305245 -9.4976386e-20)
(-0.039575818 0.16999422 1.2747883e-20)
(-0.045038928 0.18727767 7.9475301e-20)
(-0.05105176 0.20465301 -7.5464668e-20)
(-0.057660392 0.22181412 2.668866e-20)
(-0.064913374 0.23840167 -5.2483625e-20)
(-0.072861917 0.2540134 6.832354e-20)
(-0.081560187 0.26822392 1.3027814e-19)
(-0.091065773 0.28061582 -1.3112704e-19)
(-0.10144021 0.29082175 -1.9529037e-19)
(-0.11274949 0.29857411 3.8314628e-19)
(-0.12506401 0.30375381 -3.1225454e-19)
(-0.13845882 0.30642438 1.8396529e-19)
(-0.15301472 0.30683542 -4.8152909e-20)
(-0.16879825 0.30538256 1.1511521e-19)
(-0.18586724 0.30250351 -1.194109e-19)
(-0.20429815 0.29854442 -1.6235904e-19)
(-0.22413413 0.29376342 1.0917387e-19)
(-0.24537699 0.28836999 1.8196373e-19)
(-0.26801887 0.28247002 -1.6257179e-20)
(-0.29201685 0.27607932 -6.8377886e-21)
(-0.31727948 0.26914894 -1.1987583e-19)
(-0.3436529 0.26157319 5.2223612e-20)
(-0.37090041 0.25318939 1.9237806e-19)
(-0.39867659 0.24377075 9.7047059e-20)
(-0.42649492 0.23301822 -1.4942947e-19)
(-0.45369034 0.22055876 1.1868188e-19)
(-0.47937981 0.20595639 -1.0075488e-19)
(-0.50243032 0.18874388 3.4015054e-20)
(-0.52145205 0.1684813 1.2853492e-19)
(-0.53482832 0.1448502 -3.0722459e-19)
(-0.54082302 0.11779716 -1.8230916e-19)
(-0.5378751 0.087671103 -1.1795768e-19)
(-0.52458084 0.055145548 3.6873711e-19)
(-0.49977936 0.020996903 2.3790532e-19)
(-0.46244488 -0.013774137 2.7778876e-19)
(-0.41184149 -0.04807612 4.83025e-19)
(-0.34771415 -0.081081299 -1.6665101e-19)
(-0.27019676 -0.11249871 3.5034972e-20)
(-0.17949037 -0.14240406 2.8004316e-19)
(-0.076110651 -0.17065169 8.2748485e-19)
(0.038642135 -0.19661016 5.5114399e-19)
(0.16236552 -0.21938736 2.1991163e-19)
(0.2920515 -0.23801887 6.5124629e-19)
(0.42388831 -0.25093207 -4.4830417e-19)
(0.55296785 -0.25436818 4.7327025e-20)
(0.66978966 -0.24327946 7.4905715e-19)
(0.76500677 -0.2161025 5.1323228e-19)
(0.83381836 -0.17855524 2.3841741e-20)
(0.87952808 -0.13797224 -8.2612429e-19)
(0.90677367 -0.10094291 8.7422606e-20)
(0.92417419 -0.071312841 -1.2425073e-19)
(-0.0007720833 0.0035112729 -2.2813595e-20)
(-0.0023904896 0.010831478 1.1539939e-20)
(-0.0041792492 0.018863003 -1.5597269e-20)
(-0.0061550187 0.027659971 -8.8708139e-21)
(-0.0083352966 0.037276085 2.477767e-20)
(-0.010738945 0.047763181 2.3155201e-20)
(-0.013386025 0.059169181 -2.3794316e-20)
(-0.016297635 0.071535594 2.8671625e-21)
(-0.019495837 0.084894272 6.654489e-22)
(-0.023003509 0.099263437 4.7431319e-20)
(-0.02684417 0.11464285 -5.2224371e-21)
(-0.031041766 0.13100802 -9.6345437e-20)
(-0.035620433 0.14830357 7.7407339e-20)
(-0.040604263 0.16643574 -2.6862215e-21)
(-0.046017101 0.18526445 -5.2564197e-20)
(-0.05188242 0.20459546 -4.56421e-21)
(-0.058223352 0.22417351 1.1723424e-20)
(-0.065062978 0.24367815 5.3448986e-20)
(-0.072424943 0.26272403 -9.9208591e-20)
(-0.080334548 0.28086866 1.7701045e-19)
(-0.088820411 0.29763026 -3.8823012e-20)
(-0.097916556 0.31251868 2.8987058e-20)
(-0.10766493 0.3250801 -2.4317191e-20)
(-0.1181178 0.3349534 1.005168e-21)
(-0.12933921 0.34193014 -1.4930416e-19)
(-0.14140462 0.34600363 -1.5151662e-19)
(-0.15439931 0.34738775 3.0493145e-19)
(-0.16841048 0.34648833 5.1514794e-20)
(-0.18350226 0.34381355 -1.8208543e-19)
(-0.19973365 0.33981397 -6.5540365e-20)
(-0.21716755 0.33479637 -1.497797e-19)
(-0.23580756 0.32900001 1.7096295e-19)
(-0.25561521 0.32257974 7.5477488e-20)
(-0.27652905 0.3155712 -1.7696209e-19)
(-0.29842929 0.30792212 7.5051162e-20)
(-0.32112935 0.29951022 3.5564516e-20)
(-0.34435297 0.2901451 -1.0628302e-19)
(-0.36770784 0.2795615 -2.7951807e-19)
(-0.39065363 0.26741075 -8.5267088e-20)
(-0.41246723 0.25326023 5.7208375e-20)
(-0.43220947 0.23660871 1.3616958e-19)
(-0.44870615 0.21692783 1.4085274e-19)
(-0.46056424 0.19373715 1.5573879e-19)
(-0.46623388 0.16672382 3.2595655e-19)
(-0.46417297 0.13591292 -9.0658382e-21)
(-0.45312743 0.10177503 1.3646987e-19)
(-0.43199949 0.065055628 -7.3648556e-19)
(-0.3997993 0.026564932 -2.030694e-19)
(-0.35545134 -0.01263387 -2.3103073e-19)
(-0.29823997 -0.051257054 -6.3878221e-19)
(-0.22811732 -0.088272118 7.464614e-19)
(-0.1454193 -0.12334622 -1.6697363e-19)
(-0.05052756 -0.15657494 -5.3955887e-19)
(0.055704278 -0.18772428 -6.6854952e-19)
(0.1714416 -0.21598214 -8.5888866e-20)
(0.29360094 -0.24036237 2.1938376e-19)
(0.41872695 -0.25990289 3.586049e-19)
(0.54257726 -0.27294591 -1.5377755e-19)
(0.65920713 -0.27518253 2.8038616e-19)
(0.75821218 -0.26119616 -2.3546963e-19)
(0.83184251 -0.22989287 -7.989648e-20)
(0.87876856 -0.18826031 -2.3614601e-19)
(0.90599308 -0.14474371 1.0310477e-18)
(0.92009643 -0.10590619 3.3735449e-20)
(0.93005141 -0.075472102 4.0741893e-19)
(-0.00091605165 0.0036266142 2.1281186e-20)
(-0.0028315378 0.011195391 4.264778e-21)
(-0.0049413592 0.01950993 -4.6888799e-21)
(-0.0072628059 0.028629797 -2.3059966e-20)
(-0.0098138471 0.038614963 2.7677189e-20)
(-0.012613243 0.049524596 -2.3524972e-20)
(-0.015680293 0.061415128 -1.1255549e-20)
(-0.019034564 0.074337876 6.0474098e-22)
(-0.022695595 0.08833593 9.5339366e-21)
(-0.02668252 0.10344026 5.4334559e-20)
(-0.031013631 0.11966486 -9.1473584e-20)
(-0.035705876 0.13700091 1.1026469e-19)
(-0.040774319 0.15540973 -3.2511129e-20)
(-0.046231593 0.17481472 -4.4332708e-20)
(-0.052087397 0.19509242 6.8391924e-20)
(-0.05834814 0.21606308 -1.3576027e-19)
(-0.065016839 0.23748163 1.6591667e-19)
(-0.07209341 0.25903051 2.6304269e-21)
(-0.079575609 0.28031634 9.7153792e-20)
(-0.087460751 0.30087342 -3.9084974e-19)
(-0.095748445 0.3201776 9.608821e-20)
(-0.10444432 0.33767401 4.0407377e-19)
(-0.11356459 0.35282141 -1.9446007e-19)
(-0.12314076 0.36515249 -2.362378e-19)
(-0.1332234 0.37434386 6.0542323e-20)
(-0.14388316 0.38028183 3.2235818e-19)
(-0.15520751 0.38310211 -4.9710154e-19)
(-0.16729282 0.38318003 5.6008366e-19)
(-0.18022635 0.38105509 -4.474121e-19)
(-0.19406091 0.37728783 8.6833818e-20)
(-0.20884594 0.37229808 -1.5066926e-19)
(-0.22460415 0.36634411 -2.1681488e-19)
(-0.24128434 0.3596068 8.6449813e-20)
(-0.25879488 0.35216499 2.2613285e-20)
(-0.27698994 0.3439779 3.2546118e-19)
(-0.29564635 0.33491045 -6.3833424e-20)
(-0.31444771 0.32474545 1.6468061e-19)
(-0.33295504 0.31318036 -1.4033779e-19)
(-0.35057666 0.29982004 8.3658855e-20)
(-0.36653732 0.28417786 5.4732164e-20)
(-0.37985389 0.2656969 4.7090428e-20)
(-0.38933384 0.24380334 4.6705328e-20)
(-0.39361729 0.21800004 -2.8499532e-19)
(-0.39126861 0.18800997 -2.2403511e-19)
(-0.38099836 0.15395853 6.2899766e-20)
(-0.36181484 0.11642908 -3.9856255e-20)
(-0.33287486 0.076155031 1.6516725e-19)
(-0.29319021 0.033894847 -3.2664638e-19)
(-0.24167674 -0.0092402534 -3.7878605e-19)
(-0.17792745 -0.051731643 -1.0973723e-19)
(-0.10223727 -0.092344925 -2.8840365e-19)
(-0.015104448 -0.13069156 9.2569747e-21)
(0.082951114 -0.16686653 1.4052348e-19)
(0.19068288 -0.2005264 6.8746607e-19)
(0.30570786 -0.23064784 -3.4675571e-19)
(0.42437642 -0.25617928 1.4169982e-19)
(0.54292447 -0.27620015 -4.1875333e-19)
(0.65683311 -0.28884579 7.1138427e-19)
(0.75881119 -0.28927015 -4.1179783e-19)
(0.83779122 -0.27199868 1.4305257e-19)
(0.8887762 -0.23704196 -5.0981273e-22)
(0.91465946 -0.19288154 1.1301545e-19)
(0.9259218 -0.14801987 4.1837749e-19)
(0.93015818 -0.10883077 -7.8712652e-19)
(0.93553065 -0.078506105 7.9895377e-19)
(-0.0010362791 0.0036179982 -4.7234064e-20)
(-0.0032002789 0.011178251 -2.4257679e-20)
(-0.0055790317 0.019495389 3.8105398e-20)
(-0.0081904834 0.028633114 -1.0037677e-21)
(-0.011053172 0.038656504 -3.4512669e-20)
(-0.014185967 0.049631176 -1.8067268e-20)
(-0.01760776 0.061621555 3.8141427e-20)
(-0.021337104 0.074688783 -6.2732261e-21)
(-0.025391723 0.088887894 8.8674195e-20)
(-0.029787942 0.10426423 -1.7334034e-20)
(-0.034540008 0.12084885 -4.451719e-22)
(-0.039659315 0.13865285 6.4260489e-20)
(-0.045153549 0.15766039 -2.0705071e-19)
(-0.051025808 0.1778203 9.7113532e-20)
(-0.057273729 0.19903654 1.7536823e-19)
(-0.063888765 0.22115744 -1.8865258e-19)
(-0.070855752 0.24396458 2.3472123e-20)
(-0.07815297 0.26716252 -1.3511434e-19)
(-0.085753 0.29037114 -1.0185547e-19)
(-0.093624702 0.31312365 3.2578191e-19)
(-0.10173656 0.33487416 -2.491273e-19)
(-0.11006173 0.35501928 3.3445382e-19)
(-0.11858453 0.37293806 -4.0144932e-20)
(-0.12730774 0.38805204 1.6740216e-19)
(-0.13625931 0.39990209 -3.7171513e-19)
(-0.1454962 0.40823009 8.9837879e-20)
(-0.1551024 0.41304349 2.3107762e-19)
(-0.16517925 0.41463392 -5.6838382e-19)
(-0.17582729 0.41352547 2.5100477e-19)
(-0.18712291 0.41034645 2.7390944e-19)
(-0.1990974 0.40565467 -2.2942344e-19)
(-0.21175703 0.39981118 -3.0843672e-20)
(-0.22507086 0.39302272 1.5746495e-19)
(-0.23892352 0.3853814 -8.7998093e-20)
(-0.25313358 0.37686645 1.3628934e-19)
(-0.26744742 0.3673473 -4.8353021e-19)
(-0.28150665 0.35658783 2.5607062e-19)
(-0.29482465 0.34425296 1.553048e-19)
(-0.30675988 0.32990627 3.2086461e-19)
(-0.31649067 0.31301521 4.2842569e-20)
(-0.32300184 0.29297978 -3.4703695e-19)
(-0.32510202 0.26919941 1.4007311e-19)
(-0.32149066 0.24118484 2.0688951e-19)
(-0.31087158 0.20872089 3.2212439e-20)
(-0.29219994 0.17203771 -2.0066027e-19)
(-0.26466205 0.13179919 -1.7583804e-19)
(-0.22756344 0.088665315 5.327478e-19)
(-0.17990976 0.04331132 2.8117817e-19)
(-0.1209709 -0.0030815145 6.0906382e-19)
(-0.050915842 -0.048780694 2.1371979e-19)
(0.02963291 -0.092423628 8.3025941e-20)
(0.12012318 -0.13360795 6.1666117e-19)
(0.21990995 -0.17238295 2.4363286e-19)
(0.32737375 -0.20821162 -8.2355168e-19)
(0.4396115 -0.23984635 6.653845e-19)
(0.55256571 -0.26619529 -6.1554964e-19)
(0.66254184 -0.28637017 2.970662e-19)
(0.76453513 -0.29814405 -1.4414097e-18)
(0.84962059 -0.29622828 -7.2235133e-19)
(0.90691376 -0.27595585 2.9136945e-19)
(0.93536079 -0.23858024 4.5356062e-19)
(0.94248968 -0.19318823 7.5236669e-19)
(0.94127093 -0.14857638 1.3044691e-19)
(0.9389491 -0.11025135 1.0216774e-19)
(0.94179331 -0.080670327 -1.0674221e-18)
(-0.0011217405 0.0034890578 -8.515921e-22)
(-0.0034628636 0.010790417 4.5149906e-20)
(-0.0060336266 0.01883605 -5.3257646e-20)
(-0.008852563 0.027692161 -2.5648193e-20)
(-0.011938792 0.037427371 5.1416014e-20)
(-0.01531146 0.048112337 1.667223e-20)
(-0.018989385 0.059818314 -8.0968286e-20)
(-0.022990649 0.072615466 8.7279646e-20)
(-0.027331968 0.086570509 1.8450576e-20)
(-0.032027969 0.10174362 7.3584644e-20)
(-0.037090305 0.1181844 -1.9600947e-19)
(-0.042526661 0.13592663 -2.3991914e-21)
(-0.048339612 0.15498173 1.7753133e-19)
(-0.054525393 0.17533059 -1.9164796e-19)
(-0.061072638 0.19691378 1.3813566e-19)
(-0.067961192 0.21962002 5.163942e-20)
(-0.07516117 0.24327348 -1.0893857e-19)
(-0.082632519 0.26762056 9.9435634e-20)
(-0.090325421 0.29231779 1.3411661e-19)
(-0.098181937 0.31692373 -2.8947733e-21)
(-0.10613951 0.34089846 -2.1821491e-19)
(-0.1141365 0.36361613 1.3733344e-19)
(-0.12212022 0.38439601 -7.7964118e-20)
(-0.13005653 0.4025566 -3.8445128e-19)
(-0.13794006 0.41749337 -1.3095643e-19)
(-0.14580207 0.42877227 3.6269039e-19)
(-0.15371211 0.43621953 -3.6893671e-20)
(-0.16177006 0.43997667 4.2421765e-19)
(-0.17008628 0.44048695 -2.5540893e-19)
(-0.17875322 0.43839106 1.3701035e-19)
(-0.18781784 0.43435376 -2.0177941e-19)
(-0.19727774 0.42889524 -4.9879988e-20)
(-0.20707166 0.42231007 2.5478981e-19)
(-0.21707589 0.41471935 -2.6649539e-19)
(-0.22709907 0.40612181 -3.9553016e-19)
(-0.23685008 0.39638855 4.0363438e-20)
(-0.2459282 0.38526867 4.3872353e-19)
(-0.2538016 0.37240121 -5.6813492e-19)
(-0.25978092 0.35731778 1.2411362e-19)
(-0.26300382 0.33945198 -2.6763292e-19)
(-0.26243411 0.31817634 4.1634161e-20)
(-0.25689882 0.29288269 -4.2346527e-19)
(-0.24517284 0.26310994 -2.0381244e-19)
(-0.22611014 0.22871491 -2.5343181e-19)
(-0.19883334 0.19002604 1.0223042e-18)
(-0.16267021 0.14774215 3.3321461e-19)
(-0.11702248 0.10245762 -4.4356834e-19)
(-0.061132163 0.054791178 3.6064644e-19)
(0.0050306651 0.0059987535 3.0158177e-19)
(0.08071586 -0.042094606 -3.4057204e-19)
(0.16509497 -0.088136971 -1.78388e-19)
(0.25763692 -0.13175062 -4.1923016e-19)
(0.35757941 -0.17280303 -2.0400281e-19)
(0.46298485 -0.21049671 6.9901845e-19)
(0.57044047 -0.24339551 3.9453433e-19)
(0.67577647 -0.27043882 6.3645361e-20)
(0.77558394 -0.2906685 -2.679292e-21)
(0.8638457 -0.3013449 3.5728537e-19)
(0.92990443 -0.29703467 -5.1476489e-19)
(0.96455927 -0.27402129 -6.6468259e-19)
(0.97186927 -0.23513462 -1.853992e-19)
(0.96374039 -0.19016886 -1.3911149e-18)
(0.95391447 -0.14714669 -1.0926755e-18)
(0.9477311 -0.11054943 -2.758815e-19)
(0.94915522 -0.082087906 -1.4549462e-19)
(-0.0011637381 0.0032509709 2.8821694e-20)
(-0.003592469 0.010065371 1.8978704e-20)
(-0.0062584975 0.017588594 -3.9490414e-20)
(-0.0091807595 0.025887441 6.772561e-20)
(-0.012378846 0.035032125 1.6966487e-20)
(-0.015872226 0.045096403 -7.2767617e-20)
(-0.019679883 0.056156496 3.72414e-22)
(-0.023819902 0.068289887 -4.3658286e-20)
(-0.028308749 0.081573556 1.3051045e-20)
(-0.033160453 0.096081559 -2.9319415e-22)