/*--------------------------------*- C++ -*----------------------------------*\
  =========                 |
  \\      /  F ield         | OpenFOAM: The Open Source CFD Toolbox
   \\    /   O peration     | Website:  https://openfoam.org
    \\  /    A nd           | Version:  13
     \\/     M anipulation  |
\*---------------------------------------------------------------------------*/
FoamFile
{
    format      ascii;
    class       volScalarField;
    location    "42.501803";
    object      omega;
}
// * * * * * * * * * * * * * * * * * * * * * * * * * * * * * * * * * * * * * //

dimensions      [0 0 -1 0 0 0 0];

internalField   nonuniform List<scalar> 
17140
(
4528389.9
731657.66
224626.36
95289.489
48487.727
27617.642
16960.884
10985.522
7400.0419
5136.1007
3649.1049
2641.4439
1941.1877
1444.4147
1085.9134
823.45789
628.96846
483.34225
373.3261
289.56739
225.36756
175.86621
137.49635
107.61391
84.241755
65.890384
51.43079
40.003561
30.953428
23.781844
18.111983
13.661222
10.216422
7.6088326
5.6904721
4.3199112
3.3632979
2.7047022
2.2539191
1.946589
1.7392521
1.6033403
1.5223496
1.4848553
1.4747938
1.4897455
1.5277288
1.5853578
1.6602603
1.7508986
1.8562868
1.9749676
2.1032007
2.2370982
2.3782818
2.5325417
2.709915
2.9290385
3.2309164
3.7103928
4.0839179
3.895041
3.7316516
3.3820019
2.9451191
4528420.9
731663.27
224628.42
95290.545
48488.357
27618.056
16961.172
10985.732
7400.1977
5136.2185
3649.1943
2641.5112
1941.2373
1444.4495
1085.9357
823.4694
628.97034
483.33544
373.31132
289.54523
225.33848
175.83061
137.4546
107.56635
84.188777
65.832453
51.36853
39.937834
30.885435
23.713219
18.044843
13.59809
10.159916
7.5610905
5.6525259
4.2914432
3.3429811
2.690832
2.2449079
1.9411774
1.7365216
1.6026483
1.5234414
1.4874661
1.478309
1.4942446
1.5331881
1.5918085
1.6678097
1.7597641
1.8668555
1.9878412
2.1191701
2.2571452
2.4031903
2.5617611
2.7385976
2.9434893
3.199581
3.5343195
3.797493
3.7528522
3.5811184
3.2357137
3.0136797
4528451.2
731668.24
224629.96
95291.198
48488.689
27618.243
16961.285
10985.803
7400.2431
5136.2474
3649.2119
2641.5209
1941.2409
1444.4485
1085.931
823.46144
628.95954
483.32203
373.29541
289.52688
225.31766
175.80728
137.42867
107.53775
84.157451
65.798427
51.331948
39.899028
30.844998
23.672078
18.004288
13.559704
10.125361
7.5317529
5.6291334
4.2739053
3.3305821
2.6826016
2.2399206
1.9386924
1.7360028
1.603741
1.5261075
1.4914025
1.4832691
1.5004511
1.5407658
1.6009901
1.6789725
1.7734995
1.8840664
2.0097447
2.1471283
2.2928862
2.448593
2.6172475
2.8003292
2.9997505
3.2158577
3.4388292
3.6034111
3.5618706
3.3972866
3.2148768
3.0636254
4528483
731673.41
224631.57
95291.88
48489.036
27618.44
16961.406
10985.88
7400.2949
5136.2828
3649.2365
2641.5381
1941.253
1444.4569
1085.9367
823.46527
628.96192
483.32331
373.29582
289.52654
225.31664
175.80555
137.42615
107.53433
84.152973
65.792738
51.32493
39.890642
30.835328
23.661366
17.992945
13.548293
10.114536
7.5221402
5.6212064
4.2678975
3.3264878
2.680261
2.2391246
1.9392529
1.7377966
1.606728
1.5304437
1.4968722
1.4899087
1.5087027
1.5509439
1.6135889
1.694729
1.7935115
1.9099349
2.0434682
2.1907227
2.3490366
2.5204702
2.7059552
2.9022851
3.1034871
3.3039057
3.4488643
3.5327985
3.4517524
3.3370474
3.2872792
3.1508587
4528516.9
731678.91
224633.26
95292.595
48489.398
27618.648
16961.536
10985.966
7400.3548
5136.3266
3649.2702
2641.5652
1941.276
1444.4775
1085.956
823.484
628.98073
483.34262
373.31594
289.54765
225.33882
175.82879
137.45035
107.55927
84.17839
65.818274
51.35019
39.915201
30.858751
23.683208
18.012751
13.565608
10.128972
7.5335266
5.6297413
4.2741493
3.3312098
2.6841692
2.2427838
1.9430797
1.7421118
1.6118098
1.5366899
1.5041493
1.4985914
1.5194996
1.5644118
1.6305643
1.71643
1.82172
1.9471728
2.0926338
2.2545927
2.431838
2.6272207
2.8384244
3.0553593
3.2625679
3.4557497
3.5634346
3.5805515
3.4743331
3.3995135
3.4525761
3.2669965
4528552.1
731684.59
224635
95293.334
48489.778
27618.867
16961.674
10986.06
7400.4229
5136.379
3649.3132
2641.6027
1941.3106
1444.5109
1085.9894
823.51848
629.01693
483.38107
373.35701
289.59158
225.38573
175.87867
137.50304
107.6145
84.235729
65.877171
51.409952
39.974995
30.917583
23.739901
18.065915
13.613692
10.170477
7.5674293
5.655944
4.2935771
3.3454248
2.694823
2.2512726
1.9504667
1.7491976
1.6192606
1.545248
1.5135515
1.5098138
1.5335073
1.5820779
1.6531819
1.7458681
1.8606945
1.9993864
2.1618893
2.3448293
2.5501451
2.7816986
3.0319147
3.2792721
3.4920841
3.6715925
3.7569029
3.7310349
3.6088966
3.6073683
3.6351695
3.3623763
4528588.7
731690.44
224636.79
95294.099
48490.173
27619.098
16961.821
10986.162
7400.4993
5136.4403
3649.3658
2641.6508
1941.3569
1444.5573
1086.0374
823.5691
629.07098
483.43916
373.41959
289.65897
225.45808
175.95596
137.58511
107.70099
84.326085
65.970633
51.50553
40.071443
31.013346
23.83305
18.154106
13.69424
10.240712
7.6253948
5.7011606
4.3272736
3.3699738
2.7128552
2.2650727
1.9617971
1.7593765
1.6293498
1.5562056
1.5259462
1.5242842
1.5516069
1.6051391
1.6831171
1.7854449
1.9139205
2.0713567
2.2571864
2.4699717
2.7175913
3.0050278
3.3163394
3.6099342
3.8253008
3.9777138
4.0283885
3.9780222
3.8855495
3.8915484
3.822176
3.4046733
4528626.6
731696.5
224638.64
95294.893
48490.585
27619.34
16961.978
10986.273
7400.5842
5136.5105
3649.4281
2641.7095
1941.4149
1444.6168
1086.0999
823.63573
629.14272
483.51674
373.50356
289.7497
225.55578
176.06066
137.69661
107.81888
84.449698
66.099024
51.637435
40.205221
31.146895
23.963707
18.278574
13.808686
10.341241
7.7090167
5.766883
4.3765208
3.4058873
2.7390672
2.2848121
1.9775849
1.7730914
1.6426503
1.5703303
1.5417769
1.5428986
1.5749601
1.6351814
1.7226122
1.8384268
1.9861783
2.1692485
2.386411
2.6430836
2.9565096
3.3333637
3.7451951
4.1137672
4.3268096
4.4329009
4.4125061
4.3052917
4.2095155
4.173088
3.9768615
3.2494408
4528664.7
731702.75
224640.56
95295.717
48491.012
27619.593
16962.144
10986.392
7400.6772
5136.5892
3649.4995
2641.7782
1941.4841
1444.6887
1086.1761
823.71767
629.2314
483.613
373.60805
289.86289
225.67794
176.19184
137.83665
107.96734
84.605826
66.26173
51.80522
40.376092
31.318252
24.132196
18.439987
13.958058
10.473421
7.8198663
5.8547226
4.4427962
3.4544092
2.7744614
2.3113022
1.9985258
1.7910208
1.6598494
1.5884427
1.561768
1.566844
1.6051146
1.6743387
1.7747207
1.9093397
2.0839772
2.3007535
2.561218
2.8856073
3.3045713
3.8286144
4.4105091
4.9010552
5.1214664
5.1418322
4.9867563
4.7675564
4.6073948
4.5021991
4.0969219
2.6961598
4528704.9
731709.25
224642.57
95296.575
48491.456
27619.857
16962.319
10986.52
7400.7781
5136.6759
3649.5795
2641.8563
1941.5635
1444.7719
1086.265
823.81359
629.33557
483.72637
373.73138
289.99674
225.82267
176.34759
138.00329
108.14442
84.792593
66.456991
52.007301
40.582722
31.526408
24.337918
18.638237
14.142801
10.638247
7.9593856
5.9663533
4.527759
3.5170123
2.8202707
2.3455699
2.0255154
1.8140126
1.681803
1.6114918
1.5871934
1.5976256
1.6441647
1.7255469
1.8437006
2.0045358
2.2157552
2.4761394
2.8009528
3.2335303
3.8242672
4.5887989
5.4339491
6.1190851
6.3889367
6.242246
5.8459947
5.4128928
5.1286413
4.8172731
3.9315625
1.7583106
4528746.8
731716
224644.64
95297.466
48491.92
27620.133
16962.503
10986.654
7400.8859
5136.7696
3649.6668
2641.9423
1941.6517
1444.8648
1086.3646
823.92148
629.45303
483.85446
373.87097
290.14851
225.98708
176.52487
138.19339
108.34698
85.006846
66.681738
52.240781
40.82248
31.76911
24.579125
18.872213
14.362551
10.836151
8.1287205
6.1034017
4.6332015
3.5953954
2.8779814
2.3888938
2.0596934
1.8431568
1.709649
1.6407993
1.6197059
1.6373658
1.6950451
1.7929799
1.9356817
2.1330801
2.3919596
2.7121999
3.1388791
3.7461357
4.6119652
5.738871
6.9159751
7.5751101
7.434594
7.004168
6.424479
5.9003282
5.4640528
4.6789063
2.5435411
0.9636583
4528789.6
731722.95
224646.8
95298.387
48492.401
27620.421
16962.695
10986.795
7400.9996
5136.8691
3649.7601
2642.0346
1941.7468
1444.9653
1086.4726
824.03866
629.58081
483.99403
374.02331
290.31442
226.16715
176.71945
138.40255
108.57047
85.244013
66.931436
52.501263
41.091231
32.042632
24.852665
19.139517
14.615842
11.066712
8.3284716
6.2672632
4.760943
3.6914471
2.9493455
2.4428449
2.1025075
1.8798789
1.7449156
1.6781734
1.6615886
1.6891094
1.7620265
1.8828276
2.0599186
2.3081036
2.6278301
3.039651
3.6312697
4.51719
5.7950513
7.3491299
8.2648685
8.1411806
7.7024728
6.8003553
5.9692273
5.2699217
4.4505983
2.5169804
1.0879247
0.49343907
4528834.7
731730.22
224649.04
95299.344
48492.9
27620.719
16962.894
10986.942
7401.1181
5136.9729
3649.8576
2642.1312
1941.8463
1445.0706
1086.5859
824.16178
629.71521
484.14101
374.18398
290.4897
226.35776
176.9259
138.62508
108.80898
85.498027
67.199971
52.782705
41.383154
32.341546
25.153713
19.436161
14.899767
11.328303
8.5583499
6.4588179
4.9126414
3.8071554
3.0363684
2.5093309
2.1558016
1.9260766
1.789691
1.7261169
1.7161331
1.7573754
1.8515968
2.0047331
2.2311261
2.5488795
2.9521503
3.514007
4.3723929
5.6895135
7.4915491
8.7672288
8.6938548
8.1003152
6.4992748
4.585002
3.2509129
2.3362008
1.6342753
0.95080288
0.5138408
0.2997823
4528880.1
731737.64
224651.33
95300.33
48493.416
27621.027
16963.099
10987.093
7401.2396
5137.079
3649.957
2642.2295
1941.9475
1445.1776
1086.701
824.28679
629.85178
484.29052
374.34763
290.66853
226.55266
177.13754
138.8539
109.05512
85.761247
67.479551
53.077293
41.690571
32.658512
25.475502
19.756241
15.20959
11.617653
8.8167326
6.6780289
5.0894913
3.9444346
3.1412535
2.5906338
2.2219363
1.9843462
1.8469417
1.788123
1.7882943
1.8491522
1.9740818
2.1745319
2.4739804
2.8856836
3.4211375
4.2346376
5.5226154
7.4602925
9.181635
9.222261
8.5945189
6.6320423
3.9608642
2.2490248
1.4381459
1.0032598
0.7064707
0.46136757
0.31825537
0.22813676
4528926.9
731745.29
224653.69
95301.351
48493.948
27621.344
16963.31
10987.247
7401.3624
5137.1854
3650.0559
2642.3268
1942.0472
1445.2827
1086.8138
824.40922
629.98552
484.43701
374.50818
290.84431
226.74468
177.34667
139.08079
109.3002
86.024582
67.760779
53.375458
42.003908
32.984163
25.80914
20.091656
15.538381
11.929396
9.1001452
6.9234244
5.2917892
4.1048374
3.266277
2.6894267
2.3039211
2.0583463
1.9211979
1.8690142
1.8859566
1.9757379
2.1467018
2.419538
2.8300487
3.3740071
4.1429127
5.3816691
7.3458184
9.5166793
9.7795286
9.2039788
7.2735191
4.0549809
2.1409422
1.2530273
0.81128182
0.56491835
0.41290546
0.30495824
0.24455297
0.19571474
4528977.9
731753.48
224656.19
95302.415
48494.498
27621.67
16963.525
10987.403
7401.485
5137.2901
3650.1518
2642.42
1942.1419
1445.3818
1086.9198
824.52404
630.11082
484.57431
374.65883
291.00957
226.92572
177.54452
139.29637
109.53421
86.277483
68.032648
53.665849
42.311636
33.307
26.143431
20.431857
15.876663
12.255613
9.402707
7.1914911
5.5183685
4.2891386
3.4135833
2.8087868
2.4055981
2.1529881
2.0184839
1.9779805
2.0215608
2.1562136
2.3995348
2.7884208
3.3608937
4.1243924
5.3212869
7.2650855
9.8101919
10.342588
9.8574825
8.1882956
4.5516137
2.3159466
1.2896825
0.80115875
0.54862297
0.40028581
0.30787853
0.24361422
0.20823479
0.17140364
4529031.7
731762
224658.78
95303.521
48495.07
27622.007
16963.744
10987.558
7401.6052
5137.3906
3650.2421
2642.5061
1942.228
1445.471
1087.0144
824.62613
630.22199
484.69605
374.79255
291.15658
227.08729
177.72187
139.49064
109.74644
86.508527
68.283096
53.93587
42.600762
33.613832
26.465236
20.764083
16.212464
12.585695
9.7157859
7.4761336
5.7659835
4.4968272
3.5849478
2.952357
2.5324337
2.2753773
2.1484767
2.1297617
2.2167268
2.4246232
2.7876949
3.3674762
4.1729858
5.3597131
7.3125305
10.10552
10.933869
10.530238
9.054986
5.3867302
2.713223
1.456241
0.87185025
0.58272169
0.42358396
0.3224334
0.25691785
0.20575677
0.17785266
0.14972497
4529085.9
731770.69
224661.45
95304.664
48495.658
27622.35
16963.965
10987.712
7401.7211
5137.4847
3650.3239
2642.5819
1942.3019
1445.5462
1087.0932
824.71031
630.31321
484.79577
374.90214
291.2774
227.22067
177.86916
139.65319
109.9256
86.705578
68.499168
54.171809
42.856933
33.889826
26.759476
21.073333
16.531312
12.906152
10.027597
7.7681922
6.0287948
4.7256402
3.7815391
3.1244953
2.6920799
2.4367767
2.3277702
2.3503044
2.5102587
2.8447315
3.4154108
4.2830637
5.5029896
7.4829595
10.445133
11.558842
11.229751
9.9498351
6.4129186
3.1758354
1.6444737
0.96112778
0.63546812
0.45747109
0.34623579
0.26806012
0.21305098
0.17281102
0.15652305
0.13510224
4529139.6
731779.56
224664.2
95305.829
48496.257
27622.698
16964.185
10987.862
7401.8305
5137.5698
3650.3944
2642.6442
1942.3601
1445.6032
1087.1513
824.77126
630.37852
484.86681
374.98023
291.36384
227.31682
177.97647
139.7732
110.05992
86.855908
68.667189
54.359086
43.064729
34.118834
27.009449
21.342613
16.81631
13.200924
10.323783
8.0557952
6.2983925
4.9714885
4.0040679
3.3309401
2.8956439
2.65589
2.5879053
2.6842307
2.9778041
3.5388227
4.4619108
5.7625043
7.7872669
10.888265
12.235857
11.963343
10.847768
7.4912195
3.6856376
1.882353
1.0786914
0.69498223
0.48962704
0.36536115
0.28123668
0.22013998
0.18122632
0.15570376
0.14065359
0.12372058
4529196.7
731788.83
224667.05
95307.04
48496.876
27623.053
16964.406
10988.008
7401.9323
5137.6443
3650.4518
2642.6905
1942.3997
1445.6389
1087.1851
824.80489
630.41333
484.90403
375.02105
291.40949
227.36863
178.03592
139.84194
110.13982
86.949017
68.775733
54.485362
43.210953
34.286897
27.200578
21.556929
17.052286
13.454867
10.58969
8.3259461
6.5651131
5.2297559
4.2544607
3.5816798
3.1635433
2.9678385
2.9838316
3.2180435
3.7654768
4.730648
6.1531802
8.2462396
11.441987
12.985286
12.753122
11.740682
8.5703167
4.2556181
2.183323
1.2332798
0.77681598
0.54019956
0.40109397
0.30807763
0.24224678
0.19617114
0.16576771
0.14086979
0.12871719
0.11335375
4529258.1
731798.6
224670.03
95308.298
48497.514
27623.414
16964.626
10988.149
7402.025
5137.7064
3650.4937
2642.7185
1942.4178
1445.6499
1087.1909
824.80692
630.41278
484.90193
375.01841
291.40738
227.36827
178.03876
139.84971
110.15461
86.97329
68.812341
54.537487
43.28194
34.379904
27.318229
21.701171
17.223892
13.653
10.81167
8.567499
6.8217427
5.4993472
4.5406937
3.8975557
3.5351025
3.4398037
3.6111628
4.1280656
5.1337677
6.6930036
8.8922505
12.12298
13.81618
13.610018
12.656113
9.6358762
4.8865334
2.5392396
1.4118326
0.87199614
0.60120684
0.44502142
0.34131946
0.26759013
0.21423155
0.17417634
0.14625592
0.12801061
0.11879283
0.10687886
4529319.5
731808.54
224673.08
95309.588
48498.166
27623.779
16964.844
10988.283
7402.1073
5137.7549
3650.5188
2642.7266
1942.4127
1445.6344
1087.1667
824.77534
630.3748
484.8584
374.97019
291.35542
227.3137
177.98295
139.79437
110.10182
86.925581
68.77273
54.509511
43.269728
34.388352
27.352721
21.766485
17.323152
13.788263
10.984046
8.7774597
7.0703846
5.7910613
4.8874257
4.3246708
4.0897443
4.1881187
4.6658294
5.7126643
7.4070878
9.717276
12.944415
14.733055
14.543352
13.616247
10.679967
5.5841709
2.9475959
1.61801
0.98288293
0.67191371
0.49001718
0.37067496
0.28790668
0.22876615
0.18441294
0.15424577
0.13482849
0.12021724
0.11184538
0.10095242
4529381.2
731818.66
224676.2
95310.911
48498.832
27624.149
16965.059
10988.41
7402.1794
5137.79
3650.5273
2642.7148
1942.3847
1445.5926
1087.1128
824.71037
630.29961
484.77371
374.87673
291.25405
227.20553
177.86941
139.67734
109.98368
86.809321
68.661966
54.408518
43.183385
34.321985
27.312138
21.758352
17.355635
13.867709
11.116878
8.9710893
7.3350049
6.1431699
5.3559312
4.9605812
4.9777239
5.4181491
6.4892209
8.3054256
10.725341
13.914759
15.759958
15.551464
14.618694
11.687273
6.3525678
3.4033308
1.8509647
1.1087692
0.75007673
0.53916381
0.40694282
0.31896698
0.25502603
0.20588753
0.17048207
0.14505443
0.12675865
0.11302502
0.10535897
0.09686691
4529447.3
731829.36
224679.48
95312.285
48499.52
27624.527
16965.276
10988.533
7402.2434
5137.8136
3650.5213
2642.6857
1942.3365
1445.5275
1087.0325
824.61591
630.19165
484.65287
374.74366
291.10959
227.0508
177.70594
139.50721
109.80962
86.634795
68.491303
54.246949
43.037077
34.198028
27.218506
21.703848
17.349688
13.922848
11.24793
9.1964209
7.6797451
6.6448176
6.0738022
5.9904103
6.4050986
7.4962923
9.4007455
11.924979
15.039474
16.911345
16.664555
15.685694
12.696186
7.1843898
3.9039321
2.1124748
1.2525554
0.83813511
0.59770415
0.45124297
0.35427921
0.28068282
0.22475372
0.18458513
0.15440676
0.1321713
0.11696627
0.10702558
0.10073455
0.092424797
4529517.1
731840.53
224682.89
95313.719
48500.234
27624.917
16965.496
10988.654
7402.3021
5137.829
3650.5048
2642.6439
1942.2732
1445.4454
1086.933
824.50003
630.06011
484.50629
374.58275
290.93527
226.86435
177.50914
139.30247
109.60014
86.424715
68.285811
54.052442
42.861265
34.050034
27.108972
21.645101
17.356217
14.016287
11.454423
9.5506229
8.2299546
7.4612726
7.2609237
7.6433804
8.7460936
10.713798
13.3262
16.348619
18.189093
17.896285
16.818573
13.721366
8.0846075
4.4576483
2.4115381
1.4174152
0.93975051
0.66713674
0.50153164
0.38994694
0.30679
0.24587467
0.20087689
0.16552686
0.14116503
0.12385599
0.11208812
0.10234781
0.096787329
0.090038709
4529588.1
731851.96
224686.4
95315.2
48500.971
27625.319
16965.722
10988.779
7402.3613
5137.8434
3650.4858
2642.5986
1942.2058
1445.3585
1086.8282
824.37848
629.92271
484.35386
374.41622
290.75585
226.67368
177.30943
139.09669
109.39218
86.219595
68.089878
53.873588
42.709171
33.936379
27.047605
21.655149
17.46524
14.255735
11.867116
10.194874
9.1865316
8.8423766
9.1710294
10.255021
12.26143
14.935009
17.841723
19.603702
19.251452
18.040798
14.775073
9.0476153
5.0679807
2.7472292
1.6024536
1.0535104
0.74572281
0.55540634
0.42846565
0.33731694
0.27138019
0.22132489
0.18293493
0.15518318
0.13429536
0.11850528
0.10692733
0.098848089
0.093103863
0.087405846
4529661.3
731863.83
224690.03
95316.734
48501.737
27625.738
16965.961
10988.913
7402.4296
5137.8668
3650.4764
2642.5636
1942.1498
1445.2845
1086.7382
824.27402
629.80501
484.22416
374.27592
290.60667
226.51784
177.14984
138.9371
109.23743
86.07581
67.964731
53.776769
42.65338
33.93872
27.132093
21.851693
17.810565
14.798842
12.673871
11.353675
10.814345
11.051586
12.073157
14.067806
16.758543
19.546196
21.177216
20.747915
19.365329
15.861349
10.068058
5.736642
3.1201113
1.8064048
1.1801836
0.83332227
0.617717
0.4745856
0.3737588
0.29982174
0.24387885
0.20039227
0.16753433
0.14244843
0.12377027
0.11083697
0.10170449
0.094884911
0.090810966
0.085381693
4529737.4
731876.14
224693.82
95318.327
48502.537
27626.182
16966.22
10989.066
7402.517
5137.9106
3650.4895
2642.5539
1942.1226
1445.2432
1086.6854
824.21182
629.73528
484.14881
374.19707
290.52684
226.44011
177.07808
138.87627
109.19392
86.057985
67.983748
53.847359
42.794476
34.174769
27.49462
22.382006
18.562552
15.843741
14.104254
13.286475
13.372049
14.263779
16.179776
18.813317
21.498913
22.932442
22.396203
20.811121
16.999522
11.144726
6.4684489
3.533238
2.0364907
1.3259528
0.93637806
0.69113675
0.52853599
0.41238323
0.32965854
0.2676118
0.21980599
0.18271377
0.15429029
0.13346737
0.11853871
0.10718788
0.099245165
0.092789225
0.088163647
0.083845889
4529816
731888.84
224697.73
95319.984
48503.376
27626.656
16966.506
10989.246
7402.6332
5137.986
3650.5381
2642.5845
1942.1411
1445.2538
1086.6916
824.21647
629.74125
484.15905
374.2149
290.55618
226.4857
177.14583
138.97357
109.33013
86.245006
68.236777
54.186091
43.244931
34.771047
28.280559
23.414583
19.915372
17.609669
16.395398
16.23192
16.940749
18.662505
21.146761
23.719219
24.879243
24.207233
22.387273
18.207524
12.260129
7.2557972
3.9831532
2.2915285
1.4902575
1.0513206
0.77329953
0.58712553
0.45619192
0.36410138
0.29638315
0.24255051
0.20095128
0.16854347
0.1452585
0.12704805
0.11317991
0.10304894
0.09541203
0.090062528
0.086284763
0.082533274
4529897.8
731902.1
224701.79
95321.714
48504.26
27627.164
16966.824
10989.459
7402.7843
5138.1005
3650.6309
2642.6655
1942.217
1445.3302
1086.7729
824.30672
629.84466
484.28008
374.35856
290.72831
226.69328
177.39738
139.27963
109.70393
86.703427
68.801706
54.885599
44.11492
35.857332
29.641521
25.12366
22.062535
20.299511
19.738226
20.193831
21.599417
23.83787
26.205647
27.020118
26.171661
24.062243
19.455912
13.405882
8.0826598
4.4724456
2.5811262
1.6788632
1.1815785
0.86501845
0.65483718
0.50767301
0.40474864
0.32680815
0.26717433
0.22076022
0.18512476
0.15745777
0.13556231
0.11899447
0.10769543
0.099026804
0.092942162
0.088214392
0.084918345
0.081471147
4529983.7
731915.9
224706.03
95323.52
48505.19
27627.707
16967.174
10989.705
7402.9717
5138.2559
3650.7704
2642.8
1942.3547
1445.4776
1086.9359
824.49111
630.0563
484.52546
374.64505
291.06452
227.08953
177.86617
139.83634
110.36798
87.498899
69.758681
56.041908
45.517865
37.565674
31.726942
27.67017
25.161743
24.036783
24.136581
25.067878
26.931486
28.997003
29.327706
28.278676
25.740556
20.793307
14.607445
8.9677489
5.0203636
2.9168655
1.8925666
1.3244136
0.96802423
0.73323798
0.56875614
0.45002773
0.36145526
0.29492106
0.24481711
0.20369386
0.17161229
0.14639084
0.1286612
0.11531157
0.10507102
0.097056739
0.091195662
0.086472948
0.083289804
0.080536124
4530071.7
731930.11
224710.41
95325.396
48506.164
27628.286
16967.558
10989.986
7403.1986
5138.4558
3650.9611
2642.9938
1942.5611
1445.7047
1087.1913
824.78259
630.39209
484.91478
375.09849
291.59453
227.71095
178.59697
140.6984
111.38785
88.709338
71.199735
57.762431
47.576712
40.031662
34.676176
31.178085
29.286272
28.792259
29.261645
30.454362
31.997173
31.776948
30.4676
27.449251
22.196618
15.827198
9.8754967
5.6079549
3.2847153
2.1219942
1.4784501
1.0838765
0.82385807
0.63751547
0.5016621
0.40080416
0.32750735
0.27033394
0.22470831
0.18794957
0.16054379
0.13939529
0.12282431
0.1099088
0.10054102
0.093574879
0.08870829
0.084977836
0.082493206
0.079901517
4530163.2
731944.95
224714.97
95327.353
48507.193
27628.911
16967.988
10990.316
7403.4792
5138.717
3651.2222
2643.2687
1942.8612
1446.04
1087.5716
825.21793
630.89363
485.49504
375.77199
292.37834
228.6254
179.6664
141.95213
112.86113
90.444349
73.246253
60.177819
50.424766
43.37749
38.575068
35.654935
34.302678
34.211891
34.739925
35.198569
34.470337
32.675315
29.180235
23.63787
17.043468
10.809097
6.2604706
3.7107312
2.3893969
1.6602338
1.2221769
0.92983608
0.71691749
0.56114532
0.44766275
0.36377401
0.29955931
0.24825504
0.20869818
0.17622911
0.15133458
0.13116595
0.11700491
0.10598997
0.098153402
0.092007542
0.087630205
0.083894269
0.081245991
0.079041759
4530257.7
731960.24
224719.7
95329.406
48508.291
27629.598
16968.479
10990.712
7403.8345
5139.0634
3651.5812
2643.6564
1943.2909
1446.5241
1088.1224
825.84867
631.61878
486.33116
376.73835
293.49768
229.92476
181.17814
143.71498
114.92126
92.853538
76.052789
63.422945
54.16337
47.645096
43.366117
40.889409
39.774449
39.492999
38.87456
37.280876
34.943607
30.979334
25.114063
18.257385
11.788264
6.9963646
4.1979854
2.6881467
1.8587547
1.370347
1.0421964
0.80264028
0.62886724
0.50161933
0.40643729
0.33251327
0.27602901
0.23076764
0.19448638
0.16471608
0.14275585
0.12586581
0.11341473
0.10324693
0.095891572
0.090028249
0.085793985
0.082629232
0.080651353
0.078662582
4530355.2
731976.05
224724.6
95331.556
48509.466
27630.356
16969.045
10991.192
7404.2854
5139.5196
3652.0665
2644.1892
1943.8871
1447.1987
1088.8909
826.72767
632.62686
487.48967
378.0722
295.0363
231.70324
183.2374
146.10063
117.67983
96.027745
79.67685
67.524901
58.748884
52.676694
48.729105
46.374027
44.793351
42.941011
40.478504
37.486358
32.896076
26.619901
19.502645
12.843443
7.8255933
4.7467091
3.0220795
2.082094
1.5385055
1.1732946
0.90706862
0.71250789
0.56687219
0.45568746
0.37097622
0.30640618
0.25643312
0.21502864
0.18265899
0.15613878
0.13671843
0.1206756
0.1086985
0.099628788
0.09330424
0.088216313
0.084914755
0.081918028
0.079940412
0.078069393
4530457.6
731992.6
224729.75
95333.83
48510.732
27631.198
16969.699
10991.77
7404.8475
5140.1036
3652.6986
2644.8904
1944.676
1448.0934
1089.9103
827.89205
633.95923
489.01609
379.82241
297.04388
234.00491
185.87268
149.1111
121.10725
99.910271
84.043503
72.358974
63.946767
58.048631
53.899663
50.601895
47.418064
44.096886
40.26279
34.937094
28.211736
20.853631
14.021624
8.7573077
5.3667124
3.4069676
2.3418169
1.7314764
1.3225328
1.0255568
0.8054617
0.63802375
0.51091269
0.41509401
0.34251955
0.28511231
0.23965046
0.20216288
0.17244955
0.14803141
0.1300541
0.11570733
0.10606458
0.097979942
0.09201538
0.087184429
0.083696597
0.080909231
0.07926347
0.077636084
4530563.2
732009.75
224735.11
95336.225
48512.088
27632.13
16970.45
10992.456
7405.5332
5140.829
3653.4927
2645.7767
1945.6757
1449.2273
1091.1997
829.35989
635.63023
490.91734
381.98312
299.49494
236.77766
188.99592
152.60597
124.98004
104.14324
88.587289
77.10005
68.641752
62.278523
57.129542
52.560048
48.189942
43.312692
37.204693
30.006652
22.387775
15.349394
9.8010346
6.0745381
3.859429
2.6440243
1.9479209
1.4880948
1.1580777
0.91158084
0.72222105
0.57854254
0.46945991
0.38505189
0.31885944
0.2665112
0.2253043
0.19061183
0.16359534
0.14130785
0.12570271
0.11271287
0.10298663
0.095029768
0.089790478
0.085532789
0.082834429
0.080464968
0.078910812
0.07733132
4530672.5
732027.5
224740.67
95338.736
48513.538
27633.152
16971.299
10993.251
7406.3423
5141.695
3654.4465
2646.8434
1946.8781
1450.5873
1092.7396
831.10295
637.60099
493.14113
384.48514
302.298
239.89851
192.43929
156.35573
128.98675
108.30747
92.737655
81.006371
72.004762
64.792555
58.629235
52.933345
46.839981
39.856293
32.107952
24.157336
16.852316
10.985222
6.9049236
4.4047885
3.000971
2.1950812
1.6771181
1.3120694
1.0366722
0.82281617
0.65839414
0.5318447
0.43346716
0.3569559
0.29788733
0.25078718
0.21292254
0.18097311
0.15611241
0.13571162
0.12087884
0.10852934
0.10035792
0.093589485
0.088909123
0.084870254
0.082127878
0.079681226
0.07832526
0.076887428
4530784.7
732045.84
224746.44
95341.354
48515.067
27634.243
16972.215
10994.12
7407.232
5142.6512
3655.5017
2648.0243
1948.2084
1452.0897
1094.4368
833.01745
639.75468
495.55389
387.17273
305.26845
243.14659
195.93884
160.04974
132.77609
112.04012
96.201932
83.931854
74.133321
65.926211
58.511881
50.980261
42.982746
34.581647
26.219426
18.589609
12.369393
7.9044648
5.0686695
3.4244107
2.4793955
1.8925263
1.4869497
1.1785883
0.93701976
0.74969077
0.60381728
0.49082308
0.40342955
0.33535906
0.28133685
0.23740105
0.20223732
0.17241136
0.1494403
0.13029564
0.1173237
0.10634347
0.098611769
0.091946303
0.087523927
0.083675368
0.081289294
0.079218173
0.07809464
0.076709997
4530901
732061.41
224749.54
95341.857
48515.029
27634.154
16972.223
10994.277
7407.5601
5143.162
3656.2046
2648.9287
1949.3252
1453.4307
1096.0143
834.84347
641.83889
497.90117
389.77914
308.11589
246.19601
199.12222
163.26187
135.86823
114.81924
98.44003
85.393738
74.606728
65.033492
55.868655
46.728029
37.573534
28.708507
20.676053
14.037301
9.1244946
5.8820469
3.9371118
2.8176431
2.1438658
1.688226
1.3428126
1.0716478
0.85904944
0.69167194
0.56078772
0.45915777
0.37912524
0.3156439
0.26570735
0.22546995
0.19296214
0.16508021
0.14387442
0.12636041
0.11405294
0.10330106
0.09618054
0.090168199
0.086293785
0.083032257
0.080863553
0.078862769
0.077696644
0.076414328
4531685.4
732195.49
224794.68
95363.251
48527.177
27641.944
16977.691
10998.408
7410.8841
5145.9897
3658.7317
2651.286
1951.604
1455.6977
1098.3183
837.21954
644.30897
500.473
392.44316
310.84067
248.92264
201.75883
165.68031
137.90547
116.2901
99.151278
85.074198
72.875173
61.746132
51.199262
41.076401
31.538141
22.980751
15.856709
10.461846
6.7870194
4.5162178
3.1997854
2.421683
1.9070358
1.522656
1.2213053
0.98167354
0.79049996
0.63998688
0.52174105
0.42893532
0.35586134
0.2985195
0.25274362
0.21490526
0.18438472
0.15833035
0.13860163
0.12189338
0.11082932
0.10135009
0.095071466
0.089300472
0.085622237
0.082185051
0.080133494
0.078363214
0.077277745
0.076290209
4531684.6
732191.8
224791.71
95361.069
48525.692
27640.961
16977.083
10998.096
7410.8223
5146.1507
3659.0995
2651.8516
1952.3624
1456.6452
1099.4503
838.527
645.77529
502.06947
394.12394
312.5374
250.53966
203.17081
166.73647
138.42604
116.03663
97.816329
82.438149
68.927134
56.646133
45.294899
34.886156
25.666627
17.97509
12.052069
7.9003671
5.2497648
3.6793234
2.7537821
2.1591112
1.729027
1.3942839
1.1249284
0.90763806
0.73475972
0.59760673
0.48917187
0.40433352
0.33701873
0.28322994
0.24042536
0.2054511
0.1771024
0.1524066
0.13402719
0.11870651
0.10859344
0.098994286
0.092926547
0.087672955
0.084405617
0.081541679
0.07981823
0.078120763
0.077093581
0.076127922
4531684.8
732191.91
224791.82
95361.22
48525.889
27641.208
16977.384
10998.459
7411.2535
5146.6561
3659.6849
2652.5218
1953.1203
1457.4904
1100.3769
839.52128
646.81241
503.10985
395.10963
313.38961
251.15522
203.41373
166.42486
137.34351
113.99716
94.727681
78.305251
63.885303
50.982625
39.433929
29.322935
20.857038
14.218697
9.4182188
6.2348474
4.2933981
3.1522949
2.4500733
1.9657045
1.5934797
1.2913746
1.0451278
0.84656925
0.68747429
0.56123104
0.46145302
0.38269606
0.31981269
0.26998739
0.23007109
0.19695495
0.17034675
0.14726794
0.13024901
0.11539184
0.10573522
0.097360215
0.092120595
0.087061321
0.083943793
0.081049731
0.07924266
0.077689227
0.076886127
0.075994227
4531684.9
732191.99
224791.87
95361.287
48525.976
27641.319
16977.524
10998.63
7411.4596
5146.9003
3659.9695
2652.8472
1953.4841
1457.8856
1100.7902
839.9303
647.1826
503.39078
395.23039
313.25239
250.63351
202.36427
164.70857
134.84892
110.65615
90.545789
73.391412
58.468152
45.399531
34.084003
24.589119
17.018977
11.392156
7.5304686
5.1054815
3.6729418
2.8183876
2.2549265
1.8320952
1.4905868
1.2109932
0.98295576
0.79814868
0.65015506
0.53215034
0.43826943
0.36446346
0.30563897
0.25879712
0.22141194
0.19032453
0.1652083
0.14295266
0.12667754
0.11293652
0.10441655
0.095768763
0.090523686
0.085840759
0.083047196
0.08044761
0.079042043
0.077538149
0.076639974
0.075873579
4531686.1
732192.09
224791.87
95361.267
48525.949
27641.29
16977.493
10998.599
7411.43
5146.8718
3659.9406
2652.8141
1953.4392
1457.8155
1100.6738
839.73602
646.86562
502.8907
394.47038
312.142
249.07428
200.25649
161.96603
131.41907
106.54405
85.836666
68.263806
53.188374
40.290955
29.47286
20.739019
14.075626
9.3478131
6.263484
4.3923381
3.2855178
2.592089
2.1014285
1.7171334
1.4026198
1.1426236
0.92907216