/*--------------------------------*- C++ -*----------------------------------*\
  =========                 |
  \\      /  F ield         | OpenFOAM: The Open Source CFD Toolbox
   \\    /   O peration     | Website:  https://openfoam.org
    \\  /    A nd           | Version:  13
     \\/     M anipulation  |
\*---------------------------------------------------------------------------*/
FoamFile
{
    format      ascii;
    class       volScalarField;
    location    "42.501803";
    object      pPrime2Mean;
}
// * * * * * * * * * * * * * * * * * * * * * * * * * * * * * * * * * * * * * //

dimensions      [0 4 -4 0 0 0 0];

internalField   nonuniform List<scalar> 
17140
(
7327.7868
7327.7869
7327.7869
7327.7865
7327.786
7327.785
7327.7837
7327.7819
7327.7795
7327.7764
7327.7724
7327.7672
7327.7607
7327.7525
7327.7421
7327.7291
7327.7128
7327.6923
7327.6667
7327.6346
7327.5944
7327.5439
7327.4805
7327.4007
7327.3003
7327.1737
7327.014
7326.8125
7326.5583
7326.2381
7325.8353
7325.3297
7324.6967
7323.9064
7322.923
7321.704
7320.1987
7318.3481
7316.0832
7313.325
7309.9831
7305.9552
7301.1262
7295.3671
7288.5342
7280.4687
7270.9954
7259.923
7247.0422
7232.1251
7214.9241
7195.1709
7172.5755
7146.8253
7117.5831
7084.4856
7047.1387
7005.1191
6957.9616
6905.1739
6846.2046
6780.4898
6707.3672
6626.1941
6536.1947
7327.9654
7327.9655
7327.9654
7327.9651
7327.9645
7327.9636
7327.9622
7327.9604
7327.958
7327.9548
7327.9508
7327.9456
7327.9391
7327.9308
7327.9204
7327.9073
7327.891
7327.8705
7327.8448
7327.8127
7327.7725
7327.7221
7327.6588
7327.5792
7327.479
7327.3527
7327.1934
7326.9924
7326.7389
7326.4195
7326.0176
7325.513
7324.8809
7324.0917
7323.1093
7321.8913
7320.387
7318.5373
7316.2735
7313.5165
7310.1761
7306.1501
7301.3234
7295.567
7288.7375
7280.6759
7271.2074
7260.1403
7247.2656
7232.3555
7215.1625
7195.4184
7172.8334
7147.0951
7117.8663
7084.784
7047.4542
7005.4537
6958.3182
6905.5556
6846.6145
6780.9311
6707.8429
6626.7082
6536.7461
7328.407
7328.4071
7328.407
7328.4067
7328.4061
7328.4051
7328.4038
7328.402
7328.3996
7328.3965
7328.3924
7328.3873
7328.3808
7328.3726
7328.3622
7328.3492
7328.333
7328.3126
7328.2872
7328.2553
7328.2153
7328.1652
7328.1023
7328.0232
7327.9237
7327.7981
7327.6398
7327.4399
7327.1877
7326.8698
7326.4697
7325.9669
7325.3369
7324.5497
7323.5694
7322.3533
7320.8511
7319.0035
7316.7421
7313.9881
7310.6514
7306.6299
7301.8087
7296.0591
7289.2377
7281.1859
7271.7288
7260.6751
7247.8156
7232.9227
7215.7493
7196.0277
7173.4685
7147.7596
7118.5642
7085.5197
7048.2325
7006.2799
6959.1982
6906.496
6847.6222
6782.0129
6709.0071
6627.9652
6538.095
7329.1263
7329.1264
7329.1263
7329.126
7329.1254
7329.1244
7329.1231
7329.1213
7329.1189
7329.1158
7329.1119
7329.1068
7329.1004
7329.0923
7329.082
7329.0692
7329.0532
7329.0331
7329.008
7328.9765
7328.937
7328.8875
7328.8252
7328.747
7328.6484
7328.5241
7328.3671
7328.1689
7327.9187
7327.603
7327.2053
7326.7052
7326.0779
7325.2936
7324.3162
7323.1031
7321.604
7319.7599
7317.5025
7314.7534
7311.4228
7307.4087
7302.5965
7296.8579
7290.0497
7282.0137
7272.5752
7261.5431
7248.7082
7233.8433
7216.7019
7197.017
7174.4999
7148.8391
7119.6983
7086.7154
7049.4975
7007.623
6960.6288
6908.0239
6849.2583
6783.7684
6710.8958
6630.0046
6540.2835
7330.1381
7330.1382
7330.1381
7330.1377
7330.1371
7330.1362
7330.1349
7330.1331
7330.1307
7330.1277
7330.1238
7330.1187
7330.1124
7330.1044
7330.0943
7330.0817
7330.0659
7330.0461
7330.0213
7329.9902
7329.9513
7329.9025
7329.8411
7329.7638
7329.6665
7329.5436
7329.3884
7329.1923
7328.9445
7328.6316
7328.237
7327.7402
7327.1166
7326.3359
7325.3623
7324.1533
7322.6584
7320.8193
7318.5679
7315.8259
7312.5039
7308.5004
7303.701
7297.9778
7291.1882
7283.1743
7273.7618
7262.7597
7249.9592
7235.1336
7218.0373
7198.4042
7175.9465
7150.3534
7121.2893
7088.3931
7051.2728
7009.5077
6962.6361
6910.1672
6851.5526
6786.2303
6713.545
6632.8657
6543.3557
7331.4548
7331.4549
7331.4547
7331.4544
7331.4538
7331.4529
7331.4515
7331.4498
7331.4474
7331.4444
7331.4405
7331.4356
7331.4294
7331.4215
7331.4116
7331.3991
7331.3836
7331.3641
7331.3397
7331.3092
7331.2709
7331.2228
7331.1624
7331.0863
7330.9903
7330.8692
7330.7162
7330.5226
7330.2778
7329.9682
7329.5774
7329.0847
7328.4654
7327.6893
7326.7206
7325.5167
7324.0277
7322.1953
7319.9518
7317.2194
7313.9089
7309.9193
7305.1367
7299.4337
7292.6683
7284.683
7275.3042
7264.3409
7251.585
7236.8107
7219.7733
7200.208
7177.8277
7152.3228
7123.3587
7090.5754
7053.5822
7011.9596
6965.247
6912.9548
6854.5364
6789.4322
6716.9916
6636.5894
6547.3566
7333.09
7333.09
7333.0899
7333.0895
7333.0889
7333.088
7333.0867
7333.0849
7333.0826
7333.0796
7333.0758
7333.0709
7333.0647
7333.057
7333.0472
7333.035
7333.0197
7333.0006
7332.9766
7332.9467
7332.9091
7332.8619
7332.8026
7332.7279
7332.6337
7332.5146
7332.3641
7332.1735
7331.9321
7331.6265
7331.24
7330.7521
7330.1379
7329.3673
7328.4045
7327.2071
7325.7255
7323.9016
7321.6683
7318.948
7315.6521
7311.6799
7306.9182
7301.2404
7294.505
7286.5554
7277.218
7266.3028
7253.6025
7238.8921
7221.9282
7202.4471
7180.1633
7154.7681
7125.9284
7093.2854
7056.45
7015.0043
6968.4889
6916.4159
6858.2415
6793.4091
6721.2737
6641.2173
6552.3325
7335.0584
7335.0584
7335.0583
7335.0579
7335.0572
7335.0563
7335.055
7335.0532
7335.051
7335.048
7335.0442
7335.0394
7335.0334
7335.0258
7335.0162
7335.0043
7334.9893
7334.9706
7334.9472
7334.9178
7334.8811
7334.835
7334.777
7334.7039
7334.6116
7334.4949
7334.3472
7334.1599
7333.9224
7333.6212
7333.2396
7332.757
7332.1486
7331.3842
7330.4284
7329.2388
7327.7662
7325.9528
7323.7319
7321.0264
7317.748
7313.7968
7309.0605
7303.4131
7296.7139
7288.8069
7279.5194
7268.6621
7256.0286
7241.3954
7224.5203
7205.1411
7182.9736
7157.7107
7129.0207
7096.5466
7059.9012
7018.6683
6972.3901
6920.581
6862.7009
6798.197
6726.4308
6646.7918
6558.3298
7337.3775
7337.3775
7337.3773
7337.3769
7337.3763
7337.3753
7337.374
7337.3723
7337.37
7337.3671
7337.3633
7337.3586
7337.3527
7337.3453
7337.3359
7337.3243
7337.3097
7337.2914
7337.2686
7337.24
7337.2042
7337.1592
7337.1026
7337.0312
7336.9411
7336.8269
7336.6821
7336.4983
7336.2649
7335.9682
7335.5917
7335.1148
7334.5127
7333.7553
7332.8073
7331.6268
7330.1646
7328.3636
7326.1573
7323.4691
7320.2114
7316.2851
7311.5787
7305.967
7299.3103
7291.4534
7282.2244
7271.4352
7258.8807
7244.3386
7227.5684
7208.3095
7186.2792
7161.1721
7132.6584
7100.3831
7063.9613
7022.9785
6976.9794
6925.4808
6867.9481
6803.8323
6732.502
6653.3565
6565.3966
7340.0657
7340.0657
7340.0655
7340.0651
7340.0644
7340.0635
7340.0622
7340.0604
7340.0582
7340.0553
7340.0517
7340.0471
7340.0413
7340.034
7340.0249
7340.0135
7339.9993
7339.9815
7339.9593
7339.9315
7339.8967
7339.8529
7339.7977
7339.7281
7339.64
7339.5284
7339.3866
7339.2062
7338.9766
7338.6845
7338.313
7337.8419
7337.2462
7336.4963
7335.5569
7334.3864
7332.9361
7331.1491
7328.9594
7326.2911
7323.0574
7319.1599
7314.488
7308.9176
7302.3099
7294.5106
7285.3492
7274.6388
7262.1758
7247.7396
7231.0912
7211.9718
7190.1005
7165.1739
7136.8644
7104.8193
7068.656
7027.9621
6982.2854
6931.1472
6874.0182
6810.3536
6739.5301
6660.9572
6573.5815
7343.1423
7343.1422
7343.142
7343.1416
7343.1409
7343.14
7343.1387
7343.137
7343.1347
7343.1319
7343.1284
7343.1238
7343.1182
7343.1111
7343.1022
7343.0912
7343.0773
7343.06
7343.0384
7343.0113
7342.9774
7342.9347
7342.8808
7342.8128
7342.7267
7342.6173
7342.4781
7342.3008
7342.0748
7341.7867
7341.42
7340.9544
7340.3652
7339.623
7338.6927
7337.5332
7336.0959
7334.3245
7332.1535
7329.5077
7326.3011
7322.4363
7317.8038
7312.2805
7305.7285
7297.9947
7288.9102
7278.2897
7265.9314
7251.6162
7235.1073
7216.1477
7194.4583
7169.7382
7141.662
7109.8797
7074.0113
7033.6473
6988.3397
6937.6145
6880.9486
6817.8013
6747.557
6669.6384
6582.9336
7346.625
7346.625
7346.6247
7346.6243
7346.6236
7346.6226
7346.6213
7346.6197
7346.6175
7346.6147
7346.6112
7346.6068
7346.6012
7346.5943
7346.5856
7346.5748
7346.5612
7346.5444
7346.5232
7346.4968
7346.4635
7346.4217
7346.369
7346.3023
7346.2177
7346.1102
7345.9733
7345.7985
7345.5755
7345.291
7344.9286
7344.4682
7343.8855
7343.1511
7342.2304
7341.0825
7339.6594
7337.9051
7335.7548
7333.134
7329.9579
7326.13
7321.5419
7316.0713
7309.5819
7301.9219
7292.924
7282.405
7270.165
7255.987
7239.6362
7220.8575
7199.3742
7174.8875
7147.0752
7115.59
7080.0549
7040.0641
6995.1746
6944.9175
6888.7757
6826.2134
6756.625
6679.4466
6593.5021
7350.529
7350.5289
7350.5286
7350.5282
7350.5275
7350.5265
7350.5252
7350.5236
7350.5214
7350.5187
7350.5152
7350.5109
7350.5054
7350.4986
7350.4901
7350.4795
7350.4663
7350.4497
7350.429
7350.403
7350.3704
7350.3293
7350.2774
7350.2117
7350.1283
7350.0222
7349.8869
7349.7142
7349.4937
7349.2123
7348.8539
7348.3985
7347.8221
7347.0958
7346.1851
7345.0496
7343.6417
7341.906
7339.7785
7337.1855
7334.0433
7330.2566
7325.7178
7320.3062
7313.8865
7306.3088
7297.4078
7287.0024
7274.8951
7260.8713
7244.6979
7226.1222
7204.8699
7180.645
7153.1283
7121.9759
7086.8144
7047.2423
7002.8219
6953.0903
6897.537
6835.6314
6766.7773
6690.4286
6605.3362
7354.8673
7354.8672
7354.8669
7354.8665
7354.8658
7354.8648
7354.8636
7354.8619
7354.8598
7354.8571
7354.8537
7354.8494
7354.844
7354.8373
7354.8289
7354.8185
7354.8054
7354.7891
7354.7687
7354.7431
7354.7109
7354.6703
7354.619
7354.5541
7354.4715
7354.3665
7354.2326
7354.0616
7353.8432
7353.5647
7353.21
7352.7597
7352.1898
7351.4718
7350.5718
7349.4495
7348.058
7346.3425
7344.2399
7341.6776
7338.573
7334.8318
7330.3478
7325.0014
7318.659
7311.1728
7302.3796
7292.1007
7280.1413
7266.289
7250.3132
7231.9633
7210.968
7187.0343
7159.8464
7129.0643
7094.3186
7055.2124
7011.3149
6962.169
6907.271
6846.0949
6778.0573
6702.6307
6618.4841
7359.6522
7359.6521
7359.6518
7359.6514
7359.6507
7359.6498
7359.6485
7359.6469
7359.6448
7359.6421
7359.6387
7359.6345
7359.6292
7359.6226
7359.6144
7359.6041
7359.5912
7359.5751
7359.5549
7359.5295
7359.4977
7359.4575
7359.4067
7359.3423
7359.2605
7359.1563
7359.0235
7358.854
7358.6377
7358.3621
7358.0113
7357.566
7357.003
7356.294
7355.4053
7354.2972
7352.9233
7351.2299
7349.1546
7346.6261
7343.5628
7339.8718
7335.4481
7330.1737
7323.9168
7316.5317
7307.8578
7297.7192
7285.9234
7272.2609
7256.5034
7238.4032
7217.6918
7194.0799
7167.2555
7136.8823
7102.596
7064.0059
7020.6872
6972.1894
6918.015
6857.6449
6790.508
6716.0987
6632.9948
7364.8974
7364.8973
7364.897
7364.8966
7364.8959
7364.895
7364.8937
7364.8921
7364.89
7364.8874
7364.8841
7364.8799
7364.8747
7364.8681
7364.86
7364.8498
7364.837
7364.8211
7364.8011
7364.776
7364.7444
7364.7045
7364.6541
7364.5902
7364.509
7364.4056
7364.2739
7364.1059
7363.8918
7363.6191
7363.2725
7362.8328
7362.2771
7361.5775
7360.7008
7359.6081
7358.2534
7356.5839
7354.5385
7352.0469
7349.0289
7345.393
7341.0356
7335.8403
7329.6776
7322.404
7313.8617
7303.8775
7292.2618
7278.8079
7263.2903
7245.4642
7225.0649
7201.8066
7175.3812
7145.4572
7111.6767
7073.6547
7030.9728
6983.187
6929.8075
6870.3216
6804.1716
6730.8779
6648.9159
7370.619
7370.6189
7370.6186
7370.6182
7370.6175
7370.6166
7370.6154
7370.6138
7370.6118
7370.6091
7370.6058
7370.6017
7370.5965
7370.59
7370.5819
7370.5718
7370.5591
7370.5433
7370.5234
7370.4984
7370.467
7370.4273
7370.3772
7370.3137
7370.233
7370.1304
7369.9997
7369.8333
7369.6214
7369.3519
7369.0096
7368.5758
7368.0278
7367.3382
7366.4746
7365.398
7364.0641
7362.4207
7360.4078
7357.9566
7354.9881
7351.4124
7347.1274
7342.0189
7335.9594
7328.8083
7320.4103
7310.5953
7299.1768
7285.951
7270.6957
7253.1694
7233.1112
7210.239
7184.2496
7154.8175
7121.5909
7084.1904
7042.2053
6995.1978
6942.6859
6884.1644
6819.0903
6747.0131
6666.2945
7376.8348
7376.8347
7376.8345
7376.834
7376.8334
7376.8325
7376.8313
7376.8297
7376.8276
7376.825
7376.8218
7376.8176
7376.8124
7376.806
7376.7979
7376.7877
7376.7751
7376.7592
7376.7393
7376.7144
7376.683
7376.6434
7376.5934
7376.5301
7376.4498
7376.3478
7376.2181
7376.0532
7375.8436
7375.5772
7375.2393
7374.8115
7374.2716
7373.5926
7372.7425
7371.6837
7370.3721
7368.7569
7366.7794
7364.372
7361.4574
7357.947
7353.741
7348.7272
7342.7807
7335.7633
7327.523
7317.8926
7306.6889
7293.7114
7278.7416
7261.5416
7241.8541
7219.402
7193.8877
7164.9918
7132.3679
7095.6452
7054.4184
7008.2565
6956.6871
6899.2121
6835.3055
6764.5484
6685.1769
7383.563
7383.5629
7383.5626
7383.5622
7383.5616
7383.5607
7383.5595
7383.5579
7383.5558
7383.5532
7383.5499
7383.5457
7383.5405
7383.5339
7383.5257
7383.5155
7383.5027
7383.4867
7383.4666
7383.4415
7383.4099
7383.3701
7383.32
7383.2567
7383.1766
7383.0751
7382.9463
7382.7828
7382.5753
7382.3121
7381.9787
7381.5571
7381.0254
7380.3575
7379.5219
7378.4818
7377.1942
7375.6096
7373.6703
7371.3104
7368.454
7365.0145
7360.8942
7355.9833
7350.1595
7343.2876
7335.2186
7325.7887
7314.8181
7302.1101
7287.4498
7270.6031
7251.3173
7229.3209
7204.3223
7176.0072
7144.0383
7108.0505
7067.6442
7022.398
6971.8467
6915.5032
6852.8579
6783.527
6705.6086
7390.8176
7390.8176
7390.8173
7390.8169
7390.8163
7390.8154
7390.8142
7390.8126
7390.8105
7390.8079
7390.8045
7390.8003
7390.7949
7390.7883
7390.78
7390.7696
7390.7566
7390.7404
7390.7201
7390.6947
7390.6628
7390.6228
7390.5725
7390.5092
7390.4292
7390.3281
7390.2001
7390.038
7389.8327
7389.5728
7389.2439
7388.8287
7388.3058
7387.6494
7386.8292
7385.8091
7384.5475
7382.9957
7381.0977
7378.7889
7375.9953
7372.6324
7368.6047
7363.8051
7358.1143
7351.3999
7343.5164
7334.3033
7323.5848
7311.1678
7296.8413
7280.376
7261.5241
7240.0203
7215.5783
7187.8925
7156.6319
7121.4362
7081.9159
7037.6551
6988.2004
6933.075
6871.7873
6803.9913
6727.6337
7398.6097
7398.6096
7398.6094
7398.609
7398.6084
7398.6075
7398.6062
7398.6046
7398.6025
7398.5998
7398.5964
7398.5922
7398.5868
7398.58
7398.5716
7398.5611
7398.5479
7398.5315
7398.511
7398.4854
7398.4533
7398.4132
7398.3629
7398.2996
7398.2199
7398.1194
7397.9925
7397.8322
7397.6295
7397.3733
7397.0496
7396.6415
7396.128
7395.4844
7394.6808
7393.6825
7392.4488
7390.9324
7389.0787
7386.8249
7384.0987
7380.8181
7376.8901
7372.2106
7366.6631
7360.1187
7352.4351
7343.4558
7333.0084
7320.9043
7306.9368
7290.8816
7272.4971
7251.5232
7227.682
7200.6751
7170.1757
7135.833
7097.2632
7054.0609
7005.7831
6951.9644
6892.1325
6825.9823
6751.2945
7406.9451
7406.9451
7406.9449
7406.9445
7406.9439
7406.943
7406.9418
7406.9402
7406.9381
7406.9354
7406.932
7406.9278
7406.9224
7406.9156
7406.9072
7406.8967
7406.8836
7406.8672
7406.8468
7406.8213
7406.7894
7406.7496
7406.6996
7406.637
7406.5582
7406.459
7406.334
7406.1762
7405.977
7405.7255
7405.4081
7405.0084
7404.5059
7403.8766
7403.0917
7402.1173
7400.914
7399.4359
7397.6299
7395.435
7392.7812
7389.589
7385.7681
7381.2176
7375.8241
7369.4622
7361.9932
7353.2644
7343.1079
7331.3389
7317.7558
7302.1409
7284.2573
7263.8534
7240.659
7214.3806
7184.698
7151.2686
7113.7169
7071.6474
7024.6287
6972.2072
6913.9312
6849.5397
6776.6313
7415.8289
7415.8289
7415.8287
7415.8283
7415.8278
7415.8269
7415.8257
7415.8242
7415.8222
7415.8196
7415.8163
7415.8122
7415.807
7415.8004
7415.7922
7415.782
7415.7692
7415.7533
7415.7334
7415.7086
7415.6775
7415.6386
7415.5899
7415.5287
7415.4518
7415.3551
7415.233
7415.0791
7414.8847
7414.6394
7414.33
7413.9402
7413.4508
7412.8383
7412.0746
7411.1271
7409.9574
7408.5211
7406.7668
7404.6354
7402.0594
7398.9618
7395.2558
7390.8432
7385.6146
7379.4479
7372.2084
7363.7475
7353.901
7342.4892
7329.3176
7314.1726
7296.8263
7277.0347
7254.5333
7229.0333
7200.225
7167.7708
7131.3062
7090.4461
7044.7705
6993.8382
6937.2195
6874.7019
6803.6822
7425.268
7425.2679
7425.2678
7425.2674
7425.2669
7425.2661
7425.265
7425.2636
7425.2617
7425.2593
7425.2563
7425.2524
7425.2475
7425.2414
7425.2337
7425.2241
7425.212
7425.197
7425.1781
7425.1545
7425.125
7425.0879
7425.0413
7424.9827
7424.9089
7424.8157
7424.698
7424.5493
7424.3614
7424.1239
7423.8244
7423.4472
7422.9733
7422.3802
7421.6408
7420.7235
7419.5912
7418.2008
7416.5028
7414.4402
7411.9479
7408.952
7405.3688
7401.1038
7396.051
7390.0924
7383.0969
7374.9201
7365.4025
7354.372
7341.6381
7326.9958
7310.2252
7291.0887
7269.3258
7244.6583
7216.7806
7185.3659
7150.0595
7110.4872
7066.2407
7016.8911
6962.0324
6901.5057
6832.4834
7435.2738
7435.2738
7435.2737
7435.2734
7435.2729
7435.2722
7435.2713
7435.27
7435.2683
7435.2662
7435.2634
7435.2599
7435.2555
7435.2499
7435.2429
7435.2341
7435.2231
7435.2093
7435.1919
7435.1701
7435.1427
7435.1081
7435.0644
7435.0092
7434.9394
7434.851
7434.7389
7434.5968
7434.4167
7434.1889
7433.9011
7433.5382
7433.0821
7432.511
7431.7991
7430.9156
7429.8249
7428.4852
7426.8488
7424.8608
7422.4589
7419.5722
7416.1204
7412.0126
7407.1468
7401.4085
7394.671
7386.7946
7377.6276
7367.0018
7354.7347
7340.6302
7324.4738
7306.0336
7285.0584
7261.2754
7234.3885
7204.0796
7170.0044
7131.7999
7089.0702
7041.3983
6988.4028
6929.9865
6863.0691
7445.8628
7445.8628
7445.8627
7445.8625
7445.8621
7445.8615
7445.8606
7445.8595
7445.8581
7445.8562
7445.8537
7445.8506
7445.8467
7445.8418
7445.8355
7445.8277
7445.8178
7445.8053
7445.7896
7445.7697
7445.7446
7445.7127
7445.6723
7445.6209
7445.5555
7445.4723
7445.3664
7445.2316
7445.0604
7444.8433
7444.5685
7444.2218
7443.7857
7443.2393
7442.5578
7441.7117
7440.6665
7439.3822
7437.8127
7435.9056
7433.6012
7430.8317
7427.5203
7423.5796
7418.9114
7413.4057
7406.9409
7399.3843
7390.5888
7380.3934
7368.625
7355.0917
7339.5879
7321.8879
7301.7489
7278.9058
7253.0711
7223.9363
7191.1672
7154.4126
7113.289
7067.3911
7016.3625
6960.1783
6895.4728
7457.0523
7457.0523
7457.0523
7457.0521
7457.0517
7457.0512
7457.0505
7457.0496
7457.0483
7457.0466
7457.0445
7457.0417
7457.0382
7457.0338
7457.0282
7457.0211
7457.0122
7457.0009
7456.9866
7456.9684
7456.9454
7456.916
7456.8785
7456.8307
7456.7696
7456.6916
7456.5918
7456.4646
7456.3026
7456.0968
7455.8361
7455.5068
7455.0923
7454.5726
7453.9241
7453.1184
7452.1225
7450.898
7449.4008
7447.5808
7445.3811
7442.7368
7439.5743
7435.8104
7431.3513
7426.0919
7419.9172
7412.6996
7404.2979
7394.5616
7383.3211
7370.394
7355.5816
7338.6675
7319.4152
7297.5686
7272.8495
7244.959
7213.5733
7178.3524
7138.9257
7094.8992
7045.942
6992.1133
6929.7281
7468.856
7468.8561
7468.856
7468.8559
7468.8556
7468.8551
7468.8545
7468.8536
7468.8524
7468.8509
7468.8489
7468.8464
7468.8432
7468.8391
7468.8339
7468.8273
7468.819
7468.8085
7468.7952
7468.7782
7468.7567
7468.7292
7468.6941
7468.6492
7468.5917
7468.5181
7468.4241
7468.3041
7468.1513
7467.9571
7467.711
7467.4001
7467.0087
7466.5177
7465.9045
7465.1421
7464.1989
7463.0382
7461.6181
7459.8909
7457.8022
7455.2906
7452.2862
7448.7099
7444.4725
7439.475
7433.6081
7426.7489
7418.7665
7409.5152
7398.8335
7386.5485
7372.4689
7356.3861
7338.0726
7317.2814
7293.7434
7267.1696
7237.2467
7203.6457
7166.0084
7123.9521
7077.1714
7025.8217
6965.8707
7481.2797
7481.2797
7481.2796
7481.2795
7481.2792
7481.2788
7481.2781
7481.2773
7481.2761
7481.2747
7481.2727
7481.2703
7481.2671
7481.2632
7481.2581
7481.2518
7481.2438
7481.2336
7481.2208
7481.2046
7481.1839
7481.1577
7481.1242
7481.0816
7481.0271
7480.9575
7480.8689
7480.7559
7480.6121
7480.4297
7480.1988
7479.9073
7479.5402
7479.0794
7478.5035
7477.7868
7476.8991
7475.8059
7474.4672
7472.8379
7470.8669
7468.4959
7465.6592
7462.2818
7458.2799
7453.5607
7448.0184
7441.5397
7434.0006
7425.2616
7415.172
7403.5654
7390.2597
7375.0558
7357.7351
7338.0597
7315.7706
7290.5887
7262.2105
7230.318
7194.5648
7154.5789
7110.0813
7061.3348
7003.9384
7494.3202
7494.3203
7494.3202
7494.32
7494.3197
7494.3193
7494.3187
7494.3178
7494.3166
7494.3151
7494.3132
7494.3107
7494.3076
7494.3036
7494.2987
7494.2924
7494.2845
7494.2745
7494.2619
7494.2461
7494.2261
7494.2008
7494.1687
7494.1279
7494.0762
7494.0105
7493.927
7493.821
7493.6867
7493.5167
7493.3017
7493.0304
7492.6888
7492.2599
7491.7232
7491.0543
7490.2249
7489.2022
7487.949
7486.423
7484.576
7482.3539
7479.6946
7476.5282
7472.7766
7468.3503
7463.1517
7457.0761
7450.0044
7441.8071
7432.3418
7421.4512
7408.9626
7394.6865
7378.4141
7359.9173
7338.9471
7315.235
7288.4868
7258.3946
7224.623
7186.8098
7144.7053
7098.6918
7043.9698
7507.9697
7507.9697
7507.9696
7507.9695
7507.9692
7507.9687
7507.968
7507.9672
7507.966
7507.9645
7507.9626
7507.9601
7507.957
7507.9531
7507.9482
7507.942
7507.9342
7507.9245
7507.9123
7507.897
7507.8777
7507.8535
7507.823
7507.7845
7507.7358
7507.6743
7507.5966
7507.4983
7507.3741
7507.2172
7507.0192
7506.7694
7506.4547
7506.0591
7505.5632
7504.9442
7504.1756
7503.2267
7502.0631
7500.6454
7498.9292
7496.8642
7494.3925
7491.4499
7487.9613
7483.8442
7479.0101
7473.3586
7466.7797
7459.1534
7450.3462
7440.2104
7428.5831
7415.2852
7400.1183
7382.8651
7363.2868
7341.1254
7316.0964
7287.9005
7256.212
7220.6767
7181.0798
7137.9398
7086.0107
7522.2191
7522.2191
7522.219
7522.2188
7522.2185
7522.2181
7522.2175
7522.2166
7522.2155
7522.214
7522.2122
7522.2098
7522.2069
7522.2031
7522.1985
7522.1926
7522.1852
7522.1761
7522.1646
7522.1502
7522.1322
7522.1096
7522.0813
7522.0456
7522.0008
7521.9444
7521.8733
7521.7837
7521.6708
7521.5283
7521.3485
7521.1216
7520.8351
7520.4743
7520.0209
7519.4538
7518.7483
7517.8764
7516.8064
7515.5025
7513.9239
7512.0242
7509.7511
7507.0431
7503.8312
7500.0415
7495.5902
7490.3847
7484.3249
7477.2997
7469.1852
7459.844
7449.1236
7436.8556
7422.8535
7406.9111
7388.8006
7368.2747
7345.0585
7318.861
7289.3639
7256.2163
7219.2332
7179.0857
7130.1693
7537.0597
7537.0597
7537.0597
7537.0595
7537.0592
7537.0588
7537.0583
7537.0575
7537.0565
7537.0552
7537.0535
7537.0514
7537.0488
7537.0455
7537.0413
7537.036
7537.0295
7537.0213
7537.0111
7536.9983
7536.9822
7536.9621
7536.9369
7536.9052
7536.8653
7536.8152
7536.752
7536.6724
7536.572
7536.4453
7536.285
7536.082
7535.825
7535.5001
7535.0906
7534.5771
7533.9371
7533.1454
7532.1734
7530.9888
7529.5548
7527.8294
7525.764
7523.3019
7520.3821
7516.9356
7512.8855
7508.1493
7502.6352
7496.2417
7488.8554
7480.3495
7470.5825
7459.398
7446.6216
7432.0598
7415.4966
7396.6953
7375.3912
7351.3018
7324.1145
7293.4682
7259.1811
7222.2352
7176.4764
7552.4867
7552.4866
7552.4866
7552.4864
7552.4862
7552.4859
7552.4854
7552.4848
7552.4839
7552.4829
7552.4815
7552.4798
7552.4776
7552.4749
7552.4715
7552.4672
7552.4617
7552.455
7552.4465
7552.4358
7552.4223
7552.4054
7552.3841
7552.3572
7552.3233
7552.2805
7552.2263
7552.1578
7552.071
7551.9608
7551.8208
7551.6426
7551.4157
7551.1275
7550.7629
7550.3046
7549.7326
7549.0245
7548.1553
7547.0959
7545.8136
7544.2708
7542.422
7540.2184
7537.6039
7534.5161
7530.8873
7526.6432
7521.7018
7515.9714
7509.3493
7501.72
7492.9543
7482.9081
7471.4204
7458.3117
7443.3789
7426.397
7407.1117
7385.2486
7360.4951
7332.4554
7300.9936
7267.4355
7224.9819
7568.4938
7568.4938
7568.4937
7568.4936
7568.4934
7568.4932
7568.4928
7568.4924
7568.4918
7568.491
7568.49
7568.4888
7568.4872
7568.4852
7568.4827
7568.4795
7568.4755
7568.4705
7568.4641
7568.4559
7568.4456
7568.4325
7568.4158
7568.3944
7568.3671
7568.3322
7568.2877
7568.2307
7568.1579
7568.0645
7567.9449
7567.7913
7567.5946
7567.3435
7567.0248
7566.6235
7566.1222
7565.5017
7564.7398
7563.8115
7562.688
7561.3346
7559.7127
7557.7787
7555.4825
7552.7701
7549.582
7545.8534
7541.512
7536.4764
7530.6549
7523.9443
7516.2284
7507.3767
7497.2428
7485.6624
7472.4476
7457.3861
7440.2348
7420.7243
7398.5351
7373.2701
7344.7182
7314.7356
7275.8374
7585.0762
7585.0762
7585.0761
7585.0761
7585.0759
7585.0758
7585.0756
7585.0753
7585.0749
7585.0744
7585.0738
7585.0731
7585.0721
7585.0709
7585.0693
7585.0673
7585.0647
7585.0614
7585.0572
7585.0516
7585.0445
7585.0351
7585.0229
7585.007
7584.9862
7584.959
7584.9237
7584.8778
7584.8183
7584.7411
7584.6412
7584.512
7584.3454
7584.1318
7583.8602
7583.5179
7583.0903
7582.5609
7581.9112
7581.1197
7580.1605
7579.0044
7577.6188
7575.9648
7574.0005
7571.6797
7568.9522
7565.7626
7562.0486
7557.7396
7552.7554
7547.0058
7540.3888
7532.7891
7524.0762
7514.1024
7502.6974
7489.6634
7474.7681
7457.746
7438.2986
7415.9664
7390.4583
7364.2216
7329.1996
7602.2222
7602.2222
7602.2222
7602.2221
7602.222
7602.2219
7602.2218
7602.2216
7602.2215
7602.2212
7602.2209
7602.2206
7602.2201
7602.2195
7602.2188
7602.2177
7602.2164
7602.2146
7602.2122
7602.209
7602.2045
7602.1985
7602.1902
7602.179
7602.1639
7602.1435
7602.1164
7602.0804
7602.0331
7601.971
7601.8899
7601.7845
7601.648
7601.4726
7601.2494
7600.968
7600.6167
7600.182
7599.6487
7598.9983
7598.2093
7597.2583
7596.1172
7594.7542
7593.1351
7591.2226
7588.9757
7586.3486
7583.2893
7579.7384
7575.6284
7570.8826
7565.4143
7559.1248
7551.9015
7543.615
7534.1141
7523.216
7510.7122
7496.3483
7479.8207
7460.6439
7438.4066
7416.0685
7385.1932
7619.9142
7619.9141
7619.9141
7619.914
7619.9139
7619.9139
7619.9138
7619.9137
7619.9136
7619.9135
7619.9134
7619.9132
7619.913
7619.9127
7619.9124
7619.912
7619.9114
7619.9105
7619.9092
7619.9073
7619.9046
7619.9007
7619.8951
7619.8872
7619.8762
7619.861
7619.8404
7619.8128
7619.7762
7619.728
7619.6649
7619.5827
7619.4762
7619.3395
7619.1656
7618.9468
7618.6741
7618.3371
7617.9234
7617.4182
7616.8057
7616.0666
7615.1786
7614.1176
7612.8576
7611.3704
7609.6242
7607.5829
7605.2052
7602.4439
7599.2445
7595.5454
7591.2758
7586.3551
7580.6902
7574.1695
7566.6689
7558.0306
7548.0656
7536.5365
7523.157
7507.4223
7488.8366
7470.5491
7443.8158
7638.1197
7638.1197
7638.1196
7638.1195
7638.1194
7638.1193
7638.1192
7638.119
7638.1189
7638.1188
7638.1187
7638.1185
7638.1183
7638.1182
7638.1179
7638.1176
7638.1172
7638.1165
7638.1156
7638.1143
7638.1124
7638.1096
7638.1054
7638.0996
7638.0913
7638.08
7638.0646
7638.0442
7638.0173
7637.9821
7637.9365
7637.8775
7637.8014
7637.704
7637.5805
7637.4258
7637.2339
7636.9969
7636.7056
7636.3505
7635.9194
7635.3984
7634.7722
7634.0243
7633.1373
7632.0919
7630.8658
7629.4329
7627.7631
7625.8217
7623.5681
7620.9556
7617.9336
7614.4404
7610.4037
7605.7362
7600.3362
7594.0758
7586.8048
7578.3202
7568.3617
7556.4359
7542.0423
7527.7293
7505.4539
7656.8009
7656.8007
7656.8006
7656.8005
7656.8003
7656.8001
7656.7999
7656.7997
7656.7995
7656.7992
7656.7989
7656.7986
7656.7982
7656.7978
7656.7973
7656.7968
7656.7961
7656.7953
7656.7942
7656.7927
7656.7908
7656.7881
7656.7844
7656.7795
7656.7728
7656.764
7656.7527
7656.7382
7656.7201
7656.6973
7656.6688
7656.6331
7656.5881
7656.5307
7656.4585
7656.3692
7656.2591
7656.1236
7655.9584
7655.7573
7655.5128
7655.2167
7654.8612
7654.4376
7653.9371
7653.3496
7652.6622
7651.8593
7650.9229
7649.8318
7648.5597
7647.078
7645.3537
7643.3472
7641.0092
7638.2771
7635.0811
7631.3244
7626.8973
7621.6572
7615.3996
7607.7362
7598.2429
7588.5145
7571.7604
7676.753
7676.7528
7676.7526
7676.7523
7676.7521
7676.7517
7676.7514
7676.751
7676.7505
7676.75
7676.7494
7676.7488
7676.748
7676.7471
7676.7461
7676.7449
7676.7435
7676.7419
7676.7399
7676.7376
7676.7347
7676.7312
7676.727
7676.7219
7676.7158
7676.7087
7676.7007
7676.6916
7676.6816
7676.6708
7676.6592
7676.6467
7676.6331
7676.6179
7676.6013
7676.5829
7676.5621
7676.5386
7676.5111
7676.4777
7676.4368
7676.387
7676.328
7676.2593
7676.1806
7676.0915
7675.9896
7675.8705
7675.7291
7675.5587
7675.3511
7675.0964
7674.7824
7674.3929
7673.9044
7673.2848
7672.4943
7671.481
7670.1796
7668.5135
7666.3719
7663.5372
7660.019
7656.7989
7650.6477
7697.7434
7697.7432
7697.7429
7697.7426
7697.7422
7697.7418
7697.7413
7697.7408
7697.7401
7697.7394
7697.7385
7697.7376
7697.7364
7697.7351
7697.7336
7697.7318
7697.7297
7697.7273
7697.7244
7697.7211
7697.7174
7697.7131
7697.7084
7697.7032
7697.6979
7697.6928
7697.6883
7697.6853
7697.6846
7697.6873
7697.6947
7697.7081
7697.7293
7697.7598
7697.8021
7697.8595
7697.9357
7698.0327
7698.1519
7698.2975
7698.4741
7698.6872
7698.9446
7699.2547
7699.6265
7700.0691
7700.5908
7701.1999
7701.9053
7702.7171
7703.6457
7704.7018
7705.8952
7707.2345
7708.7246
7710.3674
7712.1592
7714.0943
7716.1613
7718.3553
7720.6695
7723.0745
7725.8015
7729.317
7731.9679
7718.6927
7718.6924
7718.6921
7718.6917
7718.6913
7718.6908
7718.6903
7718.6897
7718.689
7718.6883
7718.6874
7718.6863
7718.6852
7718.6838
7718.6823
7718.6805
7718.6785
7718.6762
7718.6736
7718.6707
7718.6675
7718.664
7718.6605
7718.6572
7718.6546
7718.6534
7718.6545
7718.6592
7718.6693
7718.6867
7718.7138
7718.7532
7718.8079
7718.8823
7718.9818
7719.112
7719.2792
7719.4902
7719.7523
7720.0745
7720.467
7720.9427
7721.5167
7722.206
7723.0283
7724.0026
7725.1485
7726.4871
7728.0424
7729.8411
7731.9125
7734.2884
7737.001
7740.0836
7743.5703
7747.4972
7751.8997
7756.8186
7762.2983
7768.4008
7775.199
7782.802
7791.4759
7801.502
7812.704
7739.5112
7739.5109
7739.5106
7739.5102
7739.5098
7739.5094
7739.5089
7739.5083
7739.5077
7739.5071
7739.5063
7739.5055
7739.5046
7739.5035
7739.5024
7739.5011
7739.4997
7739.4981
7739.4964
7739.4946
7739.4929
7739.4912
7739.49
7739.4896
7739.4908
7739.4945
7739.5021
7739.5152
7739.5361
7739.5678
7739.6136
7739.6777
7739.7656
7739.884
7740.0394
7740.2407
7740.4979
7740.8219
7741.2249
7741.7213
7742.3277
7743.0639
7743.9528
7745.0191
7746.2894
7747.7925
7749.5595
7751.6249
7754.028
7756.8124
7760.0263
7763.722
7767.9547
7772.7828
7778.2696
7784.4851
7791.5043
7799.4131
7808.3088
7818.3143
7829.5718
7842.2848
7856.7634
7873.3726
7892.6345
7760.1001
7760.0998
7760.0995
7760.0991
7760.0988
7760.0984
7760.098
7760.0976
7760.0972
7760.0968
7760.0963
7760.0959
7760.0954
7760.095
7760.0946
7760.0942
7760.0938
7760.0936
7760.0935
7760.0937
7760.0942
7760.0954
7760.0976
7760.1014
7760.1075
7760.1174
7760.1325
7760.1552
7760.1884
7760.236
7760.3024
7760.3934
7760.5162
7760.6783
7760.8895
7761.162
7761.5089
7761.9452
7762.4878
7763.1569
7763.9755
7764.9702
7766.1712
7767.6109
7769.3247
7771.3514
7773.734
7776.5208
7779.7662
7783.5308
7787.8808
7792.8891
7798.6336
7805.1988
7812.6769
7821.171
7830.7945
7841.6766
7853.9649
7867.8396
7883.5116
7901.2633
7921.4738
7944.6274
7971.4416
7780.3803
7780.38
7780.3797
7780.3794
7780.3792
7780.3789
7780.3787
7780.3785
7780.3783
7780.3782
7780.3782
7780.3782
7780.3784
7780.3787
7780.3792
7780.3799
7780.3808
7780.3821
7780.3839
7780.3863
7780.3896
7780.394
7780.4001
7780.4086
7780.4204
7780.4373
7780.4611
7780.4948
7780.542
7780.6072
7780.6961
7780.8156
7780.9739
7781.1809
7781.449
7781.7929
7782.2292
7782.7771