/*--------------------------------*- C++ -*----------------------------------*\
  =========                 |
  \\      /  F ield         | OpenFOAM: The Open Source CFD Toolbox
   \\    /   O peration     | Website:  https://openfoam.org
    \\  /    A nd           | Version:  13
     \\/     M anipulation  |
\*---------------------------------------------------------------------------*/
FoamFile
{
    format      ascii;
    class       volVectorField;
    location    "35.30228";
    object      UMean;
}
// * * * * * * * * * * * * * * * * * * * * * * * * * * * * * * * * * * * * * //

dimensions      [0 1 -1 0 0 0 0];

internalField   nonuniform List<vector> 
17140
(
(-1.9913256e-06 9.3665025e-05 -9.1384176e-23)
(-2.2331718e-05 0.0002888693 -7.3010594e-24)
(-6.582207e-05 0.0005028942 4.8271331e-22)
(-0.00014134895 0.00073693791 -5.3096286e-22)
(-0.00025714103 0.00099225211 6.2113364e-23)
(-0.00042438561 0.0012699921 -2.0338298e-22)
(-0.00065686587 0.0015711762 -3.4268906e-22)
(-0.000971254 0.0018966196 1.6767059e-22)
(-0.0013876615 0.0022468539 5.4930287e-22)
(-0.0019301785 0.0026220302 1.3495562e-21)
(-0.0026274296 0.0030218056 -2.0063567e-21)
(-0.0035131183 0.0034452155 1.793116e-21)
(-0.004626532 0.0038905342 2.7504289e-22)
(-0.0060129487 0.0043551276 -1.5652945e-21)
(-0.007723877 0.0048353126 1.7459519e-22)
(-0.009817043 0.0053262324 -1.3928564e-21)
(-0.012356028 0.0058217745 5.2588917e-23)
(-0.015409464 0.0063145539 -1.1419075e-23)
(-0.019049705 0.0067959949 -8.4508403e-22)
(-0.023350948 0.0072565438 1.1090977e-21)
(-0.028386849 0.0076860395 -5.3934764e-22)
(-0.034227828 0.0080742566 1.0506899e-22)
(-0.040938347 0.0084116042 7.7868951e-22)
(-0.048574811 0.008689954 -7.8406574e-22)
(-0.057185354 0.0089035462 -1.2626584e-21)
(-0.066809624 0.0090499536 1.0291324e-21)
(-0.077477592 0.0091308942 5.0993561e-21)
(-0.089217712 0.0091520873 6.0220406e-22)
(-0.10205752 0.0091227479 -5.3889989e-21)
(-0.11602782 0.0090536396 -1.2670421e-21)
(-0.13115785 0.0089516042 -4.5777024e-21)
(-0.14746716 0.0088180359 6.1030023e-21)
(-0.16497441 0.0086512966 -1.5986382e-21)
(-0.18368875 0.0084489286 -7.7539583e-22)
(-0.20360837 0.0082082026 -7.6377659e-21)
(-0.22471519 0.0079256677 3.3924559e-21)
(-0.24696759 0.0075970119 -5.1123659e-21)
(-0.2702907 0.0072171903 -3.4651598e-21)
(-0.29456498 0.006780844 -1.5824278e-21)
(-0.31961341 0.0062839526 4.8109937e-21)
(-0.34518955 0.0057254401 9.0209697e-21)
(-0.37096625 0.0051086427 8.1275135e-21)
(-0.39652246 0.0044397611 3.5208508e-21)
(-0.4213367 0.0037254145 -1.6811535e-20)
(-0.44478661 0.0029713919 -1.2093985e-20)
(-0.46614684 0.0021851545 2.9275306e-21)
(-0.48467165 0.0013720193 -1.9544849e-20)
(-0.49964468 0.00053326839 -6.5193024e-21)
(-0.51023183 -0.00032331314 6.5365287e-21)
(-0.51583338 -0.0011621989 1.5778788e-20)
(-0.51588636 -0.0019399653 -9.6223661e-21)
(-0.50994582 -0.0026240428 -6.0418973e-21)
(-0.49750833 -0.0032141621 1.5707343e-20)
(-0.47821174 -0.0037066412 7.4412562e-21)
(-0.45145314 -0.0040776655 5.3519021e-21)
(-0.41692811 -0.0043444957 -4.2157464e-21)
(-0.37406093 -0.0046093764 1.168981e-20)
(-0.32268023 -0.0050479154 9.9276701e-21)
(-0.26171562 -0.0059213337 2.552391e-21)
(-0.19191573 -0.007552266 -6.6539138e-21)
(-0.11128789 -0.010134496 -5.3608724e-21)
(-0.023443586 -0.013382966 -2.029239e-20)
(0.076856855 -0.015393045 -3.0507214e-21)
(0.17430913 -0.013194233 2.6018591e-20)
(0.28210008 -0.0075955941 -2.0552979e-20)
(-1.7730256e-05 0.00041491819 2.5909758e-23)
(-7.0531817e-05 0.0012785155 -2.5271444e-21)
(-0.00014910554 0.0022241234 2.2495483e-21)
(-0.00026241221 0.0032570291 -6.1374294e-22)
(-0.00041870449 0.0043824165 -1.2682669e-21)
(-0.00062914091 0.0056049693 2.4249408e-21)
(-0.00090740102 0.0069286476 -2.5306187e-21)
(-0.0012699789 0.0083563652 2.2298083e-22)
(-0.0017366945 0.0098895934 -6.9711806e-22)
(-0.002331224 0.011527892 -1.1620642e-23)
(-0.0030816314 0.013268375 -2.337057e-21)
(-0.0040208922 0.0151051 3.7252863e-21)
(-0.0051873812 0.017028421 3.0866382e-22)
(-0.0066252662 0.019024326 -3.0595148e-21)
(-0.0083847437 0.021073815 9.44953e-22)
(-0.010522036 0.023152416 6.0333296e-22)
(-0.013099055 0.025229943 -3.847671e-21)
(-0.016182646 0.02727065 1.2628394e-20)
(-0.019843333 0.029233967 -7.9704132e-21)
(-0.02415353 0.031075965 9.6272227e-21)
(-0.029185282 0.032751724 -1.4359518e-20)
(-0.035007681 0.034218593 3.5568571e-21)
(-0.041684265 0.035440195 1.4829849e-21)
(-0.049270961 0.036390724 -4.8884501e-21)
(-0.057815824 0.037058819 1.7799651e-20)
(-0.067359113 0.037450191 2.6704024e-21)
(-0.077931276 0.037587562 -1.4098444e-20)
(-0.0895613 0.037505092 1.5972462e-20)
(-0.10227734 0.037241866 -2.2517405e-21)
(-0.11610982 0.036832758 -2.2019742e-20)
(-0.1310874 0.036304323 2.3301357e-21)
(-0.14722857 0.035673131 1.7856968e-20)
(-0.16455065 0.034948195 4.233137e-22)
(-0.18306084 0.034134182 -1.3576575e-20)
(-0.20275467 0.033231563 1.529961e-20)
(-0.22361072 0.032235197 -6.9222772e-21)
(-0.2455833 0.031133554 8.2574501e-21)
(-0.26859258 0.029909155 2.6239151e-20)
(-0.29251311 0.028539967 5.8495667e-21)
(-0.31716137 0.027002239 2.28994e-20)
(-0.34228331 0.025273923 -2.9342937e-20)
(-0.36754231 0.023336508 -2.6721299e-20)
(-0.39250554 0.02117486 -4.4667015e-21)
(-0.4166344 0.018776577 3.5981445e-20)
(-0.43928122 0.016136072 -1.6623875e-20)
(-0.45969415 0.013266744 -5.6509757e-21)
(-0.47707599 0.010203512 3.049899e-21)
(-0.49066455 0.0069839732 9.2430264e-21)
(-0.49971262 0.0036631776 -4.4637596e-21)
(-0.50353938 0.0003345064 7.9568467e-21)
(-0.50158228 -0.0029308286 4.7568422e-20)
(-0.49338299 -0.0060865568 2.2726504e-21)
(-0.47849113 -0.0091144129 -1.02072e-20)
(-0.45653193 -0.012017633 2.2762176e-20)
(-0.42702445 -0.014791488 -1.9590705e-20)
(-0.3896852 -0.017459903 5.6271196e-20)
(-0.3439262 -0.020145552 1.6255553e-20)
(-0.2896714 -0.023047926 -4.6896721e-20)
(-0.22589229 -0.026416644 8.0481571e-21)
(-0.15324177 -0.030562341 9.4833043e-21)
(-0.06971793 -0.035498571 1.9574258e-21)
(0.020912832 -0.041036073 -2.6392175e-20)
(0.1237551 -0.044114289 5.2911113e-20)
(0.22214136 -0.042192673 1.6050178e-20)
(0.33061372 -0.035741442 2.734134e-20)
(-5.1057228e-05 0.00072940334 1.4272959e-21)
(-0.00017238346 0.0022475519 -7.6048518e-22)
(-0.00032504534 0.0039098741 -2.0228687e-22)
(-0.00051794858 0.0057257983 1.9198478e-22)
(-0.00075944471 0.0077045021 -9.305381e-22)
(-0.0010605768 0.0098543118 -6.9035882e-23)
(-0.0014347609 0.012182283 -8.8542049e-22)
(-0.0018980496 0.014693631 -9.5497347e-22)
(-0.0024695789 0.017391049 7.8225032e-21)
(-0.0031720712 0.020273876 -6.998269e-21)
(-0.0040323152 0.023337147 3.3574697e-21)
(-0.005081647 0.026570509 4.9326805e-21)
(-0.0063564001 0.029957067 -9.8191432e-21)
(-0.0078982763 0.033472193 -1.219372e-21)
(-0.0097545745 0.037082411 4.7381972e-21)
(-0.011978213 0.040744498 3.2759194e-21)
(-0.014627456 0.044405035 -3.8257221e-21)
(-0.017765265 0.048000639 1.3956057e-20)
(-0.021458206 0.051459235 -8.327556e-21)
(-0.025774873 0.054702665 4.154291e-21)
(-0.030783871 0.057650915 -1.4172283e-20)
(-0.036551506 0.060228004 -3.7286027e-21)
(-0.043139403 0.062369279 7.87856e-21)
(-0.05060255 0.064029258 -1.1998244e-20)
(-0.058988892 0.06518868 -4.7677418e-21)
(-0.068339919 0.065859065 5.8455425e-21)
(-0.078687111 0.066082406 3.3519603e-20)
(-0.090060798 0.065921066 1.5312708e-20)
(-0.10248977 0.065443727 -7.8226958e-21)
(-0.11600365 0.064710232 8.3596081e-21)
(-0.13063059 0.063767721 -5.4053522e-21)
(-0.14638654 0.062648692 -3.0570039e-20)
(-0.1632859 0.061373224 1.0359128e-20)
(-0.18133173 0.059953184 3.1185697e-20)
(-0.20051394 0.058392211 -1.0640614e-20)
(-0.22080388 0.05668359 -1.4905262e-20)
(-0.24214685 0.054808713 2.5981456e-20)
(-0.26445195 0.052737616 7.9054386e-21)
(-0.28758041 0.050431505 -1.4275728e-20)
(-0.31133281 0.047846609 -5.7660301e-21)
(-0.33543601 0.044938915 2.748439e-20)
(-0.35952948 0.041666648 -7.8960255e-21)
(-0.38314983 0.037991001 -1.1285199e-20)
(-0.40572047 0.033878115 -2.9698608e-20)
(-0.42654608 0.029309369 5.6148033e-20)
(-0.44482799 0.02430555 -3.5885994e-20)
(-0.45974604 0.018943565 -8.8318366e-21)
(-0.47049398 0.013315721 -3.5058486e-20)
(-0.47631506 0.0075114838 -4.1694994e-20)
(-0.47656038 0.0016826139 -2.0894086e-21)
(-0.47072547 -0.0040407082 8.7557277e-21)
(-0.45841515 -0.0095949381 -6.5057842e-20)
(-0.43924991 -0.014976907 -2.7838386e-20)
(-0.41288779 -0.020203423 -2.8812313e-20)
(-0.37892425 -0.025278489 -9.5132007e-21)
(-0.33712555 -0.030235986 -7.5064853e-20)
(-0.28698885 -0.035208965 3.0117481e-20)
(-0.22852651 -0.040422355 -9.4245374e-21)
(-0.16061688 -0.04612578 -7.8819754e-20)
(-0.084061991 -0.052644376 -3.1994004e-20)
(0.0034003853 -0.059737825 3.9197674e-20)
(0.097753699 -0.06734848 1.3816493e-19)
(0.20332875 -0.071027165 -4.5480478e-20)
(0.301829 -0.069013322 -7.4294108e-20)
(0.40961291 -0.061210831 -3.2496727e-20)
(-0.00010094328 0.0010265239 -4.7561198e-21)
(-0.00032480335 0.0031635862 5.4455127e-21)
(-0.00058833236 0.0055042145 -1.9698234e-21)
(-0.00090031736 0.0080619832 2.1431592e-22)
(-0.0012692446 0.010850094 -4.2380499e-21)
(-0.0017059977 0.013880623 4.3897061e-21)
(-0.0022235953 0.017163945 -6.6648338e-21)
(-0.0028373964 0.020707943 3.1418104e-21)
(-0.0035655166 0.02451704 1.1961242e-20)
(-0.0044292337 0.028591039 -2.8838904e-21)
(-0.0054534081 0.032923783 -1.1007922e-20)
(-0.0066668966 0.037501626 3.3731346e-21)
(-0.0081029465 0.042301773 2.2750869e-22)
(-0.0097995233 0.047290558 -8.9011467e-21)
(-0.011799532 0.052421798 2.8016351e-20)
(-0.014150867 0.057635433 -1.7321038e-20)
(-0.016906233 0.062856731 -1.660321e-22)
(-0.020122646 0.067996452 9.7474547e-21)
(-0.023860585 0.072952449 -2.5016534e-20)
(-0.028182726 0.077613154 1.1953468e-20)
(-0.033152308 0.081863412 1.8063094e-20)
(-0.03883121 0.08559279 7.4082434e-21)
(-0.045277946 0.088706016 -3.728169e-20)
(-0.052545885 0.091134487 -1.9781868e-20)
(-0.060682663 0.092846803 1.3051024e-20)
(-0.069731233 0.09385579 -7.7030487e-21)
(-0.079724999 0.094219092 2.9477664e-20)
(-0.090696236 0.094026444 -8.5968146e-21)
(-0.10267412 0.093375109 2.3591895e-20)
(-0.11568776 0.092351565 -1.3587401e-20)
(-0.12976473 0.091024308 8.4852745e-21)
(-0.14491722 0.089442766 -3.1742032e-20)
(-0.16115517 0.087638847 4.6547745e-21)
(-0.17847551 0.085631766 -2.4678526e-20)
(-0.19686005 0.083428424 2.3983323e-20)
(-0.21626967 0.081020629 7.6365115e-21)
(-0.23663639 0.078382767 -9.7833555e-20)
(-0.25785306 0.075472426 -2.562557e-20)
(-0.2797614 0.072233731 2.1476324e-20)
(-0.30213898 0.068602532 -2.1187515e-20)
(-0.3246853 0.064511894 5.3829424e-21)
(-0.34700619 0.059895307 3.4183567e-20)
(-0.36859765 0.054688743 -1.6164582e-21)
(-0.38883538 0.048836803 -1.1230212e-20)
(-0.4069721 0.042311616 5.5838216e-21)
(-0.42217585 0.035151307 -2.4497348e-21)
(-0.433626 0.027471996 -7.5931217e-21)
(-0.44049694 0.019423815 1.1883162e-19)
(-0.44207363 0.011166325 -1.3144881e-20)
(-0.43779266 0.0029176344 1.2110242e-20)
(-0.42725002 -0.0051500784 -1.133734e-19)
(-0.41013517 -0.012961397 6.2201319e-20)
(-0.38613253 -0.020528415 5.1081485e-20)
(-0.35494922 -0.027887024 4.9076942e-20)
(-0.31623489 -0.035054001 4.7705155e-20)
(-0.26983808 -0.042082141 7.5916282e-20)
(-0.21530529 -0.049117034 -1.5369837e-19)
(-0.15269439 -0.056454559 9.625829e-20)
(-0.080809393 -0.064315113 1.4948558e-19)
(-0.00053616173 -0.073080142 -1.1170651e-19)
(0.090779539 -0.082240441 -3.6776224e-20)
(0.18846876 -0.091653104 -3.3329443e-20)
(0.2953197 -0.09534551 1.7149583e-19)
(0.39244076 -0.092827525 1.2830116e-19)
(0.49663005 -0.083226303 -5.8227864e-21)
(-0.00016518021 0.0012957205 3.326846e-21)
(-0.00052110889 0.0039942653 -7.9273605e-21)
(-0.00092746509 0.0069511501 6.4662199e-21)
(-0.0013928962 0.010184039 -2.4452172e-21)
(-0.0019260872 0.01371016 -8.8395716e-22)
(-0.0025377225 0.017545484 7.6151398e-21)
(-0.0032403228 0.021703982 -1.9322735e-21)
(-0.0040483918 0.02619667 -4.1082477e-21)
(-0.004978746 0.03103039 -3.1616422e-22)
(-0.0060508289 0.036206378 -2.6904382e-21)
(-0.0072870419 0.041718564 3.7787478e-21)
(-0.0087130674 0.047551637 -2.6371993e-21)
(-0.010358184 0.053678903 -9.7599438e-21)
(-0.012255534 0.060060043 -2.8356689e-22)
(-0.014442321 0.066638885 7.5581654e-21)
(-0.016959886 0.073341508 5.3958169e-21)
(-0.019853624 0.080074949 -4.6848419e-21)
(-0.023172679 0.086727088 4.5839492e-22)
(-0.026969377 0.093168233 9.3575518e-21)
(-0.031298366 0.099255143 1.1550829e-20)
(-0.036215464 0.10483802 -1.3387656e-20)
(-0.041776273 0.10977087 -1.3695232e-20)
(-0.048034683 0.11392484 1.8754682e-20)
(-0.055041437 0.11720344 -2.3609496e-20)
(-0.062843393 0.11955695 -4.1589812e-20)
(-0.071484429 0.12099274 9.9857348e-20)
(-0.081001681 0.12157794 -5.5923553e-20)
(-0.091428932 0.1214264 8.4067976e-20)
(-0.10279537 0.12066358 -1.0666768e-19)
(-0.11513145 0.1194055 1.2071233e-19)
(-0.12846303 0.11774185 -1.2645943e-19)
(-0.14279835 0.11574031 2.1635782e-20)
(-0.15814134 0.11344606 7.5204943e-20)
(-0.17448146 0.11088619 -4.2886857e-20)
(-0.19179052 0.10807113 1.3569351e-20)
(-0.21001636 0.10499122 4.0620806e-21)
(-0.22907463 0.10161389 4.9506983e-20)
(-0.24883837 0.097884408 1.6116393e-20)
(-0.26912603 0.093729942 1.6175171e-20)
(-0.28968833 0.089065604 1.6276751e-20)
(-0.31019307 0.08380053 -8.3055531e-20)
(-0.33020834 0.07784183 3.6406175e-20)
(-0.34918713 0.071099412 5.5465475e-21)
(-0.36645906 0.063497786 -6.5934687e-20)
(-0.3812376 0.055007277 -3.2962015e-20)
(-0.3926881 0.04569608 1.6231689e-20)
(-0.40001699 0.035733515 5.7704982e-20)
(-0.40244848 0.025322165 -2.5103365e-20)
(-0.39934427 0.014702715 7.1892873e-20)
(-0.39024183 0.0041627076 3.8750181e-20)
(-0.37481757 -0.006086929 5.3368445e-20)
(-0.35282348 -0.015977233 1.422882e-19)
(-0.32397047 -0.025550584 -1.1040102e-19)
(-0.28798017 -0.034864886 3.570446e-20)
(-0.24453981 -0.043939607 -6.2770481e-20)
(-0.19356517 -0.052837256 -6.0213256e-20)
(-0.13465981 -0.06172855 -2.368318e-20)
(-0.067926366 -0.070997942 -2.2274932e-19)
(0.0079899916 -0.080830696 -6.1469919e-20)
(0.092091148 -0.091731599 1.4365928e-19)
(0.1874938 -0.10273826 5.5457311e-20)
(0.28778883 -0.11345112 -4.3203933e-20)
(0.3943766 -0.11662874 -9.1533301e-20)
(0.4887647 -0.11294239 -1.4376658e-19)
(0.58633868 -0.10111416 1.1483327e-20)
(-0.00024037824 0.0015268699 1.0055464e-20)
(-0.00075098933 0.0047085378 2.538521e-21)
(-0.0013247008 0.008196878 -2.0578228e-21)
(-0.0019700257 0.012013519 -7.6011853e-21)
(-0.0026959135 0.016179663 4.1678765e-21)
(-0.003512854 0.020715277 -6.0060836e-21)
(-0.0044328305 0.025638228 2.6024596e-21)
(-0.0054693973 0.030963193 6.2082294e-22)
(-0.0066379087 0.036700263 -3.5224381e-21)
(-0.007955724 0.042853284 -7.6121623e-21)
(-0.0094424276 0.049417868 -3.8167062e-22)
(-0.011120045 0.056379101 1.2613371e-20)
(-0.013013249 0.063708974 -1.7538767e-20)
(-0.015149549 0.071363609 2.8508635e-20)
(-0.017559438 0.079280475 -7.5094178e-21)
(-0.020276477 0.087375811 1.6097012e-20)
(-0.023337294 0.095542728 -1.9684821e-20)
(-0.026781474 0.10365048 1.294714e-20)
(-0.030651299 0.11154568 -2.0794071e-21)
(-0.034991335 0.11905634 -8.5668185e-21)
(-0.039847847 0.12599944 2.119546e-20)
(-0.045268072 0.13219278 -3.0517968e-20)
(-0.051299374 0.13747079 3.3881036e-20)
(-0.057988364 0.1417033 5.9140794e-21)
(-0.065380176 0.14481431 -5.9629951e-20)
(-0.073518732 0.14679655 6.1553038e-20)
(-0.082445718 0.14771718 -4.0900036e-20)
(-0.092196032 0.1477069 4.6749312e-20)
(-0.10280077 0.14692158 4.416402e-21)
(-0.11429181 0.14550784 2.77725e-21)
(-0.12669159 0.14357712 -1.9610384e-20)
(-0.14000676 0.14121715 1.2473406e-21)
(-0.15423303 0.13848848 -7.5849607e-20)
(-0.16935179 0.13542712 2.089611e-20)
(-0.18532338 0.13204741 6.2841758e-20)
(-0.20208104 0.12833844 -2.9687373e-20)
(-0.21952238 0.12426113 2.4690206e-20)
(-0.23749902 0.11974897 -2.4836904e-20)
(-0.25580478 0.11471255 -1.3926068e-19)
(-0.27416206 0.10904601 7.7276975e-20)
(-0.29220606 0.10263353 1.8857477e-20)
(-0.30946802 0.095355152 -1.067436e-19)
(-0.32536314 0.087095562 6.4326247e-21)
(-0.33918798 0.077763674 1.3114476e-20)
(-0.35014471 0.067338495 1.3843151e-19)
(-0.35744488 0.055930931 3.170423e-20)
(-0.36034356 0.04376959 -4.9163714e-20)
(-0.35816852 0.031106101 -4.9690053e-20)
(-0.3503587 0.018261816 -6.9766184e-20)
(-0.33650997 0.0055831973 -8.5152457e-20)
(-0.31632744 -0.0066879584 -5.1574672e-20)
(-0.2895924 -0.018493571 -8.0513217e-20)
(-0.25601524 -0.029910026 2.7627434e-20)
(-0.21532166 -0.041010759 -1.7075308e-19)
(-0.16721603 -0.051807197 -1.1447194e-20)
(-0.11166445 -0.062370644 -1.0057277e-20)
(-0.048302242 -0.072893747 -5.4015792e-21)
(0.02276183 -0.083893802 2.3940469e-19)
(0.10309228 -0.095489922 9.580048e-20)
(0.19155098 -0.10837846 -1.5071301e-19)
(0.29113686 -0.12084052 -2.2283711e-19)
(0.39328631 -0.13213353 -1.0249654e-19)
(0.49783118 -0.13418388 -3.4439912e-20)
(0.58744994 -0.12873785 2.0426031e-19)
(0.67570223 -0.11414667 -5.2551904e-20)
(-0.000322022 0.0017109655 -1.8819934e-21)
(-0.0010008687 0.0052786643 -4.2634252e-21)
(-0.001756567 0.0091932319 1.0297186e-20)
(-0.0025977347 0.01348 -3.8372479e-22)
(-0.0035335798 0.018164018 -5.0235703e-21)
(-0.0045744481 0.023269285 -2.2168245e-21)
(-0.005731812 0.028817817 -1.6394389e-21)
(-0.0070182772 0.034828477 3.2376204e-21)
(-0.0084476998 0.041315474 -1.6802516e-20)
(-0.010035275 0.048286549 1.2721887e-20)
(-0.01179763 0.055740782 -6.1666529e-22)
(-0.013752913 0.063666019 -7.765018e-21)
(-0.015920872 0.072035939 2.9224561e-20)
(-0.018322935 0.080806808 -2.9334915e-20)
(-0.020982272 0.089914108 3.9453738e-21)
(-0.023923859 0.099269259 2.4635352e-20)
(-0.027174523 0.10875689 -2.344723e-20)
(-0.030762983 0.11823327 8.3175174e-21)
(-0.034719888 0.12752667 -1.6402013e-20)
(-0.039077847 0.13644083 2.1427393e-20)
(-0.04387145 0.14476237 4.1012982e-20)
(-0.049137276 0.15227329 -4.1457433e-20)
(-0.054913856 0.15876861 -6.2002311e-20)
(-0.061241524 0.16407831 1.2221399e-19)
(-0.068162068 0.16809062 -1.0007133e-19)
(-0.075718472 0.17077193 5.9231525e-20)
(-0.08395511 0.17217694 -1.5590938e-20)
(-0.092910754 0.17244254 3.7421645e-20)
(-0.10261946 0.17175399 -3.9056763e-20)
(-0.11311115 0.17028812 -5.3302733e-20)
(-0.1244081 0.16818334 3.6051844e-20)
(-0.13651661 0.16554793 6.0261606e-20)
(-0.1494226 0.16245996 -5.4340197e-21)
(-0.16309901 0.15896652 -2.2995438e-21)
(-0.17749399 0.15508689 -4.0193961e-20)
(-0.19252554 0.1508098 1.7550268e-20)
(-0.20807291 0.14609055 6.4794385e-20)
(-0.2239662 0.14085166 3.2676041e-20)
(-0.23997458 0.1349875 -5.0395725e-20)
(-0.25579272 0.12837117 4.0072638e-20)
(-0.27102505 0.12086178 -3.3878575e-20)
(-0.28517119 0.1123131 1.1514789e-20)
(-0.29761993 0.10258784 4.2998875e-20)
(-0.30765708 0.091587721 -1.0227946e-19)
(-0.31451186 0.079314017 -6.0440664e-20)
(-0.31748237 0.065926629 -3.8862859e-20)
(-0.31590803 0.051705701 1.2050723e-19)
(-0.30921702 0.036947031 7.7308167e-20)
(-0.29688193 0.02202453 8.971655e-20)
(-0.27848155 0.0073417884 1.5507964e-19)
(-0.25372385 -0.0068178069 -5.3104568e-20)
(-0.22240632 -0.020402385 1.1179594e-20)
(-0.1842272 -0.03352514 8.8784091e-20)
(-0.1389232 -0.046275458 2.6186942e-19)
(-0.086201672 -0.058644054 1.7435399e-19)
(-0.026086889 -0.070709549 6.9623036e-20)
(0.04189687 -0.08267781 2.0676765e-19)
(0.11767625 -0.095229382 -1.4276624e-19)
(0.20292196 -0.10840092 1.4956145e-20)
(0.29638552 -0.12293261 2.4278926e-19)
(0.39979361 -0.13631167 1.6957754e-19)
(0.50297775 -0.14719818 8.1240837e-21)
(0.60335579 -0.14749619 -2.8682964e-19)
(0.68550447 -0.13973729 3.0543301e-20)
(0.76191153 -0.12217396 -4.5097316e-20)
(-0.00040475984 0.0018406677 -7.3582984e-21)
(-0.001254408 0.0056819353 3.524169e-21)
(-0.0021948874 0.00990061 -4.7638525e-21)
(-0.0032351627 0.014525336 -2.7097655e-21)
(-0.0043847003 0.019584764 7.5706509e-21)
(-0.0056537858 0.025106849 7.076596e-21)
(-0.0070534671 0.031117897 -7.2745538e-21)
(-0.0085954963 0.037641391 8.7669291e-22)
(-0.010292332 0.044696459 2.0356933e-22)
(-0.012157107 0.052295997 1.452281e-20)
(-0.014203591 0.060444372 -1.6012077e-21)
(-0.016446129 0.06913466 -2.9551947e-20)
(-0.018899588 0.078345455 2.3770401e-20)
(-0.021579288 0.088037229 -8.2669644e-22)
(-0.024500954 0.098148413 -1.6192327e-20)
(-0.027680697 0.10859139 -1.4093111e-21)
(-0.031135052 0.11924885 3.6280048e-21)
(-0.03488111 0.12997103 1.658726e-20)
(-0.038936767 0.14057489 -3.0884612e-20)
(-0.043321144 0.15084624 5.5298297e-20)
(-0.048055206 0.16054618 -1.2180703e-20)
(-0.053162509 0.16942321 9.1269313e-21)
(-0.058670078 0.17723163 -7.7020646e-21)
(-0.064609204 0.18375593 3.1139547e-22)
(-0.071015853 0.18883842 -4.7683826e-20)
(-0.077930468 0.19240527 -4.8625266e-20)
(-0.085397251 0.19448346 9.8322929e-20)
(-0.093461233 0.19520077 1.6677705e-20)
(-0.10215904 0.19475944 -5.9303547e-20)
(-0.11151796 0.19337398 -2.1457007e-20)
(-0.12156267 0.19121641 -4.9169287e-20)
(-0.13229865 0.18841237 5.6453752e-20)
(-0.14370519 0.18506093 2.500977e-20)
(-0.15574448 0.18122417 -5.8914086e-20)
(-0.16835256 0.176928 2.5090473e-20)
(-0.18143255 0.17216254 1.1802124e-20)
(-0.19484579 0.16687884 -3.5772135e-20)
(-0.20840151 0.16098959 -9.401798e-20)
(-0.22184525 0.15437372 -2.8625122e-20)
(-0.23484545 0.14688382 1.9260455e-20)
(-0.24697939 0.13835508 4.5725789e-20)
(-0.25772308 0.12861802 4.71102e-20)
(-0.26645383 0.11751978 5.1891745e-20)
(-0.27247175 0.1049658 1.0816598e-19)
(-0.27507097 0.090992131 -2.9185423e-21)
(-0.27365122 0.075810489 4.4927474e-20)
(-0.26765369 0.059730121 -2.3983702e-19)
(-0.25655506 0.043066866 -6.5702805e-20)
(-0.23979371 0.026222014 -7.4392182e-20)
(-0.21692671 0.0096655093 -2.0438999e-19)
(-0.18769613 -0.0062579298 2.3747783e-19)
(-0.15191137 -0.021502141 -5.2890252e-20)
(-0.10925204 -0.036213723 -1.7039636e-19)
(-0.059447999 -0.050490474 -2.1086211e-19)
(-0.0021884547 -0.064295596 -2.7144351e-20)
(0.062518451 -0.077733514 6.9086148e-20)
(0.13530964 -0.09101827 1.1325131e-19)
(0.21614202 -0.1049798 -4.8633551e-20)
(0.30676561 -0.1195295 8.9491205e-20)
(0.40574619 -0.13524655 -7.6440619e-20)
(0.51246948 -0.14880895 -2.6421936e-20)
(0.61505565 -0.15824435 -8.0094833e-20)
(0.70848891 -0.15593265 3.5768451e-19)
(0.78003378 -0.14554656 1.194034e-20)
(0.84194532 -0.12497264 1.4805191e-19)
(-0.00048271458 0.0019109173 6.8423985e-21)
(-0.0014934796 0.0059026138 1.2959118e-21)
(-0.0026084361 0.010291349 -1.425065e-21)
(-0.0038369425 0.015108573 -7.0095653e-21)
(-0.0051887867 0.02038614 8.4149412e-21)
(-0.0066742908 0.026155708 -7.1545778e-21)
(-0.0083042102 0.032447837 -3.424143e-21)
(-0.01008962 0.039290875 1.8414777e-22)
(-0.012041807 0.046709478 2.903482e-21)
(-0.014172118 0.054722772 1.6557499e-20)
(-0.016491793 0.063342047 -2.7898103e-20)
(-0.019011759 0.072567967 3.3663184e-20)
(-0.021742414 0.082387211 -9.9382415e-21)
(-0.024693402 0.09276858 -1.3571373e-20)
(-0.027873408 0.10365863 2.0974471e-20)
(-0.031290007 0.11497697 -4.1723926e-20)
(-0.034949617 0.12661165 5.1118805e-20)
(-0.038857607 0.13841509 8.1108675e-22)
(-0.043018666 0.15020158 3.0117705e-20)
(-0.047437481 0.1617475 -1.2162454e-19)
(-0.052119819 0.17279582 3.0025268e-20)
(-0.057074002 0.18306657 1.2679015e-19)
(-0.062312709 0.19227469 -6.1308031e-20)
(-0.06785486 0.20015547 -7.4818706e-20)
(-0.073727156 0.20649583 1.9273936e-20)
(-0.079964627 0.21116673 1.0304393e-19)
(-0.086609626 0.21414871 -1.5969631e-19)
(-0.093708851 0.21554066 1.8076168e-19)
(-0.10130612 0.21554189 -1.4509645e-19)
(-0.10943083 0.21439976 2.8306795e-20)
(-0.11810061 0.2123348 -4.929552e-20)
(-0.12732352 0.20949967 -7.1233241e-20)
(-0.13707882 0.20600478 2.8625239e-20)
(-0.14731647 0.20193207 7.5607707e-21)
(-0.15796165 0.19732076 1.083274e-19)
(-0.16890207 0.1921651 -2.1394886e-20)
(-0.17998185 0.18641362 5.5112097e-20)
(-0.19099023 0.17997049 -4.6915086e-20)
(-0.20165007 0.17270042 2.8163753e-20)
(-0.21160547 0.16443694 1.8304828e-20)
(-0.22041065 0.1549942 1.5685564e-20)
(-0.2275265 0.14418489 1.55786e-20)
(-0.23233337 0.13184972 -9.4569697e-20)
(-0.23416545 0.11790984 -7.3828725e-20)
(-0.23240513 0.10244423 2.0751317e-20)
(-0.22653516 0.08571186 -1.2929846e-20)
(-0.21607932 0.068020537 5.3711323e-20)
(-0.20049683 0.049674939 -1.0519696e-19)
(-0.17920198 0.031096987 -1.2119013e-19)
(-0.15182913 0.012836434 -3.484705e-20)
(-0.11819146 -0.0047037426 -9.1396548e-20)
(-0.078078268 -0.021480262 2.9183959e-21)
(-0.031105584 -0.037670266 4.4279135e-20)
(0.023041648 -0.053382021 2.1582089e-19)
(0.084745564 -0.068542135 -1.0882399e-19)
(0.15410173 -0.083283229 4.4407493e-20)
(0.23179704 -0.097820493 -1.3218439e-19)
(0.31804522 -0.11306562 2.2570221e-19)
(0.41480144 -0.12876434 -1.3183156e-19)
(0.51965453 -0.14494874 4.6419447e-20)
(0.6285836 -0.15761223 -4.2529334e-23)
(0.7275474 -0.164474 3.8200412e-20)
(0.81033603 -0.15898614 1.4529301e-19)
(0.86784888 -0.14601394 -2.7825011e-19)
(0.91279977 -0.12308447 2.8928968e-19)
(-0.00054983253 0.0019194938 -1.5139411e-20)
(-0.0016995325 0.0059335885 -7.3347179e-21)
(-0.0029651327 0.010352628 1.1523708e-20)
(-0.004356399 0.015210216 -3.036015e-22)
(-0.0058834835 0.020540823 -1.04418e-20)
(-0.0075568396 0.026379351 -5.4678032e-21)
(-0.0093870885 0.032760336 1.154779e-20)
(-0.011384861 0.039716946 -1.9000014e-21)
(-0.013560586 0.047279653 2.6874654e-20)
(-0.01592425 0.055474521 -5.2573371e-21)
(-0.018485091 0.064321035 -1.3497301e-22)
(-0.021251267 0.073829382 1.9526423e-20)
(-0.024229474 0.083997126 -6.2998647e-20)
(-0.027424548 0.094805197 2.9594806e-20)
(-0.030839082 0.10621326 5.3541847e-20)
(-0.034473076 0.11815445 -5.7726028e-20)
(-0.038323728 0.13052985 7.1981798e-21)
(-0.04238541 0.14320307 -4.157378e-20)
(-0.046649976 0.15599586 -3.144695e-20)
(-0.051107534 0.16868581 1.0096448e-19)
(-0.05574778 0.1810081 -7.7529128e-20)
(-0.06056205 0.19266295 1.0453764e-19)
(-0.065545954 0.20333123 -1.2610641e-20)
(-0.070702448 0.21269909 5.2807732e-20)
(-0.076044712 0.22049122 -1.1783794e-19)
(-0.081598064 0.22650901 2.8607993e-20)
(-0.087399747 0.23066562 7.3915167e-20)
(-0.093495644 0.23300687 -1.8269135e-19)
(-0.099933031 0.23370526 8.109306e-20)
(-0.10674988 0.23301805 8.8851391e-20)
(-0.11396264 0.23121325 -7.4806904e-20)
(-0.12156897 0.22849833 -1.0071492e-20)
(-0.12955219 0.2250097 5.178678e-20)
(-0.13785941 0.2208378 -2.907823e-20)
(-0.14640061 0.21603375 4.5159537e-20)
(-0.15505213 0.21060305 -1.6077802e-19)
(-0.16364165 0.20449635 8.5296404e-20)
(-0.17193814 0.19761206 5.1769416e-20)
(-0.17964187 0.18980277 1.0691652e-19)
(-0.186374 0.1808856 1.4101906e-20)
(-0.19166977 0.17065804 -1.1562988e-19)
(-0.19498229 0.15892201 4.6581528e-20)
(-0.19570557 0.1455218 6.8600036e-20)
(-0.19321852 0.13040523 1.0775662e-20)
(-0.1869876 0.1136941 -6.5595117e-20)
(-0.17654739 0.095680363 -5.7172055e-20)
(-0.16146105 0.076649442 1.7210333e-19)
(-0.14116382 0.056883118 9.0268722e-20)
(-0.11517324 0.036831109 1.9431467e-19)
(-0.083289648 0.017112523 6.782958e-20)
(-0.045372974 -0.0018406508 2.6210472e-20)
(-0.0011266102 -0.020007326 1.9361506e-19)
(0.049955215 -0.037582965 7.6264133e-20)
(0.10830171 -0.054664441 -2.5757523e-19)
(0.17443462 -0.071126759 2.0813377e-19)
(0.24847509 -0.087102842 -1.9301772e-19)
(0.33134545 -0.10281889 9.3570911e-20)
(0.42412813 -0.11917831 -4.5697751e-19)
(0.52820948 -0.1355764 -2.3121777e-19)
(0.63872303 -0.1513447 9.4831185e-20)
(0.74710536 -0.1620006 1.504365e-19)
(0.83752852 -0.16542814 2.5463752e-19)
(0.90499711 -0.15660735 4.5564911e-20)
(0.94491701 -0.14151595 3.5935231e-20)
(0.97108159 -0.11721343 -3.8649048e-19)
(-0.00060046041 0.0018674964 -2.7216346e-22)
(-0.0018551998 0.0057778753 1.3587827e-20)
(-0.0032348811 0.010089091 -1.6030618e-20)
(-0.0047496435 0.014836096 -7.7218862e-21)
(-0.006410005 0.020055203 1.5483681e-20)
(-0.0082266219 0.025783866 5.0224497e-21)
(-0.010210131 0.032060011 -2.4401111e-20)
(-0.012370964 0.038921228 2.6316236e-20)
(-0.014719064 0.046403647 5.5666285e-21)
(-0.017263555 0.054540468 2.2217651e-20)
(-0.020012346 0.063360025 -5.9235141e-20)
(-0.02297167 0.072883299 -7.2652473e-22)
(-0.026145559 0.083120793 5.3784812e-20)
(-0.029535281 0.09406862 -5.8156098e-20)
(-0.033138747 0.10570381 4.2000128e-20)
(-0.036949947 0.11797874 1.5737065e-20)
(-0.04095848 0.13081491 -3.3288068e-20)
(-0.045149293 0.1440963 3.047981e-20)
(-0.049502766 0.15766306 4.1250001e-20)
(-0.053995312 0.1713065 -8.9446301e-22)
(-0.058600753 0.18476728 -6.7662674e-20)
(-0.063292569 0.19773877 4.2767539e-20)
(-0.068047197 0.20987841 -2.4387675e-20)
(-0.072848096 0.22082911 -1.208548e-19)
(-0.077690167 0.23025195 -4.1336378e-20)
(-0.082583467 0.23786782 1.15064e-19)
(-0.087554736 0.24350177 -1.1752706e-20)
(-0.09264519 0.24711817 1.3577764e-19)
(-0.097903232 0.24883197 -8.2150703e-20)
(-0.1033721 0.24888141 4.4231675e-20)
(-0.1090758 0.24756118 -6.5463549e-20)
(-0.11501317 0.24514123 -1.6233847e-20)
(-0.12115386 0.24181117 8.3384542e-20)
(-0.1274384 0.23768527 -8.761454e-20)
(-0.13377686 0.23283043 -1.3030448e-19)
(-0.14003329 0.22726102 1.3584961e-20)
(-0.14601819 0.22093015 1.4547908e-19)
(-0.15148162 0.21373292 -1.8868848e-19)
(-0.15610176 0.2055136 4.1317694e-20)
(-0.15947877 0.19607772 -8.892058e-20)
(-0.16113296 0.18521218 1.3750998e-20)
(-0.16051611 0.17271583 -1.4012871e-19)
(-0.15704184 0.15844485 -6.7256816e-20)
(-0.1501382 0.14237724 -8.2975462e-20)
(-0.13932194 0.12467631 3.3291976e-19)
(-0.12416788 0.10564784 1.0763359e-19)
(-0.1042556 0.085556063 -1.4265599e-19)
(-0.079080134 0.064670391 1.1526038e-19)
(-0.04838171 0.043469456 9.5709687e-20)
(-0.012112194 0.0225929 -1.0753551e-19)
(0.029895617 0.0024494895 -5.6029756e-20)
(0.078093598 -0.016979597 -1.310703e-19)
(0.13318086 -0.035865942 -6.3624504e-20)
(0.19578822 -0.054261219 2.1798543e-19)
(0.26650174 -0.071962502 1.2325229e-19)
(0.34561482 -0.089119287 1.9907018e-20)
(0.43511782 -0.10595468 -7.7529107e-22)
(0.53658906 -0.12313487 1.1299367e-19)
(0.64891015 -0.13948289 -1.6551419e-19)
(0.76275152 -0.15351062 -2.1648221e-19)
(0.86473938 -0.16087498 -6.1211856e-20)
(0.93978199 -0.16055064 -4.7114497e-19)
(0.98635994 -0.14909461 -3.7956601e-19)
(1.0053935 -0.13318481 -9.7469868e-20)
(1.0122911 -0.10956966 -5.2407272e-20)
(-0.00062995294 0.0017596255 9.1864216e-21)
(-0.0019461603 0.0054495283 5.6876583e-21)
(-0.0033927839 0.0095244866 -1.1837028e-20)