/*--------------------------------*- C++ -*----------------------------------*\
  =========                 |
  \\      /  F ield         | OpenFOAM: The Open Source CFD Toolbox
   \\    /   O peration     | Website:  https://openfoam.org
    \\  /    A nd           | Version:  13
     \\/     M anipulation  |
\*---------------------------------------------------------------------------*/
FoamFile
{
    format      ascii;
    class       volVectorField;
    location    "4.598392";
    object      UMean;
}
// * * * * * * * * * * * * * * * * * * * * * * * * * * * * * * * * * * * * * //

dimensions      [0 1 -1 0 0 0 0];

internalField   nonuniform List<vector> 
17140
(
(-3.7264727e-06 0.00016062536 -9.6902824e-22)
(-4.7437969e-05 0.0004932025 -7.871314e-23)
(-0.00014145874 0.00085541649 5.1994013e-21)
(-0.00030553993 0.0012489342 -5.7177652e-21)
(-0.00055714537 0.0016754481 6.6869501e-22)
(-0.00092040952 0.002136276 -2.1894287e-21)
(-0.0014249179 0.0026322652 -3.6881228e-21)
(-0.0021063305 0.0031636041 1.8022308e-21)
(-0.0030074387 0.0037296162 5.903652e-21)
(-0.0041791718 0.0043285134 1.4495867e-20)
(-0.0056815249 0.0049571255 -2.1525816e-20)
(-0.0075843573 0.0056106144 1.921546e-20)
(-0.0099679487 0.0062821922 2.9463881e-21)
(-0.012923156 0.0069628726 -1.6710387e-20)
(-0.016550986 0.0076413101 1.8605831e-21)
(-0.020961377 0.0083037739 -1.4791044e-20)
(-0.026271036 0.0089343514 5.5341842e-22)
(-0.032600163 0.0095154553 -1.2349576e-22)
(-0.040068117 0.010028717 -8.8595063e-21)
(-0.048788255 0.010456301 1.1543675e-20)
(-0.058862405 0.010782618 -5.5814643e-21)
(-0.070375744 0.01099623 1.071195e-21)
(-0.083394905 0.011091597 7.9052634e-21)
(-0.09797216 0.011070136 -7.8923859e-21)
(-0.11412813 0.010940318 -1.2573587e-20)
(-0.13186876 0.010715147 1.010826e-20)
(-0.15123056 0.010406467 4.9573005e-20)
(-0.17221704 0.010027524 5.8222976e-21)
(-0.19480912 0.0095895711 -5.114453e-20)
(-0.21900567 0.0091002552 -1.1933401e-20)
(-0.24477747 0.0085647508 -4.2576337e-20)
(-0.27207421 0.0079862687 5.6075312e-20)
(-0.30081489 0.0073664797 -1.4605296e-20)
(-0.3308788 0.0067058079 -6.9951591e-21)
(-0.3620932 0.0060028361 -6.8801019e-20)
(-0.39421558 0.0052536645 3.0291265e-20)
(-0.42690846 0.0044512912 -4.5700121e-20)
(-0.45970295 0.0035848018 -3.0985206e-20)
(-0.4919489 0.0026386939 -1.420362e-20)
(-0.52275232 0.0015942087 4.3127637e-20)
(-0.55090601 0.00042945746 8.1359695e-20)
(-0.57480582 -0.00087469003 7.374298e-20)
(-0.59239001 -0.0023280287 3.2131275e-20)
(-0.6012237 -0.0039279285 -1.5577086e-19)
(-0.59847381 -0.0056447872 -1.1345412e-19)
(-0.5811358 -0.0073784469 2.777073e-20)
(-0.5466487 -0.0090295024 -1.8785157e-19)
(-0.49282377 -0.010520167 -6.3545918e-20)
(-0.41827978 -0.011719387 6.4506082e-20)
(-0.3253994 -0.012433788 1.5738323e-19)
(-0.21594492 -0.012600524 -9.6626283e-20)
(-0.093549758 -0.012305273 -6.0847313e-20)
(0.038339662 -0.011582675 1.5791515e-19)
(0.1758029 -0.010447581 7.431576e-20)
(0.31360847 -0.0088593367 5.2694511e-20)
(0.44480801 -0.0068293668 -4.1133475e-20)
(0.56247795 -0.0045034616 1.1022141e-19)
(0.66105455 -0.0021181549 9.1347337e-20)
(0.73905459 5.0172987e-05 2.2705986e-20)
(0.79776991 0.0018651489 -5.8156548e-20)
(0.84039465 0.0032744375 -4.526927e-20)
(0.87045078 0.0042996795 -1.6683831e-19)
(0.89206575 0.0049198455 -2.4412858e-20)
(0.90937007 0.005257513 2.0508261e-19)
(0.92540397 0.0054005419 -1.5850835e-19)
(-3.7255465e-05 0.00086996638 2.7551948e-22)
(-0.00014953671 0.0026717098 -2.7257474e-20)
(-0.00031740553 0.0046348847 2.4261572e-20)
(-0.00056049195 0.006770091 -6.6165442e-21)
(-0.00089636238 0.0090872739 -1.3672745e-20)
(-0.0013490158 0.011594697 2.6137649e-20)
(-0.0019477248 0.014298249 -2.7263229e-20)
(-0.0027276245 0.017200504 2.4011571e-21)
(-0.0037307197 0.020299602 -7.5030187e-21)
(-0.005006839 0.023587947 -1.2657146e-22)
(-0.0066145156 0.027050761 -2.5110748e-20)
(-0.0086217466 0.030664536 3.9965547e-20)
(-0.011106521 0.034395496 3.3069528e-21)
(-0.014156965 0.038198223 -3.2709373e-20)
(-0.017870941 0.042014698 1.0070641e-20)
(-0.02235491 0.045774093 6.4106517e-21)
(-0.02772187 0.049393712 -4.0764662e-20)
(-0.034088277 0.052781577 1.331502e-19)
(-0.041569945 0.055841074 -8.3576106e-20)
(-0.050277162 0.058477917 1.0034895e-19)
(-0.060309462 0.060609256 -1.4855575e-19)
(-0.071750767 0.06217404 3.6484564e-20)
(-0.084667404 0.063142708 1.5057636e-20)
(-0.099112121 0.063523443 -4.9232572e-20)
(-0.11510936 0.063362577 1.7717401e-19)
(-0.13266442 0.062731792 2.6396158e-20)
(-0.15181493 0.061697832 -1.3695327e-19)
(-0.17256932 0.060333266 1.5345322e-19)
(-0.19490686 0.058699358 -2.116302e-20)
(-0.21882775 0.056838124 -2.0662741e-19)
(-0.24430281 0.054776678 2.1483672e-20)
(-0.27128191 0.052529994 1.6436282e-19)
(-0.29968389 0.050103614 4.081202e-21)
(-0.32938766 0.047493995 -1.2302383e-19)
(-0.36021999 0.044686258 1.3770112e-19)
(-0.39193699 0.041650106 -6.217142e-20)
(-0.42419912 0.03833507 7.3532939e-20)
(-0.45653466 0.034665975 2.3440826e-19)
(-0.4882885 0.030539673 5.2595812e-20)
(-0.51855895 0.025825497 2.0617582e-19)
(-0.54612587 0.020371205 -2.6469779e-19)
(-0.56936525 0.014024596 -2.4354607e-19)
(-0.58619126 0.0066702639 -4.1602878e-20)
(-0.59411364 -0.0017344707 3.3276644e-19)
(-0.59022659 -0.011123701 -1.569274e-19)
(-0.57154327 -0.021226641 -5.4271776e-20)
(-0.53517592 -0.031630814 2.9086461e-20)
(-0.47928567 -0.041694778 9.0261778e-20)
(-0.4034589 -0.050385096 -4.4088546e-20)
(-0.3088087 -0.057059343 7.9669568e-20)
(-0.19793703 -0.061524256 4.7886698e-19)
(-0.07448861 -0.06374524 2.2820596e-20)
(0.05794855 -0.063950132 -1.0269036e-19)
(0.19544664 -0.062027531 2.2765083e-19)
(0.33268947 -0.057564164 -1.9349306e-19)
(0.46260703 -0.050436977 5.4584445e-19)
(0.57827555 -0.041250801 1.5456344e-19)
(0.67443477 -0.031254707 -4.3188843e-19)
(0.74992993 -0.021909755 7.2799816e-20)
(0.80631741 -0.014003839 8.2502781e-20)
(0.84709305 -0.0078554194 1.6463576e-20)
(0.87586388 -0.0034260334 -2.1806666e-19)
(0.89663917 -0.00075781374 4.243714e-19)
(0.91290186 0.00052140331 1.269843e-19)
(0.92774608 0.0009370098 2.1101274e-19)
(-0.00010947061 0.0015629188 1.5182913e-20)
(-0.00036928317 0.0048006071 -8.2278676e-21)
(-0.00069585306 0.0083293793 -2.1886914e-21)
(-0.0011084819 0.012168946 2.0761583e-21)
(-0.0016249062 0.016337688 -1.0064066e-20)
(-0.0022687552 0.020851127 -7.4824937e-22)
(-0.0030685355 0.025720653 -9.5720379e-21)
(-0.0040581468 0.030951868 -1.032074e-20)
(-0.0052777763 0.036542567 8.4442156e-20)
(-0.0067747439 0.042480425 -7.5481395e-20)
(-0.0086042831 0.048740379 3.61724e-20)
(-0.010830212 0.055281824 5.3085491e-20)
(-0.013525405 0.062045783 -1.0548018e-19)
(-0.016771927 0.06895235 -1.3083759e-20)
(-0.020660686 0.075898822 5.0658212e-20)
(-0.025290457 0.082759116 3.4922283e-20)
(-0.030766084 0.08938523 -4.062397e-20)
(-0.037195797 0.095611595 1.4753357e-19)
(-0.04468763 0.10126316 -8.7509959e-20)
(-0.053345136 0.10616771 4.3413325e-20)
(-0.063262799 0.11017224 -1.4691323e-19)
(-0.074521709 0.11316184 -3.833379e-20)
(-0.087187378 0.11507779 8.0203364e-20)
(-0.10131327 0.11592985 -1.2096251e-19)
(-0.11693208 0.11579764 -4.7672849e-20)
(-0.13404696 0.11481049 5.744116e-20)
(-0.15269804 0.11309468 3.2625439e-19)
(-0.1729048 0.11077945 1.4762856e-19)
(-0.19464165 0.1079784 -7.3932886e-20)
(-0.21791122 0.10477081 7.898206e-20)
(-0.24268416 0.10120741 -4.9708311e-20)
(-0.2689099 0.097315814 -2.8133251e-19)
(-0.29650662 0.093105938 9.449555e-20)
(-0.32535201 0.088570297 2.8306678e-19)
(-0.35527063 0.0836804 -9.5157374e-20)
(-0.38601574 0.078379127 -1.3367391e-19)
(-0.41724303 0.072571569 2.3281373e-19)
(-0.44847263 0.066116237 7.1302241e-20)
(-0.47903678 0.058818781 -1.2795696e-19)
(-0.50801317 0.0504309 -5.1686772e-20)
(-0.53414695 0.040662279 2.4919924e-19)
(-0.55576288 0.029217678 -7.1038666e-20)
(-0.57070942 0.015863198 -1.0331438e-19)
(-0.5763944 0.00050001197 -2.765433e-19)
(-0.56982003 -0.016762102 5.2764397e-19)
(-0.54790442 -0.035436783 -3.4236249e-19)
(-0.50797192 -0.054624023 -8.6571756e-20)
(-0.44837704 -0.073072756 -3.4403526e-19)
(-0.36881269 -0.089269424 -4.142758e-19)
(-0.27076153 -0.1019012 -2.1228665e-20)
(-0.1574844 -0.11036904 8.9649475e-20)
(-0.032897679 -0.11481355 -6.598893e-19)
(0.099367399 -0.11566269 -2.817023e-19)
(0.23551034 -0.11270577 -2.8938263e-19)
(0.37023364 -0.10510991 -9.4691879e-20)
(0.49635796 -0.092625894 -7.2984061e-19)
(0.60708324 -0.076426439 2.8793301e-19)
(0.6978646 -0.058821659 -8.692842e-20)
(0.76809138 -0.042434455 -7.0968942e-19)
(0.81984511 -0.028691771 -2.8065064e-19)
(0.85708182 -0.018124322 3.3296608e-19)
(0.88357123 -0.010565726 1.1432063e-18)
(0.9032421 -0.005924138 -3.6496087e-19)
(0.91849592 -0.0036367611 -5.8807552e-19)
(0.93206613 -0.0029424653 -2.5186049e-19)
(-0.00021780901 0.0022142541 -5.0770181e-20)
(-0.00069897386 0.006803092 5.9203709e-20)
(-0.0012636356 0.011806734 -2.1412981e-20)
(-0.0019306135 0.017254072 2.3288132e-21)
(-0.0027178987 0.023172117 -4.605594e-20)
(-0.0036485667 0.029584113 4.7682068e-20)
(-0.0047499782 0.03650772 -7.2378248e-20)
(-0.0060541814 0.043952693 3.4087627e-20)
(-0.007598636 0.051918059 1.297321e-19)
(-0.0094268963 0.060388829 -3.1239724e-20)
(-0.011589235 0.069332278 -1.191632e-19)
(-0.014143178 0.078693892 3.6453944e-20)
(-0.017153878 0.088393233 2.4448392e-21)
(-0.020694225 0.098320088 -9.5871652e-20)
(-0.024844572 0.1083315 3.0090846e-19)
(-0.029691963 0.11825051 -1.8541418e-19)
(-0.035328728 0.12786765 -1.7738569e-21)
(-0.041850369 0.13694654 1.0344788e-19)
(-0.049352759 0.14523468 -2.6400998e-19)
(-0.057928749 0.15248057 1.2528236e-19)
(-0.067664556 0.15845686 1.8790504e-19)
(-0.078636291 0.1629877 7.6500676e-20)
(-0.090907726 0.16597596 -3.8082204e-19)
(-0.1045329 0.16742279 -2.0013265e-19)
(-0.1195547 0.16743173 1.3019503e-19)
(-0.13597713 0.166186 -7.6266914e-20)
(-0.15384193 0.1638794 2.8747012e-19)
(-0.17318205 0.16069162 -8.2950971e-20)
(-0.19396955 0.15679178 2.2481898e-19)
(-0.21620725 0.15230197 -1.2777567e-19)
(-0.23986647 0.14729935 7.9337558e-20)
(-0.26489562 0.14182611 -2.9300979e-19)
(-0.2912115 0.13589715 4.2399395e-20)
(-0.3186895 0.12950158 -2.2467294e-19)
(-0.34715072 0.12259709 2.1673898e-19)
(-0.37634342 0.11509911 6.9609163e-20)
(-0.40591483 0.10686695 -8.7840323e-19)
(-0.43537182 0.097690053 -2.3077621e-19)
(-0.46402486 0.087277605 1.9297365e-19)
(-0.49091635 0.075256496 -1.9099006e-19)
(-0.51473615 0.061188851 4.9235435e-20)
(-0.53372884 0.044626872 3.119932e-19)
(-0.54564162 0.025209301 -1.4699364e-20)
(-0.54773962 0.0027774289 -1.0562108e-19)
(-0.53693449 -0.022485778 5.1540174e-20)
(-0.51017827 -0.049815519 -2.5620916e-20)
(-0.4649744 -0.077843112 -7.5163247e-20)
(-0.39994081 -0.10466302 1.1689185e-18)
(-0.31532271 -0.12803541 -1.3084663e-19)
(-0.21333929 -0.14606358 1.2195088e-19)
(-0.097902723 -0.15792192 -1.1506844e-18)
(0.026722546 -0.16400546 6.322059e-19)
(0.15702131 -0.16509794 5.1960155e-19)
(0.28960467 -0.16087736 4.9503651e-19)
(0.41932901 -0.14999701 4.7478142e-19)
(0.53893514 -0.13205567 7.4062273e-19)
(0.64196703 -0.10892091 -1.4694547e-18)
(0.72484421 -0.083988176 8.9739045e-19)
(0.78772976 -0.060968235 1.3516354e-18)
(0.83343661 -0.041895142 -9.8569525e-19)
(0.86634733 -0.027440451 -3.1336584e-19)
(0.89030179 -0.017241698 -2.7272437e-19)
(0.908864 -0.010906128 1.3872927e-18)
(0.9238105 -0.0075388665 1.0187627e-18)
(0.93674053 -0.0063489122 -4.4838668e-20)
(-0.00035690254 0.0027990362 3.5678561e-20)
(-0.0011224029 0.0086030914 -8.6751548e-20)
(-0.0019930005 0.014935749 7.0749945e-20)
(-0.0029869563 0.021835072 -2.674891e-20)
(-0.0041226302 0.029336861 -9.668698e-21)
(-0.0054224468 0.037472635 8.3259954e-20)
(-0.0069123641 0.046267311 -2.1108867e-20)
(-0.0086221318 0.055736343 -4.4868088e-20)
(-0.010585795 0.065882183 -3.4480983e-21)
(-0.012842159 0.076690152 -2.9335724e-20)
(-0.015435208 0.088123684 4.116105e-20)
(-0.018414448 0.1001191 -2.8681139e-20)
(-0.021835132 0.11258015 -1.059886e-19)
(-0.025758309 0.12537276 -3.0890515e-21)
(-0.030250612 0.13832071 8.1641399e-20)
(-0.035383695 0.15120326 5.8100332e-20)
(-0.041233295 0.16375608 -5.0260883e-20)
(-0.047877807 0.17567715 4.86235e-21)
(-0.055396441 0.18663936 9.9262972e-20)
(-0.063867011 0.19631126 1.2177586e-19)
(-0.073363611 0.20438619 -1.4001064e-19)
(-0.083954362 0.21061792 -1.4193259e-19)
(-0.095699605 0.21485748 1.9237919e-19)
(-0.10865332 0.21708195 -2.3964665e-19)
(-0.12286709 0.21740397 -4.1766341e-19)
(-0.13835463 0.21605237 9.8970625e-19)
(-0.15515451 0.21329654 -5.4714781e-19)
(-0.17331074 0.2093601 8.1308042e-19)
(-0.19280437 0.20447161 -1.0189754e-18)
(-0.21363177 0.19880401 1.140155e-18)
(-0.23576717 0.19246528 -1.1816005e-18)
(-0.25915701 0.18551528 1.9955226e-19)
(-0.28371583 0.1779754 6.9050563e-19)
(-0.30931565 0.16983183 -3.9082377e-19)
(-0.33577251 0.16102842 1.2274643e-19)
(-0.36282674 0.15145246 3.6167794e-20)
(-0.39011329 0.14091565 4.4616008e-19)
(-0.41711908 0.12913444 1.4607676e-19)
(-0.44312262 0.11571482 1.4767037e-19)
(-0.46711525 0.10014852 1.4755556e-19)
(-0.48770741 0.081836848 -7.559859e-19)
(-0.50303292 0.060163982 3.3347897e-19)
(-0.51070496 0.034632774 5.3035251e-20)
(-0.50784672 0.0050412911 -6.1692254e-19)
(-0.49134095 -0.028295417 -3.1370139e-19)
(-0.45828706 -0.064270642 1.5537608e-19)
(-0.40653556 -0.10097863 5.6339308e-19)
(-0.33521783 -0.13583682 -2.4694882e-19)
(-0.24521644 -0.16587895 7.1899532e-19)
(-0.13948027 -0.18858487 3.9239437e-19)
(-0.022656502 -0.20299508 5.4427969e-19)
(0.10057786 -0.21000538 1.4604309e-18)
(0.22697787 -0.21093121 -1.1298198e-18)
(0.35382981 -0.20530921 3.6669176e-19)
(0.47619465 -0.19110053 -6.3003733e-19)
(0.58672443 -0.16776081 -5.949971e-19)
(0.67967572 -0.13795965 -2.3060218e-19)
(0.75254422 -0.10620714 -2.0879507e-18)
(0.80663614 -0.077225138 -5.5755661e-19)
(0.84561679 -0.053551826 1.267059e-18)
(0.87415455 -0.035883327 4.7701996e-19)
(0.89580052 -0.023536955 -3.5588936e-19)
(0.91356357 -0.015805904 -7.3558189e-19)
(0.92838323 -0.011436306 -1.1450222e-18)
(0.9411564 -0.0095447342 8.7284242e-20)
(-0.00051854288 0.0032933015 1.0844959e-19)
(-0.0016147814 0.010127397 2.8006443e-20)
(-0.0028414135 0.017589972 -2.2688543e-20)
(-0.0042162098 0.025728085 -8.3811363e-20)
(-0.0057580219 0.034586391 4.5946654e-20)
(-0.0074886351 0.04420522 -6.6183132e-20)
(-0.00943251 0.054617851 2.8663777e-20)
(-0.011616879 0.065847241 6.8349512e-21)
(-0.014071986 0.077901939 -3.8744735e-20)
(-0.016831296 0.090771254 -8.3653673e-20)
(-0.019931652 0.10441962 -4.205336e-21)
(-0.023413372 0.11878031 1.3822908e-19)
(-0.027320278 0.13374864 -1.918777e-19)
(-0.031699603 0.14917528 3.1112607e-19)
(-0.036601786 0.1648603 -8.1713164e-20)
(-0.042080114 0.1805492 1.7461255e-19)
(-0.048190182 0.19593244 -2.1256214e-19)
(-0.054989241 0.21065061 1.3911696e-19)
(-0.062535394 0.22430741 -2.2176291e-20)
(-0.070886752 0.23649258 -9.0792864e-20)
(-0.080100709 0.24681563 2.2290533e-19)
(-0.090233288 0.25494898 -3.1794049e-19)
(-0.10133854 0.26067491 3.4941216e-19)
(-0.113469 0.26392575 6.0587413e-20)
(-0.12667906 0.26480299 -6.012433e-19)
(-0.14100662 0.26356339 6.1320221e-19)
(-0.15647685 0.26054604 -4.0195265e-19)
(-0.17313976 0.25603711 4.542059e-19)
(-0.19100767 0.25031711 4.3346251e-20)
(-0.21005685 0.24361778 2.7156196e-20)
(-0.23026799 0.23608651 -1.8351782e-19)
(-0.25158429 0.22780562 1.2232143e-20)
(-0.273917 0.21880553 -6.9902896e-19)
(-0.29713294 0.20907035 1.9039781e-19)
(-0.32104051 0.19853037 5.7256738e-19)
(-0.34536838 0.18704404 -2.689038e-19)
(-0.36973359 0.17437333 2.226068e-19)
(-0.39359468 0.16015714 -2.249756e-19)
(-0.41618536 0.14388986 -1.2612311e-18)
(-0.43642795 0.12491579 7.0184834e-19)
(-0.45283217 0.10246013 1.7288776e-19)
(-0.46340263 0.075728231 -9.8507602e-19)
(-0.46561899 0.044090891 5.7064386e-20)
(-0.45653139 0.0073378979 1.210905e-19)
(-0.43313142 -0.034016872 1.3185275e-18)
(-0.39287132 -0.078464193 3.0591064e-19)
(-0.33415312 -0.12353325 -4.8178284e-19)
(-0.25667704 -0.16596718 -4.9290958e-19)
(-0.16178081 -0.20205894 -7.0228765e-19)
(-0.052943353 -0.22863315 -8.6969667e-19)
(0.064380256 -0.24464042 -5.3212768e-19)
(0.18494464 -0.25171781 -8.287067e-19)
(0.30585058 -0.25201084 2.8232982e-19)
(0.42518609 -0.24488149 -1.7470309e-18)
(0.53814994 -0.22739778 -1.1806017e-19)
(0.63742721 -0.19886335 -9.9048457e-20)
(0.71829128 -0.16289656 -5.5563843e-20)
(0.77961421 -0.12509274 2.2558843e-18)
(0.82416936 -0.091083546 8.7930804e-19)
(0.85642936 -0.063727177 -1.3485217e-18)
(0.88103179 -0.043575474 -1.9273563e-18)
(0.90084492 -0.029582723 -8.6098045e-19)
(0.91805858 -0.020697799 -2.7902523e-19)
(0.93272962 -0.015342173 1.6316551e-18)
(0.94529839 -0.012643004 -4.1017114e-19)
(-0.00069180915 0.0036759446 -2.0428826e-20)
(-0.0021437185 0.011311089 -4.7460055e-20)
(-0.0037529093 0.019656942 1.1460456e-19)
(-0.0055376641 0.028768981 -4.2648671e-21)
(-0.0075171587 0.038700628 -5.5875556e-20)
(-0.0097126824 0.049501419 -2.4649781e-20)
(-0.012147304 0.061214023 -1.8221421e-20)
(-0.014845778 0.073870756 3.595878e-20)
(-0.017834521 0.087489125 -1.8647648e-19)
(-0.02114153 0.10206652 1.4102648e-19)
(-0.024796243 0.11757389 -6.8365565e-21)
(-0.028829336 0.13394853 -8.5848695e-20)
(-0.033272479 0.15108614 3.2244049e-19)
(-0.03815804 0.16883262 -3.2287899e-19)
(-0.043518783 0.18697627 4.3262981e-20)
(-0.049387578 0.20524172 2.6937331e-19)
(-0.055797217 0.22328729 -2.5523539e-19)
(-0.062780402 0.24070813 8.9998612e-20)
(-0.070370008 0.25704788 -1.7648145e-19)
(-0.078599662 0.2718218 2.2886048e-19)
(-0.08750483 0.28455309 4.3440626e-19)
(-0.097124084 0.29482203 -4.3484714e-19)
(-0.10750035 0.30232281 -6.4383813e-19)
(-0.11868158 0.30691706 1.2544385e-18)
(-0.13072188 0.30866679 -1.0147578e-18)
(-0.14367888 0.30782875 5.9326519e-19)
(-0.15757771 0.30479366 -1.5388085e-19)
(-0.17246738 0.29994935 3.6531781e-19)
(-0.1883883 0.29360914 -3.7563038e-19)
(-0.20531249 0.28606681 -5.0796396e-19)
(-0.22321691 0.27752555 3.3899159e-19)
(-0.24204238 0.26809798 5.6344503e-19)
(-0.26169463 0.25782756 -4.9766499e-20)
(-0.28203292 0.24669796 -2.0766235e-20)
(-0.30285399 0.23462639 -3.6747488e-19)
(-0.32386937 0.22144202 1.6016307e-19)
(-0.34467034 0.20685492 5.8980862e-19)
(-0.36467642 0.19042179 2.9860031e-19)
(-0.3830628 0.17151716 -4.5973069e-19)
(-0.39866739 0.14932602 3.6490301e-19)
(-0.40988793 0.12288677 -3.1228375e-19)
(-0.41460838 0.091224747 1.0402494e-19)
(-0.41022687 0.053603157 4.015488e-19)
(-0.39385894 0.0098616121 -9.6660924e-19)
(-0.36281803 -0.039214855 -5.7669225e-19)
(-0.31515083 -0.091686382 -3.7649671e-19)
(-0.24992037 -0.14458716 1.191514e-18)
(-0.16719519 -0.19411522 7.7466931e-19)
(-0.068339861 -0.23580832 9.1163503e-19)
(0.042712139 -0.26562076 1.5958034e-18)
(0.15946273 -0.28231556 -5.5392415e-19)
(0.27614773 -0.28854598 1.1642964e-19)
(0.39039487 -0.28766805 9.2313476e-19)
(0.50092489 -0.27888925 2.700815e-18)
(0.60285102 -0.25818046 1.7721182e-18)
(0.68917184 -0.22476612 6.939964e-19)
(0.75638986 -0.18333224 2.0132443e-18)
(0.80530638 -0.1404816 -1.3608433e-18)
(0.8403122 -0.1025772 1.4367168e-19)
(0.86641423 -0.072538217 2.1809997e-18)
(0.88777072 -0.050617752 1.4713877e-18)
(0.90618714 -0.035373153 6.6623659e-20)
(0.92289833 -0.025491453 -2.3464977e-18)
(0.93718166 -0.019182335 2.5044101e-19)
(0.94931345 -0.015599656 -3.5389154e-19)
(-0.00086409755 0.0039299348 -8.0432938e-20)
(-0.0026701886 0.012101659 3.9620517e-20)
(-0.0046607208 0.021045103 -5.354611e-20)
(-0.0068546874 0.030823386 -3.0451267e-20)
(-0.0092717444 0.041498262 8.5041828e-20)
(-0.011932901 0.053128558 7.9460675e-20)
(-0.014860086 0.065767086 -8.163365e-20)
(-0.018075885 0.079457147 9.8363907e-21)
(-0.021603229 0.094227937 2.2819316e-21)
(-0.02546502 0.110089 1.6255781e-19)
(-0.029683669 0.1270235 -1.7879976e-20)
(-0.034280552 0.14498034 -3.2977139e-19)
(-0.039275432 0.16386525 2.6472051e-19)
(-0.044685857 0.18353115 -9.1710478e-21)
(-0.050526638 0.20376846 -1.7931083e-19)
(-0.05680947 0.22429659 -1.5537096e-20)
(-0.0635429 0.24475828 3.9828337e-20)
(-0.070732752 0.26471941 1.8109124e-19)
(-0.07838326 0.28367752 -3.3505726e-19)
(-0.086499047 0.30108264 5.9549545e-19)
(-0.095087984 0.3163735 -1.2994426e-19)
(-0.10416474 0.32903009 9.655322e-20)
(-0.11375438 0.33863902 -8.0361873e-20)
(-0.12389487 0.34496098 3.398024e-21)
(-0.13463722 0.34798184 -4.8678746e-19)
(-0.14604316 0.34792399 -4.8996223e-19)
(-0.15816809 0.34519997 9.7798014e-19)
(-0.17104413 0.34029475 1.6401934e-19)
(-0.18471735 0.33360747 -5.7463277e-19)
(-0.19919737 0.32546537 -2.0524676e-19)
(-0.21443771 0.31613517 -4.6750849e-19)
(-0.23038212 0.30577705 5.3000891e-19)
(-0.24692452 0.29445898 2.3329598e-19)
(-0.26391202 0.28216622 -5.4467311e-19)
(-0.28112448 0.268803 2.3027918e-19)
(-0.29824894 0.25416938 1.1089936e-19)
(-0.31484129 0.23792265 -3.2507761e-19)
(-0.33026989 0.21953411 -8.5857858e-19)
(-0.34363833 0.1982531 -2.6348204e-19)
(-0.35369005 0.17309952 1.7617698e-19)
(-0.35871538 0.14292406 4.215016e-19)
(-0.35651365 0.10658848 4.3907796e-19)
(-0.3444985 0.063294981 4.8833775e-19)
(-0.32002704 0.01300909 1.0280323e-18)
(-0.2809516 -0.043159232 -3.0238987e-20)
(-0.22606599 -0.10288269 4.3464243e-19)
(-0.15500563 -0.16289871 -2.3876231e-18)
(-0.067815975 -0.21906332 -6.6428944e-19)
(0.034225043 -0.26605058 -7.603482e-19)
(0.14618765 -0.29862844 -2.1178249e-18)
(0.26048655 -0.31531342 2.4858935e-18)
(0.37152471 -0.32007755 -5.5544396e-19)
(0.47795427 -0.31759595 -1.7861848e-18)
(0.57867849 -0.30691777 -2.1875726e-18)
(0.66830226 -0.28299808 -2.7474594e-19)
(0.74026952 -0.24511866 6.9825514e-19)
(0.79283085 -0.19906773 1.1172647e-18)
(0.82922386 -0.15241262 -4.7263225e-19)
(0.8553259 -0.11186617 8.3985112e-19)
(0.87618536 -0.080139901 -6.8363375e-19)
(0.89497692 -0.057070802 -2.3067194e-19)
(0.91220568 -0.040880623 -6.7542324e-19)
(0.9282355 -0.030103503 2.9310699e-18)
(0.94176959 -0.022855699 9.8778774e-20)
(0.95317713 -0.018391029 1.1573877e-18)
(-0.0010214286 0.0040440469 7.5332247e-20)
(-0.0031515288 0.012464102 1.4719758e-20)
(-0.0054914163 0.021692794 -1.6181418e-20)
(-0.0080608898 0.031799728 -7.9571911e-20)
(-0.01088025 0.042854114 9.5490195e-20)
(-0.013970492 0.05492367 -8.1148275e-20)
(-0.017352796 0.068071589 -3.8817752e-20)
(-0.021048095 0.082353234 2.084616e-21)
(-0.025076512 0.097811664 3.2856141e-20)
(-0.029456701 0.11447214 1.8716506e-19)
(-0.03420505 0.13233531 -3.1490842e-19)
(-0.039334789 0.15136901 3.7931622e-19)
(-0.044855012 0.17149868 -1.1173097e-19)
(-0.050769697 0.1925966 -1.5218799e-19)
(-0.057076808 0.21447043 2.344313e-19)
(-0.063767644 0.23685203 -4.6450693e-19)
(-0.07082664 0.25938831 5.6641922e-19)
(-0.078231986 0.2816366 8.9711926e-21)
(-0.085957194 0.30306808 3.2963038e-19)
(-0.093974219 0.32308364 -1.3205242e-18)
(-0.10225788 0.34104654 3.230245e-19)
(-0.11079184 0.35633465 1.3508832e-18)
(-0.11957491 0.3684112 -6.4574559e-19)
(-0.12862653 0.3769053 -7.7891171e-19)
(-0.13798872 0.38168401 1.9794545e-19)
(-0.1477225 0.38288898 1.0460923e-18)
(-0.15789677 0.38091144 -1.5989474e-18)
(-0.16856551 0.37629112 1.7868561e-18)
(-0.17975762 0.36955489 -1.4163278e-18)
(-0.19149589 0.36110839 2.7276508e-19)
(-0.20375741 0.35126453 -4.7091454e-19)
(-0.21646093 0.34022972 -6.7448823e-19)
(-0.2294962 0.32810783 2.6652561e-19)
(-0.24269094 0.31490205 6.8876736e-20)
(-0.25580033 0.30050775 1.001776e-18)
(-0.26847603 0.2846973 -1.9502947e-19)
(-0.28022682 0.26707528 5.0640322e-19)
(-0.29035722 0.24702752 -4.3389185e-19)
(-0.29788744 0.22367914 2.5615576e-19)
(-0.30146318 0.19588854 1.6987475e-19)
(-0.29928476 0.16233271 1.4730724e-19)
(-0.28912474 0.12174592 1.4574047e-19)
(-0.26852758 0.073334899 -8.9691196e-19)
(-0.2352445 0.017268825 -7.1297443e-19)
(-0.18778845 -0.044997662 1.991991e-19)
(-0.12568007 -0.1108808 -1.2999774e-19)
(-0.048886339 -0.17711218 5.347927e-19)
(0.042715318 -0.23933806 -1.0741951e-18)
(0.14706216 -0.29114974 -1.2576076e-18)
(0.25761703 -0.32599046 -3.6772585e-19)
(0.36640276 -0.3423501 -9.6365944e-19)
(0.46930033 -0.3455353 3.0799487e-20)
(0.56659118 -0.34144879 4.6496008e-19)
(0.6565855 -0.32877905 2.2598191e-18)
(0.73273637 -0.30172678 -1.1260219e-18)
(0.78925014 -0.25980242 4.5457657e-19)
(0.82677442 -0.21020263 -1.3000808e-18)
(0.85124778 -0.16110554 2.1641113e-18)
(0.86960781 -0.11918465 -1.2234994e-18)
(0.88624835 -0.086662081 4.189217e-19)
(0.90296039 -0.062934611 -2.8694336e-21)
(0.9189479 -0.04601078 3.2123629e-19)
(0.93396813 -0.034413618 1.1956687e-18)
(0.94641735 -0.026278466 -2.2412402e-18)
(0.95692095 -0.020968288 2.2760743e-18)
(-0.0011497965 0.004014613 -1.6785191e-19)
(-0.0035449435 0.012386229 -8.415045e-20)
(-0.006171147 0.021577367 1.3217478e-19)
(-0.0090490238 0.031662518 -3.4811454e-21)
(-0.012199624 0.042716939 -1.1967573e-19)
(-0.015644193 0.054816202 -6.2636859e-20)
(-0.019403597 0.068033357 1.3219647e-19)
(-0.023497777 0.082436033 -2.1736083e-20)
(-0.027944965 0.098082325 3.0712103e-19)
(-0.032760775 0.11501568 -6.000481e-20)
(-0.037957104 0.13325834 -1.5424824e-21)
(-0.043540895 0.15280326 2.2214625e-19)
(-0.049512754 0.17360432 -7.1505098e-19)
(-0.055865506 0.19556487 3.3497553e-19)
(-0.062582807 0.21852485 6.0398273e-19)
(-0.069638004 0.24224721 -6.4850775e-19)
(-0.076993502 0.26640509 8.0532085e-20)
(-0.084601026 0.29057208 -4.6205776e-19)
(-0.09240332 0.31421893 -3.4708675e-19)
(-0.10033755 0.3367219 1.1054668e-18)
(-0.10834116 0.35738776 -8.4108171e-19)
(-0.1163597 0.37550092 1.1226172e-18)
(-0.12435642 0.39039453 -1.337919e-19)
(-0.13232133 0.40154036 5.5406213e-19)
(-0.14027692 0.40864153 -1.2201297e-18)
(-0.14827668 0.41170062 2.9246624e-19)
(-0.15639348 0.41102844 7.4590153e-19)
(-0.16469772 0.40716913 -1.8186937e-18)
(-0.1732349 0.40074803 7.963797e-19)
(-0.1820189 0.39230859 8.6328751e-19)
(-0.19102292 0.38224005 -7.1792126e-19)
(-0.20017606 0.37080987 -9.6439671e-20)
(-0.20935268 0.35816167 4.8825277e-19)
(-0.21835765 0.34431419 -2.7176947e-19)
(-0.2269098 0.3291609 4.2060578e-19)
(-0.23461647 0.31245252 -1.490063e-18)
(-0.24092579 0.2937491 7.9001873e-19)
(-0.24506467 0.27235752 4.8023957e-19)
(-0.24596012 0.24728621 9.9574611e-19)
(-0.24216419 0.21724945 1.360759e-19)
(-0.23181594 0.18078082 -1.0801989e-18)
(-0.21273055 0.13653572 4.3742488e-19)
(-0.18268532 0.083790187 6.489999e-19)
(-0.13991479 0.022961505 9.9145152e-20)
(-0.083587836 -0.044176042 -6.4385088e-19)
(-0.013818933 -0.11493891 -5.6853553e-19)
(0.069239507 -0.18626169 1.7391936e-18)
(0.16518432 -0.25350011 9.2625172e-19)
(0.2699657 -0.30915734 2.0242873e-18)
(0.37567035 -0.34566956 7.1479565e-19)
(0.47535544 -0.36172458 2.7905891e-19)
(0.56770629 -0.3639856 2.0701896e-18)
(0.65455537 -0.358786 8.0881296e-19)
(0.73284819 -0.34414405 -2.7141275e-18)
(0.79440709 -0.31400184 2.159006e-18)
(0.83479584 -0.26876914 -1.958433e-18)
(0.85769261 -0.21697529 9.2806582e-19)
(0.87149927 -0.16691242 -4.3989371e-18)
(0.88357954 -0.12478979 -2.1577926e-18)
(0.89690448 -0.092195853 8.5580138e-19)
(0.91174102 -0.068168396 1.312675e-18)
(0.92624279 -0.050674765 2.1615756e-18)
(0.93991656 -0.038346019 3.7706795e-19)
(0.95103738 -0.029404715 2.9074738e-19)
(0.96053911 -0.023327699 -3.042378e-18)
(-0.0012366994 0.0038469305 -3.0366963e-21)
(-0.003812093 0.011883099 1.5736002e-19)
(-0.0066335501 0.020723007 -1.8559573e-19)
(-0.0097224009 0.030443972 -8.9365444e-20)
(-0.013100426 0.04112531 1.791195e-19)
(-0.016789295 0.052848669 5.8067568e-20)
(-0.020809956 0.065695488 -2.8192647e-19)
(-0.025182032 0.0797447 3.0379849e-19)
(-0.029922862 0.095069207 6.4192526e-20)
(-0.035046413 0.11173144 2.5587553e-19)
(-0.040561944 0.12977745 -6.8115089e-19)
(-0.046472456 0.1492294 -8.3199226e-21)
(-0.052772938 0.17007613 6.1578911e-19)
(-0.059448449 0.19226162 -6.6391226e-19)
(-0.066472154 0.2156714 4.7777017e-19)
(-0.073803516 0.24011721 1.7825256e-19)
(-0.081386956 0.2653209 -3.7513965e-19)
(-0.089151348 0.29089949 3.4137507e-19)
(-0.097011038 0.31635457 4.5881764e-19)
(-0.10486918 0.34107086 -9.8628833e-21)
(-0.11262368 0.3643303 -7.394393e-19)
(-0.12017662 0.38534837 4.626512e-19)
(-0.12744639 0.40333812 -2.6091174e-19)
(-0.13438087 0.41760175 -1.2764677e-18)
(-0.14096822 0.42763921 -4.3152209e-19)
(-0.14724056 0.43324856 1.1841651e-18)
(-0.15326547 0.43458083 -1.1945508e-19)
(-0.15912386 0.43211141 1.3613671e-18)
(-0.16487864 0.42650886 -8.1266373e-19)
(-0.17055143 0.41844584 4.3310632e-19)
(-0.17611608 0.40845991 -6.3330574e-19)
(-0.1814924 0.39691456 -1.5598635e-19)
(-0.18653218 0.38400727 7.9207432e-19)
(-0.19101268 0.36978144 -8.2537694e-19)
(-0.19461344 0.35413506 -1.2256873e-18)
(-0.19689095 0.33680394 1.2133857e-19)
(-0.19722178 0.31730657 1.3566616e-18)
(-0.19474471 0.29488196 -1.758735e-18)
(-0.18828898 0.26844869 3.8382791e-19)
(-0.17632191 0.23660419 -8.3215587e-19)
(-0.15696621 0.19777973 1.3097307e-19)
(-0.12815734 0.1506037 -1.3277889e-18)
(-0.087996711 0.094461161 -6.4178205e-19)
(-0.035234387 0.03002915 -8.0845942e-19)
(0.030390856 -0.040644103 3.2871131e-18)
(0.10825455 -0.11490487 1.0854169e-18)
(0.19783111 -0.18982883 -1.4530793e-18)
(0.29692447 -0.26050743 1.1928326e-18)
(0.39912271 -0.31860863 1.0082659e-18)
(0.49635585 -0.35612209 -1.1453155e-18)
(0.58407837 -0.37247968 -6.0152633e-19)
(0.66448417 -0.37505289 -1.4098875e-18)
(0.74021937 -0.36960217 -6.7873005e-19)
(0.80587037 -0.35322411 2.306804e-18)
(0.85171912 -0.32030798 1.282964e-18)
(0.87574907 -0.27269454 2.0538585e-19)
(0.88528156 -0.21989434 -5.4605564e-21)
(0.89029606 -0.17025078 1.0862505e-18)
(0.89759243 -0.1289091 -1.5406602e-18)
(0.90822371 -0.096776649 -1.9504935e-18)
(0.92113957 -0.072706059 -5.3598744e-19)
(0.93385299 -0.054788391 -4.0066677e-18)
(0.94593028 -0.041838894 -3.1293909e-18)
(0.95560334 -0.032202629 -7.8994718e-19)
(0.96409782 -0.025450301 -4.173673e-19)
(-0.0012728507 0.0035560858 1.0309946e-19)
(-0.0039243288 0.010999709 6.6412102e-20)
(-0.0068287783 0.019205612 -1.3816957e-19)
(-0.010007979 0.028251496 2.3692216e-19)
(-0.013484249 0.038218208 5.933749e-20)
(-0.017279695 0.049190922 -2.5445105e-19)
(-0.021415587 0.061256992 1.3022148e-21)
(-0.025911753 0.074504368 -1.5255465e-19)
(-0.030785536 0.089018844 4.5588485e-20)
(-0.036050593 0.10488054 -1.0176636e-21)