/*--------------------------------*- C++ -*----------------------------------*\
  =========                 |
  \\      /  F ield         | OpenFOAM: The Open Source CFD Toolbox
   \\    /   O peration     | Website:  https://openfoam.org
    \\  /    A nd           | Version:  13
     \\/     M anipulation  |
\*---------------------------------------------------------------------------*/
FoamFile
{
    format      ascii;
    class       volScalarField;
    location    "4.598392";
    object      yPlus;
}
// * * * * * * * * * * * * * * * * * * * * * * * * * * * * * * * * * * * * * //

dimensions      [];

internalField   uniform 0;

boundaryField
{
    inlet
    {
        type            calculated;
        value           uniform 0;
    }
    outlet
    {
        type            calculated;
        value           uniform 0;
    }
    cylinder
    {
        type            calculated;
        value           nonuniform List<scalar> 
132
(
6.1743317e-07
6.134912e-07
6.0405833e-07
5.8894974e-07
5.6823465e-07
5.4188179e-07
5.1028055e-07
4.7408211e-07
4.3407189e-07
3.9116506e-07
3.4644785e-07
3.0113717e-07
2.5652619e-07
2.1390378e-07
1.7448096e-07
1.3923102e-07
1.0880077e-07
8.3432221e-08
6.2979508e-08
4.6943904e-08
3.4703687e-08
2.5661986e-08
1.9541373e-08
1.6388155e-08
1.5734137e-08
1.6237248e-08
1.5970123e-08
1.4062741e-08
1.1044134e-08
7.9495612e-09
5.5418593e-09
4.2541027e-09
4.1820023e-09
4.8430318e-09
5.9680312e-09
7.4408533e-09
9.3091636e-09
1.1633622e-08
1.4457148e-08
1.7837794e-08
2.1899909e-08
2.6736672e-08
3.1897127e-08
3.7293788e-08
4.2778067e-08
4.8221778e-08
5.3525691e-08
5.8626363e-08
6.3476258e-08
6.8052505e-08
7.2338031e-08
7.634053e-08
8.0048571e-08
8.3459833e-08
8.6618001e-08
8.9461252e-08
9.206954e-08
9.4380009e-08
9.6455289e-08
9.8228631e-08
9.977319e-08
1.0105356e-07
1.0208657e-07
1.0286636e-07
1.0340237e-07
1.0368208e-07
6.1581708e-07
6.0868514e-07
5.9611605e-07
5.7796519e-07
5.5430309e-07
5.2529478e-07
4.9147044e-07
4.5356274e-07
4.1237334e-07
3.6887443e-07
3.2417358e-07
2.7948843e-07
2.3608426e-07
1.9519641e-07
1.5790862e-07
1.2504548e-07
9.7068889e-08
7.4051264e-08
5.5694364e-08
4.1432518e-08
3.0649221e-08
2.2841404e-08
1.7927655e-08
1.5845206e-08
1.582624e-08
1.6318801e-08
1.5527011e-08
1.3117221e-08
9.9634196e-09
7.0431431e-09
4.9787139e-09
4.1187053e-09
4.3269046e-09
5.1526421e-09
6.3814181e-09
7.9561446e-09
9.9446638e-09
1.2395525e-08
1.5354631e-08
1.8873067e-08
2.3062853e-08
2.8009746e-08
3.3243047e-08
3.8680379e-08
4.4164914e-08
4.9579773e-08
5.4839208e-08
5.987913e-08
6.4662412e-08
6.9168527e-08
7.3382291e-08
7.7317938e-08
8.0954308e-08
8.4279176e-08
8.7381793e-08
9.0150891e-08
9.2693137e-08
9.4931354e-08
9.6940782e-08
9.8644552e-08
1.0012866e-07
1.0134144e-07
1.0231024e-07
1.0302287e-07
1.0348717e-07
1.0370416e-07
)
;
    }
    frontAndBack
    {
        type            empty;
    }
}


// ************************************************************************* //
