/*--------------------------------*- C++ -*----------------------------------*\
  =========                 |
  \\      /  F ield         | OpenFOAM: The Open Source CFD Toolbox
   \\    /   O peration     | Website:  https://openfoam.org
    \\  /    A nd           | Version:  13
     \\/     M anipulation  |
\*---------------------------------------------------------------------------*/
FoamFile
{
    format      ascii;
    class       volScalarField;
    location    "5.600247";
    object      omega;
}
// * * * * * * * * * * * * * * * * * * * * * * * * * * * * * * * * * * * * * //

dimensions      [0 0 -1 0 0 0 0];

internalField   nonuniform List<scalar> 
17140
(
3736295.3
603676.65
185333.33
78617.872
40000.942
22779.747
13985.267
9053.3117
6093.1261
4223.2128
2994.2248
2160.604
1580.4943
1168.1571
869.80051
650.60872
487.45648
364.65495
271.38654
200.11421
145.56646
104.06065
73.01316
50.539065
35.10034
25.21196
19.41415
16.245055
14.519533
13.469632
12.655538
11.919879
11.230231
10.584092
9.98166
9.4237575
8.9118051
8.4478394
8.0340675
7.6708093
7.3598462
7.1021404
6.898694
6.7686395
6.706571
6.685972
6.7155178
6.7948615
6.9005802
7.0303879
7.1708995
7.2759786
7.3601774
7.4169566
7.4502317
7.3545914
7.1148228
6.6749511
6.0686961
5.3987457
4.7425172
4.1445657
3.6125119
3.1181601
2.5943506
3736320.9
603681.31
185335.07
78618.834
40001.591
22780.257
13985.715
9053.7357
6093.5481
4223.6461
2994.6777
2161.0811
1580.9975
1168.6862
870.35279
651.17957
488.03897
365.2398
271.96193
200.66565
146.07695
104.51166
73.387
50.82285
35.290718
25.319465
19.455351
16.245315
14.497849
13.440836
12.627425
11.894959
11.209381
10.568069
9.9712973
9.4198029
8.9145525
8.4579604
8.0529747
7.7020885
7.4064809
7.167634
6.9903573
6.8957183
6.8615091
6.8692562
6.9667789
7.0970551
7.2761304
7.4754136
7.6559983
7.8310523
7.9618756
8.0326451
8.0502687
7.9112058
7.557293
6.9701856
6.2513449
5.4702143
4.6778323
3.9411004
3.3346655
2.8974803
2.4856943
3736345.9
603685.49
185336.45
78619.589
40002.174
22780.813
13986.309
9054.3936
6094.2846
4224.4705
2995.5948
2162.0923
1582.1006
1169.8752
871.61803
652.50678
489.40918
366.62872
273.3393
201.99484
147.3152
105.61231
74.305046
51.524648
35.765712
25.591696
19.564971
16.255061
14.455497
13.382392
12.5711
11.844449
11.165862
10.5329
9.94673
9.4096911
8.9226756
8.4873088
8.108665
7.7886305
7.5311343
7.3414835
7.2377349
7.1949038
7.1930492
7.3112312
7.4579773
7.6520754
7.8678997
8.0900868
8.2830833
8.4173455
8.4739466
8.4774742
8.400499
8.1980019
7.7288722
6.9917042
6.0489126
5.0763924
4.1564815
3.3367168
2.6891418
2.3550339
2.1116252
3736372.1
603689.87
185337.95
78620.493
40002.943
22781.606
13987.195
9055.3978
6095.4244
4225.7568
2997.0335
2163.6846
1583.8428
1171.7583
873.62685
654.61948
491.59632
368.85232
275.55183
204.13829
149.32143
107.40614
75.81274
52.689117
36.565599
26.061935
19.766956
16.289659
14.402138
13.3001
12.486524
11.76731
11.099361
10.479628
9.9100106
9.3935088
8.9362308
8.5328958
8.1942844
7.9198199
7.7131728
7.5883918
7.5255293
7.506294
7.5732422
7.7157124
7.8715675
8.068988
8.2637972
8.462705
8.5967156
8.6661679
8.6823384
8.5878215
8.4557792
8.213519
7.6036819
6.6177111
5.4929552
4.3928388
3.4379051
2.6804173
2.0895024
1.8136941
1.6381867
3736400.1
603694.56
185339.58
78621.537
40003.889
22782.62
13988.352
9056.7255
6096.9418
4227.4768
2998.9637
2165.8272
1586.194
1174.3071
876.3545
657.49812
494.58776
371.90662
278.60565
207.11356
152.1253
109.93464
77.961405
54.373133
37.746463
26.777043
20.094399
16.368653
14.346901
13.192611
12.371297
11.660569
11.0073
10.406186
9.8586592
9.3685127
8.9415654
8.5790221
8.2815896
8.0515387
7.8938816
7.8065925
7.7661049
7.7584463
7.8519812
7.9641331
8.1009708
8.2556449
8.4191747
8.5880227
8.6937047
8.7379474
8.6748196
8.497402
8.2950501
8.0214039
7.3683677
6.2068791
4.9255759
3.7616951
2.8189939
2.1514479
1.6683279
1.4407775
1.2596026
3736429.1
603699.43
185341.3
78622.7
40004.989
22783.826
13989.746
9058.3365
6098.7909
4229.5797
3001.3306
2168.4624
1589.0949
1177.4632
879.74568
661.09314
498.34254
375.76208
282.48554
210.92228
155.74727
113.2378
80.808987
56.647502
39.383182
27.795381
20.60311
16.525966
14.307195
13.064252
12.220405
11.52004
10.886301
10.308673
9.7891472
9.3290171
8.9311488
8.6113724
8.3478742
8.1587034
8.0308472
7.9588564
7.9226256
7.9136438
7.9829518
8.0461055
8.146537
8.2637958
8.4217975
8.5927941
8.7046751
8.7491827
8.6002807
8.354097
8.1094141
7.7995439
7.0750973
5.7304075
4.3303241
3.1655101
2.3031575
1.7314184
1.33905
1.1539131
0.9748231
3736459.3
603704.47
185343.1
78623.962
40006.213
22785.186
13991.328
9060.1717
6100.904
4231.9894
3004.051
2171.5013
1592.4531
1181.1328
883.7082
665.31764
502.78285
380.35417
287.14433
215.53865
160.1863
117.34128
84.407016
59.584357
41.557562
29.201393
21.358845
16.801489
14.305044
12.930144
12.053165
11.360554
10.746857
10.193285
9.7006645
9.2717786
8.9057521
8.6111718
8.3924009
8.2291541
8.1156153
8.0401728
7.995802
7.9778066
8.0007082
8.0451095
8.1285523
8.2272468
8.3807288
8.5675128
8.6845497
8.7270035
8.5056943
8.1927392
7.914986
7.5692948
6.7468125
5.2185706
3.7571258
2.6395091
1.8784295
1.4062976
1.0907981
0.93419906
0.76491927
3736490.6
603709.7
185344.98
78625.297
40007.521
22786.649
13993.036
9062.1583
6103.1966
4234.611
3007.0197
2174.8299
1596.1478
1185.1912
888.11717
670.05048
507.79623
385.58443
292.50336
220.90964
165.42052
122.25886
88.806931
63.270217
44.382085
31.119032
22.458624
17.271602
14.395213
12.824198
11.883985
11.18916
10.593218
10.062837
9.5959578
9.1948269
8.8614848
8.589081
8.3846208
8.239719
8.1377778
8.0602863
8.0076069
7.9846174
7.9891152
8.0195702
8.0703695
8.1715631
8.3600751
8.5423836
8.6313223
8.5976784
8.316986
7.991503
7.714737
7.338938
6.3769363
4.6715569
3.2047725
2.1849447
1.535716
1.1493182
0.89435221
0.76071331
0.60914628
3736522
603715.08
185346.92
78626.676
40008.868
22788.156
13994.797
9064.209
6105.5676
4237.3293
3010.1085
2178.3081
1600.0287
1189.4805
892.81065
675.13045
513.22783
391.31094
298.44089
226.94137
171.39165
127.9748
94.040102
67.783099
47.972488
33.681895
24.036283
18.049282
14.646737
12.787006
11.731573
11.015407
10.432106
9.9224909
9.4786382
9.1017361
8.7923595
8.5474725
8.3593312
8.2238071
8.127209
8.0536977
7.9986045
7.9685284
7.9573742
7.9709094
8.0356038
8.1705752
8.3678201
8.506978
8.5594257
8.3167963
8.0063128
7.7478144
7.5191954
7.1099464
5.9456097
4.1021517
2.6907534
1.7952679
1.2594089
0.95081605
0.74326636
0.62414385
0.48942086
3736555.2
603720.85
185349.1
78628.158
40010.267
22789.682
13996.549
9066.2359
6107.9082
4240.0165
3013.1716
2181.7734
1603.9181
1193.8104
897.5889
680.35319
518.87475
397.33975
304.78065
233.48504
177.98869
134.42611
100.10027
73.177998
52.441161
37.043367
26.259683
19.280656
15.157564
12.885565
11.636401
10.858953
10.272774
9.7784591
9.3537092
8.9961551
8.7057605
8.4791242
8.3108317
8.1884352
8.1003928
8.0328438
7.972318
7.933238
7.921315
7.9457756
8.0423393
8.199011
8.399842
8.4936438
8.3440836
7.9407648
7.651031
7.5303436
7.3550753
6.8897697
5.4341158
3.5124768
2.2226825
1.4698338
1.0388762
0.79196101
0.62143885
0.51608883
0.39841026
3736589.7
603726.87
185351.37
78629.653
40011.633
22791.137
13998.192
9068.127
6110.0903
4242.5267
3016.0444
2185.0414
1607.6124
1197.959
902.21439
685.46928
524.48139
403.41674
311.27971
240.3205
185.02745
141.47878
106.91772
79.461116
57.874545
41.360332
29.327445
21.163186
16.092296
13.212191
11.644224
10.738137
10.128601
9.6400695
9.2278293
8.8853328
8.6088117
8.3946783
8.2377495
8.1266075
8.0493979
7.9903194
7.9292324
7.8972784
7.8927862
7.9431835
8.0675686
8.2632926
8.4052321
8.4491568
8.028972
7.5373382
7.4010465
7.4271302
7.2494559
6.6687206
4.7969179
2.9138661
1.808767
1.2028365
0.86466591
0.6673509
0.5244559
0.43070849
0.33010513
3736625.1
603732.97
185353.62
78631.057
40012.864
22792.417
13999.621
9069.7638
6111.979
4244.7059
3018.5512
2187.9138
1610.8891
1201.6794
906.41651
690.18684
529.73901
409.22323
317.6192
247.14139
192.22958
148.90046
114.32582
86.551118
64.29176
46.754516
33.44236
23.931762
17.674237
13.925502
11.849312
10.726297
10.017461
9.5168173
9.1119883
8.7751222
8.5066083
8.3021149
8.1530294
8.0494478
7.9812826
7.9320926
7.881738
7.8577096
7.8633514
7.9333318
8.0688287
8.2582737
8.3585623
8.2337327
7.6359142
7.2529927
7.2989036
7.4062768
7.1668966
6.3181733
3.9854761
2.3388796
1.4530548
0.9874962
0.72595388
0.56587965
0.44534281
0.36311455
0.27884522
3736662.3
603739.26
185355.82
78632.327
40013.9
22793.445
14000.742
9071.0357
6113.444
4246.4016
3020.5154
2190.1868
1613.5152
1204.7071
909.89776
694.17508
534.28525
414.36981
323.39079
253.53278
199.19059
156.31881
122.01048
94.221736
71.584047
53.256293
38.772604
27.853767
20.191331
15.283122
12.425146
10.870123
10.01153
9.4340913
9.0090939
8.6784612
8.4116403
8.2056028
8.0591556
7.962655
7.9034938
7.8658955
7.8275509
7.8059822
7.8232011
7.9020123
8.0384858
8.1930079
8.1679117
7.9283838
7.2843776
7.1351169
7.2946216
7.5080393
7.1186673
5.6451533
3.2291136
1.8594218
1.1695452
0.81653505
0.61500401
0.48423752
0.38187323
0.30979639
0.23970294
3736699.8
603745.54
185357.92
78633.421
40014.692
22794.161
14001.481
9071.8527
6114.3778
4247.4866
3021.7868
2191.6837
1615.2831
1206.7989
912.37482
697.10625
537.74488
418.43308
328.12579
258.98877
205.38182
163.20431
129.47144
102.04029
79.431581
60.704987
45.34844
33.142013
23.971958
17.621515
13.636855
11.358457
10.145076
9.4460106
8.9672631
8.5975088
8.3237511
8.1199872
7.969832
7.8688006
7.8120881
7.7865739
7.7624555
7.7454982
7.7621728
7.8258437
7.954251
7.9951812
7.9002696
7.5001087
7.1015707
7.1073553
7.6096846
7.6924471
7.0191869
4.6689336
2.4896373
1.4392837
0.94336644
0.68485966
0.52629172
0.41636618
0.32968365
0.26753403
0.20956421
3736738.4
603751.89
185359.91
78634.325
40015.214
22794.531
14001.796
9072.1619
6114.7149
4247.8801
3022.2657
2192.2821
1616.0424
1207.7707
913.62261
698.70657
539.78655
421.01604
331.35587
262.96817
210.19453
168.89558
136.02169
109.33563
87.236433
68.64746
52.936516
39.832772
29.303601
21.370887
15.896407
12.507256
10.604776
9.5974195
9.0003754
8.591103
8.2773742
8.0403352
7.8813058
7.7802035
7.7224681
7.6995849
7.685902
7.670164
7.6790199
7.713356
7.7799022
7.7496134
7.6115765
7.2186747
7.0579497
7.3287281
8.128454
7.8184124
6.5555468
3.4654118
1.8863572
1.1465367
0.78145481
0.58291671
0.45539049
0.36217856
0.28777084
0.23398452
0.18590452
3736780.4
603758.56
185361.86
78635.048
40015.47
22794.559
14001.689
9071.9641
6114.4531
4247.5743
3021.936
2191.9518
1615.7416
1207.5392
913.51336
698.79004
540.1549
421.78343
332.65779
264.95507
213.01408
172.67323
140.84393
115.21732
94.084436
76.224902
60.841898
47.515838
36.145328
26.839366
19.741693
14.828198
11.776464
10.093492
9.1914107
8.655896
8.292719
8.0303714
7.8274527
7.6917491
7.6215046
7.6037372
7.6011281
7.590267
7.5884479
7.5944579
7.5874611
7.5278383
7.3424347
7.1265672
7.287732
8.1784135
8.6170191
7.8605844
5.1288451
2.6067752
1.434175
0.91034156
0.65613561
0.50427948
0.397481
0.31764452
0.25381033
0.20756845
0.16744784
3736824.8
603765.39
185363.75
78635.628
40015.513
22794.306
14001.231
9071.3421
6113.6864
4246.6753
3020.9152
2190.8225
1614.5223
1206.2568
912.20594
697.50934
538.96903
420.78089
331.95113
264.68655
213.36857
173.87336
143.11115
118.72405
98.893086
82.279325
67.923435
55.214487
43.868261
33.890457
25.491621
18.922779
14.274111
11.354254
9.775784
8.913864
8.4034113
8.0700173
7.8370786
7.6731086
7.5588626
7.5035022
7.4948022
7.4849961
7.4748927
7.4638076
7.4269863
7.3659294
7.2392599
7.3305225
7.9290882
9.2700978
8.8476591
7.2415763
3.5398193
1.7877347
1.0759175
0.7532393
0.57058665
0.44493493
0.35093559
0.28123159
0.22602921
0.18650784
0.15308588
3736869.6
603772.29
185365.63
78636.123
40015.419
22793.868
14000.539
9070.432
6112.572
4245.3607
3019.4018
2189.1116
1612.6191
1204.1725
909.96123
695.13785
536.52127
418.32821
329.58889
262.53514
211.56851
172.58537
142.52929
119.09924
100.54092
85.448402
72.669937
61.375456
51.057234
41.500734
32.762228
25.103728
18.859874
14.234948
11.286437
9.6694161
8.7751892
8.2518396
7.9248798
7.7102994
7.5708925
7.4915987
7.4555202
7.4292834
7.4018958
7.3812504
7.3401806
7.3382309
7.4605495
8.0009618
9.7747404
9.9350266
8.8369256
5.1923777
2.4978952
1.3741395
0.88280369
0.63761355
0.4906564
0.38767722
0.30979516
0.24968633
0.20274071
0.16949255
0.1418381
3736913.9
603779.33
185367.53
78636.595
40015.279
22793.362
13999.755
9069.4034
6111.3082
4243.8604
3017.6583
2187.1168
1610.3655
1201.6558
907.18269
692.10784
533.26308
414.88274
326.01988
258.93422
208.05914
169.32417
139.70216
116.90324
99.166546
85.1214
73.735042
64.154863
55.643003
47.616652
39.854522
32.403294
25.521408
19.575594
14.834577
11.641397
9.8404728
8.8278424
8.2437821
7.8901663
7.6908957
7.5740869
7.5183558
7.4828255
7.4429319
7.4488038
7.507993
7.6804665
8.2508038
10.056881
11.016906
10.204683
7.2965756
3.3013532
1.6486976
1.0196937
0.72849103
0.56608027
0.44516716
0.35121488
0.27951839
0.22554438
0.18428455
0.15593651
0.13300289
3736961
603786.71
185369.55
78637.136
40015.193
22792.907
13999.023
9068.4283
6110.0982
4242.4114
3015.9599
2185.1549
1608.1242
1199.1191
904.33668
688.94245
529.77538
411.08095
321.92858
254.60073
203.56085
164.77636
135.26534
112.78996
95.615231
82.348049
71.887414
63.378428
56.243294
49.988419
44.142593
38.253827
32.282905
26.415714
20.972056
16.278828
12.621299
10.473045
9.2316816
8.5072979
8.1042392
7.8832691
7.7716445
7.7341968
7.7624485
7.8804755
8.1482204
8.820869
10.669672
12.131122
11.532097
9.4223678
4.3815225
2.1001971
1.2480575
0.86346699
0.64212056
0.48832692
0.38357672
0.30666096
0.24758212
0.20284872
0.16873771
0.14512474
0.12612869
3737011.6
603794.56
185371.74
78637.804
40015.236
22792.596
13998.458
9067.6449
6109.1066
4241.2086
3014.5351
2183.4925
1606.2053
1196.9224
901.83945
686.12171
526.6096
407.55242
318.02689
250.32754
198.9363
159.84682
130.11195
107.53565
90.437092
77.523126
67.746714
60.211707
54.131955
48.960551
44.335252
40.118274
35.99453
31.66491
27.132715
22.597145
18.42151
14.76986
12.028121
10.380716
9.4291558
8.917879
8.6620533
8.6890559
8.8723442
9.3038968
10.054408
11.848646
13.43814
12.921309
11.095146
5.8900286
2.7732265
1.5142919
0.96595261
0.6946159
0.54332192
0.43822614
0.34981873
0.27953245
0.2262121
0.18644472
0.15688311
0.13656082
0.1207226
3737062.3
603802.62
185374.07
78638.615
40015.44
22792.475
13998.116
9067.1234
6108.4193
4240.3551
3013.5074
2182.2771
1604.7843
1195.2744
899.93975
683.94274
524.12122
404.72273
314.82344
246.71914
194.89526
155.35267
125.15424
102.11249
84.603834
71.40172
61.564064
54.335057
49.048525
45.098655
41.826059
38.785357
35.746892
32.85254
29.933407
26.877595
23.648996
20.405838
17.500655
15.027052
13.191656
12.057839
11.45832
11.533612
11.844527
12.391201
13.702051
14.969153
14.466826
12.753577
7.6620777
3.4623818
1.7297836
1.0625076
0.76579312
0.59986108
0.47190303
0.37436081
0.3031617
0.24664497
0.20332212
0.17044219
0.14626836
0.12936964
0.11628525
3737113.2
603810.88
185376.54
78639.555
40015.79
22792.524
13997.977
9066.8405
6108.0101
4239.8235
3012.849
2181.482
1603.8386
1194.1602
898.63559
682.42337
522.35751
402.68137
312.46701
244.00706
191.78637
151.80736
121.13941
97.609469
79.603856
65.915972
55.620213
48.000531
42.486563
38.608698
36.008382
34.227837
32.799784
31.158956
29.290699
27.286164
25.315927
23.291628
21.246101
19.28826
17.62994
16.418582
15.704001
15.348511
15.390551
15.74405
16.628533
16.099042
14.334135
9.2439654
4.0652518
2.0204095
1.207533
0.8634389
0.67098334
0.52908328
0.42569734
0.34320023
0.27701887
0.22603565
0.18781708
0.15928682
0.13856662
0.123966
0.1128059
3737167.7
603819.64
185379.16
78640.569
40016.2
22792.636
13997.906
9066.6354
6107.6917
4239.398
3012.3146
2180.8316
1603.0609
1193.2408
897.55662
681.16386
520.89336
400.98545
310.50926
241.75449
189.20301
148.85591
117.78396
93.822242
75.359229
61.188101
50.399275
42.300816
36.358314
32.148247
29.321322
27.55334
26.556206
26.042224
25.670228
25.145792
24.156183
22.980751
21.717049
20.522411
19.403954
18.480946
17.612575
17.224727
17.491992
18.326716
17.749873
15.811095
10.475417
4.716687
2.342428
1.374761
0.95668614
0.72316872
0.56179082
0.44571688
0.36301465
0.29630999
0.24383476
0.20404485
0.17272303
0.14876155
0.13145351
0.11924247
0.10987664
3737225.4
603828.8
185381.89
78641.61
40016.593
22792.702
13997.767
9066.3457
6107.2744
4238.861
3011.6579
2180.0502
1602.1463
1192.1815
896.33849
679.77001
519.30432
399.17939
308.46236
239.44165
186.5987
145.93498
114.52288
90.200659
71.361683
56.80637
45.634852
37.167016
30.882182
26.372543
23.303493
21.38508
20.353608
19.953964
19.916162
20.017624
20.242482
20.211642
20.002766
19.410237
18.507807
17.857412
18.297062
19.388544
20.131938
19.449106
17.170418
11.323294
5.2488322
2.646963
1.5415213
1.0491239
0.77764998
0.60163361
0.49065398
0.40643605
0.33331436
0.27492989
0.22544054
0.18796061
0.16085273
0.14074607
0.12606477
0.11552181
0.10747952
3737283.9
603838.15
185384.67
78642.613
40016.887
22792.623
13997.437
9065.8248
6106.5864
4238.0147
3010.654
2178.8849
1600.8131
1190.6724
894.64482
677.88289
517.21497
396.87935
305.94373
236.69708
183.62138
142.71933
111.06573
86.503123
67.430582
52.655156
41.283679
32.645804
26.230012
21.632608
18.515603
16.589796
15.586298
15.228863
15.264295
15.517235
15.823567
16.242561
16.681246
16.9985
17.777981
19.500536
21.804743
21.860983
21.021368
18.287997
11.74909
5.6713754
2.9144013
1.7135629
1.1592906
0.84482602
0.6563899
0.53841655
0.43931836
0.35392194
0.28753419
0.23909558
0.20461709
0.17517462
0.15131808
0.13363597
0.12106472
0.11211937
0.10538502
3737344.3
603847.88
185387.56
78643.666
40017.216
22792.574
13997.14
9065.3401
6105.9413
4237.2199
3009.7121
2177.7944
1599.5703
1189.2727
893.08336
676.15549
515.31852
394.81216
303.70568
234.28982
181.0487
139.98765
108.18493
83.487626
64.303119
49.449141
38.036143
29.397919
23.021089
18.494559
15.46339
13.707574
12.870515
12.572645
12.6687
13.173379
13.998143
15.218185
16.998292
19.067248
21.874473
23.56355
23.32323
22.266258
19.06262
11.899395
6.0048299
3.1701701
1.8814648
1.2751436
0.91677291
0.70770345
0.57237299
0.45978236
0.37346701
0.31327243
0.2665309
0.22259766
0.18699048
0.16098965
0.14194977
0.12781341
0.11726426
0.10949245
0.10379651
3737407.1
603858.02
185390.67
78644.963
40017.852
22792.907
13997.312
9065.4153
6105.9514
4237.1819
3009.6349
2177.6825
1599.4256
1189.0951
892.87173
675.90748
515.03084
394.48073
303.32592
233.85708
180.55879
139.43745
107.57299
82.81451
63.569705
48.655769
37.197191
28.535304
22.15495
17.637222
14.640746
12.939389
12.236042
12.132356
12.632182
13.72506
15.470785
17.919579
20.674635
23.491511
25.114506
24.719077
23.306311
19.48056
12.121581
6.3580738
3.4411298
2.05897
1.3965927
1.001166
0.76805559
0.61260899
0.49128784
0.40466221
0.34387123
0.28664727
0.23892792
0.20376408
0.17608637
0.15394295
0.13625367
0.12319743
0.11384046
0.10724707
0.10247812
3737471.9
603868.56
185393.99
78646.495
40018.778
22793.603
13997.928
9066.0201
6106.5819
4237.8609
3010.3775
2178.4995
1600.3247
1190.0821
893.95006
677.07898
516.29525
395.83549
304.76592
235.37432
182.14198
141.07127
109.2372
84.482949
65.209767
50.229178
38.658144
29.833349
23.267475
18.59549
15.507862
13.802585
13.160913
13.35369
14.404982
16.299779
18.947566
22.0945
25.024782
26.679627
26.144307
24.376358
19.940851
12.622325
6.8868839
3.7734243
2.2607613
1.5339237
1.1010464
0.84098982
0.66141958
0.52833328
0.43940225
0.3703588
0.30686311
0.25641045
0.21834295
0.18705376
0.16237114
0.14306068
0.1292615
0.11911252
0.11133568
0.10555183
0.1015302
3737539.4
603879.58
185397.45
78648.141
40019.818
22794.428
13998.699
9066.807
6107.4261
4238.7888
3011.4085
2179.6483
1601.6036
1191.5012
895.51826
678.80328
518.18096
397.88604
306.9822
237.75394
184.67856
143.75376
112.04922
87.402056
68.206979
53.269513
41.701391
32.845606
26.215496
21.453175
18.287822
16.537141
16.029952
16.602559
18.179614
20.689596
23.919624
27.043664
28.55905
27.872572
25.73311
20.684701
13.331308
7.4849849
4.0762826
2.4462207
1.6593382
1.2062399
0.92107219
0.71819252
0.56962788
0.47208699
0.39192621
0.32393299
0.27521237
0.23658857
0.2044524
0.17693852
0.15571235
0.13837813
0.12489136
0.11544782
0.10871075
0.10386701
0.10068036
3737610.3
603891.01
185401.01
78649.769
40020.782
22795.134
13999.312
9067.4015
6108.0441
4239.4573
3012.1466
2180.4714
1602.5249
1192.5329
896.67168
680.08958
519.61111
399.47069
308.73162
239.67765
186.78475
146.0487
114.53664
90.082696
71.078553
56.327094
44.938693
36.257228
29.804638
25.238978
22.321342
20.889541
20.817729
21.737522
23.793398
26.462572
29.522041
30.844345
29.917041
27.357739
21.620162
14.121478
8.0587028
4.378703
2.6641865
1.8328313
1.3527599
1.0290378
0.78866345
0.6216005
0.50930549
0.42153717
0.35290404
0.30156922
0.25723261
0.21782275
0.18641121
0.1628784
0.14467408
0.13135466
0.1211455
0.11341513
0.10723857
0.10285837
0.10001028
3737682.9
603902.74
185404.64
78651.336
40021.616
22795.652
13999.68
9067.6986
6108.3115
4239.7204
3012.4231
2180.775
1602.8677
1192.9264
897.12791
680.62122
520.23203
400.19625
309.57895
240.66603
187.93581
147.38651
116.08772
91.876141
73.146355
58.704968
47.667623
39.385288
33.390192
29.353553
27.047823
26.301232
26.762582
28.065039
30.603274
33.39432
33.574857
32.297169
29.063976
22.652456
14.964283
8.6410412
4.7435181
2.9146774
2.0259778
1.4941664
1.1197129
0.853963
0.67542144
0.55289164
0.45419545
0.3816864
0.32245007
0.27325588
0.23232377
0.20106997
0.17747229
0.15683576
0.13998815
0.12658384
0.11700846
0.11031527
0.1052786
0.10176424
0.099395246
3737758.4
603914.97
185408.39
78652.919
40022.419
22796.109
13999.964
9067.8876
6108.4483
4239.8302
3012.5225
2180.8771
1602.9836
1193.0671
897.30488
680.84755
520.5228
400.56924
310.05529
241.27098
188.69957
148.3452
117.28433
93.361615
74.980536
60.957553
50.419
42.726417
37.419474
34.166649
32.711815
32.772321
33.567412
35.490238
37.386149
36.615201
34.835662
30.671574
23.696683
15.814718
9.2409747
5.1527951
3.208049
2.2414193
1.6474148
1.2372253
0.95802516
0.76479765
0.61532436
0.49942566
0.41520924
0.35129272
0.29654698
0.25275278
0.21881662
0.19015245
0.16654091
0.14763738
0.13397762
0.12334119
0.11509336
0.10897196
0.10420151
0.10104294
0.098852103
3737836.4
603927.57
185412.26
78654.581
40023.287
22796.63
14000.316
9068.1535
6108.6721
4240.0386
3012.7337
2181.1051
1603.2407
1193.3654
897.65735
681.2687
521.02968
401.18224
310.79916
242.17595
189.8027
149.69179
118.92952
95.371653
77.433484
63.942709
54.03379
47.067599
42.565236
40.146941
39.478774
39.970859
41.271469
41.13297
39.971096
37.285035
32.164782
24.732613
16.649773
9.8699077
5.6234715
3.546794
2.4736291
1.8122611
1.3731927
1.0721627
0.84504389
0.66715638
0.53828649
0.45058355
0.379255
0.32136381
0.27260444
0.23572548
0.20321637
0.17604615
0.15680326
0.14089784
0.12855127
0.11883279
0.11188504
0.10685352
0.10284776
0.10025329
0.098417838
3737916.9
603940.61
185416.31
78656.365
40024.27
22797.274
14000.806
9068.5787
6109.0803
4240.4596
3013.1889
2181.6115
1603.814
1194.0211
898.41207
682.1411
522.04142
402.35904
312.17199
243.78239
191.6885
151.91245
121.55159
98.471878
81.082715
68.209137
58.989774
52.749393
48.931989
47.018949
46.517097
46.254363
45.119091
42.92379
39.478285
33.575509
25.726845
17.43912
10.534621
6.16015
3.9235335
2.7194245
1.9937222
1.5287296
1.1993381
0.93983674
0.745399
0.60842487
0.50377676
0.41844521
0.34949348
0.2987321
0.25569144
0.21967505
0.19066673
0.16955158
0.15177998
0.13665606
0.12554045
0.11689118
0.11026446
0.10573317
0.10211729
0.099776069
0.098094292
3738001.3
603954.29
185420.59
78658.282
40025.368
22798.037
14001.431
9069.1587
6109.6684
4241.0894
3013.8852
2182.3954
1604.7053
1195.04
899.58055
683.48394
523.58737
404.14213
314.23296
246.17046
194.46187
155.13653
125.29336
102.78784
86.013823
73.772864
65.162586
59.463218
55.9658
53.810883
51.77733
49.162805
46.076895
41.619908
34.956651
26.702276
18.27097
11.315988
6.8055123
4.3562984
2.9940959
2.201892
1.7055909
1.339663
1.0504839
0.8372805
0.67862849
0.55086886
0.45370577
0.38414918
0.32786497
0.28098739
0.23774387
0.20703897
0.18077056
0.16017746
0.14328057
0.13054884
0.12110627
0.11385794
0.10847245
0.10426353
0.10107464
0.099210219
0.097707508
3738088.5
603968.48
185425.06
78660.324
40026.574
22798.916
14002.186
9069.8897
6110.4316
4241.9221
3014.816
2183.4491
1605.9058
1196.4124
901.15212
685.28536
525.65373
406.5135
316.95438
249.29034
198.03034
159.2032
129.90286
107.97517
91.796544
80.079093
71.783628
65.938947
61.540991
57.655314
53.773929
49.565717
43.926183
36.459962
27.810695
19.258877
12.235441
7.5240188
4.8084195
3.2801491
2.4265068
1.8952337
1.4924995
1.1772655
0.94334613
0.7598367
0.61602462
0.5103126
0.42837614
0.36044602
0.30265032
0.25936855
0.22395518
0.19616738
0.17132377
0.15329977
0.13908191
0.12790039
0.1193189
0.11166476
0.10684729
0.10350758
0.10062973
0.098810499
0.097410704
3738178.6
603983.18
185429.71
78662.485
40027.887
22799.907
14003.069
9070.7668
6111.3632
4242.949
3015.9699
2184.7582
1607.3975
1198.1148
903.09508
687.50135
528.17774
409.38257
320.20606
252.95986
202.14466
163.77104
134.90091
113.33009
97.366145
85.635662
76.893604
70.056068
64.270786
58.948148
53.334073
46.429695
38.156843
29.122616
20.433206
13.285264
8.3248976
5.3309025
3.6413693
2.712035
2.1223465
1.6727224
1.327759
1.0660201
0.85651231
0.69427298
0.57203592
0.47254934
0.39525302
0.33750041
0.28929354
0.24946606
0.21255123
0.18578872
0.16414199
0.14895172
0.13472535
0.12338673
0.11619889
0.11039539
0.10562611
0.102337
0.099906721
0.098468594
0.097183533
3738271.2
603998.37
185434.56
78664.764
40029.303
22801.002
14004.063
9071.7701
6112.438
4244.1384
3017.3077
2186.2744
1609.1209
1200.0747
905.32175
690.02605
531.03169
412.59468
323.79896
256.94328
206.50567
168.46041
139.81555
118.29226
102.09986
89.781107
80.119819
72.09023
64.907343
57.558569
49.337347
40.239963
30.78789
21.895575
14.542019
9.27851
5.9741263
4.0780032
3.0199261
2.3453934
1.8532556
1.4869693
1.2001629
0.96647634
0.78548924
0.64322653
0.52989017
0.44345548
0.37584719
0.31773673
0.26895293
0.23209643
0.20013322
0.17866822
0.15743322
0.14216478
0.13004732
0.12081876
0.11357839
0.10825825
0.104693
0.10184769
0.099510584
0.098134673
0.096972435
3738367.1
604011.3
185437.22
78665.321
40029.458
22801.162
14004.356
9072.2441
6113.1171
4245.0389
3018.4448
2187.6638
1610.7802
1202.0225
907.57761
692.6083
533.95475
415.86461
327.40698
260.85697
210.65781
172.73647
144.04229
122.23204
105.4579
92.229358
81.390605
71.842007
62.501986
52.860241
42.864716
32.9078
23.710986
16.056265
10.423929
6.7572481
4.5938511
3.369296
2.6104739
2.0854049
1.6921678
1.3688696
1.1027744
0.89547654
0.7303743
0.59958057
0.4992446
0.41701445
0.35210996
0.30209599
0.25983822
0.22503223
0.19387323
0.17079831
0.15191679
0.13893951
0.12714675
0.11916196
0.1124191
0.10702776
0.10349876
0.10098706
0.099071516
0.097866184
0.096840282
3739014.3
604122.01
185474.57
78683.107
40039.656
22807.809
14009.137
9075.9766
6116.2443
4247.8238
3021.0558
2190.2162
1613.3569
1204.6853
910.37226
695.56617
537.09129
419.17538
330.86133
264.38994
214.16145
176.05313
146.96371
124.50929
106.84541
92.426242
79.887599
68.26464
57.002639
45.946418
35.33787
25.719242
17.697537
11.673004
7.629884
5.1696554
3.7580378
2.9047399
2.3297341
1.8914155
1.529438
1.2389704
1.0110366
0.82603236
0.67902537
0.56215199
0.46805002
0.39440415
0.33671815
0.28608615
0.2428897
0.21140444
0.18289585
0.16434536
0.14729338
0.1348714
0.12353209
0.11626804
0.11052501
0.10604818
0.10298374
0.10047973
0.098647756
0.097527427
0.096731913
3739013.7
604119.03
185472.19
78681.419
40038.576
22807.181
14008.859
9075.989
6116.5144
4248.3345
3021.7998
2191.1919
1614.5653
1206.127
912.04377
697.45519
539.17116
421.39814
333.15
266.63122
216.20074
177.6965
147.99251
124.64382
105.68182
89.609508
75.339555
62.177299
49.825711
38.364565
28.157153
19.658966
13.176367
8.7014507
5.8819141
4.2330577
3.2490098
2.6031137
2.1204534
1.7325306
1.4206538
1.163443
0.94842981
0.77673042
0.63936748
0.52948774
0.44428202
0.37364073
0.31757111
0.27278714
0.23583546
0.2057884
0.17830817
0.15928906
0.14163296
0.13046665
0.12043196
0.11413682
0.10880854
0.10470899
0.10206406
0.099975686
0.09840357
0.097335385
0.09665089
3739013.8
604119.17
185472.34
78681.623
40038.842
22807.516
14009.271
9076.4873
6117.1078
4249.0321
3022.61
2192.1213
1615.617
1207.2983
913.32232
698.81531
540.56848
422.76428
334.38827
267.61601
216.76658
177.62668
146.99583
122.44992
102.14663
84.730486
69.288958
55.328644
42.734214
31.675863
22.453761
15.295327
10.194788
6.8526447
4.8508773
3.6656167
2.9184041
2.3838206
1.9610601
1.6122281
1.3179742
1.075798
0.88321081
0.72762589
0.60233054
0.50192496
0.42103323
0.35655247
0.30596966
0.26155988
0.22369035
0.19463461
0.16958503
0.15332334
0.1383391
0.12868458
0.11907029
0.11294949
0.10763348
0.10410006
0.10148755
0.099397474
0.09804948
0.097129795
0.096520031
3739014
604119.25
185472.41
78681.706
40038.952
22807.659
14009.453
9076.713
6117.3833
4249.3624
3022.9983
2192.5679
1616.117
1207.8392
913.88068
699.35255
541.02615
423.05851
334.40263
267.19031
215.71369
175.75564
144.16017
118.55898
97.205841
78.880202
62.825711
48.689023
36.428387
26.177452
18.083531
12.149425
8.1362281
5.6555362
4.1894731
3.3013253
2.6970639
2.2292276
1.8416561
1.5164016
1.2486761
1.0278373
0.84390602
0.6953649
0.5758142
0.47969322
0.40445261
0.34161831
0.29175253
0.25097403
0.21731457
0.19052498
0.16637165
0.15042339
0.13455932
0.1251747
0.11653484
0.11141727
0.10638949
0.10323179
0.10103942
0.099159923
0.097873384
0.096990932
0.096456301
3739014.9
604119.32
185472.39
78681.673
40038.914
22807.619
14009.413
9076.6777
6117.3545
4249.3409
3022.9824
2192.5514
1616.0874
1207.774
913.74457
699.093
540.57002
422.31011
333.24595
265.49983
213.36137
172.6301
140.19294
113.75611
91.677289
72.856081
56.646532
42.761329
31.149636
21.849212
14.844614
9.9468276
6.8028959
4.9127992
3.7899512
3.066454
2.5335887
2.1019706
1.7405592
1.4370685
1.1813247
0.96934264
0.79854541
0.66031648
0.54847964
0.45876094
0.38664705
0.32838716