/*--------------------------------*- C++ -*----------------------------------*\
  =========                 |
  \\      /  F ield         | OpenFOAM: The Open Source CFD Toolbox
   \\    /   O peration     | Website:  https://openfoam.org
    \\  /    A nd           | Version:  13
     \\/     M anipulation  |
\*---------------------------------------------------------------------------*/
FoamFile
{
    format      ascii;
    class       volVectorField;
    location    "5.600247";
    object      wallShearStress;
}
// * * * * * * * * * * * * * * * * * * * * * * * * * * * * * * * * * * * * * //

dimensions      [0 2 -2 0 0 0 0];

internalField   uniform (0 0 0);

boundaryField
{
    inlet
    {
        type            calculated;
        value           uniform (0 0 0);
    }
    outlet
    {
        type            calculated;
        value           uniform (0 0 0);
    }
    cylinder
    {
        type            calculated;
        value           nonuniform List<vector> 
132
(
(0.00012450401 -0.0017050973 -1.1225457e-22)
(0.00052641063 -0.010396282 3.2893151e-23)
(0.001398753 -0.018874177 1.9695615e-21)
(0.0027076905 -0.026815436 -7.3734674e-21)
(0.0043834125 -0.033900625 5.9167528e-21)
(0.0063202338 -0.039825282 2.0673358e-20)
(0.008377715 -0.044326119 -4.4625398e-21)
(0.010397758 -0.047196948 -1.9925859e-20)
(0.01220548 -0.048306755 2.0859481e-20)
(0.013626697 -0.047618841 -5.1065002e-20)
(0.014504976 -0.045201898 -9.9599569e-22)
(0.014722536 -0.041242096 3.5829362e-20)
(0.014219996 -0.036040556 6.0475777e-20)
(0.0130184 -0.030011383 -5.0026734e-20)
(0.011222001 -0.023632352 5.2902279e-20)
(0.0090199741 -0.017411335 8.4544419e-20)
(0.0066515484 -0.011804743 -5.4574986e-20)
(0.0043608848 -0.0071350821 8.5844898e-20)
(0.002356721 -0.0035690664 1.1114863e-19)
(0.00076754401 -0.0010945844 -7.0680762e-20)
(-0.00036746687 0.0004452979 -8.8527514e-20)
(-0.0011172562 0.0012992047 3.0776945e-23)
(-0.0015969938 0.0017232222 1.2516376e-20)
(-0.0019078721 0.0019028707 -1.4843121e-20)
(-0.0019585845 0.001803781 -2.5008322e-20)
(-0.0015689518 0.0013369544 5.2955493e-21)
(-0.00031695579 0.00026543894 -4.7323099e-20)
(0.0014797005 -0.0010246739 1.2592584e-20)
(0.003121359 -0.0019889315 9.8900269e-21)
(0.0041659646 -0.0024091489 -6.8380623e-20)
(0.0045561025 -0.0023676481 8.9474206e-20)
(0.0046976866 -0.0021696859 2.7099063e-21)
(0.00485603 -0.0019678726 1.952057e-20)
(0.0050321561 -0.0017610895 -2.3112198e-20)
(0.0050357323 -0.0014900531 7.3420488e-20)
(0.0046356545 -0.0011256157 -4.6456621e-21)
(0.0036240889 -0.00069199275 1.8763707e-20)
(0.0017460976 -0.00025127407 -2.5820611e-21)
(-0.0012148714 7.2470366e-05 3.7157616e-21)
(-0.0054976474 0.00011372581 -2.3260019e-21)
(-0.011480497 -0.00038701195 4.3608739e-21)
(-0.01900377 -0.0017688424 -1.3496631e-22)
(-0.027379934 -0.0042141965 4.9617198e-20)
(-0.036080296 -0.0077946324 -1.9144547e-20)
(-0.04443768 -0.01243812 1.7282147e-20)
(-0.051984548 -0.017989845 -1.1103288e-19)
(-0.058259228 -0.024180804 -1.7902753e-20)
(-0.06301506 -0.030725336 1.5728513e-19)
(-0.066108643 -0.037321459 -1.3436109e-19)
(-0.067520689 -0.043683442 -2.5752249e-21)
(-0.067292862 -0.049534349 4.1375872e-20)
(-0.065585737 -0.05466891 -3.8221281e-20)
(-0.062510993 -0.058843658 -7.6993106e-21)
(-0.058303961 -0.061926458 -5.2044875e-21)
(-0.053214463 -0.06382993 -9.8707477e-21)
(-0.047415723 -0.064404186 -2.1935673e-22)
(-0.041184513 -0.063648964 5.0195631e-22)
(-0.034746133 -0.061539638 4.6080207e-20)
(-0.028335446 -0.058108906 -7.3625401e-20)
(-0.022172676 -0.053418902 -8.0343851e-20)
(-0.016461907 -0.047562981 -3.3039942e-20)
(-0.01138769 -0.040665085 -7.6367325e-20)
(-0.0071102267 -0.032874023 1.7130235e-20)
(-0.0037605735 -0.024361319 2.5013881e-20)
(-0.0014446894 -0.015330008 -3.8965071e-20)
(-0.00021991371 -0.0059456813 -5.2120148e-21)
(0.00019524899 0.0069726622 -5.2413165e-22)
(0.00073319089 0.015497066 -3.3194584e-23)
(0.0017234048 0.023637687 -2.0972161e-21)
(0.0031183181 0.031079596 7.9378138e-21)
(0.0048354703 0.037518383 -6.3930316e-21)
(0.0067580846 0.042674837 -2.2287079e-20)
(0.0087416017 0.046318903 4.7809986e-21)
(0.010625693 0.048283957 2.1167301e-20)
(0.012239887 0.04848522 -2.1947529e-20)
(0.013420761 0.046934317 5.3197801e-20)
(0.01403002 0.043751513 1.0276738e-21)
(0.013974273 0.039171315 -3.6623474e-20)
(0.013226215 0.033543339 -6.1299191e-20)
(0.011836715 0.027305188 5.0344757e-20)
(0.0099417338 0.020948827 -5.29243e-20)
(0.0077436906 0.014958244 -8.423076e-20)
(0.0054773519 0.0097296131 5.4231769e-20)
(0.0033707642 0.0055235327 -8.521858e-20)
(0.0015917966 0.0024201125 -1.1035506e-19)
(0.00023690835 0.00035754838 7.023538e-20)
(-0.00070763188 -0.00088196824 8.8091287e-20)
(-0.0013130782 -0.0015315229 7.7856002e-20)
(-0.0017176757 -0.0018552983 6.3292347e-20)
(-0.001954706 -0.0019512046 1.4805008e-20)
(-0.0018911775 -0.0017450193 2.4940095e-20)
(-0.0011872687 -0.0010185314 -5.2801348e-21)
(0.00029059519 0.00020359319 4.7317522e-20)
(0.0020575683 0.0014341257 -1.261131e-20)
(0.0035260127 0.0022513291 -9.9284526e-21)
(0.0043016701 0.0024898735 6.866214e-20)
(0.0045786282 0.0023799995 -8.9852824e-20)
(0.0047064911 0.0021736719 -2.7056061e-21)
(0.0048879569 0.0019807995 4.4632707e-20)
(0.0050362768 0.0017629871 2.3256101e-20)
(0.0049450177 0.0014641491 -7.3990841e-20)
(0.0043909423 0.0010677544 4.6899906e-21)
(0.0031646659 0.00060719581 1.384128e-20)
(0.0010035563 0.00015320642 2.6167918e-21)
(-0.0022946288 -0.00016182079 -3.7717559e-21)
(-0.0069266475 -0.0001495901 2.3635754e-21)
(-0.013271798 0.00044325618 -4.431439e-21)
(-0.021104103 0.0019611344 3.6122332e-20)
(-0.029650607 0.0045605432 -5.021713e-20)
(-0.038386287 0.0082898578 1.930584e-20)
(-0.046675019 0.013061938 -1.7350003e-20)
(-0.054022643 0.018692716 1.1086139e-19)
(-0.060026787 0.024911351 1.7774697e-20)
(-0.064479802 0.031436513 -1.5512769e-19)
(-0.067241367 0.037958104 1.3155279e-19)
(-0.068336732 0.044208663 2.4991975e-21)
(-0.067793371 0.04990014 -3.9702384e-20)
(-0.06582034 0.054861934 3.6121105e-20)
(-0.062485378 0.058816732 -5.7155169e-20)
(-0.058057716 0.061662328 4.5674755e-21)
(-0.052812796 0.063345346 -1.0176675e-20)
(-0.046875379 0.063667114 2.4793653e-21)
(-0.040552876 0.062669334 -6.2295726e-22)
(-0.034060325 0.060320945 -5.1531771e-20)
(-0.027632442 0.056662344 7.9204819e-20)
(-0.021487209 0.051761293 8.4637353e-20)
(-0.015825022 0.045714603 3.4334057e-20)
(-0.010827138 0.038651522 7.8574654e-20)
(-0.0066490696 0.030722963 -1.7487806e-20)
(-0.0034173015 0.022105254 5.0311381e-20)
(-0.0012325002 0.012994842 3.9284429e-20)
(-0.00015050906 0.0035923495 5.2291013e-21)
)
;
    }
    frontAndBack
    {
        type            empty;
    }
}


// ************************************************************************* //
