/*--------------------------------*- C++ -*----------------------------------*\
  =========                 |
  \\      /  F ield         | OpenFOAM: The Open Source CFD Toolbox
   \\    /   O peration     | Website:  https://openfoam.org
    \\  /    A nd           | Version:  13
     \\/     M anipulation  |
\*---------------------------------------------------------------------------*/
FoamFile
{
    format      ascii;
    class       volScalarField;
    location    "29.503311";
    object      k;
}
// * * * * * * * * * * * * * * * * * * * * * * * * * * * * * * * * * * * * * //

dimensions      [0 2 -2 0 0 0 0];

internalField   nonuniform List<scalar> 
17140
(
8.4694522e-12
2.6613952e-10
2.1763027e-09
9.3593505e-09
2.8800851e-08
7.267558e-08
1.6115355e-07
3.2659547e-07
6.1975025e-07
1.1188409e-06
1.9428057e-06
3.2704965e-06
5.3683783e-06
8.6303154e-06
1.3634445e-05
2.1224077e-05
3.2622118e-05
4.9591851e-05
7.4660987e-05
0.00011143057
0.00016499487
0.00024250062
0.00035387018
0.00051269392
0.00073724595
0.0010514639
0.0014855089
0.0020751303
0.0028584924
0.0038686407
0.0051203813
0.0065938883
0.0082242402
0.009911461
0.0115527
0.013075293
0.01444854
0.015674631
0.016773497
0.017771588
0.018696225
0.019573625
0.020428619
0.021284937
0.022165894
0.023094749
0.024093524
0.025182756
0.026384011
0.027719984
0.029215258
0.030896605
0.032794623
0.034940248
0.037361892
0.040083218
0.043127084
0.046497128
0.050193711
0.053988083
0.057305434
0.058921427
0.058306663
0.056504859
0.058296316
8.3958083e-12
2.6382539e-10
2.157385e-09
9.2780435e-09
2.8550874e-08
7.2045498e-08
1.5975825e-07
3.2377216e-07
6.1440223e-07
1.1092052e-06
1.9261111e-06
3.2424616e-06
5.3224844e-06
8.5567542e-06
1.351861e-05
2.1044414e-05
3.2347082e-05
4.9175633e-05
7.4037579e-05
0.00011050563
0.00016363472
0.00024051776
0.00035100486
0.00050859183
0.00073143377
0.0010433274
0.0014742845
0.0020599307
0.0028384084
0.0038428569
0.0050883885
0.0065556533
0.008180862
0.0098652141
0.011505986
0.013029932
0.014405682
0.015634894
0.016737159
0.017738754
0.018666971
0.019548108
0.020407187
0.021268259
0.022155086
0.023091581
0.02410057
0.025203656
0.026423873
0.027785583
0.029314166
0.031037511
0.032985864
0.03518568
0.037651549
0.040375039
0.043318956
0.046405878
0.049489546
0.052245676
0.054107227
0.054415992
0.052819226
0.049946822
0.051329498
8.2642123e-12
2.5969017e-10
2.1235701e-09
9.132627e-09
2.8103449e-08
7.091671e-08
1.5725599e-07
3.1870301e-07
6.0478756e-07
1.0918576e-06
1.8960079e-06
3.1918254e-06
5.2394414e-06
8.4233911e-06
1.3308174e-05
2.0717305e-05
3.1845155e-05
4.8414164e-05
7.2894024e-05
0.00010880411
0.00016112488
0.00023684667
0.00034568059
0.00050093865
0.00072054117
0.001028001
0.0014530148
0.002030889
0.0027995292
0.0037922684
0.0050250499
0.0064802544
0.008095921
0.0097743096
0.01141286
0.012937542
0.014315813
0.015548384
0.016654266
0.017659463
0.018591202
0.019475857
0.020338656
0.021203979
0.022096059
0.023039466
0.024057933
0.025174209
0.026412701
0.027799295
0.029361655
0.031129673
0.033134079
0.03539907
0.037928466
0.040686526
0.043584509
0.046485646
0.049152436
0.051059911
0.051809367
0.050989486
0.048390463
0.042222807
0.040796082
8.0713939e-12
2.5363114e-10
2.0740235e-09
8.919554e-09
2.7447825e-08
6.9262536e-08
1.5358864e-07
3.1127252e-07
5.9069157e-07
1.066419e-06
1.8518534e-06
3.117532e-06
5.1175605e-06
8.2275815e-06
1.2999068e-05
2.0236582e-05
3.1107102e-05
4.7293739e-05
7.1210133e-05
0.00010629641
0.00015742213
0.00023142425
0.00033780522
0.00048959925
0.00070436825
0.0010051825
0.0014212364
0.0019873973
0.002741379
0.0037168119
0.0049308418
0.0063678938
0.0079685698
0.0096371396
0.01127136
0.012795972
0.014176683
0.015412787
0.016522443
0.017531261
0.018466359
0.019354183
0.020220162
0.021089005
0.021985429
0.022934631
0.023961234
0.025089218
0.026344549
0.027755152
0.029351337
0.031165925
0.033232552
0.035575792
0.038192982
0.041027589
0.043950229
0.046779705
0.049291103
0.050764504
0.05075644
0.049173391
0.045659375
0.034121083
0.02643451
7.8176969e-12
2.456591e-10
2.0088337e-09
8.639205e-09
2.6585168e-08
6.7085892e-08
1.4876261e-07
3.0149346e-07
5.7213805e-07
1.0329312e-06
1.7937182e-06
3.0196962e-06
4.957022e-06
7.9696014e-06
1.2591705e-05
1.9602849e-05
3.0133794e-05
4.5815624e-05
6.8987794e-05
0.00010298553
0.00015253146
0.0002242594
0.00032739554
0.00047460699
0.00068298411
0.00097502537
0.0013792928
0.0019300534
0.002664687
0.0036171234
0.0048058677
0.006218093
0.0077979267
0.0094524003
0.011079806
0.012603284
0.013986187
0.01522588
0.016339369
0.017351723
0.018289892
0.019180369
0.020048768
0.020920116
0.021819598
0.022773011
0.023805809
0.024943286
0.02621314
0.027645699
0.029274652
0.031137247
0.033271749
0.035707174
0.038439522
0.041399241
0.044432622
0.047354699
0.049893692
0.051405514
0.051110326
0.049410887
0.045133731
0.02967418
0.013788721
7.5085338e-12
2.3594413e-10
1.9293916e-09
8.2975621e-09
2.5533888e-08
6.4433263e-08
1.4288106e-07
2.8957514e-07
5.495248e-07
9.92114e-07
1.7228551e-06
2.9004338e-06
4.7613125e-06
7.6550816e-06
1.2095026e-05
1.8830104e-05
2.8946869e-05
4.4012879e-05
6.6276937e-05
9.8945956e-05
0.00014656274
0.00021551211
0.00031468103
0.00045628467
0.00065683062
0.00093810133
0.0013278489
0.001859559
0.0025701255
0.0034937479
0.0046505545
0.0060310411
0.0075837424
0.0092192971
0.010836887
0.012357779
0.01374237
0.014985548
0.016102805
0.017118482
0.018059277
0.018951687
0.019821485
0.020693977
0.021594771
0.022550222
0.023586568
0.024730405
0.026011329
0.027462424
0.029121505
0.03103171
0.033239136
0.035779431
0.038654856
0.041792179
0.045043776
0.048279884
0.051196531
0.053042057
0.05272122
0.051186763
0.046056792
0.027613013
0.0094457662
7.1482083e-12
2.2462147e-10
1.8368031e-09
7.8993805e-09
2.4308617e-08
6.1341555e-08
1.360258e-07
2.7568328e-07
5.2316603e-07
9.4453388e-07
1.6402465e-06
2.7613954e-06
4.533135e-06
7.2883546e-06
1.151585e-05
1.7928912e-05
2.7562478e-05
4.1909894e-05
6.3114015e-05
9.4231672e-05
0.00013959507
0.00020529693
0.00029982534
0.0004348622
0.00062622354
0.000894836
0.0012674716
0.0017766475
0.0024586052
0.0033477466
0.0044659705
0.0058075887
0.0073263946
0.0089375669
0.010541702
0.012058053
0.013443493
0.01468983
0.015810621
0.016829246
0.017772029
0.018665408
0.019535262
0.020407134
0.021306974
0.022261591
0.023297964
0.024443915
0.025731031
0.027195466
0.028879889
0.03083479
0.03311614
0.035771968
0.038813685
0.042185043
0.045783714
0.049592222
0.053154817
0.055485816
0.055371112
0.053465107
0.04628763
0.022863916
0.0069098288
6.7424203e-12
2.1187022e-10
1.7325324e-09
7.4509577e-09
2.2928733e-08
5.7859667e-08
1.2830522e-07
2.6003748e-07
4.9347835e-07
8.9094268e-07
1.5471974e-06
2.6047762e-06
4.2760895e-06
6.8752009e-06
1.0863296e-05
1.691344e-05
2.6002336e-05
3.9539568e-05
5.954832e-05
8.8915767e-05
0.00013173575
0.00019376991
0.00028305312
0.00041065946
0.00059161304
0.00084585333
0.0011990079
0.0016824344
0.002331531
0.0031807723
0.0042538742
0.0055493388
0.0070270063
0.0086076053
0.010193872
0.011703088
0.013088089
0.014336958
0.015460827
0.016481814
0.017425714
0.01831881
0.019187006
0.020056014
0.020952034
0.02190216
0.022933992
0.024076484
0.025363175
0.026833507
0.028535608
0.030528518
0.032880157
0.035654848
0.038873441
0.042521875
0.046586598
0.05103652
0.055283833
0.057912485
0.057765377
0.054425797
0.041598671
0.01546999
0.0045376786
6.2984002e-12
1.9791755e-10
1.6184368e-09
6.960281e-09
2.1418817e-08
5.4049621e-08
1.1985686e-07
2.4291641e-07
4.6099047e-07
8.3229473e-07
1.4453643e-06
2.4333642e-06
3.9947506e-06
6.4229708e-06
1.0148967e-05
1.5801733e-05
2.4294144e-05
3.6943931e-05
5.5642968e-05
8.3092105e-05
0.0001231231
0.0001811329
0.00026465614
0.00038409361
0.00055358796
0.00079197146
0.0011235712
0.0015783935
0.0021907783
0.0029950808
0.0040167643
0.0052587451
0.0066875889
0.0082306308
0.0097936923
0.011292366
0.012675046
0.013925414
0.015051604
0.016074105
0.017017966
0.017909184
0.018773583
0.019636939
0.020525573
0.021466657
0.022488189
0.023620086
0.024897653
0.026363687
0.0280721
0.030091038
0.03250169
0.035385264
0.038782351
0.04269011
0.047175107
0.052131775
0.056863304
0.05949515
0.058435459
0.052208649
0.029758436
0.0086195828
0.0025627019
5.8246569e-12
1.830309e-10
1.4967038e-09
6.4367576e-09
1.9807817e-08
4.9984458e-08
1.1084266e-07
2.2464831e-07
4.2632521e-07
7.697143e-07
1.3366994e-06
2.2504449e-06
3.6945102e-06
5.9403298e-06
9.3865489e-06
1.4615079e-05
2.247059e-05
3.4172608e-05
5.1472525e-05
7.6871669e-05
0.0001139208
0.00016762519
0.00024498084
0.00035566113
0.00051285135
0.00073417142
0.0010425051
0.0014663194
0.002038663
0.0027935179
0.0037579013
0.0049391845
0.0063111728
0.0078088592
0.0093423153
0.010826031
0.012203724
0.013454009
0.014581361
0.015604185
0.016546504
0.01743385
0.018291827
0.019146122
0.020023009
0.020949488
0.021953619
0.023065976
0.024323281
0.025771541
0.027470315
0.029496738
0.031945798
0.034910106
0.038446272
0.042514771
0.047208342
0.052333529
0.057039527
0.058758383
0.055482123
0.043245795
0.014119014
0.0040834349
0.0012704232
5.3306689e-12
1.6750808e-10
1.3697688e-09
5.8908613e-09
1.8127958e-08
4.5745503e-08
1.0144297e-07
2.0559865e-07
3.901761e-07
7.0445343e-07
1.2233766e-06
2.0596778e-06
3.3813747e-06
5.4369325e-06
8.5912887e-06
1.3377205e-05
2.0568122e-05
3.1280957e-05
4.712022e-05
7.0378431e-05
0.00010431188
0.00015351469
0.0002244159
0.00032592046
0.00047019675
0.00067356605
0.00095734435
0.0013482822
0.0018778943
0.0025794819
0.0034812963
0.0045949993
0.0059019247
0.0073456899
0.008841969
0.010305088
0.011674119
0.012921996
0.01404881
0.015070318
0.016009158
0.016890164
0.017738529
0.018579657
0.019439527
0.0203447
0.02132282
0.022404638
0.023627718
0.025040911
0.026708807
0.028718796
0.031176288
0.034170879
0.037737146
0.041775391
0.046251223
0.051008325
0.054363015
0.053240446
0.045526037
0.020415392
0.0059889101
0.0017562978
0.00058907157
4.8265197e-12
1.5166597e-10
1.2402226e-09
5.3337338e-09
1.6413531e-08
4.1419279e-08
9.1849657e-08
1.8615628e-07
3.5328108e-07
6.378444e-07
1.1077096e-06
1.8649578e-06
3.0617375e-06
4.9230571e-06
7.7794238e-06
1.2113383e-05
1.8625574e-05
2.8327985e-05
4.2674822e-05
6.3744723e-05
9.4491957e-05
0.00013908811
0.0002033781
0.00029547205
0.00042648061
0.00061136247
0.00086976532
0.0012265658
0.0017115034
0.0023568509
0.003191659
0.0042314965
0.0054652329
0.0068458907
0.0082962084
0.0097316668
0.011087084
0.012329245
0.013453081
0.014471039
0.015403913
0.016275529
0.017110436
0.017933492
0.018770031
0.019645907
0.02058771
0.021625669
0.02279728
0.024153747
0.02576586
0.02773479
0.030161118
0.033104879
0.036524048
0.040184888
0.043770739
0.046557391
0.045462482
0.039072732
0.01998373
0.0065364317
0.0020472971
0.00068350178
0.00028334961
4.3224804e-12
1.3582731e-10
1.1107047e-09
4.7767277e-09
1.469947e-08
3.7093947e-08
8.2258217e-08
1.6671744e-07
3.1639212e-07
5.7124491e-07
9.9205622e-07
1.6702548e-06
2.7421162e-06
4.4091829e-06
6.9675127e-06
1.0849393e-05
1.6682571e-05
2.5373932e-05
3.8227014e-05
5.7105844e-05
8.4661232e-05
0.0001246394
0.00018229563
0.0002649346
0.00038258884
0.00054881612
0.00078152453
0.0011035875
0.0015427443
0.0021298723
0.0028942917
0.0038548844
0.0050077359
0.0063157539
0.0077101852
0.0091093367
0.010444626
0.011676472
0.012793897
0.013805273
0.014728973
0.015587418
0.016404213
0.017203347
0.018009088
0.018846105
0.019739346
0.020717535
0.021816466
0.023090875
0.024625553
0.026527596
0.028866788
0.031617566
0.034578089
0.037023636
0.037696713
0.035216157
0.027464839
0.013913287
0.0058477711
0.0020064772
0.00069375807
0.00029582786
0.00017292714
3.8285834e-12
1.2030734e-10
9.8379262e-10
4.2309272e-09
1.3019884e-08
3.2855584e-08
7.2859541e-08
1.4766903e-07
2.8024353e-07
5.0598087e-07
8.7871933e-07
1.4794463e-06
2.4288772e-06
3.9055484e-06
6.1717359e-06
9.6104315e-06
1.4777863e-05
2.2477733e-05
3.3865568e-05
5.0594365e-05
7.5016121e-05
0.00011045741
0.00016159019
0.00023491918
0.00033940006
0.00048717903
0.00069438711
0.00098180246
0.0013749702
0.0019030105
0.0025949242
0.0034721278
0.0045372596
0.005763181
0.0070908978
0.0084434673
0.009750279
0.010965572
0.012071824
0.013072503
0.013982876
0.014823427
0.015616425
0.016384581
0.017150644
0.017937351
0.018767411
0.019667113
0.020667571
0.021838239
0.023276155
0.025067138
0.027206514
0.029394287
0.030911721
0.029709168
0.02523686
0.014590519
0.0081220502
0.0039381308
0.0016770134
0.00065437307
0.00028836957
0.00017500958
0.00013786789
3.3541479e-12
1.0539892e-10
8.6188141e-10
3.7066326e-09
1.1406472e-08
2.8784185e-08
6.3831038e-08
1.2937067e-07
2.4551785e-07
4.4328476e-07
7.6983971e-07
1.2961374e-06
2.1279406e-06
3.4216751e-06
5.4071451e-06
8.4199456e-06
1.2947517e-05
1.9694276e-05
2.9673224e-05
4.4333963e-05
6.5740098e-05
9.6812424e-05
0.00014165734
0.00020600096
0.0002977449
0.00042764198
0.00061004562
0.00086359091
0.0012114817
0.0016807527
0.0022994795
0.0030907024
0.0040626259
0.0051976404
0.0064473618
0.0077415827
0.0090095473
0.010200037
0.011288612
0.012273019
0.013164618
0.013981319
0.014743492
0.015472008
0.016187568
0.016910005
0.017659029
0.018458107
0.019335974
0.020386996
0.021682175
0.023239604
0.024807421
0.025150383
0.022905153
0.016254518
0.0082436883
0.0042596241
0.0022574365
0.0011228229
0.00053246684
0.00026709328
0.00016746295
0.00013775788
0.00012541993
2.9073678e-12
9.1359549e-11
7.4707694e-10
3.2129015e-09
9.8871107e-09
2.4950102e-08
5.5328732e-08
1.1213861e-07
2.1281536e-07
3.8424063e-07
6.6730044e-07
1.1234994e-06
1.8445149e-06
2.9659422e-06
4.6869885e-06
7.2985792e-06
1.1223305e-05
1.7071934e-05
2.5722957e-05
3.8433833e-05
5.6995388e-05
8.3943894e-05
0.00012284842
0.0001786926
0.00025836738
0.00037127867
0.00053003995
0.0007511449
0.0010553686
0.001467392
0.0020137914
0.0027182573
0.0035933108
0.0046299282
0.005790599
0.0070136179
0.0082303399
0.00938544
0.010447625
0.01140823
0.012273848
0.013059034
0.013781519
0.01445956
0.015110893
0.015751321
0.016396246
0.017064125
0.017806091
0.018699848
0.019703463
0.020583648
0.020051477
0.017001603
0.0093495932
0.0048816321
0.002403644
0.0012366696
0.00067314606
0.00037639854
0.00022533348
0.00015748355
0.00013085468
0.0001246057
0.0001183365
2.4949228e-12
7.8399112e-11
6.4109536e-10
2.7571138e-09
8.4845088e-09
2.1410645e-08
4.7479733e-08
9.6230516e-08
1.8262518e-07
3.2973184e-07
5.7263618e-07
9.6411721e-07
1.5828461e-06
2.5451815e-06
4.0220709e-06
6.2631746e-06
9.6311572e-06
1.4650217e-05
2.2074422e-05
3.2983351e-05
4.8914988e-05
7.2048577e-05
0.00010545304
0.00015341845
0.0002218868
0.00031898966
0.00045567486
0.00064634728
0.00090933338
0.0012667752
0.0017432556
0.0023621613
0.0031389205
0.0040716804
0.005133345
0.0062719429
0.0074232929
0.0085299167
0.0095543306
0.010481064
0.011311093
0.012054699
0.012725975
0.013339521
0.013908504
0.014443111
0.01495226
0.015449384
0.016027772
0.01662415
0.016818114
0.015657641
0.011936315
0.0059505134
0.0028430349
0.0014292224
0.00073681643
0.00041294327
0.00025963596
0.00018241825
0.00014302973
0.00012576103
0.00011900448
0.00011746309
0.00011284902
2.1216829e-12
6.6670626e-11
5.4518763e-10
2.3446494e-09
7.2152242e-09
1.8207601e-08
4.0376719e-08
8.1834267e-08
1.5530393e-07
2.8040247e-07
4.8696591e-07
8.1987577e-07
1.3460307e-06
2.1643759e-06
3.4202746e-06
5.326022e-06
8.1900071e-06
1.245799e-05
1.8771242e-05
2.8047959e-05
4.1596468e-05
6.12712e-05
8.9685006e-05
0.00013049339
0.00018876591
0.00027145412
0.00038794679
0.00055065984
0.00077551994
0.0010820395
0.0014924304
0.0020289227
0.0027084173
0.0035345042
0.0044892859
0.0055309271
0.0066017379
0.0076444395
0.0086166937
0.0094963071
0.010277938
0.010966516
0.011571189
0.012101178
0.012562931
0.012957941
0.013283533
0.013568878
0.013838299
0.013620918
0.012019632
0.0077075576
0.0038001917
0.0018062199
0.00087882364
0.00047321409
0.00028356978
0.00019499017
0.00015283559
0.00013155654
0.00012034594
0.00011583729
0.00011353761
0.00011224651
0.00010831021
1.7905359e-12
5.6264828e-11
4.6009577e-10
1.9787003e-09
6.0890798e-09
1.5365763e-08
3.4074682e-08
6.9061359e-08
1.3106332e-07
2.3663498e-07
4.1095434e-07
6.918953e-07
1.13591e-06
1.8264906e-06
2.8862949e-06
4.4944518e-06
6.9111641e-06
1.0512532e-05
1.5839604e-05
2.3667086e-05
3.5098902e-05
5.1699959e-05
7.5675726e-05
0.00011011314
0.00015929658
0.00022910865
0.00032751179
0.00046507436
0.00065543723
0.00091549194
0.0012648416
0.0017238668
0.0023096024
0.0030291331
0.003871996
0.0048059469
0.0057810691
0.0067425962
0.0076452331
0.0084607379
0.0091770156
0.0097924266
0.010309343
0.010729097
0.011048208
0.011254533
0.011338819
0.011284657
0.010778798
0.0089791561
0.0048960463
0.002425893
0.0011688538
0.00058690542
0.00032889171
0.00021575215
0.0001632947
0.00013751701
0.00012470171
0.00011759495
0.0001134598
0.00011156282
0.00010875001
0.0001077523
0.00010428651
1.5021305e-12
4.7202127e-11
3.8598704e-10
1.6599856e-09
5.10829e-09
1.2890725e-08
2.8586047e-08
5.7937015e-08
1.0995132e-07
1.9851621e-07
3.4475275e-07
5.8043139e-07
9.5290547e-07
1.5322076e-06
2.4212169e-06
3.7701695e-06
5.797283e-06
8.8179454e-06
1.3285825e-05
1.9850438e-05
2.9437223e-05
4.3357931e-05
6.3461129e-05
9.2334234e-05
0.00013356897
0.00019209921
0.00027461014
0.00038999279
0.00054976667
0.00076829728
0.0010624788
0.0014503458
0.001947936
0.0025639869
0.0032932556
0.0041116516
0.004977197
0.0058394825
0.0066523736
0.0073827738
0.0080116891
0.0085295384
0.0089294144
0.0092016338
0.0093276645
0.0092779416
0.0090400497
0.0082826165
0.0062323435
0.0032839303
0.0015694968
0.00077301446
0.00040908599
0.0002493839
0.00017948926
0.00014717772
0.00013101412
0.00012171902
0.00011676357
0.00011322766
0.00011049653
0.00010801953
0.00010535903
0.00010416869
0.00010075137
1.2549054e-12
3.9433468e-11
3.2246025e-10
1.38678e-09
4.2675471e-09
1.0769097e-08
2.3881125e-08
4.8401087e-08
9.1853829e-08
1.6584028e-07
2.8800382e-07
4.8488301e-07
7.9603159e-07
1.2799441e-06
2.0225448e-06
3.149299e-06
4.8424253e-06
7.3652449e-06
1.109646e-05
1.6578135e-05
2.4582377e-05
3.6203205e-05
5.2981679e-05
7.7073718e-05
0.00011147043
0.00016027847
0.00022906012
0.00032521323
0.00045833187
0.00064041426
0.0008856642
0.0012094683
0.0016259974
0.002144009
0.0027612406
0.0034594906
0.0042039797
0.0049494892
0.0056508562
0.0062715375
0.0067857144
0.0071743435
0.0074187477
0.0074931286
0.007370396
0.0070027412
0.0061480357
0.0040978976
0.0021112723
0.001051958
0.00052970773
0.00029987155
0.00020076758
0.00015882854
0.00013948835
0.0001283883
0.00012242941
0.00011768313
0.00011420312
0.00011071221
0.00010718766
0.00010483399
0.00010209854
0.00010101384
9.8240775e-05
1.0450945e-12
3.2840483e-11
2.6854724e-10
1.1549198e-09
3.5540371e-09
8.9685423e-09
1.9888216e-08
4.0308263e-08
7.64951e-08
1.3810935e-07
2.398431e-07
4.037949e-07
6.6289952e-07
1.06586e-06
1.6842113e-06
2.6223964e-06
4.0320778e-06
6.1323743e-06
9.2383266e-06
1.3800699e-05
2.0461223e-05
3.0128567e-05
4.4081568e-05
6.4107281e-05
9.2681533e-05
0.00013319763
0.00019024213
0.00026990093
0.00038004713
0.00053050455
0.00073288743
0.00099979148
0.0013429059
0.0017696844
0.0022787515
0.0028554846
0.0034705632
0.004083783
0.0046520403
0.0051365794
0.0055050393
0.0057281338
0.0057730861
0.0056172342
0.0051804989
0.0042904897
0.0025790513
0.0013500252
0.00069260758
0.00037657971
0.00023217851
0.00017068305
0.00014569909
0.00013519432
0.00012892498
0.00012400205
0.0001197554
0.00011548601
0.00011098865
0.00010728722
0.0001046563
0.0001023864
0.00010025125
9.8966955e-05
9.5788052e-05
8.6698282e-13
2.7243593e-11
2.2277957e-10
9.5808988e-10
2.9483269e-09
7.4400223e-09
1.6498571e-08
3.3438143e-08
6.3456863e-08
1.1456824e-07
1.9895904e-07
3.3495879e-07
5.4988356e-07
8.8412449e-07
1.3970017e-06
2.1751106e-06
3.3441701e-06
5.0857606e-06
7.6608407e-06
1.1442574e-05
1.6961789e-05
2.49693e-05
3.652024e-05
5.3086196e-05
7.6700738e-05
0.00011014178
0.00015714808
0.00022265357
0.00031299703
0.00043601845
0.00060088121
0.00081736584
0.001094305
0.0014368874
0.0018429573
0.0022993234
0.002780178
0.0032494649
0.0036665764
0.0039915623
0.0041867983
0.004213616
0.0040571393
0.0036276981
0.0027784548
0.0016258088
0.00085536678
0.00046039858
0.00027109448
0.00018765279
0.00015153901
0.00013685652
0.00013186877
0.00012936288
0.00012632465
0.00012188975
0.00011651782
0.00011142128
0.00010800818
0.00010525296
0.00010254994
0.00010050348
9.7890345e-05
9.6703304e-05
9.4262477e-05
7.1345778e-13
2.2419306e-11
1.8332983e-10
7.8843115e-10
2.4262317e-09
6.122507e-09
1.3576852e-08
2.7516416e-08
5.2218509e-08
9.4276909e-08
1.6371889e-07
2.756252e-07
4.5246864e-07
7.2747532e-07
1.149435e-06
1.7895551e-06
2.7511822e-06
4.1835166e-06
6.3008476e-06
9.4093344e-06
1.3943963e-05
2.0518962e-05
2.9995569e-05
4.3571277e-05
6.2894113e-05
9.0203038e-05
0.00012848953
0.00018166312
0.00025468109
0.00035356491
0.00048517041
0.00065651206
0.00087339901
0.0011382132
0.001446957
0.0017863974
0.002132819
0.0024536176
0.0027111817
0.0028662924
0.002878835
0.0027345879
0.0023537312
0.0016713178
0.00096659104
0.00053852961
0.00030891732
0.00020127433
0.00015527419
0.00013777873
0.00013080171
0.00012977522
0.00012960584
0.00012824127
0.00012404047
0.00011747894
0.00011265673
0.00010934669
0.00010621773
0.0001031034
0.00010061124
9.841048e-05
9.6565826e-05
9.5107583e-05
9.2777981e-05
5.7714041e-13
1.8135746e-11
1.4830181e-10
6.3778849e-10
1.9626552e-09
4.9526643e-09
1.098261e-08
2.2258409e-08
4.2239742e-08
7.6259715e-08
1.3242797e-07
2.2294019e-07
3.6596779e-07
5.883727e-07
9.2958997e-07
1.4471546e-06
2.2245288e-06
3.3821246e-06
5.0927179e-06
7.6028297e-06
1.126207e-05
1.656287e-05
2.4193318e-05
3.51057e-05
5.0602323e-05
7.2437383e-05
0.00010292757
0.00014505266
0.00020250768
0.00027963775
0.00038114578
0.00051141762
0.00067331438
0.00086636089
0.0010844792
0.0013140469
0.0015332226
0.0017132939
0.0018212839
0.0018215723
0.0017039222
0.0014006438
0.00094538185
0.00055958516
0.00032948624
0.00020924756
0.00015330044
0.00013169691
0.00012550227
0.00012646784
0.000128788
0.00013063351
0.00012966251
0.00012610936
0.00011873303
0.00011410926
0.000110801
0.00010696458
0.00010376022
0.00010108387
9.8963221e-05
9.6991174e-05
9.4798311e-05
9.3608771e-05
9.1401855e-05
4.5217616e-13
1.4208937e-11
1.16191e-10
4.9969148e-10
1.5376853e-09
3.880245e-09
8.6044092e-09
1.7438256e-08
3.3091882e-08
5.974258e-08
1.0374176e-07
1.7463954e-07
2.8666259e-07
4.6083548e-07
7.2801119e-07
1.1331785e-06
1.7415487e-06
2.6471014e-06
3.9844849e-06
5.9454253e-06
8.8010636e-06
1.2931852e-05
1.8866654e-05
2.7332257e-05
3.9313104e-05
5.6117976e-05
7.9444349e-05
0.00011142068
0.00015459025
0.00021177698
0.00028574728
0.00037856218
0.00049056216
0.00061895219
0.00075631751
0.00088955202
0.00099983369
0.0010638926
0.001056715
0.00096655641
0.00075767247
0.00050530904
0.000314827
0.00020159669
0.0001430629
0.0001190543
0.000112719
0.00011577924
0.00012224562
0.00013077324
0.00013243536
0.00013147433
0.00012798522
0.00012015485
0.00011580713
0.00011211066
0.00010805761
0.00010474515
0.00010214011
9.9690707e-05
9.7397784e-05
9.5461261e-05
9.3719223e-05
9.2388308e-05
9.0549536e-05
3.3619655e-13
1.0564455e-11
8.6388823e-11
3.7152294e-10
1.143268e-09
2.8849251e-09
6.3971808e-09
1.2964616e-08
2.4601594e-08
4.4412568e-08
7.7116825e-08
1.2980851e-07
2.1305182e-07
3.4245102e-07
5.408894e-07
8.4170348e-07
1.2931535e-06
1.9646699e-06
2.9554958e-06
4.4064969e-06
6.5160349e-06
9.5608352e-06
1.3922574e-05
2.0120229e-05
2.8846657e-05
4.1004755e-05
5.7733077e-05
8.0402019e-05
0.00011054924
0.00014970823
0.00019906912
0.00025893037
0.00032791082
0.00040206582
0.00047407922
0.00053298021
0.00056449489
0.0005542534
0.00049376372
0.00037658837
0.00025605933
0.00017310774
0.00012300857
0.00010134392
9.3559176e-05
9.7398459e-05
0.00010708615
0.00012362103
0.00013298934
0.00013442436
0.00013343527
0.00012986778
0.00012180822
0.00011740836
0.00011346921
0.00010926673
0.00010610345
0.00010309528
0.00010042733
9.7890499e-05
9.611269e-05
9.4237981e-05
9.247817e-05
9.1124638e-05
8.9479905e-05
2.315637e-13
7.2765271e-12
5.9502295e-11
2.5589352e-10
7.8743842e-10
1.9869847e-09
4.4059121e-09
8.9287116e-09
1.6942112e-08
3.058276e-08
5.3097633e-08
8.9365463e-08
1.4664693e-07
2.3565786e-07
3.7209533e-07
5.7879277e-07
8.8873922e-07
1.3492675e-06
2.0277919e-06
3.0195403e-06
4.4577471e-06
6.5266793e-06
9.4775397e-06
1.3646523e-05
1.9472778e-05
2.7511323e-05
3.8431627e-05
5.2986321e-05
7.1926548e-05
9.5834131e-05
0.00012484787
0.00015826431
0.0001940539
0.00022844456
0.00025568111
0.00026831171
0.00025932294
0.00022480478
0.00017243797
0.00012651629
9.3967894e-05
7.8219476e-05
7.1632147e-05
7.605091e-05
8.4721727e-05
0.00010428132
0.00012754804
0.00013492812
0.00013641993
0.00013542688
0.00013188211
0.00012350054
0.00011901134
0.00011477802
0.0001107322
0.00010743647
0.00010421946
0.00010122152
9.8898026e-05
9.6830003e-05
9.4852234e-05
9.30431e-05
9.1440677e-05
9.0336949e-05
8.8859261e-05
1.4403423e-13
4.526047e-12
3.7010678e-11
1.5916531e-10
4.8977617e-10
1.2358401e-09
2.7402089e-09
5.5527526e-09
1.0535326e-08
1.9015343e-08
3.3008947e-08
5.5543321e-08
9.1119286e-08
1.4637096e-07
2.3099966e-07
3.5908514e-07
5.5090787e-07
8.3544974e-07
1.2537688e-06
1.8634531e-06
2.7443166e-06
4.0053549e-06
5.7926345e-06
8.2971094e-06
1.176015e-05
1.6472611e-05
2.2760414e-05
3.0946124e-05
4.1273462e-05
5.3781687e-05
6.8125223e-05
8.3358134e-05
9.7736927e-05
0.00010863102
0.00011261717
0.00010748287
9.3012022e-05
7.5765232e-05
6.1548778e-05
5.3132279e-05
5.0130018e-05
5.4233816e-05
6.1053767e-05
7.6567833e-05
0.00010736906
0.00012880815
0.0001370087
0.00013836208
0.00013739669
0.00013394835
0.00012546009
0.00012058067
0.00011626303
0.00011227066
0.00010892327
0.00010538927
0.00010241838
9.9875607e-05
9.7645877e-05
9.5385424e-05
9.3730388e-05
9.2076649e-05
9.0612901e-05
8.9271989e-05
8.8061079e-05
7.8960425e-14
2.481203e-12
2.0289335e-11
8.7253495e-11
2.6848491e-10
6.7743056e-10
1.5019541e-09
3.0432611e-09
5.7732537e-09
1.041832e-08
1.8080861e-08
3.0414334e-08
4.9873603e-08
8.0070236e-08
1.2627234e-07
1.9610029e-07
3.0048253e-07
4.5494633e-07
6.8132131e-07
1.0099168e-06
1.4821756e-06
2.1536715e-06
3.09705e-06
4.4040337e-06
6.1848428e-06
8.5622694e-06
1.1656359e-05
1.5554338e-05
2.0261167e-05
2.5629269e-05
3.1275684e-05
3.6508397e-05
4.0299537e-05
4.1460083e-05
3.9998433e-05
3.686843e-05
3.3555633e-05
3.096695e-05
3.1440323e-05
3.4944488e-05
4.1126544e-05
5.3414609e-05
7.7488486e-05
0.00011067155
0.00012963209
0.00013838073
0.00014024802
0.00013934932
0.00013612774
0.00012771841
0.00012242804
0.0001177213
0.00011388351
0.00011030891
0.00010672503
0.00010363937
0.00010099081
9.839887e-05
9.6311011e-05
9.4433257e-05
9.2794877e-05
9.1076197e-05
8.9669761e-05
8.8654991e-05
8.760399e-05
3.7485804e-14
1.1779286e-12
9.632099e-12
4.1421601e-11
1.274521e-10
3.2156184e-10
7.1287834e-10
1.4442407e-09
2.7393025e-09
4.9420476e-09
8.5739444e-09
1.4415969e-08
2.362534e-08
3.7900102e-08
5.9708631e-08
9.2605305e-08
1.4165716e-07
2.1400719e-07
3.1959407e-07
4.720287e-07
6.8958208e-07
9.9615032e-07
1.4219033e-06
2.003072e-06
2.7799754e-06
3.7919333e-06
5.0675112e-06
6.6086369e-06
8.3687278e-06
1.0228547e-05
1.1979197e-05
1.3327826e-05
1.4156791e-05
1.4648133e-05
1.5102456e-05
1.5913474e-05
1.7672151e-05
2.0242801e-05
2.6223649e-05
3.5869614e-05
5.3232019e-05
7.9236026e-05
0.00010918637
0.00012742445
0.00013921945
0.00014203526
0.00014125339
0.00013838476
0.00013029926
0.00012426126
0.00011929316
0.00011534178
0.00011182739
0.00010815207
0.0001050914
0.00010213302
9.9490375e-05
9.7234737e-05
9.5316726e-05
9.3340395e-05
9.1780837e-05
9.0295917e-05
8.9039571e-05
8.7922025e-05
8.692591e-05
1.5549665e-14
4.8862116e-13
3.9954868e-12
1.7181637e-11
5.2864531e-11
1.3336728e-10
2.956321e-10
5.9883381e-10
1.1355609e-09
2.0480775e-09
3.5517688e-09
5.9686415e-09
9.7747278e-09
1.566641e-08
2.465196e-08
3.8175725e-08
5.8282829e-08
8.7830934e-08
1.3075063e-07
1.9234409e-07
2.7958819e-07
4.0136694e-07
5.6849323e-07
7.9328966e-07
1.0884111e-06
1.464544e-06
1.92679e-06
2.4701394e-06
3.0757898e-06
3.71247e-06
4.3732534e-06
5.1414142e-06
6.073288e-06
7.2494275e-06
8.7551925e-06
1.1577384e-05
1.6025787e-05
2.3693655e-05
3.5972576e-05
5.4284962e-05
7.817117e-05
0.00010471778
0.0001251831
0.00014014248
0.00014387777
0.00014322113
0.0001407581
0.00013308856
0.00012619968
0.00012102185
0.00011701367
0.00011328463
0.00010978069
0.00010650408
0.00010342505
0.00010061013
9.8308555e-05
9.6081196e-05
9.4184246e-05
9.2462005e-05
9.1050048e-05
8.9492322e-05
8.8284143e-05
8.7309832e-05
8.654467e-05
6.3722375e-15
2.002362e-13
1.6373343e-12
7.0408723e-12
2.1662907e-11
5.4649609e-11
1.2113452e-10
2.453534e-10
4.6521512e-10
8.3894307e-10
1.4546383e-09
2.4439235e-09
4.0012159e-09
6.4106387e-09
1.0083091e-08
1.5606448e-08
2.3812087e-08
3.5860589e-08
5.3347947e-08
7.8430178e-08
1.1395794e-07
1.6360313e-07
2.3194766e-07
3.2449711e-07
4.4759175e-07
6.0823506e-07
8.1394988e-07
1.0743259e-06
1.4072153e-06
1.8512015e-06
2.4710605e-06
3.3569664e-06
4.6755838e-06
6.707803e-06
9.9949369e-06
1.5394335e-05
2.3872872e-05
3.6276007e-05
5.3383407e-05
7.5351978e-05
0.00010069607
0.00012420222
0.00014110449
0.00014589727
0.00014537765
0.00014319479
0.00013607527
0.00012820384
0.00012299934
0.00011873801
0.00011479671
0.00011125104
0.00010807695
0.0001047521
0.00010196877
9.9404363e-05
9.7111503e-05
9.5052314e-05
9.337119e-05
9.1624022e-05
9.019622e-05
8.8825555e-05
8.773938e-05
8.6809251e-05
8.6031782e-05
3.8062483e-15
1.1960483e-13
9.7802167e-13
4.2058305e-12
1.2941092e-11
3.2650475e-11
7.2384093e-11
1.4664635e-10
2.7814882e-10
5.018253e-10
8.70644e-10
1.4639619e-09
2.3994494e-09
3.8499879e-09
6.0674323e-09
9.4157574e-09
1.4416905e-08
2.1813657e-08
3.2655223e-08
4.8413187e-08
7.1138923e-08
1.036804e-07
1.4999121e-07
2.1559806e-07
3.083699e-07
4.398455e-07
6.2738927e-07
8.9837769e-07
1.2963093e-06
1.8935475e-06
2.813013e-06
4.2512341e-06
6.5190713e-06
1.0093241e-05
1.5646247e-05
2.3958218e-05
3.576493e-05
5.1987678e-05
7.3154464e-05
9.845105e-05
0.00012348687
0.00014176097
0.00014787458
0.00014777276
0.00014572459
0.00013896955
0.00013035023
0.00012517459
0.00012062076
0.00011636888
0.00011283104
0.00010958326
0.00010636142
0.00010332701