/*--------------------------------*- C++ -*----------------------------------*\
  =========                 |
  \\      /  F ield         | OpenFOAM: The Open Source CFD Toolbox
   \\    /   O peration     | Website:  https://openfoam.org
    \\  /    A nd           | Version:  13
     \\/     M anipulation  |
\*---------------------------------------------------------------------------*/
FoamFile
{
    format      ascii;
    class       volScalarField;
    location    "29.503311";
    object      pMean;
}
// * * * * * * * * * * * * * * * * * * * * * * * * * * * * * * * * * * * * * //

dimensions      [0 2 -2 0 0 0 0];

internalField   nonuniform List<scalar> 
17140
(
1.474165
1.4740623
1.4739383
1.4738116
1.4736745
1.4735249
1.4733626
1.473187
1.4729979
1.4727949
1.4725776
1.4723458
1.4720992
1.4718373
1.4715593
1.4712634
1.4709464
1.4706035
1.4702266
1.4698036
1.469317
1.4687422
1.4680452
1.4671802
1.4660864
1.4646886
1.4629117
1.4606898
1.4579597
1.454649
1.4506593
1.4458717
1.4401574
1.4333741
1.4253689
1.4159831
1.4050585
1.392449
1.378037
1.3617572
1.3436285
1.3237899
1.3025491
1.2804283
1.2581843
1.2368543
1.2176637
1.2017017
1.1900724
1.1837359
1.1833905
1.1895144
1.2024698
1.2222483
1.2486
1.2806191
1.3174457
1.3567992
1.3983918
1.4379672
1.4775541
1.5077751
1.538683
1.5501071
1.5700982
1.4726122
1.4725116
1.4723901
1.4722661
1.4721318
1.4719853
1.4718262
1.4716542
1.4714688
1.4712698
1.4710568
1.4708296
1.4705879
1.4703314
1.4700591
1.4697693
1.4694592
1.4691237
1.468755
1.4683412
1.4678651
1.467302
1.4666183
1.4657687
1.4646924
1.4633144
1.461559
1.4593602
1.4566544
1.4533683
1.4494025
1.4446379
1.4389455
1.4321824
1.4241953
1.4148245
1.403911
1.3913076
1.3768957
1.3606089
1.3424648
1.3226014
1.3013258
1.2791602
1.2568699
1.2354901
1.2162283
1.2002294
1.1885819
1.1822137
1.1818351
1.187927
1.2008306
1.2205427
1.2468208
1.2787247
1.3154054
1.3545932
1.3960222
1.435444
1.4749269
1.5051815
1.5363342
1.5481283
1.5689118
1.4689487
1.4688532
1.4687381
1.4686202
1.4684925
1.468353
1.4682016
1.4680378
1.4678612
1.4676716
1.4674685
1.467252
1.4670218
1.4667775
1.4665184
1.4662429
1.4659483
1.46563
1.4652803
1.4648878
1.4644356
1.4638996
1.4632468
1.4624323
1.4613965
1.460064
1.458358
1.4562109
1.4535583
1.4503264
1.4464149
1.4417038
1.4360631
1.4293487
1.4214055
1.4120716
1.4011857
1.3885981
1.3741874
1.3578842
1.3397033
1.3197814
1.2984261
1.2761632
1.2537728
1.232304
1.2129389
1.1968467
1.1851364
1.1787223
1.1782887
1.184298
1.197091
1.2166694
1.2427931
1.2744991
1.3109433
1.3498542
1.391008
1.4301851
1.4695316
1.4998975
1.5314897
1.5439623
1.5658287
1.4632435
1.463156
1.4630508
1.4629426
1.4628252
1.4626968
1.4625574
1.4624065
1.4622437
1.4620687
1.4618814
1.4616816
1.4614693
1.4612441
1.4610055
1.4607522
1.4604818
1.4601899
1.4598695
1.4595098
1.4590943
1.4585998
1.4579941
1.4572334
1.4562594
1.4549971
1.4533673
1.4512995
1.4487283
1.4455792
1.4417522
1.437125
1.4315664
1.4249299
1.4170577
1.4077848
1.3969463
1.3843883
1.3699851
1.353663
1.3354324
1.3154286
1.2939612
1.2715628
1.2490353
1.2274422
1.2079447
1.1917459
1.1799589
1.1734863
1.1729876
1.178896
1.1915393
1.210923
1.2368103
1.268202
1.3042597
1.342731
1.3834711
1.4223412
1.4615862
1.4922105
1.5244545
1.5379731
1.5611674
1.4556785
1.4556018
1.45551
1.4554147
1.455311
1.4551977
1.4550744
1.4549408
1.4547965
1.4546413
1.4544751
1.4542978
1.4541093
1.4539097
1.4536984
1.4534746
1.453236
1.452979
1.452697
1.4523799
1.4520123
1.4515718
1.4510273
1.4503363
1.4494425
1.4482723
1.4467435
1.4447804
1.4423159
1.4392766
1.4355618
1.4310477
1.4256002
1.4190706
1.4112975
1.4021116
1.3913435
1.3788342
1.3644522
1.348118
1.3298373
1.3097441
1.2881515
1.2656043
1.2429319
1.2212009
1.2015697
1.1852756
1.1734295
1.1669212
1.1663697
1.1721765
1.1846571
1.2038156
1.2294133
1.2604267
1.2960237
1.3339694
1.3742238
1.4127588
1.451917
1.482907
1.5159764
1.5308244
1.5553505
1.4465522
1.4464886
1.4464131
1.4463336
1.446247
1.4461521
1.4460486
1.4459363
1.4458148
1.4456839
1.4455436
1.4453939
1.4452349
1.4450665
1.4448885
1.4447003
1.4445002
1.444285
1.4440487
1.4437822
1.4434709
1.4430938
1.4426211
1.4420119
1.441212
1.4401506
1.4387429
1.4369064
1.434571
1.4316636
1.4280846
1.4237093
1.4183999
1.4120046
1.4043582
1.3952868
1.3846156
1.3721794
1.3578404
1.3415121
1.3231953
1.3030234
1.281314
1.258629
1.2358274
1.2139682
1.1942341
1.1778793
1.1660092
1.1595003
1.15893
1.1646622
1.1769969
1.1959272
1.2212063
1.2517794
1.2868517
1.3242346
1.3639791
1.4021935
1.4413052
1.4728764
1.5069098
1.5231349
1.5489702
1.4362682
1.4362196
1.4361621
1.4361008
1.4360339
1.4359603
1.4358798
1.4357921
1.435697
1.4355943
1.4354841
1.4353663
1.435241
1.4351086
1.4349688
1.4348212
1.4346645
1.4344959
1.4343105
1.4340997
1.4338502
1.4335422
1.4331474
1.432627
1.4319289
1.4309856
1.4297127
1.4280208
1.4258318
1.4230719
1.4196463
1.4154306
1.4102817
1.4040451
1.3965515
1.3876224
1.3770772
1.3647443
1.3504784
1.3341863
1.3158638
1.2956441
1.2738518
1.2510677
1.2281743
1.2062286
1.1864408
1.1700628
1.1582047
1.1517279
1.1511714
1.1568626
1.1690863
1.1878263
1.2128253
1.2429796
1.2775303
1.3144017
1.3537008
1.391705
1.4308942
1.463172
1.4981297
1.5156152
1.5424435
1.4253146
1.4252823
1.4252439
1.4252027
1.4251573
1.4251071
1.4250519
1.4249914
1.4249254
1.4248538
1.4247767
1.4246941
1.4246061
1.424513
1.4244148
1.4243112
1.4242011
1.4240823
1.4239503
1.4237974
1.4236115
1.423374
1.4230585
1.422628
1.422033
1.4212093
1.4200761
1.4185393
1.4165081
1.4139056
1.4106438
1.4066002
1.4016287
1.3955708
1.3882536
1.3794939
1.3691056
1.3569106
1.3427564
1.3265432
1.3082625
1.2880477
1.2662321
1.243416
1.2204891
1.1985195
1.1787307
1.1623587
1.1505315
1.1441039
1.1435855
1.1492626
1.1614101
1.1800094
1.2047785
1.2346101
1.2687273
1.3051666
1.3441084
1.3820164
1.4213747
1.4544535
1.4902993
1.5090203
1.5365423
1.4142327
1.4142174
1.4141989
1.4141787
1.4141559
1.4141303
1.4141017
1.4140699
1.4140347
1.413996
1.4139539
1.4139085
1.4138598
1.4138081
1.4137535
1.4136956
1.4136336
1.4135655
1.4134872
1.4133917
1.4132679
1.4130986
1.4128589
1.4125139
1.4120167
1.4113064
1.4103063
1.4089241
1.4070595
1.4046202
1.4015219
1.397655
1.3928711
1.3870056
1.3798842
1.3713194
1.3611201
1.3491024
1.3351074
1.3190298
1.3008573
1.2807246
1.2589723
1.2362171
1.2133407
1.1914266
1.1716934
1.1553563
1.1435727
1.1371986
1.1367161
1.1423894
1.1545032
1.1730177
1.1976183
1.2271983
1.2609619
1.2970731
1.3358245
1.3739428
1.4138676
1.4479172
1.4844768
1.5038191
1.5312883
1.40358
1.4035816
1.4035829
1.4035836
1.4035836
1.4035827
1.4035809
1.4035779
1.4035738
1.4035685
1.403562
1.4035543
1.4035456
1.4035359
1.4035252
1.4035133
1.4034991
1.4034807
1.4034544
1.4034136
1.4033479
1.4032413
1.4030701
1.4028016
1.4023915
1.401782
1.4009005
1.3996586
1.3979559
1.3956871
1.392753
1.3890531
1.3844564
1.3787955
1.371887
1.3635413
1.3535644
1.3417684
1.3279901
1.3121201
1.2941436
1.2741959
1.2526232
1.2300487
1.2073414
1.1855907
1.1659902
1.1497442
1.1380292
1.1317052
1.1312621
1.1369723
1.149099
1.167565
1.1920629
1.2214686
1.2550291
1.2910866
1.3299967
1.3685435
1.4089384
1.4436735
1.4802082
1.4996541
1.5266863
1.3938806
1.393898
1.3939182
1.3939387
1.3939603
1.393983
1.3940068
1.3940317
1.3940576
1.3940846
1.3941126
1.3941417
1.394172
1.3942033
1.3942355
1.3942681
1.3943
1.3943292
1.3943519
1.3943618
1.3943488
1.3942978
1.3941864
1.3939835
1.3936471
1.3931224
1.3923407
1.391218
1.3896565
1.3875494
1.3847873
1.3812581
1.3768375
1.3713752
1.3646917
1.3565908
1.346875
1.3353547
1.3218641
1.3062918
1.2886222
1.2689913
1.2477488
1.2255062
1.2031257
1.181685
1.1623404
1.1462828
1.1346867
1.1284386
1.1280476
1.1337567
1.1458447
1.1642597
1.1886716
1.2179688
1.251445
1.2875618
1.3266529
1.3655958
1.4063661
1.4413825
1.4775523
1.4969376
1.523045
1.3855816
1.3856131
1.3856499
1.3856881
1.385729
1.385773
1.38582
1.3858701
1.3859234
1.38598
1.3860399
1.3861031
1.3861696
1.3862391
1.3863114
1.3863858
1.3864609
1.3865345
1.3866024
1.3866585
1.3866929
1.3866908
1.3866307
1.386483
1.3862074
1.385752
1.3850514
1.3840261
1.3825822
1.3806146
1.3780114
1.3746556
1.3704218
1.3651639
1.3587123
1.3508776
1.3414638
1.3302803
1.3171616
1.3019958
1.2847676
1.2656124
1.2448777
1.2231542
1.20129
1.1803312
1.1613982
1.1456565
1.1342721
1.128105
1.1276422
1.1332341
1.1451917
1.1634873
1.1877554
1.2169155
1.2503406
1.2866029
1.3260164
1.3654785
1.4065217
1.4414742
1.4765069
1.4953357
1.5199976
1.379004
1.3790469
1.3790972
1.3791499
1.3792067
1.3792682
1.3793345
1.3794059
1.3794825
1.3795644
1.3796517
1.3797445
1.3798427
1.3799461
1.3800543
1.3801663
1.3802805
1.3803945
1.3805041
1.3806027
1.3806805
1.380723
1.3807094
1.3806108
1.3803887
1.379993
1.3793613
1.378418
1.3770745
1.3752286
1.3727683
1.3695771
1.365532
1.360493
1.3542991
1.3467661
1.3377035
1.3269255
1.3142734
1.2996368
1.2830013
1.2644978
1.2444614
1.2234647
1.2023229
1.1820245
1.1636554
1.1483694
1.137216
1.1310393
1.1304152
1.1358175
1.1475839
1.1656826
1.1897453
1.2187615
1.2522661
1.2888596
1.3286887
1.3684058
1.4090226
1.442909
1.4765956
1.4945784
1.5176507
1.3743138
1.3743648
1.3744246
1.3744877
1.374556
1.3746304
1.374711
1.3747983
1.3748925
1.3749938
1.3751025
1.3752188
1.3753425
1.3754735
1.3756114
1.3757551
1.3759031
1.3760527
1.3761995
1.3763372
1.3764559
1.3765413
1.3765733
1.3765239
1.3763556
1.37602
1.3754565
1.3745926
1.3733439
1.3716148
1.3693037
1.3662671
1.3624185
1.3576161
1.3517056
1.3445125
1.3358664
1.3255836
1.3135081
1.2995361
1.2836543
1.2659858
1.2468458
1.2267764
1.2065398
1.1870604
1.1694018
1.1545915
1.1436279
1.13739
1.1365764
1.1417159
1.1532167
1.1710489
1.1948303
1.2237371
1.2573029
1.2942036
1.3341744
1.3735634
1.4130406
1.4457454
1.477448
1.4943407
1.5159538
1.3714973
1.3715524
1.3716175
1.3716862
1.371761
1.3718428
1.3719319
1.3720287
1.3721338
1.3722476
1.3723703
1.3725023
1.3726437
1.3727945
1.3729542
1.3731222
1.3732969
1.3734758
1.3736548
1.3738278
1.3739855
1.3741142
1.3741947
1.3742003
1.3740949
1.373832
1.373353
1.3725873
1.371453
1.3698556
1.3676968
1.3648997
1.3612808
1.3566909
1.3511059
1.344321
1.3361542
1.3264465
1.315059
1.3018906
1.2869238
1.2702685
1.2522113
1.2332401
1.2140509
1.1955326
1.178602
1.1642351
1.1534386
1.14711
1.1460459
1.1508887
1.1620679
1.1795427
1.2029941
1.2317381
1.2654412
1.3024275
1.3420258
1.3804519
1.4183856
1.449083
1.4786432
1.4944846
1.5146698
1.370388
1.3704436
1.3705095
1.3705792
1.3706552
1.3707387
1.3708301
1.3709299
1.3710388
1.3711572
1.3712858
1.3714249
1.371575
1.3717362
1.3719085
1.3720915
1.3722839
1.3724838
1.3726878
1.3728905
1.3730837
1.3732551
1.3733873
1.3734557
1.3734267
1.3732559
1.372887
1.372251
1.371267
1.3698446
1.3678871
1.3652953
1.3619258
1.3577496
1.3525343
1.3461492
1.3385517
1.3295442
1.3189794
1.3067592
1.2928639
1.2773844
1.2605612
1.242819
1.224805
1.2072569
1.1910343
1.1770925
1.1664015
1.1599576
1.1586371
1.1631523
1.1739548
1.1909709
1.2140787
1.2427585
1.2763575
1.3128868
1.3516443
1.3885485
1.4241738
1.4526896
1.4802099
1.4949088
1.5138733
1.3706708
1.3707235
1.3707865
1.3708527
1.3709252
1.3710052
1.3710931
1.3711895
1.3712952
1.3714109
1.3715372
1.3716748
1.3718243
1.3719862
1.3721608
1.3723482
1.3725477
1.3727581
1.3729771
1.3732005
1.3734218
1.3736309
1.373813
1.373947
1.3740031
1.3739414
1.3737089
1.3732403
1.3724571
1.3712693
1.36958
1.3672837
1.3642999
1.3604985
1.3557337
1.3500182
1.3430889
1.3348439
1.3252094
1.3140706
1.3013888
1.2872177
1.2717437
1.2553429
1.2385113
1.2219205
1.2063908
1.1927956
1.1821829
1.1756085
1.1740291
1.1781943
1.1884771
1.2050833
1.2278897
1.2563799
1.2893709
1.32531
1.3624219
1.3970627
1.4302291
1.4564581
1.4820361
1.495703
1.5136118
1.3719802
1.3720272
1.3720839
1.3721432
1.3722083
1.3722804
1.37236
1.3724478
1.3725444
1.3726508
1.3727676
1.3728958
1.3730361
1.3731894
1.3733563
1.3735373
1.3737326
1.3739418
1.3741637
1.3743958
1.3746339
1.3748707
1.3750951
1.3752906
1.3754334
1.37549
1.3754153
1.3751506
1.3746226
1.3737444
1.3724193
1.3705418
1.3680154
1.3647344
1.3606224
1.3555248
1.3493797
1.3421344
1.33357
1.3236355
1.3122847
1.2995249
1.2854984
1.2704503
1.2547954
1.2391522
1.224224
1.2109389
1.2003818
1.1936734
1.1918028
1.1954825
1.2053414
1.2215221
1.2440149
1.2719328
1.304497
1.3387802
1.3735811
1.4058167
1.4362297
1.460457
1.48425
1.4969484
1.5139112
1.3739153
1.3739549
1.374003
1.374053
1.3741082
1.3741695
1.3742375
1.3743129
1.3743963
1.3744886
1.3745906
1.3747033
1.3748275
1.3749645
1.375115
1.3752801
1.3754604
1.3756566
1.3758685
1.3760953
1.3763349
1.3765832
1.3768334
1.3770742
1.3772889
1.3774529
1.3775315
1.3774771
1.3772281
1.3767072
1.3758233
1.3744741
1.3725559
1.3699578
1.366596
1.3623764
1.3572345
1.3510158
1.3436788
1.3351152
1.3252118
1.3139613
1.3014059
1.2877111
1.2732254
1.2584308
1.2440581
1.2310199
1.2204829
1.2135693
1.2113185
1.2145474
1.2239483
1.2397778
1.2618474
1.2894168
1.3206192
1.3525034
1.3850548
1.414246
1.4424005
1.464703
1.4868824
1.498652
1.5147777
1.3761372
1.3761687
1.3762071
1.376247
1.3762911
1.3763404
1.3763952
1.3764563
1.3765242
1.3765998
1.3766838
1.3767773
1.3768812
1.3769966
1.3771247
1.3772666
1.3774236
1.3775967
1.377787
1.3779948
1.37822
1.3784613
1.3787156
1.3789771
1.3792364
1.3794783
1.3796804
1.3798103
1.3798232
1.3796599
1.3792456
1.378491
1.3772966
1.3755553
1.3731689
1.3700269
1.3660325
1.3611181
1.3551817
1.3480861
1.3397391
1.3300419
1.3189713
1.3066211
1.2931993
1.2791758
1.2652507
1.2524163
1.2417872
1.2346063
1.231939
1.2347422
1.2439211
1.2595103
1.2813385
1.3079004
1.3367504
1.366556
1.3958848
1.4227624
1.4487046
1.4692571
1.489964
1.5008416
1.516219
1.3783754
1.378399
1.3784274
1.3784574
1.3784907
1.378528
1.3785697
1.3786163
1.3786684
1.3787267
1.3787919
1.378865
1.3789468
1.3790383
1.3791409
1.3792558
1.3793843
1.379528
1.3796882
1.3798664
1.3800638
1.380281
1.3805179
1.3807733
1.3810441
1.381324
1.3816023
1.381862
1.3820779
1.3822144
1.3822228
1.3820388
1.3815831
1.380761
1.3794698
1.3775967
1.3750297
1.3716409
1.3672951
1.3618712
1.355196
1.3471157
1.3375413
1.3264407
1.3139909
1.300608
1.2870271
1.274251
1.2634848
1.2560167
1.2530428
1.2558239
1.2649955
1.2805743
1.3018278
1.3263372
1.353203
1.3799132
1.4067658
1.4312775
1.4552215
1.4741494
1.4935043
1.5035243
1.5182367
1.3804717
1.3804881
1.3805076
1.3805287
1.3805521
1.3805784
1.3806079
1.3806411
1.3806785
1.3807206
1.3807682
1.3808219
1.3808823
1.3809504
1.381027
1.3811133
1.3812109
1.3813213
1.3814464
1.3815879
1.3817478
1.3819281
1.3821308
1.3823579
1.3826105
1.3828891
1.3831926
1.3835175
1.383857
1.3841996
1.3845254
1.384804
1.3849917
1.3850247
1.3848181
1.3842611
1.3832193
1.3815316
1.3790105
1.3754396
1.3705835
1.3642105
1.3561079
1.346198
1.334614
1.3217446
1.3083882
1.2956004
1.2846101
1.2770331
1.2743156
1.2774396
1.2870444
1.3024738
1.3222475
1.344538
1.3689881
1.392991
1.4174254
1.4398722
1.4619839
1.4793967
1.4975116
1.5067108
1.5208321
1.3823569
1.3823669
1.3823789
1.3823919
1.3824065
1.382423
1.3824416
1.3824629
1.3824875
1.3825148
1.3825442
1.3825765
1.3826136
1.3826575
1.3827098
1.3827713
1.3828416
1.3829213
1.3830116
1.3831142
1.3832318
1.3833677
1.3835256
1.3837094
1.3839235
1.3841726
1.3844624
1.3848
1.385192
1.3856451
1.3861658
1.3867578
1.3874149
1.3881179
1.3888213
1.3894423
1.3898492
1.3898465
1.3891815
1.3875469
1.384588
1.3799542
1.3733358
1.3645965
1.3537957
1.3413503
1.3281104
1.3151907
1.3043961
1.2975093
1.2955747
1.2996293
1.3095447
1.32407
1.3417332
1.3623747
1.3837956
1.4056833
1.4280415
1.4485743
1.4690056
1.4850117
1.5019911
1.5103962
1.5239936
1.3840409
1.3840449
1.3840498
1.3840551
1.384061
1.3840678
1.384076
1.3840859
1.3840975
1.384111
1.3841267
1.3841449
1.3841662
1.3841908
1.3842191
1.384251
1.384288
1.3843332
1.3843884
1.3844528
1.3845279
1.3846186
1.3847311
1.3848708
1.3850412
1.3852478
1.3855016
1.3858167
1.386209
1.3866978
1.3873057
1.3880661
1.3890083
1.3901451
1.3914774
1.3929676
1.3945089
1.3959115
1.3968817
1.3970166
1.3958525
1.3928956
1.3877304
1.3801021
1.3700152
1.3579492
1.3450189
1.3327587
1.323322
1.3176872
1.317129
1.3219288
1.3315527
1.3443482
1.3607014
1.3786551
1.3982765
1.4181791
1.4386055
1.4573993
1.476293
1.4909939
1.506938
1.5145858
1.5277199
1.3855195
1.3855174
1.3855148
1.3855123
1.3855096
1.3855068
1.3855042
1.385502
1.3855011
1.3855016
1.3855024
1.3855017
1.3855
1.3854986
1.3854993
1.3855046
1.3855166
1.3855375
1.3855678
1.3856049
1.3856479
1.385702
1.3857735
1.3858681
1.3859924
1.3861551
1.3863686
1.3866509
1.3870247
1.3875163
1.3881577
1.3889918
1.3900639
1.3914156
1.3930866
1.395077
1.3973165
1.3996397
1.4017679
1.4032585
1.4035636
1.4020584
1.3982077
1.3915787
1.3823095
1.3711722
1.3596166
1.3492359
1.341498
1.3376702
1.3382649
1.3431542
1.3518807
1.3638124
1.3782028
1.3945514
1.4123167
1.4304288
1.4491566
1.4663634
1.4838544
1.4973489
1.5123438
1.5192727
1.5320004
1.386739
1.3867304
1.3867203
1.3867097
1.3866982
1.3866856
1.3866721
1.386658
1.3866435
1.3866285
1.3866127
1.3865958
1.3865787
1.3865628
1.3865489
1.3865374
1.3865276
1.386519
1.3865138
1.3865161
1.3865294
1.3865575
1.3866028
1.3866684
1.386763
1.3868989
1.3870879
1.3873457
1.3876951
1.3881633
1.3887895
1.3896184
1.3906981
1.3920948
1.3938677
1.3960452
1.3985969
1.4013913
1.404179
1.4065292
1.4078334
1.4073778
1.4045209
1.3990471
1.3912932
1.3820735
1.3727177
1.3645517
1.3590218
1.3567762
1.3577723
1.3629326
1.3708899
1.3819329
1.3949561
1.409747
1.425977
1.4425229
1.4597117
1.4754764
1.4916924
1.5040736
1.5182054
1.5244534
1.5368279
1.3874438
1.3874299
1.3874136
1.3873964
1.3873777
1.3873575
1.3873355
1.3873118
1.3872864
1.3872593
1.3872305
1.3872004
1.3871692
1.3871377
1.3871063
1.3870763
1.3870488
1.3870252
1.3870066
1.3869942
1.3869904
1.3869983
1.3870212
1.387063
1.3871321
1.3872433
1.3874117
1.38765
1.387976
1.3884189
1.3890193
1.3898218
1.3908739
1.3922449
1.3939912
1.3961396
1.3987021
1.4016103
1.4046125
1.407305
1.4091094
1.4094649
1.4078604
1.4040724
1.3983279
1.3915289
1.3846626
1.3788816
1.3754584
1.3740297
1.3761162
1.3812011
1.3889966
1.3988964
1.4108887
1.4244527
1.439327
1.4544677
1.4702881
1.4847488
1.4998086
1.5111663
1.5245115
1.530116
1.5421938
1.3874037
1.3873874
1.3873682
1.3873479
1.387326
1.3873022
1.3872764
1.3872486
1.3872189
1.3871872
1.3871536
1.3871184
1.3870819
1.3870443
1.3870064
1.3869688
1.3869326
1.3868991
1.3868701
1.3868478
1.3868347
1.3868356
1.3868571
1.3869035
1.386976
1.3870804
1.387232
1.3874499
1.3877456
1.3881401
1.3886866
1.3894323
1.3903993
1.3916295
1.3931988
1.3951892
1.3976101
1.4004142
1.4034248
1.4063156
1.4086737
1.4099608
1.4097044
1.4076974
1.4041956
1.3998854
1.3953537
1.3920926
1.3901145
1.390272
1.3933416
1.3983458
1.4056496
1.4150238
1.4261969
1.4386865
1.452395
1.4663043
1.4809057
1.4941895
1.5082024
1.5186236
1.5312563
1.5362663
1.5480902
1.3863518
1.3863373
1.3863202
1.3863023
1.3862828
1.3862617
1.3862388
1.3862142
1.3861878
1.3861597
1.3861301
1.386099
1.3860668
1.3860338
1.3860008
1.3859682
1.3859373
1.385909
1.3858851
1.3858676
1.3858588
1.3858618
1.3858809
1.3859212
1.3859899
1.3860933
1.3862388
1.3864402
1.386725
1.3871096
1.3876084
1.3882643
1.389127
1.3902602
1.3917307
1.393587
1.3958622
1.3985619
1.4016003
1.4047433
1.4076346
1.4098352
1.410932
1.4107263
1.4094305
1.4072607
1.4052935
1.4041661
1.4038781
1.4055492
1.4089604
1.4142637
1.4215239
1.4304356
1.4409245
1.4525317
1.4652367
1.4780598
1.4915802
1.5038056
1.5168752
1.5264422
1.5384301
1.5428907
1.5544924
1.3844594
1.3844495
1.3844378
1.3844256
1.3844123
1.384398
1.3843825
1.3843659
1.3843483
1.3843297
1.3843103
1.3842902
1.3842698
1.3842494
1.3842297
1.3842113
1.3841953
1.3841828
1.3841755
1.3841753
1.3841847
1.3842068
1.3842456
1.384305
1.3843899
1.3845067
1.3846679
1.3848871
1.3851665
1.3855291
1.3860263
1.3866933
1.3875457
1.388629
1.3900339
1.3918402
1.3940929
1.3968151
1.3999694
1.4034034
1.4068501
1.409958
1.4123053
1.4138105
1.414269
1.4143802
1.4148752
1.4153452
1.4167336
1.4194924
1.4236998
1.4293692
1.4365935
1.4452127
1.4551792
1.4660464
1.4778919
1.4897649
1.50233
1.5136074
1.5258282
1.5346181
1.5460225
1.5499778
1.5613976
1.3818848
1.3818799
1.3818743
1.3818684
1.3818621
1.3818555
1.3818485
1.3818413
1.3818339
1.3818265
1.3818193
1.3818127
1.3818069
1.3818026
1.3818003
1.381801
1.3818056
1.3818156
1.3818329
1.3818597
1.3818992
1.3819538
1.3820277
1.3821239
1.3822458
1.3824056
1.3826127
1.3828879
1.3832553
1.383712
1.3842689
1.3849761
1.3858858
1.3870503
1.3885319
1.3904025
1.3927318
1.3955767
1.3989405
1.4027498
1.4067907
1.4107446
1.4143101
1.4171257
1.4193939
1.4217779
1.4237629
1.4258671
1.428878
1.4327309
1.4376476
1.4437214
1.4510541
1.459488
1.4690408
1.4792965
1.4904089
1.5014498
1.5131742
1.5235981
1.5350581
1.5431411
1.5540291
1.5575012
1.5688277
1.3788207
1.3788197
1.3788188
1.3788179
1.3788172
1.3788168
1.3788168
1.3788173
1.3788187
1.3788211
1.3788248
1.3788305
1.3788385
1.3788497
1.378865
1.3788854
1.3789126
1.3789483
1.3789948
1.379055
1.3791322
1.3792294
1.3793512
1.3795026
1.3796956
1.3799488
1.3802646
1.3806397
1.3810952
1.3816598
1.3823557
1.3832147
1.3842762
1.3855868
1.3872151
1.3892494
1.3917776
1.3948839
1.3986126
1.4029105
1.4075876
1.4124011
1.4169302
1.4210033
1.425163
1.4289225
1.4323748
1.4362667
1.4405087
1.4453585
1.4510161
1.4575359
1.4650225
1.4733538
1.4825937
1.4923437
1.5028309
1.5131444
1.5241278
1.533785
1.54457
1.5520031
1.5624427
1.565451
1.5767339
1.3751744
1.3751762
1.3751785
1.3751813
1.3751847
1.375189
1.3751945
1.3752013
1.3752097
1.3752203
1.3752336
1.3752502
1.3752709
1.3752969
1.3753293
1.3753698
1.3754203
1.3754832
1.3755616
1.375659
1.3757793
1.375929
1.376115
1.3763445
1.3766265
1.3769684
1.3773818
1.3778815
1.378484
1.379209
1.3800809
1.3811271
1.3823851
1.3839191
1.3858085
1.3881451
1.3910427
1.3946083
1.3988819
1.4037988
1.409196
1.414787
1.4201625
1.4256921
1.4310841
1.436128
1.4412539
1.446402
1.4518053
1.4576132
1.4639718
1.470939
1.4786257
1.4869174
1.495919
1.5052499
1.5152031
1.5248791
1.5352097
1.5441787
1.5543667
1.5611969
1.5712565
1.5738203
1.5850976
1.3706826
1.3706872
1.370693
1.3706996
1.3707074
1.3707167
1.3707279
1.3707413
1.3707575
1.370777
1.3708007
1.3708294
1.3708642
1.3709066
1.3709583
1.3710213
1.3710982
1.3711921
1.3713066
1.3714464
1.3716166
1.3718248
1.3720775
1.3723826
1.372751
1.3731945
1.3737269
1.3743644
1.3751242
1.3760248
1.3770913
1.3783653
1.379902
1.3817663
1.3840524
1.3868788
1.3903673
1.394611
1.3995959
1.405268
1.411432
1.4176725
1.4242387
1.4309388
1.4374687
1.4438728
1.4501854
1.4565167
1.4629702
1.469644
1.4766675
1.4840764
1.4919806
1.5002731
1.5090939
1.5180746
1.5275686
1.5366838
1.5464364
1.5547883
1.5644428
1.5707318
1.580451
1.5826045
1.593907
1.3649574
1.3649664
1.3649774
1.3649897
1.3650039
1.3650206
1.3650401
1.365063
1.36509
1.3651218
1.3651596
1.3652045
1.3652579
1.3653215
1.3653977
1.3654889
1.3655982
1.3657294
1.3658869
1.3660761
1.3663032
1.3665756
1.3669021
1.3672927
1.36776
1.3683176
1.3689785
1.3697602
1.3706865
1.3717883
1.3731038
1.3746826
1.3765933
1.3789297
1.381807
1.3853485
1.3896562
1.3947662
1.4006287
1.407179
1.4140329
1.4213291
1.4290701
1.4367662
1.4443975
1.4519042
1.4593467
1.4667339
1.4741325
1.4816035
1.4892438
1.4970711
1.5051966
1.513514
1.5221932
1.5308757
1.53997
1.5485879
1.5578255
1.5656202
1.5748011
1.5805899
1.5900176
1.5917863
1.6031327
1.3576397
1.3576552
1.357674
1.3576948
1.3577186
1.3577459
1.3577775
1.3578139
1.3578562
1.3579053
1.3579624
1.3580292
1.3581074
1.3581992
1.3583072
1.3584343
1.3585843
1.3587617
1.3589715
1.3592194
1.3595129
1.3598616
1.3602746
1.3607621
1.3613368
1.3620157
1.3628211
1.3637772
1.364915
1.366276
1.367916
1.3699103
1.3723552
1.3753666
1.3790666
1.3835578
1.3888894
1.3950374
1.4019426
1.4093308
1.4172454
1.4258044
1.4344713
1.4431585
1.4517973
1.4603693
1.4688332
1.4771783
1.485435
1.4936269
1.5018296
1.510043
1.5183781
1.5267277
1.5352885
1.543709
1.5524479
1.560619
1.5693922
1.576689
1.5854297
1.5907791
1.5999303
1.6013591
1.6127358
1.3484467
1.3484711
1.3485007
1.3485331
1.3485696
1.3486113
1.3486588
1.3487132
1.3487754
1.3488469
1.3489291
1.3490239
1.3491335
1.3492605
1.3494075
1.3495769
1.3497742
1.3500074
1.3502802
1.3505967
1.3509654
1.3513973
1.3519049
1.3525019
1.3532043
1.3540334
1.3550165
1.3561892
1.3575994
1.3593108
1.3614064
1.3639907
1.3671851
1.3711157
1.3758841
1.3815448
1.3880877
1.3954492
1.4034328
1.4119413
1.4212293
1.4307808
1.4404003
1.450082
1.4597573
1.4693283
1.4787435
1.4879658
1.4969976
1.5058377
1.5145435
1.5231008
1.5316213
1.5399968
1.5484469
1.5566266
1.5650401
1.5728059
1.5811548
1.5879974
1.5963376
1.6012949
1.6101811
1.6112817
1.6227471
1.3371045
1.3371402
1.3371833
1.33723
1.3372826
1.3373423
1.3374099
1.3374864
1.337573
1.3376703
1.337778
1.3379014
1.3380507
1.3382243
1.3384173
1.3386361
1.3388892
1.3391823
1.3395222
1.3399165
1.3403738
1.340905
1.3415248
1.3422514
1.343108
1.3441253
1.3453441
1.3468193
1.3486233
1.3508499
1.353614
1.3570455
1.3612759
1.3664106
1.3724985
1.3795458
1.3874662
1.3960979
1.4053154
1.4153201
1.4257251
1.4362511
1.4469455
1.4576958
1.4683772
1.4789023
1.4892026
1.4992231
1.5089489
1.5183599
1.5275017
1.5363495
1.5450175
1.5533982
1.561731
1.5696794
1.5777841
1.5851707
1.5931233
1.5995552
1.6075234
1.6121526
1.6207585
1.6217362
1.6329946
1.3236223
1.3236725
1.323731
1.3237902
1.3238539
1.3239313
1.3240279
1.324136
1.3242492
1.3243739
1.3245167
1.3246799
1.3248663
1.325079
1.325321
1.3255967
1.3259139
1.3262798
1.3266976
1.3271767
1.3277317
1.3283782
1.3291359
1.3300311
1.3310991
1.3323868
1.3339572
1.3358923
1.3382962
1.3412934
1.3450216
1.3496142
1.3551802
1.3617693
1.3693825
1.3779625
1.3872751
1.3972587
1.4080581
1.4193338
1.4308161
1.4425279
1.4543508
1.4661443
1.477805
1.489233
1.5003493
1.5110876
1.5214219
1.5313211
1.5408234
1.5498988
1.5586637
1.5670148
1.5752089
1.5829188
1.590717
1.5977417
1.6053111
1.6113615
1.6189643
1.623306
1.6316131
1.6323427
1.6434473
1.3080835
1.3081514
1.30822
1.3082881
1.3083685
1.3084625
1.3085706
1.3086945
1.3088372
1.3090021
1.3091928
1.3094105
1.309653
1.3099189
1.3102131
1.3105451
1.3109232
1.3113546
1.311849
1.3124189
1.31308
1.3138533
1.3147667
1.3158578
1.3171775
1.3187939
1.3207966
1.3232997
1.3264409
1.3303749
1.3352573
1.3412147
1.3483265
1.3566007
1.3659571
1.3761786
1.3872173
1.3990484
1.4113964
1.4239594
1.4367747
1.4497244
1.4626727
1.4755072
1.4881154
1.5003926
1.5122549
1.5236307
1.5344886
1.5447922
1.5545769
1.5638108
1.5726155
1.5808945
1.5889191
1.5963761
1.6038598
1.6105286
1.6177236
1.6234248
1.6306728
1.6348531
1.6428593
1.6440275
1.6555513
1.2903248
1.2904031
1.2904972
1.2905986
1.2907104
1.290835
1.2909738
1.2911286
1.2913013
1.2914941
1.2917097
1.2919512
1.292222
1.2925267
1.2928705
1.29326
1.2937034
1.2942112
1.294797
1.2954786
1.2962797
1.2972323
1.2983792
1.299778
1.3015048
1.3036584
1.3063626
1.3097652
1.3140309
1.3193253
1.3257887
1.3335073
1.3425042
1.3526769
1.3638793
1.3760273
1.3890192
1.4025368
1.4162714
1.4302845
1.4444524
1.4586361
1.4727204
1.4865821
1.5001034
1.5131775
1.5257177
1.5376515
1.5489457
1.5595648
1.5695412
1.5788505
1.5876173
1.5957588
1.6035573
1.6107188
1.6178523
1.6241451
1.6309421
1.6362917
1.6431495
1.6472085
1.6546702
1.656916
1.665525
1.2720907
1.272183
1.2722958
1.2724124
1.2725409
1.2726841
1.2728432
1.27302
1.2732168
1.273436
1.2736808
1.2739547
1.2742623
1.2746089
1.2750017
1.2754496
1.2759643
1.2765614
1.2772613
1.2780918
1.27909
1.2803054
1.2818042
1.2836725
1.2860205
1.2889836
1.292721
1.2974066
1.3032128
1.3102849
1.3187111
1.3285151
1.3395949
1.3518129
1.3651032
1.3791121
1.3936439
1.4084991
1.4237007
1.4391013
1.4545496
1.4699157
1.4850653
1.4998663
1.5141972
1.5279494
1.5410376
1.5533919
1.5649815
1.5757756
1.5858102
1.5950709
1.6036869
1.6115972
1.6190841
1.625892
1.632614
1.6385078
1.6448612
1.649867
1.656309
1.6602093
1.6672912
1.6696786
1.6777875
1.25561
1.2557122
1.2558369
1.2559655
1.2561069
1.256264
1.2564381
1.2566313
1.2568458
1.2570848
1.2573517
1.2576509
1.2579882
1.2583709
1.2588084
1.2593135
1.2599029
1.2605992
1.2614327
1.2624441
1.2636876
1.2652345
1.2671776
1.2696337
1.2727463
1.2766828
1.2816266
1.2877613
1.2952466
1.304188
1.3146172
1.3264655
1.3396059
1.3539466
1.3689289
1.384433
1.4004724
1.4168944
1.4335254
1.4502206
1.4668443
1.4832538
1.4993106
1.5148809
1.5298432
1.5440928
1.5575486
1.5701474
1.5818628
1.5926731
1.6026187
1.6117025
1.6200557
1.6276453
1.634745
1.641149
1.6474137
1.6528955
1.6587732
1.6634646
1.6694342
1.6732875
1.6798188
1.6828589
1.6899289
1.2437744
1.2438814
1.2440117
1.2441459
1.2442932
1.2444565
1.2446373
1.2448379
1.2450609
1.2453098
1.2455889
1.2459039
1.2462622
1.2466735
1.2471509
1.2477119
1.2483803
1.2491876
1.2501764
1.2514029
1.2529412
1.2548862
1.2573579
1.2605023
1.2644904
1.2695109
1.2757556
1.2833979
1.2925635
1.303304
1.3155777
1.3292676
1.344236
1.3599596
1.3763102
1.3934503
1.4109551
1.4286815
1.4465002
1.4642659
1.4818331
1.4990548
1.5157881
1.5318988
1.547268
1.5617959
1.5754078
1.5880493
1.5996992
1.6103486
1.6200438
1.6288076
1.6367739
1.6439406
1.6505665
1.6565048
1.6622561
1.667299
1.6726675
1.6770377
1.6825219
1.6862862
1.6923335
1.6955565
1.7021739
1.2382092
1.2383161
1.2384456
1.2385793
1.2387257
1.238888
1.2390678
1.2392677
1.2394906
1.2397408
1.2400237
1.2403465
1.2407188
1.2411536
1.2416684
1.2422869
1.2430407
1.2439723
1.2451378
1.2466104
1.2484845
1.2508782
1.2539359
1.257827
1.2627407
1.2688734
1.2764095
1.285495
1.2962094
1.308543
1.322396
1.3376082
1.3538244
1.3708358
1.3887228
1.4070139
1.4255925
1.4443127
1.4630211
1.4815651
1.4997901
1.5175425
1.5346771
1.5510616
1.5665809
1.5811421
1.5946779
1.6071404
1.6185206
1.6288193
1.6380956
1.6463921
1.6538438
1.6604821
1.666545
1.6719484
1.6771296
1.6816978
1.6865261
1.6905635
1.6955545
1.699242
1.7048178
1.7083958
1.7145683
1.2410327
1.2411343
1.241256
1.2413831
1.2415224
1.2416768
1.2418483
1.2420396
1.2422545
1.2424979
1.2427764
1.2430992
1.2434785
1.2439309
1.2444789
1.245153
1.2459934
1.2470539
1.2484041
1.2501339
1.2523561
1.2552088
1.2588554
1.2634805
1.2692803
1.2764466
1.2851432
1.2954789
1.3074833
1.3210927
1.3361568
1.3524543
1.369738
1.3878786
1.406553
1.4256144
1.4448942
1.4642316
1.4834661
1.5024343
1.5209737
1.5389261