/*--------------------------------*- C++ -*----------------------------------*\
  =========                 |
  \\      /  F ield         | OpenFOAM: The Open Source CFD Toolbox
   \\    /   O peration     | Website:  https://openfoam.org
    \\  /    A nd           | Version:  13
     \\/     M anipulation  |
\*---------------------------------------------------------------------------*/
FoamFile
{
    format      ascii;
    class       volVectorField;
    location    "29.503311";
    object      U;
}
// * * * * * * * * * * * * * * * * * * * * * * * * * * * * * * * * * * * * * //

dimensions      [0 1 -1 0 0 0 0];

internalField   nonuniform List<vector> 
17140
(
(1.3471237e-06 -0.00010649439 2.4857209e-23)
(2.6196171e-06 -0.00032978241 2.7535307e-24)
(1.7430384e-06 -0.0005769042 -1.8169861e-22)
(-2.0484743e-06 -0.00085086022 1.9967875e-22)
(-9.6644103e-06 -0.0011548725 -2.3333363e-23)
(-2.2281915e-05 -0.0014924872 7.6331837e-23)
(-4.1389458e-05 -0.0018675069 1.2843361e-22)
(-6.8831796e-05 -0.002283963 -6.263498e-23)
(-0.00010689351 -0.0027460802 -2.0485111e-22)
(-0.00015838827 -0.0032582209 -5.0187596e-22)
(-0.00022676645 -0.0038248044 7.4304812e-22)
(-0.0003162373 -0.0044501986 -6.6099517e-22)
(-0.00043190986 -0.0051385779 -1.0100329e-22)
(-0.00057995086 -0.0058937435 5.6925977e-22)
(-0.00076775967 -0.006718896 -6.3021257e-23)
(-0.0010041568 -0.0076163568 4.9696769e-22)
(-0.0012995806 -0.0085872311 -1.8370846e-23)
(-0.001666284 -0.0096310082 4.1299481e-24)
(-0.0021185163 -0.010745097 2.8847179e-22)
(-0.002672671 -0.011924304 -3.7042684e-22)
(-0.0033473724 -0.013160255 1.764701e-22)
(-0.0041634612 -0.014440797 -3.3124617e-23)
(-0.0051438336 -0.01574941 -2.4101679e-22)
(-0.0063130677 -0.017064692 2.3593073e-22)
(-0.0076967654 -0.018360022 3.684296e-22)
(-0.0093205199 -0.019603559 -2.8969008e-22)
(-0.011208422 -0.020758817 -1.3909291e-21)
(-0.013381036 -0.021786213 -1.6025236e-22)
(-0.015852851 -0.022646173 1.3700641e-21)
(-0.018629408 -0.023304504 3.1193365e-22)
(-0.021704632 -0.023740355 1.0792689e-21)
(-0.025059433 -0.023955313 -1.3703974e-21)
(-0.028662948 -0.023978816 3.4275952e-22)
(-0.032477239 -0.023863525 1.5559552e-22)
(-0.036464027 -0.023670138 1.4599319e-21)
(-0.040589947 -0.023450999 -6.0619317e-22)
(-0.04482795 -0.023242448 8.6833272e-22)
(-0.049155825 -0.023066455 5.6125435e-22)
(-0.053554357 -0.022935908 2.4770189e-22)
(-0.058006586 -0.022859186 -7.2763347e-22)
(-0.062498379 -0.022842601 -1.3456356e-21)
(-0.067020098 -0.022890788 -1.206432e-21)
(-0.071569491 -0.023005298 -5.2439778e-22)
(-0.076154625 -0.023181356 2.5585934e-21)
(-0.080798038 -0.023402953 1.8844856e-21)
(-0.085543877 -0.023634506 -4.6856946e-22)
(-0.09045291 -0.02380962 3.2185806e-21)
(-0.095604128 -0.023821915 1.1070446e-21)
(-0.10109419 -0.023507634 -1.1419845e-21)
(-0.10703493 -0.022617697 -2.8256291e-21)
(-0.1135249 -0.020784713 1.7588368e-21)
(-0.12066517 -0.017466505 1.1189172e-21)
(-0.12844377 -0.011885716 -2.9387721e-21)
(-0.13683509 -0.0029315858 -1.3920811e-21)
(-0.14536357 0.010846364 -9.9120658e-22)
(-0.15349381 0.031201942 7.7051559e-22)
(-0.15946027 0.059590431 -2.0225596e-21)
(-0.16185329 0.09582685 -1.650452e-21)
(-0.15639997 0.13599448 -3.9287057e-22)
(-0.1422905 0.17070916 9.8559849e-22)
(-0.11693611 0.18511467 7.1924491e-22)
(-0.089766212 0.15964525 2.6462379e-21)
(-0.04596599 0.075230809 3.6932784e-22)
(0.020600773 -0.070473756 -2.7654052e-21)
(0.1364697 -0.21031713 1.2582784e-21)
(2.9086673e-06 -7.3156401e-05 -7.0707336e-24)
(7.3920719e-06 -0.00022654553 9.5218311e-22)
(1.0183621e-05 -0.00039644057 -8.4712507e-22)
(1.0426178e-05 -0.00058512792 2.308459e-22)
(7.1607309e-06 -0.00079527071 4.7671413e-22)
(-3.8794162e-07 -0.0010297079 -9.1047985e-22)
(-1.3901713e-05 -0.0012914308 9.4845384e-22)
(-3.5088376e-05 -0.0015836853 -8.3408257e-23)
(-6.6159337e-05 -0.0019099115 2.6015465e-22)
(-0.0001098465 -0.0022736988 4.4111718e-24)
(-0.00016953467 -0.0026787232 8.6619807e-22)
(-0.00024936308 -0.0031286662 -1.3735134e-21)
(-0.00035438222 -0.0036271079 -1.1319184e-22)
(-0.00049071292 -0.0041773885 1.1135688e-21)
(-0.00066572804 -0.0047824343 -3.4053103e-22)
(-0.00088824736 -0.0054445419 -2.1510318e-22)
(-0.0011687425 -0.0061651158 1.3566871e-21)
(-0.0015195419 -0.0069443576 -4.3845375e-21)
(-0.0019550227 -0.0077809031 2.7188544e-21)
(-0.0024917682 -0.0086714132 -3.2206421e-21)
(-0.0031486638 -0.009610127 4.6947496e-21)
(-0.0039468917 -0.010588399 -1.1333094e-21)
(-0.0049097755 -0.011594251 -4.592788e-22)
(-0.0060624099 -0.012612006 1.4745001e-21)
(-0.0074309982 -0.013622076 -5.2002961e-21)
(-0.0090418082 -0.014601052 -7.6073825e-22)
(-0.010919654 -0.015522283 3.8577293e-21)
(-0.01308583 -0.016357257 -4.2327447e-21)
(-0.015555499 -0.017078165 5.6710363e-22)
(-0.018334721 -0.017662075 5.4304949e-21)
(-0.021417676 -0.018096726 -5.4714822e-22)
(-0.024785162 -0.018386571 -4.059521e-21)
(-0.028405813 -0.018555497 -9.9999393e-23)
(-0.032240867 -0.018642187 2.782936e-21)
(-0.036251121 -0.018688782 -2.9540125e-21)
(-0.040402436 -0.018729947 1.2649016e-21)
(-0.044667232 -0.018788671 -1.412882e-21)
(-0.049022967 -0.018878209 -4.3082103e-21)
(-0.05345019 -0.019005959 -9.3202238e-22)
(-0.057931677 -0.019176412 -3.5402623e-21)
(-0.06245291 -0.019392428 4.4519669e-21)
(-0.067003569 -0.019654897 4.0567073e-21)
(-0.07158023 -0.019960966 6.9387719e-22)
(-0.076189061 -0.020300712 -5.5529919e-21)
(-0.0808494 -0.020652021 2.6424413e-21)
(-0.08560046 -0.02097369 9.2659539e-22)
(-0.090495287 -0.021196704 -5.1332559e-22)
(-0.09560077 -0.021213136 -1.5924197e-21)
(-0.1009954 -0.020859448 7.914166e-22)
(-0.10676466 -0.019892377 -1.4273419e-21)
(-0.11296853 -0.017956701 -8.7612699e-21)
(-0.11965522 -0.014533281 -4.3381704e-22)
(-0.12673944 -0.0088822642 1.9359376e-21)
(-0.13410821 3.9688013e-05 -4.214778e-21)
(-0.14118542 0.013577556 3.6062126e-21)
(-0.14738429 0.03334184 -1.0052245e-20)
(-0.15103414 0.060621503 -2.7300662e-21)
(-0.15103846 0.095077879 7.6657953e-21)
(-0.14364643 0.13276813 -1.2593849e-21)
(-0.12837029 0.16469137 -1.3915469e-21)
(-0.10204894 0.17733721 -2.6340297e-22)
(-0.073172819 0.14951346 3.937349e-21)
(-0.022428434 0.058947359 -7.166461e-21)
(0.062168006 -0.096965108 -2.4007346e-21)
(0.1957101 -0.23895587 -1.7618504e-21)
(2.6187938e-06 -3.9356699e-05 -3.8902226e-22)
(6.544526e-06 -0.00012187717 2.8747555e-22)
(8.7016676e-06 -0.00021360832 7.6440715e-23)
(8.3929021e-06 -0.00031622779 -7.245034e-23)
(4.6036168e-06 -0.00043158478 3.5098542e-22)
(-3.5057288e-06 -0.00056157901 2.6112456e-23)
(-1.7291622e-05 -0.0007084368 3.3314171e-22)
(-3.8703304e-05 -0.00087472835 3.5869427e-22)
(-6.9737854e-05 -0.0010630739 -2.9282304e-21)
(-0.00011309112 -0.0012762589 2.6113425e-21)
(-0.0001720766 -0.0015171839 -1.2477553e-21)
(-0.00025075839 -0.0017888115 -1.8249522e-21)
(-0.000354101 -0.0020940954 3.6101863e-21)
(-0.00048813744 -0.0024358853 4.4575882e-22)
(-0.00066014961 -0.0028168075 -1.7137755e-21)
(-0.00087886638 -0.0032391134 -1.1727497e-21)
(-0.0011546712 -0.0037044953 1.3521735e-21)
(-0.0014998114 -0.0042138655 -4.8605759e-21)
(-0.001928594 -0.0047670986 2.8481684e-21)
(-0.0024575498 -0.0053627397 -1.394914e-21)
(-0.0031055347 -0.0059976882 4.648438e-21)
(-0.0038937317 -0.006666874 1.1939233e-21)
(-0.0048455019 -0.0073629567 -2.4529668e-21)
(-0.0059860203 -0.0080760983 3.6338922e-21)
(-0.0073416186 -0.0087938821 1.4072352e-21)
(-0.0089387426 -0.0095014897 -1.6581426e-21)
(-0.010802432 -0.010182286 -9.2519074e-21)
(-0.012954245 -0.010819014 -4.1090511e-21)
(-0.015409632 -0.011395822 2.0058106e-21)
(-0.018174943 -0.011901231 -2.1062026e-21)
(-0.02124462 -0.012331754 1.2773753e-21)
(-0.02459966 -0.012694871 7.0454597e-21)
(-0.028208791 -0.013009033 -2.2730916e-21)
(-0.032033221 -0.013298942 -6.5218363e-21)
(-0.036033598 -0.013587996 2.0702038e-21)
(-0.04017552 -0.013892864 2.769937e-21)
(-0.04443107 -0.014222842 -4.582586e-21)
(-0.048777312 -0.014582208 -1.3422021e-21)
(-0.053194289 -0.01497272 2.3132957e-21)
(-0.057664066 -0.015394951 9.0894039e-22)
(-0.062171097 -0.015848359 -4.2919146e-21)
(-0.066703593 -0.016330238 1.2004941e-21)
(-0.07125596 -0.016833603 1.7530607e-21)
(-0.075831081 -0.017343826 4.7204292e-21)
(-0.080443406 -0.017833354 -9.0879367e-21)
(-0.085124615 -0.018256272 5.9665339e-21)
(-0.089916573 -0.018542343 1.5203929e-21)
(-0.094869931 -0.018584009 6.1597426e-21)
(-0.10003932 -0.01822056 7.5076842e-21)
(-0.10547627 -0.017217959 3.9337129e-22)
(-0.11119245 -0.015237541 -1.5910759e-21)
(-0.1171715 -0.011788417 1.2260406e-20)
(-0.12324017 -0.0061733415 5.2583762e-21)
(-0.1291822 0.0025808398 5.4314998e-21)
(-0.13429548 0.015721808 1.7207053e-21)
(-0.13791333 0.034754422 1.3403271e-20)
(-0.13841017 0.060880102 -4.9774623e-21)
(-0.13490749 0.093594145 1.3576751e-21)
(-0.12379032 0.12904789 1.2045695e-20)
(-0.10477693 0.15857708 4.7536158e-21)
(-0.074300943 0.16969199 -5.6972391e-21)
(-0.039341277 0.1391023 -2.0780898e-20)
(0.025815509 0.040543164 6.3188687e-21)
(0.1382225 -0.12582821 9.9024215e-21)
(0.29155789 -0.2657743 2.673837e-21)
(4.6226806e-07 -5.7351154e-06 1.3017369e-21)
(-7.1109817e-08 -1.7759222e-05 -2.071055e-21)
(-2.8228076e-06 -3.1594474e-05 7.4868385e-22)
(-8.4800511e-06 -4.8197499e-05 -8.1363947e-23)
(-1.7858798e-05 -6.8708619e-05 1.6081091e-21)
(-3.2024503e-05 -9.4435772e-05 -1.6630771e-21)
(-5.2334592e-05 -0.00012680057 2.5215946e-21)
(-8.0483351e-05 -0.00016742369 -1.1854518e-21)
(-0.00011858327 -0.00021809997 -4.5040099e-21)
(-0.00016925519 -0.00028078226 1.0817622e-21)
(-0.00023573632 -0.00035756543 4.1154562e-21)
(-0.00032200345 -0.00045066114 -1.2542612e-21)
(-0.00043291615 -0.00056236146 -8.3544815e-23)
(-0.00057437826 -0.00069498879 3.2683744e-21)
(-0.00075351782 -0.00085082948 -1.019268e-20)
(-0.00097888253 -0.0010320489 6.233331e-21)
(-0.0012606457 -0.0012405852 5.925596e-23)
(-0.0016108137 -0.0014780201 -3.4124703e-21)
(-0.0020434225 -0.0017454268 8.6075703e-21)
(-0.0025747012 -0.0020431979 -4.0299807e-21)
(-0.0032231771 -0.0023708607 -5.9578335e-21)
(-0.0040096818 -0.0027268949 -2.3890835e-21)
(-0.0049572094 -0.0031085788 1.1685807e-20)
(-0.0060905625 -0.0035119054 6.037546e-21)
(-0.007435708 -0.0039316316 -3.8523791e-21)
(-0.009018751 -0.004361544 2.2211604e-21)
(-0.010864434 -0.0047950516 -8.2098004e-21)
(-0.01299409 -0.0052262106 2.3272483e-21)
(-0.015423043 -0.0056512285 -6.182051e-21)
(-0.018157665 -0.0060702795 3.4331321e-21)
(-0.021192628 -0.0064890041 -2.0827825e-21)
(-0.024509411 -0.0069184575 7.4526743e-21)
(-0.028077467 -0.0073722781 -1.0349929e-21)
(-0.031858823 -0.0078616481 5.2718867e-21)
(-0.035814775 -0.0083913345 -4.8353002e-21)
(-0.039911222 -0.0089597574 -1.4880751e-21)
(-0.044120153 -0.0095620961 1.7687179e-20)
(-0.048418166 -0.010193267 4.4504996e-21)
(-0.052784495 -0.010849153 -3.571593e-21)
(-0.057200047 -0.011526317 3.4328814e-21)
(-0.061647679 -0.012220844 -8.6719614e-22)
(-0.066113362 -0.012926579 -5.4427764e-21)
(-0.070588325 -0.013632732 2.5591844e-22)
(-0.075070795 -0.014320489 1.844068e-21)
(-0.079568735 -0.014957679 -9.0449104e-22)
(-0.0841037 -0.015494688 4.4699184e-22)
(-0.088703013 -0.01586154 1.344169e-21)
(-0.093397134 -0.015953062 -2.1339725e-20)
(-0.098211275 -0.015614232 2.4080219e-21)
(-0.10315564 -0.014623849 -2.2705997e-21)
(-0.10818416 -0.012664198 2.1541595e-20)
(-0.11320459 -0.0092778069 -1.1917751e-20)
(-0.11794186 -0.0038147437 -9.7198997e-21)
(-0.12206295 0.0046246115 -9.1873846e-21)
(-0.12471594 0.017197322 -8.6858149e-21)
(-0.12514045 0.035333776 -1.3370503e-20)
(-0.12174198 0.060216999 2.6005584e-20)
(-0.11375292 0.091186477 -1.5549221e-20)
(-0.096927513 0.12447487 -2.3063499e-20)
(-0.070650506 0.15180193 1.6781714e-20)
(-0.032042376 0.16163588 5.4114394e-21)
(0.015402605 0.12751167 4.5435385e-21)
(0.10622462 0.019079947 -2.9098486e-20)
(0.25632994 -0.15642858 -1.9115138e-20)
(0.42487738 -0.28758199 1.6711209e-22)
(-3.5444029e-06 2.7162629e-05 -9.1614148e-22)
(-1.2423361e-05 8.4127215e-05 3.0414469e-21)
(-2.4293546e-05 0.00014649395 -2.479133e-21)
(-3.9873421e-05 0.00021398795 9.3669638e-22)
(-6.0003335e-05 0.00028622682 3.3833908e-22)
(-8.5771852e-05 0.0003626991 -2.910448e-21)
(-0.00011854296 0.00044275758 7.3676673e-22)
(-0.00016000857 0.00052561152 1.5638958e-21)
(-0.00021226054 0.00061031857 1.1991036e-22)
(-0.00027788187 0.00069577784 1.0181533e-21)
(-0.00036004685 0.00078072542 -1.4244677e-21)
(-0.00046264149 0.00086373263 9.8896682e-22)
(-0.00059039997 0.0009432079 3.6393602e-21)
(-0.00074906054 0.0010174037 1.0601245e-22)
(-0.00094553846 0.0010844291 -2.7703616e-21)
(-0.0011881146 0.0011422701 -1.9570443e-21)
(-0.0014866341 0.0011888181 1.6786015e-21)
(-0.0018527075 0.0012219079 -1.6017822e-22)
(-0.002299901 0.0012393643 -3.2425816e-21)
(-0.0028438964 0.0012390547 -3.9276488e-21)
(-0.0035025938 0.0012189421 4.4500488e-21)
(-0.0042961206 0.0011771251 4.442001e-21)
(-0.005246697 0.0011118437 -5.9220578e-21)
(-0.0063782945 0.0010214165 7.2539e-21)
(-0.0077160126 0.00090405976 1.2432481e-20)
(-0.0092850834 0.00075752374 -2.8946103e-20)
(-0.011109412 0.00057848208 1.5730911e-20)
(-0.013209584 0.00036165081 -2.2985834e-20)
(-0.015600354 9.8754862e-05 2.827329e-20)
(-0.018287805 -0.00022221721 -3.1000257e-20)
(-0.021266754 -0.00061651826 3.1369552e-20)
(-0.024519405 -0.0010996449 -5.1343897e-21)
(-0.028016531 -0.001681587 -1.7193173e-20)
(-0.031721806 -0.0023610862 9.3230309e-21)
(-0.035598004 -0.0031247896 -2.7856051e-21)
(-0.039611907 -0.0039527041 -7.7670446e-22)
(-0.043735663 -0.0048253694 -9.200683e-21)
(-0.047945378 -0.0057278096 -2.8964837e-21)
(-0.052219249 -0.0066496474 -2.8158266e-21)
(-0.056536629 -0.0075832415 -2.7261587e-21)
(-0.060878199 -0.0085213145 1.3670685e-20)
(-0.065226918 -0.0094544646 -5.9610309e-21)
(-0.069569814 -0.010368474 -9.496964e-22)
(-0.073899115 -0.011240885 1.1027758e-20)
(-0.078214723 -0.012035806 5.6560215e-21)
(-0.082525653 -0.012701345 -2.8329601e-21)
(-0.086841275 -0.013168928 -1.037913e-20)
(-0.091167987 -0.01333804 4.6111689e-21)
(-0.095496005 -0.013062501 -1.3526455e-20)
(-0.099786756 -0.012137716 -7.4094244e-21)
(-0.10392673 -0.010271294 -1.0327447e-20)
(-0.10773597 -0.0070441607 -2.7571228e-20)
(-0.11082358 -0.0018573573 2.1250964e-20)
(-0.11272595 0.0061116439 -6.7749283e-21)
(-0.11241984 0.01793972 1.1533299e-20)
(-0.10905399 0.035029832 1.0801112e-20)
(-0.10114996 0.058538639 3.7427216e-21)
(-0.087333589 0.087557714 3.5755371e-20)
(-0.061734232 0.11855959 9.603452e-21)
(-0.024799568 0.1438669 -2.1887259e-20)
(0.026315105 0.15224773 -8.716509e-21)
(0.095089191 0.11304314 6.9225735e-21)
(0.2239857 -0.0063684531 1.4872595e-20)
(0.4113084 -0.18730909 2.2749531e-20)
(0.58081297 -0.30279639 -3.3660455e-22)
(-9.2977809e-06 5.8790345e-05 -2.7908418e-21)
(-3.0267156e-05 0.00018206908 -9.8503371e-22)
(-5.5284642e-05 0.00031772104 7.9731327e-22)
(-8.5244602e-05 0.00046612962 2.9438837e-21)
(-0.0001210034 0.0006276451 -1.6126583e-21)
(-0.00016369884 0.00080252469 2.32046e-21)
(-0.00021473509 0.00099092794 -1.0037088e-21)
(-0.00027582527 0.0011929028 -2.3899617e-22)
(-0.0003490654 0.0014083664 1.3519507e-21)
(-0.00043701629 0.0016370833 2.9121352e-21)
(-0.00054280003 0.001878642 1.4637161e-22)
(-0.00067021105 0.002132427 -4.7800804e-21)
(-0.00082384488 0.0023975884 6.6069481e-21)
(-0.0010092436 0.0026730069 -1.0655381e-20)
(-0.0012330584 0.0029572555 2.7805188e-21)
(-0.0015032257 0.0032485571 -5.8985934e-21)
(-0.0018291545 0.0035447378 7.1157065e-21)
(-0.0022219144 0.0038431758 -4.6104108e-21)
(-0.0026944147 0.0041407451 7.2544423e-22)
(-0.0032615554 0.0044337506 2.9342653e-21)
(-0.0039403233 0.0047178502 -7.1044338e-21)
(-0.0047498002 0.0049879527 9.9768759e-21)
(-0.005711034 0.0052380754 -1.0791033e-20)
(-0.0068467136 0.005461132 -1.844953e-21)
(-0.0081805722 0.0056486134 1.7965613e-20)
(-0.0097364339 0.0057901173 -1.8028141e-20)
(-0.011536816 0.0058726988 1.1624299e-20)
(-0.013601022 0.0058800959 -1.2931429e-20)
(-0.015942754 0.0057920925 -1.2252014e-21)
(-0.018567448 0.0055847123 -7.5742431e-22)
(-0.021469903 0.0052325159 4.9189434e-21)
(-0.024633177 0.0047143727 -3.2965796e-22)
(-0.028029833 0.0040222157 1.7667957e-20)
(-0.031625943 0.0031680193 -4.6086049e-21)
(-0.035386586 0.0021822492 -1.3290127e-20)
(-0.039280085 0.0011032892 5.9409422e-21)
(-0.043279102 -3.4137194e-05 -4.68209e-21)
(-0.047359311 -0.0012044227 4.5382129e-21)
(-0.051497688 -0.0023903965 2.4540558e-20)
(-0.05567163 -0.0035799639 -1.3266521e-20)
(-0.059859057 -0.0047624795 -3.2129454e-21)
(-0.064039148 -0.0059254916 1.8076931e-20)
(-0.068193714 -0.0070517648 -1.0325425e-21)
(-0.072307666 -0.0081157892 -2.2169531e-21)
(-0.076371073 -0.0090788637 -2.434168e-20)
(-0.080378425 -0.0098884174 -5.7052723e-21)
(-0.084317734 -0.010478611 9.0760274e-21)
(-0.088166973 -0.010755817 9.3813521e-21)
(-0.091875811 -0.010586123 1.3454062e-20)
(-0.095348822 -0.0097855533 1.6670348e-20)
(-0.098394393 -0.008091369 1.0152042e-20)
(-0.10073096 -0.0051276226 1.5978826e-20)
(-0.10183388 -0.00034892936 -5.3872248e-21)
(-0.10108891 0.0069865715 3.2744169e-20)
(-0.097270501 0.017888311 1.9820866e-21)
(-0.089478504 0.033811229 1.6512813e-21)
(-0.076078534 0.055704318 6.5474717e-22)
(-0.053388577 0.08231718 -3.900827e-20)
(-0.015235914 0.11083364 -1.4783005e-20)
(0.034330159 0.13418223 2.3157697e-20)
(0.10173988 0.14019617 3.586711e-20)
(0.20059455 0.09395584 1.8475286e-20)
(0.3726822 -0.035295012 6.1055049e-21)
(0.58278496 -0.21454451 -3.2968421e-20)
(0.7316055 -0.31072317 5.2014699e-21)
(-1.6704872e-05 8.8552931e-05 5.2720272e-22)
(-5.3097495e-05 0.00027425501 1.6754759e-21)
(-9.5019821e-05 0.00047890335 -4.0436702e-21)
(-0.00014343385 0.00070354447 1.5025002e-22)
(-0.00019929189 0.00094923682 1.9684254e-21)
(-0.00026380911 0.0012169911 8.6752621e-22)
(-0.00033845522 0.001507762 6.404927e-22)
(-0.0004249932 0.0018224281 -1.2618909e-21)
(-0.00052554696 0.0021617636 6.5312841e-21)
(-0.00064267611 0.002526404 -4.9268657e-21)
(-0.00077946393 0.0029168045 2.38352e-22)
(-0.00093961856 0.0033331891 2.9798194e-21)
(-0.0011275901 0.0037754897 -1.1141338e-20)
(-0.0013487028 0.0042432733 1.109693e-20)
(-0.0016093026 0.0047356557 -1.4766167e-21)
(-0.0019169176 0.0052512001 -9.129364e-21)
(-0.0022804268 0.0057877994 8.5733067e-21)
(-0.0027102319 0.0063425407 -2.991056e-21)
(-0.0032184182 0.0069115497 5.7995193e-21)
(-0.0038188913 0.0074898123 -7.4227977e-21)
(-0.0045274615 0.0080709692 -1.3892408e-20)
(-0.0053618477 0.0086470739 1.3694302e-20)
(-0.0063415517 0.0092083012 1.9963842e-20)
(-0.0074875498 0.0097425842 -3.8271797e-20)
(-0.0088217275 0.01023515 3.0466677e-20)
(-0.010365978 0.010667929 -1.7536537e-20)
(-0.012140883 0.011018843 4.4761605e-21)
(-0.014163914 0.011261081 -1.0476698e-20)
(-0.016447205 0.011362773 1.0587776e-20)
(-0.018995114 0.011287938 1.4086356e-20)
(-0.021802152 0.011000335 -9.1970374e-21)
(-0.024852197 0.01047175 -1.4935987e-20)
(-0.028119891 0.0096938002 1.2690947e-21)
(-0.031574324 0.0086867833 5.1002257e-22)
(-0.035183676 0.0074966983 8.6999918e-21)
(-0.038918545 0.0061800375 -3.6184296e-21)
(-0.042752577 0.0047874292 -1.2745263e-20)
(-0.046661159 0.0033559946 -6.2070478e-21)
(-0.050619897 0.0019103813 9.1816645e-21)
(-0.054603859 0.00046749917 -7.0687085e-21)
(-0.058587628 -0.00095857412 5.9516001e-21)
(-0.062545825 -0.0023525253 -1.9465135e-21)
(-0.066453993 -0.0036945331 -7.5255262e-21)
(-0.070288459 -0.004956711 1.8165747e-20)
(-0.07402777 -0.0060984292 1.0908272e-20)
(-0.077649434 -0.0070679046 7.1965212e-21)
(-0.081117103 -0.0078041064 -2.2949493e-20)
(-0.084375554 -0.0082222252 -1.5047522e-20)
(-0.087327682 -0.0082043441 -1.7787348e-20)
(-0.089811918 -0.0075914574 -3.1177574e-20)
(-0.091545614 -0.0061549483 1.0667389e-20)
(-0.092127085 -0.0035667871 -2.3063145e-21)
(-0.090872498 0.00066354059 -1.7667294e-20)
(-0.086984892 0.0071933939 -5.0829343e-20)
(-0.078975006 0.017023407 -3.2460659e-20)
(-0.065999992 0.031498149 -1.2292362e-20)
(-0.044467954 0.051293073 -3.5051416e-20)
(-0.0091322951 0.074995516 2.3402217e-20)
(0.043180271 0.1013397 -2.004434e-21)
(0.10600941 0.12268302 -3.742578e-20)
(0.19346788 0.12453326 -2.7584341e-20)
(0.32832697 0.069720665 -1.3337376e-21)
(0.53903677 -0.065122767 5.4852618e-20)
(0.75401411 -0.23435429 -5.307374e-21)
(0.86250992 -0.31044876 3.763684e-21)
(-2.5525785e-05 0.00011589322 2.0826565e-21)
(-8.0292103e-05 0.00035896588 -1.4048705e-21)
(-0.00014236529 0.00062706031 1.8976107e-21)
(-0.0002127983 0.00092185668 1.0784803e-21)
(-0.0002926692 0.0012450921 -3.0091282e-21)
(-0.00038329933 0.0015985042 -2.8087952e-21)
(-0.00048625261 0.0019838189 2.8816329e-21)
(-0.00060336971 0.0024027267 -3.4677752e-22)
(-0.00073682848 0.0028568459 -8.0324099e-23)
(-0.00088921006 0.003347678 -5.7038328e-21)
(-0.0010635768 0.003876551 6.2485905e-22)
(-0.0012635612 0.0044445482 1.1492795e-20)
(-0.0014934692 0.0050524209 -9.1847355e-21)
(-0.0017583959 0.0057004811 3.1599176e-22)
(-0.0020643544 0.0063884722 6.1477513e-21)
(-0.0024184159 0.0071154145 5.2849658e-22)
(-0.0028288566 0.0078794217 -1.3429534e-21)
(-0.0033053063 0.0086774874 -6.0436159e-21)
(-0.0038588872 0.0095052365 1.1052338e-20)
(-0.0045023288 0.010356639 -1.9392504e-20)
(-0.005250037 0.011223683 4.1697271e-21)
(-0.0061180871 0.012095996 -3.0563348e-21)
(-0.0071240997 0.012960406 2.4989088e-21)
(-0.008286946 0.013800427 -1.0798512e-22)
(-0.0096262169 0.014595642 1.4695151e-20)
(-0.011161379 0.015320976 1.4570798e-20)
(-0.012910544 0.01594589 -2.8668889e-20)
(-0.014888798 0.016433662 -4.7450067e-21)
(-0.017106164 0.016741233 1.6358985e-20)
(-0.019565417 0.016820733 5.7475018e-21)
(-0.022260374 0.016624539 1.2878373e-20)
(-0.025175508 0.016115753 -1.4238281e-20)
(-0.0282876 0.015282996 -6.0948984e-21)
(-0.031569173 0.014151809 1.3721802e-20)
(-0.034992223 0.012781455 -5.5666316e-21)
(-0.038530388 0.011245841 -2.6057511e-21)
(-0.042158871 0.0096120814 7.1635414e-21)
(-0.04585302 0.0079298328 1.822841e-20)
(-0.049587 0.0062320793 5.4167862e-21)
(-0.053333209 0.0045410372 -3.5044835e-21)
(-0.057062313 0.0028743531 -8.2406845e-21)
(-0.060743588 0.0012500384 -8.4963675e-21)
(-0.064345197 -0.00030991134 -9.4116756e-21)
(-0.067833645 -0.0017758816 -1.9837624e-20)
(-0.071174263 -0.0031063615 5.7512196e-22)
(-0.074324546 -0.0042519116 -8.5190578e-21)
(-0.077220735 -0.0051582102 4.7097711e-20)
(-0.079769305 -0.0057517504 1.3179227e-20)
(-0.081818603 -0.005934535 1.5191748e-20)
(-0.083129361 -0.0055773048 4.2236947e-20)
(-0.083310761 -0.0044904796 -4.9274425e-20)
(-0.08181397 -0.0023991541 1.0890615e-20)
(-0.07775639 0.0011319405 3.4607557e-20)
(-0.070088694 0.006677483 4.1719293e-20)
(-0.057049218 0.015258605 5.2281011e-21)
(-0.037287977 0.027807858 -1.2258557e-20)
(-0.0039228002 0.044838568 -1.9017436e-20)
(0.045503378 0.065466238 7.722522e-21)
(0.11046875 0.089885107 -1.3227209e-20)
(0.1883284 0.10910107 1.1919678e-20)
(0.30082594 0.10472212 4.5618452e-21)
(0.47322555 0.041356892 1.5375421e-20)
(0.71442954 -0.09307122 -6.7777849e-20)
(0.91305305 -0.24308647 -4.0467053e-22)
(0.96774774 -0.29649537 -1.1859782e-20)
(-3.5490919e-05 0.00014030824 -1.9577621e-21)
(-0.00011102108 0.00043463885 -5.2445953e-22)
(-0.00019587743 0.0007594595 5.7614415e-22)
(-0.0002912264 0.0011170457 2.8313901e-21)
(-0.00039829885 0.0015097723 -3.394863e-21)
(-0.00051854922 0.0019400654 2.8818552e-21)
(-0.00065366318 0.0024103872 1.3768355e-21)
(-0.00080558661 0.0029232082 -7.3700776e-23)
(-0.00097657812 0.0034809662 -1.1608897e-21)
(-0.0011692653 0.0040860126 -6.5972412e-21)
(-0.0013867112 0.0047405438 1.1065951e-20)
(-0.00163249 0.0054465134 -1.3279498e-20)
(-0.0019107731 0.0062055227 3.8935202e-21)
(-0.0022264268 0.0070186846 5.2750348e-21)
(-0.0025851193 0.0078864564 -8.0729257e-21)
(-0.0029934367 0.0088084392 1.5873126e-20)
(-0.0034590037 0.0097831363 -1.9182867e-20)
(-0.0039906039 0.010807669 -3.0186854e-22)
(-0.0045982916 0.011877444 -1.0922328e-20)
(-0.0052934798 0.012985768 4.3185694e-20)
(-0.0060889871 0.014123404 -1.0414732e-20)
(-0.0069990149 0.015278067 -4.2929043e-20)
(-0.0080390191 0.016433838 2.0204931e-20)
(-0.0092254269 0.017570496 2.4008723e-20)
(-0.010575138 0.018662747 -6.0076572e-21)
(-0.012104738 0.019679346 -3.132503e-20)
(-0.013829366 0.020582163 4.722316e-20)
(-0.01576118 0.021325399 -5.2091563e-20)
(-0.017907518 0.021855501 4.0731485e-20)
(-0.020269 0.022113022 -7.7270261e-21)
(-0.022838202 0.022038529 1.3131454e-20)
(-0.025599739 0.021584814 1.8424621e-20)
(-0.028532299 0.020734522 -7.0511436e-21)
(-0.031611978 0.0195147 -1.7466867e-21)
(-0.03481513 0.017994806 -2.4769649e-20)
(-0.038119203 0.016264887 4.5946466e-21)
(-0.041501629 0.014408932 -1.1501983e-20)
(-0.04493809 0.01249025 9.5021014e-21)
(-0.048401326 0.010551207 -5.3694041e-21)
(-0.051860763 0.0086199715 -3.4915843e-21)
(-0.055282569 0.0067179927 -2.9804668e-21)
(-0.058629829 0.0048658656 -2.8996481e-21)
(-0.06186217 0.0030873972 1.7783285e-20)
(-0.064934891 0.001413336 1.4162381e-20)
(-0.067798073 -0.00011517848 -3.9843723e-21)
(-0.070385987 -0.0014526155 2.6075177e-21)
(-0.072603572 -0.0025530964 -1.0832204e-20)
(-0.074312911 -0.0033575037 2.1833376e-20)
(-0.075297687 -0.0037920388 2.5594094e-20)
(-0.075225172 -0.0037625468 7.4028781e-21)
(-0.073571912 -0.0031243821 1.9523698e-20)
(-0.069600946 -0.0016624199 -6.2291572e-22)
(-0.062170668 0.00099934898 -9.3405083e-21)
(-0.049864309 0.0053798716 -4.3244643e-20)
(-0.030622883 0.012377307 2.1180653e-20)
(-0.0012327881 0.022315707 -7.7819652e-21)
(0.045531917 0.036136229 2.2947996e-20)
(0.10722033 0.05420232 -3.6106731e-20)
(0.18436408 0.076559861 2.0502703e-20)
(0.28253296 0.092524479 -7.239798e-21)
(0.42539846 0.081306993 -1.4271065e-22)
(0.6363437 0.010790189 -7.4398433e-21)
(0.89269243 -0.11483125 -2.5466485e-20)
(1.0449448 -0.24006264 4.2208411e-20)
(1.0377572 -0.27225587 -2.1880416e-20)
(-4.627871e-05 0.00016135965 4.3789718e-21)
(-0.00014429472 0.00049991801 3.0128786e-21)
(-0.00025383532 0.00087373195 -4.729418e-21)
(-0.00037620063 0.0012856235 1.2451064e-22)
(-0.00051279757 0.0017385538 4.2755099e-21)
(-0.00066523795 0.0022355876 2.2354832e-21)
(-0.00083535465 0.0027798751 -4.7108869e-21)
(-0.0010252252 0.0033746235 7.7355739e-22)
(-0.0012372158 0.0040230521 -1.0904216e-20)
(-0.0014740271 0.0047283331 2.1249165e-21)
(-0.0017387483 0.0054935143 5.4460024e-23)
(-0.0020349181 0.0063214192 -7.8138531e-21)
(-0.0023665927 0.0072145199 2.5035084e-20)
(-0.002738423 0.0081747772 -1.166308e-20)
(-0.0031557373 0.0092034444 -2.0893018e-20)
(-0.0036246303 0.010300827 2.2259328e-20)
(-0.004152054 0.011465991 -2.7403487e-21)
(-0.0047459068 0.012696421 1.555732e-20)
(-0.0054151111 0.013987611 1.1552249e-20)
(-0.0061696707 0.015332589 -3.6318677e-20)
(-0.0070206887 0.016721373 2.725332e-20)
(-0.0079803231 0.01814034 -3.585071e-20)
(-0.0090616473 0.019571508 4.2069182e-21)
(-0.010278373 0.020991716 -1.7180235e-20)
(-0.011644376 0.022371692 3.7284934e-20)
(-0.013172971 0.023675009 -8.8189666e-21)
(-0.014875865 0.024857 -2.2214762e-20)
(-0.016761767 0.025863844 5.3500761e-20)
(-0.018834752 0.026632427 -2.3126927e-20)
(-0.021092647 0.027092295 -2.4760436e-20)
(-0.0235261 0.027172028 2.026648e-20)
(-0.026119175 0.026812645 2.6823788e-21)
(-0.02885189 0.025987709 -1.3200142e-20)
(-0.031703683 0.024721497 7.1195366e-21)
(-0.034655548 0.023089716 -1.0647144e-20)
(-0.037689434 0.021196485 3.6223674e-20)
(-0.040785767 0.019142689 -1.8456083e-20)
(-0.04392107 0.017006425 -1.0810666e-20)
(-0.047066783 0.014840659 -2.16958e-20)
(-0.050189093 0.012680341 -2.9277835e-21)
(-0.053249067 0.010551083 2.2408259e-20)
(-0.056202657 0.0084760273 -8.9718514e-21)
(-0.058999651 0.0064804896 -1.3238321e-20)
(-0.061582467 0.0045957851 -2.0166541e-21)
(-0.06388329 0.0028613966 1.3235302e-20)
(-0.065809478 0.0013173606 1.1767719e-20)
(-0.067229453 -6.5471846e-07 -3.6202122e-20)
(-0.067952543 -0.001051343 -1.9366244e-20)
(-0.067683657 -0.0017900124 -4.2361617e-20)
(-0.065973427 -0.0021636445 -1.4956127e-20)
(-0.062128718 -0.0020794903 -5.7959708e-21)
(-0.055165516 -0.0013901438 -4.2095756e-20)
(-0.043605361 0.00021142399 -1.6000503e-20)
(-0.025578848 0.0032015381 5.3099127e-20)
(0.0015507041 0.0081225505 -4.055016e-20)
(0.042787823 0.01511356 3.5763164e-20)
(0.10132203 0.025892403 -1.560933e-20)
(0.17521374 0.041519563 7.1745384e-20)
(0.26944416 0.061359052 3.4875179e-20)
(0.3946935 0.07352279 -1.4708869e-20)
(0.57467127 0.055599309 -2.5238461e-20)
(0.82003076 -0.01632887 -4.5806069e-20)
(1.0570352 -0.12601137 -5.3331481e-21)
(1.1338685 -0.22490508 -6.11599e-21)
(1.0723493 -0.24055831 2.8370629e-20)
(-5.7527332e-05 0.0001787048 7.952944e-23)
(-0.00017900774 0.00055373873 -5.6611645e-21)
(-0.0003143122 0.00096801605 6.6730445e-21)
(-0.00046490196 0.0014248437 3.2108386e-21)
(-0.00063237459 0.0019277083 -6.4296749e-21)
(-0.00081852037 0.0024802521 -2.0820955e-21)
(-0.0010253419 0.0030862539 1.0095049e-20)
(-0.0012550728 0.0037496008 -1.0859562e-20)
(-0.0015102127 0.004474242 -2.2899138e-21)
(-0.0017935628 0.0052641273 -9.1042242e-21)
(-0.0021082669 0.0061231249 2.4159305e-20)
(-0.0024578567 0.0070549127 2.9409744e-22)
(-0.0028463016 0.0080628395 -2.1656928e-20)
(-0.0032780634 0.009149749 2.32201e-20)
(-0.0037581533 0.01031776 -1.6599002e-20)
(-0.0042921923 0.011567996 -6.1453797e-21)
(-0.0048864694 0.012900255 1.2815444e-20)
(-0.005547995 0.014312619 -1.1541502e-20)
(-0.0062845422 0.015800979 -1.5335137e-20)
(-0.0071046671 0.017358489 3.2324008e-22)
(-0.0080176918 0.018974925 2.4063337e-20)
(-0.0090336317 0.020635946 -1.484607e-20)
(-0.010163037 0.02232225 8.2515741e-21)
(-0.011416713 0.024008609 3.9792732e-20)
(-0.012805265 0.025662775 1.3281609e-20)
(-0.014338415 0.027244266 -3.5962245e-20)
(-0.016024048 0.028703096 3.5879315e-21)
(-0.017866947 0.029978682 -4.0424258e-20)
(-0.019867348 0.030999534 2.3851766e-20)
(-0.022019602 0.031685081 -1.2575391e-20)
(-0.024311617 0.031952092 1.8135085e-20)
(-0.026725973 0.031728696 4.3992513e-21)
(-0.02924307 0.030976407 -2.1813339e-20)
(-0.031845002 0.029712106 2.2096714e-20)
(-0.034517294 0.028012937 3.1823942e-20)
(-0.037246908 0.025994037 -2.9413803e-21)
(-0.04001806 0.023772594 -3.260256e-20)
(-0.042808767 0.021442496 4.0731089e-20)
(-0.045589405 0.019068673 -8.5799991e-21)