/*--------------------------------*- C++ -*----------------------------------*\
  =========                 |
  \\      /  F ield         | OpenFOAM: The Open Source CFD Toolbox
   \\    /   O peration     | Website:  https://openfoam.org
    \\  /    A nd           | Version:  13
     \\/     M anipulation  |
\*---------------------------------------------------------------------------*/
FoamFile
{
    format      ascii;
    class       volScalarField;
    location    "3700";
    object      nut;
}
// * * * * * * * * * * * * * * * * * * * * * * * * * * * * * * * * * * * * * //

dimensions      [0 2 -1 0 0 0 0];

internalField   nonuniform List<scalar> 
800
(
4.84063e-05
4.84049e-05
4.84044e-05
4.84043e-05
4.8404e-05
4.84044e-05
4.8404e-05
4.84042e-05
4.84041e-05
4.84041e-05
4.8404e-05
4.84041e-05
4.8404e-05
4.84044e-05
4.84044e-05
4.84047e-05
4.84043e-05
4.84042e-05
4.84044e-05
4.84048e-05
0.000139446
0.000139444
0.000139442
0.00013944
0.000139438
0.000139434
0.000139432
0.000139435
0.000139437
0.000139437
0.000139438
0.00013944
0.00013944
0.000139441
0.000139439
0.00013944
0.000139438
0.000139436
0.000139431
0.000139427
0.000240755
0.000240753
0.00024075
0.000240746
0.000240742
0.000240738
0.000240735
0.000240735
0.000240734
0.000240732
0.000240736
0.000240738
0.000240739
0.000240739
0.000240737
0.000240736
0.00024073
0.000240728
0.000240727
0.000240726
0.000355884
0.000355879
0.000355877
0.000355871
0.000355869
0.000355868
0.000355866
0.000355865
0.000355861
0.000355862
0.000355861
0.000355858
0.000355856
0.000355852
0.000355852
0.00035585
0.000355848
0.000355847
0.000355847
0.000355845
0.000482805
0.000482798
0.000482799
0.000482797
0.000482797
0.000482796
0.000482798
0.000482796
0.000482789
0.000482788
0.000482784
0.000482777
0.000482774
0.000482772
0.000482769
0.000482767
0.000482765
0.000482759
0.000482753
0.000482749
0.00062029
0.000620287
0.000620283
0.000620288
0.000620288
0.000620289
0.000620289
0.000620286
0.000620281
0.000620277
0.000620272
0.000620262
0.000620258
0.000620256
0.000620249
0.000620241
0.000620231
0.000620224
0.000620219
0.000620217
0.000767278
0.000767277
0.000767275
0.000767276
0.000767275
0.000767277
0.000767273
0.00076727
0.000767269
0.000767262
0.000767254
0.000767247
0.000767237
0.000767227
0.000767219
0.000767208
0.000767202
0.000767197
0.000767192
0.000767191
0.000922586
0.000922595
0.0009226
0.000922595
0.000922596
0.000922593
0.000922588
0.000922587
0.000922583
0.000922572
0.000922558
0.000922551
0.000922539
0.000922529
0.000922521
0.000922512
0.000922509
0.000922502
0.000922496
0.000922499
0.00108485
0.00108485
0.00108485
0.00108485
0.00108485
0.00108484
0.00108484
0.00108483
0.00108482
0.00108481
0.0010848
0.00108478
0.00108478
0.00108477
0.00108476
0.00108475
0.00108475
0.00108474
0.00108474
0.00108475
0.00125233
0.00125231
0.00125231
0.00125231
0.0012523
0.0012523
0.00125229
0.00125227
0.00125226
0.00125225
0.00125225
0.00125224
0.00125223
0.00125222
0.00125221
0.0012522
0.00125219
0.00125219
0.00125219
0.0012522
0.00142288
0.00142287
0.00142286
0.00142285
0.00142284
0.00142283
0.00142281
0.0014228
0.0014228
0.00142279
0.00142278
0.00142278
0.00142277
0.00142276
0.00142275
0.00142274
0.00142274
0.00142273
0.00142273
0.00142274
0.00159397
0.00159395
0.00159394
0.00159392
0.00159391
0.00159389
0.00159389
0.00159388
0.00159387
0.00159387
0.00159386
0.00159385
0.00159383
0.00159382
0.00159382
0.00159381
0.00159381
0.0015938
0.0015938
0.00159381
0.00176252
0.00176252
0.00176251
0.0017625
0.00176249
0.00176248
0.00176248
0.00176247
0.00176246
0.00176246
0.00176245
0.00176243
0.00176242
0.00176241
0.0017624
0.0017624
0.00176239
0.00176239
0.00176238
0.00176239
0.00192508
0.00192508
0.00192507
0.00192507
0.00192507
0.00192506
0.00192506
0.00192505
0.00192504
0.00192503
0.00192503
0.00192502
0.00192501
0.00192501
0.001925
0.00192499
0.00192498
0.00192497
0.00192496
0.00192497
0.00207763
0.00207763
0.00207762
0.00207761
0.00207761
0.0020776
0.0020776
0.00207759
0.00207758
0.00207758
0.00207757
0.00207757
0.00207756
0.00207755
0.00207755
0.00207754
0.00207754
0.00207753
0.00207752
0.00207752
0.00221561
0.0022156
0.00221559
0.00221559
0.00221558
0.00221558
0.00221557
0.00221557
0.00221556
0.00221555
0.00221555
0.00221554
0.00221554
0.00221554
0.00221554
0.00221553
0.00221552
0.00221552
0.00221551
0.00221551
0.00233404
0.00233403
0.00233402
0.00233401
0.002334
0.002334
0.00233399
0.00233399
0.00233399
0.00233399
0.00233399
0.002334
0.002334
0.00233399
0.00233399
0.00233398
0.00233397
0.00233396
0.00233396
0.00233396
0.00242755
0.00242754
0.00242753
0.00242752
0.00242751
0.00242751
0.00242751
0.00242751
0.00242751
0.00242751
0.00242751
0.00242751
0.00242751
0.00242751
0.00242751
0.0024275
0.0024275
0.00242749
0.00242748
0.00242749
0.00249046
0.00249046
0.00249045
0.00249045
0.00249044
0.00249043
0.00249043
0.00249043
0.00249043
0.00249043
0.00249043
0.00249042
0.00249042
0.00249042
0.00249042
0.00249042
0.00249041
0.00249041
0.00249041
0.00249042
0.00251692
0.00251692
0.00251691
0.00251691
0.00251691
0.00251691
0.00251691
0.00251691
0.0025169
0.00251691
0.00251691
0.0025169
0.00251691
0.0025169
0.0025169
0.0025169
0.0025169
0.00251691
0.00251691
0.00251691
0.0025015
0.0025015
0.0025015
0.00250151
0.00250152
0.00250152
0.00250153
0.00250154
0.00250154
0.00250155
0.00250154
0.00250155
0.00250155
0.00250154
0.00250155
0.00250155
0.00250155
0.00250155
0.00250154
0.00250154
0.00244678
0.00244678
0.00244679
0.00244681
0.00244681
0.00244683
0.00244684
0.00244685
0.00244685
0.00244686
0.00244686
0.00244686
0.00244686
0.00244686
0.00244686
0.00244686
0.00244686
0.00244685
0.00244685
0.00244684
0.00236167
0.00236168
0.0023617
0.00236171
0.00236173
0.00236174
0.00236174
0.00236175
0.00236175
0.00236175
0.00236175
0.00236175
0.00236176
0.00236176
0.00236175
0.00236176
0.00236176
0.00236176
0.00236177
0.00236176
0.0022534
0.00225342
0.00225343
0.00225344
0.00225345
0.00225345
0.00225345
0.00225345
0.00225345
0.00225345
0.00225345
0.00225346
0.00225346
0.00225346
0.00225346
0.00225347
0.00225347
0.00225348
0.0022535
0.0022535
0.00212799
0.002128
0.00212801
0.00212801
0.00212801
0.00212801
0.00212802
0.00212801
0.00212801
0.00212801
0.002128
0.002128
0.00212801
0.00212801
0.00212802
0.00212803
0.00212804
0.00212806
0.00212807
0.00212807
0.00199034
0.00199036
0.00199036
0.00199037
0.00199037
0.00199038
0.00199037
0.00199037
0.00199038
0.00199038
0.00199038
0.00199038
0.00199038
0.00199038
0.00199039
0.0019904
0.00199041
0.00199043
0.00199044
0.00199044
0.00184452
0.00184453
0.00184453
0.00184454
0.00184454
0.00184454
0.00184454
0.00184455
0.00184455
0.00184456
0.00184457
0.00184457
0.00184458
0.00184458
0.00184459
0.0018446
0.00184461
0.00184461
0.00184462
0.00184461
0.00169372
0.00169372
0.00169372
0.00169373
0.00169373
0.00169373
0.00169373
0.00169374
0.00169374
0.00169375
0.00169376
0.00169377
0.00169378
0.00169379
0.00169379
0.0016938
0.0016938
0.00169381
0.00169381
0.00169381
0.00154045
0.00154045
0.00154046
0.00154046
0.00154047
0.00154047
0.00154048
0.00154048
0.00154048
0.00154049
0.0015405
0.00154051
0.00154051
0.00154052
0.00154052
0.00154052
0.00154053
0.00154054
0.00154054
0.00154054
0.00138669
0.0013867
0.00138671
0.00138671
0.00138672
0.00138672
0.00138674
0.00138674
0.00138675
0.00138675
0.00138676
0.00138676
0.00138676
0.00138677
0.00138677
0.00138677
0.00138677
0.00138678
0.00138679
0.00138678
0.00123398
0.00123399
0.001234
0.00123401
0.00123403
0.00123403
0.00123404
0.00123405
0.00123406
0.00123406
0.00123406
0.00123406
0.00123406
0.00123406
0.00123406
0.00123406
0.00123407
0.00123407
0.00123408
0.00123408
0.00108353
0.00108354
0.00108354
0.00108355
0.00108356
0.00108357
0.00108358
0.00108358
0.00108359
0.00108359
0.00108359
0.00108359
0.00108359
0.00108358
0.00108359
0.0010836
0.0010836
0.00108361
0.00108361
0.00108361
0.000936236
0.000936236
0.000936239
0.000936243
0.000936247
0.000936256
0.000936263
0.000936266
0.000936269
0.000936276
0.000936274
0.000936275
0.000936276
0.000936282
0.000936288
0.000936292
0.000936293
0.000936295
0.000936301
0.000936299
0.000792821
0.00079282
0.000792822
0.000792827
0.000792826
0.000792829
0.000792831
0.000792837
0.000792841
0.000792847
0.000792851
0.000792858
0.000792863
0.000792872
0.000792875
0.000792872
0.000792873
0.000792874
0.000792874
0.000792874
0.000653928
0.000653931
0.000653929
0.000653931
0.000653931
0.000653926
0.000653927
0.000653929
0.000653934
0.000653937
0.000653946
0.000653955
0.000653963
0.000653968
0.000653971
0.000653972
0.000653973
0.000653975
0.000653974
0.000653973
0.000520179
0.000520182
0.000520184
0.000520184
0.000520188
0.000520188
0.000520187
0.000520188
0.00052019
0.000520194
0.000520198
0.000520201
0.000520206
0.00052021
0.000520212
0.000520216
0.000520216
0.000520214
0.000520219
0.00052022
0.000392393
0.000392398
0.000392403
0.000392408
0.000392412
0.000392419
0.000392422
0.000392425
0.000392425
0.000392424
0.000392425
0.000392421
0.000392419
0.000392417
0.000392418
0.000392422
0.000392425
0.000392427
0.000392427
0.000392428
0.00027194
0.000271946
0.000271951
0.000271956
0.000271961
0.000271967
0.000271972
0.000271975
0.000271975
0.000271973
0.00027197
0.000271968
0.000271968
0.000271965
0.000271965
0.000271964
0.000271967
0.00027197
0.00027197
0.00027197
0.000161509
0.000161513
0.000161517
0.000161521
0.000161524
0.000161527
0.00016153
0.000161531
0.000161533
0.000161535
0.000161532
0.000161529
0.000161528
0.000161527
0.000161528
0.000161527
0.000161526
0.000161525
0.000161526
0.000161529
5.70574e-05
5.70574e-05
5.70574e-05
5.7057e-05
5.70567e-05
5.70566e-05
5.70565e-05
5.70564e-05
5.70562e-05
5.70562e-05
5.70563e-05
5.70565e-05
5.70568e-05
5.70571e-05
5.7057e-05
5.7057e-05
5.70568e-05
5.70569e-05
5.70571e-05
5.70573e-05
)
;

boundaryField
{
    movingWall
    {
        type            nutkWallFunction;
        Cmu             0.09;
        kappa           0.41;
        E               9.8;
        value           nonuniform List<scalar> 
20
(
6.7865e-06
6.7865e-06
6.78649e-06
6.78648e-06
6.78647e-06
6.78645e-06
6.78644e-06
6.78643e-06
6.78643e-06
6.78642e-06
6.78642e-06
6.78643e-06
6.78645e-06
6.78647e-06
6.78647e-06
6.78647e-06
6.78648e-06
6.78649e-06
6.78649e-06
6.7865e-06
)
;
    }
    bottomWall
    {
        type            nutkWallFunction;
        Cmu             0.09;
        kappa           0.41;
        E               9.8;
        value           nonuniform List<scalar> 
20
(
5.66021e-06
5.66017e-06
5.66016e-06
5.66017e-06
5.66016e-06
5.66017e-06
5.66014e-06
5.66014e-06
5.66014e-06
5.66015e-06
5.66016e-06
5.66017e-06
5.66019e-06
5.66019e-06
5.6602e-06
5.6602e-06
5.6602e-06
5.6602e-06
5.6602e-06
5.66019e-06
)
;
    }
    cyc_half0
    {
        type            cyclic;
    }
    cyc_half1
    {
        type            cyclic;
    }
    frontAndBack
    {
        type            empty;
    }
}


// ************************************************************************* //
