/*--------------------------------*- C++ -*----------------------------------*\
  =========                 |
  \\      /  F ield         | OpenFOAM: The Open Source CFD Toolbox
   \\    /   O peration     | Website:  https://openfoam.org
    \\  /    A nd           | Version:  13
     \\/     M anipulation  |
\*---------------------------------------------------------------------------*/
FoamFile
{
    format      ascii;
    class       volScalarField;
    location    "3700";
    object      p;
}
// * * * * * * * * * * * * * * * * * * * * * * * * * * * * * * * * * * * * * //

dimensions      [0 2 -2 0 0 0 0];

internalField   nonuniform List<scalar> 
800
(
1.30477e-05
3.54696e-05
-1.50614e-05
-2.11636e-05
-1.97123e-05
-5.51699e-05
-7.75129e-05
-8.15388e-05
-7.355e-05
-7.18068e-05
-4.26491e-05
-2.12853e-05
7.38608e-06
1.68177e-05
4.12077e-05
9.86179e-05
0.000135334
8.09666e-05
9.38114e-06
1.58123e-05
2.27896e-05
5.26175e-05
-1.06472e-05
-2.56891e-05
-1.53532e-05
-5.44627e-05
-7.96574e-05
-7.81586e-05
-6.67906e-05
-6.97763e-05
-4.17642e-05
-1.37663e-05
6.68163e-06
1.21288e-05
3.85968e-05
0.000100074
0.000130159
8.67286e-05
1.90695e-06
5.38911e-06
3.59841e-05
6.26513e-05
-5.1716e-06
-2.31816e-05
-1.12575e-05
-6.2639e-05
-8.19603e-05
-6.98747e-05
-6.21184e-05
-7.11799e-05
-4.36662e-05
-8.53537e-06
1.24941e-05
8.80916e-06
3.72252e-05
0.000108235
0.000129096
7.3062e-05
-4.96234e-06
-1.33069e-06
5.03542e-05
6.33021e-05
6.84984e-06
-2.12711e-05
-3.09673e-05
-6.23128e-05
-8.27339e-05
-6.31011e-05
-6.06516e-05
-7.80049e-05
-3.78463e-05
1.73467e-06
1.3003e-05
1.57145e-05
3.51942e-05
0.000120153
0.000118291
5.56179e-05
-3.40254e-06
5.91969e-06
5.6941e-05
5.92618e-05
1.4796e-05
-7.55611e-06
-4.48862e-05
-5.29645e-05
-6.91915e-05
-5.01843e-05
-7.86926e-05
-7.72978e-05
-3.25254e-05
7.25992e-08
1.76396e-05
2.7085e-05
3.35079e-05
0.00011179
0.000103707
4.9648e-05
3.13044e-06
1.97129e-05
5.45739e-05
6.2835e-05
5.75655e-06
-1.88924e-05
-4.68976e-05
-6.23888e-05
-6.64572e-05
-4.28813e-05
-7.183e-05
-7.79609e-05
-2.18346e-05
-3.99242e-06
7.12635e-06
2.31177e-05
3.98328e-05
0.000112036
0.000110607
5.1379e-05
1.87678e-05
2.24713e-05
5.39905e-05
6.7125e-05
-1.0049e-05
-3.33547e-05
-4.26082e-05
-6.05617e-05
-6.95146e-05
-4.05224e-05
-6.92802e-05
-7.8662e-05
-1.91246e-05
-8.02831e-06
1.74773e-05
3.01528e-05
3.66261e-05
0.000112358
0.000115613
4.39823e-05
3.50368e-05
3.57157e-05
6.00236e-05
6.83364e-05
-3.35152e-06
-4.5166e-05
-5.04692e-05
-5.58311e-05
-6.96033e-05
-4.14671e-05
-5.06919e-05
-6.74008e-05
-3.34433e-05
-1.89169e-05
3.17838e-05
3.02384e-05
3.03358e-05
9.07843e-05
8.70875e-05
5.83054e-05
5.75635e-05
2.51153e-05
8.01222e-05
7.79773e-05
-1.10198e-06
-5.26394e-05
-6.27732e-05
-4.26301e-05
-7.71583e-05
-4.68049e-05
-3.99256e-05
-5.27886e-05
-3.48161e-05
-2.59839e-05
2.78983e-05
2.60279e-05
2.35145e-05
5.51118e-05
8.15754e-05
6.96458e-05
7.36289e-05
3.26455e-05
0.000104562
6.55625e-05
-2.72978e-05
-5.72838e-05
-4.73244e-05
-3.20448e-05
-7.26551e-05
-4.31614e-05
-2.92887e-05
-5.73375e-05
-2.59912e-05
-3.13549e-05
5.84356e-06
4.6302e-05
1.84172e-05
3.00781e-05
7.13521e-05
7.27569e-05
6.88997e-05
6.23423e-05
0.000112546
5.30287e-05
-2.31053e-05
-6.21522e-05
-4.37957e-05
-3.53886e-05
-5.24966e-05
-3.27704e-05
-2.31706e-05
-4.86058e-05
-3.50627e-05
-2.72956e-05
-4.69965e-06
3.29109e-05
1.03104e-05
2.22619e-05
6.62726e-05
6.15425e-05
7.29651e-05
8.63859e-05
0.000115456
7.3246e-05
-1.37473e-05
-5.82928e-05
-6.50272e-05
-5.38731e-05
-2.58098e-05
-5.56988e-05
-3.3019e-05
-1.74178e-05
-1.32928e-05
-3.47445e-05
-2.55839e-05
9.42341e-06
1.36899e-05
1.29481e-05
5.09021e-05
6.02495e-05
9.37651e-05
9.54368e-05
0.000113254
6.52889e-05
1.32053e-05
-2.58749e-05
-7.74221e-05
-6.44701e-05
-3.21909e-05
-6.36708e-05
-4.03172e-05
8.32767e-06
1.86261e-05
-3.26057e-05
-6.37465e-05
-3.26297e-06
5.1344e-06
5.11849e-06
5.40794e-05
6.86956e-05
0.000103038
0.000114827
0.000127587
4.72178e-05
-2.81503e-06
-7.71262e-05
-7.11808e-05
-5.79785e-05
-4.77521e-05
-3.27165e-05
-4.78036e-05
1.0798e-06
3.50685e-05
-3.50811e-05
-7.46491e-05
-1.40423e-05
3.74975e-06
-4.98049e-06
6.44272e-05
8.49669e-05
0.000115047
0.000146968
0.000130773
3.95629e-05
-1.84826e-05
-9.00266e-05
-6.16053e-05
-5.40399e-05
-4.39672e-05
-6.97106e-06
-5.46852e-05
-1.74039e-05
2.63503e-05
-3.64926e-05
-4.5972e-05
-1.53908e-05
-1.2305e-05
2.75711e-06
7.58734e-05
0.000128178
0.000123101
0.000153426
0.000109126
7.47662e-05
-4.64607e-05
-8.06839e-05
-6.05166e-05
-8.89351e-05
-2.45517e-05
3.3328e-05
-4.17461e-05
-1.84153e-05
4.86884e-06
-1.7713e-05
-4.68707e-05
-2.06819e-05
2.81647e-06
1.67611e-05
8.60843e-05
0.000128108
0.000150503
0.000127543
0.000117649
7.83366e-05
-3.86901e-05
-6.03857e-05
-7.17837e-05
-9.13371e-05
-4.02644e-05
-3.79405e-05
-1.77297e-05
5.43068e-07
-9.06111e-07
-9.41676e-06
-5.32549e-05
-1.00495e-05
4.33781e-05
2.75329e-05
0.000102652
0.00012892
0.000112723
8.99871e-05
0.00016346
5.90082e-05
2.36901e-05
-7.06393e-05
-8.84923e-05
-5.91962e-05
-2.98734e-05
-3.35641e-05
3.89908e-06
-2.95129e-05
-3.1917e-05
-1.71263e-05
-1.60796e-05
-5.06341e-06
1.05927e-05
5.28864e-05
0.00010379
0.000105016
6.85605e-05
0.000112327
0.000137164
6.03354e-05
3.63537e-05
4.95811e-05
-3.59617e-05
-9.93508e-05
-5.92374e-05
-1.76422e-05
-1.51011e-06
7.34772e-06
-4.51392e-05
-1.58288e-05
2.2043e-05
-1.46847e-05
-1.38313e-05
5.61989e-05
0.000101504
8.85204e-05
4.7804e-05
9.63033e-05
0.000150461
4.66486e-05
-5.0225e-06
2.41487e-05
5.57325e-05
-5.32345e-05
-6.10739e-05
1.79819e-05
8.787e-06
-2.52827e-05
-6.2562e-05
-2.19423e-05
2.44672e-06
-3.45166e-05
1.31912e-05
7.72539e-05
5.21674e-05
5.92035e-05
2.55517e-05
9.38165e-05
0.000179246
5.45581e-05
-1.83654e-05
-3.19179e-06
6.35141e-05
2.86932e-05
-1.8348e-05
8.64424e-06
-5.93587e-06
-6.71252e-05
-2.72494e-05
1.17888e-05
9.34983e-06
-3.24976e-05
-8.39831e-06
2.06258e-05
3.54945e-05
5.76116e-05
1.26288e-05
8.80081e-05
0.000142978
4.15513e-05
-5.03713e-06
2.9813e-05
4.44806e-05
8.47764e-06
3.18497e-08
3.66837e-05
-5.15807e-05
-6.05626e-05
-6.27015e-06
-3.39839e-05
-9.33659e-07
-4.52675e-05
-9.89348e-06
5.6914e-05
5.57138e-05
5.427e-05
-1.14378e-05
5.35957e-05
0.000124074
6.78973e-05
8.78665e-06
6.08998e-05
7.06189e-05
2.92704e-05
1.95783e-05
1.90217e-05
-7.30704e-05
-7.64552e-05
1.91614e-06
-1.30887e-05
-2.63251e-05
-3.76924e-05
-8.94655e-06
7.77838e-05
6.59823e-05
2.52855e-05
-2.14983e-05
3.58361e-05
0.000103068
0.000107751
-5.53679e-06
2.47065e-05
7.08895e-05
9.16051e-05
6.76425e-05
2.03667e-05
-6.66749e-05
-0.00012854
-6.45119e-05
-2.33107e-05
-1.43256e-05
1.72296e-05
-1.54452e-05
5.59816e-05
9.42543e-05
2.07208e-05
-3.54968e-05
1.59207e-05
0.000110697
9.41624e-05
3.73772e-05
1.8258e-05
9.39043e-05
0.000117734
2.16427e-05
-7.68293e-06
-6.03238e-05
-0.000112657
-8.28296e-05
-4.47491e-05
-1.92679e-05
-2.32058e-05
9.32524e-06
5.78433e-05
2.93125e-06
-8.24873e-06
1.94546e-06
5.0327e-05
9.90752e-05
9.73626e-05
4.75038e-05
1.07254e-05
5.83464e-05
8.24853e-05
2.81941e-05
1.4317e-06
-4.57957e-05
-3.26174e-05
-6.10095e-05
-9.08778e-05
-3.75773e-05
-2.11614e-05
2.24362e-05
7.07639e-05
-1.28992e-05
-6.82616e-06
3.93264e-05
6.04068e-05
0.000111024
0.000106236
3.99577e-05
2.36473e-05
4.02078e-05
6.51024e-05
3.52395e-05
-1.8477e-06
-3.28508e-05
-1.82999e-05
-9.12251e-05
-0.000116444
-2.9497e-05
1.27994e-06
2.31219e-05
2.03477e-05
-1.74702e-05
1.20739e-05
5.57152e-05
5.4399e-05
0.000140051
0.000117962
2.44595e-05
3.31898e-05
6.08979e-05
5.81373e-05
-3.36758e-06
3.71666e-05
-4.60172e-05
-7.0828e-05
-8.07645e-05
-0.000112891
-2.97617e-05
2.73446e-05
2.55287e-05
3.40555e-05
-2.07969e-05
3.09083e-05
0.000104793
6.66616e-05
0.000152443
8.35217e-05
3.75147e-05
6.31318e-05
4.4898e-05
3.32536e-05
-2.58631e-05
6.69243e-05
-2.39876e-05
-9.3138e-05
-8.14659e-05
-0.00010503
-6.25841e-06
4.32659e-05
2.27652e-05
8.49093e-06
-5.45423e-07
4.49316e-05
5.78611e-05
8.85528e-05
0.00014203
8.74794e-05
7.36916e-05
9.49998e-05
8.67652e-06
-5.05455e-05
-3.70641e-05
8.71655e-05
-3.09104e-05
-0.000123478
-7.42734e-05
-7.73133e-05
1.51631e-07
5.84577e-05
0.000110341
-2.0767e-06
7.80025e-06
3.66009e-05
3.18085e-05
8.0625e-05
0.000155144
0.000100279
8.58776e-05
7.35789e-05
3.05559e-06
-8.45125e-05
-5.18427e-05
5.55876e-05
2.81957e-05
-0.00010999
-7.86666e-05
-5.45433e-05
1.01744e-05
8.16809e-05
0.000116922
-7.77602e-06
-2.35961e-05
1.87082e-05
2.98037e-05
7.89836e-05
0.000168769
0.00012051
6.80693e-05
2.533e-06
-1.00181e-05
-4.2648e-05
-5.11213e-05
3.08927e-05
4.27604e-05
-6.08217e-05
-7.51598e-05
-3.1251e-05
2.5272e-05
7.10958e-05
4.82565e-05
-2.64798e-05
-1.70544e-05
2.44549e-05
5.29755e-06
7.79831e-05
0.000164254
0.000141637
8.52114e-05
-1.02082e-05
-1.46811e-05
-3.29536e-05
-4.77063e-05
1.95014e-05
4.066e-05
-2.83068e-06
-5.94486e-05
-2.23427e-05
4.83997e-05
5.02682e-06
5.25824e-06
-1.53465e-05
-5.15308e-06
2.7396e-05
-9.54587e-06
6.86622e-05
0.000159956
0.000153506
0.000107549
8.98771e-06
-1.84026e-05
-4.0965e-05
-3.96432e-05
2.73342e-05
1.74567e-05
2.87101e-06
-2.53519e-05
-1.10218e-05
-1.97924e-06
-1.87816e-05
3.25947e-06
8.37895e-06
-5.49908e-06
1.89223e-06
-2.01744e-05
6.14545e-05
0.000130268
0.000145824
0.000109174
3.68274e-05
-4.49965e-06
-4.8161e-05
-4.13058e-05
1.98398e-05
1.97895e-05
1.91799e-05
-2.4444e-05
-6.00927e-07
-1.38155e-06
-2.04671e-05
9.37578e-06
2.00429e-05
-6.39449e-06
-2.37855e-06
-1.04795e-05
4.24097e-05
9.39077e-05
0.00013674
0.000124391
4.03789e-05
2.25752e-06
-1.36298e-05
-2.96956e-05
7.26014e-06
3.52261e-05
3.93913e-05
-6.60898e-06
1.63798e-05
-2.64934e-06
-1.87624e-05
2.40428e-06
-1.69195e-05
-1.50671e-05
-6.53537e-06
9.87179e-07
4.94242e-05
7.0777e-05
0.000119264
0.000125341
3.52443e-05
-2.28043e-06
-1.55376e-05
-1.88104e-05
1.21138e-05
4.85389e-05
3.52039e-05
1.283e-05
2.06714e-05
2.25738e-07
-2.95236e-06
1.9779e-06
-2.3076e-05
-6.34845e-06
-1.36494e-05
-2.78233e-06
4.44551e-05
5.99422e-05
0.000127206
9.68119e-05
2.79667e-05
-6.741e-06
-1.59778e-05
-1.75096e-05
2.00781e-05
7.0593e-05
4.89128e-05
3.06535e-05
2.82164e-05
2.86504e-06
1.29406e-05
-2.6397e-05
-4.25449e-05
-9.62718e-06
-4.42407e-06
4.60034e-06
4.49911e-05
6.82497e-05
0.000130343
8.25056e-05
2.32536e-05
-8.86074e-06
-1.32333e-05
-1.37096e-05
1.98218e-05
8.4601e-05
9.431e-05
5.39119e-05
2.51019e-05
3.7571e-06
-6.29343e-06
-4.99858e-05
-4.04964e-05
-1.05055e-05
1.0629e-05
1.59391e-05
3.18173e-05
7.52838e-05
0.000136065
7.62129e-05
2.84288e-05
-7.13725e-06
-1.66126e-05
-8.55576e-06
1.79105e-05
7.93043e-05
0.00010224
0.000106725
5.29604e-05
1.57779e-05
-4.14878e-05
-6.33999e-05
-3.23909e-05
-6.58293e-06
1.72424e-05
2.36608e-05
2.72164e-05
)
;

boundaryField
{
    movingWall
    {
        type            zeroGradient;
    }
    bottomWall
    {
        type            zeroGradient;
    }
    cyc_half0
    {
        type            cyclic;
    }
    cyc_half1
    {
        type            cyclic;
    }
    frontAndBack
    {
        type            empty;
    }
}


// ************************************************************************* //
