/*--------------------------------*- C++ -*----------------------------------*\
  =========                 |
  \\      /  F ield         | OpenFOAM: The Open Source CFD Toolbox
   \\    /   O peration     | Website:  https://openfoam.org
    \\  /    A nd           | Version:  13
     \\/     M anipulation  |
\*---------------------------------------------------------------------------*/
FoamFile
{
    format      ascii;
    class       volVectorField;
    location    "3700";
    object      U;
}
// * * * * * * * * * * * * * * * * * * * * * * * * * * * * * * * * * * * * * //

dimensions      [0 1 -1 0 0 0 0];

internalField   nonuniform List<vector> 
800
(
(2.66863 4.29339e-08 0)
(2.66863 -4.81939e-06 0)
(2.66868 -3.17914e-06 0)
(2.66872 3.26148e-07 0)
(2.66866 -1.9377e-06 0)
(2.66878 1.88472e-06 0)
(2.6686 7.78349e-06 0)
(2.66867 -2.6523e-06 0)
(2.66866 -2.90608e-09 0)
(2.66867 -2.2546e-06 0)
(2.66868 -1.89526e-06 0)
(2.66868 -3.5114e-07 0)
(2.66869 -2.20555e-06 0)
(2.66869 4.31485e-08 0)
(2.66869 1.82634e-06 0)
(2.66869 2.96391e-06 0)
(2.66867 -8.40517e-06 0)
(2.66865 -8.75752e-06 0)
(2.66874 -5.55348e-06 0)
(2.66873 6.30834e-06 0)
(3.10743 -1.88073e-05 0)
(3.1074 -7.82585e-06 0)
(3.10736 -9.53693e-06 0)
(3.10746 2.7045e-06 0)
(3.10742 -6.95833e-06 0)
(3.10742 9.41797e-06 0)
(3.10738 2.55785e-05 0)
(3.10744 2.80385e-06 0)
(3.10744 -6.7579e-06 0)
(3.10745 8.6021e-06 0)
(3.10734 9.08581e-06 0)
(3.1074 -5.01334e-06 0)
(3.10741 -2.14503e-06 0)
(3.10742 -1.22718e-06 0)
(3.10742 1.63109e-06 0)
(3.10744 -1.40793e-06 0)
(3.10747 9.20789e-06 0)
(3.10748 -8.58948e-06 0)
(3.10738 -2.91696e-06 0)
(3.10744 7.16975e-06 0)
(3.33855 -8.35782e-06 0)
(3.33851 -7.95348e-06 0)
(3.33849 -2.4803e-05 0)
(3.33855 -6.07864e-06 0)
(3.33853 1.33062e-06 0)
(3.33845 3.64688e-06 0)
(3.33854 -2.35305e-07 0)
(3.33855 -5.99139e-06 0)
(3.33853 1.13749e-05 0)
(3.33845 1.06248e-05 0)
(3.33853 4.69401e-06 0)
(3.33855 -1.65646e-06 0)
(3.33847 -5.02995e-06 0)
(3.33854 1.01444e-06 0)
(3.33849 -3.2437e-06 0)
(3.33856 -1.25145e-05 0)
(3.33855 -4.40778e-06 0)
(3.33856 1.9294e-06 0)
(3.33846 5.96348e-06 0)
(3.33854 1.41416e-06 0)
(3.49532 -1.74457e-05 0)
(3.49534 4.05877e-07 0)
(3.49522 -1.05731e-05 0)
(3.49529 6.77213e-06 0)
(3.49526 2.16174e-06 0)
(3.49524 1.44131e-05 0)
(3.49527 3.08971e-06 0)
(3.49532 -1.69711e-05 0)
(3.49533 9.84767e-06 0)
(3.49526 1.40075e-05 0)
(3.49536 -9.3437e-06 0)
(3.49535 2.11775e-06 0)
(3.49536 -4.78544e-07 0)
(3.49534 3.98854e-06 0)
(3.49535 2.20343e-06 0)
(3.4953 -9.711e-06 0)
(3.4952 -1.01741e-06 0)
(3.49531 9.75056e-06 0)
(3.49524 2.16171e-06 0)
(3.49533 -1.12254e-05 0)
(3.61399 4.67499e-06 0)
(3.61396 -1.03956e-06 0)
(3.61399 -8.67517e-06 0)
(3.6139 -5.8788e-06 0)
(3.61397 1.00028e-05 0)
(3.61395 4.90303e-06 0)
(3.61396 -6.51781e-06 0)
(3.61398 -1.24528e-06 0)
(3.61397 1.31871e-05 0)
(3.61407 3.51924e-06 0)
(3.61407 -1.82543e-05 0)
(3.61408 8.56886e-06 0)
(3.61403 3.06076e-06 0)
(3.61396 -5.75743e-06 0)
(3.61404 3.11173e-06 0)
(3.61408 4.19579e-06 0)
(3.61406 -1.42501e-06 0)
(3.61409 -9.75028e-07 0)
(3.61407 -3.42967e-06 0)
(3.61407 -6.20892e-06 0)
(3.71005 4.72553e-06 0)
(3.71013 -1.48128e-05 0)
(3.71013 3.61551e-06 0)
(3.71012 9.22564e-06 0)
(3.71012 5.98045e-06 0)
(3.71007 -4.06241e-06 0)
(3.71015 -2.04712e-05 0)
(3.71015 -2.56828e-05 0)
(3.71008 -7.33356e-07 0)
(3.71019 -7.69098e-06 0)
(3.71016 4.0441e-07 0)
(3.7101 7.32616e-06 0)
(3.71019 2.14361e-05 0)
(3.71019 -4.44894e-06 0)
(3.7102 -6.75341e-06 0)
(3.71021 -3.15142e-06 0)
(3.71017 4.90727e-06 0)
(3.71018 3.19131e-06 0)
(3.71006 9.21494e-06 0)
(3.71012 8.35567e-06 0)
(3.79149 8.0795e-06 0)
(3.79146 -1.04928e-05 0)
(3.79142 -3.62844e-06 0)
(3.79155 6.87495e-06 0)
(3.79154 5.49881e-06 0)
(3.79156 -4.99112e-06 0)
(3.79156 -1.07408e-05 0)
(3.79151 -5.00324e-06 0)
(3.79147 -1.4741e-05 0)
(3.79158 -2.31614e-05 0)
(3.7916 -4.29853e-06 0)
(3.79151 6.61454e-06 0)
(3.7916 -3.60271e-07 0)
(3.7916 -5.17689e-06 0)
(3.79158 -3.28789e-06 0)
(3.79158 1.12929e-05 0)
(3.79146 1.76701e-05 0)
(3.79154 9.25033e-06 0)
(3.79153 9.90125e-06 0)
(3.79151 1.38365e-05 0)
(3.86276 7.49014e-06 0)
(3.86277 -1.09723e-05 0)
(3.8627 -2.12037e-05 0)
(3.8628 -1.05184e-05 0)
(3.86281 -4.05492e-06 0)
(3.86283 -1.54393e-05 0)
(3.86284 -5.07032e-06 0)
(3.86285 2.57868e-06 0)
(3.86285 -1.98074e-05 0)
(3.86286 -2.71901e-05 0)
(3.86286 -2.86644e-06 0)
(3.86286 8.09698e-06 0)
(3.86286 -1.80547e-06 0)
(3.86284 -3.40868e-06 0)
(3.86284 1.24594e-05 0)
(3.86274 1.40276e-05 0)
(3.86279 1.44455e-05 0)
(3.86281 1.06044e-05 0)
(3.8627 2.2474e-05 0)
(3.86274 2.26847e-05 0)
(3.92677 -1.65364e-07 0)
(3.92672 -1.42498e-05 0)
(3.92668 -2.01502e-05 0)
(3.92664 -1.481e-05 0)
(3.92675 -2.20396e-05 0)
(3.92674 -2.07172e-05 0)
(3.92673 -1.56338e-05 0)
(3.92683 -1.55268e-05 0)
(3.92683 -1.94087e-05 0)
(3.92684 -2.0304e-05 0)
(3.92676 -1.15015e-06 0)
(3.92683 1.20723e-05 0)
(3.92682 8.10869e-06 0)
(3.9268 -5.6563e-06 0)
(3.9268 2.53145e-05 0)
(3.9268 2.9884e-05 0)
(3.92677 2.31504e-05 0)
(3.92673 2.67699e-05 0)
(3.92669 2.91314e-05 0)
(3.92667 1.48694e-05 0)
(3.98547 -6.83527e-06 0)
(3.98545 1.32363e-05 0)
(3.98547 1.97852e-06 0)
(3.98545 -3.17417e-05 0)
(3.98547 -2.69354e-05 0)
(3.98543 -2.38563e-05 0)
(3.98547 -3.58817e-05 0)
(3.98549 -2.12809e-05 0)
(3.9854 -1.47133e-05 0)
(3.98545 -1.30019e-05 0)
(3.98541 -3.86063e-06 0)
(3.98539 -4.26594e-07 0)
(3.98547 6.17864e-06 0)
(3.98543 2.05837e-05 0)
(3.98536 2.08139e-05 0)
(3.98545 2.81971e-05 0)
(3.98543 2.9098e-05 0)
(3.98545 3.48998e-05 0)
(3.98544 2.93746e-05 0)
(3.98545 4.66843e-06 0)
(4.04022 -3.18925e-06 0)
(4.04014 -9.9173e-06 0)
(4.04025 -1.04103e-05 0)
(4.04025 -2.92276e-05 0)
(4.04024 -2.34322e-05 0)
(4.04023 -2.28917e-05 0)
(4.04024 -3.86124e-05 0)
(4.04021 -4.70265e-06 0)
(4.0402 2.13986e-06 0)
(4.04013 -1.54805e-05 0)
(4.04022 -6.23927e-06 0)
(4.04022 -9.08954e-06 0)
(4.04023 6.88528e-06 0)
(4.04022 2.11758e-05 0)
(4.04013 2.30996e-05 0)
(4.04022 2.42844e-05 0)
(4.04012 3.12444e-05 0)
(4.0402 2.67556e-05 0)
(4.04014 1.75696e-05 0)
(4.04023 -1.29566e-06 0)
(4.09214 4.8938e-07 0)
(4.09213 -5.57707e-06 0)
(4.09214 -2.11481e-05 0)
(4.09214 -2.04418e-05 0)
(4.09208 -2.21028e-05 0)
(4.09211 -2.16423e-05 0)
(4.09207 -1.68228e-05 0)
(4.09201 -8.1993e-06 0)
(4.09211 3.69922e-06 0)
(4.09212 -1.7393e-05 0)
(4.09206 -2.45737e-05 0)
(4.09213 -1.17325e-05 0)
(4.09213 1.24534e-05 0)
(4.09213 2.62131e-05 0)
(4.09213 3.03519e-05 0)
(4.09214 2.9236e-05 0)
(4.09213 2.80897e-05 0)
(4.09215 2.36846e-05 0)
(4.09214 1.78038e-05 0)
(4.09213 2.81602e-07 0)
(4.14206 -5.19749e-06 0)
(4.14205 -3.68752e-06 0)
(4.14206 -7.53289e-06 0)
(4.14195 -1.57832e-05 0)
(4.14199 -1.94025e-06 0)
(4.14194 -1.42131e-05 0)
(4.14194 -1.53019e-05 0)
(4.1419 -2.3512e-05 0)
(4.14201 -1.44802e-05 0)
(4.142 -1.30628e-05 0)
(4.14201 -2.85173e-05 0)
(4.14191 -1.9718e-06 0)
(4.14197 1.32727e-05 0)
(4.14195 2.20372e-05 0)
(4.14196 2.0349e-05 0)
(4.14201 2.37348e-05 0)
(4.14203 2.09519e-05 0)
(4.14205 1.74732e-05 0)
(4.14206 1.73337e-05 0)
(4.14206 4.63185e-06 0)
(4.19067 2.84422e-06 0)
(4.19058 -1.10487e-05 0)
(4.19068 -9.1259e-08 0)
(4.19064 1.08095e-05 0)
(4.19065 -3.72346e-07 0)
(4.19063 2.50746e-06 0)
(4.19065 -8.00814e-06 0)
(4.1906 -3.33399e-05 0)
(4.19062 -1.93591e-05 0)
(4.19062 -8.81522e-06 0)
(4.19054 -5.3665e-06 0)
(4.19054 3.53267e-06 0)
(4.19057 7.33764e-06 0)
(4.1906 1.14095e-05 0)
(4.19053 1.41603e-05 0)
(4.19061 4.63231e-06 0)
(4.19062 8.5769e-06 0)
(4.19063 -3.16351e-07 0)
(4.19065 9.84235e-06 0)
(4.19066 4.45404e-06 0)
(4.23853 -1.55992e-07 0)
(4.23861 -3.1164e-06 0)
(4.23857 1.82034e-06 0)
(4.23853 4.02229e-06 0)
(4.23862 4.19837e-06 0)
(4.23855 -1.14272e-05 0)
(4.23862 -5.03153e-06 0)
(4.23853 -2.23371e-05 0)
(4.2386 -2.46388e-05 0)
(4.2386 1.55877e-06 0)
(4.23858 2.47478e-06 0)
(4.23859 -5.44982e-06 0)
(4.23857 1.08062e-05 0)
(4.23857 1.34517e-05 0)
(4.23857 2.79337e-06 0)
(4.23859 1.28783e-06 0)
(4.2386 4.84291e-06 0)
(4.23856 7.26914e-06 0)
(4.23853 -5.16011e-06 0)
(4.23863 6.95814e-06 0)
(4.28657 7.73507e-06 0)
(4.28657 -1.49205e-05 0)
(4.28657 7.85122e-06 0)
(4.28658 1.59717e-06 0)
(4.28655 -6.49303e-06 0)
(4.28655 8.79559e-07 0)
(4.28657 -3.34141e-06 0)
(4.28655 -1.41623e-05 0)
(4.28645 4.84177e-07 0)
(4.28653 -1.96245e-06 0)
(4.28651 6.74373e-06 0)
(4.28644 1.03596e-05 0)
(4.28649 8.92728e-06 0)
(4.28651 3.28198e-06 0)
(4.28651 -6.07307e-06 0)
(4.28653 -1.14724e-05 0)
(4.28654 -4.10607e-06 0)
(4.28655 1.19198e-05 0)
(4.28656 -3.0833e-06 0)
(4.28648 1.77623e-06 0)
(4.33506 -1.46947e-05 0)
(4.33503 1.95554e-07 0)
(4.33499 -1.05828e-06 0)
(4.33509 -6.30048e-07 0)
(4.33507 6.48361e-06 0)
(4.33508 -9.26344e-07 0)
(4.33508 -5.03112e-06 0)
(4.33509 -4.20323e-06 0)
(4.33508 -5.08693e-06 0)
(4.33506 1.51446e-05 0)
(4.33499 2.1448e-05 0)
(4.33498 8.49004e-06 0)
(4.33496 -6.41042e-06 0)
(4.33504 -5.33195e-06 0)
(4.33496 -7.3048e-06 0)
(4.33501 -1.97452e-05 0)
(4.33499 -2.27758e-06 0)
(4.33498 -5.28794e-06 0)
(4.33499 -2.59422e-06 0)
(4.33497 -5.60093e-06 0)
(4.3847 -1.20596e-05 0)
(4.38476 -9.94783e-06 0)
(4.38475 -5.01852e-06 0)
(4.38472 -1.05975e-05 0)
(4.3848 -7.9494e-06 0)
(4.38479 2.61018e-07 0)
(4.38478 5.33908e-06 0)
(4.38474 5.68449e-06 0)
(4.38474 6.81373e-06 0)
(4.38471 1.17224e-05 0)
(4.38481 3.13151e-05 0)
(4.38483 9.865e-06 0)
(4.38482 -1.23513e-05 0)
(4.38482 -1.57846e-07 0)
(4.38481 3.07088e-06 0)
(4.38475 -3.21389e-06 0)
(4.38474 -4.14419e-06 0)
(4.38475 -8.32594e-07 0)
(4.38479 9.29242e-06 0)
(4.38479 -9.60804e-06 0)
(4.43648 -1.12536e-05 0)
(4.43649 -1.30147e-05 0)
(4.4365 -5.55786e-06 0)
(4.43644 -2.74665e-06 0)
(4.43638 -9.94882e-06 0)
(4.43646 -1.32841e-05 0)
(4.43649 2.45217e-06 0)
(4.4365 5.36042e-06 0)
(4.43653 -2.7215e-06 0)
(4.43653 4.55815e-06 0)
(4.43652 8.40812e-06 0)
(4.43653 6.04375e-06 0)
(4.43645 8.75434e-07 0)
(4.43649 -7.27513e-07 0)
(4.4365 1.42395e-05 0)
(4.43648 1.1847e-05 0)
(4.43649 1.46546e-05 0)
(4.43638 -9.81349e-06 0)
(4.43647 2.33204e-06 0)
(4.4364 -4.30414e-06 0)
(4.49104 -1.79383e-05 0)
(4.49104 -1.44426e-05 0)
(4.49098 -1.02493e-06 0)
(4.49106 1.31552e-05 0)
(4.49104 -1.55787e-05 0)
(4.49102 -1.90711e-05 0)
(4.49103 -1.23675e-05 0)
(4.49103 -1.22084e-05 0)
(4.49105 1.15585e-06 0)
(4.49095 1.72493e-05 0)
(4.49104 1.06678e-05 0)
(4.49103 1.1311e-05 0)
(4.49105 6.15533e-06 0)
(4.49103 -1.21179e-07 0)
(4.49104 2.11631e-05 0)
(4.49103 3.37538e-05 0)
(4.49095 -3.82561e-06 0)
(4.49104 1.9248e-06 0)
(4.49104 -1.11122e-05 0)
(4.49105 -1.21189e-05 0)
(4.54781 -5.52527e-06 0)
(4.54781 -1.28798e-06 0)
(4.54781 8.3084e-06 0)
(4.54772 5.58944e-06 0)
(4.54782 -1.16034e-05 0)
(4.5477 1.82854e-06 0)
(4.54777 -1.76242e-05 0)
(4.5478 -2.22772e-05 0)
(4.54771 6.11219e-06 0)
(4.5478 1.19225e-05 0)
(4.54781 4.65532e-06 0)
(4.54776 4.04776e-06 0)
(4.54779 4.68888e-06 0)
(4.54774 1.84034e-05 0)
(4.54774 1.38235e-05 0)
(4.54772 -4.37525e-07 0)
(4.54782 3.30561e-06 0)
(4.54784 -2.82036e-05 0)
(4.54783 -1.42337e-05 0)
(4.54784 -3.89308e-06 0)
(4.60463 5.41755e-06 0)
(4.60462 1.33848e-05 0)
(4.60456 1.33747e-05 0)
(4.60464 -5.83498e-06 0)
(4.60464 -2.11085e-05 0)
(4.60464 1.85562e-06 0)
(4.60464 -8.60887e-06 0)
(4.60461 -1.55979e-05 0)
(4.60455 1.38724e-06 0)
(4.60465 3.24797e-06 0)
(4.60458 1.52038e-06 0)
(4.60464 1.40209e-05 0)
(4.6046 1.55404e-05 0)
(4.60456 9.69292e-06 0)
(4.60466 2.11482e-05 0)
(4.60465 -3.8983e-06 0)
(4.60466 -2.19289e-05 0)
(4.60465 -1.66894e-05 0)
(4.60457 -1.75419e-07 0)
(4.60464 -5.23653e-07 0)
(4.66059 9.68055e-06 0)
(4.66056 1.96216e-05 0)
(4.66059 1.22686e-05 0)
(4.66059 -5.4552e-06 0)
(4.66054 -7.50827e-07 0)
(4.66052 -1.14536e-05 0)
(4.66059 -6.22549e-06 0)
(4.6606 -6.34102e-06 0)
(4.66052 -2.20274e-05 0)
(4.66061 2.68474e-06 0)
(4.66059 8.35261e-06 0)
(4.66051 1.39876e-05 0)
(4.6606 2.01883e-05 0)
(4.66061 -4.74006e-06 0)
(4.66062 -2.71514e-06 0)
(4.66061 3.00903e-07 0)
(4.66062 -1.05025e-05 0)
(4.6606 -3.11937e-06 0)
(4.6606 -2.63631e-06 0)
(4.66059 -1.85273e-06 0)
(4.71633 9.68608e-06 0)
(4.71623 2.38764e-06 0)
(4.71632 -3.9604e-06 0)
(4.71635 -1.06847e-05 0)
(4.71637 -9.9107e-06 0)
(4.71637 -1.66236e-05 0)
(4.71634 -5.8965e-06 0)
(4.71634 3.51606e-06 0)
(4.71621 -8.0097e-06 0)
(4.7163 -1.82436e-06 0)
(4.71631 1.18285e-05 0)
(4.71632 1.05521e-05 0)
(4.71633 2.81938e-06 0)
(4.71633 2.51536e-06 0)
(4.71624 -4.66314e-06 0)
(4.71634 -1.12868e-05 0)
(4.71635 2.94709e-06 0)
(4.71624 1.58373e-05 0)
(4.71632 7.8827e-07 0)
(4.71624 6.05324e-06 0)
(4.77246 1.10493e-05 0)
(4.77245 8.85899e-06 0)
(4.77246 -1.56096e-05 0)
(4.77246 -1.25971e-05 0)
(4.77248 -1.0113e-05 0)
(4.77235 3.41484e-06 0)
(4.77242 1.03244e-05 0)
(4.77243 2.89804e-05 0)
(4.7723 5.68739e-06 0)
(4.77239 -2.50385e-05 0)
(4.7724 -6.32492e-06 0)
(4.77241 -2.38058e-06 0)
(4.77242 -1.06294e-05 0)
(4.77243 1.15461e-05 0)
(4.77244 -1.71647e-06 0)
(4.77244 -1.67512e-05 0)
(4.77243 5.8678e-06 0)
(4.77245 1.47578e-05 0)
(4.77246 3.92626e-06 0)
(4.77246 -1.19817e-06 0)
(4.82936 -2.29148e-06 0)
(4.82945 -7.97872e-07 0)
(4.82945 -9.01173e-06 0)
(4.82937 -2.23483e-05 0)
(4.82945 -2.04257e-06 0)
(4.82938 2.01743e-05 0)
(4.82948 -5.87934e-06 0)
(4.82944 4.52622e-05 0)
(4.82944 2.03841e-05 0)
(4.82941 -8.02846e-06 0)
(4.82929 -1.65847e-05 0)
(4.82935 3.3874e-06 0)
(4.82933 1.67652e-06 0)
(4.82929 -3.69464e-06 0)
(4.8294 -1.25263e-05 0)
(4.82939 -7.41619e-06 0)
(4.82933 1.01714e-05 0)
(4.82943 -1.46487e-05 0)
(4.82944 -1.04757e-05 0)
(4.82944 1.29839e-05 0)
(4.88783 7.09448e-06 0)
(4.88782 -1.7245e-05 0)
(4.88783 -2.07975e-06 0)
(4.88781 1.19959e-06 0)
(4.88781 -7.61609e-06 0)
(4.88781 -2.26767e-05 0)
(4.88775 3.62359e-05 0)
(4.88771 2.18573e-05 0)
(4.88782 2.43503e-05 0)
(4.88771 1.41913e-05 0)
(4.88776 1.24427e-05 0)
(4.88777 4.6761e-07 0)
(4.88777 2.60178e-06 0)
(4.88774 -2.37576e-05 0)
(4.88779 -2.90782e-05 0)
(4.88778 -5.1431e-06 0)
(4.88779 -5.40278e-06 0)
(4.8878 -1.90586e-05 0)
(4.88774 -1.84393e-06 0)
(4.8878 1.28545e-05 0)
(4.94815 -3.32448e-06 0)
(4.94814 -1.0698e-05 0)
(4.94805 -2.60826e-06 0)
(4.94814 2.54512e-06 0)
(4.94811 2.85741e-07 0)
(4.94807 1.15504e-05 0)
(4.948 3.33027e-05 0)
(4.94812 9.46871e-06 0)
(4.94812 1.70212e-05 0)
(4.94814 2.76611e-05 0)
(4.9481 9.38191e-06 0)
(4.94811 1.10041e-06 0)
(4.94814 -3.40754e-06 0)
(4.94816 -3.22873e-05 0)
(4.94817 -3.4442e-05 0)
(4.94815 -9.35077e-07 0)
(4.94815 1.64528e-06 0)
(4.94813 -7.64809e-06 0)
(4.94808 -6.14314e-06 0)
(4.94804 -5.87865e-06 0)
(5.01095 -5.88035e-06 0)
(5.01103 -2.59628e-06 0)
(5.01096 -1.79222e-06 0)
(5.01104 1.06627e-06 0)
(5.011 1.75296e-05 0)
(5.01095 2.26038e-05 0)
(5.01089 2.05226e-05 0)
(5.011 -1.63071e-05 0)
(5.01089 5.83296e-06 0)
(5.011 2.18906e-05 0)
(5.011 1.03261e-05 0)
(5.011 -4.2492e-06 0)
(5.01103 -1.80075e-05 0)
(5.01105 -3.88746e-05 0)
(5.01098 -1.9301e-05 0)
(5.01106 -2.96986e-06 0)
(5.01105 8.86316e-06 0)
(5.01106 6.55784e-06 0)
(5.01098 -4.50395e-06 0)
(5.01105 -1.28693e-05 0)
(5.07721 -1.79092e-05 0)
(5.0772 -2.84165e-06 0)
(5.07722 -6.84816e-06 0)
(5.0771 9.13234e-06 0)
(5.07715 4.31836e-05 0)
(5.07708 2.70509e-05 0)
(5.07716 2.41995e-05 0)
(5.07712 1.29795e-05 0)
(5.07704 4.27157e-06 0)
(5.07715 -5.32773e-06 0)
(5.07717 4.53098e-06 0)
(5.07718 -1.11933e-05 0)
(5.0772 -2.59368e-05 0)
(5.07721 -2.96773e-05 0)
(5.07715 -2.29241e-05 0)
(5.0771 -1.06026e-05 0)
(5.07719 5.09943e-06 0)
(5.07719 4.48412e-06 0)
(5.07721 1.71748e-05 0)
(5.07712 -6.48185e-06 0)
(5.14752 -1.08893e-05 0)
(5.14751 -1.51171e-05 0)
(5.14754 1.58443e-05 0)
(5.14741 3.2341e-05 0)
(5.14749 4.96053e-05 0)
(5.14741 1.16265e-05 0)
(5.1475 1.52667e-05 0)
(5.14749 9.50848e-06 0)
(5.14744 1.54674e-05 0)
(5.1474 -9.94818e-06 0)
(5.1475 -1.78965e-05 0)
(5.1475 -1.75645e-05 0)
(5.14751 -3.14789e-05 0)
(5.1475 -1.5355e-05 0)
(5.14745 -7.50947e-06 0)
(5.1474 -1.88867e-05 0)
(5.14748 -1.20238e-05 0)
(5.14751 -7.62321e-06 0)
(5.14754 1.61426e-05 0)
(5.14755 -3.95455e-06 0)
(5.22309 2.26083e-06 0)
(5.22308 1.61924e-05 0)
(5.22302 4.35197e-06 0)
(5.22311 2.89173e-05 0)
(5.22314 4.00907e-05 0)
(5.22313 2.84768e-05 0)
(5.22315 8.37451e-06 0)
(5.22317 1.39605e-05 0)
(5.22319 1.39858e-05 0)
(5.22317 -2.63957e-05 0)
(5.22316 -1.63449e-05 0)
(5.22314 -1.4138e-05 0)
(5.22313 -2.7244e-05 0)
(5.22307 -9.0618e-06 0)
(5.22305 -6.20563e-06 0)
(5.22303 -2.47998e-05 0)
(5.22307 -2.29348e-05 0)
(5.22308 -1.32113e-05 0)
(5.22305 -3.89968e-06 0)
(5.22316 -3.83585e-06 0)
(5.30554 1.26748e-05 0)
(5.30561 2.56297e-06 0)
(5.30554 1.56366e-05 0)
(5.30556 1.84644e-05 0)
(5.30561 2.84792e-05 0)
(5.30564 1.66666e-05 0)
(5.30566 4.85611e-06 0)
(5.30567 5.51811e-06 0)
(5.30568 1.06995e-05 0)
(5.30564 4.93119e-07 0)
(5.30564 -1.04809e-05 0)
(5.30563 -4.10232e-06 0)
(5.30557 -9.58012e-06 0)
(5.30548 1.08418e-06 0)
(5.30553 5.68493e-06 0)
(5.30557 -2.18402e-05 0)
(5.30559 -3.29517e-05 0)
(5.3056 -1.94799e-05 0)
(5.30554 -1.02726e-05 0)
(5.30562 -6.62983e-06 0)
(5.3971 1.19828e-05 0)
(5.39704 2.1287e-05 0)
(5.39702 1.6458e-05 0)
(5.39704 6.31652e-06 0)
(5.39703 3.89647e-07 0)
(5.39713 1.82961e-06 0)
(5.39715 6.84629e-06 0)
(5.39711 7.94769e-06 0)
(5.39708 1.47833e-05 0)
(5.3972 -2.16191e-05 0)
(5.39707 6.52361e-06 0)
(5.39713 6.24542e-06 0)
(5.39706 -3.54693e-06 0)
(5.39714 1.58185e-05 0)
(5.39715 -1.48579e-05 0)
(5.39715 -2.57916e-05 0)
(5.39713 -2.8981e-05 0)
(5.39706 -1.91654e-05 0)
(5.39712 -1.65233e-05 0)
(5.39712 -3.74721e-06 0)
(5.50092 1.87333e-05 0)
(5.50093 3.12671e-05 0)
(5.50084 7.78506e-06 0)
(5.50094 1.85136e-05 0)
(5.50082 -6.72303e-06 0)
(5.50089 -1.13489e-05 0)
(5.50085 -1.7918e-06 0)
(5.50092 1.06514e-05 0)
(5.50094 -6.60506e-06 0)
(5.50092 6.91386e-06 0)
(5.50089 1.11726e-05 0)
(5.50098 3.47324e-06 0)
(5.50097 7.89118e-08 0)
(5.50099 -4.79574e-06 0)
(5.50101 -4.67662e-06 0)
(5.50087 -1.90216e-05 0)
(5.50092 -1.37391e-05 0)
(5.50094 -1.39649e-05 0)
(5.50082 -1.40839e-05 0)
(5.50091 -9.45512e-06 0)
(5.62233 1.70552e-05 0)
(5.62234 4.06289e-05 0)
(5.62224 1.39527e-05 0)
(5.6223 1.93376e-05 0)
(5.6223 9.44541e-06 0)
(5.62218 1.60092e-06 0)
(5.62223 4.35864e-06 0)
(5.62219 1.00839e-06 0)
(5.6222 -6.48702e-06 0)
(5.62223 -3.10323e-06 0)
(5.62222 -7.71711e-07 0)
(5.62236 -1.825e-05 0)
(5.62236 -6.70475e-06 0)
(5.62239 -7.04751e-06 0)
(5.62239 2.77711e-06 0)
(5.62237 -2.79277e-06 0)
(5.62237 -1.65543e-05 0)
(5.62236 -6.30142e-06 0)
(5.62236 -9.59193e-06 0)
(5.62235 -1.48745e-05 0)
(5.7704 1.89788e-05 0)
(5.77041 4.17757e-05 0)
(5.77035 1.73737e-05 0)
(5.77037 1.79906e-05 0)
(5.77039 1.8012e-05 0)
(5.77038 9.11467e-06 0)
(5.77029 -1.05392e-06 0)
(5.77036 1.7571e-06 0)
(5.77038 -2.20342e-05 0)
(5.7704 -2.16921e-05 0)
(5.77041 -2.88693e-05 0)
(5.77043 -2.90106e-05 0)
(5.77044 -2.29867e-05 0)
(5.77046 -9.40357e-06 0)
(5.77047 1.58449e-05 0)
(5.77046 3.3531e-06 0)
(5.77043 -2.38357e-06 0)
(5.77032 -1.47138e-05 0)
(5.77041 -2.09569e-05 0)
(5.77042 -2.11166e-05 0)
(5.96299 2.44604e-05 0)
(5.96312 4.73755e-05 0)
(5.96312 2.0895e-05 0)
(5.96314 1.87078e-05 0)
(5.96316 1.81155e-05 0)
(5.96318 1.9671e-05 0)
(5.96318 8.3561e-06 0)
(5.96319 -2.60989e-06 0)
(5.96318 -1.48401e-05 0)
(5.96308 -8.79655e-06 0)
(5.96318 -4.36155e-05 0)
(5.96314 -2.16448e-05 0)
(5.96306 -7.5856e-06 0)
(5.96305 -2.23591e-05 0)
(5.96302 -6.26245e-06 0)
(5.96311 2.86917e-06 0)
(5.96313 6.13129e-06 0)
(5.96315 -9.8742e-06 0)
(5.96314 -1.64351e-05 0)
(5.96306 5.72127e-06 0)
(6.24261 1.14199e-05 0)
(6.24277 1.90271e-05 0)
(6.24276 2.01303e-05 0)
(6.24279 1.02413e-05 0)
(6.2428 7.16439e-06 0)
(6.24283 9.06487e-06 0)
(6.24285 2.52389e-06 0)
(6.24285 -2.45148e-06 0)
(6.24283 -3.75798e-06 0)
(6.24275 -7.47328e-06 0)
(6.24272 -1.68501e-05 0)
(6.24267 -1.6054e-05 0)
(6.24279 -1.12262e-05 0)
(6.24267 -8.15137e-06 0)
(6.24272 3.46934e-06 0)
(6.24263 3.45266e-06 0)
(6.24269 -2.03468e-06 0)
(6.24273 -9.82802e-06 0)
(6.24262 -2.57119e-06 0)
(6.24269 3.88824e-06 0)
(6.76674 1.69993e-06 0)
(6.76678 2.26949e-06 0)
(6.76678 6.42708e-06 0)
(6.76689 6.79572e-06 0)
(6.76689 1.65984e-06 0)
(6.76692 2.31333e-06 0)
(6.76693 1.20568e-06 0)
(6.76694 -1.72562e-07 0)
(6.76693 1.55283e-06 0)
(6.76696 -6.35714e-07 0)
(6.76689 -1.29096e-05 0)
(6.7668 -7.72316e-06 0)
(6.76676 -7.25568e-06 0)
(6.7667 -1.58054e-06 0)
(6.76677 4.39214e-06 0)
(6.76677 -2.23752e-06 0)
(6.76677 -5.77728e-06 0)
(6.76673 -1.94377e-06 0)
(6.76671 5.87419e-06 0)
(6.76673 5.49833e-06 0)
)
;

boundaryField
{
    movingWall
    {
        type            fixedValue;
        value           uniform (10 0 0);
    }
    bottomWall
    {
        type            noSlip;
    }
    cyc_half0
    {
        type            cyclic;
    }
    cyc_half1
    {
        type            cyclic;
    }
    frontAndBack
    {
        type            empty;
    }
}


// ************************************************************************* //
