/*--------------------------------*- C++ -*----------------------------------*\
  =========                 |
  \\      /  F ield         | OpenFOAM: The Open Source CFD Toolbox
   \\    /   O peration     | Website:  https://openfoam.org
    \\  /    A nd           | Version:  13
     \\/     M anipulation  |
\*---------------------------------------------------------------------------*/
FoamFile
{
    format      ascii;
    class       volVectorField;
    location    "3700";
    object      wallShearStress;
}
// * * * * * * * * * * * * * * * * * * * * * * * * * * * * * * * * * * * * * //

dimensions      [0 2 -2 0 0 0 0];

internalField   uniform (0 0 0);

boundaryField
{
    movingWall
    {
        type            calculated;
        value           nonuniform List<vector> 
20
(
(0.0409939 -5.68685e-08 0)
(0.0409934 -5.96319e-08 0)
(0.0409934 -1.70785e-07 0)
(0.0409919 -1.77104e-07 0)
(0.0409919 -4.59873e-08 0)
(0.0409914 -6.29314e-08 0)
(0.0409912 -3.07324e-08 0)
(0.0409911 2.67857e-09 0)
(0.0409912 -3.9645e-08 0)
(0.0409907 3.4287e-08 0)
(0.0409917 3.09332e-07 0)
(0.0409928 2.0204e-07 0)
(0.0409934 1.823e-07 0)
(0.0409943 2.48781e-08 0)
(0.0409934 -1.16922e-07 0)
(0.0409934 3.70191e-08 0)
(0.0409934 1.24028e-07 0)
(0.040994 6.63095e-08 0)
(0.0409942 -1.01795e-07 0)
(0.040994 -1.11222e-07 0)
)
;
    }
    bottomWall
    {
        type            calculated;
        value           nonuniform List<vector> 
20
(
(-0.0294147 -4.99839e-08 0)
(-0.0294145 9.63058e-08 0)
(-0.0294151 9.21523e-08 0)
(-0.0294155 -1.7284e-08 0)
(-0.0294148 5.85745e-08 0)
(-0.0294162 -5.59025e-08 0)
(-0.0294141 -1.68826e-07 0)
(-0.0294148 6.7863e-08 0)
(-0.0294147 2.186e-09 0)
(-0.0294149 4.35366e-08 0)
(-0.029415 3.05787e-08 0)
(-0.0294151 1.02931e-08 0)
(-0.0294153 3.69361e-08 0)
(-0.0294152 4.98153e-10 0)
(-0.0294153 -2.80727e-08 0)
(-0.0294152 -5.81895e-08 0)
(-0.029415 1.05868e-07 0)
(-0.0294148 1.64112e-07 0)
(-0.0294158 1.19378e-07 0)
(-0.0294156 -1.43821e-07 0)
)
;
    }
    cyc_half0
    {
        type            cyclic;
    }
    cyc_half1
    {
        type            cyclic;
    }
    frontAndBack
    {
        type            empty;
    }
}


// ************************************************************************* //
