/*--------------------------------*- C++ -*----------------------------------*\
  =========                 |
  \\      /  F ield         | OpenFOAM: The Open Source CFD Toolbox
   \\    /   O peration     | Website:  https://openfoam.org
    \\  /    A nd           | Version:  13
     \\/     M anipulation  |
\*---------------------------------------------------------------------------*/
FoamFile
{
    format      ascii;
    class       volScalarField;
    location    "21.300127";
    object      k;
}
// * * * * * * * * * * * * * * * * * * * * * * * * * * * * * * * * * * * * * //

dimensions      [0 2 -2 0 0 0 0];

internalField   nonuniform List<scalar> 
17140
(
6.874389e-11
2.1601688e-09
1.76642e-08
7.5963438e-08
2.3373644e-07
5.8971946e-07
1.3073877e-06
2.648817e-06
5.024608e-06
9.066893e-06
1.573537e-05
2.6470314e-05
4.3411922e-05
6.9712484e-05
0.0001099769
0.00017087782
0.00026200282
0.00039699921
0.00059507836
0.00088290856
0.0012968258
0.0018850577
0.0027091694
0.0038430578
0.0053664882
0.0073489805
0.0098211517
0.012739062
0.015963894
0.019286882
0.022498708
0.025455044
0.028094969
0.030419452
0.03246105
0.034262661
0.035867222
0.037314425
0.038640517
0.039879345
0.041063584
0.042225635
0.043397975
0.044612963
0.045901794
0.047291788
0.04880399
0.050453824
0.05224892
0.05418907
0.056265981
0.058461776
0.060744058
0.063057594
0.065319037
0.067407815
0.069160776
0.070287474
0.070804211
0.070564627
0.069449223
0.067365351
0.06476283
0.060163186
0.051985034
6.7890769e-11
2.1333609e-09
1.7445028e-08
7.5021243e-08
2.3083869e-07
5.8241221e-07
1.2911972e-06
2.6160355e-06
4.9624688e-06
8.9548539e-06
1.5541109e-05
2.6143879e-05
4.2877252e-05
6.8855244e-05
0.0001086272
0.00016878597
0.00025880596
0.00039217621
0.00058789101
0.00087232864
0.0012814521
0.0018630373
0.0026781575
0.0038002829
0.0053090356
0.0072744292
0.0097286028
0.012630241
0.015843494
0.019161394
0.022374281
0.025335922
0.027983304
0.030315974
0.032365765
0.03417536
0.035787772
0.037242735
0.038576591
0.039823325
0.041015746
0.042186363
0.04336778
0.044592556
0.045892151
0.047294292
0.048820684
0.050487466
0.052303519
0.054270513
0.05638261
0.058625508
0.060972169
0.063376088
0.065769936
0.068062305
0.070138236
0.071869781
0.073345495
0.074554264
0.07562369
0.076344183
0.076536435
0.074314832
0.066884677
6.638188e-11
2.0859463e-09
1.7057306e-08
7.3353886e-08
2.257084e-07
5.6946892e-07
1.2625042e-06
2.5579083e-06
4.8522218e-06
8.7559552e-06
1.519603e-05
2.5563631e-05
4.1926218e-05
6.732937e-05
0.00010622298
0.00016505686
0.00025310209
0.00038356276
0.000575041
0.00085338866
0.0012538872
0.0018234783
0.0026223101
0.0037230161
0.0052048514
0.0071385654
0.0095588667
0.012429052
0.015618661
0.018924214
0.022135743
0.025103812
0.02776173
0.030106448
0.032168493
0.033990109
0.035614316
0.037081107
0.038427142
0.039686738
0.040893057
0.042079017
0.043277708
0.044522315
0.045845179
0.047275237
0.048835748
0.050545393
0.05241705
0.054457123
0.056666473
0.059040035
0.0615634
0.064208582
0.066939017
0.069714296
0.07250172
0.075308503
0.078239543
0.081309159
0.084636438
0.08800919
0.090286954
0.090142658
0.083266056
6.4212209e-11
2.0177677e-09
1.6499791e-08
7.095635e-08
2.1833141e-07
5.5085737e-07
1.2212454e-06
2.4743239e-06
4.6936894e-06
8.4699383e-06
1.469979e-05
2.4729172e-05
4.0558443e-05
6.5134674e-05
0.00010276453
0.0001596917
0.000244894
0.00037116396
0.00055653632
0.00082609915
0.001214141
0.0017663807
0.0025415937
0.003611139
0.0050536311
0.006940722
0.0093106543
0.012133295
0.015286109
0.018571048
0.021778125
0.024753473
0.027425034
0.029785869
0.03186448
0.033702411
0.035342689
0.036825642
0.038188399
0.039465802
0.040691589
0.041899344
0.043122977
0.044396741
0.045754394
0.047226807
0.048840011
0.05061677
0.052575499
0.054729567
0.057089753
0.059663707
0.062453129
0.065451842
0.068657133
0.072079554
0.075754745
0.07974759
0.084123198
0.088813188
0.093794304
0.098699212
0.10197779
0.10229792
0.0935499
6.1405857e-11
1.9295825e-09
1.577868e-08
6.7855288e-08
2.0878975e-07
5.2678449e-07
1.1678797e-06
2.3662119e-06
4.4886342e-06
8.0999822e-06
1.4057902e-05
2.3649765e-05
3.8789094e-05
6.229544e-05
9.8289992e-05
0.00015274936
0.00023427104
0.00035511321
0.00053257264
0.00079074148
0.0011626084
0.0016922809
0.0024367049
0.0034654957
0.0048562848
0.0066816729
0.0089842423
0.011742275
0.014843785
0.018098436
0.021296908
0.024279843
0.026968047
0.029349199
0.031448907
0.033307638
0.034968346
0.036471764
0.037855621
0.039155448
0.04040576
0.041641028
0.042896259
0.044207117
0.045609188
0.047135796
0.048816508
0.050678688
0.052747343
0.055044184
0.057590721
0.060407627
0.063511626
0.066915164
0.07064267
0.074741573
0.079286613
0.084342571
0.089868993
0.095644746
0.10143661
0.10679319
0.10974641
0.10813383
0.096919751
5.8009579e-11
1.8228599e-09
1.4905985e-08
6.4102351e-08
1.9724229e-07
4.9765105e-07
1.1032952e-06
2.2353715e-06
4.2404677e-06
7.6522386e-06
1.3281032e-05
2.2343325e-05
3.6647488e-05
5.8858607e-05
9.2873104e-05
0.00014434372
0.00022140633
0.00033566974
0.00050353204
0.00074786918
0.0011000754
0.0016022676
0.0023091024
0.0032879513
0.0046150368
0.0063637901
0.0085816986
0.01125709
0.014291168
0.017503995
0.020688155
0.023678068
0.026385589
0.028791297
0.030916801
0.032800963
0.0344865
0.036014556
0.03742356
0.038749869
0.04002892
0.04129624
0.042588111
0.043941817
0.045394998
0.046983677
0.048741165
0.050699292
0.052890135
0.055343275
0.058089925
0.061161232
0.06458415
0.06838211
0.072594291
0.077285732
0.082544349
0.088398324
0.094650626
0.10091956
0.1067312
0.11162015
0.1129879
0.10911189
0.092806044
5.409183e-11
1.6997509e-09
1.3899296e-08
5.977318e-08
1.8392177e-07
4.6404418e-07
1.0287934e-06
2.0844387e-06
3.9541882e-06
7.1357215e-06
1.238481e-05
2.0836113e-05
3.4176618e-05
5.4893043e-05
8.6622124e-05
0.00013464214
0.00020655472
0.0003132159
0.00046997981
0.00069830484
0.0010277176
0.0014979844
0.0021610198
0.0030814264
0.0043334986
0.0059911803
0.0081071094
0.010680949
0.013629646
0.01678675
0.019948732
0.022943583
0.025672441
0.028106812
0.030262911
0.032177247
0.033891995
0.035448651
0.036886381
0.038242453
0.039553317
0.040855636
0.042187032
0.043586447
0.045093563
0.046747036
0.048583803
0.050640771
0.05295101
0.055556296
0.058492729
0.0617973
0.065500264
0.069627049
0.074218135
0.079340156
0.085081927
0.091404623
0.09793615
0.10414108
0.10932575
0.11294365
0.112207
0.1047711
0.078600697
4.9741335e-11
1.5630435e-09
1.2781409e-08
5.496581e-08
1.6912984e-07
4.2672489e-07
9.4606117e-07
1.91683e-06
3.6362744e-06
6.562116e-06
1.13895e-05
1.9162184e-05
3.1432255e-05
5.048812e-05
7.9677635e-05
0.00012386217
0.00019004782
0.0002882501
0.00043265454
0.00064312692
0.00094708372
0.0013816118
0.0019954508
0.0028498948
0.0040167016
0.0055697866
0.0075667911
0.010019523
0.012862965
0.015947596
0.019076645
0.022072269
0.024823342
0.027290084
0.029481553
0.031430864
0.033179158
0.034768102
0.036237565
0.03762574
0.038970103
0.04030844
0.041679635
0.043124131
0.044683393
0.04639827
0.048308545
0.050454214
0.052873915
0.055604512
0.058696533
0.062183062
0.066090237
0.070438342
0.075258985
0.080609334
0.086586384
0.093029558
0.099399718
0.10503536
0.1090459
0.11061231
0.10727508
0.093808099
0.054929395
4.5064671e-11
1.4160866e-09
1.1579705e-08
4.9797987e-08
1.532288e-07
3.866072e-07
8.571245e-07
1.7366497e-06
3.2945092e-06
5.9454606e-06
1.0319452e-05
1.7362464e-05
2.8481439e-05
4.5751317e-05
7.220879e-05
0.00011226576
0.0001722854
0.00026137414
0.00039245003
0.00058364452
0.00086006197
0.0012558246
0.0018161006
0.0025983397
0.003671079
0.0051074386
0.0069694714
0.0092813171
0.0119978
0.01498994
0.018071582
0.021060772
0.023833084
0.026335072
0.028566449
0.030555508
0.0323416
0.033966216
0.03546979
0.036891363
0.038269364
0.039642575
0.041050921
0.042535983
0.044140496
0.04590675
0.047876229
0.05009066
0.052591487
0.055417794
0.058604411
0.06219033
0.066198127
0.070634621
0.075519702
0.08089749
0.086808994
0.093023742
0.098833965
0.10341743
0.10566208
0.10455311
0.096814356
0.072522744
0.028096566
4.0182319e-11
1.2626663e-09
1.032515e-08
4.4402875e-08
1.3662837e-07
3.4472475e-07
7.6427477e-07
1.5485393e-06
2.9376956e-06
5.3016352e-06
9.2022129e-06
1.5483265e-05
2.5400055e-05
4.0804339e-05
6.4407252e-05
0.00010014995
0.00015372133
0.00023327234
0.00035038493
0.00052135422
0.00076882036
0.001123713
0.0016272877
0.0023326426
0.0033043646
0.0046138082
0.006326384
0.0084780041
0.011044373
0.013920522
0.016935717
0.019907083
0.022696787
0.025235384
0.027510605
0.029544002
0.031372013
0.033035382
0.034574811
0.036030011
0.037440181
0.038844857
0.04028464
0.041801692
0.043439272
0.045240084
0.047245837
0.049497892
0.052036253
0.05489955
0.058122274
0.061728808
0.065723919
0.070108782
0.074903454
0.080114466
0.085651472
0.091227629
0.096042164
0.099051511
0.098846705
0.094176808
0.078498129
0.039252625
0.012668006
3.5223824e-11
1.1068535e-09
9.0510296e-09
3.8923617e-08
1.1976896e-07
3.0218866e-07
6.6997517e-07
1.3574889e-06
2.5752978e-06
4.6477142e-06
8.0674056e-06
1.3574398e-05
2.2269748e-05
3.5778187e-05
5.6479448e-05
8.7834976e-05
0.00013484546
0.00020468451
0.00030756306
0.00045788311
0.00067572668
0.00098867341
0.0014338006
0.0020594086
0.0029254028
0.004100252
0.0056512382
0.0076246652
0.010017099
0.012750449
0.01567487
0.018611508
0.021410511
0.023984531
0.026306315
0.028388161
0.03026199
0.031966891
0.033543338
0.035031385
0.036470703
0.037901218
0.039363704
0.040900186
0.042553494
0.044365534
0.046376567
0.048625456
0.051148212
0.053977627
0.057140498
0.060652298
0.064510367
0.068708058
0.073248763
0.078031769
0.08284121
0.087493206
0.090836077
0.091450395
0.08824838
0.07680456
0.046762493
0.015432272
0.0048710788
3.0321168e-11
9.5279512e-10
7.7912543e-09
3.3506033e-08
1.0309926e-07
2.6013096e-07
5.7673523e-07
1.1685826e-06
2.2169592e-06
4.0010974e-06
6.9452233e-06
1.1686646e-05
1.917378e-05
3.0806521e-05
4.863613e-05
7.5648057e-05
0.00011615903
0.00017636907
0.0002651189
0.00039490934
0.00058323504
0.00085425031
0.0012406846
0.00178569
0.0025438172
0.0035794623
0.0049599505
0.0067397868
0.0089350844
0.011496304
0.01430005
0.017178188
0.019972391
0.02257659
0.024945432
0.027078823
0.029001921
0.030750804
0.03236493
0.033884173
0.035348236
0.03679694
0.038270613
0.039810295
0.041457282
0.043251347
0.045229577
0.047426292
0.049871198
0.052588753
0.055595926
0.058900293
0.062498422
0.066389916
0.070457137
0.0745197
0.078346469
0.081606249
0.082638188
0.080197357
0.070985226
0.047079367
0.017260997
0.005423463
0.0017192049
2.5602203e-11
8.0450906e-10
6.578681e-09
2.8291435e-08
8.7054079e-08
2.1964865e-07
4.8698684e-07
9.8674726e-07
1.8720258e-06
3.3786494e-06
5.8649345e-06
9.8692466e-06
1.6192912e-05
2.6019045e-05
4.1081959e-05
6.3907279e-05
9.8149912e-05
0.00014906566
0.00022416178
0.00033407997
0.00049376654
0.00072396536
0.0010530025
0.0015186624
0.0021695904
0.0030649675
0.0042701454
0.0058449567
0.0078223437
0.010181199
0.012829292
0.015617247
0.018384528
0.021007525
0.023420134
0.025606193
0.027581103
0.029375953
0.031027969
0.032576066
0.034059348
0.035516895
0.036987851
0.038511343
0.040125939
0.041867865
0.043769353
0.045858325
0.048156189
0.050677045
0.053428892
0.056419704
0.059659643
0.063063921
0.066403127
0.069512716
0.072005946
0.072896986
0.070665659
0.062269205
0.041365883
0.016417533
0.0054122108
0.0017602369
0.00061696625
2.1182649e-11
6.6563142e-10
5.4430419e-09
2.340768e-08
7.202683e-08
1.8173431e-07
4.0293063e-07
8.164418e-07
1.5489563e-06
2.7956365e-06
4.8530396e-06
8.1667952e-06
1.3400317e-05
2.1533355e-05
3.4002652e-05
5.2901633e-05
8.1262141e-05
0.00012344897
0.00018570687
0.0002769089
0.00040955985
0.00060110165
0.0008755268
0.001265194
0.0018124789
0.0025703724
0.0036002527
0.0049639828
0.0067073316
0.0088352788
0.01128946
0.013947566
0.016655879
0.019277549
0.021724545
0.023960837
0.025988285
0.027830215
0.02951982
0.031093881
0.03259003
0.034045795
0.035498255
0.036983636
0.038536542
0.040188215
0.041964461
0.043885014
0.045961224
0.048195754
0.050595166
0.053183571
0.055946863
0.058589919
0.060987828
0.062858352
0.062825628
0.060186713
0.051616827
0.031233426
0.013125798
0.0049268207
0.0016998052
0.00061683954
0.00027455496
1.715832e-11
5.3917312e-10
4.408959e-09
1.8960657e-08
5.8343336e-08
1.4721003e-07
3.2638926e-07
6.6135934e-07
1.2547576e-06
2.264706e-06
3.9314972e-06
6.6162549e-06
1.0856675e-05
1.7447026e-05
2.7552446e-05
4.287144e-05
6.5865647e-05
0.0001000826
0.00015060535
0.00022467191
0.00033251483
0.00048847205
0.00071239989
0.0010313502
0.0014813012
0.0021083603
0.0029681733
0.0041212726
0.0056213491
0.0074948599
0.0097169362
0.012199324
0.014805898
0.017394776
0.019857672
0.02213575
0.024213021
0.026101374
0.027827385
0.029423966
0.030926032
0.032368509
0.033785369
0.035208817
0.036668245
0.038188406
0.03978725
0.041474252
0.0432488
0.045105574
0.04707229
0.049195219
0.05121521
0.052853833
0.05397301
0.053268151
0.049110128
0.039176787
0.020329029
0.0093693119
0.0038345591
0.0014963788
0.00058498383
0.00027292396
0.00017202402
1.360017e-11
4.2736388e-10
3.4946666e-09
1.5028785e-08
4.6244914e-08
1.1668473e-07
2.5871285e-07
5.2423596e-07
9.9462181e-07
1.7952321e-06
3.1165893e-06
5.2450484e-06
8.6070362e-06
1.3832582e-05
2.1846156e-05
3.3995979e-05
5.2237196e-05
7.9389901e-05
0.00011950005
0.00017833971
0.00026409144
0.0003882671
0.00056690462
0.00082204974
0.0011834243
0.0016899376
0.0023902086
0.0033404469
0.0045970998
0.0062017034
0.008158896
0.010417189
0.012869824
0.015380861
0.017828404
0.020130233
0.022248475
0.024179099
0.025938497
0.027553196
0.029053599
0.030470622
0.031833837
0.033170112
0.034502211
0.035846628
0.037212073
0.038594756
0.039982638
0.041383044
0.042861324
0.044298873
0.045339904
0.045445258
0.043858287
0.03817885
0.025063005
0.012556483
0.005913956
0.0026716208
0.0011511395
0.00051027486
0.00025707889
0.00016974654
0.00014065344
1.0548742e-11
3.3147762e-10
2.7105808e-09
1.1656854e-08
3.5869388e-08
9.0506211e-08
2.006728e-07
4.0663533e-07
7.7151734e-07
1.3925774e-06
2.417637e-06
4.0688905e-06
6.6772559e-06
1.0731727e-05
1.6949985e-05
2.6379012e-05
4.053783e-05
6.1619013e-05
9.2771499e-05
0.00013849455
0.00020518097
0.00030185505
0.00044115255
0.00064057442
0.00092398848
0.0013232048
0.0018791274
0.0026413872
0.0036644875
0.0049978549
0.0066684131
0.0086597529
0.010900587
0.013276555
0.015662189
0.01795613
0.020096501
0.022058812
0.023844814
0.025471142
0.026961104
0.028339614
0.029630131
0.030852501
0.03202098
0.033141272
0.034211064
0.035210864
0.03613699
0.03702999
0.037857008
0.038306239
0.037773128
0.034769714
0.027132532
0.014276476
0.007376075
0.0035708512
0.001691427
0.00080873394
0.00040347602
0.00023093194
0.00016135028
0.00013840257
0.00013029061
8.0139077e-12
2.5182446e-10
2.0592363e-09
8.8557669e-09
2.7250322e-08
6.8759225e-08
1.5245721e-07
3.0893933e-07
5.8617051e-07
1.0580575e-06
1.8369363e-06
3.0916735e-06
5.0737864e-06
8.1549809e-06
1.2880883e-05
2.0047656e-05
3.0810812e-05
4.6839079e-05
7.05309e-05
0.00010531719
0.00015608129
0.00022973488
0.00033599424
0.0004883984
0.00070558384
0.001012749
0.0014430461
0.0020382412
0.0028473095
0.0039208332
0.005298985
0.0069934415
0.0089701716
0.011146273
0.013408716
0.015646351
0.017775537
0.019748348
0.021547164
0.023174265
0.024642258
0.025967191
0.02716396
0.028242965
0.029206981
0.030046828
0.030748199
0.031292756
0.031716202
0.031996782
0.03183962
0.030587288
0.026340748
0.016408738
0.0084001857
0.0041288206
0.00207585
0.0010397925
0.00053876717
0.00030554066
0.00019745088
0.00015181184
0.00013305306
0.00012819784
0.0001252977
5.9765328e-12
1.8780311e-10
1.5357165e-09
6.6043834e-09
2.0322682e-08
5.1279756e-08
1.137027e-07
2.3041236e-07
4.371877e-07
7.8916174e-07
1.3701397e-06
2.306107e-06
3.7847238e-06
6.0833452e-06
9.609141e-06
1.4956326e-05
2.2987494e-05
3.4948757e-05
5.2632023e-05
7.860255e-05
0.00011651592
0.00017155568
0.00025102966
0.00036516628
0.00052814311
0.00075934023
0.0010847027
0.0015378562
0.0021601617
0.0029982094
0.0040966776
0.0054851312
0.0071610104
0.0090774652
0.011147169
0.013264123
0.015331218
0.017278105
0.019064407
0.020673242
0.022101871
0.023353422
0.024430559
0.025330499
0.026039834
0.026530871
0.026796313
0.026846863
0.026681034
0.026007924
0.023825119
0.018236254
0.0095302444
0.0048558875
0.0024032335
0.0012016255
0.00063719816
0.00036355713
0.00023212252
0.00016989475
0.0001404618
0.00012872838
0.0001240291
0.00012348558
0.00012080747
4.3936265e-12
1.3806277e-10
1.1289768e-09
4.8552067e-09
1.4940333e-08
3.7699162e-08
8.3592161e-08
1.6939937e-07
3.2143045e-07
5.8022929e-07
1.0074283e-06
1.6956853e-06
2.7830243e-06
4.4734508e-06
7.0664696e-06
1.0999201e-05
1.6906254e-05
2.5704527e-05
3.8712841e-05
5.7819954e-05
8.571922e-05
0.00012623397
0.00018476409
0.00026888963
0.00038916683
0.00056013556
0.00080150158
0.0011393219
0.0016067416
0.0022433505
0.0030916164
0.004188629
0.0055527635
0.0071692
0.0089830607
0.010907813
0.012846465
0.014713307
0.016445599
0.018003709
0.019364446
0.02051262
0.021433083
0.022103821
0.022490898
0.022559381
0.022369082
0.02187212
0.020687205
0.017704435
0.010931067
0.0056709798
0.0027964004
0.0014077043
0.00073391917
0.00040973208
0.00025866179
0.00018603809
0.0001502425
0.00013279014
0.00012396273
0.00012128923
0.00011999473
0.00011901266
0.00011629437
3.2067727e-12
1.0076778e-10
8.2400637e-10
3.5436845e-09
1.0904659e-08
2.7516362e-08
6.1014813e-08
1.236501e-07
2.3463071e-07
4.2355942e-07
7.3543959e-07
1.2379328e-06
2.0318335e-06
3.2661254e-06
5.1595409e-06
8.0313187e-06
1.234493e-05
1.8770012e-05
2.8269758e-05
4.2223708e-05
6.2599415e-05
9.2190967e-05
0.00013494759
0.00019642086
0.00028436199
0.00040949552
0.00058646962
0.0008349111
0.0011803513
0.0016544806
0.0022937215
0.0031346723
0.0042052712
0.0055124966
0.0070313377
0.0087023459
0.010442061
0.012161162
0.013780238
0.015236625
0.01648248
0.017477943
0.018182003
0.018544362
0.018513348
0.018147106
0.017385022
0.01583523
0.012102285
0.0064949705
0.0033128539
0.0016643146
0.00084968588
0.00046917933
0.00028794004
0.00020094037
0.00015975158
0.00013869183
0.00012778672
0.00012193919
0.00011854849
0.0001176724
0.00011533366
0.00011461759
0.0001127993
2.3504969e-12
7.386067e-11
6.039799e-10
2.597461e-09
7.9930237e-09
2.0169657e-08
4.4725433e-08
9.0641792e-08
1.7200306e-07
3.105168e-07
5.3918631e-07
9.0763479e-07
1.4897894e-06
2.3949258e-06
3.78348e-06
5.8896038e-06
9.0532176e-06
1.3765394e-05
2.0732362e-05
3.0965385e-05
4.5906353e-05
6.7602235e-05
9.894552e-05
0.00014400209
0.00020845137
0.00030016289
0.00042992163
0.00061227671
0.00086639741
0.0012166368
0.0016921908
0.0023248444
0.003143615
0.0041658142
0.005386413
0.0067707064
0.0082553512
0.0097583362
0.011192437
0.012475625
0.013533705
0.014296244
0.01468622
0.014633974
0.014162742
0.013162843
0.011370352
0.0073211686
0.0038566001
0.00195411
0.0010000995
0.0005423404
0.00032347469
0.00022057058
0.00017089388
0.00014583435
0.00013313747
0.00012537553
0.00012105724
0.00011816963
0.00011583311
0.00011353807
0.00011169969
0.00011146034
0.00011013696
1.758945e-12
5.5272082e-11
4.5197609e-10
1.9437675e-09
5.9815229e-09
1.5094132e-08
3.3471614e-08
6.7836954e-08
1.2873385e-07
2.3241441e-07
4.0358998e-07
6.7941931e-07
1.1152644e-06
1.7929629e-06
2.8326688e-06
4.4097368e-06
6.7787036e-06
1.0307213e-05
1.5523807e-05
2.3184921e-05
3.4368308e-05
5.0602466e-05
7.4044471e-05
0.00010772174
0.00015585575
0.00022428611
0.00032100697
0.00045680668
0.0006459494
0.00090672914
0.0012615348
0.001735788
0.0023547955
0.0031377159
0.0040889252
0.0051893251
0.006391994
0.0076252837
0.0088011818
0.0098238378
0.010594414
0.011009465
0.010971302
0.010499392
0.0094084052
0.0074085401
0.0042614218
0.0022673491
0.0011733084
0.00062340096
0.00036429947
0.00024314616
0.00018451496
0.00015520185
0.00013964519
0.00013063104
0.00012552489
0.00012145037
0.00011842366
0.00011538138
0.00011207873
0.00011081017
0.00010875486
0.00010860615
0.00010741137
1.3691989e-12
4.3024932e-11
3.5182809e-10
1.5130797e-09
4.6562295e-09
1.1750033e-08
2.6056692e-08
5.2810945e-08
1.0022325e-07
1.8095058e-07
3.1423988e-07
5.2903603e-07
8.6846737e-07
1.3962917e-06
2.2061209e-06
3.4345686e-06
5.2799093e-06
8.0284424e-06
1.2091559e-05
1.805757e-05
2.6763701e-05
3.939531e-05
5.7621307e-05
8.3776625e-05
0.00012110396
0.00017406646
0.00024873786
0.00035326175
0.00049833736
0.00069762151
0.00096781938
0.0013280012
0.0017975211
0.0023918078
0.0031157714
0.0039558764
0.0048735935
0.0058035517
0.0066576984
0.0073315919
0.0077106546
0.0076833638
0.0072554935
0.0062294276
0.0043128261
0.0024139839
0.0013090999
0.00071131876
0.00040835651
0.0002627278
0.00019685757
0.00016509332
0.00014775584
0.00013735155
0.00013131249
0.00012666912
0.00012278676
0.00011900715
0.0001152897
0.00011198021
0.00011015479
0.00010828099
0.00010634723
0.00010616086
0.00010523723
1.1202799e-12
3.520306e-11
2.8786681e-10
1.2380123e-09
3.8097942e-09
9.6141834e-09
2.1320694e-08
4.3213304e-08
8.2011821e-08
1.4807628e-07
2.5716245e-07
4.3296752e-07
7.1080433e-07
1.142881e-06
1.8058544e-06
2.8115898e-06
4.3224154e-06
6.5726392e-06
9.8987241e-06
1.4781314e-05
2.1903288e-05
3.2229123e-05
4.711201e-05
6.8435964e-05
9.8800155e-05
0.00014175049
0.00020205714
0.00028602224
0.00040177387
0.00055945108
0.00077108872
0.0010498808
0.0014083496
0.0018549578
0.0023889384
0.0029938375
0.003631493
0.0042391187
0.0047323484
0.0050113377
0.0049786688
0.0045995006
0.0037212163
0.0023647381
0.0013564968
0.00075603903
0.0004378512
0.00028064015
0.00020451133
0.0001688578
0.00015434185
0.00014451422
0.00013845663
0.00013304924
0.0001285832
0.00012389721
0.00011944316
0.00011531056
0.0001124315
0.00011031129
0.00010778876
0.00010609002
0.0001043623
0.00010410284
0.0001032719
9.5101999e-13
2.9884342e-11
2.4437435e-10
1.05097e-09
3.2342143e-09
8.161732e-09
1.809985e-08
3.6685658e-08
6.9624547e-08
1.2571316e-07
2.1833053e-07
3.6760057e-07
6.0351299e-07
9.704069e-07
1.5333824e-06
2.3874249e-06
3.6703217e-06
5.5808368e-06
8.4041025e-06
1.2546785e-05
1.8585259e-05
2.7330675e-05
3.9915256e-05
5.7903895e-05
8.3433572e-05
0.00011937871
0.00016953158
0.00023876993
0.00033315498
0.00045985812
0.000626755
0.00084143017
0.0011093052
0.0014307458
0.0017971763
0.0021866266
0.002560424
0.0028627764
0.0030233912
0.0029624213
0.0026607613
0.0019864365
0.0012315988
0.00073348683
0.00043942357
0.00027994329
0.00020276973
0.00016874538
0.00015225456
0.00014641598
0.00014373298
0.00014046399
0.00013575504
0.00013039421
0.00012480903
0.0001199626
0.00011628488
0.00011344249
0.00011090493
0.0001079187
0.00010599465
0.00010433181
0.00010261711
0.00010230182
0.00010154301
8.0394169e-13
2.5262638e-11
2.0658131e-10
8.884357e-10
2.7340333e-09
6.8994696e-09
1.530051e-08
3.1011602e-08
5.885547e-08
1.0626769e-07
1.8455689e-07
3.1073178e-07
5.1013698e-07
8.2023704e-07
1.2960215e-06
2.0176835e-06
3.1014609e-06
4.7148297e-06
7.0976065e-06
1.0590924e-05
1.567643e-05
2.3028268e-05
3.3580157e-05
4.860862e-05
6.9830297e-05
9.9504851e-05
0.00014052344
0.00019644354
0.0002714028
0.00036980776
0.0004956695
0.00065149562
0.00083652651
0.0010447342
0.0012623391
0.0014660763
0.0016218003
0.0016895001
0.0016277478
0.0013918341
0.00098827517
0.00062891393
0.00039173842
0.00025521531
0.00018692814
0.0001544299
0.00014326182
0.00014198073
0.00014296532
0.00014384718
0.00014265
0.00013883915
0.00013193043
0.00012563775
0.00012123694
0.00011777361
0.00011465217
0.00011125674
0.00010834807
0.00010628943
0.0001044074
0.00010262619
0.00010112058
0.00010077648
0.00010019809
6.4071145e-13
2.0133376e-11
1.6463747e-10
7.0804727e-10
2.1788956e-09
5.49847e-09
1.2193334e-08
2.4713127e-08
4.6900026e-08
8.467692e-08
1.4704994e-07
2.4756085e-07
4.0638008e-07
6.5330676e-07
1.0320444e-06
1.6062559e-06
2.4680731e-06
3.749947e-06
5.6409568e-06
8.4089121e-06
1.2429694e-05
1.8225098e-05
2.6509626e-05
3.8244702e-05
5.4694707e-05
7.7471971e-05
0.00010854605
0.00015017578
0.00020470256
0.00027413084
0.00035943181
0.0004595224
0.00057013412
0.00068271822
0.00078381345
0.00085442119
0.00087032153
0.00081068183
0.00065366197
0.0004584027
0.00031036788
0.00020948345
0.00015543169
0.00012803265
0.00012280631
0.00012726005
0.00013483277
0.00014260409
0.00014642927
0.00014530405
0.00014158661
0.00013314663
0.00012713132
0.00012303737
0.00011942503
0.00011547313
0.00011186781
0.00010908602
0.00010711264
0.00010477556
0.00010285505
0.00010123296
9.9831245e-05
9.9457597e-05
9.8965241e-05
4.5910115e-13
1.4426543e-11
1.1797044e-10
5.07345e-10
1.5612433e-09
3.9397111e-09
8.7363024e-09
1.7705513e-08
3.3598567e-08
6.0655247e-08
1.0531963e-07
1.7727551e-07
2.9093549e-07
4.6756971e-07
7.3832842e-07
1.1485005e-06
1.7634573e-06
2.6768495e-06
4.0217375e-06
5.9853905e-06
8.828394e-06
1.2908279e-05
1.8706834e-05
2.6858098e-05
3.8170131e-05
5.3627346e-05
7.4351095e-05
0.00010148562
0.00013596721
0.0001781415
0.00022721765
0.00028066815
0.00033361695
0.00037849004
0.00040519125
0.00040141629
0.00036047999
0.00028376292
0.00020861325
0.00014991649
0.00011654501
9.7186703e-05
9.475769e-05
0.00010093436
0.00011568134
0.00013533072
0.00014746426
0.00014895789
0.00014780968
0.00014391179
0.00013479658
0.00012887722
0.00012492441
0.00012062729
0.00011643402
0.00011290316
0.00011036456
0.00010780851
0.00010531422
0.00010316042
0.00010158422
9.9948578e-05
9.8651074e-05
9.8321524e-05
9.797906e-05
2.8625589e-13
8.995139e-12
7.3555761e-11
3.1633073e-10
9.7341488e-10
2.4562612e-09
5.4464311e-09
1.103713e-08
2.0941976e-08
3.7800402e-08
6.5621342e-08
1.1042361e-07
1.8115405e-07
2.9099464e-07
4.5920818e-07
7.1371923e-07
1.0946798e-06
1.6593185e-06
2.4883973e-06
3.6945591e-06
5.4326633e-06
7.9117415e-06
1.1407246e-05
1.6270519e-05
2.2929542e-05
3.1870867e-05
4.3587225e-05
5.8471283e-05
7.6637493e-05
9.7667267e-05
0.00012030241
0.00014217371
0.00015965203
0.00016796225
0.00016250082
0.00014283879
0.00011633926
9.236468e-05
7.670568e-05
6.6251031e-05
6.7204901e-05
7.2701924e-05
8.6686671e-05
0.00011458229
0.00014151714
0.00014997126
0.00015187052
0.0001506316
0.00014654324
0.00013695738
0.00013109422
0.00012666181
0.0001220228
0.00011779331
0.00011456021
0.00011155206
0.00010855493
0.00010587085
0.00010396571
0.00010209907
0.00010038383
9.8787195e-05
9.7653773e-05
9.732382e-05
9.7063376e-05
1.5232214e-13
4.786476e-12
3.9140073e-11
1.6832104e-10
5.1794102e-10
1.306872e-09
2.8975761e-09
5.8712141e-09
1.1138284e-08
2.0100181e-08
3.4883332e-08
5.8676018e-08
9.6209176e-08
1.5443682e-07
2.4348927e-07
3.7799178e-07
5.7885985e-07
8.7569135e-07
1.3098607e-06
1.93835e-06
2.8381788e-06
4.1109328e-06
5.886235e-06
8.3219143e-06
1.1597e-05
1.5891695e-05
2.1346681e-05
2.7993796e-05
3.5656282e-05
4.3827325e-05
5.15626e-05
5.7439676e-05
5.9597682e-05
5.7589125e-05
5.267539e-05
4.7145986e-05
4.2378238e-05
4.0229244e-05
4.3450369e-05
4.8622266e-05
6.061819e-05
8.2815445e-05
0.00011926198
0.00014332836
0.00015278026
0.00015440586
0.00015318774
0.00014911463
0.00013937991
0.00013326733
0.0001282894
0.00012339695
0.00011953977
0.00011605452
0.00011267197
0.00010932478
0.00010693526
0.00010480163
0.00010281101
0.00010073047
9.924548e-05
9.7789743e-05
9.6742531e-05
9.6460817e-05
9.6305015e-05
6.8490995e-14
2.152214e-12
1.7598953e-11
7.5682052e-11
2.3287079e-10
5.875378e-10
1.3025359e-09
2.6388455e-09
5.0050501e-09
9.0294013e-09
1.5663909e-08
2.6333404e-08
4.3147036e-08
6.9195132e-08
1.0896049e-07
1.6887883e-07
2.5808594e-07
3.89384e-07
5.8043743e-07
8.5515357e-07
1.2450904e-06
1.7905273e-06
2.5404949e-06
3.5505626e-06
4.87656e-06
6.5618511e-06
8.6160326e-06
1.0984334e-05
1.3512378e-05
1.5918565e-05
1.7795264e-05
1.884217e-05
1.9330311e-05
1.9580387e-05
2.0048419e-05
2.1697375e-05
2.4874518e-05
3.0184329e-05
4.0592167e-05
5.825438e-05
8.5778404e-05
0.00012133441
0.00014413518
0.00015454496
0.00015687635
0.00015572643
0.00015185183
0.00014223244
0.00013568107
0.00013009734
0.0001251887
0.00012138845
0.00011769529
0.00011384651
0.00011070446
0.0001081473
0.00010574711
0.00010335553
0.00010144927
9.9794845e-05
9.8347048e-05
9.6854396e-05
9.5916697e-05
9.5656494e-05
9.5581726e-05
2.6352883e-14
8.2809273e-13
6.7713452e-12
2.9118422e-11
8.9591259e-11
2.2602025e-10
5.0100577e-10
1.0148065e-09
1.9242479e-09
3.4701829e-09
6.0169929e-09
1.010885e-08
1.654896e-08
2.6509699e-08
4.1683187e-08
6.4482742e-08
9.830466e-08
1.4785445e-07
2.1952814e-07
3.2181149e-07
4.656093e-07
6.6433527e-07
9.3347676e-07
1.2892162e-06
1.7456046e-06
2.3099392e-06
2.9766915e-06
3.7219843e-06
4.5038078e-06
5.2950853e-06
6.1711019e-06
7.2286705e-06
8.5812212e-06
1.0344661e-05
1.3277518e-05
1.8322295e-05
2.6391841e-05
4.0187242e-05
6.0439245e-05
8.7280814e-05
0.00011874095
0.0001415675
0.00015553607
0.00015921284
0.00015819576
0.00015468004
0.00014533686
0.00013807518
0.00013204214
0.00012705825
0.00012314736
0.00011913891
0.00011537922
0.00011215296
0.00010944968
0.00010651834
0.00010426133
0.0001022567
0.0001006193
9.8768156e-05
9.7322702e-05
9.6015858e-05
9.521231e-05
9.4998045e-05
9.4877494e-05
9.9792698e-15
3.1358044e-13
2.5641405e-12
1.1026241e-11
3.3924457e-11
8.5580625e-11
1.8968932e-10
3.8418831e-10
7.2839765e-10
1.3133754e-09
2.2767938e-09
3.8240912e-09
6.2582084e-09
1.002083e-08
1.5748667e-08
2.4348678e-08
3.7095906e-08
5.5756164e-08
8.273209e-08
1.212241e-07
1.753864e-07
2.5044385e-07
3.5272301e-07
4.8955685e-07
6.6907005e-07
8.9995388e-07
1.193171e-06
1.5673078e-06
2.0607803e-06
2.7616554e-06
3.7760785e-06
5.2931743e-06
7.6371984e-06
1.1380158e-05
1.7583812e-05
2.7288049e-05
4.1570313e-05
6.1025878e-05
8.5790179e-05
0.00011470081
0.00014017779
0.00015733957
0.00016165221
0.00016076647
0.00015768043
0.00014873598
0.00014054321
0.00013428461
0.00012921454
0.00012494357
0.00012079712
0.00011714062
0.00011388653
0.00011062473
0.0001077079
0.00010534252
0.00010331907
0.00010125005
9.9439423e-05
9.7860421e-05
9.6605261e-05
9.5317045e-05
9.4507854e-05
9.4273341e-05
9.4090029e-05
5.9065914e-15
1.8560447e-13
1.5177062e-12
6.526655e-12
2.0082147e-11
5.066751e-11
1.1232691e-10
2.2756803e-10
4.3163227e-10
7.7872067e-10
1.3510027e-09
2.2715579e-09
3.7228358e-09
5.972794e-09
9.4116312e-09
1.4603014e-08
2.2354983e-08
3.3817483e-08
5.0616058e-08
7.5035675e-08
1.1027715e-07
1.6082665e-07