/*--------------------------------*- C++ -*----------------------------------*\
  =========                 |
  \\      /  F ield         | OpenFOAM: The Open Source CFD Toolbox
   \\    /   O peration     | Website:  https://openfoam.org
    \\  /    A nd           | Version:  13
     \\/     M anipulation  |
\*---------------------------------------------------------------------------*/
FoamFile
{
    format      ascii;
    class       volScalarField;
    location    "0.0065";
    object      p;
}
// * * * * * * * * * * * * * * * * * * * * * * * * * * * * * * * * * * * * * //

dimensions      [1 -1 -2 0 0 0 0];

internalField   nonuniform List<scalar> 
1000
(
100000
100000
100000
100000
100000
100000
100000
100000
100000
100000
100000
100000
100000
100000
100000
100000
100000
100000
100000
100000
100000
100000
100000
100000
100000
100000
100000
100000
100000
100000
100000
100000
100000
100000
100000
100000
100000
100000
100000
100000
100000
100000
100000
100000
100000
100000
100000
100000
100000
100000
100000
100000
100000
100000
100000
100000
100000
100000
100000
100000
100000
100000
100000
100000
100000
100000
100000
100000
100000
100000
100000
100000
100000
100000
100000
100000
100000
100000
100000
100000
100000
100000
100000
100000
100000
100000
100000
100000
100000
100000
100000
100000
100000
100000
100000
100000
100000
100000
100000
100000
100000
100000
100000
100000
100000
100000
100000
100000
100000
100000
100000
100000
100000
100000
100000
100000
100000
100000
100000
100000
100000
100000
100000
100000
100000
100000
100000
100000
100000
100000
100000
100000
100000
100000
100000
100000
100000
100000
100000
100000
100000
100000
100000
100000
100000
100000
100000
100000
100000
100000
100000
100000
100000
100000
100000
100000
100000
100000
100000
100000
100000
100000
100000
100000
100000
100000
100000
100000
100000
100000
100000
100000
100000
100000
100000
100000
100000
100000
100000
100000
100000
100000
100000
100000
100000
100000
100000
100000
100000
100000
100000
100000
100000
100000
100000
100000
100000
100000
100000
100000
100000
100000
100000
100000
100000
100000
99999.9
99999.9
99999.9
99999.8
99999.8
99999.7
99999.5
99999.3
99999
99998.6
99998
99997.2
99996.2
99994.7
99992.8
99990.2
99986.8
99982.3
99976.4
99968.8
99959
99946.5
99930.6
99910.7
99885.8
99855
99817.3
99771.4
99716.1
99650.1
99571.9
99480.2
99373.6
99251
99111.3
98953.8
98777.8
98583.4
98370.5
98139.7
97891.9
97627.9
97349.2
97057.1
96753.1
96438.8
96115.5
95784.8
95447.8
95105.7
94759.5
94410
94057.8
93703.6
93347.8
92990.7
92632.7
92273.9
91914.5
91554.6
91194.4
90833.9
90473.3
90112.5
89751.6
89390.8
89029.9
88669.1
88308.4
87947.9
87587.6
87227.5
86867.6
86508
86148.8
85789.8
85431.3
85073.2
84715.5
84358.3
84001.6
83645.3
83289.7
82934.5
82580
82226
81872.7
81520
81167.9
80816.6
80465.9
80115.9
79766.6
79418.1
79070.3
78723.3
78377.1
78031.7
77687.1
77343.3
77000.3
76658.2
76316.9
75976.5
75637
75298.3
74960.6
74623.7
74287.8
73952.8
73618.7
73285.5
72953.3
72622.1
72291.8
71962.5
71634.2
71306.8
70980.5
70655.1
70330.8
70007.4
69685.1
69363.8
69043.5
68724.3
68406.1
68088.9
67772.8
67457.7
67143.7
66830.7
66518.8
66208
65898.2
65589.5
65281.9
64975.4
64669.9
64365.6
64062.3
63760.1
63459
63159.1
62860.2
62562.4
62265.7
61970.2
61675.7
61382.4
61090.1
60799
60509
60220.1
59932.4
59645.8
59360.3
59075.9
58792.6
58510.5
58229.5
57949.6
57670.9
57393.3
57116.9
56841.5
56567.4
56294.3
56022.4
55751.7
55482
55213.6
54946.2
54680
54415
54151.1
53888.4
53626.8
53366.3
53107.1
52848.9
52591.9
52336.1
52081.4
51827.9
51575.6
51324.4
51074.3
50825.5
50577.7
50331.2
50085.8
49841.6
49598.6
49356.7
49116
48876.5
48638.1
48401
48165
47930.2
47696.6
47464.1
47232.9
47002.8
46774
46546.3
46319.9
46094.6
45870.6
45647.7
45426.1
45205.7
44986.5
44768.5
44551.8
44336.3
44122
43909
43697.2
43486.7
43277.4
43069.4
42862.6
42657.1
42452.9
42250
42048.4
41848.1
41649
41451.3
41254.9
41059.9
40866.2
40673.8
40482.8
40293.1
40104.8
39917.9
39732.4
39548.2
39365.5
39184.2
39004.4
38826
38649
38473.6
38299.6
38127.1
37956.1
37786.6
37618.7
37452.3
37287.5
37124.3
36962.7
36802.7
36644.4
36487.6
36332.6
36179.2
36027.6
35877.7
35729.5
35583.1
35438.4
35295.6
35154.6
35015.4
34878.1
34742.6
34609.1
34477.5
34347.8
34220.1
34094.4
33970.6
33848.9
33729.3
33611.7
33496.2
33382.8
33271.6
33162.4
33055.5
32950.7
32848.1
32747.7
32649.5
32553.5
32459.8
32368.4
32279.2
32192.3
32107.6
32025.3
31945.2
31867.4
31791.9
31718.7
31647.8
31579.1
31512.7
31448.5
31386.6
31326.9
31269.4
31214.1
31160.9
31109.9
31060.9
31014.1
30969.2
30926.4
30885.6
30846.6
30809.6
30774.4
30741
30709.4
30679.5
30651.2
30624.6
30599.5
30575.8
30553.7
30532.9
30513.5
30495.4
30478.5
30462.8
30448.1
30434.6
30422.1
30410.5
30399.9
30390.1
30381.1
30372.9
30365.4
30358.6
30352.4
30346.8
30341.7
30337.1
30333
30329.3
30326.1
30323.1
30320.6
30318.3
30316.3
30314.6
30313.1
30311.8
30310.7
30309.8
30309
30308.3
30307.8
30307.4
30307.1
30306.8
30306.7
30306.6
30306.6
30306.6
30306.6
30306.7
30306.9
30307
30307.2
30307.4
30307.6
30307.8
30308
30308.3
30308.5
30308.7
30309
30309.2
30309.5
30309.7
30310
30310.2
30310.4
30310.7
30310.9
30311.1
30311.3
30311.6
30311.8
30312
30312.2
30312.4
30312.6
30312.8
30313
30313.2
30313.3
30313.5
30313.7
30313.9
30314
30314.2
30314.4
30314.5
30314.7
30314.8
30315
30315.1
30315.2
30315.4
30315.5
30315.7
30315.8
30315.9
30316.1
30316.2
30316.3
30316.4
30316.5
30316.7
30316.8
30316.9
30317
30317.1
30317.2
30317.3
30317.4
30317.5
30317.7
30317.8
30317.9
30318
30318.1
30318.2
30318.2
30318.3
30318.4
30318.5
30318.6
30318.7
30318.8
30318.9
30319
30319.1
30319.2
30319.2
30319.3
30319.4
30319.5
30319.6
30319.6
30319.7
30319.8
30319.9
30319.9
30320
30320.1
30320.2
30320.2
30320.3
30320.4
30320.5
30320.5
30320.6
30320.7
30320.7
30320.8
30320.9
30320.9
30321
30321.1
30321.1
30321.2
30321.3
30321.3
30321.4
30321.5
30321.5
30321.6
30321.7
30321.7
30321.8
30321.9
30322
30322
30322.1
30322.2
30322.2
30322.3
30322.4
30322.4
30322.5
30322.6
30322.6
30322.7
30322.8
30322.8
30322.9
30323
30323
30323.1
30323.1
30323.2
30323.2
30323.3
30323.3
30323.4
30323.4
30323.5
30323.5
30323.6
30323.6
30323.7
30323.7
30323.8
30323.8
30323.9
30323.9
30324
30324
30324.1
30324.1
30324.2
30324.3
30324.3
30324.4
30324.4
30324.5
30324.5
30324.6
30324.6
30324.7
30324.8
30324.8
30324.9
30324.9
30325
30325.1
30325.1
30325.2
30325.2
30325.3
30325.4
30325.4
30325.5
30325.6
30325.6
30325.7
30325.8
30325.8
30325.9
30326
30326
30326.1
30326.2
30326.2
30326.3
30326.4
30326.5
30326.5
30326.6
30326.7
30326.8
30326.8
30326.9
30327
30327.1
30327.2
30327.2
30327.3
30327.4
30327.5
30327.6
30327.7
30327.7
30327.8
30327.9
30328
30328.1
30328.2
30328.3
30328.4
30328.4
30328.5
30328.6
30328.7
30328.8
30328.9
30329
30329.1
30329.2
30329.2
30329.3
30329.4
30329.5
30329.5
30329.6
30329.6
30329.6
30329.6
30329.6
30329.6
30329.6
30329.5
30329.4
30329.2
30329
30328.7
30328.3
30327.9
30327.3
30326.6
30325.8
30324.8
30323.6
30322.1
30320.3
30318.2
30315.6
30312.6
30308.9
30304.6
30299.4
30293.3
30286
30277.3
30267
30254.8
30240.3
30223.1
30202.7
30178.5
30149.7
30115.6
30075.1
30027
29969.8
29901.8
29820.8
29724.3
29609.2
29471.5
29306.7
29108.9
28870.8
28583.4
28235
27810.9
27291.6
26651.6
25856.2
24856.3
23580.5
21921.1
19736.2
16952.4
13917.6
11599.8
10499.3
10134.1
10033.9
10008.4
10002.1
10000.5
10000.1
10000
10000
10000
10000
10000
10000
10000
10000
10000
10000
10000
10000
10000
10000
10000
10000
10000
10000
10000
10000
10000
10000
10000
10000
10000
10000
10000
10000
10000
10000
10000
10000
10000
10000
10000
10000
10000
10000
10000
10000
10000
10000
10000
10000
10000
10000
10000
10000
10000
10000
10000
10000
10000
10000
10000
10000
10000
10000
10000
10000
10000
10000
10000
10000
10000
10000
10000
10000
10000
10000
10000
10000
10000
10000
10000
10000
10000
10000
10000
10000
10000
10000
10000
10000
10000
10000
10000
10000
10000
10000
10000
10000
10000
10000
10000
10000
10000
10000
10000
10000
10000
10000
10000
10000
10000
10000
10000
10000
10000
10000
10000
10000
10000
10000
10000
10000
10000
10000
10000
10000
10000
10000
10000
10000
10000
10000
)
;

boundaryField
{
    sides
    {
        type            zeroGradient;
    }
    empty
    {
        type            empty;
    }
}


// ************************************************************************* //
