/*--------------------------------*- C++ -*----------------------------------*\
  =========                 |
  \\      /  F ield         | OpenFOAM: The Open Source CFD Toolbox
   \\    /   O peration     | Website:  https://openfoam.org
    \\  /    A nd           | Version:  13
     \\/     M anipulation  |
\*---------------------------------------------------------------------------*/
FoamFile
{
    format      ascii;
    class       volScalarField;
    location    "0.0065";
    object      T;
}
// * * * * * * * * * * * * * * * * * * * * * * * * * * * * * * * * * * * * * //

dimensions      [0 0 0 1 0 0 0];

internalField   nonuniform List<scalar> 
1000
(
348.432
348.432
348.432
348.432
348.432
348.432
348.432
348.432
348.432
348.432
348.432
348.432
348.432
348.432
348.432
348.432
348.432
348.432
348.432
348.432
348.432
348.432
348.432
348.432
348.432
348.432
348.432
348.432
348.432
348.432
348.432
348.432
348.432
348.432
348.432
348.432
348.432
348.432
348.432
348.432
348.432
348.432
348.432
348.432
348.432
348.432
348.432
348.432
348.432
348.432
348.432
348.432
348.432
348.432
348.432
348.432
348.432
348.432
348.432
348.432
348.432
348.432
348.432
348.432
348.432
348.432
348.432
348.432
348.432
348.432
348.432
348.432
348.432
348.432
348.432
348.432
348.432
348.432
348.432
348.432
348.432
348.432
348.432
348.432
348.432
348.432
348.432
348.432
348.432
348.432
348.432
348.432
348.432
348.432
348.432
348.432
348.432
348.432
348.432
348.432
348.432
348.432
348.432
348.432
348.432
348.432
348.432
348.432
348.432
348.432
348.432
348.432
348.432
348.432
348.432
348.432
348.432
348.432
348.432
348.432
348.432
348.432
348.432
348.432
348.432
348.432
348.432
348.432
348.432
348.432
348.432
348.432
348.432
348.432
348.432
348.432
348.432
348.432
348.432
348.432
348.432
348.432
348.432
348.432
348.432
348.432
348.432
348.432
348.432
348.432
348.432
348.432
348.432
348.432
348.432
348.432
348.432
348.432
348.432
348.432
348.432
348.432
348.432
348.432
348.432
348.432
348.432
348.432
348.432
348.432
348.432
348.432
348.432
348.432
348.432
348.432
348.432
348.432
348.432
348.432
348.432
348.432
348.432
348.432
348.432
348.432
348.432
348.432
348.432
348.432
348.432
348.432
348.432
348.432
348.432
348.432
348.432
348.432
348.432
348.432
348.432
348.432
348.432
348.432
348.432
348.432
348.432
348.432
348.432
348.432
348.432
348.432
348.432
348.431
348.431
348.431
348.43
348.429
348.428
348.427
348.425
348.422
348.419
348.414
348.409
348.401
348.391
348.379
348.363
348.343
348.318
348.287
348.25
348.204
348.149
348.082
348.004
347.912
347.806
347.683
347.542
347.384
347.207
347.011
346.796
346.563
346.312
346.045
345.761
345.464
345.154
344.832
344.501
344.161
343.814
343.461
343.103
342.74
342.374
342.005
341.633
341.258
340.882
340.504
340.124
339.743
339.36
338.976
338.591
338.205
337.817
337.429
337.039
336.648
336.256
335.864
335.47
335.076
334.68
334.284
333.887
333.49
333.091
332.692
332.292
331.892
331.491
331.089
330.687
330.284
329.881
329.477
329.072
328.667
328.262
327.856
327.45
327.043
326.636
326.228
325.821
325.412
325.004
324.595
324.186
323.776
323.367
322.957
322.546
322.136
321.725
321.314
320.903
320.492
320.08
319.669
319.257
318.845
318.433
318.02
317.608
317.196
316.783
316.37
315.958
315.545
315.132
314.719
314.306
313.893
313.48
313.068
312.655
312.242
311.829
311.416
311.003
310.59
310.177
309.765
309.352
308.939
308.527
308.114
307.702
307.29
306.878
306.466
306.054
305.642
305.231
304.819
304.408
303.997
303.586
303.175
302.765
302.355
301.945
301.535
301.125
300.715
300.306
299.897
299.488
299.08
298.672
298.264
297.856
297.449
297.042
296.635
296.228
295.822
295.416
295.011
294.606
294.201
293.796
293.392
292.988
292.585
292.182
291.779
291.377
290.975
290.574
290.173
289.773
289.373
288.973
288.574
288.175
287.777
287.379
286.982
286.585
286.189
285.794
285.399
285.004
284.61
284.217
283.824
283.432
283.04
282.65
282.259
281.87
281.481
281.093
280.705
280.318
279.932
279.547
279.162
278.778
278.395
278.013
277.632
277.251
276.871
276.493
276.115
275.738
275.362
274.987
274.612
274.239
273.867
273.496
273.126
272.758
272.39
272.023
271.658
271.294
270.931
270.569
270.209
269.85
269.492
269.136
268.781
268.428
268.076
267.726
267.377
267.03
266.685
266.341
265.999
265.659
265.321
264.984
264.65
264.317
263.986
263.658
263.332
263.007
262.686
262.366
262.049
261.734
261.421
261.111
260.804
260.5
260.198
259.899
259.602
259.309
259.019
258.731
258.447
258.166
257.888
257.614
257.343
257.076
256.812
256.551
256.295
256.042
255.793
255.548
255.307
255.07
254.837
254.609
254.385
254.165
253.949
253.738
253.531
253.329
253.132
252.939
252.751
252.568
252.389
252.216
252.047
251.883
251.724
251.57
251.421
251.277
251.137
251.003
250.873
250.749
250.629
250.514
250.403
250.298
250.197
250.1
250.009
249.921
249.838
249.759
249.685
249.614
249.548
249.486
249.427
249.372
249.32
249.272
249.228
249.186
249.148
249.113
249.08
249.05
249.023
248.999
248.976
248.956
248.938
248.923
248.909
248.896
248.886
248.877
248.87
248.864
248.859
248.856
248.853
248.852
248.852
248.852
248.854
248.856
248.859
248.862
248.867
248.871
248.877
248.882
248.889
248.895
248.902
248.91
248.917
248.925
248.934
248.942
248.951
248.96
248.969
248.979
248.988
248.998
249.008
249.019
249.029
249.04
249.05
249.061
249.072
249.084
249.095
249.107
249.119
249.131
249.143
249.155
249.168
249.181
249.194
249.207
249.221
249.234
249.248
249.262
249.277
249.292
249.307
249.322
249.337
249.353
249.369
249.386
249.403
249.42
249.438
249.455
249.474
249.492
249.512
249.531
249.551
249.572
249.593
249.614
249.636
249.659
249.682
249.706
249.731
249.756
249.782
249.809
249.837
249.866
249.896
249.927
249.959
249.992
250.027
250.064
250.103
250.143
250.186
250.232
250.282
250.334
250.392
250.454
250.521
250.596
250.678
250.769
250.87
250.983
251.109
251.251
251.411
251.592
251.795
252.024
252.283
252.574
252.903
253.272
253.687
254.152
254.672
255.253
255.898
256.615
257.408
258.283
259.246
260.302
261.458
262.718
264.087
265.57
267.172
268.897
270.749
272.729
274.841
277.087
279.466
281.978
284.623
287.398
290.3
293.324
296.464
299.714
303.066
306.51
310.036
313.632
317.286
320.983
324.711
328.453
332.193
335.918
339.609
343.253
346.833
350.335
353.746
357.051
360.24
363.303
366.231
369.016
371.653
374.138
376.47
378.647
380.669
382.54
384.263
385.841
387.281
388.589
389.77
390.834
391.786
392.635
393.388
394.054
394.639
395.152
395.598
395.985
396.318
396.604
396.848
397.055
397.229
397.375
397.496
397.596
397.677
397.743
397.795
397.836
397.867
397.891
397.907
397.919
397.925
397.929
397.929
397.927
397.923
397.918
397.911
397.904
397.896
397.889
397.88
397.872
397.864
397.856
397.848
397.84
397.833
397.825
397.818
397.812
397.805
397.799
397.793
397.787
397.782
397.777
397.772
397.767
397.763
397.758
397.754
397.75
397.746
397.743
397.739
397.736
397.733
397.73
397.727
397.725
397.722
397.719
397.717
397.715
397.713
397.711
397.709
397.707
397.705
397.703
397.702
397.7
397.698
397.697
397.696
397.694
397.693
397.692
397.69
397.689
397.688
397.687
397.686
397.685
397.684
397.683
397.681
397.68
397.679
397.678
397.676
397.675
397.673
397.671
397.669
397.667
397.664
397.661
397.657
397.653
397.648
397.642
397.635
397.627
397.618
397.607
397.594
397.578
397.56
397.538
397.512
397.482
397.446
397.403
397.352
397.292
397.221
397.136
397.035
396.916
396.774
396.606
396.405
396.165
395.879
395.536
395.126
394.632
394.037
393.317
392.441
391.371
390.055
388.424
386.384
383.801
380.483
376.139
370.304
362.198
350.523
333.541
311.488
292.05
282.673
279.773
279.006
278.811
278.762
278.75
278.747
278.746
278.746
278.746
278.746
278.746
278.746
278.746
278.746
278.746
278.746
278.746
278.746
278.746
278.746
278.746
278.746
278.746
278.746
278.746
278.746
278.746
278.746
278.746
278.746
278.746
278.746
278.746
278.746
278.746
278.746
278.746
278.746
278.746
278.746
278.746
278.746
278.746
278.746
278.746
278.746
278.746
278.746
278.746
278.746
278.746
278.746
278.746
278.746
278.746
278.746
278.746
278.746
278.746
278.746
278.746
278.746
278.746
278.746
278.746
278.746
278.746
278.746
278.746
278.746
278.746
278.746
278.746
278.746
278.746
278.746
278.746
278.746
278.746
278.746
278.746
278.746
278.746
278.746
278.746
278.746
278.746
278.746
278.746
278.746
278.746
278.746
278.746
278.746
278.746
278.746
278.746
278.746
278.746
278.746
278.746
278.746
278.746
278.746
278.746
278.746
278.746
278.746
278.746
278.746
278.746
278.746
278.746
278.746
278.746
278.746
278.746
278.746
278.746
278.746
278.746
278.746
278.746
278.746
278.746
278.746
278.746
278.746
278.746
278.746
278.746
278.746
)
;

boundaryField
{
    sides
    {
        type            zeroGradient;
    }
    empty
    {
        type            empty;
    }
}


// ************************************************************************* //
