/*--------------------------------*- C++ -*----------------------------------*\
  =========                 |
  \\      /  F ield         | OpenFOAM: The Open Source CFD Toolbox
   \\    /   O peration     | Website:  https://openfoam.org
    \\  /    A nd           | Version:  13
     \\/     M anipulation  |
\*---------------------------------------------------------------------------*/
FoamFile
{
    format      ascii;
    class       volVectorField;
    location    "0.0065";
    object      U;
}
// * * * * * * * * * * * * * * * * * * * * * * * * * * * * * * * * * * * * * //

dimensions      [0 1 -1 0 0 0 0];

internalField   nonuniform List<vector> 
1000
(
(-5.25143e-13 0 0)
(-5.54317e-13 0 0)
(-5.68905e-13 0 0)
(-5.3973e-13 0 0)
(-6.27254e-13 0 0)
(-4.95968e-13 0 0)
(-8.16889e-13 0 0)
(-3.35508e-13 0 0)
(-7.73127e-13 0 0)
(-1.6046e-13 0 0)
(-3.50095e-13 0 0)
(-5.83492e-14 0 0)
(-2.33397e-13 0 0)
(-1.45873e-14 0 0)
(-7.29365e-14 0 0)
(2.04222e-13 0 0)
(-7.29365e-14 0 0)
(-4.37619e-14 0 0)
(-1.6046e-13 0 0)
(-5.83492e-14 0 0)
(-2.77159e-13 0 0)
(-1.45873e-14 0 0)
(-2.62571e-13 0 0)
(-2.33397e-13 0 0)
(-4.08444e-13 0 0)
(-6.71016e-13 0 0)
(-5.83492e-13 0 0)
(-6.71016e-13 0 0)
(-3.20921e-13 0 0)
(-8.46063e-13 0 0)
(-5.3973e-13 0 0)
(-1.00652e-12 0 0)
(-4.81381e-13 0 0)
(-1.02111e-12 0 0)
(-6.27254e-13 0 0)
(-1.06487e-12 0 0)
(-5.3973e-13 0 0)
(-9.19e-13 0 0)
(-3.20921e-13 0 0)
(-5.98079e-13 0 0)
(-1.89635e-13 0 0)
(-4.08444e-13 0 0)
(4.37619e-14 0 0)
(-1.45873e-13 0 0)
(3.50095e-13 0 0)
(8.75238e-14 0 0)
(5.25143e-13 0 0)
(2.18809e-13 0 0)
(4.52206e-13 0 0)
(3.06333e-13 0 0)
(6.71016e-13 0 0)
(5.98079e-13 0 0)
(4.08444e-13 0 0)
(5.3973e-13 0 0)
(7.58539e-13 0 0)
(7.43952e-13 0 0)
(6.27254e-13 0 0)
(3.93857e-13 0 0)
(4.08444e-13 0 0)
(7.29365e-14 0 0)
(1.31286e-13 0 0)
(2.91746e-14 0 0)
(1.31286e-13 0 0)
(-5.83492e-14 0 0)
(2.47984e-13 0 0)
(2.04222e-13 0 0)
(4.66793e-13 0 0)
(4.08444e-13 0 0)
(6.85603e-13 0 0)
(6.85603e-13 0 0)
(7.0019e-13 0 0)
(9.77349e-13 0 0)
(9.04412e-13 0 0)
(8.6065e-13 0 0)
(7.29365e-13 0 0)
(8.6065e-13 0 0)
(7.14777e-13 0 0)
(8.89825e-13 0 0)
(8.75238e-13 0 0)
(8.31476e-13 0 0)
(1.31286e-12 0 0)
(9.77349e-13 0 0)
(1.12322e-12 0 0)
(8.02301e-13 0 0)
(1.09405e-12 0 0)
(1.16698e-12 0 0)
(9.48174e-13 0 0)
(8.31476e-13 0 0)
(6.56428e-13 0 0)
(8.6065e-13 0 0)
(7.87714e-13 0 0)
(8.31476e-13 0 0)
(8.46063e-13 0 0)
(1.16698e-12 0 0)
(6.27254e-13 0 0)
(8.6065e-13 0 0)
(6.56428e-13 0 0)
(2.62571e-13 0 0)
(5.83492e-14 0 0)
(1.75048e-13 0 0)
(3.20921e-13 0 0)
(2.62571e-13 0 0)
(3.20921e-13 0 0)
(1.45873e-13 0 0)
(2.77159e-13 0 0)
(2.04222e-13 0 0)
(4.08444e-13 0 0)
(4.95968e-13 0 0)
(6.41841e-13 0 0)
(7.43952e-13 0 0)
(5.83492e-13 0 0)
(7.87714e-13 0 0)
(5.25143e-13 0 0)
(6.56428e-13 0 0)
(8.02301e-13 0 0)
(7.43952e-13 0 0)
(6.41841e-13 0 0)
(6.56428e-13 0 0)
(5.3973e-13 0 0)
(6.41841e-13 0 0)
(5.54317e-13 0 0)
(6.12666e-13 0 0)
(5.83492e-13 0 0)
(5.68905e-13 0 0)
(9.48174e-13 0 0)
(5.54317e-13 0 0)
(8.46063e-13 0 0)
(5.10555e-13 0 0)
(6.71016e-13 0 0)
(4.95968e-13 0 0)
(4.66793e-13 0 0)
(5.10555e-13 0 0)
(6.12666e-13 0 0)
(7.58539e-13 0 0)
(7.0019e-13 0 0)
(5.68905e-13 0 0)
(5.3973e-13 0 0)
(4.23032e-13 0 0)
(5.3973e-13 0 0)
(4.81381e-13 0 0)
(5.54317e-13 0 0)
(5.3973e-13 0 0)
(8.46063e-13 0 0)
(2.91746e-13 0 0)
(8.16889e-13 0 0)
(2.77159e-13 0 0)
(7.87714e-13 0 0)
(4.23032e-13 0 0)
(6.56428e-13 0 0)
(3.50095e-13 0 0)
(6.85603e-13 0 0)
(4.37619e-13 0 0)
(5.10555e-13 0 0)
(4.08444e-13 0 0)
(5.10555e-13 0 0)
(4.08444e-13 0 0)
(6.27254e-13 0 0)
(5.68905e-13 0 0)
(6.41841e-13 0 0)
(5.98079e-13 0 0)
(6.56428e-13 0 0)
(8.16889e-13 0 0)
(9.04412e-13 0 0)
(8.16889e-13 0 0)
(6.56428e-13 0 0)
(9.62762e-13 0 0)
(8.02301e-13 0 0)
(1.56084e-12 0 0)
(1.4879e-12 0 0)
(3.10709e-12 0 0)
(4.17197e-12 0 0)
(7.9209e-12 0 0)
(1.25305e-11 0 0)
(2.25374e-11 0 0)
(3.81166e-11 0 0)
(6.54532e-11 0 0)
(1.11739e-10 0 0)
(1.90291e-10 0 0)
(3.23357e-10 0 0)
(5.47038e-10 0 0)
(9.22078e-10 0 0)
(1.54729e-09 0 0)
(2.58573e-09 0 0)
(4.30178e-09 0 0)
(7.12541e-09 0 0)
(1.17488e-08 0 0)
(1.92849e-08 0 0)
(3.15101e-08 0 0)
(5.12461e-08 0 0)
(8.29568e-08 0 0)
(1.33657e-07 0 0)
(2.14322e-07 0 0)
(3.42027e-07 0 0)
(5.4319e-07 0 0)
(8.58467e-07 0 0)
(1.35007e-06 0 0)
(2.11267e-06 0 0)
(3.28948e-06 0 0)
(5.09597e-06 0 0)
(7.8543e-06 0 0)
(1.20434e-05 0 0)
(1.8371e-05 0 0)
(2.78762e-05 0 0)
(4.20756e-05 0 0)
(6.31688e-05 0 0)
(9.43248e-05 0 0)
(0.00014008 0 0)
(0.000206887 0 0)
(0.000303858 0 0)
(0.000443774 0 0)
(0.000644443 0 0)
(0.00093049 0 0)
(0.00133573 0 0)
(0.00190623 0 0)
(0.00270431 0 0)
(0.00381359 0 0)
(0.0053454 0 0)
(0.00744671 0 0)
(0.01031 0 0)
(0.0141851 0 0)
(0.0193934 0 0)
(0.0263448 0 0)
(0.0355566 0 0)
(0.047676 0 0)
(0.0635039 0 0)
(0.0840216 0 0)
(0.110417 0 0)
(0.144114 0 0)
(0.186796 0 0)
(0.240428 0 0)
(0.307277 0 0)
(0.389914 0 0)
(0.491216 0 0)
(0.614341 0 0)
(0.762696 0 0)
(0.939875 0 0)
(1.14958 0 0)
(1.3955 0 0)
(1.68121 0 0)
(2.00993 0 0)
(2.38445 0 0)
(2.80688 0 0)
(3.27861 0 0)
(3.80023 0 0)
(4.37145 0 0)
(4.99114 0 0)
(5.6574 0 0)
(6.36763 0 0)
(7.11867 0 0)
(7.907 0 0)
(8.72889 0 0)
(9.58055 0 0)
(10.4583 0 0)
(11.3586 0 0)
(12.2784 0 0)
(13.2149 0 0)
(14.1655 0 0)
(15.1282 0 0)
(16.1013 0 0)
(17.0835 0 0)
(18.0736 0 0)
(19.0706 0 0)
(20.074 0 0)
(21.0832 0 0)
(22.0977 0 0)
(23.1173 0 0)
(24.1416 0 0)
(25.1705 0 0)
(26.2038 0 0)
(27.2413 0 0)
(28.2829 0 0)
(29.3285 0 0)
(30.3779 0 0)
(31.4312 0 0)
(32.488 0 0)
(33.5485 0 0)
(34.6124 0 0)
(35.6797 0 0)
(36.7503 0 0)
(37.8241 0 0)
(38.901 0 0)
(39.981 0 0)
(41.064 0 0)
(42.1498 0 0)
(43.2385 0 0)
(44.33 0 0)
(45.4242 0 0)
(46.521 0 0)
(47.6204 0 0)
(48.7223 0 0)
(49.8267 0 0)
(50.9334 0 0)
(52.0425 0 0)
(53.1539 0 0)
(54.2676 0 0)
(55.3834 0 0)
(56.5014 0 0)
(57.6215 0 0)
(58.7437 0 0)
(59.8678 0 0)
(60.9939 0 0)
(62.122 0 0)
(63.2519 0 0)
(64.3836 0 0)
(65.5172 0 0)
(66.6525 0 0)
(67.7895 0 0)
(68.9282 0 0)
(70.0686 0 0)
(71.2105 0 0)
(72.3541 0 0)
(73.4991 0 0)
(74.6457 0 0)
(75.7938 0 0)
(76.9433 0 0)
(78.0942 0 0)
(79.2464 0 0)
(80.4001 0 0)
(81.555 0 0)
(82.7112 0 0)
(83.8687 0 0)
(85.0274 0 0)
(86.1873 0 0)
(87.3483 0 0)
(88.5105 0 0)
(89.6738 0 0)
(90.8382 0 0)
(92.0036 0 0)
(93.1701 0 0)
(94.3376 0 0)
(95.5061 0 0)
(96.6755 0 0)
(97.8458 0 0)
(99.0171 0 0)
(100.189 0 0)
(101.362 0 0)
(102.536 0 0)
(103.711 0 0)
(104.886 0 0)
(106.062 0 0)
(107.239 0 0)
(108.417 0 0)
(109.595 0 0)
(110.774 0 0)
(111.954 0 0)
(113.134 0 0)
(114.315 0 0)
(115.496 0 0)
(116.678 0 0)
(117.861 0 0)
(119.044 0 0)
(120.227 0 0)
(121.411 0 0)
(122.596 0 0)
(123.781 0 0)
(124.966 0 0)
(126.152 0 0)
(127.338 0 0)
(128.524 0 0)
(129.711 0 0)
(130.898 0 0)
(132.086 0 0)
(133.273 0 0)
(134.461 0 0)
(135.649 0 0)
(136.837 0 0)
(138.026 0 0)
(139.214 0 0)
(140.403 0 0)
(141.592 0 0)
(142.781 0 0)
(143.97 0 0)
(145.159 0 0)
(146.348 0 0)
(147.537 0 0)
(148.726 0 0)
(149.916 0 0)
(151.104 0 0)
(152.293 0 0)
(153.482 0 0)
(154.671 0 0)
(155.859 0 0)
(157.048 0 0)
(158.236 0 0)
(159.424 0 0)
(160.611 0 0)
(161.799 0 0)
(162.986 0 0)
(164.172 0 0)
(165.359 0 0)
(166.544 0 0)
(167.73 0 0)
(168.915 0 0)
(170.1 0 0)
(171.284 0 0)
(172.467 0 0)
(173.65 0 0)
(174.832 0 0)
(176.014 0 0)
(177.195 0 0)
(178.375 0 0)
(179.555 0 0)
(180.734 0 0)
(181.912 0 0)
(183.089 0 0)
(184.265 0 0)
(185.441 0 0)
(186.615 0 0)
(187.789 0 0)
(188.961 0 0)
(190.132 0 0)
(191.303 0 0)
(192.472 0 0)
(193.639 0 0)
(194.806 0 0)
(195.971 0 0)
(197.135 0 0)
(198.297 0 0)
(199.458 0 0)
(200.618 0 0)
(201.776 0 0)
(202.932 0 0)
(204.086 0 0)
(205.239 0 0)
(206.39 0 0)
(207.539 0 0)
(208.686 0 0)
(209.831 0 0)
(210.974 0 0)
(212.115 0 0)
(213.254 0 0)
(214.39 0 0)
(215.524 0 0)
(216.656 0 0)
(217.785 0 0)
(218.911 0 0)
(220.035 0 0)
(221.156 0 0)
(222.273 0 0)
(223.388 0 0)
(224.5 0 0)
(225.609 0 0)
(226.714 0 0)
(227.816 0 0)
(228.914 0 0)
(230.009 0 0)
(231.1 0 0)
(232.187 0 0)
(233.27 0 0)
(234.35 0 0)
(235.424 0 0)
(236.495 0 0)
(237.561 0 0)
(238.622 0 0)
(239.678 0 0)
(240.73 0 0)
(241.776 0 0)
(242.817 0 0)
(243.852 0 0)
(244.882 0 0)
(245.907 0 0)
(246.925 0 0)
(247.937 0 0)
(248.943 0 0)
(249.942 0 0)
(250.935 0 0)
(251.921 0 0)
(252.899 0 0)
(253.871 0 0)
(254.835 0 0)
(255.791 0 0)
(256.739 0 0)
(257.679 0 0)
(258.611 0 0)
(259.534 0 0)
(260.448 0 0)
(261.354 0 0)
(262.25 0 0)
(263.136 0 0)
(264.013 0 0)
(264.88 0 0)
(265.736 0 0)
(266.582 0 0)
(267.417 0 0)
(268.241 0 0)
(269.054 0 0)
(269.856 0 0)
(270.645 0 0)
(271.423 0 0)
(272.189 0 0)
(272.942 0 0)
(273.682 0 0)
(274.41 0 0)
(275.124 0 0)
(275.826 0 0)
(276.513 0 0)
(277.187 0 0)
(277.847 0 0)
(278.493 0 0)
(279.124 0 0)
(279.741 0 0)
(280.344 0 0)
(280.931 0 0)
(281.504 0 0)
(282.062 0 0)
(282.604 0 0)
(283.132 0 0)
(283.644 0 0)
(284.141 0 0)
(284.623 0 0)
(285.09 0 0)
(285.541 0 0)
(285.977 0 0)
(286.397 0 0)
(286.803 0 0)
(287.193 0 0)
(287.569 0 0)
(287.93 0 0)
(288.276 0 0)
(288.607 0 0)
(288.925 0 0)
(289.228 0 0)
(289.517 0 0)
(289.793 0 0)
(290.056 0 0)
(290.305 0 0)
(290.542 0 0)
(290.766 0 0)
(290.978 0 0)
(291.178 0 0)
(291.367 0 0)
(291.545 0 0)
(291.712 0 0)
(291.869 0 0)
(292.016 0 0)
(292.153 0 0)
(292.281 0 0)
(292.401 0 0)
(292.512 0 0)
(292.615 0 0)
(292.71 0 0)
(292.798 0 0)
(292.88 0 0)
(292.955 0 0)
(293.023 0 0)
(293.086 0 0)
(293.144 0 0)
(293.196 0 0)
(293.244 0 0)
(293.287 0 0)
(293.327 0 0)
(293.362 0 0)
(293.394 0 0)
(293.422 0 0)
(293.448 0 0)
(293.471 0 0)
(293.491 0 0)
(293.509 0 0)
(293.524 0 0)
(293.538 0 0)
(293.55 0 0)
(293.561 0 0)
(293.569 0 0)
(293.577 0 0)
(293.584 0 0)
(293.589 0 0)
(293.593 0 0)
(293.597 0 0)
(293.6 0 0)
(293.602 0 0)
(293.604 0 0)
(293.605 0 0)
(293.606 0 0)
(293.606 0 0)
(293.606 0 0)
(293.606 0 0)
(293.605 0 0)
(293.605 0 0)
(293.604 0 0)
(293.603 0 0)
(293.602 0 0)
(293.6 0 0)
(293.599 0 0)
(293.598 0 0)
(293.596 0 0)
(293.595 0 0)
(293.594 0 0)
(293.592 0 0)
(293.591 0 0)
(293.589 0 0)
(293.588 0 0)
(293.587 0 0)
(293.585 0 0)
(293.584 0 0)
(293.583 0 0)
(293.582 0 0)
(293.58 0 0)
(293.579 0 0)
(293.578 0 0)
(293.577 0 0)
(293.576 0 0)
(293.575 0 0)
(293.574 0 0)
(293.573 0 0)
(293.572 0 0)
(293.571 0 0)
(293.571 0 0)
(293.57 0 0)
(293.569 0 0)
(293.568 0 0)
(293.568 0 0)
(293.567 0 0)
(293.567 0 0)
(293.566 0 0)
(293.566 0 0)
(293.565 0 0)
(293.565 0 0)
(293.564 0 0)
(293.564 0 0)
(293.564 0 0)
(293.563 0 0)
(293.563 0 0)
(293.563 0 0)
(293.563 0 0)
(293.563 0 0)
(293.563 0 0)
(293.563 0 0)
(293.563 0 0)
(293.563 0 0)
(293.563 0 0)
(293.563 0 0)
(293.564 0 0)
(293.564 0 0)
(293.564 0 0)
(293.565 0 0)
(293.566 0 0)
(293.567 0 0)
(293.568 0 0)
(293.57 0 0)
(293.571 0 0)
(293.573 0 0)
(293.576 0 0)
(293.579 0 0)
(293.582 0 0)
(293.586 0 0)
(293.59 0 0)
(293.596 0 0)
(293.602 0 0)
(293.609 0 0)
(293.617 0 0)
(293.627 0 0)
(293.638 0 0)
(293.65 0 0)
(293.664 0 0)
(293.68 0 0)
(293.698 0 0)
(293.718 0 0)
(293.74 0 0)
(293.765 0 0)
(293.792 0 0)
(293.821 0 0)
(293.854 0 0)
(293.889 0 0)
(293.927 0 0)
(293.968 0 0)
(294.012 0 0)
(294.059 0 0)
(294.108 0 0)
(294.16 0 0)
(294.214 0 0)
(294.271 0 0)
(294.329 0 0)
(294.389 0 0)
(294.451 0 0)
(294.513 0 0)
(294.576 0 0)
(294.639 0 0)
(294.701 0 0)
(294.762 0 0)
(294.822 0 0)
(294.88 0 0)
(294.936 0 0)
(294.988 0 0)
(295.037 0 0)
(295.081 0 0)
(295.121 0 0)
(295.156 0 0)
(295.186 0 0)
(295.209 0 0)
(295.226 0 0)
(295.237 0 0)
(295.241 0 0)
(295.239 0 0)
(295.23 0 0)
(295.214 0 0)
(295.191 0 0)
(295.162 0 0)
(295.128 0 0)
(295.087 0 0)
(295.041 0 0)
(294.991 0 0)
(294.936 0 0)
(294.878 0 0)
(294.817 0 0)
(294.753 0 0)
(294.688 0 0)
(294.621 0 0)
(294.555 0 0)
(294.488 0 0)
(294.422 0 0)
(294.357 0 0)
(294.294 0 0)
(294.233 0 0)
(294.174 0 0)
(294.118 0 0)
(294.065 0 0)
(294.014 0 0)
(293.967 0 0)
(293.923 0 0)
(293.883 0 0)
(293.845 0 0)
(293.811 0 0)
(293.779 0 0)
(293.751 0 0)
(293.725 0 0)
(293.702 0 0)
(293.681 0 0)
(293.663 0 0)
(293.646 0 0)
(293.632 0 0)
(293.62 0 0)
(293.609 0 0)
(293.599 0 0)
(293.591 0 0)
(293.584 0 0)
(293.578 0 0)
(293.573 0 0)
(293.569 0 0)
(293.566 0 0)
(293.563 0 0)
(293.561 0 0)
(293.559 0 0)
(293.558 0 0)
(293.556 0 0)
(293.556 0 0)
(293.555 0 0)
(293.555 0 0)
(293.555 0 0)
(293.555 0 0)
(293.555 0 0)
(293.555 0 0)
(293.555 0 0)
(293.556 0 0)
(293.556 0 0)
(293.557 0 0)
(293.557 0 0)
(293.558 0 0)
(293.558 0 0)
(293.559 0 0)
(293.56 0 0)
(293.56 0 0)
(293.561 0 0)
(293.562 0 0)
(293.562 0 0)
(293.563 0 0)
(293.564 0 0)
(293.564 0 0)
(293.565 0 0)
(293.566 0 0)
(293.566 0 0)
(293.567 0 0)
(293.568 0 0)
(293.568 0 0)
(293.569 0 0)
(293.57 0 0)
(293.571 0 0)
(293.571 0 0)
(293.572 0 0)
(293.573 0 0)
(293.573 0 0)
(293.574 0 0)
(293.575 0 0)
(293.576 0 0)
(293.577 0 0)
(293.577 0 0)
(293.578 0 0)
(293.579 0 0)
(293.58 0 0)
(293.58 0 0)
(293.581 0 0)
(293.582 0 0)
(293.583 0 0)
(293.584 0 0)
(293.584 0 0)
(293.585 0 0)
(293.586 0 0)
(293.587 0 0)
(293.587 0 0)
(293.588 0 0)
(293.589 0 0)
(293.589 0 0)
(293.59 0 0)
(293.591 0 0)
(293.591 0 0)
(293.591 0 0)
(293.592 0 0)
(293.592 0 0)
(293.592 0 0)
(293.592 0 0)
(293.591 0 0)
(293.59 0 0)
(293.589 0 0)
(293.588 0 0)
(293.586 0 0)
(293.584 0 0)
(293.58 0 0)
(293.577 0 0)
(293.572 0 0)
(293.566 0 0)
(293.558 0 0)
(293.55 0 0)
(293.539 0 0)
(293.526 0 0)
(293.511 0 0)
(293.492 0 0)
(293.47 0 0)
(293.443 0 0)
(293.411 0 0)
(293.374 0 0)
(293.329 0 0)
(293.275 0 0)
(293.212 0 0)
(293.136 0 0)
(293.046 0 0)
(292.94 0 0)
(292.814 0 0)
(292.664 0 0)
(292.486 0 0)
(292.276 0 0)
(292.026 0 0)
(291.73 0 0)
(291.378 0 0)
(290.962 0 0)
(290.467 0 0)
(289.879 0 0)
(289.181 0 0)
(288.35 0 0)
(287.362 0 0)
(286.185 0 0)
(284.78 0 0)
(283.1 0 0)
(281.09 0 0)
(278.676 0 0)
(275.772 0 0)
(272.264 0 0)
(268.01 0 0)
(262.825 0 0)
(256.469 0 0)
(248.618 0 0)
(238.828 0 0)
(226.468 0 0)
(210.592 0 0)
(189.716 0 0)
(161.596 0 0)
(123.857 0 0)
(78.178 0 0)
(36.7914 0 0)
(12.8054 0 0)
(3.65619 0 0)
(0.948781 0 0)
(0.237285 0 0)
(0.058696 0 0)
(0.0144795 0 0)
(0.00356964 0 0)
(0.000879898 0 0)
(0.000216883 0 0)
(5.34581e-05 0 0)
(1.31765e-05 0 0)
(3.24776e-06 0 0)
(8.00509e-07 0 0)
(1.97309e-07 0 0)
(4.86324e-08 0 0)
(1.19864e-08 0 0)
(2.95437e-09 0 0)
(7.27893e-10 0 0)
(1.79482e-10 0 0)
(4.39953e-11 0 0)
(1.09405e-11 0 0)
(2.55278e-12 0 0)
(5.68905e-13 0 0)
(5.83493e-14 0 0)
(-3.93858e-13 0 0)
(-3.20921e-13 0 0)
(-2.91746e-13 0 0)
(-2.62572e-13 0 0)
(-2.62572e-13 0 0)
(5.83493e-14 0 0)
(-4.81381e-13 0 0)
(-2.13245e-26 0 0)
(-2.77159e-13 0 0)
(2.47984e-13 0 0)
(-2.47984e-13 0 0)
(-1.45873e-14 0 0)
(-1.89635e-13 0 0)
(-7.29366e-14 0 0)
(-2.77159e-13 0 0)
(-1.75048e-13 0 0)
(-3.258e-26 0 0)
(-3.64683e-13 0 0)
(-1.45873e-14 0 0)
(-1.89635e-13 0 0)
(-2.91746e-14 0 0)
(-2.62572e-13 0 0)
(-1.45873e-13 0 0)
(-8.75239e-14 0 0)
(-1.45873e-14 0 0)
(1.6046e-13 0 0)
(5.83493e-14 0 0)
(2.47984e-13 0 0)
(-2.62572e-13 0 0)
(-1.45873e-14 0 0)
(-2.04222e-13 0 0)
(2.91746e-14 0 0)
(-4.3762e-14 0 0)
(-1.45873e-13 0 0)
(-2.91746e-14 0 0)
(-5.83493e-14 0 0)
(-1.6046e-13 0 0)
(-1.02111e-13 0 0)
(-2.33397e-13 0 0)
(-2.33397e-13 0 0)
(-4.52207e-13 0 0)
(-2.47984e-13 0 0)
(-2.33397e-13 0 0)
(-1.45873e-13 0 0)
(-1.02111e-13 0 0)
(-1.6046e-13 0 0)
(-3.20921e-13 0 0)
(-3.93858e-13 0 0)
(-3.7927e-13 0 0)
(-2.91746e-13 0 0)
(-2.1881e-13 0 0)
(-1.02111e-13 0 0)
(1.75048e-13 0 0)
(-1.31286e-13 0 0)
(-1.16699e-13 0 0)
(-2.04222e-13 0 0)
(-1.89635e-13 0 0)
(-1.6046e-13 0 0)
(-2.04222e-13 0 0)
(-2.91746e-13 0 0)
(-3.20921e-13 0 0)
(-3.50096e-13 0 0)
(-6.12667e-13 0 0)
(-4.52207e-13 0 0)
(-3.93858e-13 0 0)
(-4.81381e-13 0 0)
(-2.91746e-13 0 0)
(-4.08445e-13 0 0)
(-1.6046e-13 0 0)
(-5.39731e-13 0 0)
(-2.1881e-13 0 0)
(-3.93858e-13 0 0)
(-5.83493e-14 0 0)
(-3.35508e-13 0 0)
(-1.45873e-14 0 0)
(-4.23032e-13 0 0)
(-2.779e-26 0 0)
(-3.35508e-13 0 0)
(-2.33397e-13 0 0)
(-3.35508e-13 0 0)
(-1.16699e-13 0 0)
(-1.6046e-13 0 0)
(4.3762e-14 0 0)
(-2.47984e-13 0 0)
(1.45873e-14 0 0)
(-3.20921e-13 0 0)
(-1.02111e-13 0 0)
(-5.83493e-13 0 0)
(-1.31286e-13 0 0)
(-5.68905e-13 0 0)
(-5.54318e-13 0 0)
(-7.29366e-13 0 0)
(-4.81381e-13 0 0)
(-2.47984e-13 0 0)
(-2.77159e-13 0 0)
(-1.89635e-13 0 0)
(-5.39731e-13 0 0)
(-3.06334e-13 0 0)
(-5.9808e-13 0 0)
(-3.20921e-13 0 0)
(-3.20921e-13 0 0)
(-1.45873e-13 0 0)
(-1.75048e-13 0 0)
(-2.77159e-13 0 0)
(-1.16699e-13 0 0)
(-2.62572e-13 0 0)
(-1.31286e-13 0 0)
(-1.45873e-13 0 0)
(-4.3762e-14 0 0)
)
;

boundaryField
{
    sides
    {
        type            zeroGradient;
    }
    empty
    {
        type            empty;
    }
}


// ************************************************************************* //
