/*--------------------------------*- C++ -*----------------------------------*\
  =========                 |
  \\      /  F ield         | OpenFOAM: The Open Source CFD Toolbox
   \\    /   O peration     | Website:  https://openfoam.org
    \\  /    A nd           | Version:  13
     \\/     M anipulation  |
\*---------------------------------------------------------------------------*/
FoamFile
{
    format      ascii;
    class       volScalarField;
    location    "38.100575";
    object      p;
}
// * * * * * * * * * * * * * * * * * * * * * * * * * * * * * * * * * * * * * //

dimensions      [0 2 -2 0 0 0 0];

internalField   nonuniform List<scalar> 
17140
(
-0.29790775
-0.29791566
-0.29792502
-0.29793502
-0.29794599
-0.29795811
-0.29797145
-0.29798612
-0.29800222
-0.29801985
-0.29803912
-0.29806012
-0.29808295
-0.2981077
-0.29813443
-0.2981632
-0.29819403
-0.29822692
-0.29826184
-0.29829874
-0.29833754
-0.29837816
-0.29842056
-0.2984648
-0.29851117
-0.29856032
-0.29861361
-0.29867349
-0.29874416
-0.29883247
-0.298949
-0.29910894
-0.29933182
-0.29963871
-0.30004583
-0.30055638
-0.30115514
-0.3018099
-0.30247917
-0.30312207
-0.30370619
-0.30421243
-0.30463432
-0.30497634
-0.30526189
-0.30551912
-0.30576541
-0.30602377
-0.30630997
-0.30663623
-0.30697166
-0.30728153
-0.307368
-0.30706444
-0.30555718
-0.30269658
-0.29631358
-0.28687733
-0.27051339
-0.25834828
-0.25080987
-0.26631845
-0.22517163
-0.14085209
-0.077067945
-0.29872683
-0.29873463
-0.2987441
-0.29875389
-0.29876463
-0.29877651
-0.2987896
-0.29880398
-0.29881977
-0.29883706
-0.29885595
-0.29887654
-0.29889893
-0.29892318
-0.29894938
-0.29897756
-0.29900775
-0.29903995
-0.29907414
-0.29911025
-0.29914822
-0.29918798
-0.29922949
-0.29927287
-0.29931841
-0.29936685
-0.29941959
-0.2994792
-0.29954999
-0.29963896
-0.29975682
-0.29991887
-0.30014476
-0.30045568
-0.30086811
-0.30138589
-0.30199488
-0.30266444
-0.30335506
-0.30402822
-0.30465436
-0.30521782
-0.30571648
-0.30616096
-0.30658181
-0.30701668
-0.30749686
-0.30806426
-0.30875955
-0.30963016
-0.31069095
-0.31196459
-0.31331975
-0.31464793
-0.31510349
-0.31427122
-0.30916104
-0.29822306
-0.27672641
-0.25352516
-0.23024868
-0.22747111
-0.18174337
-0.1129637
-0.066842516
-0.29961989
-0.29962741
-0.29963652
-0.29964598
-0.29965636
-0.29966785
-0.2996805
-0.29969442
-0.29970969
-0.29972642
-0.29974469
-0.29976461
-0.29978626
-0.29980972
-0.29983505
-0.29986229
-0.29989146
-0.29992258
-0.2999556
-0.29999047
-0.30002713
-0.30006552
-0.30010564
-0.30014759
-0.30019173
-0.30023883
-0.30029037
-0.30034897
-0.30041903
-0.30050761
-0.30062545
-0.30078782
-0.30101427
-0.30132595
-0.30173955
-0.30225962
-0.30287342
-0.30355224
-0.30425893
-0.30495763
-0.30562183
-0.30623939
-0.30681259
-0.30735837
-0.30791428
-0.30852762
-0.30924392
-0.31012493
-0.31123736
-0.31266648
-0.314477
-0.31675608
-0.31945171
-0.32252584
-0.32513561
-0.32657202
-0.3229598
-0.31100323
-0.28365246
-0.24811578
-0.20894935
-0.1878698
-0.13805852
-0.081505152
-0.051197376
-0.30058142
-0.30058855
-0.30059716
-0.30060615
-0.30061603
-0.30062695
-0.300639
-0.30065225
-0.30066679
-0.30068272
-0.30070012
-0.30071909
-0.30073971
-0.30076204
-0.30078616
-0.30081209
-0.30083985
-0.30086946
-0.30090087
-0.30093403
-0.3009689
-0.30100542
-0.3010436
-0.30108358
-0.30112574
-0.30117089
-0.30122056
-0.30127741
-0.30134588
-0.30143302
-0.30154947
-0.30171032
-0.30193485
-0.30224395
-0.30265444
-0.3031717
-0.30378461
-0.30446678
-0.30518379
-0.3059027
-0.30660023
-0.30726782
-0.30791219
-0.30855661
-0.30924546
-0.31003555
-0.31098694
-0.31218188
-0.31371381
-0.31570817
-0.31828331
-0.32159711
-0.32569009
-0.33061444
-0.33558447
-0.33962449
-0.33828106
-0.32529402
-0.29035013
-0.24210673
-0.18656222
-0.14855911
-0.095720864
-0.048858118
-0.033332866
-0.30160443
-0.30161106
-0.30161903
-0.30162742
-0.30163663
-0.30164684
-0.30165809
-0.30167047
-0.30168406
-0.30169896
-0.30171523
-0.30173297
-0.30175226
-0.30177315
-0.30179569
-0.30181994
-0.3018459
-0.30187357
-0.30190293
-0.30193392
-0.3019665
-0.30200063
-0.30203635
-0.3020738
-0.30211339
-0.30215598
-0.3022031
-0.30225746
-0.30232347
-0.30240809
-0.30252179
-0.30267928
-0.30289937
-0.30320254
-0.30360562
-0.30411485
-0.30472098
-0.3054003
-0.30612142
-0.30685461
-0.30757997
-0.30829255
-0.30900347
-0.30974221
-0.31055967
-0.31152199
-0.3127038
-0.31420796
-0.31615489
-0.31871186
-0.32205386
-0.32641319
-0.33193444
-0.33878189
-0.3462509
-0.35312931
-0.35405435
-0.34023086
-0.29771877
-0.23498828
-0.16288633
-0.11054365
-0.054294695
-0.019196047
-0.017432172
-0.30267974
-0.30268576
-0.30269296
-0.30270061
-0.30270902
-0.30271833
-0.30272861
-0.30273993
-0.30275236
-0.30276599
-0.30278088
-0.30279712
-0.30281477
-0.30283389
-0.30285453
-0.30287673
-0.30290049
-0.30292582
-0.30295268
-0.30298105
-0.30301086
-0.30304212
-0.30307484
-0.30310922
-0.30314568
-0.30318509
-0.30322903
-0.30328016
-0.30334285
-0.30342391
-0.30353349
-0.30368582
-0.30389905
-0.30419303
-0.30458449
-0.30508052
-0.30567394
-0.30634398
-0.30706263
-0.30780361
-0.3085505
-0.30930199
-0.31007347
-0.3109005
-0.31183985
-0.31296682
-0.31437023
-0.31617315
-0.31852252
-0.32162827
-0.32572361
-0.33111474
-0.33806168
-0.34686622
-0.35694514
-0.36691853
-0.37047141
-0.35519128
-0.30397156
-0.22423684
-0.13783838
-0.074249049
-0.017794182
0.0044069319
-0.0060934194
-0.30379629
-0.3038016
-0.30380792
-0.3038147
-0.30382216
-0.30383044
-0.30383957
-0.30384964
-0.30386071
-0.30387284
-0.30388611
-0.30390058
-0.30391632
-0.30393337
-0.30395178
-0.30397157
-0.30399277
-0.30401535
-0.30403931
-0.3040646
-0.3040912
-0.30411909
-0.30414832
-0.30417911
-0.30421188
-0.30424754
-0.30428764
-0.30433483
-0.30439337
-0.30446985
-0.30457402
-0.30471948
-0.30492353
-0.30520525
-0.30558107
-0.30605892
-0.30663376
-0.30728801
-0.30799731
-0.30873906
-0.3095004
-0.31028367
-0.31110844
-0.31201575
-0.31306775
-0.31434856
-0.31596012
-0.3180449
-0.32077505
-0.3244029
-0.32921839
-0.33559473
-0.34392151
-0.35465411
-0.36735235
-0.38048909
-0.38664226
-0.36927157
-0.30828597
-0.21384452
-0.11213622
-0.040744494
0.012965026
0.021879918
0.00017386102
-0.30494097
-0.3049455
-0.30495089
-0.30495668
-0.30496307
-0.30497017
-0.30497801
-0.30498666
-0.30499618
-0.30500662
-0.30501805
-0.30503052
-0.30504408
-0.30505878
-0.30507466
-0.30509173
-0.30511001
-0.3051295
-0.30515017
-0.30517199
-0.30519494
-0.30521902
-0.30524431
-0.30527101
-0.3052996
-0.30533095
-0.30536662
-0.30540919
-0.30546278
-0.30553372
-0.30563126
-0.30576826
-0.30596103
-0.30622766
-0.30658416
-0.30703915
-0.30758973
-0.3082217
-0.30891457
-0.3096496
-0.3104176
-0.31122443
-0.31209378
-0.31307137
-0.31422428
-0.31564458
-0.31744596
-0.31978869
-0.32286786
-0.3269762
-0.33245556
-0.33973469
-0.34934124
-0.3618903
-0.37708689
-0.39321894
-0.40125132
-0.3808739
-0.30926151
-0.20136268
-0.086538357
-0.011973429
0.037717425
0.03372898
0.0035339357
-0.30609944
-0.3061031
-0.30610748
-0.30611219
-0.30611741
-0.3061232
-0.30612962
-0.30613671
-0.30614452
-0.3061531
-0.30616249
-0.30617275
-0.30618392
-0.30619603
-0.30620912
-0.30622319
-0.30623827
-0.30625433
-0.30627137
-0.30628937
-0.3063083
-0.30632817
-0.30634909
-0.30637127
-0.30639518
-0.30642171
-0.30645238
-0.30648968
-0.30653757
-0.30660204
-0.3066918
-0.30681886
-0.30699844
-0.3072475
-0.30758138
-0.30800925
-0.30853026
-0.30913363
-0.30980287
-0.31052329
-0.31128943
-0.31211063
-0.31301432
-0.3140503
-0.31528979
-0.31683164
-0.31879932
-0.32136865
-0.32475429
-0.32928508
-0.33533775
-0.34338927
-0.35413428
-0.36830161
-0.38569645
-0.40416875
-0.41279295
-0.38840827
-0.30570174
-0.18849944
-0.065968621
0.010915735
0.05371904
0.04006326
0.005376474
-0.30725576
-0.30725851
-0.30726181
-0.30726537
-0.30726932
-0.30727373
-0.30727862
-0.30728404
-0.30729002
-0.3072966
-0.30730382
-0.30731172
-0.30732032
-0.30732965
-0.30733974
-0.3073506
-0.30736223
-0.30737462
-0.30738777
-0.30740165
-0.30741625
-0.3074316
-0.3074478
-0.30746508
-0.30748392
-0.30750518
-0.30753034
-0.3075618
-0.30760329
-0.30766045
-0.30774139
-0.30785721
-0.30802196
-0.30825126
-0.30855962
-0.30895665
-0.30944318
-0.31001187
-0.31065029
-0.31134791
-0.31210304
-0.3129284
-0.31385484
-0.31493542
-0.31624448
-0.31788638
-0.31999163
-0.32274844
-0.32638678
-0.33126046
-0.33780494
-0.34647564
-0.35810025
-0.37355149
-0.39260127
-0.4124209
-0.41972991
-0.38931392
-0.3021789
-0.18007073
-0.06151279
0.016462877
0.05898057
0.040355618
0.0069093434
-0.30839391
-0.30839572
-0.30839789
-0.30840026
-0.3084029
-0.30840586
-0.30840917
-0.30841285
-0.30841692
-0.30842142
-0.30842637
-0.30843179
-0.30843771
-0.30844414
-0.30845109
-0.30845858
-0.3084666
-0.30847514
-0.30848419
-0.30849373
-0.30850377
-0.30851433
-0.30852552
-0.30853758
-0.30855098
-0.30856655
-0.3085857
-0.30861071
-0.30864508
-0.30869406
-0.30876512
-0.3088684
-0.30901683
-0.30922442
-0.30950491
-0.30986804
-0.31031576
-0.31084416
-0.31144472
-0.31211117
-0.31284559
-0.31366401
-0.31460032
-0.31570979
-0.31706892
-0.31878587
-0.32099468
-0.32389273
-0.32772097
-0.3328578
-0.33969107
-0.34876599
-0.36104959
-0.37731465
-0.39732344
-0.41659738
-0.42047634
-0.38300549
-0.2939669
-0.17375553
-0.06836732
0.0018529894
0.042840015
0.031054791
0.0043569489
-0.30949682
-0.30949767
-0.30949871
-0.30949987
-0.30950119
-0.3095027
-0.3095044
-0.30950632
-0.30950847
-0.30951086
-0.3095135
-0.30951642
-0.30951961
-0.30952309
-0.30952686
-0.30953091
-0.30953525
-0.30953986
-0.30954473
-0.30954984
-0.30955519
-0.30956082
-0.30956684
-0.30957348
-0.30958119
-0.30959077
-0.30960353
-0.30962162
-0.30964829
-0.30968837
-0.30974872
-0.30983847
-0.3099699
-0.31015418
-0.3104038
-0.31073058
-0.31113556
-0.31161849
-0.31217432
-0.31280113
-0.31350471
-0.31430426
-0.3152363
-0.31635725
-0.31774452
-0.3195081
-0.32178066
-0.32476403
-0.32869155
-0.33395635
-0.34091004
-0.35021693
-0.36278038
-0.37939728
-0.39917099
-0.41624935
-0.41402854
-0.37003627
-0.27941107
-0.17160199
-0.077221878
-0.013867566
0.023326728
0.020305111
-0.0014107158
-0.31054989
-0.31054981
-0.31054975
-0.31054973
-0.31054976
-0.31054984
-0.31054997
-0.31055017
-0.31055042
-0.31055073
-0.31055111
-0.31055155
-0.31055206
-0.31055262
-0.31055324
-0.31055389
-0.31055457
-0.31055527
-0.31055595
-0.3105566
-0.31055724
-0.31055787
-0.31055861
-0.31055967
-0.31056146
-0.31056472
-0.31057067
-0.31058124
-0.31059943
-0.31062961
-0.31067804
-0.31075242
-0.31086557
-0.31102186
-0.31124204
-0.31153127
-0.31188981
-0.31232279
-0.31282752
-0.31340634
-0.31406868
-0.31483679
-0.31574921
-0.31686281
-0.31825412
-0.32003306
-0.32232438
-0.32533312
-0.32926525
-0.33453978
-0.3413843
-0.35069758
-0.36318482
-0.37953764
-0.39779885
-0.4106493
-0.40109448
-0.35141602
-0.26605954
-0.16934134
-0.086694673
-0.029698484
0.005800549
0.0091967399
-0.0088996912
-0.31153697
-0.31153603
-0.31153493
-0.31153381
-0.31153262
-0.31153136
-0.31153001
-0.31152858
-0.31152704
-0.31152539
-0.31152362
-0.31152172
-0.31151967
-0.31151746
-0.31151507
-0.31151247
-0.31150965
-0.31150658
-0.31150323
-0.31149958
-0.31149562
-0.31149136
-0.31148689
-0.31148238
-0.31147819
-0.31147497
-0.31147379
-0.31147638
-0.31148538
-0.31150477
-0.31154029
-0.31159519
-0.31170193
-0.31183815
-0.31200819
-0.31225826
-0.31256834
-0.31294676
-0.31339416
-0.31391662
-0.31452704
-0.31525046
-0.31612674
-0.3172126
-0.31858136
-0.32033953
-0.32260363
-0.32555483
-0.32941746
-0.33450804
-0.34113272
-0.35002797
-0.36222703
-0.3774357
-0.39296047
-0.39958057
-0.38221314
-0.33026022
-0.25159043
-0.16864001
-0.094738943
-0.04308137
-0.010106587
-0.0041961569
-0.014210129
-0.31244915
-0.31244742
-0.3124454
-0.31244329
-0.31244101
-0.31243853
-0.31243585
-0.31243293
-0.31242977
-0.31242634
-0.31242262
-0.31241858
-0.3124142
-0.31240944
-0.31240429
-0.3123987
-0.31239265
-0.31238609
-0.31237898
-0.31237129
-0.31236299
-0.31235408
-0.31234459
-0.31233466
-0.31232458
-0.31231488
-0.31230646
-0.31230081
-0.31230026
-0.31230816
-0.31232917
-0.312373
-0.31244143
-0.31253391
-0.31268337
-0.31290073
-0.31315625
-0.313479
-0.31386412
-0.31432264
-0.31487062
-0.31553565
-0.31635856
-0.31739465
-0.31871243
-0.32041293
-0.32259424
-0.32543753
-0.32911491
-0.33389632
-0.34012714
-0.34841427
-0.35981331
-0.37319656
-0.38430564
-0.38340303
-0.3599477
-0.30882929
-0.23922258
-0.16655166
-0.10184886
-0.054860338
-0.023787689
-0.014611513
-0.020727339
-0.31327339
-0.31327101
-0.31326821
-0.31326526
-0.31326206
-0.31325856
-0.31325474
-0.31325058
-0.31324604
-0.3132411
-0.31323571
-0.31322984
-0.31322346
-0.31321652
-0.31320898
-0.3132008
-0.31319193
-0.3131823
-0.31317187
-0.31316057
-0.31314835
-0.31313515
-0.31312097
-0.31310587
-0.31309
-0.31307375
-0.31305779
-0.31304331
-0.3130322
-0.31302731
-0.31303163
-0.31305808
-0.31309635
-0.31317328
-0.31329526
-0.31344769
-0.31365516
-0.31391465
-0.31423177
-0.31461813
-0.31509272
-0.31568489
-0.31643587
-0.31739712
-0.31863317
-0.32023513
-0.32227716
-0.32496649
-0.32828969
-0.33268504
-0.33831318
-0.3458767
-0.35617393
-0.3665733
-0.37149563
-0.36347692
-0.33791678
-0.28875552
-0.22804733
-0.16491636
-0.10752527
-0.064752327
-0.035782526
-0.024620859
-0.026416248
-0.31400941
-0.31400652
-0.31400313
-0.31399954
-0.31399563
-0.31399134
-0.31398665
-0.31398151
-0.3139759
-0.31396976
-0.31396306
-0.31395575
-0.31394779
-0.31393911
-0.31392966
-0.31391939
-0.31390823
-0.3138961
-0.31388293
-0.31386862
-0.31385308
-0.31383621
-0.31381793
-0.3137982
-0.31377706
-0.31375469
-0.31373154
-0.31370846
-0.3136869
-0.31366921
-0.31365843
-0.31366181
-0.3136764
-0.31371794
-0.31379727
-0.31390342
-0.31405413
-0.31424768
-0.31449162
-0.31479808
-0.31518809
-0.31569188
-0.31634999
-0.31720768
-0.31832788
-0.31977959
-0.3216517
-0.32402404
-0.32700378
-0.33091675
-0.33586001
-0.34265327
-0.3510454
-0.35697356
-0.3554326
-0.34309349
-0.31480713
-0.27316085
-0.2175722
-0.16285918
-0.11213004
-0.073136236
-0.045894261
-0.033219999
-0.031654734
-0.31465063
-0.31464744
-0.31464368
-0.31463969
-0.31463533
-0.31463055
-0.3146253
-0.31461954
-0.31461323
-0.31460633
-0.31459877
-0.31459052
-0.3145815
-0.31457165
-0.31456091
-0.3145492
-0.31453644
-0.31452252
-0.31450734
-0.31449076
-0.31447264
-0.3144528
-0.31443106
-0.31440723
-0.31438118
-0.31435282
-0.31432225
-0.31428987
-0.31425656
-0.31422388
-0.31419429
-0.31417196
-0.31416073
-0.31416624
-0.31419949
-0.31425809
-0.31434942
-0.3144747
-0.31464071
-0.31485976
-0.31515344
-0.31555171
-0.31609153
-0.31681436
-0.31777711
-0.31903639
-0.32064156
-0.3226913
-0.32523229
-0.3285854
-0.33304652
-0.33846815
-0.34424536
-0.34435386
-0.33840959
-0.32265035
-0.29523969
-0.25737016
-0.20917286
-0.16087335
-0.1156725
-0.080016978
-0.054488061
-0.040601526
-0.036458198
-0.31520517
-0.31520189
-0.31519802
-0.31519391
-0.31518941
-0.31518445
-0.315179
-0.31517302
-0.31516646
-0.31515926
-0.31515136
-0.31514272
-0.31513326
-0.3151229
-0.31511157
-0.31509918
-0.31508561
-0.31507074
-0.31505443
-0.31503649
-0.31501671
-0.31499482
-0.31497052
-0.31494346
-0.31491327
-0.31487957
-0.31484208
-0.31480069
-0.31475564
-0.31470773
-0.31465858
-0.31461098
-0.31456865
-0.31453645
-0.31452047
-0.31452354
-0.31454981
-0.31460103
-0.31468246
-0.31480483
-0.31498833
-0.31525991
-0.31565149
-0.31620296
-0.31696371
-0.31797563
-0.31930791
-0.32098459
-0.32321735
-0.32614931
-0.32963605
-0.33275789
-0.33362072
-0.33058096
-0.32095738
-0.30309815
-0.27844307
-0.24367864
-0.20120286
-0.15851245
-0.11822558
-0.085558393
-0.061558316
-0.046519186
-0.040863096
-0.31567742
-0.3156743
-0.31567061
-0.31566667
-0.31566236
-0.31565761
-0.31565238
-0.31564662
-0.31564029
-0.31563334
-0.3156257
-0.31561731
-0.3156081
-0.31559798
-0.31558687
-0.31557466
-0.31556121
-0.31554637
-0.31552994
-0.31551169
-0.31549132
-0.31546846
-0.31544264
-0.31541332
-0.31537985
-0.31534151
-0.31529755
-0.31524727
-0.31519018
-0.31512622
-0.31505602
-0.3149812
-0.31490457
-0.31483005
-0.31476246
-0.31470542
-0.31466195
-0.31463339
-0.31462293
-0.31463762
-0.31469463
-0.31481346
-0.31502445
-0.31536965
-0.31589933
-0.31665142
-0.31776256
-0.31916408
-0.3212599
-0.3233017
-0.32494508
-0.32505265
-0.32283279
-0.31686156
-0.30293581
-0.2873513
-0.26278586
-0.2314901
-0.19401439
-0.15601124
-0.11990904
-0.089890202
-0.067311714
-0.051510629
-0.044770009
-0.31608367
-0.31608097
-0.31607777
-0.31607435
-0.3160706
-0.31606646
-0.31606189
-0.31605685
-0.31605129
-0.31604517
-0.31603842
-0.31603097
-0.31602277
-0.3160137
-0.31600368
-0.31599257
-0.31598023
-0.31596645
-0.31595099
-0.31593354
-0.31591371
-0.31589099
-0.31586475
-0.31583421
-0.31579839
-0.31575619
-0.31570631
-0.31564743
-0.31557823
-0.3154977
-0.31540537
-0.31530168
-0.31518828
-0.31506809
-0.31494502
-0.31482264
-0.31470338
-0.31458757
-0.31447535
-0.31436801
-0.31427851
-0.31421673
-0.31422751
-0.31435113
-0.31465739
-0.31527058
-0.3161721
-0.3173859
-0.31867359
-0.31919405
-0.31830633
-0.31551892
-0.3105107
-0.30204878
-0.28891092
-0.2722523
-0.24927627
-0.2207161
-0.1872396
-0.15325467
-0.12078906
-0.093158596
-0.071860739
-0.055852892
-0.048009339
-0.31644083
-0.31643883
-0.31643646
-0.31643392
-0.31643112
-0.31642802
-0.31642458
-0.31642078
-0.31641656
-0.31641189
-0.31640671
-0.31640095
-0.31639454
-0.31638738
-0.31637936
-0.31637033
-0.31636012
-0.31634848
-0.3163351
-0.31631961
-0.31630148
-0.31628006
-0.31625451
-0.31622378
-0.31618656
-0.31614128
-0.31608609
-0.31601893
-0.31593767
-0.31584025
-0.31572506
-0.31559131
-0.31543935
-0.31527103
-0.31508927
-0.31489716
-0.31469611
-0.31448478
-0.31425922
-0.31401416
-0.31376066
-0.31351667
-0.31332187
-0.31328256
-0.31348841
-0.31397507
-0.31464231
-0.31522911
-0.31512462
-0.3134724
-0.31021255
-0.30565076
-0.29835037
-0.28745576
-0.2750428
-0.25868889
-0.23700515
-0.21086938
-0.1808566
-0.15030962
-0.12096709
-0.095493862
-0.075348194
-0.059420768
-0.050687192
-0.31677676
-0.31677575
-0.31677454
-0.31677323
-0.31677178
-0.31677016
-0.31676833
-0.31676628
-0.31676398
-0.31676137
-0.31675842
-0.31675507
-0.31675123
-0.3167468
-0.31674166
-0.31673564
-0.31672851
-0.31672
-0.31670973
-0.31669721
-0.31668178
-0.31666263
-0.31663868
-0.31660858
-0.31657064
-0.31652282
-0.31646268
-0.31638743
-0.31629405
-0.31617947
-0.31604091
-0.31587623
-0.31568462
-0.3154669
-0.31522466
-0.31495997
-0.31467224
-0.3143584
-0.31400932
-0.31361907
-0.31321949
-0.31279434
-0.31252992
-0.31236767
-0.31252455
-0.31274383
-0.31281151
-0.31211158
-0.31001596
-0.30629666
-0.30174798
-0.29495835
-0.28603999
-0.27598419
-0.26275888
-0.24640547
-0.2259381
-0.20189374
-0.17475946
-0.14715858
-0.12051538
-0.097002357
-0.077893696
-0.062371093
-0.052818406
-0.31712571
-0.31712596
-0.31712624
-0.31712651
-0.31712677
-0.31712702
-0.31712724
-0.31712742
-0.31712754
-0.31712756
-0.31712744
-0.31712712
-0.31712652
-0.31712553
-0.317124
-0.31712174
-0.31711848
-0.31711388
-0.31710746
-0.31709862
-0.31708657
-0.31707026
-0.31704838
-0.31701926
-0.31698082
-0.3169305
-0.31686529
-0.3167817
-0.31667588
-0.31654379
-0.31638161
-0.3161869
-0.31595544
-0.31568832
-0.31538534
-0.31504723
-0.31467048
-0.31425259
-0.31378732
-0.31326846
-0.31275753
-0.31231767
-0.31197111
-0.31173257
-0.3116586
-0.31118501
-0.31013915
-0.30765341
-0.30353335
-0.2989205
-0.29240402
-0.28417358
-0.27521439
-0.26414749
-0.25092497
-0.23504339
-0.21572732
-0.19352823
-0.16887223
-0.14382018
-0.11951359
-0.097782874
-0.07964283
-0.064667804
-0.054423769
-0.31753639
-0.31753809
-0.31754007
-0.31754215
-0.31754438
-0.31754679
-0.31754936
-0.3175521
-0.31755499
-0.317558
-0.3175611
-0.31756422
-0.31756728
-0.31757015
-0.31757266
-0.31757457
-0.31757556
-0.31757521
-0.31757294
-0.31756801
-0.31755945
-0.31754601
-0.3175261
-0.31749773
-0.31745842
-0.31740519
-0.31733448
-0.31724222
-0.3171239
-0.31697491
-0.31679209
-0.31656108
-0.31628927
-0.31597717
-0.31561752
-0.3152121
-0.31475388
-0.31425757
-0.31367853
-0.31310966
-0.31254671
-0.31208609
-0.31167691
-0.31118917
-0.31041476
-0.30883954
-0.30638669
-0.30171615
-0.29695205
-0.29067471
-0.28262802
-0.27417203
-0.26453434
-0.25334731
-0.24011268
-0.22457021
-0.2062805
-0.18569599
-0.16314808
-0.14030016
-0.11802266
-0.09791631
-0.080669318
-0.0663156
-0.055580839
-0.31807145
-0.31807466
-0.31807844
-0.31808241
-0.31808669
-0.31809134
-0.31809635
-0.31810173
-0.31810747
-0.31811355
-0.31811992
-0.31812652
-0.31813324
-0.31813994
-0.3181464
-0.31815233
-0.31815734
-0.3181609
-0.31816231
-0.31816068
-0.31815484
-0.3181433
-0.31812419
-0.3180952
-0.31805349
-0.31799564
-0.31791768
-0.31781508
-0.31768292
-0.31751452
-0.31729914
-0.31704801
-0.31674679
-0.3163859
-0.31597668
-0.31551502
-0.31498684
-0.31442074
-0.31384246
-0.31322854
-0.31263083
-0.31210145
-0.31136824
-0.31024338
-0.30836512
-0.30534726
-0.30086131
-0.29584746
-0.28963837
-0.28164886
-0.2733673
-0.26446324
-0.25443532
-0.24296943
-0.22979524
-0.21472062
-0.19740052
-0.17824989
-0.1575274
-0.13660405
-0.11609938
-0.097474244
-0.081068233
-0.067392449
-0.05632753
-0.31880607
-0.31881069
-0.3188161
-0.31882181
-0.31882797
-0.31883465
-0.31884187
-0.31884962
-0.3188579
-0.31886667
-0.3188759
-0.31888548
-0.3188953
-0.31890516
-0.3189148
-0.31892384
-0.31893181
-0.31893805
-0.31894173
-0.31894176
-0.31893675
-0.31892498
-0.31890428
-0.31887202
-0.31882502
-0.3187595
-0.31867114
-0.31855507
-0.31840231
-0.31821595
-0.3179932
-0.31771133
-0.31736816
-0.31697879
-0.31652665
-0.31601757
-0.31546073
-0.31485345
-0.31424538
-0.31361921
-0.31291691
-0.31203343
-0.31068423
-0.30853862
-0.30528178
-0.30069527
-0.2954944
-0.28955524
-0.28108428
-0.27300618
-0.26445658
-0.25505592
-0.2446846
-0.23311507
-0.22007683
-0.2054468
-0.18900047
-0.17111855
-0.15197641
-0.13273808
-0.1137896
-0.096520651
-0.080907936
-0.067950844
-0.056682625
-0.31983431
-0.31983994
-0.31984654
-0.31985349
-0.31986098
-0.3198691
-0.31987784
-0.31988721
-0.31989719
-0.31990773
-0.31991876
-0.31993017
-0.31994178
-0.31995334
-0.31996452
-0.31997486
-0.31998376
-0.31999042
-0.31999384
-0.31999274
-0.3199855
-0.31997013
-0.31994419
-0.31990477
-0.31984826
-0.31977007
-0.31966694
-0.31954038
-0.31939725
-0.31918857
-0.31890427
-0.3185841
-0.31822216
-0.31779316
-0.31731264
-0.31677391
-0.31618323
-0.31555066
-0.31488705
-0.31410992
-0.31309041
-0.31157964
-0.30924542
-0.30580111
-0.3009744
-0.29552073
-0.28933765
-0.28185619
-0.2729281
-0.26474323
-0.25566598
-0.24589629
-0.23528553
-0.22363785
-0.21076076
-0.19659271
-0.18095781
-0.16421154
-0.14645389
-0.12870361
-0.11113149
-0.095106605
-0.080246224
-0.06802449
-0.056661728
-0.32124597
-0.32125199
-0.32125904
-0.32126644
-0.32127439
-0.32128296
-0.32129216
-0.32130196
-0.32131231
-0.32132315
-0.32133437
-0.3213458
-0.3213572
-0.32136826
-0.32137854
-0.32138747
-0.3213943
-0.32139808
-0.3213976
-0.32139134
-0.32137744
-0.32135363
-0.32131717
-0.32126458
-0.32119142
-0.32109849
-0.32099558
-0.32085832
-0.32064103
-0.32038167
-0.32009844
-0.31974754
-0.31934949
-0.31888878
-0.31835425
-0.31777172
-0.31714765
-0.3164419
-0.31561429
-0.3145101
-0.31288554
-0.31042896
-0.30690005
-0.3020049
-0.29636553
-0.29025409
-0.28237128
-0.27360703
-0.26541635
-0.25651872
-0.24703385
-0.23696149
-0.22615094
-0.21448746
-0.20180718
-0.18808948
-0.17319698
-0.15746917
-0.14093108
-0.12450239
-0.10815614
-0.093277505
-0.079135245
-0.067658303
-0.056299367
-0.32313874
-0.32314444
-0.32315108
-0.32315801
-0.3231654
-0.32317331
-0.32318169
-0.32319051
-0.32319968
-0.32320908
-0.32321854
-0.32322783
-0.32323662
-0.32324449
-0.32325087
-0.32325505
-0.32325609
-0.32325284
-0.32324384
-0.32322732
-0.32320111
-0.32316234
-0.32310755
-0.32303793
-0.32295702
-0.32284638
-0.3226782
-0.32247168
-0.32223605
-0.32195175
-0.32161309
-0.32121509
-0.32075296
-0.3202361
-0.31966298
-0.31902042
-0.3182951
-0.31742151
-0.31625812
-0.31454857
-0.31202867
-0.30843448
-0.30356511
-0.29777169
-0.29164902
-0.28380456
-0.27527337
-0.26681516
-0.25774264
-0.24835979
-0.23852855
-0.22818359
-0.2172301
-0.20558469
-0.19311596
-0.17984045
-0.16563613
-0.15083042
-0.13537782
-0.120133
-0.10488805
-0.091069631
-0.077614928
-0.066882423
-0.055601107
-0.32560404
-0.32560878
-0.32561425
-0.32561987
-0.32562576
-0.32563194
-0.32563833
-0.32564482
-0.32565127
-0.32565751
-0.32566326
-0.32566818
-0.32567184
-0.32567365
-0.32567287
-0.32566857
-0.32565959
-0.32564447
-0.32562145
-0.32558836
-0.32554237
-0.32548063
-0.3254048
-0.32530612
-0.32516939
-0.32499648
-0.32479035
-0.3245453
-0.32425055
-0.32390108
-0.32349263
-0.32302519
-0.32249876
-0.32191037
-0.32125247
-0.32050324
-0.31959303
-0.31837521
-0.31661977
-0.31403654
-0.31046684
-0.30558422
-0.29974291
-0.29356259
-0.28578946
-0.27713168
-0.26851053
-0.25938565
-0.24997445
-0.24022939
-0.23007989
-0.21951564
-0.20845881
-0.19686418
-0.18462292
-0.17177758
-0.15821199
-0.14424665
-0.12976885
-0.11559292
-0.10134628
-0.088513504
-0.075721187
-0.065728134
-0.054590313
-0.32875779
-0.32876096
-0.32876453
-0.32876805
-0.32877154
-0.32877494
-0.32877813
-0.32878093
-0.32878311
-0.32878437
-0.32878433
-0.32878249
-0.32877824
-0.32877079
-0.32875913
-0.32874206
-0.32871806
-0.32868529
-0.32864153
-0.3285841
-0.32850992
-0.32841553
-0.32829682
-0.32814513
-0.32795859
-0.32773661
-0.32746966
-0.32715179
-0.32677794
-0.32634586
-0.32585524
-0.32530348
-0.32468825
-0.32400233
-0.32321663
-0.3222588
-0.3209852
-0.3191797
-0.31657284
-0.31298693
-0.30830682
-0.30238248
-0.29625447
-0.28841826
-0.27956278
-0.27076725
-0.26159929
-0.25207343
-0.24222831
-0.23209573
-0.22165905
-0.21090567
-0.19977945
-0.18826094
-0.17625686
-0.16383103
-0.15086416
-0.13767224
-0.12407964
-0.11087785
-0.097545256
-0.085633652
-0.0734821
-0.064220092
-0.053275807
-0.33278802
-0.33278881
-0.3327895
-0.33278983
-0.3327897
-0.33278896
-0.33278738
-0.3327847
-0.33278057
-0.33277454
-0.33276607
-0.33275446
-0.33273885
-0.33271819
-0.33269115
-0.33265616
-0.33261127
-0.33255415
-0.33248203
-0.33239167
-0.33227931
-0.33214066
-0.33197092
-0.33176482
-0.33151713
-0.33122191
-0.33087368
-0.33046884
-0.33000529
-0.32947998
-0.32889091
-0.32823578
-0.32750325
-0.32666074
-0.3256331
-0.32428083
-0.32239332
-0.31972668
-0.31606829
-0.31136527
-0.30540416
-0.29904096
-0.29134832
-0.2824777
-0.27348875
-0.26425143
-0.25458036
-0.24459481
-0.23435428
-0.22389085
-0.21320162
-0.20229479
-0.19113083
-0.17971194
-0.16795541
-0.15594065
-0.14353993
-0.13106704
-0.11828758
-0.10598213
-0.093495334
-0.082449556
-0.070921837
-0.062380696
-0.051674694
-0.33796989
-0.33796706
-0.33796337
-0.33795891
-0.33795336
-0.33794645
-0.33793784
-0.33792713
-0.33791382
-0.33789729
-0.33787677
-0.33785132
-0.3378198
-0.33778082
-0.33773269
-0.33767338
-0.33760047
-0.33751109
-0.3374019
-0.33726901
-0.33710803
-0.33691407
-0.33668175
-0.3364053
-0.33607929
-0.33569912
-0.33526058
-0.33475961
-0.33419325
-0.3335594
-0.33285264
-0.33205801
-0.33113851
-0.33001647
-0.32855527
-0.32655517
-0.32378258
-0.3200397
-0.31521896
-0.30926232
-0.30260675
-0.29503952
-0.28588401
-0.27683778
-0.26742812
-0.25762069
-0.24744142
-0.23700435
-0.22636897
-0.21558213
-0.20466178
-0.19362865
-0.18245439
-0.17115675
-0.15965813
-0.14804946
-0.13619056
-0.12439395
-0.11237102
-0.10089889
-0.089203761
-0.078976644
-0.06806012
-0.060229826
-0.049797831
-0.34461006
-0.34460188
-0.34459174
-0.34458025
-0.34456682
-0.34455099
-0.34453229
-0.34451016
-0.3444839
-0.34445267
-0.34441546
-0.34437104
-0.34431793
-0.34425437
-0.34417826
-0.34408709
-0.34397795
-0.34384741
-0.34369155
-0.34350591
-0.3432855
-0.34302506
-0.34271925
-0.34236269
-0.34194994
-0.34147582
-0.34093612
-0.34032712
-0.33964399
-0.33887767
-0.33800811
-0.33699271
-0.33575036
-0.33414665
-0.33199254
-0.32906798
-0.32518605
-0.32023743
-0.31416193
-0.30723737
-0.2996348
-0.29054657
-0.2811783
-0.27160649
-0.26136127
-0.25086661
-0.24012703
-0.22921189
-0.21818458
-0.20709664
-0.19597294
-0.184844
-0.17368841
-0.16253509
-0.15130764
-0.14010471
-0.12877125
-0.1176188
-0.1063094
-0.095620319
-0.08467509
-0.07522609
-0.064913303
-0.05778198
-0.04765815
-0.35308491
-0.35306922
-0.3530501
-0.35302886
-0.35300455
-0.35297647
-0.35294402
-0.35290641
-0.35286274
-0.35281192
-0.35275264
-0.35268333
-0.35260211
-0.35250687
-0.35239509
-0.35226378
-0.35210953
-0.35192845
-0.35171618
-0.35146793
-0.3511785
-0.35084232
-0.35045357
-0.35000658
-0.34949589
-0.34891606
-0.3482611
-0.34752278
-0.34668704
-0.34572729
-0.34459399
-0.3432013
-0.34141543
-0.33905573
-0.33591555
-0.33181561
-0.32665679
-0.32036711
-0.3131629
-0.30530931
-0.29610594
-0.28636571
-0.27637802
-0.26580456
-0.25491919
-0.24380807
-0.23252066
-0.22114192
-0.20973873
-0.19837168
-0.18707248
-0.17587853
-0.16477174
-0.15378807
-0.14284861
-0.13205647
-0.12124017
-0.11070972
-0.10008299
-0.090137842
-0.079911927
-0.071205973
-0.061495184
-0.055046518
-0.045275885
-0.3637103
-0.36368465
-0.36365362
-0.36361954
-0.36358098
-0.36353698
-0.36348672
-0.36342924
-0.36336338
-0.36328777
-0.36320086
-0.36310087
-0.36298545
-0.36285199
-0.36269763
-0.36251899
-0.36231221
-0.36207302
-0.36179676
-0.36147825
-0.36111191
-0.36069189
-0.36021206
-0.35966592
-0.3590463
-0.35834435
-0.35754744
-0.35663535
-0.35557368
-0.35430456
-0.35273542
-0.35073095
-0.34811413
-0.34469026
-0.34028324
-0.33480244
-0.32818509
-0.32056265
-0.31232962
-0.30282586
-0.2926659
-0.28218481
-0.27115734
-0.25980796
-0.24819084
-0.23641209
-0.2245585
-0.21271417
-0.20095016
-0.18933071
-0.17788899
-0.16666555
-0.15564204
-0.14485765
-0.1342281
-0.12385792
-0.11355851
-0.10363716
-0.093673187
-0.084442741
-0.074915859
-0.066923292
-0.057819439
-0.052047436
-0.042636726
-0.37680277
-0.37676467
-0.37671886
-0.37666888
-0.37661272
-0.37654913
-0.37647718
-0.37639527
-0.37630165
-0.37620003
-0.37609696
-0.37597181
-0.37580222
-0.37560937
-0.3754054
-0.37517544
-0.37491129
-0.37460851
-0.37426253
-0.37386795
-0.37341844
-0.37290704
-0.37232579
-0.37166501
-0.37091191
-0.37004815
-0.36904571
-0.36786063
-0.3664248
-0.36463712
-0.36235781
-0.35941366
-0.35561444
-0.35080107
-0.34486756
-0.33779709
-0.32964259
-0.32087933
-0.31092687
-0.30016291
-0.28908244
-0.27748368
-0.26553555
-0.25332298
-0.24094538
-0.22850829
-0.2161019
-0.20381563