/*--------------------------------*- C++ -*----------------------------------*\
  =========                 |
  \\      /  F ield         | OpenFOAM: The Open Source CFD Toolbox
   \\    /   O peration     | Website:  https://openfoam.org
    \\  /    A nd           | Version:  13
     \\/     M anipulation  |
\*---------------------------------------------------------------------------*/
FoamFile
{
    format      ascii;
    class       volScalarField;
    location    "30.302824";
    object      pMean;
}
// * * * * * * * * * * * * * * * * * * * * * * * * * * * * * * * * * * * * * //

dimensions      [0 2 -2 0 0 0 0];

internalField   nonuniform List<scalar> 
17140
(
1.4317287
1.4316288
1.4315083
1.4313858
1.4312536
1.4311097
1.4309542
1.4307866
1.4306069
1.4304147
1.4302098
1.4299921
1.429761
1.4295158
1.4292547
1.4289748
1.4286711
1.4283357
1.4279566
1.4275163
1.4269895
1.4263415
1.4255241
1.4244715
1.4231075
1.4213681
1.4192139
1.4166002
1.4134478
1.4096534
1.4051042
1.3996739
1.3932238
1.3856043
1.3766574
1.366222
1.3541424
1.3402823
1.3245444
1.306898
1.2874122
1.2662956
1.2439521
1.2210177
1.1983992
1.1772697
1.1588143
1.1442293
1.1347064
1.1312188
1.1344185
1.144694
1.1621951
1.1865707
1.217261
1.2529059
1.2923919
1.3332201
1.3750708
1.4134006
1.450669
1.4774584
1.5047683
1.5127212
1.5304651
1.4301276
1.4300297
1.4299117
1.4297915
1.4296618
1.4295207
1.4293681
1.4292037
1.4290273
1.4288388
1.4286378
1.4284243
1.4281978
1.4279576
1.4277019
1.4274281
1.4271312
1.4268035
1.4264332
1.4260029
1.4254877
1.424853
1.424051
1.4230166
1.4216728
1.4199546
1.4178224
1.4152323
1.4121048
1.4083359
1.4038126
1.3984081
1.391983
1.3843871
1.3754614
1.3650439
1.3529779
1.3391259
1.3233891
1.3057356
1.2862329
1.2650888
1.2427061
1.2197237
1.1970612
1.1758653
1.157339
1.1427241
1.1331793
1.1296571
1.13283
1.1430874
1.1605527
1.1848888
1.2155311
1.2511054
1.2905123
1.3312608
1.3730157
1.4112182
1.4483072
1.4749624
1.5022224
1.5102171
1.5286571
1.4261839
1.4260909
1.4259789
1.4258645
1.425741
1.4256066
1.4254611
1.4253044
1.4251363
1.4249565
1.424765
1.4245616
1.4243462
1.4241179
1.4238755
1.4236162
1.4233357
1.4230265
1.4226772
1.4222711
1.4217837
1.4211811
1.4204165
1.4194259
1.4181313
1.4164646
1.4143852
1.4118498
1.4087799
1.4050711
1.4006086
1.3952652
1.3888997
1.3813602
1.3724856
1.3621115
1.3500786
1.3362464
1.3205132
1.3028441
1.2833037
1.2620992
1.2396341
1.2165591
1.1938044
1.1724933
1.153851
1.1391434
1.1295368
1.1259739
1.1290995
1.1392868
1.1566677
1.1809092
1.2114302
1.2468598
1.2861032
1.3266785
1.3682707
1.40633
1.4432921
1.4698664
1.4972018
1.5055178
1.5249642
1.4199735
1.4198882
1.4197858
1.4196807
1.419567
1.4194431
1.419309
1.4191645
1.4190094
1.4188436
1.418667
1.4184797
1.4182816
1.4180722
1.4178504
1.417614
1.417359
1.4170785
1.4167619
1.4163932
1.4159488
1.4153959
1.414689
1.4137661
1.4125484
1.4109636
1.4089669
1.4065157
1.4035349
1.3999198
1.3955529
1.3903056
1.3840347
1.3765854
1.3677933
1.3574906
1.3455138
1.3317181
1.3159973
1.2983117
1.2787227
1.2574364
1.2348591
1.211658
1.1887727
1.1673067
1.1485209
1.1336962
1.1240076
1.1203893
1.1234588
1.1335586
1.1508127
1.1748943
1.2052159
1.2403837
1.2793254
1.3195935
1.360926
1.3988077
1.4356867
1.4623888
1.4900676
1.4990871
1.5198435
1.4116989
1.411624
1.4115346
1.4114419
1.4113414
1.4112319
1.4111132
1.4109851
1.4108476
1.4107006
1.4105442
1.4103786
1.4102037
1.4100195
1.4098251
1.4096189
1.4093975
1.4091547
1.4088809
1.4085609
1.4081726
1.4076844
1.4070526
1.4062179
1.4051021
1.4036273
1.4017409
1.3994008
1.3965376
1.3930471
1.388808
1.3836901
1.3775473
1.3702214
1.361544
1.3513426
1.3394486
1.3257116
1.3100194
1.2923265
1.2726902
1.2513159
1.2286159
1.205278
1.18224
1.1606099
1.1416791
1.1267373
1.1169806
1.1133227
1.1163469
1.1263595
1.1434771
1.1673713
1.1974401
1.2322732
1.270849
1.3107537
1.3517795
1.3894935
1.4263387
1.4533111
1.4814827
1.4915721
1.513797
1.4016948
1.4016328
1.4015592
1.4014818
1.4013977
1.4013058
1.4012061
1.4010985
1.4009827
1.400859
1.4007274
1.4005882
1.4004418
1.4002882
1.400127
1.3999571
1.3997756
1.3995775
1.399354
1.3990912
1.3987685
1.398356
1.3978122
1.3970806
1.3960866
1.3947462
1.3929938
1.3907867
1.3880646
1.3847241
1.3806406
1.3756812
1.369697
1.3625257
1.3539945
1.3439253
1.3321437
1.3184927
1.3028529
1.2851719
1.2655024
1.2440491
1.2212343
1.1977669
1.1745781
1.152803
1.1337453
1.1187072
1.1089065
1.1052421
1.1082552
1.118212
1.1352131
1.1589176
1.1887043
1.2231501
1.2612869
1.3007815
1.341495
1.3790843
1.4159639
1.4434034
1.4723442
1.4837339
1.5074672
1.3904143
1.3903669
1.3903107
1.390251
1.3901859
1.3901146
1.390037
1.389953
1.3898625
1.3897657
1.3896628
1.3895542
1.3894404
1.3893217
1.3891981
1.3890688
1.3889318
1.3887828
1.3886142
1.3884135
1.3881617
1.3878309
1.3873819
1.3867617
1.3858999
1.3847101
1.383113
1.381058
1.3784915
1.3753179
1.3714111
1.3666332
1.3608328
1.3538434
1.3454873
1.3355811
1.3239437
1.3104106
1.2948546
1.2772155
1.2575412
1.2360369
1.213138
1.1895685
1.1662621
1.1443794
1.1252195
1.110107
1.1002849
1.0966427
1.0996806
1.1096245
1.126554
1.150114
1.1796633
1.2137592
1.2514598
1.2905593
1.3310079
1.3685795
1.4055898
1.4336949
1.463479
1.4762255
1.5011626
1.3784061
1.3783746
1.3783371
1.3782969
1.3782528
1.3782042
1.378151
1.3780931
1.3780306
1.3779635
1.3778923
1.3778174
1.3777392
1.3776584
1.3775751
1.377489
1.3773987
1.3773005
1.377188
1.3770502
1.3768696
1.3766206
1.3762666
1.3757578
1.3750285
1.3739961
1.37257
1.3706794
1.3682743
1.3652752
1.3615567
1.3569755
1.3513771
1.3445912
1.3364356
1.3267212
1.3152604
1.301881
1.2864471
1.2688909
1.2492551
1.2277474
1.2048184
1.1811944
1.1578243
1.1358806
1.1166431
1.1014658
1.0916291
1.0880297
1.0911292
1.1011009
1.1180099
1.141488
1.1708729
1.2046996
1.242062
1.2808437
1.321084
1.3586591
1.3959253
1.4248484
1.45554
1.4697568
1.4955967
1.3662808
1.366266
1.3662482
1.3662285
1.3662066
1.3661819
1.3661545
1.3661244
1.3660915
1.366056
1.3660183
1.3659787
1.365938
1.3658965
1.3658548
1.3658126
1.3657689
1.3657208
1.3656626
1.3655845
1.3654708
1.3652979
1.365032
1.3646267
1.3640207
1.3631366
1.3618833
1.3601705
1.3579302
1.355099
1.3515687
1.3471897
1.3418021
1.3352337
1.3272984
1.3178018
1.30655
1.2933632
1.2780973
1.260677
1.2411408
1.2196993
1.196817
1.1732154
1.1498625
1.1279188
1.1086388
1.0934136
1.0835753
1.0800282
1.0831932
1.0932182
1.1101585
1.1336189
1.1628994
1.1965256
1.2336391
1.2722079
1.3123268
1.3502507
1.38807
1.4179983
1.4495398
1.4648084
1.4906703
1.3546681
1.3546701
1.3546719
1.3546729
1.3546733
1.3546728
1.3546716
1.3546695
1.3546667
1.3546633
1.3546597
1.3546561
1.3546531
1.3546512
1.3546506
1.3546514
1.3546526
1.3546515
1.3546432
1.3546188
1.3545639
1.3544568
1.3542664
1.3539496
1.3534493
1.3526931
1.3515941
1.3500576
1.3479925
1.3453213
1.3419587
1.3377749
1.3326021
1.3262598
1.3185589
1.309302
1.2982905
1.2853385
1.2702954
1.2530797
1.233727
1.212452
1.1897246
1.1662638
1.1430445
1.1211941
1.1019504
1.0867426
1.0769359
1.0734383
1.0766769
1.0867896
1.1037894
1.127249
1.1564547
1.1899626
1.2269734
1.2655985
1.3059897
1.3443519
1.3825913
1.4132577
1.4451404
1.4609703
1.4864833
1.3441635
1.3441813
1.3442018
1.3442226
1.3442443
1.3442672
1.3442912
1.3443164
1.3443428
1.3443707
1.3444002
1.3444316
1.3444654
1.3445017
1.3445407
1.3445822
1.3446251
1.3446669
1.3447027
1.3447243
1.3447182
1.3446644
1.3445336
1.344286
1.3438684
1.3432134
1.3422386
1.3408506
1.3389526
1.3364514
1.33325
1.329233
1.324254
1.3181352
1.3106791
1.3016843
1.2909492
1.2782838
1.2635338
1.2466147
1.2275615
1.2065925
1.1841669
1.16101
1.1380935
1.1164963
1.0974473
1.0823768
1.0726586
1.0692404
1.0725322
1.082641
1.0996324
1.1230604
1.1522108
1.1856848
1.2226866
1.261451
1.3020563
1.3407573
1.3793027
1.4104208
1.4423911
1.4584822
1.4830334
1.3352736
1.3353056
1.3353427
1.3353812
1.3354222
1.3354662
1.3355132
1.3355633
1.3356167
1.3356734
1.3357337
1.3357977
1.3358657
1.3359376
1.3360134
1.3360925
1.3361734
1.3362533
1.3363275
1.3363875
1.3364207
1.3364077
1.3363212
1.3361235
1.3357649
1.3351825
1.3342991
1.3330242
1.33126
1.3289077
1.3258645
1.3220161
1.3172216
1.3113138
1.3041034
1.29539
1.2849711
1.2726564
1.2582888
1.2417839
1.2231772
1.2026875
1.1807641
1.158129
1.13572
1.1145858
1.0959357
1.0811592
1.0716305
1.068221
1.0713965
1.0813461
1.0981782
1.1214615
1.1504832
1.1838613
1.2208612
1.2597911
1.3006667
1.3397672
1.3785494
1.409881
1.4411272
1.4572484
1.4803227
1.3283625
1.3284059
1.3284566
1.3285096
1.3285666
1.3286281
1.3286944
1.3287656
1.3288419
1.3289234
1.3290104
1.329103
1.3292011
1.3293047
1.3294134
1.3295261
1.329641
1.3297551
1.329863
1.3299564
1.3300226
1.3300427
1.3299903
1.3298295
1.329513
1.3289814
1.3281626
1.3269723
1.3253132
1.3230806
1.3201754
1.3164853
1.3118737
1.3061844
1.2992354
1.2908322
1.2807764
1.2688828
1.2550038
1.239052
1.2210631
1.2012509
1.1800595
1.1581854
1.136513
1.1160572
1.0980036
1.0836906
1.0743195
1.0708117
1.0737256
1.0833866
1.0999138
1.1229226
1.151705
1.1849123
1.2220324
1.2612308
1.3024116
1.3415685
1.3800195
1.4106421
1.4411308
1.4566265
1.4781724
1.3236095
1.3236609
1.3237212
1.3237845
1.323853
1.3239274
1.324008
1.324095
1.3241888
1.3242895
1.3243975
1.3245127
1.3246353
1.324765
1.3249011
1.3250425
1.3251871
1.3253315
1.32547
1.325594
1.3256909
1.3257422
1.3257218
1.3255949
1.3253158
1.3248275
1.3240608
1.3229355
1.3213621
1.3192463
1.3164477
1.3129056
1.3084845
1.3030248
1.29636
1.2883098
1.2786896
1.2673204
1.2540462
1.2387976
1.2216115
1.2026897
1.1824552
1.1615604
1.140842
1.121263
1.1039698
1.0901128
1.0808616
1.0771947
1.0797509
1.0889774
1.1050827
1.127713
1.1561224
1.1892183
1.2262836
1.2657076
1.3067121
1.3455496
1.3829355
1.4128318
1.4415835
1.4563592
1.4765466
1.3209772
1.3210326
1.3210979
1.3211668
1.3212416
1.3213233
1.3214121
1.3215086
1.3216131
1.321726
1.3218477
1.3219783
1.3221179
1.3222664
1.3224232
1.322587
1.3227558
1.3229262
1.3230925
1.3232463
1.3233753
1.3234613
1.3234793
1.3233952
1.3231647
1.3227318
1.3220296
1.320981
1.3194981
1.31749
1.3148914
1.3115097
1.3072254
1.3020243
1.295689
1.2880507
1.2789314
1.2681668
1.2556252
1.2412441
1.2250461
1.2072197
1.1881484
1.1684243
1.1488263
1.1302694
1.1137243
1.100293
1.0911407
1.0872192
1.0893399
1.0980656
1.1136735
1.135776
1.1637584
1.1965552
1.2336633
1.2728734
1.3133645
1.3511203
1.3872004
1.4153558
1.4425103
1.4563636
1.4752872
1.3202451
1.3203005
1.3203664
1.3204358
1.3205113
1.3205943
1.320685
1.320784
1.3208919
1.3210091
1.3211362
1.3212736
1.3214215
1.32158
1.3217487
1.3219268
1.3221126
1.3223029
1.3224929
1.322675
1.3228376
1.3229642
1.3230312
1.3230063
1.3228467
1.3224983
1.3218951
1.3209603
1.3196075
1.3177462
1.3152865
1.3120886
1.3081302
1.3032049
1.297197
1.2900271
1.2815021
1.2714713
1.2598174
1.2464601
1.2314258
1.2148741
1.1971318
1.1787265
1.1603585
1.1428066
1.1269736
1.1139405
1.1047862
1.1005903
1.102254
1.1104601
1.1254869
1.1469435
1.1744032
1.2070045
1.2437665
1.2822883
1.321694
1.3578919
1.3918685
1.4183135
1.4436507
1.4566719
1.474511
1.3210123
1.3210642
1.3211265
1.3211918
1.3212631
1.3213418
1.3214283
1.3215233
1.3216273
1.321741
1.3218652
1.3220005
1.3221473
1.322306
1.3224768
1.3226593
1.3228523
1.3230538
1.3232599
1.3234646
1.3236582
1.3238265
1.323949
1.3239966
1.32393
1.3236979
1.3232353
1.3224652
1.321302
1.3196536
1.317421
1.3145383
1.3108782
1.3063269
1.3008452
1.2942139
1.2863679
1.2771888
1.2665463
1.2543623
1.2406447
1.2255073
1.20922
1.1922197
1.1750715
1.1584878
1.1433284
1.1305731
1.1213931
1.1169073
1.1181375
1.12582
1.1401088
1.1609297
1.187943
1.2200929
1.2559816
1.2936077
1.3311183
1.365193
1.3969381
1.4213529
1.4451145
1.4573473
1.4742378
1.3228267
1.3228723
1.3229275
1.322985
1.3230481
1.323118
1.3231953
1.3232806
1.3233746
1.3234781
1.3235919
1.3237169
1.3238537
1.3240032
1.3241659
1.324342
1.3245313
1.3247328
1.3249443
1.3251617
1.3253781
1.325583
1.32576
1.3258858
1.3259275
1.3258396
1.3255636
1.3250268
1.324143
1.3228183
1.3209509
1.3184515
1.3152266
1.3112016
1.3062458
1.3003293
1.2933631
1.2851386
1.2756246
1.2647413
1.2524603
1.2388468
1.224085
1.2084892
1.1925366
1.1768728
1.1622661
1.1497398
1.1405045
1.1357619
1.136576
1.143576
1.1572284
1.1774735
1.2039023
1.2351416
1.2701979
1.3058668
1.3410996
1.3727301
1.4019554
1.4247006
1.4469723
1.4584385
1.4744974
1.325208
1.3252456
1.3252913
1.3253387
1.3253911
1.3254494
1.3255142
1.3255861
1.3256658
1.3257542
1.3258521
1.3259604
1.3260803
1.3262125
1.3263581
1.3265179
1.3266925
1.326882
1.3270856
1.3273015
1.327526
1.3277524
1.3279698
1.3281617
1.3283035
1.3283608
1.3282852
1.3280137
1.3274681
1.3265566
1.3251773
1.32323
1.3206136
1.3172566
1.3130767
1.3080089
1.3019532
1.2948878
1.2867003
1.2772508
1.266519
1.2545013
1.2412827
1.2270808
1.2122765
1.1974199
1.183289
1.1709265
1.1616356
1.1566023
1.1568891
1.1632828
1.1763464
1.1959501
1.2215929
1.252076
1.28535
1.3186002
1.3512526
1.3800562
1.4072654
1.4283422
1.449255
1.459972
1.4752954
1.3277676
1.3277966
1.3278316
1.3278684
1.3279092
1.3279548
1.3280058
1.3280626
1.3281261
1.3281969
1.328276
1.3283642
1.3284627
1.3285726
1.3286949
1.328831
1.3289819
1.3291486
1.3293317
1.3295312
1.3297458
1.3299727
1.3302064
1.3304373
1.3306503
1.3308223
1.3309204
1.3308983
1.3306946
1.3302319
1.3294186
1.3281544
1.3263368
1.3238728
1.3206789
1.3166899
1.3118548
1.3061242
1.2993595
1.2914756
1.2823839
1.2720018
1.2603338
1.2474799
1.233721
1.2195738
1.2058174
1.1936
1.1841406
1.1787375
1.1784935
1.1844003
1.1969228
1.2158933
1.2409749
1.2700072
1.3007177
1.3313851
1.3609999
1.3875976
1.4127784
1.4323355
1.4519833
1.4619704
1.4766444
1.3302128
1.3302337
1.3302588
1.3302856
1.3303154
1.3303489
1.3303865
1.3304287
1.3304761
1.3305294
1.3305894
1.3306569
1.3307329
1.3308185
1.3309149
1.3310236
1.3311458
1.331283
1.3314367
1.3316079
1.3317974
1.332005
1.3322293
1.3324667
1.3327104
1.3329489
1.3331638
1.3333285
1.3334053
1.3333425
1.3330738
1.3325186
1.3315863
1.3301823
1.3282164
1.3256009
1.3222442
1.3180658
1.3129643
1.3068212
1.2994745
1.2907792
1.2806357
1.2690404
1.2562129
1.24264
1.2291864
1.2169488
1.2072488
1.2014702
1.2008732
1.206439
1.2185298
1.237233
1.2612672
1.287789
1.316083
1.3436774
1.3708524
1.395203
1.4185746
1.436698
1.455175
1.4644407
1.4785389
1.3323975
1.3324115
1.3324284
1.3324467
1.3324671
1.3324902
1.3325162
1.3325456
1.3325788
1.3326164
1.3326591
1.3327075
1.3327627
1.3328255
1.332897
1.3329782
1.3330707
1.3331759
1.3332953
1.3334305
1.3335835
1.3337561
1.3339494
1.3341638
1.3343983
1.3346502
1.3349141
1.3351806
1.3354349
1.3356547
1.3358082
1.3358516
1.3357288
1.3353686
1.3346864
1.3335833
1.3319451
1.3296367
1.3264936
1.3223231
1.3168899
1.3099513
1.3013025
1.2908779
1.2788424
1.2657231
1.2523633
1.2400091
1.2300384
1.224063
1.2234055
1.2288917
1.2411822
1.2592441
1.2810047
1.305432
1.3308149
1.3558329
1.3806155
1.4029874
1.4246667
1.441438
1.458838
1.4674026
1.4809875
1.3342714
1.3342801
1.3342905
1.3343019
1.3343147
1.3343291
1.3343456
1.3343642
1.3343854
1.3344096
1.3344375
1.3344694
1.3345052
1.3345457
1.3345922
1.3346464
1.3347099
1.3347843
1.3348712
1.3349715
1.335086
1.3352164
1.3353662
1.3355387
1.335737
1.3359643
1.336224
1.336519
1.3368526
1.3372268
1.3376419
1.3380966
1.3385818
1.3390754
1.339532
1.3398718
1.3399662
1.3396246
1.3386016
1.3365938
1.3332273
1.3281271
1.3209944
1.3117122
1.3003762
1.2875445
1.2742055
1.2616713
1.2516321
1.2459857
1.2456991
1.2519909
1.2641737
1.2807059
1.3003574
1.322369
1.3450501
1.3677248
1.3904252
1.4109519
1.4310703
1.446573
1.4629707
1.4708543
1.4839878
1.3359093
1.3359134
1.3359183
1.3359237
1.3359298
1.3359368
1.3359449
1.3359542
1.3359651
1.3359777
1.3359922
1.3360089
1.3360283
1.3360512
1.3360788
1.3361119
1.3361508
1.3361959
1.3362487
1.3363116
1.3363872
1.3364764
1.336581
1.3367046
1.3368522
1.3370325
1.3372552
1.3375297
1.3378695
1.3382933
1.3388248
1.3394977
1.3403455
1.3413914
1.3426491
1.3440942
1.3456234
1.3470363
1.3480138
1.3481005
1.3467915
1.3435582
1.3379868
1.3297789
1.3190826
1.306521
1.2931604
1.2809591
1.2719573
1.2672562
1.2683964
1.2750928
1.2862648
1.3010515
1.3191298
1.3382252
1.3588455
1.3794786
1.4002688
1.41911
1.4377878
1.4521008
1.4675753
1.4747994
1.4875281
1.3373736
1.3373726
1.3373716
1.3373704
1.3373692
1.3373681
1.3373674
1.3373672
1.3373675
1.3373684
1.3373702
1.3373739
1.3373795
1.3373847
1.3373887
1.3373936
1.3374017
1.3374153
1.3374374
1.3374699
1.3375129
1.3375657
1.3376292
1.3377093
1.3378134
1.3379494
1.338129
1.3383684
1.3386886
1.3391163
1.3396871
1.3404506
1.341464
1.3427888
1.3444892
1.3465821
1.3490154
1.3516093
1.3540462
1.355829
1.356307
1.3547737
1.3506319
1.3434938
1.3334318
1.3214418
1.3092278
1.2989164
1.2913474
1.288592
1.2906217
1.2968872
1.3069806
1.3204919
1.3361719
1.3536076
1.3723257
1.3910951
1.4101749
1.4274676
1.444821
1.4580236
1.472646
1.4792341
1.4916121
1.3387127
1.3387057
1.3386975
1.3386889
1.3386797
1.3386695
1.3386586
1.3386471
1.3386351
1.3386226
1.3386096
1.3385963
1.3385826
1.3385687
1.3385549
1.3385419
1.3385309
1.3385235
1.3385205
1.3385238
1.3385374
1.338563
1.3386002
1.3386529
1.3387284
1.3388344
1.3389817
1.3391875
1.3394771
1.3398829
1.3404404
1.3411988
1.3422285
1.3436064
1.3454169
1.3477185
1.3505263
1.3537227
1.3570122
1.3598974
1.3616214
1.361366
1.358326
1.3521263
1.3435203
1.3336009
1.3238294
1.315331
1.3101594
1.3087862
1.3107994
1.3170863
1.3264307
1.3383867
1.3526837
1.3684366
1.3854771
1.4026126
1.4201478
1.4360284
1.4521692
1.4643382
1.4781768
1.484157
1.4962307
1.3396737
1.3396609
1.3396459
1.3396301
1.3396129
1.3395936
1.339572
1.3395488
1.3395254
1.3395019
1.3394775
1.339452
1.3394256
1.3393983
1.33937
1.339341
1.3393119
1.3392835
1.3392572
1.3392359
1.3392232
1.3392224
1.3392352
1.3392628
1.339313
1.3393993
1.3395319
1.3397206
1.339986
1.340362
1.3408918
1.3416236
1.3426209
1.3439609
1.3457398
1.3480425
1.3508764
1.3541862
1.3577151
1.3609744
1.3632214
1.363701
1.3619172
1.3576557
1.3514151
1.3439847
1.3365742
1.3307445
1.3276753
1.3268229
1.3297317
1.3356734
1.3444598
1.3553592
1.368373
1.3827707
1.3983746
1.414049
1.4302009
1.4447971
1.4598297
1.4710403
1.4841587
1.4895583
1.5013771
1.3400094
1.3399933
1.3399743
1.3399542
1.3399325
1.3399089
1.3398833
1.3398555
1.3398255
1.3397936
1.3397599
1.3397244
1.3396875
1.3396495
1.3396108
1.3395722
1.3395346
1.339499
1.3394668
1.3394395
1.3394206
1.3394161
1.339429
1.3394554
1.3394981
1.3395716
1.3396891
1.3398623
1.340109
1.3404492
1.3409182
1.3415724
1.3424732
1.3436901
1.3452863
1.347334
1.3499191
1.3530091
1.3564269
1.3597718
1.362525
1.3640879
1.3638288
1.3615725
1.3577291
1.3528552
1.3480563
1.3449334
1.3430394
1.3437213
1.347355
1.3530837
1.3612727
1.3714392
1.3834755
1.3966997
1.4110422
1.425428
1.4403442
1.4537763
1.4677986
1.4781254
1.4905853
1.4954444
1.5070442
1.3393089
1.339294
1.3392765
1.3392579
1.3392379
1.339216
1.3391924
1.3391669
1.3391396
1.3391105
1.3390796
1.3390472
1.3390134
1.3389786
1.3389433
1.338908
1.3388737
1.3388409
1.3388113
1.3387873
1.3387713
1.3387648
1.3387704
1.3387917
1.3388341
1.3389066
1.339017
1.3391754
1.3393958
1.3397053
1.340134
1.3407158
1.3415055
1.3425646
1.3439878
1.3458517
1.3482123
1.3510971
1.3544132
1.3579414
1.3612258
1.36374
1.3649645
1.364747
1.3631751
1.3606709
1.3587815
1.3574964
1.3573255
1.3594412
1.3633394
1.3692374
1.3771932
1.3868043
1.3980208
1.4102608
1.4235228
1.4367731
1.4505885
1.4629686
1.476074
1.4855883
1.4974469
1.5018024
1.5132101
1.3377823
1.3377718
1.3377595
1.3377465
1.3377324
1.3377171
1.3377006
1.3376828
1.3376638
1.3376436
1.3376223
1.3376
1.3375769
1.3375535
1.3375302
1.3375076
1.3374864
1.3374679
1.3374533
1.3374443
1.3374426
1.3374507
1.3374721
1.3375102
1.3375679
1.3376507
1.3377686
1.3379335
1.3381561
1.3384482
1.3388418
1.3393939
1.3401557
1.3411628
1.3424826
1.3442334
1.3465039
1.3493296
1.3526946
1.3564527
1.3602954
1.3637495
1.3663823
1.367875
1.3681695
1.3683292
1.3686242
1.3690811
1.3707599
1.373775
1.3783683
1.384526
1.3923332
1.4015367
1.4121121
1.4235256
1.4358553
1.4481075
1.4609457
1.4723792
1.4846543
1.4934243
1.5047335
1.5086226
1.5198719
1.3356006
1.3355952
1.3355889
1.3355822
1.3355751
1.3355675
1.3355594
1.3355507
1.3355417
1.3355325
1.3355231
1.3355137
1.3355047
1.3354964
1.3354894
1.3354845
1.3354826
1.335485
1.3354932
1.335509
1.3355349
1.3355736
1.3356269
1.3356984
1.3357893
1.3359075
1.3360736
1.3362917
1.3365764
1.3369549
1.337433
1.3380408
1.3388412
1.3398969
1.3412814
1.3430836
1.3453974
1.3483041
1.3518492
1.3559518
1.3603551
1.364673
1.3684267
1.3711803
1.373586
1.3759413
1.3778446
1.380143
1.3832287
1.3873065
1.3925496
1.3990246
1.4068315
1.4157579
1.4258228
1.4365461
1.4480789
1.4594557
1.4714302
1.4820073
1.4935334
1.5016214
1.51244
1.515878
1.5270529
1.3330544
1.3330526
1.3330506
1.3330486
1.3330466
1.3330446
1.3330429
1.3330414
1.3330403
1.3330398
1.3330403
1.3330421
1.3330456
1.3330515
1.3330605
1.3330737
1.3330923
1.333118
1.3331526
1.3331987
1.3332576
1.3333332
1.3334304
1.3335575
1.3337215
1.3339286
1.334194
1.3345209
1.3349136
1.3353999
1.3360105
1.3367757
1.3377342
1.3389355
1.340461
1.3424118
1.344903
1.3480575
1.3519496
1.3565044
1.3615024
1.3665569
1.371077
1.3753631
1.3796696
1.3833307
1.3868771
1.3907933
1.3951514
1.4001893
1.4061062
1.4129526
1.420828
1.4295686
1.4392357
1.4493839
1.4602338
1.4708424
1.4820523
1.4918563
1.5027134
1.5101705
1.5205601
1.5235598
1.5347072
1.3300627
1.3300628
1.3300632
1.3300638
1.3300648
1.3300663
1.3300686
1.3300717
1.3300761
1.3300821
1.33009
1.3301005
1.3301143
1.3301323
1.3301555
1.3301856
1.3302241
1.3302734
1.3303361
1.3304151
1.3305148
1.3306404
1.3307996
1.3309999
1.3312462
1.3315466
1.3319126
1.3323581
1.3328996
1.3335554
1.3343478
1.3353014
1.3364571
1.3378847
1.3396715
1.3419305
1.3448072
1.3484353
1.3528462
1.3579548
1.3635721
1.3690948
1.3746875
1.3804754
1.385857
1.3908906
1.3960108
1.4012094
1.4066949
1.4126442
1.41921
1.4264398
1.4344409
1.4430703
1.4524272
1.4620947
1.4723593
1.482293
1.4928265
1.5019332
1.5121955
1.5190624
1.5290848
1.531663
1.5428134
1.3263593
1.3263612
1.3263636
1.3263666
1.3263704
1.3263752
1.3263814
1.3263891
1.326399
1.3264113
1.3264269
1.3264465
1.3264712
1.3265021
1.3265409
1.3265894
1.3266499
1.3267254
1.3268193
1.3269359
1.3270809
1.32726
1.3274804
1.3277503
1.3280784
1.3284771
1.3289597
1.3295416
1.3302385
1.3310672
1.332052
1.333236
1.3346755
1.3364415
1.3386442
1.3414236
1.3449221
1.3492261
1.354315
1.3601258
1.3662183
1.3725683
1.3793845
1.3860755
1.3925248
1.3989055
1.4052063
1.411551
1.4180603
1.4248397
1.4320215
1.4396363
1.4477921
1.4563596
1.4654732
1.4747357
1.4844948
1.493833
1.5037655
1.5122445
1.5219705
1.5283052
1.5379969
1.5401811
1.5513634
1.3215136
1.3215185
1.3215247
1.3215319
1.3215404
1.3215507
1.3215631
1.3215781
1.3215963
1.3216183
1.3216451
1.3216777
1.3217174
1.3217659
1.3218252
1.3218976
1.321986
1.322094
1.3222258
1.3223865
1.322582
1.3228195
1.3231076
1.323456
1.3238771
1.324384
1.3249891
1.3257088
1.3265667
1.3275935
1.3288274
1.3303199
1.3321457
1.334409
1.3372394
1.3407719
1.3451038
1.35025
1.3561784
1.3626218
1.3694479
1.376987
1.3846618
1.3922434
1.3997442
1.407193
1.4145914
1.4219667
1.4293909
1.4369292
1.4446837
1.4526672
1.4609896
1.4695274
1.4784455
1.4873611
1.4966791
1.505488
1.5148838
1.5227926
1.5320413
1.5378802
1.5472852
1.5490972
1.5603262
1.3151303
1.3151406
1.3151532
1.3151674
1.3151838
1.3152029
1.3152254
1.3152517
1.3152828
1.3153194
1.3153628
1.3154143
1.3154756
1.3155487
1.315636
1.3157404
1.3158652
1.3160148
1.3161942
1.3164088
1.316666
1.3169746
1.3173436
1.3177834
1.318306
1.318928
1.3196712
1.3205602
1.321626
1.3229111
1.3244743
1.3263959
1.3287807
1.3317528
1.3354377
1.3399282
1.3452496
1.3513834
1.3581606
1.365394
1.3734372
1.3818681
1.3902974
1.3988592
1.4073935
1.4158758
1.4242714
1.4325762
1.4408275
1.4490523
1.4573292
1.4656547
1.474139
1.4826613
1.4914141
1.5000247
1.5089501
1.5172829
1.5261923
1.533591
1.5423935
1.547794
1.5569247
1.5584068
1.5696661
1.306864
1.3068821
1.3069042
1.3069284
1.306956
1.3069878
1.3070244
1.3070666
1.3071155
1.3071722
1.3072382
1.3073151
1.307405
1.3075103
1.3076339
1.3077781
1.3079477
1.3081493
1.3083878
1.3086678
1.3089969
1.3093851
1.3098448
1.3103897
1.3110357
1.3118042
1.3127223
1.3138268
1.3151675
1.3168117
1.318848
1.3213871
1.3245559
1.3284747
1.3332333
1.3388566
1.345326
1.3525116
1.360226
1.368764
1.3778665
1.3870966
1.3965321
1.4060672
1.4155897
1.425033
1.4343476
1.4434991
1.4524949
1.4613348
1.4700787
1.4787088
1.4873368
1.4958429
1.5044444
1.5127765
1.5213433
1.5292426
1.5377085
1.544639
1.5530344
1.5580398
1.5669058
1.5680617
1.5794094
1.2963602
1.2963886
1.2964228
1.2964602
1.2965025
1.2965508
1.2966058
1.2966684
1.2967399
1.2968211
1.2969133
1.2970191
1.2971442
1.2972916
1.2974594
1.2976512
1.2978742
1.2981344
1.298438
1.2987929
1.2992077
1.299693
1.300263
1.300936
1.3017354
1.3026927
1.3038504
1.3052663
1.3070176
1.3092036
1.3119446
1.3153715
1.3196078
1.3247349
1.3307853
1.3377237
1.3454388
1.3537422
1.3628599
1.3726319
1.3826398
1.3929164
1.4033817
1.4139126
1.4244038
1.4347678
1.4449375
1.4548589
1.4645199
1.473901
1.4830489
1.4919352
1.5006746
1.5091488
1.5175976
1.5256648
1.533894
1.5413889
1.5494391
1.5559453
1.5639608
1.5686339
1.5772209
1.5782563
1.5894016
1.283483
1.2835241
1.2835714
1.2836204
1.2836744
1.2837387
1.2838189
1.283913
1.2840138
1.284123
1.284247
1.2843896
1.2845532
1.2847411
1.2849572
1.2852059
1.2854919
1.285821
1.2862008
1.2866412
1.2871545
1.2877563
1.288467
1.2893137
1.2903334
1.2915759
1.2931084
1.2950186
1.297416
1.3004289
1.3041912
1.308825
1.3144093
1.3209704
1.3284868
1.3368095
1.3457708
1.3555723
1.3660886
1.3769169
1.3880694
1.3994802
1.4110106
1.4225488
1.4339856
1.4452216
1.4561795
1.4667927
1.4770365
1.4868791
1.4963593
1.5054433
1.5142488
1.5226614
1.5309407
1.5387405
1.5466372
1.5537469
1.5613968
1.5675068
1.5751487
1.5795261
1.587811
1.5885916
1.5995724
1.2682135
1.2682695
1.2683293
1.2683915
1.2684639
1.2685469
1.2686408
1.2687482
1.2688721
1.2690153
1.269181
1.269373
1.2695935
1.2698408
1.2701139
1.2704185
1.2707651
1.2711631
1.271622
1.2721539
1.272775
1.2735068
1.2743786
1.2754304
1.2767166
1.2783109
1.2803101
1.2828357
1.2860313
1.290051
1.2950342
1.3010897
1.3082498
1.316495
1.3256455
1.3355681
1.3463434
1.3578453
1.3696757
1.3818361
1.39428
1.4068699
1.4194964
1.4320439
1.4444004
1.456461
1.4681422
1.4793715
1.4901172
1.5003412
1.5100799
1.5192971
1.5281162
1.5364295
1.5445127
1.5520334
1.5595927
1.5663255
1.5735847
1.5793313
1.5866107
1.5908164
1.5988037
1.6000059
1.6114232
1.250212
1.2502793
1.2503635
1.250455
1.2505568
1.2506708
1.250798
1.2509392
1.2510963
1.2512719
1.2514689
1.2516902
1.2519394
1.2522208
1.2525396
1.2529025
1.2533178
1.2537962
1.2543518
1.2550032
1.2557757
1.2567033
1.2578325
1.259226
1.2609664
1.2631607
1.2659403
1.2694581
1.2738764
1.2793443
1.2859723
1.2938173
1.3028112
1.3128839
1.3238622
1.3357862
1.3484383
1.3614058
1.3747109
1.388314
1.4020744
1.4158861
1.4296307
1.4431869
1.4564386
1.4692788
1.481621
1.4933916
1.5045558
1.5150758
1.5249859
1.5342567
1.5430159
1.551168
1.5590016
1.5662028
1.5733905
1.5797273
1.5865731
1.5919536
1.598834
1.6029056
1.6103451
1.6125978
1.6211277
1.2311001
1.2311849
1.2312885
1.2313956
1.2315138
1.2316457
1.2317924
1.2319557
1.2321378
1.2323411
1.2325687
1.2328242
1.2331122
1.2334382
1.2338096
1.2342358
1.2347292
1.2353064
1.2359898
1.2368096
1.2378069
1.2390365
1.2405717
1.2425076
1.2449639
1.2480852
1.2520349
1.2569822
1.2630801
1.270436
1.2791044
1.2890069
1.3000477
1.3121661
1.3251598
1.338848
1.3528897
1.3673384
1.3821318
1.3971132
1.4121655
1.4271603
1.4419671
1.4564576
1.4705122
1.4840228
1.4969043
1.5090848
1.5205322
1.5312135
1.5411665
1.5503724
1.5589634
1.5668656
1.5743677
1.5811945
1.5879517
1.5938709
1.6002596
1.6052815
1.6117388
1.6156371
1.622697
1.625065
1.6331122
1.2132374
1.2133328
1.2134491
1.2135692
1.2137011
1.2138479
1.2140108
1.2141916
1.2143929
1.2146177
1.2148694
1.2151529
1.215474
1.2158406
1.2162629
1.2167548
1.2173349
1.2180284
1.2188691
1.2199029
1.2211909
1.2228133
1.2248732
1.2274996
1.2308462
1.2350866
1.2404012
1.2469557
1.254873
1.2642143
1.274937
1.2869239
1.300218
1.3141996
1.3288421
1.3439875
1.3596204
1.3756231
1.3918278
1.408116
1.424352
1.4403985
1.4561197
1.4713846
1.4860741
1.5000834
1.5133311
1.5257521
1.5373189
1.5480084
1.557863
1.5668819
1.5751975
1.5827648
1.589864
1.5962696
1.6025532
1.6080454
1.6139457
1.6186399
1.624617
1.6284555
1.6349597
1.6379676
1.6449762
1.1996781
1.1997789
1.1999017
1.2000281
1.2001669
1.2003208
1.2004916
1.2006812
1.2008925
1.2011292
1.201396
1.2016988
1.2020458
1.2024478
1.2029196
1.203481
1.2041587
1.2049891
1.2060206
1.2073175
1.2089636
1.211066
1.2137574
1.2171958
1.22156
1.2270377
1.2338055
1.2420033
1.2517064
1.2629035
1.275487
1.2894701
1.3042439
1.3196444
1.3358739
1.3526328
1.3697452
1.3870828
1.4045174
1.4219103
1.4391206
1.456005
1.472424
1.4882467
1.5033563
1.5176532
1.5310619
1.5435276
1.5550283
1.5655548
1.5751564
1.5838482
1.5917693
1.5989036
1.6055164
1.6114433
1.6172005
1.6222413
1.6276213
1.6319824
1.6374653
1.6412013
1.6472179
1.6503871
1.6569434
1.1922916
1.1923928
1.1925156
1.1926422
1.1927809
1.1929348
1.1931056
1.1932959
1.193509
1.1937495
1.1940234
1.1943388
1.1947065
1.1951415
1.1956638
1.1963008
1.1970891
1.1980778
1.1993315
1.200934
1.2029921
1.2056376
1.2090279
1.2133421
1.2187707
1.225499
1.2336829
1.2434209
1.2547303
1.267535
1.2817615
1.2970117
1.3130333
1.3300976
1.3476781
1.3656548
1.3839053
1.4022881
1.4206608
1.4388753
1.4567813
1.4742297
1.491079
1.5072004
1.5224798
1.5368243
1.550167
1.5624587
1.5736942
1.5838734
1.5930575
1.6012818
1.6086832
1.6152818
1.6213218
1.6267043
1.6318808
1.6364371
1.6412665
1.6452846
1.6502655
1.6539144
1.6594524
1.6629657
1.6690695
1.1933982
1.1934947
1.1936105
1.1937311
1.1938634
1.1940103
1.1941739
1.1943572
1.1945644
1.194801
1.1950747
1.1953959
1.195779
1.1962432
1.1968148
1.1975294
1.1984341
1.199591
1.2010807
1.2030055
1.205492
1.2086922
1.2127805
1.2179462
1.2243792
1.2322491
1.2416789
1.2527209
1.2653384
1.2794267
1.2947671
1.3111011
1.3284366
1.3463934
1.3648483
1.3836515
1.4026555
1.4217103
1.4406604
1.4593472
1.4776114
1.4952989
1.5122674