/*--------------------------------*- C++ -*----------------------------------*\
  =========                 |
  \\      /  F ield         | OpenFOAM: The Open Source CFD Toolbox
   \\    /   O peration     | Website:  https://openfoam.org
    \\  /    A nd           | Version:  13
     \\/     M anipulation  |
\*---------------------------------------------------------------------------*/
FoamFile
{
    format      ascii;
    class       volScalarField;
    location    "17.29989";
    object      omega;
}
// * * * * * * * * * * * * * * * * * * * * * * * * * * * * * * * * * * * * * //

dimensions      [0 0 -1 0 0 0 0];

internalField   nonuniform List<scalar> 
17140
(
4528389.9
731657.3
224625.82
95288.418
48486.198
27615.641
16958.372
10982.491
7396.4635
5131.9386
3644.318
2635.988
1935.0166
1437.4805
1078.1674
814.85061
619.45085
472.86723
361.85154
277.06159
211.81867
161.29794
121.99191
91.349316
67.524901
49.192894
35.385917
25.33685
18.338575
13.679711
10.628267
8.6255972
7.3431321
6.5446839
6.03674
5.6836856
5.407493
5.1734913
4.9709506
4.7977107
4.6530162
4.5358626
4.4444254
4.3761902
4.3282196
4.2964892
4.2793217
4.2726848
4.2718015
4.2712581
4.2662545
4.2477075
4.2208713
4.1888745
4.1496218
4.1103766
4.0799004
4.0682111
4.092591
4.1372389
4.1902895
4.2397751
4.2425344
4.0704977
3.6589055
4528420.9
731662.92
224627.89
95289.513
48486.883
27616.127
16958.751
10982.81
7396.7487
5132.2065
3644.5793
2636.2501
1935.2846
1437.7581
1078.457
815.15371
619.7678
473.19745
362.19339
277.4123
212.17421
161.65279
122.33891
91.679539
67.827799
49.45718
35.601602
25.498338
18.447261
13.74335
10.66632
8.6471406
7.3486144
6.5382882
6.0236576
5.6690236
5.3942819
5.1640687
4.9672629
4.8014693
4.6655537
4.558384
4.4777617
4.4207725
4.3854839
4.3682712
4.3638795
4.3768266
4.4005503
4.430005
4.4628598
4.4950444
4.5224331
4.5384677
4.5433023
4.5334853
4.5114105
4.4887999
4.4797423
4.504425
4.5618551
4.6146783
4.6452959
4.4795605
4.0078347
4528451.2
731667.92
224629.47
95290.232
48487.311
27616.439
16959.02
10983.069
7397.015
5132.4913
3644.8895
2636.5906
1935.6588
1438.1682
1078.9041
815.63795
620.28807
473.75137
362.77709
278.02013
212.79842
162.28312
122.96208
92.278811
68.383155
49.946728
36.00529
25.80388
18.655426
13.867365
10.743065
8.6939607
7.3661003
6.5339443
6.0069891
5.6485905
5.3757977
5.1513178
4.9628183
4.807855
4.684418
4.5909673
4.5247059
4.4845145
4.4651284
4.4597996
4.4693117
4.5012663
4.5446646
4.5963448
4.6538375
4.7147809
4.7753592
4.8304006
4.8766726
4.9119624
4.9368334
4.9526542
4.9681988
5.0025968
5.061427
5.1025458
5.0996358
4.8229777
4.1596959
4528483
731673.12
224631.12
95291.007
48487.79
27616.809
16959.358
10983.408
7397.374
5132.8823
3645.3206
2637.0674
1936.1855
1438.7474
1079.5373
816.32525
621.02807
474.54094
363.61107
278.89096
213.69557
163.19245
123.865
93.151612
69.19695
50.669301
36.606236
26.263216
18.971804
14.058057
10.862604
8.7694769
7.399019
6.5341587
5.9884212
5.6229523
5.351748
5.1346229
4.9566911
4.814625
4.7059056
4.6280552
4.5802245
4.5566577
4.5493043
4.5553921
4.5794859
4.6222378
4.6752159
4.735391
4.7999494
4.8665059
4.9334716
4.9962997
5.0512809
5.0947385
5.1261118
5.1470781
5.1638749
5.18782
5.222538
5.2567629
5.2225828
4.8461445
3.890466
4528516.9
731678.66
224632.87
95291.839
48488.319
27617.235
16959.76
10983.822
7397.8202
5133.3734
3645.8656
2637.673
1936.8565
1439.4872
1080.3477
817.2066
621.97892
475.55773
364.68773
280.01838
214.86091
164.37822
125.04795
94.301669
70.276974
51.637107
37.420922
26.89637
19.419199
14.342437
11.025564
8.8653025
7.4490825
6.5430187
5.9705806
5.5933358
5.3225896
5.1131166
4.947199
4.8187788
4.7256357
4.6660015
4.6353859
4.6246454
4.6265422
4.6453183
4.67993
4.7279942
4.7831652
4.8427535
4.9037548
4.9641333
5.0223261
5.0754922
5.1221436
5.1565651
5.1786847
5.1890861
5.1929255
5.1946582
5.2081644
5.2527364
5.1241913
4.6126442
3.4124033
4528552.1
731684.38
224634.68
95292.716
48488.895
27617.711
16960.22
10984.303
7398.344
5133.9537
3646.5125
2638.394
1937.6572
1440.3719
1081.3189
818.26511
623.12355
476.78491
365.99097
281.38762
216.28167
165.8304
126.50446
95.726966
71.626424
52.858888
38.462935
27.719396
20.011779
14.726104
11.242305
8.9921493
7.5225119
6.5665422
5.9590974
5.5637075
5.2900607
5.0870801
4.9327421
4.8175405
4.7407748
4.6985413
4.6812831
4.6787428
4.6924754
4.7206275
4.7615829
4.8111761
4.8645882
4.9191063
4.9721646
5.0220654
5.0670753
5.1057812
5.1367316
5.1538308
5.1600603
5.1525738
5.1325585
5.1184016
5.1194415
5.1443462
4.9407092
4.2189795
2.8517127
4528588.7
731690.28
224636.55
95293.636
48489.511
27618.23
16960.729
10984.841
7398.9331
5134.6092
3647.2455
2639.213
1938.5688
1441.3811
1082.4293
819.47834
624.43911
478.19969
367.49868
282.97797
217.93933
167.53363
128.22337
97.421685
73.245963
54.342581
39.747404
28.753112
20.773399
15.234007
11.544732
9.1560272
7.6127833
6.6066947
5.9573145
5.5378778
5.2566154
5.0573396
4.9126533
4.8104436
4.748244
4.718967
4.7102627
4.7166317
4.7402013
4.7753626
4.8198965
4.868938
4.9186594
4.9663799
5.0102502
5.0491869
5.0815973
5.1065084
5.1207709
5.1227531
5.110093
5.0849812
5.0521968
5.031086
5.0377551
5.0250357
4.723757
3.685781
2.2703821
4528626.6
731696.4
224638.49
95294.597
48490.162
27618.785
16961.278
10985.424
7399.5746
5135.3252
3648.0479
2640.1112
1939.5706
1442.4928
1083.6554
820.82159
625.90019
479.77655
369.18587
284.76578
219.81255
169.46996
130.19143
99.378688
75.136026
56.097398
41.292649
30.023563
21.734351
15.896068
11.957524
9.3842877
7.7287985
6.6622297
5.9698484
5.520416
5.2257221
5.0261379
4.8884649
4.7965923
4.7450579
4.7241425
4.7214206
4.7365039
4.7671162
4.8073127
4.8539563
4.9018873
4.947537
4.9885634
5.0237253
5.0528587
5.0755538
5.0877109
5.0887492
5.0745101
5.0485751
5.013496
4.9798536
4.9738873
4.9908594
4.9067136
4.4548964
3.0226803
1.7330886
4528664.7
731702.71
224640.5
95295.598
48490.84
27619.366
16961.857
10986.041
7400.2541
5136.0849
3648.9008
2641.0679
1940.6399
1443.682
1084.9705
822.26696
627.47801
481.48641
371.02396
286.72389
221.8767
171.61864
132.39323
101.58964
77.297148
58.134345
43.120903
31.563072
22.9332
16.75136
12.515242
9.716019
7.9054965
6.7427977
5.9955398
5.5141776
5.2021089
4.996929
4.8613537
4.7769559
4.7335319
4.7176209
4.7184476
4.7388588
4.7747139
4.8184753
4.865957
4.9126604
4.9546767
4.9900883
5.0191547
5.0410229
5.053057
5.0558643
5.0463916
5.0201881
4.9860764
4.9496864
4.9318445
4.9561185
4.9757072
4.7744824
4.0051816
2.3364517
1.2882614
4528704.9
731709.27
224642.6
95296.634
48491.54
27619.965
16962.452
10986.675
7400.9538
5136.8677
3649.7807
2642.0564
1941.7471
1444.9167
1086.3402
823.77777
629.13427
483.29004
372.97371
288.81419
224.09624
173.94832
134.80358
104.03767
79.723089
60.460049
45.253137
33.406475
24.414769
17.84741
13.260316
10.183355
8.1757836
6.8837515
6.0560727
5.5266048
5.1879072
4.9702576
4.8318257
4.7504605
4.7111194
4.699383
4.7054137
4.7303483
4.7686436
4.8139649
4.8616086
4.9070986
4.9466517
4.9780211
5.0002165
5.0139326
5.0194821
5.0160205
4.997224
4.9639191
4.928709
4.9031594
4.9171274
4.9820361
4.954623
4.581894
3.2469136
1.7365679
0.93210156
4528746.8
731716.14
224644.83
95297.735
48492.277
27620.584
16963.054
10987.31
7401.6502
5137.6455
3650.6549
2643.0398
1942.8508
1446.151
1087.7144
825.30012
630.81172
485.12761
374.97371
290.97507
226.41101
176.40239
137.37191
106.68112
82.384383
63.060645
47.694104
35.578452
26.221218
19.23628
14.2442
10.828883
8.5705682
7.1076094
6.1693687
5.5709346
5.1910828
4.9517015
4.8034676
4.7193803
4.68002
4.6693762
4.6789283
4.70775
4.7488605
4.7957568
4.8432577
4.8867349
4.9232047
4.9502078
4.9677394
4.9769604
4.9784914
4.9699114
4.9430136
4.9085253
4.8806397
4.8848095
4.9428552
5.0417277
4.8820257
4.2227358
2.3627477
1.2246162
0.67849967
4528789.6
731723.2
224647.13
95298.854
48493.014
27621.19
16963.634
10987.914
7402.3094
5138.3801
3651.4806
2643.9699
1943.8974
1447.3255
1089.0279
826.76312
632.43406
486.91796
376.93882
293.11865
228.73214
178.89327
140.01478
109.4442
85.217081
65.888881
50.418382
38.079654
28.380092
20.966727
15.524724
11.706737
9.1331404
7.446105
6.3580379
5.6632133
5.2237269
4.950318
4.7820874
4.6878424
4.6436605
4.6316562
4.642302
4.6721089
4.7142561
4.7616254
4.8087689
4.8508297
4.8855585
4.9105163
4.9257358
4.9324421
4.9309875
4.9173133
4.8849504
4.8569233
4.855774
4.9013484
5.0527774
5.069235
4.6950843
3.3333203
1.6492981
0.86525149
0.50414906
4528834.7
731730.58
224649.49
95299.98
48493.731
27621.761
16964.165
10988.459
7402.8972
5139.0318
3652.2121
2644.7947
1944.8282
1448.3746
1090.2077
828.08617
633.91307
488.56542
378.7664
295.13625
230.94634
181.30513
142.61665
112.21542
88.118556
68.856997
53.360265
40.874064
30.890707
23.072541
17.159396
12.881121
9.9206282
7.9437369
6.6544243
5.826053
5.3005782
4.9727207
4.7766274
4.6620032
4.6063781
4.5890535
4.5978733
4.626641
4.668453
4.7154541
4.7618442
4.8026917
4.8363848
4.8607547
4.8754524
4.880547
4.8761309
4.8563166
4.8270669
4.824582
4.8631985
4.9988094
5.1937856
5.0115556
4.2694365
2.2788131
1.0663833
0.59504186
0.38966153
4528880.1
731738.07
224651.88
95301.095
48494.413
27622.278
16964.625
10988.915
7403.381
5139.5628
3652.8058
2645.4643
1945.5863
1449.2337
1091.181
829.1877
635.15782
489.96927
380.34579
296.9074
232.92401
183.50058
145.03458
114.8497
90.946365
71.83178
56.404496
43.875203
33.706631
25.55407
19.19035
14.419408
11.004006
8.6612039
7.1048798
6.0930603
5.4459131
5.0396068
4.7927786
4.6512795
4.5752277
4.5464603
4.5494374
4.5739139
4.6137267
4.65925
4.7042087
4.7437422
4.7768223
4.8016366
4.816895
4.8200142
4.8119736
4.7903484
4.7879419
4.8249146
4.9501067
5.2688474
5.2506959
4.7632121
3.098811
1.4217165
0.72347773
0.46371088
0.32505799
4528926.9
731745.78
224654.31
95302.198
48495.051
27622.726
16964.997
10989.264
7403.7358
5139.9437
3653.2271
2645.9385
1946.1251
1449.8491
1091.886
829.99692
636.08743
491.03751
381.57279
298.3149
234.5344
185.33535
147.11168
117.17953
93.526099
74.637782
59.383455
46.935935
36.717527
28.354405
21.622729
16.375021
12.461795
9.6770811
7.7748144
6.5138247
5.6957453
5.1752848
4.8522757
4.6652144
4.5618307
4.5121798
4.5031379
4.5189335
4.5538585
4.5962264
4.6386614
4.6765488
4.7089059
4.7342552
4.749575
4.7500056
4.741629
4.7458886
4.7865248
4.921571
5.2738083
5.4696488
5.1620396
4.051373
1.8591488
0.87171739
0.50188748
0.36321628
0.27761802
4528977.9
731753.99
224656.83
95303.291
48495.639
27623.1
16965.271
10989.492
7403.9473
5140.1569
3653.4551
2646.1922
1946.4147
1450.1853
1092.2807
830.46375
636.64249
491.69971
382.36421
299.26081
235.66299
186.67669
148.69585
119.0333
95.667889
77.070463
62.084859
49.848075
39.73753
31.333828
24.384918
18.756073
14.359291
11.082595
8.7518797
7.1600997
6.1047564
5.4209625
4.9883844
4.7247019
4.5776917
4.5011953
4.4694228
4.4727074
4.4960539
4.5330276
4.5713065
4.6067721
4.6378326
4.6624355
4.6756814
4.6808952
4.6977597
4.7526096
4.9129914
5.3154864
5.7472508
5.5298003
4.680973
2.3972864
1.0718435
0.59271488
0.39787669
0.31754219
0.24513368
4529031.7
731762.49
224659.4
95304.374
48496.18
27623.4
16965.446
10989.598
7404.0132
5140.1992
3653.4851
2646.2185
1946.4455
1450.229
1092.3467
830.56368
636.7906
491.91374
382.6661
299.67722
236.22539
187.42045
149.65945
120.2567
97.188547
78.917192
64.269082
52.352392
42.502941
34.249676
27.289714
21.459786
16.690173
12.939157
10.132361
8.1279698
6.7531222
5.8384181
5.2449737
4.8698757
4.6466201
4.5258012
4.4701965
4.4517043
4.4595387
4.4843515
4.5159774
4.5475719
4.5763732
4.5984944
4.6189342
4.6533335
4.737261
4.9496564
5.4281767
6.1023217
5.926646
5.2172369
3.0470665
1.3302528
0.68527185
0.43991122
0.32910688
0.27204961
0.21887019
4529085.9
731771.14
224662.03
95305.447
48496.68
27623.633
16965.535
10989.596
7403.9492
5140.088
3653.3364
2646.039
1946.2406
1450.0045
1092.1091
830.32093
636.55318
491.6951
382.48362
299.55317
236.18832
187.50732
149.91558
120.73376
97.941425
79.995832
65.713122
54.184005
44.713195
36.783763
30.035512
24.249063
19.32351
15.23556
11.980635
9.519114
7.7464882
6.5196134
5.6972488
5.1605899
4.819991
4.6216138
4.518415
4.4763372
4.4690505
4.4814749
4.5005714
4.5264705
4.5536405
4.5818822
4.6377273
4.7664303
5.0457014
5.654254
6.5878682
6.4243914
5.7626747
3.6880595
1.589558
0.79042704
0.48665555
0.36483588
0.29388397
0.24711658
0.1966409
4529139.6
731779.95
224664.69
95306.511
48497.147
27623.818
16965.557
10989.51
7403.7826
5139.855
3653.0445
2645.693
1945.8437
1449.5595
1091.6195
829.79166
635.9911
491.11001
381.88894
298.96684
235.63335
187.01205
149.51457
120.46948
97.866319
80.178335
66.22989
55.103636
46.074354
38.587967
32.237221
26.742356
21.941873
17.775974
14.252294
11.39544
9.1946174
7.5846361
6.4547182
5.6882934
5.1834555
4.8607854
4.6736139
4.5767664
4.5463158
4.5518427
4.5659819
4.5914437
4.6309667
4.7007435
4.8634742
5.2484841
6.0760181
7.2372188
7.0586127
6.3696685
4.2448809
1.8401945
0.9009697
0.53951555
0.39213816
0.31635553
0.25500415
0.21751972
0.17916391
4529196.7
731789.15
224667.46
95307.601
48497.611
27623.978
16965.54
10989.373
7403.552
5139.5441
3652.6598
2645.2371
1945.3177
1448.9636
1090.9542
829.05801
635.19179
490.24996
380.97625
298.01374
234.65725
186.03656
148.57045
119.59512
97.107209
79.583842
65.855213
55.015152
46.363276
39.34148
33.500283
28.482693
24.067462
20.131989
16.641011
13.619608
11.110247
9.1302412
7.6456609
6.5834853
5.851654
5.3647411
5.0514457
4.8751556
4.7961025
4.7884881
4.8031513
4.8381845
4.9192663
5.1176115
5.6300539
6.8210625
8.0700753
7.8431733
7.0226071
4.6802803
2.0602203
1.0065493
0.59197141
0.42093901
0.33720057
0.27912165
0.2343409
0.20061836
0.16375446
4529258.1
731798.86
224670.35
95308.736
48498.088
27624.138
16965.515
10989.221
7403.2988
5139.2034
3652.2372
2644.7344
1944.734
1448.2972
1090.2027
828.21933
634.26451
489.2341
379.87405
296.83054
233.40267
184.72573
147.22536
118.24588
95.793032
78.353251
64.765381
54.129015
45.738939
39.038348
33.591672
29.070121
25.195544
21.741657
18.600201
15.748509
13.217639
11.05842
9.3050286
7.954259
6.9644144
6.2730395
5.8152051
5.5364881
5.3973975
5.3592589
5.3784777
5.4584098
5.7037656
6.3541608
7.9676741
9.0628354
8.7596483
7.7191065
5.0122517
2.2404378
1.1052926
0.64409658
0.44998239
0.3589654
0.29668071
0.24908448
0.20752286
0.18138775
0.15310763
4529319.5
731808.73
224673.31
95309.914
48498.593
27624.318
16965.506
10989.082
7403.0588
5138.875
3651.8258
2644.2409
1944.1568
1447.633
1089.4473
827.36814
633.31289
488.17797
378.71044
295.55841
232.02385
183.24616
145.65656
116.6067
94.111505
76.668635
63.130313
52.612473
44.410539
37.960789
32.814948
28.622389
25.126163
22.148769
19.524713
17.13248
14.913853
12.898407
11.135888
9.6684658
8.5120545
7.6532766
7.0590315
6.6868031
6.4592414
6.3829531
6.4485136
6.7310826
7.5704103
9.5330665
10.183612
9.7764393
8.4387738
5.2114374
2.3838742
1.1908247
0.69721251
0.48062603
0.37982566
0.3104804
0.26019619
0.222979
0.19144266
0.16653977
0.14038952
4529381.2
731818.79
224676.37
95311.139
48499.13
27624.526
16965.524
10988.971
7402.8483
5138.5783
3651.4483
2643.7834
1943.6173
1447.0076
1088.7308
826.55439
632.3953
487.14977
377.56509
294.29014
230.62837
181.72157
144.00462
114.83433
92.232664
74.706404
61.11895
50.592739
42.442968
36.130298
31.218111
27.346806
24.211692
21.586666
19.313716
17.328751
15.564549
13.964303
12.490297
11.182083
10.082345
9.2151809
8.5770615
8.1196812
7.8328586
7.8651252
8.2043531
9.2353962
11.182655
11.365921
10.83341
9.1399102
5.2928808
2.482136
1.2673845
0.74871157
0.51442777
0.40138195
0.32654458
0.27407156
0.23508905
0.2015199
0.17355679
0.1553539
0.13393365
4529447.3
731829.44
224679.58
95312.425
48499.704
27624.761
16965.565
10988.882
7402.66
5138.3049
3651.0959
2643.3532
1943.1075
1446.4145
1088.049
825.77746
631.51572
486.15924
376.45483
293.05122
229.25225
180.20087
142.334
113.01155
90.259659
72.59013
58.87131
48.233869
40.008007
33.672931
28.819082
25.111629
22.265939
20.038805
18.223326
16.637231
15.217312
13.933683
12.824929
11.854866
11.01972
10.321672
9.7646457
9.3534647
9.3889637
9.8762678
11.336248
12.869552
12.622708
11.869088
9.7716399
5.2698761
2.5484612
1.3357314
0.8006801
0.55030299
0.42666295
0.3438457
0.28842591
0.24463655
0.21014204
0.18386514
0.16086983
0.14264963
0.12436903
4529517.1
731840.55
224682.92
95313.767
48500.301
27625.004
16965.605
10988.788
7402.4622
5138.0191
3650.7285
2642.9055
1942.5777
1445.7984
1087.3413
824.97141
630.60385
485.13348
375.30685
291.77276
227.83541
178.63837
140.61962
111.14082
88.230618
70.404388
56.535594
45.764503
37.43183
31.026083
26.141749
22.452843
19.691214
17.632828
16.095003
14.917431
13.958618
13.121486
12.339903
11.649161
11.088807
10.676006
10.472406
10.712032
11.583756
13.613968
14.428336
14.062931
12.880574
10.072249
5.2085307
2.6044122
1.4038316
0.85527497
0.59047325
0.45551877
0.36469447
0.30242062
0.25514793
0.21962045
0.19304109
0.16868615
0.14930423
0.13587841
0.11989657
4529588.1
731851.95
224686.38
95315.165
48500.921
27625.253
16965.641
10988.681
7402.2464
5137.7104
3650.3338
2642.4266
1942.0132
1445.1448
1086.5938
824.12446
629.65156
484.0697
374.1252
290.46667
226.39819
177.06354
138.90153
109.27536
86.216599
68.244967
54.239711
43.347845
34.914345
28.432548
23.50404
19.810122
17.08966
15.123732
13.727052
12.742175
12.039102
11.524423
11.151939
10.918725
10.930689
11.278879
11.980274
13.677946
15.676951
15.884025
15.345292
13.743307
10.176982
5.2119173
2.677948
1.477879
0.9161842
0.63615606
0.48934588
0.38706904
0.3180436
0.26616126
0.2302531
0.20082691
0.17631396
0.15722186
0.14024484
0.12668734
0.11345284
4529661.3
731863.79
224689.97
95316.615
48501.567
27625.516
16965.682
10988.575
7402.0303
5137.4014
3649.9401
2641.9513
1941.4564
1444.5049
1085.8678
823.3087
628.74164
483.06089
373.01269
289.24587
225.06513
175.61523
137.33622
107.59293
84.418962
66.336572
52.227879
41.244144
32.73569
26.200901
21.248474
17.565568
14.896256
13.025792
11.772608
10.990661
10.569843
10.457762
10.640139
11.184126
12.183538
13.762798
15.906345
17.493745
17.270373
16.500136
14.391758
10.151767
5.2971057
2.781127
1.5634507
0.98258669
0.68994995
0.52710102
0.41236893
0.33538048
0.28045692
0.2412164
0.20963526
0.18364429
0.16420912
0.14602511
0.13204309
0.12204607
0.11019908
4529737.4
731876.07
224693.73
95318.142
48502.274
27625.837
16965.787
10988.543
7401.8983
5137.1899
3649.6594
2641.6064
1941.0494
1444.0361
1085.3363
822.71303
628.07988
482.3311
372.21312
288.37524
224.1228
174.6013
136.25144
106.43855
83.196628
65.048921
50.880116
39.842574
31.298714
24.751836
19.816607
16.18513
13.61022
11.888865
10.871016
10.430217
10.459859
11.005666
12.057346
13.724525
15.735584
17.880885
19.104848
18.747882
17.60482
14.851758
10.18804
5.5040889
2.9290085
1.6651927
1.0568827
0.74904946
0.56813852
0.43977294
0.35644881
0.29658061
0.2536874
0.21817679
0.19193262
0.17060188
0.15258547
0.13825232
0.12626087
0.11558402
0.10632127
4529816
731888.78
224697.64
95319.792
48503.102
27626.296
16966.054
10988.699
7401.9853
5137.2304
3649.6665
2641.588
1941.0103
1443.9794
1085.2639
822.62587
627.97854
482.21558
372.08296
288.22946
223.95989
174.41936
136.04851
106.21328
82.949092
64.7814
50.597839
39.555599
31.013729
24.488671
19.605898
16.065065
13.625085
12.118061
11.42549
11.398566
12.063156
13.413754
15.368816
17.649392
19.71816
20.657129
20.153959
18.701441
15.349459
10.410635
5.8107038
3.1407393
1.7879431
1.1423443
0.81582295
0.61426494
0.47361336
0.38245879
0.31656211
0.26728959
0.22916204
0.20092326
0.17860889
0.1590455
0.144266
0.1304962
0.11982564
0.11246238
0.10380582
4529897.8
731902.06
224701.72
95321.569
48504.052
27626.891
16966.48
10989.042
7402.2888
5137.5204
3649.959
2641.8936
1941.3367
1444.332
1085.647
823.04282
628.43188
482.70714
372.61389
288.80019
224.57016
175.06817
136.73418
106.93353
83.701238
65.562767
51.40714
40.394586
31.889704
25.410667
20.590226
17.159197
14.917373
13.719504
13.433907
13.953406
15.256258
17.265877
19.665056
21.688015
22.300178
21.614786
19.825957
15.896296
10.762386
6.1554571
3.3416255
1.9200016
1.238143
0.89094917
0.66717
0.51309702
0.41261981
0.33801961
0.28311559
0.24138368
0.21164293
0.18620816
0.16605281
0.14953208
0.13579818
0.12497225
0.11613006
0.10812017
0.10122436
4529983.7
731915.88
224705.99
95323.444
48505.08
27627.561
16966.989
10989.478
7402.6995
5137.9336
3650.3925
2642.36
1941.8455
1444.8908
1086.2622
823.72006
629.17605
483.52262
373.50455
289.76943
225.62086
176.20272
137.95452
108.24133
85.09816
67.051212
52.990909
42.080685
33.69143
27.351852
22.711626
19.512905
17.568473
16.743203
16.907638
17.864419
19.691511
22.024792
24.062147
24.146128
23.235279
20.990091
16.604841
11.281747
6.5753245
3.578328
2.0727871
1.3509213
0.977596
0.72971561
0.55965769
0.4473647
0.36381407
0.30275303
0.2575403
0.22351092
0.19563672
0.17345663
0.15650478
0.14159255
0.13023412
0.1194417
0.11161115
0.10548501
0.099450596
4530071.7
731930.1
224710.4
95325.37
48506.126
27628.234
16967.49
10989.899
7403.0902
5138.3225
3650.7985
2642.7964
1942.3226
1445.4174
1086.8461
824.36836
629.89582
484.32091
374.38852
290.74647
226.69875
177.38974
139.2597
109.67474
86.671737
68.778812
54.889568
44.172181
36.003332
29.919499
25.580353
22.739438
21.218372
20.880469
21.422112
22.790527
24.782308
26.507794
26.212183
24.994522
22.199547
17.432781
11.884588
7.0072042
3.8229162
2.246291
1.4813008
1.0759274
0.80041948
0.61358305
0.48717645
0.39421078
0.32675282
0.2758804
0.23713132
0.20570265
0.18266371
0.16342435
0.14797744
0.13459257
0.12395128
0.11564648
0.1085859
0.10311248
0.097945573
4530163.2
731944.94
224714.96
95327.335
48507.166
27628.873
16967.937
10990.25
7403.3953
5138.6112
3651.0899
2643.1043
1942.6577
1445.789
1087.263
824.83935
630.43002
484.92818
375.07974
291.53385
227.59608
178.41282
140.42673
111.00688
88.193451
70.519071
56.882272
46.456796
38.625477
32.931003
29.037067
26.693995
25.704577
25.837884
26.647856
27.875636
29.112712
28.525513
26.875302
23.496408
18.360158
12.555442
7.4647683
4.1204714
2.450366
1.6356909
1.1871656
0.88158114
0.676272
0.53535008
0.43055585
0.35558985
0.29780512
0.25339127
0.21897644
0.19317656
0.1720481
0.15437059
0.14056461
0.1290199
0.11996602
0.11180626
0.10578747
0.10062595
0.096337549
4530257.7
731960.21
224719.66
95329.351
48508.217
27629.503
16968.36
10990.565
7403.6546
5138.8455
3651.3191
2643.3425
1942.9165
1446.0785
1087.5932
825.22048
630.87339
485.44645
375.68746
292.24791
228.43626
179.40233
141.59285
112.3816
89.814022
72.42851
59.129564
49.096317
41.715171
36.525685
33.175353
31.375683
30.862189
31.17425
32.082683
31.971523
30.974947
28.798495
24.866766
19.329923
13.24088
7.9425471
4.4658095
2.6991419
1.8146718
1.3098541
0.97227774
0.74978159
0.5917775
0.47392208
0.38837564
0.32369103
0.27331676
0.23482671
0.20553566
0.18112761
0.16232152
0.1468325
0.13479563
0.1239045
0.11570231
0.10877687
0.10342741
0.099406589
0.095410595
4530355.2
731975.99
224724.53
95331.45
48509.326
27630.177
16968.823
10990.921
7403.9589
5139.1302
3651.6056
2643.6465
1943.2509
1446.4551
1088.0236
825.71721
631.45016
486.11894
376.47391
293.16976
229.51894
180.67602
143.09339
114.15118
91.901842
74.885799
61.999533
52.435944
45.569756
40.913318
38.060786
36.62415
36.224627
36.023414
35.108738
33.341284
30.671187
26.188285
20.254742
13.906723
8.4666881
4.8843811
2.9993123
2.0123788
1.4414543
1.0755962
0.83539941
0.65833682
0.52392793
0.42744772
0.35391329
0.29825371
0.25403672
0.22004403
0.19255483
0.1715399
0.15473853
0.14045559
0.12916737
0.11980635
0.11241132
0.10630268
0.1014672
0.097556915
0.094151592
4530457.6
731992.51
224729.63
95333.671
48510.523
27630.934
16969.372
10991.373
7404.3715
5139.5389
3652.034
2644.1126
1943.7699
1447.0413
1088.6914
826.48203
632.32921
487.13189
377.64367
294.52336
231.08851
182.49998
145.21584
116.6198
94.76147
78.172664
65.746453
56.661238
50.266
46.011088
43.422071
41.860213
40.414038
38.422745
35.971328
32.576873
27.504984
21.190253
14.645925
9.1107393
5.4011494
3.3437956
2.222543
1.585952
1.1970618
0.93560372
0.73465035
0.58323013
0.47364318
0.39099399
0.32714143
0.27745775
0.23735414
0.20651158
0.18277549
0.1633085
0.14757815
0.13483667
0.12494706
0.11610271
0.10971125
0.10397528
0.099742404
0.096685845
0.093579027
4530563.2
732009.63
224734.96
95336.015
48511.812
27631.782
16970.021
10991.936
7404.9118
5140.0943
3652.6307
2644.7713
1944.5086
1447.8774
1089.6424
827.56717
633.56969
488.55198
379.27117
296.39001
233.22983
184.95388
148.02241
119.81974
98.394043
82.270798
70.309399
61.623683
55.491903
51.224287
48.052816
45.151096
42.117627
38.880487
34.621808
28.919194
22.236222
15.519137
9.869458
5.9776518
3.7056106
2.4454898
1.7537511
1.3401972
1.0488993
0.82066719
0.65206106
0.52895642
0.43362643
0.36127213
0.30407711
0.25951403
0.22343633
0.1962181
0.17359376
0.15579404
0.14188825
0.13006608
0.12081006
0.11306392
0.10693663
0.10218928
0.09833935
0.095253061
0.092508217
4530672.5
732027.35
224740.49
95338.475
48513.197
27632.722
16970.77
10992.613
7405.5813
5140.7977
3653.3971
2645.6241
1945.4684
1448.9643
1090.8772
828.97152
635.16733
490.36851
381.33432
298.72922
235.8752
187.93436
151.36139
123.52888
102.46528
86.66892
74.96059
66.328143
59.89888
54.815704
50.415145
46.337781
42.118683
36.880388
30.50726
23.445293
16.535854
10.72944
6.6182305
4.1206645
2.7234813
1.9665652
1.5072
1.1742385
0.91940911
0.73403876
0.59465649
0.48488828
0.40129009
0.33711844
0.28567473
0.24509009
0.21181213
0.18627917
0.16599832
0.14996213
0.1366145
0.12596523
0.11759271
0.1103301
0.10530537
0.10041522
0.097055748
0.094623464
0.092035316
4530784.7
732045.67
224746.22
95341.06
48514.682
27633.759
16971.619
10993.401
7406.3766
5141.6436
3654.3248
2646.6586
1946.6322
1450.2791
1092.3649
830.6549
637.07023
492.51564
383.75026
301.43662
238.8916
191.26703
154.99962
127.43296
106.55186
90.79217
78.905649
69.826355
62.626466
56.602561
51.179269
45.667588
39.395552
32.333111
24.875288
17.741318
11.736174
7.3764749
4.6326694
3.067361
2.2077222
1.6803957
1.3071912
1.0332643
0.83068983
0.67066143
0.54456408
0.4491362
0.37504818
0.31694809
0.26948339
0.2320481
0.20134895
0.1786421
0.1594288
0.14415517
0.13223852
0.12229306
0.1145601
0.10803644
0.10294941
0.099238863
0.096086256
0.093733379
0.091479309
4530901
732061.23
224749.32
95341.545
48514.622
27633.642
16971.594
10993.519
7406.6597
5142.103
3654.9695
2647.4979
1947.6769
1451.5413
1093.8587
832.3956
639.07362
494.79656
386.32032
304.30063
242.04243
194.67863
158.61803
131.16607
110.25934
94.278439
81.919247
72.111444
63.992441
56.836084
49.793859
42.385767
34.56654
26.647675
19.22042
12.949865
8.2893026
5.2526548
3.4693011
2.4737985
1.8741865
1.4688384
1.1746226
0.9457717
0.75962598
0.61557895
0.50698356
0.42108343
0.35339362
0.29999407
0.25615838
0.22156466
0.19299691
0.17131996
0.15345039
0.13978137
0.12830115
0.11928138
0.11201068
0.10601125
0.10189985
0.09786637
0.0951098
0.093018341
0.090961132
4531685.4
732195.31
224794.46
95362.942
48526.774
27641.438
16977.071
10997.662
7409.9985
5144.9503
3657.5223
2649.8889
1950.0002
1453.8672
1096.2411
834.87708
641.68653
497.5632
389.25092
307.38972
245.26347
197.97731
161.90511
134.31159
113.09143
96.590649
83.495012
72.746153
63.357534
54.513224
45.785497
37.069715
28.579026
20.777707
14.203177
9.2350403
5.9079491
3.9004432
2.7656952
2.095684
1.6537979
1.3271728
1.0654943
0.85604039
0.69673346
0.57328187
0.47385912
0.3955732
0.33408986
0.28489642
0.24386724
0.21148641
0.18462697
0.16515654
0.14835777
0.13517886
0.12479254
0.11625317
0.10973221
0.10421468
0.10001365
0.096686908
0.094442393
0.092464495
0.090710047
4531684.6
732191.65
224791.51
95360.8
48525.341
27640.519
16976.54
10997.441
7410.0442
5145.2357
3658.0332
2650.6185
1950.9469
1455.032
1097.6261
836.48234
643.50794
499.58847
391.45504
309.72933
247.6707
200.35379
164.1182
136.19484
114.45682
97.235394
83.142636
71.031653
60.099803
49.84442
40.069625
30.877754
22.603367
15.663383
10.356772
6.710587
4.4419265
3.1306154
2.3592928
1.8585766
1.4909414
1.2014432
0.97429237
0.79678175
0.65254147
0.53637771
0.44646152
0.37512275
0.3179787
0.27180465
0.23329637
0.20311424
0.17802775
0.1593253
0.14336483
0.13154647
0.12153008
0.11390737
0.10750159
0.10259973
0.099180954
0.095982601
0.093582017
0.091729758
0.090431093
4531684.8
732191.79
224791.66
95361.012
48525.616
27640.863
16976.96
10997.945
7410.6387
5145.9295
3658.8345
2651.5351
1951.9856
1456.1976
1098.9195
837.89913
645.0349
501.20033
393.11014
311.36518
249.20001
201.66317
165.07338
136.62784
114.14378
95.900115
80.589254
67.244709
55.221784
44.191992
34.120425
25.198386
17.720339
11.915044
7.8050183
5.1544461
3.5820694
2.6638002
2.0895936
1.6835263
1.3690662
1.1174331
0.91177444
0.74309604
0.61032548
0.50726575
0.42433311
0.35739168
0.3040465
0.26075675
0.22424269
0.195635
0.17159654
0.15451508
0.13950916
0.12808631
0.11891498
0.1114912
0.10595489
0.1013389
0.097734109
0.094905913
0.093079649
0.091457056
0.090154457
4531684.9
732191.91
224791.77
95361.146
48525.79
27641.081
16977.227
10998.267
7411.0207
5146.3764
3659.351
2652.1248
1952.65
1456.935
1099.723
838.75441
645.91752
502.07249
393.91787
312.03547
249.63497
201.73346
164.60353
135.4266
112.04967
92.831267
76.550514
62.358308
49.747077
38.513976
28.694483
20.45506
13.95943
9.2329597
6.0854526
4.1702292
3.0560233
2.3825034
1.9223854
1.5685275
1.2809756
1.0446902
0.85427585
0.70400517
0.58292464
0.48430411
0.40606432
0.34341098
0.29292479
0.25155669
0.21666208
0.18957682
0.16682706
0.15031323
0.13582036
0.12533738
0.11646209
0.10985471
0.10420153
0.09997541
0.097161742
0.094464287
0.092618898
0.090989571
0.089957161
4531686.1
732192.05
224791.82
95361.197
48525.854
27641.165
16977.331
10998.395
7411.175
5146.5591
3659.563
2652.3655
1952.9159
1457.2181
1100.0097
839.0222
646.13268
502.1862
393.86143
311.71588
248.93878
200.53423
162.78274
132.88442
108.72599
88.732775
71.777193
57.118415
44.348963
33.326884
24.081336
16.693096
11.177094
7.380679
4.9904186
3.5780826
2.7404116
2.1944158
1.790927
1.468956
1.2059885
0.99157322
0.81605962
0.67150648
0.55540337
0.46416459
0.39076715
0.33091801
0.28286518
0.24356276
0.21009896
0.1841563
0.16202994
0.14668452
0.13295951
0.12286263
0.11458706