/*--------------------------------*- C++ -*----------------------------------*\
  =========                 |
  \\      /  F ield         | OpenFOAM: The Open Source CFD Toolbox
   \\    /   O peration     | Website:  https://openfoam.org
    \\  /    A nd           | Version:  13
     \\/     M anipulation  |
\*---------------------------------------------------------------------------*/
FoamFile
{
    format      ascii;
    class       volScalarField;
    location    "17.29989";
    object      pPrime2Mean;
}
// * * * * * * * * * * * * * * * * * * * * * * * * * * * * * * * * * * * * * //

dimensions      [0 4 -4 0 0 0 0];

internalField   nonuniform List<scalar> 
17140
(
17997.523
17997.523
17997.524
17997.524
17997.523
17997.521
17997.519
17997.516
17997.511
17997.503
17997.495
17997.483
17997.468
17997.449
17997.425
17997.394
17997.356
17997.307
17997.246
17997.169
17997.073
17996.952
17996.799
17996.608
17996.366
17996.063
17995.679
17995.195
17994.584
17993.813
17992.842
17991.622
17990.094
17988.185
17985.808
17982.859
17979.215
17974.732
17969.239
17962.545
17954.426
17944.631
17932.873
17918.834
17902.156
17882.442
17859.257
17832.126
17800.527
17763.899
17721.628
17673.053
17617.46
17554.081
17482.088
17400.593
17308.636
17205.184
17089.119
16959.241
16814.247
16652.746
16473.188
16273.908
16053.074
17997.969
17997.969
17997.97
17997.97
17997.969
17997.967
17997.965
17997.961
17997.956
17997.949
17997.94
17997.929
17997.913
17997.895
17997.87
17997.839
17997.801
17997.752
17997.691
17997.614
17997.518
17997.396
17997.244
17997.053
17996.812
17996.509
17996.126
17995.644
17995.034
17994.264
17993.296
17992.078
17990.552
17988.646
17986.272
17983.325
17979.684
17975.202
17969.713
17963.022
17954.907
17945.115
17933.364
17919.331
17902.661
17882.958
17859.784
17832.666
17801.082
17764.471
17722.22
17673.668
17618.101
17554.751
17482.792
17401.335
17309.42
17206.017
17090.004
16960.187
16815.259
16653.833
16474.357
16275.171
16054.429
17999.073
17999.073
17999.073
17999.073
17999.072
17999.071
17999.068
17999.064
17999.059
17999.053
17999.043
17999.032
17999.017
17998.998
17998.974
17998.943
17998.905
17998.856
17998.795
17998.719
17998.623
17998.502
17998.351
17998.161
17997.922
17997.62
17997.239
17996.759
17996.152
17995.387
17994.422
17993.209
17991.688
17989.786
17987.416
17984.475
17980.838
17976.361
17970.878
17964.194
17956.089
17946.309
17934.571
17920.555
17903.906
17884.226
17861.082
17833.996
17802.45
17765.881
17723.678
17675.182
17619.68
17556.403
17484.527
17403.163
17311.355
17208.07
17092.189
16962.518
16817.753
16656.506
16477.229
16278.268
16057.753
18000.869
18000.87
18000.87
18000.87
18000.869
18000.867
18000.865
18000.861
18000.856
18000.849
18000.84
18000.829
18000.814
18000.795
18000.771
18000.741
18000.702
18000.655
18000.594
18000.518
18000.424
18000.304
18000.154
17999.966
17999.729
17999.429
17999.052
17998.575
17997.973
17997.213
17996.254
17995.047
17993.532
17991.637
17989.274
17986.34
17982.71
17978.242
17972.768
17966.097
17958.006
17948.245
17936.529
17922.541
17905.924
17886.284
17863.186
17836.153
17804.668
17768.168
17726.044
17677.638
17622.24
17559.083
17487.343
17406.133
17314.496
17211.405
17095.74
16966.307
16821.805
16660.848
16481.895
16283.299
16063.148
18003.394
18003.395
18003.395
18003.395
18003.394
18003.392
18003.389
18003.386
18003.38
18003.374
18003.365
18003.353
18003.338
18003.319
18003.296
18003.266
18003.228
18003.18
18003.121
18003.046
18002.952
18002.834
18002.686
18002.5
18002.265
18001.969
18001.595
18001.124
18000.527
17999.773
17998.821
17997.622
17996.116
17994.229
17991.875
17988.949
17985.33
17980.874
17975.415
17968.761
17960.692
17950.957
17939.273
17925.324
17908.752
17889.166
17866.132
17839.174
17807.773
17771.369
17729.357
17681.08
17625.828
17562.839
17491.288
17410.293
17318.899
17216.079
17100.717
16971.62
16827.488
16666.94
16488.441
16290.36
16070.723
18006.677
18006.677
18006.677
18006.676
18006.675
18006.674
18006.671
18006.667
18006.662
18006.655
18006.646
18006.635
18006.62
18006.601
18006.578
18006.548
18006.511
18006.464
18006.405
18006.331
18006.239
18006.122
18005.976
18005.792
18005.56
18005.268
18004.899
18004.433
18003.843
18003.097
18002.154
18000.964
17999.468
17997.592
17995.249
17992.335
17988.73
17984.29
17978.85
17972.22
17964.179
17954.478
17942.836
17928.936
17912.424
17892.91
17869.957
17843.095
17811.803
17775.526
17733.658
17685.548
17630.488
17567.716
17496.414
17415.699
17324.62
17222.153
17107.184
16978.524
16834.875
16674.862
16496.959
16299.55
16080.585
18010.747
18010.747
18010.747
18010.747
18010.746
18010.744
18010.741
18010.737
18010.732
18010.725
18010.716
18010.704
18010.689
18010.671
18010.648
18010.618
18010.582
18010.535
18010.477
18010.404
18010.313
18010.199
18010.055
18009.874
18009.646
18009.358
18008.995
18008.535
18007.953
18007.216
18006.282
18005.104
18003.619
18001.756
17999.427
17996.529
17992.942
17988.522
17983.107
17976.506
17968.5
17958.842
17947.251
17933.414
17916.976
17897.548
17874.699
17847.953
17816.798
17780.677
17738.99
17691.087
17636.265
17573.765
17502.769
17422.401
17331.714
17229.685
17115.205
16987.088
16844.042
16684.696
16507.537
16310.968
16092.845
18015.64
18015.64
18015.639
18015.639
18015.637
18015.635
18015.632
18015.628
18015.623
18015.616
18015.607
18015.595
18015.581
18015.562
18015.54
18015.511
18015.474
18015.429
18015.372
18015.301
18015.211
18015.099
18014.958
18014.78
18014.557
18014.274
18013.917
18013.464
18012.891
18012.164
18011.242
18010.076
18008.605
18006.756
18004.443
18001.564
17997.998
17993.603
17988.217
17981.652
17973.689
17964.083
17952.554
17938.791
17922.442
17903.118
17880.391
17853.787
17822.796
17786.865
17745.396
17697.743
17643.207
17581.033
17510.407
17430.457
17340.24
17238.738
17124.846
16997.385
16855.067
16696.529
16520.269
16324.715
16107.617
18021.393
18021.393
18021.393
18021.392
18021.391
18021.388
18021.385
18021.381
18021.376
18021.369
18021.36
18021.348
18021.334
18021.316
18021.293
18021.265
18021.229
18021.184
18021.129
18021.058
18020.971
18020.861
18020.723
18020.55
18020.331
18020.054
18019.703
18019.259
18018.695
18017.978
18017.068
18015.915
18014.458
18012.626
18010.332
18007.474
18003.932
17999.567
17994.217
17987.693
17979.78
17970.234
17958.779
17945.102
17928.857
17909.656
17887.071
17860.635
17829.838
17794.129
17752.918
17705.561
17651.363
17589.573
17519.382
17439.924
17350.259
17249.376
17136.178
17009.487
16868.026
16710.442
16535.247
16340.896
16125.016
18028.051
18028.051
18028.051
18028.05
18028.048
18028.046
18028.043
18028.038
18028.033
18028.026
18028.017
18028.005
18027.991
18027.973
18027.951
18027.923
18027.888
18027.845
18027.79
18027.722
18027.636
18027.529
18027.394
18027.225
18027.01
18026.739
18026.395
18025.959
18025.403
18024.697
18023.798
18022.659
18021.218
18019.403
18017.129
18014.294
18010.781
18006.449
18001.138
17994.663
17986.807
17977.331
17965.959
17952.383
17936.257
17917.197
17894.777
17868.534
17837.961
17802.513
17761.6
17714.586
17660.779
17599.433
17529.746
17450.856
17361.83
17261.664
17149.265
17023.468
16883.003
16726.531
16552.575
16359.622
16145.16
18035.658
18035.658
18035.657
18035.656
18035.654
18035.652
18035.649
18035.644
18035.639
18035.631
18035.622
18035.611
18035.597
18035.58
18035.557
18035.53
18035.496
18035.453
18035.4
18035.333
18035.25
18035.145
18035.014
18034.847
18034.638
18034.371
18034.034
18033.604
18033.056
18032.359
18031.472
18030.346
18028.92
18027.123
18024.871
18022.062
18018.579
18014.285
18009.018
18002.596
17994.806
17985.408
17974.131
17960.669
17944.678
17925.777
17903.545
17877.521
17847.205
17812.054
17771.484
17724.863
17671.504
17610.666
17541.554
17463.313
17375.018
17275.67
17164.186
17039.412
16900.089
16744.891
16572.354
16381.001
16168.167
18044.255
18044.255
18044.254
18044.253
18044.251
18044.248
18044.245
18044.24
18044.235
18044.228
18044.218
18044.207
18044.194
18044.176
18044.154
18044.127
18044.094
18044.052
18044
18043.934
18043.852
18043.75
18043.62
18043.458
18043.251
18042.989
18042.657
18042.233
18041.692
18041.003
18040.126
18039.011
18037.601
18035.823
18033.593
18030.812
18027.362
18023.108
18017.891
18011.528
18003.81
17994.501
17983.331
17969.996
17954.156
17935.434
17913.413
17887.637
17857.61
17822.796
17782.615
17736.439
17683.587
17623.326
17554.866
17477.36
17389.89
17291.467
17181.018
17057.4
16919.371
16765.613
16594.684
16405.145
16194.158
18053.878
18053.877
18053.877
18053.875
18053.873
18053.871
18053.867
18053.862
18053.857
18053.85
18053.841
18053.829
18053.816
18053.798
18053.777
18053.75
18053.717
18053.676
18053.624
18053.56
18053.48
18053.378
18053.251
18053.09
18052.887
18052.628
18052.299
18051.88
18051.345
18050.663
18049.795
18048.693
18047.297
18045.538
18043.331
18040.579
18037.166
18032.955
18027.792
18021.495
18013.858
18004.647
17993.594
17980.4
17964.728
17946.205
17924.42
17898.921
17869.22
17834.784
17795.041
17749.365
17697.084
17637.468
17569.739
17493.056
17406.511
17309.125
17199.835
17077.516
16940.939
16788.802
16619.675
16432.167
16223.252
18064.558
18064.557
18064.556
18064.555
18064.553
18064.55
18064.547
18064.542
18064.536
18064.53
18064.521
18064.509
18064.495
18064.479
18064.457
18064.431
18064.398
18064.357
18064.306
18064.243
18064.163
18064.063
18063.937
18063.778
18063.576
18063.32
18062.994
18062.578
18062.048
18061.374
18060.514
18059.423
18058.043
18056.303
18054.121
18051.401
18048.026
18043.862
18038.757
18032.533
18024.985
18015.881
18004.959
17991.921
17976.435
17958.133
17936.609
17911.42
17882.082
17848.069
17808.811
17763.693
17712.046
17653.15
17586.235
17510.468
17424.952
17328.718
17220.721
17099.849
16964.89
16814.552
16647.429
16462.18
16255.572
18076.325
18076.325
18076.324
18076.322
18076.32
18076.318
18076.314
18076.31
18076.304
18076.297
18076.288
18076.277
18076.264
18076.246
18076.225
18076.199
18076.167
18076.126
18076.076
18076.013
18075.934
18075.835
18075.71
18075.551
18075.351
18075.097
18074.773
18074.361
18073.835
18073.167
18072.316
18071.237
18069.872
18068.154
18065.999
18063.311
18059.977
18055.866
18050.825
18044.68
18037.229
18028.244
18017.465
18004.598
17989.318
17971.26
17950.027
17925.181
17896.244
17862.698
17823.98
17779.479
17728.533
17670.433
17604.417
17529.662
17445.282
17350.324
17243.758
17124.489
16991.316
16842.967
16678.052
16495.296
16291.234
18089.215
18089.215
18089.214
18089.212
18089.21
18089.207
18089.204
18089.2
18089.194
18089.187
18089.178
18089.167
18089.154
18089.137
18089.116
18089.09
18089.058
18089.018
18088.968
18088.905
18088.827
18088.728
18088.603
18088.447
18088.247
18087.995
18087.673
18087.264
18086.743
18086.081
18085.24
18084.173
18082.826
18081.129
18079.002
18076.35
18073.061
18069.005
18064.034
18057.975
18050.63
18041.775
18031.153
18018.475
18003.421
17985.633
17964.721
17940.252
17911.759
17878.728
17840.602
17796.777
17746.603
17689.379
17624.35
17550.707
17467.577
17374.023
17269.032
17151.525
17020.314
16874.141
16711.648
16531.628
16330.358
18103.268
18103.268
18103.267
18103.266
18103.264
18103.261
18103.258
18103.253
18103.248
18103.241
18103.232
18103.221
18103.208
18103.191
18103.171
18103.145
18103.113
18103.073
18103.023
18102.961
18102.882
18102.784
18102.66
18102.504
18102.305
18102.054
18101.734
18101.328
18100.812
18100.156
18099.324
18098.271
18096.941
18095.267
18093.17
18090.554
18087.313
18083.319
18078.423
18072.458
18065.229
18056.515
18046.066
18033.596
18018.79
18001.3
17980.739
17956.686
17928.679
17896.21
17858.732
17815.648
17766.318
17710.049
17646.1
17573.673
17491.912
17399.895
17296.627
17181.043
17051.975
16908.174
16748.322
16571.287
16373.061
18118.531
18118.531
18118.53
18118.529
18118.526
18118.524
18118.521
18118.516
18118.511
18118.504
18118.495
18118.485
18118.471
18118.455
18118.434
18118.408
18118.376
18118.336
18118.286
18118.224
18118.146
18118.047
18117.924
18117.768
18117.569
18117.319
18117.001
18116.598
18116.086
18115.436
18114.613
18113.573
18112.26
18110.61
18108.543
18105.968
18102.779
18098.848
18094.035
18088.172
18081.07
18072.51
18062.248
18050.005
18035.472
18018.306
17998.132
17974.532
17947.054
17915.198
17878.426
17836.149
17787.736
17732.508
17669.733
17598.631
17518.36
17428.02
17326.627
17213.134
17086.387
16945.163
16788.176
16614.382
16419.455
18135.049
18135.049
18135.048
18135.047
18135.045
18135.042
18135.039
18135.035
18135.03
18135.023
18135.014
18135.003
18134.99
18134.973
18134.952
18134.926
18134.894
18134.854
18134.804
18134.741
18134.662
18134.564
18134.44
18134.283
18134.085
18133.835
18133.519
18133.118
18132.61
18131.966
18131.152
18130.124
18128.828
18127.202
18125.167
18122.635
18119.499
18115.639
18110.914
18105.161
18098.195
18089.803
18079.745
18067.749
18053.513
18036.703
18016.948
17993.842
17966.938
17935.748
17899.74
17858.338
17810.92
17756.818
17695.317
17625.651
17546.999
17458.476
17359.113
17247.881
17123.642
16985.201
16831.311
16661.018
16469.652
18152.86
18152.859
18152.859
18152.858
18152.856
18152.854
18152.85
18152.846
18152.841
18152.834
18152.825
18152.814
18152.801
18152.784
18152.763
18152.737
18152.704
18152.664
18152.613
18152.549
18152.47
18152.371
18152.247
18152.089
18151.892
18151.643
18151.327
18150.929
18150.425
18149.787
18148.982
18147.967
18146.689
18145.087
18143.085
18140.597
18137.519
18133.733
18129.103
18123.469
18116.65
18108.44
18098.602
18086.875
18072.962
18056.537
18037.238
18014.665
17988.383
17957.912
17922.73
17882.273
17835.928
17783.041
17722.914
17654.802
17577.902
17491.339
17394.167
17285.365
17163.827
17028.382
16877.825
16711.301
16523.762
18171.991
18171.991
18171.99
18171.989
18171.987
18171.985
18171.982
18171.977
18171.972
18171.965
18171.956
18171.946
18171.932
18171.915
18171.894
18171.868
18171.835
18171.794
18171.743
18171.679
18171.599
18171.5
18171.375
18171.218
18171.021
18170.774
18170.46
18170.066
18169.567
18168.937
18168.143
18167.142
18165.884
18164.307
18162.342
18159.9
18156.884
18153.178
18148.649
18143.142
18136.481
18128.466
18118.868
18107.43
18093.867
18077.857
18059.05
18037.053
18011.441
17981.744
17947.45
17908.007
17862.813
17811.234
17752.591
17686.157
17611.14
17526.687
17431.86
17325.668
17207.027
17074.795
16927.814
16765.331
16581.889
18192.458
18192.458
18192.457
18192.456
18192.454
18192.452
18192.449
18192.445
18192.439
18192.433
18192.425
18192.413
18192.4
18192.384
18192.362
18192.336
18192.303
18192.263
18192.212
18192.149
18192.07
18191.971
18191.847
18191.692
18191.498
18191.253
18190.944
18190.555
18190.065
18189.445
18188.665
18187.682
18186.447
18184.903
18182.977
18180.588
18177.638
18174.018
18169.597
18164.227
18157.735
18149.929
18140.588
18129.463
18116.275
18100.713
18082.434
18061.056
18036.163
18007.293
17973.951
17935.59
17891.631
17841.458
17784.411
17719.78
17646.783
17564.586
17472.27
17368.87
17253.326
17124.531
16981.37
16823.207
16644.13
18214.273
18214.273
18214.272
18214.272
18214.27
18214.268
18214.265
18214.261
18214.256
18214.249
18214.241
18214.231
18214.218
18214.202
18214.181
18214.156
18214.124
18214.085
18214.035
18213.974
18213.897
18213.801
18213.681
18213.529
18213.34
18213.101
18212.8
18212.42
18211.941
18211.337
18210.574
18209.614
18208.41
18206.903
18205.024
18202.695
18199.822
18196.296
18191.992
18186.768
18180.459
18172.878
18163.813
18153.022
18140.237
18125.154
18107.44
18086.723
18062.596
18034.609
18002.276
17965.071
17922.437
17873.773
17818.44
17755.732
17684.895
17605.105
17515.469
17415.046
17302.807
17177.673
17038.583
16885.022
16710.58
18237.453
18237.453
18237.453
18237.452
18237.451
18237.448
18237.446
18237.442
18237.438
18237.431
18237.424
18237.414
18237.402
18237.387
18237.368
18237.344
18237.314
18237.277
18237.231
18237.172
18237.1
18237.008
18236.893
18236.748
18236.566
18236.336
18236.047
18235.68
18235.216
18234.631
18233.893
18232.963
18231.795
18230.334
18228.512
18226.252
18223.465
18220.045
18215.872
18210.808
18204.696
18197.357
18188.587
18178.154
18165.797
18151.226
18134.113
18114.098
18090.778
18063.726
18032.467
17996.5
17955.281
17908.237
17854.727
17794.076
17725.536
17648.308
17561.526
17464.273
17355.549
17234.305
17099.538
16950.868
16781.329
18262.027
18262.027
18262.027
18262.025
18262.024
18262.023
18262.021
18262.017
18262.013
18262.008
18262.001
18261.992
18261.981
18261.968
18261.951
18261.929
18261.902
18261.867
18261.825
18261.771
18261.704
18261.618
18261.511
18261.374
18261.202
18260.985
18260.708
18260.358
18259.914
18259.353
18258.643
18257.748
18256.623
18255.215
18253.459
18251.281
18248.592
18245.292
18241.265
18236.377
18230.48
18223.402
18214.948
18204.896
18192.997
18178.966
18162.485
18143.205
18120.743
18094.681
18064.57
18029.925
17990.221
17944.893
17893.329
17834.86
17768.762
17694.26
17610.509
17516.622
17411.628
17294.508
17164.317
17020.831
16856.459
18288.034
18288.034
18288.033
18288.032
18288.032
18288.03
18288.028
18288.025
18288.022
18288.017
18288.011
18288.004
18287.994
18287.982
18287.967
18287.947
18287.923
18287.892
18287.854
18287.805
18287.743
18287.665
18287.565
18287.439
18287.278
18287.073
18286.812
18286.48
18286.058
18285.523
18284.845
18283.99
18282.915
18281.567
18279.885
18277.798
18275.22
18272.053
18268.187
18263.494
18257.831
18251.035
18242.921
18233.276
18221.858
18208.394
18192.58
18174.078
18152.522
18127.516
18098.629
18065.388
18027.293
17983.789
17934.287
17878.135
17814.63
17743.019
17662.483
17572.163
17471.117
17358.357
17232.998
17094.995
16936.053
18315.517
18315.517
18315.517
18315.517
18315.516
18315.515
18315.513
18315.511
18315.508
18315.504
18315.499
18315.492
18315.483
18315.473
18315.459
18315.442
18315.42
18315.392
18315.357
18315.312
18315.256
18315.183
18315.091
18314.974
18314.823
18314.631
18314.386
18314.072
18313.673
18313.166
18312.523
18311.711
18310.688
18309.407
18307.806
18305.818
18303.361
18300.341
18296.651
18292.171
18286.762
18280.27
18272.518
18263.302
18252.392
18239.527
18224.417
18206.739
18186.148
18162.267
18134.673
18102.924
18066.53
18024.964
17977.646
17923.948
17863.191
17794.642
17717.509
17630.962
17534.088
17425.927
17305.657
17173.439
17020.194
18344.512
18344.512
18344.512
18344.512
18344.511
18344.51
18344.509
18344.507
18344.504
18344.5
18344.496
18344.489
18344.482
18344.472
18344.459
18344.443
18344.423
18344.397
18344.364
18344.323
18344.27
18344.202
18344.116
18344.005
18343.864
18343.683
18343.451
18343.156
18342.78
18342.301
18341.695
18340.928
18339.963
18338.752
18337.24
18335.359
18333.032
18330.169
18326.669
18322.415
18317.277
18311.109
18303.741
18294.981
18284.611
18272.381
18258.017
18241.214
18221.648
18198.952
18172.73
18142.559
18107.969
18068.449
18023.442
17972.342
17914.492
17849.184
17775.649
17693.086
17600.61
17497.29
17382.366
17256.238
17108.97
18375.034
18375.034
18375.034
18375.033
18375.033
18375.032
18375.03
18375.028
18375.025
18375.022
18375.017
18375.011
18375.003
18374.994
18374.982
18374.966
18374.946
18374.922
18374.89
18374.85
18374.8
18374.735
18374.653
18374.548
18374.414
18374.243
18374.025
18373.746
18373.393
18372.943
18372.375
18371.656
18370.751
18369.615
18368.195
18366.427
18364.237
18361.541
18358.24
18354.227
18349.378
18343.553
18336.594
18328.32
18318.522
18306.966
18293.393
18277.518
18259.033
18237.591
18212.823
18184.318
18151.632
18114.274
18071.71
18023.356
17968.578
17906.694
17836.958
17758.595
17670.749
17572.518
17463.202
17343.468
17202.473
18407.073
18407.073
18407.072
18407.072
18407.071
18407.07
18407.069
18407.067
18407.064
18407.06
18407.055
18407.05
18407.042
18407.032
18407.02
18407.004
18406.985
18406.961
18406.93
18406.891
18406.842
18406.779
18406.701
18406.601
18406.473
18406.311
18406.106
18405.845
18405.515
18405.096
18404.567
18403.898
18403.056
18401.999
18400.675
18399.026
18396.979
18394.457
18391.367
18387.607
18383.063
18377.604
18371.08
18363.32
18354.129
18343.286
18330.55
18315.658
18298.314
18278.2
18254.963
18228.217
18197.539
18162.463
18122.477
18077.022
18025.489
17967.219
17901.491
17827.553
17744.577
17651.684
17548.246
17435.227
17300.798
18440.609
18440.609
18440.608
18440.608
18440.607
18440.606
18440.604
18440.602
18440.6
18440.596
18440.591
18440.585
18440.577
18440.568
18440.556
18440.54
18440.521
18440.497
18440.467
18440.43
18440.382
18440.322
18440.247
18440.153
18440.033
18439.881
18439.69
18439.448
18439.143
18438.756
18438.268
18437.652
18436.877
18435.901
18434.678
18433.151
18431.254
18428.913
18426.044
18422.552
18418.331
18413.258
18407.194
18399.978
18391.428
18381.34
18369.491
18355.635
18339.496
18320.78
18299.157
18274.266
18245.704
18213.032
18175.765
18133.369
18085.258
18030.801
17969.298
17900.021
17822.164
17734.867
17637.59
17531.628
17404.058
18475.618
18475.618
18475.618
18475.617
18475.617
18475.615
18475.614
18475.612
18475.609
18475.605
18475.601
18475.595
18475.588
18475.578
18475.567
18475.552
18475.534
18475.511
18475.483
18475.448
18475.403
18475.348
18475.278
18475.19
18475.08
18474.941
18474.765
18474.545
18474.266
18473.915
18473.472
18472.912
18472.206
18471.315
18470.196
18468.796
18467.055
18464.904
18462.266
18459.055
18455.173
18450.507
18444.927
18438.285
18430.412
18421.122
18410.208
18397.44
18382.572
18365.329
18345.407
18322.466
18296.132
18265.992
18231.587
18192.413
18147.911
18097.474
18040.428
17976.062
17903.59
17822.159
17731.301
17632.691
17512.519
18512.079
18512.08
18512.079
18512.079
18512.078
18512.077
18512.075
18512.073
18512.071
18512.068
18512.064
18512.059
18512.052
18512.044
18512.033
18512.021
18512.004
18511.984
18511.959
18511.927
18511.888
18511.838
18511.776
18511.697
18511.599
18511.475
18511.319
18511.123
18510.875
18510.563
18510.166
18509.665
18509.03
18508.227
18507.216
18505.947
18504.367
18502.414
18500.019
18497.103
18493.577
18489.338
18484.268
18478.229
18471.069
18462.616
18452.682
18441.062
18427.53
18411.836
18393.701
18372.811
18348.819
18321.341
18289.949
18254.169
18213.469
18167.272
18114.924
18055.738
17988.941
17913.656
17829.42
17738.674
17626.256
18549.981
18549.981
18549.98
18549.98
18549.979
18549.979
18549.977
18549.976
18549.974
18549.971
18549.967
18549.963
18549.958
18549.951
18549.943
18549.932
18549.919
18549.902
18549.881
18549.854
18549.821
18549.779
18549.727
18549.66
18549.576
18549.47
18549.336
18549.167
18548.952
18548.679
18548.333
18547.892
18547.331
18546.617
18545.715
18544.582
18543.169
18541.423
18539.281
18536.674
18533.521
18529.73
18525.193
18519.786
18513.37
18505.795
18496.891
18486.477
18474.349
18460.281
18444.02
18425.283
18403.751
18379.069
18350.844
18318.635
18281.942
18240.216
18192.829
18139.114
18078.295
18009.414
17932.118
17849.694
17745.392
18589.307
18589.307
18589.307
18589.307
18589.306
18589.305
18589.304
18589.303
18589.302
18589.3
18589.297
18589.294
18589.29
18589.286
18589.279
18589.271
18589.261
18589.249
18589.233
18589.213
18589.187
18589.155
18589.113
18589.06
18588.993
18588.906
18588.795
18588.654
18588.474
18588.242
18587.945
18587.564
18587.075
18586.453
18585.663
18584.67
18583.431
18581.901
18580.024
18577.739
18574.975
18571.651
18567.669
18562.92
18557.284
18550.628
18542.804
18533.652
18522.995
18510.632
18496.336
18479.855
18460.901
18439.154
18414.255
18385.801
18353.33
18316.322
18274.179
18226.244
18171.725
18109.661
18039.512
17965.87
17870.301
18630.047
18630.047
18630.047
18630.046
18630.046
18630.046
18630.045
18630.045
18630.044
18630.042
18630.041
18630.039
18630.036
18630.033
18630.029
18630.024
18630.018
18630.01
18629.999
18629.986
18629.967
18629.944
18629.914
18629.874
18629.822
18629.755
18629.667
18629.552
18629.403
18629.211
18628.962
18628.64
18628.225
18627.694
18627.019
18626.172
18625.114
18623.808
18622.207
18620.257
18617.899
18615.058
18611.653
18607.591
18602.768
18597.071
18590.376
18582.546
18573.428
18562.847
18550.607
18536.484
18520.229
18501.558
18480.15
18455.644
18427.619
18395.594
18358.993
18317.171
18269.388
18214.528
18151.856
18087.415
18001.365
18672.171
18672.171
18672.171
18672.171
18672.171
18672.17
18672.17
18672.169
18672.169
18672.168
18672.168
18672.166
18672.166
18672.164
18672.162
18672.159
18672.156
18672.152
18672.145
18672.137
18672.126
18672.111
18672.09
18672.062
18672.024
18671.972
18671.905
18671.814
18671.695
18671.539
18671.336
18671.071
18670.729
18670.291
18669.736
18669.038
18668.168
18667.095
18665.778
18664.176
18662.235
18659.896
18657.091
18653.743
18649.766
18645.07
18639.553
18633.102
18625.59
18616.87
18606.776
18595.118
18581.684
18566.232
18548.483
18528.122
18504.776
18477.998
18447.272
18411.982
18371.371
18324.261
18269.623
18214.76
18138.893
18715.636
18715.636
18715.636
18715.635
18715.635
18715.635
18715.635
18715.635
18715.634
18715.634
18715.634
18715.633
18715.632
18715.632
18715.631
18715.63
18715.628
18715.626
18715.622
18715.618
18715.611
18715.601
18715.586
18715.566
18715.538
18715.5
18715.447
18715.377
18715.283
18715.161
18715
18714.793
18714.524
18714.181
18713.747
18713.202
18712.526
18711.691
18710.669
18709.424
18707.915
18706.095
18703.911
18701.303
18698.207
18694.553
18690.265
18685.251
18679.412
18672.63
18664.771
18655.684
18645.194
18633.104
18619.184
18603.161
18584.728
18563.502
18539.013
18510.687
18477.809
18439.156
18393.486
18348.572
18282.88
18760.361
18760.361
18760.361
18760.361
18760.361
18760.36
18760.36
18760.359
18760.359
18760.359
18760.358
18760.358
18760.358
18760.357
18760.357
18760.355
18760.354
18760.352
18760.35
18760.347
18760.342
18760.334
18760.323
18760.308
18760.286
18760.257
18760.217
18760.163
18760.093
18760.002
18759.884
18759.733
18759.539
18759.292
18758.981
18758.595
18758.116
18757.527
18756.806
18755.928
18754.863
18753.579
18752.037
18750.197
18748.016
18745.446
18742.434
18738.913
18734.811
18730.042
18724.506
18718.087
18710.661
18702.077
18692.157
18680.686
18667.414
18652.029
18634.159
18613.311
18588.837
18559.54
18524.168
18489.016
18434.273
18806.254
18806.254
18806.253
18806.253
18806.253
18806.252
18806.252
18806.251
18806.25
18806.25
18806.249
18806.248
18806.247
18806.246
18806.245
18806.243
18806.242
18806.239
18806.236
18806.232
18806.227
18806.22
18806.21
18806.197
18806.178
18806.155
18806.124
18806.085
18806.036
18805.975
18805.898
18805.804
18805.686
18805.538
18805.353
18805.126
18804.849
18804.509
18804.096
18803.596
18802.99
18802.257
18801.379
18800.335
18799.102
18797.656
18795.965
18793.991
18791.69
18789.008
18785.882
18782.24
18778.001
18773.069
18767.321
18760.605
18752.747
18743.513
18732.629
18719.751
18704.368
18685.541
18662.205
18638.314
18597.132
18855.267
18855.266
18855.266
18855.265
18855.264
18855.264
18855.263
18855.262
18855.26
18855.259
18855.257
18855.256
18855.254
18855.252
18855.249
18855.246
18855.243
18855.238
18855.233
18855.227
18855.219
18855.21
18855.199
18855.185
18855.168
18855.148
18855.125
18855.098
18855.069
18855.036
18855.001
18854.964
18854.922
18854.878
18854.83
18854.777
18854.719
18854.653
18854.579
18854.49
18854.383
18854.254
18854.104
18853.93
18853.733
18853.51
18853.257
18852.962
18852.612
18852.191
18851.679
18851.05
18850.276
18849.315
18848.11
18846.583
18844.634
18842.139
18838.933
18834.835
18829.563
18822.596
18813.939
18806.03
18790.899
18906.827
18906.826
18906.825
18906.824
18906.823
18906.822
18906.821
18906.82
18906.818
18906.816
18906.814
18906.812
18906.809
18906.806
18906.802
18906.798
18906.792
18906.786
18906.779
18906.77
18906.76
18906.749
18906.735
18906.721
18906.706
18906.69
18906.675
18906.663
18906.657
18906.657
18906.668
18906.694
18906.738
18906.806
18906.902
18907.036
18907.216
18907.446
18907.732
18908.082
18908.509
18909.026
18909.652
18910.408
18911.317
18912.399
18913.677
18915.169
18916.899
18918.89
18921.168
18923.759
18926.687
18929.972
18933.628
18937.658
18942.052
18946.8
18951.868
18957.252
18962.925
18968.828
18975.512
18984.147
18990.641
18958.282
18958.282
18958.281
18958.28
18958.279
18958.278
18958.277
18958.275
18958.273
18958.272
18958.269
18958.267
18958.264
18958.261
18958.257
18958.252
18958.247
18958.241
18958.234
18958.226
18958.218
18958.208
18958.198
18958.187
18958.179
18958.172
18958.171
18958.178
18958.197
18958.234
18958.293
18958.383
18958.51
18958.685
18958.922
18959.234
18959.637
18960.147
18960.783
18961.567
18962.525
18963.686
18965.09
18966.777
18968.791
18971.179
18973.99
18977.274
18981.091
18985.505
18990.59
18996.422
19003.082
19010.649
19019.208
19028.85
19039.657
19051.734
19065.185
19080.169
19096.857
19115.528
19136.82
19161.445
19188.945
19009.414
19009.413
19009.412
19009.411
19009.411
19009.409
19009.408
19009.407
19009.405
19009.404
19009.402
19009.4
19009.397
19009.395
19009.392
19009.389
19009.384
19009.381
19009.375
19009.371
19009.365
19009.36
19009.355
19009.352
19009.352
19009.358
19009.372
19009.4
19009.445
19009.516
19009.623
19009.773
19009.982
19010.264
19010.639
19011.125
19011.75
19012.538
19013.52
19014.732
19016.214
19018.015
19020.192
19022.805
19025.92
19029.606
19033.942
19039.011
19044.91
19051.745
19059.636
19068.71
19079.103
19090.958
19104.431
19119.693
19136.928
19156.349
19178.192
19202.763
19230.405
19261.626
19297.178
19337.971
19385.272
19059.978
19059.977
19059.976
19059.975
19059.975
19059.973
19059.972
19059.971
19059.97
19059.969
19059.968
19059.967
19059.966
19059.965
19059.964
19059.963
19059.961
19059.96
19059.959
19059.959
19059.959
19059.961
19059.965
19059.971
19059.983
19060.004
19060.037
19060.088
19060.164
19060.275
19060.431
19060.648
19060.942
19061.333
19061.845
19062.506
19063.351
19064.415
19065.74
19067.376
19069.379
19071.815
19074.759
19078.289
19082.493
19087.466
19093.313
19100.154
19108.122
19117.364
19128.046
19140.344
19154.45
19170.572
19188.936
19209.795
19233.428
19260.152
19290.328
19324.402
19362.889
19406.486
19456.118
19512.985
19578.837
19109.78
19109.779
19109.779
19109.778
19109.778
19109.777
19109.776
19109.776
19109.775
19109.775
19109.775
19109.775
19109.776
19109.776
19109.777
19109.778
19109.781
19109.783
19109.787
19109.792
19109.799
19109.808
19109.821
19109.84
19109.866
19109.904
19109.958
19110.036
19110.146
19110.301
19110.513
19110.8
19111.182
19111.683
19112.335
19113.172
19114.236