/*--------------------------------*- C++ -*----------------------------------*\
  =========                 |
  \\      /  F ield         | OpenFOAM: The Open Source CFD Toolbox
   \\    /   O peration     | Website:  https://openfoam.org
    \\  /    A nd           | Version:  13
     \\/     M anipulation  |
\*---------------------------------------------------------------------------*/
FoamFile
{
    format      ascii;
    class       volScalarField;
    location    "39.200546";
    object      yPlus;
}
// * * * * * * * * * * * * * * * * * * * * * * * * * * * * * * * * * * * * * //

dimensions      [];

internalField   uniform 0;

boundaryField
{
    inlet
    {
        type            calculated;
        value           uniform 0;
    }
    outlet
    {
        type            calculated;
        value           uniform 0;
    }
    cylinder
    {
        type            calculated;
        value           nonuniform List<scalar> 
132
(
1.2218281e-07
1.215095e-07
1.2041165e-07
1.1886872e-07
1.1687617e-07
1.1443679e-07
1.1156014e-07
1.0826279e-07
1.0456867e-07
1.0050913e-07
9.6123039e-08
9.1456674e-08
8.656294e-08
8.1501269e-08
7.6336981e-08
7.1138821e-08
6.5980239e-08
6.0935292e-08
5.6075227e-08
5.1462116e-08
4.7139815e-08
4.3120783e-08
3.9369469e-08
3.5789538e-08
3.2228594e-08
2.8512067e-08
2.4506282e-08
2.0204048e-08
1.5774499e-08
1.1534363e-08
7.8602286e-09
5.0895794e-09
3.475632e-09
3.0938642e-09
3.4975214e-09
4.265898e-09
5.2701933e-09
6.5101549e-09
8.0110979e-09
9.8075084e-09
1.1966032e-08
1.4567771e-08
1.7386717e-08
2.03829e-08
2.3480247e-08
2.6612953e-08
2.9719195e-08
3.2750413e-08
3.5673882e-08
3.8463898e-08
4.1104172e-08
4.3586482e-08
4.5901329e-08
4.804337e-08
5.0035702e-08
5.1846343e-08
5.3492767e-08
5.4974552e-08
5.6297049e-08
5.7454524e-08
5.8438514e-08
5.9262509e-08
5.9925558e-08
6.0427342e-08
6.0772256e-08
6.0951594e-08
1.2240492e-07
1.2218712e-07
1.2155283e-07
1.2045622e-07
1.1887053e-07
1.1678526e-07
1.1421808e-07
1.1117601e-07
1.0767453e-07
1.037395e-07
9.9407706e-08
9.4726652e-08
8.9754202e-08
8.4557892e-08
7.9213501e-08
7.3802688e-08
6.8410132e-08
6.3118365e-08
5.8001716e-08
5.3118488e-08
4.8497213e-08
4.4127207e-08
3.9948932e-08
3.5857283e-08
3.1721227e-08
2.7425431e-08
2.2931877e-08
1.8328161e-08
1.3838865e-08
9.7799926e-09
6.4791965e-09
4.2140774e-09
3.1649424e-09
3.195788e-09
3.7786639e-09
4.6362515e-09
5.7164498e-09
7.0336708e-09
8.6151854e-09
1.0493021e-08
1.2727086e-08
1.5394296e-08
1.825645e-08
2.1274814e-08
2.4376012e-08
2.7492533e-08
3.0567873e-08
3.3560843e-08
3.643831e-08
3.9180957e-08
4.1770509e-08
4.4206278e-08
4.6470822e-08
4.8555654e-08
5.0513219e-08
5.2271554e-08
5.3877908e-08
5.5314956e-08
5.6598183e-08
5.7709843e-08
5.8654992e-08
5.9436806e-08
6.0060703e-08
6.0522046e-08
6.0821705e-08
6.0963262e-08
)
;
    }
    frontAndBack
    {
        type            empty;
    }
}


// ************************************************************************* //
