/*--------------------------------*- C++ -*----------------------------------*\
  =========                 |
  \\      /  F ield         | OpenFOAM: The Open Source CFD Toolbox
   \\    /   O peration     | Website:  https://openfoam.org
    \\  /    A nd           | Version:  13
     \\/     M anipulation  |
\*---------------------------------------------------------------------------*/
FoamFile
{
    format      ascii;
    class       volScalarField;
    location    "32.798265";
    object      yPlus;
}
// * * * * * * * * * * * * * * * * * * * * * * * * * * * * * * * * * * * * * //

dimensions      [];

internalField   uniform 0;

boundaryField
{
    inlet
    {
        type            calculated;
        value           uniform 0;
    }
    outlet
    {
        type            calculated;
        value           uniform 0;
    }
    cylinder
    {
        type            calculated;
        value           nonuniform List<scalar> 
132
(
2.0376992e-07
2.0317529e-07
2.0188202e-07
1.9984601e-07
1.9704764e-07
1.9347838e-07
1.8914033e-07
1.8404698e-07
1.782244e-07
1.7171187e-07
1.6456304e-07
1.5684629e-07
1.4864478e-07
1.4005613e-07
1.3118926e-07
1.221667e-07
1.1312262e-07
1.0419575e-07
9.5528123e-08
8.7259199e-08
7.951553e-08
7.239369e-08
6.5934761e-08
6.0090174e-08
5.4686053e-08
4.9414458e-08
4.389134e-08
3.7798083e-08
3.1064717e-08
2.3984181e-08
1.7169216e-08
1.1343672e-08
7.1282316e-09
4.9358997e-09
4.7359345e-09
5.5894174e-09
6.9363399e-09
8.6649214e-09
1.0797223e-08
1.3387826e-08
1.6563154e-08
2.0435969e-08
2.4681719e-08
2.9232629e-08
3.3961093e-08
3.8746636e-08
4.3485791e-08
4.8102725e-08
5.2539871e-08
5.6762754e-08
6.0745933e-08
6.4481423e-08
6.7952035e-08
7.1138332e-08
7.4095644e-08
7.6795792e-08
7.9229707e-08
8.141341e-08
8.3351133e-08
8.5051825e-08
8.6521924e-08
8.773304e-08
8.8715569e-08
8.9447863e-08
8.995145e-08
9.0214296e-08
2.0363735e-07
2.0278254e-07
2.0122566e-07
1.9890098e-07
1.9581853e-07
1.9197426e-07
1.8737234e-07
1.8202925e-07
1.7597519e-07
1.6925467e-07
1.6192728e-07
1.5406795e-07
1.4576662e-07
1.3712806e-07
1.2826976e-07
1.193206e-07
1.1041669e-07
1.0169898e-07
9.3307057e-08
8.5364311e-08
7.7974335e-08
7.119325e-08
6.5004067e-08
5.9289134e-08
5.381672e-08
4.8267884e-08
4.2312858e-08
3.5759614e-08
2.8702936e-08
2.1566979e-08
1.50039e-08
9.680952e-09
6.1381012e-09
4.6799188e-09
4.9344541e-09
5.9781398e-09
7.436657e-09
9.2717873e-09
1.1516894e-08
1.4227494e-08
1.7521033e-08
2.1503245e-08
2.5830092e-08
3.0432326e-08
3.5176629e-08
3.995011e-08
4.4658935e-08
4.9227646e-08
5.3608451e-08
5.7768082e-08
6.1683773e-08
6.5349885e-08
6.8747545e-08
7.186022e-08
7.4769509e-08
7.7397108e-08
7.97725e-08
8.1891977e-08
8.3777351e-08
8.541963e-08
8.6830263e-08
8.7986399e-08
8.8910498e-08
8.9584035e-08
9.0022671e-08
9.0230534e-08
)
;
    }
    frontAndBack
    {
        type            empty;
    }
}


// ************************************************************************* //
