/*--------------------------------*- C++ -*----------------------------------*\
  =========                 |
  \\      /  F ield         | OpenFOAM: The Open Source CFD Toolbox
   \\    /   O peration     | Website:  https://openfoam.org
    \\  /    A nd           | Version:  13
     \\/     M anipulation  |
\*---------------------------------------------------------------------------*/
FoamFile
{
    format      ascii;
    class       volSymmTensorField;
    location    "33.79713";
    object      UPrime2Mean;
}
// * * * * * * * * * * * * * * * * * * * * * * * * * * * * * * * * * * * * * //

dimensions      [0 2 -2 0 0 0 0];

internalField   nonuniform List<symmTensor> 
17140
(
(5.548152e-12 -3.5238722e-10 -1.1141976e-27 2.3954704e-08 1.8046827e-26 6.3386984e-41)
(3.8352961e-10 -5.1197546e-09 -5.0702198e-28 2.2877244e-07 4.0192906e-27 5.6317132e-43)
(3.3496328e-09 -2.0623188e-08 8.2769005e-26 6.9617599e-07 -4.2466821e-25 2.455115e-39)
(1.5708252e-08 -5.6593445e-08 -1.7677052e-25 1.5022171e-06 6.5601444e-25 2.9671431e-39)
(5.2580735e-08 -1.2692547e-07 3.5428386e-26 2.7386958e-06 -1.0116615e-25 4.0550803e-41)
(1.4431264e-07 -2.5162113e-07 -1.8417193e-25 4.5152676e-06 4.2065359e-25 4.3435238e-40)
(3.4745192e-07 -4.5858431e-07 -4.6875704e-25 6.9615003e-06 8.7599412e-25 1.2311271e-39)
(7.6197877e-07 -7.8572318e-07 3.3391991e-25 1.022865e-05 -5.182949e-25 2.9343515e-40)
(1.5579271e-06 -1.2833138e-06 1.5543746e-24 1.4490859e-05 -2.0247531e-24 3.1437895e-39)
(3.0155348e-06 -2.0163909e-06 5.3112578e-24 1.9945409e-05 -5.8533559e-24 1.8913451e-38)
(5.5844456e-06 -3.066808e-06 -1.0792401e-23 2.6811512e-05 1.0126051e-23 4.1588987e-38)
(9.9690471e-06 -4.5344104e-06 1.300732e-23 3.5327031e-05 -1.0440055e-23 3.3030818e-38)
(1.7248581e-05 -6.5365107e-06 2.6640954e-24 4.5742394e-05 -1.8359287e-24 7.7384131e-40)
(2.9041756e-05 -9.2045529e-06 -1.9946483e-23 5.8310911e-05 1.1848212e-23 2.4753008e-38)
(4.7725755e-05 -1.2676636e-05 2.9104981e-24 7.3274729e-05 -1.4931103e-24 3.0513656e-40)
(7.6717771e-05 -1.7084459e-05 -3.0061505e-23 9.0845787e-05 1.3350655e-23 1.9145904e-38)
(0.00012082256 -2.2533577e-05 1.4457302e-24 0.00011118151 -5.5719629e-25 2.6517031e-41)
(0.00018664115 -2.9076755e-05 -4.2200559e-25 0.00013435553 1.4032272e-25 1.3276574e-42)
(0.00028302293 -3.6682011e-05 -3.7847436e-23 0.00016032469 1.0986857e-23 6.6780471e-39)
(0.00042152889 -4.5199726e-05 6.2209184e-23 0.00018889449 -1.5703472e-23 1.1196895e-38)
(0.00061686041 -5.4336773e-05 -3.7717788e-23 0.00021968683 8.2784566e-24 2.5856419e-39)
(0.0008872052 -6.3648723e-05 8.9517465e-24 0.00025211524 -1.7128076e-24 9.3588645e-41)
(0.0012544675 -7.25616e-05 8.1675876e-23 0.00028537557 -1.3573097e-23 5.0375038e-39)
(0.0017444226 -8.0431231e-05 -9.9689866e-23 0.00031846272 1.4410069e-23 4.9547893e-39)
(0.0023870237 -8.6638868e-05 -1.9218276e-22 0.00035022953 2.4154963e-23 1.240411e-38)
(0.0032166346 -9.0688366e-05 1.8496015e-22 0.00037950657 -2.0221594e-23 7.9071405e-39)
(0.0042720754 -9.2207658e-05 1.0789382e-21 0.0004052911 -1.0246367e-22 1.8828448e-37)
(0.0055996558 -9.106732e-05 1.4981263e-22 0.00042695706 -1.2337242e-23 2.5815416e-39)
(0.0072546586 -8.7379562e-05 -1.5290706e-21 0.00044439029 1.095034e-22 1.9687667e-37)
(0.009302083 -8.082761e-05 -4.1432488e-22 0.00045797641 2.5725467e-23 1.0676723e-38)
(0.01182006 -7.1284521e-05 -1.6987936e-21 0.00046837688 9.1473715e-23 1.3525981e-37)
(0.014900471 -5.8935511e-05 2.5537778e-21 0.00047615509 -1.1911085e-22 2.3377836e-37)
(0.01865176 -4.3275321e-05 -7.5758406e-22 0.00048170972 3.047953e-23 1.5870606e-38)
(0.02319882 -2.339068e-05 -4.0894235e-22 0.00048531812 1.4185541e-23 3.6316999e-39)
(0.02868287 2.1692512e-06 -4.5377712e-21 0.00048714157 1.3442692e-22 3.5243901e-37)
(0.035259635 3.5346544e-05 2.2303459e-21 0.00048722172 -5.6324057e-23 6.8282982e-38)
(0.043095366 7.8547963e-05 -3.7579438e-21 0.00048552146 7.9989205e-23 1.5612494e-37)
(0.05235935 0.00013466168 -2.8264321e-21 0.00048199599 5.0256222e-23 7.2020963e-38)
(0.063211117 0.00020706919 -1.4312468e-21 0.00047671834 2.0956108e-23 1.519927e-38)
(0.075780173 0.0002997028 4.7568636e-21 0.00047008512 -5.6580132e-23 1.4035693e-37)
(0.090137144 0.00041678319 9.8045654e-21 0.00046304648 -9.216309e-23 5.0159589e-37)
(0.10625702 0.00056237537 9.6480358e-21 0.00045716761 -6.9286394e-23 4.1345241e-37)
(0.12397743 0.00073922116 4.5348326e-21 0.00045435443 -2.3594868e-23 7.8694427e-38)
(0.14296613 0.00094753072 -2.366274e-20 0.00045636364 8.0306379e-23 1.8565402e-36)
(0.16271085 0.0011831849 -1.8391735e-20 0.00046449191 3.2567603e-23 9.8618632e-37)
(0.18252309 0.001434846 4.7648863e-21 0.00047958594 -1.393903e-24 5.9025601e-38)
(0.20165781 0.0016880077 -3.3912619e-20 0.00050254122 -3.6707469e-23 2.6972478e-36)
(0.21942581 0.0019317681 -1.1964953e-20 0.00053514136 -2.8372981e-23 3.0701337e-37)
(0.23508448 0.0021560792 1.2561852e-20 0.00058052934 4.5192498e-23 3.1399869e-37)
(0.24828424 0.0023499332 3.1441894e-20 0.00064208864 1.4987196e-22 1.8514749e-36)
(0.25870964 0.0025054404 -1.9637986e-20 0.00072417591 -1.1557779e-22 6.902944e-37)
(0.26616376 0.0026248343 -1.2476961e-20 0.0008332605 -8.6977947e-23 2.7032817e-37)
(0.27044208 0.0027255326 3.2494654e-20 0.00097740629 2.6331525e-22 1.8058168e-36)
(0.27162749 0.0028159105 1.5217011e-20 0.0011655055 1.4144566e-22 3.9625363e-37)
(0.26990671 0.0028797197 1.0653309e-20 0.0014093975 1.1274609e-22 1.9781431e-37)
(0.2659193 0.0028983323 -8.1779666e-21 0.0017310261 -9.8208455e-23 1.2010487e-37)
(0.26057614 0.0028729109 2.1268725e-20 0.0021674722 2.8908472e-22 8.605107e-37)
(0.25442275 0.0028169236 1.7028011e-20 0.0027925245 2.6187634e-22 5.9169524e-37)
(0.24791274 0.00275663 4.0408575e-21 0.0037331485 6.987205e-23 3.6654434e-38)
(0.24068458 0.002687021 -9.8068336e-21 0.005166587 -1.8647989e-22 2.409253e-37)
(0.23190459 0.002523812 -7.0931264e-21 0.0071114253 -1.4125024e-22 1.4638535e-37)
(0.22096073 0.0020841481 -2.3999568e-20 0.0091071216 -4.4827803e-22 1.9919943e-36)
(0.20537057 0.0013056211 -3.1535438e-21 0.010418214 -4.5730047e-23 4.2687921e-38)
(0.18780895 0.00039360837 2.3538034e-20 0.010963312 1.7392736e-22 3.01479e-36)
(0.16120567 -0.00022676746 -1.5507823e-20 0.011975244 -2.1335103e-23 1.8017488e-36)
(2.4248443e-10 -5.6902447e-09 1.3457165e-27 1.3358007e-07 -2.6360786e-26 5.133291e-42)
(3.79948e-09 -6.8910062e-08 -4.4817981e-25 1.2654853e-06 6.964768e-24 6.7576025e-38)
(1.6968797e-08 -2.5103617e-07 7.6413439e-25 3.823213e-06 -9.7252732e-24 5.3512905e-38)
(5.2783882e-08 -6.4201198e-07 -3.459057e-25 8.1844306e-06 3.6707137e-24 3.9770792e-39)
(1.3510812e-07 -1.3688828e-06 -1.1022189e-24 1.4789074e-05 9.9154874e-24 1.6971866e-38)
(3.0669911e-07 -2.613857e-06 3.103557e-24 2.4140383e-05 -2.3962291e-23 6.1966775e-38)
(6.4114804e-07 -4.6314598e-06 -4.6198625e-24 3.6802484e-05 3.0848638e-23 6.733483e-38)
(1.2611479e-06 -7.7694712e-06 5.6741669e-25 5.3392431e-05 -3.2931724e-24 5.2154432e-40)
(2.3662493e-06 -1.2494391e-05 -2.4288203e-24 7.4564623e-05 1.2296029e-23 5.0833547e-39)
(4.2739517e-06 -1.9419836e-05 -5.5842394e-26 0.00010098503 2.4727147e-25 1.4522204e-42)
(7.4794631e-06 -2.9336527e-05 -1.4653354e-23 0.000133293 5.6878656e-23 5.665471e-38)
(1.2740828e-05 -4.3240764e-05 3.0825265e-23 0.00017204832 -1.0507574e-22 1.4301107e-37)
(2.1197563e-05 -6.2356565e-05 3.344474e-24 0.00021766293 -1.0026387e-23 9.7520421e-40)
(3.4531932e-05 -8.8144292e-05 -4.3051865e-23 0.00027031779 1.1364599e-22 9.492951e-38)
(5.518206e-05 -0.00012228625 1.7130822e-23 0.00032986982 -3.9855343e-23 8.9423269e-39)
(8.6614479e-05 -0.00016663809 1.4014965e-23 0.0003957576 -2.8755661e-23 3.5983551e-39)
(0.00013365923 -0.00022313461 -1.1389564e-22 0.00046692074 2.0616222e-22 1.443289e-37)
(0.0002029029 -0.00029364237 4.7230928e-22 0.00054175402 -7.5436623e-22 1.5247813e-36)
(0.0003031233 -0.00037976039 -3.7413252e-22 0.00061812105 5.272268e-22 5.9414184e-37)
(0.00044573549 -0.00048258628 5.6346259e-22 0.00069345149 -7.003587e-22 8.4629209e-37)
(0.00064520765 -0.00060248877 -1.0386879e-21 0.00076493658 1.1382705e-21 1.8299329e-36)
(0.00091940208 -0.00073895285 3.1531869e-22 0.00082981646 -3.044968e-22 1.0882084e-37)
(0.0012898118 -0.00089057999 1.594993e-22 0.00088572323 -1.3564654e-22 1.8256464e-38)
(0.0017817294 -0.0010553246 -6.3525381e-22 0.00093101191 4.7538898e-22 1.9258798e-37)
(0.0024245672 -0.0012310192 2.755244e-21 0.00096500013 -1.8136649e-21 2.458636e-36)
(0.0032521731 -0.0014160152 4.9224744e-22 0.00098806267 -2.8474531e-22 5.4023063e-38)
(0.0043027497 -0.0016095871 -3.0156764e-21 0.0010015261 1.5340556e-21 1.4342216e-36)
(0.0056219124 -0.0018124495 3.9723911e-21 0.0010072192 -1.7757884e-21 1.7849767e-36)
(0.0072642511 -0.002026575 -6.3409595e-22 0.0010072675 2.4936604e-22 3.3506359e-38)
(0.0092937733 -0.0022538932 -7.2054756e-21 0.0010040588 2.4874577e-21 3.1915923e-36)
(0.011787439 -0.0024967285 8.5694752e-22 0.00099944491 -2.5993723e-22 3.424514e-38)
(0.014835625 -0.0027573396 7.5264642e-21 0.00099424352 -2.0009686e-21 2.0093317e-36)
(0.018544869 -0.0030366059 2.1972399e-22 0.00098845573 -5.0870644e-23 1.2758502e-39)
(0.023037639 -0.0033338653 -7.2296915e-21 0.00098157107 1.4723166e-21 1.1255613e-36)
(0.028452081 -0.0036465217 9.0921347e-21 0.0009728084 -1.616482e-21 1.411302e-36)
(0.034940013 -0.0039697383 -4.5986228e-21 0.00096128285 7.1224506e-22 2.8857756e-37)
(0.042662719 -0.0042958887 6.0322897e-21 0.00094612779 -8.1314072e-22 4.035267e-37)
(0.051783131 -0.0046136129 2.1353149e-20 0.00092660091 -2.4980882e-21 4.1206014e-36)
(0.062452671 -0.004906616 5.2981489e-21 0.00090227985 -5.3677709e-22 2.0866407e-37)
(0.074790637 -0.0051524519 2.2753286e-20 0.00087341638 -1.9921335e-21 3.2151736e-36)
(0.088855058 -0.0053219903 -3.1812027e-20 0.00084140841 2.3982319e-21 5.3102145e-36)
(0.10460589 -0.005380501 -3.1835319e-20 0.00080911679 2.0550673e-21 4.5181271e-36)
(0.12186368 -0.0052913866 -5.9040933e-21 0.00078092844 3.2407112e-22 1.3261345e-37)
(0.14027712 -0.0050228204 5.0298516e-20 0.00076262451 -2.3254404e-21 8.4762774e-36)
(0.15931023 -0.0045568965 -2.5386472e-20 0.00076110524 9.7479625e-22 1.8910008e-36)
(0.17825606 -0.003902062 -9.3024713e-21 0.00078368553 2.9116891e-22 2.2591352e-37)
(0.19633019 -0.0030979364 5.1895245e-21 0.00083664157 -1.2880037e-22 6.4357102e-38)
(0.21281218 -0.0022007626 1.6880699e-20 0.00092247445 -3.1781096e-22 6.1987022e-37)
(0.22710407 -0.0012789435 -8.5097241e-21 0.0010370262 1.1410103e-22 1.4658514e-37)
(0.23876667 -0.000392086 1.5788023e-20 0.0011734393 -1.3233666e-22 4.7526341e-37)
(0.24752408 0.00043791442 9.6384555e-20 0.001327365 -3.6376305e-22 1.6981357e-35)
(0.25320404 0.0012058304 4.6274535e-21 0.0015013285 2.814686e-24 3.8187712e-38)
(0.2557373 0.0018987495 -2.0827824e-20 0.0017060984 -9.6781146e-23 7.6333596e-37)
(0.25526782 0.0024852783 4.5876297e-20 0.0019536744 3.9936134e-22 3.7197995e-36)
(0.25226395 0.0029080411 -3.8447275e-20 0.0022568478 -4.9148941e-22 2.6690168e-36)
(0.24748354 0.0031209093 1.0613956e-19 0.0026314425 1.7949307e-21 2.1144946e-35)
(0.24190023 0.003156601 2.9209014e-20 0.0031037091 6.2304761e-22 1.6936077e-36)
(0.23623588 0.003079052 -7.8497814e-20 0.0037367272 -2.0389465e-21 1.3230129e-35)
(0.23090411 0.0030236725 1.2634787e-20 0.0046568535 3.9626294e-22 3.7646355e-37)
(0.22545237 0.0030474344 1.3455945e-20 0.0060580434 4.9352725e-22 4.849574e-37)
(0.21868357 0.0031025513 2.4860515e-21 0.0079901714 1.0357728e-22 1.9366984e-38)
(0.20994308 0.0029179623 -3.011297e-20 0.0099631266 -1.3592766e-21 3.4026219e-36)
(0.19614838 0.0023803953 5.2263384e-20 0.011193099 2.3919014e-21 1.2896885e-35)
(0.18036001 0.0016840746 1.3802944e-20 0.011705301 6.1223292e-22 1.1557829e-36)
(0.15427184 0.00072988776 1.9314808e-20 0.012630387 8.8766067e-22 3.1922973e-36)
(1.9994183e-09 -2.8561683e-08 1.9549405e-25 4.0801169e-07 -2.6165337e-24 1.5602546e-38)
(2.2798458e-08 -2.9666853e-07 -3.093355e-25 3.8628926e-06 3.7790974e-24 6.1732238e-39)
(8.1099161e-08 -9.7168973e-07 -1.4086699e-25 1.1663611e-05 1.5727216e-24 4.366448e-40)
(2.0615897e-07 -2.2640742e-06 2.0201088e-25 2.4953844e-05 -2.0605063e-24 3.9258497e-40)
(4.4375711e-07 -4.4588068e-06 -1.3980059e-24 4.5061677e-05 1.304259e-23 9.2193676e-39)
(8.6655461e-07 -7.9473913e-06 -1.4373075e-25 7.3500297e-05 1.2273778e-24 5.0970135e-41)
(1.5878831e-06 -1.3258307e-05 -2.4775383e-24 0.00011195755 1.934831e-23 8.3229216e-39)
(2.7819615e-06 -2.1093745e-05 -3.5471471e-24 0.00016226739 2.5295648e-23 9.6621596e-39)
(4.7136596e-06 -3.2374017e-05 3.8050046e-23 0.00022635582 -2.47308e-22 6.4544944e-37)
(7.7809987e-06 -4.8286215e-05 -4.4193886e-23 0.00030615465 2.6128096e-22 5.1454742e-37)
(1.2575344e-05 -7.0335342e-05 2.7316646e-23 0.00040347487 -1.4662121e-22 1.1783133e-37)
(1.9965096e-05 -0.00010039223 5.1414459e-23 0.00051983322 -2.5007782e-22 2.5293335e-37)
(3.120997e-05 -0.00014073003 -1.3033896e-22 0.00065622927 5.7346952e-22 9.9432575e-37)
(4.8113725e-05 -0.00019403721 -2.0552931e-23 0.00081287672 8.1660142e-23 1.5226207e-38)
(7.3223128e-05 -0.00026339074 1.0065138e-22 0.00098890401 -3.6051557e-22 2.2678016e-37)
(0.00011007956 -0.00035217059 8.7499166e-23 0.0011820552 -2.8206326e-22 1.0700347e-37)
(0.0001635259 -0.00046389637 -1.2783695e-22 0.0013884419 3.7025724e-22 1.4355467e-37)
(0.00024006469 -0.00060197274 5.8085276e-22 0.001602418 -1.5089356e-21 1.8749282e-36)
(0.00034825409 -0.00076934541 -4.2896585e-22 0.0018166639 9.9776637e-22 6.5214216e-37)
(0.00049911665 -0.00096809695 2.6388459e-22 0.0020225661 -5.485709e-22 1.5857156e-37)
(0.00070652663 -0.0011990516 -1.1001056e-21 0.0022109476 2.0403544e-21 1.7908761e-36)
(0.00098754028 -0.0014615034 -3.5158671e-22 0.0023731295 5.8072592e-22 1.2017831e-37)
(0.0013626456 -0.0017532111 8.946082e-22 0.0025021994 -1.3137495e-21 5.1830115e-37)
(0.0018559602 -0.0020708037 -1.6298696e-21 0.0025942264 2.124416e-21 1.1621499e-36)
(0.0024955751 -0.0024106983 -7.7115056e-22 0.0026490915 8.9067991e-22 1.7829609e-37)
(0.0033140347 -0.002770301 1.1002195e-21 0.0026706423 -1.1252674e-21 2.5481437e-37)
(0.0043480218 -0.0031486983 7.3809059e-21 0.0026659455 -6.6738705e-21 8.1416979e-36)
(0.0056414174 -0.0035476465 3.9132093e-21 0.002643229 -3.1255894e-21 1.6541633e-36)
(0.0072469462 -0.0039711237 -2.2628883e-21 0.0026102972 1.5967496e-21 4.0993728e-37)
(0.009226136 -0.0044233838 2.8065116e-21 0.0025740602 -1.745452e-21 4.6792706e-37)
(0.011652976 -0.0049092158 -2.0035524e-21 0.0025393075 1.0992434e-21 1.831815e-37)
(0.014613964 -0.005432926 -1.3002702e-20 0.0025079039 6.2717853e-21 5.8889082e-36)
(0.018210806 -0.0059967166 4.9492308e-21 0.0024793841 -2.0973426e-21 6.6418324e-37)
(0.022559867 -0.0066000598 1.6738836e-20 0.0024518028 -6.2213674e-21 5.9691116e-36)
(0.027791635 -0.0072390582 -6.2772187e-21 0.0024224447 2.0449786e-21 6.7215528e-37)
(0.034048293 -0.0079057804 -9.8930477e-21 0.00238831 2.817615e-21 1.3344692e-36)
(0.041478983 -0.0085871452 1.91731e-20 0.0023463384 -4.7698525e-21 4.0635004e-36)
(0.05023129 -0.0092630969 6.527749e-21 0.0022935478 -1.4162477e-21 3.8414985e-37)
(0.060437258 -0.0099042484 -1.2824123e-20 0.0022273173 2.4251983e-21 1.2348881e-36)
(0.072192012 -0.010469583 -5.6586787e-21 0.002146076 9.3070004e-22 2.01638e-37)
(0.085524064 -0.010905206 2.9868653e-20 0.0020503747 -4.2580675e-21 4.7252521e-36)
(0.10035837 -0.011146128 -9.1761662e-21 0.0019443117 1.1292062e-21 3.8467737e-37)
(0.11647595 -0.01112273 -1.4423311e-20 0.0018370121 1.5253869e-21 8.1558635e-37)
(0.13348339 -0.010773005 -4.1517118e-20 0.0017438967 3.7421466e-21 5.8707158e-36)
(0.15080127 -0.010060095 8.4285634e-20 0.0016867489 -6.4011126e-21 2.1404963e-35)
(0.16769397 -0.0089964864 -5.7894974e-20 0.001691362 3.6488611e-21 9.0215309e-36)
(0.18339242 -0.0076612249 -1.5416302e-20 0.0017799981 7.9171313e-22 5.7581392e-37)
(0.19720533 -0.0061712819 -6.346253e-20 0.0019580657 2.5731974e-21 9.040056e-36)
(0.20859709 -0.0046437718 -7.8694071e-20 0.0022070883 2.425725e-21 1.2987919e-35)
(0.2172327 -0.0031845803 -4.1099861e-21 0.0024963418 9.2517117e-23 3.3364791e-38)
(0.22298366 -0.0018465659 1.7676768e-20 0.0027996983 -2.4449701e-22 5.9559155e-37)
(0.22583395 -0.00064317565 -1.306485e-19 0.003112993 7.6932793e-22 3.2007112e-35)
(0.22589448 0.00040122903 -5.5578904e-20 0.0034558742 -7.3472325e-23 5.7638486e-36)
(0.223475 0.0012191736 -5.6472726e-20 0.0038520929 -4.704304e-22 6.0185754e-36)
(0.21925569 0.0017198884 -1.817974e-20 0.0043153669 -2.8255752e-22 6.4146824e-37)
(0.21412565 0.0018492125 -1.3630571e-19 0.0048472114 -3.0438116e-21 3.7825763e-35)
(0.20915867 0.0016789431 5.208123e-20 0.0054479886 1.5611383e-21 5.8865119e-36)
(0.20506423 0.0013648757 -1.5042287e-20 0.0061479775 -5.6650369e-22 5.3807401e-37)
(0.20200623 0.0011762991 -1.1650947e-19 0.007053662 -5.4454432e-21 3.5819962e-35)
(0.19930341 0.0012569938 -4.3124389e-20 0.0083684291 -2.4456477e-21 5.6139468e-36)
(0.19514159 0.0015622358 4.700788e-20 0.010167026 3.1299182e-21 7.9212805e-36)
(0.18888639 0.00176032 1.4612013e-19 0.011914771 1.1005429e-20 9.3511929e-35)
(0.17669489 0.0016326687 -4.1110655e-20 0.01281652 -3.3582253e-21 9.5379699e-36)
(0.16309013 0.001382173 -5.7735477e-20 0.013063708 -5.0536395e-21 2.4783363e-35)
(0.13794101 0.00040445867 -2.0434583e-20 0.01363839 -2.0258997e-21 4.5468277e-36)
(7.8918677e-09 -8.0245418e-08 -1.2813193e-24 8.159475e-07 1.2610799e-23 1.7498224e-37)
(8.1564197e-08 -7.9387778e-07 4.1600257e-24 7.7275567e-06 -3.9154365e-23 3.2091828e-37)
(2.6730332e-07 -2.4974322e-06 -2.4608176e-24 2.3339439e-05 2.2099278e-23 4.1959623e-38)
(6.2532621e-07 -5.5874117e-06 3.8751724e-25 4.9950839e-05 -3.3139618e-24 4.959274e-40)
(1.2414947e-06 -1.0579458e-05 -1.0512802e-23 9.023606e-05 8.5503132e-23 1.9384739e-37)
(2.2403995e-06 -1.8150051e-05 1.4474878e-23 0.00014724877 -1.117944e-22 2.0755867e-37)
(3.8015157e-06 -2.9177106e-05 -2.8632061e-23 0.00022440345 2.0949762e-22 4.7769546e-37)
(6.1817479e-06 -4.4787534e-05 1.7308021e-23 0.00032542125 -1.1962657e-22 1.0577574e-37)
(9.7471258e-06 -6.6412566e-05 8.3690399e-23 0.0004542256 -5.44669e-22 1.5294546e-36)
(1.501644e-05 -9.5847533e-05 -2.539025e-23 0.00061477235 1.5507965e-22 8.8462243e-38)
(2.2720754e-05 -0.00013531218 -1.2138972e-22 0.00081079808 6.9350802e-22 1.2837142e-36)
(3.388354e-05 -0.00018750435 4.6321299e-23 0.0010454722 -2.4670229e-22 1.1969867e-37)
(4.9927093e-05 -0.00025563647 3.8524529e-24 0.0013209448 -1.9062916e-23 5.350518e-40)
(7.281124e-05 -0.0003434391 -1.8794465e-22 0.0016377964 8.6129439e-22 8.202125e-37)
(0.00010521045 -0.00045511173 7.2992724e-22 0.0019944153 -3.0876168e-21 8.0292099e-36)
(0.00015073403 -0.00059519725 -5.5536891e-22 0.002386364 2.1613723e-21 3.0257628e-36)
(0.00021419166 -0.00076835713 -6.55048e-24 0.0028058336 2.337787e-23 2.7454136e-40)
(0.00030190116 -0.00097903178 4.6925184e-22 0.0032413339 -1.530798e-21 9.2428025e-37)
(0.00042202923 -0.001230991 -1.4675987e-21 0.0036778062 4.3619525e-21 5.9514135e-36)
(0.00058494705 -0.0015268123 8.5027618e-22 0.0040973436 -2.2950429e-21 1.322994e-36)
(0.00080357748 -0.0018673794 1.5507517e-21 0.0044806618 -3.7891123e-21 2.9350004e-36)
(0.0010937097 -0.0022515487 7.6460515e-22 0.0048093169 -1.6858606e-21 4.7974278e-37)
(0.0014742678 -0.0026761729 -4.5754238e-21 0.0050684271 9.0766429e-21 1.170205e-35)
(0.0019675509 -0.0031366671 -2.8767181e-21 0.0052493884 5.1194673e-21 3.1857486e-36)
(0.0025996078 -0.003628253 2.2182153e-21 0.0053518282 -3.5325485e-21 1.3270765e-36)
(0.0034009091 -0.0041477098 -1.536897e-21 0.0053840879 2.1841571e-21 4.5071301e-37)
(0.0044058592 -0.0046942601 6.7715674e-21 0.005361788 -8.5733135e-21 6.3253556e-36)
(0.0056556218 -0.0052710698 -2.2742351e-21 0.0053036091 2.5598842e-21 5.2246281e-37)
(0.0071998502 -0.0058842205 7.1119908e-21 0.0052263545 -7.1067568e-21 3.8068924e-36)
(0.0090963419 -0.0065404555 -4.6346151e-21 0.0051441762 4.1047738e-21 1.2225149e-36)
(0.011414402 -0.0072470384 3.2948392e-21 0.0050668934 -2.5806733e-21 4.713182e-37)
(0.014234473 -0.0080102052 -1.3779938e-20 0.0049984911 9.5334718e-21 6.4041566e-36)
(0.017650725 -0.0088333388 2.2453922e-21 0.0049381421 -1.3698842e-21 1.3373221e-37)
(0.021770066 -0.0097158054 -1.3431338e-20 0.0048818809 7.2093544e-21 3.7721181e-36)
(0.026711178 -0.010652111 1.4481382e-20 0.0048240433 -6.8325938e-21 3.5125257e-36)
(0.032601546 -0.011630881 5.2210223e-21 0.0047582326 -2.1611328e-21 3.6557153e-37)
(0.039571942 -0.012633206 -7.2465446e-20 0.0046777262 2.6316654e-20 5.7986397e-35)
(0.047747046 -0.013630004 -2.1054804e-20 0.0045756346 6.6958359e-21 4.0226557e-36)
(0.057230519 -0.014578635 1.9295207e-20 0.004445319 -5.3670261e-21 2.8179961e-36)
(0.068082869 -0.015419676 -2.0875034e-20 0.00428157 5.0685313e-21 2.7711507e-36)
(0.080291721 -0.016075373 5.9022708e-21 0.004082781 -1.2468314e-21 1.8662739e-37)
(0.093736022 -0.016452379 4.0112245e-20 0.0038542414 -7.3574385e-21 7.4429184e-36)
(0.10814897 -0.016451555 -2.0064713e-21 0.0036123252 3.182216e-22 1.6310011e-38)
(0.12309264 -0.015986626 -1.571995e-20 0.0033882206 2.132143e-21 8.6187227e-37)
(0.13795531 -0.015011887 8.1184527e-21 0.0032287825 -9.274126e-22 2.0728884e-37)
(0.15201064 -0.01355994 -4.4343222e-21 0.0031909949 4.2654167e-22 5.2232047e-38)
(0.16456192 -0.0117606 -1.3202108e-20 0.0033226135 1.0411639e-21 4.3884413e-37)
(0.17501426 -0.0097979783 2.1080513e-19 0.0036319757 -1.3340338e-20 1.0476369e-34)
(0.18299944 -0.0078520921 -2.4359399e-20 0.004074147 1.1805614e-21 1.31419e-36)
(0.18838372 -0.0060631676 2.3017153e-20 0.0045768648 -8.2821646e-22 1.1206326e-36)
(0.19121856 -0.0044874868 -2.1916298e-19 0.0050801968 5.2864263e-21 9.8549375e-35)
(0.19163488 -0.0031324914 1.2039843e-19 0.0055730837 -1.587499e-21 2.9341056e-35)
(0.18988319 -0.0020344729 9.8445968e-20 0.0060936514 -2.4437004e-22 1.9641656e-35)
(0.18641987 -0.0012919478 9.2386464e-20 0.0066863184 7.0843399e-22 1.7648765e-35)
(0.1820549 -0.0010152212 8.6626715e-20 0.0073682332 1.5337608e-21 1.6107345e-35)
(0.17775448 -0.0012386617 1.3107953e-19 0.0081193507 3.6556515e-21 3.9011647e-35)
(0.17450671 -0.001815302 -2.5038522e-19 0.008899457 -9.7208808e-21 1.5332343e-34)
(0.17280612 -0.0024775339 1.4578566e-19 0.0096916775 7.3752667e-21 5.7202903e-35)
(0.17234159 -0.0028095023 2.067286e-19 0.010564128 1.3178368e-20 1.299689e-34)
(0.17204109 -0.0025771573 -1.4004863e-19 0.011710852 -1.1069678e-20 6.930409e-35)
(0.16942608 -0.0018807428 -4.0512589e-20 0.013249662 -3.8386458e-21 7.0147938e-36)
(0.16414283 -0.0010802263 -3.150225e-20 0.014565223 -3.4517838e-21 5.3204513e-36)
(0.15171553 -0.00060658689 1.3930694e-19 0.014922056 1.7351872e-20 1.3782884e-34)
(0.13830322 -0.00027960903 8.759138e-20 0.014694903 1.226011e-20 7.4382902e-35)
(0.11372154 -0.001069055 -3.0573569e-21 0.014728122 -5.0116647e-22 1.443993e-37)
(2.1198176e-08 -1.6627072e-07 1.4962595e-24 1.304168e-06 -1.1510942e-23 8.6758393e-38)
(2.1035774e-07 -1.6124015e-06 -9.9206296e-24 1.2359341e-05 7.4464135e-23 6.9279119e-37)
(6.6496303e-07 -4.983547e-06 1.2937511e-23 3.7351096e-05 -9.4520398e-23 4.6054561e-37)
(1.4966136e-06 -1.094088e-05 -6.9271761e-24 7.9992072e-05 4.9187665e-23 6.5788676e-38)
(2.8552273e-06 -2.0317887e-05 -3.3616033e-24 0.00014461417 2.3169071e-23 8.5891434e-39)
(4.9445459e-06 -3.4167362e-05 3.7713361e-23 0.00023618356 -2.5191512e-22 6.362636e-37)
(8.0405397e-06 -5.3808089e-05 -1.2202402e-23 0.00036028085 7.8827267e-23 4.0838517e-38)
(1.2515745e-05 -8.0876809e-05 -3.263227e-23 0.00052302583 2.0334593e-22 1.8424728e-37)
(1.887203e-05 -0.00011738597 -3.1186306e-24 0.00073092393 1.8691707e-23 1.0855606e-39)
(2.7783758e-05 -0.00016578269 -3.2772925e-23 0.00099060883 1.8834831e-22 7.8418038e-38)
(4.0154345e-05 -0.00022900378 5.6451947e-23 0.0013084529 -3.100752e-22 1.5394684e-37)
(5.7189605e-05 -0.00031051823 -4.807815e-23 0.0016900198 2.5153589e-22 7.4469143e-38)
(8.0491945e-05 -0.00041434496 -2.1659094e-22 0.002139341 1.0755529e-21 1.0126792e-36)
(0.00011217949 -0.00054502894 -7.6937409e-24 0.0026580197 3.6133211e-23 8.5641491e-40)
(0.00015503437 -0.00070755453 2.4625507e-22 0.0032441933 -1.089585e-21 5.9374946e-37)
(0.00021268338 -0.00090717289 2.1246881e-22 0.0038914459 -8.8231028e-22 2.9845067e-37)
(0.00028981266 -0.0011491207 -2.2253619e-22 0.0045878188 8.6386947e-22 2.2139681e-37)
(0.00039241527 -0.0014382192 2.5894239e-23 0.0053151614 -9.3579792e-23 2.0428313e-39)
(0.00052806664 -0.001778362 6.4010916e-22 0.0060491234 -2.1447431e-21 8.4427535e-37)
(0.00070621853 -0.0021719425 9.4490668e-22 0.006760136 -2.9227861e-21 1.2546069e-36)
(0.0009385001 -0.0026193231 -1.3022741e-21 0.0074156511 3.7029211e-21 1.6350042e-36)
(0.001239015 -0.0031185173 -1.5759551e-21 0.0079837205 4.1018445e-21 1.654687e-36)
(0.0016246326 -0.0036652973 2.5379287e-21 0.0084375999 -6.0215359e-21 2.9926459e-36)
(0.0021152859 -0.0042539298 -3.7383315e-21 0.0087605757 8.0529391e-21 4.5748612e-36)
(0.0027343849 -0.0048786805 -7.6625083e-21 0.008949751 1.4929397e-20 1.3705177e-35)
(0.003509576 -0.0055359935 2.119833e-20 0.0090174211 -3.7227986e-20 7.5922607e-35)
(0.0044725881 -0.0062258093 -1.3604032e-20 0.0089892591 2.1465906e-20 2.2947882e-35)
(0.0056608851 -0.0069529275 2.3340273e-20 0.0088979491 -3.2995255e-20 5.0254087e-35)
(0.0071197765 -0.0077256476 -3.3531239e-20 0.0087727616 4.2362836e-20 7.8329988e-35)
(0.0089027384 -0.0085537924 4.2807036e-20 0.0086381336 -4.8212314e-20 9.7601773e-35)
(0.011072696 -0.0094469358 -5.0350625e-20 0.0085112149 5.0431865e-20 1.0453378e-34)
(0.013702291 -0.010413076 9.5849338e-21 0.0083996096 -8.520243e-21 2.9727665e-36)
(0.016875858 -0.011456589 3.7374043e-20 0.0083025748 -2.941645e-20 3.566474e-35)
(0.020688117 -0.012576436 -2.3674391e-20 0.0082136949 1.6472956e-20 1.1436891e-35)
(0.025242626 -0.013765162 8.2804541e-21 0.0081233517 -5.0858812e-21 1.1298583e-36)
(0.030648238 -0.015007552 2.6837254e-21 0.0080203902 -1.4539003e-21 9.7429625e-38)
(0.037012837 -0.016278515 3.6936628e-20 0.0078928341 -1.7608385e-20 1.5009667e-35)
(0.044433139 -0.017539748 1.3343644e-20 0.0077280991 -5.5939716e-21 1.6173027e-36)
(0.052979147 -0.018735581 1.4852697e-20 0.0075136026 -5.4649565e-21 1.670211e-36)
(0.062672 -0.019789162 1.6045567e-20 0.007238647 -5.1760649e-21 1.6591963e-36)
(0.073455325 -0.020601044 -8.9167247e-20 0.0068981226 2.513644e-20 4.3751004e-35)
(0.085162465 -0.02105351 4.2442477e-20 0.0064986531 -1.0418036e-20 8.5474241e-36)
(0.097485781 -0.021024465 7.3574884e-21 0.0060667009 -1.5675445e-21 2.1905764e-37)
(0.10996054 -0.020413742 -9.0026203e-20 0.0056560856 1.6463268e-20 2.9482244e-35)
(0.1219802 -0.019183116 -4.856106e-20 0.0053499861 7.5685911e-21 7.6328018e-36)
(0.13289091 -0.017407071 2.5102003e-20 0.005249416 -3.2970474e-21 1.8549612e-36)
(0.14213872 -0.015284307 9.559045e-20 0.0054339056 -1.034711e-20 2.4570212e-35)
(0.14932505 -0.013063234 -4.2992775e-20 0.0059064043 3.7864187e-21 4.6513933e-36)
(0.15429536 -0.010969551 1.2916246e-19 0.0065798411 -8.8232565e-21 3.9620295e-35)
(0.15710395 -0.0091464626 7.1443702e-20 0.0073211608 -3.6611811e-21 1.1657673e-35)
(0.15791429 -0.0076244073 9.9363912e-20 0.0080289259 -3.5738379e-21 2.2044192e-35)
(0.15692797 -0.0063905674 2.6663668e-19 0.0086934596 -5.5306897e-21 1.5758741e-34)
(0.15446386 -0.0054947936 -2.0384169e-19 0.0093864937 1.3966527e-21 9.3136456e-35)
(0.15106513 -0.0050690723 6.5186466e-20 0.010182389 5.1427317e-22 9.7766429e-36)
(0.14760318 -0.0052319414 -1.0847223e-19 0.011100152 -2.1959475e-21 2.8433667e-35)
(0.14501488 -0.0059718259 -9.8892109e-20 0.012089668 -3.401174e-21 2.5246224e-35)
(0.14405038 -0.0070358316 -3.6709261e-20 0.013057994 -1.8203399e-21 3.8000832e-36)
(0.14481418 -0.0080155259 -3.1408985e-19 0.013921794 -2.0240157e-20 3.1009743e-34)
(0.14637303 -0.0083588839 -7.8313143e-20 0.01470284 -6.4644361e-21 2.212481e-35)
(0.14719902 -0.007779612 1.6366704e-19 0.015576556 1.7040893e-20 1.1450045e-34)
(0.14430813 -0.006547764 5.5353718e-20 0.0167198 7.1049924e-21 1.6268044e-35)
(0.13799899 -0.0049875033 -3.6357692e-20 0.017365183 -5.5097842e-21 9.0643205e-36)
(0.12386972 -0.0037438145 -6.4017074e-20 0.017023063 -1.1287846e-20 3.8750817e-35)
(0.10924269 -0.0029032427 -8.3445093e-20 0.016180471 -1.7256691e-20 9.3963714e-35)
(0.08611484 -0.0034385294 4.9339474e-21 0.015596089 1.2259488e-21 5.46505e-37)
(4.4719524e-08 -2.8404435e-07 6.8059152e-24 1.8041612e-06 -4.267681e-23 8.0544154e-37)
(4.3498803e-07 -2.7283512e-06 4.7386646e-24 1.7112983e-05 -2.9283847e-23 7.2684267e-38)
(1.3500756e-06 -8.3593274e-06 -6.0540269e-24 5.1759798e-05 3.679634e-23 4.7666243e-38)
(2.9778809e-06 -1.8176584e-05 -3.1260949e-23 0.00011095196 1.8671004e-22 6.5008792e-37)
(5.5608278e-06 -3.3413806e-05 2.2723436e-23 0.00020079144 -1.3323891e-22 1.9522437e-37)
(9.4127026e-06 -5.5586972e-05 -4.2135035e-23 0.0003283112 2.4226426e-22 4.0463374e-37)
(1.4938639e-05 -8.6543616e-05 2.3017465e-23 0.00050146669 -1.2956734e-22 7.5800437e-38)
(2.2659995e-05 -0.00012851362 6.8203718e-24 0.00072905456 -3.7512973e-23 4.303299e-39)
(3.3246314e-05 -0.00018416135 -4.74999e-23 0.0010205276 2.5469458e-22 1.3800007e-37)
(4.7555383e-05 -0.00025663281 -1.2496784e-22 0.0013856683 6.5162534e-22 6.4174295e-37)
(6.6683427e-05 -0.00034959159 -7.6257341e-24 0.0018340789 3.8565977e-23 1.6193193e-39)
(9.2027463e-05 -0.00046723333 3.0149782e-22 0.0023744477 -1.4744336e-21 1.740502e-36)
(0.00012536218 -0.0006142657 -5.0297341e-22 0.0030135571 2.3712658e-21 3.3388241e-36)
(0.00016893385 -0.00079583701 9.7759381e-22 0.0037550229 -4.428405e-21 8.7299321e-36)
(0.0002255738 -0.0010173942 -3.0721305e-22 0.004597799 1.3324494e-21 5.9822684e-37)
(0.00029883349 -0.0012844494 7.8446217e-22 0.0055345405 -3.2454785e-21 2.710795e-36)
(0.00039314315 -0.0016022413 -1.1389868e-21 0.0065500329 4.4770173e-21 3.9797927e-36)
(0.0005139948 -0.0019752845 8.8786834e-22 0.007619994 -3.3018303e-21 1.6866117e-36)
(0.00066814982 -0.0024068315 -1.6814029e-22 0.0087106992 5.889572e-22 4.2324435e-38)
(0.00086387055 -0.002898306 -8.1665384e-22 0.0097799535 2.6819663e-21 6.9998863e-37)
(0.0011111763 -0.003448823 2.3715419e-21 0.010779891 -7.2672832e-21 4.1583547e-36)
(0.0014221259 -0.0040549717 -3.9860715e-21 0.011661856 1.134207e-20 8.3300366e-36)