/*--------------------------------*- C++ -*----------------------------------*\
  =========                 |
  \\      /  F ield         | OpenFOAM: The Open Source CFD Toolbox
   \\    /   O peration     | Website:  https://openfoam.org
    \\  /    A nd           | Version:  13
     \\/     M anipulation  |
\*---------------------------------------------------------------------------*/
FoamFile
{
    format      ascii;
    class       volScalarField;
    location    "1.798257";
    object      nut;
}
// * * * * * * * * * * * * * * * * * * * * * * * * * * * * * * * * * * * * * //

dimensions      [0 2 -1 0 0 0 0];

internalField   nonuniform List<scalar> 
17140
(
4.3094114e-19
8.3812802e-17
2.232454e-15
2.2635074e-14
1.3692424e-13
6.068964e-13
2.1927739e-12
6.8669701e-12
1.9364995e-11
5.0433561e-11
1.2344599e-10
2.8758548e-10
6.4366483e-10
1.3939926e-09
2.9375928e-09
6.0503645e-09
1.2223481e-08
2.4295537e-08
4.7629082e-08
9.2296109e-08
1.7713415e-07
3.3725658e-07
6.378066e-07
1.198187e-06
2.2298651e-06
4.0738507e-06
7.152589e-06
8.3225548e-06
9.2769126e-06
1.001817e-05
1.064167e-05
1.1250892e-05
1.1938127e-05
1.2809581e-05
1.3974234e-05
1.5589042e-05
1.7924542e-05
2.14896e-05
2.7303118e-05
3.7683079e-05
5.2727883e-05
5.8634742e-05
6.6102394e-05
7.5154032e-05
8.5394447e-05
9.600232e-05
0.00010327074
0.00011013229
0.00011614511
0.00011694456
0.00011471718
0.00011228171
0.00011150334
0.00011386614
0.00012091112
0.00013442521
0.00015706052
0.00019288702
0.00024854428
0.00032344348
0.00029969999
0.00032812954
0.00042204559
0.00062852043
0.00096344415
4.263601e-19
8.2921784e-17
2.2087231e-15
2.2394533e-14
1.3546981e-13
6.0045332e-13
2.1695081e-12
6.7941538e-12
1.9159765e-11
4.989929e-11
1.2213848e-10
2.8453866e-10
6.3683957e-10
1.379185e-09
2.9062957e-09
5.9856138e-09
1.209183e-08
2.4031611e-08
4.7105936e-08
9.1268436e-08
1.7512978e-07
3.3337085e-07
6.3032132e-07
1.18391e-06
2.2031941e-06
4.0263246e-06
7.076229e-06
8.350416e-06
9.3142127e-06
1.0061752e-05
1.0687244e-05
1.1295585e-05
1.1979124e-05
1.2844973e-05
1.4002351e-05
1.560506e-05
1.7911582e-05
2.140232e-05
2.7060107e-05
3.7244173e-05
5.1459274e-05
5.686357e-05
6.3611586e-05
7.1664747e-05
8.0885988e-05
9.0530471e-05
9.7261941e-05
0.00010381231
0.00011046427
0.00011281693
0.00011203397
0.00011069678
0.00011065434
0.0001135131
0.00012097477
0.00013493418
0.00015808754
0.00019449407
0.00025069952
0.0003184514
0.00029733246
0.00032650133
0.00041966991
0.00062398839
0.00096334929
4.1580371e-19
8.0868679e-17
2.1540354e-15
2.1840029e-14
1.3211522e-13
5.8558235e-13
2.1157648e-12
6.6257879e-12
1.8684713e-11
4.8661096e-11
1.1910428e-10
2.7745844e-10
6.2095617e-10
1.3446757e-09
2.8332555e-09
5.8342999e-09
1.1783804e-08
2.3413429e-08
4.5879426e-08
8.8857039e-08
1.7042298e-07
3.2423881e-07
6.1271229e-07
1.1502715e-06
2.1401766e-06
3.9134085e-06
6.8927685e-06
8.4157129e-06
9.4006526e-06
1.0161136e-05
1.0791094e-05
1.1398104e-05
1.2071582e-05
1.2919378e-05
1.4051273e-05
1.5616731e-05
1.7861861e-05
2.1240058e-05
2.6693636e-05
3.6525941e-05
4.8352839e-05
5.2621885e-05
5.7776568e-05
6.3794682e-05
7.074009e-05
7.8241133e-05
8.3993408e-05
8.9940322e-05
9.7224891e-05
0.00010235801
0.00010471368
0.0001059011
0.00010771725
0.00011196893
0.00012053431
0.00013556607
0.00015988517
0.0001975528
0.00025494797
0.00030937962
0.00029326406
0.00032404595
0.00041625233
0.00061735714
0.00096337052
3.9923029e-19
7.7645342e-17
2.068177e-15
2.0969466e-14
1.2684855e-13
5.6223506e-13
2.0313878e-12
6.3614517e-12
1.7938874e-11
4.6717132e-11
1.1434068e-10
2.663432e-10
5.9602268e-10
1.2905102e-09
2.7186333e-09
5.5969049e-09
1.1300716e-08
2.2444364e-08
4.3957846e-08
8.5081649e-08
1.6305935e-07
3.0996285e-07
5.8520111e-07
1.0977227e-06
2.0416233e-06
3.7361452e-06
6.6021292e-06
8.5237647e-06
9.5435242e-06
1.0324958e-05
1.0959746e-05
1.1560555e-05
1.2217047e-05
1.3032196e-05
1.4115771e-05
1.5609177e-05
1.7741785e-05
2.0933773e-05
2.6042901e-05
3.5112571e-05
4.3502418e-05
4.6132388e-05
4.9148635e-05
5.2588676e-05
5.6676094e-05
6.1622891e-05
6.653646e-05
7.2212392e-05
7.940209e-05
8.6745502e-05
9.3029872e-05
9.756376e-05
0.00010218084
0.00010856561
0.00011886367
0.00013553316
0.00016156173
0.00020104286
0.00026016094
0.00029928471
0.00028877162
0.0003216699
0.00041340266
0.00061207668
0.00096360491
3.769596e-19
7.3313962e-17
1.9528046e-15
1.9799652e-14
1.1977154e-13
5.3086266e-13
1.9180098e-12
6.0062692e-12
1.6936745e-11
4.4105318e-11
1.0794111e-10
2.5141261e-10
5.6253708e-10
1.2177855e-09
2.5647936e-09
5.2784412e-09
1.0653065e-08
2.1146209e-08
4.1386169e-08
8.003467e-08
1.5322803e-07
2.9092826e-07
5.4856447e-07
1.0277911e-06
1.9103608e-06
3.4990284e-06
6.2088727e-06
8.6838566e-06
9.7544324e-06
1.0568384e-05
1.1212282e-05
1.1802582e-05
1.2436838e-05
1.3204234e-05
1.4214101e-05
1.5594943e-05
1.7547613e-05
2.0431299e-05
2.4960799e-05
3.2804986e-05
3.7337237e-05
3.8128032e-05
3.8901467e-05
3.9835418e-05
4.1417765e-05
4.4372871e-05
4.8596087e-05
5.492248e-05
6.2294913e-05
7.0665476e-05
8.063681e-05
8.8573423e-05
9.5536714e-05
0.00010390342
0.00011624327
0.00013494276
0.00016310713
0.00020485729
0.000266188
0.00028890717
0.00028412446
0.00031958007
0.00041148747
0.00060884787
0.00096422841
3.495994e-19
6.7992739e-17
1.8110668e-15
1.8362509e-14
1.1107731e-13
4.9232175e-13
1.7787287e-12
5.5699575e-12
1.570579e-11
4.089742e-11
1.0008207e-10
2.3308057e-10
5.2143428e-10
1.128552e-09
2.376129e-09
4.8881526e-09
9.8600387e-09
1.9558394e-08
3.8244817e-08
7.3879264e-08
1.4125864e-07
2.6779765e-07
5.0412339e-07
9.4306106e-07
1.7512204e-06
3.2101434e-06
5.723133e-06
8.9125229e-06
1.0053263e-05
1.0916084e-05
1.1576318e-05
1.2152887e-05
1.2754706e-05
1.3463565e-05
1.4371249e-05
1.5593002e-05
1.7293162e-05
1.9745683e-05
2.3483377e-05
2.974185e-05
3.0494804e-05
2.9607973e-05
2.8552459e-05
2.7660763e-05
2.7558582e-05
2.9190942e-05
3.2899304e-05
4.02337e-05
4.9163931e-05
5.8496784e-05
6.9363866e-05
8.003995e-05
8.874192e-05
9.9264982e-05
0.00011371585
0.00013459791
0.00016515059
0.00020949777
0.00027345449
0.00027820828
0.00027939347
0.00031790725
0.00041069792
0.00060779752
0.0009653113
3.1789426e-19
6.1826486e-17
1.6468207e-15
1.6697151e-14
1.0100257e-13
4.4766195e-13
1.6173404e-12
5.0644182e-12
1.4279632e-11
3.7181234e-11
9.0979237e-11
2.1185214e-10
4.7385275e-10
1.0252991e-09
2.157954e-09
4.4371695e-09
8.9446038e-09
1.7727768e-08
3.4628513e-08
6.6805562e-08
1.2753036e-07
2.4132177e-07
4.5334759e-07
8.4634599e-07
1.5693203e-06
2.8776867e-06
5.1537884e-06
8.7771082e-06
1.0463974e-05
1.1400152e-05
1.2089837e-05
1.2657435e-05
1.3226499e-05
1.3851956e-05
1.4630304e-05
1.5655961e-05
1.7036029e-05
1.8960781e-05
2.1782056e-05
2.5633804e-05
2.3744404e-05
2.1630313e-05
1.9414004e-05
1.7754264e-05
1.675374e-05
1.7572132e-05
2.0858399e-05
2.8301256e-05
3.911235e-05
4.9852348e-05
6.0197009e-05
7.2734862e-05
8.3801042e-05
9.6090976e-05
0.0001124128
0.00013540443
0.000168413
0.00021552945
0.00028240057
0.0002673663
0.00027472912
0.00031674581
0.00041104731
0.00060873912
0.00096683209
2.8280823e-19
5.5002689e-17
1.46506e-15
1.4854214e-14
8.9853653e-14
3.9824149e-13
1.4387542e-12
4.5050365e-12
1.2701706e-11
3.3070059e-11
8.0910607e-11
1.8837724e-10
4.2125451e-10
9.1121549e-10
1.9170531e-09
3.9396462e-09
7.9358357e-09
1.5713342e-08
3.0655925e-08
5.905053e-08
1.1251373e-07
2.1243024e-07
3.9806171e-07
7.4118473e-07
1.3713415e-06
2.5134818e-06
4.5186192e-06
7.78929e-06
1.1029984e-05
1.2078492e-05
1.2822351e-05
1.339567e-05
1.3927352e-05
1.4456819e-05
1.5080512e-05
1.5870025e-05
1.6893966e-05
1.8255159e-05
2.016735e-05
2.0373141e-05
1.7783376e-05
1.5046085e-05
1.2469822e-05
1.05636e-05
9.555728e-06
9.8489946e-06
1.2497677e-05
1.9335123e-05
3.0867297e-05
4.3566681e-05
5.4732474e-05
6.8654008e-05
8.1905428e-05
9.5290667e-05
0.00011312989
0.00013806144
0.00017348778
0.0002234445
0.00026612205
0.00025672828
0.00027034603
0.00031620193
0.00041259254
0.00061167007
0.00096873349
2.4559372e-19
4.7764909e-17
1.2722719e-15
1.2899477e-14
7.8028551e-14
3.4582484e-13
1.249348e-12
3.9117978e-12
1.1028424e-11
2.8711021e-11
7.0237024e-11
1.6349893e-10
3.6553412e-10
7.9042766e-10
1.6621898e-09
3.4138208e-09
6.8710895e-09
1.3590685e-08
2.6478515e-08
5.091575e-08
9.6806679e-08
1.8230554e-07
3.4060104e-07
6.3217956e-07
1.1662869e-06
2.1347099e-06
3.8481016e-06
6.7083813e-06
1.0928976e-05
1.3048611e-05
1.3891934e-05
1.4494558e-05
1.4992918e-05
1.5419212e-05
1.587063e-05
1.6404492e-05
1.7056514e-05
1.7872157e-05
1.8625053e-05
1.5906629e-05
1.303265e-05
1.0211809e-05
7.7916044e-06
6.1373851e-06
5.3321581e-06
5.4401291e-06
7.224023e-06
1.3085353e-05
2.4554295e-05
3.9267595e-05
5.2196187e-05
6.7029613e-05
8.2377878e-05
9.6825003e-05
0.00011604558
0.00014284419
0.00018068019
0.00023356344
0.00024753717
0.00024668378
0.00026645908
0.00031638295
0.00041528637
0.00061658913
0.00097091763
2.0767795e-19
4.0390757e-17
1.0758517e-15
1.0907924e-14
6.5980898e-14
2.9242301e-13
1.05639e-12
3.307474e-12
9.3240417e-12
2.4271607e-11
5.9368938e-11
1.3817501e-10
3.088403e-10
6.6760398e-10
1.403245e-09
2.8801663e-09
5.7920561e-09
1.1443526e-08
2.2262613e-08
4.2728882e-08
8.105065e-08
1.521978e-07
2.8339405e-07
5.2403345e-07
9.6321317e-07
1.7585311e-06
3.1730973e-06
5.5812088e-06
9.3004925e-06
1.4036336e-05
1.5502787e-05
1.6172302e-05
1.6658252e-05
1.6988068e-05
1.7265806e-05
1.7544907e-05
1.7835013e-05
1.7900902e-05
1.5275706e-05
1.2423247e-05
9.5868157e-06
7.0219113e-06
5.028496e-06
3.8539741e-06
3.3204656e-06
3.445273e-06
4.6055603e-06
8.8856596e-06
2.0012277e-05
3.5785845e-05
5.0823328e-05
6.6963377e-05
8.4378279e-05
0.00010013677
0.00012085603
0.00014961181
0.00018996632
0.00023669864
0.00023029166
0.00023759673
0.00026327326
0.00031739234
0.00041908507
0.00062343518
0.00097337915
1.7055511e-19
3.3170811e-17
8.8353846e-16
8.9580163e-15
5.4185342e-14
2.4014018e-13
8.6748465e-13
2.7158854e-12
7.6557537e-12
1.9926882e-11
4.8735036e-11
1.134047e-10
2.5341099e-10
5.4759559e-10
1.1504546e-09
2.3598017e-09
4.7415084e-09
9.3571835e-09
1.8176313e-08
3.4817864e-08
6.5880684e-08
1.2333045e-07
2.2879163e-07
4.2126666e-07
7.7085688e-07
1.4020018e-06
2.527114e-06
4.4710062e-06
7.5938384e-06
1.191658e-05
1.6465272e-05
1.8901419e-05
1.944664e-05
1.9706658e-05
1.9806542e-05
1.976138e-05
1.7827788e-05
1.5405646e-05
1.2683737e-05
9.904113e-06
7.2895628e-06
5.0968932e-06
3.5950626e-06
2.7915193e-06
2.4479544e-06
2.5813686e-06
3.4471667e-06
6.5573277e-06
1.7043172e-05
3.3512972e-05
5.0561397e-05
6.83513e-05
8.7697445e-05
0.00010478579
0.00012715375
0.00015804333
0.00020114636
0.0002118216
0.00021495167
0.00022976529
0.00026099068
0.00031926843
0.00042381342
0.00063194156
0.00097605816
1.3565707e-19
2.6383563e-17
7.0275081e-16
7.1249831e-15
4.3096987e-14
1.9099353e-13
6.8992003e-13
2.1598552e-12
6.0879169e-12
1.5844421e-11
3.8745342e-11
9.0142601e-11
2.0138055e-10
4.3501797e-10
9.1352471e-10
1.8726641e-09
3.7595914e-09
7.4111385e-09
1.4374751e-08
2.7481972e-08
5.1868728e-08
9.6789071e-08
1.7884671e-07
3.2776703e-07
5.9665847e-07
1.079732e-06
1.9400292e-06
3.4400593e-06
5.925089e-06
9.6078983e-06
1.4016025e-05
1.7793859e-05
1.9909728e-05
2.0277741e-05
1.9561095e-05
1.8101584e-05
1.6004393e-05
1.3501462e-05
1.0825423e-05
8.2213149e-06
5.8971325e-06
4.0677166e-06
2.9131328e-06
2.3162102e-06
2.1069013e-06
2.2202196e-06
2.9026612e-06
5.4565752e-06
1.5594695e-05
3.2795139e-05
5.1428558e-05
7.106427e-05
9.1954717e-05
0.00011033502
0.00013453432
0.00016782165
0.00018807
0.00019057709
0.00020188492
0.0002233949
0.00025977088
0.00032193185
0.00042943091
0.00064179611
0.00097887855
1.0422109e-19
2.0269652e-17
5.3989926e-16
5.4738274e-15
3.3109047e-14
1.4672573e-13
5.2999097e-13
1.6590889e-12
4.6760678e-12
1.2168725e-11
2.9753035e-11
6.9209696e-11
1.5458067e-10
3.3382015e-10
7.0072532e-10
1.4356446e-09
2.8800585e-09
5.6715584e-09
1.0985463e-08
2.0963414e-08
3.9468993e-08
7.3416855e-08
1.3511453e-07
2.4640393e-07
4.4598885e-07
8.0220589e-07
1.4340096e-06
2.5394327e-06
4.4094377e-06
7.3363093e-06
1.1244267e-05
1.521526e-05
1.7910288e-05
1.8729992e-05
1.8182926e-05
1.6690894e-05
1.4573968e-05
1.212372e-05
9.6019789e-06
7.2191397e-06
5.1618874e-06
3.6191016e-06
2.6659946e-06
2.1556064e-06
1.9768717e-06
2.0436083e-06
2.6342546e-06
4.9736347e-06
1.5106511e-05
3.298338e-05
5.3166719e-05
7.4748297e-05
9.6598351e-05
0.00011633965
0.00014263692
0.00015947868
0.00016325761
0.00017314023
0.0001912423
0.00021857555
0.00025962734
0.00032529497
0.0004359129
0.00065281538
0.00098156674
7.7149442e-20
1.5004552e-17
3.9965739e-16
4.0519289e-15
2.4508077e-14
1.086065e-13
3.9228276e-13
1.2279341e-12
3.4606142e-12
9.0048241e-12
2.2014446e-11
5.1200597e-11
1.1433401e-10
2.4684178e-10
5.1796859e-10
1.0607207e-09
2.1265806e-09
4.1841557e-09
8.0948173e-09
1.5421983e-08
2.8971199e-08
5.372907e-08
9.849593e-08
1.7873591e-07
3.2157067e-07
5.7448334e-07
1.0200023e-06
1.7979441e-06
3.1283303e-06
5.2929524e-06
8.4566681e-06
1.2218157e-05
1.5407401e-05
1.6940419e-05
1.6786063e-05
1.5542326e-05
1.359862e-05
1.1268692e-05
8.9095785e-06
6.7174047e-06
4.8969064e-06
3.5665617e-06
2.6957139e-06
2.1630041e-06
1.9167459e-06
1.9444984e-06
2.4983227e-06
4.795817e-06
1.5415583e-05
3.4463072e-05
5.5943088e-05
7.9297202e-05
0.00010120385
0.00012254944
0.00013118213
0.00013463729
0.00014410757
0.00015946668
0.000183039
0.00021527618
0.00026045932
0.00032932785
0.00044320714
0.00066480757
0.00098421031
5.4936819e-20
1.0684479e-17
2.8458794e-16
2.8852666e-15
1.7451182e-14
7.7331764e-14
2.7930723e-13
8.7424429e-13
2.4636503e-12
6.4100545e-12
1.5669176e-11
3.6438029e-11
8.1354874e-11
1.7560533e-10
3.6839126e-10
7.5415237e-10
1.5112654e-09
2.9716031e-09
5.7438082e-09
1.0928905e-08
2.0493279e-08
3.7909184e-08
6.9252214e-08
1.2508718e-07
2.2372645e-07
3.9686761e-07
6.9920186e-07
1.2238555e-06
2.1230026e-06
3.6187707e-06
5.9448575e-06
9.0980624e-06
1.2415564e-05
1.471847e-05
1.5301859e-05
1.4484254e-05
1.289053e-05
1.0840251e-05
8.6589448e-06
6.6965302e-06
5.0169315e-06
3.7626488e-06
2.9524696e-06
2.3056257e-06
1.9315316e-06
1.9380865e-06
2.5331335e-06
5.1601206e-06
1.7000293e-05
3.7270347e-05
5.9812467e-05
8.440469e-05
0.00010560186
0.00010536888
0.00010874099
0.00011649988
0.00012995592
0.00014940599
0.00017719908
0.00021338841
0.00026215217
0.00033393055
0.00045105015
0.00067753381
0.00098673943
3.7593971e-20
7.3115216e-18
1.9474642e-16
1.9743971e-15
1.1941656e-14
5.2915589e-14
1.911122e-13
5.9815528e-13
1.6855024e-12
4.3850591e-12
1.071809e-11
2.492169e-11
5.5635368e-11
1.2007208e-10
2.5184893e-10
5.154664e-10
1.0326806e-09
2.0298084e-09
3.9212743e-09
7.4549261e-09
1.3961283e-08
2.5776417e-08
4.6955214e-08
8.4474794e-08
1.5027576e-07
2.6474373e-07
4.6262546e-07
8.0278892e-07
1.3828725e-06
2.3554677e-06
3.9241886e-06
6.2496534e-06
9.1726383e-06
1.191357e-05
1.3441004e-05
1.3479749e-05
1.2277668e-05
1.0647062e-05
8.7615299e-06
6.8626622e-06
5.3390124e-06
4.2217147e-06
3.4131182e-06
2.5299151e-06
1.9838717e-06
2.0081552e-06
2.7574611e-06
6.3811848e-06
2.0226075e-05
4.1341268e-05
6.4706396e-05
8.6738232e-05
8.349425e-05
8.6199525e-05
9.2955329e-05
0.00010370589
0.00012010123
0.00014266415
0.00017357057
0.00021278707
0.00026456705
0.0003388899
0.00045917801
0.00069057413
0.00098917822
2.4723899e-20
4.8084648e-18
1.2807572e-16
1.2984563e-15
7.8532293e-15
3.4797899e-14
1.2567189e-13
3.9331352e-13
1.1082168e-12
2.8829493e-12
7.0459877e-12
1.6381854e-11
3.6567687e-11
7.8913552e-11
1.6550712e-10
3.38726e-10
6.7855897e-10
1.3336506e-09
2.5760232e-09
4.895877e-09
9.1630497e-09
1.6898073e-08
3.0722618e-08
5.5103632e-08
9.758792e-08
1.7086277e-07
2.9620775e-07
5.0920501e-07
8.6873172e-07
1.4692439e-06
2.4505362e-06
3.9793727e-06
6.1415491e-06
8.6903922e-06
1.0936747e-05
1.1939418e-05
1.1291344e-05
9.2868368e-06
7.4776905e-06
5.9872689e-06
4.9756612e-06
4.8432383e-06
3.8183959e-06
2.577917e-06
1.9759763e-06
2.0801527e-06
3.0804239e-06
8.4887002e-06
2.4388541e-05
4.663488e-05
7.0215667e-05
6.6818654e-05
6.7851089e-05
7.3240441e-05
8.2231046e-05
9.5198843e-05
0.00011391585
0.0001388228
0.00017192027
0.00021332726
0.000267529
0.00034398549
0.0004673415
0.00070311093
0.00099141612
1.5662541e-20
3.0461517e-18
8.1135411e-17
8.2255797e-16
4.9748306e-15
2.2042897e-14
7.9603906e-14
2.4912141e-13
7.0188979e-13
1.8257885e-12
4.4619395e-12
1.0373249e-11
2.3153917e-11
4.9964766e-11
1.0479251e-10
2.1447974e-10
4.2971336e-10
8.4473451e-10
1.6320959e-09
3.102836e-09
5.8086245e-09
1.0711619e-08
1.9461873e-08
3.484555e-08
6.1508312e-08
1.0715122e-07
1.8445199e-07
3.1422386e-07
5.3041789e-07
8.8747701e-07
1.4689758e-06
2.3903215e-06
3.7722075e-06
5.6383732e-06
7.7463162e-06
9.0095005e-06
8.4413168e-06
7.4669579e-06
6.3194079e-06
5.3322562e-06
4.6927829e-06
4.9326382e-06
3.7990994e-06
2.3478855e-06
1.9056346e-06
2.2169692e-06
3.8008048e-06
1.2302288e-05
3.0339613e-05
5.3093591e-05
5.4321536e-05
5.3789142e-05
5.7682375e-05
6.4903254e-05
7.5468141e-05
9.0180714e-05
0.00011076019
0.00013737119
0.00017194241
0.00021483407
0.00027089317
0.00034910973
0.00047528909
0.00071424052
0.00099345821
9.6033156e-21
1.8677126e-18
4.9747057e-17
5.0433512e-16
3.0501546e-15
1.3514435e-14
4.8802772e-14
1.5272067e-13
4.3025811e-13
1.1191347e-12
2.7348158e-12
6.3576404e-12
1.4190301e-11
3.062196e-11
6.4228291e-11
1.3147567e-10
2.634811e-10
5.1815913e-10
1.0016835e-09
1.9057038e-09
3.5705636e-09
6.5903324e-09
1.1983468e-08
2.1464521e-08
3.7868766e-08
6.5800767e-08
1.126679e-07
1.9034061e-07
3.1790214e-07
5.2544901e-07
8.5918677e-07
1.3857481e-06
2.1885945e-06
3.3388282e-06
4.8179203e-06
6.1439136e-06
6.1259921e-06
5.805548e-06
5.2770103e-06
4.626827e-06
4.3121932e-06
4.6839279e-06
3.015886e-06
1.9380654e-06
1.8546927e-06
2.5237956e-06
5.7741959e-06
1.7261709e-05
3.7470451e-05
4.6177745e-05
4.3690222e-05
4.5949462e-05
5.1592135e-05
6.0075635e-05
7.1836953e-05
8.7992481e-05
0.00010997303
0.00013777449
0.00017329964
0.00021713108
0.00027458003
0.00035424133
0.00048271061
0.00072320319
0.00099511689
5.7485483e-21
1.1180129e-18
2.9778501e-17
3.0189129e-16
1.8257626e-15
8.0892156e-15
2.9210196e-14
9.1404034e-14
2.5749662e-13
6.6972864e-13
1.636517e-12
3.8042601e-12
8.4910092e-12
1.832373e-11
3.8437147e-11
7.869715e-11
1.5776641e-10
3.1042904e-10
6.0057393e-10
1.1437886e-09
2.1458588e-09
3.966829e-09
7.2248883e-09
1.2960544e-08
2.2890144e-08
3.9790306e-08
6.8074128e-08
1.1462416e-07
1.8995313e-07
3.1006678e-07
4.9957195e-07
7.9401064e-07
1.2399227e-06
1.886486e-06
2.7584765e-06
3.8042528e-06
4.1545417e-06
4.1143887e-06
3.9489276e-06
3.7223532e-06
3.7373953e-06
3.1424949e-06
1.9520505e-06
1.6126083e-06
1.9336807e-06
3.3352513e-06
9.4730868e-06
2.4709076e-05
4.4190061e-05
3.6663969e-05
3.7653565e-05
4.1711202e-05
4.8537065e-05
5.7937508e-05
7.0674446e-05
8.7985038e-05
0.0001109174
0.00013953167
0.00017566735
0.0002200671
0.00027855678
0.00035937399
0.00048910981
0.00072989071
0.00099628164
3.4091666e-21
6.6303561e-19
1.7660052e-17
1.7903428e-16
1.0827339e-15
4.7970136e-15
1.7321358e-14
5.4199149e-14
1.5267796e-13
3.970831e-13
9.7025e-13
2.2553866e-12
5.0339722e-12
1.0863945e-11
2.2791881e-11
4.6675858e-11
9.3609831e-11
1.843051e-10
3.5688851e-10
6.8054079e-10
1.278862e-09
2.3689349e-09
4.3248012e-09
7.7773943e-09
1.3766835e-08
2.3967622e-08
4.1012291e-08
6.8983216e-08
1.1407354e-07
1.8539432e-07
2.957359e-07
4.6264893e-07
7.0931803e-07
1.0624934e-06
1.5400394e-06
2.1300695e-06
2.5888437e-06
2.6537673e-06
2.6062032e-06
2.643151e-06
2.4573181e-06
1.7177763e-06
1.3913048e-06
1.5502314e-06
2.4785191e-06
5.563656e-06
1.5146814e-05
3.3601941e-05
3.3401363e-05
3.1915802e-05
3.4948033e-05
4.0208371e-05
4.774122e-05
5.7853233e-05
7.1371232e-05
8.9508058e-05
0.00011303234
0.00014221731
0.00017875861
0.00022353272
0.00028279892
0.00036439799
0.00049370637
0.00073481743
0.00099705917
2.0481964e-21
3.9834573e-19
1.0609982e-17
1.0756136e-16
6.5048218e-16
2.8818702e-15
1.0405721e-14
3.2558733e-14
9.1714008e-14
2.3852105e-13
5.8279999e-13
1.3547408e-12
3.0238477e-12
6.5263937e-12
1.3694194e-11
2.8052307e-11
5.6284332e-11
1.1088916e-10
2.1493025e-10
4.1038815e-10
7.7256471e-10
1.4343271e-09
2.6256902e-09
4.7360295e-09
8.4073374e-09
1.466552e-08
2.5114677e-08
4.2187094e-08
6.9508185e-08
1.1241798e-07
1.7844297e-07
2.7764401e-07
4.2108132e-07
6.1950353e-07
8.7933524e-07
1.194778e-06
1.5260775e-06
1.5834847e-06
1.6175989e-06
1.5490219e-06
1.2535149e-06
1.1248971e-06
1.2552517e-06
2.0599031e-06
3.74343e-06
9.6970836e-06
2.3953465e-05
3.401283e-05
2.8279034e-05
3.0317633e-05
3.4532548e-05
4.0575341e-05
4.8613234e-05
5.9257818e-05
7.3329675e-05
9.2006145e-05
0.00011588075
0.00014550312
0.00018234665
0.00022746759
0.00028727496
0.00036915496
0.0004958813
0.00073783564
0.00099756156
1.2830544e-21
2.4953622e-19
6.6464247e-18
6.7379728e-17
4.0747985e-16
1.8052672e-15
6.518314e-15
2.0395186e-14
5.7450762e-14
1.4941427e-13
3.6508893e-13
8.4871522e-13
1.8945718e-12
4.0897474e-12
8.5835934e-12
1.7589864e-11
3.5311285e-11
6.9621424e-11
1.3508459e-10
2.5829789e-10
4.8717098e-10
9.0667677e-10
1.6647866e-09
3.0134903e-09
5.3702979e-09
9.40563e-09
1.6157775e-08
2.7175371e-08
4.4669895e-08
7.1701783e-08
1.1238956e-07
1.7216785e-07
2.5763043e-07
3.7422253e-07
5.218535e-07
6.8818602e-07
8.4721903e-07
9.010614e-07
8.7369804e-07
8.3643278e-07
8.2483849e-07
1.0102775e-06
1.7856905e-06
3.0179313e-06
6.4872794e-06
1.6170947e-05
3.3999135e-05
2.8332282e-05
2.7643907e-05
3.1244389e-05
3.5881654e-05
4.2274942e-05
5.0615488e-05
6.161343e-05
7.6054749e-05
9.5077496e-05
0.00011916148
0.00014916486
0.00018627876
0.00023186531
0.0002920082
0.00037367395
0.00049616976
0.00073870163
0.0009979618
8.5888673e-22
1.6704162e-19
4.449184e-18
4.5104939e-17
2.727751e-16
1.2084981e-15
4.3636427e-15
1.3653882e-14
3.8463255e-14
1.0004008e-13
2.4447016e-13
5.6839794e-13
1.2690798e-12
2.7402712e-12
5.7534366e-12
1.179606e-11
2.3696081e-11
4.6761512e-11
9.0835522e-11
1.7395233e-10
3.2873341e-10
6.133402e-10
1.129696e-09
2.052631e-09
3.674078e-09
6.4649547e-09
1.1154144e-08
1.8808327e-08
3.0905103e-08
4.9366965e-08
7.6525032e-08
1.1490168e-07
1.6694296e-07
2.3378048e-07
3.1307399e-07
3.9457402e-07
4.5687839e-07
4.9822594e-07
5.2719202e-07
6.0822324e-07
8.5121618e-07
1.5655315e-06
2.5795865e-06
4.8085795e-06
1.1530332e-05
2.5863149e-05
3.1661656e-05
2.7520228e-05
2.96997e-05
3.3355831e-05
3.8218248e-05
4.4738046e-05
5.3260426e-05
6.4502075e-05
7.9207529e-05
9.846415e-05
0.00012268852
0.00015306648
0.00019048488
0.00023676159
0.00029719898
0.00037840402
0.00049630942
0.00073908876
0.00099838712
6.1786224e-22
1.2016579e-19
3.2006482e-18
3.2447809e-17
1.9623347e-16
8.6941233e-16
3.1393954e-15
9.8237355e-15
2.7675703e-14
7.1989549e-14
1.7594526e-13
4.0914545e-13
9.1371265e-13
1.9735025e-12
4.1450566e-12
8.5024538e-12
1.7090127e-11
3.3751342e-11
6.5627036e-11
1.2583306e-10
2.3816819e-10
4.4522582e-10
8.2198365e-10
1.4976847e-09
2.6891218e-09
4.7470816e-09
8.2095324e-09
1.3852483e-08
2.2705732e-08
3.6004606e-08
5.5049515e-08
8.0954633e-08
1.1424387e-07
1.5426916e-07
1.9870176e-07
2.4522186e-07
2.9951118e-07
3.8293575e-07
5.256518e-07
7.9479093e-07
1.3643372e-06
2.1759824e-06
3.8374509e-06
8.6179155e-06
1.9660213e-05
3.7315018e-05
3.0207195e-05
2.9998054e-05
3.2685182e-05
3.609265e-05
4.1030278e-05
4.7606578e-05
5.6249364e-05
6.7683994e-05
8.2593823e-05
0.00010201633
0.00012635832
0.00015713223
0.0001949692
0.00024221669
0.0003033146
0.00038399875
0.00049874121
0.00073679117
0.00099894
4.7809454e-22
9.298291e-20
2.4766285e-18
2.5107904e-17
1.5184584e-16
6.7276506e-16
2.4293778e-15
7.6022318e-15
2.1418213e-14
5.5715991e-14
1.3618235e-13
3.1671063e-13
7.0737123e-13
1.5280675e-12
3.210116e-12
6.5863291e-12
1.3242912e-11
2.6164182e-11
5.0901069e-11
9.7663309e-11
1.8501037e-10
3.462373e-10
6.4012976e-10
1.168389e-09
2.1022964e-09
3.7201793e-09
6.4497935e-09
1.0905152e-08
1.788963e-08
2.8337921e-08
4.3206252e-08
6.3360753e-08
8.974429e-08
1.2369448e-07
1.6878687e-07
2.3538337e-07
3.0907354e-07
4.7821327e-07
7.163595e-07
1.1616659e-06
1.8129704e-06
3.1943828e-06
6.8029338e-06
1.5116774e-05
3.0883167e-05
3.6009985e-05
3.2759602e-05
3.357523e-05
3.5679732e-05
3.9145896e-05
4.4036892e-05
5.0648787e-05
5.9412716e-05
7.1022519e-05
8.6097841e-05
0.00010564276
0.00013011414
0.00016131627
0.00019978015
0.00024826902
0.00031098236
0.00039100453
0.00050589101
0.00072783335
0.00098639437
4.1296152e-22
8.0315414e-20
2.139226e-18
2.1687341e-17
1.3115926e-16
5.8111249e-16
2.0984248e-15
6.5666319e-15
1.85008e-14
4.8127866e-14
1.1763935e-13
2.7360085e-13
6.1113409e-13
1.3203282e-12
2.7741677e-12
5.6932397e-12
1.1451116e-11
2.2635086e-11
4.4065715e-11
8.4631006e-11
1.6054494e-10
3.0104052e-10
5.581011e-10
1.0225676e-09
1.8495633e-09
3.2958271e-09
5.7685191e-09
9.8728979e-09
1.6442136e-08
2.6538291e-08
4.1438401e-08
6.2691661e-08
9.2479009e-08
1.3547688e-07
2.0041971e-07
2.7646135e-07
4.1973786e-07
6.1653879e-07
9.7599155e-07
1.5274452e-06
2.6852767e-06
5.5411824e-06
1.1834907e-05
2.4809385e-05
4.4092537e-05
3.765613e-05
3.6021088e-05
3.6916949e-05
3.887274e-05
4.2290935e-05
4.7133543e-05
5.3782087e-05
6.2665945e-05
7.4433472e-05
8.9640789e-05
0.00010928013
0.00013391979
0.00016558289
0.00020494605
0.00025487943
0.00032070919
0.0003999804
0.0005217257
0.00070330436
0.00090326069
4.1088816e-22
7.9912161e-20
2.1284827e-18
2.1578312e-17
1.3049824e-16
5.7817202e-16
2.0877505e-15
6.5330234e-15
1.8405496e-14
4.7878385e-14
1.1702626e-13
2.7216979e-13
6.0793521e-13
1.3134425e-12
2.7598485e-12
5.6644471e-12
1.1395253e-11
2.2531202e-11
4.3883327e-11
8.4338924e-11
1.6015628e-10
3.007762e-10
5.5888884e-10
1.0274381e-09
1.8672632e-09
3.3494718e-09
5.9147674e-09
1.0245167e-08
1.7336828e-08
2.8566575e-08
4.5748066e-08
7.1330322e-08
1.0879029e-07
1.6479867e-07
2.4514181e-07
3.4934989e-07
5.1838607e-07
8.2073303e-07
1.2980222e-06
2.2759346e-06
4.5720584e-06
9.5032823e-06
2.004437e-05
3.7169426e-05
4.5237073e-05
4.0446302e-05
3.9836839e-05
4.001377e-05
4.1997396e-05
4.5299065e-05
5.0169786e-05
5.6925195e-05
6.5946323e-05
7.7849985e-05
9.3156533e-05
0.00011287908
0.00013774251
0.00016989066
0.00021040529
0.00026188616
0.00033252877
0.00041168498
0.00055402937
0.0007319277
0.00098495562
4.5958045e-22
8.9382072e-20
2.3807045e-18
2.4134913e-17
1.4595467e-16
6.4661596e-16
2.3347195e-15
7.3051307e-15
2.0578324e-14
5.3523161e-14
1.3080261e-13
3.0415486e-13
6.7924251e-13
1.4671772e-12
3.082144e-12
6.3243467e-12
1.2719533e-11
2.5143559e-11
4.8961668e-11
9.4088923e-11
1.7868127e-10
3.3567085e-10
6.2415619e-10
1.1490454e-09
2.0937215e-09
3.7718817e-09
6.7042112e-09
1.1720342e-08
2.0069476e-08
3.3489892e-08
5.4230956e-08
8.5071411e-08
1.3050581e-07
1.9835213e-07
2.9535515e-07
4.384462e-07
6.9606262e-07
1.1162557e-06
1.9491624e-06
3.80571e-06
7.7916723e-06
1.6384146e-05
3.1501893e-05
5.0709257e-05
4.5797064e-05
4.3286992e-05
4.2292199e-05
4.3036283e-05
4.4989697e-05
4.8282427e-05
5.3185245e-05
6.0028714e-05
6.9179927e-05
8.1200874e-05
9.6585004e-05
0.00011640164
0.00014154173
0.00017418679
0.00021597037
0.00026895262
0.00034544463
0.00042547505
0.00060537025
0.0008280823
0.00098983808
5.7498727e-22
1.11827e-19
2.9785133e-18
3.0194809e-17
1.8259489e-16
8.088937e-16
2.920412e-15
9.1367542e-15
2.573467e-14
6.6924471e-14
1.6352486e-13
3.8016782e-13
8.4880298e-13
1.8329615e-12
3.8494507e-12
7.8962722e-12
1.5875351e-11
3.1369685e-11
6.1060094e-11
1.1730217e-10
2.2275222e-10
4.1861176e-10
7.7913109e-10
1.4364233e-09
2.6217257e-09
4.7305038e-09
8.4163877e-09
1.4708429e-08
2.5126348e-08
4.1740147e-08
6.7237712e-08
1.0518609e-07
1.6215061e-07
2.4566589e-07
3.7831378e-07
6.0151837e-07
9.7169153e-07
1.6895816e-06
3.2052853e-06
6.4705118e-06
1.3515721e-05
2.6446319e-05
4.3814996e-05
5.1415756e-05
4.6913824e-05
4.5501089e-05
4.5075581e-05
4.5723215e-05
4.7618157e-05
5.1001976e-05
5.6048328e-05
6.3032599e-05
7.2311888e-05
8.4426261e-05
9.9877395e-05
0.00011981531
0.00014527076
0.00017841648
0.00022138434
0.00027575379
0.00035812863
0.00044079107
0.00069389362
0.00098770774
0.00099092933
7.8643777e-22
1.5295113e-19
4.0738443e-18
4.1298383e-17
2.497358e-16
1.1062923e-15
3.9939592e-15
1.249475e-14
3.5190528e-14
9.150806e-14
2.2357401e-13
5.1972323e-13
1.1602699e-12
2.5052838e-12
5.2607731e-12
1.078985e-11
2.1689683e-11
4.2855572e-11
8.3423553e-11
1.6027752e-10
3.0434434e-10
5.7173688e-10
1.0631386e-09
1.9566286e-09
3.5610034e-09
6.3969628e-09
1.1309003e-08
1.9593388e-08
3.312585e-08
5.4504919e-08
8.7290424e-08
1.3663673e-07
2.1179446e-07
3.3260788e-07
5.3055949e-07
8.5833203e-07
1.4785089e-06
2.7404052e-06
5.4365326e-06
1.1221144e-05
2.213989e-05
3.7978929e-05
5.6103689e-05
5.0208735e-05
4.8609109e-05
4.7244622e-05
4.6992601e-05
4.7824852e-05
4.9949766e-05
5.3504639e-05
5.8698871e-05
6.5844017e-05
7.526207e-05
8.7464859e-05
0.0001029935
0.00012309113
0.00014888881
0.00018252059
0.00022642383
0.000282027
0.00036898748
0.0004546847
0.00088036684
0.00099260642
0.0009915143
1.130374e-21
2.1984189e-19
5.8554719e-18
5.9359432e-17
3.5895178e-16
1.5900948e-15
5.7405547e-15
1.7958679e-14
5.057884e-14
1.3152207e-13
3.213342e-13
7.4697207e-13
1.6675855e-12
3.6006648e-12
7.5608556e-12
1.5507051e-11
3.1172277e-11
6.1587167e-11
1.1985413e-10
2.301477e-10
4.3661864e-10
8.1899286e-10
1.5192658e-09
2.7858131e-09
5.0424425e-09
8.9898753e-09
1.5735667e-08
2.694853e-08
4.5036498e-08
7.3413292e-08
1.1700597e-07
1.8425776e-07
2.9350569e-07
4.7230413e-07
7.6536067e-07
1.3043348e-06
2.3703048e-06
4.6156566e-06
9.3677249e-06
1.8502628e-05
3.2823471e-05
4.9686517e-05
5.2316291e-05
5.0623026e-05
4.8889509e-05
4.8259644e-05
4.8405564e-05
4.9577693e-05
5.1970173e-05
5.5756626e-05
6.1139804e-05
6.8445438e-05
7.7986827e-05
9.027354e-05
0.00010590606
0.00012620908
0.00015236812
0.00018644015
0.00023104049
0.00028764535
0.00037729832
0.00046482108
0.0009959581
0.00099216618
0.00099251417
1.6614338e-21
3.2312555e-19
8.6064267e-18
8.7247153e-17
5.2759306e-16
2.3371594e-15
8.4376669e-15
2.6396539e-14
7.4344077e-14
1.933222e-13
4.7233057e-13
1.0979923e-12
2.4512505e-12
5.2927813e-12
1.1113931e-11
2.2793441e-11
4.5813878e-11
9.0491414e-11
1.7602108e-10
3.377255e-10
6.3984172e-10
1.1975463e-09
2.2136554e-09
4.0374492e-09
7.2539955e-09
1.2812424e-08
2.218761e-08
3.7573986e-08
6.2153952e-08
1.0074685e-07
1.6169126e-07