/*--------------------------------*- C++ -*----------------------------------*\
  =========                 |
  \\      /  F ield         | OpenFOAM: The Open Source CFD Toolbox
   \\    /   O peration     | Website:  https://openfoam.org
    \\  /    A nd           | Version:  13
     \\/     M anipulation  |
\*---------------------------------------------------------------------------*/
FoamFile
{
    format      ascii;
    class       volScalarField;
    location    "1.798257";
    object      p;
}
// * * * * * * * * * * * * * * * * * * * * * * * * * * * * * * * * * * * * * //

dimensions      [0 2 -2 0 0 0 0];

internalField   nonuniform List<scalar> 
17140
(
-0.36649748
-0.36666774
-0.36687313
-0.36708141
-0.36730636
-0.36755129
-0.36781664
-0.3681032
-0.36841184
-0.36874327
-0.36909805
-0.36947659
-0.36987938
-0.37030718
-0.37076146
-0.37124513
-0.37176352
-0.37232571
-0.37294634
-0.37364769
-0.37446208
-0.37543425
-0.37662346
-0.37810506
-0.3799717
-0.38233317
-0.38530549
-0.3890101
-0.39358903
-0.39919441
-0.40597351
-0.41406687
-0.42359265
-0.43462484
-0.44715917
-0.46105743
-0.47597801
-0.49128464
-0.5058207
-0.51782123
-0.52507164
-0.52294922
-0.50859346
-0.47709175
-0.42306779
-0.34703327
-0.25207369
-0.15032637
-0.055671025
0.01811582
0.066282289
0.089863227
0.096189075
0.091810433
0.082452849
0.071165827
0.059648513
0.048620108
0.038479414
0.029337165
0.021544899
0.014843212
0.009771242
0.0052384545
0.0026419574
-0.36980476
-0.36997204
-0.37017365
-0.37037844
-0.37059967
-0.3708406
-0.37110165
-0.3713836
-0.37168729
-0.37201341
-0.37236245
-0.37273479
-0.37313084
-0.37355125
-0.37399739
-0.374472
-0.3749802
-0.37553086
-0.37613832
-0.37682459
-0.37762169
-0.37857411
-0.37974099
-0.38119768
-0.38303696
-0.38536903
-0.38831098
-0.39198543
-0.39653513
-0.40211375
-0.40887106
-0.41695046
-0.42647398
-0.43752056
-0.45009154
-0.46405549
-0.47907914
-0.49453223
-0.50926207
-0.52153306
-0.52934705
-0.52805452
-0.51377218
-0.48240142
-0.42877104
-0.35253162
-0.25696233
-0.15427798
-0.058725445
0.015830596
0.064420777
0.088230556
0.094709914
0.090492421
0.081319724
0.070228079
0.058900378
0.048042549
0.038046453
0.029020617
0.021315221
0.014674907
0.0096491101
0.0051443371
0.0025766036
-0.37769134
-0.37785147
-0.37804411
-0.37824054
-0.37845292
-0.37868429
-0.3789351
-0.37920609
-0.37949804
-0.37981155
-0.38014704
-0.38050477
-0.38088496
-0.38128806
-0.38171517
-0.38216864
-0.38265315
-0.38317698
-0.38375386
-0.3844051
-0.38516202
-0.38606855
-0.38718346
-0.38858207
-0.39035753
-0.3926209
-0.39549183
-0.39909577
-0.40357721
-0.40909359
-0.41580065
-0.42384871
-0.43336935
-0.44445391
-0.4571195
-0.47125542
-0.48655294
-0.50240629
-0.51772066
-0.53077593
-0.5392085
-0.53908898
-0.52624713
-0.49566883
-0.44247374
-0.3658074
-0.26872714
-0.16378057
-0.066068242
0.010350973
0.059968441
0.084348268
0.091209736
0.087387683
0.078656366
0.06802368
0.057137966
0.046677945
0.037020263
0.02826754
0.020768332
0.014276025
0.0093602545
0.00492357
0.0024209098
-0.39003032
-0.39017911
-0.39035756
-0.39054073
-0.39073903
-0.39095521
-0.39118974
-0.3914433
-0.3917166
-0.39201011
-0.39232412
-0.39265871
-0.39301387
-0.39338975
-0.39378701
-0.39420749
-0.39465518
-0.39513755
-0.39566735
-0.39626484
-0.39696034
-0.39779686
-0.39883264
-0.40014293
-0.40182145
-0.4039806
-0.40674394
-0.41024148
-0.41462046
-0.42004423
-0.42667794
-0.43468271
-0.44420485
-0.45535483
-0.46817435
-0.48258475
-0.49831598
-0.51480244
-0.53101428
-0.54530669
-0.55522343
-0.55691022
-0.54593566
-0.51690295
-0.46454365
-0.38726091
-0.28781079
-0.17921549
-0.078048096
0.001440916
0.052739492
0.078113453
0.085655094
0.08251722
0.07450911
0.064599844
0.054395362
0.044543309
0.035403244
0.027070784
0.019894088
0.013635823
0.0088954996
0.004569224
0.0021740952
-0.40646012
-0.40659348
-0.40675272
-0.40691779
-0.40709685
-0.40729228
-0.40750457
-0.40773432
-0.40798213
-0.40824835
-0.40853309
-0.40883622
-0.40915747
-0.40949661
-0.40985383
-0.41023032
-0.41062925
-0.41105709
-0.4115254
-0.41205315
-0.41266933
-0.41341585
-0.41435018
-0.41554754
-0.41710233
-0.41912873
-0.42175542
-0.42511853
-0.42936935
-0.43467904
-0.44122543
-0.44918434
-0.45872204
-0.46997522
-0.48301995
-0.49782261
-0.51416905
-0.53155827
-0.54903891
-0.56502428
-0.57704877
-0.58133463
-0.57312391
-0.54644067
-0.49538032
-0.41743874
-0.31480329
-0.20110947
-0.095134314
-0.011218822
0.042472598
0.069393402
0.078016378
0.075926445
0.068957937
0.060037395
0.050735884
0.041678589
0.03321383
0.025435528
0.018691776
0.012751125
0.0082516476
0.0040774346
0.001829302
-0.42636423
-0.42647833
-0.42661368
-0.42675604
-0.42691094
-0.4270803
-0.42726462
-0.42746444
-0.42768022
-0.42791216
-0.42816021
-0.42842403
-0.42870308
-0.42899676
-0.42930478
-0.42962769
-0.42996779
-0.43033051
-0.43072614
-0.4311722
-0.43169626
-0.4323389
-0.43315675
-0.43422494
-0.43563873
-0.43751433
-0.43998649
-0.44319887
-0.4473083
-0.45249531
-0.45895332
-0.46687654
-0.47645623
-0.48786211
-0.50121397
-0.51653556
-0.53368498
-0.5522483
-0.5713778
-0.58957719
-0.6044144
-0.61212891
-0.60765072
-0.58434982
-0.53532356
-0.45690039
-0.35035435
-0.2300117
-0.11779493
-0.027997323
0.028893205
0.05804853
0.06826901
0.067671437
0.062095922
0.054431542
0.046237387
0.038137961
0.030483996
0.023374384
0.017164061
0.011619316
0.0074248123
0.0034458254
0.0013899169
-0.44888343
-0.44897507
-0.44908352
-0.44919897
-0.44932513
-0.44946352
-0.44961462
-0.44977885
-0.44995655
-0.45014778
-0.45035234
-0.45056971
-0.45079913
-0.4510397
-0.45129072
-0.45155219
-0.45182568
-0.45211564
-0.45243117
-0.45278844
-0.45321352
-0.45374569
-0.45444069
-0.45537353
-0.45664043
-0.45835991
-0.46067244
-0.46373107
-0.46770077
-0.47277171
-0.47915413
-0.48706505
-0.49672492
-0.50834288
-0.52209134
-0.53806367
-0.55620756
-0.57621997
-0.59738311
-0.61833152
-0.63671415
-0.64876859
-0.64910173
-0.6303121
-0.58438819
-0.5059237
-0.39489937
-0.2662461
-0.14634765
-0.049148727
0.011838143
0.044009957
0.05643557
0.057833519
0.054027494
0.047884062
0.040984497
0.033983496
0.027257546
0.020911108
0.015322244
0.010244538
0.0064154228
0.002672014
0.0008476371
-0.4729374
-0.47300395
-0.47308316
-0.47316813
-0.47326166
-0.47336489
-0.47347822
-0.47360197
-0.47373633
-0.47388126
-0.47403643
-0.47420122
-0.47437471
-0.47455586
-0.47474371
-0.47493791
-0.47513952
-0.47535226
-0.47558433
-0.47585072
-0.47617628
-0.47659906
-0.47717395
-0.47797585
-0.47910205
-0.48067347
-0.48283493
-0.48575056
-0.48959712
-0.4945734
-0.50090594
-0.50883886
-0.51862486
-0.53051771
-0.54474989
-0.56149518
-0.5808064
-0.60251339
-0.62605662
-0.65024105
-0.67284242
-0.69011516
-0.69635861
-0.68336246
-0.64174523
-0.56398898
-0.4482492
-0.30974039
-0.18076415
-0.074632315
-0.0086402681
0.027351782
0.042624048
0.046534251
0.044868983
0.040497171
0.035061984
0.0292772
0.023578295
0.018075798
0.013181909
0.0086340042
0.00522656
0.0017587121
0.00021023201
-0.49727791
-0.49731733
-0.4973649
-0.4974168
-0.49747483
-0.49753973
-0.49761181
-0.49769127
-0.49777818
-0.4978724
-0.49797355
-0.49808094
-0.49819367
-0.49831065
-0.49843091
-0.49855402
-0.49868087
-0.49881486
-0.49896365
-0.49914152
-0.49937241
-0.49969348
-0.50015892
-0.50084355
-0.50184566
-0.5032886
-0.5053212
-0.50811696
-0.51186644
-0.51677911
-0.52309631
-0.53108841
-0.54104335
-0.55326225
-0.56804248
-0.58564515
-0.60623887
-0.62980297
-0.65596137
-0.68371744
-0.71101359
-0.7341462
-0.74714356
-0.74099139
-0.70490741
-0.62895858
-0.50882588
-0.35915663
-0.2198612
-0.10388495
-0.03218022
0.0083513074
0.027057464
0.03394943
0.034754194
0.032374899
0.028553174
0.024086825
0.0194912
0.014903038
0.010764285
0.0067997763
0.0038637297
0.00070646661
-0.0005304445
-0.52055762
-0.52056899
-0.52058376
-0.52060127
-0.52062225
-0.52064705
-0.52067584
-0.5207087
-0.52074561
-0.52078633
-0.52083045
-0.52087733
-0.52092616
-0.520976
-0.52102609
-0.52107621
-0.52112747
-0.52118339
-0.52125161
-0.52134621
-0.52149075
-0.52172185
-0.52209327
-0.52267981
-0.52358061
-0.52492118
-0.52685409
-0.52955874
-0.5332398
-0.53812185
-0.54445706
-0.55253723
-0.56268685
-0.57525289
-0.59059706
-0.60906847
-0.63095464
-0.65638836
-0.68518306
-0.71654981
-0.74861393
-0.77772882
-0.79771339
-0.798807
-0.76916063
-0.69640831
-0.57295164
-0.41164488
-0.26185136
-0.13568827
-0.058141208
-0.012530035
0.010067747
0.020304833
0.023834098
0.023624131
0.021535819
0.01847974
0.015047276
0.011429452
0.0080938961
0.0047572402
0.0023365522
-0.00047698425
-0.0013622309
-0.54143729
-0.54142104
-0.54140342
-0.54138683
-0.54137093
-0.54135563
-0.54134099
-0.54132694
-0.54131333
-0.54129988
-0.54128615
-0.54127159
-0.54125556
-0.54123742
-0.5412168
-0.54119398
-0.54117058
-0.54115069
-0.54114243
-0.54116017
-0.54122764
-0.54138146
-0.5416753
-0.5421841
-0.54300769
-0.54427339
-0.54613694
-0.54878224
-0.55242177
-0.55729666
-0.56366797
-0.57184097
-0.58216953
-0.59504507
-0.61088889
-0.63012833
-0.65315794
-0.68025192
-0.71139452
-0.74598488
-0.78231348
-0.81678891
-0.84310604
-0.85094747
-0.82793612
-0.75971152
-0.6356889
-0.46735527
-0.30855289
-0.16876413
-0.085537749
-0.034690763
-0.0079321985
0.005863566
0.012274511
0.014354551
0.014092802
0.012515502
0.010299964
0.0076933118
0.005198188
0.0025246838
0.00065558645
-0.0017874408
-0.0022912638
-0.55871269
-0.55867082
-0.55862303
-0.5585745
-0.55852386
-0.5584706
-0.55841461
-0.55835568
-0.55829351
-0.55822772
-0.55815788
-0.5580835
-0.55800415
-0.55791952
-0.55782973
-0.55773566
-0.55763971
-0.55754677
-0.55746576
-0.55741182
-0.55740912
-0.55749449
-0.55772153
-0.55816502
-0.55892486
-0.56012898
-0.56193488
-0.5645296
-0.56812932
-0.57298427
-0.57937661
-0.5876228
-0.59807994
-0.61117148
-0.62735871
-0.64713301
-0.67097438
-0.69926624
-0.73212534
-0.76909478
-0.80859264
-0.84706934
-0.87820258
-0.89148176
-0.874443
-0.81215611
-0.6906067
-0.51860018
-0.35054615
-0.20055083
-0.11289763
-0.05740285
-0.026490104
-0.0090919732
0.00025151914
0.0046829764
0.006308562
0.0062577405
0.005300492
0.0037337893
0.0021064033
0.00012306305
-0.0011643643
-0.0032126319
-0.0033019504
-0.57141786
-0.57135405
-0.57128027
-0.57120401
-0.571123
-0.5710363
-0.57094363
-0.5708446
-0.57073873
-0.57062552
-0.57050447
-0.57037513
-0.57023719
-0.57009064
-0.569936
-0.56977476
-0.56961004
-0.56944756
-0.56929712
-0.56917462
-0.56910484
-0.56912494
-0.56928853
-0.56967021
-0.57036981
-0.57151582
-0.57326771
-0.57581332
-0.57935281
-0.58431513
-0.59065553
-0.59878827
-0.60920871
-0.62230889
-0.63856772
-0.65850174
-0.68264375
-0.71144225
-0.74509342
-0.78322827
-0.82436118
-0.86503345
-0.89902728
-0.91614692
-0.90427273
-0.84867116
-0.73025218
-0.55441498
-0.37620453
-0.23092989
-0.13922975
-0.079973772
-0.045159517
-0.024274218
-0.01205079
-0.0052683688
-0.0017326124
-0.00022514929
9.9345827e-05
-0.00040907728
-0.0011509248
-0.0024252877
-0.0031088192
-0.0047447623
-0.0043983507
-0.57902417
-0.57894351
-0.57884959
-0.57875163
-0.57864655
-0.57853307
-0.57841071
-0.57827886
-0.57813684
-0.57798396
-0.57781959
-0.57764321
-0.5774545
-0.57725356
-0.57704113
-0.57681903
-0.57659079
-0.57636263
-0.57614479
-0.57595352
-0.57581364
-0.5757619
-0.57585105
-0.57615431
-0.57676981
-0.57782389
-0.57947444
-0.58192491
-0.58533814
-0.58975043
-0.59605673
-0.60434222
-0.61454815
-0.62745099
-0.64343633
-0.66306131
-0.6868714
-0.71534019
-0.7486999
-0.78663102
-0.82771823
-0.86868265
-0.90352573
-0.92286245
-0.91548761
-0.86676748
-0.75285799
-0.58555885
-0.39751076
-0.26053814
-0.16385856
-0.10175597
-0.063497337
-0.039404584
-0.024448948
-0.015370316
-0.0099379765
-0.0068674639
-0.0052525986
-0.0046947312
-0.004542154
-0.0050960276
-0.0051593194
-0.006368153
-0.0055621972
-0.58134721
-0.58125624
-0.58114966
-0.58103771
-0.5809168
-0.58078534
-0.58064264
-0.58048788
-0.58032012
-0.58013845
-0.57994201
-0.57973006
-0.57950211
-0.57925808
-0.57899857
-0.57872528
-0.57844159
-0.57815348
-0.57787078
-0.57760894
-0.5773915
-0.57725318
-0.57724377
-0.57743257
-0.57791292
-0.57880604
-0.58026304
-0.58246963
-0.58562682
-0.58999124
-0.59605029
-0.60357049
-0.61336191
-0.62586972
-0.64122335
-0.66004964
-0.68286699
-0.71014445
-0.74212341
-0.77852056
-0.81800947
-0.85757853
-0.89159477
-0.91183101
-0.908492
-0.86616394
-0.76047268
-0.60337534
-0.41687481
-0.28322851
-0.1854632
-0.12207769
-0.081093102
-0.054222836
-0.036753474
-0.025487869
-0.018212051
-0.013600318
-0.010703421
-0.0090821411
-0.0080350367
-0.0078642661
-0.0072983224
-0.0080719368
-0.0067942542
-0.57887385
-0.57877909
-0.57866677
-0.57854907
-0.57842126
-0.57828144
-0.57812876
-0.57796219
-0.57778058
-0.57758276
-0.57736758
-0.577134
-0.57688118
-0.57660868
-0.57631666
-0.57600628
-0.57568026
-0.57534368
-0.57500513
-0.57467834
-0.57438439
-0.57415466
-0.57403453
-0.5740878
-0.57440154
-0.57509084
-0.57630228
-0.57821581
-0.58103846
-0.58505988
-0.59025584
-0.59735805
-0.60669184
-0.61803408
-0.632105
-0.649524
-0.67065061
-0.69591921
-0.72555742
-0.75931598
-0.7960018
-0.83293304
-0.86506536
-0.88553422
-0.88568359
-0.84868175
-0.75082779
-0.59923693
-0.42807769
-0.2982418
-0.20413392
-0.14052988
-0.097619419
-0.068479574
-0.048778805
-0.035488501
-0.026458251
-0.020353514
-0.016200494
-0.013529814
-0.011596561
-0.010703533
-0.0095046904
-0.0098380543
-0.0080742117
-0.57231518
-0.57222275
-0.57211169
-0.57199626
-0.57187028
-0.57173161
-0.57157935
-0.57141233
-0.57122919
-0.57102852
-0.57080891
-0.57056897
-0.57030743
-0.5700233
-0.56971603
-0.56938586
-0.56903428
-0.56866466
-0.5682833
-0.56790074
-0.5675337
-0.56720766
-0.56696018
-0.5668451
-0.56693736
-0.56733817
-0.56817973
-0.56962847
-0.57188023
-0.57519344
-0.5797695
-0.58594184
-0.59381922
-0.60378672
-0.61638108
-0.63191751
-0.65079778
-0.67342001
-0.70000589
-0.73037099
-0.7635207
-0.79717509
-0.8270834
-0.84774303
-0.85086435
-0.81809501
-0.7273622
-0.58548852
-0.43031778
-0.3091952
-0.2197666
-0.15685949
-0.11284955
-0.081963721
-0.060359373
-0.045244125
-0.034581336
-0.027056507
-0.021690728
-0.017996025
-0.015193575
-0.013587229
-0.011758626
-0.011652489
-0.009400442
-0.56277656
-0.56269213
-0.56258946
-0.56248352
-0.5623673
-0.56223864
-0.56209659
-0.56193989
-0.56176708
-0.56157658
-0.56136675
-0.56113588
-0.56088228
-0.56060434
-0.56030069
-0.55997044
-0.55961348
-0.55923099
-0.55882621
-0.55840544
-0.55797955
-0.55756599
-0.55719157
-0.55689595
-0.55673605
-0.55679108
-0.55716787
-0.55800568
-0.55947708
-0.56179205
-0.56518533
-0.56990497
-0.57627093
-0.58461652
-0.5952025
-0.60838082
-0.62454055
-0.6440467
-0.66714
-0.69374193
-0.72311255
-0.75343517
-0.78137566
-0.80249218
-0.80778086
-0.77760617
-0.69305364
-0.56308439
-0.42577796
-0.31564322
-0.23205442
-0.17091458
-0.12659095
-0.094497688
-0.07134525
-0.054636373
-0.042489949
-0.033639727
-0.027121107
-0.022438954
-0.018792575
-0.016487645
-0.014037497
-0.013495773
-0.010749917
-0.5514421
-0.55136993
-0.55128167
-0.55119045
-0.55108986
-0.55097789
-0.55085361
-0.55071578
-0.5505629
-0.55039337
-0.55020542
-0.54999718
-0.54976665
-0.54951175
-0.54923043
-0.54892075
-0.54858112
-0.54821057
-0.54780926
-0.54737912
-0.54692486
-0.54645533
-0.5459855
-0.54553898
-0.54515158
-0.54487559
-0.54478516
-0.54498217
-0.5456019
-0.54681647
-0.54883867
-0.55191001
-0.55631767
-0.56236702
-0.57036974
-0.58067986
-0.59367146
-0.60971605
-0.62910115
-0.65190577
-0.67763556
-0.70510115
-0.73178169
-0.753542
-0.75998507
-0.73005812
-0.65131877
-0.53731977
-0.41668926
-0.31811512
-0.24128481
-0.18269461
-0.13873364
-0.10594805
-0.081612508
-0.063560388
-0.050099436
-0.040036294
-0.032439487
-0.02681711
-0.02236031
-0.019377305
-0.016320549
-0.0153506
-0.012118084
-0.53937745
-0.53931983
-0.53924919
-0.5391758
-0.53909443
-0.53900339
-0.5389018
-0.53878851
-0.53866213
-0.53852114
-0.53836382
-0.53818827
-0.53799238
-0.53777385
-0.53753016
-0.53725864
-0.53695653
-0.53662111
-0.5362499
-0.53584095
-0.53539333
-0.53490782
-0.53438791
-0.53384122
-0.53328158
-0.53273198
-0.53222871
-0.53182705
-0.53160862
-0.53168969
-0.53223073
-0.5334412
-0.53558585
-0.53898091
-0.54398515
-0.55099786
-0.5604521
-0.57279609
-0.58843072
-0.60762376
-0.6302062
-0.65570135
-0.68186853
-0.70417795
-0.71046796
-0.67836755
-0.60560957
-0.50712196
-0.4061504
-0.31798185
-0.24776863
-0.19228553
-0.14924722
-0.11622906
-0.091064961
-0.071927615
-0.057333912
-0.046183438
-0.037595398
-0.031089651
-0.025863593
-0.022228185
-0.018584696
-0.01719799
-0.013476228
-0.52745466
-0.52741244
-0.52736054
-0.5273063
-0.52724579
-0.52717769
-0.52710124
-0.52701547
-0.52691917
-0.52681102
-0.52668948
-0.52655278
-0.5263989
-0.52622552
-0.52602999
-0.52580928
-0.52555995
-0.5252781
-0.52495938
-0.52459896
-0.52419152
-0.52373134
-0.52321241
-0.52262864
-0.52197443
-0.52124572
-0.52044216
-0.51957102
-0.51865399
-0.51773784
-0.51690942
-0.51631371
-0.51617305
-0.5167993
-0.5185973
-0.52205891
-0.52775042
-0.53628502
-0.54827672
-0.56423439
-0.58441064
-0.60889548
-0.63478221
-0.65693252
-0.65982559
-0.62687137
-0.56358058
-0.47790023
-0.39185426
-0.31585735
-0.25191805
-0.19980745
-0.15814713
-0.1252971
-0.099635124
-0.079667113
-0.064127604
-0.052023749
-0.042540887
-0.035216949
-0.029270007
-0.025012837
-0.020809167
-0.01901718
-0.014828194
-0.51624086
-0.5162139
-0.5161806
-0.51614548
-0.51610593
-0.51606103
-0.51601018
-0.51595261
-0.51588738
-0.51581341
-0.51572942
-0.5156339
-0.51552505
-0.51540074
-0.51525841
-0.51509497
-0.51490673
-0.51468922
-0.51443696
-0.51414318
-0.51379974
-0.51339648
-0.51292057
-0.5123559
-0.51168219
-0.51087438
-0.50990254
-0.50873335
-0.50733476
-0.50568586
-0.50379379
-0.50172175
-0.49962277
-0.49777138
-0.49659381
-0.496679
-0.4987592
-0.5037048
-0.51234784
-0.52565429
-0.54441619
-0.56834813
-0.59338369
-0.61342446
-0.60885568
-0.57725407
-0.52083438
-0.45411072
-0.37775401
-0.3118732
-0.25409009
-0.20546508
-0.16549211
-0.13314617
-0.10728272
-0.086725415
-0.070425477
-0.057506047
-0.047231179
-0.039160962
-0.032547867
-0.027703533
-0.02297017
-0.020783483
-0.016139489
-0.50610037
-0.5060881
-0.50607271
-0.50605603
-0.50603674
-0.50601429
-0.50598826
-0.5059581
-0.50592312
-0.50588251
-0.50583528
-0.50578019
-0.50571571
-0.50563996
-0.50555057
-0.50544455
-0.50531812
-0.50516671
-0.50498535
-0.50476509
-0.50449506
-0.50416348
-0.50375339
-0.50324236
-0.50260093
-0.50179054
-0.50076208
-0.49945488
-0.49779895
-0.49572317
-0.49317106
-0.49012927
-0.48667769
-0.48302878
-0.479597
-0.47702173
-0.47620215
-0.47815989
-0.48422869
-0.49586453
-0.51367405
-0.53604198
-0.55824226
-0.5726807
-0.56253354
-0.53292771
-0.48291219
-0.42780456
-0.36441756
-0.30674885
-0.25464969
-0.20949729
-0.17138615
-0.13980279
-0.11399186
-0.093065815
-0.076183363
-0.06258594
-0.05162524
-0.042885964
-0.035666911
-0.030275385
-0.025045231
-0.022495704
-0.017355993
-0.49735626
-0.49735765
-0.49735888
-0.49735927
-0.4973587
-0.49735696
-0.49735378
-0.4973488
-0.49734157
-0.4973315
-0.49731786
-0.49729964
-0.49727557
-0.49724395
-0.49720252
-0.49714813
-0.49707771
-0.49699162
-0.49687841
-0.49671886
-0.49651216
-0.49625085
-0.49590977
-0.49546317
-0.49487793
-0.49410928
-0.49309913
-0.49177286
-0.49004257
-0.48782522
-0.48498719
-0.48149584
-0.47739697
-0.47281435
-0.46813008
-0.4640077
-0.46138178
-0.46166067
-0.46651133
-0.47688121
-0.49262842
-0.51136159
-0.52835904
-0.53346947
-0.52173825
-0.49155569
-0.45438858
-0.40444268
-0.35155641
-0.30089321
-0.25391566
-0.21211041
-0.17595056
-0.1453157
-0.11976605
-0.098666453
-0.081367419
-0.067225914
-0.055686071
-0.046358591
-0.038597967
-0.032702057
-0.027014557
-0.024119218
-0.01848348
-0.49044663
-0.49045956
-0.49047481
-0.49048957
-0.49050467
-0.49052022
-0.49053604
-0.49055193
-0.49056761
-0.49058266
-0.4905965
-0.49060831
-0.49061692
-0.49062079
-0.4906178
-0.49060514
-0.49057916
-0.49053485
-0.49046473
-0.4903614
-0.4902148
-0.49000932
-0.48972579
-0.48933991
-0.4888168
-0.48810924
-0.48716303
-0.48590673
-0.48426781
-0.48207874
-0.47927423
-0.47584583
-0.4717316
-0.467061
-0.46220035
-0.457782
-0.45488407
-0.45476069
-0.45845656
-0.46678595
-0.47918689
-0.49295076
-0.50327709
-0.50174983
-0.48943051
-0.45806857
-0.42765176
-0.38491437
-0.33956781
-0.29472842
-0.25222769
-0.21352926
-0.17931977
-0.14974969
-0.12462402
-0.10351809
-0.085953175
-0.071395104
-0.059380878
-0.04954851
-0.041313335
-0.034961734
-0.028860602
-0.025642635
-0.019503284
-0.48596999
-0.48599018
-0.4860139
-0.48603771
-0.48606272
-0.48608917
-0.48611695
-0.48614596
-0.48617603
-0.48620684
-0.48623791
-0.48626851
-0.4862976
-0.4863237
-0.48634478
-0.48635812
-0.48636009
-0.48634593
-0.48630936
-0.48624214
-0.48613385
-0.48597085
-0.48573545
-0.48540392
-0.48494358
-0.48432754
-0.48352039
-0.48238944
-0.48088957
-0.47902102
-0.47660481
-0.47358393
-0.47003353
-0.46601864
-0.4618577
-0.45809023
-0.45540931
-0.4548018
-0.45719566
-0.46293878
-0.47084522
-0.47842096
-0.48012444
-0.47384507
-0.45973295
-0.43549249
-0.40480135
-0.36791611
-0.32839147
-0.28839247
-0.24978585
-0.21393167
-0.18161792
-0.15317546
-0.12859457
-0.10762137
-0.089924221
-0.075068652
-0.062680861
-0.052427375
-0.043786151
-0.037030358
-0.030564601
-0.027076144
-0.020361324
-0.48451645
-0.48453749
-0.4845618
-0.48458686
-0.48461336
-0.48464151
-0.48467127
-0.48470258
-0.48473529
-0.48476917
-0.48480378
-0.4848385
-0.48487238
-0.48490411
-0.48493186
-0.4849532
-0.4849649
-0.48496275
-0.48494131
-0.48489362
-0.48481076
-0.48468136
-0.48449122
-0.48422199
-0.48384796
-0.48334368
-0.48268854
-0.48189781
-0.48082441
-0.47928063
-0.47729354
-0.47494067
-0.47222419
-0.46912151
-0.46579146
-0.46261302
-0.46018864
-0.45912776
-0.45988514
-0.46229156
-0.46525835
-0.46622949
-0.46267142
-0.45385429
-0.43437157
-0.41372856
-0.38599479
-0.35339387
-0.31821355
-0.28213947
-0.2468205
-0.2134961
-0.18296833
-0.15566746
-0.13171321
-0.11098444
-0.093270832
-0.07822702
-0.065561143
-0.05496915
-0.045991742
-0.038882559
-0.032125009
-0.028359309
-0.020937992
-0.48604062
-0.48605663
-0.48607509
-0.4860941
-0.48611416
-0.48613541
-0.4861578
-0.48618124
-0.48620559
-0.48623059
-0.48625585
-0.48628079
-0.48630457
-0.48632607
-0.48634373
-0.48635553
-0.48635881
-0.48635019
-0.48632544
-0.48627911
-0.48620385
-0.48609112
-0.48594649
-0.48574186
-0.4854998
-0.48520803
-0.48467856
-0.48390723
-0.48304563
-0.482004
-0.4806247
-0.47890473
-0.4768213
-0.47439522
-0.47176154
-0.46914404
-0.46677516
-0.46486173
-0.46353734
-0.46244895
-0.46066398
-0.45585691
-0.44821089
-0.43536802
-0.41851509
-0.39666305
-0.37054491
-0.34084128
-0.30890322
-0.27599013
-0.2434406
-0.21234606
-0.18347212
-0.15729446
-0.13401734
-0.11362012
-0.095988386
-0.080855036
-0.068000265
-0.057149591
-0.047909362
-0.040502774
-0.033551277
-0.029467412
-0.02136057
-0.48989713
-0.48990529
-0.48991459
-0.48992396
-0.48993361
-0.48994352
-0.48995359
-0.48996362
-0.4899734
-0.48998257
-0.48999068
-0.4899971
-0.49000097
-0.4900012
-0.48999633
-0.48998455
-0.48996354
-0.4899304
-0.48988123
-0.48981337
-0.4897201
-0.48959771
-0.48946808
-0.48928991
-0.48897984
-0.48858928
-0.48816866
-0.4876393
-0.48694913
-0.48608508
-0.48500256
-0.48367074
-0.48207109
-0.48021394
-0.47809069
-0.47573159
-0.47281992
-0.46967592
-0.46613758
-0.46186667
-0.45550123
-0.44747268
-0.43633235
-0.42049992
-0.40292147
-0.38183543
-0.35730933
-0.32981813
-0.3003816
-0.26999696
-0.23975036
-0.21058992
-0.18321877
-0.1581199
-0.13554418
-0.11554392
-0.098075971
-0.082941096
-0.069978916
-0.058944266
-0.04950709
-0.041833747
-0.034724412
-0.030047211
-0.02177303
-0.49532834
-0.49532901
-0.49532943
-0.49532932
-0.49532854
-0.4953269
-0.49532416
-0.49532
-0.49531402
-0.4953057
-0.49529439
-0.49527923
-0.49525917
-0.49523286
-0.49519861
-0.49515437
-0.49509769
-0.49502565
-0.49493398
-0.4948187
-0.49467692
-0.49451716
-0.49431472
-0.49403851
-0.49369791
-0.49330117
-0.49283832
-0.49228468
-0.49162688
-0.49085102
-0.48993448
-0.48885044
-0.48756359
-0.48601528
-0.48387918
-0.48099819
-0.47789752
-0.47381769
-0.46755213
-0.45989998
-0.45051646
-0.43935962
-0.42475192
-0.40949133
-0.39099951
-0.36985657
-0.34613665
-0.32012603
-0.29253708
-0.26414129
-0.23579372
-0.20829709
-0.18227596
-0.15819673
-0.13632756
-0.11677192
-0.099535149
-0.084476863
-0.071482047
-0.060337955
-0.050775395
-0.04292886
-0.0358071
-0.03074501
-0.023242629
-0.50222556
-0.5022198
-0.5022125
-0.502204
-0.50219382
-0.50218157
-0.50216687
-0.50214922
-0.50212799
-0.50210244
-0.50207162
-0.50203436
-0.50198925
-0.50193453
-0.50186806
-0.50178725
-0.50168902
-0.50156985
-0.50142592
-0.50125066
-0.50103875
-0.50078688
-0.50048587
-0.50013144
-0.49972042
-0.49924472
-0.49870123
-0.49808958
-0.49740532
-0.49663937
-0.49579407
-0.49481716
-0.49358654
-0.49178157
-0.48973492
-0.48693642
-0.48220764
-0.4757122
-0.46762053
-0.45732382
-0.44596833
-0.43184053
-0.41656476
-0.39945547
-0.3805089
-0.35942292
-0.33629759
-0.31138513
-0.28520407
-0.25837823
-0.23158943
-0.20551407
-0.18069453
-0.15756767
-0.13639657
-0.11731923
-0.10036855
-0.085455694
-0.072494475
-0.061307302
-0.051668683
-0.043659978
-0.036440504
-0.031073729
-0.023935379
-0.51093892
-0.5109267
-0.51091158
-0.51089451
-0.51087466
-0.51085145
-0.51082429
-0.5107925
-0.51075523
-0.51071145
-0.5106599
-0.51059907
-0.51052712
-0.51044184
-0.51034059
-0.51022023
-0.51007708
-0.50990689
-0.50970486
-0.50946567
-0.50918375
-0.50885336
-0.50846868
-0.50802447
-0.50751875
-0.50695237
-0.50632578
-0.50564007
-0.5048918
-0.5041204
-0.50326571
-0.50205613
-0.50064194
-0.49882242
-0.49589331
-0.49138358
-0.48511785
-0.47693787
-0.46670483
-0.45501883
-0.44120456
-0.42584362
-0.4095487
-0.3913749
-0.37171408
-0.35042551
-0.32758078
-0.3033912
-0.27824545
-0.25264371
-0.22712702
-0.20226131
-0.17850648
-0.15626358
-0.13577413
-0.1171988
-0.10057936
-0.085873747
-0.073007134
-0.061848955
-0.052182284
-0.044143249
-0.03682107
-0.032255729
-0.023596109
-0.52208975
-0.52206964
-0.52204503
-0.5220176
-0.5219861
-0.52194971
-0.52190769
-0.5218591
-0.52180286
-0.52173765
-0.52166188
-0.52157369
-0.52147085
-0.52135069
-0.52121012
-0.5210455
-0.52085265
-0.52062687
-0.52036296
-0.52005534
-0.51969839
-0.51928702
-0.51881712
-0.51828584
-0.5176919
-0.51703482
-0.5163174
-0.51556755
-0.51475281
-0.51380215
-0.51261931
-0.51116798
-0.50928793
-0.50636407
-0.50199915
-0.49592706
-0.48786233
-0.47773061
-0.46569592
-0.45222273
-0.43679148
-0.42059671
-0.40295001
-0.38399845
-0.36378537
-0.34227659
-0.31957273
-0.2958756
-0.27149818
-0.24685336
-0.22237529
-0.19853951
-0.17572772
-0.15430395
-0.13447627
-0.11642028
-0.10016988
-0.085726649
-0.073010258
-0.061937966
-0.052287941
-0.044202744
-0.036750424
-0.032453415
-0.02396846
-0.53622599
-0.53619595
-0.53615945
-0.5361191
-0.5360732
-0.53602063
-0.53596045
-0.53589151
-0.53581243
-0.53572162
-0.53561718
-0.53549688
-0.5353581
-0.53519781
-0.53501247
-0.53479805
-0.53455002
-0.53426346
-0.53393306
-0.53355344
-0.53311928
-0.53262537
-0.53206667
-0.53144126
-0.53076026
-0.53000588
-0.52918957
-0.52824732
-0.52714977
-0.52592543
-0.52436206
-0.52218253
-0.51909514
-0.51472078
-0.50865214
-0.50063461
-0.49061624
-0.47860564
-0.46537367
-0.44973592
-0.43338449
-0.41584439
-0.39719951
-0.37742309
-0.35658363
-0.33474726
-0.31203163
-0.28863228
-0.2648103
-0.2409115
-0.21728453
-0.19433072
-0.17235867
-0.15169704
-0.13251197
-0.11498976
-0.099141588
-0.085012981
-0.072498934
-0.061579265
-0.051985547
-0.043903419
-0.036309305
-0.031272614
-0.023405516
-0.55385822
-0.55381599
-0.55376494
-0.55370891
-0.55364562
-0.55357365
-0.55349185
-0.55339885
-0.55329302
-0.55317247
-0.553035
-0.55287808
-0.55269877
-0.55249372
-0.55225914
-0.55199081
-0.55168401
-0.55133347
-0.55093341
-0.55047851
-0.54996558
-0.5493892
-0.54873864
-0.54803276
-0.5472233
-0.54627741
-0.54523878
-0.54405717
-0.54262795
-0.54079632
-0.53835312
-0.53499204
-0.53035328
-0.52408703
-0.51592983
-0.50580871
-0.49375515
-0.48006973
-0.46476998
-0.44825592
-0.43040957
-0.41164679
-0.39189443
-0.37122854
-0.34973719
-0.32751139
-0.30468433
-0.28144707
-0.25802444
-0.23471247
-0.2117913
-0.18960224
-0.1683865
-0.14844075
-0.12988322
-0.11290918
-0.097494069
-0.08372928
-0.071466468
-0.06076307
-0.051271996
-0.043322189
-0.035658682
-0.030780667
-0.023563902
-0.57529703
-0.57524017
-0.57517251
-0.57509873
-0.57501582
-0.57492211
-0.57481627
-0.5746967
-0.57456153
-0.57440863
-0.57423552
-0.57403942
-0.57381716
-0.57356488
-0.57327817
-0.57295252
-0.57258377
-0.57216605
-0.57169119
-0.57116462
-0.57058532
-0.56990212
-0.56909914
-0.56821578
-0.56723582
-0.56609996
-0.56474272
-0.56307753
-0.56095391
-0.55815838
-0.55440674
-0.549366
-0.54271077
-0.53420246
-0.52373021
-0.51136106
-0.49726201
-0.48173046
-0.46455568
-0.44671114
-0.42755376
-0.40752937
-0.38670164
-0.36514456
-0.34296994
-0.32030354
-0.29728997
-0.27411675
-0.2509813
-0.22814085
-0.20581878
-0.18430736
-0.16378576
-0.14452269
-0.1265846
-0.11017571
-0.095225002
-0.081873009
-0.06991196
-0.059493731
-0.050168541
-0.04246431
-0.034948439
-0.030348071
-0.023403207
-0.6004245
-0.60035098
-0.60026168
-0.60016842
-0.60006429
-0.59994698
-0.59981519
-0.59966718
-0.59950083
-0.59931376
-0.59910348
-0.59886717
-0.59859755
-0.59828662
-0.59793743
-0.59756164
-0.59715545
-0.59667568
-0.59610126
-0.59546221
-0.59476014
-0.59397179
-0.59305878
-0.59197875
-0.59070632
-0.58917554
-0.58727209
-0.58484067
-0.58166643
-0.57747501
-0.5719526
-0.56479372
-0.55576119
-0.54475504
-0.53179054
-0.51711476
-0.50094101
-0.48330616
-0.46473753
-0.44511938
-0.42459137
-0.40330363
-0.38135971
-0.35888119
-0.33599965
-0.31286039
-0.28961435
-0.26644392
-0.24352344
-0.22107852
-0.1992841
-0.17839201
-0.15852409
-0.13992501
-0.12260695
-0.10678421
-0.092330625
-0.079438567
-0.067827198
-0.057748038
-0.048645176
-0.041178456
-0.033886121
-0.029275634
-0.022464984
-0.62876153
-0.6286736
-0.62856699
-0.62845449
-0.62832944
-0.6281892
-0.62803211
-0.62785638
-0.62765994
-0.62744078
-0.6271957
-0.62691089
-0.62657991
-0.62623588
-0.6258937
-0.62551196
-0.62505222
-0.62449172
-0.62381859
-0.62305032
-0.62219827
-0.62122279
-0.62006439
-0.61867006
-0.61696033
-0.61481398
-0.61206604
-0.60849875
-0.60384272
-0.59779765
-0.5900672