/*--------------------------------*- C++ -*----------------------------------*\
  =========                 |
  \\      /  F ield         | OpenFOAM: The Open Source CFD Toolbox
   \\    /   O peration     | Website:  https://openfoam.org
    \\  /    A nd           | Version:  13
     \\/     M anipulation  |
\*---------------------------------------------------------------------------*/
FoamFile
{
    format      ascii;
    class       volVectorField;
    location    "1.798257";
    object      UMean;
}
// * * * * * * * * * * * * * * * * * * * * * * * * * * * * * * * * * * * * * //

dimensions      [0 1 -1 0 0 0 0];

internalField   nonuniform List<vector> 
17140
(
(-1.2999843e-06 5.6788781e-05 -2.1418346e-21)
(-1.583799e-05 0.00017443337 -1.820064e-22)
(-4.6968612e-05 0.0003028541 1.2021249e-20)
(-0.00010130244 0.00044341021 -1.3220632e-20)
(-0.00018487267 0.00059762442 1.5462937e-21)
(-0.00030613681 0.00076699034 -5.063697e-21)
(-0.0004757173 0.00095299 -8.531298e-21)
(-0.00070675961 0.0011570034 4.1689279e-21)
(-0.001015489 0.0013802352 1.3660672e-20)
(-0.0014217987 0.0016236038 3.3552393e-20)
(-0.0019498849 0.0018876105 -4.98379e-20)
(-0.0026289083 0.0021721786 4.4506357e-20)
(-0.0034936347 0.0024764683 6.8290726e-21)
(-0.0045850145 0.0027986574 -3.8742242e-20)
(-0.0059505981 0.0031357066 4.3171953e-21)
(-0.0076446602 0.0034831186 -3.4347521e-20)
(-0.0097278818 0.0038347281 1.2850938e-21)
(-0.012266384 0.0041825286 -2.8909476e-22)
(-0.015329948 0.0045165919 -2.0660922e-20)
(-0.018989132 0.0048251565 2.6970535e-20)
(-0.023311181 0.0050949186 -1.3078556e-20)
(-0.028354687 0.0053115938 2.5133142e-21)
(-0.034162966 0.0054607569 1.8640221e-20)
(-0.040756789 0.0055289407 -1.8697666e-20)
(-0.048126866 0.0055048914 -2.9933901e-20)
(-0.056226958 0.0053806367 2.4181983e-20)
(-0.064967409 0.0051523395 1.1935528e-19)
(-0.074210919 0.0048203707 1.4127598e-20)
(-0.083769887 0.0043887408 -1.2462406e-19)
(-0.093403186 0.0038640622 -2.9291074e-20)
(-0.10281373 0.0032546437 -1.0509927e-19)
(-0.11164411 0.0025696893 1.3913121e-19)
(-0.11947215 0.0018189622 -3.6466387e-20)
(-0.1258093 0.0010123437 -1.7530984e-20)
(-0.13009823 0.00016070868 -1.7346719e-19)
(-0.13171173 -0.00072477749 7.6626355e-20)
(-0.12995568 -0.0016326879 -1.1622048e-19)
(-0.12407121 -0.0025507103 -7.9143009e-20)
(-0.11324044 -0.0034668451 -3.6444911e-20)
(-0.096604775 -0.0043640597 1.1095883e-19)
(-0.0732855 -0.0052217154 2.1015678e-19)
(-0.04243214 -0.0060093554 1.9113052e-19)
(-0.0034012109 -0.0067067042 8.3517828e-20)
(0.044507395 -0.0072487017 -4.0645083e-19)
(0.10101841 -0.0075658838 -2.9675384e-19)
(0.16563412 -0.0076057717 7.2718162e-20)
(0.23680744 -0.0073065027 -4.9233803e-19)
(0.31221082 -0.0066472875 -1.6635316e-19)
(0.38893835 -0.0056622771 1.6844678e-19)
(0.46400622 -0.0044342684 4.0945576e-19)
(0.53492978 -0.0030901558 -2.5021164e-19)
(0.60014624 -0.0017443971 -1.5667233e-19)
(0.65894372 -0.00047938557 4.051382e-19)
(0.71125057 0.00066437692 1.8985265e-19)
(0.75735043 0.0016761566 1.3417967e-19)
(0.79759472 0.0025636243 -1.0458889e-19)
(0.83237611 0.0033355813 2.7997026e-19)
(0.86200395 0.0040038162 2.3219356e-19)
(0.88690498 0.0045678324 5.7792893e-20)
(0.90750034 0.0050421871 -1.4817135e-19)
(0.92434115 0.0054170254 -1.1547906e-19)
(0.93810449 0.0057288512 -4.2604744e-19)
(0.94907476 0.0059458295 -6.2382984e-20)
(0.95846188 0.0061400531 5.2437029e-19)
(0.96534251 0.006216186 -4.0542569e-19)
(-1.2473158e-05 0.00029099675 6.0941905e-22)
(-4.9971222e-05 0.00089392369 -6.304178e-20)
(-0.00010599179 0.0015522224 5.6117263e-20)
(-0.0001873095 0.0022733407 -1.5304586e-20)
(-0.00030019257 0.0030651327 -3.1630759e-20)
(-0.0004532932 0.0039355371 6.0475738e-20)
(-0.00065739978 0.0048924204 -6.3087423e-20)
(-0.00092577996 0.0059432247 5.5572847e-21)
(-0.0012747117 0.0070945641 -1.7369087e-20)
(-0.0017240481 0.0083516878 -2.9384906e-22)
(-0.0022978211 0.0097178212 -5.8163463e-20)
(-0.0030248659 0.011193356 9.2601432e-20)
(-0.003939432 0.012774899 7.6660945e-21)
(-0.0050817134 0.01445418 -7.5867409e-20)
(-0.0064982269 0.016216863 2.3371612e-20)
(-0.0082418946 0.01804132 1.4891116e-20)
(-0.01037171 0.019897484 -9.4805191e-20)
(-0.012951761 0.021745948 3.1005978e-19)
(-0.016049468 0.02353754 -1.949406e-19)
(-0.019732767 0.025213635 2.3457231e-19)
(-0.024066129 0.026707559 -3.4813361e-19)
(-0.029105334 0.027947271 8.5762245e-20)
(-0.034891122 0.028859529 3.5517252e-20)
(-0.041442075 0.029375333 -1.1669738e-19)
(-0.048747299 0.02943597 4.2194949e-19)
(-0.05675972 0.028998707 6.3289386e-20)
(-0.06538967 0.028040694 -3.2989623e-19)
(-0.074500547 0.026559654 3.7204151e-19)
(-0.083906068 0.0245708 -5.1483187e-20)
(-0.093366929 0.02210197 -5.0713671e-19)
(-0.102588 0.019188131 5.2955777e-20)
(-0.11121409 0.01586731 4.0837857e-19)
(-0.11882547 0.012178359 1.0345138e-20)
(-0.12493584 0.0081603276 -3.089475e-19)
(-0.12898969 0.0038534542 3.4738369e-19)
(-0.13036172 -0.0007014305 -1.576391e-19)
(-0.12835773 -0.0054635514 1.8693452e-19)
(-0.12221831 -0.010390958 5.9892666e-19)
(-0.11112418 -0.015438672 1.3509057e-19)
(-0.094215093 -0.02054998 5.3129306e-19)
(-0.070608199 -0.025643197 -6.8401378e-19)
(-0.03944392 -0.030606471 -6.3208481e-19)
(-4.1989493e-05 -0.035302242 -1.0855149e-19)
(0.048135811 -0.039443172 8.6849766e-19)
(0.1050088 -0.042698605 -4.1104412e-19)
(0.1699546 -0.044741883 -1.4234682e-19)
(0.24140227 -0.045220235 7.6078234e-20)
(0.31694301 -0.043954977 2.3641186e-19)
(0.3936054 -0.041050619 -1.1511039e-19)
(0.46837031 -0.0368683 2.0745002e-19)
(0.53878302 -0.031996452 1.2411325e-18)
(0.60335194 -0.026980879 5.8900856e-20)
(0.66144822 -0.022216521 -2.634392e-19)
(0.71307585 -0.01789831 5.8172309e-19)
(0.75857332 -0.014074229 -4.9292835e-19)
(0.79832318 -0.010703145 1.3877586e-18)
(0.83273247 -0.0077371964 3.9282719e-19)
(0.86210628 -0.0051244518 -1.0980656e-18)
(0.88686008 -0.0028713654 1.8525649e-19)
(0.90738696 -0.0009381712 2.1024054e-19)
(0.92421903 0.00062319422 4.2008138e-20)
(0.93799845 0.001934115 -5.5690858e-19)
(0.94900235 0.002879603 1.084456e-18)
(0.95841002 0.0037323308 3.2471228e-19)
(0.96526034 0.004280135 5.3972948e-19)
(-3.6643681e-05 0.00052285677 3.3593967e-20)
(-0.00012375499 0.0016063163 -1.9049109e-20)
(-0.00023353192 0.0027894101 -5.0677656e-21)
(-0.0003730659 0.0040856688 4.8072205e-21)
(-0.00054913079 0.0055092507 -2.3306717e-20)
(-0.0007707832 0.0070745254 -1.7338639e-21)
(-0.0010491466 0.0087957492 -2.2174008e-20)
(-0.0013977223 0.010686454 -2.3913169e-20)
(-0.0018328702 0.01275872 1.9567103e-19)
(-0.0023743196 0.015022224 -1.7494823e-19)
(-0.0030457043 0.017483057 8.3862298e-20)
(-0.0038751136 0.020142284 1.2312324e-19)
(-0.00489562 0.022994226 -2.4474162e-19)
(-0.0061457232 0.026024506 -3.0378863e-20)
(-0.0076696381 0.029207901 1.1768074e-19)
(-0.0095173128 0.032506119 8.1197257e-20)
(-0.011744028 0.035865713 -9.4550864e-20)
(-0.014409434 0.039216408 3.4384753e-19)
(-0.017575812 0.042470262 -2.0427329e-19)
(-0.021305407 0.045522155 1.0157103e-19)
(-0.025656665 0.048252175 -3.4456236e-19)
(-0.03067933 0.050530374 -9.0192173e-20)
(-0.036408515 0.052224152 1.8939692e-19)
(-0.042858021 0.053207983 -2.8695804e-19)
(-0.050013454 0.053374426 -1.1375362e-19)
(-0.057825777 0.052644471 1.3762578e-19)
(-0.066205096 0.050974798 7.8702438e-19)
(-0.075016078 0.048359259 3.5861129e-19)
(-0.084075069 0.044823448 -1.8031805e-19)
(-0.093146465 0.040416026 1.9442163e-19)
(-0.10193915 0.035198775 -1.2259389e-19)
(-0.11010242 0.029238542 -6.997898e-19)
(-0.11722166 0.022603133 2.3631956e-19)
(-0.12281531 0.015360746 7.1193299e-19)
(-0.12633262 0.0075802736 -2.398618e-19)
(-0.12715287 -0.00066896748 -3.3910098e-19)
(-0.12458534 -0.0093169856 5.9334283e-19)
(-0.11787297 -0.01829263 1.828228e-19)
(-0.10619779 -0.027517655 -3.285994e-19)
(-0.088696425 -0.036896011 -1.330804e-19)
(-0.064480535 -0.046289242 6.4517626e-19)
(-0.032683499 -0.055500561 -1.8414138e-19)
(0.0074234981 -0.064245248 -2.6890312e-19)
(0.05630174 -0.07204892 -7.2286209e-19)
(0.11395226 -0.078305833 1.3823434e-18)
(0.17964521 -0.082358029 -8.9889379e-19)
(0.25171747 -0.083560626 -2.2752926e-19)
(0.32758566 -0.081569301 -9.0263856e-19)
(0.4041328 -0.076583881 -1.0833112e-18)
(0.47826163 -0.069284416 -5.5006015e-20)
(0.54758456 -0.060763162 2.3231027e-19)
(0.61076375 -0.05201511 -1.7047541e-18)
(0.66735314 -0.043745738 -7.2380168e-19)
(0.71751914 -0.036290058 -7.3993937e-19)
(0.76171534 -0.029714507 -2.4163437e-19)
(0.80038642 -0.023927862 -1.8560336e-18)
(0.83396679 -0.018830875 7.3232046e-19)
(0.86275199 -0.014323253 -2.2140247e-19)
(0.88713639 -0.010413253 -1.8069511e-18)
(0.90745732 -0.0070356633 -7.1534815e-19)
(0.92421182 -0.0042877064 8.4963827e-19)
(0.9379678 -0.0019679948 2.9196952e-18)
(0.94900509 -0.00028043419 -9.3265899e-19)
(0.95842362 0.0012421779 -1.5037266e-18)
(0.96535919 0.002225283 -6.4422038e-19)
(-7.3489786e-05 0.00074675132 -1.12466e-19)
(-0.00023625001 0.0022944499 1.3728844e-19)
(-0.0004279995 0.0039847923 -4.9658e-20)
(-0.00065632305 0.0058372746 5.4007844e-21)
(-0.00092876244 0.0078721883 -1.0682696e-19)
(-0.0012549948 0.010110229 1.1060728e-19)
(-0.0016466579 0.012571953 -1.6792216e-19)
(-0.0021176133 0.015276952 7.9091359e-20)
(-0.0026843532 0.018242802 3.0108561e-19)
(-0.0033664243 0.021483729 -7.2512347e-20)
(-0.0041868631 0.025008928 -2.7669631e-19)
(-0.0051726326 0.028820505 8.4669739e-20)
(-0.0063550204 0.032911041 5.6762534e-21)
(-0.0077699573 0.037260783 -2.2289944e-19)
(-0.0094581595 0.041834556 7.0003571e-19)
(-0.011465047 0.046578549 -4.3168727e-19)
(-0.013840252 0.051417255 -4.1346433e-21)
(-0.016636635 0.05625098 2.4141089e-19)
(-0.019908615 0.060954489 -6.1712734e-19)
(-0.02370971 0.06537753 2.934413e-19)
(-0.028089079 0.069348025 4.412639e-19)
(-0.033087117 0.072678666 1.8028171e-19)
(-0.038730131 0.075177341 -9.0056784e-19)
(-0.04502435 0.076661018 -4.7550817e-19)
(-0.051949681 0.076971705 3.1067993e-19)
(-0.059453677 0.075991659 -1.8324472e-19)
(-0.067445721 0.073654359 6.9448849e-19)
(-0.075792055 0.069947349 -2.0176306e-19)
(-0.084312717 0.064904961 5.5011076e-19)
(-0.092777533 0.058595624 -3.1453204e-19)
(-0.10090137 0.051107483 1.9677598e-19)
(-0.10834051 0.042536235 -7.302778e-19)
(-0.11468803 0.032978713 1.0610799e-19)
(-0.11947058 0.022531958 -5.6612823e-19)
(-0.12214588 0.011293116 5.4844302e-19)
(-0.12210158 -0.00063996244 1.7752537e-19)
(-0.11865544 -0.013169336 -2.241614e-18)
(-0.11105715 -0.026195718 -5.9180095e-19)
(-0.098492597 -0.039611467 4.9625982e-19)
(-0.080095456 -0.053284461 -4.9298816e-19)
(-0.054966531 -0.067026276 1.2801361e-19)
(-0.022223767 -0.080552162 8.1089968e-19)
(0.018889755 -0.093425481 -3.8087717e-20)
(0.068859014 -0.1049711 -2.7690372e-19)
(0.12766857 -0.11428897 1.3561698e-19)
(0.19449737 -0.12034844 -6.8410523e-20)
(0.26751173 -0.1221825 -1.9850059e-19)
(0.34386524 -0.11927205 3.071957e-18)
(0.42023267 -0.11195315 -3.443474e-19)
(0.49342167 -0.10129095 3.1846258e-19)
(0.56115584 -0.088946831 -2.9889683e-18)
(0.62232425 -0.076391993 1.6320776e-18)
(0.67675003 -0.064636274 1.3359393e-18)
(0.72482595 -0.054128233 1.2668693e-18)
(0.76715717 -0.044921134 1.2106897e-18)
(0.80426203 -0.036848214 1.8847395e-18)
(0.83660414 -0.029741041 -3.7374567e-18)
(0.86446338 -0.023439823 2.2832709e-18)
(0.88821269 -0.017947572 3.4420377e-18)
(0.90812063 -0.013172129 -2.5134552e-18)
(0.92464835 -0.0092586897 -7.9960629e-19)
(0.93826278 -0.0059330796 -6.964574e-19)
(0.94925283 -0.0034948906 3.5456346e-18)
(0.95859855 -0.0012911682 2.6052044e-18)
(0.9654989 0.00015525646 -1.1476694e-19)
(-0.00012213876 0.00095748346 7.9156886e-20)
(-0.00038483419 0.0029424655 -2.015987e-19)
(-0.00068490491 0.0051109451 1.6442212e-19)
(-0.0010306115 0.0074881452 -6.2168412e-20)
(-0.0014305123 0.010100191 -2.2473898e-20)
(-0.0018951159 0.012973879 1.9354586e-19)
(-0.002436756 0.016135871 -4.9071554e-20)
(-0.0030697931 0.019611696 -1.0432539e-19)
(-0.0038109189 0.023424407 -8.0173097e-21)
(-0.0046794708 0.027592895 -6.8234401e-20)
(-0.0056977355 0.032129745 9.5768575e-20)
(-0.006891232 0.037038623 -6.6749653e-20)
(-0.0082889421 0.042311149 -2.4678079e-19)
(-0.0099234459 0.047923287 -7.1995112e-21)
(-0.011830897 0.053831347 1.902845e-19)
(-0.014050761 0.059967788 1.355262e-19)
(-0.016625234 0.066237169 -1.1736482e-19)
(-0.019598187 0.072512763 1.1350549e-20)
(-0.023013598 0.078634549 2.3241851e-19)
(-0.026913288 0.084409561 2.857621e-19)
(-0.031333876 0.089615591 -3.2938862e-19)
(-0.036303021 0.094009308 -3.349423e-19)
(-0.041834874 0.097339372 4.5567374e-19)
(-0.047925014 0.099364257 -5.7022787e-19)
(-0.054545054 0.099873069 -9.9915433e-19)
(-0.061637269 0.098705963 2.3805402e-18)
(-0.069109405 0.095769411 -1.3241576e-18)
(-0.076829174 0.091040993 1.9808701e-18)
(-0.084621102 0.084561176 -2.4976801e-18)
(-0.092261972 0.076416634 2.8129531e-18)
(-0.099474925 0.06672154 -2.9332889e-18)
(-0.1059261 0.055600517 4.9779562e-19)
(-0.1112196 0.043179838 1.7335966e-18)
(-0.11489403 0.02958525 -9.860287e-19)
(-0.11642016 0.014942094 3.1098824e-19)
(-0.11519903 -0.00062447586 9.1700075e-20)
(-0.11056157 -0.016990646 1.1405466e-18)
(-0.10176864 -0.034032373 3.7543557e-19)
(-0.088012489 -0.051617123 3.8178559e-19)
(-0.068424271 -0.069583549 3.8156231e-19)
(-0.04209023 -0.087698276 -1.9618e-18)
(-0.0081010074 -0.1055972 8.6839986e-19)
(0.034343339 -0.12269575 1.3946772e-19)
(0.085755096 -0.13808833 -1.6181245e-18)
(0.14608469 -0.15053983 -8.2515243e-19)
(0.21438781 -0.15860485 4.0770816e-19)
(0.28858124 -0.1609438 1.4851592e-18)
(0.36546373 -0.15686119 -6.4748688e-19)
(0.44146693 -0.14689114 1.890887e-18)
(0.51333928 -0.13256694 1.0268216e-18)
(0.57897687 -0.1161959 1.4134879e-18)
(0.63757473 -0.099758675 3.7812576e-18)
(0.68929607 -0.084557437 -2.9086338e-18)
(0.73479479 -0.071116727 9.4276418e-19)
(0.77483446 -0.05943641 -1.6084384e-18)
(0.80999682 -0.049243989 -1.5162189e-18)
(0.84076507 -0.040283116 -5.8827163e-19)
(0.86739515 -0.032323982 -5.3159294e-18)
(0.89024484 -0.025357317 -1.4201783e-18)
(0.90951192 -0.019261576 3.2308821e-18)
(0.92563514 -0.014230305 1.2177327e-18)
(0.93896139 -0.0099238832 -9.0907439e-19)
(0.94981292 -0.0067426993 -1.8800608e-18)
(0.9590032 -0.0038562395 -2.9282321e-18)
(0.96590329 -0.0019371639 2.23322e-19)
(-0.00018111089 0.0011497771 2.4105077e-19)
(-0.00056504032 0.0035342809 6.5251215e-20)
(-0.00099656378 0.006140072 -5.2859119e-20)
(-0.0014847994 0.0089977267 -1.9528385e-19)
(-0.0020395348 0.012138781 1.0706744e-19)
(-0.0026723053 0.015595778 -1.5423561e-19)
(-0.003396309 0.019401177 6.6805914e-20)
(-0.0042265385 0.023586233 1.5932393e-20)
(-0.0051799646 0.028179388 -9.0326824e-20)
(-0.0062757156 0.03320429 -1.9506105e-19)
(-0.0075352203 0.038677246 -9.8142909e-21)
(-0.0089823072 0.04460411 3.2248186e-19)
(-0.010643228 0.050976533 -4.4781107e-19)
(-0.012546569 0.057767622 7.2641775e-19)
(-0.014723005 0.06492708 -1.9089085e-19)
(-0.01720482 0.072376056 4.0823388e-19)
(-0.020025182 0.080002087 -4.973919e-19)
(-0.023217006 0.087654726 3.2592506e-19)
(-0.026811439 0.09514274 -5.2024445e-20)
(-0.030835817 0.10223398 -2.1343682e-19)
(-0.035311065 0.10865924 5.2537205e-19)
(-0.040248686 0.11412145 -7.5168793e-19)
(-0.045647166 0.11831099 8.2924758e-19)
(-0.051488037 0.12092705 1.44615e-19)
(-0.05773157 0.12170323 -1.4408866e-18)
(-0.064312529 0.12043321 1.4781427e-18)
(-0.071135583 0.11699097 -9.7478234e-19)
(-0.078069514 0.1113392 1.108964e-18)
(-0.084943984 0.10352118 1.0711073e-19)
(-0.091543937 0.093640378 6.7672845e-20)
(-0.097603109 0.08183639 -4.5626902e-19)
(-0.10280043 0.06826307 3.1045676e-20)
(-0.10675454 0.053076753 -1.758519e-18)
(-0.10902014 0.036432134 4.8077221e-19)
(-0.10908527 0.018482171 1.454697e-18)
(-0.10636928 -0.00062244356 -6.8572313e-19)
(-0.10022079 -0.020734908 5.6955179e-19)
(-0.089914846 -0.04171165 -5.7880185e-19)
(-0.074651961 -0.063402937 -3.2544679e-18)
(-0.053559542 -0.085627926 1.8174616e-18)
(-0.025704376 -0.1081198 4.4968261e-19)
(0.009858715 -0.13044116 -2.5719163e-18)
(0.053974626 -0.1518578 1.4763145e-19)
(0.10717775 -0.17121146 3.1697628e-19)
(0.16936398 -0.18688008 3.4774855e-18)
(0.23940592 -0.19693918 8.0729999e-19)
(0.31488506 -0.19962003 -1.2736322e-18)
(0.39215433 -0.19406049 -1.3009716e-18)
(0.46740154 -0.18108724 -1.8487337e-18)
(0.5374207 -0.16279103 -2.2789113e-18)
(0.60036987 -0.14219885 -1.3857936e-18)
(0.65584803 -0.12183153 -2.1455885e-18)
(0.70441052 -0.10325927 7.2429917e-19)
(0.74697348 -0.087035503 -4.4831004e-18)
(0.78443079 -0.073063402 -3.0362267e-19)
(0.81739308 -0.060936645 -2.5269436e-19)
(0.8463433 -0.050295764 -1.4294747e-19)
(0.87150381 -0.040833679 5.7456184e-18)
(0.8932272 -0.032522369 2.2418529e-18)
(0.91164385 -0.025207331 -3.4406255e-18)
(0.92719064 -0.019127204 -4.9211211e-18)
(0.94008056 -0.013883302 -2.1997732e-18)
(0.95068756 -0.0099792455 -7.1319543e-19)
(0.95962057 -0.0064281208 4.1732076e-18)
(0.96642951 -0.0040461768 -1.0493778e-18)
(-0.00024834209 0.0013188684 -4.5500422e-20)
(-0.00077076403 0.0040553357 -1.1088723e-19)
(-0.0013523802 0.0070469776 2.6777745e-19)
(-0.0020035046 0.010329169 -9.9635337e-21)
(-0.0027352468 0.013938315 -1.3056842e-19)
(-0.0035603313 0.017912209 -5.7606926e-20)
(-0.0044929636 0.022288668 -4.258791e-20)
(-0.0055488827 0.027104335 8.4052555e-20)
(-0.0067454092 0.032392859 -4.3594508e-19)
(-0.0081014766 0.038182672 3.2973833e-19)
(-0.0096375889 0.044494119 -1.599221e-20)
(-0.01137571 0.051335918 -2.0082037e-19)
(-0.013339044 0.058700893 7.5450083e-19)
(-0.015551691 0.066560972 -7.5583427e-19)
(-0.018038126 0.074861549 1.0131235e-19)
(-0.020822477 0.083515433 6.31337e-19)
(-0.023927562 0.092396773 -5.9871365e-19)
(-0.027373657 0.10133564 2.1131508e-19)
(-0.03117697 0.11011421 -4.1506133e-19)
(-0.035347847 0.11846588 5.3930274e-19)
(-0.039888561 0.12607883 1.026211e-18)
(-0.044791169 0.13260569 -1.0303867e-18)
(-0.050034851 0.13768039 -1.531576e-18)
(-0.05558343 0.14094265 2.9973638e-18)
(-0.061382434 0.14206794 -2.437211e-18)
(-0.067356062 0.14079879 1.4332199e-18)
(-0.073403779 0.13697053 -3.7390947e-19)
(-0.079394916 0.13052426 8.9385741e-19)
(-0.085164446 0.12150054 -9.2423129e-19)
(-0.090507169 0.11001549 -1.2588072e-18)
(-0.095169484 0.096235037 8.4469384e-19)
(-0.098845194 0.080344627 1.4135748e-18)
(-0.10117056 0.062530885 -1.2508241e-19)
(-0.10172013 0.042977317 -5.2326837e-20)
(-0.10000278 0.021863706 -9.3518958e-19)
(-0.095459196 -0.00063592112 4.0962594e-19)
(-0.087458594 -0.024355698 1.5141113e-18)
(-0.075292413 -0.049138449 7.7031882e-19)
(-0.05816887 -0.074827226 -1.1895942e-18)
(-0.03521039 -0.10123385 9.463618e-19)
(-0.0054609582 -0.1280716 -8.1438802e-19)
(0.032061579 -0.15483858 2.6987247e-19)
(0.078238208 -0.18065083 1.0532328e-18)
(0.13360011 -0.20406756 -2.5480601e-18)
(0.19794111 -0.22302564 -1.5216768e-18)
(0.26987436 -0.23504588 -9.9889358e-19)
(0.34655951 -0.2378674 3.1621435e-18)
(0.42382924 -0.23048447 2.0550021e-18)
(0.49767804 -0.21415489 2.4085387e-18)
(0.56510306 -0.19161852 4.1943062e-18)
(0.62465676 -0.16667432 -1.4456691e-18)
(0.67645242 -0.14239865 3.0543446e-19)
(0.72146953 -0.12058539 2.384676e-18)
(0.76085118 -0.1017606 6.9407544e-18)
(0.79555826 -0.085690279 4.5348647e-18)
(0.82617348 -0.071815826 1.7712414e-18)
(0.8531517 -0.059668515 5.1325316e-18)
(0.87667197 -0.048862398 -3.4689289e-18)
(0.89709371 -0.039345903 3.6756964e-19)
(0.91448462 -0.030927881 5.5657123e-18)
(0.92930428 -0.023885363 3.757091e-18)
(0.94162018 -0.017764611 1.7008605e-19)
(0.95189383 -0.01317158 -5.9994346e-18)
(0.96048919 -0.0089782187 6.4082534e-19)
(0.96720745 -0.0061243381 -9.0562856e-19)
(-0.00032118984 0.0014599767 -1.7953138e-19)
(-0.0009939177 0.0044909907 9.2847514e-20)
(-0.0017384219 0.0078062821 -1.2548543e-19)
(-0.0025664323 0.011445339 -7.1366015e-20)
(-0.0034904361 0.01544876 1.9931509e-19)
(-0.0045244513 0.019858954 1.8624686e-19)
(-0.0056837821 0.024718519 -1.913538e-19)
(-0.0069849888 0.030069026 2.3061843e-20)
(-0.0084457939 0.035949031 5.3497297e-21)
(-0.01008495 0.042391702 3.8118123e-19)
(-0.011922003 0.049421689 -4.192874e-20)
(-0.013976943 0.057051277 -7.7358531e-19)
(-0.016269734 0.065275688 6.2116799e-19)
(-0.018819659 0.074067549 -2.152673e-20)
(-0.021644514 0.083370575 -4.2111128e-19)
(-0.024759569 0.093092682 -3.6504329e-20)
(-0.028176342 0.10309894 9.3662507e-20)
(-0.031901195 0.11320506 4.2632386e-19)
(-0.03593373 0.12317232 -7.8998758e-19)
(-0.040265054 0.13270567 1.4067676e-18)
(-0.044876411 0.14145647 -3.0768029e-19)
(-0.049737155 0.14903185 2.2939229e-19)
(-0.054803671 0.15501245 -1.9149953e-19)
(-0.060018297 0.15897902 8.2582031e-21)
(-0.065307974 0.16054638 -1.1719852e-18)
(-0.070582939 0.1594005 -1.186427e-18)
(-0.075734501 0.15533084 2.3831159e-18)
(-0.080630961 0.14824919 4.0244208e-19)
(-0.085111753 0.13818757 -1.4178967e-18)
(-0.088982122 0.12527124 -5.0958966e-19)
(-0.092004263 0.10968727 -1.1695059e-18)
(-0.093889007 0.09165226 1.3323064e-18)
(-0.094291361 0.071389546 5.8986404e-19)
(-0.092807859 0.049110905 -1.3830654e-18)
(-0.088969942 0.025021849 5.8704502e-19)
(-0.082241233 -0.0006822737 2.8620286e-19)
(-0.072011641 -0.027820901 -8.3455021e-19)
(-0.057588736 -0.056230073 -2.2159729e-18)
(-0.038187 -0.085755271 -6.8393562e-19)
(-0.012920065 -0.11621438 4.5788189e-19)
(0.0191903 -0.14731333 1.0997021e-18)
(0.059152799 -0.17849514 1.1511945e-18)
(0.10785554 -0.20872454 1.2857067e-18)
(0.16576931 -0.23625376 2.7152637e-18)
(0.23249622 -0.25852638 -7.8764466e-20)
(0.30629453 -0.27243676 1.1530595e-18)
(0.3838459 -0.27516661 -6.3512724e-18)
(0.46043561 -0.26560089 -1.762089e-18)
(0.53198388 -0.24559909 -2.014422e-18)
(0.59587385 -0.21864769 -5.5761784e-18)
(0.65122272 -0.18933585 6.5054403e-18)
(0.69876871 -0.16128287 -1.4445979e-18)
(0.73991794 -0.13643623 -4.6196185e-18)
(0.77596609 -0.11523051 -5.6253161e-18)
(0.80785068 -0.097262319 -7.0116978e-19)
(0.83605744 -0.081817845 1.7865252e-18)
(0.8609832 -0.068326202 2.8540574e-18)
(0.88275482 -0.056328443 -1.2073102e-18)
(0.90175103 -0.045746411 2.1452709e-18)
(0.91798026 -0.036348537 -1.7448603e-18)
(0.93194831 -0.0284403 -5.8943146e-19)
(0.94356741 -0.02151739 -1.7268089e-18)
(0.95342189 -0.016280748 7.49446e-18)
(0.96158832 -0.011485897 2.5310402e-19)
(0.96814317 -0.0081797949 2.9616479e-18)
(-0.00039649401 0.0015689103 1.6850395e-19)
(-0.0012247769 0.0048284068 3.4596884e-20)
(-0.0021379408 0.0083956538 -3.8033212e-20)
(-0.0031491615 0.012313457 -1.8703429e-19)
(-0.0042723262 0.016625794 2.2446043e-19)
(-0.0055227755 0.021378905 -1.9075719e-19)
(-0.0069169331 0.026619445 -9.1257014e-20)
(-0.0084722046 0.032393301 4.9017794e-21)
(-0.010206728 0.038743499 7.7254622e-20)
(-0.012139081 0.045707754 4.4013357e-19)
(-0.014287836 0.053315192 -7.4064365e-19)
(-0.016670978 0.061582297 8.923002e-19)
(-0.019305144 0.070507922 -2.6289792e-19)
(-0.022204673 0.080067352 -3.5821486e-19)
(-0.02538044 0.090205452 5.5202636e-19)
(-0.028838498 0.10082906 -1.0944334e-18)
(-0.032578548 0.11179904 1.335615e-18)
(-0.036592188 0.12292259 2.1188623e-20)
(-0.040861284 0.13394695 7.7918527e-19)
(-0.045356296 0.14455594 -3.1271923e-18)
(-0.050035006 0.15437137 7.6678971e-19)
(-0.054841587 0.16296149 3.2167968e-18)
(-0.05970634 0.16985845 -1.5433404e-18)
(-0.064546151 0.17458609 -1.8701804e-18)
(-0.069265306 0.17669704 4.7761371e-19)
(-0.073756071 0.17581514 2.5398267e-18)
(-0.077898009 0.17167503 -3.9060138e-18)
(-0.081555514 0.16414874 4.3935152e-18)
(-0.084571842 0.15324958 -3.5042272e-18)
(-0.086761457 0.13910915 6.7907779e-19)
(-0.087902003 0.12193548 -1.1804285e-18)
(-0.087722478 0.10197228 -1.7007345e-18)
(-0.085902079 0.079477467 6.7392633e-19)
(-0.08205417 0.054697206 1.742214e-19)
(-0.075735703 0.027862424 2.5607575e-18)
(-0.066430936 -0.00081181446 -4.9902111e-19)
(-0.053548876 -0.031133808 1.3047699e-18)
(-0.036409195 -0.062939562 -1.1246303e-18)
(-0.014227588 -0.096085091 6.6255408e-19)
(0.013894684 -0.13040499 4.4343865e-19)
(0.048953763 -0.16560708 3.870578e-19)
(0.091959053 -0.2010849 3.8290049e-19)
(0.14374425 -0.23564589 -2.3678905e-18)
(0.20461343 -0.2672171 -1.8926432e-18)
(0.27384028 -0.29272143 5.3090099e-19)
(0.34922495 -0.30839218 -3.4784435e-19)
(0.42696255 -0.31078968 1.4230551e-18)
(0.50186975 -0.29872446 -2.8636369e-18)
(0.56997615 -0.27482293 -3.3419001e-18)
(0.62923457 -0.24342796 -9.70225e-19)
(0.6795211 -0.20989456 -2.5214561e-18)
(0.72228669 -0.17833461 7.9195888e-20)
(0.75932084 -0.15075324 1.2013606e-18)
(0.79195854 -0.12742781 5.8214063e-18)
(0.82101 -0.10776773 -2.8908007e-18)
(0.84679866 -0.090919027 1.1667442e-18)
(0.86964039 -0.076229252 -3.3178115e-18)
(0.8896025 -0.06317998 5.5244233e-18)
(0.90709393 -0.051665729 -3.1214041e-18)
(0.92206344 -0.041411403 1.0703373e-18)
(0.93508406 -0.032739342 -7.4725651e-21)
(0.94590469 -0.02509768 8.2095777e-19)
(0.95527172 -0.019272381 3.0583003e-18)
(0.96294849 -0.013916459 -5.7340237e-18)
(0.96931331 -0.010161135 5.8251569e-18)
(-0.00047054019 0.0016419565 -3.761933e-19)
(-0.0014520028 0.0050561216 -1.9832945e-19)
(-0.0025313378 0.0087950992 3.1152375e-19)
(-0.003723118 0.012904102 -8.2045326e-21)
(-0.0050425558 0.017429545 -2.8207833e-19)
(-0.0065062583 0.022420581 -1.4764124e-19)
(-0.0081317171 0.027927049 3.1161938e-19)
(-0.0099371383 0.03399838 -5.1239188e-20)
(-0.011941044 0.040681469 7.240604e-19)
(-0.014161823 0.048018234 -1.4147893e-19)
(-0.016617083 0.056042286 -3.6407707e-21)
(-0.019322829 0.064774805 5.2393291e-19)
(-0.022292428 0.0742194 -1.6867975e-18)
(-0.025535333 0.084355935 7.9043826e-19)
(-0.02905557 0.095133297 1.4257609e-18)
(-0.032850001 0.10646125 -1.5317001e-18)
(-0.036906408 0.11820164 1.9038994e-19)
(-0.041201479 0.13015968 -1.0932715e-18)
(-0.045698804 0.14207627 -8.2237367e-19)
(-0.050347321 0.15362276 2.6242091e-18)
(-0.055079881 0.16440038 -2.0014169e-18)
(-0.059813424 0.17394699 2.679642e-18)
(-0.064449189 0.18175333 -3.2049452e-19)
(-0.068874931 0.18729048 1.3336977e-18)
(-0.07296783 0.19004902 -2.9520915e-18)
(-0.076597309 0.1895859 7.1182964e-19)
(-0.079626641 0.18557165 1.8271898e-18)
(-0.081912152 0.17782601 -4.4833193e-18)
(-0.083298124 0.16633027 1.9748781e-18)
(-0.083606797 0.15121009 2.1554158e-18)
(-0.082630265 0.13269211 -1.8028692e-18)
(-0.080115293 0.11105369 -2.4404455e-19)
(-0.075763374 0.086581588 1.2396816e-18)
(-0.069206561 0.059558401 -6.9291956e-19)
(-0.060023689 0.030244299 1.0778507e-18)
(-0.047717111 -0.0011271267 -3.8326063e-18)
(-0.031709825 -0.03435566 2.0408569e-18)
(-0.011326527 -0.069281609 1.2460671e-18)
(0.014224317 -0.10577847 2.5953421e-18)
(0.045855612 -0.14370151 3.5959412e-19)
(0.084565821 -0.18276047 -2.831885e-18)
(0.13131797 -0.22229172 1.1515639e-18)
(0.18679323 -0.26093242 1.714557e-18)
(0.25097616 -0.29627718 2.6046193e-19)
(0.32264332 -0.32474684 -1.7195358e-18)
(0.3990511 -0.34194638 -1.5230068e-18)
(0.47593444 -0.34380398 4.6581184e-18)
(0.54786416 -0.32902172 2.4751174e-18)
(0.61120476 -0.30116049 5.3835823e-18)
(0.66465533 -0.26548442 1.8910043e-18)
(0.70905885 -0.22807017 7.3456583e-19)
(0.74660689 -0.19342483 5.3973954e-18)
(0.77937132 -0.16349667 2.0890216e-18)
(0.80858075 -0.13834964 -6.9995673e-18)
(0.83481807 -0.11720891 5.5463805e-18)
(0.85819866 -0.099112826 -5.0133023e-18)
(0.87894922 -0.08335762 2.3746015e-18)
(0.89707245 -0.069384514 -1.1240337e-17)
(0.91301498 -0.057062131 -5.5122314e-18)
(0.9266598 -0.046070439 2.1876488e-18)
(0.93866432 -0.036736514 3.3558074e-18)
(0.94860614 -0.028465764 5.5280336e-18)
(0.95743332 -0.022113906 9.6530054e-19)
(0.96454263 -0.016250395 7.438054e-19)
(0.97063688 -0.012077392 -7.78675e-18)
(-0.00053933242 0.0016766267 -6.8171424e-21)
(-0.0016633905 0.0051663509 3.717651e-19)
(-0.0028975143 0.0089909016 -4.3847861e-19)
(-0.0042575275 0.0131969 -2.1113098e-19)
(-0.0057598034 0.017832137 4.2319586e-19)
(-0.0074220737 0.022947635 1.3719567e-19)
(-0.009262756 0.028595391 -6.6613029e-19)
(-0.011300742 0.03482744 7.1784416e-19)
(-0.013554851 0.041693752 1.5168648e-19)
(-0.016043242 0.049239884 6.0467628e-19)
(-0.018782569 0.057503711 -1.6098565e-18)
(-0.021786947 0.066511355 -1.9651722e-20)
(-0.025066635 0.076272058 1.4558127e-18)
(-0.028626461 0.086771945 -1.5699699e-18)
(-0.032463945 0.097966617 1.1301756e-18)
(-0.036567173 0.10977264 4.2185804e-19)
(-0.040912452 0.12205817 -8.8843924e-19)
(-0.045461925 0.13463325 8.0922556e-19)
(-0.050161276 0.14724069 1.0891185e-18)
(-0.054937587 0.15954915 -2.345303e-20)
(-0.05969859 0.17114995 -1.762648e-18)
(-0.064332179 0.18156132 1.106369e-18)
(-0.068708554 0.19024214 -6.2637121e-19)
(-0.072682915 0.19661784 -3.0785644e-18)
(-0.076100555 0.20011958 -1.0467677e-18)
(-0.078802559 0.20023452 2.8887875e-18)
(-0.080629958 0.19655985 -2.9337357e-19)
(-0.081425091 0.18884876 3.3646638e-18)
(-0.081028038 0.1770343 -2.0204318e-18)
(-0.079266845 0.16122089 1.0842771e-18)
(-0.075945203 0.14164377 -1.5945636e-18)
(-0.070827486 0.11861265 -3.9529076e-19)
(-0.063631675 0.092448947 2.0161096e-18)
(-0.054012761 0.063471012 -2.1097872e-18)
(-0.041564805 0.031972667 -3.1505351e-18)
(-0.025805064 -0.0017933117 3.0830411e-19)
(-0.0061624953 -0.037619619 3.5122283e-18)
(0.01804234 -0.075353758 -4.5700861e-18)
(0.047613446 -0.11488752 9.9955754e-19)
(0.083470821 -0.15609184 -2.1781489e-18)
(0.12658368 -0.19866388 3.4551182e-19)
(0.17779361 -0.2418604 -3.5039585e-18)
(0.23750095 -0.28412935 -1.7001534e-18)
(0.3052043 -0.32273716 -2.1566837e-18)
(0.37903728 -0.3536622 8.8017154e-18)
(0.45567052 -0.3720074 2.9148487e-18)
(0.53041247 -0.37314397 -3.9004803e-18)
(0.59790802 -0.3556402 3.1969111e-18)
(0.6550639 -0.32396561 2.6862074e-18)
(0.7015522 -0.28436909 -3.0332273e-18)
(0.73938084 -0.24361758 -1.5811358e-18)
(0.77142538 -0.20645136 -3.6755783e-18)
(0.79986998 -0.17463762 -1.7570456e-18)
(0.82567605 -0.14799344 5.9594696e-18)
(0.84912343 -0.12558815 3.3039092e-18)
(0.87010368 -0.10639874 5.2786558e-19)
(0.88876327 -0.089703911 -1.0806796e-20)
(0.90503684 -0.074925662 2.7719625e-18)
(0.91941237 -0.06191 -3.9401073e-18)
(0.93169415 -0.050293423 -4.9860834e-18)
(0.94263902 -0.040397046 -1.3699313e-18)
(0.95164727 -0.031588228 -1.0248668e-17)
(0.95989198 -0.024774515 -8.0062218e-18)
(0.96636348 -0.018452461 -2.0217907e-18)