/*--------------------------------*- C++ -*----------------------------------*\
  =========                 |
  \\      /  F ield         | OpenFOAM: The Open Source CFD Toolbox
   \\    /   O peration     | Website:  https://openfoam.org
    \\  /    A nd           | Version:  13
     \\/     M anipulation  |
\*---------------------------------------------------------------------------*/
FoamFile
{
    format      ascii;
    class       volScalarField;
    location    "25.799355";
    object      omega;
}
// * * * * * * * * * * * * * * * * * * * * * * * * * * * * * * * * * * * * * //

dimensions      [0 0 -1 0 0 0 0];

internalField   nonuniform List<scalar> 
17140
(
4528389.9
731657.65
224626.34
95289.445
48487.664
27617.559
16960.779
10985.396
7399.8928
5135.927
3648.9048
2641.2155
1940.9289
1444.1232
1085.587
823.0943
628.56506
482.89635
372.83483
289.0277
224.7762
175.21987
136.79186
106.84871
83.41484
65.003888
50.492512
39.030577
29.976416
22.848557
17.286341
13.013337
9.8022107
7.4478368
5.7580774
4.5611266
3.7164148
3.1183751
2.6924389
2.3876944
2.1697833
2.0154054
1.9084663
1.8375131
1.7951204
1.7747048
1.7684091
1.7729139
1.7867311
1.8074334
1.8335726
1.8645008
1.9001341
1.9404326
1.9846514
2.0309995
2.0775189
2.1224365
2.1631518
2.1992314
2.2328444
2.2714243
2.3191684
2.3833898
2.4389653
4528420.9
731663.25
224628.4
95290.506
48488.301
27617.983
16961.08
10985.621
7400.0668
5136.0661
3649.0189
2641.311
1941.0105
1444.1943
1085.65
823.15101
628.61698
482.94463
372.88034
289.07109
224.81795
175.26028
136.83104
106.88664
83.45135
65.038657
50.525123
39.060543
30.003236
22.871779
17.305649
13.028643
9.8137301
7.4560837
5.7637513
4.5649478
3.7190032
3.1202062
2.6938548
2.3889382
2.1710337
2.0167988
1.910114
1.8395101
1.7976299
1.7779244
1.7722119
1.7777281
1.792843
1.8152595
1.8437008
1.8777618
1.9176542
1.9635736
2.0146975
2.068949
2.1237045
2.1759711
2.221022
2.2552583
2.2778019
2.2923364
2.3055601
2.329028
2.3559877
4528451.2
731668.23
224629.94
95291.165
48488.643
27618.182
16961.208
10985.71
7400.1336
5136.1199
3649.0653
2641.3536
1941.0515
1444.2354
1085.6923
823.19545
628.66413
482.99491
372.93401
289.12828
224.87861
175.32421
136.89788
106.95585
83.522195
65.110205
50.596226
39.129826
30.069104
22.932474
17.35942
13.074088
9.8502167
7.4839921
5.7843126
4.5797789
3.7296667
3.1279845
2.6997131
2.3935786
2.1749698
2.0204204
1.9137379
1.8434186
1.8022017
1.7833024
1.7785812
1.7857278
1.8029519
1.8281509
1.8603052
1.8993564
1.9459423
2.0005286
2.062067
2.1281186
2.195792
2.2606035
2.315353
2.3531706
2.3713096
2.3733965
2.3617821
2.3543814
2.36965
4528483
731673.41
224631.55
95291.854
48488.999
27618.392
16961.346
10985.808
7400.2094
5136.1833
3649.1222
2641.4077
1941.1055
1444.2909
1085.7508
823.25784
628.73119
483.0672
373.01191
289.21199
224.96816
175.41943
136.99838
107.06097
83.631004
65.221446
50.708256
39.240564
30.175985
23.032501
17.449431
13.151338
9.9131711
7.5328478
5.8208131
4.6064547
3.7490628
3.1422341
2.7104422
2.4019774
2.1819098
2.0265617
1.9196166
1.8495194
1.8091242
1.791157
1.7878746
1.7973334
1.8175738
1.8467636
1.8842342
1.9304091
1.9864845
2.0531179
2.1288208
2.2110427
2.2967155
2.3794524
2.4482885
2.4928409
2.5107291
2.5064147
2.4801592
2.4516432
2.4613923
4528516.9
731678.91
224633.25
95292.577
48489.373
27618.615
16961.494
10985.916
7400.2954
5136.2576
3649.1909
2641.475
1941.174
1444.3627
1085.8272
823.3401
628.82014
483.16349
373.11601
289.32419
225.08851
175.54775
137.13424
107.20363
83.779343
65.373904
50.862737
39.394318
30.325513
23.173589
17.577484
13.262211
10.004323
7.6041857
5.8745276
4.6459825
3.7779646
3.1635436
2.7264933
2.4144878
2.1921388
2.0354621
1.9279581
1.858007
1.8184854
1.8018824
1.8004443
1.8129681
1.8372619
1.8718443
1.9165184
1.9723596
2.0412231
2.123673
2.2176884
2.3212801
2.431224
2.5382145
2.6250597
2.6774141
2.6944805
2.6819293
2.6420053
2.6070113
2.6170304
4528552.1
731684.58
224634.99
95293.325
48489.764
27618.849
16961.652
10986.033
7400.3913
5136.3425
3649.2713
2641.5551
1941.2568
1444.4503
1085.9213
823.4419
628.93065
483.28349
373.24606
289.46463
225.23946
175.70907
137.30546
107.38391
83.96742
65.567947
51.060228
39.591875
30.518743
23.357078
17.745196
13.408517
10.125537
7.6997573
5.9469699
4.6995911
3.8173333
3.192654
2.7484404
2.4315625
2.2060254
2.047432
1.9390228
1.8692155
1.8306824
1.8156773
1.8167393
1.8331834
1.8627478
1.9043987
1.9585742
2.0272163
2.1128043
2.2152797
2.3326292
2.4646127
2.6076055
2.747709
2.8570656
2.9164308
2.9276224
2.8991876
2.8356131
2.7849003
2.7792123
4528588.7
731690.44
224636.79
95294.098
48490.172
27619.096
16961.819
10986.16
7400.4965
5136.4373
3649.3626
2641.6473
1941.3531
1444.5529
1086.0321
823.56221
629.06162
483.42602
373.40082
289.63207
225.41978
175.90215
137.51086
107.60077
84.194343
65.802895
51.300322
39.833173
30.756023
23.583785
17.953862
13.591963
10.278755
7.8215132
6.039903
4.7687552
3.8683455
3.2304854
2.7770039
2.4537758
2.2240428
2.0628834
1.9532099
1.8835053
1.846133
1.8329168
1.8373459
1.8587135
1.8950252
1.945819
2.0124018
2.0978182
2.2047739
2.3321587
2.479844
2.6507234
2.8400786
3.0267268
3.166374
3.2301349
3.227013
3.1680692
3.0627922
2.981591
2.9418285
4528626.6
731696.5
224638.64
95294.9
48490.596
27619.355
16961.996
10986.295
7400.6105
5136.5414
3649.4639
2641.7506
1941.4616
1444.6692
1086.158
823.69932
629.21122
483.58912
373.57822
289.82434
225.62721
176.12473
137.74821
107.85203
84.458083
66.076943
51.581533
40.117151
31.03683
23.853829
18.204296
13.81401
10.465905
7.9715578
6.1553329
4.8552123
3.9324202
3.2781656
2.8130774
2.481848
2.2467909
2.0823415
1.9710102
1.9013337
1.8653126
1.8542746
1.862991
1.8905606
1.935481
1.9980861
2.0808906
2.1881559
2.3218019
2.4805747
2.6695854
2.8959319
3.1524818
3.406364
3.5903293
3.6507497
3.6225465
3.5073336
3.3350171
3.2117546
3.1206052
4528664.7
731702.75
224640.57
95295.733
48491.035
27619.623
16962.182
10986.439
7400.7322
5136.6535
3649.5739
2641.8634
1941.5806
1444.7971
1086.2969
823.85087
629.37683
483.76997
373.77526
290.03826
225.85845
176.37342
138.01405
108.13428
84.755345
66.387014
51.901124
40.441552
31.35955
24.166396
18.496603
14.075681
10.688747
8.1520613
6.2954757
4.9609666
4.0112414
3.337059
2.8577582
2.516674
2.2750244
2.1064748
1.993052
1.9233146
1.8888897
1.8805991
1.8947133
1.9301374
1.9861052
2.0640947
2.1682789
2.3036622
2.4702694
2.6707336
2.9191522
3.2275633
3.5839385
3.9362268
4.1808464
4.2296677
4.152408
3.9387774
3.6646258
3.4820763
3.3102572
4528704.9
731709.26
224642.58
95296.599
48491.491
27619.903
16962.377
10986.589
7400.8606
5136.7723
3649.6908
2641.9836
1941.7078
1444.9341
1086.4459
824.01367
629.555
483.96484
373.98791
290.26956
226.10902
176.64353
138.30362
108.44271
85.081386
66.728552
52.254877
40.802677
31.721209
24.519458
18.829885
14.377279
10.948652
8.3651051
6.4626778
5.0882669
4.1067693
3.4087935
2.9123793
2.5593587
2.3096898
2.1361374
2.0201597
1.9502791
1.9177696
1.9130487
1.9339999
1.9794897
2.0498338
2.148189
2.2807462
2.4514738
2.6600226
2.9200823
3.2576845
3.6904127
4.1944709
4.6813242
4.9920435
5.0250316
4.8314514
4.4506272
4.0289381
3.7789152
3.4466762
4528746.8
731716.01
224644.66
95297.498
48491.965
27620.193
16962.578
10986.745
7400.9939
5136.8958
3649.8125
2642.1088
1941.8404
1445.077
1086.6014
824.18388
629.74152
484.16911
374.21121
290.51293
226.37326
176.92916
138.61078
108.77105
85.429917
67.095385
52.636908
41.195145
32.117186
24.909438
19.201882
14.718028
11.246272
8.6124363
6.6592658
5.2395375
4.2212257
3.4952765
2.9785405
2.6112547
2.35197
2.1724243
2.0534296
1.9833804
1.9531697
1.9532716
1.9830231
2.0416627
2.131132
2.2570258
2.4269002
2.6415049
2.9081238
3.2587076
3.7337359
4.3541639
5.0620731
5.6907151
5.9749803
5.7279266
5.2056392
4.7005102
4.1935277
3.9003608
3.3923133
4528789.6
731722.96
224646.82
95298.425
48492.456
27620.493
16962.786
10986.906
7401.1303
5137.0217
3649.9362
2642.2359
1941.975
1445.222
1086.7594
824.35677
629.93118
484.37715
374.43904
290.7618
226.64419
177.22294
138.92784
109.11138
85.792883
67.47948
53.039398
41.611591
32.540861
25.330812
19.608525
15.095604
11.581097
8.8950945
6.8872866
5.417233
4.3570344
3.598687
3.0581303
2.6740026
2.4033376
2.2167366
2.0943232
2.0242603
1.9967455
2.003711
2.0450359
2.1213272
2.2370163
2.4007273
2.6181198
2.8903248
3.2453989
3.7386278
4.426388
5.3136559
6.240145
6.6653897
6.4530998
5.8495718
4.9460329
4.248698
3.7173977
3.3392692
2.576442
4528834.7
731730.23
224649.06
95299.388
48492.963
27620.802
16962.998
10987.069
7401.268
5137.1478
3650.0594
2642.362
1942.108
1445.3651
1086.9151
824.52726
630.11836
484.58275
374.66463
291.00881
226.9139
177.5164
139.24585
109.45434
86.160626
67.871026
53.45258
42.042547
32.983401
25.775776
20.043499
15.505604
11.950887
9.2128942
7.1481034
5.6235739
4.51668
3.7214223
3.1533274
2.7495685
2.4656185
2.270858
2.144762
2.074994
2.051387
2.0678776
2.1250418
2.2258936
2.3787961
2.5936038
2.8712491
3.2295111
3.7283195
4.4506915
5.4570954
6.6475924
7.2060768
7.0017938
6.2619431
4.6101547
3.0088228
2.1045808
1.650913
1.486638
0.96637581
4528880.1
731737.66
224651.36
95300.382
48493.487
27621.119
16963.215
10987.232
7401.4044
5137.2712
3650.1788
2642.4831
1942.2351
1445.5014
1087.0632
824.68939
630.29649
484.7787
374.8801
291.24542
227.17315
177.79968
139.55432
109.78888
86.52163
68.258175
53.86446
42.47613
33.43337
26.233789
20.497688
15.940908
12.35097
9.5637291
7.4418001
5.8601113
4.7024369
3.865959
3.2665568
2.8402704
2.5410895
2.3371681
2.207363
2.1386618
2.1212731
2.1512779
2.231046
2.3675521
2.5742041
2.8549078
3.2185857
3.7211488
4.4629662
5.5527814
6.9665855
7.7255109
7.5071998
6.6415254
4.4180654
2.2863506
1.3320011
0.90191135
0.68706164
0.5952484
0.40525691
4528926.9
731745.32
224653.73
95301.41
48494.026
27621.444
16963.433
10987.395
7401.5373
5137.3894
3650.2912
2642.5958
1942.3524
1445.6265
1087.1987
824.83749
630.45922
484.95794
375.07767
291.46307
227.41262
178.06262
139.84231
110.10328
86.863472
68.627903
54.261577
42.898677
33.877227
26.691861
20.959214
16.391436
12.773755
9.9428529
7.7663964
6.1270587
4.9158988
4.0345722
3.4003603
2.9487667
2.6325654
2.4188308
2.2858073
2.2199172
2.2129465
2.2627448
2.3764107
2.5669013
2.847866
3.2182442
3.7288726
4.4897874
5.6515626
7.2710092
8.266408
8.0622928
7.1676983
4.661308
2.2461116
1.2065267
0.73361584
0.50474534
0.37586164
0.3139255
0.23312045
4528977.9
731753.52
224656.23
95302.478
48494.581
27621.774
16963.652
10987.555
7401.665
5137.5
3650.394
2642.697
1942.4562
1445.7361
1087.3166
824.96605
630.60038
485.11358
375.24964
291.65323
227.62286
178.29487
140.09849
110.38525
87.172918
68.966085
54.629021
43.294669
34.299121
27.134224
21.412971
16.843452
13.207644
10.341703
8.1167587
6.4223506
5.1572477
4.228844
3.5571277
3.0779796
2.7434903
2.5199857
2.38533
2.3263956
2.3367203
2.4173422
2.5846867
2.8583956
3.2377529
3.760277
4.5493043
5.7895856
7.6181696
8.8336653
8.678245
7.7880088
5.14478
2.414243
1.2446565
0.73326901
0.48645203
0.3578641
0.27305296
0.22557829
0.17923085
4529031.7
731762.03
224658.83
95303.585
48495.153
27622.111
16963.871
10987.711
7401.7849
5137.6001
3650.4839
2642.7827
1942.542
1445.8252
1087.4115
825.06885
630.713
485.23786
375.38741
291.8064
227.79341
178.48492
140.31029
110.62111
87.43511
69.256707
54.949661
43.645954
34.680062
27.541353
21.839416
17.278283
13.636102
10.747041
8.4835013
6.7404242
5.4241715
4.4488696
3.7386331
3.2309656
2.8781745
2.6465305
2.5143705
2.4703245
2.5091976
2.6427146
2.899606
3.296922
3.8307915
4.6582058
5.9956268
8.0513506
9.4428908
9.3271287
8.4515398
5.7533231
2.6798247
1.3560426
0.7800565
0.51345011
0.37180036
0.28923398
0.22733347
0.19143288
0.15769008
4529085.9
731770.72
224661.5
95304.725
48495.738
27622.451
16964.088
10987.86
7401.8954
5137.6879
3650.5585
2642.8504
1942.607
1445.8905
1087.4795
825.14152
630.79212
485.32513
375.48459
291.91531
227.91608
178.62357
140.46735
110.79925
87.637166
69.485525
55.207869
43.935557
35.001837
27.894039
22.21874
17.676061
14.039885
11.141147
8.8519912
7.0708585
5.7105341
4.692196
3.9453884
3.4107727
3.0422666
2.8074022
2.6865721
2.6721701
2.7612165
2.9909231
3.4029083
3.9835064
4.8402846
6.3034872
8.6110508
10.11086
10.010987
9.137817
6.4144319
3.0025868
1.507539
0.85583481
0.55745169
0.40453967
0.30774363
0.24340378
0.19349116
0.16583446
0.13994811
4529139.6
731779.6
224664.24
95305.887
48496.333
27622.793
16964.301
10988.001
7401.9948
5137.7614
3650.6157
2642.8975
1942.6481
1445.9285
1087.5166
825.17944
630.83247
485.36944
375.53443
291.97239
227.98232
178.70118
140.55889
110.90761
87.765606
69.637555
55.387074
44.145252
35.244539
28.170715
22.527865
18.012593
14.394662
11.501151
9.2022774
7.3978316
6.0054082
4.9528492
4.1760605
3.6205637
3.2438951
3.0171932
2.9262725
2.9663402
3.1543984
3.5656683
4.2237089
5.151083
6.7272807
9.3301962
10.853774
10.738663
9.854371
7.0911396
3.3583848
1.6886283
0.9500119
0.61415839
0.43992533
0.33036168
0.25249977
0.20147714
0.16402032
0.1453464
0.12744516
4529196.7
731788.86
224667.08
95307.092
48496.945
27623.14
16964.512
10988.135
7402.0824
5137.8194
3650.654
2642.9222
1942.6631
1445.9366
1087.5197
825.17912
630.82999
485.36603
375.53135
291.97109
227.98449
178.70888
140.57463
110.93445
87.807154
69.69799
55.470992
44.257314
35.388711
28.350054
22.743632
18.263201
14.674704
11.801235
9.5100379
7.7004465
6.2929654
5.2211346
4.4277219
3.8649443
3.4968405
3.3022087
3.2780702
3.4226779
3.8164341
4.5521288
5.6057345
7.3084754
10.191544
11.691996
11.521476
10.610055
7.772766
3.7381807
1.89357
1.0609188
0.67999906
0.48117176
0.35492635
0.27132819
0.21399589
0.17804276
0.15026815
0.13599529
0.12116886
4529258.1
731798.63
224670.06
95308.344
48497.575
27623.491
16964.72
10988.261
7402.1577
5137.8612
3650.6725
2642.9234
1942.6509
1445.9135
1087.4874
825.13893
630.78292
485.31303
375.47341
291.90935
227.92035
178.64408
140.51136
110.8754
87.755611
69.657885
55.446951
44.254765
35.414244
28.409948
22.842836
18.403842
14.854736
12.015351
9.7496829
7.9555579
6.5549234
5.486036
4.6989576
4.1549661
3.8293035
3.7164712
3.8193142
4.1942035
4.9937567
6.2134587
8.0747389
11.160675
12.624701
12.384005
11.405021
8.452234
4.1448297
2.1245448
1.1890051
0.75627952
0.528061
0.38694983
0.29590336
0.23569872
0.19269653
0.1627691
0.13839867
0.12591089
0.11330675
4529319.5
731808.56
224673.1
95309.628
48498.218
27623.844
16964.923
10988.378
7402.2197
5137.8862
3650.6704
2642.9003
1942.6105
1445.8581
1087.4185
825.05751
630.68972
485.20868
375.35861
291.78498
227.78758
178.50449
140.36705
110.7291
87.610777
69.518714
55.318379
44.142307
35.323559
28.34706
22.813959
18.41554
14.913375
12.122519
9.9007313
8.1448094
6.7780279
5.7434247
4.9998389
4.5219139
4.3051157
4.3627717
4.7299051
5.590649
6.9910998
9.0379959
12.226298
13.625192
13.33578
12.240453
9.12995
4.5892266
2.3901278
1.3426411
0.84464745
0.58110996
0.42419531
0.32533408
0.25803011
0.20867366
0.17082302
0.1453092
0.12684233
0.11802089
0.10871742
4529381.2
731818.68
224676.23
95310.942
48498.873
27624.2
16965.123
10988.486
7402.269
5137.8945
3650.6481
2642.8533
1942.5423
1445.7709
1087.3136
824.93554
630.55118
485.05393
375.18806
291.59922
227.58753
178.29152
140.14312
110.49689
87.373789
69.2814
55.086152
43.921506
35.121298
28.170989
22.671838
18.314479
14.859287
12.121623
9.9614233
8.2687738
6.9698142
6.0145642
5.3750952
5.0486321
5.0643667
5.4389382
6.3797288
7.9727562
10.18752
13.372871
14.692989
14.350267
13.122322
9.8162136
5.1039742
2.7106237
1.5200363
0.93833353
0.63771348
0.46602169
0.35828154
0.28196003
0.22476435
0.18299856
0.15446693
0.13590851
0.12162705
0.11420948
0.10549939
4529447.3
731829.37
224679.49
95312.306
48499.548
27624.563
16965.321
10988.587
7402.3073
5137.8882
3650.6076
2642.7847
1942.4491
1445.6551
1087.1763
824.77723
630.37214
484.85431
374.96806
291.35924
227.3283
178.01427
139.8497
110.18996
87.056942
68.959311
54.764677
43.60772
34.823449
27.898344
22.434403
18.122627
14.723413
12.051994
9.9676721
8.3680394
7.184267
6.3786018
5.9463147
5.92476
6.3301081
7.3740688
9.1580406
11.502491
14.589555
15.830775
15.431308
14.062927
10.530285
5.6869065
3.0613546
1.6970496
1.0311648
0.70184122
0.5172428
0.39621883
0.30833277
0.24384046
0.19924387
0.168151
0.14563617
0.1288294
0.11574225
0.1087198
0.10157078
4529517.1
731840.54
224682.9
95313.73
48500.25
27624.937
16965.521
10988.685
7402.3388
5137.872
3650.5545
2642.7009
1942.3382
1445.519
1087.016
824.59337
630.16481
484.62357
374.71405
291.08231
227.02915
177.69411
139.51043
109.83433
86.688744
68.58355
54.387735
43.237486
34.469394
27.57152
22.147384
17.889459
14.559616
11.974859
9.9988378
8.5436945
7.5537583
7.0153501
6.9642736
7.4171828
8.5708716
10.528619
12.962921
15.881882
17.045712
16.585202
15.065857
11.293814
6.3201888
3.4348572
1.8880552
1.1457156
0.78699292
0.57837582
0.43673809
0.33617344
0.26660213
0.2182309
0.18273243
0.15531759
0.1345198
0.12038326
0.11045314
0.10549918
0.099465519
4529588.1
731851.96
224686.4
95315.203
48500.975
27625.324
16965.729
10988.787
7402.3712
5137.855
3650.4993
2642.614
1942.2233
1445.3784
1086.8507
824.404
629.95167
484.38685
374.45401
290.79943
226.72432
177.36875
139.16668
109.47523
86.318465
68.2076
54.013202
42.873277
34.126486
27.263248
21.889764
17.701372
14.463159
12.0028
10.201801
8.9829182
8.3173287
8.2299999
8.7272473
9.9930532
12.073355
14.570492
17.2837
18.349199
17.821796
16.137756
12.109436
7.0101388
3.8470908
2.1114704
1.2836904
0.88035871
0.63781806
0.47551045
0.3678731
0.29397474
0.24000998
0.19803084
0.166024
0.14295033
0.12729084
0.11656546
0.10798233
0.10297677
0.096836571
4529661.3
731863.83
224690.03
95316.73
48501.732
27625.731
16965.952
10988.902
7402.4161
5137.851
3650.458
2642.5424
1942.1256
1445.2569
1086.7072
824.23922
629.76632
484.18151
374.22934
290.55635
226.46415
177.09339
138.87878
109.17843
86.017618
67.909067
53.725189
42.606187
33.893236
27.079374
21.775847
17.687807
14.595392
12.338059
10.811352
9.9650802
9.8046765
10.312601
11.646914
13.807502
16.354031
18.853451
19.755674
19.150678
17.285876
12.980708
7.7578354
4.3019492
2.3636889
1.4346863
0.97793006
0.70183934
0.52577941
0.41082962
0.3277215
0.26292009
0.21397585
0.17859698
0.1541304
0.13647282
0.12261222
0.11203398
0.10412794
0.099807543
0.095048051
4529737.4
731876.13
224693.82
95318.318
48502.525
27626.166
16966.2
10989.042
7402.4876
5137.876
3650.4492
2642.5074
1942.0692
1445.1823
1086.6164
824.1338
629.64758
484.05068
374.08775
290.40562
226.30628
176.93097
138.71514
109.01794
85.865981
67.773769
53.616127
42.53668
33.881831
27.15309
21.971221
18.051363
15.185133
13.232079
12.112389
11.802004
12.266402
13.578975
15.77317
18.358442
20.649908
21.298716
20.575604
18.515221
13.909653
8.5644358
4.8047502
2.6457912
1.6021199
1.0871435
0.78077951
0.58718124
0.45742771
0.35876024
0.28550097
0.23275287
0.19581422
0.16776244
0.14591211
0.12856277
0.11615353
0.10777006
0.10189081
0.098342594
0.093623505
4529816
731888.84
224697.73
95319.975
48503.362
27626.637
16966.482
10989.217
7402.5984
5137.9449
3650.4899
2642.5284
1942.0762
1445.1792
1086.6061
824.11875
629.62993
484.03254
374.07141
290.39368
226.3019
176.93812
138.73894
109.06497
85.94487
67.895895
53.796611
42.795736
34.246441
27.658873
22.664741
18.993943
16.45734
14.935323
14.372748
14.696066
15.875289
17.988803
20.633531
22.745077
23.006954
22.124786
19.792081
14.903909
9.431385
5.3573825
2.9585936
1.7869838
1.2104652
0.8708328
0.65431966
0.50401349
0.39380071
0.3151814
0.25890373
0.2152524
0.18144409
0.15494568
0.13607654
0.12252124
0.11319036
0.10574017
0.10001401
0.095992066
0.092183118
4529897.8
731902.1
224701.79
95321.705
48504.248
27627.147
16966.803
10989.433
7402.753
5138.063
3650.5865
2642.613
1942.1555
1445.2581
1086.6888
824.20883
629.73083
484.14786
374.20505
290.55009
226.48633
177.15686
138.99974
109.37755
86.321648
68.353022
54.355514
43.484636
35.102147
28.728944
24.010779
20.694038
18.60799
17.647533
17.737368
18.653283
20.571404
23.047371
25.01719
24.905039
23.805278
21.080532
15.972713
10.353783
5.9559645
3.3011883
1.9923762
1.3493989
0.9729915
0.7287452
0.55870304
0.43712284
0.35212663
0.28638159
0.23510657
0.19568474
0.16731673
0.14636933
0.13139507
0.11895902
0.10959205
0.10238565
0.097658967
0.094571702
0.091198255
4529983.7
731915.9
224706.02
95323.513
48505.18
27627.694
16967.157
10989.683
7402.9447
5138.2229
3650.7305
2642.7519
1942.297
1445.4086
1086.8535
824.39288
629.93934
484.38627
374.47944
290.86743
226.8548
177.58628
139.50207
109.96769
87.018489
69.180386
55.343474
44.671433
36.5362
30.470906
26.135165
23.288433
21.766787
21.457793
22.069624
23.610784
25.761067
27.419343
26.982469
25.614318
22.432417
17.116014
11.317846
6.5928663
3.6756971
2.2235233
1.5070066
1.087154
0.81259478
0.62164022
0.48704388
0.39017629
0.31539354
0.25708711
0.21465576
0.18256945
0.15863526
0.13953754
0.12462373
0.11368905
0.10613548
0.10064507
0.096574309
0.093330952
0.090205556
4530071.7
731930.11
224710.41
95325.388
48506.153
27628.271
16967.538
10989.961
7403.1667
5138.4167
3650.9134
2642.9359
1942.4911
1445.6204
1087.0899
824.66078
630.24589
484.73936
374.88801
291.34187
227.40738
178.23173
140.25844
110.85688
88.067294
70.421949
56.818567
46.429925
38.638316
32.987014
29.142453
26.86143
25.95868
26.189381
27.211109
28.844484
29.964352
29.321332
27.556748
23.862744
18.321224
12.298134
7.2611012
4.0885708
2.4865763
1.684633
1.2134463
0.90630035
0.69442815
0.54331446
0.43334317
0.34920585
0.28624711
0.23768042
0.20078699
0.17116304
0.14916042
0.13215943
0.12037777
0.11137776
0.10447579
0.098800651
0.094712331
0.091890793
0.08934402
4530163.2
731944.94
224714.97
95327.34
48507.174
27628.885
16967.954
10990.274
7403.4276
5138.6543
3651.1466
2643.1781
1942.7529
1445.911
1087.4182
825.03561
630.67704
485.23771
375.46603
292.01416
228.19127
179.14795
141.33178
112.11738
89.551135
72.172439
58.886892
48.875271
41.52567
36.380879
33.093422
31.382262
30.991105
31.409773
32.505805
32.645599
31.709085
29.54014
25.384808
19.561907
13.278775
7.9554175
4.5488446
2.7879817
1.8831159
1.3527385
1.0121644
0.77792129
0.60806797
0.48244655
0.38877104
0.31816295
0.26319148
0.21900167
0.18588458
0.16043081
0.14228825
0.12783478
0.11705208
0.10790566
0.10153595
0.096835833
0.093755896
0.091213718
0.088720067
4530257.7
731960.23
224719.68
95329.379
48508.255
27629.552
16968.422
10990.642
7403.7493
5138.9612
3651.4594
2643.5119
1943.1203
1446.3231
1087.8861
825.57104
631.2927
485.94801
376.28766
292.96668
229.29786
180.43623
142.83467
113.87403
91.607547
74.580519
61.693522
52.138583
45.295616
40.683265
37.903521
36.585163
36.339365
36.373622
35.732845
34.134042
31.496189
26.892093
20.763389
14.233181
8.6922743
5.0773247
3.136469
2.1046942
1.5069114
1.1322849
0.87306561
0.6816186
0.5393785
0.43362983
0.35454754
0.29189003
0.24283549
0.20444892
0.17627176
0.15366094
0.13650846
0.12244238
0.1127887
0.10529161
0.10024273
0.095886034
0.092635451
0.090015129
0.087977531
4530355.2
731976.03
224724.57
95331.515
48509.411
27630.286
16968.958
10991.086
7404.1578
5139.3674
3651.8862
2643.9768
1943.6379
1446.9072
1088.5505
826.33051
632.16362
486.94907
377.44058
294.29701
230.83593
182.21819
144.90354
116.27717
94.391414
77.778999
65.34092
56.269137
49.909738
45.721433
43.216829
41.884355
40.813949
39.088902
36.757293
33.486697
28.408659
21.969508
15.241462
9.534768
5.6993246
3.5332881
2.3473386
1.6773803
1.2676831
0.98076272
0.76533503
0.60534638
0.48600823
0.39563038
0.32547482
0.27001604
0.22677558
0.19226756
0.16637869
0.1453885
0.13065555
0.11938235
0.11080746
0.10366245
0.098335614
0.094205942
0.091520204
0.089427898
0.087529322
4530457.6
731992.57
224729.71
95333.772
48510.655
27631.101
16969.579
10991.624
7404.6716
5139.8945
3652.4519
2644.6009
1944.3378
1447.6994
1089.4521
827.35983
633.3412
488.29839
378.98896
296.07606
232.88171
184.57049
147.60325
119.36653
97.911175
81.76468
69.797796
61.135529
55.092266
51.013087
48.152778
45.590249
42.784712
39.725848
35.68067
30.052119
23.283113
16.364777
10.482718
6.3871623
3.9602098
2.6118925
1.8714418
1.4232832
1.1030607
0.86162293
0.68189484
0.54672507
0.44325147
0.3634148
0.30173696
0.25203524
0.21273201
0.18150336
0.15874875
0.14044144
0.12717691
0.11552964
0.10745425
0.10117122
0.09690344
0.093482072
0.090919515
0.088728145
0.086930174
4530563.2
732009.71
224735.06
95336.148
48511.988
27632.003
16970.294
10992.266
7405.3055
5140.5593
3653.1754
2645.4055
1945.2434
1448.7254
1090.6184
828.68784
634.85447
490.02288
380.95292
298.31021
235.41851
187.44265
150.84149
122.99366
101.93591
86.177035
74.531552
66.034541
59.826189
55.055536
50.952288
47.062971
43.077318
38.121762
31.868664
24.737567
17.609047
11.522272
7.1485671
4.4512392
2.9344708
2.1074097
1.6021565
1.2396607
0.97037271
0.77018449
0.6166565
0.49867253
0.40780379
0.33764109
0.28191283
0.23644483
0.20094274
0.17289393
0.1521838
0.1349337
0.12248944
0.11264547
0.10603903
0.10010149
0.095943389
0.092289724
0.08993531
0.088050204
0.086533265
4530672.5
732027.45
224740.6
95338.639
48513.411
27632.992
16971.102
10993.013
7406.0584
5141.3598
3654.0538
2646.3862
1946.3483
1449.9757
1092.0357
830.29479
636.6749
492.08203
383.27694
300.92452
238.34512
190.69564
154.41993
126.87131
106.04729
90.400152
78.705105
69.866711
62.93535
57.166531
52.002317
46.849245
40.871065
33.933233
26.402362
19.030979
12.707931
8.036761
5.0467582
3.3245196
2.3728127
1.7916938
1.3877957
1.0947362
0.87310486
0.69902093
0.56375598
0.46008155
0.37935031
0.31560166
0.26481032
0.22345708
0.19107959
0.16515176
0.14617266
0.13061544
0.1200139
0.11055413
0.10378696
0.098100889
0.094500731
0.091547934
0.089505376
0.087668482
0.086132499
4530784.7
732045.77
224746.36
95341.243
48514.921
27634.06
16971.989
10993.847
7406.9066
5142.2674
3655.0526
2647.5022
1947.6046
1451.3946
1093.6393
832.10556
638.71551
494.37444
385.84047
303.77304
241.48248
194.10895
158.07036
130.68257
109.89252
94.088592
81.967585
72.448509
64.622112
57.802677
51.171024
44.062229
36.3678
28.374724
20.701001
14.089768
9.081472
5.7566652
3.7801027
2.6709119
2.0071955
1.5649189
1.2446198
0.99384275
0.79414382
0.63977505
0.52063497
0.42803355
0.35480318
0.29712504
0.25069357
0.2122671
0.18227566
0.15865809
0.14163273
0.12690338
0.11645573
0.10766954
0.10199473
0.097230919
0.093875238
0.090807259
0.088707368
0.08707765
0.08575651
4530901
732061.34
224749.46
95341.739
48514.874
27633.96
16971.984
10993.988
7407.2166
5142.757
3655.7309
2648.3782
1948.6888
1452.6985
1095.1756
833.88719
640.75424
496.67867
388.41223
306.60322
244.54469
197.35177
161.40879
133.98994
112.99607
96.773223
83.992124
73.60051
64.681639
56.28553
47.885891
39.318602
30.76473
22.700545
15.731074
10.331337
6.6206781
4.3366863
3.0332224
2.2675951
1.7719821
1.4113857
1.12634
0.90197223
0.72897332
0.59312579
0.48566043
0.40155579
0.3348582
0.28158929
0.23820854
0.20259581
0.17519095
0.15309632
0.13691563
0.12342991
0.11456515
0.10644423
0.10095576
0.095885038
0.092681368
0.090034133
0.088329081
0.086761875
0.085523843
4531685.4
732195.42
224794.6
95363.131
48527.021
27641.748
16977.45
10998.118
7410.5388
5145.5832
3658.2573
2650.7359
1950.9699
1454.9707
1097.4896
836.28042
643.25248
499.29507
391.14477
309.43056
247.42058
200.19907
164.11441
136.40347
114.93506
98.046874
84.387856
72.775957
62.289623
52.359304
42.72816
33.46004
24.893251
17.500912
11.683987
7.5729953
4.9593108
3.4375222
2.5508049
1.9899242
1.5877842
1.2746373
1.0289782
0.83422461
0.67698555
0.55210803
0.45445698
0.37800909
0.31646227
0.26729491
0.22734775
0.19408909
0.16825877
0.14786753
0.13341818
0.12053448
0.11175995
0.10402109
0.099118544
0.09481701
0.092173339
0.089559546
0.087816474
0.086281267
0.085217243
4531684.6
732191.74
224791.63
95360.96
48525.55
27640.782
16976.862
10997.829
7410.5041
5145.7754
3658.6606
2651.3421
1951.7751
1455.9729
1098.6864
837.66639
644.81581
501.01348
392.98069
311.32563
249.29029
201.92879
165.55926
137.39859
115.28047
97.464439
82.575046
69.594066
57.821975
46.878525
36.697829
27.478604
19.565732
13.273789
8.7195007
5.7282186
3.9390737
2.892244
2.245044
1.7951518
1.4505372
1.1759011
0.95211042
0.77112898
0.62907402
0.51745972
0.42864786
0.35805582
0.30107078
0.2553524
0.21755425
0.18632002
0.16266889
0.14348605
0.12972352
0.11761487
0.10990742
0.10300025
0.098356671
0.094084909
0.091229496
0.08881254
0.087372446
0.086002368
0.085038194
4531684.8
732191.86
224791.75
95361.131
48525.772
27641.059
16977.201
10998.236
7410.9866
5146.3395
3659.3127
2652.088
1952.619
1456.916
1099.7253
838.79095
646.00561
502.23465
394.18186
312.43457
250.21273
202.54491
165.71322
136.87856
113.86049
94.987014
78.997779
64.998383
52.439638
41.094405
31.003859
22.374642
15.433911
10.277304
6.7673169
4.5964547
3.3142004
2.5438016
2.0319906
1.6485708
1.3409377
1.0891614
0.88636314
0.72485533
0.59463859
0.48976951
0.40659728
0.34101576
0.28760572
0.24467471
0.20948115
0.18007022
0.15753177
0.13938655
0.12681898
0.11572886
0.10825466
0.10100956
0.096910159
0.092964774
0.090748024
0.088516382
0.087013535
0.085650567
0.084802775
4531684.9
732191.95
224791.82
95361.219
48525.885
27641.203
16977.379
10998.452
7411.2447
5146.6433
3659.6652
2652.4905
1953.0704
1457.4113
1100.2538
839.33361
646.53276
502.70218
394.52737
312.57237
250.02626
201.88774
164.42903
134.83414
110.96481
91.213221
74.414271
59.792777
46.920046
35.655247
26.054565
18.248209
12.309903
8.1381322
5.4631172
3.8613464
2.9189715
2.3203061
1.8860928
1.5407416
1.2579975
1.0271982
0.83853756
0.6848936
0.56256957
0.46583386
0.38875649
0.32713411
0.2767489
0.23629407
0.20265137
0.17449333
0.15346717
0.1363751
0.12423714
0.11302204
0.10646202
0.10030478
0.096364764
0.092530177
0.090110956
0.087907316
0.086682705
0.085456379
0.0846632
4531686.1
732192.06
224791.84
95361.22
48525.887
27641.209
16977.39
10998.47
7411.271
5146.6788
3659.7094
2652.5409
1953.121
1457.4512
1100.265
839.28843
646.3905
502.40667
394.00493
311.73235
248.76712
200.10573
162.02787
131.74382
107.16527
86.759075
69.453186
54.567739
41.747007
30.874252
21.963264
15.037609
10.020717
6.6783752
4.6199479
3.4071878
2.6662162
2.1583105
1.7680994
1.450402
1.1877159
0.97074976
0.79426857
0.65282265
0.53886927
0.44668079
0.37303196