/*--------------------------------*- C++ -*----------------------------------*\
  =========                 |
  \\      /  F ield         | OpenFOAM: The Open Source CFD Toolbox
   \\    /   O peration     | Website:  https://openfoam.org
    \\  /    A nd           | Version:  13
     \\/     M anipulation  |
\*---------------------------------------------------------------------------*/
FoamFile
{
    format      ascii;
    class       volScalarField;
    location    "48.496312";
    object      omega;
}
// * * * * * * * * * * * * * * * * * * * * * * * * * * * * * * * * * * * * * //

dimensions      [0 0 -1 0 0 0 0];

internalField   nonuniform List<scalar> 
17140
(
4528389.9
731657.66
224626.36
95289.479
48487.712
27617.623
16960.86
10985.493
7400.0075
5136.0607
3649.059
2641.3917
1941.1288
1444.3487
1085.8398
823.37623
628.87814
483.24261
373.21637
289.44671
225.23494
175.72059
137.33667
107.43925
84.051549
65.684773
51.211087
39.772878
30.717425
23.549475
17.896033
13.477687
10.081641
7.5344885
5.6790086
4.3642935
3.4515448
2.8251642
2.3981449
2.1098471
1.9199244
1.8040358
1.7466265
1.7291987
1.7453201
1.7937812
1.8707993
1.9738631
2.101443
2.2525928
2.4252973
2.6136089
2.8131918
3.027064
3.2520999
3.4666
3.6308252
3.7170888
3.7573043
3.8423233
3.8647505
3.5129819
2.7588336
2.8232662
2.8657006
4528420.9
731663.27
224628.42
95290.54
48488.349
27618.045
16961.159
10985.716
7400.1794
5136.1975
3649.1705
2641.4845
1941.2076
1444.4168
1085.8998
823.43004
628.92722
483.2881
373.25908
289.48718
225.27345
175.75714
137.371
107.4708
84.079539
65.708226
51.228958
39.784226
30.72167
23.546738
17.887165
13.464205
10.065629
7.5181528
5.6641064
4.3518035
3.4417087
2.8177963
2.3929863
2.106724
1.9186782
1.804766
1.7495263
1.7334346
1.7513419
1.8017263
1.8809212
1.9866122
2.1176157
2.2735531
2.4530207
2.6509133
2.8657926
3.1044807
3.3657932
3.6258142
3.8232676
3.9204324
3.9411838
3.9352004
3.8491142
3.4203462
2.9050308
2.9165333
2.8959994
4528451.2
731668.24
224629.96
95291.197
48488.689
27618.242
16961.284
10985.802
7400.2422
5136.2469
3649.212
2641.5217
1941.2429
1444.4518
1085.9357
823.46781
628.96745
483.33121
373.30531
289.53654
225.32573
175.81189
137.42748
107.52802
84.136236
65.762896
51.279958
39.829896
30.760511
23.577607
17.90959
13.478611
10.073282
7.5208668
5.6637896
4.3500014
3.4394305
2.8156882
2.3914698
2.1060521
1.9190505
1.8065443
1.7530331
1.7380964
1.7577133
1.8100758
1.8916637
2.0004194
2.135613
2.297581
2.4855709
2.6954927
2.9298935
3.2010188
3.5118952
3.8373183
4.0773962
4.1905472
4.1918894
4.1492439
3.8858947
3.411696
3.0345702
2.9726437
2.9515559
4528483
731673.42
224631.57
95291.885
48489.043
27618.449
16961.418
10985.895
7400.3126
5136.3041
3649.262
2641.5683
1941.2885
1444.4984
1085.9846
823.52002
629.02378
483.39223
373.37136
289.60777
225.40201
175.89282
137.51237
107.61581
84.225535
65.851994
51.366869
39.912463
30.836553
23.645116
17.966973
13.524944
10.108518
7.5459263
5.6804047
4.3603211
3.4455494
2.819305
2.3938257
2.1080073
1.9212063
1.8094597
1.7572027
1.7432692
1.7645715
1.8190385
1.9033329
2.0157199
2.1560328
2.3254381
2.5237514
2.748231
3.0070267
3.3200604
3.6978854
4.1156089
4.41596
4.5557607
4.5129089
4.4143931
4.0533353
3.4813806
3.1260826
3.0203977
3.0373308
4528516.9
731678.92
224633.27
95292.605
48489.413
27618.668
16961.561
10985.997
7400.3919
5136.3707
3649.3221
2641.6259
1941.3465
1444.5587
1086.0487
823.58911
629.09872
483.4737
373.4598
289.70339
225.50476
176.00235
137.62795
107.73637
84.349586
65.977627
51.491793
40.034059
30.951976
23.75144
18.061418
13.605195
10.173177
7.5949867
5.7154355
4.3840591
3.4610832
2.8293808
2.4005625
2.1129291
1.9254
1.8137776
1.7621629
1.7491584
1.7721896
1.8289778
1.916416
2.0331663
2.1797399
2.3581989
2.5687166
2.810648
3.1000031
3.4674368
3.9359225
4.483068
4.8799332
5.0564002
4.922715
4.7323597
4.3217053
3.675682
3.2406076
3.1194024
3.1836518
4528552.1
731684.59
224635.01
95293.351
48489.801
27618.898
16961.713
10986.108
7400.48
5136.4466
3649.3924
2641.6948
1941.417
1444.6328
1086.1282
823.67522
629.19246
483.57584
373.57091
289.82375
225.6344
176.14094
137.77483
107.89042
84.509224
66.140791
51.655909
40.196064
31.108363
23.898357
18.19486
13.721395
10.269288
7.6699508
5.7705252
4.4225208
3.4870147
2.8466356
2.4122114
2.1212209
1.9319502
1.8197678
1.7682604
1.7560903
1.7809634
1.8404027
1.9315828
2.05365
2.207923
2.3973397
2.6221403
2.885273
3.2135658
3.6532412
4.250002
4.9947153
5.532774
5.7355404
5.4519665
5.1293857
4.6447883
3.9832075
3.4304145
3.3465551
3.4032388
4528588.7
731690.45
224636.8
95294.121
48490.205
27619.14
16961.874
10986.227
7400.5766
5136.5316
3649.4725
2641.7746
1941.4995
1444.7204
1086.2225
823.77775
629.30435
483.69798
373.70396
289.96812
225.79019
176.30794
137.95239
108.07746
84.704137
66.341385
51.859378
40.398946
31.30653
24.087049
18.368841
13.875394
10.398894
7.7728729
5.8475465
4.4772681
3.5245647
2.8719921
2.4294682
2.1334192
1.941282
1.827773
1.7759124
1.7645178
1.7914432
1.8540135
1.949752
2.0784056
2.2422571
2.4449411
2.6865634
2.9762344
3.3551553
3.8924971
4.6710746
5.6947794
6.447404
6.5830186
6.1191852
5.6293037
5.0152054
4.3554447
3.8130119
3.7199904
3.6596465
4528626.6
731696.51
224638.65
95294.921
48490.626
27619.393
16962.045
10986.355
7400.6814
5136.6251
3649.562
2641.8645
1941.5931
1444.8202
1086.3305
823.89544
629.433
483.83861
373.85735
290.13481
225.97041
176.50157
138.15891
108.29585
84.932808
66.578113
52.101202
40.642089
31.546322
24.317887
18.584298
14.068679
10.563921
7.9059042
5.9486099
4.5501543
3.575235
2.9066159
2.4532318
2.1502363
1.9539894
1.8383157
1.7856097
1.7750531
1.8043847
1.8707718
1.9721949
2.1091737
2.2851482
2.5039746
2.7659542
3.0901093
3.536291
4.2069231
5.236327
6.5720399
7.2633668
7.002413
6.5205045
6.0783316
5.4409151
4.7361486
4.2368512
4.1082838
3.8694984
4528664.7
731702.76
224640.58
95295.751
48491.06
27619.656
16962.224
10986.49
7400.7936
5136.7263
3649.6594
2641.9632
1941.6964
1444.9308
1086.4504
824.02629
629.57621
483.99534
374.02852
290.32109
226.17219
176.71888
138.39138
108.5426
85.192375
66.848315
52.379033
40.923577
31.826376
24.590185
18.84132
14.302149
10.766003
8.0711846
6.0760197
4.6433287
3.6408389
2.9519548
2.4846458
2.1726031
1.9708879
1.8521471
1.7978602
1.7885394
1.8208297
1.8920102
2.0006969
2.1484548
2.3400943
2.5787305
2.8665781
3.2373318
3.7746293
4.6279842
5.9792269
7.4381985
7.5170388
7.0341836
6.4874867
6.2182303
5.7167488
5.0997013
4.6198116
4.4348554
3.9530835
4528704.9
731709.27
224642.59
95296.614
48491.512
27619.93
16962.412
10986.632
7400.9122
5136.8338
3649.7635
2642.0689
1941.8075
1445.0499
1086.5797
824.16755
629.73096
484.16487
374.21389
290.52314
226.39147
176.95565
138.64545
108.81333
85.478483
67.147795
52.68897
41.239955
32.14386
24.901916
19.138852
14.575835
11.006235
8.2706574
6.2321702
4.759205
3.7235166
3.0097758
2.5251399
2.2017092
1.9930596
1.870557
1.8142336
1.8062572
1.8422371
1.9196068
2.0378161
2.199914
2.4121812
2.6754937
2.9984554
3.4345449
4.0976403
5.2077953
6.9135833
7.8134419
7.5422276
6.3175107
5.180596
5.4831896
5.6357192
5.2938719
4.9095992
4.6118503
3.6647412
4528746.8
731716.01
224644.67
95297.509
48491.982
27620.215
16962.606
10986.78
7401.0359
5136.9461
3649.8723
2642.1796
1941.9238
1445.1746
1086.7152
824.31568
629.89336
484.34293
374.40885
290.73599
226.62298
177.20629
138.91533
109.10208
85.785143
67.470649
53.025348
41.58599
32.494192
25.249389
19.474344
14.888528
11.284825
8.5057852
6.4193583
4.9003746
3.8257226
3.082193
2.576472
2.239029
2.0217552
1.8944761
1.8363963
1.8298714
1.8706515
1.9562697
2.0873127
2.2689998
2.5086333
2.8036995
3.1780159
3.7093197
4.5547102
6.0474014
7.8935305
7.9608883
7.2122984
4.9322486
3.1511167
3.1699166
4.309856
4.8150729
4.687209
4.2616074
2.6687048
4528789.6
731722.96
224646.82
95298.434
48492.469
27620.51
16962.807
10986.932
7401.1628
5137.061
3649.9835
2642.2925
1942.0423
1445.3017
1086.8531
824.46649
630.05876
484.52446
374.60785
290.95365
226.86029
177.46398
139.19383
109.40139
86.104703
67.809174
53.380589
41.954439
32.870724
25.626861
19.843298
15.237293
11.600602
8.7771211
6.6394699
5.0694281
3.9501619
3.1716799
2.640791
2.2864492
2.0587471
1.9257383
1.8657344
1.8616262
1.9090187
2.0060276
2.1548937
2.3640202
2.6392974
2.9790528
3.4337295
4.1120177
5.2537356
7.269814
8.4477785
8.0000714
6.2673241
3.667116
2.2094112
1.6715362
1.878453
2.7904159
3.0507635
2.4766816
1.0462223
4528834.7
731730.24
224649.06
95299.396
48492.973
27620.814
16963.014
10987.088
7401.2914
5137.1766
3650.0945
2642.4046
1942.1595
1445.427
1086.989
824.61498
630.22164
484.70335
374.80424
291.16891
227.09563
177.72044
139.47219
109.70207
86.427662
68.153684
53.744991
42.335808
33.264444
26.026143
20.238755
15.616886
11.95045
9.0837717
6.8935265
5.2686465
4.0996346
3.2810303
2.7206685
2.3463348
2.1063425
1.966776
1.9049152
1.9048894
1.9617411
2.0751499
2.2497175
2.4981981
2.8204365
3.2317799
3.8197
4.7465885
6.4337472
8.6373959
8.6756536
7.7339021
4.789265
2.6498079
1.6566023
1.101047
0.95825854
1.0812867
1.1026151
0.85928524
0.43318102
4528880.1
731737.66
224651.36
95300.386
48493.493
27621.127
16963.224
10987.244
7401.4195
5137.2903
3650.2026
2642.5128
1942.272
1445.5468
1087.1185
824.75623
630.37654
484.87359
374.99142
291.37453
227.32114
177.96715
139.74127
109.99443
86.743838
68.493622
54.107794
42.719369
33.664971
26.437589
20.65224
16.020381
12.329375
9.4230577
7.1811982
5.4995624
4.2767503
3.4132345
2.819095
2.4215953
2.1674713
2.0207808
1.9580847
1.9649356
2.0355456
2.1738447
2.3872514
2.6944835
3.091322
3.6302681
4.4402771
5.8599897
8.3118487
9.337335
8.749634
6.5676192
3.4143645
1.8823181
1.1739028
0.81952633
0.6157884
0.54830851
0.48778358
0.3779541
0.24446483
4528926.9
731745.32
224653.73
95301.412
48494.029
27621.447
16963.437
10987.401
7401.5449
5137.3996
3650.3048
2642.6138
1942.3758
1445.6565
1087.2366
824.88477
630.51735
485.0284
375.16187
291.56227
227.52779
178.19431
139.99048
110.2671
87.04112
68.816226
54.455719
43.091516
34.058637
26.847833
21.0712
16.436791
12.728718
9.7891844
7.4997472
5.7621466
4.4833893
3.5712033
2.9394168
2.5157803
2.2458851
2.0923828
2.0315771
2.0494095
2.1420645
2.3197284
2.5953983
3.0010764
3.5281962
4.2810535
5.5399178
7.938265
9.8577543
9.5640615
8.2253153
4.558388
2.308912
1.2891721
0.82089012
0.60751744
0.46903316
0.3791174
0.30185563
0.24381696
0.18668696
4528977.9
731753.52
224656.23
95302.477
48494.58
27621.773
16963.652
10987.555
7401.6659
5137.5023
3650.3983
2642.7041
1942.4671
1445.7518
1087.3382
824.99482
630.63761
485.16057
375.30764
291.72335
227.70593
178.39136
140.20832
110.50763
87.306125
69.107218
54.773676
43.436504
34.429288
27.240674
21.479888
16.851432
13.135688
10.172225
7.8428381
6.0537347
4.7198885
3.7572948
3.0852204
2.6333675
2.3471522
2.1886639
2.134827
2.1710813
2.3014044
2.5445915
2.9316719
3.4990656
4.2450231
5.4351514
7.6970018
10.287376
10.382676
9.3928341
6.1190596
2.9843589
1.54729
0.93080529
0.62649759
0.46959814
0.37708667
0.30728341
0.23993155
0.20068517
0.16274726
4529031.7
731762.03
224658.82
95303.582
48495.15
27622.107
16963.867
10987.706
7401.7801
5137.5957
3650.4803
2642.7806
1942.5422
1445.8285
1087.4188
825.08123
630.73155
485.26366
375.42153
291.84975
227.84669
178.54848
140.38399
110.70416
87.525892
69.35254
55.046549
43.738252
34.760051
27.598733
21.860844
17.247382
13.53473
10.558904
8.2004315
6.3682317
4.9841096
3.9726433
3.2601016
2.7800014
2.4791799
2.3206366
2.2837367
2.3525487
2.5508553
2.9125049
3.5044582
4.3109688
5.5128864
7.715728
10.674286
11.157455
10.422703
7.82872
3.7703965
1.8319807
1.0519908
0.69569423
0.52348028
0.40438945
0.31430721
0.25229286
0.20063432
0.16837381
0.13717359
4529085.9
731770.72
224661.5
95304.721
48495.733
27622.444
16964.08
10987.851
7401.8858
5137.6778
3650.5482
2642.8404
1942.5978
1445.8828
1087.4741
825.13917
630.79371
485.33156
375.49669
291.93382
227.94152
178.65618
140.50693
110.84501
87.687563
69.538076
55.258934
43.980082
35.033053
27.903105
22.194422
17.604722
13.906375
10.931391
8.5577395
6.6951174
5.2704335
4.2164068
3.4674877
2.9631572
2.6540984
2.5068816
2.505796
2.6367232
2.9642238
3.5537224
4.4552378
5.7357986
7.9680331
11.185038
11.898072
11.320866
9.2780621
4.6153745
2.2657126
1.2659155
0.81385174
0.58289465
0.43751597
0.34355198
0.26800765
0.20925864
0.16655583
0.14467004
0.12352066
4529139.6
731779.59
224664.23
95305.881
48496.326
27622.784
16964.291
10987.989
7401.9814
5137.7466
3650.5998
2642.8808
1942.631
1445.9115
1087.5002
825.1643
630.8192
485.35869
375.52681
291.96845
227.98244
178.70549
140.56714
110.91907
87.778787
69.650131
55.395698
44.145372
35.230178
28.134233
22.459789
17.901707
14.228625
11.268433
8.8957313
7.0193503
5.5693421
4.4854802
3.7110738
3.1939619
2.8924127
2.7825029
2.8473492
3.112953
3.695883
4.6817547
6.0928197
8.4168688
11.824736
12.709694
12.197068
10.354724
5.6804093
2.8789424
1.5398315
0.92337395
0.62398692
0.45824465
0.35446286
0.27854194
0.22392173
0.1836032
0.15002855
0.13115155
0.11260525
4529196.7
731788.86
224667.08
95307.086
48496.937
27623.129
16964.499
10988.121
7402.066
5137.801
3650.6337
2642.9002
1942.6397
1445.912
1087.4943
825.15333
630.80425
485.34078
375.50701
291.94798
227.9628
178.68855
140.55527
110.91522
87.786706
69.674265
55.441071
44.217323
35.333819
28.273383
22.636918
18.117088
14.479339
11.547765
9.1934023
7.32324
5.8689261
4.7761179
3.9974858
3.4921958
3.2318689
3.2110701
3.4120858
3.9644567
5.0293702
6.5858471
9.0346698
12.58742
13.590961
13.111717
11.390215
6.8853987
3.486888
1.7672548
1.021371
0.68404176
0.50700112
0.39888582
0.31575831
0.24745155
0.19420508
0.15833997
0.13054327
0.1168597
0.10355268
4529258.1
731798.63
224670.06
95308.337
48497.566
27623.479
16964.706
10988.245
7402.1388
5137.8398
3650.6486
2642.8971
1942.6222
1445.8825
1087.4544
825.10414
630.74661
485.27545
375.43484
291.87001
227.88035
178.60337
140.46959
110.83188
87.709127
69.606563
55.388086
44.184627
35.327819
28.301811
22.706471
18.231889
14.639244
11.749994
9.4323124
7.59148
6.1603385
5.0902391
4.3447804
3.8997451
3.7516806
3.8968607
4.4150622
5.5351755
7.279038
9.8139578
13.453895
14.54593
14.076754
12.411015
8.0241951
4.0340114
2.0452846
1.1770848
0.78405177
0.57227631
0.43596513
0.33644607
0.26613415
0.21478306
0.17368659
0.14282242
0.12092161
0.10987481
0.098763441
4529319.5
731808.56
224673.1
95309.62
48498.208
27623.832
16964.908
10988.36
7402.1992
5137.8627
3650.6439
2642.8708
1942.5779
1445.8224
1087.3798
825.01585
630.64526
485.16156
375.309
291.73301
227.73334
178.44795
140.30799
110.66701
87.544733
69.44725
55.239328
44.052669
35.21942
28.22365
22.665758
18.236575
14.698145
11.866018
9.6053595
7.8215285
6.4501906
5.4506998
4.8025441
4.5091746
4.5900335
5.0861379
6.2542934
8.1714837
10.811286
14.425765
15.575943
15.101943
13.446346
9.1213207
4.6399453
2.3859208
1.3711893
0.89488856
0.62422563
0.46174102
0.36293345
0.294816
0.23627825
0.18969971
0.15573794
0.13150526
0.11297605
0.10361512
0.093413996
4529381.2
731818.68
224676.22
95310.934
48498.862
27624.188
16965.107
10988.468
7402.2478
5137.8702
3650.6204
2642.8222
1942.5077
1445.7327
1087.2717
824.89001
630.50204
485.00127
375.13199
291.53989
227.52507
178.22604
140.0746
110.42515
87.298342
69.201341
55.00002
43.827166
35.015882
28.050965
22.533275
18.153624
14.673647
11.911804
9.7318601
8.0414091
6.7828155
5.9298902
5.4892949
5.5064194
5.9900003
7.2104128
9.2765251
11.991085
15.484332
16.692779
16.20188
14.519356
10.195184
5.3232643
2.789543
1.5938198
1.0067627
0.68343546
0.50742279
0.40727141
0.32702965
0.2583207
0.20696627
0.16810113
0.13917446
0.11903546
0.10501686
0.097343137
0.090076553
4529447.3
731829.37
224679.48
95312.298
48499.538
27624.551
16965.306
10988.57
7402.2871
5137.865
3650.5811
2642.7548
1942.4157
1445.6181
1087.1355
824.73275
630.32396
484.80252
374.91282
291.30081
227.26699
177.95043
139.78368
110.12206
86.987318
68.887858
54.690921
43.530726
34.741808
27.810321
22.338376
18.017949
14.611809
11.939772
9.8755571
8.3339233
7.2717621
6.6895794
6.6395041
7.1300446
8.4064004
10.583448
13.343881
16.66937
17.904482
17.385245
15.645492
11.257873
6.084128
3.2461311
1.8315691
1.1253329
0.76070407
0.56884064
0.44803516
0.34956053
0.27659514
0.22575463
0.18665418
0.15561364
0.13119956
0.11361369
0.10140203
0.094480998
0.086945496
4529517.1
731840.53
224682.9
95313.724
48500.242
27624.928
16965.51
10988.671
7402.3224
5137.8531
3650.5329
2642.6765
1942.3108
1445.4887
1086.9827
824.55703
630.1256
484.58171
374.66986
291.03627
226.98188
177.64639
139.46316
109.78852
86.645466
68.543838
54.352534
43.207611
34.4456
27.554805
22.139685
17.894947
14.586361
12.047722
10.161958
8.8608325
8.1283188
8.0063728
8.507523
9.8380252
12.086381
14.883088
18.001407
19.226732
18.66599
16.83749
12.33671
6.9131633
3.7410207
2.085603
1.2630288
0.86027058
0.63931665
0.48812648
0.3774816
0.30524137
0.25251439
0.20674082
0.16863601
0.14047729
0.12045567
0.10673171
0.09621798
0.090540594
0.08483747
4529588.1
731851.96
224686.4
95315.2
48500.97
27625.318
16965.721
10988.778
7402.3602
5137.8424
3650.485
2642.598
1942.2057
1445.3591
1086.83
824.38191
629.9286
484.36329
374.43064
290.77714
226.70425
177.35235
139.15568
109.47169
86.32477
68.226423
54.047542
42.926544
34.20272
27.367486
22.028401
17.890019
14.733716
12.401436
10.794392
9.8723687
9.6562801
10.147323
11.501704
13.801122
16.618009
19.514482
20.669817
20.054219
18.103174
13.444284
7.8129981
4.2899819
2.3759354
1.4338565
0.97961168
0.71562032
0.5329016
0.41439508
0.33741521
0.27585168
0.22199003
0.18169752
0.15274914
0.13043578
0.11337175
0.10131259
0.092972242
0.087761141
0.082729779
4529661.3
731863.83
224690.03
95316.729
48501.73
27625.728
16965.949
10988.899
7402.413
5137.8476
3650.4546
2642.5391
1942.1226
1445.2545
1086.7057
824.23923
629.76852
484.18682
374.23893
290.57173
226.4872
177.12644
138.92468
109.24058
86.100071
68.016532
53.863038
42.781173
34.115056
27.363416
22.147316
18.179714
15.25351
13.231352
12.041165
11.674569
12.112709
13.435742
15.741011
18.566132
21.247375
22.244903
21.554456
19.452149
14.591005
8.78887
4.8966394
2.705791
1.6268813
1.1058137
0.79331246
0.58703944
0.4597164
0.37158111
0.2986827
0.24178666
0.20131857
0.16994092
0.14350176
0.12352759
0.10877413
0.098276783
0.090648198
0.086106461
0.081350458
4529737.4
731876.13
224693.82
95318.32
48502.527
27626.169
16966.204
10989.047
7402.494
5137.8841
3650.4593
2642.5199
1942.0846
1445.2011
1086.6395
824.16219
629.68242
484.09346
374.14031
290.47024
226.38579
177.02887
138.83581
109.16681
86.049883
68.00143
53.899069
42.890048
34.325457
27.713652
22.685014
18.96872
16.377828
14.799296
14.186747
14.493742
15.710884
17.95611
20.74541
23.235427
23.985397
23.177022
20.895592
15.786169
9.8382698
5.5641072
3.0742093
1.8418984
1.2435389
0.88670373
0.65896755
0.51621198
0.4084658
0.32583357
0.26689113
0.2232238
0.18543869
0.15444322
0.1311432
0.11455209
0.10232263
0.093706464
0.087610718
0.08352197
0.079969901
4529816
731888.84
224697.73
95319.978
48503.367
27626.643
16966.49
10989.228
7402.6114
5137.961
3650.5099
2642.5529
1942.1061
1445.2156
1086.6504
824.17254
629.69523
484.11181
374.16768
290.51067
226.4442
177.11138
138.95013
109.32281
86.260291
68.282834
54.273128
43.38563
34.980984
28.578893
23.824964
20.467233
18.339525
17.347418
17.439478
18.415062
20.488505
23.21495
25.527949
25.920446
24.949789
22.399514
17.03953
10.956236
6.2927495
3.4846352
2.082333
1.4000732
0.99705246
0.74291007
0.57407967
0.44635777
0.35594316
0.29454636
0.24408447
0.20102069
0.16746573
0.14356799
0.12540029
0.11066871
0.099558097
0.091816968
0.086023184
0.082408253
0.079036349
4529897.8
731902.1
224701.79
95321.709
48504.253
27627.155
16966.814
10989.447
7402.7709
5138.0855
3650.6144
2642.6477
1942.1982
1445.3107
1086.7533
824.28772
629.82722
484.26547
374.34845
290.72488
226.6994
177.41673
139.31699
109.76547
86.797041
68.937458
55.076254
44.376666
36.210495
30.111423
25.741431
22.865419
21.329413
21.037208
21.720858
23.444772
25.899469
28.098972
28.056126
26.875687
23.935743
18.366636
12.131641
7.0798559
3.9379226
2.352403
1.5761069
1.1227316
0.83419526
0.6383296
0.49373497
0.39731292
0.32682391
0.26836152
0.2205606
0.18564437
0.15815419
0.13549189
0.11744614
0.10507199
0.095705654
0.089102458
0.08422627
0.081064531
0.078126539
4529983.7
731915.9
224706.03
95323.519
48505.189
27627.706
16967.174
10989.705
7402.9725
5138.2576
3650.7737
2642.8052
1942.3625
1445.4887
1086.9514
824.51214
630.08444
484.56261
374.69362
291.12753
227.17079
177.97051
139.96992
110.53855
87.716427
70.035887
56.394908
45.966934
38.13594
32.448759
28.578491
26.295665
25.431127
25.739327
26.928256
28.944193
30.737191
30.383411
28.922928
25.516127
19.761528
13.335335
7.9130771
4.4359737
2.6564238
1.7754713
1.2635019
0.93764881
0.71382169
0.55401947
0.44375963
0.35958061
0.29208339
0.24295214
0.20443647
0.17212397
0.14549859
0.1266739
0.11199718
0.10091329
0.092731962
0.086981439
0.082633629
0.079793736
0.07736117
4530071.7
731930.11
224710.42
95325.4
48506.171
27628.295
16967.57
10990
7403.2163
5138.4777
3650.9879
2643.0264
1942.6006
1445.7524
1087.2489
824.85177
630.47522
485.01465
375.2185
291.73888
227.88485
178.80685
140.95239
111.69615
89.084766
71.658342
58.324078
48.265565
40.876118
35.707635
32.427505
30.777523
30.532148
31.135488
32.378041
33.554778
32.91943
31.087618
27.179721
21.217185
14.563654
8.7840943
4.9877319
3.0051139
2.0015171
1.421179
1.053787
0.80231436
0.62214781
0.49460703
0.39533372
0.32310586
0.26997046
0.22653714
0.18827673
0.1598266
0.13805638
0.12085595
0.10776822
0.098327461
0.090879716
0.085706435
0.081769902
0.079147603
0.076843515
4530163.2
731944.95
224714.98
95327.363
48507.207
27628.93
16968.012
10990.346
7403.5161
5138.7615
3651.2755
2643.3322
1942.9365
1446.129
1087.6766
825.34156
631.03911
485.66626
375.97363
292.61614
228.9064
179.99926
142.3476
113.3325
91.007921
73.921791
60.986194
51.391965
44.530406
39.937344
37.239182
36.098999
36.140485
36.742748
36.652516
35.570138
33.255946
28.928165
22.699655
15.781904
9.6923792
5.6071925
3.4061742
2.2551085
1.5946086
1.1845171
0.90347624
0.70075481
0.55262355
0.44129843
0.36049711
0.29983575
0.24814392
0.20764043
0.17580836
0.15073937
0.13016705
0.11534879
0.10336935
0.094548971
0.088077325
0.083679463
0.080250714
0.078080223
0.076178287
4530257.7
731960.25
224719.71
95329.425
48508.316
27629.63
16968.519
10990.761
7403.8935
5139.134
3651.6651
2643.7555
1943.4074
1446.6605
1088.282
826.03496
631.83615
486.58484
377.03465
293.84426
230.33101
181.6555
144.27743
115.58579
93.637757
76.973558
64.503968
55.426234
49.105827
45.027625
42.727104
41.754246
41.342966
40.298342
38.287367
35.507568
30.706706
24.15788
16.984216
10.665424
6.3182547
3.8676359
2.5384573
1.787871
1.3329285
1.0202195
0.79052385
0.62130498
0.49474277
0.40297678
0.3300612
0.27363117
0.22995446
0.19518883
0.16463963
0.14185036
0.12382829
0.11035143
0.099984114
0.092790322
0.086924561
0.082847819
0.079598372
0.077646031
0.07587983
4530355.2
731976.06
224724.62
95331.584
48509.503
27630.403
16969.104
10991.263
7404.3709
5139.6214
3652.1868
2644.3306
1944.0524
1447.3915
1089.1151
826.98809
632.92921
487.84077
378.48032
295.51148
232.25752
183.88466
146.85669
118.56157
97.053578
80.863131
68.884844
60.286105
54.38581
50.592391
48.24024
46.413838
44.180331
41.443511
37.908102
32.532392
25.639013
18.257627
11.75743
7.1381371
4.3889107
2.8530191
2.0049192
1.5013451
1.15176
0.89282763
0.70056127
0.55764474
0.45064467
0.36778527
0.30445323
0.25685933
0.2155304
0.18227594
0.15519564
0.13494188
0.11865308
0.10699346
0.097397569
0.090513246
0.085221239
0.081629401
0.078805964
0.076974571
0.075310549
4530457.6
731992.62
224729.78
95333.869
48510.782
27631.263
16969.779
10991.867
7404.9638
5140.2415
3652.8611
2645.0806
1944.8976
1448.3509
1090.2086
828.23722
634.35828
489.4773
380.35546
297.65994
234.7167
186.69469
150.0588
122.19613
101.1543
85.453457
73.932545
65.65799
59.817611
55.5797
52.032762
48.544334
44.950943
40.521076
34.515482
27.262518
19.68017
12.976268
8.0473274
4.9645861
3.2091956
2.2565789
1.6940857
1.3006558
1.0098696
0.79404257
0.63092702
0.5074423
0.41197487
0.34091099
0.28375572
0.23840067
0.20123008
0.17197393
0.14706071
0.12889432
0.1139149
0.10302644
0.094350418
0.0884564
0.083732477
0.080651075
0.078012577
0.07649226
0.074996602
4530563.2
732009.78
224735.15
95336.275
48512.154
27632.214
16970.554
10992.581
7405.6827
5141.006
3653.7006
2646.0193
1945.9576
1449.5537
1091.5764
829.79381
636.12929
491.49066
382.64091
300.24844
237.6387
189.97606
153.71499
126.22347
105.51911
90.082606
78.68512
70.240286
63.769915
58.43486
53.639708
48.962462
43.500943
36.781837
29.106749
21.271108
14.318503
9.0553056
5.6321535
3.6433619
2.5582634
1.9125861
1.4666193
1.1430846
0.90169129
0.71610033
0.57321835
0.46458154
0.38166578
0.31656005
0.26483013
0.22529238
0.190752
0.16321051
0.1400898
0.12342965
0.10988023
0.10047258
0.092869205
0.087351053
0.082916972
0.079984009
0.07760002
0.076141657
0.074723675
4530672.5
732027.54
224740.72
95338.798
48513.62
27633.256
16971.427
10993.406
7406.5268
5141.9125
3654.701
2647.1392
1947.2202
1450.9814
1093.1922
831.62147
638.19375
493.81728
385.2544
303.1701
240.88215
193.5405
157.57533
130.31678
109.72647
94.204798
82.453233
73.363752
66.01876
59.648492
53.60037
46.935199
39.39327
31.217625
23.070799
15.834179
10.223707
6.4417436
4.1739032
2.9048093
2.1509946
1.6510944
1.296748
1.0272571
0.81573222
0.65223802
0.52679925
0.43074922
0.35482253
0.29691
0.24969301
0.2121218
0.17995312
0.15490803
0.13392014
0.11914918
0.10669532
0.097885083
0.090365199
0.085597815
0.081635234
0.079112019
0.076914641
0.075729524
0.074401955
4530784.7
732045.88
224746.49
95341.426
48515.161
27634.363
16972.361
10994.296
7407.4426
5142.8994
3655.7918
2648.361
1948.5971
1452.5365
1094.9485
833.6014
640.41883
496.30636
388.02126
306.21935
244.20323
197.09936
161.30423
134.10324
113.4041
97.550491
85.197709
75.234233
66.796717
58.967264
50.942796
42.476003
33.718671
25.191493
17.615314
11.613904
7.4198946
4.8072111
3.3042904
2.4257169
1.8692671
1.4775497
1.1724417
0.93086077
0.74437748
0.60011466
0.487543
0.40049456
0.33269053
0.27919563
0.23560094
0.20178748
0.1719073
0.14867876
0.12884783
0.11507236
0.10337396
0.095486235
0.089171971
0.084848197
0.081093079
0.078745553
0.076652018
0.075409656
0.074247836
4530901
732061.45
224749.6
95341.934
48515.13
27634.282
16972.38
10994.466
7407.7851
5143.4271
3656.5143
2649.2882
1949.74
1453.9071
1096.5589
835.46297
642.54
498.68979
390.65944
309.08889
247.25769
200.26112
164.45654
137.08504
116.01167
99.54995
86.369688
75.343182
65.381837
55.790557
46.245078
36.776827
27.752673
19.741955
13.274894
8.6018961
5.579596
3.7940591
2.7607638
2.1251439
1.6802758
1.3344859
1.0637472
0.85327891
0.6874737
0.5568389
0.45505287
0.37639795
0.31336758
0.26449083
0.22404154
0.19206414
0.16385444
0.14222564
0.12409588
0.11173339
0.10111585
0.09400073
0.087558106
0.083399953
0.08003484
0.078009505
0.076196604
0.075183538
0.074070335
4531685.4
732195.54
224794.74
95363.329
48527.279
27642.073
16977.85
10998.599
7411.1113
5146.257
3659.0437
2651.6476
1952.0206
1456.1748
1098.8619
837.83495
645.00086
501.24422
393.29356
311.76546
249.91045
202.78971
166.72417
138.9216
117.23291
99.939847
85.598025
73.070206
61.583987
50.69629
40.30533
30.624529
22.076575
15.096263
9.9212716
6.4636649
4.3616956
3.1395665
2.4007252
1.8965969
1.5149975
1.2173143
0.97964428
0.78781639
0.63660075
0.51846872
0.42563623
0.35316092
0.29574833
0.25043737
0.21284685
0.18361433
0.15726901
0.13735295
0.12009618
0.10870088
0.098485742
0.091748209
0.086214802
0.082720993
0.079571531
0.077540236
0.075816165
0.074852654
0.073930408
4531684.6
732191.84
224791.76
95361.142
48525.787
27641.081
16977.23
10998.274
7411.0349
5146.4017
3659.3931
2652.1925
1952.7554
1457.0953
1099.9621
839.10418
646.41987
502.78072
394.897
313.36164
251.39704
204.03483
167.57338
139.17865
116.62779
98.186009
82.537785
68.731126
56.165421
44.586466
34.050603
24.82881
17.250257
11.513314
7.5583294
5.0716182
3.6005204
2.7232886
2.148599
1.7266712
1.394146
1.1225802
0.90292911
0.72986325
0.5936685
0.4854057
0.40017796
0.33392609
0.28032349
0.23847559
0.20322944
0.17574731
0.15090186
0.13228132
0.11630444
0.10576281
0.096554989
0.090737915
0.085342701
0.081946152
0.078978168
0.077247516
0.075643925
0.074709747
0.07382545
4531684.8
732191.95
224791.86
95361.283
48525.972
27641.313
16977.514
10998.617
7411.4429
5146.8805
3659.9485
2652.8288
1953.475
1457.8967
1100.838
840.0389
647.38595
503.73525
395.77822
314.08707
251.85595
204.08106
167.0077
137.7934
114.26501
94.771448
78.100879
63.438024
50.334698
38.663757
28.531943
20.145723
13.65856
9.0367278
6.0200954
4.1938156
3.1178877
2.4446373
1.9681145
1.5941815
1.2887928
1.0420729
0.84430526
0.68485855
0.55788343
0.45752385
0.37828353
0.31627068
0.26646259
0.22741463
0.19451793
0.16912694
0.14563403
0.12834838
0.11323
0.10365277
0.094712838
0.088984821
0.084028791
0.081033935
0.07833781
0.076768199
0.075311504
0.074463094
0.073714868
4531684.9
732192.02
224791.91
95361.339
48526.044
27641.406
16977.632
10998.763
7411.6201
5147.092
3660.1961
2653.1126
1953.7917
1458.2385
1101.19
840.37658
647.67191
503.9151
395.77547
313.7957
251.14733
202.81357
165.05302
135.04676
110.67064
90.353738
72.992214
57.890502
44.702339
33.348636
23.90283
16.453801
10.985014
7.2868038
4.9854977
3.6284121
2.8084132
2.254666
1.8324154
1.4905786
1.2107702
0.98099706
0.79383595
0.64482878
0.52728995
0.43353319
0.35943827
0.30182723
0.25494465
0.2184664
0.18720299
0.16338518
0.14114581
0.12489368
0.11044147
0.10139491
0.0931239
0.088227548
0.083529656
0.080649458
0.078043799
0.076474741
0.075124765
0.0743638
0.073647596
4531686.1
732192.11
224791.9
95361.305
48526.001
27641.357
16977.578
10998.704
7411.5583
5147.0269
3660.1258
2653.0325
1953.6934
1458.1074
1101.0034
840.10084
647.25983
503.30389
394.8866
312.53913
249.42405
200.52574
162.11963
131.42472
106.37881
85.494216
67.76056
52.565908
39.612364
28.812157
20.165333
13.636654
9.0586242
6.1025835
4.3213531
3.2642747
2.5915635
2.1068157
1.7221383
1.4043001
1.1404899
0.92519297
0.75189724
0.61246949