/*--------------------------------*- C++ -*----------------------------------*\
  =========                 |
  \\      /  F ield         | OpenFOAM: The Open Source CFD Toolbox
   \\    /   O peration     | Website:  https://openfoam.org
    \\  /    A nd           | Version:  13
     \\/     M anipulation  |
\*---------------------------------------------------------------------------*/
FoamFile
{
    format      ascii;
    class       volScalarField;
    location    "49.696287";
    object      pPrime2Mean;
}
// * * * * * * * * * * * * * * * * * * * * * * * * * * * * * * * * * * * * * //

dimensions      [0 4 -4 0 0 0 0];

internalField   nonuniform List<scalar> 
17140
(
6267.1469
6267.1471
6267.147
6267.1467
6267.1462
6267.1453
6267.1442
6267.1427
6267.1406
6267.1377
6267.1343
6267.1299
6267.1242
6267.1171
6267.1082
6267.097
6267.083
6267.0654
6267.0435
6267.016
6266.9814
6266.9382
6266.8839
6266.8155
6266.7292
6266.6208
6266.4837
6266.3109
6266.093
6265.8185
6265.4732
6265.0397
6264.4971
6263.8198
6262.9773
6261.933
6260.6435
6259.0583
6257.1184
6254.7564
6251.8947
6248.446
6244.312
6239.3823
6233.5346
6226.6326
6218.5273
6209.055
6198.0368
6185.2784
6170.5678
6153.6758
6134.3546
6112.3368
6087.334
6059.0357
6027.1037
5991.1744
5950.8486
5905.7042
5855.2696
5799.063
5736.5208
5667.0937
5590.1228
6267.2995
6267.2995
6267.2994
6267.2991
6267.2986
6267.2977
6267.2966
6267.295
6267.2929
6267.2902
6267.2866
6267.2822
6267.2765
6267.2695
6267.2606
6267.2492
6267.2352
6267.2176
6267.1957
6267.1681
6267.1337
6267.0903
6267.0361
6266.9678
6266.8818
6266.7736
6266.637
6266.4647
6266.2473
6265.9734
6265.6288
6265.1964
6264.6546
6263.9783
6263.1365
6262.0929
6260.8044
6259.2199
6257.2811
6254.9201
6252.0597
6248.6126
6244.4806
6239.5532
6233.7082
6226.8098
6218.7084
6209.2407
6198.228
6185.4755
6170.7719
6153.8878
6134.5756
6112.5681
6087.5771
6059.292
6027.3746
5991.4613
5951.1528
5906.0284
5855.6168
5799.4364
5736.9242
5667.5313
5590.5936
6267.6766
6267.6765
6267.6765
6267.6762
6267.6755
6267.6749
6267.6736
6267.6719
6267.6699
6267.6672
6267.6637
6267.6593
6267.6536
6267.6466
6267.6377
6267.6266
6267.6126
6267.5951
6267.5732
6267.5459
6267.5117
6267.4688
6267.4148
6267.347
6267.2617
6267.154
6267.0182
6266.8468
6266.6305
6266.358
6266.0149
6265.5841
6265.044
6264.3695
6263.5295
6262.4876
6261.2008
6259.6181
6257.6814
6255.3228
6252.4658
6249.0225
6244.8952
6239.9736
6234.1356
6227.2454
6219.1541
6209.6978
6198.698
6185.9602
6171.2734
6154.4088
6135.1189
6113.1368
6088.1747
6059.922
6028.0413
5992.1681
5951.904
5906.8291
5856.4736
5800.3564
5737.9153
5668.6031
5591.7455
6268.2905
6268.2905
6268.2905
6268.2902
6268.2896
6268.2888
6268.2877
6268.2861
6268.2841
6268.2815
6268.2779
6268.2736
6268.268
6268.261
6268.2522
6268.2413
6268.2274
6268.2103
6268.1887
6268.1616
6268.1279
6268.0855
6268.032
6267.9649
6267.8805
6267.7738
6267.6393
6267.4694
6267.2548
6266.9842
6266.6433
6266.2147
6265.677
6265.0049
6264.1674
6263.1282
6261.844
6260.2642
6258.3309
6255.9767
6253.1247
6249.6879
6245.5681
6240.6561
6234.8292
6227.9527
6219.8772
6210.4393
6199.4608
6186.747
6172.0876
6155.2544
6136.0006
6114.06
6089.1449
6060.9453
6029.1237
5993.3164
5953.1251
5908.1313
5857.8667
5801.8516
5739.525
5670.3432
5593.6146
6269.1545
6269.1545
6269.1543
6269.1541
6269.1535
6269.1527
6269.1515
6269.1501
6269.1479
6269.1454
6269.1419
6269.1376
6269.132
6269.1252
6269.1166
6269.1058
6269.0921
6269.0751
6269.054
6269.0274
6268.994
6268.952
6268.8995
6268.8333
6268.7498
6268.6445
6268.5114
6268.3433
6268.1309
6267.8626
6267.5244
6267.0986
6266.5642
6265.8952
6265.0611
6264.0251
6262.7447
6261.1693
6259.241
6256.8929
6254.0482
6250.6204
6246.5118
6241.6129
6235.8019
6228.9442
6220.8909
6211.479
6200.5297
6187.8497
6173.2291
6156.4404
6137.2374
6115.355
6090.5057
6062.3805
6030.642
5994.9271
5954.8382
5909.9587
5859.822
5803.9501
5741.7848
5672.7855
5596.2387
6270.2787
6270.2787
6270.2786
6270.2782
6270.2777
6270.2769
6270.2758
6270.2743
6270.2723
6270.2697
6270.2662
6270.262
6270.2567
6270.2499
6270.2414
6270.2307
6270.2173
6270.2006
6270.1798
6270.1537
6270.1208
6270.0796
6270.0279
6269.9626
6269.8804
6269.7767
6269.6454
6269.4796
6269.2696
6269.0043
6268.6694
6268.247
6267.7164
6267.0514
6266.2214
6265.1899
6263.9145
6262.3449
6260.4233
6258.0834
6255.2486
6251.8328
6247.7383
6242.8567
6237.0665
6230.2335
6222.2088
6212.8301
6201.919
6189.2832
6174.713
6157.9822
6138.8459
6117.0389
6092.2755
6064.247
6032.6167
5997.0218
5957.0667
5912.3362
5862.3667
5806.6819
5744.7266
5675.9657
5599.6567
6271.6753
6271.6752
6271.675
6271.6747
6271.6742
6271.6733
6271.6723
6271.6708
6271.6688
6271.6662
6271.6628
6271.6587
6271.6533
6271.6467
6271.6383
6271.6279
6271.6148
6271.5984
6271.5779
6271.5521
6271.5199
6271.4796
6271.4287
6271.3649
6271.2841
6271.1821
6271.053
6270.8897
6270.6829
6270.4209
6270.0896
6269.6715
6269.1451
6268.4848
6267.6599
6266.6342
6265.365
6263.8028
6261.89
6259.5604
6256.7382
6253.337
6249.2606
6244.4006
6238.636
6231.8334
6223.8445
6214.5068
6203.6434
6191.062
6176.5549
6159.8965
6140.8427
6119.1299
6094.4729
6066.5643
6035.0683
5999.6225
5959.8341
5915.2895
5865.5284
5810.0767
5748.3839
5679.9196
5603.9085
6273.3565
6273.3565
6273.3562
6273.356
6273.3553
6273.3547
6273.3535
6273.3519
6273.3499
6273.3474
6273.3441
6273.3401
6273.335
6273.3283
6273.3202
6273.31
6273.2971
6273.2812
6273.2611
6273.2361
6273.2046
6273.165
6273.1154
6273.0527
6272.9738
6272.8738
6272.7472
6272.5866
6272.3832
6272.125
6271.798
6271.3845
6270.863
6270.2083
6269.3892
6268.3702
6267.1088
6265.5556
6263.6534
6261.3364
6258.5292
6255.1462
6251.0915
6246.2574
6240.5239
6233.7577
6225.8115
6216.5233
6205.7172
6193.202
6178.7708
6162.1997
6143.2455
6121.646
6097.1171
6069.3527
6038.0179
6002.7521
5963.1646
5918.8449
5869.3361
5814.1662
5752.79
5684.6836
5609.0341
6275.3377
6275.3376
6275.3374
6275.3372
6275.3367
6275.3357
6275.3346
6275.3332
6275.3311
6275.3287
6275.3255
6275.3216
6275.3163
6275.31
6275.3021
6275.2921
6275.2796
6275.264
6275.2444
6275.2199
6275.1893
6275.1508
6275.1023
6275.0412
6274.9641
6274.8663
6274.7423
6274.5847
6274.3847
6274.1305
6273.8078
6273.3993
6272.8832
6272.2344
6271.4223
6270.411
6269.1586
6267.6159
6265.7263
6263.4241
6260.6346
6257.273
6253.2439
6248.4403
6242.7432
6236.0199
6228.1236
6218.8938
6208.1553
6195.7181
6181.3769
6164.9087
6146.072
6124.6058
6100.2277
6072.6327
6041.4875
6006.4337
5967.0836
5923.0296
5873.8186
5818.9818
5757.979
5690.2951
5615.0747
6277.6346
6277.6347
6277.6345
6277.6342
6277.6336
6277.6327
6277.6316
6277.6302
6277.6282
6277.6258
6277.6227
6277.6187
6277.6137
6277.6076
6277.5997
6277.5901
6277.5779
6277.5628
6277.5437
6277.52
6277.4901
6277.4526
6277.4054
6277.3458
6277.2703
6277.1748
6277.0532
6276.8989
6276.7022
6276.4519
6276.1335
6275.7299
6275.2195
6274.577
6273.7723
6272.7697
6271.5274
6269.9967
6268.1214
6265.8365
6263.0673
6259.7304
6255.7309
6250.9627
6245.3076
6238.6337
6230.7953
6221.6329
6210.9726
6198.6261
6184.389
6168.0401
6149.3396
6128.0277
6103.8239
6076.4249
6045.4991
6010.691
5971.6161
5927.8709
5879.0063
5824.5561
5763.9872
5696.7931
5622.0719
6280.264
6280.2639
6280.2638
6280.2635
6280.2628
6280.262
6280.2609
6280.2596
6280.2576
6280.2551
6280.2521
6280.2483
6280.2434
6280.2374
6280.2298
6280.2203
6280.2086
6280.1937
6280.1753
6280.1521
6280.123
6280.0866
6280.0406
6279.9823
6279.9086
6279.8149
6279.6957
6279.5438
6279.3503
6279.1033
6278.7893
6278.3904
6277.8857
6277.2497
6276.4528
6275.4595
6274.2285
6272.7114
6270.852
6268.5863
6265.8404
6262.5315
6258.5657
6253.8379
6248.2306
6241.6127
6233.8401
6224.7547
6214.1842
6201.9412
6187.8234
6171.6112
6153.0662
6131.9307
6107.9261
6080.7505
6050.0752
6015.5482
5976.7894
5933.3987
5884.9311
5830.924
5770.8507
5704.2158
5630.0679
6283.241
6283.2409
6283.2408
6283.2404
6283.2398
6283.239
6283.238
6283.2365
6283.2346
6283.2323
6283.2292
6283.2255
6283.2209
6283.2148
6283.2074
6283.1982
6283.1867
6283.1723
6283.1542
6283.1316
6283.1032
6283.0674
6283.0222
6282.9653
6282.8928
6282.8008
6282.6836
6282.5339
6282.3429
6282.0992
6281.7886
6281.3942
6280.895
6280.2659
6279.4772
6278.494
6277.2752
6275.7727
6273.9311
6271.6868
6268.9672
6265.69
6261.7622
6257.0797
6251.5257
6244.9712
6237.2728
6228.2743
6217.8049
6205.6793
6191.6967
6175.6392
6157.2701
6136.3342
6112.5545
6085.6313
6055.2398
6021.0316
5982.6314
5939.6427
5891.6245
5838.1181
5778.6055
5712.6033
5639.1048
6286.5785
6286.5785
6286.5784
6286.578
6286.5774
6286.5766
6286.5755
6286.574
6286.5722
6286.57
6286.5671
6286.5632
6286.5587
6286.5528
6286.5455
6286.5366
6286.5252
6286.5111
6286.4934
6286.4712
6286.4432
6286.4081
6286.3638
6286.3075
6286.2363
6286.1454
6286.0295
6285.8818
6285.6928
6285.4518
6285.1448
6284.7547
6284.2609
6283.6387
6282.8587
6281.8862
6280.6803
6279.1937
6277.3717
6275.1515
6272.4609
6269.219
6265.3335
6260.7016
6255.2075
6248.7233
6241.1079
6232.2067
6221.8509
6209.8569
6196.0261
6180.142
6161.9706
6141.2578
6117.7298
6091.0899
6061.0166
6027.1671
5989.1696
5946.6317
5899.1177
5846.1735
5787.2887
5721.9956
5649.2251
6290.2881
6290.288
6290.2878
6290.2874
6290.2868
6290.2861
6290.285
6290.2835
6290.2817
6290.2795
6290.2767
6290.2729
6290.2684
6290.2627
6290.2555
6290.2466
6290.2355
6290.2216
6290.2042
6290.1823
6290.1547
6290.1201
6290.0762
6290.0206
6289.95
6289.8602
6289.7456
6289.5991
6289.412
6289.1736
6288.8696
6288.484
6287.9958
6287.3807
6286.6098
6285.6486
6284.4569
6282.9877
6281.1872
6278.9933
6276.3351
6273.1322
6269.2938
6264.7178
6259.29
6252.8842
6245.3611
6236.5681
6226.3387
6214.4915
6200.8294
6185.1384
6167.1862
6146.7219
6123.4738
6097.1493
6067.4311
6033.9807
5996.4323
5954.3965
5907.4436
5855.1233
5796.9368
5732.4316
5660.4697
6294.3799
6294.3798
6294.3796
6294.3792
6294.3787
6294.3779
6294.3768
6294.3754
6294.3736
6294.3714
6294.3686
6294.365
6294.3605
6294.3548
6294.3477
6294.339
6294.328
6294.3143
6294.2971
6294.2755
6294.2482
6294.2139
6294.1705
6294.1154
6294.0453
6293.9563
6293.8426
6293.6975
6293.5122
6293.2761
6292.9756
6292.5943
6292.1121
6291.5048
6290.7436
6289.7946
6288.618
6287.1679
6285.3909
6283.2259
6280.6032
6277.4434
6273.6568
6269.1424
6263.7879
6257.4688
6250.0479
6241.3749
6231.2854
6219.6003
6206.1248
6190.6471
6172.9371
6152.7472
6129.8088
6103.8329
6074.5077
6041.4998
6004.4476
5962.9673
5916.6336
5865.0028
5807.5863
5743.9506
5672.88
6298.8656
6298.8655
6298.8653
6298.8649
6298.8643
6298.8636
6298.8627
6298.8612
6298.8594
6298.8573
6298.8544
6298.8508
6298.8463
6298.841
6298.8339
6298.8253
6298.8144
6298.8008
6298.7837
6298.7623
6298.7353
6298.7012
6298.6581
6298.6036
6298.5341
6298.4457
6298.3329
6298.1891
6298.0059
6297.7723
6297.4754
6297.0988
6296.6229
6296.0238
6295.2729
6294.3372
6293.1772
6291.7475
6289.9962
6287.863
6285.2791
6282.1667
6278.437
6273.9905
6268.7167
6262.4931
6255.1848
6246.6438
6236.7082
6225.2017
6211.9311
6196.6872
6179.2438
6159.3552
6136.7568
6111.1645
6082.2721
6049.7511
6013.2446
5972.374
5926.7207
5875.8459
5819.2733
5756.5912
5686.4966
6303.7591
6303.759
6303.7588
6303.7586
6303.758
6303.7572
6303.7561
6303.7548
6303.753
6303.7508
6303.7481
6303.7445
6303.74
6303.7346
6303.7278
6303.7191
6303.7083
6303.6948
6303.6777
6303.6565
6303.6296
6303.5958
6303.5529
6303.4987
6303.4296
6303.3419
6303.2301
6303.0877
6302.9062
6302.6754
6302.3824
6302.0109
6301.5417
6300.9512
6300.2116
6299.2897
6298.1475
6296.7405
6295.017
6292.9186
6290.3774
6287.3164
6283.649
6279.277
6274.0917
6267.9729
6260.7881
6252.3919
6242.6249
6231.3131
6218.2666
6203.2788
6186.1262
6166.5667
6144.3405
6119.1684
6090.7503
6058.7619
6022.8521
5982.6475
5937.7364
5887.6864
5832.0335
5770.3916
5701.3601
6309.0755
6309.0754
6309.0752
6309.0749
6309.0743
6309.0735
6309.0725
6309.0712
6309.0694
6309.0672
6309.0645
6309.061
6309.0565
6309.0511
6309.0442
6309.0355
6309.0248
6309.0111
6308.9942
6308.9729
6308.9462
6308.9122
6308.8696
6308.8155
6308.7468
6308.6596
6308.5488
6308.4076
6308.2282
6308.0002
6307.7109
6307.3447
6306.8825
6306.3011
6305.5732
6304.6666
6303.5437
6302.1608
6300.468
6298.4071
6295.9122
6292.9075
6289.3078
6285.017
6279.9284
6273.924
6266.8741
6258.6357
6249.0523
6237.9528
6225.1502
6210.4408
6193.6044
6174.4032
6152.5829
6127.8695
6099.9671
6068.5589
6033.2984
5993.8173
5949.7123
5900.5573
5845.9028
5785.3895
5717.5098
6314.8301
6314.8299
6314.8298
6314.8294
6314.8289
6314.8281
6314.8271
6314.8258
6314.8241
6314.8218
6314.8191
6314.8154
6314.811
6314.8055
6314.7984
6314.7897
6314.7787
6314.7652
6314.7481
6314.7265
6314.6996
6314.6657
6314.6229
6314.5689
6314.5003
6314.4136
6314.3034
6314.1636
6313.9861
6313.7609
6313.4755
6313.1145
6312.6595
6312.0877
6311.3725
6310.482
6309.3799
6308.0233
6306.3633
6304.3434
6301.8984
6298.9546
6295.4284
6291.2259
6286.2423
6280.3626
6273.4593
6265.3922
6256.0081
6245.1388
6232.6001
6218.1923
6201.6986
6182.8865
6161.5067
6137.2906
6109.9488
6079.1693
6044.6108
6005.9132
5962.679
5914.4917
5860.9156
5801.6217
5734.9845
6321.0351
6321.0349
6321.0348
6321.0345
6321.0339
6321.0332
6321.0322
6321.0308
6321.0291
6321.0268
6321.024
6321.0203
6321.0158
6321.0101
6321.0031
6320.9941
6320.9831
6320.9692
6320.952
6320.9302
6320.9031
6320.869
6320.826
6320.7718
6320.7035
6320.617
6320.5075
6320.369
6320.1934
6319.9711
6319.6896
6319.3345
6318.887
6318.3252
6317.6232
6316.7503
6315.6703
6314.3422
6312.7178
6310.7417
6308.3509
6305.4728
6302.0259
6297.9188
6293.0493
6287.3042
6280.5596
6272.6779
6263.5091
6252.8883
6240.6347
6226.552
6210.4289
6192.0377
6171.134
6147.4559
6120.7201
6090.6185
6056.818
6018.9631
5976.667
5929.5212
5877.1061
5819.1246
5753.822
6327.6995
6327.6995
6327.6994
6327.6991
6327.6986
6327.6977
6327.6966
6327.6952
6327.6935
6327.6912
6327.6883
6327.6847
6327.68
6327.6743
6327.6672
6327.6582
6327.6469
6327.633
6327.6155
6327.5936
6327.5662
6327.5319
6327.4889
6327.4348
6327.3667
6327.2809
6327.1723
6327.0353
6326.862
6326.6429
6326.366
6326.0169
6325.5778
6325.027
6324.3396
6323.4852
6322.4295
6321.132
6319.5458
6317.6171
6315.2842
6312.4767
6309.1156
6305.1112
6300.3644
6294.7647
6288.191
6280.5091
6271.5719
6261.2181
6249.2708
6235.5385
6219.8147
6201.8765
6181.4867
6158.3892
6132.3044
6102.9323
6069.9448
6032.9955
5991.7057
5945.6776
5894.5074
5837.9332
5774.0585
6334.8288
6334.8288
6334.8287
6334.8283
6334.8278
6334.8271
6334.826
6334.8246
6334.8228
6334.8207
6334.8178
6334.814
6334.8094
6334.8038
6334.7965
6334.7876
6334.7763
6334.7624
6334.7449
6334.7231
6334.696
6334.6619
6334.6192
6334.5656
6334.4984
6334.4135
6334.3067
6334.1718
6334.0014
6333.7864
6333.5151
6333.1733
6332.7434
6332.2053
6331.5338
6330.7005
6329.671
6328.4066
6326.8615
6324.9836
6322.7129
6319.9813
6316.7119
6312.8181
6308.203
6302.7595
6296.3693
6288.9013
6280.2124
6270.1444
6258.5256
6245.1697
6229.874
6212.4235
6192.5866
6170.1119
6144.7256
6116.1347
6084.0179
6048.0376
6007.8247
5962.9914
5913.1517
5858.0815
5795.7284
6342.4269
6342.4269
6342.4268
6342.4266
6342.4261
6342.4253
6342.4242
6342.423
6342.4212
6342.419
6342.4162
6342.4128
6342.4082
6342.4027
6342.3957
6342.387
6342.376
6342.3624
6342.3454
6342.3243
6342.2976
6342.2644
6342.2228
6342.1705
6342.1048
6342.0221
6341.9178
6341.7861
6341.6199
6341.4103
6341.1457
6340.8124
6340.3941
6339.8703
6339.2172
6338.4069
6337.4066
6336.1783
6334.6777
6332.8543
6330.6506
6328.0004
6324.8295
6321.0538
6316.58
6311.3033
6305.109
6297.8696
6289.4454
6279.6828
6268.4156
6255.4613
6240.6253
6223.6983
6204.4539
6182.6448
6158.0061
6130.2491
6099.0623
6064.1161
6025.0521
5981.4924
5933.0701
5879.6023
5818.8642
6350.5001
6350.5001
6350.4999
6350.4995
6350.4991
6350.4984
6350.4975
6350.4962
6350.4947
6350.4925
6350.49
6350.4866
6350.4826
6350.4773
6350.4706
6350.4625
6350.4522
6350.4393
6350.4233
6350.4031
6350.3779
6350.3462
6350.3062
6350.2562
6350.1931
6350.1134
6350.0129
6349.8858
6349.725
6349.5221
6349.2661
6348.9434
6348.5384
6348.0313
6347.3992
6346.6148
6345.6467
6344.4579
6343.0057
6341.2416
6339.1097
6336.5469
6333.4814
6329.8321
6325.5085
6320.4097
6314.4237
6307.4271
6299.2839
6289.8474
6278.9545
6266.4303
6252.0865
6235.7195
6217.1064
6196.0091
6172.1663
6145.2984
6115.1022
6081.2574
6043.4157
6001.2094
5954.2921
5902.527
5843.4971
6359.0577
6359.0577
6359.0577
6359.0573
6359.0569
6359.0564
6359.0556
6359.0545
6359.053
6359.0511
6359.0489
6359.0457
6359.042
6359.0372
6359.0313
6359.0237
6359.0143
6359.0025
6358.9877
6358.9691
6358.9457
6358.916
6358.8788
6358.8314
6358.7717
6358.6963
6358.6003
6358.4789
6358.3249
6358.1301
6357.8842
6357.5739
6357.184
6356.6958
6356.0873
6355.332
6354.3995
6353.2541
6351.8551
6350.155
6348.1008
6345.6315
6342.6785
6339.1638
6335.0002
6330.0895
6324.324
6317.5842
6309.7411
6300.6507
6290.157
6278.0929
6264.2742
6248.5024
6230.5628
6210.222
6187.2264
6161.3042
6132.161
6099.4862
6062.9415
6022.1701
5976.8463
5926.8859
5869.6562
6368.1142
6368.1142
6368.114
6368.1138
6368.1136
6368.113
6368.1122
6368.1112
6368.1101
6368.1084
6368.1064
6368.1037
6368.1004
6368.0961
6368.0909
6368.084
6368.0756
6368.0649
6368.0514
6368.0346
6368.013
6367.9858
6367.9512
6367.9073
6367.8513
6367.7802
6367.6897
6367.5745
6367.4281
6367.2425
6367.0076
6366.7111
6366.3384
6365.8713
6365.2886
6364.5654
6363.672
6362.574
6361.2321
6359.6015
6357.6308
6355.2621
6352.4293
6349.0575
6345.0627
6340.3511
6334.8189
6328.353
6320.8276
6312.1053
6302.0384
6290.4627
6277.2018
6262.0632
6244.8387
6225.3015
6203.2058
6178.2876
6150.2615
6118.8266
6083.6557
6044.4013
6000.7597
5952.7082
5897.37
6377.684
6377.684
6377.684
6377.6838
6377.6836
6377.6832
6377.6826
6377.6816
6377.6806
6377.6791
6377.6774
6377.675
6377.672
6377.6682
6377.6634
6377.6574
6377.6498
6377.6401
6377.6277
6377.6122
6377.5926
6377.5673
6377.5354
6377.4945
6377.4422
6377.3755
6377.2903
6377.1815
6377.0429
6376.8671
6376.644
6376.3625
6376.0081
6375.5641
6375.0095
6374.3209
6373.4696
6372.4229
6371.1429
6369.5869
6367.7057
6365.444
6362.7387
6359.5182
6355.7022
6351.2014
6345.9177
6339.7418
6332.5535
6324.2239
6314.6087
6303.5512
6290.8819
6276.4152
6259.9488
6241.2638
6220.1223
6196.2682
6169.4251
6139.3021
6105.5823
6067.9285
6026.0585
5980.0214
5926.6675
6387.7792
6387.7792
6387.7792
6387.779
6387.7788
6387.7784
6387.7778
6387.7771
6387.7761
6387.7748
6387.7731
6387.7708
6387.7682
6387.7647
6387.7602
6387.7546
6387.7476
6387.7385
6387.727
6387.7126
6387.6941
6387.6707
6387.6406
6387.6023
6387.553
6387.4902
6387.4097
6387.3072
6387.1765
6387.0105
6386.8001
6386.5343
6386.1995
6385.7799
6385.2556
6384.604
6383.7976
6382.8054
6381.5915
6380.1147
6378.3285
6376.1804
6373.6101
6370.5501
6366.9239
6362.6476
6357.6272
6351.7579
6344.9286
6337.0141
6327.8769
6317.3688
6305.3258
6291.57
6275.9066
6258.1241
6237.9926
6215.2649
6189.6728
6160.9352
6128.7458
6092.7769
6052.7681
6008.8512
5957.579
6398.4044
6398.4044
6398.4044
6398.4042
6398.404
6398.4036
6398.403
6398.4023
6398.4014
6398.4001
6398.3984
6398.3964
6398.3936
6398.3902
6398.386
6398.3804
6398.3736
6398.3649
6398.354
6398.34
6398.3225
6398.3
6398.2714
6398.2349
6398.1883
6398.1288
6398.053
6397.9563
6397.8335
6397.6775
6397.4801
6397.2308
6396.9168
6396.523
6396.0306
6395.4179
6394.6591
6393.7246
6392.58
6391.187
6389.5015
6387.4734
6385.0465
6382.1567
6378.7324
6374.6941
6369.9515
6364.4082
6357.9582
6350.4822
6341.8514
6331.9233
6320.5424
6307.5384
6292.7238
6275.8956
6256.8323
6235.2949
6211.0239
6183.7475
6153.1694
6118.9714
6080.9151
6039.2244
5990.137
6409.5572
6409.5572
6409.557
6409.557
6409.5567
6409.5563
6409.5558
6409.555
6409.554
6409.5527
6409.551
6409.549
6409.5463
6409.543
6409.5387
6409.5332
6409.5264
6409.518
6409.5073
6409.4937
6409.4766
6409.4548
6409.4274
6409.3926
6409.3483
6409.2922
6409.2208
6409.13
6409.0153
6408.8699
6408.686
6408.454
6408.162
6407.7954
6407.3363
6406.7647
6406.0555
6405.1813
6404.1098
6402.8049
6401.2254
6399.3247
6397.0495
6394.3402
6391.1302
6387.3423
6382.8944
6377.6962
6371.646
6364.6335
6356.5367
6347.221
6336.5391
6324.3284
6310.4103
6294.5902
6276.6548
6256.3743
6233.4976
6207.7608
6178.8775
6146.5375
6110.5279
6071.1747
6024.3746
6421.2307
6421.2307
6421.2305
6421.2304
6421.2302
6421.2298
6421.2291
6421.2284
6421.2275
6421.2262
6421.2244
6421.2224
6421.2197
6421.2164
6421.2122
6421.2069
6421.2003
6421.1919
6421.1814
6421.1684
6421.1519
6421.1312
6421.1051
6421.0723
6421.0306
6420.9779
6420.9114
6420.8274
6420.7213
6420.5871
6420.4177
6420.2041
6419.9352
6419.5968
6419.1729
6418.6437
6417.9866
6417.1754
6416.1804
6414.968
6413.5002
6411.7336
6409.619
6407.1013
6404.116
6400.5933
6396.4571
6391.622
6385.9935
6379.4696
6371.9355
6363.2656
6353.3202
6341.946
6328.9738
6314.2171
6297.4722
6278.518
6257.1114
6232.9965
6205.8947
6175.5028
6141.638
6104.7422
6060.3307
6433.4171
6433.4171
6433.4171
6433.417
6433.4168
6433.4163
6433.4157
6433.415
6433.4141
6433.4129
6433.4113
6433.4093
6433.4067
6433.4035
6433.3995
6433.3945
6433.3882
6433.3803
6433.3706
6433.3582
6433.3428
6433.3236
6433.2993
6433.2689
6433.2305
6433.1822
6433.1214
6433.0448
6432.9482
6432.8265
6432.6727
6432.4787
6432.2339
6431.9252
6431.5377
6431.0529
6430.4498
6429.7043
6428.7893
6427.6739
6426.3236
6424.6983
6422.7536
6420.4364
6417.6882
6414.4457
6410.6371
6406.1835
6400.9995
6394.9896
6388.0483
6380.058
6370.8881
6360.395
6348.4187
6334.7831
6319.2935
6301.7381
6281.882
6259.4762
6234.2487
6205.8989
6174.2693
6139.9329
6098.098
6446.1096
6446.1096
6446.1094
6446.1093
6446.1091
6446.1088
6446.1082
6446.1075
6446.1068
6446.1056
6446.1041
6446.1025
6446.1002
6446.0973
6446.0937
6446.0893
6446.0837
6446.0766
6446.0679
6446.0569
6446.0433
6446.026
6446.0044
6445.9773
6445.9433
6445.9003
6445.8463
6445.7782
6445.6925
6445.5842
6445.4471
6445.2735
6445.0538
6444.7761
6444.426
6443.9869
6443.4398
6442.7627
6441.9313
6440.9181
6439.6911
6438.2151
6436.4479
6434.3412
6431.8429
6428.8941
6425.4289
6421.3768
6416.6595
6411.1901
6404.8718
6397.5958
6389.2416
6379.6749
6368.747
6356.2923
6342.1259
6326.0456
6307.8249
6287.2218
6263.9699
6237.7592
6208.4355
6176.8371
6137.7027
6459.3034
6459.3034
6459.3032
6459.3031
6459.3029
6459.3028
6459.3022
6459.3017
6459.301
6459.3001
6459.2989
6459.2975
6459.2957
6459.2934
6459.2903
6459.2867
6459.282
6459.2763
6459.269
6459.2598
6459.2484
6459.2339
6459.2157
6459.1927
6459.1636
6459.1269
6459.0806
6459.0222
6458.948
6458.8537
6458.7341
6458.5818
6458.3878
6458.1414
6457.8297
6457.4379
6456.9486
6456.3429
6455.5993
6454.6929
6453.5959
6452.2758
6450.6938
6448.8083
6446.5714
6443.9295
6440.8248
6437.1938
6432.9665
6428.0643
6422.3994
6415.8734
6408.3756
6399.7825
6389.9568
6378.7448
6365.973
6351.4486
6334.9543
6316.2556
6295.0849
6271.1036
6244.1963
6215.4953
6179.1876
6472.9935
6472.9935
6472.9934
6472.9934
6472.9932
6472.9929
6472.9926
6472.9922
6472.9917
6472.991
6472.9902
6472.9891
6472.9877
6472.9862
6472.984
6472.9812
6472.9778
6472.9735
6472.968
6472.961
6472.9522
6472.941
6472.9266
6472.9084
6472.8852
6472.8553
6472.8171
6472.7685
6472.7062
6472.6265
6472.5242
6472.393
6472.2248
6472.0102
6471.7376
6471.3943
6470.9655
6470.4347
6469.7828
6468.9884
6468.0272
6466.869
6465.4812
6463.8264
6461.8617
6459.541
6456.8133
6453.6233
6449.9092
6445.6014
6440.6214
6434.8812
6428.2812
6420.7098
6412.042
6402.1372
6390.8346
6377.9526
6363.2837
6346.5969
6327.6193
6306.0112
6281.5923
6255.9492
6222.6824
6487.1757
6487.1756
6487.1756
6487.1755
6487.1755
6487.1753
6487.175
6487.1749
6487.1746
6487.1741
6487.1736
6487.1729
6487.1721
6487.1711
6487.1697
6487.168
6487.1657
6487.1629
6487.1593
6487.1547
6487.1485
6487.1405
6487.1301
6487.1164
6487.0986
6487.0755
6487.0452
6487.006
6486.955
6486.8892
6486.8038
6486.6934
6486.551
6486.3683
6486.136
6485.8432
6485.4772
6485.0242
6484.4682
6483.7908
6482.97
6481.9807
6480.7949
6479.3798
6477.699
6475.7132
6473.3796
6470.6508
6467.4734
6463.787
6459.5233
6454.605
6448.9448
6442.4442
6434.9918
6426.4611
6416.7064
6405.5584
6392.8188
6378.2601
6361.6277
6342.5277
6320.7122
6298.2726
6268.321
6501.8399
6501.8399
6501.84
6501.8398
6501.8398
6501.8397
6501.8396
6501.8394
6501.8393
6501.839
6501.8389
6501.8384
6501.8381
6501.8375
6501.8369
6501.8361
6501.835
6501.8335
6501.8313
6501.8286
6501.8248
6501.8195
6501.8126
6501.8029
6501.7899
6501.7725
6501.7494
6501.7187
6501.6783
6501.6252
6501.556
6501.4658
6501.3491
6501.1989
6501.008
6500.7671
6500.4664
6500.0944
6499.6378
6499.081
6498.4058
6497.592
6496.6154
6495.4491
6494.0635
6492.4272
6490.5047
6488.2569
6485.6394
6482.6017
6479.0856
6475.0258
6470.3482
6464.9683
6458.7899
6451.7021
6443.5759
6434.2548
6423.5604
6411.2754
6397.1401
6380.7386
6361.7204
6342.6153
6316.21
6516.9713
6516.9711
6516.9712
6516.971
6516.9711
6516.9709
6516.9708
6516.9708
6516.9707
6516.9706
6516.9705
6516.9704
6516.9701
6516.97
6516.9696
6516.9694
6516.9688
6516.968
6516.9668
6516.9652
6516.963
6516.9596
6516.9548
6516.948
6516.9385
6516.9257
6516.908
6516.8845
6516.8532
6516.8121
6516.758
6516.6878
6516.5966
6516.4796
6516.3306
6516.1433
6515.9096
6515.6212
6515.2668
6514.8345
6514.3102
6513.6775
6512.9175
6512.0093
6510.931
6509.6582
6508.1642
6506.4174
6504.3831
6502.0206
6499.2836
6496.119
6492.4665
6488.2574
6483.4118
6477.8344
6471.4189
6464.0305
6455.5075
6445.6469
6434.2038
6420.7464
6404.8512
6389.2104
6366.3476
6532.5418
6532.5418
6532.5417
6532.5415
6532.5416
6532.5414
6532.5413
6532.5412
6532.541
6532.5409
6532.5408
6532.5407
6532.5406
6532.5405
6532.5403
6532.5399
6532.5395
6532.539
6532.5383
6532.5371
6532.5355
6532.5331
6532.5294
6532.5245
6532.5173
6532.5077
6532.4946
6532.4772
6532.4542
6532.424
6532.385
6532.3343
6532.2692
6532.1858
6532.0797
6531.9472
6531.7828
6531.5796
6531.33
6531.0261
6530.6567
6530.2106
6529.6747
6529.0344
6528.2751
6527.3803
6526.3309
6525.1046
6523.6757
6522.0145
6520.0864
6517.8513
6515.2659
6512.2777
6508.8248
6504.8322
6500.2133
6494.8585
6488.6396
6481.3829
6472.8657
6462.6659
6450.3559
6438.1142
6419.0641
6548.5193
6548.5192
6548.519
6548.5189
6548.5187
6548.5186
6548.5185
6548.5181
6548.518
6548.5177
6548.5176
6548.5173
6548.5168
6548.5165
6548.5161
6548.5157
6548.5151
6548.5144
6548.5134
6548.5121
6548.5104
6548.5081
6548.505
6548.5009
6548.495
6548.4875
6548.4778
6548.4656
6548.45
6548.4303
6548.4058
6548.3751
6548.3366
6548.2871
6548.2251
6548.1483
6548.0538
6547.9374
6547.7958
6547.6233
6547.4137
6547.1601
6546.8553
6546.4926
6546.0639
6545.5607
6544.9722
6544.2848
6543.4832
6542.5492
6541.4607
6540.1927
6538.7173
6537.0006
6535.0005
6532.6632
6529.9293
6526.7159
6522.9293
6518.4472
6513.0953
6506.5409
6498.4218
6490.1013
6475.7732
6565.5836
6565.5834
6565.5833
6565.5831
6565.5828
6565.5826
6565.5823
6565.582
6565.5815
6565.581
6565.5805
6565.58
6565.5793
6565.5785
6565.5777
6565.5768
6565.5755
6565.5741
6565.5724
6565.5704
6565.5679
6565.5649
6565.5613
6565.557
6565.5518
6565.5456
6565.5386
6565.5309
6565.5222
6565.5129
6565.5026
6565.4918
6565.4799
6565.4665
6565.4521
6565.4358
6565.4176
6565.3971
6565.3732
6565.3441
6565.3088
6565.2655
6565.2145
6565.1552
6565.0875
6565.0106
6564.9229
6564.8203
6564.6987
6564.5524
6564.3742
6564.1556
6563.8865
6563.5528
6563.1344
6562.6039
6561.9273
6561.0603
6559.9468
6558.5217
6556.6899
6554.2651
6551.2563
6548.502
6543.2415
6583.5361
6583.5357
6583.5356
6583.5352
6583.5349
6583.5345
6583.5342
6583.5337
6583.5332
6583.5325
6583.5318
6583.5309
6583.53
6583.5288
6583.5275
6583.526
6583.5242
6583.5221
6583.5197
6583.5168
6583.5135
6583.51
6583.5058
6583.5015
6583.4968
6583.4923
6583.4884
6583.4856
6583.485
6583.487
6583.4932
6583.5043
6583.5221
6583.5477
6583.5836
6583.6323
6583.6972
6583.7797
6583.8812
6584.0053
6584.1558
6584.3376
6584.5571
6584.8219
6585.1394
6585.5173
6585.9629
6586.4832
6587.086
6587.7796
6588.5731
6589.4758
6590.4959
6591.6406
6592.9146
6594.3191
6595.851
6597.5058
6599.273
6601.1492
6603.1283
6605.1849
6607.5171
6610.5234
6612.791
6601.453
6601.4528
6601.4525
6601.4521
6601.4518
6601.4514
6601.451
6601.4505
6601.4498
6601.4493
6601.4484
6601.4475
6601.4467
6601.4455
6601.4441
6601.4426
6601.4408
6601.4388
6601.4365
6601.4341
6601.4314
6601.4283
6601.4253
6601.4223
6601.4201
6601.4189
6601.4198
6601.4236
6601.4319
6601.4466
6601.4694
6601.5028
6601.5492
6601.6126
6601.6973
6601.8083
6601.9509
6602.1307
6602.3545
6602.6296
6602.965
6603.3713
6603.8618
6604.4508
6605.1536
6605.9862
6606.9657
6608.11
6609.4397
6610.9774
6612.7485
6614.7799
6617.0994
6619.7351
6622.7166
6626.0747
6629.8395
6634.0461
6638.7322
6643.951
6649.7649
6656.2672
6663.6855
6672.2601
6681.8407
6619.258
6619.2578
6619.2575
6619.2571
6619.2569
6619.2564
6619.256
6619.2556
6619.2551
6619.2546
6619.2539
6619.2532
6619.2523
6619.2515
6619.2505
6619.2494
6619.2481
6619.2468
6619.2452
6619.2438
6619.2422
6619.2408
6619.2397
6619.2392
6619.2401
6619.2431
6619.2494
6619.2605
6619.278
6619.3048
6619.3437
6619.3981
6619.473
6619.574
6619.7065
6619.8781
6620.0977
6620.3745
6620.7188
6621.1428
6621.6609
6622.2902
6623.0499
6623.9613
6625.0474
6626.3323
6627.843
6629.6091
6631.6638
6634.0446
6636.7928
6639.9531
6643.5726
6647.7014
6652.3935
6657.7087
6663.7116
6670.4752
6678.083
6686.6399
6696.2677
6707.1402
6719.523
6733.7277
6750.2017
6636.8665
6636.8661
6636.866
6636.8656
6636.8654
6636.865
6636.8646
6636.8643
6636.8639
6636.8635
6636.8632
6636.8629
6636.8624
6636.8621
6636.8617
6636.8614
6636.861
6636.8607
6636.8607
6636.8608
6636.8612
6636.8622
6636.864
6636.8671
6636.8722
6636.8805
6636.8931
6636.9123
6636.9405
6636.9809
6637.0373
6637.1149
6637.2196
6637.3578
6637.5381
6637.7707
6638.0671
6638.4398
6638.9034
6639.4753
6640.175
6641.0252
6642.052
6643.2828
6644.7481
6646.481
6648.5182
6650.9012
6653.6764
6656.8955
6660.6154
6664.8983
6669.8109
6675.4252
6681.8206
6689.0846
6697.3149
6706.6214
6717.1306
6728.9966
6742.4001
6757.5818
6774.8668
6794.6688
6817.6016
6654.2107
6654.2104
6654.2102
6654.21
6654.2098
6654.2094
6654.2092
6654.2092
6654.209
6654.2088
6654.2088
6654.2089
6654.2091
6654.2092
6654.2098
6654.2102
6654.2111
6654.2122
6654.2137
6654.2156
6654.2184
6654.2221
6654.2272
6654.2344
6654.2443
6654.2586
6654.2787
6654.3073
6654.3472
6654.4028
6654.4786
6654.5804
6654.7155
6654.892
6655.1211
6655.4147
6655.7876
6656.2558
6656.8381
6657.5563
6658.4358