/*--------------------------------*- C++ -*----------------------------------*\
  =========                 |
  \\      /  F ield         | OpenFOAM: The Open Source CFD Toolbox
   \\    /   O peration     | Website:  https://openfoam.org
    \\  /    A nd           | Version:  13
     \\/     M anipulation  |
\*---------------------------------------------------------------------------*/
FoamFile
{
    format      ascii;
    class       volScalarField;
    location    "49.696287";
    object      yPlus;
}
// * * * * * * * * * * * * * * * * * * * * * * * * * * * * * * * * * * * * * //

dimensions      [];

internalField   uniform 0;

boundaryField
{
    inlet
    {
        type            calculated;
        value           uniform 0;
    }
    outlet
    {
        type            calculated;
        value           uniform 0;
    }
    cylinder
    {
        type            calculated;
        value           nonuniform List<scalar> 
132
(
1.3867438e-07
1.3771259e-07
1.3621224e-07
1.341544e-07
1.3154076e-07
1.2838308e-07
1.2470241e-07
1.2052912e-07
1.1590287e-07
1.1087192e-07
1.0549265e-07
9.9828623e-08
9.3950464e-08
8.7935691e-08
8.1865179e-08
7.5821318e-08
6.9886925e-08
6.4143064e-08
5.8665069e-08
5.3516306e-08
4.873806e-08
4.4333644e-08
4.0249417e-08
3.6361963e-08
3.2489059e-08
2.8440206e-08
2.4100244e-08
1.9511758e-08
1.4901248e-08
1.0628322e-08
7.0697033e-09
4.5334445e-09
3.2252527e-09
3.0944718e-09
3.6010055e-09
4.4115035e-09
5.4454661e-09
6.7121439e-09
8.2373296e-09
1.0052876e-08
1.2219364e-08
1.4810739e-08
1.7595369e-08
2.053464e-08
2.3556248e-08
2.659307e-08
2.9588974e-08
3.2503374e-08
3.5303853e-08
3.7970751e-08
4.0488777e-08
4.2854653e-08
4.5059145e-08
4.7098704e-08
4.8990241e-08
5.0707203e-08
5.2275949e-08
5.3681578e-08
5.4935064e-08
5.6022307e-08
5.6955209e-08
5.7736825e-08
5.8363783e-08
5.883735e-08
5.9162867e-08
5.9329589e-08
1.3906436e-07
1.3890377e-07
1.3823014e-07
1.369738e-07
1.3509665e-07
1.3258962e-07
1.294623e-07
1.2573568e-07
1.2143754e-07
1.1660922e-07
1.1131986e-07
1.0563297e-07
9.9630305e-08
9.3405569e-08
8.7060138e-08
8.0698592e-08
7.4423435e-08
6.832772e-08
6.2486659e-08
5.6947147e-08
5.171816e-08
4.6762792e-08
4.1995761e-08
3.7297524e-08
3.2544759e-08
2.7658999e-08
2.2660006e-08
1.7694934e-08
1.3024239e-08
8.9649129e-09
5.8129393e-09
3.8007899e-09
3.0401499e-09
3.2419683e-09
3.8903239e-09
4.7775439e-09
5.8799364e-09
7.21581e-09
8.8112966e-09
1.0693245e-08
1.2917908e-08
1.5555772e-08
1.8366362e-08
2.131484e-08
2.4324618e-08
2.7334549e-08
3.0296118e-08
3.3168338e-08
3.5924576e-08
3.854634e-08
4.1018525e-08
4.3343443e-08
4.550495e-08
4.7492857e-08
4.9360977e-08
5.1032067e-08
5.2569974e-08
5.3937023e-08
5.5162793e-08
5.6211705e-08
5.7116751e-08
5.7866639e-08
5.8463703e-08
5.8906526e-08
5.9194746e-08
5.9333872e-08
)
;
    }
    frontAndBack
    {
        type            empty;
    }
}


// ************************************************************************* //
