/*--------------------------------*- C++ -*----------------------------------*\
  =========                 |
  \\      /  F ield         | OpenFOAM: The Open Source CFD Toolbox
   \\    /   O peration     | Website:  https://openfoam.org
    \\  /    A nd           | Version:  13
     \\/     M anipulation  |
\*---------------------------------------------------------------------------*/
FoamFile
{
    format      ascii;
    class       volScalarField;
    location    "3800";
    object      k;
}
// * * * * * * * * * * * * * * * * * * * * * * * * * * * * * * * * * * * * * //

dimensions      [0 2 -2 0 0 0 0];

internalField   nonuniform List<scalar> 
25000
(
0.000135721
0.000135715
0.000135696
0.000135674
0.000135653
0.000135635
0.000135622
0.000135611
0.000135602
0.000135594
0.000135587
0.000135581
0.000135576
0.000135571
0.000135568
0.000135565
0.000135564
0.000135563
0.000135563
0.000135564
0.000135567
0.00013557
0.000135574
0.000135579
0.000135585
0.000135592
0.0001356
0.000135608
0.000135616
0.000135625
0.000135634
0.000135643
0.000135652
0.000135661
0.00013567
0.000135677
0.000135685
0.000135691
0.000135696
0.0001357
0.000135703
0.000135705
0.000135706
0.000135705
0.000135704
0.000135704
0.000135705
0.00013571
0.000135717
0.000135721
0.000431761
0.00043169
0.000431483
0.000431238
0.000431007
0.000430817
0.000430671
0.000430557
0.000430462
0.000430379
0.000430312
0.000430252
0.000430205
0.000430166
0.000430139
0.00043012
0.000430112
0.000430114
0.000430128
0.000430151
0.000430186
0.000430231
0.000430286
0.00043035
0.000430423
0.000430503
0.00043059
0.000430681
0.000430776
0.000430871
0.000430967
0.000431066
0.000431165
0.000431257
0.000431344
0.000431423
0.000431494
0.000431554
0.000431603
0.000431639
0.000431662
0.00043167
0.000431667
0.000431652
0.000431634
0.000431618
0.000431626
0.000431663
0.000431734
0.000431774
0.000848176
0.00084798
0.000847488
0.000846914
0.00084638
0.000845945
0.000845613
0.000845358
0.000845154
0.000844985
0.000844853
0.000844745
0.000844669
0.000844616
0.000844592
0.000844589
0.000844614
0.000844662
0.000844737
0.000844834
0.000844955
0.000845098
0.000845261
0.000845442
0.000845639
0.00084585
0.00084607
0.000846297
0.000846526
0.000846751
0.000846972
0.000847196
0.000847411
0.000847608
0.000847787
0.000847942
0.000848075
0.000848179
0.000848255
0.000848298
0.00084831
0.000848288
0.000848239
0.000848163
0.000848082
0.00084801
0.000847991
0.000848042
0.000848169
0.000848233
0.00128024
0.00127988
0.00127912
0.00127826
0.00127747
0.00127684
0.00127636
0.00127601
0.00127574
0.00127553
0.00127539
0.0012753
0.00127526
0.00127526
0.00127531
0.00127539
0.00127552
0.00127569
0.00127589
0.00127613
0.0012764
0.00127669
0.00127701
0.00127735
0.00127771
0.00127807
0.00127844
0.00127881
0.00127917
0.00127951
0.00127984
0.00128015
0.00128044
0.00128069
0.00128091
0.00128108
0.00128121
0.00128129
0.00128132
0.0012813
0.00128122
0.0012811
0.00128094
0.00128074
0.00128053
0.00128035
0.00128024
0.00128024
0.00128035
0.00128038
0.0016454
0.00164489
0.00164395
0.0016429
0.00164196
0.00164121
0.00164065
0.00164026
0.00163998
0.00163979
0.00163969
0.00163966
0.0016397
0.0016398
0.00163996
0.00164018
0.00164045
0.00164076
0.00164112
0.00164152
0.00164195
0.00164241
0.00164289
0.00164338
0.00164388
0.00164438
0.00164488
0.00164535
0.00164581
0.00164623
0.00164662
0.00164698
0.00164729
0.00164754
0.00164774
0.00164787
0.00164794
0.00164794
0.00164787
0.00164774
0.00164754
0.00164728
0.00164698
0.00164663
0.00164628
0.00164596
0.00164573
0.00164564
0.00164568
0.00164565
0.00192735
0.00192671
0.00192566
0.0019245
0.00192346
0.00192265
0.00192207
0.00192166
0.0019214
0.00192125
0.0019212
0.00192124
0.00192137
0.00192157
0.00192184
0.00192218
0.00192258
0.00192304
0.00192354
0.00192408
0.00192465
0.00192525
0.00192586
0.00192648
0.0019271
0.00192771
0.0019283
0.00192886
0.00192938
0.00192985
0.00193027
0.00193064
0.00193094
0.00193117
0.00193133
0.0019314
0.0019314
0.00193131
0.00193114
0.0019309
0.00193058
0.0019302
0.00192976
0.00192928
0.0019288
0.00192836
0.00192802
0.00192783
0.00192779
0.00192768
0.00214208
0.00214135
0.00214021
0.00213897
0.00213788
0.00213703
0.00213643
0.00213602
0.00213578
0.00213566
0.00213567
0.00213577
0.00213597
0.00213625
0.00213662
0.00213706
0.00213757
0.00213814
0.00213875
0.00213941
0.0021401
0.0021408
0.00214152
0.00214224
0.00214295
0.00214364
0.00214429
0.00214491
0.00214548
0.00214598
0.00214643
0.0021468
0.00214709
0.00214729
0.00214741
0.00214743
0.00214736
0.0021472
0.00214695
0.00214661
0.00214619
0.0021457
0.00214516
0.00214458
0.00214399
0.00214345
0.00214303
0.00214276
0.00214265
0.00214248
0.00230971
0.0023089
0.00230769
0.0023064
0.00230526
0.00230438
0.00230377
0.00230336
0.00230313
0.00230304
0.00230308
0.00230323
0.00230349
0.00230384
0.00230428
0.00230481
0.0023054
0.00230605
0.00230676
0.0023075
0.00230828
0.00230907
0.00230987
0.00231067
0.00231145
0.0023122
0.00231291
0.00231357
0.00231417
0.0023147
0.00231516
0.00231553
0.00231582
0.002316
0.00231608
0.00231607
0.00231595
0.00231573
0.00231541
0.002315
0.0023145
0.00231393
0.00231331
0.00231264
0.00231198
0.00231136
0.00231086
0.00231054
0.00231037
0.00231017
0.00244552
0.00244465
0.00244338
0.00244203
0.00244085
0.00243995
0.00243932
0.00243891
0.00243869
0.00243863
0.00243869
0.00243888
0.00243918
0.00243959
0.00244009
0.00244067
0.00244133
0.00244205
0.00244283
0.00244364
0.00244449
0.00244535
0.00244622
0.00244707
0.00244791
0.00244871
0.00244947
0.00245017
0.0024508
0.00245135
0.00245182
0.0024522
0.00245247
0.00245264
0.0024527
0.00245266
0.0024525
0.00245223
0.00245186
0.0024514
0.00245084
0.00245021
0.00244952
0.00244879
0.00244806
0.00244739
0.00244683
0.00244646
0.00244626
0.00244602
0.00255956
0.00255865
0.00255733
0.00255593
0.00255471
0.00255378
0.00255314
0.00255273
0.00255251
0.00255246
0.00255255
0.00255277
0.00255311
0.00255355
0.00255409
0.00255473
0.00255544
0.00255622
0.00255705
0.00255792
0.00255883
0.00255974
0.00256066
0.00256157
0.00256246
0.0025633
0.00256409
0.00256482
0.00256548
0.00256606
0.00256654
0.00256692
0.00256719
0.00256735
0.0025674
0.00256732
0.00256714
0.00256684
0.00256643
0.00256592
0.00256531
0.00256463
0.00256389
0.00256311
0.00256232
0.0025616
0.002561
0.0025606
0.00256036
0.00256009
0.00265827
0.00265731
0.00265595
0.0026545
0.00265325
0.00265229
0.00265163
0.00265122
0.00265101
0.00265096
0.00265107
0.00265131
0.00265168
0.00265216
0.00265274
0.00265341
0.00265417
0.00265499
0.00265587
0.00265679
0.00265774
0.00265871
0.00265968
0.00266063
0.00266155
0.00266243
0.00266326
0.00266402
0.0026647
0.00266529
0.00266578
0.00266617
0.00266644
0.00266659
0.00266663
0.00266654
0.00266633
0.002666
0.00266556
0.00266501
0.00266437
0.00266364
0.00266286
0.00266203
0.00266121
0.00266044
0.00265981
0.00265938
0.00265911
0.00265883
0.00274579
0.0027448
0.00274339
0.0027419
0.00274062
0.00273964
0.00273896
0.00273854
0.00273833
0.0027383
0.00273842
0.00273868
0.00273907
0.00273957
0.00274019
0.00274089
0.00274169
0.00274255
0.00274347
0.00274444
0.00274543
0.00274643
0.00274744
0.00274843
0.00274939
0.0027503
0.00275116
0.00275194
0.00275264
0.00275325
0.00275376
0.00275415
0.00275442
0.00275457
0.00275459
0.00275449
0.00275426
0.00275391
0.00275344
0.00275287
0.00275219
0.00275143
0.0027506
0.00274974
0.00274888
0.00274808
0.00274742
0.00274696
0.00274668
0.00274638
0.00282493
0.0028239
0.00282245
0.00282093
0.00281961
0.00281861
0.00281792
0.00281749
0.00281728
0.00281725
0.00281738
0.00281766
0.00281807
0.0028186
0.00281924
0.00281997
0.0028208
0.0028217
0.00282265
0.00282365
0.00282468
0.00282572
0.00282677
0.00282779
0.00282878
0.00282972
0.0028306
0.00283141
0.00283213
0.00283275
0.00283327
0.00283367
0.00283394
0.00283409
0.00283411
0.00283399
0.00283375
0.00283338
0.00283289
0.00283228
0.00283158
0.00283079
0.00282993
0.00282904
0.00282814
0.00282732
0.00282663
0.00282615
0.00282585
0.00282553
0.00289761
0.00289655
0.00289507
0.0028935
0.00289215
0.00289113
0.00289043
0.00288999
0.00288978
0.00288976
0.0028899
0.00289019
0.00289061
0.00289116
0.00289182
0.00289259
0.00289344
0.00289437
0.00289536
0.00289639
0.00289745
0.00289853
0.0028996
0.00290065
0.00290167
0.00290264
0.00290355
0.00290437
0.00290511
0.00290575
0.00290628
0.00290668
0.00290696
0.0029071
0.00290712
0.00290699
0.00290674
0.00290635
0.00290584
0.00290521
0.00290448
0.00290367
0.00290278
0.00290186
0.00290093
0.00290008
0.00289937
0.00289887
0.00289856
0.00289823
0.00296522
0.00296414
0.00296262
0.00296102
0.00295964
0.00295859
0.00295788
0.00295744
0.00295722
0.0029572
0.00295735
0.00295765
0.00295809
0.00295866
0.00295934
0.00296013
0.00296101
0.00296196
0.00296298
0.00296404
0.00296513
0.00296623
0.00296733
0.00296842
0.00296946
0.00297045
0.00297138
0.00297223
0.00297298
0.00297364
0.00297417
0.00297458
0.00297486
0.00297501
0.00297502
0.00297489
0.00297462
0.00297422
0.00297369
0.00297305
0.0029723
0.00297146
0.00297054
0.00296959
0.00296865
0.00296777
0.00296703
0.00296652
0.0029662
0.00296586
0.00302879
0.00302769
0.00302613
0.0030245
0.00302309
0.00302203
0.0030213
0.00302085
0.00302063
0.00302062
0.00302077
0.00302108
0.00302153
0.00302212
0.00302282
0.00302363
0.00302453
0.0030255
0.00302655
0.00302763
0.00302875
0.00302988
0.00303101
0.00303211
0.00303318
0.0030342
0.00303515
0.00303601
0.00303679
0.00303745
0.003038
0.00303841
0.0030387
0.00303885
0.00303885
0.00303871
0.00303844
0.00303803
0.00303748
0.00303682
0.00303605
0.00303519
0.00303425
0.00303328
0.00303231
0.0030314
0.00303065
0.00303013
0.0030298
0.00302945
0.0030891
0.00308797
0.00308639
0.00308472
0.00308329
0.00308221
0.00308146
0.00308101
0.00308079
0.00308078
0.00308094
0.00308125
0.00308172
0.00308231
0.00308303
0.00308386
0.00308478
0.00308578
0.00308685
0.00308796
0.0030891
0.00309025
0.00309141
0.00309253
0.00309363
0.00309466
0.00309563
0.00309651
0.0030973
0.00309798
0.00309853
0.00309896
0.00309925
0.00309939
0.0030994
0.00309926
0.00309897
0.00309855
0.00309799
0.00309732
0.00309653
0.00309564
0.00309469
0.00309369
0.0030927
0.00309178
0.00309101
0.00309047
0.00309013
0.00308977
0.00314676
0.00314561
0.003144
0.0031423
0.00314084
0.00313974
0.00313899
0.00313852
0.0031383
0.00313829
0.00313845
0.00313878
0.00313925
0.00313986
0.0031406
0.00314144
0.00314238
0.0031434
0.00314449
0.00314562
0.00314678
0.00314796
0.00314913
0.00315029
0.0031514
0.00315245
0.00315344
0.00315434
0.00315514
0.00315583
0.00315639
0.00315683
0.00315712
0.00315727
0.00315727
0.00315712
0.00315683
0.0031564
0.00315583
0.00315514
0.00315434
0.00315344
0.00315246
0.00315145
0.00315043
0.00314949
0.00314871
0.00314816
0.00314781
0.00314744
0.00320224
0.00320108
0.00319944
0.00319771
0.00319623
0.00319511
0.00319434
0.00319387
0.00319365
0.00319364
0.00319381
0.00319414
0.00319462
0.00319524
0.00319599
0.00319685
0.0031978
0.00319884
0.00319995
0.0032011
0.00320229
0.00320349
0.00320468
0.00320585
0.00320698
0.00320806
0.00320906
0.00320998
0.00321079
0.00321149
0.00321206
0.0032125
0.0032128
0.00321295
0.00321295
0.0032128
0.00321251
0.00321207
0.00321149
0.00321078
0.00320996
0.00320905
0.00320806
0.00320702
0.00320599
0.00320503
0.00320423
0.00320367
0.00320332
0.00320294
0.00325595
0.00325477
0.0032531
0.00325135
0.00324984
0.0032487
0.00324793
0.00324745
0.00324723
0.00324721
0.00324738
0.00324772
0.00324821
0.00324884
0.0032496
0.00325047
0.00325145
0.0032525
0.00325363
0.0032548
0.003256
0.00325722
0.00325843
0.00325962
0.00326077
0.00326187
0.00326289
0.00326381
0.00326464
0.00326535
0.00326594
0.00326638
0.00326668
0.00326684
0.00326684
0.00326669
0.00326638
0.00326594
0.00326535
0.00326463
0.0032638
0.00326287
0.00326186
0.00326081
0.00325976
0.00325879
0.00325797
0.0032574
0.00325705
0.00325666
0.0033082
0.003307
0.0033053
0.00330352
0.003302
0.00330084
0.00330005
0.00329957
0.00329934
0.00329933
0.0032995
0.00329985
0.00330034
0.00330098
0.00330175
0.00330264
0.00330363
0.0033047
0.00330584
0.00330703
0.00330825
0.00330949
0.00331072
0.00331193
0.00331309
0.0033142
0.00331524
0.00331618
0.00331702
0.00331774
0.00331833
0.00331878
0.00331909
0.00331925
0.00331925
0.00331909
0.00331879
0.00331833
0.00331774
0.00331701
0.00331617
0.00331522
0.0033142
0.00331313
0.00331207
0.00331108
0.00331025
0.00330967
0.00330931
0.00330892
0.00335925
0.00335803
0.00335631
0.00335451
0.00335296
0.00335179
0.00335099
0.0033505
0.00335027
0.00335026
0.00335043
0.00335078
0.00335128
0.00335193
0.00335271
0.00335361
0.00335461
0.0033557
0.00335685
0.00335806
0.0033593
0.00336055
0.0033618
0.00336302
0.00336421
0.00336533
0.00336638
0.00336734
0.00336819
0.00336892
0.00336952
0.00336998
0.00337029
0.00337045
0.00337045
0.0033703
0.00336999
0.00336953
0.00336892
0.00336819
0.00336733
0.00336637
0.00336534
0.00336425
0.00336318
0.00336217
0.00336134
0.00336075
0.00336038
0.00335998
0.00340933
0.0034081
0.00340636
0.00340453
0.00340296
0.00340178
0.00340097
0.00340047
0.00340024
0.00340022
0.0034004
0.00340075
0.00340126
0.00340192
0.0034027
0.00340361
0.00340463
0.00340573
0.00340689
0.00340812
0.00340937
0.00341064
0.0034119
0.00341314
0.00341434
0.00341548
0.00341654
0.00341751
0.00341838
0.00341912
0.00341973
0.00342019
0.00342051
0.00342067
0.00342067
0.00342052
0.0034202
0.00341974
0.00341913
0.00341839
0.00341752
0.00341655
0.0034155
0.0034144
0.00341331
0.0034123
0.00341145
0.00341085
0.00341048
0.00341007
0.00345863
0.00345739
0.00345563
0.00345378
0.00345219
0.00345099
0.00345017
0.00344967
0.00344943
0.00344942
0.00344959
0.00344995
0.00345046
0.00345112
0.00345192
0.00345284
0.00345386
0.00345498
0.00345616
0.00345739
0.00345866
0.00345995
0.00346123
0.00346248
0.00346369
0.00346485
0.00346592
0.0034669
0.00346778
0.00346853
0.00346914
0.00346962
0.00346994
0.0034701
0.00347011
0.00346995
0.00346964
0.00346917
0.00346855
0.0034678
0.00346692
0.00346594
0.00346488
0.00346377
0.00346267
0.00346164
0.00346078
0.00346018
0.0034598
0.00345939
0.00350733
0.00350607
0.00350429
0.00350242
0.00350081
0.0034996
0.00349877
0.00349826
0.00349802
0.003498
0.00349818
0.00349854
0.00349905
0.00349972
0.00350053
0.00350146
0.00350249
0.00350361
0.00350481
0.00350606
0.00350734
0.00350864
0.00350993
0.0035112
0.00351243
0.00351359
0.00351468
0.00351567
0.00351656
0.00351732
0.00351794
0.00351842
0.00351875
0.00351892
0.00351892
0.00351877
0.00351845
0.00351798
0.00351735
0.0035166
0.00351571
0.00351472
0.00351365
0.00351253
0.00351141
0.00351037
0.0035095
0.00350889
0.00350851
0.00350809
0.00355556
0.00355429
0.00355249
0.0035506
0.00354898
0.00354775
0.00354691
0.00354639
0.00354615
0.00354613
0.00354631
0.00354666
0.00354719
0.00354786
0.00354867
0.00354961
0.00355065
0.00355178
0.00355299
0.00355425
0.00355555
0.00355686
0.00355816
0.00355945
0.00356069
0.00356186
0.00356296
0.00356397
0.00356486
0.00356563
0.00356626
0.00356675
0.00356708
0.00356725
0.00356726
0.00356711
0.00356679
0.00356631
0.00356568
0.00356492
0.00356403
0.00356303
0.00356195
0.00356082
0.00355969
0.00355864
0.00355776
0.00355714
0.00355675
0.00355633
0.00360345
0.00360217
0.00360035
0.00359844
0.0035968
0.00359556
0.00359471
0.00359419
0.00359394
0.00359392
0.0035941
0.00359446
0.00359498
0.00359566
0.00359648
0.00359742
0.00359847
0.00359961
0.00360083
0.0036021
0.00360341
0.00360473
0.00360605
0.00360735
0.0036086
0.00360979
0.0036109
0.00361192
0.00361282
0.0036136
0.00361424
0.00361473
0.00361507
0.00361524
0.00361525
0.0036151
0.00361478
0.0036143
0.00361367
0.0036129
0.003612
0.00361099
0.0036099
0.00360876
0.00360762
0.00360656
0.00360568
0.00360505
0.00360466
0.00360423
0.00365112
0.00364982
0.00364799
0.00364606
0.0036444
0.00364315
0.00364229
0.00364176
0.00364151
0.00364149
0.00364166
0.00364203
0.00364255
0.00364324
0.00364406
0.00364501
0.00364607
0.00364722
0.00364845
0.00364973
0.00365105
0.00365238
0.00365371
0.00365502
0.00365628
0.00365748
0.0036586
0.00365963
0.00366054
0.00366133
0.00366198
0.00366248
0.00366282
0.003663
0.00366301
0.00366286
0.00366254
0.00366206
0.00366142
0.00366065
0.00365974
0.00365873
0.00365763
0.00365648
0.00365533
0.00365426
0.00365337
0.00365274
0.00365234
0.0036519
0.00369866
0.00369735
0.0036955
0.00369356
0.00369189
0.00369062
0.00368975
0.00368922
0.00368896
0.00368894
0.00368911
0.00368947
0.00369
0.00369069
0.00369152
0.00369247
0.00369354
0.0036947
0.00369593
0.00369722
0.00369855
0.0036999
0.00370124
0.00370256
0.00370383
0.00370504
0.00370618
0.00370721
0.00370813
0.00370893
0.00370959
0.00371009
0.00371044
0.00371062
0.00371064
0.00371049
0.00371017
0.00370968
0.00370905
0.00370827
0.00370736
0.00370633
0.00370523
0.00370407
0.00370291
0.00370183
0.00370093
0.0037003
0.0036999
0.00369945
0.00374617
0.00374485
0.00374299
0.00374103
0.00373934
0.00373806
0.00373719
0.00373665
0.00373638
0.00373635
0.00373653
0.00373689
0.00373742
0.00373811
0.00373894
0.0037399
0.00374098
0.00374214
0.00374339
0.00374469
0.00374602
0.00374738
0.00374873
0.00375006
0.00375134
0.00375257
0.00375371
0.00375475
0.00375569
0.00375649
0.00375715
0.00375766
0.00375802
0.00375821
0.00375822
0.00375807
0.00375775
0.00375727
0.00375663
0.00375585
0.00375493
0.0037539
0.00375279
0.00375162
0.00375046
0.00374937
0.00374846
0.00374782
0.00374742
0.00374697
0.00379372
0.0037924
0.00379052
0.00378855
0.00378685
0.00378556
0.00378467
0.00378413
0.00378386
0.00378383
0.003784
0.00378436
0.00378489
0.00378559
0.00378642
0.00378739
0.00378846
0.00378964
0.00379089
0.0037922
0.00379354
0.00379491
0.00379627
0.0037976
0.0037989
0.00380013
0.00380128
0.00380234
0.00380328
0.00380409
0.00380476
0.00380528
0.00380564
0.00380583
0.00380585
0.0038057
0.00380538
0.0038049
0.00380426
0.00380347
0.00380255
0.00380152
0.0038004
0.00379923
0.00379805
0.00379696
0.00379604
0.0037954
0.00379499
0.00379454
0.00384141
0.00384008
0.00383818
0.00383619
0.00383448
0.00383318
0.00383229
0.00383173
0.00383146
0.00383143
0.0038316
0.00383196
0.00383249
0.00383319
0.00383402
0.00383499
0.00383607
0.00383725
0.00383851
0.00383983
0.00384118
0.00384255
0.00384392
0.00384527
0.00384657
0.00384782
0.00384898
0.00385004
0.00385099
0.00385181
0.00385249
0.00385301
0.00385338
0.00385357
0.0038536
0.00385345
0.00385313
0.00385265
0.00385201
0.00385122
0.00385029
0.00384926
0.00384813
0.00384695
0.00384577
0.00384467
0.00384375
0.0038431
0.00384268
0.00384223
0.00388928
0.00388795
0.00388604
0.00388404
0.00388231
0.003881
0.0038801
0.00387954
0.00387926
0.00387923
0.0038794
0.00387976
0.00388029
0.00388098
0.00388182
0.00388279
0.00388388
0.00388506
0.00388633
0.00388765
0.00388901
0.00389039
0.00389177
0.00389312
0.00389444
0.00389569
0.00389686
0.00389793
0.00389889
0.00389971
0.0039004
0.00390093
0.0039013
0.0039015
0.00390153
0.00390139
0.00390107
0.00390059
0.00389994
0.00389915
0.00389823
0.00389718
0.00389605
0.00389487
0.00389368
0.00389257
0.00389165
0.00389099
0.00389057
0.00389011
0.00393742
0.00393608
0.00393416
0.00393214
0.0039304
0.00392909
0.00392817
0.00392761
0.00392733
0.00392729
0.00392745
0.00392781
0.00392834
0.00392904
0.00392988
0.00393085
0.00393194
0.00393313
0.0039344
0.00393573
0.0039371
0.00393848
0.00393987
0.00394123
0.00394255
0.00394381
0.00394499
0.00394607
0.00394703
0.00394787
0.00394856
0.0039491
0.00394947
0.00394968
0.00394971
0.00394957
0.00394926
0.00394878
0.00394813
0.00394734
0.00394641
0.00394537
0.00394423
0.00394304
0.00394185
0.00394074
0.0039398
0.00393914
0.00393872
0.00393825
0.00398587
0.00398452
0.00398259
0.00398057
0.00397882
0.00397749
0.00397657
0.003976
0.00397571
0.00397567
0.00397583
0.00397619
0.00397672
0.00397741
0.00397826
0.00397923
0.00398032
0.00398152
0.00398279
0.00398412
0.0039855
0.00398689
0.00398828
0.00398965
0.00399098
0.00399225
0.00399343
0.00399452
0.00399549
0.00399634
0.00399703
0.00399758
0.00399796
0.00399817
0.00399821
0.00399807
0.00399776
0.00399728
0.00399663
0.00399584
0.00399491
0.00399386
0.00399272
0.00399153
0.00399033
0.00398921
0.00398828
0.00398761
0.00398719
0.00398671
0.0040347
0.00403334
0.0040314
0.00402937
0.00402761
0.00402627
0.00402534
0.00402476
0.00402447
0.00402442
0.00402459
0.00402494
0.00402547
0.00402616
0.00402701
0.00402798
0.00402908
0.00403027
0.00403155
0.00403289
0.00403427
0.00403567
0.00403706
0.00403844
0.00403978
0.00404105
0.00404225
0.00404334
0.00404432
0.00404517
0.00404587
0.00404642
0.00404681
0.00404703
0.00404707
0.00404694
0.00404663
0.00404615
0.0040455
0.00404471
0.00404378
0.00404273
0.00404159
0.00404039
0.00403919
0.00403806
0.00403712
0.00403646
0.00403603
0.00403554
0.00408395
0.00408259
0.00408064
0.00407859
0.00407682
0.00407548
0.00407454
0.00407396
0.00407366
0.00407361
0.00407377
0.00407412
0.00407465
0.00407534
0.00407618
0.00407716
0.00407826
0.00407945
0.00408073
0.00408208
0.00408346
0.00408486
0.00408627
0.00408765
0.00408899
0.00409027
0.00409148
0.00409258
0.00409356
0.00409442
0.00409513
0.00409569
0.00409608
0.0040963
0.00409635
0.00409622
0.00409591
0.00409544
0.00409479
0.004094
0.00409307
0.00409202
0.00409087
0.00408967
0.00408846
0.00408734
0.00408639
0.00408572
0.00408529
0.0040848
0.00413367
0.00413231
0.00413035
0.0041283
0.00412652
0.00412516
0.00412422
0.00412363
0.00412333
0.00412327
0.00412343
0.00412377
0.0041243
0.00412499
0.00412583
0.00412681
0.00412791
0.00412911
0.00413039
0.00413173
0.00413312
0.00413453
0.00413594
0.00413733
0.00413868
0.00413997
0.00414117
0.00414228
0.00414327
0.00414414
0.00414486
0.00414542
0.00414582
0.00414605
0.0041461
0.00414597
0.00414567
0.00414519
0.00414455
0.00414376
0.00414283
0.00414178
0.00414063
0.00413942
0.00413821
0.00413709
0.00413614
0.00413546
0.00413503
0.00413453
0.00418392
0.00418255
0.00418059
0.00417852
0.00417674
0.00417537
0.00417442
0.00417383
0.00417352
0.00417346
0.00417361
0.00417395
0.00417448
0.00417517
0.00417601
0.00417698
0.00417808
0.00417928
0.00418057
0.00418191
0.0041833
0.00418472
0.00418613
0.00418752
0.00418888
0.00419017
0.00419139
0.0041925
0.0041935
0.00419437
0.00419509
0.00419567
0.00419607
0.0041963
0.00419636
0.00419624
0.00419594
0.00419547
0.00419483
0.00419404
0.00419311
0.00419205
0.0041909
0.0041897
0.00418849
0.00418735
0.0041864
0.00418572
0.00418528
0.00418478
0.00423473
0.00423336
0.00423139
0.00422932
0.00422752
0.00422615
0.00422519
0.00422459
0.00422428
0.00422421
0.00422436
0.0042247
0.00422522
0.00422591
0.00422674
0.00422772
0.00422882
0.00423002
0.0042313
0.00423265
0.00423405
0.00423546
0.00423688
0.00423828
0.00423964
0.00424094
0.00424216
0.00424328
0.00424428
0.00424516
0.00424589
0.00424647
0.00424688
0.00424712
0.00424718
0.00424706
0.00424677
0.0042463
0.00424566
0.00424487
0.00424394
0.00424289
0.00424174
0.00424053
0.00423932
0.00423818
0.00423723
0.00423655
0.0042361
0.0042356
0.00428615
0.00428477
0.0042828
0.00428072
0.00427891
0.00427754
0.00427657
0.00427597
0.00427565
0.00427558
0.00427572
0.00427605
0.00427657
0.00427725
0.00427809
0.00427907
0.00428016
0.00428136
0.00428265
0.004284
0.00428539
0.00428681
0.00428823
0.00428963
0.004291
0.0042923
0.00429353
0.00429465
0.00429567
0.00429655
0.00429729
0.00429787
0.00429829
0.00429853
0.0042986
0.00429849
0.0042982
0.00429773
0.0042971
0.00429631
0.00429538
0.00429433
0.00429318
0.00429197
0.00429076
0.00428962
0.00428866
0.00428798
0.00428753
0.00428702
0.00433821
0.00433683
0.00433485
0.00433277
0.00433096
0.00432957
0.0043286
0.00432799
0.00432767
0.00432759
0.00432772
0.00432806
0.00432857
0.00432925
0.00433008
0.00433106
0.00433215
0.00433335
0.00433463
0.00433599
0.00433738
0.0043388
0.00434023
0.00434163
0.004343
0.00434431
0.00434554
0.00434667
0.00434769
0.00434858
0.00434932
0.00434991
0.00435034
0.00435059
0.00435066
0.00435055
0.00435027
0.00434981
0.00434918
0.00434839
0.00434747
0.00434642
0.00434527
0.00434406
0.00434284
0.0043417
0.00434074
0.00434006
0.00433961
0.00433909
0.00439096
0.00438958
0.0043876
0.00438551
0.00438369
0.0043823
0.00438132
0.0043807
0.00438037
0.00438029
0.00438042
0.00438075
0.00438126
0.00438193
0.00438276
0.00438373
0.00438482
0.00438602
0.00438731
0.00438866
0.00439005
0.00439148
0.0043929
0.00439431
0.00439568
0.004397
0.00439823
0.00439937
0.00440039
0.00440129
0.00440204
0.00440263
0.00440306
0.00440332
0.0044034
0.0044033
0.00440302
0.00440256
0.00440194
0.00440116
0.00440023
0.00439918
0.00439803
0.00439682
0.00439561
0.00439447
0.00439351
0.00439282
0.00439236
0.00439184
0.00444443
0.00444305
0.00444106
0.00443897
0.00443715
0.00443575
0.00443477
0.00443414
0.00443381
0.00443372
0.00443384
0.00443416
0.00443467
0.00443534
0.00443616
0.00443713
0.00443822
0.00443942
0.0044407
0.00444205
0.00444344
0.00444487
0.0044463
0.00444771
0.00444908
0.0044504
0.00445164
0.00445278
0.00445381
0.00445471
0.00445547
0.00445607
0.00445651
0.00445677
0.00445685
0.00445676
0.00445648
0.00445603
0.00445541
0.00445464
0.00445371
0.00445267
0.00445152
0.00445031
0.0044491
0.00444796
0.004447
0.0044463
0.00444584
0.00444531
0.00449865
0.00449727
0.00449529
0.00449319
0.00449136
0.00448996
0.00448897
0.00448834
0.004488
0.0044879
0.00448802
0.00448834
0.00448884
0.0044895
0.00449033
0.00449129
0.00449237
0.00449357
0.00449485
0.0044962
0.00449759
0.00449902
0.00450044
0.00450186
0.00450324
0.00450456
0.0045058
0.00450695
0.00450798
0.00450889
0.00450965
0.00451026
0.0045107
0.00451097
0.00451106
0.00451097
0.0045107
0.00451026
0.00450964
0.00450887
0.00450795
0.00450691
0.00450576
0.00450456
0.00450334
0.0045022
0.00450124
0.00450055
0.00450008
0.00449955
0.00455367
0.00455229
0.00455031
0.00454821
0.00454638
0.00454497
0.00454397
0.00454333
0.00454299
0.00454289
0.004543
0.00454331
0.0045438
0.00454446
0.00454528
0.00454624
0.00454732
0.00454851
0.00454979
0.00455113
0.00455253
0.00455395
0.00455538
0.0045568
0.00455817
0.0045595
0.00456074
0.0045619
0.00456294
0.00456385
0.00456461
0.00456523
0.00456568
0.00456596
0.00456605
0.00456597
0.00456571
0.00456527
0.00456466
0.00456389
0.00456298
0.00456194
0.0045608
0.00455959
0.00455838
0.00455724
0.00455628
0.00455558
0.00455511
0.00455457
0.00460952
0.00460814
0.00460615
0.00460405
0.00460222
0.0046008
0.0045998
0.00459916
0.0045988
0.0045987
0.0045988
0.00459911
0.00459959
0.00460025
0.00460106
0.00460201
0.00460309
0.00460428
0.00460555
0.00460689
0.00460829
0.00460971
0.00461114
0.00461255
0.00461394
0.00461526
0.00461651
0.00461767
0.00461871
0.00461963
0.0046204
0.00462102
0.00462148
0.00462176
0.00462187
0.00462179
0.00462153
0.0046211
0.0046205
0.00461973
0.00461882
0.00461779
0.00461665
0.00461545
0.00461424
0.0046131
0.00461214
0.00461144
0.00461097
0.00461042
0.00466622
0.00466485
0.00466286
0.00466076
0.00465892
0.0046575
0.00465649
0.00465584
0.00465548
0.00465537
0.00465547
0.00465577
0.00465625
0.0046569
0.0046577
0.00465865
0.00465972
0.0046609
0.00466217
0.00466351
0.0046649
0.00466632
0.00466775
0.00466917
0.00467055
0.00467188
0.00467313
0.00467429
0.00467534
0.00467626
0.00467704
0.00467767
0.00467813
0.00467842
0.00467853
0.00467846
0.00467821
0.00467778
0.00467719
0.00467643
0.00467553
0.0046745
0.00467336
0.00467217
0.00467096
0.00466982
0.00466886
0.00466816
0.00466768
0.00466713
0.00472382
0.00472244
0.00472046
0.00471835
0.00471651
0.00471509
0.00471408
0.00471342
0.00471306
0.00471294
0.00471303
0.00471332
0.00471379
0.00471443
0.00471523
0.00471617
0.00471724
0.00471841
0.00471968
0.00472102
0.0047224
0.00472382
0.00472525
0.00472667
0.00472805
0.00472938
0.00473063
0.0047318
0.00473285
0.00473378
0.00473456
0.00473519
0.00473566
0.00473596
0.00473608
0.00473602
0.00473577
0.00473535
0.00473476
0.00473401
0.00473312
0.00473209
0.00473096
0.00472977
0.00472856
0.00472743
0.00472646
0.00472576
0.00472529
0.00472473
0.00478233
0.00478096
0.00477898
0.00477687
0.00477503
0.0047736
0.00477259
0.00477193
0.00477155
0.00477142
0.00477151
0.00477179
0.00477226
0.00477289
0.00477368
0.00477462
0.00477568
0.00477685
0.00477811
0.00477944
0.00478083
0.00478224
0.00478367
0.00478508
0.00478647
0.0047878
0.00478905
0.00479022
0.00479128
0.00479221
0.004793
0.00479364
0.00479411
0.00479442
0.00479454
0.00479449
0.00479425
0.00479384
0.00479326
0.00479251
0.00479162
0.0047906
0.00478948
0.00478829
0.00478709
0.00478596
0.00478499
0.00478429
0.00478381
0.00478324
0.0048418
0.00484043
0.00483845
0.00483635
0.0048345
0.00483307
0.00483205
0.00483138
0.004831
0.00483087
0.00483095
0.00483122
0.00483168
0.00483231
0.00483309
0.00483402
0.00483507
0.00483623
0.00483749
0.00483881
0.00484019
0.00484161
0.00484303
0.00484444
0.00484583
0.00484716
0.00484842
0.00484959
0.00485065
0.00485158
0.00485238
0.00485302
0.00485351
0.00485382
0.00485395
0.0048539
0.00485368
0.00485327
0.0048527
0.00485196
0.00485108
0.00485006
0.00484895
0.00484776
0.00484656
0.00484543
0.00484447
0.00484377
0.00484329
0.00484271
0.00490224
0.00490088
0.0048989
0.0048968
0.00489496
0.00489352
0.0048925
0.00489182
0.00489144
0.0048913
0.00489137
0.00489163
0.00489208
0.0048927
0.00489348
0.00489439
0.00489544
0.0048966
0.00489784
0.00489917
0.00490054
0.00490195
0.00490337
0.00490478
0.00490616
0.0049075
0.00490876
0.00490993
0.00491099
0.00491193
0.00491273
0.00491338
0.00491387
0.00491419
0.00491433
0.00491429
0.00491407
0.00491368
0.00491311
0.00491238
0.00491151
0.0049105
0.00490939
0.00490821
0.00490702
0.00490589
0.00490493
0.00490423
0.00490374
0.00490316
0.0049637
0.00496233
0.00496037
0.00495827
0.00495642
0.00495499
0.00495396
0.00495328
0.00495289
0.00495273
0.0049528
0.00495306
0.0049535
0.00495411
0.00495487
0.00495578
0.00495682
0.00495797
0.00495921
0.00496053
0.0049619
0.0049633
0.00496472
0.00496613
0.00496751
0.00496884
0.0049701
0.00497127
0.00497234
0.00497328
0.00497409
0.00497475
0.00497524
0.00497557
0.00497572
0.00497569
0.00497548
0.00497509
0.00497453
0.00497381
0.00497294
0.00497194
0.00497084
0.00496967
0.00496848
0.00496736
0.0049664
0.0049657
0.00496521
0.00496462
0.00502619
0.00502483
0.00502287
0.00502077
0.00501893
0.00501749
0.00501646
0.00501577
0.00501537
0.00501521
0.00501527
0.00501552
0.00501595
0.00501655
0.00501731
0.00501821
0.00501924
0.00502038
0.00502161
0.00502292
0.00502428
0.00502568
0.0050271
0.0050285
0.00502988
0.00503121
0.00503247
0.00503365
0.00503472
0.00503567
0.00503648
0.00503714