/*--------------------------------*- C++ -*----------------------------------*\
  =========                 |
  \\      /  F ield         | OpenFOAM: The Open Source CFD Toolbox
   \\    /   O peration     | Website:  https://openfoam.org
    \\  /    A nd           | Version:  13
     \\/     M anipulation  |
\*---------------------------------------------------------------------------*/
FoamFile
{
    format      ascii;
    class       volScalarField;
    location    "16.703772";
    object      k;
}
// * * * * * * * * * * * * * * * * * * * * * * * * * * * * * * * * * * * * * //

dimensions      [0 2 -2 0 0 0 0];

internalField   nonuniform List<scalar> 
17140
(
2.7720054e-10
8.7105961e-09
7.1229058e-08
3.063266e-07
9.4264295e-07
2.3786511e-06
5.2743732e-06
1.0688199e-05
2.0278204e-05
3.6595414e-05
6.3506907e-05
0.00010679986
0.00017503305
0.00028071781
0.00044192004
0.00068436442
0.0010440639
0.0015703357
0.0023287023
0.0034024594
0.0048904425
0.0068967249
0.009506418
0.012743447
0.016517574
0.020593051
0.024628281
0.028290757
0.031362685
0.033812965
0.035713465
0.037090524
0.037888279
0.038205778
0.038245218
0.038050357
0.037737448
0.037404423
0.03710667
0.036867626
0.036694658
0.036586551
0.036530652
0.036507415
0.036491175
0.036434021
0.036256329
0.036011228
0.03566229
0.035129287
0.034302741
0.033082719
0.031380938
0.029222088
0.02679622
0.024285181
0.021972365
0.020071137
0.018665607
0.017729053
0.017223289
0.01645906
0.014634
0.011376175
0.0083696254
2.7484805e-10
8.6366734e-09
7.0624749e-08
3.0372916e-07
9.3465579e-07
2.3585133e-06
5.2297631e-06
1.0597902e-05
2.010712e-05
3.6287168e-05
6.297307e-05
0.0001059044
0.0001735703
0.00027838187
0.00043826329
0.00067874358
0.0010355738
0.0015577363
0.0023103547
0.0033763073
0.0048541091
0.0068478339
0.0094432729
0.012666105
0.01642901
0.020499524
0.024538065
0.028211973
0.031302038
0.033769117
0.035686748
0.037090952
0.037928408
0.038279624
0.038352765
0.038205344
0.037941516
0.037662612
0.037427153
0.037261541
0.037181549
0.037167099
0.037223562
0.037339638
0.037494587
0.037657654
0.037779614
0.037891544
0.037975562
0.03800167
0.037851505
0.037446639
0.036631489
0.035339382
0.033639736
0.031476375
0.029188229
0.026937762
0.02496631
0.023502918
0.022603121
0.02163141
0.01940303
0.015917073
0.011566843
2.6909566e-10
8.4559132e-09
6.914662e-08
2.9737248e-07
9.1509577e-07
2.309161e-06
5.1203502e-06
1.0376247e-05
1.9686772e-05
3.5529088e-05
6.1658809e-05
0.00010369737
0.00016996068
0.00027260976
0.00042921419
0.0006648114
0.001014491
0.0015263828
0.0022645822
0.0033108664
0.0047628419
0.0067244055
0.0092827672
0.012467611
0.016198491
0.020250886
0.024290221
0.027983488
0.031107832
0.033603848
0.035549876
0.03700305
0.037914391
0.038342627
0.038473402
0.038407374
0.038229754
0.038045641
0.037932729
0.03789969
0.03796347
0.0381336
0.03840719
0.03877963
0.039244772
0.03979999
0.040453124
0.041214412
0.042100682
0.043098818
0.044162718
0.045248882
0.046158553
0.046650904
0.046754925
0.045997277
0.044720707
0.042749426
0.04037684
0.03779743
0.035193274
0.031876904
0.026305059
0.019319116
0.012905284
2.5995668e-10
8.1687347e-09
6.6798285e-08
2.8727345e-07
8.8402025e-07
2.2307535e-06
4.946521e-06
1.002409e-05
1.9018923e-05
3.4324603e-05
5.957051e-05
0.0001001902
0.00016422393
0.00026343446
0.00041482602
0.00064265078
0.0009809389
0.0014764485
0.0021916096
0.0032063883
0.0046168414
0.0065264075
0.0090242909
0.012146232
0.015822509
0.019841359
0.023876727
0.027595583
0.030769609
0.03330658
0.035290029
0.036808421
0.037823997
0.038372974
0.038595216
0.038632535
0.038575908
0.038535959
0.038562932
0.038706044
0.038982208
0.039401635
0.039968364
0.04068698
0.041566612
0.042626563
0.04390859
0.045430405
0.047211515
0.049260159
0.051566614
0.054092288
0.056725683
0.059307297
0.061247127
0.062040754
0.062101463
0.060923006
0.058466087
0.054647947
0.049402125
0.041790228
0.030069783
0.019848803
0.011422295
2.4758669e-10
7.7800278e-09
6.3619731e-08
2.7360404e-07
8.4195786e-07
2.1246226e-06
4.7112217e-06
9.5473797e-06
1.8114809e-05
3.2693866e-05
5.6742859e-05
9.5440574e-05
0.0001564532
0.00025100239
0.00039532297
0.00061259586
0.00093540069
0.0014086073
0.0020923308
0.0030639764
0.0044173108
0.0062548382
0.0086680046
0.011700209
0.015295871
0.01926067
0.023280731
0.027022811
0.03024972
0.032859725
0.03491122
0.036498571
0.037627613
0.038320297
0.038681549
0.038852372
0.038940871
0.039053284
0.039261781
0.039615255
0.040140004
0.040851769
0.041762103
0.042885065
0.044241146
0.045859601
0.047783654
0.050059061
0.052699929
0.055717328
0.05910999
0.062838441
0.066813805
0.070851145
0.07450454
0.076855323
0.0777457
0.077405706
0.075024987
0.07037164
0.062636186
0.049498297
0.031430911
0.017440659
0.0084267604
2.3227242e-10
7.2988014e-09
5.9684622e-08
2.5668101e-07
7.8988352e-07
1.993229e-06
4.4199105e-06
8.9571799e-06
1.6995417e-05
3.0674734e-05
5.3241463e-05
8.9558548e-05
0.00014682808
0.00023559964
0.00037115084
0.00057532673
0.00087889169
0.0013243394
0.0019688462
0.0028865126
0.0041680361
0.005914387
0.0082192569
0.011134972
0.014623299
0.01851243
0.022505726
0.02627173
0.029562882
0.032266699
0.034396337
0.036052527
0.037299995
0.038147276
0.038669475
0.039001487
0.039255498
0.039543288
0.039948538
0.04052775
0.041316663
0.042338873
0.04361395
0.045163371
0.047014197
0.049200818
0.051764649
0.054747436
0.058168733
0.062028792
0.06630628
0.07094121
0.075827206
0.080770334
0.085428071
0.08896101
0.090525759
0.090582597
0.088168767
0.082847541
0.072762357
0.052901349
0.029809015
0.013855912
0.0056984877
2.1445978e-10
6.7390677e-09
5.5107542e-08
2.3699715e-07
7.2931348e-07
1.8403982e-06
4.0810674e-06
8.2706667e-06
1.5693312e-05
2.8325902e-05
4.9167993e-05
8.2714638e-05
0.00013562691
0.00021767001
0.00034300249
0.00053190365
0.00081300214
0.0012259798
0.0018245022
0.0026786536
0.0038752571
0.005512996
0.0076874416
0.010460472
0.013813616
0.017602151
0.021552
0.02533596
0.028693084
0.031494993
0.033727037
0.035469249
0.03681934
0.037819618
0.038521149
0.039013857
0.039451651
0.039925669
0.040530661
0.041333016
0.042379284
0.043703091
0.045331916
0.047292408
0.04961425
0.052330365
0.055472374
0.059069273
0.06312453
0.067619014
0.072514625
0.077742029
0.083189276
0.088665778
0.093835512
0.097891527
0.099876547
0.099841601
0.097074813
0.090839069
0.077699984
0.052590187
0.024736181
0.0095619503
0.0033913545
1.9463898e-10
6.1162308e-09
5.0014445e-08
2.1509409e-07
6.6191435e-07
1.6703345e-06
3.7040105e-06
7.5067083e-06
1.4244251e-05
2.5711798e-05
4.4634001e-05
7.5095823e-05
0.00012315469
0.00019769943
0.00031163571
0.00048348471
0.00073946642
0.00111607
0.0016629314
0.0024454365
0.0035456865
0.0050591341
0.0070824174
0.009686816
0.012875075
0.016533609
0.020417048
0.024207096
0.027628325
0.030530947
0.032886744
0.034740088
0.03618431
0.037308337
0.038173732
0.038857594
0.039453118
0.040112202
0.040908866
0.041915849
0.043192839
0.044784189
0.046726114
0.049050064
0.051786766
0.054959591
0.05857683
0.062649669
0.06715938
0.072062817
0.077310287
0.082828535
0.088506468
0.094154272
0.099429814
0.10351933
0.10549365
0.10495073
0.10132023
0.093910735
0.078248321
0.045496608
0.017608653
0.0057126156
0.0020011036
1.7329504e-10
5.4455308e-09
4.4529938e-08
1.9150767e-07
5.8933467e-07
1.4871961e-06
3.2979536e-06
6.6839576e-06
1.2683573e-05
2.289607e-05
3.9749626e-05
6.6886594e-05
0.00010971213
0.0001761665
0.00027779606
0.00043120782
0.00065998574
0.00099709772
0.0014876803
0.0021917612
0.0031858215
0.0045609328
0.0064135063
0.0088232205
0.011814368
0.015307763
0.019093568
0.02286957
0.026347389
0.02934986
0.031827692
0.0338159
0.035388159
0.036629459
0.037626789
0.038470618
0.039248693
0.040048764
0.040994308
0.042173123
0.043644013
0.045458166
0.047660739
0.050285082
0.053358661
0.056887708
0.060857224
0.065250812
0.070030939
0.075129162
0.080482609
0.086011377
0.091602003
0.097062453
0.1020414
0.10568522
0.107203
0.10585054
0.10128414
0.092448641
0.071473718
0.033363981
0.010576652
0.0032939995
0.0011709918
1.5093407e-10
4.7428722e-09
3.878409e-08
1.6679718e-07
5.1329488e-07
1.2953218e-06
2.8725097e-06
5.821871e-06
1.104813e-05
1.9945069e-05
3.4629658e-05
5.8279179e-05
9.5612461e-05
0.00015356969
0.00024225994
0.00037625793
0.0005763322
0.00087165627
0.0013024511
0.0019227552
0.0028024877
0.004026985
0.0056906423
0.0078795975
0.010638652
0.013925032
0.017571499
0.021301948
0.02482054
0.027918999
0.030518115
0.032636222
0.034340007
0.035713452
0.036844228
0.037824032
0.038746574
0.039706292
0.040790597
0.042087244
0.043692177
0.045686425
0.048093942
0.050941175
0.054250959
0.058020299
0.062212732
0.06676457
0.071635317
0.076730636
0.08196695
0.087248305
0.092455563
0.097385934
0.10167524
0.10448559
0.10501613
0.10272474
0.096793629
0.085453111
0.056228386
0.01959865
0.0057990662
0.0018266865
0.00069688378
1.2818021e-10
4.0278671e-09
3.2937259e-08
1.4165215e-07
4.3591666e-07
1.1000649e-06
2.4395464e-06
4.9444887e-06
9.3835063e-06
1.6940987e-05
2.9416542e-05
4.9512681e-05
8.1246492e-05
0.00013053335
0.00020600487
0.00032013724
0.00049077291
0.00074310408
0.0011121189
0.0016453294
0.0024051972
0.0034698795
0.0049295846
0.006874077
0.0093660564
0.012399253
0.015855344
0.019496976
0.023031855
0.02622091
0.028946509
0.031202032
0.033043817
0.034552603
0.035815888
0.036924347
0.037971253
0.039052163
0.040263739
0.041697656
0.043433777
0.045524225
0.048032273
0.050993906
0.054436568
0.058326961
0.062600778
0.067164646
0.071952175
0.076863185
0.081815153
0.086683313
0.091295825
0.095396922
0.098512603
0.099991622
0.099291633
0.095688222
0.088006997
0.071977492
0.034207843
0.01004404
0.0029588452
0.00098568394
0.00043011013
1.0579535e-10
3.3244567e-09
2.7185218e-08
1.1691457e-07
3.5979125e-07
9.0796472e-07
2.013566e-06
4.0812035e-06
7.7454762e-06
1.3984496e-05
2.4285e-05
4.0880918e-05
6.709564e-05
0.00010782914
0.00017024433
0.00026472151
0.000406161
0.00061571262
0.00092297324
0.0013685752
0.002006803
0.0029072801
0.0041536871
0.0058358486
0.0080300522
0.010763847
0.013971538
0.017467983
0.020981475
0.024249208
0.027108044
0.029514379
0.031506058
0.033157748
0.034555613
0.035789242
0.036950824
0.038135369
0.03943922
0.040955561
0.042770102
0.044949827
0.047542919
0.050575805
0.054043563
0.057928718
0.062159274
0.066615366
0.071199207
0.075798065
0.080248744
0.084399271
0.088060614
0.090930105
0.092554077
0.092578996
0.090464662
0.085020505
0.074666143
0.049151108
0.015682293
0.0045936999
0.0014212257
0.00053720262
0.00028209052
8.4598543e-11
2.6583791e-09
2.1738464e-08
9.348988e-08
2.8770522e-07
7.2605395e-07
1.6101665e-06
3.2636361e-06
6.1940634e-06
1.1183989e-05
1.9423297e-05
3.2700838e-05
5.368004e-05
8.6292609e-05
0.00013629628
0.00021205652
0.00032562608
0.00049420366
0.00074203968
0.0011027907
0.0016221419
0.0023601049
0.0033915915
0.0048025009
0.0066768559
0.0090700102
0.011967926
0.0152486
0.018682615
0.022000575
0.024993008
0.027565807
0.029725177
0.031532821
0.03307149
0.034429681
0.0356982
0.036970425
0.038341444
0.039903964
0.041743633
0.043929965
0.046511856
0.049517059
0.052934575
0.056723288
0.06079441
0.064997918
0.069197867
0.073274838
0.077042693
0.080319141
0.082831496
0.084224553
0.084219694
0.082787004
0.078697284
0.071183749
0.055377609
0.02195902
0.0066000812
0.0019845546
0.00068616741
0.00032064261
0.00021060855
6.5352245e-11
2.0535932e-09
1.6792912e-08
7.222066e-08
2.2225179e-07
5.6087796e-07
1.2438674e-06
2.5212256e-06
4.7851657e-06
8.6404558e-06
1.5006953e-05
2.5268222e-05
4.1485795e-05
6.6706286e-05
0.0001053987
0.00016407196
0.00025213706
0.00038309141
0.00057610548
0.00085806494
0.0012660215
0.0018497516
0.0026735739
0.0038155554
0.0053606665
0.0073829592
0.0099130163
0.012896183
0.016167031
0.019477827
0.022585067
0.025334364
0.027682766
0.029666299
0.031358665
0.032846019
0.03421785
0.035565526
0.036982023
0.03855897
0.040380427
0.042516535
0.04501567
0.047899783
0.051153967
0.0547254
0.058508406
0.062335925
0.066033754
0.069470708
0.07242299
0.074624773
0.075739582
0.075534752
0.074160404
0.070746425
0.06456743
0.053339741
0.02710127
0.0085347719
0.0025769313
0.00085040751
0.00036278598
0.00022325634
0.00017911029
4.8646832e-11
1.5286509e-09
1.2500272e-08
5.37594e-08
1.6543919e-07
4.1750588e-07
9.2591402e-07
1.8767776e-06
3.5621001e-06
6.4321984e-06
1.1172177e-05
1.8812916e-05
3.0891403e-05
4.9681249e-05
7.8522407e-05
0.0001222899
0.00018805474
0.00028600508
0.00043070787
0.00064278947
0.0009510727
0.0013950746
0.0020274428
0.0029152299
0.0041376962
0.0057766676
0.007894485
0.01049787
0.013499118
0.0167062
0.019872596
0.022788525
0.025343655
0.027528671
0.029396171
0.031025744
0.032504752
0.033922755
0.035370045
0.036936086
0.038703634
0.040740719
0.043094861
0.04578417
0.048788748
0.052045259
0.055429445
0.0587641
0.06183705
0.064489808
0.066443517
0.067346341
0.066989744
0.065553248
0.062359484
0.056970809
0.048087155
0.028220611
0.0096741046
0.0030057614
0.00098563315
0.00039973463
0.00022774912
0.00018163316
0.00016390695
3.481757e-11
1.0940877e-09
8.9467001e-09
3.847665e-08
1.1840796e-07
2.9881697e-07
6.6269565e-07
1.3432543e-06
2.5495033e-06
4.6038004e-06
7.9966556e-06
1.346635e-05
2.211413e-05
3.5570225e-05
5.6232207e-05
8.7605705e-05
0.00013478883
0.00020515571
0.00030930996
0.00046239093
0.0006858104
0.0010094456
0.0014741522
0.0021340744
0.0030574407
0.004323193
0.0060091355
0.0081669458
0.010784657
0.013752787
0.016867814
0.019893292
0.022654045
0.02506632
0.027140653
0.028937817
0.030539509
0.032033433
0.033507515
0.035047909
0.036735619
0.038637238
0.040796815
0.043229694
0.045909845
0.0487639
0.051650893
0.054377933
0.056697992
0.058399654
0.059140384
0.058717308
0.057179636
0.054193037
0.049337918
0.04163377
0.025800624
0.0098515547
0.0031696147
0.0010554083
0.0004214186
0.00023473052
0.00017656999
0.0001641032
0.00015251874
2.3927482e-11
7.5188362e-10
6.1483846e-09
2.6442019e-08
8.1372463e-08
2.0535299e-07
4.5541687e-07
9.2310816e-07
1.7520631e-06
3.1638194e-06
5.4955001e-06
9.2545928e-06
1.5198284e-05
2.444799e-05
3.8654229e-05
6.023327e-05
9.270573e-05
0.00014117894
0.00021302957
0.00031885943
0.00047380961
0.0006993125
0.0010253029
0.0014927301
0.0021557854
0.0030824039
0.0043501876
0.0060333071
0.0081761553
0.010756118
0.013654205
0.016666794
0.019571159
0.022218573
0.024526447
0.026525706
0.028280049
0.029870431
0.031381789
0.032897147
0.034493743
0.036236765
0.038168353
0.040298567
0.042595179
0.044971646
0.047283774
0.049280112
0.050701205
0.051265553
0.050818795
0.049301239
0.046353642
0.041966567
0.035182889
0.021656331
0.0088279009
0.0030808689
0.0010496125
0.00042295564
0.00023360834
0.00017662688
0.00015799359
0.00015294141
0.00014450953
1.5782559e-11
4.9594206e-10
4.0554666e-09
1.7441085e-08
5.3672913e-08
1.3544944e-07
3.0038842e-07
6.0886876e-07
1.1556246e-06
2.0867653e-06
3.6246264e-06
6.1039026e-06
1.0023999e-05
1.6124673e-05
2.5495091e-05
3.9730762e-05
6.1159019e-05
9.3162354e-05
0.00014064068
0.00021066874
0.00031342212
0.00046345929
0.00068144299
0.00099632742
0.0014478551
0.0020887613
0.0029852268
0.0042126969
0.0058426957
0.007916764
0.010410532
0.013206968
0.016108984
0.018909114
0.021469579
0.023708345
0.025657559
0.027381129
0.028957708
0.03046656
0.031980718
0.033561075
0.035247187
0.037045769
0.038913795
0.040751426
0.042402658
0.043554978
0.04392691
0.043467417
0.042021557
0.03917916
0.034915108
0.028987064
0.017025417
0.0071628233
0.0027282179
0.0010043536
0.00041546876
0.00023160523
0.00017408501
0.00015722
0.00014912312
0.00014510439
0.00013749673
1.0000605e-11
3.1425309e-10
2.5697373e-09
1.1051482e-08
3.4009542e-08
8.5826381e-08
1.9033725e-07
3.8579772e-07
7.3222701e-07
1.3221858e-06
2.29651e-06
3.8671825e-06
6.350468e-06
1.0214793e-05
1.6149802e-05
2.5165836e-05
3.8737157e-05
5.9008083e-05
8.9089558e-05
0.00013348522
0.00019870127
0.0002941121
0.00043316919
0.000635039
0.00092670441
0.0013453996
0.0019408319
0.0027758279
0.0039226042
0.0054506463
0.0074025253
0.0097604164
0.01241979
0.015199155
0.017898138
0.020377977
0.022567998
0.024478248
0.026167963
0.027708913
0.029170258
0.030607318
0.032054127
0.033510877
0.034919151
0.036169451
0.037065907
0.037275544
0.036799473
0.035377634
0.032732199
0.028561354
0.022867098
0.012504827
0.0054590295
0.0022107595
0.00088690769
0.00039483465
0.00022637973
0.00017226564
0.00015408678
0.00014824931
0.00014093127
0.00013717822
0.00013160137
6.1018872e-12
1.9174202e-10
1.5679273e-09
6.7430579e-09
2.0750848e-08
5.2366549e-08
1.1613252e-07
2.3538812e-07
4.4674767e-07
8.066707e-07
1.4010497e-06
2.3591407e-06
3.8737335e-06
6.2302805e-06
9.8488851e-06
1.5344767e-05
2.3615328e-05
3.5965584e-05
5.4289098e-05
8.1329273e-05
0.00012105682
0.00017921396
0.00026409375
0.00038763947
0.00056695128
0.00082624331
0.0011991394
0.001730824
0.0024789014
0.0035105988
0.0048926878
0.0066705112
0.0088379899
0.011311627
0.013932488
0.016515015
0.018906162
0.021040677
0.02290191
0.024533519
0.02599217
0.027326616
0.028562417
0.029688265
0.030626007
0.031247513
0.03131642
0.030823789
0.029396427
0.026899138
0.022965054
0.017112172
0.0089411623
0.0039727378
0.0016924804
0.00073149337
0.00035544871
0.00021653845
0.00016812874
0.00015168517
0.00014502098
0.00013955968
0.00013372248
0.00013063742
0.00012629805
3.5990016e-12
1.1309284e-10
9.2479061e-10
3.9771672e-09
1.2239171e-08
3.0886513e-08
6.8496204e-08
1.3883305e-07
2.6348929e-07
4.7575611e-07
8.2627051e-07
1.3912143e-06
2.2841756e-06
3.673261e-06
5.8057305e-06
9.0434257e-06
1.3913709e-05
2.1182767e-05
3.196129e-05
4.7857218e-05
7.1197139e-05
0.00010534783
0.00015518316
0.00022775844
0.0003332715
0.00048639458
0.00070802731
0.0010273905
0.0014840604
0.002128899
0.0030219415
0.0042245558
0.0057832211
0.0077039879
0.0099281797
0.012328427
0.014737826
0.017009674
0.019042405
0.020814068
0.022329389
0.02361558
0.024682703
0.025494165
0.025950036
0.025896565
0.025381098
0.024016927
0.021480046
0.017939823
0.01197963
0.0060109336
0.0027813923
0.0012449213
0.00057961822
0.00030862889
0.00020278163
0.00016258987
0.00014819944
0.0001425455
0.00013649623
0.00013257641
0.0001281511
0.00012640306
0.00012229201
2.0643583e-12
6.4869124e-11
5.3045187e-10
2.2812676e-09
7.0202793e-09
1.7716231e-08
3.9288779e-08
7.9632953e-08
1.5113251e-07
2.7287872e-07
4.7390489e-07
7.978795e-07
1.3098891e-06
2.1062112e-06
3.3283615e-06
5.1832538e-06
7.9721186e-06
1.2132004e-05
1.8295438e-05
2.7376445e-05
4.0695033e-05
6.0158092e-05
8.8523222e-05
0.00012978389
0.00018972966
0.00027675101
0.00040296667
0.00058573271
0.00084947681
0.0012275316
0.0017630967
0.0025076169
0.0035143585
0.0048257576
0.0064545776
0.0083641462
0.010459669
0.012605585
0.014658451
0.016509537
0.01808969
0.019363631
0.0203008
0.020810775
0.020758809
0.020278772
0.019008754
0.016564805
0.012950666
0.0075581105
0.0038161121
0.001846019
0.00088556557
0.00045006818
0.00026443474
0.00018848987
0.00015723618
0.00014474866
0.00013950165
0.00013409148
0.00013020854
0.00012733425
0.00012340068
0.00012136974
0.000118667
1.1666659e-12
3.666058e-11
2.9978301e-10
1.2892517e-09
3.9675047e-09
1.0012376e-08
2.2204341e-08
4.5005523e-08
8.5414897e-08
1.5422186e-07
2.6783308e-07
4.5092182e-07
7.4025421e-07
1.1901931e-06
1.880599e-06
2.9281428e-06
4.5024846e-06
6.8494027e-06
1.0323881e-05
1.5437588e-05
2.2927437e-05
3.3854465e-05
4.9747705e-05
7.2814261e-05
0.00010624677
0.00015467211
0.00022479897
0.00032632816
0.00047317441
0.00068496133
0.00098856076
0.0014190159
0.0020183954
0.0028308156
0.0038912926
0.0052115723
0.0067655283
0.0084840748
0.010258229
0.011960963
0.013469556
0.014674451
0.015489109
0.015638088
0.015295288
0.01422571
0.011952522
0.0082808027
0.0045680708
0.0023521328
0.0011805638
0.00061166745
0.00034709456
0.00022769483
0.00017581739
0.00015277682
0.0001422662
0.00013673536
0.00013143094
0.0001283556
0.00012528444
0.00012263495
0.00011925179
0.00011808759
0.00011530722
6.7126572e-13
2.1093435e-11
1.7248656e-10
7.4180158e-10
2.2828201e-09
5.761004e-09
1.277638e-08
2.589677e-08
4.9149927e-08
8.8744735e-08
1.5412178e-07
2.5947598e-07
4.2595371e-07
6.8481479e-07
1.0819624e-06
1.684422e-06
2.5895728e-06
3.938331e-06
5.9339446e-06
8.8687779e-06
1.3162359e-05
1.9416124e-05
2.8491936e-05
4.1625252e-05
6.0590554e-05
8.7944913e-05
0.00012737655
0.00018420702
0.0002660941
0.00038396104
0.00055310228
0.00079433824
0.0011345935
0.0016061291
0.0022428828
0.0030717131
0.0041002095
0.0053033715
0.0066192328
0.007951681
0.0091789527
0.010160937
0.010646147
0.010449293
0.0095962717
0.007553757
0.0046138092
0.002586032
0.0013949494
0.00074585746
0.00042104348
0.00027009626
0.00019931789
0.00016590087
0.00014951371
0.00014074154
0.000135723
0.00013052156
0.00012750038
0.000123738
0.00012092056
0.00011824054
0.00011543065
0.00011419221
0.00011231691
4.2270871e-13
1.3282945e-11
1.0861854e-10
4.6713399e-10
1.4375928e-09
3.6280999e-09
8.0465973e-09
1.6310968e-08
3.0959397e-08
5.5905261e-08
9.7099781e-08
1.6349223e-07
2.6841477e-07
4.3157111e-07
6.818811e-07
1.0615367e-06
1.6317843e-06
2.4811098e-06
3.736835e-06
5.5815137e-06
8.2761071e-06
1.2192802e-05
1.7861315e-05
2.6035256e-05
3.778509e-05
5.4626851e-05
7.8707939e-05
0.00011308527
0.00016210113
0.00023190078
0.00033110718
0.00047162001
0.00066900872
0.00094361304
0.0013187123
0.0018174875
0.0024561762
0.0032331472
0.0041156787
0.0050273634
0.005840745
0.0063382782
0.006220992
0.005543091
0.0038923945
0.0023834533
0.001392109
0.00079622698
0.00046833331
0.00029811668
0.00021639507
0.00017848692
0.00015887964
0.0001475268
0.00014036338
0.00013546633
0.00013055281
0.00012687917
0.00012298923
0.00011972079
0.00011684137
0.00011467665
0.00011259347
0.00011203315
0.00011026757
3.1585178e-13
9.9251506e-12
8.116142e-11
3.4905621e-10
1.0742512e-09
2.7112833e-09
6.0137357e-09
1.2191584e-08
2.3143785e-08
4.1799445e-08
7.2615233e-08
1.2229676e-07
2.0083978e-07
3.2302628e-07
5.1056483e-07
7.9513955e-07
1.222734e-06
1.859735e-06
2.8015061e-06
4.1843673e-06
6.2022396e-06
9.1296336e-06
1.3353532e-05
1.9416639e-05
2.8075817e-05
4.0381907e-05
5.7790281e-05
8.2298149e-05
0.00011664672
0.00016459062
0.0002312531
0.00032356733
0.00045074996
0.00062465761
0.00085925789
0.0011686394
0.0015616036
0.0020315157
0.0025404882
0.0030033685
0.0032599495
0.0031412655
0.002604842
0.0017828524
0.001153875
0.00071542383
0.00044889032
0.00029884762
0.00022063426
0.00018120684
0.0001633985
0.0001540703
0.0001468287
0.00014079645
0.00013602407
0.00013063814
0.00012690238
0.00012277082
0.00011966342
0.00011667406
0.00011429621
0.00011223393
0.00010972057
0.00010887652
0.00010751094
2.7753631e-13
8.7211594e-12
7.1316493e-11
3.0672113e-10
9.439926e-10
2.382649e-09
5.2852014e-09
1.0715706e-08
2.0344723e-08
3.6750231e-08
6.3856775e-08
1.0757301e-07
1.7671284e-07
2.8432019e-07
4.4956524e-07
7.0044547e-07
1.077612e-06
1.6397559e-06
2.4711326e-06
3.6919742e-06
5.4727683e-06
8.0535443e-06
1.176943e-05
1.7083845e-05
2.4631004e-05
3.5267898e-05
5.0135183e-05
7.0726459e-05
9.8969392e-05
0.00013731849
0.00018884879
0.00025735729
0.00034740532
0.0004641654
0.00061258135
0.0007947482
0.0010042856
0.0012231671
0.0014015987
0.0014634086
0.0013416662
0.0010536114
0.00076542554
0.00052439147
0.00035846112
0.00025677943
0.00019930105
0.00017106446
0.0001581293
0.00015194318
0.00015052945
0.00014702743
0.00014208622
0.00013640077
0.00013089328
0.00012700173
0.00012325977
0.00011994087
0.00011699157
0.00011413028
0.0001116154
0.00010908801
0.00010738159
0.00010710478
0.00010615732
2.5257649e-13
7.9368429e-12
6.490312e-11
2.7914084e-10
8.5912096e-10
2.1684743e-09
4.8102511e-09
9.7531193e-09
1.8518114e-08
3.3452907e-08
5.81322e-08
9.793914e-08
1.6090537e-07
2.5891868e-07
4.0945003e-07
6.3800865e-07
9.8160839e-07
1.4936209e-06
2.2505024e-06
3.3609929e-06
4.9784498e-06
7.3169898e-06
1.0671949e-05
1.5444517e-05
2.2169335e-05
3.154193e-05
4.4438001e-05
6.1914578e-05
8.5182685e-05
0.00011553691
0.00015424061
0.00020232114
0.00026030608
0.00032803774
0.00040346922
0.00048193162
0.00055379517
0.00059822842
0.00058827996
0.00051363662
0.00040654319
0.00030949321
0.00023492586
0.00018436492
0.00015145948
0.00014124178
0.00014356513
0.00014605088
0.00014754706
0.00014885367
0.00014777879
0.00014387571
0.00013689215
0.000131157
0.00012773446
0.00012384498
0.00012056599
0.00011721154
0.00011442521
0.00011159479
0.00010943229
0.00010758092
0.00010571601
0.00010512849
0.00010425438
2.0443339e-13
6.4240159e-12
5.253198e-11
2.2593262e-10
6.9535013e-10
1.7550623e-09
3.8930481e-09
7.8930218e-09
1.4985356e-08
2.70686e-08
4.7032578e-08
7.9226995e-08
1.3013732e-07
2.0935409e-07
3.3095417e-07
5.1545498e-07
7.9255428e-07
1.2049287e-06
1.8134214e-06
2.7039866e-06
3.9967256e-06
5.857171e-06
8.5095075e-06
1.2250458e-05
1.7460868e-05
2.4609453e-05
3.423984e-05
4.6928712e-05
6.3201685e-05
8.3401969e-05
0.0001075446
0.00013507911
0.00016473528
0.0001943154
0.00022086539
0.00023807105
0.00024057928
0.0002210978
0.00018733108
0.00015575319
0.00012992209
0.00011157951
0.00010070629
0.00010374881
0.00011158204
0.00012833763
0.00014216411
0.00014887242
0.00015033838
0.00014932877
0.00014558101
0.00013715588
0.00013185058
0.00012852124
0.00012461504
0.0001209313
0.00011781027
0.00011482142
0.0001122687
0.00010992617
0.00010765989
0.00010550304
0.0001039415
0.00010348272
0.00010297318
1.3782306e-13
4.3308798e-12
3.5415277e-11
1.5231349e-10
4.6875739e-10
1.1830767e-09
2.6240649e-09
5.3195982e-09
1.0098026e-08
1.8236783e-08
3.167875e-08
5.3345313e-08
8.7586457e-08
1.4082357e-07
2.2246045e-07
3.4616264e-07
5.316335e-07
8.0704351e-07
1.2122869e-06
1.8032265e-06
2.6570045e-06
3.8782739e-06
5.6057411e-06
8.0175488e-06
1.1332638e-05
1.5803274e-05
2.1691752e-05
2.9224881e-05
3.8514009e-05
4.9447492e-05
6.1576232e-05
7.4008656e-05
8.5434089e-05
9.3878039e-05
9.7334713e-05
9.3343283e-05
8.3115723e-05
7.3061949e-05
6.5631989e-05
6.0184985e-05
6.2365514e-05
6.9290118e-05
7.8163892e-05
9.7225772e-05
0.0001290945
0.00014844047
0.00015238658
0.0001524719
0.00015112312
0.0001465597
0.00013767783
0.0001326738
0.00012944825
0.00012516852
0.00012165406
0.00011845495
0.0001156501
0.00011278726
0.00011045832
0.00010776814
0.00010585486
0.00010396195
0.00010265287
0.00010239956
0.00010195994
7.681901e-14
2.4139164e-12
1.9739354e-11
8.4892722e-11
2.6125265e-10
6.5931658e-10
1.4622087e-09
2.9638008e-09
5.6249584e-09
1.0155826e-08
1.7635332e-08
2.968354e-08
4.8708413e-08
7.8256295e-08
1.2350508e-07
1.9195027e-07
2.9434548e-07
4.4596715e-07
6.6827051e-07
9.9097557e-07
1.4545439e-06
2.1128367e-06
3.035422e-06
4.308461e-06
6.0322782e-06
8.3126453e-06
1.1241908e-05
1.4867009e-05
1.9140454e-05
2.3867384e-05
2.8656986e-05
3.2901684e-05
3.5805347e-05
3.64648e-05
3.5227946e-05
3.3334806e-05
3.1896646e-05
3.2416858e-05
3.6070082e-05
4.11845e-05
5.2815062e-05
6.8754383e-05
9.8094153e-05
0.00013546525
0.00015103276
0.00015561903
0.00015516526
0.00015337965
0.00014776172
0.00013901036
0.00013422044
0.00013050344
0.00012614005
0.00012255799
0.00011945189
0.00011623364
0.00011351829
0.0001109062
0.00010861213
0.0001065081
0.00010459039
0.00010282122
0.00010136999
0.00010096739
0.00010069685
3.6097902e-14
1.1343174e-12
9.2755738e-12
3.9890234e-11
1.2275373e-10
3.0976494e-10
6.8690231e-10
1.3920691e-09
2.6413791e-09
4.767524e-09
8.2753316e-09
1.3921579e-08
2.2828683e-08
3.6645099e-08
5.7769026e-08
8.9655972e-08
1.3723378e-07
2.0744865e-07
3.0995831e-07
4.5796542e-07
6.6913389e-07
9.6643266e-07
1.3785834e-06
1.9395287e-06
2.6859929e-06
3.6518113e-06
4.8575472e-06
6.2951362e-06
7.9088423e-06
9.5782011e-06
1.1114886e-05
1.228413e-05
1.3011926e-05
1.3723631e-05
1.4808023e-05
1.6670383e-05
1.9197838e-05
2.4529553e-05
3.3603729e-05
4.9097178e-05
7.0974735e-05
0.00010313003
0.00013587324
0.00015272551
0.00015815569
0.00015794449
0.00015588758
0.00014949081
0.0001407337
0.00013579342
0.00013137051
0.00012690552
0.00012361688
0.00012022403
0.00011702583
0.00011419883
0.00011177089
0.00010924134
0.00010712631
0.00010485366
0.00010304176
0.00010130773
0.0001004172
0.00010024781
9.9986254e-05
1.4972868e-14
4.7049678e-13
3.8473182e-12
1.654518e-11
5.0911482e-11
1.2846205e-10
2.8482685e-10
5.7712208e-10
1.0947894e-09
1.9753801e-09
3.4273397e-09
5.7626067e-09
9.4427976e-09
1.5143912e-08
2.3845742e-08
3.6953283e-08
5.645789e-08
8.5144505e-08
1.2684629e-07
1.8673596e-07
2.7161955e-07
3.9015766e-07
5.5287652e-07
7.7175021e-07
1.0590611e-06
1.4252377e-06
1.8756416e-06
2.4071298e-06
3.0068198e-06
3.6581692e-06
4.3765825e-06
5.2503289e-06
6.343728e-06
7.8318008e-06
1.0489023e-05
1.4688183e-05
2.1551118e-05
3.3049088e-05
5.0231131e-05
7.3032738e-05
0.00010248144
0.00013283262
0.00015250645
0.0001604409
0.00016078631
0.00015865287
0.00015191768
0.00014287063
0.00013766988
0.00013265742
0.0001282468
0.00012502623
0.00012147507
0.00011800168
0.00011527832
0.00011247137
0.00011007479
0.00010765401
0.00010577328
0.00010371778
0.00010214025
0.00010058299
9.9453838e-05
9.9097781e-05
9.8804393e-05
6.4854411e-15
2.0379367e-13
1.6664385e-12
7.1662892e-12
2.2050674e-11
5.56358e-11
1.233454e-10
2.498967e-10
4.7398181e-10
8.5507969e-10
1.483282e-09
2.4933409e-09
4.084562e-09
6.5486691e-09
1.0308337e-08
1.5969646e-08
2.4392092e-08
3.6779693e-08
5.4795394e-08
8.0698693e-08
1.17501e-07
1.6912614e-07
2.4055805e-07
3.3796406e-07
4.688302e-07
6.4229891e-07
8.7032439e-07
1.1704662e-06
1.5714556e-06
2.1284698e-06
2.9373874e-06
4.1533275e-06
6.0445133e-06
9.1278864e-06
1.4113394e-05
2.2046277e-05
3.4037117e-05
5.0757187e-05
7.2710257e-05
0.00010057943
0.0001305906
0.00015400526
0.00016299961
0.00016373805
0.00016165064
0.00015500358
0.00014535455
0.00013988807
0.00013431744
0.00012980608
0.00012629091
0.00012249972
0.0001190862
0.00011613765
0.00011333985
0.00011079126
0.00010858256
0.00010642295
0.00010443006
0.00010246138
0.00010085451
9.9346025e-05
9.8557635e-05
9.8481444e-05
9.8190644e-05
4.576818e-15
1.4381886e-13
1.1760316e-12
5.0574707e-12
1.5562388e-11
3.9267569e-11
8.7065106e-11
1.7642007e-10
3.3469682e-10
6.0401826e-10
1.0483147e-09
1.7634828e-09
2.8919357e-09
4.643313e-09
7.3237765e-09
1.1377197e-08
1.7442716e-08
2.6434791e-08
3.9654196e-08
5.8942174e-08
8.6896488e-08
1.2718082e-07
1.8498529e-07
2.6775216e-07
3.8640544e-07
5.5759797e-07
8.0706915e-07
1.1760487e-06