/*--------------------------------*- C++ -*----------------------------------*\
  =========                 |
  \\      /  F ield         | OpenFOAM: The Open Source CFD Toolbox
   \\    /   O peration     | Website:  https://openfoam.org
    \\  /    A nd           | Version:  13
     \\/     M anipulation  |
\*---------------------------------------------------------------------------*/
FoamFile
{
    format      ascii;
    class       surfaceScalarField;
    location    "29.59728";
    object      phi;
}
// * * * * * * * * * * * * * * * * * * * * * * * * * * * * * * * * * * * * * //

dimensions      [0 3 -1 0 0 0 0];

internalField   nonuniform List<scalar> 
34068
(
-1.1734746e-08
-3.385617e-08
4.5590917e-08
-5.2236612e-08
-1.1683575e-07
1.5733762e-07
-1.3112948e-07
-2.277273e-07
3.0662016e-07
-2.605644e-07
-3.7417995e-07
5.0361487e-07
-4.5578708e-07
-5.6578962e-07
7.6101231e-07
-7.358343e-07
-8.1455628e-07
1.0946035e-06
-1.1244152e-06
-1.1353949e-06
1.5239758e-06
-1.6509643e-06
-1.5467701e-06
2.0733192e-06
-2.3518705e-06
-2.071486e-06
2.7723923e-06
-3.2719526e-06
-2.737563e-06
3.6576451e-06
-4.4662043e-06
-3.5792562e-06
4.7735079e-06
-6.0018428e-06
-4.6382125e-06
6.173851e-06
-7.9606901e-06
-5.964749e-06
7.9235964e-06
-1.0441918e-05
-7.6192353e-06
1.0100463e-05
-1.3565156e-05
-9.6735251e-06
1.2796763e-05
-1.7473974e-05
-1.2212359e-05
1.6121178e-05
-2.233969e-05
-1.5334612e-05
2.0200328e-05
-2.8365426e-05
-1.9154203e-05
2.5179938e-05
-3.5790261e-05
-2.3800398e-05
3.1225233e-05
-4.4893265e-05
-2.9417183e-05
3.8520188e-05
-5.5997048e-05
-3.6161219e-05
4.7265002e-05
-6.9470298e-05
-4.419788e-05
5.767113e-05
-8.5728661e-05
-5.3694676e-05
6.9953039e-05
-0.00010523293
-6.4811508e-05
8.4315778e-05
-0.00012848338
-7.7687176e-05
0.00010093762
-0.00015600867
-9.2422172e-05
0.00011994747
-0.0001883478
-0.00010905879
0.00014139792
-0.00022602362
-0.00012756179
0.00016523761
-0.00026950836
-0.00014780696
0.00019129169
-0.00031918514
-0.00016959074
0.00021926751
-0.00037531706
-0.00019267926
0.00024881119
-0.0004380436
-0.00021690822
0.00027963475
-0.00050742327
-0.00024231118
0.00031169085
-0.00058351961
-0.00026920482
0.00034530116
-0.000666494
-0.00029816373
0.00038113812
-0.00075666452
-0.00032991078
0.00042008131
-0.00085452224
-0.00036522236
0.00046308008
-0.00096072611
-0.000404908
0.00051111187
-0.0010761019
-0.00044984932
0.0005652251
-0.0012016598
-0.00050106097
0.00062661888
-0.001338638
-0.00055974802
0.00069672624
-0.0014885776
-0.00062734084
0.0007772804
-0.0016534344
-0.00070548322
0.00087034
-0.0018357362
-0.00079593116
0.00097823297
-0.0020388015
-0.00090029528
0.0011033606
-0.0022669791
-0.001019495
0.0012476726
-0.0025258186
-0.0011527615
0.0014116009
-0.0028223556
-0.0012961205
0.0015926575
-0.0031654125
-0.0014397351
0.0017827921
-0.0035656967
-0.0015633318
0.0019636159
-0.0040357059
-0.0016288201
0.0020988293
-0.0045891066
-0.0015678235
0.0021212242
-0.0052390026
-0.0012620572
0.0019119532
-0.0059934233
-0.00051214484
0.0012665655
-0.0068456676
0.0010008484
-0.00014860402
-0.0077579552
0.0037595593
-0.0028472717
-0.0086385225
0.008388632
-0.0075080648
-0.0093091896
0.015478145
-0.014807478
-0.0095012108
0.025052213
-0.024860192
-0.0089638383
0.035813732
-0.036351105
-0.0077027941
0.044410333
-0.045671377
-0.0055531356
0.044491226
-0.046640884
-0.00143918
0.0261983
-0.030312255
0.006915578
-0.019321938
0.01096718
-0.076438164
0.019046509
0.064307233
-1.1995385e-08
-2.1860785e-08
-5.3392616e-08
-7.5438516e-08
-1.3400676e-07
-1.4711315e-07
-2.662179e-07
-2.4196881e-07
-4.6557728e-07
-3.6643024e-07
-7.515648e-07
-5.2856877e-07
-1.148475e-06
-7.3848463e-07
-1.6864306e-06
-1.0088145e-06
-2.4026826e-06
-1.355234e-06
-3.343128e-06
-1.7971176e-06
-4.5641035e-06
-2.3582808e-06
-6.1344927e-06
-3.0678232e-06
-8.1381733e-06
-3.9610684e-06
-1.0676836e-05
-5.0805725e-06
-1.3873182e-05
-6.4771789e-06
-1.7874494e-05
-8.2110472e-06
-2.2856542e-05
-1.0352563e-05
-2.9027745e-05
-1.2983e-05
-3.6633414e-05
-1.619473e-05
-4.595987e-05
-2.0090727e-05
-5.7338043e-05
-2.4783046e-05
-7.1146056e-05
-3.0389868e-05
-8.7810032e-05
-3.70307e-05
-0.00010780221
-4.481933e-05
-0.00013163507
-5.385432e-05
-0.00015984995
-6.420729e-05
-0.00019299857
-7.5910163e-05
-0.00023161609
-8.8944267e-05
-0.00027618603
-0.00010323702
-0.00032710135
-0.00011867541
-0.00038463348
-0.00013514713
-0.00044892921
-0.00015261249
-0.00052005445
-0.00017118593
-0.0005980812
-0.00019117807
-0.00068318178
-0.00021306315
-0.00077568906
-0.0002374035
-0.00087611337
-0.00026479805
-0.00098513767
-0.0002958837
-0.0011036164
-0.00033137062
-0.0012325925
-0.00037208484
-0.0013733399
-0.00041900061
-0.0015274349
-0.00047324588
-0.0016968624
-0.00053605568
-0.0018841624
-0.00060863118
-0.0020926276
-0.0006918301
-0.0023265118
-0.00078561076
-0.0025911359
-0.00088813736
-0.0028930724
-0.00099418403
-0.0032402971
-0.0010925104
-0.0036420412
-0.0011615877
-0.0041083188
-0.0011625424
-0.004648764
-0.0010273783
-0.0052701746
-0.00064064662
-0.0059712711
0.00018895167
-0.0067329197
0.001762497
-0.0075053351
0.0045319748
-0.0081920792
0.0090753761
-0.0086263228
0.015912388
-0.0085709656
0.024996856
-0.0077933893
0.035036156
-0.006287235
0.042904179
-0.0037443842
0.041948375
0.0013739417
0.021079974
0.01155603
-0.029504026
-0.090031875
0.025149741
-1.2092005e-08
-9.7687794e-09
-5.3821367e-08
-3.3709154e-08
-1.3508738e-07
-6.5847127e-08
-2.6837584e-07
-1.0868035e-07
-4.6938224e-07
-1.6542384e-07
-7.5776635e-07
-2.4018465e-07
-1.1580439e-06
-3.3820704e-07
-1.7006489e-06
-4.6620953e-07
-2.4232357e-06
-6.3264722e-07
-3.372222e-06
-8.4813122e-07
-4.6046163e-06
-1.1258865e-06
-6.1901606e-06
-1.4822789e-06
-8.2138266e-06
-1.9374023e-06
-1.0778685e-05
-2.5157141e-06
-1.4009168e-05
-3.2466959e-06
-1.8054714e-05
-4.1655009e-06
-2.3093756e-05
-5.3135216e-06
-2.9337964e-05
-6.7387918e-06
-3.7036601e-05
-8.4960932e-06
-4.6480725e-05
-1.0646603e-05
-5.80069e-05
-1.3256872e-05
-7.1999857e-05
-1.6396911e-05
-8.88934e-05
-2.0137156e-05
-0.00010916858
-2.4544153e-05
-0.00013334784
-2.9675062e-05
-0.00016198367
-3.5571457e-05
-0.00019564008
-4.2253753e-05
-0.00023486554
-4.9718802e-05
-0.00028015774
-5.7944827e-05
-0.00033192416
-6.6908992e-05
-0.00039045017
-7.6621117e-05
-0.00045589435
-8.7168307e-05
-0.00052833069
-9.8749592e-05
-0.00060783545
-0.00011167332
-0.00069458288
-0.00012631572
-0.00078890782
-0.00014307855
-0.00089132451
-0.00016238136
-0.0010025224
-0.00018468585
-0.0011233635
-0.00021052951
-0.0012548969
-0.00024055137
-0.0013983974
-0.00027550017
-0.001555431
-0.00031621228
-0.0017279511
-0.00036353555
-0.0019184264
-0.00041815589
-0.0021300093
-0.00048024715
-0.0023666979
-0.00054892217
-0.0026333647
-0.00062147057
-0.0029358186
-0.00069173016
-0.0032807613
-0.00074756769
-0.0036753501
-0.00076699898
-0.0041262925
-0.00071160004
-0.0046380747
-0.00051559606
-0.0052097246
-6.89968e-05
-0.0058286916
0.00080791871
-0.0064609576
0.002394763
-0.0070411138
0.0051121309
-0.0074606802
0.0094949424
-0.0075489578
0.016000666
-0.0070775052
0.024525404
-0.0058108409
0.033769492
-0.0037030834
0.040796421
-0.00020463956
0.038449931
0.0068735615
0.014001773
0.019836203
-0.042466668
-0.10536141
0.035165742
-1.2006369e-08
2.2375896e-09
-5.344219e-08
7.7266682e-09
-1.3416222e-07
1.4872898e-08
-2.6661972e-07
2.3777151e-08
-4.6646288e-07
3.4419329e-08
-7.5325503e-07
4.6607491e-08
-1.1513815e-06
5.9919423e-08
-1.6911775e-06
7.3586435e-08
-2.4102057e-06
8.6381025e-08
-3.3548076e-06
9.6470652e-08
-4.5819387e-06
1.0124459e-07
-6.1613289e-06
9.7111319e-08
-8.1779995e-06
7.9268254e-08
-1.0735163e-05
4.1449884e-08
-1.3957525e-05
-2.4334361e-08
-1.7994974e-05
-1.2805158e-07
-2.3026636e-05
-2.8185992e-07
-2.9265193e-05
-5.0023472e-07
-3.6961333e-05
-7.9995403e-07
-4.6408072e-05
-1.1998633e-06
-5.7944604e-05
-1.7203398e-06
-7.1959134e-05
-2.3823815e-06
-8.8889992e-05
-3.2062988e-06
-0.00010922404
-4.2101092e-06
-0.00013349111
-5.4079835e-06
-0.00016225304
-6.8095296e-06
-0.00019608543
-8.4213602e-06
-0.00023555103
-1.0253211e-05
-0.00028116451
-1.2331345e-05
-0.00033335267
-1.472083e-05
-0.00039242071
-1.7553075e-05
-0.00045854428
-2.104474e-05
-0.00053180747
-2.5486397e-05
-0.00061228709
-3.1193697e-05
-0.00070014969
-3.8453125e-05
-0.00079571829
-4.7509954e-05
-0.00089949451
-5.8605138e-05
-0.0010121546
-7.2025807e-05
-0.0011345446
-8.813945e-05
-0.0012676915
-0.00010740453
-0.0014128347
-0.00013035696
-0.0015714829
-0.00015756408
-0.0017454941
-0.00018952429
-0.0019371802
-0.00022646977
-0.0021494374
-0.00026799002
-0.0023858421
-0.00031251739
-0.0026506008
-0.00035671192
-0.002948458
-0.00039387295
-0.0032844181
-0.00041160756
-0.0036629738
-0.00038844329
-0.0040867188
-0.00028785507
-0.0045539104
-4.8404483e-05
-0.0050543988
0.00043149158
-0.0055625391
0.0013160591
-0.0060271562
0.0028593801
-0.0063645006
0.0054494754
-0.0064509083
0.0095813501
-0.0060869369
0.015636694
-0.0049929717
0.023431439
-0.0029104828
0.031687003
0.00026850763
0.037617431
0.0055798625
0.033138576
0.015839905
0.0037417305
0.03232532
-0.058952084
-0.12234301
0.049306921
-1.1754268e-08
1.3991858e-08
-5.2321525e-08
4.8293925e-08
-1.3134407e-07
9.389544e-08
-2.6100161e-07
1.534347e-07
-4.5662439e-07
2.300421e-07
-7.3742979e-07
3.2741289e-07
-1.1273976e-06
4.4988728e-07
-1.656351e-06
6.0253982e-07
-2.3612455e-06
7.9127553e-07
-3.2877117e-06
1.0229368e-06
-4.4918829e-06
1.3054157e-06
-6.0425485e-06
1.6477769e-06
-8.0236669e-06
2.0603867e-06
-1.0537269e-05
2.5550518e-06
-1.3706766e-05
3.1451632e-06
-1.7680669e-05
3.8458514e-06
-2.2636674e-05
4.6741446e-06
-2.8786047e-05
5.6491379e-06
-3.6378162e-05
6.7921614e-06
-4.5704959e-05
8.1269339e-06
-5.7104969e-05
9.6796697e-06
-7.0966399e-05
1.1479048e-05
-8.7728571e-05
1.3555873e-05
-0.00010788076
1.5942082e-05
-0.00013195721
1.8668464e-05
-0.00016052678
2.1760039e-05
-0.00019417559
2.5227451e-05
-0.00023348116
2.905236e-05
-0.0002789778
3.3165295e-05
-0.00033111642
3.7417792e-05
-0.0003902286
4.1559102e-05
-0.00045651342
4.5240084e-05
-0.00053006827
4.8068445e-05
-0.00061096753
4.9705568e-05
-0.00069936031
4.9939655e-05
-0.00079554263
4.8672371e-05
-0.00089998481
4.5837036e-05
-0.0010133287
4.1318067e-05
-0.0011363803
3.4912144e-05
-0.0012701143
2.6329536e-05
-0.0014156975
1.5226163e-05
-0.0015745309
1.2693639e-06
-0.0017483114
-1.5743769e-05
-0.0019391066
-3.5674592e-05
-0.0021494392
-5.7657434e-05
-0.0023822992
-7.9657375e-05
-0.0026410057
-9.8005471e-05
-0.0029289394
-0.00010593918
-0.003248984
-9.1562965e-05
-0.003602374
-3.5053309e-05
-0.0039867691
9.6540065e-05
-0.0043930794
0.00035790575
-0.004800544
0.00083895618
-0.0051685467
0.0016840618
-0.0054270827
0.0031179161
-0.0054716852
0.005494078
-0.0051524137
0.0092620786
-0.0041847983
0.014669079
-0.0022035328
0.021450173
0.0010474191
0.028436051
0.005899288
0.032765562
0.013987386
0.025050478
0.028385346
-0.010656229
0.048102489
-0.078669227
-0.14029399
0.066053466
-1.1323378e-08
2.5315236e-08
-5.0403602e-08
8.7374148e-08
-1.2653509e-07
1.7002693e-07
-2.5147148e-07
2.7837109e-07
-4.4001154e-07
4.1858216e-07
-7.1071397e-07
5.9811532e-07
-1.0867662e-06
8.2593949e-07
-1.5970336e-06
1.1128073e-06
-2.2773235e-06
1.4715654e-06
-3.1718956e-06
1.917509e-06
-4.3352592e-06
2.4687792e-06
-5.8342938e-06
3.1468115e-06
-7.7507318e-06
3.9768247e-06
-1.0184033e-05
4.9883526e-06
-1.3254671e-05
6.215802e-06
-1.7107847e-05
7.6990274e-06
-2.1917583e-05
9.4838804e-06
-2.7891148e-05
1.1622703e-05
-3.5273678e-05
1.4174691e-05
-4.435277e-05
1.7206025e-05
-5.5462721e-05
2.0789622e-05
-6.8987941e-05
2.5004268e-05
-8.5364827e-05
2.9932759e-05
-0.00010508122
3.5658479e-05
-0.00012867224
4.2259482e-05
-0.00015671096
4.9798754e-05
-0.0001897923
5.8308792e-05
-0.00022850853
6.776859e-05
-0.00027341573
7.8072495e-05
-0.00032499357
8.8995637e-05
-0.00038360672
0.00010017224
-0.0004494848
0.00011111817
-0.00052274282
0.00012132646
-0.00060345104
0.00013041379
-0.00069173171
0.00013822033
-0.00078783826
0.00014477892
-0.00089219011
0.00015018888
-0.0010053724
0.00015450031
-0.0011281248
0.00015766457
-0.0012613384
0.00015954316
-0.0014060668
0.00015995452
-0.0015635522
0.00015875477
-0.0017352622
0.00015596623
-0.0019229294
0.00015199269
-0.002128585
0.00014799819
-0.0023544742
0.00014623176
-0.0026027985
0.00015031881
-0.0028752722
0.00016653459
-0.0031722273
0.00020539214
-0.0034910202
0.00028373951
-0.0038234963
0.00042901625
-0.0041519713
0.00068638069
-0.0044433488
0.0011303337
-0.0046397441
0.0018804571
-0.0046500196
0.0031281915
-0.0043434787
0.0051875371
-0.0034875222
0.0084061221
-0.001662474
0.012844031
0.0014894452
0.018298254
0.0061876177
0.023737879
0.013239285
0.025713895
0.024935779
0.013353984
0.043358198
-0.029078648
0.064960687
-0.10027172
-0.15760106
0.082267755
-1.0708705e-08
3.6023941e-08
-4.7671274e-08
1.2433672e-07
-1.1968824e-07
2.4204389e-07
-2.3789779e-07
3.9658064e-07
-4.1633691e-07
5.9702127e-07
-6.7262725e-07
8.5440566e-07
-1.0288089e-06
1.1821212e-06
-1.5123511e-06
1.5963495e-06
-2.1573708e-06
2.116585e-06
-3.0060939e-06
2.7662321e-06
-4.1105973e-06
3.5732827e-06
-5.5348723e-06
4.5710866e-06
-7.3572423e-06
5.7991946e-06
-9.6731806e-06
7.304291e-06
-1.2598543e-05
9.141164e-06
-1.6273231e-05
1.1373715e-05
-2.0865272e-05
1.4075922e-05
-2.6575255e-05
1.7332687e-05
-3.3641009e-05
2.1240445e-05
-4.2342338e-05
2.5907354e-05
-5.3005502e-05
3.1452785e-05
-6.6006992e-05
3.8005758e-05
-8.1775976e-05
4.5701744e-05
-0.00010079454
5.4677039e-05
-0.00012359454
6.5059489e-05
-0.00015074976
7.6953966e-05
-0.0001828614
9.0420438e-05
-0.00022053558
0.00010544277
-0.00026435141
0.00012188833
-0.00031482124
0.00013946546
-0.0003723492
0.00015770021
-0.0004372031
0.00017597207
-0.00050952137
0.00019364473
-0.00058937022
0.00021026264
-0.00067683716
0.00022568727
-0.00077211761
0.00024005937
-0.00087555964
0.00025363091
-0.00098766743
0.0002666081
-0.0011090864
0.00027908353
-0.00124059
0.00029104679
-0.0013830768
0.00030244128
-0.0015375762
0.00031325422
-0.0017052568
0.00032364679
-0.0018874255
0.00033416139
-0.0020854989
0.00034607158
-0.0023008142
0.00036154711
-0.0025342283
0.00038373284
-0.002785471
0.00041777728
-0.0030518639
0.00047178503
-0.0033262086
0.00055808426
-0.0035935177
0.0006963253
-0.0038259528
0.00091881581
-0.0039756346
0.0012800155
-0.0039647388
0.0018695613
-0.0036747496
0.0028382023
-0.0029180704
0.004430858
-0.0013162444
0.006804296
0.001597767
0.0099300195
0.0060677829
0.013828238
0.012429352
0.017376309
0.022128679
0.016014568
0.037733278
-0.0022506149
0.059541111
-0.050886481
0.081446704
-0.12217731
-0.17212498
0.095970621
-9.919011e-09
4.5942952e-08
-4.4162876e-08
1.5858058e-07
-1.1089749e-07
3.0877851e-07
-2.2046808e-07
5.0615123e-07
-3.8592712e-07
7.6248031e-07
-6.2367994e-07
1.0921585e-06
-9.5427221e-07
1.5127134e-06
-1.4033473e-06
2.0454245e-06
-2.0028011e-06
2.7160388e-06
-2.7921746e-06
3.5556056e-06
-3.8203162e-06
4.6014243e-06
-5.147357e-06
5.8981274e-06
-6.8470415e-06
7.4988792e-06
-9.0094448e-06
9.4666943e-06
-1.1744118e-05
1.1875837e-05
-1.5183667e-05
1.4813264e-05
-1.948777e-05
1.8380025e-05
-2.4847596e-05
2.2692512e-05
-3.1490515e-05
2.7883364e-05
-3.9684957e-05
3.4101796e-05
-4.9745137e-05
4.1512966e-05
-6.2035252e-05
5.0295873e-05
-7.6972562e-05
6.0639053e-05
-9.5028549e-05
7.2733027e-05
-0.0001167271
8.6758043e-05
-0.0001426383
0.00010286516
-0.00017336616
0.0001211483
-0.00020952851
0.00014160511
-0.00025172748
0.0001640873
-0.00030051077
0.00018824875
-0.00035632771
0.00021351715
-0.00041949218
0.00023913653
-0.00049017347
0.00026432602
-0.00056843643
0.0002885256
-0.00065432791
0.00031157875
-0.00074797051
0.00033370198
-0.00084961952
0.00035527992
-0.00095967218
0.00037666076
-0.0010786494
0.00039806071
-0.0012071711
0.0004195685
-0.0013459362
0.00044120644
-0.0014957052
0.00046302314
-0.0016572748
0.00048521642
-0.0018314334
0.00050832005
-0.002018855
0.00053349308
-0.0022197921
0.00056248421
-0.0024335268
0.0005974676
-0.0026574574
0.00064170791
-0.0028853777
0.00069970531
-0.0031047348
0.00077744135
-0.0032924291
0.00088401963
-0.0034083267
0.0010347133
-0.0033862707
0.0012579595
-0.0031237108
0.0016070014
-0.0024611544
0.0021756459
-0.0011011506
0.0030708542
0.0014349931
0.0042681522
0.0055046986
0.005860314
0.011328287
0.0080046498
0.019638533
0.0090660626
0.032367082
0.003286019
0.051839832
-0.021723365
0.076101696
-0.075148345
0.096587708
-0.14266332
-0.18251785
0.10698058
-8.96852e-09
5.4911472e-08
-3.9938202e-08
1.8955026e-07
-1.0030881e-07
3.6914911e-07
-1.9946689e-07
6.0530931e-07
-3.4927139e-07
9.1228481e-07
-5.6464984e-07
1.3075369e-06
-8.6432818e-07
1.8123918e-06
-1.2717176e-06
2.4528139e-06
-1.8159925e-06
3.2603138e-06
-2.5333901e-06
4.2730032e-06
-3.4687708e-06
5.536805e-06
-4.6774803e-06
7.1068369e-06
-6.2275567e-06
9.0489555e-06
-8.2023146e-06
1.1441452e-05
-1.0703361e-05
1.4376883e-05
-1.385405e-05
1.7963954e-05
-1.7803401e-05
2.2329376e-05
-2.2730435e-05
2.7619546e-05
-2.88489e-05
3.400183e-05
-3.641222e-05
4.1665115e-05
-4.5718442e-05
5.0819188e-05
-5.7114879e-05
6.169231e-05
-7.1001874e-05
7.4526049e-05
-8.7835004e-05
8.9566157e-05
-0.00010812472
0.00010704776
-0.00013243214
0.00012717259
-0.00016135935
0.0001500755
-0.00019553225
0.00017577802
-0.0002355742
0.00020412926
-0.00028206911
0.00023474366
-0.00033551579
0.00026696383
-0.00039628184
0.00029990258
-0.00046457642
0.0003326206
-0.00054046864
0.00036441782
-0.00062396171
0.00039507182
-0.00071509199
0.00042483226
-0.00081399984
0.00045418777
-0.00092094782
0.00048360874
-0.0010362996
0.00051341247
-0.001160483
0.00054375193
-0.00129395
0.00057467341
-0.0014371315
0.00060620468
-0.001590376
0.00063846092
-0.0017538528
0.00067179684
-0.0019273546
0.00070699485
-0.0021098574
0.00074498705
-0.0022988084
0.00078641864
-0.0024888721
0.00083177155
-0.002669681
0.00088051423
-0.0028222975
0.00093005788
-0.0029137926
0.00097551465
-0.0028887441
0.0010096649
-0.0026581823
0.0010273977
-0.0020857315
0.0010345505
-0.00094982728
0.0010397417
0.0011594089
0.00096161802
0.0046687682
0.00075879291
0.0098604119
0.00066867038
0.017216106
0.00064895514
0.027906306
-0.0016241372
0.044104885
-0.01291256
0.067158858
-0.044777338
0.092192372
-0.10018186
0.10886512
-0.15933607
-0.18846981
0.11481708
-7.8768038e-09
6.2788276e-08
-3.5085615e-08
2.1675907e-07
-8.8144647e-08
4.2220815e-07
-1.7533526e-07
6.9249992e-07
-3.0713853e-07
1.0440881e-06
-4.9677229e-07
1.4971707e-06
-7.6085127e-07
2.0764708e-06
-1.120192e-06
2.8121546e-06
-1.6007957e-06
3.7409175e-06
-2.2350359e-06
4.9072433e-06
-3.0630966e-06
6.3648656e-06
-4.1346889e-06
8.1784292e-06
-5.5111034e-06
1.042537e-05
-7.2676322e-06
1.3197981e-05
-9.4964069e-06
1.6605658e-05
-1.2309687e-05
2.0777234e-05
-1.5843616e-05
2.5863305e-05
-2.0262457e-05
3.2038387e-05
-2.5763248e-05
3.9502621e-05
-3.25808e-05
4.8482668e-05
-4.0992862e-05
5.9231249e-05
-5.1325147e-05
7.2024595e-05
-6.3955825e-05
8.7156728e-05
-7.9318812e-05
0.00010492914
-9.7905015e-05
0.00012563396
-0.0001202603
0.00014952787
-0.00014697868
0.00017679388
-0.00017868873
0.00020748807
-0.00021603099
0.00024147151
-0.00025962393
0.0002783366
-0.00031001782
0.00031735772
-0.0003676404
0.00035752516
-0.00043275057
0.00039773078
-0.00050543046
0.00043709771
-0.00058564066
0.00047528202
-0.00067332015
0.00051251174
-0.00076847239
0.00054934001
-0.00087119554
0.00058633189
-0.00098166058
0.00062387751
-0.001100061
0.0006621524
-0.00122655
0.00070116231
-0.001361163
0.00074081777
-0.0015037146
0.00078101246
-0.0016536408
0.00082172307
-0.0018096944
0.00086304842
-0.0019693521
0.00090464473
-0.0021279024
0.00094496896
-0.0022767603
0.00098062949
-0.0024005402
0.0010042941
-0.0024724622
0.0010019799
-0.0024473275
0.00095038004
-0.0022506015
0.00081293887
-0.0017650532
0.00054184942
-0.00080992217
7.9419521e-05
0.00090741137
-0.00067759185
0.0038192515
-0.0019502221
0.0082914216
-0.0037133772
0.014778321
-0.0058182294
0.024120461
-0.0086931846
0.037812731
-0.015316407
0.057819218
-0.032919047
0.083425246
-0.070383367
0.10616986
-0.12292648
0.11706166
-0.17022787
-0.19094443
0.11953628
-6.6711612e-09
6.9459437e-08
-2.9725501e-08
2.3981342e-07
-7.4705769e-08
4.6718841e-07
-1.4866841e-07
7.6646256e-07
-2.6056471e-07
1.1559844e-06
-4.217111e-07
1.6583171e-06
-6.4636875e-07
2.3011284e-06
-9.5245637e-07
3.1182423e-06
-1.3624208e-06
4.150882e-06
-1.9042993e-06
5.4491218e-06
-2.613006e-06
7.0735724e-06
-3.5318887e-06
9.097312e-06
-4.7145884e-06
1.160807e-05
-6.2272657e-06
1.4710658e-05
-8.1512161e-06
1.8529608e-05
-1.0585945e-05
2.3211963e-05
-1.3652725e-05
2.8930085e-05
-1.7498639e-05
3.5884301e-05
-2.2301128e-05
4.430511e-05
-2.8272971e-05
5.4454511e-05
-3.5667588e-05
6.6625865e-05
-4.4784414e-05
8.1141422e-05
-5.5974074e-05
9.8346388e-05
-6.9642762e-05
0.00011859783
-8.6255101e-05
0.0001422463
-0.00010633445
0.00016960722
-0.00013045919
0.00020091862
-0.00015925308
0.00023628197
-0.00019336707
0.0002755855
-0.00023344936
0.00031841889
-0.00028010025
0.0003640086
-0.00033381148
0.00041123639
-0.00039490116
0.00045882046
-0.00046347592
0.00050567247
-0.00053945924
0.00055126535
-0.00062268548
0.00059573798
-0.00071300011
0.00063965464
-0.00081030559
0.00068363738
-0.00091454121
0.00072811313
-0.0010256192
0.00077323037
-0.0011433352
0.0008188783
-0.0012672542
0.00086473682
-0.0013965557
0.0009103139
-0.0015298044
0.00095497181
-0.0016645142
0.00099775821
-0.0017963784
0.0010365089
-0.0019180827
0.0010666733
-0.002017052
0.0010795988
-0.002071588
0.00105883
-0.0020448164
0.00097520826
-0.0018756931
0.00078125681
-0.0014658632
0.00040310895
-0.00066293478
-0.00026107901
0.00076486669
-0.001348382
0.0031652061
-0.0030779312
0.0069791247
-0.0057641407
0.012703811
-0.0094380636
0.021036599
-0.014151018
0.033094387
-0.020750973
0.050397056
-0.032619075
0.073832018
-0.056354009
0.098992473
-0.095543821
0.11554464
-0.13947864
0.12084778
-0.17553102
-0.19211166
0.12201501
-5.3867433e-09
7.4846181e-08
-2.4014168e-08
2.5844084e-07
-6.038311e-08
5.0355736e-07
-1.2024073e-07
8.2632018e-07
-2.108991e-07
1.2466428e-06
-3.4163464e-07
1.7890526e-06
-5.2417868e-07
2.4836724e-06
-7.7332668e-07
3.3673903e-06
-1.107687e-06
4.4852423e-06
-1.5505989e-06
5.8920337e-06
-2.1312561e-06
7.6542296e-06
-2.8860689e-06
9.8521248e-06
-3.8603165e-06
1.2582317e-05
-5.1101312e-06
1.5960473e-05
-6.7048656e-06
2.0124343e-05
-8.7298998e-06
2.5236997e-05
-1.1289926e-05
3.149011e-05
-1.451276e-05
3.9107135e-05
-1.85537e-05
4.834605e-05
-2.3600392e-05
5.9501204e-05
-2.9878181e-05
7.2903654e-05
-3.765577e-05
8.8919011e-05
-4.7250943e-05
0.00010794156
-5.9035965e-05
0.00013038285
-7.3442027e-05
0.00015665236
-9.0961854e-05
0.00018712704
-0.00011214919
0.00022210596
-0.00013761331
0.00026174609
-0.00016800587
0.00030597806
-0.00020399598
0.000354409
-0.00024622801
0.00040624063
-0.00029525732
0.00046026571
-0.00035146847
0.00051503161
-0.00041500542
0.00056920941
-0.00048576477
0.00062202469
-0.00056347386
0.00067344707
-0.00064780148
0.00072398227
-0.0007384217
0.00077425759
-0.00083499891
0.00082469034
-0.00093711013
0.00087534158
-0.0010441253
0.00092589346
-0.001155048
0.00097565952
-0.0012682968
0.0010235627
-0.0013813839
0.0010680589
-0.0014903118
0.0011066861
-0.00158859
0.0011347872
-0.0016656262
0.0011437095
-0.0017036786
0.0011176511
-0.0016725867
0.0010277381
-0.0015216656
0.00082428723
-0.0011687453
0.00042833644
-0.00048396305
-0.00028167325
0.00073330345
-0.0014783455
0.0027842522
-0.0033993307
0.0060987727
-0.0063924518
0.011240786
-0.010906154
0.018935668
-0.017132946
0.030027914
-0.025243264
0.045574712
-0.036297771
0.066301143
-0.053345506
0.090356167
-0.080409033
0.10993243
-0.11512009
0.11952367
-0.14906988
0.12235598
-0.17836332
-0.19327021
0.12351453
-4.0644012e-09
7.8910582e-08
-1.8133124e-08
2.7250956e-07
-4.5632255e-08
5.3105649e-07
-9.0955072e-08
8.71643e-07
-1.597184e-07
1.3154061e-06
-2.5908171e-07
1.8884159e-06
-3.9814803e-07
2.6227388e-06
-5.8846039e-07
3.5577026e-06
-8.4462033e-07
4.7414023e-06
-1.1850521e-06
6.2324654e-06
-1.6329422e-06
8.1021197e-06
-2.2174004e-06
1.0436583e-05
-2.9748684e-06
1.3339785e-05
-3.9508423e-06
1.6936447e-05
-5.2019487e-06
2.1375449e-05
-6.7984377e-06
2.6833486e-05
-8.8271508e-06
3.3518824e-05
-1.1395026e-05
4.1675011e-05
-1.4633164e-05
5.1584188e-05
-1.8701512e-05
6.3569551e-05
-2.3794126e-05
7.7996268e-05
-3.0144965e-05
9.526985e-05
-3.8034051e-05
0.00011583065
-4.7793685e-05
0.00014014249
-5.9814336e-05
0.00016867301
-7.4549382e-05
0.00020186209
-9.2517697e-05
0.00024007427
-0.00011430237
0.00028353076
-0.00014054281
0.0003322185
-0.00017191585
0.00038578204
-0.00020909841
0.0004434232
-0.00025270299
0.00050387028
-0.00030318298
0.00056551161
-0.00036073125
0.00062675768
-0.00042523101
0.00068652445
-0.00049630597
0.00074452203
-0.00057343327
0.00080110957
-0.00065602535
0.00085684967
-0.00074342341
0.0009120884
-0.00083480574
0.00096672391
-0.00092903264
0.0010201204
-0.0010244308
0.0010710577
-0.0011184923
0.0011176242
-0.0012074197
0.0011569863
-0.0012853064
0.0011845728
-0.0013428489
0.0011923296
-0.0013650686
0.0011659293
-0.0013270444
0.0010796269
-0.001186375
0.00088706868
-0.00087246056
0.00051037281
-0.00027313535
-0.00017098877
0.00079055664
-0.0013453652
0.0026031755
-0.0032909644
0.0055950427
-0.0063911978
0.010383088
-0.011180497
0.017763538
-0.018286604
0.028507731
-0.027877139
0.043152498
-0.039888031
0.061694072
-0.054839344
0.08283769
-0.074489124
0.1020313
-0.099602639
0.1140974
-0.12718619
0.12008065
-0.15505312
0.122752
-0.18103468
-0.19578983
0.12527162
-2.7530312e-09
8.1663613e-08
-1.2299862e-08
2.8205639e-07
-3.0997888e-08
5.4975451e-07
-6.1892616e-08
9.0253773e-07
-1.0890844e-07
1.3624219e-06
-1.7709068e-07
1.9565982e-06
-2.7290804e-07
2.7185561e-06
-4.0463905e-07
3.6894336e-06
-5.8285032e-07
4.9196135e-06
-8.2100197e-07
6.4706171e-06
-1.1362e-06
8.4173177e-06
-1.5501323e-06
1.0850515e-05
-2.0902278e-06
1.3879881e-05
-2.7910879e-06
1.7637307e-05
-3.6962423e-06
2.2280604e-05
-4.8602935e-06
2.7997537e-05
-6.3515057e-06
3.5010036e-05
-8.2549337e-06
4.3578439e-05
-1.0676129e-05
5.4005383e-05
-1.3745505e-05
6.6638927e-05
-1.7623392e-05
8.1874156e-05
-2.2505784e-05
0.00010015224
-2.86307e-05
0.00012195556
-3.6285037e-05
0.00014779683
-4.5811517e-05
0.00017819949
-5.7615325e-05
0.0002136659
-7.216944e-05
0.00025462839
-9.0017284e-05
0.0003013786
-0.00011177013
0.00035397135
-0.00013809458
0.00041210648
-0.00016968192
0.00047501054
-0.00020718747
0.00054137584
-0.00025112846
0.0006094526
-0.00030175358
0.0006773828
-0.00035894602
0.00074371688
-0.00042223427
0.00080781028
-0.0004908941
0.0008697694
-0.00056404336
0.00092999893
-0.00064064537
0.00098869042
-0.00071940248
0.001045481
-0.00079855751
0.0010992754
-0.00087560474
0.0011481049
-0.00094687567
0.0011888952
-0.0010068829
0.0012169936
-0.0010471981
0.0012248879
-0.0010546412
0.0011997727
-0.0010079075
0.0011191956
-0.00087129509
0.00094301449
-0.00058351479
0.00059928838
-4.3967352e-05
-2.9174626e-05
0.00090956214
-0.0011245183
0.0025494102
-0.0029852133
0.0053230041
-0.0060645582
0.009913949
-0.010982143
0.017200998
-0.018467546
0.027926807
-0.029012414
0.042157259
-0.04210759
0.059101668
-0.05683244
0.07715271
-0.072890387
0.093827097
-0.091163511
0.10629219
-0.11206773
0.11431904
-0.13521304
0.11958006
-0.16031414
0.12285082
-0.18430544
-0.19984752
0.12690851
-1.5046519e-09
8.3168265e-08
-6.7455155e-09
2.8729726e-07
-1.7059606e-08
5.600686e-07
-3.420319e-08
9.1968131e-07
-6.0480182e-08
1.3886989e-06
-9.8903113e-08
1.9950211e-06
-1.5340797e-07
2.773061e-06
-2.2912117e-07
3.7651468e-06
-3.3270745e-07
5.0231998e-06
-4.7281086e-07
6.6107205e-06
-6.6061698e-07
8.6051238e-06
-9.1055929e-07
1.1100458e-05
-1.2412275e-06
1.4210549e-05
-1.6764862e-06
1.8072566e-05
-2.2468959e-06
2.2851013e-05
-2.9914695e-06
2.8742111e-05
-3.9598618e-06
3.5978428e-05
-5.2150266e-06
4.4833603e-05
-6.8365072e-06
5.5626863e-05
-8.9243512e-06
6.8726771e-05
-1.1603806e-05
8.4553611e-05
-1.5030816e-05
0.00010357925
-1.9398336e-05
0.00012632308
-2.4943432e-05
0.00015334192
-3.1954975e-05
0.00018521104
-4.0781587e-05
0.00022249251
-5.1839193e-05
0.00026568599
-6.5617013e-05
0.00031515642
-8.2679716e-05
0.00037103405
-0.00010366135
0.00043308811
-0.0001292425
0.00050059169
-0.00016009945
0.00057223279
-0.00019679804
0.00064615119
-0.00023963729
0.00072022205
-0.00028850898
0.00079258858
-0.00034285565
0.00086215695
-0.00040174876
0.00092866251
-0.00046397982
0.00099222999
-0.00052807124
0.0010527818
-0.00059215196
0.0011095617
-0.00065370318
0.0011608266
-0.0007091668
0.0012035685
-0.00075336203
0.0012330904
-0.00077852597
0.0012421576
-0.00077271049
0.0012190724
-0.00071700864
0.0011440709
-0.00058025993
0.00098244689
-0.00030934526
0.00067209982
0.00018704957
0.00010289355
0.0010608758
-0.0009030009
0.0025729888
-0.0026366312
0.0051808084
-0.005593033
0.0096380901
-0.01052184
0.016889338
-0.018233391
0.027595508
-0.029173716
0.041454763
-0.042871668
0.057063651
-0.057716478
0.072508518
-0.072277307
0.086380849
-0.086762717
0.097777542
-0.1025602
0.10645061
-0.12074081
0.11318428
-0.14194671
0.11857744
-0.1657073
0.12300808
-0.18873608
-0.20514947
0.12831004
-3.7706856e-10
8.3545333e-08
-1.7274176e-09
2.8864761e-07
-4.4632502e-09
5.6280444e-07
-9.170403e-09
9.2438846e-07
-1.6675509e-08
1.396204e-06
-2.8139124e-08
2.0064847e-06
-4.5176372e-08
2.7900982e-06
-7.0021091e-08
3.7899916e-06
-1.057441e-07
5.0589228e-06
-1.5653676e-07
6.6615131e-06
-2.2808895e-07
8.676676e-06
-3.2808056e-07
1.1200449e-05
-4.6681706e-07
1.4349286e-05
-6.5806521e-07
1.8263814e-05
-9.2010964e-07
2.3113058e-05
-1.2771231e-06
2.9099124e-05
-1.760894e-06
3.6462199e-05
-2.4130322e-06
4.5485742e-05
-3.2876866e-06
5.6501518e-05
-4.4549683e-06
6.9894052e-05
-6.0050974e-06
8.610374e-05
-8.0534494e-06
0.0001056276
-1.0746527e-05
0.00012901616
-1.4268943e-05
0.00015686434
-1.8851312e-05
0.00018979341
-2.4778928e-05
0.00022842013
-3.2400758e-05
0.00027330782
-4.2137827e-05
0.00032489349
-5.4489075e-05
0.0003833853
-7.0030571e-05
0.00044862961
-8.9397887e-05
0.000519959
-0.00011324285
0.00059607775
-0.00014216979
0.00067507813
-0.00017650617
0.00075455843
-0.00021613304
0.00083221545
-0.0002604283
0.00090645221
-0.0003082618
0.000976496
-0.00035806407