/*--------------------------------*- C++ -*----------------------------------*\
  =========                 |
  \\      /  F ield         | OpenFOAM: The Open Source CFD Toolbox
   \\    /   O peration     | Website:  https://openfoam.org
    \\  /    A nd           | Version:  13
     \\/     M anipulation  |
\*---------------------------------------------------------------------------*/
FoamFile
{
    format      ascii;
    class       volSymmTensorField;
    location    "27.901384";
    object      UPrime2Mean;
}
// * * * * * * * * * * * * * * * * * * * * * * * * * * * * * * * * * * * * * //

dimensions      [0 2 -2 0 0 0 0];

internalField   nonuniform List<symmTensor> 
17140
(
(5.4736778e-12 -3.5833541e-10 -1.4083921e-27 2.5089322e-08 2.4679475e-26 7.6777266e-41)
(3.4705267e-10 -4.4546353e-09 -6.7122447e-28 2.3957672e-07 5.6206347e-27 6.8214461e-43)
(3.0620118e-09 -1.6545101e-08 1.1133405e-25 7.2896997e-07 -6.008902e-25 2.9737724e-39)
(1.4471554e-08 -4.2755949e-08 -2.4024948e-25 1.5727976e-06 9.3395896e-25 3.5939693e-39)
(4.8672931e-08 -9.1611608e-08 4.8467974e-26 2.8669954e-06 -1.4447412e-25 4.9117394e-41)
(1.3400661e-07 -1.7500627e-07 -2.5306788e-25 4.7260786e-06 6.013928e-25 5.2611182e-40)
(3.2332998e-07 -3.0899456e-07 -6.4590355e-25 7.2852246e-06 1.2524134e-24 1.4912098e-39)
(7.1013504e-07 -5.1458886e-07 4.6088383e-25 1.0702058e-05 -7.4065738e-25 3.5542497e-40)
(1.4534272e-06 -8.1842928e-07 2.1464979e-24 1.5157793e-05 -2.8901214e-24 3.8079324e-39)
(2.8152099e-06 -1.2530733e-06 7.3331557e-24 2.0857331e-05 -8.3429454e-24 2.290902e-38)
(5.2156786e-06 -1.8565191e-06 -1.488964e-23 2.8027783e-05 1.4408298e-23 5.0374881e-38)
(9.3126473e-06 -2.6704183e-06 1.7921769e-23 3.6914735e-05 -1.4824833e-23 4.0008749e-38)
(1.6113108e-05 -3.7362558e-06 3.6635742e-24 4.7775481e-05 -2.6005363e-24 9.3731918e-40)
(2.712574e-05 -5.0885809e-06 -2.7377499e-23 6.0868367e-05 1.6742774e-23 2.9982197e-38)
(4.4563176e-05 -6.7443235e-06 3.984683e-24 7.6437421e-05 -2.1037631e-24 3.69598e-40)
(7.1601055e-05 -8.6873366e-06 -4.1047552e-23 9.4691593e-05 1.8753965e-23 2.3190553e-38)
(0.00011269633 -1.0847886e-05 1.9697621e-24 0.00011577832 -7.8073974e-25 3.2118834e-41)
(0.00017395955 -1.3077969e-05 -5.7081629e-25 0.00013975179 1.9508385e-25 1.6081318e-42)
(0.00026356388 -1.512534e-05 -5.1202717e-23 0.00016653726 1.5273813e-23 8.0888001e-39)
(0.00039216134 -1.6611894e-05 8.3902372e-23 0.00019589395 -2.1754096e-23 1.3562256e-38)
(0.00057326579 -1.7025245e-05 -5.0699657e-23 0.00022738089 1.1424097e-23 3.1318606e-39)
(0.00082356326 -1.5734402e-05 1.2005955e-23 0.00026033189 -2.3570418e-24 1.1335916e-40)
(0.0011631292 -1.2039061e-05 1.0915209e-22 0.00029384876 -1.8603454e-23 6.1016685e-39)
(0.0016156079 -5.2554943e-06 -1.3283111e-22 0.00032682588 1.9680796e-23 6.0014756e-39)
(0.0022085987 5.1717912e-06 -2.5541381e-22 0.00035802467 3.289e-23 1.502443e-38)
(0.0029739856 1.9577408e-05 2.4530035e-22 0.00038621994 -2.746486e-23 9.5774813e-39)
(0.0039480953 3.8119474e-05 1.427579e-21 0.00041042674 -1.387932e-22 2.2805836e-37)
(0.0051751059 6.0711723e-05 1.9769685e-22 0.00043014939 -1.6664394e-23 3.1268745e-39)
(0.0067086203 8.7089696e-05 -2.0157566e-21 0.00044552844 1.4777643e-22 2.3846513e-37)
(0.0086120076 0.00011766179 -5.4507359e-22 0.00045729561 3.4657751e-23 1.2932082e-38)
(0.010962223 0.00015263899 -2.2317576e-21 0.00046646422 1.2315944e-22 1.6383207e-37)
(0.013850558 0.0001917641 3.3505815e-21 0.00047380635 -1.6035041e-22 2.831615e-37)
(0.017385159 0.00023550316 -9.920996e-22 0.00047970682 4.1021191e-23 1.9223106e-38)
(0.021691324 0.00028463118 -5.3496661e-22 0.00048422053 1.9109793e-23 4.3988572e-39)
(0.026911912 0.00034030934 -5.9243519e-21 0.00048716943 1.8120667e-22 4.2688833e-37)
(0.033206438 0.00040397581 2.9086834e-21 0.00048825234 -7.606553e-23 8.2707114e-38)
(0.040748132 0.00047732712 -4.8919843e-21 0.00048715449 1.0819391e-22 1.8910507e-37)
(0.049717419 0.00056236013 -3.6739942e-21 0.00048362654 6.8141756e-23 8.7234893e-38)
(0.060289937 0.00066139715 -1.8576321e-21 0.00047759571 2.8500296e-23 1.8410032e-38)
(0.072616787 0.00077725253 6.1690878e-21 0.00046936773 -7.730039e-23 1.7000663e-37)
(0.086795556 0.00091308073 1.2699473e-20 0.00045986778 -1.2659672e-22 6.0755613e-37)
(0.1028329 0.0010720861 1.2483445e-20 0.00045068664 -9.5917709e-23 5.0079309e-37)
(0.12060238 0.0012561748 5.8621616e-21 0.00044373195 -3.3064024e-23 9.5318469e-38)
(0.13981275 0.0014644511 -3.0540083e-20 0.00044061337 1.1499762e-22 2.2487338e-36)
(0.16000147 0.0016910843 -2.3706467e-20 0.00044222552 4.93044e-23 1.194519e-36)
(0.18054323 0.0019223542 6.1345376e-21 0.00044871557 -3.3177857e-24 7.1494852e-38)
(0.20077418 0.0021413932 -4.3597818e-20 0.00046004092 -3.9009148e-23 3.267048e-36)
(0.22010712 0.0023362193 -1.5358234e-20 0.00047683673 -3.4492396e-23 3.7187093e-37)
(0.23791679 0.0024979543 1.6098157e-20 0.00050080681 5.6939921e-23 3.8033207e-37)
(0.25398057 0.002621264 4.0221105e-20 0.00053319646 1.9196682e-22 2.2426062e-36)
(0.26805972 0.0027068941 -2.5073331e-20 0.00057539623 -1.4938778e-22 8.3612166e-37)
(0.27996624 0.0027676448 -1.5896321e-20 0.0006298363 -1.1299562e-22 3.2743584e-37)
(0.28941139 0.0028319582 4.1294255e-20 0.00069875655 3.427509e-22 2.1872999e-36)
(0.29632514 0.0029183694 1.9280343e-20 0.00078237164 1.8401331e-22 4.7996263e-37)
(0.30063564 0.0030162729 1.3450577e-20 0.00088052412 1.4611695e-22 2.3960243e-37)
(0.30266375 0.0031039488 -1.0275866e-20 0.00099703904 -1.2613407e-22 1.4547677e-37)
(0.30286889 0.0031651845 2.6588322e-20 0.0011397058 3.6648518e-22 1.0422888e-36)
(0.3012582 0.0031838815 2.1139429e-20 0.0013286449 3.2551037e-22 7.166861e-37)
(0.29763708 0.0031442656 4.9752713e-21 0.0016018546 8.477318e-23 4.4397274e-38)
(0.29115915 0.0030361576 -1.1953555e-20 0.002016862 -2.2101651e-22 2.9181766e-37)
(0.28070898 0.0028706887 -8.5511917e-21 0.0025944345 -1.667857e-22 1.7730702e-37)
(0.26594865 0.0026291561 -2.8576352e-20 0.003213319 -5.5470044e-22 2.4127691e-36)
(0.24498078 0.0021640183 -3.7108679e-21 0.0036113671 -6.5871867e-23 5.170499e-38)
(0.22160478 0.0014654684 2.7365636e-20 0.003662242 3.8055422e-22 3.6516106e-36)
(0.18863896 0.00051359875 -1.7854527e-20 0.0035513413 -1.726161e-22 2.1823376e-36)
(2.1876229e-10 -5.1338133e-09 1.7784796e-27 1.2053586e-07 -3.540686e-26 6.2176828e-42)
(3.4376171e-09 -6.2142968e-08 -6.0515685e-25 1.1412075e-06 9.5669143e-24 8.1851865e-38)
(1.5406258e-08 -2.2624346e-07 1.042598e-24 3.4462061e-06 -1.3529678e-23 6.4817827e-38)
(4.8108732e-08 -5.7827016e-07 -4.7509796e-25 7.3739119e-06 5.1446938e-24 4.8172608e-39)
(1.2358389e-07 -1.2322296e-06 -1.5198695e-24 1.3317603e-05 1.3950871e-23 2.0557274e-38)
(2.8141257e-07 -2.3512595e-06 4.2894687e-24 2.1725885e-05 -3.3765599e-23 7.5057621e-38)
(5.8986257e-07 -4.1628554e-06 -6.3928509e-24 3.3099913e-05 4.3474248e-23 8.1559705e-38)
(1.1629134e-06 -6.9771501e-06 7.854321e-25 4.7985519e-05 -4.6371452e-24 6.3172356e-40)
(2.1860954e-06 -1.1208904e-05 -3.3608551e-24 6.6958224e-05 1.7288405e-23 6.1572422e-39)
(3.954761e-06 -1.7401846e-05 -7.7048753e-26 9.0599037e-05 3.4621242e-25 1.7590115e-42)
(6.9296716e-06 -2.6253748e-05 -2.0231242e-23 0.00011945905 7.9620683e-23 6.8623326e-38)
(1.181608e-05 -3.863932e-05 4.2486736e-23 0.00015401093 -1.4668258e-22 1.7322291e-37)
(1.967376e-05 -5.5626368e-05 4.5999387e-24 0.00019458699 -1.3951801e-23 1.181221e-39)
(3.206627e-05 -7.8478545e-05 -5.9072303e-23 0.00024130485 1.5759046e-22 1.1498382e-37)
(5.1257656e-05 -0.0001086361 2.3445417e-23 0.00029398554 -5.5062974e-23 1.0831433e-38)
(8.0463197e-05 -0.00014766481 1.9125676e-23 0.00035207266 -3.9566757e-23 4.3585222e-39)
(0.00012415645 -0.00019716369 -1.5494175e-22 0.00041456685 2.8243924e-22 1.748189e-37)
(0.00018842768 -0.00025862634 6.4052633e-22 0.00047999468 -1.0289714e-21 1.8468959e-36)
(0.00028137799 -0.00033326003 -5.0576382e-22 0.00054643416 7.1592829e-22 7.1965569e-37)
(0.00041352165 -0.00042178254 7.5922361e-22 0.0006116168 -9.4667287e-22 1.0250726e-36)
(0.00059815987 -0.00052423921 -1.3951699e-21 0.00067311595 1.5317055e-21 2.2165073e-36)
(0.0008516902 -0.00063990475 4.2225366e-22 0.00072861012 -4.0794117e-22 1.3180919e-37)
(0.0011938332 -0.00076734658 2.1299534e-22 0.00077618263 -1.809718e-22 2.2113112e-38)
(0.0016478273 -0.00090471778 -8.4579672e-22 0.00081459255 6.3149952e-22 2.3327167e-37)
(0.0022408278 -0.0010503118 3.6595318e-21 0.00084344865 -2.4002029e-21 2.9780129e-36)
(0.0030043175 -0.001203173 6.5195419e-22 0.00086325243 -3.7531599e-22 6.5435173e-38)
(0.0039741252 -0.0013633879 -3.9881821e-21 0.00087527838 2.0165648e-21 1.7371912e-36)
(0.0051938522 -0.0015324681 5.2428584e-21 0.00088116251 -2.3274093e-21 2.162039e-36)
(0.0067165369 -0.0017130147 -8.3637016e-22 0.00088280735 3.2632151e-22 4.0584233e-38)
(0.0086046899 -0.0019071789 -9.4785239e-21 0.00088251996 3.2453933e-21 3.8657844e-36)
(0.010934252 -0.0021173528 1.1263309e-21 0.00088210571 -3.3877008e-22 4.1479031e-38)
(0.013795197 -0.0023459188 9.8688473e-21 0.00088226664 -2.6025168e-21 2.4337812e-36)
(0.017293992 -0.0025938516 2.8615624e-22 0.00088280889 -6.5808729e-23 1.5453683e-39)
(0.02155381 -0.0028608647 -9.4500106e-21 0.00088297018 1.9116412e-21 1.3633243e-36)
(0.026714818 -0.0031451781 1.1867029e-20 0.00088172788 -2.0979863e-21 1.7094253e-36)
(0.032933066 -0.0034432663 -5.9918017e-21 0.00087801802 9.2395992e-22 3.4953698e-37)
(0.040377295 -0.0037491995 7.852934e-21 0.0008708638 -1.0551729e-21 4.8876816e-37)
(0.049222063 -0.0040535295 2.7750095e-20 0.00085945933 -3.2400736e-21 4.9910484e-36)
(0.059635342 -0.0043419189 6.8733013e-21 0.00084335154 -6.9574612e-22 2.527432e-37)
(0.0717583 -0.0045936688 2.948737e-20 0.00082279558 -2.5815229e-21 3.8943639e-36)
(0.085675993 -0.0047809012 -4.1191346e-20 0.00079924617 3.1065979e-21 6.4319761e-36)
(0.10137991 -0.0048696075 -4.1161708e-20 0.00077568269 2.6584593e-21 5.4725702e-36)
(0.1187263 -0.0048238694 -7.6170828e-21 0.00075664717 4.181077e-22 1.6062804e-37)
(0.13740478 -0.0046134387 6.4901062e-20 0.00074804153 -2.9967456e-21 1.0266885e-35)
(0.15692908 -0.004223666 -3.2692746e-20 0.00075669893 1.250702e-21 2.290477e-36)
(0.17665565 -0.0036678955 -1.1960203e-20 0.00078941347 3.7139721e-22 2.7363833e-37)
(0.1958806 -0.0029911974 6.6723481e-21 0.00085125314 -1.6306592e-22 7.7952623e-38)
(0.21398306 -0.0022538231 2.1651473e-20 0.00094237906 -3.9642956e-22 7.5081978e-37)
(0.23048234 -0.0015235451 -1.0896865e-20 0.0010544467 1.3864604e-22 1.7755176e-37)
(0.24504889 -0.00084762684 2.0173533e-20 0.0011754793 -1.5168444e-22 5.7566476e-37)
(0.25746949 -0.00022555281 1.229114e-19 0.0012961236 -3.3284955e-22 2.0568733e-35)
(0.26756044 0.0003638886 5.8885412e-21 0.0014143804 1.1182651e-23 4.6254976e-38)
(0.27515086 0.0009316555 -2.6427361e-20 0.0015366867 -1.6347847e-22 9.2459236e-37)
(0.28020843 0.0014658078 5.8017221e-20 0.0016686947 6.1012014e-22 4.505611e-36)
(0.28293996 0.0019215521 -4.8429447e-20 0.0018144379 -7.209338e-22 3.2328448e-36)
(0.28377361 0.002259249 1.3304435e-19 0.0019753293 2.5692357e-21 2.5611758e-35)
(0.28322629 0.0025068631 3.6388434e-20 0.0021517572 8.7312725e-22 2.051374e-36)
(0.28149855 0.0027089805 -9.7068934e-20 0.0023561235 -2.8015093e-21 1.6024886e-35)
(0.27839915 0.002950577 1.5479606e-20 0.0026232896 5.3112509e-22 4.5598777e-37)
(0.27301771 0.0032757258 1.6308218e-20 0.0030157518 6.4790811e-22 5.8739819e-37)
(0.26395553 0.0037066526 2.9764328e-21 0.0035603631 1.3434449e-22 2.3457957e-38)
(0.25083928 0.0041036771 -3.5562328e-20 0.0041662658 -1.7751846e-21 4.12137e-36)
(0.23120733 0.0042151877 6.086839e-20 0.0045489988 3.2380828e-21 1.5621129e-35)
(0.20928869 0.0041198704 1.5846996e-20 0.0046475278 8.7115442e-22 1.3999225e-36)
(0.17682709 0.0031803139 2.1876622e-20 0.0046331545 1.2735557e-21 3.866616e-36)
(1.8204952e-09 -2.600097e-08 2.6028022e-25 3.7136469e-07 -3.5049072e-24 1.8898537e-38)
(2.078688e-08 -2.7014853e-07 -4.2044884e-25 3.5136454e-06 5.1744496e-24 7.4773562e-39)
(7.4043912e-08 -8.8508823e-07 -1.9355446e-25 1.0603972e-05 2.1810409e-24 5.2888876e-40)
(1.8849517e-07 -2.0628219e-06 2.7931812e-25 2.2675282e-05 -2.8791424e-24 4.7552099e-40)
(4.0632215e-07 -4.0632267e-06 -1.9391893e-24 4.0924169e-05 1.8296148e-23 1.1167017e-38)
(7.9456138e-07 -7.2429698e-06 -1.9956025e-25 6.6710005e-05 1.7237361e-24 6.1737902e-41)
(1.4579041e-06 -1.2083011e-05 -3.4417213e-24 0.00010154323 2.7186264e-23 1.008119e-38)
(2.557495e-06 -1.9221716e-05 -4.9244842e-24 0.00014705669 3.551187e-23 1.170335e-38)
(4.3384673e-06 -2.949411e-05 5.276788e-23 0.00020495365 -3.4669972e-22 7.8180449e-37)
(7.169418e-06 -4.397508e-05 -6.1190254e-23 0.00027692581 3.6554913e-22 6.2324858e-37)
(1.1598182e-05 -6.4023758e-05 3.7748268e-23 0.00036453461 -2.0462957e-22 1.4272388e-37)
(1.8429336e-05 -9.1324028e-05 7.0883708e-23 0.00046905028 -3.4800497e-22 3.0636693e-37)
(2.8829893e-05 -0.00012791334 -1.7924e-22 0.00059124726 7.9548482e-22 1.2043824e-36)
(4.4470338e-05 -0.00017618853 -2.8181532e-23 0.00073116075 1.1285741e-22 1.8442821e-38)
(6.7707963e-05 -0.0002388738 1.3761584e-22 0.00088781995 -4.964056e-22 2.7468854e-37)
(0.00010181813 -0.00031893395 1.1925256e-22 0.0010589889 -3.8678129e-22 1.2960842e-37)
(0.00015127545 -0.00041941655 -1.7366246e-22 0.0012409636 5.0554787e-22 1.7388115e-37)
(0.0002220809 -0.00054321326 7.8642545e-22 0.0014284928 -2.0511101e-21 2.2710129e-36)
(0.00032212201 -0.00069274606 -5.7887603e-22 0.0016149015 1.3502172e-21 7.8990883e-37)
(0.00046154394 -0.00086961131 3.5488914e-22 0.0017924918 -7.3888849e-22 1.9207009e-37)
(0.00065310158 -0.0010742523 -1.4748566e-21 0.0019532603 2.7360105e-21 2.1692e-36)
(0.00091246503 -0.0013057718 -4.6990197e-22 0.0020898995 7.7526922e-22 1.4556595e-37)
(0.0012584647 -0.0015620198 1.1922593e-21 0.002196944 -1.7464244e-21 6.2779149e-37)
(0.0017133172 -0.0018400789 -2.1661776e-21 0.0022718081 2.8123731e-21 1.4076509e-36)
(0.0023030429 -0.0021372209 -1.0220441e-21 0.0023154009 1.1742435e-21 2.1596048e-37)
(0.003058043 -0.0024520573 1.4558648e-21 0.0023320817 -1.4790967e-21 3.0864245e-37)
(0.0040128551 -0.0027850522 9.744334e-21 0.0023287859 -8.7419633e-21 9.8615768e-36)
(0.0052095534 -0.0031392971 5.1554447e-21 0.0023129729 -4.0815015e-21 2.0035927e-36)
(0.0066995548 -0.0035198528 -2.978859e-21 0.0022913111 2.0814489e-21 4.9653251e-37)
(0.0085431337 -0.0039314878 3.6845134e-21 0.0022697194 -2.2683994e-21 5.6677227e-37)
(0.010813493 -0.0043791826 -2.6307405e-21 0.002252106 1.4281076e-21 2.2187637e-37)
(0.01359704 -0.0048674192 -1.7029646e-20 0.0022395429 8.1303061e-21 7.1328744e-36)
(0.016995783 -0.0053985544 6.4723976e-21 0.0022309915 -2.7161604e-21 8.0448451e-37)
(0.021127273 -0.0059726806 2.1852701e-20 0.0022242096 -8.0497092e-21 7.230023e-36)
(0.026124621 -0.0065872482 -8.1897763e-21 0.0022164617 2.6465387e-21 8.1414054e-37)
(0.032134927 -0.0072364303 -1.2879485e-20 0.0022049006 3.6430174e-21 1.6163631e-36)
(0.039315503 -0.0079097894 2.4921592e-20 0.002186651 -6.1645409e-21 4.9218811e-36)
(0.04782622 -0.0085901437 8.4677099e-21 0.0021588575 -1.8287374e-21 4.652991e-37)
(0.057816181 -0.0092508705 -1.6626566e-20 0.0021189401 3.1326034e-21 1.4957505e-36)
(0.069402601 -0.0098532122 -7.3300868e-21 0.0020653167 1.2019554e-21 2.4423289e-37)
(0.082640855 -0.010344609 3.8621597e-20 0.0019985455 -5.4917897e-21 5.7234444e-36)
(0.097486949 -0.010660548 -1.186469e-20 0.001922919 1.4563196e-21 4.6593888e-37)
(0.11375697 -0.010731871 -1.8614927e-20 0.001848132 1.9625719e-21 9.8787722e-37)
(0.13109777 -0.01049852 -5.3485084e-20 0.0017906511 4.7997656e-21 7.1109028e-36)
(0.14897872 -0.0099283501 1.0845185e-19 0.0017735182 -8.1807255e-21 2.5926773e-35)
(0.1667263 -0.00904132 -7.4369405e-20 0.0018231984 4.6370017e-21 1.0927345e-35)
(0.1836498 -0.0079251093 -1.9753982e-20 0.0019607462 9.9729523e-22 6.9745687e-37)
(0.1991554 -0.006703076 -8.1237883e-20 0.0021867274 3.2032347e-21 1.0949799e-35)
(0.2128129 -0.0054895796 -1.005442e-19 0.0024729928 2.9583336e-21 1.5731668e-35)
(0.22437425 -0.0043696282 -5.2376497e-21 0.0027769578 1.08804e-22 4.0413256e-38)
(0.23374492 -0.0033596167 2.2468508e-20 0.0030625942 -2.6444012e-22 7.2141324e-37)
(0.24086244 -0.0024311793 -1.656996e-19 0.003320592 5.6608664e-22 3.876873e-35)
(0.24570092 -0.0015732707 -7.0269376e-20 0.0035695319 -2.9951334e-22 6.9814766e-36)
(0.24836288 -0.00082732228 -7.1131621e-20 0.0038317513 -8.3999563e-22 7.2900068e-36)
(0.24924677 -0.00026697413 -2.2790625e-20 0.004116844 -4.4691024e-22 7.7697837e-37)
(0.24889692 6.6142981e-05 -1.6994409e-19 0.0044162581 -4.6062504e-21 4.5816351e-35)
(0.24794349 0.00024439147 6.4472699e-20 0.0047079349 2.2837777e-21 7.1300105e-36)
(0.24660966 0.00040643501 -1.8463605e-20 0.0049799419 -8.1005155e-22 6.5173775e-37)
(0.24452341 0.00077184341 -1.4152103e-19 0.0052458784 -7.5724736e-21 4.3386556e-35)
(0.24068285 0.0014475089 -5.174082e-20 0.0055607121 -3.3103245e-21 6.7998215e-36)
(0.23321616 0.0024534162 5.5630347e-20 0.0059619642 4.1606216e-21 9.5945338e-36)
(0.22181489 0.003545305 1.702006e-19 0.0063898689 1.4536413e-20 1.1326479e-34)
(0.20333644 0.0042837844 -4.7099027e-20 0.0065534977 -4.4760378e-21 1.1552701e-35)
(0.18367779 0.0048700759 -6.5013324e-20 0.0065113777 -6.7988411e-21 3.001842e-35)
(0.15260959 0.0041024064 -2.2638656e-20 0.0063504396 -2.6720103e-21 5.5072701e-36)
(7.236406e-09 -7.3574164e-08 -1.7065628e-24 7.480484e-07 1.684678e-23 2.1194679e-37)
(7.4801882e-08 -7.2771364e-07 5.6561372e-24 7.0802904e-06 -5.3440724e-23 3.8871444e-37)
(2.4522456e-07 -2.2891375e-06 -3.3847005e-24 2.1375287e-05 3.0550625e-23 5.0823877e-38)
(5.7389929e-07 -5.1210865e-06 5.3656743e-25 4.5726609e-05 -4.6163256e-24 6.0069539e-40)
(1.139856e-06 -9.6956391e-06 -1.4604633e-23 8.2564227e-05 1.1958236e-22 2.3479895e-37)
(2.0578448e-06 -1.6631717e-05 2.0133785e-23 0.00013465544 -1.566105e-22 2.5140682e-37)
(3.4932487e-06 -2.673181e-05 -3.9820546e-23 0.00020508418 2.9350803e-22 5.7861179e-37)
(5.6829064e-06 -4.1024843e-05 2.4050339e-23 0.00029719669 -1.6747007e-22 1.2812155e-37)
(8.9643783e-06 -6.0815753e-05 1.1610748e-22 0.0004145003 -7.6131312e-22 1.8525617e-36)
(1.3816231e-05 -8.773857e-05 -3.515752e-23 0.00056050134 2.1633868e-22 1.0715045e-37)
(2.0912954e-05 -0.0001238092 -1.6768085e-22 0.0007384678 9.6499655e-22 1.5549068e-36)
(3.1198863e-05 -0.00017147103 6.3818416e-23 0.00095110427 -3.4231156e-22 1.4498573e-37)
(4.5986156e-05 -0.00023362357 5.2952786e-24 0.0012001338 -2.6381962e-23 6.4808441e-40)
(6.7082587e-05 -0.0003136192 -2.57356e-22 0.0014857942 1.1869379e-21 9.9348693e-37)
(9.6954292e-05 -0.00041521042 9.9621772e-22 0.0018062767 -4.2388316e-21 9.7254221e-36)
(0.00013892791 -0.00054242603 -7.5538464e-22 0.0021571678 2.9552318e-21 3.6649695e-36)
(0.00019743395 -0.00069935705 -8.8767966e-24 0.0025309905 3.1822919e-23 3.3253942e-40)
(0.00027828845 -0.00088984084 6.3375658e-22 0.0029169846 -2.075005e-21 1.1195378e-36)
(0.00038900475 -0.0011170528 -1.9751303e-21 0.0033012999 5.8862646e-21 7.2086669e-36)
(0.00053911952 -0.0013830472 1.1404397e-21 0.0036677649 -3.0833069e-21 1.6024792e-36)
(0.00074051391 -0.0016883413 2.0730932e-21 0.003999347 -5.0679457e-21 3.5550224e-36)
(0.0010077123 -0.0020316859 1.0188128e-21 0.0042802675 -2.244755e-21 5.8108849e-37)
(0.0013581528 -0.0024102001 -6.0798611e-21 0.0044985059 1.2037027e-20 1.4174094e-35)
(0.0018124572 -0.0028200313 -3.8120638e-21 0.0046481782 6.7615892e-21 3.8587303e-36)
(0.0023948739 -0.003257641 2.9332937e-21 0.0047310687 -4.6495808e-21 1.6074159e-36)
(0.0031340451 -0.0037214897 -2.0269913e-21 0.0047566918 2.8636744e-21 5.4592388e-37)
(0.0040625602 -0.004212685 8.9163345e-21 0.004740553 -1.1208399e-20 7.6615447e-36)
(0.0052200646 -0.0047361969 -2.9888631e-21 0.0046998565 3.3369231e-21 6.3282902e-37)
(0.0066552418 -0.0052995875 9.3328321e-21 0.0046489744 -9.2424514e-21 4.6110641e-36)
(0.0084249795 -0.0059103535 -6.073886e-21 0.0045996571 5.3283117e-21 1.4807588e-36)
(0.010598093 -0.0065760386 4.3097644e-21 0.0045596035 -3.3430454e-21 5.7087937e-37)
(0.013255346 -0.0073031002 -1.8005259e-20 0.0045309635 1.2337432e-20 7.7569641e-36)
(0.01649171 -0.0080951333 2.9310715e-21 0.0045117238 -1.77175e-21 1.6198158e-37)
(0.020415904 -0.0089523649 -1.749681e-20 0.0044975277 9.3127132e-21 4.5689383e-36)
(0.025149982 -0.0098711572 1.8840656e-20 0.0044830024 -8.8226374e-21 4.2545112e-36)
(0.030827181 -0.010842983 6.7753979e-21 0.0044623778 -2.7867159e-21 4.427957e-37)
(0.037587269 -0.011852442 -9.4018397e-20 0.0044295248 3.3957932e-20 7.0235538e-35)
(0.045567914 -0.012874157 -2.727279e-20 0.004377902 8.6349402e-21 4.8724141e-36)
(0.054890258 -0.013868908 2.4970141e-20 0.0043009282 -6.9207605e-21 3.4132802e-36)
(0.065636859 -0.014779832 -2.6981815e-20 0.0041932357 6.5324286e-21 3.3565422e-36)
(0.077821618 -0.015530428 7.6124517e-21 0.0040530521 -1.6042571e-21 2.2605195e-37)
(0.091353554 -0.016027465 5.1721014e-20 0.003885934 -9.4635203e-21 9.0152136e-36)
(0.10599976 -0.016172003 -2.5873469e-21 0.0037095442 4.0907015e-22 1.9755438e-38)
(0.12136126 -0.01588003 -2.0198141e-20 0.0035577368 2.7282508e-21 1.0439433e-36)
(0.13687344 -0.01511197 1.0433618e-20 0.0034809776 -1.1845113e-21 2.5107844e-37)
(0.15186918 -0.013910525 -5.6495864e-21 0.0035390818 5.3845804e-22 6.326662e-38)
(0.1657257 -0.012417551 -1.6864358e-20 0.0037787651 1.3090409e-21 5.3155212e-37)
(0.17793883 -0.010824977 2.6910148e-19 0.004199292 -1.6589088e-20 1.2689539e-34)
(0.18822994 -0.0093055039 -3.1021194e-20 0.0047367918 1.4406133e-21 1.5918183e-36)
(0.19652398 -0.0079665904 2.9242691e-20 0.0052964643 -9.7807473e-22 1.357371e-36)
(0.20286442 -0.0068118497 -2.7765806e-19 0.0058015291 5.8418705e-21 1.1936834e-34)
(0.20728802 -0.0057921556 1.5206028e-19 0.006235927 -1.4398881e-21 3.5539455e-35)
(0.20986617 -0.0049009486 1.238548e-19 0.0066428897 2.3970602e-22 2.3791012e-35)
(0.21081744 -0.0042093905 1.1572318e-19 0.0070732383 1.4979479e-21 2.1377092e-35)
(0.21065688 -0.003811757 1.0793041e-19 0.0075464797 2.5884324e-21 1.9510016e-35)
(0.21000987 -0.0037298274 1.6225031e-19 0.0080375528 5.7302947e-21 4.7252754e-35)
(0.20945673 -0.0038161355 -3.0742301e-19 0.0084884954 -1.4598233e-20 1.8571227e-34)
(0.20907059 -0.0038210501 1.7723926e-19 0.0088466149 1.0730866e-20 6.9286592e-35)
(0.20814656 -0.0033946482 2.4840975e-19 0.0090897014 1.8628092e-20 1.5742349e-34)
(0.20547912 -0.0023483214 -1.6601702e-19 0.0092573653 -1.5176071e-20 8.3943724e-35)
(0.19873575 -0.00070142637 -4.730484e-20 0.0094039527 -5.1509802e-21 8.4965653e-36)
(0.18793936 0.0011944276 -3.6121604e-20 0.0094956577 -4.5768087e-21 6.4443015e-36)
(0.16932412 0.002569594 1.5709905e-19 0.0092936761 2.291027e-20 1.6694299e-34)
(0.15052313 0.0037750263 9.6959994e-20 0.0089184672 1.6084261e-20 9.0095068e-35)
(0.12100227 0.0033235946 -3.3299666e-21 0.0084326775 -6.4856852e-22 1.7490187e-37)
(1.9508615e-08 -1.5301167e-07 1.9890692e-24 1.200116e-06 -1.5328948e-23 1.0508593e-37)
(1.9353356e-07 -1.4831959e-06 -1.3458256e-23 1.1367107e-05 1.0125118e-22 8.3914846e-37)
(6.117309e-07 -4.5831313e-06 1.7761592e-23 3.4339466e-05 -1.3017113e-22 5.5783927e-37)
(1.3767227e-06 -1.0059457e-05 -9.5767145e-24 7.3513495e-05 6.8260492e-23 7.9687018e-38)
(2.6263568e-06 -1.8676317e-05 -4.6639764e-24 0.00013284504 3.2285164e-23 1.0403663e-38)
(4.5479615e-06 -3.1398047e-05 5.2392664e-23 0.00021685894 -3.5162331e-22 7.7067892e-37)
(7.3952502e-06 -4.9431325e-05 -1.6951027e-23 0.00033062553 1.1005131e-22 4.9465947e-38)
(1.1510684e-05 -7.4271884e-05 -4.5282659e-23 0.00047968472 2.8364721e-22 2.2317084e-37)
(1.7355565e-05 -0.00010775608 -4.320993e-24 0.00066989667 2.6037625e-23 1.3148929e-39)
(2.5549676e-05 -0.00015211297 -4.5306099e-23 0.00090719572 2.6181013e-22 9.4984392e-38)
(3.6923207e-05 -0.00021001202 7.7841275e-23 0.0011972218 -4.2994426e-22 1.8646916e-37)
(5.2584056e-05 -0.00028459822 -6.6107113e-23 0.0015448072 3.4779282e-22 9.0201241e-38)
(7.4004267e-05 -0.00037950358 -2.9686367e-22 0.0019533041 1.4823204e-21 1.2266141e-36)
(0.00010312929 -0.00049881905 -1.0503784e-23 0.0024237593 4.9594615e-23 1.0373381e-39)
(0.00014251398 -0.00064700809 3.3521632e-22 0.0029539704 -1.4908465e-21 7.1918245e-37)
(0.00019548833 -0.00082874125 2.8815943e-22 0.0035375154 -1.2023897e-21 3.6149997e-37)
(0.00026635454 -0.0010486327 -3.006745e-22 0.0041628994 1.1722992e-21 2.6816796e-37)
(0.00036061478 -0.0013108718 3.4885156e-23 0.0048130506 -1.2655804e-22 2.4743868e-39)
(0.00048522563 -0.0016187626 8.5854993e-22 0.0054654468 -2.8857452e-21 1.0226314e-36)
(0.00064887208 -0.0019742246 1.262749e-21 0.0060931883 -3.9152676e-21 1.5196459e-36)
(0.00086225295 -0.0023773591 -1.7344486e-21 0.0066672409 4.9392315e-21 1.9804015e-36)
(0.0011383717 -0.0028262446 -2.0923465e-21 0.0071598826 5.4487922e-21 2.0042403e-36)
(0.001492837 -0.003317162 3.3598106e-21 0.0075489908 -7.9672682e-21 3.6248397e-36)
(0.0019441914 -0.0038454245 -4.9356289e-21 0.0078223545 1.0614288e-20 5.5412908e-36)
(0.0025143854 -0.0044069164 -1.0091624e-20 0.0079807881 1.9606178e-20 1.6600348e-35)
(0.0032296238 -0.0050001917 2.7862564e-20 0.0080387964 -4.8734127e-20 9.1960877e-35)
(0.0041202459 -0.005627516 -1.7848229e-20 0.0080222022 2.8017585e-20 2.7795474e-35)
(0.0052225505 -0.0062958683 3.0568695e-20 0.0079615663 -4.2948389e-20 6.0869878e-35)
(0.0065812555 -0.0070153283 -4.3852645e-20 0.0078821731 5.5017965e-20 9.4876502e-35)
(0.008249377 -0.0077966369 5.5904947e-20 0.0078041301 -6.2493033e-20 1.1821919e-34)
(0.010289698 -0.008649702 -6.5670122e-20 0.0077408919 6.5268279e-20 1.2661544e-34)
(0.012775642 -0.0095827545 1.2488705e-20 0.0076968167 -1.1016195e-20 3.6007296e-36)
(0.015792924 -0.010600431 4.8615984e-20 0.0076690703 -3.7987191e-20 4.3198527e-35)
(0.01943877 -0.011702759 -3.0755648e-20 0.0076506342 2.1258474e-20 1.3852812e-35)
(0.023820928 -0.012884592 1.0744258e-20 0.0076325218 -6.5608124e-21 1.3685293e-36)
(0.02905487 -0.014134226 3.4815718e-21 0.0076047883 -1.8767265e-21 1.1801054e-37)
(0.035258282 -0.015430815 4.7792504e-20 0.0075565492 -2.269491e-20 1.8180336e-35)
(0.042541444 -0.016740421 1.7235339e-20 0.0074758007 -7.2042375e-21 1.9589475e-36)
(0.050991993 -0.018011205 1.9149496e-20 0.0073499504 -7.0313851e-21 2.0230358e-36)
(0.060652674 -0.019168954 2.0682252e-20 0.0071678613 -6.6620918e-21 2.0096936e-36)
(0.071492355 -0.020115221 -1.147987e-19 0.0069239697 3.2328752e-20 5.2993242e-35)
(0.083372991 -0.020732013 5.4574639e-20 0.0066252948 -1.3383222e-20 1.0353045e-35)
(0.096019104 -0.020897206 9.4248594e-21 0.006300651 -2.0051376e-21 2.6533404e-37)
(0.1090029 -0.020513345 -1.1540697e-19 0.0060088986 2.1052232e-20 3.5710365e-35)
(0.1217624 -0.019550017 -6.212969e-20 0.0058402337 9.6386992e-21 9.2452421e-36)
(0.13369919 -0.018094965 3.207768e-20 0.0059015251 -4.1780772e-21 2.2468242e-36)
(0.1443282 -0.016362468 1.2182938e-19 0.0062709727 -1.3005091e-20 2.9760748e-35)
(0.15333121 -0.014608504 -5.469719e-20 0.0069353426 4.7048431e-21 5.634014e-36)
(0.16062132 -0.013042635 1.6382552e-19 0.0077753175 -1.0767092e-20 4.7990255e-35)
(0.16627367 -0.011759024 9.0352673e-20 0.0086208389 -4.3349417e-21 1.4120411e-35)
(0.17039331 -0.010717341 1.2526588e-19 0.0093460104 -3.9967824e-21 2.6701121e-35)
(0.17303545 -0.0098365502 3.3482765e-19 0.0099390455 -5.3059094e-21 1.9087842e-34)
(0.17430137 -0.0091224416 -2.5487804e-19 0.010486851 2.3292078e-22 1.1281183e-34)
(0.17447694 -0.0086850369 8.1061898e-20 0.011080793 1.2110407e-21 1.1841989e-35)
(0.17414237 -0.0086334152 -1.3409526e-19 0.011749861 -3.8717163e-21 3.4440285e-35)
(0.17391869 -0.0089490444 -1.2132698e-19 0.012444588 -5.4230441e-21 3.0579447e-35)
(0.17421122 -0.009385327 -4.4626267e-20 0.01305786 -2.7570631e-21 4.6028382e-36)
(0.17481597 -0.0095640687 -3.7764468e-19 0.013482427 -2.9775878e-20 3.7560329e-34)
(0.17461789 -0.0090222345 -9.2956115e-20 0.013651586 -9.2158836e-21 2.679845e-35)
(0.17221445 -0.007508286 1.9147415e-19 0.01357781 2.3505525e-20 1.3868722e-34)
(0.16491519 -0.0051518158 6.3794944e-20 0.013363849 9.5507901e-21 1.9704447e-35)
(0.15342043 -0.0023978751 -4.1137624e-20 0.012966611 -7.3020407e-21 1.0979009e-35)
(0.133932 -0.00035274698 -7.1156745e-20 0.012303334 -1.4799716e-20 4.693628e-35)
(0.11490607 0.0013012633 -9.1247971e-20 0.011455043 -2.2282819e-20 1.1381205e-34)
(0.087982301 0.001166394 5.2951316e-21 0.010516751 1.5532678e-21 6.6194573e-37)
(4.1212631e-08 -2.6176461e-07 9.0199075e-24 1.6626154e-06 -5.6622969e-23 9.7559001e-37)
(4.0068778e-07 -2.5131367e-06 6.4052165e-24 1.5762652e-05 -3.9644433e-23 8.8039412e-38)
(1.2433014e-06 -7.6976927e-06 -8.283344e-24 4.7660076e-05 5.0454846e-23 5.7736124e-38)
(2.7416804e-06 -1.6732994e-05 -4.3080122e-23 0.00010212987 2.5799214e-22 7.8742426e-37)
(5.1184379e-06 -3.0750451e-05 3.143214e-23 0.00018475941 -1.8487764e-22 2.3646709e-37)
(8.6615532e-06 -5.1138827e-05 -5.8363877e-23 0.00030197668 3.3673817e-22 4.9011586e-37)
(1.3742623e-05 -7.9588498e-05 3.1879891e-23 0.0004610361 -1.801279e-22 9.1813883e-38)
(2.0839579e-05 -0.00011813676 9.4363622e-24 0.0006699356 -5.2109219e-23 5.2124049e-39)
(3.0565862e-05 -0.00016921385 -6.5608283e-23 0.00093723619 3.5328514e-22 1.6715366e-37)
(4.3706977e-05 -0.00023568389 -1.722278e-22 0.0012717493 9.0206498e-22 7.7731608e-37)
(6.1266296e-05 -0.00032087466 -1.0476708e-23 0.0016820543 5.323009e-23 1.9614131e-39)
(8.4521978e-05 -0.00042858701 4.132032e-22 0.0021758087 -2.0304675e-21 2.1081958e-36)
(0.00011509718 -0.00056307177 -6.8706505e-22 0.0027588236 3.2551888e-21 4.0441744e-36)
(0.00015504596 -0.00072895885 1.3307537e-21 0.0034338979 -6.0584054e-21 1.057419e-35)
(0.0002069572 -0.0009311217 -4.1665824e-22 0.0041994492 1.8161932e-21 7.2460613e-37)
(0.00027407887 -0.0011744591 1.0598348e-21 0.005048037 -4.4063607e-21 3.2834668e-36)
(0.00036046451 -0.0014635827 -1.5329165e-21 0.0059649809 6.0541252e-21 4.8205457e-36)
(0.00047114361 -0.0018024102 1.1903198e-21 0.0069273697 -4.4464909e-21 2.0429166e-36)
(0.00061231699 -0.0021936881 -2.2459227e-22 0.0079038861 7.8994551e-22 5.126564e-38)
(0.00079157846 -0.0026385073 -1.0867756e-21 0.0088559296 3.5820924e-21 8.4786342e-37)
(0.0010181657 -0.0031359255 3.1448906e-21 0.0097404591 -9.666542e-21 5.036816e-36)
(0.0013032456 -0.0036828631 -5.2688942e-21 0.010514732 1.5027447e-20 1.0089765e-35)