/*--------------------------------*- C++ -*----------------------------------*\
  =========                 |
  \\      /  F ield         | OpenFOAM: The Open Source CFD Toolbox
   \\    /   O peration     | Website:  https://openfoam.org
    \\  /    A nd           | Version:  13
     \\/     M anipulation  |
\*---------------------------------------------------------------------------*/
FoamFile
{
    format      ascii;
    class       volScalarField;
    location    "39.795939";
    object      p;
}
// * * * * * * * * * * * * * * * * * * * * * * * * * * * * * * * * * * * * * //

dimensions      [0 2 -2 0 0 0 0];

internalField   nonuniform List<scalar> 
17140
(
-0.30280826
-0.30281602
-0.30282521
-0.30283503
-0.3028458
-0.30285769
-0.30287078
-0.30288517
-0.30290097
-0.30291827
-0.3029372
-0.30295786
-0.30298034
-0.30300476
-0.30303118
-0.30305968
-0.30309032
-0.30312313
-0.3031581
-0.30319524
-0.30323451
-0.30327589
-0.3033194
-0.30336514
-0.30341341
-0.30346486
-0.30352077
-0.30358342
-0.30365673
-0.3037471
-0.30386458
-0.30402377
-0.30424372
-0.30454518
-0.30494419
-0.30544337
-0.30602593
-0.30665664
-0.30728973
-0.30787908
-0.30838643
-0.30878569
-0.30906133
-0.30920853
-0.30923906
-0.30916117
-0.30897098
-0.30866786
-0.30824499
-0.30770214
-0.30703038
-0.3063099
-0.30565998
-0.30550704
-0.30624325
-0.30884602
-0.31407274
-0.32332239
-0.33714609
-0.35187556
-0.31619748
-0.21936203
-0.13991189
-0.10670317
-0.12001348
-0.30206492
-0.30207242
-0.30208156
-0.30209095
-0.30210124
-0.30211262
-0.30212515
-0.30213893
-0.30215405
-0.30217062
-0.30218874
-0.30220852
-0.30223005
-0.30225343
-0.30227874
-0.30230603
-0.30233537
-0.30236676
-0.30240022
-0.30243571
-0.30247319
-0.30251261
-0.30255396
-0.30259729
-0.30264284
-0.30269114
-0.30274332
-0.30280145
-0.30286916
-0.30295244
-0.30306075
-0.3032079
-0.30341196
-0.30369266
-0.30406522
-0.30453198
-0.30507637
-0.30566364
-0.30624836
-0.30678426
-0.30723232
-0.30756509
-0.3077654
-0.30782594
-0.30775504
-0.30755887
-0.30723253
-0.30677538
-0.30618488
-0.30547293
-0.30465683
-0.30387812
-0.30338958
-0.30382848
-0.30593526
-0.3110801
-0.32092391
-0.33676365
-0.36227482
-0.39136822
-0.35606228
-0.24328939
-0.14158932
-0.089768011
-0.089406862
-0.30138276
-0.30138982
-0.30139844
-0.3014073
-0.30141699
-0.30142772
-0.30143953
-0.30145252
-0.30146677
-0.3014824
-0.30149949
-0.30151815
-0.30153847
-0.30156053
-0.30158442
-0.30161019
-0.30163788
-0.3016675
-0.30169905
-0.30173249
-0.30176776
-0.30180479
-0.30184352
-0.30188396
-0.30192626
-0.30197086
-0.30201873
-0.30207171
-0.30213308
-0.30220838
-0.30230638
-0.30243995
-0.30262605
-0.30288324
-0.30322587
-0.30365608
-0.3041578
-0.30469716
-0.3052294
-0.30570841
-0.30609457
-0.30635924
-0.30648368
-0.30645838
-0.30628824
-0.3059774
-0.30552034
-0.30491659
-0.30416787
-0.30329691
-0.30234381
-0.30150871
-0.30115385
-0.30215421
-0.30563366
-0.31329812
-0.32731947
-0.34940777
-0.38671099
-0.4283694
-0.39430562
-0.2625639
-0.13786402
-0.070361961
-0.059320283
-0.30076297
-0.30076951
-0.30077748
-0.30078569
-0.30079467
-0.3008046
-0.30081554
-0.30082757
-0.30084077
-0.30085525
-0.3008711
-0.3008884
-0.30090725
-0.30092773
-0.30094991
-0.30097383
-0.30099954
-0.30102703
-0.30105631
-0.3010873
-0.30111994
-0.30115412
-0.30118977
-0.30122683
-0.30126537
-0.30130574
-0.30134873
-0.30139592
-0.30145026
-0.30151673
-0.30160335
-0.30172197
-0.30188825
-0.30211945
-0.30242897
-0.3028188
-0.30327361
-0.30376076
-0.30423655
-0.3046553
-0.30497706
-0.30517213
-0.30522033
-0.30511013
-0.30484304
-0.30442108
-0.30383844
-0.30309471
-0.30219543
-0.30117179
-0.30008002
-0.29915349
-0.29897788
-0.30054757
-0.30513836
-0.31505049
-0.33320712
-0.36094207
-0.40903813
-0.45864431
-0.42654206
-0.27756307
-0.12810327
-0.049778884
-0.029901208
-0.30020566
-0.30021159
-0.30021883
-0.30022627
-0.30023442
-0.30024343
-0.30025336
-0.30026427
-0.30027626
-0.30028942
-0.30030382
-0.30031955
-0.3003367
-0.30035534
-0.30037553
-0.30039732
-0.30042073
-0.30044577
-0.30047241
-0.30050058
-0.30053019
-0.30056112
-0.30059326
-0.30062649
-0.30066082
-0.30069646
-0.30073403
-0.30077488
-0.30082155
-0.30087845
-0.30095279
-0.30105527
-0.30120015
-0.30140323
-0.30167688
-0.30202295
-0.30242703
-0.302858
-0.30327358
-0.30362888
-0.30388386
-0.30400792
-0.30397958
-0.3037855
-0.30342384
-0.30289438
-0.30219121
-0.30131371
-0.30027074
-0.29909899
-0.29785469
-0.2968767
-0.29695239
-0.2990065
-0.30436683
-0.31580927
-0.33715877
-0.37072053
-0.4269884
-0.48217707
-0.4470221
-0.28481224
-0.11413274
-0.033762091
-0.0013088018
-0.29970936
-0.29971462
-0.29972101
-0.2997276
-0.29973481
-0.29974279
-0.29975159
-0.29976126
-0.29977189
-0.29978356
-0.29979634
-0.29981032
-0.29982556
-0.29984214
-0.2998601
-0.29987949
-0.29990034
-0.29992262
-0.29994631
-0.29997133
-0.29999756
-0.30002488
-0.30005311
-0.30008211
-0.30011181
-0.30014229
-0.300174
-0.30020801
-0.30024647
-0.30029319
-0.3003545
-0.30043989
-0.30056212
-0.30073541
-0.30097097
-0.3012705
-0.30162058
-0.30199186
-0.30234384
-0.30263275
-0.30281876
-0.30287057
-0.30276551
-0.30248861
-0.30203496
-0.30140185
-0.3005831
-0.29957732
-0.29839696
-0.29707687
-0.29566766
-0.29475241
-0.29503002
-0.297316
-0.3032604
-0.31573449
-0.33859058
-0.37781565
-0.43832655
-0.49638795
-0.45516718
-0.28499946
-0.10225398
-0.022060964
0.022476011
-0.29927138
-0.2992759
-0.29928137
-0.29928703
-0.29929323
-0.29930009
-0.29930765
-0.29931597
-0.29932512
-0.29933517
-0.2993462
-0.29935826
-0.29937142
-0.29938575
-0.29940129
-0.29941808
-0.29943612
-0.2994554
-0.29947587
-0.29949745
-0.29952001
-0.29954339
-0.29956739
-0.29959182
-0.29961652
-0.29964147
-0.29966692
-0.29969369
-0.2997235
-0.29975956
-0.29980727
-0.29987489
-0.29997358
-0.30011589
-0.30031176
-0.30056263
-0.30085612
-0.30116481
-0.30145027
-0.30167021
-0.30178528
-0.30176377
-0.30158198
-0.30122346
-0.30068029
-0.29994753
-0.29901809
-0.29788901
-0.29657802
-0.29510418
-0.29358484
-0.29270981
-0.29308774
-0.29544498
-0.30170926
-0.31477575
-0.33843097
-0.3816689
-0.44343701
-0.49992434
-0.45029984
-0.2823929
-0.09383436
-0.013851907
0.037081088
-0.29888764
-0.29889137
-0.29889587
-0.29890055
-0.29890568
-0.29891135
-0.29891761
-0.2989245
-0.29893208
-0.29894042
-0.29894957
-0.2989596
-0.29897056
-0.29898251
-0.29899547
-0.29900948
-0.29902454
-0.29904062
-0.29905768
-0.2990756
-0.29909425
-0.29911345
-0.29913296
-0.29915255
-0.29917197
-0.29919109
-0.29921
-0.29922922
-0.29925006
-0.29927512
-0.29930888
-0.29935831
-0.29943296
-0.29954362
-0.29969886
-0.29989973
-0.30013482
-0.30037874
-0.30059535
-0.30074415
-0.30078668
-0.30069101
-0.30043264
-0.29999389
-0.29936366
-0.29853494
-0.29749914
-0.29625154
-0.29481427
-0.29316728
-0.29162834
-0.29073612
-0.29105595
-0.29335919
-0.29963561
-0.31277143
-0.33699665
-0.38175662
-0.44276825
-0.49283649
-0.43542281
-0.27057682
-0.091439367
-0.013510699
0.043715725
-0.29855321
-0.29855614
-0.29855964
-0.29856331
-0.29856733
-0.29857178
-0.29857668
-0.2985821
-0.29858806
-0.29859463
-0.29860185
-0.29860978
-0.29861846
-0.29862793
-0.29863822
-0.29864935
-0.29866131
-0.29867407
-0.29868756
-0.29870168
-0.29871626
-0.2987311
-0.29874595
-0.29876049
-0.29877444
-0.29878753
-0.29879967
-0.29881113
-0.29882281
-0.29883667
-0.29885629
-0.29888738
-0.29893784
-0.2990167
-0.29913105
-0.2992814
-0.29945716
-0.29963495
-0.29978108
-0.29985714
-0.29982588
-0.29965551
-0.29932092
-0.29880335
-0.29808872
-0.29716761
-0.29602919
-0.29466848
-0.29310155
-0.29128811
-0.28972818
-0.28879462
-0.28891906
-0.29101308
-0.29702834
-0.30977077
-0.33474291
-0.37953902
-0.43591329
-0.47619329
-0.41178485
-0.25184462
-0.090882917
-0.0182419
0.044896419
-0.29826221
-0.29826432
-0.29826682
-0.29826947
-0.29827238
-0.2982756
-0.29827915
-0.29828308
-0.29828741
-0.29829219
-0.29829747
-0.29830328
-0.29830965
-0.29831662
-0.29832421
-0.29833243
-0.29834125
-0.29835063
-0.2983605
-0.29837075
-0.29838118
-0.29839159
-0.29840167
-0.29841109
-0.29841945
-0.29842641
-0.29843169
-0.29843529
-0.29843772
-0.29844033
-0.29844583
-0.29845868
-0.29848519
-0.29853259
-0.29860645
-0.29870655
-0.29882298
-0.29893418
-0.29900901
-0.29901138
-0.2989056
-0.29866034
-0.29825013
-0.29765525
-0.29685887
-0.29584904
-0.29461171
-0.29314414
-0.29144165
-0.28950505
-0.28786892
-0.28681621
-0.28664988
-0.28837791
-0.29394021
-0.30666693
-0.3312138
-0.3748264
-0.42416027
-0.45151231
-0.3776013
-0.23421079
-0.090920657
-0.023930776
0.038653981
-0.2980086
-0.29800993
-0.29801149
-0.29801315
-0.29801497
-0.29801698
-0.29801921
-0.29802167
-0.29802441
-0.29802744
-0.29803081
-0.29803453
-0.29803864
-0.29804314
-0.29804807
-0.29805339
-0.29805911
-0.29806515
-0.29807143
-0.29807782
-0.29808413
-0.29809011
-0.29809543
-0.29809971
-0.29810249
-0.2981033
-0.29810171
-0.29809746
-0.29809067
-0.29808211
-0.29807365
-0.29806855
-0.29807156
-0.29808821
-0.29812251
-0.29817339
-0.2982314
-0.29827654
-0.29828017
-0.29820869
-0.29802826
-0.29770837
-0.29722347
-0.29655294
-0.2956775
-0.29458241
-0.29324971
-0.29168031
-0.28983755
-0.2878225
-0.28605614
-0.28478498
-0.28423126
-0.28557881
-0.29084814
-0.3033348
-0.32604851
-0.36720812
-0.40735343
-0.42042591
-0.34825294
-0.21370534
-0.091217026
-0.030572958
0.029490579
-0.29778593
-0.29778651
-0.29778719
-0.29778791
-0.29778869
-0.29778956
-0.29779053
-0.29779161
-0.29779282
-0.29779419
-0.29779573
-0.29779747
-0.2977994
-0.29780155
-0.29780392
-0.29780648
-0.2978092
-0.29781202
-0.29781483
-0.29781749
-0.2978198
-0.29782147
-0.29782215
-0.29782141
-0.29781872
-0.29781349
-0.29780513
-0.29779314
-0.29777726
-0.29775773
-0.2977356
-0.29771306
-0.29769334
-0.29768046
-0.29767678
-0.2976801
-0.29768143
-0.29766191
-0.29759533
-0.29745064
-0.29719609
-0.29680236
-0.29624404
-0.29549965
-0.29454783
-0.29337041
-0.29194564
-0.29027508
-0.28828258
-0.28621875
-0.2842767
-0.2826756
-0.28176497
-0.28275039
-0.28741825
-0.29828617
-0.31975576
-0.35676372
-0.3854336
-0.38444471
-0.31524071
-0.20061987
-0.091630416
-0.037410468
0.019953969
-0.29758867
-0.29758857
-0.29758844
-0.2975883
-0.29758814
-0.29758796
-0.29758777
-0.29758758
-0.2975874
-0.29758724
-0.2975871
-0.297587
-0.29758693
-0.2975869
-0.29758689
-0.29758688
-0.29758681
-0.29758662
-0.29758618
-0.29758534
-0.29758386
-0.29758146
-0.29757773
-0.29757219
-0.29756424
-0.2975532
-0.2975383
-0.29751879
-0.29749408
-0.29746387
-0.29742846
-0.29738904
-0.29734735
-0.29730581
-0.29726544
-0.29722322
-0.29717081
-0.29708918
-0.29695453
-0.29673831
-0.29641103
-0.29594483
-0.29531474
-0.29449838
-0.29347257
-0.29221446
-0.29070028
-0.2889172
-0.28678466
-0.28463258
-0.28247879
-0.28052722
-0.27923268
-0.27951417
-0.28282616
-0.29224283
-0.31248772
-0.34351451
-0.36001748
-0.34977511
-0.27940269
-0.1865117
-0.094082782
-0.044226767
0.0094969811
-0.29741128
-0.29741059
-0.29740976
-0.29740886
-0.29740787
-0.29740678
-0.29740558
-0.29740428
-0.29740287
-0.29740136
-0.29739974
-0.29739802
-0.29739618
-0.29739421
-0.2973921
-0.29738979
-0.29738723
-0.29738433
-0.29738097
-0.29737695
-0.29737204
-0.2973659
-0.29735811
-0.29734812
-0.29733525
-0.29731871
-0.29729758
-0.29727087
-0.29723764
-0.29719711
-0.2971489
-0.29709348
-0.29703052
-0.29696273
-0.29688796
-0.29680302
-0.29669948
-0.29655825
-0.2963581
-0.29607275
-0.29567483
-0.29513813
-0.29443818
-0.29355171
-0.29245349
-0.2911156
-0.28951399
-0.2876099
-0.28538287
-0.28301514
-0.28065065
-0.27829659
-0.27639799
-0.27573245
-0.27808565
-0.2872741
-0.3053031
-0.32645606
-0.33214263
-0.3129363
-0.25784733
-0.1733956
-0.095091744
-0.050371229
-0.00038387669
-0.29724992
-0.29724875
-0.29724734
-0.29724583
-0.29724416
-0.29724232
-0.29724029
-0.29723807
-0.29723565
-0.29723302
-0.29723018
-0.29722711
-0.29722379
-0.2972202
-0.29721632
-0.29721207
-0.2972074
-0.2972022
-0.29719632
-0.29718957
-0.29718167
-0.29717226
-0.29716087
-0.29714689
-0.29712957
-0.29710799
-0.29708106
-0.29704756
-0.29700621
-0.29695575
-0.2968951
-0.29682386
-0.29674142
-0.29664723
-0.29654254
-0.29641741
-0.29626363
-0.2960678
-0.29580554
-0.29545449
-0.29498889
-0.29438418
-0.29361625
-0.29266105
-0.29148992
-0.29007127
-0.28837886
-0.28634942
-0.28403705
-0.28142405
-0.27875425
-0.27585605
-0.27330482
-0.27209362
-0.27467666
-0.28237485
-0.29509553
-0.30781909
-0.30641706
-0.28158787
-0.23410655
-0.16450315
-0.096628762
-0.056134506
-0.0098650711
-0.29710177
-0.29710024
-0.29709841
-0.29709645
-0.29709428
-0.29709188
-0.29708923
-0.29708633
-0.29708316
-0.2970797
-0.29707594
-0.29707185
-0.29706742
-0.2970626
-0.29705736
-0.29705162
-0.29704531
-0.29703831
-0.29703044
-0.2970215
-0.29701118
-0.29699908
-0.29698468
-0.29696733
-0.29694616
-0.29692013
-0.29688799
-0.29684828
-0.29679937
-0.29673959
-0.2966673
-0.29658085
-0.29648072
-0.29636064
-0.29621984
-0.29605751
-0.29586059
-0.2956142
-0.29529566
-0.29488351
-0.29435394
-0.29368387
-0.29284927
-0.29182477
-0.29057648
-0.28907202
-0.28727051
-0.28512693
-0.28263502
-0.27980872
-0.27672621
-0.27334344
-0.2705678
-0.26944067
-0.27129286
-0.27646061
-0.28443406
-0.28992584
-0.27952493
-0.25929644
-0.21509046
-0.15615151
-0.097257512
-0.06106313
-0.018277588
-0.2969655
-0.29696376
-0.29696169
-0.29695946
-0.29695699
-0.29695426
-0.29695125
-0.29694794
-0.29694431
-0.29694035
-0.29693602
-0.29693131
-0.29692617
-0.29692057
-0.29691446
-0.29690775
-0.29690036
-0.29689213
-0.2968829
-0.29687241
-0.29686033
-0.29684623
-0.29682952
-0.29680946
-0.2967851
-0.29675525
-0.29671845
-0.29667298
-0.29661687
-0.29654795
-0.29646399
-0.29636263
-0.29624159
-0.29610092
-0.29593644
-0.29573794
-0.29549582
-0.29520149
-0.29483014
-0.29436066
-0.29377051
-0.29303704
-0.29213565
-0.29103777
-0.28970517
-0.28810297
-0.28617843
-0.28388221
-0.28113439
-0.27809636
-0.27465391
-0.27129062
-0.2684772
-0.26685474
-0.267168
-0.26960254
-0.27136094
-0.27181783
-0.26031541
-0.23806151
-0.19916761
-0.14944367
-0.097863453
-0.065376922
-0.025857859
-0.29684237
-0.29684059
-0.29683846
-0.29683617
-0.29683364
-0.29683084
-0.29682774
-0.29682433
-0.29682058
-0.29681648
-0.29681199
-0.29680709
-0.29680173
-0.29679586
-0.29678943
-0.29678235
-0.29677451
-0.29676575
-0.29675587
-0.29674459
-0.29673155
-0.29671627
-0.29669809
-0.29667619
-0.29664951
-0.29661669
-0.29657609
-0.29652571
-0.29646324
-0.29638607
-0.29629141
-0.29617641
-0.29603811
-0.29587394
-0.29567825
-0.29544665
-0.29516956
-0.29482899
-0.29440856
-0.29388564
-0.29323762
-0.29244113
-0.29146924
-0.29028912
-0.28885927
-0.28713804
-0.28506498
-0.28255715
-0.27968325
-0.27636217
-0.27301975
-0.26960481
-0.26620356
-0.26323359
-0.26161657
-0.26027848
-0.25987229
-0.25435962
-0.24208546
-0.22112975
-0.18599693
-0.14330484
-0.097932035
-0.068878284
-0.032375963
-0.2967349
-0.29673325
-0.29673129
-0.29672917
-0.29672683
-0.29672423
-0.29672135
-0.29671817
-0.29671468
-0.29671084
-0.29670663
-0.29670201
-0.29669695
-0.29669139
-0.29668526
-0.29667846
-0.29667086
-0.29666231
-0.29665257
-0.29664134
-0.2966282
-0.29661261
-0.29659387
-0.29657102
-0.29654289
-0.29650794
-0.2964643
-0.29640968
-0.29634139
-0.29625636
-0.29615122
-0.29602246
-0.29586648
-0.29567962
-0.29545705
-0.29519285
-0.29487809
-0.29449696
-0.29403123
-0.29345805
-0.29275301
-0.29189064
-0.29083991
-0.28956363
-0.28801975
-0.28617208
-0.28393932
-0.281335
-0.27829761
-0.27512106
-0.27156708
-0.2674585
-0.26285065
-0.25852649
-0.25510824
-0.25192424
-0.24621402
-0.24107811
-0.22730453
-0.20649259
-0.17475452
-0.13794516
-0.097767909
-0.071716292
-0.03799883
-0.29664844
-0.29664713
-0.29664556
-0.29664386
-0.29664198
-0.29663988
-0.29663755
-0.29663497
-0.29663212
-0.29662899
-0.29662554
-0.29662173
-0.29661753
-0.29661288
-0.2966077
-0.29660189
-0.29659531
-0.29658777
-0.29657902
-0.29656872
-0.29655641
-0.29654147
-0.29652312
-0.29650029
-0.29647165
-0.29643549
-0.29638966
-0.29633158
-0.29625815
-0.29616585
-0.29605075
-0.29590872
-0.29573553
-0.29552691
-0.29527803
-0.29498271
-0.2946318
-0.29421087
-0.29370083
-0.29307702
-0.29231123
-0.29137524
-0.29023041
-0.28885073
-0.28719367
-0.28523042
-0.28294288
-0.28031576
-0.27735516
-0.27389235
-0.26952146
-0.2642532
-0.25855792
-0.25325404
-0.24788785
-0.24280463
-0.23627435
-0.22803369
-0.21357187
-0.1938315
-0.16505983
-0.13298128
-0.097225803
-0.073856888
-0.042675881
-0.29659128
-0.29659051
-0.29658958
-0.29658857
-0.29658743
-0.29658616
-0.29658473
-0.29658314
-0.29658137
-0.29657941
-0.29657722
-0.29657478
-0.29657204
-0.29656895
-0.29656542
-0.29656133
-0.29655655
-0.29655085
-0.29654396
-0.29653549
-0.29652492
-0.29651156
-0.29649452
-0.29647262
-0.29644434
-0.29640775
-0.29636045
-0.29629951
-0.29622144
-0.29612223
-0.29599744
-0.29584232
-0.2956521
-0.29542202
-0.29514704
-0.29482096
-0.29443489
-0.29397435
-0.2934191
-0.29274106
-0.29190706
-0.29088447
-0.28965183
-0.28816173
-0.2864244
-0.284453
-0.2822241
-0.2795597
-0.27628555
-0.27200957
-0.26644663
-0.26011799
-0.25378464
-0.24710383
-0.24055184
-0.23367849
-0.22559411
-0.21646718
-0.20185552
-0.18286735
-0.15660228
-0.12843366
-0.096424713
-0.075401196
-0.046542771
-0.29657474
-0.29657474
-0.29657472
-0.29657467
-0.29657459
-0.29657448
-0.29657433
-0.29657414
-0.29657389
-0.29657358
-0.29657318
-0.29657267
-0.296572
-0.29657112
-0.29656993
-0.29656832
-0.29656611
-0.29656306
-0.29655886
-0.29655307
-0.2965451
-0.29653417
-0.29651927
-0.29649906
-0.29647184
-0.29643543
-0.29638718
-0.29632379
-0.29624137
-0.29613547
-0.29600113
-0.2958331
-0.29562605
-0.29537489
-0.29507428
-0.2947178
-0.2942964
-0.29379427
-0.29318977
-0.29244887
-0.29153752
-0.29044309
-0.2891043
-0.28761525
-0.28587307
-0.28398431
-0.28164858
-0.27862031
-0.27459137
-0.26903997
-0.26229922
-0.25559808
-0.24790759
-0.24027865
-0.23253981
-0.22509361
-0.21622388
-0.20589088
-0.19111425
-0.17307945
-0.14906175
-0.12412733
-0.095325963
-0.07637074
-0.049612574
-0.29661698
-0.29661796
-0.29661911
-0.29662032
-0.2966216
-0.29662299
-0.29662449
-0.29662609
-0.29662779
-0.2966296
-0.2966315
-0.29663346
-0.29663544
-0.29663737
-0.29663917
-0.29664069
-0.29664173
-0.29664203
-0.29664121
-0.29663878
-0.29663405
-0.29662615
-0.29661391
-0.29659583
-0.29656999
-0.29653399
-0.29648484
-0.29641893
-0.29633199
-0.29621913
-0.29607494
-0.29589352
-0.2956692
-0.295397
-0.29507083
-0.29468369
-0.2942258
-0.2936787
-0.29302013
-0.29222037
-0.29124071
-0.29007368
-0.28878949
-0.28729733
-0.28562466
-0.28361506
-0.2808214
-0.2770605
-0.2717507
-0.26482422
-0.2579727
-0.24995957
-0.2413683
-0.23314086
-0.22510578
-0.21671053
-0.20698584
-0.19610238
-0.1815172
-0.16437459
-0.1422808
-0.12003798
-0.093983166
-0.076842075
-0.051999605
-0.29674155
-0.29674373
-0.29674628
-0.29674898
-0.2967519
-0.29675508
-0.29675854
-0.29676228
-0.29676631
-0.29677063
-0.29677524
-0.29678011
-0.29678519
-0.29679042
-0.29679568
-0.2968008
-0.29680557
-0.29680965
-0.29681262
-0.29681388
-0.29681267
-0.29680795
-0.29679841
-0.29678236
-0.29675766
-0.29672164
-0.29667104
-0.29660194
-0.29650976
-0.29638928
-0.29623481
-0.29604006
-0.29579815
-0.29550476
-0.2951536
-0.29473575
-0.29424105
-0.29364753
-0.2929495
-0.29207579
-0.29108957
-0.28996697
-0.28869376
-0.28723726
-0.28544331
-0.28292276
-0.27933804
-0.27445288
-0.26750276
-0.26059173
-0.25250425
-0.24336276
-0.23464453
-0.22626817
-0.21753385
-0.20855496
-0.19838051
-0.18707348
-0.17268675
-0.15643114
-0.13605255
-0.11607976
-0.092394854
-0.076849922
-0.05373691
-0.29698542
-0.29698891
-0.29699301
-0.29699735
-0.29700206
-0.29700721
-0.2970128
-0.29701887
-0.29702542
-0.29703246
-0.29703999
-0.29704797
-0.29705635
-0.29706505
-0.29707393
-0.29708279
-0.29709135
-0.29709924
-0.29710593
-0.29711074
-0.29711276
-0.29711083
-0.29710345
-0.29708873
-0.29706431
-0.29702731
-0.29697423
-0.29690094
-0.2968026
-0.29667416
-0.29651271
-0.29629736
-0.29602917
-0.29571965
-0.29534286
-0.29489489
-0.29436763
-0.29373166
-0.29298402
-0.2921582
-0.2911735
-0.29006412
-0.28881114
-0.28718523
-0.28487233
-0.28148106
-0.27673751
-0.27017785
-0.26345465
-0.2553775
-0.24580903
-0.23687883
-0.22812497
-0.21922617
-0.21009691
-0.20064449
-0.19008394
-0.17859305
-0.16455062
-0.14915063
-0.13027295
-0.11222078
-0.090586203
-0.076453166
-0.054917133
-0.29739442
-0.29739921
-0.29740485
-0.29741082
-0.2974173
-0.29742438
-0.29743208
-0.29744042
-0.29744942
-0.29745908
-0.2974694
-0.29748033
-0.2974918
-0.29750369
-0.29751585
-0.29752801
-0.29753983
-0.29755085
-0.29756044
-0.29756779
-0.29757185
-0.29757127
-0.29756435
-0.29754898
-0.29752258
-0.29748204
-0.29742365
-0.29734287
-0.29723454
-0.29710124
-0.29691457
-0.29667547
-0.29640667
-0.2960773
-0.29567402
-0.29520085
-0.29463561
-0.29399491
-0.2932458
-0.2924169
-0.29147197
-0.29032989
-0.28884758
-0.28669916
-0.28349408
-0.27887796
-0.27258634
-0.26574366
-0.25810113
-0.24850717
-0.2393866
-0.23051644
-0.22137009
-0.2121943
-0.2027133
-0.19292102
-0.1821619
-0.17061904
-0.15694351
-0.14235575
-0.12481568
-0.1084117
-0.088563842
-0.07567973
-0.055572353
-0.29802676
-0.29803264
-0.29803956
-0.29804687
-0.29805481
-0.29806347
-0.29807288
-0.29808304
-0.29809399
-0.29810571
-0.29811818
-0.29813134
-0.29814508
-0.29815926
-0.29817366
-0.29818794
-0.29820169
-0.29821434
-0.29822512
-0.29823309
-0.298237
-0.29823531
-0.29822612
-0.29820707
-0.29817537
-0.2981277
-0.29805998
-0.29796688
-0.29784528
-0.29769186
-0.29750717
-0.29726493
-0.29695575
-0.29659674
-0.29616737
-0.29567176
-0.29510575
-0.29444229
-0.29370437
-0.29285621
-0.29183226
-0.29045758
-0.28844896
-0.28541468
-0.28102511
-0.27499151
-0.26823229
-0.2609401
-0.25157627
-0.24194965
-0.23314004
-0.22393376
-0.21458475
-0.20513847
-0.19539837
-0.18537703
-0.17450433
-0.16302231
-0.14976596
-0.13595405
-0.1196055
-0.10462576
-0.086342066
-0.074580728
-0.055764974
-0.29895537
-0.29896188
-0.29896954
-0.29897763
-0.29898639
-0.29899592
-0.29900624
-0.29901736
-0.29902929
-0.29904199
-0.29905542
-0.29906949
-0.29908405
-0.2990989
-0.29911373
-0.29912814
-0.29914161
-0.29915343
-0.29916269
-0.29916826
-0.2991687
-0.29916224
-0.29914674
-0.29911959
-0.29907764
-0.29901728
-0.29893398
-0.29882265
-0.29870476
-0.2985563
-0.29831943
-0.29802074
-0.29769365
-0.29731335
-0.29687308
-0.29633739
-0.29574121
-0.29507274
-0.29428437
-0.29333534
-0.29205227
-0.29014346
-0.28726442
-0.28309529
-0.27734042
-0.27073885
-0.26367682
-0.25465184
-0.24515633
-0.23615524
-0.22676186
-0.21730108
-0.20772638
-0.19806381
-0.18813421
-0.17797092
-0.16708257
-0.15574359
-0.14292113
-0.12984178
-0.11456449
-0.10083022
-0.083926799
-0.073170658
-0.055538723
-0.30024416
-0.30025073
-0.30025845
-0.30026656
-0.30027532
-0.30028482
-0.30029505
-0.300306
-0.30031765
-0.30032994
-0.30034278
-0.30035604
-0.30036949
-0.30038286
-0.30039576
-0.30040765
-0.30041788
-0.30042557
-0.30042962
-0.30042866
-0.30042099
-0.3004046
-0.30037698
-0.30033468
-0.30027358
-0.30020273
-0.30012729
-0.30002184
-0.29983006
-0.29958669
-0.29933733
-0.299035
-0.29867115
-0.29823896
-0.29774574
-0.29718563
-0.29653965
-0.29580077
-0.29489506
-0.29366371
-0.2918453
-0.28909054
-0.28514029
-0.2796642
-0.2732097
-0.26637573
-0.25761936
-0.24823817
-0.23920826
-0.22969932
-0.22015965
-0.21053228
-0.20078256
-0.19095804
-0.1809019
-0.17067308
-0.15983485
-0.14869974
-0.13632782
-0.12394488
-0.10963701
-0.097003332
-0.081325991
-0.071485576
-0.054930511
-0.30197515
-0.30198112
-0.30198811
-0.30199543
-0.30200326
-0.30201168
-0.30202066
-0.30203015
-0.3020401
-0.30205039
-0.30206087
-0.30207134
-0.3020815
-0.30209095
-0.30209917
-0.30210551
-0.3021091
-0.30210887
-0.30210348
-0.3020913
-0.30207031
-0.30203764
-0.30199017
-0.30193425
-0.30186812
-0.30177584
-0.30163346
-0.3014371
-0.30121472
-0.30096217
-0.30065219
-0.30028551
-0.29985788
-0.29936928
-0.29881603
-0.29818846
-0.29746475
-0.29657772
-0.29538139
-0.29360835
-0.29097136
-0.28718622
-0.28201587
-0.27568067
-0.2690563
-0.26063217
-0.25132663
-0.24231155
-0.23285427
-0.22323116
-0.21349136
-0.20366693
-0.19375935
-0.18381058
-0.17368008
-0.16344716
-0.15271772
-0.14183344
-0.12991767
-0.11819559
-0.10477224
-0.093121987
-0.078543392
-0.069538708
-0.053976246
-0.30423096
-0.30423581
-0.30424143
-0.30424723
-0.30425334
-0.30425979
-0.3042665
-0.30427338
-0.30428031
-0.30428711
-0.30429354
-0.3042993
-0.30430396
-0.30430698
-0.30430768
-0.30430517
-0.30429837
-0.30428592
-0.30426615
-0.30423694
-0.3041957
-0.30414127
-0.30407377
-0.30398555
-0.30386189
-0.30369303
-0.30349367
-0.3032666
-0.30299098
-0.30266335
-0.30227811
-0.30183377
-0.3013314
-0.30076564
-0.30013036
-0.29940143
-0.29851203
-0.29731601
-0.29558876
-0.29300223
-0.28940227
-0.28444391
-0.27828366
-0.27179877
-0.26371979
-0.25450682
-0.24547163
-0.23606529
-0.22640577
-0.21656823
-0.20663431
-0.19665687
-0.1866273
-0.17659738
-0.16644105
-0.15625738
-0.14568268
-0.13508444
-0.12362929
-0.11253819
-0.099929183
-0.089168134
-0.07558256
-0.067352083
-0.05270008
-0.30711745
-0.30712078
-0.30712455
-0.30712829
-0.30713206
-0.30713579
-0.30713937
-0.30714263
-0.30714536
-0.30714727
-0.30714802
-0.30714713
-0.307144
-0.30713789
-0.30712785
-0.30711272
-0.30709106
-0.30706108
-0.30702061
-0.30696712
-0.30689868
-0.30681121
-0.30669852
-0.30654946
-0.30636776
-0.30615654
-0.30590205
-0.30559824
-0.30523953
-0.30482331
-0.30435028
-0.30381746
-0.30322192
-0.3025577
-0.30179901
-0.30087851
-0.29966
-0.2979233
-0.2954053
-0.29185807
-0.28726417
-0.28119934
-0.27491528
-0.26704181
-0.25785363
-0.24878422
-0.23940398
-0.22970651
-0.21979357
-0.2097454
-0.19962995
-0.1895064
-0.17937605
-0.16929854
-0.15915721
-0.1490675
-0.13868693
-0.12840306
-0.11741051
-0.10692425
-0.095072156
-0.085124285
-0.072445139
-0.064937207
-0.051128598
-0.31083377
-0.3108349
-0.31083599
-0.31083678
-0.31083716
-0.31083701
-0.31083611
-0.31083421
-0.31083096
-0.31082596
-0.31081867
-0.31080843
-0.31079442
-0.31077559
-0.3107507
-0.31071819
-0.31067618
-0.3106224
-0.31055417
-0.31046839
-0.31036132
-0.31022727
-0.31006289
-0.30986453
-0.30962569
-0.30934038
-0.30900279
-0.30860909
-0.30815789
-0.30764615
-0.30707156
-0.30643295
-0.30572125
-0.30490832
-0.30392614
-0.30264289
-0.30085298
-0.29830282
-0.29476989
-0.29012895
-0.28427151
-0.27789195
-0.27033403
-0.26137751
-0.25224113
-0.24292277
-0.2331743
-0.22316932
-0.21299068
-0.20272033
-0.19242617
-0.1821765
-0.17197344
-0.16188335
-0.15179597
-0.1418404
-0.13168792
-0.12174172
-0.11121425
-0.10131181
-0.090170657
-0.080975227
-0.069132085
-0.062307057
-0.049280688
-0.31566761
-0.31566531
-0.31566225
-0.31565848
-0.3156537
-0.31564766
-0.31564004
-0.31563045
-0.31561842
-0.31560333
-0.31558445
-0.31556088
-0.31553151
-0.31549497
-0.31544963
-0.3153935
-0.31532423
-0.31523899
-0.3151345
-0.31500695
-0.31485199
-0.31466477
-0.31444003
-0.31417201
-0.31385505
-0.31348438
-0.31305625
-0.31256652
-0.31201205
-0.31139141
-0.31070064
-0.30992779
-0.30904119
-0.30797135
-0.30659136
-0.30470946
-0.30209199
-0.29853021
-0.29390091
-0.28811048
-0.28151583
-0.27421447
-0.2651624
-0.25605953
-0.24670724
-0.23691353
-0.22677782
-0.21643277
-0.20596714
-0.19546923
-0.18500418
-0.1746443
-0.16439309
-0.15432225
-0.1443245
-0.13453932
-0.12464584
-0.11505816
-0.10499925
-0.095664192
-0.085198203
-0.076706676
-0.065643639
-0.059470636
-0.047176053
-0.32193219
-0.3219247
-0.32191539
-0.3219048
-0.32189237
-0.32187766
-0.32186023
-0.32183953
-0.32181489
-0.32178549
-0.32175034
-0.32170825
-0.32165779
-0.32159724
-0.32152452
-0.3214372
-0.32133239
-0.32120675
-0.32105639
-0.32087692
-0.3206634
-0.32041049
-0.3201128
-0.319765
-0.31936178
-0.31889799
-0.31836928
-0.31777233
-0.31710316
-0.31635454
-0.31550985
-0.31453225
-0.31334913
-0.31183619
-0.30981373
-0.30706556
-0.3033985
-0.29869666
-0.29287837
-0.28618989
-0.27883909
-0.27002585
-0.26066724
-0.25123229
-0.24112297
-0.23075602
-0.22016708
-0.20944323
-0.19867395
-0.18794488
-0.17731837
-0.16686869
-0.1565974
-0.14657921
-0.13670687
-0.12712705
-0.11752213
-0.10831285
-0.098728302
-0.089948941
-0.080131642
-0.072305128
-0.061979299
-0.056433604
-0.044828411
-0.33000597
-0.32999113
-0.32997302
-0.32995286
-0.32992976
-0.32990303
-0.32987208
-0.32983618
-0.32979441
-0.32974573
-0.32968885
-0.32962226
-0.32954412
-0.32945233
-0.32934442
-0.32921747
-0.32906809
-0.32889242
-0.32868614
-0.32844449
-0.32816231
-0.32783411
-0.32745413
-0.32701663
-0.32651627
-0.32594791
-0.32530613
-0.32458389
-0.32376932
-0.32283964
-0.32175125
-0.32042662
-0.31874199
-0.31652574
-0.3135771
-0.30971271
-0.30482736
-0.29883835
-0.29190883
-0.28438095
-0.27547597
-0.2659673
-0.25618338
-0.24584119
-0.23517651
-0.22428339
-0.21323144
-0.20212337
-0.19104804
-0.18009474
-0.1693235
-0.1588083
-0.14854746
-0.13861672
-0.1289062
-0.11956657
-0.11027998
-0.10146958
-0.092368119
-0.084137345
-0.074950819
-0.067757572
-0.058138662
-0.053195267
-0.042264308
-0.34021726
-0.34019258
-0.34016272
-0.34012988
-0.34009269
-0.3400502
-0.34000163
-0.33994604
-0.33988228
-0.33980901
-0.3397247
-0.3396276
-0.33951544
-0.33938565
-0.33923541
-0.33906141
-0.33885981
-0.33862633
-0.33835637
-0.33804478
-0.33768605
-0.33727441
-0.33680387
-0.33626823
-0.33566078
-0.33497356
-0.33419552
-0.33330902
-0.33228382
-0.33106814
-0.32957759
-0.32768635
-0.32522667
-0.32200901
-0.31785882
-0.31267466
-0.30639471
-0.2991024
-0.29122013
-0.28209858
-0.27222932
-0.26204929
-0.25133034
-0.2402753
-0.22894878
-0.21746167
-0.20591418
-0.19440541
-0.18302437
-0.17185926
-0.16096553
-0.15041465
-0.14019956
-0.13039448
-0.12088459
-0.11182139
-0.10288432
-0.09449487
-0.085888794
-0.078204052
-0.069638619
-0.063053862
-0.054123269
-0.049774733
-0.039466753
-0.35290735
-0.35287038
-0.35282589
-0.35277728
-0.3527226
-0.35266069
-0.35259061
-0.35251093
-0.35241978
-0.35231825
-0.35221399
-0.35209331
-0.3519314
-0.35174287
-0.35154193
-0.35131612
-0.35105708
-0.35076011
-0.35042032
-0.35003267
-0.34959099
-0.3490886
-0.34851798
-0.34787019
-0.34713366
-0.34629199
-0.34532013
-0.34417856
-0.34280531
-0.34110714
-0.33895325
-0.33617885
-0.33259957
-0.32805641
-0.32244145
-0.31572017
-0.30794465
-0.29956396
-0.29004722
-0.27964514
-0.26890653
-0.25768816
-0.24609999
-0.23424082
-0.22221304
-0.2101269
-0.19808264
-0.18618245
-0.17451399
-0.16316323