/*--------------------------------*- C++ -*----------------------------------*\
  =========                 |
  \\      /  F ield         | OpenFOAM: The Open Source CFD Toolbox
   \\    /   O peration     | Website:  https://openfoam.org
    \\  /    A nd           | Version:  13
     \\/     M anipulation  |
\*---------------------------------------------------------------------------*/
FoamFile
{
    format      ascii;
    class       volScalarField;
    location    "49.899831";
    object      pPrime2Mean;
}
// * * * * * * * * * * * * * * * * * * * * * * * * * * * * * * * * * * * * * //

dimensions      [0 4 -4 0 0 0 0];

internalField   nonuniform List<scalar> 
17140
(
6241.5878
6241.5879
6241.5878
6241.5875
6241.587
6241.5862
6241.585
6241.5835
6241.5814
6241.5787
6241.5752
6241.5708
6241.5652
6241.5581
6241.5492
6241.5381
6241.5241
6241.5066
6241.4847
6241.4573
6241.4229
6241.3798
6241.3257
6241.2576
6241.1718
6241.0637
6240.9273
6240.7551
6240.5381
6240.2646
6239.9207
6239.4891
6238.9487
6238.2741
6237.435
6236.3948
6235.1105
6233.5317
6231.5997
6229.2472
6226.3971
6222.9624
6218.8452
6213.9355
6208.1114
6201.2376
6193.1652
6183.7314
6172.7583
6160.0518
6145.4012
6128.5783
6109.3359
6087.4082
6062.5077
6034.3251
6002.5238
5966.7415
5926.5797
5881.6186
5831.3894
5775.4121
5713.1255
5643.9818
5567.3244
6241.7397
6241.7398
6241.7397
6241.7394
6241.7388
6241.738
6241.7368
6241.7352
6241.7331
6241.7304
6241.7269
6241.7225
6241.7169
6241.7098
6241.7008
6241.6897
6241.6757
6241.6581
6241.6362
6241.6088
6241.5745
6241.5314
6241.4773
6241.4093
6241.3238
6241.2159
6241.0799
6240.9082
6240.6917
6240.4189
6240.0758
6239.645
6239.1054
6238.4318
6237.5935
6236.5541
6235.2707
6233.6927
6231.7616
6229.4101
6226.5614
6223.1283
6219.013
6214.1057
6208.2844
6201.414
6193.3456
6183.9165
6172.9486
6160.2481
6145.6044
6128.7893
6109.556
6087.6386
6062.7499
6034.5805
6002.7941
5967.0277
5926.8832
5881.9417
5831.7351
5775.7838
5713.5269
5644.4173
5567.7932
6242.1151
6242.1152
6242.1151
6242.1148
6242.1142
6242.1134
6242.1123
6242.1107
6242.1086
6242.1059
6242.1024
6242.098
6242.0924
6242.0854
6242.0765
6242.0654
6242.0515
6242.0341
6242.0123
6241.9851
6241.951
6241.9082
6241.8545
6241.7869
6241.7019
6241.5947
6241.4595
6241.2888
6241.0734
6240.8019
6240.4603
6240.0311
6239.4933
6238.8214
6237.9848
6236.9472
6235.6655
6234.0893
6232.1603
6229.8114
6226.9657
6223.5365
6219.4259
6214.5243
6208.71
6201.8479
6193.7894
6184.3716
6173.4167
6160.7309
6146.1041
6129.3082
6110.0971
6088.205
6063.3451
6035.2082
6003.4582
5967.7319
5927.6316
5882.7394
5832.5884
5776.6999
5714.5137
5645.4845
5568.9401
6242.7267
6242.7267
6242.7266
6242.7263
6242.7258
6242.725
6242.7238
6242.7222
6242.7202
6242.7175
6242.7141
6242.7097
6242.7042
6242.6973
6242.6885
6242.6776
6242.6639
6242.6467
6242.6252
6242.5983
6242.5646
6242.5223
6242.4692
6242.4024
6242.3182
6242.212
6242.078
6241.9087
6241.695
6241.4255
6241.0859
6240.659
6240.1236
6239.4542
6238.6201
6237.585
6236.306
6234.7328
6232.8072
6230.4624
6227.622
6224.1991
6220.0961
6215.2039
6209.4008
6202.5522
6194.5095
6185.1101
6174.1762
6161.5144
6146.9149
6130.1505
6110.9754
6089.1245
6064.3113
6036.2274
6004.5365
5968.8759
5928.8479
5884.0363
5833.9758
5778.1887
5716.1167
5647.2171
5570.8014
6243.5869
6243.587
6243.5869
6243.5866
6243.586
6243.5852
6243.5841
6243.5825
6243.5805
6243.5779
6243.5745
6243.5702
6243.5647
6243.5579
6243.5493
6243.5385
6243.525
6243.508
6243.4869
6243.4604
6243.4271
6243.3854
6243.333
6243.2671
6243.184
6243.0791
6242.9466
6242.7791
6242.5675
6242.3004
6241.9635
6241.5394
6241.0071
6240.3408
6239.5101
6238.4784
6237.203
6235.6341
6233.7136
6231.3749
6228.5418
6225.1279
6221.0358
6216.1568
6210.3695
6203.5397
6195.5192
6186.1454
6175.2408
6162.6126
6148.0516
6131.3314
6112.2071
6090.4141
6065.6667
6037.6568
6006.0488
5970.4802
5930.5543
5885.8562
5835.923
5780.2787
5718.367
5649.6493
5573.4145
6244.7066
6244.7066
6244.7065
6244.7062
6244.7057
6244.7049
6244.7037
6244.7022
6244.7002
6244.6976
6244.6943
6244.69
6244.6847
6244.6779
6244.6695
6244.6588
6244.6455
6244.6289
6244.6081
6244.582
6244.5493
6244.5083
6244.4567
6244.3918
6244.3099
6244.2066
6244.0759
6243.9106
6243.7016
6243.4373
6243.1037
6242.6832
6242.1545
6241.4922
6240.6656
6239.6383
6238.368
6236.8047
6234.891
6232.5605
6229.7372
6226.3352
6222.2574
6217.3956
6211.6289
6204.8235
6196.8317
6187.491
6176.6245
6164.0401
6149.5294
6132.867
6113.8088
6092.0912
6067.4292
6039.5157
6008.0154
5972.5664
5932.7736
5888.224
5838.4572
5782.9991
5721.2967
5652.8162
5576.8184
6246.0973
6246.0973
6246.0972
6246.0969
6246.0963
6246.0955
6246.0944
6246.0929
6246.0909
6246.0883
6246.085
6246.0808
6246.0756
6246.0689
6246.0606
6246.0502
6246.0371
6246.0208
6246.0004
6245.9748
6245.9427
6245.9025
6245.8519
6245.7882
6245.7078
6245.6062
6245.4777
6245.315
6245.1089
6244.8481
6244.5182
6244.1017
6243.5775
6242.9199
6242.0983
6241.0767
6239.8126
6238.2567
6236.3517
6234.0315
6231.2206
6227.8334
6223.7734
6218.9331
6213.192
6206.417
6198.4605
6189.1609
6178.3417
6165.8118
6151.3638
6134.7734
6115.7975
6094.1736
6069.6177
6041.8236
6010.4569
5975.1565
5935.5296
5891.1652
5841.606
5786.3801
5724.9387
5656.7538
5581.0529
6247.7717
6247.7717
6247.7715
6247.7712
6247.7707
6247.7698
6247.7687
6247.7672
6247.7653
6247.7627
6247.7595
6247.7554
6247.7502
6247.7437
6247.7356
6247.7254
6247.7126
6247.6966
6247.6767
6247.6517
6247.6203
6247.581
6247.5315
6247.4692
6247.3905
6247.2909
6247.1649
6247.005
6246.8023
6246.5452
6246.2195
6245.8076
6245.2884
6244.6361
6243.8205
6242.8056
6241.5492
6240.0023
6238.1079
6235.8002
6233.0043
6229.6351
6225.5967
6220.7823
6215.0721
6208.3334
6200.4194
6191.1691
6180.407
6167.9429
6153.5706
6137.0671
6118.1905
6096.6794
6072.2511
6044.6005
6013.3944
5978.2731
5938.8464
5894.706
5845.3981
5790.4529
5729.3268
5661.4983
5586.1575
6249.7448
6249.7447
6249.7446
6249.7442
6249.7437
6249.7429
6249.7417
6249.7403
6249.7383
6249.7358
6249.7327
6249.7286
6249.7236
6249.7172
6249.7093
6249.6993
6249.6869
6249.6713
6249.6518
6249.6275
6249.597
6249.5586
6249.5104
6249.4495
6249.3726
6249.2752
6249.1517
6248.9949
6248.7956
6248.5425
6248.2211
6247.8141
6247.3003
6246.654
6245.8451
6244.8379
6243.5905
6242.0542
6240.1722
6237.8794
6235.1011
6231.7531
6227.7403
6222.9563
6217.2823
6210.5863
6202.7222
6193.53
6182.8352
6170.4487
6156.166
6139.765
6121.0053
6099.627
6075.3488
6047.867
6016.8497
5981.9395
5942.7492
5898.8735
5849.8622
5795.2487
5734.4947
5667.0868
5592.1734
6252.0323
6252.0323
6252.0321
6252.0318
6252.0312
6252.0304
6252.0293
6252.0278
6252.0259
6252.0235
6252.0204
6252.0164
6252.0115
6252.0053
6251.9976
6251.9879
6251.9758
6251.9606
6251.9417
6251.918
6251.8883
6251.851
6251.804
6251.7446
6251.6695
6251.5743
6251.4534
6251.2995
6251.1036
6250.8543
6250.5373
6250.1352
6249.6269
6248.987
6248.1855
6247.1869
6245.9496
6244.4253
6242.5575
6240.2817
6237.5239
6234.2004
6230.2171
6225.4683
6219.8362
6213.1893
6205.3828
6196.2578
6185.641
6173.3448
6159.1658
6142.8837
6124.2595
6103.0349
6078.9304
6051.6436
6020.8447
5986.179
5947.2629
5903.6949
5855.0287
5800.8003
5740.4783
5673.5582
5599.142
6254.6509
6254.6509
6254.6507
6254.6503
6254.6497
6254.6489
6254.6478
6254.6464
6254.6445
6254.6421
6254.6391
6254.6352
6254.6304
6254.6244
6254.6169
6254.6074
6254.5957
6254.5809
6254.5625
6254.5395
6254.5105
6254.4742
6254.4283
6254.3703
6254.2969
6254.2036
6254.0849
6253.9337
6253.7408
6253.495
6253.1821
6252.7848
6252.2821
6251.6488
6250.8551
6249.8658
6248.6397
6247.1287
6245.2769
6243.0203
6240.2857
6236.9902
6233.0405
6228.3318
6222.7472
6216.1562
6208.4153
6199.3669
6188.8393
6176.6463
6162.5861
6146.4401
6127.9709
6106.9219
6083.0156
6055.9515
6025.4019
5991.0161
5952.4148
5909.1999
5860.9293
5807.1422
5747.3139
5680.9508
5607.1053
6257.6157
6257.6157
6257.6155
6257.6151
6257.6145
6257.6137
6257.6126
6257.6112
6257.6094
6257.607
6257.604
6257.6003
6257.5956
6257.5897
6257.5823
6257.5731
6257.5616
6257.5472
6257.5292
6257.5067
6257.4784
6257.4428
6257.3979
6257.341
6257.269
6257.1773
6257.0605
6256.9114
6256.7212
6256.4785
6256.1693
6255.7765
6255.2792
6254.6526
6253.8672
6252.8879
6251.6739
6250.1775
6248.3434
6246.1083
6243.3997
6240.1356
6236.2238
6231.5603
6226.029
6219.501
6211.8339
6202.8721
6192.4453
6180.3691
6166.4436
6150.4516
6132.1578
6111.3075
6087.6251
6060.8123
6030.5452
5996.4767
5958.2327
5915.4184
5867.5955
5814.3071
5755.0372
5689.3041
5616.1055
6260.9396
6260.9396
6260.9394
6260.939
6260.9384
6260.9376
6260.9365
6260.9351
6260.9333
6260.931
6260.9281
6260.9244
6260.9198
6260.914
6260.9068
6260.8978
6260.8865
6260.8724
6260.8548
6260.8327
6260.8049
6260.7699
6260.7257
6260.6697
6260.5987
6260.5082
6260.3929
6260.2456
6260.0575
6259.8174
6259.5116
6259.1231
6258.6313
6258.0116
6257.2348
6256.2661
6255.0651
6253.5846
6251.77
6249.5587
6246.8791
6243.6502
6239.7806
6235.1674
6229.6956
6223.2378
6215.6535
6206.7884
6196.4748
6184.5298
6170.7554
6154.9362
6136.8389
6116.211
6092.7792
6066.2485
6036.2984
6002.5868
5964.7439
5922.3789
5875.0582
5822.3295
5763.6849
5698.6581
5626.1846
6264.634
6264.6339
6264.6337
6264.6333
6264.6327
6264.6319
6264.6309
6264.6295
6264.6277
6264.6254
6264.6225
6264.6189
6264.6143
6264.6087
6264.6016
6264.5927
6264.5816
6264.5677
6264.5504
6264.5286
6264.5012
6264.4666
6264.423
6264.3676
6264.2973
6264.2078
6264.0936
6263.9477
6263.7615
6263.5239
6263.2214
6262.8371
6262.3509
6261.7384
6260.9706
6260.0133
6258.8264
6257.3632
6255.5699
6253.3848
6250.7374
6247.5475
6243.7246
6239.1671
6233.7614
6227.3817
6219.8892
6211.132
6200.9443
6189.1454
6175.5391
6159.9121
6142.0333
6121.6526
6098.4998
6072.283
6042.6864
6009.3724
5971.9767
5930.1119
5883.3502
5831.243
5773.2937
5709.0516
5637.3832
6268.7091
6268.709
6268.7088
6268.7084
6268.7078
6268.707
6268.706
6268.7046
6268.7028
6268.7006
6268.6978
6268.6942
6268.6897
6268.6841
6268.6771
6268.6684
6268.6574
6268.6437
6268.6266
6268.605
6268.5779
6268.5437
6268.5005
6268.4456
6268.3759
6268.2871
6268.1739
6268.0294
6267.8449
6267.6098
6267.3106
6266.9307
6266.4504
6265.8456
6265.0875
6264.1423
6262.9706
6261.5262
6259.7564
6257.6001
6254.9881
6251.8411
6248.0698
6243.5738
6238.2411
6231.9477
6224.5569
6215.9192
6205.8708
6194.2335
6180.813
6165.3983
6147.7608
6127.6534
6104.8089
6078.9393
6049.7339
6016.8605
5979.9592
5938.6476
5892.5028
5841.0822
5783.8998
5720.5238
5649.743
6273.1765
6273.1764
6273.1762
6273.1758
6273.1753
6273.1745
6273.1735
6273.1721
6273.1704
6273.1681
6273.1653
6273.1618
6273.1574
6273.1518
6273.1449
6273.1363
6273.1255
6273.1119
6273.0949
6273.0736
6273.0467
6273.0128
6272.9699
6272.9155
6272.8463
6272.7582
6272.6459
6272.5027
6272.3202
6272.0876
6271.7919
6271.4169
6270.9429
6270.3461
6269.5984
6268.6664
6267.511
6266.0872
6264.3429
6262.2183
6259.645
6256.5452
6252.8306
6248.4022
6243.1498
6236.9515
6229.6729
6221.1667
6211.2717
6199.8119
6186.5955
6171.414
6154.0417
6134.2344
6111.7285
6086.2408
6057.4664
6025.0781
5988.7203
5948.016
5902.5487
5851.8812
5795.5392
5733.1128
5663.3042
6278.05
6278.0499
6278.0497
6278.0494
6278.0488
6278.0481
6278.047
6278.0457
6278.044
6278.0418
6278.039
6278.0355
6278.0311
6278.0256
6278.0187
6278.0101
6277.9994
6277.9859
6277.969
6277.9478
6277.9211
6277.8874
6277.8447
6277.7906
6277.7219
6277.6345
6277.5231
6277.3813
6277.2007
6276.9708
6276.6789
6276.3089
6275.8416
6275.2535
6274.5168
6273.5988
6272.4612
6271.0597
6269.3433
6267.2533
6264.7225
6261.674
6258.0214
6253.6671
6248.5029
6242.409
6235.2534
6226.8913
6217.1642
6205.8985
6192.9052
6177.9787
6160.8961
6141.4165
6119.2811
6094.212
6065.9098
6034.0518
5998.2884
5958.2476
5913.5195
5863.6734
5808.2476
5746.857
5678.1071
6283.3447
6283.3446
6283.3444
6283.344
6283.3435
6283.3427
6283.3417
6283.3404
6283.3387
6283.3365
6283.3337
6283.3302
6283.3258
6283.3203
6283.3135
6283.3049
6283.2941
6283.2807
6283.2638
6283.2426
6283.2159
6283.1822
6283.1396
6283.0857
6283.0174
6282.9305
6282.8201
6282.6796
6282.5009
6282.2738
6281.9857
6281.621
6281.1605
6280.5816
6279.8566
6278.9537
6277.8353
6276.4581
6274.772
6272.7196
6270.2347
6267.2423
6263.6571
6259.3837
6254.3159
6248.336
6241.3147
6233.1098
6223.5655
6212.5112
6199.7608
6185.1116
6168.3438
6149.2211
6127.4899
6102.8774
6075.0891
6043.8089
6008.692
5969.3719
5925.4466
5876.492
5822.0603
5761.7937
5694.1909
6289.0758
6289.0757
6289.0756
6289.0752
6289.0747
6289.0739
6289.0729
6289.0716
6289.0698
6289.0676
6289.0648
6289.0613
6289.0568
6289.0513
6289.0443
6289.0356
6289.0248
6289.0112
6288.9941
6288.9728
6288.9459
6288.9121
6288.8695
6288.8156
6288.7474
6288.661
6288.5513
6288.412
6288.2352
6288.0109
6287.7267
6287.3673
6286.9141
6286.3446
6285.6322
6284.7454
6283.6477
6282.2967
6280.6434
6278.6316
6276.1966
6273.2648
6269.7529
6265.5674
6260.6042
6254.7484
6247.873
6239.8388
6230.4929
6219.6679
6207.1805
6192.8315
6176.405
6157.6699
6136.3774
6112.26
6085.0299
6054.376
6019.9584
5981.4184
5938.3604
5890.3694
5837.0119
5777.9599
5711.5944
6295.2555
6295.2554
6295.2553
6295.2549
6295.2544
6295.2536
6295.2526
6295.2512
6295.2495
6295.2472
6295.2444
6295.2408
6295.2363
6295.2307
6295.2236
6295.2148
6295.2037
6295.19
6295.1727
6295.1511
6295.124
6295.09
6295.0472
6294.9933
6294.9252
6294.8392
6294.7302
6294.5922
6294.4173
6294.1958
6293.9156
6293.5618
6293.1161
6292.5567
6291.8575
6290.9881
6289.9126
6288.5899
6286.972
6285.004
6282.6228
6279.7565
6276.3236
6272.2331
6267.3834
6261.6618
6254.9444
6247.0949
6237.9635
6227.3858
6215.1823
6201.1571
6185.0997
6166.7837
6145.9654
6122.384
6095.7572
6065.7784
6032.1156
5994.4151
5952.2913
5905.3378
5853.1364
5795.3914
5730.3552
6301.8928
6301.8928
6301.8926
6301.8923
6301.8918
6301.891
6301.89
6301.8886
6301.8868
6301.8845
6301.8817
6301.878
6301.8734
6301.8677
6301.8606
6301.8516
6301.8404
6301.8265
6301.8091
6301.7873
6301.76
6301.7259
6301.683
6301.6292
6301.5614
6301.4758
6301.3678
6301.2313
6301.0587
6300.8405
6300.5648
6300.2171
6299.7796
6299.2312
6298.5465
6297.6957
6296.6443
6295.352
6293.7722
6291.8514
6289.5279
6286.732
6283.3843
6279.3963
6274.6687
6269.0919
6262.5448
6254.8942
6245.9935
6235.6818
6223.7832
6210.107
6194.4473
6176.5825
6156.2759
6133.2727
6107.2943
6078.042
6045.189
6008.3901
5967.2688
5921.4283
5870.4668
5814.1233
5750.5091
6308.993
6308.993
6308.9928
6308.9925
6308.992
6308.9912
6308.9902
6308.9888
6308.9871
6308.9848
6308.9819
6308.9783
6308.9737
6308.968
6308.9609
6308.9519
6308.9408
6308.9268
6308.9095
6308.8878
6308.8607
6308.8268
6308.7843
6308.7309
6308.6639
6308.5794
6308.473
6308.3387
6308.1691
6307.9549
6307.6846
6307.3442
6306.9162
6306.3802
6305.7115
6304.8814
6303.8563
6302.5969
6301.0581
6299.1878
6296.9263
6294.2059
6290.9498
6287.0718
6282.4755
6277.0542
6270.6898
6263.2523
6254.5987
6244.5718
6233.0004
6219.6989
6204.4656
6187.0864
6167.3304
6144.9476
6119.6648
6091.1904
6059.2047
6023.3709
5983.322
5938.6715
5889.035
5834.1895
5772.0906
6316.5602
6316.5602
6316.56
6316.5597
6316.5592
6316.5585
6316.5575
6316.5562
6316.5545
6316.5523
6316.5495
6316.546
6316.5416
6316.536
6316.529
6316.5203
6316.5095
6316.4959
6316.479
6316.4578
6316.4314
6316.3983
6316.3568
6316.3048
6316.2393
6316.1569
6316.0531
6315.922
6315.7565
6315.5476
6315.2841
6314.9523
6314.5355
6314.0139
6313.3636
6312.5566
6311.5603
6310.3369
6308.8424
6307.0266
6304.8318
6302.1924
6299.0343
6295.274
6290.8183
6285.5632
6279.3939
6272.1841
6263.7941
6254.0713
6242.8501
6229.9487
6215.1731
6198.3152
6179.1493
6157.4294
6132.8912
6105.2473
6074.1876
6039.384
6000.4792
5957.0971
5908.8722
5855.6225
5795.1322
6324.6003
6324.6002
6324.6001
6324.5998
6324.5994
6324.5987
6324.5978
6324.5966
6324.595
6324.5929
6324.5903
6324.587
6324.5829
6324.5776
6324.5711
6324.5629
6324.5527
6324.5399
6324.5238
6324.5038
6324.4786
6324.447
6324.4074
6324.3575
6324.2946
6324.2153
6324.1151
6323.9885
6323.8285
6323.6263
6323.3713
6323.0501
6322.6467
6322.1416
6321.5121
6320.731
6319.7668
6318.5828
6317.1366
6315.3797
6313.2565
6310.7041
6307.6509
6304.0165
6299.7105
6294.6324
6288.6708
6281.7026
6273.5926
6264.1946
6253.346
6240.8729
6226.5877
6210.2874
6191.7503
6170.7391
6146.9936
6120.2352
6090.1621
6056.4553
6018.7678
5976.7337
5930.0078
5878.4537
5819.6646
6333.1231
6333.1231
6333.123
6333.1227
6333.1223
6333.1218
6333.1209
6333.1198
6333.1184
6333.1166
6333.1142
6333.1112
6333.1075
6333.1027
6333.0968
6333.0893
6333.0799
6333.0682
6333.0534
6333.0348
6333.0114
6332.982
6332.9448
6332.8978
6332.8384
6332.763
6332.6676
6332.5466
6332.3933
6332.1994
6331.9543
6331.6454
6331.257
6330.7709
6330.1647
6329.4126
6328.4839
6327.3433
6325.9498
6324.2567
6322.2109
6319.7517
6316.8107
6313.3103
6309.1635
6304.2729
6298.5307
6291.8184
6284.0072
6274.9538
6264.5031
6252.488
6238.7257
6223.0183
6205.1519
6184.894
6161.9923
6136.1758
6107.1514
6074.6098
6038.2142
5997.609
5952.47
5902.7134
5845.717
6342.1426
6342.1426
6342.1425
6342.1423
6342.1419
6342.1414
6342.1407
6342.1398
6342.1385
6342.1369
6342.1348
6342.1322
6342.1289
6342.1246
6342.1193
6342.1126
6342.1042
6342.0936
6342.0802
6342.0633
6342.0418
6342.0147
6341.9803
6341.9365
6341.8809
6341.81
6341.7198
6341.6051
6341.4593
6341.2744
6341.0405
6340.7453
6340.374
6339.9089
6339.3287
6338.6083
6337.7185
6336.6251
6335.2888
6333.6648
6331.7021
6329.343
6326.5217
6323.1636
6319.1851
6314.4926
6308.9829
6302.5433
6295.0485
6286.3618
6276.336
6264.8073
6251.6007
6236.5238
6219.3695
6199.912
6177.9064
6153.0899
6125.178
6093.8714
6058.8438
6019.7495
5976.2858
5928.4304
5873.3179
6351.6735
6351.6735
6351.6734
6351.6733
6351.673
6351.6726
6351.6719
6351.6711
6351.67
6351.6686
6351.6668
6351.6644
6351.6615
6351.6577
6351.6529
6351.6469
6351.6393
6351.6296
6351.6174
6351.602
6351.5823
6351.5573
6351.5254
6351.4847
6351.4327
6351.3662
6351.2812
6351.1729
6351.035
6350.8597
6350.6377
6350.3573
6350.0045
6349.5621
6349.01
6348.3241
6347.4763
6346.4338
6345.1591
6343.6093
6341.7359
6339.4834
6336.789
6333.5816
6329.7813
6325.2987
6320.0364
6313.8857
6306.7266
6298.4311
6288.8549
6277.8426
6265.2249
6250.8171
6234.418
6215.8093
6194.7539
6170.9972
6144.2636
6114.2633
6080.6811
6043.1809
6001.4814
5955.6322
5902.4959
6361.7275
6361.7275
6361.7274
6361.7273
6361.727
6361.7267
6361.7261
6361.7253
6361.7243
6361.723
6361.7213
6361.7192
6361.7164
6361.713
6361.7085
6361.7029
6361.6959
6361.6869
6361.6756
6361.6611
6361.6428
6361.6193
6361.5894
6361.5512
6361.5022
6361.4396
6361.3595
6361.2573
6361.1272
6360.9618
6360.7523
6360.4875
6360.1543
6359.7363
6359.2142
6358.5652
6357.7622
6356.774
6355.5649
6354.0942
6352.3154
6350.176
6347.6162
6344.5686
6340.9572
6336.6982
6331.6982
6325.8529
6319.0513
6311.1691
6302.0691
6291.6037
6279.61
6265.9103
6250.3107
6232.6008
6212.5514
6189.9163
6164.4286
6135.8081
6103.75
6067.9278
6028.0822
5984.3444
5933.2814
6372.3093
6372.3093
6372.3093
6372.3092
6372.3089
6372.3085
6372.308
6372.3073
6372.3063
6372.305
6372.3034
6372.3013
6372.2986
6372.2952
6372.2909
6372.2855
6372.2787
6372.27
6372.2591
6372.2453
6372.2277
6372.2053
6372.1768
6372.1405
6372.0941
6372.0349
6371.9593
6371.8631
6371.7407
6371.5853
6371.3887
6371.1404
6370.8278
6370.4356
6369.9452
6369.335
6368.5793
6367.6485
6366.5088
6365.1214
6363.4427
6361.423
6359.006
6356.1279
6352.7175
6348.6956
6343.9723
6338.4516
6332.0279
6324.5823
6315.9866
6306.0991
6294.7645
6281.8134
6267.0594
6250.2999
6231.3142
6209.8646
6185.6927
6158.5275
6128.0741
6094.0154
6056.1143
6014.5938
5965.7067
6383.4165
6383.4166
6383.4165
6383.4164
6383.4161
6383.4157
6383.4152
6383.4145
6383.4135
6383.4122
6383.4105
6383.4084
6383.4058
6383.4024
6383.3981
6383.3928
6383.386
6383.3776
6383.3669
6383.3534
6383.3363
6383.3147
6383.2874
6383.2527
6383.2086
6383.1527
6383.0815
6382.9913
6382.8769
6382.7321
6382.549
6382.318
6382.0271
6381.6619
6381.2049
6380.6354
6379.9293
6379.0586
6377.9916
6376.692
6375.1189
6373.2258
6370.9599
6368.2617
6365.0646
6361.2923
6356.8623
6351.6853
6345.6599
6338.6759
6330.612
6321.3344
6310.6959
6298.535
6284.6738
6268.9182
6251.0559
6230.8582
6208.0747
6182.4428
6153.6773
6121.4692
6085.6065
6046.4138
5999.8045
6395.0424
6395.0424
6395.0423
6395.0422
6395.0419
6395.0415
6395.041
6395.0402
6395.0393
6395.038
6395.0363
6395.0342
6395.0316
6395.0283
6395.0241
6395.0188
6395.0122
6395.0039
6394.9935
6394.9804
6394.964
6394.9434
6394.9174
6394.8846
6394.8432
6394.7908
6394.7246
6394.6408
6394.535
6394.4014
6394.2328
6394.0201
6393.7522
6393.4153
6392.9931
6392.4661
6391.8117
6391.0038
6390.0129
6388.8054
6387.3436
6385.5841
6383.4781
6380.9707
6377.9976
6374.4891
6370.3699
6365.5543
6359.9489
6353.4514
6345.9482
6337.3136
6327.4087
6316.0809
6303.1615
6288.465
6271.7883
6252.9114
6231.5922
6207.5756
6180.5844
6150.3165
6116.5896
6079.8444
6035.614
6407.1793
6407.1793
6407.1792
6407.1791
6407.1788
6407.1784
6407.1779
6407.1772
6407.1762
6407.175
6407.1734
6407.1714
6407.1689
6407.1657
6407.1617
6407.1567
6407.1505
6407.1426
6407.1329
6407.1206
6407.1053
6407.086
6407.0619
6407.0315
6406.9934
6406.9453
6406.8847
6406.8084
6406.7123
6406.5909
6406.4378
6406.2446
6406.0007
6405.6935
6405.3075
6404.8247
6404.2239
6403.4815
6402.5702
6401.4595
6400.1147
6398.4961
6396.5592
6394.2515
6391.5144
6388.2851
6384.492
6380.0566
6374.8936
6368.9082
6361.9952
6354.0374
6344.905
6334.4546
6322.5272
6308.9472
6293.5207
6276.0369
6256.2618
6233.9473
6208.8227
6180.5885
6149.088
6114.8915
6073.2273
6419.8199
6419.8199
6419.8198
6419.8197
6419.8194
6419.8191
6419.8186
6419.8179
6419.8171
6419.816
6419.8146
6419.8128
6419.8105
6419.8077
6419.8041
6419.7997
6419.7941
6419.7871
6419.7784
6419.7675
6419.7538
6419.7367
6419.7152
6419.6882
6419.6543
6419.6115
6419.5578
6419.49
6419.4045
6419.2966
6419.1601
6418.9873
6418.7685
6418.4919
6418.1432
6417.706
6417.161
6416.4866
6415.6587
6414.6496
6413.4277
6411.9577
6410.1976
6408.0994
6405.6114
6402.6744
6399.2235
6395.1879
6390.4898
6385.0427
6378.75
6371.5037
6363.1835
6353.656
6342.7726
6330.3687
6316.2601
6300.2452
6282.0988
6261.5798
6238.4226
6212.3189
6183.1147
6151.6452
6112.6705
6432.9599
6432.9599
6432.9598
6432.9597
6432.9595
6432.9592
6432.9588
6432.9583
6432.9576
6432.9567
6432.9555
6432.954
6432.9522
6432.9499
6432.9469
6432.9433
6432.9386
6432.9329
6432.9256
6432.9165
6432.9051
6432.8907
6432.8725
6432.8496
6432.8207
6432.7842
6432.7381
6432.6798
6432.6059
6432.5121
6432.3929
6432.2412
6432.048
6431.8027
6431.4922
6431.1019
6430.6147
6430.0116
6429.2709
6428.3683
6427.2758
6425.961
6424.3855
6422.5077
6420.2798
6417.6486
6414.5566
6410.9404
6406.7302
6401.848
6396.2063
6389.7069
6382.2395
6373.6816
6363.8959
6352.7296
6340.0098
6325.5446
6309.1177
6290.4952
6269.4109
6245.5274
6218.7297
6190.1458
6153.9862
6446.5941
6446.5941
6446.5941
6446.594
6446.5938
6446.5936
6446.5933
6446.5929
6446.5924
6446.5918
6446.5909
6446.5899
6446.5885
6446.5868
6446.5847
6446.582
6446.5786
6446.5743
6446.5688
6446.5619
6446.5531
6446.5419
6446.5277
6446.5095
6446.4862
6446.4565
6446.4186
6446.3701
6446.3081
6446.2286
6446.1268
6445.9961
6445.8286
6445.6148
6445.3435
6445.0016
6444.5745
6444.0458
6443.3966
6442.6055
6441.6481
6440.4946
6439.1125
6437.4645
6435.5078
6433.1964
6430.4799
6427.3029
6423.6039
6419.3137
6414.354
6408.6371
6402.0639
6394.5235
6385.891
6376.0265
6364.7701
6351.9406
6337.3314
6320.7127
6301.8125
6280.2925
6255.9732
6230.4347
6197.3036
6460.7185
6460.7185
6460.7184
6460.7184
6460.7183
6460.7181
6460.7179
6460.7177
6460.7174
6460.717
6460.7165
6460.7158
6460.715
6460.7139
6460.7126
6460.7109
6460.7087
6460.7059
6460.7022
6460.6975
6460.6914
6460.6835
6460.6731
6460.6595
6460.6417
6460.6186
6460.5886
6460.5495
6460.4989
6460.4332
6460.3482
6460.2381
6460.0963
6459.9145
6459.6831
6459.3914
6459.027
6458.5758
6458.0221
6457.3475
6456.5299
6455.5447
6454.3638
6452.9543
6451.2804
6449.3027
6446.9786
6444.2608
6441.0963
6437.425
6433.1787
6428.2804
6422.6433
6416.1693
6408.7472
6400.2512
6390.5363
6379.4338
6366.7461
6352.2469
6335.6822
6316.6601
6294.9335
6272.5856
6242.7561
6475.323
6475.323
6475.3229
6475.3229
6475.3228
6475.3227
6475.3226
6475.3225
6475.3223
6475.3221
6475.3219
6475.3216
6475.3212
6475.3207
6475.32
6475.3191
6475.318
6475.3165
6475.3144
6475.3116
6475.3078
6475.3027
6475.2957
6475.2861
6475.2732
6475.2559
6475.2328
6475.2022
6475.1619
6475.1091
6475.0401
6474.9503
6474.8341
6474.6846
6474.4944
6474.2546
6473.9551
6473.5845
6473.1299
6472.5753
6471.9028
6471.0923
6470.1197
6468.9581
6467.5782
6465.9484
6464.0337
6461.7951
6459.1884
6456.1629
6452.6612
6448.618
6443.9595
6438.6015
6432.4483
6425.3894
6417.2963
6408.0132
6397.3625
6385.1274
6371.0497
6354.7153
6335.7746
6316.7474
6290.4499
6490.3926
6490.3925
6490.3925
6490.3924
6490.3924
6490.3923
6490.3922
6490.3921
6490.392
6490.3919
6490.3918
6490.3917
6490.3915
6490.3913
6490.391
6490.3906
6490.3901
6490.3893
6490.3882
6490.3866
6490.3843
6490.381
6490.3762
6490.3695
6490.3601
6490.3472
6490.3297
6490.3062
6490.2751
6490.2341
6490.1803
6490.1103
6490.0195
6489.9029
6489.7546
6489.568
6489.3354
6489.048
6488.6951
6488.2645
6487.7423
6487.1121
6486.3552
6485.4508
6484.3769
6483.1094
6481.6212
6479.8817
6477.8556
6475.5027
6472.7768
6469.6251
6465.9876
6461.7956
6456.9698
6451.415
6445.0257
6437.6674
6429.1792
6419.3588
6407.9625
6394.5599
6378.7296
6363.1524
6340.3829
6505.8997
6505.8996
6505.8995
6505.8995
6505.8994
6505.8993
6505.8992
6505.8991
6505.899
6505.8989
6505.8987
6505.8986
6505.8985
6505.8983
6505.8981
6505.8978
6505.8974
6505.8969
6505.8961
6505.895
6505.8933
6505.8909
6505.8874
6505.8824
6505.8754
6505.8657
6505.8527
6505.8353
6505.8123
6505.7824
6505.7435
6505.6931
6505.6282
6505.545
6505.4395
6505.3075
6505.1437
6504.9414
6504.6929
6504.39
6504.0223
6503.578
6503.044
6502.4063
6501.6501
6500.759
6499.7139
6498.4926
6497.0696
6495.4151
6493.4949
6491.2689
6488.694
6485.7179
6482.279
6478.3028
6473.7027
6468.3698
6462.1763
6454.949
6446.4666
6436.3083
6424.0486
6411.8568
6392.8843
6521.8119
6521.8118
6521.8117
6521.8116
6521.8114
6521.8113
6521.8111
6521.8109
6521.8107
6521.8105
6521.8102
6521.8099
6521.8096
6521.8093
6521.8089
6521.8084
6521.8078
6521.8071
6521.8062
6521.8049
6521.8032
6521.801
6521.7978
6521.7936
6521.7879
6521.7804
6521.7707
6521.7584
6521.7429
6521.7234
6521.699
6521.6685
6521.6299
6521.5807
6521.5189
6521.4425
6521.3483
6521.2325
6521.0914
6520.9196
6520.7108
6520.4582
6520.1548
6519.7934
6519.3664
6518.8653
6518.2792
6517.5946
6516.7963
6515.8661
6514.7819
6513.5191
6512.0497
6510.34
6508.3479
6506.0202
6503.2975
6500.0972
6496.326
6491.8623
6486.5322
6480.0044
6471.9185
6463.6319
6449.3622
6538.8068
6538.8066
6538.8064
6538.8062
6538.806
6538.8057
6538.8054
6538.8051
6538.8047
6538.8042
6538.8037
6538.8031
6538.8025
6538.8017
6538.8009
6538.7999
6538.7987
6538.7972
6538.7956
6538.7935
6538.7911
6538.7881
6538.7845
6538.7802
6538.775
6538.7689
6538.7619
6538.7542
6538.7456
6538.7362
6538.7261
6538.7153
6538.7033
6538.6901
6538.6756
6538.6595
6538.6413
6538.621
6538.5971
6538.5682
6538.5329
6538.4899
6538.4391
6538.38
6538.3124
6538.2359
6538.1484
6538.0463
6537.9252
6537.7794
6537.6019
6537.3843
6537.1162
6536.7838
6536.3671
6535.8389
6535.165
6534.3015
6533.1927
6531.7732
6529.9489
6527.5341
6524.5375
6521.7943
6516.5555
6556.686
6556.6858
6556.6855
6556.6852
6556.6849
6556.6846
6556.6841
6556.6837
6556.6831
6556.6825
6556.6818
6556.6809
6556.6799
6556.6788
6556.6775
6556.676
6556.6742
6556.6721
6556.6697
6556.6669
6556.6636
6556.66
6556.6559
6556.6515
6556.6469
6556.6425
6556.6386
6556.6358
6556.6351
6556.6372
6556.6432
6556.6543
6556.6721
6556.6976
6556.7333
6556.7818
6556.8464
6556.9285
6557.0296
6557.1532
6557.3031
6557.4841
6557.7028
6557.9664
6558.2826
6558.6589
6559.1027
6559.6209
6560.2211
6560.912
6561.7023
6562.6012
6563.6171
6564.7573
6566.026
6567.4247
6568.9504
6570.5983
6572.3585
6574.2269
6576.1979
6578.2461
6580.5689
6583.563
6585.8212
6574.5299
6574.5297
6574.5294
6574.5291
6574.5287
6574.5283
6574.5279
6574.5274
6574.5268
6574.5261
6574.5253
6574.5245
6574.5235
6574.5223
6574.521
6574.5195
6574.5178
6574.5158
6574.5136
6574.5111
6574.5083
6574.5053
6574.5023
6574.4994
6574.4971
6574.4959
6574.4967
6574.5006
6574.5089
6574.5235
6574.5462
6574.5795
6574.6256
6574.6886
6574.7731
6574.8836
6575.0256
6575.2048
6575.4277
6575.7016
6576.0355
6576.4402
6576.9286
6577.5152
6578.2151
6579.0444
6580.0199
6581.1595
6582.4837
6584.0151
6585.779
6587.8021
6590.112
6592.7371
6595.7064
6599.0507
6602.8002
6606.9896
6611.6566
6616.8542
6622.6445
6629.1201
6636.5082
6645.0478
6654.5894
6592.2623
6592.2621
6592.2618
6592.2615
6592.2611
6592.2607
6592.2603
6592.2599
6592.2593
6592.2588
6592.2581
6592.2574
6592.2566
6592.2557
6592.2548
6592.2536
6592.2524
6592.2511
6592.2496
6592.2481
6592.2465
6592.2451
6592.2439
6592.2435
6592.2444
6592.2474
6592.2537
6592.2646
6592.2822
6592.3089
6592.3476
6592.4018
6592.4763
6592.5768
6592.7088
6592.8798
6593.0985
6593.3741
6593.7169
6594.1392
6594.6553
6595.2819
6596.0385
6596.9463
6598.0278
6599.3075
6600.8121
6602.5708
6604.6172
6606.9883
6609.7252
6612.8726
6616.4774
6620.5893
6625.2622
6630.5559
6636.5342
6643.2702
6650.847
6659.3689
6668.9575
6679.7856
6692.1179
6706.2648
6722.6715
6609.7989
6609.7987
6609.7984
6609.7981
6609.7978
6609.7975
6609.7971
6609.7968
6609.7964
6609.7961
6609.7957
6609.7953
6609.7949
6609.7946
6609.7942
6609.7938
6609.7935
6609.7933
6609.7932
6609.7933
6609.7937
6609.7947
6609.7965
6609.7995
6609.8047
6609.8128
6609.8255
6609.8446
6609.8726
6609.9128
6609.9691
6610.0463
6610.1506
6610.2882
6610.4677
6610.6994
6610.9945
6611.3656
6611.8275
6612.3969
6613.0937
6613.9406
6614.963
6616.1888
6617.6481
6619.3739
6621.4029
6623.7761
6626.54
6629.746
6633.4507
6637.7161
6642.6086
6648.2002
6654.5693
6661.8038
6670.0003
6679.269
6689.7354
6701.553
6714.9016
6730.0216
6747.2361
6766.9572
6789.7966
6627.0724
6627.0721
6627.0719
6627.0716
6627.0714
6627.0712
6627.071
6627.0708
6627.0707
6627.0706
6627.0706
6627.0706
6627.0708
6627.071
6627.0714
6627.072
6627.0728
6627.0739
6627.0754
6627.0774
6627.0801
6627.0838
6627.0889
6627.0959
6627.1059
6627.12
6627.1401
6627.1686
6627.2084
6627.2637
6627.3391
6627.4406
6627.575
6627.751
6627.979