/*--------------------------------*- C++ -*----------------------------------*\
  =========                 |
  \\      /  F ield         | OpenFOAM: The Open Source CFD Toolbox
   \\    /   O peration     | Website:  https://openfoam.org
    \\  /    A nd           | Version:  13
     \\/     M anipulation  |
\*---------------------------------------------------------------------------*/
FoamFile
{
    format      ascii;
    class       volSymmTensorField;
    location    "49.899831";
    object      UPrime2Mean;
}
// * * * * * * * * * * * * * * * * * * * * * * * * * * * * * * * * * * * * * //

dimensions      [0 2 -2 0 0 0 0];

internalField   nonuniform List<symmTensor> 
17140
(
(6.383052e-12 -4.1220378e-10 -7.0431062e-28 2.8064074e-08 9.8516363e-27 4.2935413e-41)
(3.755888e-10 -6.0403692e-09 -2.9288069e-28 2.6866673e-07 2.0855374e-27 3.8146186e-43)
(3.1727157e-09 -2.441217e-08 4.6214879e-26 8.1945768e-07 -2.1441844e-25 1.6629626e-39)
(1.4675964e-08 -6.7225593e-08 -9.6463573e-26 1.7728012e-06 3.2642916e-25 2.0097828e-39)
(4.8793525e-08 -1.5128704e-07 1.9046165e-26 3.2414993e-06 -4.9973796e-26 2.7466931e-41)
(1.3339203e-07 -3.0097882e-07 -9.8004521e-26 5.3621354e-06 2.0729373e-25 2.9420693e-40)
(3.2036073e-07 -5.5062366e-07 -2.4781829e-25 8.2986591e-06 4.3180773e-25 8.338993e-40)
(7.0141254e-07 -9.4734865e-07 1.758325e-25 1.2246028e-05 -2.5589592e-25 1.9875723e-40)
(1.4325212e-06 -1.5544783e-06 8.1745634e-25 1.7433658e-05 -1.0029753e-24 2.1294344e-39)
(2.7708101e-06 -2.4552595e-06 2.7943908e-24 2.4128326e-05 -2.9113902e-24 1.2810958e-38)
(5.1290175e-06 -3.7566306e-06 -5.6881805e-24 3.2636037e-05 5.0605915e-24 2.8170157e-38)
(9.1541276e-06 -5.5925309e-06 6.8767899e-24 4.3302165e-05 -5.2466672e-24 2.2373315e-38)
(1.583825e-05 -8.1259776e-06 1.4148217e-24 5.650903e-05 -9.2877653e-25 5.2415889e-40)
(2.6670937e-05 -1.1548776e-05 -1.0640195e-23 7.2669842e-05 6.0323981e-24 1.6766378e-38)
(4.3842397e-05 -1.6077422e-05 1.5616916e-24 9.2217835e-05 -7.6599859e-25 2.0668342e-40)
(7.0505624e-05 -2.1943477e-05 -1.6228607e-23 0.00011558927 6.9033323e-24 1.2968433e-38)
(0.00011110135 -2.9376822e-05 7.8441834e-25 0.00014319913 -2.9001247e-25 1.7961269e-41)
(0.00017174199 -3.858071e-05 -2.3266559e-25 0.00017540838 7.4426254e-26 8.9928405e-43)
(0.00026063894 -4.9699012e-05 -2.0863408e-23 0.00021248251 5.8315117e-24 4.5233682e-39)
(0.00038854306 -6.2778477e-05 3.4528336e-23 0.00025454146 -8.4076385e-24 7.5842132e-39)
(0.00056915447 -7.7732229e-05 -2.1089956e-23 0.00030150258 4.4738082e-24 1.7513852e-39)
(0.00081945201 -9.4314269e-05 5.0302038e-24 0.00035302016 -9.3227276e-25 6.3392424e-41)
(0.0011599027 -0.00011211669 4.6249916e-23 0.00040842746 -7.4555119e-24 3.412164e-39)
(0.0016145715 -0.00013060075 -5.6810509e-23 0.00046669206 7.9828134e-24 3.3561412e-39)
(0.0022113114 -0.00014916844 -1.1012278e-22 0.00052640112 1.3475595e-23 8.4019731e-39)
(0.0029818694 -0.00016725336 1.06458e-22 0.00058580025 -1.1349029e-23 5.3559432e-39)
(0.0039618107 -0.00018436466 6.240583e-22 0.00064290692 -5.7865525e-23 1.2753564e-37)
(0.0051927746 -0.00020023186 8.7126547e-23 0.00069568518 -7.0104176e-24 1.7486238e-39)
(0.006723634 -0.00021485672 -8.911914e-22 0.0007422473 6.2364994e-23 1.33356e-37)
(0.0086114325 -0.00022808097 -2.4249889e-22 0.00078105859 1.4704044e-23 7.231968e-39)
(0.010923931 -0.00023988326 -9.9712755e-22 0.00081110948 5.2346615e-23 9.1619472e-38)
(0.013740007 -0.0002503357 1.5029672e-21 0.00083208209 -6.8165335e-23 1.5835205e-37)
(0.017152365 -0.00025889676 -4.4752948e-22 0.00084466658 1.7450119e-23 1.0750105e-38)
(0.021267184 -0.00026457172 -2.421013e-22 0.00085062156 8.1073883e-24 2.4599675e-39)
(0.026203655 -0.00026580532 -2.6972227e-21 0.00085232576 7.6709202e-23 2.3872765e-37)
(0.032091612 -0.00026048829 1.3287484e-21 0.00085208184 -3.2041811e-23 4.6252057e-38)
(0.039067082 -0.00024596438 -2.2470803e-21 0.00085168297 4.5418168e-23 1.0575234e-37)
(0.047264861 -0.0002190087 -1.6951368e-21 0.00085243395 2.8446407e-23 4.8783833e-38)
(0.056806727 -0.00017581686 -8.6099524e-22 0.00085547591 1.1816837e-23 1.0295297e-38)
(0.067783531 -0.00011205745 2.8663821e-21 0.0008622143 -3.1723648e-23 9.5071356e-38)
(0.080230404 -2.3206547e-05 5.9226869e-21 0.0008747183 -5.1362849e-23 3.3975751e-37)
(0.094095646 9.4917639e-05 5.8403894e-21 0.00089597531 -3.8289254e-23 2.8005289e-37)
(0.10920497 0.00024527965 2.750115e-21 0.00092992591 -1.2873235e-23 5.3303788e-38)
(0.12523241 0.00042877263 -1.4393566e-20 0.00098131088 4.2848998e-23 1.2575277e-36)
(0.14168851 0.00064283752 -1.1215248e-20 0.0010556417 1.6327346e-23 6.6799246e-37)
(0.15792 0.00087914245 2.9124005e-21 0.0011597594 -2.2200076e-25 3.9980901e-38)
(0.17320746 0.0011263257 -2.078666e-20 0.0013029331 -2.4968255e-23 1.8269746e-36)
(0.18685997 0.0013745015 -7.3564309e-21 0.001498304 -1.7614715e-23 2.0795462e-37)
(0.19812865 0.0016121055 7.7488723e-21 0.0017646202 2.7336532e-23 2.1268597e-37)
(0.20659661 0.0018223419 1.946654e-20 0.0021275919 8.9830461e-23 1.2540901e-36)
(0.21192708 0.0019881201 -1.2207392e-20 0.0026231176 -6.9303857e-23 4.6756867e-37)
(0.21395973 0.0021003196 -7.791451e-21 0.003301365 -5.2598892e-23 1.8310607e-37)
(0.2126372 0.0021651238 2.0404076e-20 0.0042304954 1.6223088e-22 1.2231666e-36)
(0.20825571 0.002189147 9.6166822e-21 0.0055059459 8.9650758e-23 2.6840215e-37)
(0.20133696 0.0021728951 6.7833526e-21 0.0072710209 7.441644e-23 1.3398976e-37)
(0.19288428 0.0021251459 -5.2575063e-21 0.0097665555 -6.8371254e-23 8.1353332e-38)
(0.18420526 0.0020448363 1.3805754e-20 0.013453013 2.1389518e-22 5.8287214e-37)
(0.1762721 0.0017652427 1.1171859e-20 0.019234826 2.0246783e-22 4.0078976e-37)
(0.16987937 0.001059944 2.6747765e-21 0.027632308 5.1207314e-23 2.4828286e-38)
(0.16488956 0.00074109157 -6.5291161e-21 0.037128714 -1.140234e-22 1.6319372e-37)
(0.16042369 0.0012505203 -4.7245259e-21 0.045669581 -6.4858177e-23 9.9156096e-38)
(0.15513793 0.0020556746 -1.5927952e-20 0.051997244 -1.4761088e-22 1.3493049e-36)
(0.14639567 0.002385307 -2.0736192e-21 0.056201431 -9.0551866e-24 2.891524e-38)
(0.13525109 0.0022752419 1.5337016e-20 0.058136449 2.3085104e-23 2.0421066e-36)
(0.11628664 0.0014065765 -1.0054509e-20 0.05747411 -5.6420798e-23 1.2204372e-36)
(2.4248512e-10 -5.7028886e-09 7.813512e-28 1.341719e-07 -1.4808233e-26 3.4770526e-42)
(3.7086409e-09 -6.8255223e-08 -2.4838931e-25 1.2729729e-06 3.7191226e-24 4.5772349e-38)
(1.6333131e-08 -2.4688039e-07 4.1374857e-25 3.8507327e-06 -5.0423988e-24 3.6246752e-38)
(5.0277305e-08 -6.2784523e-07 -1.8445056e-25 8.2548171e-06 1.8696832e-24 2.6938587e-39)
(1.2770726e-07 -1.3329582e-06 -5.8227014e-25 1.4939558e-05 5.0032236e-24 1.1495827e-38)
(2.8822213e-07 -2.5368479e-06 1.6303655e-24 2.4429159e-05 -1.2046755e-23 4.1972952e-38)
(5.9983478e-07 -4.4834884e-06 -2.4197029e-24 3.731774e-05 1.5505851e-23 4.5608986e-38)
(1.1757868e-06 -7.506525e-06 2.9692548e-25 5.4264477e-05 -1.6588701e-24 3.5326605e-40)
(2.2000837e-06 -1.2054038e-05 -1.2719107e-24 7.5981917e-05 6.2174155e-24 3.4431912e-39)
(3.9653388e-06 -1.8716503e-05 -2.9437308e-26 0.00010321501 1.2632414e-25 9.8365479e-43)
(6.9278553e-06 -2.8256731e-05 -7.7129568e-24 0.00013670852 2.9079788e-23 3.8374865e-38)
(1.1786177e-05 -4.1639006e-05 1.6289352e-23 0.00017716042 -5.4089344e-23 9.6868061e-38)
(1.9590737e-05 -6.0053072e-05 1.7760702e-24 0.00022515996 -5.2017133e-24 6.6055138e-40)
(3.1893197e-05 -8.49263e-05 -2.298827e-23 0.00028111048 5.9456964e-23 6.4300214e-38)
(5.0944304e-05 -0.00011791508 9.2012579e-24 0.00034514018 -2.1035866e-23 6.0570606e-39)
(7.9947641e-05 -0.00016086455 7.5774368e-24 0.00041700796 -1.5323368e-23 2.4373371e-39)
(0.00012337281 -0.0002157253 -6.2018443e-23 0.00049601674 1.1097375e-22 9.7760877e-38)
(0.00018732436 -0.00028441827 2.5898462e-22 0.00058095243 -4.1013762e-22 1.0328081e-36)
(0.00027995171 -0.00036864641 -2.066162e-22 0.00067007097 2.8956225e-22 4.0244136e-37)
(0.00041187214 -0.00046966603 3.1342402e-22 0.00076115603 -3.8859293e-22 5.7323559e-37)
(0.00059656605 -0.00058805172 -5.8174981e-22 0.00085166278 6.378175e-22 1.2395057e-36)
(0.00085069885 -0.00072351294 1.7777232e-22 0.00093894597 -1.722591e-22 7.3709926e-38)
(0.0011943333 -0.00087483875 9.0467158e-23 0.0010205437 -7.7424683e-23 1.2366057e-38)
(0.00165105 -0.0010400514 -3.6260546e-22 0.0010944594 2.7382644e-22 1.3045005e-37)
(0.0022481514 -0.001216832 1.5808378e-21 0.00115937 -1.0529075e-21 1.6653674e-36)
(0.0030168389 -0.0014030963 2.8410914e-22 0.0012147076 -1.6667726e-22 3.6592779e-38)
(0.0039920416 -0.0015974421 -1.7460572e-21 0.001260562 9.0296514e-22 9.7147915e-37)
(0.0052146994 -0.0017997091 2.3096158e-21 0.0012972893 -1.0515466e-21 1.209067e-36)
(0.0067329791 -0.0020109581 -3.6918708e-22 0.0013253358 1.4814833e-22 2.2695845e-38)
(0.0086029613 -0.0022325627 -4.2180232e-21 0.0013452503 1.4864127e-21 2.1618539e-36)
(0.010891273 -0.0024663794 5.0253554e-22 0.0013573856 -1.5567094e-22 2.3196302e-38)
(0.013675348 -0.0027141905 4.4347417e-21 0.0013619242 -1.2031049e-21 1.3610405e-36)
(0.017046076 -0.0029766673 1.3118204e-22 0.0013593833 -3.0895048e-23 8.6420204e-40)
(0.021107315 -0.0032529752 -4.2867852e-21 0.0013508862 8.8830047e-22 7.6240971e-37)
(0.025975311 -0.003540266 5.407163e-21 0.0013379239 -9.7615269e-22 9.5595823e-37)
(0.031776187 -0.0038333116 -2.7443629e-21 0.0013218515 4.3057486e-22 1.9547034e-37)
(0.038641321 -0.0041240901 3.6067593e-21 0.0013035858 -4.9143465e-22 2.7333196e-37)
(0.046699673 -0.004401127 1.2811629e-20 0.0012836936 -1.5115796e-21 2.7911156e-36)
(0.056065735 -0.0046486291 3.1899387e-21 0.0012627822 -3.2531742e-22 1.4133961e-37)
(0.066821431 -0.0048456703 1.3728413e-20 0.0012420497 -1.2084128e-21 2.1778105e-36)
(0.078991124 -0.0049659775 -1.9228155e-20 0.0012238842 1.4565626e-21 3.5968913e-36)
(0.092510442 -0.0049788865 -1.9296363e-20 0.001212317 1.2520712e-21 3.0603621e-36)
(0.10719086 -0.004852117 -3.5933795e-21 0.0012133042 1.9855481e-22 8.9825693e-38)
(0.12269037 -0.00455672 3.0609098e-20 0.0012348417 -1.4296734e-21 5.7414105e-36)
(0.13849966 -0.0040744757 -1.5505815e-20 0.0012870262 6.0499566e-22 1.2808671e-36)
(0.15395005 -0.0034084324 -5.699619e-21 0.0013821586 1.8301203e-22 1.5302198e-37)
(0.16828983 -0.0025878741 3.1803545e-21 0.0015343976 -8.2291578e-23 4.3592202e-38)
(0.18080489 -0.0016580218 1.0392938e-20 0.0017585657 -2.0930345e-22 4.1986732e-37)
(0.19087229 -0.00067894978 -5.2565067e-21 0.0020695026 7.8993556e-23 9.9288986e-38)
(0.19801593 0.00028641467 9.7940716e-21 0.002486529 -1.0115342e-22 3.2191797e-37)
(0.20194867 0.001198544 6.0042943e-20 0.0030393587 -3.6382673e-22 1.1502266e-35)
(0.20255327 0.0020293389 2.8959444e-21 0.0037742852 -5.8027992e-24 2.586635e-38)
(0.19990768 0.0027488516 -1.311309e-20 0.00475899 -2.2358299e-23 5.1704426e-37)
(0.19438344 0.0033231965 2.9084696e-20 0.006087288 1.6025557e-22 2.5196041e-36)
(0.18674565 0.0037131975 -2.4576053e-20 0.007899802 -2.3434637e-22 1.8078615e-36)
(0.17809686 0.0038890172 6.850235e-20 0.010435369 9.5426081e-22 1.4322599e-35)
(0.16976862 0.0038230369 1.9058621e-20 0.014177367 3.6802436e-22 1.1471747e-36)
(0.16284581 0.003205406 -5.1775062e-20 0.020118922 -1.3029424e-21 8.9615406e-36)
(0.15799997 0.0016427914 8.4134784e-21 0.028581886 2.616104e-22 2.5500131e-37)
(0.15465861 -2.3782775e-05 9.0181519e-21 0.037634225 3.0462115e-22 3.2849196e-37)
(0.15159315 -0.001050147 1.6688138e-21 0.045648041 5.9414346e-23 1.3118491e-38)
(0.14759068 -0.001709868 -2.0153426e-20 0.051725158 -7.6383315e-22 2.304811e-36)
(0.13966045 -0.0023581018 3.4697567e-20 0.055792047 1.3335662e-21 8.7358761e-36)
(0.12943509 -0.0027115293 9.0828874e-21 0.057549949 3.7937086e-22 7.8288363e-37)
(0.11102556 -0.0031343286 1.2673283e-20 0.056837624 6.513497e-22 2.1623427e-36)
(1.9109209e-09 -2.7309543e-08 1.1172506e-25 3.9029643e-07 -1.4766393e-24 1.0568438e-38)
(2.1699652e-08 -2.8319305e-07 -1.6886643e-25 3.6984875e-06 2.0297453e-24 4.1814067e-39)
(7.6926205e-08 -9.262162e-07 -7.5034811e-26 1.1175303e-05 8.201875e-25 2.9575948e-40)
(1.94916e-07 -2.1551418e-06 1.0603522e-25 2.3927621e-05 -1.0553818e-24 2.6591577e-40)
(4.1832383e-07 -4.2390559e-06 -7.2822042e-25 4.3245562e-05 6.6168693e-24 6.2446996e-39)
(8.1471147e-07 -7.5474815e-06 -7.4691335e-26 7.0605944e-05 6.2095247e-25 3.4524398e-41)
(1.4892814e-06 -1.2579225e-05 -1.2857577e-24 0.00010766591 9.7775114e-24 5.6374963e-39)
(2.6035525e-06 -1.9997348e-05 -1.843467e-24 0.00015624052 1.2811365e-23 6.5446239e-39)
(4.4028768e-06 -3.0671686e-05 1.982412e-23 0.00021825674 -1.2569833e-22 4.3719258e-37)
(7.2556587e-06 -4.5725443e-05 -2.3111146e-23 0.00029567795 1.3346946e-22 3.4852668e-37)
(1.1709053e-05 -6.6585157e-05 1.4350638e-23 0.00039039084 -7.5352944e-23 7.9812605e-38)
(1.8566378e-05 -9.5028145e-05 2.7156572e-23 0.00050404809 -1.2943626e-22 1.7132347e-37)
(2.8992999e-05 -0.00013322047 -6.9248769e-23 0.00063786338 2.9912004e-22 6.7350306e-37)
(4.4658039e-05 -0.00018373402 -1.0993368e-23 0.00079236055 4.2969713e-23 1.031342e-38)
(6.7919352e-05 -0.00024952761 5.4189691e-23 0.00096708872 -1.9136857e-22 1.5360886e-37)
(0.00010205798 -0.00033387384 4.7450324e-23 0.0011603296 -1.5117006e-22 7.2478515e-38)
(0.00015156492 -0.00044021295 -6.9834634e-23 0.001368841 2.0039785e-22 9.7236428e-38)
(0.00022247696 -0.00057191877 3.1968989e-22 0.0015877015 -8.2499586e-22 1.2699792e-36)
(0.00032274909 -0.000731975 -2.378171e-22 0.0018103347 5.5099773e-22 4.4172771e-37)
(0.00046263996 -0.00092258364 1.4739449e-22 0.0020287969 -3.0606497e-22 1.0740835e-37)
(0.0006550766 -0.0011447636 -6.1867697e-22 0.0022343848 1.1494385e-21 1.2130503e-36)
(0.00091596096 -0.0013980398 -1.9904431e-22 0.0024185622 3.3027921e-22 8.1402913e-38)
(0.0012643888 -0.0016803553 5.095605e-22 0.0025741051 -7.5391748e-22 3.5107237e-37)
(0.0017227938 -0.0019883453 -9.3379894e-22 0.0026962459 1.2297361e-21 7.8718581e-37)
(0.0023171745 -0.0023180885 -4.4440462e-22 0.0027835164 5.1998117e-22 1.2076955e-37)
(0.003077414 -0.0026661793 6.3618957e-22 0.0028380076 -6.6098837e-22 1.7259993e-37)
(0.0040369309 -0.003030476 4.2883209e-21 0.0028648158 -3.9478155e-21 5.5148311e-36)
(0.0052349889 -0.0034111367 2.2833917e-21 0.002870297 -1.8603566e-21 1.1204593e-36)
(0.0067179399 -0.0038104274 -1.3226743e-21 0.0028605713 9.5379809e-22 2.7767469e-37)
(0.0085395268 -0.0042313405 1.6493386e-21 0.0028408731 -1.0488049e-21 3.169544e-37)
(0.010763636 -0.0046776467 -1.177229e-21 0.0028148293 6.6107893e-22 1.2408e-37)
(0.013464131 -0.0051528167 -7.6786627e-21 0.0027841623 3.7878513e-21 3.9889115e-36)
(0.016727466 -0.0056586803 2.9314088e-21 0.0027493938 -1.2692439e-21 4.4989126e-37)
(0.020651892 -0.0061944567 9.9484143e-21 0.0027105241 -3.7717941e-21 4.0432354e-36)
(0.025346612 -0.00675587 -3.7358708e-21 0.0026672153 1.2395307e-21 4.552912e-37)
(0.030928935 -0.0073344184 -5.9131687e-21 0.0026186833 1.7111591e-21 9.0391409e-37)
(0.037519263 -0.007916552 1.1496654e-20 0.0025636388 -2.8997177e-21 2.7524422e-36)
(0.045232896 -0.0084824113 3.9299615e-21 0.0025004987 -8.6259452e-22 2.6020604e-37)
(0.05416737 -0.0090041477 -7.7298642e-21 0.0024278775 1.4766606e-21 8.3645812e-37)
(0.064383828 -0.0094443036 -3.4170381e-21 0.0023453941 5.6706726e-22 1.3658047e-37)
(0.075881664 -0.0097550878 1.8099047e-20 0.0022547359 -2.6016956e-21 3.2006637e-36)
(0.088567207 -0.0098798152 -5.5616059e-21 0.0021609232 6.9039986e-22 2.6056253e-37)
(0.10221899 -0.0097576927 -8.7723871e-21 0.0020736216 9.3720624e-22 5.5243879e-37)
(0.11646013 -0.00933309 -2.5337799e-20 0.0020083313 2.3139156e-21 3.97653e-36)
(0.13074586 -0.0085697802 5.1558968e-20 0.0019868696 -3.9883448e-21 1.4498639e-35)
(0.14438543 -0.007471493 -3.5529026e-20 0.0020364662 2.3001173e-21 6.1107189e-36)
(0.15664423 -0.0060977402 -9.5046613e-21 0.0021850488 5.0791324e-22 3.9002555e-37)
(0.16683801 -0.0045428448 -3.9208627e-20 0.0024521518 1.69027e-21 6.123254e-36)
(0.17441164 -0.002909477 -4.8801391e-20 0.0028451061 1.6561774e-21 8.7973226e-36)
(0.17900302 -0.0013062798 -2.5615959e-21 0.0033683952 6.7207742e-23 2.2599506e-38)
(0.18048239 0.000190325 1.1072869e-20 0.0040367263 -2.0168032e-22 4.0342147e-37)
(0.17890357 0.0015338056 -8.2227405e-20 0.0048898045 9.0129865e-22 2.1679922e-35)
(0.17453735 0.0026775147 -3.5204303e-20 0.0059976132 1.5835209e-22 3.904131e-36)
(0.16792569 0.0035541472 -3.6043354e-20 0.0074551988 -6.5154771e-23 4.0766779e-36)
(0.16002562 0.0040952553 -1.1710396e-20 0.0093954195 -9.9621273e-23 4.3449898e-37)
(0.15203126 0.0042563229 -8.8701112e-20 0.012043675 -1.3421218e-21 2.5621409e-35)
(0.1452747 0.0039767693 3.4286318e-20 0.015889886 8.1741465e-22 3.9872612e-36)
(0.14079285 0.0028147648 -1.0005023e-20 0.02200397 -3.3350616e-22 3.6446905e-37)
(0.13887177 0.00040308643 -7.826692e-20 0.030391033 -3.4085333e-21 2.4263016e-35)
(0.13855778 -0.0023799409 -2.9150549e-20 0.038682266 -1.5380767e-21 3.8026717e-36)
(0.13777987 -0.0046602505 3.1835318e-20 0.0456569 1.9326043e-21 5.3655785e-36)
(0.13546838 -0.006446798 9.8799456e-20 0.050897508 6.8150951e-21 6.334152e-35)
(0.12818434 -0.0078168049 -2.7625167e-20 0.054307632 -2.1067701e-21 6.4606701e-36)
(0.11899502 -0.0082497718 -3.8534131e-20 0.0555233 -3.3069099e-21 1.6787316e-35)
(0.10107989 -0.0080372676 -1.3644359e-20 0.054462113 -1.4473962e-21 3.079848e-36)
(7.4258434e-09 -7.5518351e-08 -7.314397e-25 7.6799891e-07 7.1540818e-24 1.1852475e-37)
(7.6690474e-08 -7.4708513e-07 2.2683234e-24 7.278438e-06 -2.1168746e-23 2.1737249e-37)
(2.5111465e-07 -2.3498037e-06 -1.3071339e-24 2.1994565e-05 1.1602824e-23 2.8421155e-38)
(5.8692167e-07 -5.256074e-06 2.0265958e-25 4.7098628e-05 -1.7088053e-24 3.3591413e-40)
(1.1641949e-06 -9.9502693e-06 -5.454576e-24 8.513529e-05 4.366517e-23 1.3130163e-37)
(2.0990161e-06 -1.706792e-05 7.4877631e-24 0.00013901957 -5.686437e-23 1.4058891e-37)
(3.5584585e-06 -2.7434112e-05 -1.4815158e-23 0.00021202441 1.0654193e-22 3.2356485e-37)
(5.7814742e-06 -4.2108487e-05 8.974275e-24 0.00030773611 -6.0954503e-23 7.164672e-38)
(9.1083595e-06 -6.2438147e-05 4.3556944e-23 0.00042996334 -2.7860821e-22 1.0359693e-36)
(1.4021218e-05 -9.0114871e-05 -1.3274406e-23 0.00058258674 7.9710185e-23 5.9919518e-38)
(2.1199068e-05 -0.00012723324 -6.3825372e-23 0.00076933409 3.5867774e-22 8.695184e-37)
(3.1592553e-05 -0.0001763448 2.4504322e-23 0.000993463 -1.2846653e-22 8.1077408e-38)
(4.6522626e-05 -0.00024049541 2.0490794e-24 0.001257345 -9.9892588e-24 3.6241541e-40)
(6.780962e-05 -0.00032323394 -1.0083739e-22 0.0015619537 4.5585865e-22 5.5556791e-37)
(9.7938346e-05 -0.00042857312 3.9456863e-22 0.0019062776 -1.6487863e-21 5.4385581e-36)
(0.00014026349 -0.00056087916 -3.0253594e-22 0.0022867095 1.1650133e-21 2.0494912e-36)
(0.00019925771 -0.00072466806 -3.5978395e-24 0.0026964987 1.2728581e-23 1.8595983e-40)
(0.0002807996 -0.00092429126 2.5966736e-22 0.0031253993 -8.4142634e-22 6.2605924e-37)
(0.00039249264 -0.0011635105 -8.1839412e-22 0.0035596827 2.4214663e-21 4.0311807e-36)
(0.0005439977 -0.0014449918 4.7765752e-22 0.0039826953 -1.2864989e-21 8.9612891e-37)
(0.00074735486 -0.0017697955 8.7737375e-22 0.0043761032 -2.1444471e-21 1.9880224e-36)
(0.0010172686 -0.0021369928 4.3561181e-22 0.004721846 -9.6323448e-22 3.2495412e-37)
(0.0013713365 -0.0025435834 -2.6219583e-21 0.0050046188 5.230205e-21 7.9264052e-36)
(0.0018302285 -0.0029848915 -1.6580887e-21 0.0052144407 2.9749773e-21 2.157876e-36)
(0.0024179448 -0.0034555927 1.2841857e-21 0.0053486445 -2.0674261e-21 8.9890086e-37)
(0.0031623029 -0.0039512686 -8.9459518e-22 0.0054126089 1.288341e-21 3.052927e-37)
(0.0040944655 -0.0044693701 3.9550032e-21 0.0054187671 -5.0864255e-21 4.2845198e-36)
(0.0052511021 -0.0050107564 -1.3334641e-21 0.0053830725 1.5276225e-21 3.5389396e-37)
(0.0066756279 -0.0055790372 4.1827388e-21 0.0053205084 -4.2607086e-21 2.5786301e-36)
(0.008418288 -0.0061790189 -2.7329964e-21 0.0052437798 2.4701999e-21 8.2808184e-37)
(0.01053871 -0.0068164316 1.9503606e-21 0.0051619651 -1.5593043e-21 3.1925177e-37)
(0.013105239 -0.0074963398 -8.1746069e-21 0.0050796127 5.7721663e-21 4.3379196e-36)
(0.016197493 -0.0082216097 1.3346061e-21 0.0049976041 -8.304755e-22 9.0584933e-38)
(0.019905138 -0.0089913109 -8.0156503e-21 0.0049144157 4.3813243e-21 2.5550804e-36)
(0.024326666 -0.0097995101 8.6645284e-21 0.0048269561 -4.1560494e-21 2.3792418e-36)
(0.029566127 -0.010634182 3.1394568e-21 0.0047310585 -1.3181137e-21 2.4762244e-37)
(0.035727531 -0.011476013 -4.360197e-20 0.004621825 1.603485e-20 3.927752e-35)
(0.042906032 -0.012296593 -1.2709607e-20 0.0044940172 4.0851693e-21 2.7247703e-36)
(0.051174606 -0.013056032 1.1670103e-20 0.0043427059 -3.2758601e-21 1.908785e-36)
(0.060564957 -0.013700681 -1.2656253e-20 0.0041644595 3.0975495e-21 1.8770511e-36)
(0.071042215 -0.01416218 3.5932023e-21 0.0039592237 -7.6453653e-22 1.2641245e-37)
(0.082474527 -0.014359598 2.4434954e-20 0.0037329494 -4.5161035e-21 5.0414784e-36)
(0.094601061 -0.014206743 -1.2222698e-21 0.0035008865 1.9565814e-22 1.1047638e-38)
(0.10700885 -0.013626516 -9.6395071e-21 0.0032906932 1.322627e-21 5.8378863e-37)
(0.11912835 -0.012573495 4.9770343e-21 0.0031437846 -5.7789683e-22 1.4040722e-37)
(0.13028114 -0.011065956 -2.7608354e-21 0.0031124124 2.7148275e-22 3.5378895e-38)
(0.13980132 -0.0092033615 -8.1843628e-21 0.0032462987 6.6901139e-22 2.9724918e-37)
(0.14709711 -0.0071356458 1.3088122e-19 0.0035712078 -8.761217e-21 7.0961359e-35)
(0.15177557 -0.0050223959 -1.5193372e-20 0.0040797711 8.0334936e-22 8.9016159e-37)
(0.15367746 -0.0030105453 1.4422241e-20 0.0047497875 -5.9673814e-22 7.5905633e-37)
(0.1528701 -0.001191478 -1.3807705e-19 0.0055721102 4.2180025e-21 6.6752071e-35)
(0.14958291 0.00038390177 7.6315616e-20 0.006578447 -1.5851192e-21 1.9874081e-35)
(0.14424809 0.0016572152 6.2867511e-20 0.0078455092 -7.0686271e-22 1.3304233e-35)
(0.1375562 0.0025408157 5.9493078e-20 0.0094731625 -1.4006275e-22 1.1954378e-35)
(0.13056645 0.0029586613 5.6333386e-20 0.011580642 3.7244404e-22 1.0910328e-35)
(0.12447527 0.0028829567 8.6192635e-20 0.014367954 1.4042656e-21 2.6424674e-35)
(0.12043403 0.0022275383 -1.665798e-19 0.018322973 -4.7157721e-21 1.0385449e-34)
(0.11927558 0.00037801123 9.7980831e-20 0.024545382 4.1901732e-21 3.8746839e-35)
(0.12069611 -0.0027499641 1.4004069e-19 0.032630979 8.1191729e-21 8.8035717e-35)
(0.12324085 -0.0062165093 -9.5282107e-20 0.039872688 -7.0208596e-21 4.6943857e-35)
(0.12418727 -0.0091810634 -2.7614249e-20 0.045392659 -2.4521514e-21 4.7515578e-36)
(0.12258044 -0.011479657 -2.147928e-20 0.049287915 -2.2061179e-21 3.603887e-36)
(0.11486908 -0.013166548 9.4204308e-20 0.051648032 1.1478237e-20 9.3359965e-35)
(0.10534659 -0.013453475 5.9046076e-20 0.052069157 8.2281959e-21 5.0384099e-35)
(0.087353539 -0.012537213 -2.0736901e-21 0.050467616 -3.2767517e-22 9.780998e-38)
(1.9813516e-08 -1.5542122e-07 8.5725815e-25 1.2191566e-06 -6.5713376e-24 5.8766017e-38)
(1.966436e-07 -1.5077213e-06 -5.434598e-24 1.156034e-05 4.0585285e-23 4.6925848e-37)
(6.2155204e-07 -4.6607548e-06 6.8993634e-24 3.4951181e-05 -5.0047517e-23 3.1194816e-37)
(1.3987434e-06 -1.02338e-05 -3.6347289e-24 7.4885054e-05 2.5580863e-23 4.4561616e-38)
(2.6681559e-06 -1.9007908e-05 -1.7490076e-24 0.00013544579 1.1931958e-23 5.8178116e-39)
(4.6199218e-06 -3.1970248e-05 1.9560806e-23 0.00022132659 -1.292135e-22 4.3096987e-37)
(7.5115213e-06 -5.0358333e-05 -6.3298266e-24 0.00033781766 4.0412637e-23 2.7661762e-38)
(1.1690477e-05 -7.5709493e-05 -1.6970752e-23 0.00049074384 1.0447358e-22 1.2479897e-37)
(1.7624907e-05 -0.00010991613 -1.6277871e-24 0.00068633094 9.635458e-24 7.3529916e-40)
(2.5943759e-05 -0.00015528251 -1.7197114e-23 0.00093097655 9.7597187e-23 5.3116076e-38)
(3.7489478e-05 -0.00021457848 2.9800376e-23 0.0012308995 -1.616383e-22 1.0427516e-37)
(5.3386602e-05 -0.00029108281 -2.5547742e-23 0.0015916408 1.3200872e-22 5.044133e-38)
(7.5129693e-05 -0.0003886041 -1.1593966e-22 0.0020173987 5.6881006e-22 6.8593372e-37)
(0.00010469398 -0.00051146239 -4.1554057e-24 0.0025102038 1.9292394e-23 5.8008877e-40)
(0.00014467462 -0.00066441668 1.3388595e-22 0.0030689459 -5.8599232e-22 4.0217388e-37)
(0.00019845518 -0.00085250833 1.1647289e-22 0.0036883322 -4.7889492e-22 2.021545e-37)
(0.00027040702 -0.0010808 -1.2301497e-22 0.0043579157 4.733643e-22 1.4996243e-37)
(0.00036612105 -0.0013540038 1.4405793e-23 0.0050614058 -5.1672121e-23 1.3837074e-39)
(0.00049266285 -0.0016759918 3.5953618e-22 0.0057765328 -1.1976031e-21 5.7186823e-37)
(0.00065884349 -0.0020492341 5.3489504e-22 0.0064757901 -1.647726e-21 8.4980633e-37)
(0.00087549235 -0.0024742541 -7.4250772e-22 0.0071283279 2.1066135e-21 1.1074693e-36)
(0.0011557182 -0.0029492465 -9.0453521e-22 0.0077031058 2.3539934e-21 1.120803e-36)
(0.0015151511 -0.0034700599 1.4654887e-21 0.0081730768 -3.4843206e-21 2.0270734e-36)
(0.0019721691 -0.0040307352 -2.1707402e-21 0.0085197281 4.6967478e-21 3.0987944e-36)
(0.0025481971 -0.0046247582 -4.47211e-21 0.0087368595 8.7723416e-21 9.2832524e-36)
(0.0032682752 -0.0052469935 1.2423145e-20 0.0088323411 -2.2016504e-20 5.1426558e-35)
(0.0041608833 -0.0058950508 -8.0022871e-21 0.0088270099 1.2770266e-20 1.554389e-35)
(0.0052591923 -0.0065707727 1.377791e-20 0.0087494147 -1.973621e-20 3.4039968e-35)
(0.006602549 -0.0072793077 -1.9851259e-20 0.0086266131 2.5453032e-20 5.3057462e-35)
(0.0082371027 -0.0080278567 2.5414175e-20 0.0084818499 -2.9079997e-20 6.6111444e-35)
(0.010216724 -0.0088240063 -2.9971058e-20 0.0083319479 3.0513649e-20 7.0806966e-35)
(0.012602717 -0.0096743053 5.7167831e-21 0.0081859266 -5.1654098e-21 2.0136343e-36)
(0.015465832 -0.010582501 2.2363468e-20 0.0080457214 -1.7877547e-20 2.4157867e-35)
(0.01888477 -0.011547282 -1.4202293e-20 0.0079080776 1.0025277e-20 7.7468898e-36)
(0.022944439 -0.012560794 4.9794351e-21 0.0077662987 -3.098022e-21 7.6532013e-37)
(0.027732237 -0.013607232 1.6147448e-21 0.007611568 -8.8479042e-22 6.5994942e-38)
(0.033331945 -0.014661327 2.2337012e-20 0.0074338961 -1.0747651e-20 1.0166909e-35)
(0.039814365 -0.015686133 8.0971351e-21 0.0072228003 -3.4200256e-21 1.0954893e-36)
(0.047223663 -0.016630125 9.0448566e-21 0.0069681873 -3.3477553e-21 1.1313239e-36)
(0.055558418 -0.017424531 9.7775348e-21 0.006662074 -3.1696609e-21 1.1238635e-36)
(0.064747298 -0.017982466 -5.4459863e-20 0.0063015846 1.5418649e-20 2.9634881e-35)
(0.07462113 -0.018202267 2.5984255e-20 0.0058936553 -6.4064506e-21 5.7896165e-36)
(0.084886313 -0.017978027 4.5355997e-21 0.0054612406 -9.7167436e-22 1.4837826e-37)
(0.09510978 -0.017220085 -5.5432661e-20 0.0050493891 1.0219322e-20 1.9969799e-35)
(0.10473033 -0.015887743 -3.0009845e-20 0.0047278655 4.7367025e-21 5.1700684e-36)
(0.11313717 -0.014032159 1.5548148e-20 0.0045842065 -2.0843838e-21 1.2564557e-36)
(0.1197942 -0.011808385 5.9499526e-20 0.0046956815 -6.6472039e-21 1.6642563e-35)
(0.12429108 -0.0094211058 -2.6851044e-20 0.0050896078 2.4872339e-21 3.1506092e-36)
(0.12644179 -0.0070757916 8.1124574e-20 0.0057338472 -5.9945182e-21 2.6836657e-35)
(0.12628649 -0.0049343896 4.5117847e-20 0.006566053 -2.622842e-21 7.8962789e-36)
(0.12403798 -0.0030794609 6.3123208e-20 0.0075466499 -2.7998456e-21 1.4931555e-35)
(0.12003812 -0.0015499924 1.7062059e-19 0.0087031473 -5.2287072e-21 1.0674129e-34)
(0.11481039 -0.00040983303 -1.3147039e-19 0.010127054 2.4352596e-21 6.3085756e-35)
(0.10912496 0.00024102882 4.2454337e-20 0.01192479 -2.2482628e-22 6.6221886e-36)
(0.1040578 0.00034370067 -7.1352439e-20 0.014195475 -3.7031576e-22 1.9259566e-35)
(0.10067699 -0.00010055537 -6.5802791e-20 0.017097631 -1.2288022e-21 1.7100596e-35)
(0.099852058 -0.0012198246 -2.4678431e-20 0.021126864 -8.7242476e-22 2.5740036e-36)
(0.10200843 -0.0037531525 -2.1295608e-19 0.027309873 -1.1371389e-20 2.1004685e-34)
(0.10620503 -0.0073903661 -5.3383311e-20 0.034808647 -3.977463e-21 1.4986454e-35)
(0.11041419 -0.011004569 1.1179711e-19 0.040681649 1.0896157e-20 7.7558111e-35)
(0.11160358 -0.014014489 3.7745161e-20 0.044467489 4.6111377e-21 1.1019325e-35)
(0.10929686 -0.016195828 -2.4785989e-20 0.046739796 -3.5993192e-21 6.1398334e-36)
(0.10018989 -0.017681851 -4.3466615e-20 0.047839713 -7.5319238e-21 2.6248345e-35)
(0.089308478 -0.017599535 -5.6588549e-20 0.047322244 -1.1672821e-20 6.3647318e-35)
(0.071583016 -0.016051095 3.3963466e-21 0.045198197 8.1645309e-22 3.7018141e-37)
(4.1682956e-08 -2.6476678e-07 3.92305e-24 1.6817779e-06 -2.4543613e-23 5.4556736e-37)
(4.0561847e-07 -2.5443401e-06 2.6159259e-24 1.5960083e-05 -1.6111151e-23 4.9232257e-38)
(1.2591455e-06 -7.7975821e-06 -3.2526587e-24 4.8289461e-05 1.967347e-23 3.228645e-38)
(2.7778e-06 -1.6959581e-05 -1.6520817e-23 0.00010354951 9.8063463e-23 4.4033324e-37)
(5.1880939e-06 -3.1185182e-05 1.1904042e-23 0.00018746643 -6.9293099e-23 1.3223408e-37)
(8.7833237e-06 -5.1894805e-05 -2.2001056e-23 0.00030665255 1.2547886e-22 2.7407631e-37)
(1.3942301e-05 -8.082135e-05 1.2021437e-23 0.00046860518 -6.7080244e-23 5.1342989e-38)
(2.1152678e-05 -0.00012005888 3.5711051e-24 0.00068163979 -1.9459951e-23 2.9148149e-39)
(3.1040914e-05 -0.00017211296 -2.4969546e-23 0.00095472857 1.3258599e-22 9.3473569e-38)
(4.4409853e-05 -0.00023994699 -6.6034189e-23 0.0012972095 3.4084173e-22 4.3468103e-37)
(6.2285813e-05 -0.00032701862 -4.058887e-24 0.0017183273 2.0314318e-23 1.0968367e-39)
(8.597703e-05 -0.0004372969 1.6138806e-22 0.0022265657 -7.8082339e-22 1.1789199e-36)
(0.00011714597 -0.00057524847 -2.7126253e-22 0.0028287385 1.2650767e-21 2.2615356e-36)
(0.0001578965 -0.00074577363 5.3140355e-22 0.0035288255 -2.3812992e-21 5.9131774e-36)
(0.00021088066 -0.0009540798 -1.6837602e-22 0.0043265715 7.2255375e-22 4.0520625e-37)
(0.00027942484 -0.0012054683 4.3362239e-22 0.0052159467 -1.7756392e-21 1.8361456e-36)
(0.00036767526 -0.0015050137 -6.3489298e-22 0.0061836316 2.4713838e-21 2.6956977e-36)
(0.00048076887 -0.0018571425 4.990802e-22 0.0072077916 -1.8393596e-21 1.142421e-36)
(0.00062502119 -0.0022651089 -9.5257544e-23 0.0082575735 3.3097998e-22 2.8668351e-38)
(0.00080813479 -0.0027304317 -4.6633009e-22 0.0092937882 1.5208866e-21 4.7413605e-37)
(0.0010394237 -0.0032523859 1.3642172e-21 0.010271254 -4.1571618e-21 2.8166576e-36)
(0.0013300535 -0.0038277071 -2.3083642e-21 0.011143075 6.5417158e-21 5.6423507e-36)