/*--------------------------------*- C++ -*----------------------------------*\
  =========                 |
  \\      /  F ield         | OpenFOAM: The Open Source CFD Toolbox
   \\    /   O peration     | Website:  https://openfoam.org
    \\  /    A nd           | Version:  13
     \\/     M anipulation  |
\*---------------------------------------------------------------------------*/
FoamFile
{
    format      ascii;
    class       volScalarField;
    location    "46.903099";
    object      pPrime2Mean;
}
// * * * * * * * * * * * * * * * * * * * * * * * * * * * * * * * * * * * * * //

dimensions      [0 4 -4 0 0 0 0];

internalField   nonuniform List<scalar> 
17140
(
6640.2956
6640.2957
6640.2956
6640.2953
6640.2948
6640.2939
6640.2927
6640.291
6640.2888
6640.286
6640.2823
6640.2776
6640.2717
6640.2642
6640.2547
6640.2429
6640.2281
6640.2095
6640.1862
6640.1571
6640.1206
6640.0747
6640.0172
6639.9448
6639.8536
6639.7387
6639.5937
6639.4108
6639.1801
6638.8894
6638.5239
6638.0651
6637.4906
6636.7735
6635.8814
6634.7755
6633.41
6631.7313
6629.677
6627.1754
6624.1447
6620.4922
6616.1135
6610.8918
6604.6973
6597.3859
6588.7992
6578.7638
6567.0903
6553.5723
6537.9855
6520.0869
6499.6137
6476.2827
6449.7884
6419.8015
6385.9644
6347.8929
6305.165
6257.3337
6203.8982
6144.3464
6078.0802
6004.5189
5922.9641
6640.4572
6640.4573
6640.4572
6640.4569
6640.4563
6640.4554
6640.4542
6640.4525
6640.4503
6640.4474
6640.4437
6640.439
6640.433
6640.4255
6640.416
6640.4042
6640.3893
6640.3707
6640.3474
6640.3183
6640.2818
6640.236
6640.1785
6640.1063
6640.0153
6639.9007
6639.7561
6639.5736
6639.3435
6639.0536
6638.6888
6638.2309
6637.6574
6636.9412
6636.05
6634.945
6633.5804
6631.9025
6629.8492
6627.3488
6624.3194
6620.6686
6616.2919
6611.0728
6604.8812
6597.5734
6588.991
6578.9604
6567.2925
6553.7808
6538.2012
6520.3109
6499.8471
6476.527
6450.045
6420.072
6386.2509
6348.1976
6305.4901
6257.6812
6204.2703
6144.7454
6078.5092
6004.9822
5923.4616
6640.8568
6640.8568
6640.8567
6640.8564
6640.8559
6640.855
6640.8538
6640.8521
6640.8499
6640.847
6640.8434
6640.8387
6640.8327
6640.8253
6640.8158
6640.8041
6640.7893
6640.7708
6640.7477
6640.7187
6640.6825
6640.637
6640.5799
6640.5081
6640.4177
6640.3038
6640.1601
6639.9786
6639.7497
6639.4612
6639.098
6638.6418
6638.0701
6637.3558
6636.4664
6635.3632
6634.0005
6632.3246
6630.2735
6627.7757
6624.7497
6621.1029
6616.7313
6611.5182
6605.334
6598.035
6589.463
6579.4446
6567.7904
6554.2943
6538.7325
6520.8625
6500.4222
6477.1288
6450.6772
6420.7388
6386.9566
6348.9473
6306.2889
6258.5342
6205.1828
6145.7239
6079.5613
6006.1181
5924.6813
6641.5077
6641.5078
6641.5077
6641.5074
6641.5068
6641.5059
6641.5047
6641.5031
6641.5009
6641.4981
6641.4944
6641.4898
6641.484
6641.4766
6641.4673
6641.4557
6641.4411
6641.4229
6641.4
6641.3714
6641.3356
6641.2907
6641.2342
6641.1632
6641.0737
6640.9609
6640.8184
6640.6385
6640.4114
6640.1249
6639.7639
6639.3101
6638.741
6638.0293
6637.1426
6636.042
6634.6821
6633.0093
6630.9619
6628.4686
6625.448
6621.8079
6617.4445
6612.2414
6606.0692
6598.7845
6590.2293
6580.2303
6568.5984
6555.1277
6539.5949
6521.7583
6501.3561
6478.1064
6451.7044
6421.822
6388.1032
6350.1651
6307.5858
6259.9183
6206.6635
6147.3117
6081.2691
6007.9626
5926.6617
6642.4234
6642.4235
6642.4234
6642.4231
6642.4225
6642.4217
6642.4205
6642.4188
6642.4167
6642.4139
6642.4103
6642.4057
6642.4
6642.3927
6642.3835
6642.3721
6642.3577
6642.3397
6642.3172
6642.289
6642.2537
6642.2094
6642.1537
6642.0836
6641.9952
6641.8837
6641.7429
6641.5649
6641.34
6641.056
6640.6979
6640.2472
6639.6812
6638.9729
6638.0897
6636.9928
6635.6368
6633.9685
6631.9264
6629.4396
6626.4269
6622.7964
6618.4445
6613.2554
6607.1
6599.8353
6591.3037
6581.3319
6569.7312
6556.2961
6540.8042
6523.0145
6502.6662
6479.4779
6453.1455
6423.342
6389.7118
6351.8731
6309.4043
6261.8588
6208.7395
6149.5387
6083.6656
6010.5518
5929.4426
6643.6153
6643.6153
6643.6152
6643.6149
6643.6143
6643.6134
6643.6123
6643.6106
6643.6085
6643.6057
6643.6022
6643.5977
6643.592
6643.5849
6643.5759
6643.5646
6643.5505
6643.5328
6643.5107
6643.4829
6643.4482
6643.4046
6643.3497
6643.2807
6643.1937
6643.0838
6642.9449
6642.7692
6642.547
6642.2661
6641.9114
6641.4644
6640.9024
6640.1983
6639.3194
6638.2273
6636.8766
6635.2144
6633.1795
6630.7013
6627.6991
6624.0812
6619.7445
6614.5737
6608.4402
6601.2015
6592.7003
6582.7637
6571.2035
6557.8149
6542.3764
6524.6481
6504.37
6481.2617
6455.0201
6425.319
6391.8043
6354.0944
6311.7688
6264.3819
6211.4394
6152.436
6086.7848
6013.9228
5933.0654
6645.0955
6645.0956
6645.0954
6645.0951
6645.0945
6645.0937
6645.0925
6645.0909
6645.0888
6645.086
6645.0825
6645.0781
6645.0725
6645.0655
6645.0566
6645.0455
6645.0316
6645.0143
6644.9926
6644.9654
6644.9313
6644.8885
6644.8347
6644.7669
6644.6815
6644.5735
6644.4368
6644.2639
6644.0448
6643.7676
6643.4169
6642.9742
6642.4169
6641.7177
6640.8442
6639.758
6638.414
6636.7596
6634.734
6632.2668
6629.2776
6625.6755
6621.3578
6616.2098
6610.1036
6602.8971
6594.4335
6584.5406
6573.0306
6559.6999
6544.3281
6526.6762
6506.4855
6483.4767
6457.3479
6427.7741
6394.4024
6356.8521
6314.7041
6267.5146
6214.7924
6156.0354
6090.6616
6018.1138
5937.5721
6646.8777
6646.8777
6646.8775
6646.8772
6646.8766
6646.8757
6646.8746
6646.873
6646.8709
6646.8682
6646.8647
6646.8604
6646.8549
6646.848
6646.8393
6646.8285
6646.8149
6646.7979
6646.7767
6646.7501
6646.7168
6646.675
6646.6224
6646.5561
6646.4724
6646.3665
6646.2325
6646.0626
6645.847
6645.5737
6645.2275
6644.7896
6644.2376
6643.5442
6642.677
6641.5979
6640.262
6638.6172
6636.6028
6634.149
6631.1758
6627.5928
6623.298
6618.1776
6612.1041
6604.9363
6596.5179
6586.6774
6575.2281
6561.9674
6546.676
6529.1165
6509.0313
6486.1424
6460.1493
6430.7287
6397.5288
6360.1704
6318.236
6271.2846
6218.8289
6160.3701
6095.3317
6023.1633
5943.0048
6648.9776
6648.9776
6648.9774
6648.977
6648.9764
6648.9756
6648.9744
6648.9728
6648.9708
6648.9681
6648.9647
6648.9605
6648.9551
6648.9483
6648.9399
6648.9293
6648.916
6648.8995
6648.8788
6648.8529
6648.8204
6648.7796
6648.7283
6648.6636
6648.5818
6648.4783
6648.347
6648.1802
6647.9684
6647.6992
6647.3576
6646.925
6646.3786
6645.6915
6644.8315
6643.7606
6642.4343
6640.8007
6638.7995
6636.3614
6633.407
6629.8465
6625.5789
6620.4908
6614.4559
6607.3335
6598.9681
6589.1894
6577.8116
6564.6335
6549.4372
6531.9867
6512.0259
6489.2782
6463.4449
6434.2044
6401.2067
6364.0739
6322.391
6275.7204
6223.5797
6165.4734
6100.8311
6029.1106
5949.4069
6651.4121
6651.412
6651.4118
6651.4115
6651.4109
6651.41
6651.4088
6651.4073
6651.4052
6651.4026
6651.3993
6651.3952
6651.3899
6651.3833
6651.3751
6651.3648
6651.3519
6651.3358
6651.3157
6651.2905
6651.2588
6651.2191
6651.1691
6651.106
6651.0262
6650.9249
6650.7963
6650.6327
6650.4244
6650.1593
6649.8224
6649.3949
6648.8545
6648.1741
6647.3219
6646.2602
6644.9446
6643.3237
6641.3377
6638.9177
6635.985
6632.4506
6628.2143
6623.1637
6617.1732
6610.1031
6601.799
6592.0917
6580.7968
6567.7146
6552.6287
6535.3046
6515.4879
6492.9038
6467.2555
6438.2233
6405.4592
6368.587
6327.1954
6280.8512
6229.0768
6171.3803
6107.1981
6035.9972
5956.8226
6654.1986
6654.1985
6654.1983
6654.198
6654.1973
6654.1965
6654.1953
6654.1938
6654.1918
6654.1892
6654.186
6654.1819
6654.1768
6654.1704
6654.1624
6654.1523
6654.1398
6654.1241
6654.1045
6654.08
6654.0492
6654.0105
6653.9617
6653.9001
6653.8219
6653.7227
6653.5965
6653.4357
6653.2307
6652.9693
6652.6367
6652.2143
6651.6797
6651.0064
6650.1625
6649.1107
6647.807
6646.2003
6644.2312
6641.8316
6638.9235
6635.4189
6631.2183
6626.2104
6620.2704
6613.2597
6605.0253
6595.3995
6584.1995
6571.2271
6556.2675
6539.0881
6519.4363
6497.0392
6471.6023
6442.8079
6410.31
6373.7357
6332.678
6286.7084
6235.3543
6178.1275
6114.4712
6043.8636
5965.2965
6657.3534
6657.3533
6657.3531
6657.3527
6657.3521
6657.3512
6657.3501
6657.3485
6657.3466
6657.3441
6657.3409
6657.3369
6657.3319
6657.3256
6657.3178
6657.308
6657.2957
6657.2804
6657.2613
6657.2373
6657.2072
6657.1693
6657.1215
6657.0611
6656.9844
6656.8869
6656.7627
6656.6042
6656.4019
6656.1439
6655.8151
6655.3975
6654.8688
6654.2026
6653.3674
6652.3262
6651.0353
6649.4441
6647.4939
6645.117
6642.2367
6638.7655
6634.6051
6629.6452
6623.7619
6616.8181
6608.6622
6599.1284
6588.0357
6575.1876
6560.3713
6543.3558
6523.8905
6501.705
6476.5069
6447.981
6415.7843
6379.5474
6338.8684
6293.3235
6242.4454
6185.7496
6122.6882
6052.7516
5974.8731
6660.8901
6660.89
6660.8898
6660.8894
6660.8888
6660.8879
6660.8868
6660.8853
6660.8833
6660.8808
6660.8777
6660.8738
6660.8689
6660.8627
6660.855
6660.8454
6660.8335
6660.8185
6660.7997
6660.7762
6660.7466
6660.7094
6660.6623
6660.6028
6660.5272
6660.431
6660.3083
6660.1517
6659.9517
6659.6965
6659.3713
6658.9582
6658.4353
6657.7765
6656.9504
6655.9205
6654.6434
6653.0692
6651.1396
6648.788
6645.9384
6642.5046
6638.3891
6633.4826
6627.6626
6620.7935
6612.7255
6603.2947
6592.3222
6579.6137
6564.9582
6548.1265
6528.8705
6506.922
6481.9914
6453.7664
6421.9073
6386.0492
6345.7955
6300.7275
6250.3836
6194.2837
6131.8884
6062.7037
5985.5969
6664.8207
6664.8206
6664.8204
6664.82
6664.8194
6664.8185
6664.8174
6664.8159
6664.814
6664.8115
6664.8085
6664.8046
6664.7997
6664.7937
6664.7861
6664.7767
6664.7649
6664.7501
6664.7316
6664.7084
6664.6792
6664.6425
6664.596
6664.5372
6664.4624
6664.3671
6664.2457
6664.0906
6663.8926
6663.64
6663.3182
6662.9097
6662.3927
6661.7415
6660.9251
6659.9072
6658.645
6657.0891
6655.1822
6652.8585
6650.0431
6646.6506
6642.5849
6637.7376
6631.9878
6625.2016
6617.2313
6607.9152
6597.0768
6584.5237
6570.047
6553.42
6534.3967
6512.7117
6488.0786
6460.1884
6428.7053
6393.2692
6353.4896
6308.9531
6259.2037
6203.7655
6142.1107
6073.7615
5997.5115
6669.1563
6669.1562
6669.1559
6669.1555
6669.1549
6669.1541
6669.153
6669.1515
6669.1496
6669.1472
6669.1442
6669.1404
6669.1356
6669.1296
6669.1222
6669.1128
6669.1012
6669.0866
6669.0683
6669.0454
6669.0166
6668.9802
6668.9341
6668.8758
6668.8016
6668.7072
6668.5868
6668.4331
6668.237
6667.9869
6667.6687
6667.2649
6666.7542
6666.1111
6665.3049
6664.2999
6663.0539
6661.518
6659.6359
6657.3429
6654.565
6651.2182
6647.2073
6642.4253
6636.7531
6630.0586
6622.1966
6613.0076
6602.3174
6589.9362
6575.6573
6559.2563
6540.49
6519.0964
6494.7921
6467.2717
6436.2045
6401.2358
6361.9812
6318.0325
6268.9395
6214.2323
6153.3938
6085.9665
6010.6612
6673.9091
6673.909
6673.9088
6673.9084
6673.9078
6673.907
6673.9059
6673.9044
6673.9025
6673.9002
6673.8972
6673.8934
6673.8887
6673.8828
6673.8754
6673.8662
6673.8547
6673.8403
6673.8222
6673.7995
6673.7708
6673.7347
6673.6891
6673.6312
6673.5576
6673.4639
6673.3445
6673.1922
6672.998
6672.7507
6672.4363
6672.0375
6671.5335
6670.8989
6670.1038
6669.1127
6667.8841
6666.37
6664.5151
6662.2557
6659.519
6656.2222
6652.2715
6647.5614
6641.9746
6635.3813
6627.6385
6618.5894
6608.0624
6595.8701
6581.8085
6565.6558
6547.1721
6526.0985
6502.1552
6475.0412
6444.4319
6409.9782
6371.3009
6327.9979
6279.6257
6225.72
6165.7762
6099.3597
6025.0889
6679.0939
6679.0938
6679.0936
6679.0932
6679.0926
6679.0918
6679.0907
6679.0892
6679.0874
6679.0851
6679.0821
6679.0784
6679.0737
6679.0678
6679.0605
6679.0513
6679.0399
6679.0255
6679.0076
6678.985
6678.9565
6678.9206
6678.8752
6678.8176
6678.7445
6678.6515
6678.5331
6678.3823
6678.1901
6677.9457
6677.6353
6677.2419
6676.7449
6676.1195
6675.3362
6674.3599
6673.1501
6671.6598
6669.8345
6667.6118
6664.9201
6661.678
6657.7931
6653.1617
6647.6686
6641.1864
6633.5744
6624.6787
6614.3303
6602.3446
6588.5205
6572.6394
6554.4645
6533.7403
6510.1914
6483.5227
6453.4152
6419.5248
6381.4792
6338.8818
6291.296
6238.2645
6179.2958
6113.9816
6040.8374
6684.7266
6684.7265
6684.7263
6684.7259
6684.7254
6684.7246
6684.7235
6684.722
6684.7202
6684.7179
6684.7149
6684.7112
6684.7065
6684.7007
6684.6933
6684.6842
6684.6727
6684.6584
6684.6404
6684.6178
6684.5894
6684.5536
6684.5083
6684.4509
6684.3782
6684.2857
6684.1682
6684.0188
6683.8287
6683.5872
6683.2808
6682.8929
6682.4033
6681.7876
6681.0167
6680.0565
6678.8671
6677.4024
6675.6093
6673.4265
6670.7837
6667.6011
6663.7878
6659.2424
6653.8518
6647.4908
6640.0217
6631.2932
6621.1394
6609.3788
6595.8133
6580.2276
6562.3883
6542.0441
6518.9254
6492.7423
6463.1808
6429.9047
6392.5463
6350.7154
6303.9839
6251.901
6193.9903
6129.8722
6057.9487
6690.8237
6690.8236
6690.8234
6690.8231
6690.8225
6690.8217
6690.8206
6690.8192
6690.8173
6690.8149
6690.8119
6690.8082
6690.8034
6690.7975
6690.7901
6690.7809
6690.7693
6690.7548
6690.7367
6690.7139
6690.6853
6690.6494
6690.604
6690.5467
6690.4741
6690.3821
6690.2654
6690.1173
6689.9292
6689.6906
6689.3883
6689.006
6688.524
6687.9184
6687.1607
6686.2176
6685.0501
6683.6133
6681.855
6679.7153
6677.1255
6674.0072
6670.2718
6665.8198
6660.5405
6654.3115
6646.9976
6638.4508
6628.5082
6616.9916
6603.7063
6588.4404
6570.9646
6551.0331
6528.3813
6502.7245
6473.7565
6441.1462
6404.5314
6363.5303
6317.7216
6266.6641
6209.8964
6147.0708
6076.4639
6697.398
6697.3979
6697.3977
6697.3973
6697.3968
6697.396
6697.3949
6697.3934
6697.3916
6697.3892
6697.3861
6697.3823
6697.3775
6697.3715
6697.364
6697.3546
6697.3428
6697.3281
6697.3098
6697.2868
6697.2579
6697.2217
6697.1762
6697.1188
6697.0464
6696.9548
6696.8388
6696.692
6696.506
6696.2704
6695.9723
6695.5959
6695.1218
6694.5268
6693.7832
6692.8584
6691.7146
6690.3077
6688.587
6686.4938
6683.9611
6680.9123
6677.261
6672.91
6667.7513
6661.6651
6654.5194
6646.169
6636.4547
6625.2016
6612.2186
6597.2978
6580.215
6560.7295
6538.582
6513.4952
6485.1688
6453.2763
6417.4643
6377.3562
6332.5414
6282.5878
6227.0504
6165.6155
6096.423
6704.4591
6704.4591
6704.4589
6704.4585
6704.458
6704.4572
6704.4561
6704.4546
6704.4527
6704.4503
6704.4472
6704.4433
6704.4385
6704.4324
6704.4247
6704.4152
6704.4033
6704.3885
6704.3699
6704.3467
6704.3177
6704.2814
6704.2358
6704.1785
6704.1063
6704.0153
6703.9004
6703.7551
6703.5714
6703.3392
6703.0459
6702.6761
6702.2107
6701.6273
6700.8989
6699.994
6698.8757
6697.501
6695.8207
6693.7775
6691.3062
6688.3322
6684.7714
6680.5294
6675.5006
6669.5684
6662.6039
6654.4652
6644.9965
6634.0267
6621.3686
6606.8192
6590.1597
6571.1542
6549.551
6525.0792
6497.4424
6466.3226
6431.3719
6392.223
6348.4748
6299.7054
6245.4873
6185.5437
6117.8642
6712.0127
6712.0127
6712.0125
6712.0122
6712.0116
6712.0108
6712.0097
6712.0083
6712.0064
6712.004
6712.0009
6711.997
6711.9922
6711.9861
6711.9785
6711.969
6711.9571
6711.9423
6711.9238
6711.9007
6711.8718
6711.8357
6711.7905
6711.7337
6711.6624
6711.5726
6711.4593
6711.3164
6711.1359
6710.908
6710.6205
6710.2583
6709.8029
6709.2326
6708.5213
6707.6382
6706.5477
6705.208
6703.5711
6701.5816
6699.176
6696.2823
6692.8188
6688.6937
6683.8047
6678.0379
6671.2678
6663.356
6654.1506
6643.484
6631.1742
6617.0237
6600.8178
6582.3289
6561.3115
6537.4996
6510.6027
6480.3104
6446.2823
6408.1599
6365.5526
6318.0494
6265.2412
6206.8914
6140.8242
6720.0632
6720.0631
6720.063
6720.0627
6720.0621
6720.0614
6720.0603
6720.0589
6720.0571
6720.0548
6720.0518
6720.048
6720.0433
6720.0374
6720.03
6720.0207
6720.0092
6719.9948
6719.9767
6719.9542
6719.9261
6719.8909
6719.8468
6719.7914
6719.7217
6719.634
6719.5235
6719.384
6719.2079
6718.9857
6718.7054
6718.3523
6717.9088
6717.3538
6716.6619
6715.8033
6714.7434
6713.4418
6711.852
6709.9202
6707.5854
6704.7778
6701.4185
6697.4187
6692.679
6687.0891
6680.5268
6672.8575
6663.9327
6653.5898
6641.6527
6627.9279
6612.2089
6594.2747
6573.8851
6550.7784
6524.6736
6495.2647
6462.2216
6425.1952
6383.8051
6337.6514
6286.3451
6229.6932
6165.3375
6728.6168
6728.6167
6728.6166
6728.6163
6728.6158
6728.6151
6728.6141
6728.6128
6728.6111
6728.609
6728.6062
6728.6027
6728.5982
6728.5927
6728.5857
6728.577
6728.5661
6728.5525
6728.5354
6728.5141
6728.4873
6728.4537
6728.4115
6728.3584
6728.2915
6728.2071
6728.1005
6727.9658
6727.7955
6727.5804
6727.3091
6726.9673
6726.538
6726.0007
6725.3308
6724.4997
6723.4738
6722.2141
6720.6754
6718.8063
6716.5476
6713.8323
6710.5845
6706.7185
6702.1382
6696.7368
6690.3954
6682.9834
6674.3566
6664.3593
6652.8188
6639.5495
6624.3523
6607.0113
6587.2907
6564.938
6539.6764
6511.2094
6479.2159
6443.3564
6403.2613
6358.5418
6308.8304
6253.9826
6191.4369
6737.684
6737.684
6737.6838
6737.6836
6737.6832
6737.6825
6737.6817
6737.6805
6737.679
6737.677
6737.6745
6737.6713
6737.6673
6737.6623
6737.656
6737.648
6737.638
6737.6255
6737.6098
6737.59
6737.5651
6737.5338
6737.4942
6737.4443
6737.381
6737.3009
6737.1993
6737.0706
6736.9075
6736.7011
6736.4404
6736.1116
6735.6984
6735.1811
6734.5361
6733.7358
6732.7476
6731.5339
6730.0513
6728.25
6726.0734
6723.4573
6720.3286
6716.6052
6712.1943
6706.9925
6700.8848
6693.745
6685.4361
6675.8055
6664.688
6651.9062
6637.2653
6620.5551
6601.5481
6579.9968
6555.6328
6528.1679
6497.2899
6462.6699
6423.9493
6380.7501
6332.7271
6279.7917
6219.1533
6747.2795
6747.2795
6747.2795
6747.2792
6747.2789
6747.2783
6747.2776
6747.2766
6747.2752
6747.2735
6747.2713
6747.2685
6747.265
6747.2605
6747.2548
6747.2477
6747.2387
6747.2274
6747.2132
6747.1952
6747.1724
6747.1435
6747.1069
6747.0603
6747.0011
6746.9257
6746.8297
6746.7077
6746.5526
6746.3559
6746.1069
6745.7928
6745.3978
6744.9028
6744.2854
6743.5189
6742.5721
6741.4086
6739.9868
6738.2588
6736.1707
6733.6609
6730.6597
6727.0877
6722.8559
6717.8648
6712.0043
6705.1547
6697.1824
6687.9419
6677.2764
6665.012
6650.9624
6634.923
6616.6735
6595.9738
6572.5631
6546.162
6516.4675
6483.1614
6445.8962
6404.3046
6358.0639
6307.1512
6248.5171
6757.4193
6757.4193
6757.4192
6757.419
6757.4187
6757.4183
6757.4176
6757.4168
6757.4156
6757.4141
6757.4121
6757.4096
6757.4065
6757.4025
6757.3974
6757.391
6757.3829
6757.3726
6757.3597
6757.3432
6757.3223
6757.2957
6757.2618
6757.2184
6757.1631
6757.0923
6757.002
6756.8867
6756.7399
6756.5535
6756.3173
6756.0189
6755.6434
6755.1727
6754.5852
6753.8554
6752.9532
6751.844
6750.4876
6748.8387
6746.8454
6744.4491
6741.5829
6738.1712
6734.129
6729.3611
6723.7638
6717.2214
6709.6061
6700.7817
6690.5947
6678.8797
6665.4566
6650.1291
6632.683
6612.8862
6590.4864
6565.2127
6536.7718
6504.8555
6469.128
6429.2322
6384.8686
6336.0903
6279.5588
6768.1155
6768.1155
6768.1155
6768.1153
6768.1151
6768.1147
6768.1141
6768.1133
6768.1122
6768.1108
6768.109
6768.1067
6768.1038
6768.1001
6768.0954
6768.0894
6768.0819
6768.0724
6768.0603
6768.045
6768.0254
6768.0005
6767.9687
6767.928
6767.8759
6767.8092
6767.7241
6767.6154
6767.4769
6767.301
6767.078
6766.7963
6766.4417
6765.9969
6765.4415
6764.7508
6763.8963
6762.8449
6761.5583
6759.9934
6758.1009
6755.8249
6753.1019
6749.8602
6746.019
6741.4888
6736.1706
6729.953
6722.7179
6714.3332
6704.6527
6693.5196
6680.7603
6666.1861
6649.5907
6630.75
6609.4205
6585.3399
6558.2245
6527.776
6493.6701
6455.5596
6413.1683
6366.6364
6312.3107
6779.3734
6779.3734
6779.3734
6779.3732
6779.373
6779.3726
6779.372
6779.3712
6779.3702
6779.3688
6779.3671
6779.3648
6779.362
6779.3584
6779.3538
6779.3481
6779.3408
6779.3316
6779.32
6779.3053
6779.2866
6779.2628
6779.2325
6779.1938
6779.1444
6779.0814
6779.0011
6778.8987
6778.7684
6778.6032
6778.394
6778.1298
6777.7972
6777.3798
6776.8581
6776.2088
6775.4047
6774.4143
6773.2015
6771.7254
6769.9394
6767.7908
6765.2197
6762.1583
6758.5307
6754.2528
6749.2289
6743.3565
6736.5233
6728.603
6719.459
6708.9406
6696.8827
6683.1049
6667.409
6649.5795
6629.3815
6606.5622
6580.8466
6551.9463
6519.5477
6483.3133
6442.9908
6398.8179
6346.8071
6791.1902
6791.1903
6791.1902
6791.1901
6791.1898
6791.1894
6791.1888
6791.188
6791.187
6791.1856
6791.1839
6791.1816
6791.1788
6791.1752
6791.1707
6791.165
6791.1578
6791.1488
6791.1374
6791.123
6791.1049
6791.082
6791.0529
6791.016
6790.9691
6790.9095
6790.8339
6790.7378
6790.6161
6790.4621
6790.2673
6790.0215
6789.712
6789.3234
6788.8372
6788.2312
6787.4798
6786.5534
6785.4181
6784.0354
6782.3618
6780.3479
6777.9377
6775.0676
6771.667
6767.6546
6762.9424
6757.4356
6751.0261
6743.5968
6735.0186
6725.149
6713.8315
6700.8944
6686.1484
6669.3868
6650.384
6628.8965
6604.658
6577.389
6546.786
6512.5205
6474.3667
6432.6703
6383.083
6803.5589
6803.5589
6803.5588
6803.5587
6803.5584
6803.558
6803.5574
6803.5566
6803.5555
6803.5542
6803.5524
6803.5502
6803.5474
6803.5438
6803.5394
6803.5337
6803.5267
6803.5179
6803.5068
6803.493
6803.4755
6803.4536
6803.4259
6803.391
6803.3469
6803.2912
6803.2207
6803.1317
6803.0191
6802.877
6802.6976
6802.4713
6802.1862
6801.8277
6801.3785
6800.8177
6800.1214
6799.2618
6798.2075
6796.9229
6795.3678
6793.4962
6791.256
6788.5888
6785.4265
6781.6946
6777.313
6772.1906
6766.2278
6759.3161
6751.3343
6742.1487
6731.6117
6719.561
6705.8168
6690.182
6672.4405
6652.3582
6629.6775
6604.1269
6575.4116
6543.2103
6507.3287
6468.2362
6421.1798
6816.4711
6816.4711
6816.4711
6816.4709
6816.4706
6816.4702
6816.4697
6816.4689
6816.4679
6816.4666
6816.4649
6816.4628
6816.4601
6816.4567
6816.4524
6816.4471
6816.4405
6816.4322
6816.4217
6816.4087
6816.3924
6816.3719
6816.3463
6816.314
6816.2734
6816.2222
6816.1578
6816.0766
6815.9743
6815.8452
6815.6823
6815.4767
6815.2172
6814.8903
6814.4796
6813.9659
6813.3267
6812.5368
6811.5672
6810.3857
6808.9551
6807.2334
6805.1731
6802.7184
6799.8071
6796.3721
6792.3374
6787.6194
6782.1272
6775.7602
6768.4062
6759.9408
6750.2255
6739.1081
6726.4194
6711.9724
6695.561
6676.9607
6655.9227
6632.183
6605.4534
6575.4158
6541.9028
6505.522
6461.1956
6829.9193
6829.9193
6829.9192
6829.919
6829.9188
6829.9184
6829.9179
6829.9172
6829.9163
6829.9151
6829.9136
6829.9117
6829.9093
6829.9063
6829.9025
6829.8978
6829.8918
6829.8844
6829.8752
6829.8635
6829.849
6829.8308
6829.8079
6829.7792
6829.7431
6829.6976
6829.6404
6829.5683
6829.4774
6829.3625
6829.2173
6829.0334
6828.8006
6828.5063
6828.1353
6827.6701
6827.0903
6826.3729
6825.4921
6824.4186
6823.1189
6821.5552
6819.6831
6817.4514
6814.8048
6811.6809
6808.0101
6803.7173
6798.7198
6792.9253
6786.2313
6778.5227
6769.6716
6759.536
6747.9579
6734.7621
6719.7527
6702.7152
6683.4098
6661.5804
6636.944
6609.1729
6578.103
6544.6233
6503.1583
6843.8987
6843.8986
6843.8986
6843.8985
6843.8983
6843.8979
6843.8975
6843.8969
6843.8962
6843.8952
6843.894
6843.8925
6843.8905
6843.888
6843.8849
6843.881
6843.8761
6843.8699
6843.8622
6843.8525
6843.8404
6843.8251
6843.8057
6843.7814
6843.7507
6843.7118
6843.6627
6843.6007
6843.522
6843.4223
6843.2955
6843.134
6842.9285
6842.6674
6842.3371
6841.9219
6841.4036
6840.762
6839.9742
6839.014
6837.8519
6836.4534
6834.7777
6832.7803
6830.4106
6827.6118
6824.3228
6820.4762
6815.9976
6810.8042
6804.8027
6797.8886
6789.9448
6780.8407
6770.4304
6758.5513
6745.0193
6729.6305
6712.1545
6692.3426
6669.9116
6644.5025
6615.9928
6585.5831
6547.1131
6858.4039
6858.4039
6858.4038
6858.4037
6858.4035
6858.4033
6858.403
6858.4026
6858.402
6858.4014
6858.4005
6858.3993
6858.3979
6858.3961
6858.3938
6858.3909
6858.3873
6858.3827
6858.3769
6858.3696
6858.3602
6858.3483
6858.3332
6858.3138
6858.2891
6858.2575
6858.2171
6858.1655
6858.0995
6858.015
6857.9066
6857.7676
6857.5894
6857.3619
6857.0732
6856.7095
6856.2553
6855.6929
6855.0024
6854.161
6853.1427
6851.9158
6850.4458
6848.6928
6846.6116
6844.153
6841.2635
6837.8841
6833.9493
6829.3855
6824.1096
6818.028
6811.0355
6803.0139
6793.8304
6783.3362
6771.361
6757.7124
6742.1702
6724.4901
6704.3828
6681.4882
6655.6153
6628.4455
6593.1975
6873.4305
6873.4304
6873.4304
6873.4303
6873.4302
6873.4301
6873.4299
6873.4296
6873.4293
6873.4288
6873.4283
6873.4276
6873.4267
6873.4256
6873.4242
6873.4223
6873.42
6873.417
6873.4132
6873.4082
6873.4017
6873.3932
6873.3821
6873.3677
6873.3488
6873.3243
6873.2923
6873.2507
6873.1968
6873.1269
6873.0364
6872.9194
6872.7685
6872.575
6872.3289
6872.0187
6871.6311
6871.1513
6870.5624
6869.845
6868.9754
6867.9276
6866.6716
6865.1724
6863.3919
6861.2883
6858.8162
6855.9253
6852.5592
6848.6539
6844.1368
6838.9261
6832.9294
6826.0423
6818.1465
6809.1082
6798.773
6786.9617
6773.4638
6758.0386
6740.4158
6720.1788
6697.0642
6673.2889
6641.5534
6888.9678
6888.9678
6888.9677
6888.9677
6888.9676
6888.9675
6888.9674
6888.9673
6888.9671
6888.9669
6888.9666
6888.9663
6888.9659
6888.9653
6888.9646
6888.9637
6888.9625
6888.9609
6888.9587
6888.9557
6888.9517
6888.9462
6888.9388
6888.9286
6888.9149
6888.8964
6888.8719
6888.8393
6888.7965
6888.7403
6888.6669
6888.5713
6888.4477
6888.2888
6888.0865
6887.8315
6887.513
6887.1189
6886.6355
6886.0458
6885.3306
6884.4686
6883.4342
6882.1987
6880.7311
6878.9976
6876.961
6874.5799
6871.807
6868.5888
6864.8639
6860.5629
6855.6072
6849.9074
6843.3615
6835.8522
6827.2423
6817.3666
6806.0357
6793.0194
6778.0425
6760.6647
6740.514
6720.2716
6692.2937
6904.9999
6904.9999
6904.9998
6904.9997
6904.9997
6904.9996
6904.9995
6904.9994
6904.9993
6904.9992
6904.9991
6904.999
6904.9988
6904.9986
6904.9983
6904.9979
6904.9973
6904.9965
6904.9953
6904.9936
6904.9912
6904.9876
6904.9826
6904.9754
6904.9654
6904.9517
6904.933
6904.9081
6904.875
6904.8313
6904.7742
6904.6997
6904.6032
6904.4793
6904.3216
6904.1233
6903.8759
6903.5704
6903.1953
6902.7374
6902.1821
6901.512
6900.707
6899.7452
6898.6031
6897.2549
6895.6721
6893.8219
6891.6668
6889.1641
6886.2645
6882.9119
6879.0425
6874.5831
6869.4494
6863.5401
6856.743
6848.915
6839.8848
6829.4373
6817.3131
6803.0545
6786.2128
6769.6409
6745.4164
6921.4975
6921.4974
6921.4973
6921.4972
6921.4971
6921.497
6921.4969
6921.4968
6921.4967
6921.4966
6921.4965
6921.4963
6921.4962
6921.496
6921.4958
6921.4955
6921.4951
6921.4945
6921.4937
6921.4925
6921.4908
6921.4882
6921.4845
6921.4791
6921.4717
6921.4614
6921.4475
6921.429
6921.4047
6921.3728
6921.3315
6921.278
6921.209
6921.1206
6921.0086
6920.8683
6920.6943
6920.4793
6920.2152
6919.8932
6919.5023
6919.0299
6918.4621
6917.7841
6916.9799
6916.0322
6914.9208
6913.6219
6912.1083
6910.3486
6908.306
6905.9383
6903.1994
6900.0335
6896.3753
6892.1454
6887.2518
6881.5785
6874.9896
6867.3009
6858.2767
6847.4697
6834.4268
6821.4564
6801.2716
6938.426
6938.4259
6938.4258
6938.4257
6938.4255
6938.4254
6938.4252
6938.425
6938.4248
6938.4245
6938.4242
6938.4239
6938.4236
6938.4232
6938.4228
6938.4223
6938.4217
6938.4209
6938.4199
6938.4186
6938.4169
6938.4144
6938.4111
6938.4066
6938.4005
6938.3926
6938.3823
6938.3693
6938.3528
6938.3321
6938.3063
6938.2739
6938.233
6938.1809
6938.1153
6938.0342
6937.9343
6937.8113
6937.6614
6937.479
6937.2571
6936.9886
6936.6661
6936.282
6935.8281
6935.2954
6934.6721
6933.9441
6933.0952
6932.106
6930.9529
6929.6098
6928.0469
6926.2284
6924.1095
6921.6334
6918.737
6915.3326
6911.3208
6906.5721
6900.9016
6893.957
6885.3546
6876.5388
6861.3572
6956.5064
6956.5062
6956.506
6956.5058
6956.5055
6956.5052
6956.5049
6956.5045
6956.5041
6956.5036
6956.5031
6956.5025
6956.5018
6956.501
6956.5001
6956.499
6956.4978
6956.4963
6956.4945
6956.4923
6956.4897
6956.4866
6956.4828
6956.4782
6956.4726
6956.4662
6956.4589
6956.4506
6956.4416
6956.4317
6956.4211
6956.4097
6956.3972
6956.3833
6956.3681
6956.3513
6956.3322
6956.3107
6956.2856
6956.2551
6956.2178
6956.1724
6956.1186
6956.0561
6955.9845
6955.9035
6955.8108
6955.7025
6955.574
6955.4193
6955.2308
6954.9996
6954.7147
6954.3615
6953.9185
6953.3568
6952.6402
6951.7218
6950.5423
6949.0324
6947.0917
6944.5228
6941.3348
6938.4166
6932.843
6975.5276
6975.5274
6975.5271
6975.5268
6975.5265
6975.5261
6975.5256
6975.5251
6975.5246
6975.5239
6975.5231
6975.5222
6975.5212
6975.52
6975.5186
6975.517
6975.5151
6975.5129
6975.5103
6975.5073
6975.5039
6975.5
6975.4957
6975.491
6975.4862
6975.4815
6975.4774
6975.4746
6975.474
6975.4763
6975.4829
6975.4949
6975.514
6975.5414
6975.5796
6975.6315
6975.7003
6975.788
6975.8958
6976.0276
6976.1873
6976.3802
6976.6132
6976.8939
6977.2306
6977.6313
6978.1038
6978.6553
6979.2943
6980.0296
6980.8707
6981.8274
6982.9086
6984.1219
6985.4719
6986.9603
6988.5838
6990.3372
6992.21
6994.198
6996.2951
6998.4743
7000.9455
7004.131
7006.5334
6994.5114
6994.5111
6994.5108
6994.5105
6994.5101
6994.5097
6994.5092
6994.5087
6994.5081
6994.5074
6994.5066
6994.5056
6994.5046
6994.5034
6994.502
6994.5004
6994.4985
6994.4964
6994.4941
6994.4914
6994.4885
6994.4853
6994.4822
6994.4791
6994.4767
6994.4755
6994.4765
6994.4807
6994.4897
6994.5054
6994.5298
6994.5654
6994.6147
6994.682
6994.772
6994.8898
6995.0411
6995.2321
6995.4694
6995.7611
6996.1166
6996.5474
6997.0674
6997.6917
6998.4366
6999.3192
7000.3573
7001.57
7002.9791
7004.6087
7006.4855
7008.6382
7011.096
7013.8891
7017.0484
7020.6066
7024.5959
7029.0531
7034.0185
7039.5483
7045.7086
7052.5981
7060.4583
7069.5435
7079.6946
7013.3767
7013.3764
7013.3761
7013.3758
7013.3754
7013.375
7013.3746
7013.3741
7013.3735
7013.3729
7013.3722
7013.3715
7013.3706
7013.3697
7013.3687
7013.3675
7013.3662
7013.3648
7013.3632
7013.3616
7013.36
7013.3585
7013.3573
7013.3569
7013.358
7013.3612
7013.368
7013.3798
7013.3986
7013.4272
7013.4686
7013.5265
7013.606
7013.7131
7013.8537
7014.0359
7014.2688
7014.5622
7014.9272
7015.3768
7015.9261
7016.593
7017.3983
7018.3643
7019.5151
7020.8769
7022.4779
7024.3493
7026.5266
7029.0495
7031.9616
7035.3103
7039.1456
7043.5205
7048.4922
7054.1243
7060.4848
7067.6513
7075.7123
7084.7789
7094.9801
7106.5001
7119.6203
7134.6711
7152.1259
7032.0338
7032.0335
7032.0332
7032.0329
7032.0325
7032.0322
7032.0319
7032.0315
7032.0311
7032.0307
7032.0303
7032.0299
7032.0295
7032.0291
7032.0287
7032.0284
7032.028
7032.0278
7032.0277
7032.0278
7032.0283
7032.0294
7032.0313
7032.0347
7032.0402
7032.049
7032.0626
7032.0831
7032.1131
7032.156
7032.216
7032.2984
7032.4095
7032.5562
7032.7474
7032.9941
7033.3083
7033.7034
7034.195
7034.8011
7035.5427
7036.4439
7037.5319
7038.8363
7040.3891
7042.2254
7044.3842
7046.9093
7049.85
7053.2611
7057.2028
7061.7409
7066.9462
7072.8952
7079.6714
7087.3683
7096.0887
7105.9497
7117.0849
7129.6576
7143.8592
7159.9452
7178.2595
7199.2406
7223.539
7050.411
7050.4107
7050.4104
7050.4102
7050.41
7050.4097
7050.4095
7050.4093
7050.4092
7050.4091
7050.4091
7050.4091
7050.4093
7050.4095
7050.41
7050.4106
7050.4114
7050.4126
7050.4142
7050.4164
7050.4193
7050.4233
7050.4287
7050.4363
7050.447
7050.4622
7050.4837
7050.5141
7050.5567
7050.6156
7050.6961
7050.8042
7050.9475
7051.1349
7051.3776
7051.6891
7052.0843
7052.5806
7053.1978