/*--------------------------------*- C++ -*----------------------------------*\
  =========                 |
  \\      /  F ield         | OpenFOAM: The Open Source CFD Toolbox
   \\    /   O peration     | Website:  https://openfoam.org
    \\  /    A nd           | Version:  13
     \\/     M anipulation  |
\*---------------------------------------------------------------------------*/
FoamFile
{
    format      ascii;
    class       volScalarField;
    location    "46.903099";
    object      yPlus;
}
// * * * * * * * * * * * * * * * * * * * * * * * * * * * * * * * * * * * * * //

dimensions      [];

internalField   uniform 0;

boundaryField
{
    inlet
    {
        type            calculated;
        value           uniform 0;
    }
    outlet
    {
        type            calculated;
        value           uniform 0;
    }
    cylinder
    {
        type            calculated;
        value           nonuniform List<scalar> 
132
(
1.2957312e-07
1.2935273e-07
1.286697e-07
1.2746554e-07
1.2571083e-07
1.2340121e-07
1.2054831e-07
1.1717353e-07
1.1330523e-07
1.0897783e-07
1.0424561e-07
9.9173473e-08
9.3826585e-08
8.8281914e-08
8.262332e-08
7.6937919e-08
7.1312382e-08
6.582744e-08
6.0551664e-08
5.5532678e-08
5.0788381e-08
4.6297977e-08
4.1993096e-08
3.7766074e-08
3.3487336e-08
2.904562e-08
2.4403873e-08
1.9642432e-08
1.497147e-08
1.0696536e-08
7.1445063e-09
4.5941675e-09
3.2433902e-09
3.0636414e-09
3.5476258e-09
4.340255e-09
5.353852e-09
6.596478e-09
8.0940113e-09
9.8791208e-09
1.2013483e-08
1.4574419e-08
1.7336777e-08
2.0262696e-08
2.3280603e-08
2.632366e-08
2.9334381e-08
3.2270747e-08
3.5098799e-08
3.7797842e-08
4.0350399e-08
4.2752732e-08
4.4992325e-08
4.7063553e-08
4.8996995e-08
5.0749324e-08
5.2350449e-08
5.3790557e-08
5.5078021e-08
5.6201249e-08
5.7163939e-08
5.7973761e-08
5.8629079e-08
5.9128486e-08
5.9475115e-08
5.9664581e-08
1.2929954e-07
1.2850767e-07
1.2722225e-07
1.2542246e-07
1.2310557e-07
1.2027772e-07
1.1695351e-07
1.1315631e-07
1.089185e-07
1.042814e-07
9.9294578e-08
9.4016037e-08
8.8511608e-08
8.285356e-08
7.7120263e-08
7.1394079e-08
6.575879e-08
6.0296495e-08
5.5082771e-08
5.0179351e-08
4.5622004e-08
4.1403946e-08
3.7458717e-08
3.3655352e-08
2.9820555e-08
2.5796007e-08
2.1518476e-08
1.7085284e-08
1.2759515e-08
8.8942253e-09
5.8277456e-09
3.8287811e-09
3.0488759e-09
3.2289107e-09
3.8668989e-09
4.7532575e-09
5.859728e-09
7.2040845e-09
8.8133659e-09
1.0715575e-08
1.2967765e-08
1.5640543e-08
1.8489672e-08
2.147839e-08
2.4529284e-08
2.7579241e-08
3.0577922e-08
3.3484255e-08
3.6270652e-08
3.8918413e-08
4.1412981e-08
4.3755424e-08
4.5932207e-08
4.7935489e-08
4.9806105e-08
5.1484631e-08
5.3023836e-08
5.4390822e-08
5.5612355e-08
5.6656674e-08
5.7553435e-08
5.8292357e-08
5.8876739e-08
5.9304878e-08
5.9579018e-08
5.969798e-08
)
;
    }
    frontAndBack
    {
        type            empty;
    }
}


// ************************************************************************* //
