/*--------------------------------*- C++ -*----------------------------------*\
  =========                 |
  \\      /  F ield         | OpenFOAM: The Open Source CFD Toolbox
   \\    /   O peration     | Website:  https://openfoam.org
    \\  /    A nd           | Version:  13
     \\/     M anipulation  |
\*---------------------------------------------------------------------------*/
FoamFile
{
    format      ascii;
    class       surfaceScalarField;
    location    "45.403782";
    object      phi;
}
// * * * * * * * * * * * * * * * * * * * * * * * * * * * * * * * * * * * * * //

dimensions      [0 3 -1 0 0 0 0];

internalField   nonuniform List<scalar> 
34068
(
-1.1148731e-08
1.2980246e-08
-1.8315146e-09
-4.9614996e-08
4.6230507e-08
-7.7642426e-09
-1.2452724e-07
9.1485662e-08
-1.6573425e-08
-2.4741258e-07
1.5073382e-07
-2.7848483e-08
-4.327665e-07
2.2595233e-07
-4.0598413e-08
-6.987425e-07
3.190082e-07
-5.3032207e-08
-1.0679874e-06
4.3151266e-07
-6.2267753e-08
-1.5686473e-06
5.6464372e-07
-6.3983842e-08
-2.235573e-06
7.1893539e-07
-5.2009715e-08
-3.1117564e-06
8.9404615e-07
-1.7862721e-08
-4.250029e-06
1.0885245e-06
4.9748025e-08
-5.7150535e-06
1.2996113e-06
1.6541319e-07
-7.5856389e-06
1.5231343e-06
3.4745111e-07
-9.957399e-06
1.7535853e-06
6.1817473e-07
-1.294576e-05
1.9845051e-06
1.0038563e-06
-1.668931e-05
2.2093478e-06
1.5342015e-06
-2.1353432e-05
2.4230482e-06
2.2410742e-06
-2.7134152e-05
2.6245624e-06
3.1561572e-06
-3.4262012e-05
2.8206852e-06
4.3071754e-06
-4.3005759e-05
3.0314454e-06
5.7123013e-06
-5.3675453e-05
3.2972981e-06
7.3723958e-06
-6.6624509e-05
3.688139e-06
9.260917e-06
-8.2249955e-05
4.3137864e-06
1.1311659e-05
-0.00010098998
5.3349674e-06
1.3405058e-05
-0.00012331761
6.9729523e-06
1.5354681e-05
-0.00014972906
9.51485e-06
1.6896599e-05
-0.00018072548
1.3310363e-05
1.7686057e-05
-0.00021678711
1.875503e-05
1.73066e-05
-0.00025834161
2.6255869e-05
1.529863e-05
-0.00030573616
3.6180712e-05
1.1213832e-05
-0.0003592154
4.8806468e-05
4.672775e-06
-0.00041888227
6.4297849e-05
-4.6309806e-06
-0.00048486556
8.2736624e-05
-1.675333e-05
-0.00055731677
0.00010426178
-3.1810571e-05
-0.0006365198
0.00012919701
-4.9993981e-05
-0.00072293251
0.00015813314
-7.1720437e-05
-0.00081719646
0.00019196182
-9.7697872e-05
-0.00092014728
0.00023191723
-0.00012896641
-0.0010328302
0.00027968698
-0.00016700402
-0.0011565471
0.00033762245
-0.00021390557
-0.0012929387
0.00040908641
-0.00027269479
-0.0014440904
0.00049899667
-0.00034784503
-0.0016127532
0.00061465312
-0.00044599029
-0.0018025569
0.0007669418
-0.00057713808
-0.0020182462
0.00097174583
-0.00075605657
-0.0022659892
0.0012521963
-0.0010044532
-0.0025537008
0.0016422173
-0.0013545058
-0.0028912041
0.0021909539
-0.0018534506
-0.003290085
0.002969399
-0.002570518
-0.0037629682
0.0040800068
-0.0036071236
-0.0043219889
0.0056702134
-0.0051111927
-0.0049769264
0.0079497508
-0.0072948134
-0.005731521
0.011199945
-0.01044535
-0.0065752664
0.01574047
-0.014896725
-0.0074785128
0.021827869
-0.020924623
-0.0083991665
0.02934289
-0.028422237
-0.0092662212
0.037317814
-0.036450759
-0.010030129
0.043856356
-0.043092448
-0.010479043
0.042495811
-0.042046897
-0.0078173665
0.018179253
-0.02084093
0.0018355966
-0.045176262
0.035523299
0.014059157
-0.11815819
0.10593463
0.021319538
-0.15816844
0.15090806
0.025782844
-0.166704
0.1622407
-0.11836817
0.03808972
0.10606129
-1.0924996e-08
2.3905241e-08
-4.8613581e-08
8.3919091e-08
-1.2200612e-07
1.648782e-07
-2.4240328e-07
2.7113098e-07
-4.2402619e-07
4.0757524e-07
-6.8469936e-07
5.7968137e-07
-1.0466781e-06
7.9349141e-07
-1.5376468e-06
1.0556123e-06
-2.191917e-06
1.3732057e-06
-3.0518571e-06
1.7539862e-06
-4.1695852e-06
2.2062526e-06
-5.6089578e-06
2.7389839e-06
-7.4478865e-06
3.3620629e-06
-9.7809992e-06
4.0866979e-06
-1.2722662e-05
4.9261682e-06
-1.641035e-05
5.8970352e-06
-2.1008313e-05
7.0210114e-06
-2.6711467e-05
8.3277163e-06
-3.3749339e-05
9.8585574e-06
-4.2389833e-05
1.1671939e-05
-5.2942452e-05
1.3849917e-05
-6.5760474e-05
1.6506161e-05
-8.1241374e-05
1.9794686e-05
-9.9824572e-05
2.3918165e-05
-0.00012198532
2.9133704e-05
-0.00014822335
3.5752879e-05
-0.00017904478
4.4131793e-05
-0.00021493644
5.4646692e-05
-0.00025633356
6.765299e-05
-0.00030358597
8.3433116e-05
-0.0003569335
0.000102154
-0.00041650926
0.00012387361
-0.00048240245
0.00014862982
-0.00055473694
0.00017659627
-0.00063375414
0.00020821421
-0.00071985982
0.00024423883
-0.00081363537
0.00028573737
-0.00091583892
0.00033412078
-0.0010274153
0.00039126338
-0.0011495283
0.00045973545
-0.0012836215
0.0005431796
-0.0014315086
0.00064688379
-0.0015955255
0.00077867002
-0.0017787023
0.00095011855
-0.0019849193
0.0011779629
-0.0022190894
0.0014863664
-0.0024873125
0.0019104404
-0.0027968024
0.0025004438
-0.0031554272
0.0033280238
-0.0035705706
0.0044951503
-0.0040473085
0.0061469513
-0.0045871966
0.0084896389
-0.0051854932
0.011798242
-0.0058180567
0.016373034
-0.0064334744
0.022443287
-0.006979889
0.029889305
-0.0073843951
0.03772232
-0.0075272368
0.043999198
-0.0070705536
0.042039128
-0.002471114
0.013579813
0.0087709556
-0.056418332
0.021097261
-0.1304845
0.027501949
-0.16457313
0.028755822
-0.16795788
-0.12515599
0.035543645
-1.0540519e-08
3.444576e-08
-4.6901113e-08
1.2027968e-07
-1.1770954e-07
2.3568663e-07
-2.3388003e-07
3.8730147e-07
-4.0915988e-07
5.8285509e-07
-6.6079666e-07
8.3131814e-07
-1.0103471e-06
1.1430419e-06
-1.4846573e-06
1.5299225e-06
-2.1170374e-06
2.0055857e-06
-2.9486695e-06
2.5856183e-06
-4.0302761e-06
3.2878592e-06
-5.4240864e-06
4.1327942e-06
-7.2061281e-06
5.1441046e-06
-9.4688736e-06
6.3494434e-06
-1.2324246e-05
7.7815408e-06
-1.5906987e-05
9.4797759e-06
-2.0378336e-05
1.1492361e-05
-2.5929952e-05
1.3879333e-05
-3.2787916e-05
1.6716522e-05
-4.1216594e-05
2.0100617e-05
-5.1521999e-05
2.4155322e-05
-6.4054169e-05
2.9038331e-05
-7.9207864e-05
3.4948381e-05
-9.742067e-05
4.2130971e-05
-0.00011916736
5.0880389e-05
-0.00014494905
6.1534571e-05
-0.00017527575
7.4458494e-05
-0.00021064107
9.0012012e-05
-0.00025148965
0.00010850157
-0.00029818162
0.00013012509
-0.00035096563
0.00015493801
-0.00040997898
0.00018288696
-0.00047529276
0.0002139436
-0.00054699336
0.00024829687
-0.00062526648
0.00028648732
-0.00071044799
0.00032942034
-0.00080303665
0.00037832603
-0.00090368944
0.00043477357
-0.001013221
0.00050079489
-0.0011326192
0.00057913367
-0.0012630826
0.00067364299
-0.0014060806
0.00078988183
-0.0015634462
0.00093603561
-0.0017374856
0.0011241579
-0.0019310456
0.0013715229
-0.0021475547
0.0017028754
-0.0023909857
0.0021538714
-0.0026655208
0.0027749789
-0.0029747438
0.0036372467
-0.0033199971
0.0048404035
-0.0036985645
0.0065255187
-0.0041034155
0.0088944899
-0.0045170916
0.012211918
-0.004891897
0.016747839
-0.0051405254
0.022691915
-0.0051650714
0.029913851
-0.0048536652
0.037410914
-0.0039543174
0.04309985
-0.0018522619
0.039937073
0.0051447018
0.0065828496
0.017335604
-0.068609234
0.029479421
-0.14262832
0.035295564
-0.17038927
0.034058144
-0.16672046
-0.1272908
0.036192954
-9.9975754e-09
4.4443335e-08
-4.4483728e-08
1.5476584e-07
-1.1164573e-07
3.0284862e-07
-2.2185076e-07
4.975065e-07
-3.8817158e-07
7.4917591e-07
-6.2702838e-07
1.0701749e-06
-9.5897146e-07
1.474985e-06
-1.4096262e-06
1.9805773e-06
-2.0108354e-06
2.6067949e-06
-2.8020241e-06
3.376807e-06
-3.8318274e-06
4.3176625e-06
-5.1600093e-06
5.4609761e-06
-6.8597108e-06
6.8438061e-06
-9.020048e-06
8.5097805e-06
-1.1749081e-05
1.0510574e-05
-1.5177149e-05
1.2907844e-05
-1.9460538e-05
1.577575e-05
-2.4785414e-05
1.9204209e-05
-3.1371874e-05
2.3302982e-05
-3.9477906e-05
2.8206649e-05
-4.9402931e-05
3.4080347e-05
-6.1490441e-05
4.1125841e-05
-7.6129077e-05
4.9587017e-05
-9.3751269e-05
5.9753164e-05
-0.00011482828
7.1957401e-05
-0.00013986026
8.6566554e-05
-0.00016935974
0.00010395797
-0.00020382725
0.00012447952
-0.00024371909
0.0001483934
-0.00028941052
0.00017581652
-0.00034116446
0.00020669196
-0.00039912331
0.00024084581
-0.00046334257
0.00027816286
-0.00053386588
0.00031882017
-0.00061081091
0.00036343235
-0.00069442635
0.00041303578
-0.00078510712
0.0004690068
-0.00088338457
0.00053305102
-0.00098991366
0.00060732398
-0.0011054697
0.00069468971
-0.0012309586
0.00079913187
-0.0013674397
0.00092636299
-0.0015161589
0.0010847548
-0.0016785826
0.0012865816
-0.0018563674
0.0015493078
-0.0020512501
0.0018977581
-0.0022647935
0.0023674148
-0.0024977687
0.0030079541
-0.0027489608
0.0038884389
-0.0030129447
0.0051043875
-0.0032782622
0.0067908362
-0.0035279202
0.009144148
-0.0037222922
0.01240629
-0.0037793642
0.016804911
-0.0035752368
0.022487788
-0.0029372327
0.029275847
-0.0016457349
0.036119416
0.00067518566
0.040778929
0.0052229887
0.03538927
0.014659337
-0.0028534983
0.027145664
-0.081095562
0.038622643
-0.1541053
0.043923046
-0.17568968
0.041269437
-0.16406685
-0.12586279
0.039841423
-9.3009519e-09
5.3744287e-08
-4.1383661e-08
1.8684855e-07
-1.0387051e-07
3.6533548e-07
-2.0642528e-07
6.0006127e-07
-3.6125003e-07
9.0400066e-07
-5.8369468e-07
1.2926196e-06
-8.9299855e-07
1.7842889e-06
-1.3131943e-06
2.400773e-06
-1.8741949e-06
3.1677955e-06
-2.613107e-06
4.1157191e-06
-3.5757908e-06
5.2803463e-06
-4.818716e-06
6.7039013e-06
-6.4111322e-06
8.4362223e-06
-8.4376015e-06
1.053625e-05
-1.1000895e-05
1.3073867e-05
-1.4225269e-05
1.6132218e-05
-1.8260092e-05
1.9810573e-05
-2.3283763e-05
2.422788e-05
-2.95078e-05
2.9527019e-05
-3.7180901e-05
3.587975e-05
-4.6592675e-05
4.3492121e-05
-5.8076599e-05
5.2609764e-05
-7.2011573e-05
6.3521991e-05
-8.8821253e-05
7.6562844e-05
-0.00010897001
9.2106162e-05
-0.00013295419
0.00011055073
-0.00016128697
0.00013229075
-0.00019447541
0.00015766796
-0.000232989
0.00018690699
-0.00027722187
0.00022004939
-0.00032745659
0.00025692667
-0.00038384572
0.00029723495
-0.00044643155
0.00034074868
-0.00051521122
0.00038759985
-0.00059022323
0.00043844436
-0.000671612
0.00049442455
-0.00075964766
0.00055704246
-0.00085471186
0.00062811522
-0.00095727153
0.00070988365
-0.0010678545
0.00080527265
-0.0011870294
0.00091830678
-0.0013153866
0.0010547202
-0.0014535074
0.0012228756
-0.0016019145
0.0014349887
-0.0017609348
0.0017083281
-0.0019304313
0.0020672545
-0.0021093097
0.0025462932
-0.0022945993
0.0031932437
-0.0024797954
0.0040736349
-0.0026522431
0.0052768352
-0.0027907504
0.0069293434
-0.0028625619
0.0092159595
-0.0027981481
0.012341876
-0.0024788985
0.016485661
-0.0017294515
0.021738341
-0.00028693653
0.027833332
0.0022156397
0.03361684
0.0063120096
0.036682559
0.013447132
0.028254147
0.025033756
-0.014440122
0.037898156
-0.093959962
0.048108724
-0.16431586
0.052706736
-0.18028769
0.049679637
-0.16103975
-0.12200284
0.045819686
-8.4610818e-09
6.2205369e-08
-3.7646553e-08
2.1603402e-07
-9.4497637e-08
4.2218656e-07
-1.8782784e-07
6.9339148e-07
-3.2878514e-07
1.044958e-06
-5.3141825e-07
1.4952527e-06
-8.133713e-07
2.0662419e-06
-1.1967273e-06
2.784129e-06
-1.7090352e-06
3.6801035e-06
-2.3845445e-06
4.7912284e-06
-3.2656852e-06
6.161487e-06
-4.4048307e-06
7.8430467e-06
-5.866377e-06
9.8977686e-06
-7.7291675e-06
1.239904e-05
-1.0089293e-05
1.5433993e-05
-1.3063276e-05
1.9106201e-05
-1.6791626e-05
2.3538923e-05
-2.1442713e-05
2.8878967e-05
-2.721687e-05
3.5301176e-05
-3.4350547e-05
4.3013427e-05
-4.3120233e-05
5.2261807e-05
-5.3845777e-05
6.3335308e-05
-6.6892504e-05
7.6568719e-05
-8.2671353e-05
9.2341693e-05
-0.000101636
0.0001110708
-0.00012427555
0.00013319029
-0.0001511013
0.0001591165
-0.00018262561
0.00018919228
-0.00021933189
0.00022361326
-0.00026163618
0.00026235369
-0.00030984609
0.00030513658
-0.00036413069
0.00035151955
-0.00042452349
0.00040114148
-0.00049097371
0.00045405007
-0.00056343124
0.00051090189
-0.00064191994
0.00057291324
-0.00072656451
0.00064168704
-0.00081757339
0.00071912409
-0.00091519866
0.00080750892
-0.0010196886
0.00090976255
-0.0011312346
0.0010298529
-0.0012499066
0.0011733921
-0.0013755549
0.0013485239
-0.001507669
0.0015671028
-0.001645128
0.0018457872
-0.0017857684
0.0022078949
-0.0019256351
0.0026861599
-0.0020577323
0.0033253409
-0.0021698049
0.0041857075
-0.0022414171
0.0053484474
-0.0022403845
0.0069283108
-0.0021118118
0.0090873868
-0.0017526424
0.011982707
-0.0010053979
0.015738417
0.0003740338
0.020358909
0.0027601089
0.025447257
0.0066373793
0.029739569
0.012616954
0.030702985
0.022157291
0.01871381
0.035646385
-0.027929216
0.049078401
-0.10739198
0.057577687
-0.17281515
0.061029116
-0.18373912
0.058345854
-0.15835648
-0.1175301
0.053873117
-7.4932045e-09
6.9698574e-08
-3.3340238e-08
2.4188105e-07
-8.3696657e-08
4.7254298e-07
-1.6639406e-07
7.7608888e-07
-2.9135985e-07
1.1699237e-06
-4.7113474e-07
1.6750276e-06
-7.2150705e-07
2.3166142e-06
-1.0622899e-06
3.1249118e-06
-1.5182671e-06
4.1360806e-06
-2.1203388e-06
5.3933002e-06
-2.9069003e-06
6.9480485e-06
-3.9254932e-06
8.8616396e-06
-5.2347546e-06
1.120703e-05
-6.906721e-06
1.4071007e-05
-9.0294915e-06
1.7556763e-05
-1.1710286e-05
2.1786995e-05
-1.5078891e-05
2.6907528e-05
-1.9291462e-05
3.3091537e-05
-2.4534592e-05
4.0544306e-05
-3.1029541e-05
4.9508377e-05
-3.9036363e-05
6.0268628e-05
-4.8857567e-05
7.3156513e-05
-6.0840871e-05
8.8552022e-05
-7.5380264e-05
0.00010688109
-9.2914409e-05
0.00012860495
-0.00011392117
0.00015419705
-0.00013890649
0.00018410182
-0.00016838578
0.00021867157
-0.00020285589
0.00025808338
-0.0002427569
0.0003022547
-0.00028842641
0.00035080608
-0.00034005728
0.00040315042
-0.00039768096
0.00045876516
-0.00046120047
0.00051756959
-0.00053047033
0.00058017174
-0.00060537888
0.0006478218
-0.00068588548
0.00072219364
-0.00077200266
0.00080524127
-0.00086374277
0.00089924903
-0.00096104596
0.0010070657
-0.0010636923
0.0011324992
-0.0011711881
0.0012808879
-0.0012825991
0.0014599349
-0.0013963112
0.0016808149
-0.0015096631
0.001959139
-0.0016183449
0.0023165767
-0.0017153857
0.0027832007
-0.0017895325
0.0033994878
-0.0018223842
0.0042185592
-0.0017848241
0.0053108873
-0.0016318891
0.0067753758
-0.0012833741
0.0087388718
-0.00060248412
0.011301817
0.00061679449
0.014519138
0.0027020928
0.018273611
0.0061407332
0.022008617
0.011424499
0.024455804
0.019169536
0.022957948
0.030887036
0.0069963101
0.046253262
-0.043295442
0.060102722
-0.12124144
0.066622278
-0.17933471
0.068291953
-0.18540879
0.06645537
-0.1565199
-0.11452904
0.063454308
-6.4178411e-09
7.6116415e-08
-2.8555364e-08
2.6401857e-07
-7.1694436e-08
5.1568205e-07
-1.4257284e-07
8.4696728e-07
-2.497569e-07
1.2771078e-06
-4.0410099e-07
1.8293717e-06
-6.1931528e-07
2.5318285e-06
-9.1266539e-07
3.4182619e-06
-1.3058244e-06
4.5292397e-06
-1.8259151e-06
5.9133908e-06
-2.5067686e-06
7.628902e-06
-3.3904369e-06
9.745308e-06
-4.5290046e-06
1.2345598e-05
-5.9867207e-06
1.5528723e-05
-7.8425085e-06
1.9412551e-05
-1.0192852e-05
2.4137339e-05
-1.3155093e-05
2.9869769e-05
-1.6871114e-05
3.6807558e-05
-2.1511358e-05
4.518455e-05
-2.7279064e-05
5.5276083e-05
-3.4414565e-05
6.7404129e-05
-4.3199328e-05
8.1941275e-05
-5.3959316e-05
9.9312011e-05
-6.7067035e-05
0.0001199888
-8.2941422e-05
0.00014447934
-0.0001020443
0.00017329993
-0.00012487186
0.00020692938
-0.00015193901
0.00024573871
-0.00018375412
0.0002898985
-0.00022078187
0.00033928244
-0.00026339391
0.00039341813
-0.00031181452
0.00045157103
-0.00036608215
0.00051303279
-0.0004260592
0.00057754663
-0.00049150167
0.00064561422
-0.00056214983
0.00071846996
-0.00063777877
0.00079782259
-0.00071818365
0.00088564616
-0.00080311434
0.00098417971
-0.00089217848
0.0010961299
-0.00098471689
0.0012250377
-0.0010796389
0.0013758099
-0.0011751856
0.0015554815
-0.001268588
0.0017742174
-0.0013555798
0.0020461308
-0.0014296224
0.0023906193
-0.001480627
0.0028342053
-0.0014929249
0.0034117857
-0.0014417306
0.0041673649
-0.0012885565
0.0051577133
-0.00097430778
0.0064611271
-0.00039088683
0.0081554508
0.00063374847
0.010277181
0.0023657928
0.012787094
0.005225439
0.015413965
0.0097603921
0.017473663
0.016330477
0.017885719
0.025593479
0.013694946
0.039498865
-0.0069090762
0.056833627
-0.060630204
0.070427118
-0.13483493
0.07468377
-0.18359136
0.074231915
-0.18495694
0.073610533
-0.15589852
-0.11475814
0.073839633
-5.2605273e-09
8.1376942e-08
-2.3405654e-08
2.821637e-07
-5.8775599e-08
5.51052e-07
-1.1692825e-07
9.0511993e-07
-2.049584e-07
1.365138e-06
-3.3189501e-07
1.9563083e-06
-5.0919609e-07
2.7091296e-06
-7.5135734e-07
3.6604231e-06
-1.0766657e-06
4.854548e-06
-1.5081194e-06
6.3448446e-06
-2.0745519e-06
8.1953346e-06
-2.811992e-06
1.0482748e-05
-3.7653024e-06
1.3298908e-05
-4.9901238e-06
1.6753544e-05
-6.5551863e-06
2.0977613e-05
-8.5449982e-06
2.6127151e-05
-1.106295e-05
3.2387721e-05
-1.4234817e-05
3.9979425e-05
-1.8212679e-05
4.9162412e-05
-2.3179133e-05
6.0242536e-05
-2.9351681e-05
7.3576678e-05
-3.6987121e-05
8.9576715e-05
-4.6385491e-05
0.00010871038
-5.7893136e-05
0.00013149645
-7.1904084e-05
0.00015849029
-8.8858681e-05
0.00019025452
-0.00010923789
0.00022730858
-0.00013355108
0.00027005191
-0.00016231437
0.00031866178
-0.00019601557
0.00037298365
-0.00023506283
0.00043246538
-0.00027971903
0.00049622723
-0.00033004068
0.00056335444
-0.00038585927
0.00063336522
-0.00044683402
0.00070658896
-0.00051254797
0.00078418391
-0.00058257492
0.00086784954
-0.00065647253
0.00095954377
-0.00073370779
0.001061415
-0.00081353566
0.0011759578
-0.00089483687
0.0013063389
-0.00097590061
0.0014568736
-0.0010541163
0.0016336973
-0.0011255277
0.0018456288
-0.0011842252
0.0021048283
-0.0012213918
0.0024277859
-0.0012237637
0.0028365772
-0.0011711858
0.0033592078
-0.0010324603
0.0040286393
-0.0007594952
0.0048847482
-0.00027674909
0.005978381
0.00055429337
0.0073244084
0.0019473844
0.0088840903
0.0042388482
0.01049563
0.007920047
0.011732766
0.013476354
0.011917357
0.021122783
0.01023929
0.031939055
0.0028786732
0.048358713
-0.023328734
0.067425091
-0.079696582
0.07952662
-0.14693646
0.081121702
-0.18518644
0.078983401
-0.18281864
0.079416144
-0.15633126
-0.11892375
0.083581756
-4.0519009e-09
8.5428843e-08
-1.8027239e-08
2.9613904e-07
-4.5281045e-08
5.7830581e-07
-9.0134948e-08
9.4997384e-07
-1.5814075e-07
1.4331438e-06
-2.5641024e-07
2.0545778e-06
-3.9403007e-07
2.8467494e-06
-5.8257615e-07
3.8489692e-06
-8.3675674e-07
5.1087286e-06
-1.1752006e-06
6.6832885e-06
-1.6214362e-06
8.6415701e-06
-2.2050743e-06
1.1066386e-05
-2.9632562e-06
1.405709e-05
-3.9423907e-06
1.7732679e-05
-5.200229e-06
2.2235452e-05
-6.8083174e-06
2.773524e-05
-8.8548535e-06
3.4434257e-05
-1.144799e-05
4.2572562e-05
-1.4719548e-05
5.243397e-05
-1.8829151e-05
6.435214e-05
-2.3968669e-05
7.8716195e-05
-3.0366812e-05
9.5974858e-05
-3.8293652e-05
0.00011663722
-4.8064618e-05
0.00014126741
-6.0043403e-05
0.00017046907
-7.464277e-05
0.00020485389
-9.2321905e-05
0.00024498772
-0.00011357806
0.00029130806
-0.00013892911
0.00034401284
-0.0001688821
0.00040293664
-0.00020388144
0.00046746472
-0.00024423447
0.00053658026
-0.00029002784
0.00060914781
-0.00034107607
0.00068441345
-0.00039694915
0.00076246204
-0.00045706851
0.00084430327
-0.00052079254
0.00093157357
-0.00058742296
0.0010261742
-0.00065612581
0.0011301178
-0.00072578704
0.001245619
-0.00079481282
0.0013753646
-0.00086085888
0.0015229197
-0.00092044892
0.0016932873
-0.00096842397
0.0018936038
-0.00099720994
0.0021336143
-0.00099568032
0.0024262563
-0.00094735083
0.0027882477
-0.00082751025
0.0032393672
-0.0005985352
0.0037996643
-0.00020196643
0.0044881794
0.00045800352
0.005318411
0.0015537676
0.0062286443
0.0033523527
0.0070855053
0.0062542363
0.0075937464
0.01073506
0.007251942
0.017105588
0.0055468285
0.025749195
0.001595683
0.038811911
-0.010184043
0.058209002
-0.042725825
0.077741162
-0.099228742
0.086781228
-0.15597652
0.085731528
-0.18413674
0.08288018
-0.17996729
0.084150938
-0.15760202
-0.12636582
0.091593004
-2.8269255e-09
8.8255769e-08
-1.2574816e-08
3.0588693e-07
-3.1598254e-08
5.9732925e-07
-6.2961532e-08
9.8133712e-07
-1.1064477e-07
1.480827e-06
-1.7980426e-07
2.1237373e-06
-2.7710266e-07
2.9440478e-06
-4.1112696e-07
3.9829935e-06
-5.9291134e-07
5.290513e-06
-8.3659235e-07
6.9269695e-06
-1.1602209e-06
8.9651987e-06
-1.586771e-06
1.1492936e-05
-2.1453682e-06
1.4615687e-05
-2.8728008e-06
1.8460112e-05
-3.8153266e-06
2.3177978e-05
-5.0308543e-06
2.8950767e-05
-6.5915253e-06
3.5994928e-05
-8.5867211e-06
4.4567757e-05
-1.1126548e-05
5.4973797e-05
-1.4345785e-05
6.7571376e-05
-1.8408276e-05
8.2778686e-05
-2.3511648e-05
0.00010107823
-2.9892262e-05
0.00012301783
-3.7830056e-05
0.00014920521
-4.7652821e-05
0.00018029184
-5.9739201e-05
0.00021694027
-7.45191e-05
0.00025976762
-9.246945e-05
0.00030925841
-0.00011410166
0.00036564504
-0.00013993486
0.00042876984
-0.00017044624
0.0004979761
-0.00020599061
0.00057212463
-0.00024669646
0.00064985366
-0.00029237865
0.00073009565
-0.00034253166
0.00081261505
-0.00039641746
0.00089818907
-0.00045316907
0.00098832518
-0.00051181636
0.0010848215
-0.00057120824
0.0011895097
-0.0006298487
0.0013042595
-0.00068565939
0.0014311753
-0.00073565553
0.0015729158
-0.00077548936
0.0017331211
-0.00079879589
0.0019169103
-0.00079631819
0.0021311366
-0.00075458108
0.0023845192
-0.0006537846
0.0026874512
-0.00046439255
0.0030499752
-0.00014188279
0.0034771545
0.00038400782
0.0039622888
0.0012361918
0.004466227
0.0026295448
0.0048352914
0.0048857054
0.0048293446
0.0084083614
0.0040710904
0.013535948
0.0021243556
0.020639779
-0.0015570025
0.030992039
-0.008756577
0.047400382
-0.026592386
0.069318287
-0.06464373
0.086595534
-0.11650599
0.09142738
-0.16080837
0.088723739
-0.1814331
0.086237176
-0.17748073
0.088640576
-0.16000542
-0.13570393
0.097978684
-1.6240643e-09
8.9879834e-08
-7.2198678e-09
3.1148273e-07
-1.8156885e-08
6.0826626e-07
-3.6260659e-08
9.9944089e-07
-6.3958871e-08
1.5085252e-06
-1.0447454e-07
2.1642529e-06
-1.6206989e-07
3.0016432e-06
-2.4236404e-07
4.0632877e-06
-3.5273683e-07
5.4008858e-06
-5.0284114e-07
7.0770738e-06
-7.0525309e-07
9.1676106e-06
-9.7628055e-07
1.1763964e-05
-1.3369785e-06
1.4976385e-05
-1.8144001e-06
1.8937533e-05
-2.4431308e-06
2.3806708e-05
-3.2671576e-06
2.9774794e-05
-4.3421155e-06
3.7069886e-05
-5.7379733e-06
4.5963615e-05
-7.5422005e-06
5.6778025e-05
-9.8634365e-06
6.9892612e-05
-1.2835708e-05
8.5750958e-05
-1.6623164e-05
0.00010486569
-2.1425247e-05
0.00012781992
-2.7482198e-05
0.00015526216
-3.5080551e-05
0.00018789019
-4.4558086e-05
0.0002264178
-5.6307226e-05
0.00027151676
-7.0774915e-05
0.0003237261
-8.8455445e-05
0.00038332557
-0.00010986957
0.00045018396
-0.00013551923
0.00052362576
-0.00016580511
0.00060241052
-0.00020090699
0.00068495554
-0.00024065991
0.00076984857
-0.00028450293
0.00085645807
-0.00033154691
0.00094523305
-0.00038069679
0.0010374751
-0.00043069766
0.0011348223
-0.00048006647
0.0012388785
-0.00052691377
0.0013511068
-0.00056866911
0.0014729307
-0.00060170142
0.0016059481
-0.00062078463
0.0017522044
-0.00061833615
0.0019144619
-0.00058337942
0.0020961799
-0.00049999223
0.002301132
-0.0003448116
0.0025322706
-8.2869775e-05
0.0027880334
0.00033886377
0.0030554209
0.001005957
0.0032951955
0.0020814094
0.0033907747
0.0038262928
0.0030904079
0.0065705011
0.0020851364
0.01063706
4.5315786e-06
0.016428511
-0.0036670951
0.025013714
-0.010142206
0.03854935
-0.022292213
0.058687972
-0.046731008
0.080191855
-0.086147613
0.092172172
-0.12848631
0.093500094
-0.16213629
0.090618613
-0.17855162
0.089278191
-0.1761403
0.093032947
-0.16376018
-0.14593709
0.10326611
-4.8351319e-10
9.0363347e-08
-2.140397e-09
3.1313962e-07
-5.4033086e-09
6.1152918e-07
-1.0916815e-08
1.0049544e-06
-1.9629263e-08
1.5172377e-06
-3.2913867e-08
2.1775376e-06
-5.2734108e-08
3.0214634e-06
-8.1859788e-08
4.0924134e-06
-1.2415367e-07
5.4431797e-06
-1.8494387e-07
7.137864e-06
-2.715022e-07
9.254169e-06
-3.9366602e-07
1.1886128e-05
-5.646173e-07
1.5147336e-05
-8.0187585e-07
1.9174792e-05
-1.1285362e-06
2.4133369e-05
-1.574802e-06
3.022106e-05
-2.1798722e-06
3.7674956e-05
-2.9942491e-06
4.6777992e-05
-4.0824972e-06
5.7866273e-05
-5.5265651e-06
7.133668e-05
-7.4296877e-06
8.7654081e-05
-9.9209447e-06
0.00010735694
-1.3160497e-05
0.00013105947
-1.7345443e-05
0.0001594471
-2.2716254e-05
0.000193261
-2.9563352e-05
0.0002332649
-3.8233164e-05
0.00028018657
-4.9131981e-05
0.00033462491
-6.27242e-05
0.00039691779
-7.9518231e-05
0.00046697799
-0.00010002795
0.00054413548
-0.0001246924
0.00062707498
-0.00015374907
0.00071401221
-0.00018706867
0.00080316816
-0.00022405879
0.00089344819
-0.00026369797
0.00098487223
-0.00030466773
0.0010784448
-0.0003454202
0.0011755748
-0.00038412678
0.0012775851
-0.00041849198
0.001385472
-0.00044544283
0.0014998815
-0.00046068947
0.0016211948
-0.00045810469
0.0017496196
-0.00042883644
0.0018851936
-0.00036007534
0.0020274188
-0.00023319566
0.0021742523
-2.0687385e-05
0.0023197623
0.00031924736
0.0024480986
0.00085220291
0.0025224654
0.0016881244
0.0024592741
0.0030419145
0.0020369846
0.0051908873
0.0009414351
0.0084337622
-0.0011577386
0.013219216
-0.0047809221
0.020590604
-0.011038483
0.032296529
-0.02184813
0.04982807
-0.039823754
0.071195472
-0.06809841
0.087938779
-0.10289092
0.094567567
-0.13511509
0.094357288
-0.16192601
0.091844871
-0.1760392
0.092066318
-0.17636175
0.097044283
-0.16873814
-0.15669694
0.10780413
5.5403215e-10
8.9809315e-08
2.4813497e-09
3.112123e-07
6.2042489e-09
6.0780628e-07
1.2157151e-08
9.990015e-07
2.0747795e-08
1.508647e-06
3.229801e-08
2.1659873e-06
4.695976e-08
3.0068017e-06
6.4588288e-08
4.0747848e-06
8.4573121e-08
5.4231948e-06
1.0559847e-07
7.1168387e-06
1.2532389e-07
9.2344436e-06
1.3995886e-07
1.1871493e-05
1.4370453e-07
1.5143591e-05
1.2802644e-07
1.919047e-05
8.0720221e-08
2.4180675e-05
-1.5278983e-08
3.0317059e-05
-1.8338807e-07
3.7843065e-05
-4.5525761e-07
4.7049862e-05
-8.7308507e-07
5.82841e-05
-1.4924635e-06
7.1956059e-05
-2.3858545e-06
8.8547472e-05
-3.6467825e-06
0.00010861787
-5.3948599e-06
0.00013280755
-7.7817572e-06
0.000161834
-1.0998097e-05
0.00019647734
-1.5281306e-05
0.00023754811
-2.0923779e-05
0.00028582904
-2.8280219e-05
0.00034198135
-3.7771049e-05
0.00040640862
-4.987517e-05
0.00047908211
-6.5099514e-05
0.00055935982
-8.3902511e-05
0.00064587797
-0.00010656825
0.00073667794
-0.0001330403
0.00082964022
-0.00016270815
0.00092311604
-0.00019444249
0.0010166066
-0.00022671918
0.0011107215
-0.00025769704
0.0012065527
-0.00028518388
0.0013050719
-0.00030646023
0.0014067483
-0.00031792952
0.0015113508
-0.00031460951
0.0016178748
-0.00028940467
0.0017244147
-0.00023205067
0.0018278396
-0.0001276107
0.0019229788
4.5875739e-05
0.0020007659
0.00032147532
0.0020441627
0.00075080786
0.0020187661
0.001419852
0.0018534213
0.0024814406
0.0013976854
0.0041859889
0.00033243623
0.0068312014
-0.0017037773
0.01091148
-0.0052380177
0.017490603
-0.011360045
0.028145445
-0.021693325
0.043768518
-0.037471203
0.063109991
-0.059165228
0.080955816
-0.085944235
0.091302133
-0.11323724
0.094839143
-0.1386521
0.094383192
-0.16147006
0.093141402
-0.17479741
0.094703126
-0.17792347
0.10056897
-0.17460399
-0.16772312
0.11159516
1.4458046e-09
8.836351e-08
6.4557786e-09
3.0620233e-07
1.6190739e-08
5.9807132e-07
3.2019156e-08
9.8317308e-07
5.5523927e-08
1.4851423e-06
8.8504389e-08
2.1330069e-06
1.3295543e-07
2.9623507e-06
1.9103274e-07
4.0167075e-06
2.6498108e-07
5.3492465e-06
3.5702247e-07
7.0247973e-06
4.6918538e-07
9.1222806e-06
6.030644e-07
1.1737614e-05
7.5946444e-07
1.4987191e-05
9.3794012e-07
1.9011994e-05
1.1361524e-06
2.3982463e-05
1.3490334e-06
3.0104178e-05
1.5676766e-06
3.7624422e-05
1.7779429e-06
4.6839596e-05
1.9586163e-06
5.8103427e-05
2.0791218e-06
7.1835553e-05
2.0966088e-06
8.8529985e-05
1.9522994e-06
0.00010876218
1.5669361e-06
0.00013319291
8.3511655e-07
0.00016256582
-3.8166071e-07
0.00019769412
-2.2633149e-06
0.00023942977
-5.0408283e-06
0.00028860656
-9.0061934e-06
0.00034594672
-1.4520259e-05
0.00041192269
-2.2012391e-05
0.00048657424
-3.1959611e-05
0.00056930704
-4.4829464e-05
0.00065874782
-6.0922324e-05
0.0007527708
-8.0316384e-05
0.00084903428
-0.0001022958
0.00094509546
-0.00012572141
0.0010400322
-0.00014889826
0.0011338984
-0.00016966934
0.0012273237
-0.00018546935
0.0013208719
-0.00019312476
0.0014144037
-0.00018847044
0.0015066965
-0.00016575067
0.001595155
-0.00011674447
0.0016754085
-2.9454291e-05
0.0017405494
0.00011387013
0.0017796544
0.00033991914
0.0017747169
0.00069047529
0.0016936066
0.0012342868
0.0014749546
0.0020905688
0.00099713928
0.0034694814
1.8772812e-05
0.0056795926
-0.0018776749
0.0092812275
-0.0053054122
0.015378534
-0.011335324
0.025381598
-0.021363109
0.039743212
-0.036054939
0.056988313
-0.054716304
0.073653306
-0.075830221
0.085536987
-0.097827916
0.091567088
-0.11926734
0.093927978
-0.14101299
0.093894423
-0.16143651
0.09422502
-0.17512801
0.097029789
-0.18072824
0.10355522
-0.18112942
-0.17884061
0.11467271
2.1480525e-09
8.6215458e-08
9.5863109e-09
2.9876407e-07
2.4060294e-08
5.8359734e-07
4.7680317e-08
9.5955306e-07
8.2968871e-08
1.4498537e-06
1.3290537e-07
2.0830704e-06
2.0097044e-07
2.8942856e-06
2.911787e-07
3.9264993e-06
4.0809608e-07
5.2323291e-06
5.568384e-07
6.876055e-06
7.4303143e-07
8.9360876e-06
9.7272556e-07
1.150792e-05
1.2522493e-06
1.4707667e-05
1.5879628e-06
1.8676281e-05
1.9859132e-06
2.3584512e-05
2.451323e-06
2.9638768e-05
2.9878959e-06
3.7087849e-05
3.5968473e-06
4.6230644e-05
4.2756514e-06
5.7424623e-05
5.0163197e-06
7.1094885e-05
5.8031863e-06
8.7743119e-05
6.6099625e-06
0.0001079554
7.3959121e-06
0.00013240696
8.1008379e-06
0.0001618609
8.6386288e-06
0.00019715633
8.8889994e-06
0.0002391794
8.6873267e-06
0.00028880823
7.8129037e-06
0.00034682114
5.9774939e-06
0.0004137581
2.8190438e-06
0.00048973269
-2.0845919e-06
0.00057421068
-9.1746585e-06
0.00066583789
-1.8818158e-05
0.0007624143
-3.0908853e-05
0.00086112498
-4.4937483e-05
0.00095912409
-5.9845017e-05
0.0010549397
-7.3681561e-05
0.0011477349
-8.3950489e-05
0.0012375927
-8.7714663e-05
0.0013246361
-8.128093e-05
0.00140797
-5.983407e-05
0.0014852496
-1.6675241e-05
0.0015519962
5.7899517e-05
0.0016008338
0.00017828836
0.0016201606
0.00036638846
0.0015915543
0.0006566167
0.0014844886
0.0011065061
0.0012437172
0.0018163823
0.00076507833
0.0029598126
-0.000146291
0.0048570599
-0.0018784744
0.008120681
-0.005141296
0.013885346
-0.011070077
0.023394829
-0.020844807
0.036772479
-0.034740759
0.052347753
-0.051630213
0.067341676
-0.069710227