/*--------------------------------*- C++ -*----------------------------------*\
  =========                 |
  \\      /  F ield         | OpenFOAM: The Open Source CFD Toolbox
   \\    /   O peration     | Website:  https://openfoam.org
    \\  /    A nd           | Version:  13
     \\/     M anipulation  |
\*---------------------------------------------------------------------------*/
FoamFile
{
    format      ascii;
    class       volSymmTensorField;
    location    "40.295918";
    object      UPrime2Mean;
}
// * * * * * * * * * * * * * * * * * * * * * * * * * * * * * * * * * * * * * //

dimensions      [0 2 -2 0 0 0 0];

internalField   nonuniform List<symmTensor> 
17140
(
(5.4883924e-12 -3.4510563e-10 -9.0436686e-28 2.3183685e-08 1.3735289e-26 5.3166222e-41)
(3.8516956e-10 -5.3076411e-09 -3.9466762e-28 2.2149601e-07 2.9965863e-27 4.7236067e-43)
(3.3422091e-09 -2.1922998e-08 6.3446922e-26 6.7430365e-07 -3.1316039e-25 2.059231e-39)
(1.56115e-08 -6.1197357e-08 -1.3413023e-25 1.4557132e-06 4.8095912e-25 2.4886952e-39)
(5.2138256e-08 -1.3895393e-07 2.6705975e-26 2.6554209e-06 -7.3951349e-26 3.4012041e-41)
(1.4289277e-07 -2.7815809e-07 -1.3821025e-25 4.3809032e-06 3.071557e-25 3.6431365e-40)
(3.4370597e-07 -5.1112931e-07 -3.5077186e-25 6.7596153e-06 6.3956968e-25 1.0326096e-39)
(7.5327936e-07 -8.8220302e-07 2.4943711e-25 9.9409861e-06 -3.7853756e-25 2.4611917e-40)
(1.5394816e-06 -1.4508472e-06 1.1604504e-24 1.409794e-05 -1.4801767e-24 2.6368581e-39)
(2.9790306e-06 -2.2950226e-06 3.9658293e-24 1.9427598e-05 -4.2842012e-24 1.5863686e-38)
(5.5160492e-06 -3.5144685e-06 -8.0643988e-24 2.6150685e-05 7.4220682e-24 3.4882829e-38)
(9.8465504e-06 -5.2333755e-06 9.732134e-24 3.4509056e-05 -7.6654381e-24 2.7704655e-38)
(1.7037477e-05 -7.601637e-06 1.9971081e-24 4.4760631e-05 -1.3508889e-24 6.4906075e-40)
(2.8690074e-05 -1.0793506e-05 -1.4980993e-23 5.7170958e-05 8.7357311e-24 2.0761634e-38)
(4.7157595e-05 -1.5002196e-05 2.191454e-24 7.2000617e-05 -1.1036874e-24 2.5593393e-40)
(7.582575e-05 -2.0428717e-05 -2.2694081e-23 8.9487758e-05 9.8949674e-24 1.6058671e-38)
(0.00011945975 -2.7263437e-05 1.0937704e-24 0.0001098254 -4.1387184e-25 2.2241234e-41)
(0.00018461359 -3.5659482e-05 -3.2153065e-25 0.00013313356 1.0499424e-25 1.1135748e-42)
(0.00028008447 -4.5698751e-05 -2.8831952e-23 0.0001594271 8.2195858e-24 5.601233e-39)
(0.00041738017 -5.7353904e-05 4.7532229e-23 0.00018858104 -1.1786318e-23 9.3914363e-39)
(0.00061115306 -7.045329e-05 -2.8912591e-23 0.00022029661 6.2358453e-24 2.1687174e-39)
(0.00087954999 -8.4659359e-05 6.8767779e-24 0.00025407252 -1.2936753e-24 7.849793e-41)
(0.0012444395 -9.9472429e-05 6.2956968e-23 0.00028918823 -1.0291157e-23 4.2252324e-39)
(0.0017315461 -0.00011427034 -7.7059071e-23 0.00032470905 1.0964556e-23 4.1558578e-39)
(0.0023706983 -0.00012838797 -1.4891575e-22 0.00035952725 1.8437346e-23 1.0404026e-38)
(0.0031959945 -0.00014120979 1.4360156e-22 0.00039245683 -1.5478635e-23 6.6321707e-39)
(0.0042457771 -0.00015219475 8.3950838e-22 0.00042239131 -7.8675079e-23 1.5792506e-37)
(0.0055653053 -0.00016101636 1.1685318e-22 0.00044848602 -9.5048167e-24 2.1652885e-39)
(0.0072080969 -0.00016759991 -1.1937886e-21 0.00047029152 8.4520455e-23 1.6513208e-37)
(0.0092368247 -0.00017158593 -3.240857e-22 0.0004877809 1.9910239e-23 8.9551998e-39)
(0.011726324 -0.00017279327 -1.3304858e-21 0.00050121686 7.093428e-23 1.1345048e-37)
(0.014764104 -0.00017126779 2.002467e-21 0.00051092063 -9.2524297e-23 1.9608396e-37)
(0.018453199 -0.0001664401 -5.950402e-22 0.00051729655 2.3724197e-23 1.3311629e-38)
(0.022911911 -0.00015733242 -3.21511e-22 0.00052088669 1.1055516e-23 3.0461253e-39)
(0.028273479 -0.00014239564 -3.5740616e-21 0.00052229318 1.0493946e-22 2.956116e-37)
(0.034683861 -0.00011948792 1.7584766e-21 0.00052203429 -4.4017893e-23 5.7272998e-38)
(0.042297331 -8.5874693e-05 -2.9678923e-21 0.00052047598 6.2623598e-23 1.3095114e-37)
(0.051268756 -3.8214917e-05 -2.2352837e-21 0.00051787789 3.9416431e-23 6.0408158e-38)
(0.061740949 2.7446016e-05 -1.1334912e-21 0.00051454652 1.6474776e-23 1.2748497e-38)
(0.073825123 0.00011568118 3.7701494e-21 0.00051107178 -4.4612647e-23 1.1772534e-37)
(0.087573495 0.00023139528 7.7797877e-21 0.00050857654 -7.3031551e-23 4.2071665e-37)
(0.10294464 0.00037935492 7.6630744e-21 0.00050881759 -5.5346963e-23 3.4678553e-37)
(0.11976403 0.00056322285 3.6048776e-21 0.00051400652 -1.9119473e-23 6.6005358e-38)
(0.13769255 0.00078460625 -1.883683e-20 0.00052647327 6.700602e-23 1.5571811e-36)
(0.15621457 0.0010414976 -1.4657653e-20 0.00054849158 2.939914e-23 8.2716743e-37)
(0.17463978 0.0013256015 3.8015006e-21 0.00058238295 -2.3196007e-24 4.9507917e-38)
(0.19221393 0.0016258639 -2.7090848e-20 0.0006311878 -1.8141902e-23 2.2623241e-36)
(0.2082239 0.0019340186 -9.5713474e-21 0.0006997496 -1.7653578e-23 2.575082e-37)
(0.22189787 0.002241182 1.0063566e-20 0.00079555917 2.9496601e-23 2.6336708e-37)
(0.23283286 0.0025348137 2.5229592e-20 0.00092851959 9.9157568e-23 1.5529283e-36)
(0.24068674 0.0028026665 -1.578541e-20 0.0011126606 -7.6413236e-23 5.789859e-37)
(0.24526876 0.0030391677 -1.0048925e-20 0.001368714 -5.6992179e-23 2.2673841e-37)
(0.24643515 0.0032488945 2.6232819e-20 0.0017253579 1.7042162e-22 1.5146341e-36)
(0.24436019 0.0034222522 1.2318429e-20 0.0022194245 9.017357e-23 3.3235915e-37)
(0.2393842 0.0035201337 8.6520615e-21 0.002894544 7.0840959e-23 1.6591766e-37)
(0.2323248 0.0034995996 -6.6706042e-21 0.0038011065 -6.1550026e-23 1.0073859e-37)
(0.2243324 0.003341473 1.7428787e-20 0.0049850879 1.8209163e-22 7.2175967e-37)
(0.21625669 0.0030534168 1.4038377e-20 0.0065115275 1.7129938e-22 4.9628962e-37)
(0.20885763 0.0026859926 3.3544373e-21 0.0085218667 4.9247333e-23 3.0744302e-38)
(0.20195846 0.002268009 -8.2027289e-21 0.011417536 -1.4937865e-22 2.0207899e-37)
(0.19464209 0.0017351656 -5.9696347e-21 0.015971513 -1.3335587e-22 1.2278264e-37)
(0.18593496 0.00075582022 -2.0273964e-20 0.0222599 -4.9315984e-22 1.6708124e-36)
(0.17303598 0.00024963924 -2.6656357e-21 0.027391187 -5.7895112e-23 3.5805063e-38)
(0.1582888 0.00071450078 1.9894412e-20 0.029042033 3.0594182e-22 2.5286938e-36)
(0.1361657 0.0012081085 -1.3102507e-20 0.02873555 -1.1317224e-22 1.5112393e-36)
(2.4429915e-10 -5.7338353e-09 1.0497232e-27 1.3462188e-07 -2.0261604e-26 4.3055785e-42)
(3.8153539e-09 -6.9369834e-08 -3.4249251e-25 1.2757641e-06 5.238225e-24 5.6679475e-38)
(1.6997602e-08 -2.5259911e-07 5.7797815e-25 3.8553281e-06 -7.2234325e-24 4.4884016e-38)
(5.2753624e-08 -6.4582213e-07 -2.5988911e-25 8.2558984e-06 2.7061725e-24 3.3357802e-39)
(1.3477521e-07 -1.3768367e-06 -8.2473919e-25 1.4924143e-05 7.2813787e-24 1.4235175e-38)
(3.0546425e-07 -2.6290809e-06 2.316518e-24 2.4372388e-05 -1.7569206e-23 5.1974713e-38)
(6.3773975e-07 -4.6590422e-06 -3.4436871e-24 3.7176882e-05 2.2615332e-23 5.6477178e-38)
(1.2531137e-06 -7.817621e-06 4.2277073e-25 5.3970578e-05 -2.4162431e-24 4.3744601e-40)
(2.3491484e-06 -1.2576161e-05 -1.8101287e-24 7.5428448e-05 9.0352245e-24 4.2636709e-39)
(4.2401314e-06 -1.9555713e-05 -4.1734716e-26 0.00010224261 1.8246583e-25 1.2180511e-42)
(7.4162609e-06 -2.955824e-05 -1.0943638e-23 0.00013508505 4.197946e-23 4.7519224e-38)
(1.2628011e-05 -4.3596736e-05 2.3059452e-23 0.00017455546 -7.7765108e-23 1.1995077e-37)
(2.1003814e-05 -6.2919576e-05 2.5071051e-24 0.00022111318 -7.4439703e-24 8.1795421e-40)
(3.4210231e-05 -8.9021946e-05 -3.2348179e-23 0.00027499388 8.4665133e-23 7.9622303e-38)
(5.4663904e-05 -0.00012363481 1.2904094e-23 0.00033611485 -2.9799606e-23 7.5003951e-39)
(8.5803108e-05 -0.00016867999 1.0586966e-23 0.00040397763 -2.1586034e-23 3.0181285e-39)
(0.00013242234 -0.00022617947 -8.6301437e-23 0.00047758214 1.5541541e-22 1.2105622e-37)
(0.00020106581 -0.00029811018 3.5896491e-22 0.00055537316 -5.7107856e-22 1.2789145e-36)
(0.00030046384 -0.00038620384 -2.8523066e-22 0.00063524395 4.008492e-22 4.9833834e-37)
(0.00044198221 -0.00049170689 4.3092625e-22 0.00071462204 -5.3481632e-22 7.0983049e-37)
(0.00064004181 -0.00061513846 -7.9676559e-22 0.00079065393 8.7292899e-22 1.5348636e-36)
(0.00091246167 -0.00075610992 2.4257971e-22 0.00086048504 -2.344903e-22 9.1273976e-38)
(0.0012806905 -0.00091328779 1.230312e-22 0.00092160265 -1.0487091e-22 1.5312705e-38)
(0.0017699535 -0.0010845841 -4.9138825e-22 0.00097217643 3.6902505e-22 1.6153427e-37)
(0.0024095144 -0.0012676358 2.1361328e-21 0.0010113161 -1.4128476e-21 2.0621969e-36)
(0.0032329193 -0.001460425 3.8264939e-22 0.0010391857 -2.2265422e-22 4.5312215e-38)
(0.0042778595 -0.0016617224 -2.347487e-21 0.0010569118 1.20263e-21 1.2029647e-36)
(0.0055888705 -0.0018716496 3.0979825e-21 0.0010661414 -1.3960869e-21 1.4971643e-36)
(0.0072187425 -0.0020915921 -4.9480846e-22 0.0010688022 1.9636209e-22 2.8103785e-38)
(0.0092291346 -0.0023231003 -5.6364679e-21 0.0010670036 1.9643662e-21 2.6769787e-36)
(0.01169369 -0.0025681937 6.708531e-22 0.0010623729 -2.0552995e-22 2.872347e-38)
(0.014698393 -0.0028288447 5.9047624e-21 0.0010556849 -1.5854496e-21 1.6853473e-36)
(0.01834436 -0.0031058039 1.7343774e-22 0.0010471187 -4.0505286e-23 1.0701276e-39)
(0.022747449 -0.0033982836 -5.687999e-21 0.0010365413 1.1691267e-21 9.4407586e-37)
(0.028037801 -0.003703446 7.1628666e-21 0.0010236481 -1.2845387e-21 1.1837434e-36)
(0.034357455 -0.0040160077 -3.6285751e-21 0.0010080028 5.6645161e-22 2.4204708e-37)
(0.041855742 -0.0043277393 4.7638476e-21 0.0009890885 -6.4683691e-22 3.3846168e-37)
(0.050681269 -0.0046266692 1.6890094e-20 0.00096641751 -1.9890142e-21 3.4561882e-36)
(0.060968963 -0.0048960485 4.1975678e-21 0.00093975999 -4.2787879e-22 1.750185e-37)
(0.072820249 -0.0051133302 1.804439e-20 0.00090952145 -1.5894241e-21 2.6967484e-36)
(0.086275419 -0.00524979 -2.5249008e-20 0.00087721748 1.9157248e-21 4.4539759e-36)
(0.10127893 -0.0052715343 -2.5300732e-20 0.00084580684 1.6452296e-21 3.7896037e-36)
(0.1176403 -0.0051427338 -4.7012733e-21 0.00081981089 2.6036085e-22 1.1123008e-37)
(0.13500253 -0.004831376 4.0047957e-20 0.0008052978 -1.8740744e-21 7.1095159e-36)
(0.15282773 -0.0043176265 -2.0247631e-20 0.00080978739 7.9055862e-22 1.5860834e-36)
(0.17040833 -0.0036056785 -7.4301145e-21 0.00084179963 2.3823993e-22 1.8948558e-37)
(0.18695341 -0.0027287137 4.144952e-21 0.00090982012 -1.067815e-22 5.3979743e-38)
(0.20172214 -0.0017364592 1.3512002e-20 0.0010202875 -2.6942143e-22 5.1991765e-37)
(0.21408102 -0.00069291476 -6.821462e-21 0.0011755908 1.006505e-22 1.2294861e-37)
(0.22355197 0.00033957122 1.2680205e-20 0.0013779487 -1.2671942e-22 3.9862809e-37)
(0.22983884 0.0013281256 7.7550513e-20 0.001634839 -4.4361777e-22 1.4243148e-35)
(0.23278582 0.0022517423 3.7303269e-21 0.0019643065 -6.5291562e-24 3.2030042e-38)
(0.232387 0.0030796241 -1.6833807e-20 0.0023976193 -3.0520648e-23 6.4025029e-37)
(0.2288861 0.0037597773 3.7190104e-20 0.0029739997 1.9735223e-22 3.1199952e-36)
(0.22289051 0.0042112433 -3.1278806e-20 0.003735989 -2.731988e-22 2.2386499e-36)
(0.21533294 0.0043617626 8.6724976e-20 0.0047245106 1.0558045e-21 1.7735445e-35)
(0.20741902 0.0042172331 2.3993821e-20 0.0059701118 3.8386219e-22 1.4205254e-36)
(0.20013638 0.0038312578 -6.4888137e-20 0.0075208449 -1.3174629e-21 1.1096889e-35)
(0.19416858 0.0033485085 1.0521511e-20 0.0095070564 2.7612402e-22 3.1576263e-37)
(0.18918688 0.002812739 1.1291791e-20 0.012327369 3.7831415e-22 4.0676394e-37)
(0.18398493 0.0020180498 2.09887e-21 0.016862756 8.9225237e-23 1.624432e-38)
(0.17757474 0.00051991892 -2.5523389e-20 0.023025791 -1.2864731e-21 2.8539953e-36)
(0.16612449 -0.0004513483 4.4367291e-20 0.027576288 2.3582859e-21 1.0817433e-35)
(0.15258679 -0.00035218099 1.1726567e-20 0.028930747 6.1775037e-22 9.6942703e-37)
(0.13082407 -0.00033719173 1.6444005e-20 0.028701043 8.8432978e-22 2.6775791e-36)
(1.9996695e-09 -2.8568175e-08 1.5137556e-25 4.0814509e-07 -2.0146726e-24 1.3086728e-38)
(2.2782163e-08 -2.9666281e-07 -2.3478723e-25 3.8653245e-06 2.848311e-24 5.1777981e-39)
(8.0979466e-08 -9.7145904e-07 -1.0578438e-25 1.1673772e-05 1.1705086e-24 3.6623629e-40)
(2.056975e-07 -2.2631202e-06 1.5074265e-25 2.498244e-05 -1.5219106e-24 3.2928108e-40)
(4.4244825e-07 -4.4563835e-06 -1.0397671e-24 4.5127816e-05 9.5948023e-24 7.7327548e-39)
(8.6342476e-07 -7.9425878e-06 -1.0678685e-25 7.3635792e-05 9.0185843e-25 4.2751253e-41)
(1.5811638e-06 -1.3250256e-05 -1.8395749e-24 0.00011221277 1.4209561e-23 6.98086e-39)
(2.7686057e-06 -2.1082218e-05 -2.6352149e-24 0.00016271913 1.8593789e-23 8.1041477e-39)
(4.6886288e-06 -3.2360568e-05 2.829628e-23 0.00022711716 -1.8204657e-22 5.4137152e-37)
(7.7361406e-06 -4.8275837e-05 -3.2915876e-23 0.00030738736 1.9272672e-22 4.3157731e-37)
(1.2497889e-05 -7.033968e-05 2.0384402e-23 0.00040540442 -1.0841986e-22 9.8831194e-38)
(1.983551e-05 -0.00010043438 3.8454049e-23 0.00052276611 -1.8546273e-22 2.1214821e-37)
(3.0999087e-05 -0.00014085192 -9.7725619e-23 0.00066057173 4.2666041e-22 8.3399228e-37)
(4.7779038e-05 -0.00019431029 -1.5454376e-23 0.00081915329 6.0978502e-23 1.2771006e-38)
(7.2704213e-05 -0.00026393093 7.5894677e-23 0.00099777275 -2.7019756e-22 1.9021229e-37)
(0.00010929276 -0.00035315811 6.618288e-23 0.0011943152 -2.1225974e-22 8.9749388e-38)
(0.0001623586 -0.00046560034 -9.7000073e-23 0.0014050269 2.7979566e-22 1.2040682e-37)
(0.00023836985 -0.00060477919 4.4217332e-22 0.0016243684 -1.1452211e-21 1.572601e-36)
(0.0003458458 -0.00077378477 -3.2758618e-22 0.0018450694 7.6053317e-22 5.4698621e-37)
(0.00049576746 -0.00097486377 2.0218072e-22 0.0020584737 -4.2001052e-22 1.3300244e-37)
(0.0007019663 -0.0012090046 -8.4539779e-22 0.0022552336 1.5688021e-21 1.5021044e-36)
(0.00098145319 -0.0014756293 -2.7097644e-22 0.0024263462 4.4838657e-22 1.008001e-37)
(0.0013546595 -0.0017725352 6.9135641e-22 0.0025644174 -1.018411e-21 4.3472775e-37)
(0.0018456103 -0.0020962312 -1.2628369e-21 0.0026649084 1.6532218e-21 9.7475992e-37)
(0.0024822104 -0.0024427835 -5.990533e-22 0.0027270356 6.9579205e-22 1.4954696e-37)
(0.0032966447 -0.0028089796 8.5595552e-22 0.0027540259 -8.8150053e-22 2.1372742e-37)
(0.0043250325 -0.0031930769 5.7544835e-21 0.002752476 -5.2449572e-21 6.8289131e-36)
(0.0056101439 -0.0035958568 3.0568005e-21 0.0027304026 -2.4634535e-21 1.3874433e-36)
(0.0072028603 -0.0040203173 -1.7689555e-21 0.0026956106 1.2606221e-21 3.4383879e-37)
(0.0091623506 -0.0044700069 2.1993126e-21 0.002655005 -1.3819211e-21 3.9247816e-37)
(0.011559311 -0.0049491765 -1.5698602e-21 0.00261349 8.7072189e-22 1.5364546e-37)
(0.014475885 -0.0054617041 -1.0211511e-20 0.0025732728 4.9784067e-21 4.9393824e-36)
(0.018008416 -0.0060096039 3.8920021e-21 0.0025343975 -1.6666105e-21 5.5709058e-37)
(0.022266732 -0.0065921674 1.3183564e-20 0.0024954991 -4.9485965e-21 5.0066526e-36)
(0.027373404 -0.0072051221 -4.946866e-21 0.0024543829 1.6266976e-21 5.6377726e-37)
(0.033460977 -0.0078398668 -7.8117665e-21 0.0024084329 2.2436648e-21 1.1192987e-36)
(0.040666896 -0.0084824811 1.5161705e-20 0.0023548594 -3.8006484e-21 3.4082967e-36)
(0.049124868 -0.0091121864 5.1716745e-21 0.0022909099 -1.1296601e-21 3.2220863e-37)
(0.058951182 -0.0096993274 -1.0165398e-20 0.0022142051 1.9345739e-21 1.0357717e-36)
(0.070224242 -0.010203404 -4.4892269e-21 0.002123419 7.4283121e-22 1.6912533e-37)
(0.082956463 -0.010572085 2.3734571e-20 0.0020192936 -3.4039354e-21 3.9633341e-36)
(0.097059424 -0.010742817 -7.2923993e-21 0.0019059404 9.0331823e-22 3.2265057e-37)
(0.11230557 -0.010648472 -1.1480963e-20 0.0017921957 1.2235863e-21 6.8407735e-37)
(0.12829846 -0.010228114 -3.3100694e-20 0.0016928529 3.0125236e-21 4.924088e-36)
(0.1444598 -0.0094431137 6.7270768e-20 0.0016289797 -5.1760323e-21 1.7953495e-35)
(0.1600559 -0.0083002175 -4.6276144e-20 0.0016261865 2.9704724e-21 7.5668375e-36)
(0.17431224 -0.0068684247 -1.2349183e-20 0.0017083276 6.5108379e-22 4.8296508e-37)
(0.18651768 -0.0052540267 -5.0881614e-20 0.0018861832 2.14737e-21 7.5823673e-36)
(0.19610542 -0.0035686838 -6.31992e-20 0.00215183 2.0741128e-21 1.0893644e-35)
(0.20270985 -0.0019235227 -3.308096e-21 0.0024888131 8.2402133e-23 2.7984774e-38)
(0.20619156 -0.00038851295 1.4260916e-20 0.0028870023 -2.3754861e-22 4.9955325e-37)
(0.20656305 0.00099935803 -1.0560609e-19 0.0033590799 9.821676e-22 2.6846036e-35)
(0.20400865 0.0021926465 -4.5049431e-20 0.0039438876 1.2485857e-22 4.8344437e-36)
(0.19894488 0.003101901 -4.5924566e-20 0.0046895274 -1.5731799e-22 5.048101e-36)
(0.19219148 0.0036151086 -1.4844657e-20 0.0056362856 -1.4452881e-22 5.3803418e-37)
(0.18480668 0.0036545985 -1.1182146e-19 0.0068074676 -1.729769e-21 3.1726576e-35)
(0.1780716 0.0032703289 4.2978732e-20 0.008202453 9.5410157e-22 4.9373528e-36)
(0.17291014 0.0026134005 -1.2496481e-20 0.0098289698 -3.6269534e-22 4.513147e-37)
(0.16967059 0.0019434544 -9.7547615e-20 0.011782875 -3.7665886e-21 3.0044376e-35)
(0.16769222 0.0013151604 -3.6382847e-20 0.014441926 -1.8575653e-21 4.7087666e-36)
(0.16533446 0.0002812321 3.9865382e-20 0.018827266 2.6284651e-21 6.6440795e-36)
(0.16148407 -0.0014242956 1.2443376e-19 0.0244558 9.938616e-21 7.8434388e-35)
(0.15156079 -0.0024752929 -3.5085031e-20 0.028033532 -3.128891e-21 8.000098e-36)
(0.13991648 -0.0024438096 -4.9394373e-20 0.028688817 -4.7449675e-21 2.0787354e-35)
(0.11897273 -0.0026289191 -1.7575258e-20 0.028168754 -1.880117e-21 3.8137059e-36)
(7.8631448e-09 -7.9956894e-08 -9.9154742e-25 8.1304936e-07 9.7316123e-24 1.4676735e-37)
(8.1259723e-08 -7.9109814e-07 3.1555631e-24 7.7022454e-06 -2.9591016e-23 2.6917047e-37)
(2.662618e-07 -2.488761e-06 -1.8455659e-24 2.326791e-05 1.6492165e-23 3.5193669e-38)
(6.2278052e-07 -5.5682294e-06 2.8869312e-25 4.9809444e-05 -2.4542282e-24 4.1595952e-40)
(1.236236e-06 -1.0543827e-05 -7.8053466e-24 9.0004962e-05 6.3063634e-23 1.6258966e-37)
(2.230555e-06 -1.8090612e-05 1.0732989e-23 0.0001469176 -8.2315562e-23 1.7409002e-37)
(3.7842327e-06 -2.9085164e-05 -2.1232044e-23 0.00022397955 1.5424018e-22 4.006675e-37)
(6.1527421e-06 -4.4653444e-05 1.284546e-23 0.0003249412 -8.8142033e-23 8.8719499e-38)
(9.7000751e-06 -6.622673e-05 6.2208858e-23 0.00045377059 -4.0195676e-22 1.2828315e-36)
(1.4942138e-05 -9.5602247e-05 -1.890871e-23 0.0006144884 1.1467429e-22 7.41978e-38)
(2.260588e-05 -0.00013500454 -9.0617231e-23 0.00081092202 5.1413945e-22 1.0767167e-36)
(3.3709173e-05 -0.00018714152 3.4667885e-23 0.0010463623 -1.8341602e-22 1.0039741e-37)
(4.9666701e-05 -0.00025524339 2.8898637e-24 0.0013231157 -1.4209764e-23 4.487755e-40)
(7.2428177e-05 -0.00034306985 -1.4150951e-22 0.001641956 6.4473877e-22 6.8795443e-37)
(0.00010465495 -0.00045486545 5.5135309e-22 0.0020014978 -2.3200205e-21 6.734513e-36)
(0.00014993979 -0.00059523914 -4.208985e-22 0.0023975525 1.6305284e-21 2.5378642e-36)
(0.00021307208 -0.00076894443 -4.9821636e-24 0.0028225594 1.7712561e-23 2.3027213e-40)
(0.00030034557 -0.00098054273 3.5806625e-22 0.0032652387 -1.1645867e-21 7.7524231e-37)
(0.00041989913 -0.0012339522 -1.1236417e-21 0.0037106506 3.3327412e-21 4.9917648e-36)
(0.00058207216 -0.0015319157 6.5311091e-22 0.0041408463 -1.7609831e-21 1.1096656e-36)
(0.00079975006 -0.0018754744 1.1948961e-21 0.0045362669 -2.9196467e-21 2.4617426e-36)
(0.0010886732 -0.00226359 5.9096749e-22 0.0048778987 -1.3045006e-21 4.023863e-37)
(0.001467692 -0.0026931017 -3.5455188e-21 0.0051499728 7.0499431e-21 9.8151527e-36)
(0.0019589788 -0.0031592065 -2.234943e-21 0.0053427249 3.9914255e-21 2.6720645e-36)
(0.0025883471 -0.0036566143 1.72672e-21 0.0054544775 -2.7629848e-21 1.113094e-36)
(0.0033858337 -0.0041812398 -1.1992829e-21 0.0054923291 1.7144482e-21 3.7803867e-37)
(0.004385206 -0.0047311674 5.2920316e-21 0.0054709601 -6.7474461e-21 5.3054416e-36)
(0.0056264858 -0.0053082289 -1.7804367e-21 0.0054086737 2.0201395e-21 4.3822007e-37)
(0.0071574442 -0.0059171623 5.5753703e-21 0.005322509 -5.6204841e-21 3.1930655e-36)
(0.009033514 -0.0065637061 -3.6375815e-21 0.005227023 3.252109e-21 1.0253963e-36)
(0.011320782 -0.007254378 2.5905059e-21 0.0051326175 -2.0485725e-21 3.9532274e-37)
(0.014095427 -0.0079948573 -1.0844587e-20 0.0050441799 7.5755569e-21 5.3715518e-36)
(0.017446392 -0.0087882907 1.7686025e-21 0.0049618928 -1.089282e-21 1.1216931e-37)
(0.021474218 -0.0096338253 -1.0598874e-20 0.0048826811 5.7397146e-21 3.1639018e-36)
(0.026289884 -0.01052549 1.1440694e-20 0.0048014779 -5.4425022e-21 2.9461655e-36)
(0.032011551 -0.011451066 4.1342598e-21 0.0047121915 -1.7237982e-21 3.0662623e-37)
(0.038758791 -0.01239064 -5.7396418e-20 0.0046082809 2.0983233e-20 4.8636603e-35)
(0.046643202 -0.013314385 -1.6701463e-20 0.0044831006 5.3427071e-21 3.3740345e-36)
(0.055753922 -0.014179681 1.5319361e-20 0.0043304033 -4.2838281e-21 2.3636156e-36)
(0.066136541 -0.014928352 -1.6592334e-20 0.0041454653 4.048545e-21 2.3243219e-36)
(0.077765016 -0.015485427 4.7005141e-21 0.0039270693 -9.97654e-22 1.5653475e-37)
(0.090507846 -0.015761591 3.1953257e-20 0.0036804338 -5.8911689e-21 6.2427901e-36)
(0.10409283 -0.015661811 -1.5982679e-21 0.0034209326 2.5507615e-22 1.3680123e-38)
(0.11808215 -0.015101935 -1.2561391e-20 0.0031775361 1.7167389e-21 7.2289863e-37)
(0.13186817 -0.014034241 6.4862384e-21 0.0029939961 -7.4872893e-22 1.7386446e-37)
(0.14472796 -0.012483354 -3.5693216e-21 0.0029245755 3.4793849e-22 4.3809544e-38)
(0.15595886 -0.010564862 -1.0603217e-20 0.0030174375 8.5426225e-22 3.6808115e-37)
(0.1649459 -0.0084483618 1.6940701e-19 0.003288617 -1.1081704e-20 8.7870777e-35)
(0.17129096 -0.0063080437 -1.9616602e-20 0.003710239 1.0007998e-21 1.1022791e-36)
(0.17483604 -0.0042942904 1.8573416e-20 0.0042323416 -7.2632094e-22 9.399326e-37)
(0.17563637 -0.0024890887 -1.7728038e-19 0.0048167277 4.9423456e-21 8.2658474e-35)
(0.17387022 -0.00093134095 9.7649606e-20 0.0054699965 -1.72965e-21 2.4609878e-35)
(0.16987621 0.00031654292 8.0109042e-20 0.0062458035 -6.3180905e-22 1.647449e-35)
(0.16422691 0.0011367076 7.5457029e-20 0.0072075085 8.8310436e-23 1.4802962e-35)
(0.15786978 0.0014047622 7.1068092e-20 0.0083939109 7.0638261e-22 1.3510107e-35)
(0.15192136 0.0010703049 1.0811101e-19 0.0098020665 2.0235965e-21 3.2721243e-35)
(0.14754314 0.00027503962 -2.078284e-19 0.011383697 -5.8893386e-21 1.2860111e-34)
(0.14537107 -0.00071156341 1.2188289e-19 0.013092902 4.7732389e-21 4.7979435e-35)
(0.14515124 -0.0014985107 1.7414702e-19 0.014973865 9.1430124e-21 1.090128e-34)
(0.14579464 -0.0021110342 -1.187323e-19 0.017369394 -8.4137427e-21 5.8129653e-35)
(0.14529801 -0.0032902739 -3.4479051e-20 0.021417758 -3.1946302e-21 5.8837517e-36)
(0.14251123 -0.0048189329 -2.6914116e-20 0.02611761 -3.0500622e-21 4.4626041e-36)
(0.13262025 -0.0055530089 1.1909861e-19 0.028389758 1.5747935e-20 1.1560564e-34)
(0.12132609 -0.005264342 7.5227408e-20 0.028105373 1.1141043e-20 6.2389534e-35)
(0.10088012 -0.005334512 -2.6493149e-21 0.027043993 -4.3966788e-22 1.2111616e-37)
(2.1084593e-08 -1.6538369e-07 1.1597212e-24 1.2972405e-06 -8.9074952e-24 7.2769067e-38)
(2.0926405e-07 -1.6041328e-06 -7.540146e-24 1.2296821e-05 5.647108e-23 5.8107893e-37)
(6.6154131e-07 -4.9585908e-06 9.7189048e-24 3.7169055e-05 -7.0788902e-23 3.8628285e-37)
(1.4889986e-06 -1.0887534e-05 -5.1676687e-24 7.9618318e-05 3.6556377e-23 5.5180284e-38)
(2.8408862e-06 -2.0221885e-05 -2.4986912e-24 0.00014397165 1.7147792e-23 7.2041484e-39)
(4.9200777e-06 -3.4011853e-05 2.7994707e-23 0.00023519644 -1.8612682e-22 5.3366643e-37)
(8.0014231e-06 -5.3573911e-05 -9.0580905e-24 0.00035888419 5.8228045e-23 3.4253329e-38)
(1.2456018e-05 -8.054323e-05 -2.4249087e-23 0.00052117987 1.5033937e-22 1.5453752e-37)
(1.8783884e-05 -0.00011693214 -2.320964e-24 0.00072863436 1.383839e-23 9.1051472e-40)
(2.7657032e-05 -0.00016519017 -2.4444932e-23 0.00098795416 1.3974546e-22 6.5773185e-38)
(3.9975902e-05 -0.00022826059 4.2213406e-23 0.0013056202 -2.3063847e-22 1.2912303e-37)
(5.6942566e-05 -0.00030962504 -3.605222e-23 0.0016873492 1.8762626e-22 6.2461059e-38)
(8.0154775e-05 -0.00041332419 -1.6292337e-22 0.0021373785 8.0488421e-22 8.4938564e-37)
(0.00011172492 -0.00054393739 -5.8096565e-24 0.0026575751 2.7150288e-23 7.1831882e-40)
(0.00015442812 -0.00070650031 1.8647931e-22 0.0032463965 -8.2123373e-22 4.9800815e-37)
(0.00021188268 -0.00090633673 1.6146967e-22 0.003897792 -6.6763404e-22 2.5032596e-37)
(0.00028876441 -0.001148781 -1.6973674e-22 0.0046001836 6.5636807e-22 1.8569697e-37)
(0.00039105365 -0.0014387778 1.9805317e-23 0.005335766 -7.1336712e-23 1.7134297e-39)
(0.00052630941 -0.0017803661 4.9166214e-22 0.0060804188 -1.6430018e-21 7.0813809e-37)
(0.00070396082 -0.0021760911 7.2828151e-22 0.0068045835 -2.2484468e-21 1.0523053e-36)
(0.00093560273 -0.0026264439 -1.0069196e-21 0.0074753805 2.8600569e-21 1.3713655e-36)
(0.0012352825 -0.0031294925 -1.2221305e-21 0.0080600776 3.1804558e-21 1.3878755e-36)
(0.0016197722 -0.0036809139 1.9734294e-21 0.0085306312 -4.6861581e-21 2.510096e-36)
(0.002108835 -0.0042746356 -2.9141078e-21 0.0088685513 6.2893381e-21 3.8371898e-36)
(0.0027255835 -0.0049042403 -5.9867449e-21 0.0090688654 1.1699093e-20 1.1495301e-35)
(0.0034971515 -0.0055650728 1.6592908e-20 0.0091418158 -2.9258557e-20 6.3680615e-35)
(0.0044545215 -0.0062556368 -1.0666306e-20 0.0091114461 1.6916411e-20 1.9247713e-35)
(0.005633994 -0.0069790819 1.8329138e-20 0.0090096815 -2.606748e-20 4.2151036e-35)
(0.0070789941 -0.0077420552 -2.6366501e-20 0.0088662265 3.353785e-20 6.5699984e-35)
(0.0088405974 -0.0085530944 3.3703033e-20 0.0087064593 -3.8238298e-20 8.1864418e-35)
(0.01097864 -0.0094208538 -3.9689065e-20 0.0085486577 4.0058077e-20 8.7678747e-35)
(0.013561655 -0.010352681 7.5620788e-21 0.0084020365 -6.7742023e-21 2.4934388e-36)
(0.016668958 -0.011352683 2.9529904e-20 0.0082675414 -2.3416287e-20 2.9914165e-35)
(0.020389173 -0.012419599 -1.8727197e-20 0.0081400922 1.3122229e-20 9.5928079e-36)
(0.024818509 -0.013545443 6.5572412e-21 0.0080108179 -4.0533233e-21 9.4767986e-37)
(0.030056977 -0.014714053 2.1256593e-21 0.0078688065 -1.1582697e-21 8.1720113e-38)
(0.036201988 -0.015899255 2.9325092e-20 0.0077021863 -1.4048492e-20 1.258949e-35)
(0.043338285 -0.017062098 1.0610755e-20 0.0074986895 -4.4668135e-21 1.3565252e-36)
(0.051522974 -0.018147335 1.1830462e-20 0.0072463934 -4.368227e-21 1.4009005e-36)
(0.060764525 -0.019080186 1.2784057e-20 0.0069354778 -4.1370112e-21 1.3916622e-36)
(0.070995717 -0.019765198 -7.1118995e-20 0.0065615417 2.0108712e-20 3.6696425e-35)
(0.082042602 -0.020090133 3.388965e-20 0.0061310143 -8.3452365e-21 7.1691995e-36)
(0.093595246 -0.019938304 5.8941634e-21 0.0056683195 -1.2605791e-21 1.8373524e-37)
(0.10519168 -0.019212188 -7.2077595e-20 0.0052227213 1.3251227e-20 2.4728356e-35)
(0.11623092 -0.017870412 -3.8945374e-20 0.0048707795 6.1172913e-21 6.4020383e-36)
(0.12606145 -0.015975916 2.0152174e-20 0.0047071289 -2.6788082e-21 1.5558551e-36)
(0.13411955 -0.013708117 7.6917388e-20 0.0048104068 -8.4768436e-21 2.0608324e-35)
(0.13998323 -0.011298135 -3.4646564e-20 0.0051954761 3.1387661e-21 3.9013679e-36)
(0.14347011 -0.0089685797 1.0436001e-19 0.0058016452 -7.4485556e-21 3.3231592e-35)
(0.14462196 -0.0068815427 5.7867832e-20 0.0065289998 -3.1835795e-21 9.7778924e-36)
(0.14362806 -0.0051040776 8.0696952e-20 0.00730412 -3.2751989e-21 1.8489607e-35)
(0.14076114 -0.0036616123 2.172575e-19 0.008133801 -5.710528e-21 1.3217673e-34)
(0.136444 -0.0026296133 -1.6668202e-19 0.0090982938 2.2618381e-21 7.8118427e-35)
(0.13134338 -0.0021507813 5.3542683e-20 0.010282761 -4.3963285e-24 8.2001835e-36)
(0.12645263 -0.0023473374 -8.951579e-20 0.011720872 -9.4036628e-22 2.3848855e-35)
(0.12283506 -0.0032070174 -8.208962e-20 0.013372392 -1.8794429e-21 2.1175401e-35)
(0.12135892 -0.0044569763 -3.0673666e-20 0.015130127 -1.1141539e-21 3.1873444e-36)
(0.12215889 -0.0056735239 -2.6433268e-19 0.016872723 -1.3159077e-20 2.6009693e-34)
(0.12424781 -0.0063933687 -6.6355537e-20 0.018573491 -4.5185296e-21 1.8557421e-35)
(0.12626466 -0.006863353 1.3925002e-19 0.020609465 1.3021309e-20 9.6038661e-35)
(0.12588838 -0.0080221483 4.7134289e-20 0.024056699 5.8969126e-21 1.3645027e-35)
(0.1223355 -0.0090465408 -3.1018495e-20 0.027467583 -4.8065744e-21 7.6028194e-36)
(0.11105953 -0.0090995483 -5.4720865e-20 0.028302601 -1.0059467e-20 3.2502737e-35)
(0.098763087 -0.0083400313 -7.1728941e-20 0.026968258 -1.5354686e-20 7.8813132e-35)
(0.07938751 -0.00813832 4.3092757e-21 0.025357277 1.0694496e-21 4.5838719e-37)
(4.4456871e-08 -2.8237928e-07 5.2894393e-24 1.7936055e-06 -3.313355e-23 6.7556809e-37)
(4.3254106e-07 -2.7130114e-06 3.6136925e-24 1.7016809e-05 -2.2298653e-23 6.0963932e-38)
(1.3426696e-06 -8.3135818e-06 -4.5624384e-24 5.1477142e-05 2.7672312e-23 3.9980065e-38)
(2.961994e-06 -1.8080053e-05 -2.3391717e-23 0.000110365 1.3934206e-22 5.4526129e-37)
(5.5320662e-06 -3.3242344e-05 1.6939381e-23 0.00019976789 -9.901866e-23 1.6374446e-37)
(9.3656897e-06 -5.531291e-05 -3.1365548e-23 0.00032671002 1.7972758e-22 3.3938659e-37)
(1.4866916e-05 -8.613648e-05 1.7135592e-23 0.00049914776 -9.6102782e-23 6.3577628e-38)
(2.2555942e-05 -0.00012794155 5.0828303e-24 0.00072589406 -2.7846958e-23 3.6093928e-39)
(3.3101111e-05 -0.00018339348 -3.5457961e-23 0.0010164406 1.8934305e-22 1.1574759e-37)
(4.7359027e-05 -0.00025564312 -9.3491178e-23 0.0013806404 4.8539944e-22 5.3826209e-37)
(6.6424829e-05 -0.0003483645 -5.7226796e-24 0.0018282093 2.8813466e-23 1.3582044e-39)
(9.1694646e-05 -0.00046577179 2.2680152e-22 0.0023680038 -1.1040692e-21 1.4598469e-36)
(0.00012494257 -0.00061260216 -3.795798e-22 0.0030070416 1.7812148e-21 2.8004407e-36)
(0.00016841468 -0.00079404775 7.4026953e-22 0.0037492507 -3.337712e-21 7.3222371e-36)
(0.00022494242 -0.0010156172 -2.3346328e-22 0.0045939769 1.007908e-21 5.0176332e-37)
(0.00029807751 -0.0012829056 5.9835835e-22 0.0055343379 -2.4644172e-21 2.2736824e-36)
(0.00039224993 -0.0016012562 -8.7196856e-22 0.0065556216 3.4127582e-21 3.3380568e-36)
(0.00051294941 -0.0019753085 6.8223014e-22 0.0076340293 -2.5269655e-21 1.4146485e-36)
(0.00066693013 -0.0024084503 -1.2964538e-22 0.008736202 4.5247608e-22 3.5499714e-38)
(0.0008624371 -0.0029022312 -6.3189412e-22 0.0098200543 2.0686937e-21 5.8711733e-37)
(0.0011094529 -0.0034558464 1.8410329e-21 0.010837403 -5.6271791e-21 3.4878333e-36)
(0.0014199651 -0.0040658632 -3.1036664e-21 0.011738674 8.814598e-21 6.98685e-36)