/*--------------------------------*- C++ -*----------------------------------*\
  =========                 |
  \\      /  F ield         | OpenFOAM: The Open Source CFD Toolbox
   \\    /   O peration     | Website:  https://openfoam.org
    \\  /    A nd           | Version:  13
     \\/     M anipulation  |
\*---------------------------------------------------------------------------*/
FoamFile
{
    format      ascii;
    class       volScalarField;
    location    "5.802535";
    object      k;
}
// * * * * * * * * * * * * * * * * * * * * * * * * * * * * * * * * * * * * * //

dimensions      [0 2 -2 0 0 0 0];

internalField   nonuniform List<scalar> 
17140
(
3.1812873e-11
9.9966859e-10
8.1745002e-09
3.5153915e-08
1.0816847e-07
2.7291075e-07
6.050074e-07
1.2255916e-06
2.324108e-06
4.1912934e-06
7.2662485e-06
1.2202564e-05
1.9959323e-05
3.1922853e-05
5.0063015e-05
7.7121247e-05
0.00011681236
0.00017399218
0.00025469138
0.00036583846
0.00051440371
0.00070563995
0.00094019138
0.0012102649
0.0014959342
0.0017637807
0.0019646377
0.0020605212
0.0020881877
0.0020577235
0.0019865576
0.0019042416
0.001825034
0.0017522922
0.001685665
0.001624576
0.0015686435
0.0015175839
0.0014712257
0.0014295361
0.0013926383
0.0013608134
0.0013341834
0.001311741
0.0012916554
0.0012794544
0.0012773709
0.0013078492
0.0013484607
0.0014125384
0.001485135
0.0015679262
0.0016544068
0.0017415332
0.0018078999
0.0018558833
0.0018887961
0.0018065426
0.001649291
0.0014433094
0.0012301202
0.0010308799
0.00084848061
0.00066857892
0.00049525661
3.144521e-11
9.8811544e-10
8.0800489e-09
3.4747907e-08
1.0691992e-07
2.6976286e-07
5.9803499e-07
1.2114826e-06
2.2973901e-06
4.1431966e-06
7.1830612e-06
1.2063298e-05
1.9732479e-05
3.1562065e-05
4.9501455e-05
7.6264906e-05
0.00011553289
0.00017212106
0.00025201895
0.00036212402
0.00050940518
0.00069917289
0.00093222204
0.0012010279
0.0014860423
0.0017542719
0.0019573086
0.0020553948
0.0020840151
0.0020542272
0.0019832318
0.0019006675
0.0018210046
0.0017476406
0.0016802301
0.0016181714
0.001561048
0.0015085366
0.0014604279
0.0014166526
0.0013772484
0.0013424054
0.0013120631
0.0012848149
0.0012568774
0.001235245
0.0012269388
0.0012288362
0.0012435633
0.0012615056
0.0012758207
0.0012828052
0.001284295
0.0012709364
0.0012537168
0.001236987
0.0011917595
0.0011191366
0.0010216847
0.00091205754
0.00079653603
0.0006786077
0.00057341914
0.00048523116
0.00039377799
3.0560571e-11
9.6031709e-10
7.8527376e-09
3.3770401e-08
1.0391236e-07
2.6217588e-07
5.8122004e-07
1.1774344e-06
2.2328672e-06
4.0269552e-06
6.981846e-06
1.172614e-05
1.9182765e-05
3.0686848e-05
4.8137631e-05
7.4182509e-05
0.00011241706
0.00016755686
0.00024548761
0.00035302528
0.00049712742
0.00068323475
0.00091249899
0.0011780428
0.0014612416
0.0017301521
0.001938396
0.0020422975
0.0020737319
0.0020466114
0.0019762855
0.0018930756
0.0018119453
0.0017366647
0.0016669818
0.0016022162
0.0015418442
0.001485377
0.0014324419
0.0013830178
0.0013369207
0.0012941892
0.0012544759
0.0012157765
0.0011728073
0.0011276769
0.001100702
0.0010742758
0.0010586677
0.0010373469
0.001014785
0.00098000427
0.00093420072
0.00087640225
0.00080042663
0.00075062414
0.00070052999
0.0006619119
0.00061361951
0.00056161992
0.00050457561
0.00043854613
0.00037779338
0.00034105607
0.00030732855
2.9165214e-11
9.1647032e-10
7.4941966e-09
3.2228564e-08
9.9168477e-08
2.5020864e-07
5.5469668e-07
1.1237262e-06
2.1310837e-06
3.8435756e-06
6.6643845e-06
1.1194127e-05
1.831519e-05
2.930518e-05
4.5983818e-05
7.0892201e-05
0.00010749041
0.00016033324
0.00023513742
0.00033858204
0.00047759401
0.00065780291
0.00088090552
0.0011410326
0.0014210148
0.0016905756
0.0019066248
0.0020200001
0.0020560481
0.0020334123
0.0019643598
0.0018797622
0.001795664
0.0017163023
0.0016419054
0.0015717199
0.0015051978
0.0014419859
0.0013818175
0.0013243962
0.0012698177
0.0012183257
0.0011698607
0.0011220442
0.0010687823
0.0010197193
0.00099226228
0.00097288691
0.00095406066
0.00093707604
0.00092210245
0.00088847338
0.00083810129
0.0007668563
0.00065966548
0.00058081935
0.00051389509
0.00048090087
0.00045156615
0.00042299716
0.00038877821
0.00034638469
0.00030957633
0.00029035916
0.00027788868
2.7283721e-11
8.5734755e-10
7.0107413e-09
3.0149545e-08
9.2771724e-08
2.340714e-07
5.1892981e-07
1.0512961e-06
1.9938072e-06
3.5962151e-06
6.2360761e-06
1.047615e-05
1.7143889e-05
2.7438778e-05
4.3072152e-05
6.6439494e-05
0.00010081378
0.00015052484
0.00022104707
0.00031885047
0.00045078211
0.00062267081
0.00083687782
0.0010888174
0.0013632158
0.0016320012
0.0018566102
0.0019852873
0.0020286788
0.0020123197
0.0019455086
0.0018587821
0.0017703274
0.0016862356
0.0016064638
0.0015302929
0.0014572437
0.001387058
0.001319687
0.0012553562
0.0011947876
0.001139109
0.0010892526
0.0010437609
0.00099859299
0.00097460954
0.00096249016
0.00095714296
0.00095850079
0.00096648558
0.0009730539
0.00096705819
0.00089122094
0.00080212014
0.00064317726
0.00051993513
0.00043188091
0.00039274971
0.00037068458
0.00035450267
0.00033294989
0.00030497675
0.00028386
0.00027353779
0.00026568235
2.4989121e-11
7.8524358e-10
6.4211362e-09
2.7614035e-08
8.4970348e-08
2.1439034e-07
4.753071e-07
9.6295327e-07
1.8263585e-06
3.2944525e-06
5.7134811e-06
9.5999045e-06
1.571389e-05
2.5159041e-05
3.9513259e-05
6.0991966e-05
9.2635227e-05
0.00013848987
0.00020371979
0.00029451581
0.00041759262
0.00057897918
0.00078181099
0.0010230703
0.0012898842
0.0015570846
0.001788727
0.0019358514
0.0019902984
0.0019833173
0.0019200625
0.0018322296
0.0017399443
0.0016506676
0.0015651623
0.0014829043
0.0014036264
0.0013274269
0.0012548913
0.0011870436
0.0011256886
0.0010730998
0.0010309352
0.00099825727
0.00097551758
0.00096742344
0.00096520865
0.00097527337
0.0010084747
0.0010590444
0.0010838349
0.0010878508
0.00097821908
0.00085533012
0.00064769647
0.00048620783
0.00036922793
0.00032429751
0.00030794913
0.00030440666
0.00029693191
0.00028459309
0.00027335389
0.00026749523
0.00025871884
2.2381484e-11
7.0330293e-10
5.7510943e-09
2.4732603e-08
7.6104525e-08
1.9202346e-07
4.2572958e-07
8.6254527e-07
1.6360242e-06
2.951401e-06
5.1192634e-06
8.6032808e-06
1.4086772e-05
2.2563554e-05
3.5458204e-05
5.4778138e-05
8.3292234e-05
0.00012471366
0.00018383212
0.00026648586
0.00037918502
0.00052811297
0.00071720366
0.0009451598
0.0012018324
0.0014654119
0.001702973
0.001869724
0.001941101
0.0019461929
0.0018900472
0.0018026466
0.0017068708
0.0016125147
0.0015215194
0.001433787
0.0013494496
0.001269196
0.0011943739
0.0011269953
0.0010695307
0.001024435
0.00099593032
0.00098047817
0.0009725185
0.00097096191
0.00098275759
0.0010273162
0.0010835102
0.0011251445
0.0011437384
0.0011355823
0.0010080627
0.00086664007
0.00062965727
0.0004308431
0.00031674706
0.00027997546
0.00027262148
0.00027804617
0.00027918857
0.00027526187
0.00026891196
0.00026271383
0.00024796988
1.9567149e-11
6.1486708e-10
5.0279378e-09
2.1622738e-08
6.6535695e-08
1.6788236e-07
3.7221688e-07
7.541592e-07
1.4305425e-06
2.5809834e-06
4.4774774e-06
7.5264732e-06
1.2327808e-05
1.975566e-05
3.1066743e-05
4.8039225e-05
7.3140064e-05
0.00010970507
0.00016208924
0.0002356979
0.00033673796
0.00047144197
0.000644463
0.00085623027
0.0010994858
0.0013561441
0.0015967952
0.0017834992
0.0018804333
0.0019000641
0.0018555803
0.0017712861
0.0016731358
0.0015742429
0.001478397
0.0013861904
0.0012982401
0.0012158575
0.0011409604
0.0010759213
0.0010230031
0.00099205867
0.00097805
0.00097355728
0.00097217653
0.00098246925
0.0010184863
0.0010659916
0.0011075761
0.0011348777
0.0011457335
0.0010991064
0.00096405594
0.00080844539
0.00057007604
0.00037644783
0.00027545965
0.00025009811
0.00025072664
0.00026631649
0.00027134101
0.00026969854
0.00026438601
0.00025342502
0.00022826192
1.6664588e-11
5.236587e-10
4.2821064e-09
1.8415338e-08
5.6666611e-08
1.4298302e-07
3.1702063e-07
6.4235413e-07
1.2185521e-06
2.198759e-06
3.8150468e-06
6.414569e-06
1.0510445e-05
1.6852135e-05
2.652049e-05
4.1051726e-05
6.2590719e-05
9.4064026e-05
0.00013934224
0.00020332286
0.00029180286
0.00041092714
0.00056592463
0.00075886747
0.0009854835
0.0012318194
0.0014727423
0.0016750818
0.0018003648
0.0018427976
0.0018158442
0.0017390208
0.0016410483
0.0015388968
0.0014389886
0.0013431509
0.0012525908
0.0011690465
0.0010947355
0.0010320103
0.00098996537
0.00097094888
0.00096591392
0.00096718657
0.00097490889
0.0010006276
0.0010420639
0.0010776929
0.0010969222
0.0011021689
0.0010710273
0.00099409739
0.00085861517
0.00071187571
0.00049933273
0.00031967563
0.00024289523
0.00022991856
0.00024014103
0.00026320285
0.00026700214
0.00026465383
0.00025510338
0.00023465395
0.00020786855
1.3797795e-11
4.3357423e-10
3.5454613e-09
1.5247406e-08
4.6918819e-08
1.1838902e-07
2.6249855e-07
5.3190549e-07
1.0091061e-06
1.821047e-06
3.1602417e-06
5.3149874e-06
8.7121024e-06
1.397647e-05
2.2012323e-05
3.4111024e-05
5.208781e-05
7.8443258e-05
0.00011653002
0.00017067576
0.0002461623
0.00034888568
0.00048443797
0.00065631829
0.00086314136
0.0010952793
0.0013324568
0.00154494
0.001697742
0.001767985
0.0017692973
0.0017062534
0.0016110737
0.0015066248
0.0014034447
0.0013047801
0.0012122966
0.0011280774
0.0010546471
0.00099595461
0.00096454862
0.0009533808
0.00095270193
0.00096056122
0.0009783834
0.0010152021
0.001051906
0.0010692239
0.0010638092
0.0010277966
0.00097547408
0.00088571513
0.00076871851
0.00062954676
0.00042419403
0.0002708398
0.00022048233
0.000219756
0.00023776172
0.00026033158
0.00026168828
0.00025669246
0.00023755472
0.00021496186
0.00018941009
1.1081311e-11
3.482129e-10
2.8474363e-09
1.2245532e-08
3.7681836e-08
9.5083119e-08
2.1082932e-07
4.2722693e-07
8.1057477e-07
1.4629431e-06
2.5392347e-06
4.2716816e-06
7.0046676e-06
1.1243603e-05
1.7722376e-05
2.7494246e-05
4.2050087e-05
6.3463891e-05
9.45553e-05
0.00013903771
0.00020158122
0.00028765642
0.00040294114
0.00055200127
0.0007360003
0.00094954255
0.0011776225
0.0013949013
0.001570063
0.0016738107
0.0017031089
0.0016661009
0.0015840905
0.0014825306
0.0013771439
0.0012756296
0.0011811014
0.0010960392
0.0010230248
0.00096902051
0.00094273612
0.00093479468
0.00093678405
0.00095051427
0.00097660207
0.0010188486
0.0010469333
0.0010546198
0.0010233771
0.00095713942
0.00088690277
0.0007849516
0.00068498273
0.00054626473
0.00035473285
0.00023831326
0.00020788659
0.00021481218
0.00024150031
0.00025671574
0.00025505727
0.00024312737
0.00021620305
0.00019590967
0.00017370201
8.6112934e-12
2.7059639e-10
2.2127428e-09
9.5160087e-09
2.9282762e-08
7.3890654e-08
1.6384302e-07
3.3202728e-07
6.2999581e-07
1.1371516e-06
1.9740817e-06
3.3217654e-06
5.4490123e-06
8.7512518e-06
1.3804632e-05
2.1440066e-05
3.2841845e-05
4.9673576e-05
7.4228265e-05
0.00010958552
0.00015973108
0.00022954499
0.00032449035
0.00044974796
0.00060850174
0.0007992328
0.0010124622
0.001228528
0.001419161
0.0015550988
0.0016188989
0.001611842
0.0015492345
0.0014563217
0.0013525079
0.0012497339
0.0011535469
0.0010670689
0.00099367961
0.00094217696
0.00091827435
0.00091189558
0.00091607759
0.00093438535
0.00096788847
0.0010129186
0.0010396042
0.0010427891
0.0010048196
0.00091583224
0.00081829311
0.0007060981
0.00062159576
0.00047500675
0.00029600687
0.00021472582
0.00020105135
0.00021277193
0.00024362781
0.00025038984
0.00024335221
0.00022093336
0.00019817191
0.00017997853
0.00016098484
6.4593348e-12
2.0297442e-10
1.6597779e-09
7.1379572e-09
2.1965102e-08
5.5426255e-08
1.2290308e-07
2.4907128e-07
4.7262029e-07
8.5316446e-07
1.4812949e-06
2.4931039e-06
4.0910268e-06
6.5735034e-06
1.0376756e-05
1.6132797e-05
2.4748365e-05
3.7509059e-05
5.6210249e-05
8.3308404e-05
0.00012206896
0.00017665271
0.00025202461
0.00035348587
0.00048554695
0.00064986414
0.00084225055
0.0010496008
0.001248907
0.0014113239
0.0015121625
0.0015411165
0.0015078255
0.0014286321
0.0013307077
0.0012287342
0.0011313548
0.0010438226
0.0009701247
0.00091715785
0.00089061523
0.0008832398
0.00088833022
0.00090917304
0.00094616144
0.0009940226
0.0010212748
0.0010194428
0.00098683575
0.00088694091
0.00076060519
0.00065193379
0.00057231672
0.00040003372
0.00024420304
0.00019755955
0.00019844339
0.00022077166
0.00024239072
0.00024059609
0.00022378575
0.00020091392
0.00018202015
0.0001664979
0.00015076507
4.6666159e-12
1.46641e-10
1.1991228e-09
5.1568844e-09
1.5868936e-08
4.0043609e-08
8.8794592e-08
1.7995263e-07
3.4148004e-07
6.164757e-07
1.0704667e-06
1.8019717e-06
2.9577175e-06
4.7544232e-06
7.5097483e-06
1.1685817e-05
1.7949558e-05
2.725458e-05
4.0948648e-05
6.090731e-05
8.9684701e-05
0.00013065169
0.00018805176
0.00026683917
0.00037207408
0.00050757413
0.00067357905
0.00086361325
0.0010617781
0.0012430935
0.0013795981
0.001451035
0.0014525342
0.0014047549
0.0013158485
0.0012162114
0.0011176488
0.0010268746
0.00094965805
0.00089359137
0.00086335538
0.00085276032
0.00085548975
0.00087153965
0.00090579461
0.00095149541
0.00097767338
0.0009695421
0.0009311256
0.0008229745
0.0006969677
0.00061811274
0.00051776301
0.0003235152
0.0002133988
0.0001886956
0.00019700075
0.00022519653
0.00023396382
0.00022502839
0.0002011633
0.0001839329
0.0001684218
0.00015537389
0.00014234977
3.241649e-12
1.0186364e-10
8.3296526e-10
3.5822016e-09
1.1023269e-08
2.7816143e-08
6.1681216e-08
1.2500581e-07
2.3721806e-07
4.282691e-07
7.4371243e-07
1.2520768e-06
2.0555193e-06
3.305149e-06
5.22295e-06
8.1329407e-06
1.2505046e-05
1.9016015e-05
2.8632205e-05
4.2718247e-05
6.3171669e-05
9.2572877e-05
0.00013431663
0.00019264719
0.00027244728
0.00037853679
0.00051416908
0.00067851588
0.00086347627
0.0010513484
0.0012162002
0.0013303613
0.0013784792
0.001365729
0.0013052093
0.0012142105
0.0011176419
0.0010256673
0.0009448186
0.0008786246
0.00083679376
0.00081937051
0.0008198474
0.00082798512
0.00085000602
0.00088816726
0.00089949395
0.00088557993
0.00083418818
0.00073496462
0.00065807856
0.00059516705
0.00044158818
0.00025401427
0.00019060401
0.0001852606
0.00020463119
0.00022679871
0.00022220499
0.00020026023
0.00018273362
0.00016965892
0.00015698949
0.0001462005
0.00013531198
2.1638655e-12
6.7995996e-11
5.560202e-10
2.3911834e-09
7.3582109e-09
1.8567681e-08
4.1173043e-08
8.344308e-08
1.5834696e-07
2.8588027e-07
4.9646029e-07
8.3586044e-07
1.3723551e-06
2.2070297e-06
3.4886084e-06
5.4346932e-06
8.362026e-06
1.2729259e-05
1.9196636e-05
2.8707557e-05
4.259628e-05
6.2721989e-05
9.1618307e-05
0.00013262316
0.00018990753
0.00026824644
0.00037227794
0.00050493175
0.00066483662
0.00084312532
0.0010213163
0.0011732125
0.0012729428
0.001307739
0.0012859047
0.001220314
0.0011284818
0.0010345509
0.00094971434
0.00087952397
0.00082769361
0.00079334986
0.00078038858
0.00078196609
0.00078928787
0.00080798179
0.00080681876
0.00078933883
0.00074213111
0.00069500798
0.00064324791
0.00055541725
0.0003411558
0.00021044932
0.00017852052
0.00018472068
0.00020844988
0.00021430393
0.00019974527
0.00017957986
0.00016765663
0.00015739158
0.00014718719
0.0001385181
0.00012954006
1.3889692e-12
4.3646119e-11
3.5690482e-10
1.5348771e-09
4.7231409e-09
1.1918276e-08
2.6428033e-08
5.3559582e-08
1.0163668e-07
1.8349243e-07
3.1864869e-07
5.3648512e-07
8.8083227e-07
1.4166117e-06
2.239415e-06
3.4892938e-06
5.3705671e-06
8.1801609e-06
1.23479e-05
1.8493147e-05
2.7502867e-05
4.0635754e-05
5.9653432e-05
8.6969315e-05
0.00012578214
0.00018011272
0.0002545912
0.00035374114
0.00048044189
0.00063337482
0.00080384841
0.0009737352
0.0011171909
0.0012097016
0.0012405563
0.0012143534
0.0011522589
0.0010628646
0.00097070105
0.00089307064
0.00083330732
0.00079235871
0.00076469101
0.00075004847
0.00074380913
0.00074341696
0.00073825872
0.00072961859
0.0007126623
0.00068805929
0.0006310988
0.00046547486
0.0002462021
0.00018113002
0.00017371936
0.00019047051
0.0002097986
0.00020086619
0.00017756038
0.00016596322
0.00015607513
0.00014759401
0.00013927183
0.0001321955
0.00012483463
8.5923784e-13
2.7000158e-11
2.2078649e-10
9.4949428e-10
2.921776e-09
7.3726752e-09
1.6348209e-08
3.3130918e-08
6.2868659e-08
1.1349717e-07
1.970867e-07
3.3179975e-07
5.4472858e-07
8.7599899e-07
1.3846966e-06
2.1574186e-06
3.3206083e-06
5.0583334e-06
7.6378661e-06
1.1446324e-05
1.7042665e-05
2.5230156e-05
3.7154212e-05
5.44273e-05
7.9273017e-05
0.00011466162
0.00016436627
0.00023280056
0.00032438493
0.00044214865
0.00058534895
0.00074648246
0.00090907699
0.0010491948
0.001144824
0.0011758907
0.0011530716
0.0011018328
0.0010231272
0.00093463879
0.00086099301
0.00080818494
0.00077265536
0.00075112947
0.00073892738
0.00073093254
0.00073328912
0.00073723454
0.0007355277
0.00069824841
0.00057953528
0.00029664586
0.00019148222
0.00016764765
0.00017370936
0.00019459085
0.00019282857
0.00017718858
0.00016557789
0.00015546635
0.0001466767
0.0001390124
0.00013258749
0.00012693553
0.00012097428
5.1439104e-13
1.6163897e-11
1.3217568e-10
5.6842098e-10
1.749128e-09
4.4136174e-09
9.7866052e-09
1.9832797e-08
3.7632944e-08
6.793535e-08
1.1796041e-07
1.9856941e-07
3.2595733e-07
5.240989e-07
8.2827896e-07
1.2901855e-06
1.9852617e-06
3.023329e-06
4.5639575e-06
6.8387084e-06
1.0183251e-05
1.5083404e-05
2.2240098e-05
3.2658355e-05
4.7762835e-05
6.9534197e-05
0.00010064064
0.00014450271
0.00020518043
0.00028688855
0.00039282246
0.00052312396
0.0006721968
0.00082650401
0.0009657849
0.0010758711
0.0011129812
0.0010988575
0.001063467
0.0010078713
0.00093597306
0.00086770273
0.0008177207
0.00078655553
0.00077301806
0.00077714348
0.00079930665
0.0008059713
0.00077058518
0.00065612646
0.00036066913
0.00020806382
0.00016565288
0.00016472024
0.00018168098
0.00019160693
0.00018155597
0.00016581159
0.00015393999
0.00014597181
0.00013833184
0.00013260203
0.00012717836
0.00012243158
0.00011780534
2.9970664e-13
9.4177884e-12
7.7011198e-11
3.3118543e-10
1.0191069e-09
2.5715073e-09
5.7018701e-09
1.1554664e-08
2.1924213e-08
3.9575493e-08
6.8711763e-08
1.1565324e-07
1.8981873e-07
3.0514188e-07
4.8211132e-07
7.5070785e-07
1.1546359e-06
1.7574295e-06
2.6512857e-06
3.9698827e-06
5.9070224e-06
8.7437442e-06
1.2887568e-05
1.8928529e-05
2.7717033e-05
4.0466835e-05
5.8879962e-05
8.5271891e-05
0.00012264195
0.00017458786
0.00024491761
0.00033676904
0.00045104902
0.00058421033
0.0007263619
0.00086356889
0.00098973094
0.0010446063
0.001041675
0.0010299438
0.001003974
0.00096502359
0.00092831816
0.00089646479
0.00089050956
0.00089837227
0.00088184635
0.00084035787
0.00071384449
0.00040074113
0.0002200474
0.00016509947
0.00015725314
0.00016721172
0.00018435124
0.00017886042
0.00016285105
0.00015258719
0.00014580314
0.00013907518
0.000133096
0.00012794414
0.00012292551
0.00011868923
0.00011524845
1.7126341e-13
5.3816706e-12
4.4006997e-11
1.892509e-10
5.8234938e-10
1.4694223e-09
3.2581295e-09
6.602318e-09
1.2526955e-08
2.2611133e-08
3.9254621e-08
6.6064274e-08
1.0841209e-07
1.7423869e-07
2.7520785e-07
4.2836323e-07
6.5850613e-07
1.0016118e-06
1.5097505e-06
2.2582037e-06
3.3557966e-06
4.9599682e-06
7.2987893e-06
1.0703053e-05
1.5652557e-05
2.2841422e-05
3.3265947e-05
4.8333741e-05
6.9979677e-05
0.0001007412
0.00014370849
0.00020217859
0.00027896289
0.00037519547
0.00048886929
0.00061404707
0.00074138402
0.00087459127
0.00095717836
0.00098521503
0.00098896614
0.00098572193
0.00098324768
0.0009780331
0.00097034611
0.00094556354
0.0008786431
0.00072341105
0.00038187679
0.00021765601
0.00016343538
0.00015172985
0.00015850058
0.00017461204
0.00017290231
0.00016274085
0.00015337772
0.0001466272
0.00013976611
0.00013424156
0.00012853934
0.00012422582
0.00011997125
0.00011619204
0.00011329104
9.7591856e-14
3.0666628e-12
2.507669e-11
1.0784132e-10
3.3183933e-10
8.3730914e-10
1.8565217e-09
3.7619864e-09
7.1375767e-09
1.2882669e-08
2.2363715e-08
3.7633765e-08
6.174905e-08
9.9223834e-08
1.5668186e-07
2.437879e-07
3.7457745e-07
5.6935434e-07
8.574152e-07
1.2809475e-06
1.9006489e-06
2.80387e-06
4.1164767e-06
6.0201997e-06
8.7779852e-06
1.277067e-05
1.8548843e-05
2.6902911e-05
3.8951378e-05
5.6236828e-05
8.0801066e-05
0.00011517356
0.00016212224
0.00022407504
0.00030208825
0.00039514395
0.0004985078
0.00061075482
0.00072629083
0.00082935543
0.00089249058
0.00092182106
0.00093258654
0.00092202332
0.00089076498
0.00081039711
0.00061183289
0.00033455163
0.00020544038
0.00015882356
0.00014765806
0.00015219657
0.00016692561
0.00017044386
0.00016553883
0.00015544096
0.00014799513
0.00014114817
0.00013523037
0.00012965319
0.00012477922
0.00012067718
0.00011675284
0.00011357104
0.00011134289
5.7858736e-14
1.8181147e-12
1.4867052e-11
6.3934911e-11
1.9673256e-10
4.963938e-10
1.1005974e-09
2.2301205e-09
4.2309473e-09
7.6358816e-09
1.325414e-08
2.2300941e-08
3.6584077e-08
5.8771516e-08
9.2774033e-08
1.4429023e-07
2.2158186e-07
3.3657536e-07
5.0641269e-07
7.5565395e-07
1.1193983e-06
1.6477183e-06
2.4119681e-06
3.5141587e-06
5.1002577e-06
7.3795037e-06
1.0652261e-05
1.534942e-05
2.2085687e-05
3.1727079e-05
4.5470025e-05
6.4862527e-05
9.1831007e-05
0.00012853055
0.0001769115
0.00023810909
0.0003109741
0.00039369881
0.00048302327
0.00057221231
0.00065015115
0.00071795281
0.0007360849
0.00071357522
0.00063605461
0.00043624296
0.00026429408
0.00018037715
0.00015052202
0.00014238513
0.00014699587
0.00016276515
0.00016916861
0.00016589739
0.0001557346
0.00014751278
0.00014117513
0.00013572494
0.00013050458
0.00012619059
0.00012195462
0.00011833113
0.00011483509
0.00011190562
0.00010986428
3.925063e-14
1.2333864e-12
1.0085635e-11
4.3372701e-11
1.3346044e-10
3.3674274e-10
7.466098e-10
1.5128097e-09
2.8699949e-09
5.1794741e-09
8.9898812e-09
1.5124828e-08
2.4808866e-08
3.9847579e-08
6.2883796e-08
9.7760335e-08
1.5003114e-07
2.2767825e-07
3.4211326e-07
5.0957614e-07
7.5307912e-07
1.1051126e-06
1.6114415e-06
2.3360983e-06
3.3685683e-06
4.833691e-06
6.9065052e-06
9.8323554e-06
1.3955611e-05
1.9758439e-05
2.7908567e-05
3.9290238e-05
5.5079711e-05
7.669458e-05
0.00010567592
0.00014340622
0.00019061998
0.00024697697
0.00031075478
0.00037738741
0.00043902174
0.00048004228
0.00046873876
0.00041111659
0.00027791134
0.00019266328
0.00015143203
0.00013544401
0.00013597673
0.00014165261
0.00015958903
0.00016632696
0.0001644901
0.00015620798
0.00014846731
0.00014321882
0.00013805252
0.00013297122
0.00012806548
0.00012340717
0.00011924982
0.00011588268
0.00011266153
0.00011006632
0.00010828997
3.3211415e-14
1.0436154e-12
8.5338879e-12
3.6699858e-11
1.1292924e-10
2.8494453e-10
6.3178264e-10
1.2801925e-09
2.4288217e-09
4.3836054e-09
7.6092108e-09
1.280338e-08
2.1003764e-08
3.3740575e-08
5.3253437e-08
8.2797461e-08
1.2707223e-07
1.9281821e-07
2.896385e-07
4.311194e-07
6.3634006e-07
9.3187953e-07
1.3544474e-06
1.9542893e-06
2.7995843e-06
3.9821684e-06
5.6241351e-06
7.887841e-06
1.0989571e-05
1.5219253e-05
2.0967889e-05
2.8762826e-05
3.9308e-05
5.3499302e-05
7.2393381e-05
9.7069212e-05
0.00012825432
0.00016572978
0.0002073559
0.00024735932
0.00027210829
0.00026309355
0.00021913445
0.00016829175
0.00013591519
0.00012106715
0.00012019629
0.00012564185
0.00013970163
0.00015811036
0.00016451961
0.0001640397
0.00015875307
0.00015028364
0.00014489057
0.0001393333
0.00013373126
0.00012863838
0.00012428621
0.00012053828
0.00011686164
0.00011381308
0.00011089276
0.00010871442
0.00010710156
3.3138843e-14
1.0413368e-12
8.5153266e-12
3.6620757e-11
1.1268973e-10
2.843554e-10
6.3052466e-10
1.2777772e-09
2.4245749e-09
4.3767205e-09
7.598963e-09
1.2789665e-08
2.0988241e-08
3.3728839e-08
5.3258832e-08
8.2847243e-08
1.2721652e-07
1.9314102e-07
2.902663e-07
4.3221327e-07
6.3803674e-07
9.3410064e-07
1.3564069e-06
1.9533644e-06
2.7889036e-06
3.945732e-06
5.5284776e-06
7.6666538e-06
1.0518355e-05
1.4275564e-05
1.9172813e-05
2.550164e-05
3.3629845e-05
4.4005669e-05
5.7099725e-05
7.319958e-05
9.2054916e-05
0.0001119444
0.00012924491
0.00013689758
0.00013069269
0.00011096703
0.00010007973
9.4186382e-05
9.686258e-05
0.00010275183
0.00011600023
0.00014336194
0.00015783999
0.00016357174
0.00016378492
0.00016008939
0.00015077884
0.00014528591
0.00013991565
0.00013468526
0.00013037583
0.00012620772
0.00012206891
0.00011846326
0.00011508884
0.00011220045
0.00010927385
0.00010732593
0.0001058725
3.2654249e-14
1.0261105e-12
8.3908756e-12
3.6086249e-11
1.1104911e-10
2.8023219e-10
6.2143384e-10
1.2594932e-09
2.3902146e-09
4.3154346e-09
7.4940986e-09
1.2616221e-08
2.070938e-08
3.3291125e-08
5.2585676e-08
8.1829619e-08
1.2569908e-07
1.9089959e-07
2.8696791e-07
4.2734013e-07
6.3073488e-07
9.2287732e-07
1.3385283e-06
1.9236671e-06
2.7374923e-06
3.8536569e-06
5.3597526e-06
7.3541969e-06
9.939145e-06
1.3210103e-05
1.7243017e-05
2.2090679e-05
2.7788568e-05
3.4299831e-05
4.1510375e-05
4.9106863e-05
5.6363947e-05
6.1867671e-05
6.3169816e-05
6.0787832e-05
5.9553741e-05
6.201042e-05
6.7977448e-05
7.4938547e-05
8.923161e-05
0.00011508429
0.00014592705
0.00015840834
0.00016303525
0.00016382543
0.00016079435
0.00015173526
0.0001462892
0.00014119818
0.00013657285
0.00013220906
0.00012762538
0.00012348419
0.00011983642
0.0001163178
0.000113081
0.00011055205
0.00010803498
0.00010630913
0.00010501584
2.7291492e-14
8.5759388e-13
7.0128594e-12
3.016004e-11
9.281354e-11
2.3422011e-10
5.1941465e-10
1.0527622e-09
1.9979605e-09
3.6073533e-09
6.264606e-09
1.0546463e-08
1.7311574e-08
2.7827433e-08
4.3950442e-08
6.8379096e-08
1.0500609e-07
1.5940106e-07
2.3945991e-07
3.562556e-07
5.2511168e-07
7.6688215e-07
1.1093403e-06
1.5884322e-06
2.2489174e-06
3.14362e-06
4.3301644e-06
5.8636708e-06
7.7859335e-06
1.0113342e-05
1.282128e-05
1.5835986e-05
1.9032131e-05
2.2240763e-05
2.5271048e-05
2.772387e-05
2.912466e-05
2.984593e-05
3.1398051e-05
3.4935466e-05
3.975241e-05
4.9702367e-05
6.3059397e-05
8.2908838e-05
0.00011698559
0.00014634869
0.00015878659
0.00016330287
0.00016400407
0.00016147564
0.00015334659
0.00014727804
0.00014219958
0.00013775314
0.00013318883
0.00012863364
0.00012461019
0.00012086659
0.00011741468
0.00011442831
0.00011161096
0.00010906317
0.00010662153
0.0001052178
0.00010419641
1.8573906e-14
5.8365629e-13
4.7727496e-12
2.0525903e-11
6.3165217e-11
1.5939899e-10
3.5348142e-10
7.1641908e-10
1.3595594e-09
2.4544831e-09
4.2619235e-09
7.1735371e-09
1.1771833e-08
1.8915534e-08
2.986014e-08
4.6426492e-08
7.1233428e-08
1.0801349e-07
1.6203159e-07
2.4062229e-07
3.5384662e-07
5.1523533e-07
7.4251846e-07
1.0581261e-06
1.4890735e-06
2.0656301e-06
2.81806e-06
3.7704294e-06
4.9318662e-06
6.286901e-06
7.7849242e-06
9.344442e-06
1.0861257e-05
1.222536e-05
1.3327817e-05
1.4321666e-05
1.5949375e-05
1.8529291e-05
2.2464069e-05
2.9469058e-05
4.0261393e-05
5.7495571e-05
8.2049832e-05
0.00011704948
0.00014563826
0.00015934758
0.00016403217
0.00016463034
0.00016249018
0.000155347
0.00014803423
0.00014286928
0.00013864123
0.00013425971
0.0001300694
0.0001261908
0.00012261262
0.0001192252
0.00011604884
0.00011300597
0.00011022633
0.00010799491
0.00010581571
0.00010446971
0.00010346844
1.05901e-14
3.3277698e-13
2.7212074e-12
1.1702779e-11
3.6012652e-11
9.0875754e-11
2.0151464e-10
4.0838834e-10
7.7491629e-10
1.3987688e-09
2.4282494e-09
4.0858972e-09
6.7022397e-09
1.0763669e-08
1.6979703e-08
2.6376381e-08
4.0424041e-08
6.1208705e-08
9.1655851e-08
1.3581146e-07
1.9917447e-07
2.8905354e-07
4.148801e-07
5.8834581e-07
8.2314026e-07
1.1339743e-06
1.5345472e-06
2.0341519e-06
2.6333415e-06
3.3203032e-06
4.0703343e-06
4.8535191e-06
5.6551398e-06
6.5372063e-06
7.7816935e-06
9.5526031e-06
1.246212e-05
1.7097428e-05
2.4713695e-05
3.7370575e-05
5.6047966e-05
8.1258747e-05
0.00011384084
0.00014204516
0.00015896042
0.00016526065
0.00016573468
0.00016384389
0.00015732653
0.00014893467
0.0001437914
0.00013979799
0.00013565591
0.00013159164
0.00012761032
0.00012373997
0.00012017036
0.00011680296
0.00011382859
0.00011132054
0.00010892779
0.00010679687
0.0001047533
0.00010373784
0.00010284221
5.5140174e-15
1.7326892e-13
1.4168563e-12
6.0932035e-12
1.8749904e-11
4.7312102e-11
1.0490632e-10
2.1258216e-10
4.0332082e-10
7.2788659e-10
1.2633026e-09
2.1250354e-09
3.4843725e-09
5.5929892e-09
8.8173251e-09
1.3686087e-08
2.095487e-08
3.1692264e-08
4.739146e-08
7.0109329e-08
1.0263002e-07
1.4864049e-07
2.1288887e-07
3.0127317e-07
4.2078437e-07
5.7921104e-07
7.8459922e-07
1.0445645e-06
1.3661148e-06
1.7576175e-06
2.2355543e-06
2.8404051e-06
3.6719901e-06
4.9115078e-06
6.8492704e-06
9.9571472e-06
1.511269e-05
2.3399295e-05
3.6315694e-05
5.4382663e-05
7.8580126e-05
0.00010952138
0.00013873299
0.00015987871
0.000167057
0.00016747425
0.00016572737
0.00015959716
0.00015038534
0.00014536289
0.00014100889
0.000136797
0.00013271311
0.00012871499
0.00012491205
0.00012153209
0.00011839722
0.00011554871
0.00011285671
0.00011014906
0.00010775737
0.0001059
0.0001040522
0.00010316649
0.00010225692
3.2441226e-15
1.0194114e-13
8.3359019e-13
3.5848132e-12
1.1030826e-11
2.7833175e-11
6.1711655e-11
1.250436e-10
2.3721905e-10
4.2807879e-10
7.4289571e-10
1.2495412e-09
2.0487198e-09
3.2884755e-09
5.1845744e-09
8.0488681e-09
1.2328312e-08
1.8657908e-08
2.7931396e-08
4.1393819e-08
6.0760158e-08
8.8364069e-08
1.2734152e-07
1.8185918e-07
2.5741495e-07
3.6128961e-07
5.0326109e-07
6.9704162e-07
9.6346039e-07
1.3375465e-06
1.8801594e-06
2.6986758e-06
3.9766903e-06
6.0345685e-06
9.3632382e-06
1.4662011e-05
2.2986469e-05
3.5430461e-05
5.2763444e-05
7.6241216e-05
0.0001063808
0.00013685121
0.00016057011
0.00016901378
0.00016986445
0.00016807502
0.0001620287
0.00015241716
0.00014718674
0.00014225616
0.00013771793
0.00013393521
0.00013014181
0.0001265115
0.00012305322
0.00011974031
0.00011671696
0.00011376256
0.00011121931
0.00010901533
0.00010697403
0.00010507601
0.00010333848
0.00010264774
0.00010171847
2.9356746e-15
9.2248782e-14
7.5433764e-13
3.2440106e-12
9.9821856e-12
2.5187398e-11
5.5846464e-11
1.1316401e-10
2.1470015e-10
3.874979e-10
6.7262874e-10
1.1317618e-09
1.8566065e-09
2.9824177e-09
4.7072146e-09
7.3190046e-09
1.1234176e-08
1.7051445e-08
2.5627471e-08
3.8182879e-08
5.6451491e-08
8.2892762e-08
1.2100056e-07
1.7576745e-07
2.5441678e-07
3.6762582e-07
5.3178808e-07
7.7332637e-07
1.1343305e-06
1.6828996e-06
2.5318706e-06
3.8672084e-06
5.9874744e-06
9.3586286e-06
1.4648243e-05
2.2845239e-05
3.4852817e-05
5.1695194e-05
7.4674689e-05
0.00010395689
0.00013484683
0.00016007628
0.00017079233
0.00017243131
0.00017072351
0.00016501562
0.00015490723
0.00014925201
0.00014370878
0.00013907897
0.00013532433
0.00013171195
0.00012795259
0.0001242935
0.00012087251
0.00011781709
0.00011495496
0.00011241299