/*--------------------------------*- C++ -*----------------------------------*\
  =========                 |
  \\      /  F ield         | OpenFOAM: The Open Source CFD Toolbox
   \\    /   O peration     | Website:  https://openfoam.org
    \\  /    A nd           | Version:  13
     \\/     M anipulation  |
\*---------------------------------------------------------------------------*/
FoamFile
{
    format      ascii;
    class       volScalarField;
    location    "5.802535";
    object      omega;
}
// * * * * * * * * * * * * * * * * * * * * * * * * * * * * * * * * * * * * * //

dimensions      [0 0 -1 0 0 0 0];

internalField   nonuniform List<scalar> 
17140
(
4528389.9
731656.64
224624.81
95286.454
48483.404
27611.996
16953.814
10977.012
7390.0226
5124.4804
3635.7812
2626.3091
1924.1325
1425.3312
1064.6991
800.0212
603.238
455.28168
342.9577
257.00785
190.87818
139.91577
100.82505
71.271847
49.559185
34.336524
24.346947
18.318309
14.981863
13.172827
12.130746
11.377634
10.720758
10.112181
9.5463642
9.0229562
8.5419315
8.1038899
7.7104246
7.3622029
7.061214
6.809223
6.6074537
6.4559425
6.3718747
6.3390951
6.3327799
6.3980843
6.4733198
6.5905978
6.7081564
6.8322474
6.9332612
7.0129845
7.0684098
7.0881502
6.8964418
6.5805316
6.0583757
5.4331301
4.788231
4.1846914
3.643856
3.169334
2.7003041
4528420.9
731662.27
224626.9
95287.582
48484.136
27612.544
16954.269
10977.422
7390.4126
5124.8676
3636.1759
2626.7181
1924.5598
1425.7788
1065.167
800.50786
603.73996
455.79371
343.47257
257.51617
191.36826
140.37368
101.23526
71.618865
49.83063
34.527014
24.46228
18.369981
14.992277
13.160319
12.109123
11.355331
10.70089
10.095878
9.53452
9.0165354
8.5416858
8.110293
7.7249915
7.3874413
7.1001348
6.8646686
6.6828814
6.5635152
6.5055548
6.4915353
6.543221
6.6532994
6.7934044
6.9694712
7.1449134
7.3272866
7.4723475
7.5946597
7.657773
7.6663166
7.4226872
6.9633338
6.307184
5.575498
4.8161205
4.0819029
3.4266312
2.9443168
2.5504962
4528451.2
731667.3
224628.53
95288.405
48484.711
27613.047
16954.777
10977.965
7391.0111
5125.5322
3636.9139
2627.5334
1925.4537
1426.7498
1066.2109
801.61705
604.90346
456.99656
344.69536
258.73444
192.552
141.48739
102.23937
72.473701
50.503784
35.003103
24.753804
18.504498
15.025055
13.137459
12.064798
11.310538
10.661158
10.062944
9.5101235
9.0035714
8.5440018
8.130413
7.7675444
7.4569299
7.2023049
7.006507
6.883391
6.821932
6.8028825
6.8586063
6.9952359
7.1595782
7.3608784
7.5718039
7.7764421
7.9469088
8.0494884
8.0910792
8.0912738
8.0020022
7.6809945
7.0781903
6.2438808
5.3080787
4.3872754
3.5602218
2.8331897
2.3896029
2.1102173
4528483
731672.57
224630.28
95289.354
48485.437
27613.739
16955.516
10978.784
7391.9296
5126.5642
3638.0682
2628.8151
1926.864
1428.2863
1067.8667
803.38076
606.75802
458.91874
346.65482
260.69273
194.46168
143.29189
103.87503
73.875725
51.617749
35.800695
25.250841
18.746747
15.095961
13.114257
12.004133
11.24438
10.601406
10.013687
9.4741426
8.9841931
8.5471066
8.1611179
7.8314386
7.5603635
7.351556
7.2182526
7.1495111
7.1244851
7.1417634
7.2661642
7.4181934
7.6062072
7.8050287
8.0033635
8.1686514
8.2578725
8.2976569
8.2645272
8.1909228
8.0492984
7.6711171
6.8243303
5.769552
4.6802676
3.6809616
2.8807867
2.2168757
1.8403032
1.6074872
4528516.9
731678.18
224632.15
95290.426
48486.307
27614.609
16956.471
10979.86
7393.1489
5127.9423
3639.6159
2630.5388
1928.7661
1430.364
1070.112
805.77918
609.28791
461.54998
349.34754
263.39582
197.11138
145.81136
106.17651
75.868025
53.221232
36.969021
25.991484
19.128986
15.223641
13.102761
11.928335
11.155466
10.519825
9.9463612
9.4244747
8.9558351
8.5437049
8.1927075
7.8995793
7.6707386
7.5132357
7.4274443
7.3889571
7.3795559
7.4346346
7.5603121
7.697397
7.859932
8.0192271
8.1811576
8.2948863
8.34581
8.3558554
8.2176758
8.0697912
7.8779477
7.4664225
6.4857774
5.2528642
4.0616355
3.0506679
2.3122221
1.7573707
1.4625546
1.2377179
4528552.1
731684
224634.11
95291.599
48487.304
27615.633
16957.616
10981.161
7394.6315
5129.6245
3641.5108
2632.6553
1931.108
1432.9299
1072.894
808.7619
612.44706
464.85083
352.74307
266.82465
200.49575
149.05603
109.17063
78.4932
55.36915
38.568583
27.036917
19.697835
15.438159
13.114724
11.842446
11.041532
10.412229
9.8571481
9.3583296
8.9152968
8.5298112
8.2143988
7.9558769
7.7674289
7.6509956
7.5903
7.5653875
7.5605363
7.6153058
7.7053939
7.8038789
7.9180917
8.0452296
8.1901351
8.296333
8.3445912
8.2969282
8.0980403
7.897682
7.6641967
7.215869
6.0925618
4.6994307
3.4595875
2.5041203
1.8579335
1.4021501
1.1711308
0.96563257
4528588.7
731690.02
224636.15
95292.858
48488.403
27616.782
16958.91
10982.641
7396.324
5131.5504
3643.6863
2635.092
1933.8127
1435.9037
1076.1313
812.24864
616.15908
468.75187
356.78235
270.93412
204.58723
153.01918
112.87392
81.79159
58.122874
40.674663
28.465645
20.521257
15.78915
13.180956
11.762862
10.915661
10.289058
9.7520294
9.2758877
8.8594749
8.5037963
8.2131222
7.9964135
7.8356807
7.7433568
7.6932605
7.6695519
7.6608732
7.6843465
7.7347161
7.8039322
7.899047
8.0094256
8.1528977
8.2697377
8.3223433
8.2057726
7.9569739
7.7179771
7.4464309
6.937012
5.6397062
4.1353786
2.9121861
2.0471636
1.5022895
1.1350184
0.94778035
0.76392629
4528626.6
731696.26
224638.28
95294.185
48489.575
27618.015
16960.308
10984.242
7398.1597
5133.6444
3646.0578
2637.7563
1936.7805
1439.1804
1079.7154
816.13009
620.31722
473.15277
361.3758
275.65012
209.33214
157.67251
117.28774
85.796637
61.546812
43.375938
30.377811
21.687297
16.347126
13.349971
11.721859
10.793265
10.156183
9.6340878
9.1798976
8.7883856
8.4614982
8.1939332
7.9962628
7.8673913
7.7880696
7.7393511
7.7088077
7.6913706
7.6870857
7.7240263
7.7729513
7.8378017
7.9551335
8.1211158
8.2263184
8.2612738
8.042664
7.7743427
7.5262396
7.2377737
6.6402786
5.1240037
3.5677483
2.4187062
1.6697518
1.2218784
0.92715524
0.77266934
0.61240748
4528664.7
731702.69
224640.48
95295.557
48490.781
27619.286
16961.749
10985.896
7400.0584
5135.8147
3648.5225
2640.5345
1939.888
1442.628
1083.5079
820.26439
624.7796
477.91602
366.39543
280.85999
214.63954
162.95334
122.38385
90.519216
65.691889
46.757792
32.878716
23.30569
17.213886
13.682876
11.753869
10.691853
10.022548
9.5081737
9.0727895
8.7027456
8.397837
8.1576295
7.9771955
7.8570511
7.7825763
7.7367464
7.7073868
7.6851605
7.6746059
7.6878149
7.7227078
7.8096905
7.9597524
8.1137691
8.1884193
8.0747632
7.7704945
7.5403058
7.3322216
7.0370688
6.3105326
4.5498898
3.0164442
1.9876749
1.3612518
1.0021557
0.76748156
0.63596153
0.49558406
4528704.9
731709.49
224642.87
95297.008
48492.025
27620.57
16963.182
10987.532
7401.9336
5137.9599
3650.9643
2643.2967
1942.9915
1446.0907
1087.3426
824.47735
629.36774
482.86344
371.66914
286.40457
220.37099
168.75255
128.0914
95.934987
70.585961
50.900171
36.090999
25.522486
18.520567
14.283553
11.930513
10.655111
9.9049552
9.3817826
8.9591532
8.606574
8.3197527
8.097888
7.937959
7.8285101
7.7604675
7.7195624
7.6928277
7.6625608
7.6442834
7.6468662
7.7016473
7.8180525
7.9913226
8.0921001
8.1059573
7.770835
7.4341218
7.3138922
7.1737652
6.8589315
5.9081744
3.9619189
2.4983139
1.6187979
1.1151219
0.82984727
0.64041621
0.52737566
0.40615291
4528746.8
731716.59
224645.39
95298.494
48493.261
27621.81
16964.538
10989.065
7403.6869
5139.9668
3653.2545
2645.898
1945.9303
1449.3916
1091.0277
828.56415
633.86668
487.77426
376.97607
292.07026
226.32909
174.89939
134.27789
101.96189
76.208357
55.849881
40.124482
28.490016
20.428658
15.300342
12.332795
10.719073
9.8352275
9.268388
8.8468436
8.5051412
8.2314486
8.0218607
7.872117
7.7733307
7.7139214
7.6805396
7.6577293
7.6241296
7.6073005
7.6181932
7.6970699
7.8352513
7.9921763
8.0653595
7.879274
7.3938786
7.1609965
7.2044017
7.100968
6.7091322
5.3947738
3.3243438
2.0255482
1.3116834
0.91901189
0.69541968
0.54021208
0.44121684
0.33819361
4528789.6
731723.83
224647.91
95299.922
48494.399
27622.918
16965.73
10990.404
7405.2147
5141.7174
3655.259
2648.1867
1948.5338
1452.3409
1094.3536
832.2961
638.03044
492.38839
382.04702
297.58577
232.24976
181.14859
140.73082
108.43617
82.461048
61.589615
45.049369
32.355914
23.1314
16.926432
13.125362
10.997662
9.8571956
9.1927572
8.7449916
8.4066888
8.1382775
7.9354135
7.792194
7.6985082
7.6457081
7.6190977
7.6046995
7.5794726
7.5662377
7.588232
7.6796548
7.8208199
7.9390355
7.8924238
7.5511934
7.0627988
7.0392966
7.1814001
7.0762423
6.5279893
4.6484987
2.6828726
1.6181344
1.0654857
0.76446431
0.58701407
0.45867426
0.37255669
0.28642687
4528834.7
731731.33
224650.43
95301.262
48495.395
27623.84
16966.692
10991.468
7406.421
5143.0997
3656.8479
2650.0133
1950.631
1454.7442
1097.1012
835.42838
641.58823
496.41024
386.56469
302.61764
237.79189
187.16332
147.13329
115.08039
89.129218
67.99224
50.847616
37.2179
26.820863
19.391148
14.524514
11.632718
10.046491
9.2066854
8.6835693
8.3176219
8.050939
7.847815
7.7032587
7.6116154
7.5630808
7.5436454
7.54011
7.5273703
7.5157644
7.5413739
7.6295907
7.7551014
7.7652116
7.6400744
7.1401153
6.9155396
7.0047902
7.3301063
7.1081147
6.2059464
3.7005877
2.0976899
1.2874269
0.87314215
0.6436403
0.50047966
0.39290841
0.31805722
0.24624377
4528880.1
731738.88
224652.9
95302.482
48496.215
27624.532
16967.37
10992.191
7407.229
5144.0227
3657.9144
2651.2526
1952.0757
1456.4311
1099.0727
837.7322
644.27743
499.54121
390.19385
306.79577
242.55563
192.52338
153.05938
121.48365
95.844628
74.766592
57.343292
43.047072
31.621634
22.935443
16.808025
12.877204
10.59261
9.3689061
8.7044849
8.2805076
7.9729755
7.7633805
7.6171425
7.5202037
7.4683811
7.4527738
7.4602498
7.461877
7.4554941
7.4706088
7.5281526
7.5866664
7.5363029
7.3195043
6.9357222
6.874941
7.2558712
7.6132484
7.1276511
5.2968935
2.8981207
1.6442998
1.0349181
0.72638577
0.54837084
0.4300893
0.33921854
0.27478748
0.21495277
4528926.9
731746.58
224655.32
95303.575
48496.842
27624.97
16967.735
10992.539
7407.5945
5144.4323
3658.392
2651.8236
1952.769
1457.2814
1100.1217
839.02992
645.88306
501.52298
392.62733
309.76005
246.12657
196.76305
158.00118
127.11301
102.07659
81.423629
64.141047
49.601155
37.493277
27.727103
20.288537
15.063629
11.755028
9.8568685
8.8683371
8.3156478
7.9633476
7.7052077
7.5328297
7.4297994
7.3740495
7.3560687
7.3654568
7.3811081
7.3790369
7.3817126
7.3968375
7.3826413
7.2979101
7.0272132
6.852013
7.0686194
7.8588333
7.7836036
6.8945202
4.1098126
2.1360595
1.2475505
0.8350849
0.61387439
0.4733676
0.37383962
0.29603534
0.24047602
0.19039336
4528977.9
731754.72
224657.75
95304.55
48497.279
27625.159
16967.788
10992.511
7407.5147
5144.3217
3658.2681
2651.7046
1952.6763
1457.242
1100.1706
839.21268
646.25776
502.16206
393.61841
311.20409
248.13086
199.43167
161.42719
131.36011
107.15577
87.265259
70.567011
56.3064
44.052927
33.650237
25.1306
18.577877
13.962353
11.041226
9.3769539
8.5081523
8.0212774
7.714187
7.5022613
7.3530583
7.2732384
7.250016
7.2583199
7.2842025
7.2847501
7.2780782
7.2603907
7.2103171
7.0814635
6.9190411
7.0302254
7.7310736
8.4965531
7.9409101
5.8854706
2.9612619
1.615835
1.0009267
0.69440477
0.52458589
0.4113366
0.32752935
0.26073156
0.21310209
0.17121907
4529031.7
731763.1
224660.18
95305.432
48497.562
27625.138
16967.577
10992.162
7407.0531
5143.7627
3657.6229
2650.9841
1951.894
1456.4156
1099.3242
838.37903
645.48006
501.49676
393.13786
311.00053
248.32369
200.16917
162.86895
133.65754
110.40659
91.513303
75.768721
62.298211
50.52626
40.15436
31.127218
23.56251
17.619474
13.360125
10.620519
9.0878499
8.2709286
7.8133977
7.5336916
7.3544756
7.2331294
7.1635862
7.1505154
7.1638887
7.1645881
7.1542702
7.1208416
7.0745336
6.9981007
7.0947353
7.6025688
9.0190113
8.7972861
7.6444003
4.2161346
2.1118987
1.1993903
0.79208501
0.59130725
0.46007555
0.36221147
0.28955189
0.23193846
0.19113044
0.15620875
4529085.9
731771.61
224662.62
95306.258
48497.741
27624.972
16967.182
10991.584
7406.316
5142.8757
3656.5908
2649.8103
1950.5829
1454.9752
1097.7677
836.72737
643.7645
499.76142
391.44215
309.42059
246.95128
199.11155
162.25603
133.65023
111.23084
93.37976
78.819329
66.529364
55.805114
46.189315
37.463573
29.62919
22.848749
17.345103
13.254329
10.520616
9.0005585
8.170932
7.7046309
7.4318177
7.2661108
7.1713032
7.1285015
7.1212904
7.1139982
7.0914312
7.0703337
7.0902891
7.2206529
7.7234224
9.3374318
9.8370097
8.9761996
5.9768001
2.8232374
1.5046433
0.95825366
0.69010712
0.52059796
0.40442516
0.32027144
0.25678912
0.20777699
0.17339715
0.14451023
4529139.6
731780.27
224665.1
95307.065
48497.875
27624.739
16966.694
10990.891
7405.4351
5141.8131
3655.3459
2648.3801
1948.9637
1453.1647
1095.7671
834.54304
641.41088
497.26374
388.83974
306.77035
244.33072
196.62081
160.01782
131.80425
109.91296
92.749866
79.08363
67.970624
58.613683
50.328137
42.696384
35.532528
28.853463
22.834418
17.722754
13.715679
10.832571
9.1957816
8.2723721
7.7573607
7.4681778
7.3084501
7.2299861
7.2102268
7.1987724
7.2177918
7.2902791
7.4788612
8.0251153
9.6734854
10.789698
10.177511
8.0201369
3.765295
1.8816055
1.1091791
0.75790339
0.56765701
0.44662193
0.35534635
0.28403697
0.22996929
0.18819388
0.15910875
0.13528435
4529196.7
731789.34
224667.69
95307.927
48498.04
27624.525
16966.221
10990.206
7404.5563
5140.7446
3654.0843
2646.9177
1947.2911
1451.2718
1093.645
832.18509
638.81502
494.43485
385.79284
303.53436
240.95287
193.17116
156.59318
128.53036
106.94331
90.26292
77.237385
66.880094
58.447728
51.381924
45.187781
39.430457
33.838307
28.396819
23.257176
18.65575
14.821993
11.809271
9.8710066
8.7645877
8.1259966
7.7904648
7.6177418
7.5904299
7.6354552
7.7782971
8.0792013
8.7268378
10.371729
11.83671
11.369765
9.6962941
5.1355525
2.4756981
1.3860452
0.90461736
0.6612681
0.50739962
0.39739267
0.31564001
0.2546658
0.20813323
0.17279056
0.14799236
0.12817077
4529258.1
731798.94
224670.46
95308.888
48498.291
27624.399
16965.844
10989.628
7403.7979
5139.8094
3652.9683
2645.6119
1945.7834
1449.548
1091.6898
829.98333
636.35252
491.7003
382.78009
300.24553
237.40252
189.39162
152.64109
124.4946
102.95515
86.47374
73.839629
64.080202
56.374302
50.096263
44.756975
40.122235
35.903759
31.849821
27.750514
23.688946
19.859129
16.459544
13.628692
11.509625
10.082806
9.3182738
8.9068584
8.9152035
9.0874997
9.5081539
10.126589
11.573625
13.06187
12.670307
11.257229
6.841797
3.1998692
1.6431281
0.99466831
0.7050281
0.54424687
0.42974075
0.3475682
0.28226485
0.22920764
0.18903123
0.1594041
0.13868843
0.12239095
4529319.5
731808.75
224673.34
95309.953
48498.648
27624.392
16965.603
10989.208
7403.2204
5139.0803
3652.0847
2644.5655
1944.5621
1448.1368
1090.0714
828.13837
634.26048
489.34002
380.13099
297.28923
234.12505
185.78633
148.71212
120.25969
98.444703
81.764156
69.061707
59.447207
52.190517
46.669346
42.310607
38.583859
35.223955
32.093166
29.190908
26.369356
23.526131
20.723809
18.121426
15.897792
14.181647
12.964446
12.195399
12.031866
12.136605
12.455822
13.269371
14.469469
14.092191
12.765919
8.6065762
3.9330647
1.9162073
1.1348586
0.79251351
0.61540143
0.49037893
0.39139647
0.31004973
0.25045649
0.20736404
0.1741544
0.14915564
0.13150954
0.11777854
4529381.2
731818.78
224676.35
95311.112
48499.097
27624.487
16965.48
10988.924
7402.7998
5138.531
3651.4059
2643.7509
1943.6012
1447.0164
1088.7754
826.64831
632.55532
487.39634
377.92311
294.79011
231.30755
182.62487
145.18418
116.34891
94.143475
77.088482
64.065231
54.201414
46.812469
41.351082
37.387445
34.487709
32.245124
30.217995
28.199666
26.145853
24.214024
22.385725
20.649599
18.992027
17.528087
16.362104
15.539566
14.949099
14.838539
15.092582
15.975887
15.578176
14.230256
10.169741
4.6105678
2.2721947
1.3167236
0.90027696
0.67980248
0.52604645
0.41264221
0.33680244
0.27940559
0.22989662
0.19048662
0.16131083
0.14032941
0.12559468
0.11403037
4529447.3
731829.39
224679.51
95312.334
48499.587
27624.615
16965.388
10988.673
7402.4158
5138.0245
3650.7778
2642.9965
1942.712
1445.9807
1087.5791
825.27478
630.9858
485.61006
375.89761
292.50149
228.73121
179.73676
141.96353
112.77947
90.217634
72.799124
59.417715
49.219633
41.546332
35.879089
31.797439
28.931866
26.974538
25.688241
24.752357
23.912405
22.867929
21.72873
20.553284
19.463283
18.407755
17.465132
16.575038
16.296261
16.622831
17.587484
17.14089
15.646882
11.481023
5.3373662
2.6504631
1.5174376
1.0055015
0.73061703
0.56065952
0.4561522
0.37663501
0.30292657
0.24588659
0.2047632
0.1744591
0.15090562
0.13325617
0.12073684
0.11091612
4529517.1
731840.5
224682.84
95313.622
48500.096
27624.738
16965.273
10988.388
7401.9911
5137.4724
3650.1014
2642.1931
1941.7749
1444.9004
1086.3433
823.86961
629.39561
483.81823
373.88664
290.25297
226.22564
176.95395
138.88394
109.38828
86.509849
68.780871
55.094115
44.608194
36.675687
30.790287
26.54508
23.600856
21.666259
20.482654
19.80187
19.392819
19.104036
18.80107
18.423063
17.940515
17.26512
16.876945
17.325921
18.42617
19.2831
18.741194
16.958222
12.394327
6.000284
3.024125
1.7229402
1.1216847
0.79107326
0.61209501
0.50388849
0.40780814
0.32906095
0.27268429
0.22786251
0.19184851
0.16292511
0.14185002
0.12696335
0.116523
0.10826766
4529588.1
731851.87
224686.27
95314.935
48500.593
27624.825
16965.104
10988.034
7401.4844
5136.8265
3649.3204
2641.2757
1940.7169
1443.6955
1084.9842
822.34812
627.70317
481.94571
371.82466
287.9922
223.75744
174.27111
135.98133
106.26357
83.164576
65.222302
51.333088
40.65863
32.561722
26.546325
22.213123
19.227267
17.298514
16.170898
15.597315
15.366407
15.323999
15.511782
15.813018
16.228017
17.065423
18.503591
20.675927
20.873784
20.207298
18.055203
12.950704
6.5563895
3.3866329
1.9352078
1.2411007
0.86146793
0.66702325
0.54113803
0.43156402
0.34931775
0.28932916
0.2419575
0.20362029
0.17412705
0.1525167
0.13544657
0.12246714
0.1131763
0.10608055
4529661.3
731863.7
224689.83
95316.341
48501.177
27625.005
16965.042
10987.804
7401.1219
5136.3474
3648.7314
2640.5785
1939.9101
1442.7762
1083.9487
821.19242
626.42324
480.53798
370.28638
286.32181
221.95464
172.33656
133.9161
104.06864
80.840967
62.772439
48.768734
38.001547
29.838905
23.787734
19.447178
16.47695
14.605722
13.662843
13.265039
13.322725
13.821354
14.800781
16.359738
18.34147
20.615856
22.462416
22.353211
21.518372
18.979216
13.308804
7.0864739
3.7619887
2.1626955
1.3755151
0.95007583
0.72936278
0.58049145
0.46018568
0.37862485
0.31808085
0.26861409
0.22608402
0.1924755
0.16432288
0.14303498
0.12819611
0.11789143
0.11039832
0.10448883
4529737.4
731876.01
224693.62
95317.945
48501.992
27625.468
16965.324
10987.985
7401.2396
5136.4242
3648.7793
2640.6042
1939.9174
1442.7667
1083.9225
821.14834
626.35918
480.45078
370.17178
286.17445
221.76825
172.10442
133.63181
103.72709
80.439336
62.31038
48.245778
37.426179
29.227894
23.165883
18.836198
15.919414
14.191722
13.438901
13.367491
13.963656
15.271407
17.269504
19.814977
22.349208
24.082282
23.771963
22.709578
19.726543
13.707998
7.7137047
4.2373252
2.4260868
1.5221789
1.050747
0.79600242
0.62243597
0.49359656
0.41135017
0.34623167
0.2876524
0.23912071
0.2014785
0.17375571
0.15355511
0.13735466
0.12443518
0.11470308
0.10799445
0.10307975
4529816
731888.76
224697.6
95319.731
48503.014
27626.181
16965.909
10988.524
7401.7772
5136.9863
3649.3832
2641.2617
1940.6371
1443.5549
1084.7838
822.08588
627.37435
481.54337
371.33968
287.41349
223.07208
173.46436
135.03657
105.16242
81.887698
63.75115
49.657335
38.781393
30.500641
24.348212
19.972941
17.097833
15.525293
15.018822
15.434244
16.686529
18.674102
21.247448
23.995519
25.768406
25.357571
23.983614
20.495143
14.337251
8.4390936
4.7066829
2.6344834
1.6490043
1.1485326
0.86889334
0.6716445
0.53448613
0.44552877
0.36978361
0.30392565
0.25472729
0.21928794
0.19044686
0.16519159
0.14477477
0.12980424
0.1193615
0.1118926
0.1062235
0.10211223
4529897.8
731902.07
224701.75
95321.62
48504.125
27626.986
16966.598
10989.183
7402.4548
5137.7113
3650.1757
2642.1368
1941.6067
1444.6291
1085.9711
823.39352
628.80841
483.10861
373.0394
289.24938
225.04359
175.56839
137.26718
107.51078
84.34222
66.298261
52.282325
41.47287
33.257113
27.18015
22.90453
20.175892
18.803185
18.628973
19.371072
21.057826
23.269668
25.753808
27.73577
27.194541
25.498336
21.475376
15.166639
9.1911854
5.1161806
2.8709632
1.8196382
1.2908684
0.972165
0.74059006
0.58358301
0.48059237
0.39309113
0.32606217
0.27784616
0.23960984
0.20511103
0.17633381
0.15518942
0.1389899
0.12639929
0.1165381
0.10942448
0.10452658
0.10112102
4529983.7
731915.91
224706.03
95323.529
48505.202
27627.722
16967.191
10989.722
7402.9882
5138.2701
3650.7804
2642.803
1942.3475
1445.4558
1086.8944
824.42354
629.95523
484.38216
374.44959
290.80592
226.75601
177.44565
139.31755
109.74165
86.760878
68.911555
55.098432
44.503359
36.518355
30.696345
26.712402
24.330154
23.363546
23.574687
24.570556
26.330452
28.687379
30.185559
29.387702
27.296639
22.638795
16.115968
9.9451062
5.5583996
3.1582632
2.0250562
1.4418499
1.0666866
0.80146942
0.63228607
0.51585379
0.42310514
0.35486146
0.30408172
0.25805293
0.21831725
0.18782953
0.16449395
0.14629728
0.13162614
0.12096033
0.11350385
0.10766704
0.10351905
0.10043209
4530071.7
731930.12
224710.43
95325.429
48506.212
27628.348
16967.635
10990.077
7403.3044
5138.5769
3651.0976
2643.1455
1942.7277
1445.8853
1087.3845
824.98587
630.60234
485.12773
375.30868
291.79526
227.89429
178.75388
140.81923
111.46316
88.731283
71.16388
57.669882
47.43642
39.861982
34.505329
31.043168
29.228402
28.835465
29.315511
30.614933
32.617409
32.943539
31.838742
29.166182
23.900882
17.137088
10.719992
6.0637834
3.4898229
2.2592305
1.6004973
1.173859
0.89011877
0.70783973
0.57096464
0.46340099
0.38869103
0.32722089
0.27425329
0.23191341
0.20151785
0.17783717
0.15749104
0.14115653
0.1283655
0.11814637
0.11089539
0.10571802
0.10225208
0.099671559
4530163.2
731944.96
224714.99
95327.374
48507.221
27628.947
16968.032
10990.369
7403.5422
5138.7904
3651.3068
2643.3652
1942.9702
1446.1621
1087.707
825.36681
631.05564
485.66944
375.95746
292.57293
228.82645
179.87062
142.1558
113.06059
90.6369
73.431572
60.35984
50.613754
43.592765
38.847566
36.028948
34.836043
34.930226
35.666404
36.56221
35.849953
34.315107
30.921199
25.186449
18.190718
11.532585
6.6373045
3.8905232
2.5289116
1.7762942
1.3032312
0.99886167
0.78746218
0.6212376
0.50052029
0.41797832
0.35160518
0.29531094
0.25332391
0.22013142
0.19213407
0.16694624
0.14742912
0.13347085
0.12298549
0.11525502
0.1093185
0.1046364
0.1015483
0.099168206
4530257.7
731960.25
224719.7
95329.411
48508.298
27629.607
16968.491
10990.727
7403.8533
5139.0865
3651.6093
2643.6903
1943.3314
1446.572
1088.1789
825.91462
631.69541
486.41968
376.84
293.61374
230.05657
181.32709
143.88265
115.10947
93.067125
76.306223
63.738427
54.558806
48.1472
44.010749
41.719947
40.831908
40.784856
40.429026
39.054784
36.712003
32.686992
26.539159
19.276483
12.394343
7.2928182
4.3487513
2.8182483
1.963329
1.4496152
1.1180521
0.87372373
0.68665575
0.5580595
0.4651812
0.38684072
0.32571324
0.27724229
0.23834196
0.20405843
0.17736195
0.15740188
0.14268909
0.1302824
0.11984824
0.1123013
0.10715476
0.10326296
0.10067391
0.098654934
4530355.2
731976.05
224724.61
95331.562
48509.475
27630.367
16969.06
10991.211
7404.3085
5139.5481
3652.1014
2644.2314
1943.9377
1447.2591
1088.9628
826.81279
632.72745
487.60833
378.212
295.20089
231.89689
183.46616
146.37411
118.01094
96.431362
80.164611
68.123793
59.492339
53.594008
49.849146
47.733522
46.391634
44.692043
42.282683
39.271649
34.516536
27.901357
20.361611
13.309594
8.0350798
4.8659034
3.1395668
2.1805472
1.6234605
1.2556038
0.97675076
0.77028473
0.62392852
0.50950431
0.41792707
0.35222045
0.30151364
0.25520702
0.21916652
0.19051085
0.17026321
0.15182614
0.1366807
0.12554892
0.11708548
0.11079713
0.10592358
0.10231176
0.10012472
0.098262771
4530457.6
731992.61
224729.76
95333.85
48510.758
27631.232
16969.742
10991.822
7404.9103
5140.1786
3652.7874
2644.9947
1944.7977
1448.2348
1090.074
828.08121
634.1775
489.26812
380.11427
297.38329
234.40188
186.33923
149.66044
121.75492
100.67308
84.936271
73.402814
65.170077
59.476859
55.535517
52.385334
49.267459
45.948375
42.012252
36.431082
29.321728
21.540694
14.357101
8.8971092
5.4587462
3.5074785
2.4325662
1.8178718
1.4040175
1.0927882
0.86551118
0.69735169
0.5640395
0.46528419
0.39388311
0.33315933
0.28073754
0.23966575
0.20980644
0.18295964
0.16156377
0.14390182
0.13140468
0.12181336
0.11398885
0.10855072
0.10475668
0.10152139
0.099521306
0.097784714
4530563.2
732009.77
224735.14
95336.265
48512.142
27632.199
16970.535
10992.559
7405.6564
5140.9748
3653.6635
2645.9752
1945.9051
1449.4912
1091.5023
829.70626
636.02637
491.37037
382.50154
300.08899
237.4596
189.78012
153.50886
126.01973
105.33888
89.95887
78.637751
70.344841
64.114202
59.039522
54.474417
50.050785
44.984225
38.552078
30.942825
22.914737
15.568059
9.8701377
6.1216225
3.9266742
2.7203839
2.0326161
1.5694557
1.2289332
0.97850461
0.78448164
0.63292369
0.52087478
0.43429099
0.36159538
0.30600125
0.26398778
0.22655056
0.19560589
0.17135022
0.15374806
0.13973675
0.12876643
0.11947142
0.11263056
0.10713315
0.10344719
0.10079179
0.099112578
0.097512904
4530672.5
732027.54
224740.72
95338.799
48513.621
27633.258
16971.429
10993.41
7406.5311
5141.9177
3654.7069
2647.1456
1947.2267
1450.9878
1093.198
831.62621
638.197
493.81888
385.25488
303.17125
240.88782
193.55765
157.61544
130.3975
109.87366
94.455425
82.86225
73.945465
66.762535
60.573075
54.758649
48.393265
41.033012
32.860406
24.521585
16.947558
10.967563
6.891062
4.435311
3.0670778
2.2811557
1.7613044
1.3877767
1.1072997
0.8851582
0.71370213
0.58510238
0.48251802
0.40272376
0.34306367
0.29304011
0.24818253
0.21237167
0.18764275
0.16632213
0.14944235
0.13487846
0.1244362
0.11578387
0.11016861
0.1061297
0.10276082
0.10016591
0.098694432
0.097219436
4530784.7
732045.89
224746.5
95341.444
48515.185
27634.393
16972.398
10994.341
7407.4949
5142.9601
3655.8615
2648.4403
1948.6867
1452.6372
1095.0609
833.72651
640.55809
496.462
388.19626
306.41805
244.43195
197.36719
161.62376
134.49096
113.88026
98.137804
85.918477
76.107566
67.826757
60.209697
52.360681
43.967929
35.15309
26.434381
18.573071
12.270545
7.8331924
5.0651692
3.476942
2.5592849
1.9740937
1.5641797
1.2512132
1.0023469
0.8104176
0.66117202
0.54250819
0.45153151
0.38075544
0.32041263
0.27266415
0.23563621
0.20446797
0.17943992
0.15759756
0.14283409
0.13025002
0.12204926
0.11432912
0.10857606
0.10463624
0.10188267
0.099695205
0.098333879
0.096997369
4530901
732061.48
224749.63
95341.977
48515.186
27634.352
16972.466
10994.569
7407.907
5143.5684
3656.6763
2649.4721
1949.947
1454.1383
1096.8158
835.74739
642.85409
499.03652
391.04273
309.5139
247.73109
200.79134
165.05377
137.76073
116.77733
100.41503
87.335111
76.42374
66.594587
57.083947
47.54254
37.988328
28.792538
20.553034
13.849453
8.9799177
5.8250311
3.9580177
2.8823376
2.2232027
1.7703304
1.4207925
1.14221
0.92442808
0.75087195
0.61388437
0.50907646
0.42489721
0.35814312
0.30590715
0.26221529
0.22413079
0.19294209
0.17106868
0.15302669
0.14006397
0.1278108
0.11936305
0.1124741
0.10774109
0.10387302
0.10117594
0.099222324
0.098015788
0.096831684
4531685.4
732195.57
224794.79
95363.392
48527.361
27642.176
16977.976
10998.751
7411.2904
5146.4654
3659.2834
2651.9206
1952.329
1456.5207
1099.2472
838.26201
645.47212
501.76247
393.86203
312.38784
250.59086
203.53247
167.53329
139.79996
118.18068
100.96075
86.695326
74.217596
62.738003
51.803176
41.307001
31.469408
22.734501
15.56776
10.237532
6.6747435
4.5084626
3.256332
2.504424
1.994401
1.6040336
1.2953372
1.0506908
0.85359102
0.69814175
0.57607187
0.47805253
0.4012443
0.34029689
0.28858082
0.24739439
0.21367939
0.18703436
0.16644374
0.14772798
0.13477173
0.12353287
0.11626161
0.11010779
0.10630995
0.10300131
0.10055208
0.098804914
0.097665771
0.096711892
4531684.6
732191.89
224791.82
95361.221
48525.89
27641.21
16977.388
10998.463
7411.2573
5146.66
3659.6901
2652.5306
1953.1373
1457.5234
1100.4389
839.63199
647.00088
503.41681
395.58961
314.11154
252.204
204.89725
168.48801
140.1406
117.62905
99.206482
83.549645
69.700688
57.056005
45.363161
34.68732
25.315976
17.599994
11.754971
7.7305985
5.2033268
3.7138764
2.8258654
2.2420159
1.8112258
1.4734997
1.1997635
0.97601633
0.79752924
0.65449191
0.54056023
0.45186186
0.38004909
0.32310447
0.2762655
0.23754187
0.20491035
0.17804363
0.15831719
0.14218564
0.13152743
0.12183174
0.11498264
0.10893161
0.10522039
0.10217688
0.10008144
0.098529152
0.097420666
0.096613478
4531684.8
732192
224791.93
95361.373
48526.089
27641.46
16977.694
10998.832
7411.6953
5147.1735
3660.2848
2653.2112
1953.906
1458.3786
1101.3728
840.62801
648.03013
504.43428
396.53062
314.88964
252.7032
204.9645
167.91489
138.70683
115.16286
95.62861
78.890784
64.13562
50.920496
39.12829
28.879214
20.393542
13.835261
9.1707064
6.13126
4.2961406
3.2145801
2.536925
2.057573
1.6817952
1.3722165
1.1182669
0.91410912
0.74940174
0.61802982
0.51374344
0.42970207
0.36266727
0.30872004
0.26347155
0.22737385
0.19666772
0.17260382
0.15526894
0.13968901
0.12870412
0.11915297
0.11316868
0.10779389
0.10441559
0.10142002
0.099491442
0.09817878
0.097192095
0.096468128
4531684.9
732192.07
224791.98
95361.432
48526.166
27641.559
16977.818
10998.986
7411.8822
5147.3962
3660.5452
2653.509
1954.2378
1458.7359
1101.7397
840.97871
648.32507
504.61612
396.51877
314.57287
251.94662
203.61962
165.84697
135.80692
111.37401
90.978303
73.520066
58.311257
45.016005
33.5668
24.047223
16.551702
11.063623
7.3628762
5.0687635
3.7180019
2.9009257
2.3467625
1.9212375
1.5743011
1.2899508
1.0570358
0.86600778
0.711877
0.5877023
0.48854597
0.41027477
0.34684093
0.29662771
0.25386774
0.21918466
0.19030492
0.16709839
0.14961601
0.13502369
0.12544525
0.11667525
0.11149806
0.10657282
0.1036774
0.10099187
0.099248379
0.097967861
0.097028368
0.096393768
4531686.1
732192.16
224791.97
95361.395
48526.118
27641.504
16977.758
10998.92
7411.8123
5147.3218
3660.4641
2653.4163
1954.1242
1458.5859
1101.5291
840.67192
647.87234
503.95149
395.56005
313.22595
250.10844
201.18891
162.74076
131.9827
106.8547
85.874291
68.039357
52.748374
39.714249
28.857962
20.183807
13.654571
9.0940965
6.1625786
4.4008714
3.3542923
2.6843198
2.1982028
1.8112615
1.4911511
1.2235476
1.002302
0.82301576
0.67814278
0.56201824
0.46925021
0.39424486
0.33380099
0.28552802