/*--------------------------------*- C++ -*----------------------------------*\
  =========                 |
  \\      /  F ield         | OpenFOAM: The Open Source CFD Toolbox
   \\    /   O peration     | Website:  https://openfoam.org
    \\  /    A nd           | Version:  13
     \\/     M anipulation  |
\*---------------------------------------------------------------------------*/
FoamFile
{
    format      ascii;
    class       surfaceScalarField;
    location    "5.802535";
    object      phi;
}
// * * * * * * * * * * * * * * * * * * * * * * * * * * * * * * * * * * * * * //

dimensions      [0 3 -1 0 0 0 0];

internalField   nonuniform List<scalar> 
34068
(
-2.9717347e-07
2.0486321e-07
9.2310257e-08
-1.3162793e-06
7.0251056e-07
3.1659529e-07
-3.2893757e-06
1.3601022e-06
6.1299418e-07
-6.5045655e-06
2.2162683e-06
9.9892147e-07
-1.1317285e-05
3.3174424e-06
1.4952775e-06
-1.8163179e-05
4.7189428e-06
2.1269505e-06
-2.757264e-05
6.4861332e-06
2.9233285e-06
-4.0186935e-05
8.6955097e-06
3.9187845e-06
-5.6775627e-05
1.1435617e-05
5.153075e-06
-7.8254858e-05
1.480764e-05
6.6715911e-06
-0.00010570566
1.8925441e-05
8.5253597e-06
-0.00014039116
2.3914811e-05
1.0770686e-05
-0.00018377105
2.9911604e-05
1.3468289e-05
-0.0002375113
3.705845e-05
1.6681805e-05
-0.00030348655
4.5499749e-05
2.0475492e-05
-0.00038377251
5.5374813e-05
2.4911148e-05
-0.00048062602
6.6809306e-05
3.0044205e-05
-0.00059645108
7.9905656e-05
3.5919412e-05
-0.00073375157
9.4733853e-05
4.2566629e-05
-0.00089507461
0.00011132513
4.9997914e-05
-0.0010829539
0.00012967193
5.8207312e-05
-0.0012998675
0.00014973847
6.7175195e-05
-0.0015482313
0.00017148518
7.6878641e-05
-0.0018304481
0.00019490852
8.7308243e-05
-0.0021490304
0.0002200924
9.8489859e-05
-0.0025067901
0.0002472552
0.00011050451
-0.002907046
0.0002767624
0.00012349352
-0.0033537326
0.00030905747
0.00013762916
-0.0038515737
0.00034470222
0.00015313885
-0.0044061574
0.00038429987
0.00017028388
-0.0050239638
0.00042845119
0.00018935513
-0.005712372
0.00047773015
0.00021067807
-0.0064796716
0.00053268112
0.00023461848
-0.0073350725
0.00059382587
0.00026157502
-0.0082886876
0.00066166767
0.0002919475
-0.0093514486
0.00073668206
0.00032607885
-0.010534914
0.0008192852
0.00036418029
-0.011850942
0.00090976651
0.00040626094
-0.0133112
0.0010081716
0.00045208673
-0.014926511
0.0011141285
0.00050118208
-0.016705991
0.0012266215
0.00055285934
-0.018655895
0.0013436939
0.00060620946
-0.020777905
0.0014620409
0.0006599697
-0.023067026
0.0015767702
0.0007123504
-0.025508039
0.0016806198
0.00076039304
-0.028070857
0.0017633874
0.00079943092
-0.030696784
0.0018044351
0.00082149198
-0.033305182
0.0017891491
0.00081924859
-0.035775092
0.0016947157
0.000775194
-0.037880876
0.0014547502
0.00065103371
-0.039412216
0.0010638121
0.00046752835
-0.040181915
0.00054110823
0.00022859087
-0.039910723
-0.0001625057
-0.00010868614
-0.038254422
-0.0011049834
-0.00055131828
-0.034659983
-0.0024280147
-0.0011664241
-0.028517334
-0.0041792877
-0.0019633608
-0.019462382
-0.0061983257
-0.0028566265
-0.0075554251
-0.0082030255
-0.0037039316
0.0064625603
-0.0097368201
-0.0042811652
0.021550161
-0.010579532
-0.0045080685
0.036945866
-0.010921681
-0.0044740245
0.052294876
-0.011022292
-0.0043267179
0.067535169
-0.011077539
-0.0041627544
0.082485126
-0.010972119
-0.0039778382
-0.010250665
0.096356429
-0.0036206382
-2.959518e-07
5.0081501e-07
-1.3109487e-06
1.7175075e-06
-3.2762438e-06
3.3253973e-06
-6.4791531e-06
5.4191775e-06
-1.1274302e-05
8.1125913e-06
-1.8096567e-05
1.1541208e-05
-2.7475725e-05
1.5865292e-05
-4.0052722e-05
2.1272507e-05
-5.6597344e-05
2.7980238e-05
-7.80268e-05
3.6237096e-05
-0.0001054245
4.6323137e-05
-0.00014005778
5.8548097e-05
-0.00018339321
7.3247028e-05
-0.00023710704
9.0772283e-05
-0.00030308872
0.00011148143
-0.0003834344
0.00013572049
-0.00048042789
0.0001638028
-0.00059650746
0.00019598522
-0.00073421869
0.00023244508
-0.00089615703
0.00027326347
-0.0010849089
0.00031842385
-0.0013030063
0.0003678358
-0.0015529144
0.00042139326
-0.001837076
0.00047907016
-0.0021580293
0.00054104568
-0.0025185963
0.00060782225
-0.0029220947
0.00068026076
-0.0033724647
0.00075942745
-0.0038744273
0.00084666487
-0.0044335689
0.00094344144
-0.0050563686
0.0010512509
-0.0057502019
0.0011715634
-0.0065233428
0.001305822
-0.0073849631
0.0014554462
-0.0083451019
0.0016218064
-0.0094145637
0.0018061438
-0.010604704
0.002009426
-0.011927071
0.0022321327
-0.01339287
0.0024739708
-0.01501226
0.002733519
-0.016793438
0.003007799
-0.018741419
0.0032916752
-0.020856313
0.0035769351
-0.023131032
0.003851489
-0.025547673
0.0040972605
-0.028072214
0.0042879286
-0.030644503
0.004376724
-0.033169514
0.0043141607
-0.035491705
0.0040169059
-0.037423188
0.0033862339
-0.038757769
0.0023983927
-0.03924266
0.0010259996
-0.038623631
-0.00078153499
-0.036548861
-0.0031797539
-0.032463809
-0.0065130659
-0.025744858
-0.010898239
-0.016055367
-0.015887817
-0.0035482707
-0.020710122
0.010997636
-0.024282727
0.026476754
-0.02605865
0.042105064
-0.026549991
0.057425013
-0.026342241
0.072270905
-0.025923431
0.086575998
-0.025277212
-0.023674149
0.099999483
-2.8477649e-07
7.855915e-07
-1.2618387e-06
2.6945697e-06
-3.1543915e-06
5.21795e-06
-6.2400476e-06
8.5048336e-06
-1.0861855e-05
1.2734399e-05
-1.744106e-05
1.8120413e-05
-2.6491601e-05
2.4915832e-05
-3.8636361e-05
3.3417267e-05
-5.4624893e-05
4.3968771e-05
-7.5352345e-05
5.6964548e-05
-0.00010187877
7.2849559e-05
-0.00013544788
9.211721e-05
-0.00017750366
0.00011530281
-0.0002297029
0.00014297152
-0.00029392103
0.00017569956
-0.00037224854
0.000214048
-0.00046697509
0.00025852934
-0.00058055901
0.00030956915
-0.00071558186
0.00036746793
-0.0008746907
0.00043237231
-0.0010605356
0.00050426871
-0.0012757162
0.00058301647
-0.0015227583
0.0006684353
-0.0018041413
0.00076045322
-0.0021224004
0.00085930477
-0.0024803075
0.00096572933
-0.0028810918
0.0010810451
-0.0033286427
0.0012069783
-0.0038275379
0.00134556
-0.0043832043
0.0014991079
-0.0050019505
0.0016699971
-0.0056909554
0.0018605683
-0.0064582431
0.0020731098
-0.0073126514
0.0023098545
-0.0082637647
0.0025729197
-0.0093217715
0.0028641507
-0.0104972
0.0031848548
-0.011800495
0.0035354275
-0.01324141
0.0039148855
-0.014828212
0.0043203214
-0.016566675
0.004746262
-0.018458779
0.0051837791
-0.020500958
0.0056191135
-0.022681548
0.0060320793
-0.024977228
0.0063929408
-0.027346782
0.0066574823
-0.029722713
0.0067526555
-0.031997856
0.0065893031
-0.03401753
0.00603658
-0.035584059
0.0049527626
-0.036456685
0.0032710191
-0.036392725
0.00096203973
-0.0351625
-0.0020117603
-0.032428484
-0.0059137699
-0.027648527
-0.011293023
-0.02017774
-0.018369025
-0.0097229029
-0.026342654
0.0033966035
-0.033829628
0.018275125
-0.039161248
0.03385482
-0.041638346
0.049257401
-0.041952572
0.063969828
-0.041054668
0.077800978
-0.039754581
0.090832998
-0.038309231
-0.036173146
0.10333199
-2.6331804e-07
1.0489095e-06
-1.1674086e-06
3.5986603e-06
-2.9198029e-06
6.9703443e-06
-5.7790767e-06
1.1364107e-05
-1.0065406e-05
1.7020729e-05
-1.6172848e-05
2.4227855e-05
-2.4583464e-05
3.3326447e-05
-3.588322e-05
4.4717023e-05
-5.0779689e-05
5.886524e-05
-7.012113e-05
7.6305989e-05
-9.4916537e-05
9.7644966e-05
-0.00012635563
0.0001235563
-0.00016582756
0.00015477474
-0.00021493637
0.00019208033
-0.00027551081
0.000236274
-0.00034960557
0.00028814277
-0.00043949075
0.00034841452
-0.00054762654
0.00041770494
-0.00067662164
0.00049646304
-0.00082917619
0.00058492685
-0.0010080152
0.00068310767
-0.0012158239
0.00079082517
-0.0014552051
0.0009078165
-0.0017286824
0.0010339306
-0.0020387716
0.0011693939
-0.002388135
0.0013150927
-0.0027798297
0.0014727398
-0.0032176126
0.0016447613
-0.0037057931
0.0018337406
-0.0042494694
0.0020427841
-0.0048546091
0.0022751367
-0.0055280045
0.0025339637
-0.0062772022
0.0028223074
-0.0071104232
0.0031430756
-0.0080364415
0.0034989379
-0.0090643801
0.0038920894
-0.010203379
0.0043238535
-0.011462091
0.0047941401
-0.012848
0.0053007937
-0.014366542
0.0058388638
-0.016020052
0.0063997722
-0.017806474
0.0069702014
-0.019717757
0.0075303958
-0.021737389
0.0080517116
-0.02383728
0.0084928315
-0.02597133
0.0087915329
-0.028067498
0.0088488229
-0.030012335
0.00853414
-0.031642139
0.0076663846
-0.032742495
0.0060531184
-0.033057806
0.0035863303
-0.032351723
0.00025595603
-0.030425969
-0.003937514
-0.02699019
-0.0093495489
-0.021526806
-0.016756407
-0.013365525
-0.026530306
-0.0022910483
-0.037417131
0.011169876
-0.047290553
0.026001921
-0.053993293
0.041129867
-0.056766291
0.055682212
-0.056504918
0.06922309
-0.054595546
0.081714347
-0.052245838
0.093363725
-0.049958609
-0.047602808
0.10479339
-2.3172442e-07
1.280634e-06
-1.0282634e-06
4.3951994e-06
-2.5738503e-06
8.5159312e-06
-5.0986772e-06
1.3888934e-05
-8.8886776e-06
2.0810729e-05
-1.4297052e-05
2.9636229e-05
-2.1757614e-05
4.0787009e-05
-3.1800169e-05
5.4759578e-05
-4.5067771e-05
7.2132842e-05
-6.2335964e-05
9.3574182e-05
-8.4533376e-05
0.00011984238
-0.0001127633
0.00015178622
-0.00014832483
0.00019033627
-0.00019273234
0.00023648785
-0.00024773057
0.00029127223
-0.00031530274
0.00035571494
-0.00039766775
0.00043077952
-0.00049726304
0.00051730022
-0.0006167097
0.00061590969
-0.00075875854
0.0007269757
-0.00092621983
0.00085056897
-0.0011218858
0.00098649116
-0.0013484632
0.0011343939
-0.001608542
0.0012940093
-0.0019046285
0.0014654805
-0.0022392747
0.0016497389
-0.0026153063
0.0018487713
-0.0030360929
0.0020655479
-0.0035055888
0.0023032365
-0.0040284706
0.002565666
-0.0046102082
0.0028568743
-0.0052570193
0.0031807748
-0.0059757624
0.0035410506
-0.0067737939
0.0039411071
-0.0076587802
0.0043839242
-0.0086384235
0.0048717327
-0.0097200567
0.0054054867
-0.010910075
0.0059841583
-0.012213201
0.0066039199
-0.013631609
0.0072572713
-0.015163932
0.007932096
-0.016804182
0.0086104511
-0.018540521
0.0092667346
-0.02035329
0.0098644808
-0.022212329
0.01035187
-0.024070359
0.010649564
-0.025854032
0.010632495
-0.027446157
0.010126265
-0.028671746
0.008891974
-0.029290058
0.0066714304
-0.029017208
0.0033134805
-0.027619017
-0.0011422355
-0.024932111
-0.0066244193
-0.02076
-0.01352166
-0.014628973
-0.022887434
-0.0058418456
-0.035317433
0.0056610932
-0.04892007
0.019151045
-0.060780504
0.033522687
-0.068364935
0.04766227
-0.070905875
0.060852931
-0.069695579
0.072893391
-0.066636005
0.084002779
-0.063355226
0.094633576
-0.060589407
-0.058558991
0.10558976
-1.9072317e-07
1.4713571e-06
-8.4753058e-07
5.0520068e-06
-2.1241637e-06
9.7925643e-06
-4.2135455e-06
1.5978316e-05
-7.3565121e-06
2.3953696e-05
-1.1852193e-05
3.4131911e-05
-1.8070313e-05
4.7005129e-05
-2.6465518e-05
6.3154783e-05
-3.7594051e-05
8.3261375e-05
-5.2132629e-05
0.00010811276
-7.0899559e-05
0.00013860931
-9.4877732e-05
0.00017576439
-0.00012523873
0.00022069727
-0.00016336669
0.0002746158
-0.00021088005
0.00033878559
-0.00026964825
0.00041448314
-0.00034179957
0.00050293085
-0.00042971533
0.00060521599
-0.00053600558
0.00072219994
-0.00066346218
0.0008544323
-0.0008149877
0.0010020945
-0.00099350539
0.0011650089
-0.0012018636
0.0013427521
-0.0014427601
0.0015349058
-0.0017187219
0.0017414423
-0.0020321735
0.0019631905
-0.0023856274
0.0022022253
-0.0027819505
0.0024618709
-0.0032247283
0.0027460143
-0.0037180396
0.0030589772
-0.0042666732
0.003405508
-0.0048761013
0.0037902028
-0.0055523222
0.0042172715
-0.006301643
0.004690428
-0.007130418
0.0052126991
-0.0080447037
0.0057860185
-0.009049796
0.0064105789
-0.010149628
0.0070839902
-0.011346046
0.0078003375
-0.01263802
0.0085492462
-0.014020875
0.0093149503
-0.015485561
0.010075137
-0.017017977
0.010799151
-0.018597767
0.01144427
-0.020195884
0.011949987
-0.021767461
0.012221141
-0.02324078
0.012105815
-0.024495494
0.011380978
-0.025340507
0.0097369876
-0.02549811
0.0068290337
-0.024638662
0.002454032
-0.022500606
-0.0032802911
-0.018981496
-0.01014353
-0.014021162
-0.018481995
-0.0072134017
-0.029695194
0.0021086114
-0.044639446
0.013825689
-0.060637148
0.027034146
-0.073988961
0.040511802
-0.08184259
0.053233615
-0.083627688
0.064781465
-0.081243428
0.075303426
-0.077157966
0.085298591
-0.073350391
0.09539514
-0.070685956
-0.069549383
0.10638553
-1.4164945e-07
1.6130066e-06
-6.3100414e-07
5.5413615e-06
-1.5849505e-06
1.0746511e-05
-3.1512457e-06
1.7544611e-05
-5.5158493e-06
2.6318299e-05
-8.9118494e-06
3.7527911e-05
-1.3630228e-05
5.1723507e-05
-2.0032825e-05
6.955738e-05
-2.8567783e-05
9.1796333e-05
-3.9787755e-05
0.00011933273
-5.4371054e-05
0.00015319261
-7.3145849e-05
0.00019453919
-9.7116861e-05
0.00024466828
-0.00012749423
0.00030499318
-0.00016572255
0.00037701391
-0.00021350776
0.00046226836
-0.00027283807
0.00056226115
-0.00034599323
0.00067837115
-0.00043553555
0.00081174226
-0.00054427548
0.00096317223
-0.00067520557
0.0011330246
-0.000831401
0.0013212043
-0.0010158956
0.0015272467
-0.0012315551
0.0017505653
-0.0014809849
0.0019908722
-0.0017665168
0.0022487223
-0.0020903221
0.0025260306
-0.0024547319
0.0028262807
-0.0028627839
0.0031540663
-0.0033179291
0.0035141224
-0.0038240851
0.003911664
-0.0043858167
0.0043519343
-0.0050081204
0.0048395752
-0.0056961314
0.0053784389
-0.0064547815
0.0059713493
-0.0072883925
0.0066196294
-0.0082001755
0.0073223619
-0.0091916316
0.0080754464
-0.010261898
0.0088706044
-0.011407128
0.0096944757
-0.012620016
0.010527838
-0.013889535
0.011344656
-0.015200792
0.012110408
-0.016534609
0.012778087
-0.017865022
0.013280401
-0.019151431
0.013507549
-0.020324658
0.013279042
-0.021259771
0.012316091
-0.021744065
0.010221281
-0.021452892
0.0065378616
-0.020004061
0.0010052005
-0.01710308
-0.0061812722
-0.01273079
-0.014515819
-0.0069727543
-0.024240031
0.00051793005
-0.037185878
0.010262806
-0.054384322
0.021976056
-0.072350398
0.034531766
-0.086544672
0.04671976
-0.094030584
0.057751317
-0.094659245
0.067631151
-0.091123263
0.076881172
-0.086407987
0.086197306
-0.082666525
0.096219615
-0.080708265
-0.080875402
0.10754563
-8.6382483e-08
1.6993891e-06
-3.8688509e-07
5.8418641e-06
-9.764488e-07
1.1336074e-05
-1.9512372e-06
1.85194e-05
-3.4342817e-06
2.7801344e-05
-5.5825354e-06
3.9676164e-05
-8.5957185e-06
5.473669e-05
-1.2727385e-05
7.3689046e-05
-1.8298556e-05
9.7367505e-05
-2.5714608e-05
0.00012674878
-3.5485772e-05
0.00016296377
-4.8251728e-05
0.00020730514
-6.48107e-05
0.00026122725
-8.6152569e-05
0.00032633505
-0.00011349564
0.00040435698
-0.00014832456
0.00049709728
-0.00019242626
0.00060636285
-0.00024791801
0.00073386291
-0.00031725944
0.0008810837
-0.00040323769
0.0010491505
-0.00050891489
0.0012387018
-0.00063752867
0.0014498181
-0.00079234484
0.0016820629
-0.0009764772
0.0019346976
-0.0011927132
0.0022071081
-0.0014434033
0.0024994125
-0.0017304873
0.0028131146
-0.0020557295
0.0031515229
-0.0024212354
0.0035195722
-0.0028298433
0.0039227303
-0.0032846719
0.0043664926
-0.0037891349
0.0048563973
-0.0043470891
0.0053975294
-0.0049624253
0.0059937752
-0.0056386265
0.0066475504
-0.0063783022
0.0073593052
-0.0071826658
0.0081267254
-0.008050964
0.0089437446
-0.0089799251
0.0097995655
-0.0099633313
0.010677882
-0.010991827
0.011556335
-0.012053066
0.012405894
-0.013132019
0.013189361
-0.014210928
0.013856996
-0.015266237
0.014335709
-0.016259757
0.014501069
-0.017121068
0.014140353
-0.017715115
0.012910139
-0.017803446
0.010309612
-0.017020138
0.0057545539
-0.014941307
-0.0010736304
-0.011287771
-0.0098348091
-0.0061626708
-0.019640919
0.00028687398
-0.030689576
0.0083851241
-0.045284128
0.018428722
-0.06442792
0.029891212
-0.083812888
0.041418392
-0.098071852
0.052006101
-0.10461829
0.061250321
-0.10390346
0.069662327
-0.09953527
0.078037499
-0.094783159
0.087099202
-0.091728228
0.097333231
-0.090942293
-0.092620592
0.10907842
-2.739557e-08
1.7267846e-06
-1.2602741e-07
5.9404959e-06
-3.2551501e-07
1.1535562e-05
-6.6605668e-07
1.8859941e-05
-1.2020708e-06
2.8337358e-05
-2.0070559e-06
4.048115e-05
-3.1800795e-06
5.5909714e-05
-4.8542856e-06
7.5363253e-05
-7.2081673e-06
9.9721387e-05
-1.0480183e-05
0.0001300208
-1.4987661e-05
0.00016747125
-2.1150833e-05
0.00021346832
-2.9522938e-05
0.00026959936
-4.0826742e-05
0.00033763885
-5.5998076e-05
0.00041952831
-7.6234892e-05
0.00051733409
-0.00010304938
0.00063317733
-0.00013831746
0.00076913099
-0.00018431735
0.00092708358
-0.00024374337
0.0011085765
-0.00031967877
0.0013146372
-0.00041551055
0.0015456498
-0.00053477264
0.001801325
-0.0006809214
0.0020808464
-0.00085707364
0.0023832604
-0.0010657742
0.0027081131
-0.0013088858
0.0030562262
-0.0015877046
0.0034303416
-0.0019033673
0.0038352349
-0.0022576077
0.0042769707
-0.002652733
0.0047616179
-0.0030911738
0.0052948381
-0.0035755071
0.0058818627
-0.0041082668
0.0065265349
-0.0046914633
0.0072307469
-0.0053260847
0.0079939265
-0.0060115087
0.0088121495
-0.0067449573
0.0096771932
-0.0075210304
0.010575639
-0.0083314206
0.011488272
-0.0091648801
0.012389794
-0.0100076
0.013248614
-0.01084364
0.0140254
-0.011654565
0.014667922
-0.01241522
0.015096364
-0.013083342
0.015169191
-0.013578774
0.014635786
-0.013749415
0.013080779
-0.013334839
0.0098950357
-0.011958575
0.0043782907
-0.0092035804
-0.0038286253
-0.0048766551
-0.014161734
0.00078449929
-0.025302073
0.0077174674
-0.037622544
0.016257267
-0.053823928
0.026435661
-0.074606314
0.037339477
-0.094716705
0.047558365
-0.10829074
0.056312705
-0.11337263
0.063884484
-0.11147524
0.071177606
-0.10682839
0.079092346
-0.1026979
0.088195632
-0.10083151
0.098727244
-0.10147391
-0.10469001
0.11079666
3.230574e-08
1.6944789e-06
1.3837246e-07
5.8344292e-06
3.3512882e-07
1.1338806e-05
6.4014084e-07
1.8554929e-05
1.0701824e-06
2.7907316e-05
1.6389066e-06
3.9912425e-05
2.3531796e-06
5.5195441e-05
3.2076233e-06
7.4508809e-05
4.1765397e-06
9.875247e-05
5.2025104e-06
0.00012899483
6.1802483e-06
0.00016649351
6.9347913e-06
0.00021271377
7.192117e-06
0.00026934203
6.5409839e-06
0.00033828998
4.3847398e-06
0.00042168456
-1.1728498e-07
0.00052183612
-8.1174101e-06
0.00064117746
-2.1152265e-05
0.00078216584
-4.1211743e-05
0.00094714306
-7.079052e-05
0.0011381553
-0.00011290107
0.0013567477
-0.00017102219
0.001603771
-0.00024895732
0.0018792601
-0.00035058729
0.0021824764
-0.00047952805
0.0025122011
-0.0006387593
0.0028673443
-0.00083033833
0.0032478052
-0.0010553375
0.0036553408
-0.0013141301
0.0040940275
-0.0016070296
0.0045698703
-0.0019349515
0.0050895398
-0.0022994322
0.0056593188
-0.0027019564
0.0062843869
-0.003143636
0.0069682146
-0.0036250014
0.0077121123
-0.0041454924
0.0085144176
-0.0047027956
0.0093694527
-0.0052922885
0.010266686
-0.0059065991
0.011189949
-0.0065353288
0.012117002
-0.0071649899
0.013019455
-0.0077792539
0.013862878
-0.0083590105
0.014605157
-0.0088809234
0.015189835
-0.0093117478
0.015527189
-0.0095962621
0.015453705
-0.0096360083
0.014675532
-0.0092614612
0.012706232
-0.0082081384
0.0088417128
-0.0061436537
0.0023138061
-0.0027021655
-0.0072701136
0.0021082079
-0.018972108
0.0080386687
-0.031232534
0.015218117
-0.044801992
0.024026554
-0.062632365
0.034120628
-0.084700388
0.044108781
-0.10470486
0.05273169
-0.11691365
0.059672097
-0.12031304
0.065870425
-0.11767357
0.072454304
-0.11341227
0.080233035
-0.11047663
0.089502935
-0.11010141
0.1002705
-0.11224148
-0.11693506
0.11251556
8.9262414e-08
1.6052165e-06
3.9108149e-07
5.5326101e-06
9.6759614e-07
1.0762291e-05
1.8928158e-06
1.762971e-05
3.2535514e-06
2.6546581e-05
5.1498447e-06
3.8016132e-05
7.6945104e-06
5.2650775e-05
1.1011219e-05
7.1192101e-05
1.5230445e-05
9.4533244e-05
2.0482208e-05
0.00012374306
2.6884346e-05
0.00016009138
3.4524484e-05
0.00020507364
4.3433942e-05
0.00026043257
5.3550787e-05
0.00032817314
6.4670252e-05
0.00041056509
7.6379909e-05
0.00051012646
8.7979265e-05
0.0006295781
9.8385671e-05
0.00077175944
0.00010603281
0.00093949593
0.00010877521
0.0011354129
0.0001038212
0.0013617017
8.7727507e-05
0.0016198647
5.6494197e-05
0.0019104934
5.7980975e-06
0.0022331725
-6.8627417e-05
0.0025866266
-0.00017049216
0.0029692091
-0.00030243857
0.0033797516
-0.00046572024
0.0038186225
-0.00066027186
0.0042885791
-0.00088526162
0.00479486
-0.0011399692
0.0053442474
-0.0014242097
0.0059435593
-0.0017380593
0.0065982365
-0.0020814694
0.0073116247
-0.002453746
0.0080843889
-0.0028528613
0.0089135329
-0.0032748626
0.009791454
-0.0037133668
0.01070519
-0.0041590024
0.011635585
-0.0045989892
0.012556989
-0.0050168307
0.013437297
-0.0053920324
0.01423808
-0.0056993004
0.014912425
-0.0059055104
0.015396045
-0.0059631064
0.015584785
-0.0057973893
0.015287988
-0.0052889293
0.014167072
-0.0042579969
0.011675299
-0.0024670981
0.007050814
0.00034349506
-0.00049678706
0.004342213
-0.011268832
0.0094057156
-0.02403561
0.015373783
-0.037200601
0.022637932
-0.052066141
0.031556876
-0.071551309
0.041292263
-0.094435776
0.050026462
-0.11343906
0.056879349
-0.12376654
0.06221395
-0.12564764
0.067429411
-0.12288903
0.073683117
-0.11966598
0.081511196
-0.11830471
0.090936446
-0.11952666
0.10181944
-0.12312447
-0.12922241
0.11410679
1.3976962e-07
1.4654469e-06
6.1571575e-07
5.056664e-06
1.5310214e-06
9.8469853e-06
3.0113033e-06
1.6149428e-05
5.2079801e-06
2.4349904e-05
8.301525e-06
3.4922587e-05
1.2504449e-05
4.8447851e-05
1.8063377e-05
6.5633172e-05
2.525961e-05
8.7337011e-05
3.4407115e-05
0.00011459556
4.5846489e-05
0.000148652
5.9933125e-05
0.000190987
7.7016893e-05
0.0002433488
9.7410442e-05
0.00030777959
0.00012134253
0.00038663301
0.00014889254
0.00048257645
0.00017990325
0.00059856739
0.00021387022
0.00073779247
0.0002498107
0.00090355545
0.00028612219
0.0010991014
0.00032045092
0.001327373
0.00034960576
0.0015907098
0.00036956793
0.0018905312
0.000375655
0.0022270854
0.00036289225
0.0025993894
0.00032659351
0.0030055078
0.00026307135
0.0034432738
0.00017028997
0.0039114038
4.8171222e-05
0.0044106979
-0.00010172855
0.0049447598
-0.00027715359
0.0055196724
-0.00047591776
0.0061423234
-0.00069622974
0.0068185485
-0.00093636817
0.0075517632
-0.0011942534
0.0083422741
-0.0014665478
0.0091858272
-0.0017477679
0.010072674
-0.0020299238
0.010987346
-0.0023015025
0.011907163
-0.0025469266
0.012802413
-0.0027457847
0.013636155
-0.0028717749
0.01436407
-0.002890868
0.014931518
-0.0027565354
0.015261712
-0.0024040803
0.01523233
-0.001738724
0.014622631
-0.00062686043
0.013055209
0.0011063773
0.0099420617
0.0036433604
0.0045138308
0.0071202631
-0.0039736897
0.011539533
-0.015688101
0.016656228
-0.029152305
0.022512044
-0.043056417
0.02983217
-0.059386267
0.038720207
-0.080439346
0.047753941
-0.10346951
0.054936989
-0.1206221
0.060032972
-0.12886252
0.064106306
-0.12972098
0.068762085
-0.12754481
0.074950787
-0.12585468
0.082880313
-0.12623423
0.092377964
-0.12902432
0.10326472
-0.13401123
-0.14147214
0.11551445
1.8007895e-07
1.2853679e-06
7.9561954e-07
4.4411234e-06
1.9836601e-06
8.6589447e-06
3.9128601e-06
1.4220228e-05
6.7890996e-06
2.1473664e-05
1.0861591e-05
3.0850095e-05
1.6429224e-05
4.2880219e-05
2.3846847e-05
5.8215549e-05
3.3530846e-05
7.7653012e-05
4.5963118e-05
0.00010216329
6.1692147e-05
0.00013292297
8.1329095e-05
0.00017135005
0.0001055365
0.0002191414
0.00013500583
0.00027831026
0.00017041951
0.00035121933
0.00021239221
0.00044060375
0.0002613855
0.00054957409
0.00031759086
0.00068158712
0.00038077891
0.0008403674
0.00045011803
0.0010297622
0.00052397748
0.0012535136
0.00059974612
0.0015149412
0.00067372056
0.0018165568
0.00074113912
0.0021596669
0.00079644669
0.0025440818
0.00083385671
0.0029680978
0.000848197
0.0034289335
0.00083588952
0.0039237113
0.0007957494
0.004450838
0.00072923814
0.0050112711
0.00063991864
0.005608992
0.00053182326
0.0062504188
0.00040929403
0.0069410777
0.00027609343
0.0076849638
0.00013603627
0.0084823313
-5.7394631e-06
0.009327603
-0.00014271165
0.010209646
-0.00026488342
0.011109518
-0.00035859944
0.012000879
-0.00040523316
0.012849046
-0.0003798572
0.013610779
-0.00024930822
0.014233521
3.0836801e-05
0.014651373
0.00051903495
0.014773514
0.0012981413
0.014453224
0.0024771778
0.013443595
0.0041930553
0.011339331
0.0065960669
0.0075390502
0.0097865479
0.0013233498
0.013805808
-0.0079929497
0.018476443
-0.020358736
0.023487152
-0.034163014
0.029234164
-0.048803429
0.036689399
-0.066841502
0.045394473
-0.089144419
0.053223358
-0.1112984
0.058737717
-0.12613646
0.062279854
-0.13240466
0.065536616
-0.13297774
0.069998675
-0.13200687
0.076258871
-0.13211488
0.084250592
-0.13422595
0.093726198
-0.13849992
0.10454499
-0.14483002
-0.15364743
0.11672028
2.0701513e-07
1.0783528e-06
9.16624e-07
3.7315145e-06
2.2898511e-06
7.2857176e-06
4.5263575e-06
1.1983721e-05
7.8720105e-06
1.8128011e-05
1.2627451e-05
2.6094655e-05
1.9157644e-05
3.6350026e-05
2.7902104e-05
4.9471089e-05
3.9385558e-05
6.6169558e-05
5.4228192e-05
8.7320654e-05
7.315449e-05
0.00011399667
9.6998927e-05
0.00014750562
0.000126706
0.00018943433
0.00016332102
0.00024169524
0.00020796682
0.00030657352
0.0002618
0.00038677057
0.00032593904
0.00048543505
0.00040135539
0.00060617077
0.0004887197
0.00075300309
0.00058819858
0.00093028337
0.0006992059
0.0011425062
0.00082012925
0.0013940178
0.00094807757
0.0016886085
0.0010787293
0.0020290151
0.0012063944
0.0024164167
0.0013244131
0.0028500791
0.0014259761
0.0033273706
0.0015053208
0.0038443666
0.001559042
0.0043971168
0.0015869972
0.0049833159
0.0015926261
0.005603363
0.0015785358
0.0062645091
0.0015584143
0.0069611992
0.0015354612
0.0077079169
0.0015160646
0.0085017278
0.0015068155
0.0093368521
0.0015161649
0.010200297
0.001555844
0.011069839
0.0016418663
0.011914857
0.0017960211
0.012694892
0.0020477656
0.013359034
0.0024367737
0.013844513
0.0030163896
0.014071757
0.003858507
0.013931396
0.0050559574
0.013255773
0.0067238096
0.011775743
0.0089894652
0.0090736755
0.011958891
0.0045696242
0.015671745
-0.0023895035
0.020088369
-0.012409574
0.024823793
-0.02509416
0.029644415
-0.038983635
0.03546108
-0.054620094
0.043145852
-0.074526274
0.051416043
-0.09741461
0.057705521
-0.11758787
0.061450763
-0.1298817
0.063820676
-0.13477457
0.06669948
-0.13585654
0.0712041
-0.13651149
0.077553502
-0.13846428
0.085530563
-0.14220302
0.09491469
-0.14788405
0.1056323
-0.15554763
-0.16573602
0.11772089
2.1853679e-07
8.59816e-07
9.6942248e-07
2.9806288e-06
2.4257945e-06
5.8293456e-06
4.8036679e-06
9.6058481e-06
8.370936e-06
1.4560743e-05
1.3457906e-05
2.1007685e-05
2.0469332e-05
2.9338599e-05
2.989813e-05
4.0042291e-05
4.2340466e-05
5.3727222e-05
5.8511967e-05
7.1149153e-05
7.9264281e-05
9.3244359e-05
0.00010560082
0.00012116908
0.00013868942
0.00015634573
0.00017986924
0.00020051542
0.00023064681
0.00025579596
0.00029267513
0.00032474225
0.00036770669
0.0004104035
0.00045750978
0.00051636767
0.00056373427
0.0006467786
0.00068771491
0.00080630273
0.0008302028
0.0010000184
0.00099102843
0.0012331922
0.0011687229
0.001510914
0.0013601617
0.0018375764
0.0015603453
0.002216233
0.0017624823
0.0026479421
0.0019585516
0.0031313013
0.0021404585
0.0036624596
0.0023017138
0.0042358615
0.0024392432
0.0048457865
0.002554019
0.0054885872
0.0026507593
0.0061677689
0.002735388
0.0068765705
0.0028216806
0.0076216243
0.0029221275
0.0084012809
0.0030447225
0.0092142571
0.0032001375
0.010044882
0.0034015149
0.010868461
0.0036668475
0.011649525
0.0040208764
0.012340863
0.0044971433
0.012882767
0.0051408645
0.013200792
0.0060124991
0.013200123
0.0071912498
0.012752646
0.0087755865
0.011671437
0.010877415
0.0096739146
0.013604272
0.0063468184
0.017017513
0.0011563826
0.021135995
-0.0065079853
0.025767036
-0.017040616
0.030349759
-0.029676884
0.035057245
-0.043691122
0.041264423
-0.060827272
0.049126916
-0.082388768
0.056397253
-0.10468495
0.060949953
-0.12214057
0.063188264
-0.13212001
0.0648902
-0.13647651
0.067729363
-0.1386957
0.072370858
-0.14115298
0.078757438
-0.14485086
0.0866512
-0.15009678
0.095908952
-0.1571418
0.10651447
-0.16615314
-0.17773
0.11850844
2.1406303e-07
6.4575297e-07
9.5123226e-07
2.2434596e-06
2.3840169e-06
4.3965609e-06
4.7288621e-06
7.2610029e-06
8.2559378e-06
1.1033667e-05
1.3300755e-05
1.5962868e-05
2.0277925e-05
2.236143e-05
2.9697193e-05
3.0623022e-05
4.218193e-05
4.1242485e-05
5.8490111e-05
5.4840972e-05
7.9537487e-05
7.2196984e-05
0.00010642235
9.4284209e-05
0.00014045073
0.00012231735
0.00018315951
0.00015780664
0.00023633431
0.00020262115
0.00030201608
0.00025906048
0.0003824883
0.00032993128
0.00048023287
0.0004186231
0.00059783957
0.0005291719
0.0007378491
0.00066629319
0.00090251045
0.00083535701
0.0010934353
0.0010422673
0.0013111492
0.0012932001
0.0015545685
0.0015941571
0.0018204893
0.0019503123
0.0021032442
0.0023651872
0.0023947586
0.0028397869
0.0026852585
0.0033719597
0.0029647739
0.003956346
0.0032253237
0.0045852367
0.0034636362
0.0052502747
0.0036886125
0.0059427926
0.0038992419
0.006665941
0.0041091512
0.0074117151
0.0043302795
0.0081801527
0.0045810445
0.0089634921
0.0048776834
0.0097482429
0.005236088
0.010510057
0.0056766676
0.011208945
0.0062261219
0.011791409
0.0069208698
0.012188019
0.0078098978
0.012311764
0.0089577299
0.01205229
0.01044649
0.011263885
0.012373631
0.0097442959
0.014841694
0.0072058521
0.017933685
0.0032548275
0.021693339
-0.0026032717
0.026077829
-0.010892476
0.030644679
-0.021607465
0.03493813
-0.033970334
0.039878283
-0.048631275
0.046767498
-0.067716487
0.054435029
-0.090056299
0.060163564
-0.11041348
0.062972332
-0.12494934
0.064169914
-0.1333176
0.06567664
-0.13798323
0.068681881
-0.14170095
0.073447045
-0.14591815
0.079801609
-0.15120542
0.087571951
-0.15786712
0.096692748
-0.1662626
0.10718045
-0.17664085
-0.18961725
0.1190677
1.9551852e-07
4.5023444e-07
8.7029221e-07
1.5686859e-06
2.184499e-06
3.0823541e-06
4.3401989e-06
5.1053029e-06
7.5911262e-06
7.7827401e-06
1.225455e-05
1.1299444e-05
1.8725544e-05
1.5890436e-05
2.7494066e-05
2.1854501e-05
3.9165264e-05
2.9571287e-05
5.44833e-05
3.9522936e-05
7.4359032e-05
5.2321252e-05
9.9901514e-05
6.8741727e-05
0.00013245305
8.976582e-05
0.00017362668
0.00011663301
0.00022534399
0.00015090384
0.00028986948
0.000194535
0.00036983482
0.00024996594
0.00046824332
0.00032021461
0.00058843912
0.0004089761
0.00073402069
0.00052071162
0.00090867118
0.00066070652
0.0011158746
0.00083506388
0.0013584895
0.0010505852
0.0016381675
0.001314479
0.0019546465
0.0016338333
0.0023050202
0.0020148135
0.0026831937
0.0024616135
0.003079843
0.0029753104
0.0034832476
0.0035529414
0.0038812424