/*--------------------------------*- C++ -*----------------------------------*\
  =========                 |
  \\      /  F ield         | OpenFOAM: The Open Source CFD Toolbox
   \\    /   O peration     | Website:  https://openfoam.org
    \\  /    A nd           | Version:  13
     \\/     M anipulation  |
\*---------------------------------------------------------------------------*/
FoamFile
{
    format      ascii;
    class       volScalarField;
    location    "26.303814";
    object      pMean;
}
// * * * * * * * * * * * * * * * * * * * * * * * * * * * * * * * * * * * * * //

dimensions      [0 2 -2 0 0 0 0];

internalField   nonuniform List<scalar> 
17140
(
1.6895089
1.6893952
1.6892579
1.6891185
1.688968
1.6888043
1.6886273
1.6884367
1.6882323
1.6880137
1.6877809
1.6875335
1.6872711
1.6869926
1.6866962
1.6863784
1.6860334
1.6856523
1.6852212
1.6847198
1.6841193
1.6833794
1.6824447
1.6812397
1.6796765
1.6776821
1.6752116
1.6722148
1.668602
1.6642569
1.6590526
1.6528471
1.6454828
1.6367883
1.6265796
1.6146665
1.6008643
1.5850097
1.5669846
1.546749
1.524379
1.5001127
1.4744149
1.4480183
1.4219684
1.3976187
1.3763354
1.3594965
1.3484731
1.3443851
1.3479757
1.3596892
1.3796742
1.4075266
1.4425289
1.4831384
1.5278592
1.5739489
1.6204508
1.6627022
1.7021151
1.7299074
1.7557057
1.7617532
1.7751337
1.6876482
1.6875367
1.6874023
1.6872655
1.6871179
1.6869574
1.6867837
1.6865968
1.6863962
1.6861818
1.6859534
1.6857108
1.6854536
1.6851808
1.6848906
1.6845798
1.6842426
1.6838703
1.6834493
1.6829594
1.6823721
1.6816474
1.6807305
1.6795463
1.6780063
1.6760361
1.6735908
1.670621
1.6670366
1.6627205
1.6575455
1.6513689
1.6440326
1.6353642
1.6251786
1.6132849
1.599497
1.5836501
1.5656248
1.5453793
1.5229881
1.4986882
1.4729428
1.4464881
1.4203843
1.3959539
1.374584
1.3577047
1.3466491
1.3425125
1.3460623
1.357744
1.3776765
1.4054743
1.440418
1.4809582
1.5256295
1.5717184
1.6182727
1.6606168
1.7001275
1.7280289
1.7538387
1.7596389
1.7731429
1.6831017
1.6829958
1.6828683
1.6827382
1.6825977
1.6824447
1.6822793
1.6821011
1.6819099
1.6817056
1.681488
1.6812571
1.6810124
1.6807533
1.6804782
1.6801841
1.6798657
1.6795146
1.6791176
1.6786555
1.6781
1.6774122
1.6765381
1.6754041
1.6739206
1.6720096
1.6696249
1.6667176
1.663199
1.6589514
1.6538456
1.647738
1.6404689
1.6318635
1.6217347
1.6098888
1.5961367
1.5803104
1.562287
1.5420212
1.5195843
1.4952123
1.4693695
1.4428054
1.4165921
1.3920254
1.3705173
1.3535259
1.3423927
1.3382019
1.3416888
1.3532809
1.3731075
1.4007908
1.4355962
1.4759875
1.5205166
1.5665059
1.6130457
1.6554783
1.6951391
1.7231711
1.7490961
1.7549118
1.7688273
1.6759572
1.6758601
1.6757437
1.6756241
1.6754947
1.6753539
1.6752015
1.6750373
1.674861
1.6746726
1.6744722
1.6742596
1.6740348
1.6737973
1.6735458
1.6732777
1.6729885
1.6726703
1.6723109
1.6718916
1.6713855
1.6707546
1.6699468
1.6688905
1.6674953
1.6656782
1.6633882
1.6605774
1.6571607
1.65302
1.6480229
1.6420243
1.6348618
1.6263576
1.6163209
1.6045541
1.5908635
1.5750761
1.557064
1.5367764
1.5142806
1.4898119
1.4638371
1.4371249
1.4107581
1.3860094
1.364332
1.347201
1.3359679
1.3317071
1.3351227
1.346607
1.3662816
1.3937782
1.4283587
1.4684699
1.5127052
1.5584492
1.6048719
1.6473444
1.6871954
1.7155458
1.7418312
1.7480412
1.7626421
1.6664479
1.6663628
1.6662611
1.6661558
1.6660416
1.6659172
1.6657823
1.665637
1.6654809
1.665314
1.6651366
1.6649488
1.6647506
1.6645419
1.6643218
1.6640883
1.6638375
1.6635625
1.663252
1.6628885
1.6624467
1.6618901
1.6611684
1.6602133
1.6589351
1.6572443
1.6550808
1.6523972
1.6491151
1.6451165
1.6402649
1.6344129
1.6273951
1.6190296
1.6091212
1.597467
1.5838677
1.568144
1.5501611
1.5298617
1.5073083
1.4827352
1.4566162
1.4297435
1.4031978
1.378257
1.3564091
1.3391392
1.3278232
1.3235119
1.3268698
1.3382486
1.3577621
1.3850427
1.4193386
1.4590881
1.5029595
1.5483947
1.5946502
1.6371694
1.6772357
1.7059938
1.7327429
1.7396419
1.7551283
1.6549591
1.6548886
1.6548052
1.6547173
1.6546219
1.6545177
1.6544046
1.6542825
1.6541513
1.6540111
1.6538621
1.6537046
1.6535389
1.6533652
1.6531831
1.6529911
1.6527861
1.6525622
1.6523092
1.6520113
1.6516447
1.6511749
1.6505541
1.6497174
1.6485789
1.6470424
1.6450325
1.6425012
1.6393804
1.6355531
1.6308785
1.6252063
1.6183676
1.6101761
1.6004313
1.5889245
1.5754497
1.5598204
1.5418934
1.5216037
1.4990083
1.4743409
1.4480867
1.4210619
1.39434
1.3692293
1.3472322
1.3298481
1.3184779
1.3141553
1.3174965
1.3288074
1.3481843
1.3752469
1.4092242
1.4485508
1.4919723
1.5370457
1.5831206
1.6257081
1.6660234
1.6953303
1.7226819
1.7305414
1.747136
1.642012
1.6419583
1.6418948
1.6418272
1.6417535
1.6416728
1.641585
1.64149
1.6413877
1.6412783
1.6411621
1.6410396
1.6409112
1.6407774
1.6406382
1.6404927
1.6403386
1.6401709
1.6399808
1.639754
1.6394685
1.6390923
1.6385803
1.6378713
1.6368846
1.6355208
1.633689
1.6313318
1.6283889
1.6247521
1.6202785
1.6148123
1.6081811
1.6001942
1.5906457
1.5793208
1.5660064
1.5505074
1.5326717
1.5124257
1.4898207
1.465091
1.4387368
1.4115916
1.3847317
1.3594947
1.3373773
1.319905
1.3085076
1.3042078
1.3075748
1.3188685
1.3381608
1.365056
1.3987641
1.437705
1.4806794
1.5253953
1.5713266
1.614055
1.6546576
1.6845827
1.7125762
1.7215105
1.7391138
1.6282377
1.6282023
1.6281601
1.6281149
1.6280652
1.6280105
1.6279506
1.6278855
1.6278152
1.6277398
1.6276598
1.6275757
1.6274881
1.6273976
1.6273045
1.6272084
1.6271076
1.626998
1.6268721
1.6267172
1.6265133
1.6262308
1.6258276
1.6252463
1.6244115
1.6232282
1.6215925
1.6194237
1.6166651
1.6132273
1.608968
1.6037247
1.5973217
1.5895636
1.5802399
1.5691295
1.5560119
1.5406836
1.5229829
1.5028272
1.4802621
1.4555246
1.4291324
1.4019218
1.3749863
1.3496769
1.3274683
1.3099197
1.2985035
1.2942513
1.2976872
1.3090108
1.3282762
1.3550729
1.3885878
1.4272329
1.4698605
1.5142826
1.5600948
1.6029357
1.64384
1.6744738
1.703187
1.7134403
1.7321213
1.6143384
1.6143221
1.6143024
1.6142807
1.6142564
1.6142291
1.6141987
1.6141653
1.6141288
1.6140895
1.6140478
1.6140042
1.6139593
1.6139138
1.6138682
1.6138222
1.6137746
1.6137222
1.6136583
1.6135717
1.6134443
1.6132488
1.6129465
1.6124838
1.6117903
1.6107769
1.6093392
1.6073739
1.6048037
1.6015571
1.5975117
1.5924974
1.5863323
1.5788189
1.5697421
1.5588754
1.5459914
1.530878
1.5133644
1.4933596
1.4709043
1.446239
1.4198973
1.3927099
1.365792
1.3404811
1.3182221
1.3006172
1.2891982
1.2850051
1.2885148
1.2998969
1.3191919
1.3459561
1.3793424
1.4177552
1.4601151
1.5043272
1.5500743
1.5933058
1.6347562
1.6662842
1.6956846
1.7070706
1.7262931
1.6010378
1.6010406
1.6010433
1.6010452
1.6010464
1.6010468
1.6010464
1.6010451
1.601043
1.6010404
1.6010376
1.601035
1.6010333
1.6010329
1.6010343
1.6010374
1.601041
1.6010422
1.6010353
1.6010099
1.6009496
1.6008294
1.6006133
1.6002517
1.5996792
1.5988122
1.5975513
1.5957877
1.5934176
1.5903532
1.5864978
1.5817044
1.5757815
1.5685222
1.5597083
1.5491101
1.536495
1.5216446
1.5043806
1.4846053
1.4623562
1.4378784
1.4117117
1.3846838
1.3579183
1.3327135
1.3104956
1.2929102
1.2815271
1.2773902
1.2809827
1.2924603
1.3118107
1.3385547
1.3718364
1.4100865
1.4523151
1.4965871
1.5426107
1.5862527
1.6280285
1.6600855
1.6898466
1.7021606
1.7216608
1.5890197
1.5890407
1.5890648
1.5890893
1.5891149
1.5891419
1.5891703
1.5892001
1.5892315
1.5892646
1.5892996
1.5893371
1.5893772
1.5894205
1.589467
1.5895165
1.5895677
1.5896178
1.5896611
1.5896881
1.5896833
1.5896237
1.5894756
1.5891929
1.5887148
1.5879635
1.5868445
1.5852507
1.5830714
1.5802004
1.5765278
1.5719223
1.5662174
1.5592091
1.5506697
1.5403653
1.5280603
1.513532
1.4965983
1.4771579
1.4552483
1.4311185
1.4052959
1.3786158
1.3521973
1.3272835
1.3052895
1.2878623
1.2765809
1.2725344
1.2761844
1.2876463
1.3069665
1.3336461
1.3668232
1.4049878
1.4471539
1.4914864
1.5376733
1.5814674
1.623313
1.6557516
1.6857399
1.6987601
1.7181958
1.578866
1.5789031
1.5789462
1.5789909
1.5790386
1.5790897
1.5791443
1.5792026
1.5792647
1.5793307
1.5794009
1.5794755
1.5795546
1.5796385
1.5797269
1.5798192
1.5799136
1.5800071
1.5800939
1.5801647
1.5802045
1.5801912
1.5800933
1.5798673
1.5794563
1.5787876
1.5777728
1.5763079
1.574281
1.5715793
1.5680859
1.5636705
1.5581728
1.5514011
1.543137
1.5331484
1.5211992
1.5070663
1.4905653
1.4715951
1.450194
1.4266116
1.401364
1.3752827
1.3494474
1.3250663
1.3035319
1.2864437
1.2753802
1.2713414
1.2748494
1.2861096
1.3052177
1.3316854
1.3646574
1.4026261
1.444681
1.4890702
1.5353434
1.5793071
1.6212021
1.653642
1.683256
1.6968741
1.7155203
1.5709937
1.5710438
1.5711024
1.5711636
1.5712295
1.5713006
1.5713772
1.5714595
1.5715477
1.5716421
1.5717427
1.5718498
1.5719633
1.5720833
1.572209
1.5723395
1.5724727
1.5726049
1.5727301
1.5728386
1.5729157
1.5729398
1.5728804
1.5726962
1.5723327
1.5717217
1.5707801
1.5694114
1.5675038
1.5649377
1.5616003
1.5573634
1.5520712
1.5455447
1.5375741
1.5279345
1.5163946
1.5027381
1.4867918
1.4684515
1.4477558
1.4249489
1.400541
1.3753339
1.3503461
1.3267462
1.3058992
1.289345
1.2784618
1.2743042
1.2774967
1.2883983
1.3071132
1.3332042
1.3658063
1.4034762
1.4455139
1.4900444
1.5364027
1.5801103
1.62132
1.6530656
1.6822928
1.6956901
1.7134347
1.5656073
1.5656665
1.5657359
1.565809
1.5658879
1.5659736
1.5660665
1.5661668
1.5662748
1.566391
1.5665154
1.5666483
1.5667897
1.5669392
1.5670962
1.5672593
1.5674261
1.5675926
1.5677524
1.5678956
1.5680075
1.5680668
1.5680436
1.5678976
1.5675763
1.5670141
1.5661315
1.5648362
1.5630258
1.5605922
1.5573746
1.5533045
1.5482265
1.5419583
1.5343077
1.5250663
1.5140194
1.5009582
1.4857001
1.4681623
1.4483849
1.4265986
1.4032894
1.3792081
1.3553179
1.3327277
1.3127567
1.2967274
1.2859784
1.2816264
1.2843855
1.2947504
1.3129251
1.338483
1.37056
1.4079412
1.4498322
1.4943517
1.5402235
1.5831715
1.6232069
1.6542135
1.6819396
1.695039
1.7119174
1.5626616
1.5627253
1.5628004
1.5628796
1.5629656
1.5630595
1.5631617
1.5632727
1.5633929
1.5635228
1.5636627
1.563813
1.5639736
1.5641445
1.5643248
1.5645133
1.5647075
1.5649035
1.5650948
1.5652717
1.5654199
1.5655186
1.5655389
1.5654414
1.5651752
1.5646759
1.5638665
1.5626584
1.5609506
1.558639
1.5556489
1.5517604
1.5468358
1.5408588
1.5335807
1.5248055
1.5143268
1.5019531
1.4875303
1.4709841
1.4523383
1.4318084
1.4098351
1.3870999
1.3644988
1.3430854
1.3239755
1.3084341
1.2977897
1.2931264
1.295355
1.3050942
1.322608
1.3474532
1.378911
1.4158752
1.457581
1.5015958
1.5466206
1.588197
1.6267178
1.6559118
1.6823034
1.6947018
1.7107667
1.5619008
1.5619644
1.5620401
1.5621197
1.5622065
1.5623017
1.5624059
1.5625196
1.5626434
1.5627781
1.562924
1.5630818
1.5632517
1.5634337
1.5636275
1.563832
1.5640453
1.5642638
1.564482
1.5646908
1.5648772
1.5650221
1.5650981
1.5650681
1.5648829
1.5644801
1.5637837
1.5627054
1.5611459
1.5590014
1.556169
1.5524882
1.5479337
1.5422694
1.5353621
1.5271184
1.5173158
1.5057786
1.4923699
1.4769949
1.4596827
1.4406154
1.4201686
1.3989493
1.3777629
1.3575057
1.3392137
1.3241233
1.3134604
1.308456
1.310115
1.3191852
1.3359252
1.3599435
1.3907037
1.4272279
1.4683052
1.5113793
1.5549671
1.5946372
1.6308464
1.6582547
1.6829743
1.6947653
1.7101263
1.5628615
1.562921
1.5629925
1.5630672
1.563149
1.5632392
1.5633384
1.5634473
1.5635665
1.563697
1.5638394
1.5639944
1.5641628
1.5643449
1.5645407
1.56475
1.5649713
1.5652023
1.5654386
1.565673
1.5658947
1.566087
1.5662263
1.5662793
1.5662004
1.5659307
1.5653953
1.5645056
1.5631631
1.5612619
1.5586886
1.5553674
1.5511533
1.5459146
1.539606
1.5319756
1.5229468
1.5123821
1.5001296
1.4860979
1.470295
1.4528505
1.4340744
1.4144693
1.3946842
1.3755387
1.3580158
1.3432309
1.3325143
1.3271369
1.3282412
1.3366133
1.3524582
1.3756159
1.4056625
1.4414572
1.4814702
1.523278
1.5645943
1.6017973
1.6355427
1.6608083
1.6840885
1.6952537
1.7100032
1.5650221
1.5650742
1.5651374
1.5652032
1.5652754
1.5653555
1.5654439
1.5655415
1.5656491
1.5657676
1.5658979
1.566041
1.5661977
1.5663689
1.5665551
1.5667568
1.5669736
1.5672044
1.5674465
1.5676952
1.5679428
1.5681767
1.5683785
1.5685209
1.5685661
1.5684618
1.5681404
1.5675183
1.5664963
1.5649663
1.5628114
1.5599288
1.5562112
1.5515738
1.5458653
1.5390511
1.5310278
1.5215541
1.5105928
1.4980509
1.4838946
1.4681981
1.4511725
1.4331787
1.4147642
1.3966703
1.3797691
1.3652255
1.3544092
1.3486841
1.34924
1.3567838
1.3717551
1.3940524
1.4232629
1.4579684
1.4967964
1.5362391
1.5749416
1.6093439
1.6402913
1.6638001
1.6856929
1.6962309
1.7104404
1.5678283
1.5678712
1.5679234
1.5679776
1.5680374
1.568104
1.568178
1.5682601
1.5683512
1.5684522
1.5685641
1.568688
1.568825
1.5689762
1.5691427
1.5693255
1.5695251
1.5697418
1.5699746
1.5702215
1.570478
1.5707364
1.5709843
1.5712024
1.5713625
1.5714247
1.5713334
1.5710158
1.5703819
1.569326
1.567731
1.5654815
1.5624615
1.5585887
1.553768
1.5479246
1.5409423
1.5327954
1.5233533
1.5124538
1.500073
1.4862055
1.470948
1.4545496
1.4374463
1.4202659
1.4038865
1.3895012
1.3785667
1.372475
1.3723683
1.3790724
1.3931625
1.4145887
1.4428549
1.4764673
1.5131618
1.5498404
1.5855556
1.6167131
1.6454488
1.6671977
1.6878202
1.6977115
1.7114401
1.5708329
1.5708659
1.5709059
1.5709478
1.5709942
1.5710462
1.5711043
1.5711691
1.5712414
1.5713222
1.5714124
1.5715131
1.5716255
1.5717509
1.5718906
1.572046
1.5722183
1.5724087
1.5726179
1.5728456
1.5730906
1.5733495
1.5736159
1.5738786
1.5741202
1.5743141
1.5744221
1.5743909
1.5741495
1.5736089
1.5726635
1.5711981
1.569094
1.5662451
1.5625549
1.5579474
1.5523636
1.5457459
1.5379335
1.5288276
1.5183252
1.5063298
1.4928442
1.4779827
1.4620639
1.4456709
1.4296961
1.4154258
1.404293
1.3977131
1.396862
1.4027926
1.4161311
1.436781
1.4641964
1.4960654
1.5298525
1.563529
1.5957454
1.6243998
1.6509091
1.671053
1.6904778
1.6997208
1.7130205
1.573699
1.5737227
1.5737512
1.5737816
1.5738155
1.5738536
1.5738963
1.5739443
1.5739983
1.5740589
1.5741272
1.574204
1.5742906
1.5743882
1.5744981
1.574622
1.5747613
1.5749179
1.5750931
1.5752884
1.5755044
1.575741
1.5759965
1.5762666
1.5765433
1.5768133
1.5770552
1.5772382
1.5773187
1.577237
1.5769167
1.5762649
1.575177
1.5735444
1.5712629
1.5682312
1.5643429
1.5595044
1.553598
1.5464858
1.53798
1.5279107
1.5161616
1.5027268
1.48785
1.4720905
1.4564259
1.4421341
1.4306668
1.4235212
1.4220651
1.4274562
1.440249
1.4603935
1.4865151
1.5155614
1.5465505
1.5766791
1.6061034
1.6322095
1.6567422
1.6753713
1.6936802
1.7022609
1.7151801
1.5762595
1.5762755
1.5762946
1.5763153
1.5763385
1.5763647
1.5763942
1.5764276
1.5764653
1.576508
1.5765565
1.5766116
1.5766744
1.5767459
1.5768272
1.5769197
1.577025
1.5771448
1.5772808
1.5774349
1.577609
1.5778054
1.5780252
1.5782687
1.5785347
1.5788198
1.5791176
1.579417
1.5797007
1.5799429
1.5801066
1.5801412
1.579982
1.579547
1.5787385
1.5774421
1.5755255
1.5728319
1.56917
1.564316
1.5579964
1.54993
1.539875
1.5277593
1.5137655
1.4985124
1.4829549
1.4684711
1.4565601
1.4490084
1.447295
1.4525615
1.4653871
1.4846774
1.508271
1.5348984
1.562532
1.5896975
1.6163908
1.6402674
1.6629564
1.680154
1.6974295
1.7053521
1.7179292
1.5784586
1.5784684
1.5784803
1.5784931
1.5785076
1.5785241
1.5785428
1.5785639
1.578588
1.5786156
1.5786473
1.5786835
1.5787243
1.5787704
1.5788233
1.578885
1.5789573
1.5790419
1.5791408
1.579255
1.5793851
1.5795332
1.5797031
1.5798985
1.5801227
1.5803792
1.5806717
1.5810032
1.581377
1.5817954
1.582258
1.5827633
1.5833005
1.5838441
1.5843415
1.5847
1.5847706
1.584332
1.5830987
1.580718
1.576759
1.5707788
1.5624501
1.5516233
1.538438
1.5235082
1.5079106
1.4931022
1.4809365
1.4735323
1.4722346
1.4782301
1.4907823
1.508413
1.529582
1.553426
1.5779549
1.6024329
1.6267611
1.6485652
1.669558
1.6854122
1.7017189
1.7089929
1.7212667
1.580385
1.5803897
1.5803954
1.5804016
1.5804086
1.5804167
1.580426
1.5804367
1.5804492
1.5804636
1.5804803
1.5804995
1.5805217
1.5805479
1.5805795
1.5806173
1.5806617
1.5807131
1.5807732
1.5808446
1.5809304
1.5810314
1.5811495
1.5812888
1.5814547
1.5816569
1.5819063
1.5822134
1.5825932
1.5830669
1.5836613
1.5844147
1.5853655
1.5865401
1.587954
1.5895781
1.5912915
1.5928615
1.5939163
1.5939278
1.5923123
1.5884707
1.5819235
1.572343
1.5598827
1.5451893
1.5294615
1.514874
1.5036297
1.4973146
1.4974637
1.5037353
1.5152365
1.5308662
1.5502227
1.5707146
1.5928807
1.6150259
1.6371921
1.6571119
1.6765434
1.6911373
1.7065477
1.7131843
1.7251882
1.5821149
1.582114
1.582113
1.5821118
1.5821107
1.5821097
1.5821092
1.5821092
1.5821099
1.5821112
1.5821137
1.5821183
1.582125
1.5821313
1.5821362
1.5821422
1.5821517
1.5821673
1.5821927
1.5822296
1.5822783
1.5823378
1.582409
1.5824983
1.5826141
1.5827651
1.5829645
1.5832302
1.5835862
1.5840626
1.5846996
1.5855544
1.5866918
1.5881825
1.5900997
1.5924616
1.5952054
1.5981229
1.6008387
1.6027885
1.6032222
1.6013371
1.5964425
1.5880751
1.5762677
1.5621271
1.5475451
1.5348483
1.5252702
1.5210099
1.5219489
1.5278422
1.538118
1.5522708
1.5688715
1.58746
1.6074508
1.6274735
1.6477125
1.6659076
1.6839078
1.697326
1.7119057
1.7179224
1.7296944
1.5837101
1.5837024
1.5836935
1.583684
1.5836739
1.5836628
1.5836508
1.5836382
1.5836251
1.5836114
1.5835972
1.5835827
1.5835678
1.5835526
1.5835376
1.5835235
1.5835115
1.5835035
1.5835005
1.5835044
1.5835197
1.5835483
1.5835894
1.5836473
1.5837301
1.5838463
1.5840078
1.5842339
1.5845532
1.5850026
1.585622
1.5864667
1.5876185
1.5891653
1.5912024
1.5937964
1.5969591
1.6005575
1.6042519
1.6074648
1.6093372
1.6089255
1.6052718
1.5979147
1.5876684
1.5757221
1.5636964
1.5530635
1.5461082
1.5431506
1.5441895
1.5501363
1.5595283
1.5718937
1.5869075
1.6035691
1.621647
1.6398167
1.6583221
1.6749512
1.6916448
1.7039701
1.717784
1.7232045
1.7347813
1.5848872
1.5848731
1.5848565
1.584839
1.58482
1.5847986
1.5847747
1.5847489
1.584723
1.5846971
1.5846703
1.5846422
1.5846131
1.584583
1.5845517
1.5845197
1.5844875
1.5844558
1.5844264
1.5844024
1.5843877
1.584386
1.5843992
1.5844281
1.5844815
1.5845744
1.5847182
1.5849234
1.5852136
1.5856259
1.5862091
1.5870215
1.5881327
1.58963
1.5916237
1.5942098
1.5973995
1.6011208
1.6050897
1.6087405
1.6112093
1.6116116
1.609338
1.6040885
1.5963783
1.5870672
1.5776906
1.5700369
1.5652153
1.5629228
1.5650413
1.5705504
1.5792998
1.5904497
1.6039928
1.6191076
1.6355533
1.6520723
1.6690322
1.6842431
1.6997467
1.7110606
1.7241698
1.7290192
1.740441
1.5853724
1.5853545
1.5853335
1.5853114
1.5852874
1.5852613
1.585233
1.5852022
1.5851691
1.5851339
1.5850966
1.5850574
1.5850165
1.5849744
1.5849317
1.5848889
1.5848471
1.5848075
1.5847715
1.5847407
1.5847189
1.5847129
1.5847258
1.5847527
1.5847966
1.5848737
1.5849986
1.5851843
1.5854496
1.5858184
1.5863309
1.5870498
1.5880444
1.5893955
1.5911763
1.593465
1.5963619
1.5998332
1.6036718
1.6074098
1.6104307
1.6120095
1.6113644
1.6082466
1.6030822
1.5966371
1.5902052
1.5853824
1.5818938
1.5814684
1.5843502
1.5896075
1.597664
1.6079709
1.6203971
1.6341765
1.6491945
1.6642644
1.6798503
1.693782
1.7082048
1.7185889
1.7310543
1.7353734
1.7466689
1.5847032
1.5846868
1.5846677
1.5846474
1.5846254
1.5846015
1.5845757
1.5845478
1.5845179
1.584486
1.5844522
1.5844167
1.5843796
1.5843414
1.5843026
1.5842637
1.5842257
1.5841893
1.584156
1.5841287
1.5841098
1.5841007
1.5841042
1.5841241
1.584166
1.5842397
1.5843549
1.5845233
1.5847603
1.5850905
1.5855473
1.5861768
1.5870417
1.5882073
1.5897816
1.5918555
1.5944929
1.5977222
1.6014302
1.6053454
1.6089035
1.6114516
1.6123482
1.6113758
1.6087412
1.6049734
1.6016113
1.5988635
1.5974548
1.5985967
1.6017671
1.6072082
1.6149902
1.62466
1.636152
1.648816
1.662617
1.6764164
1.6907851
1.7035666
1.7170132
1.7265461
1.7384249
1.7422519
1.7534404
1.5831362
1.583125
1.5831119
1.583098
1.5830829
1.5830666
1.5830489
1.5830299
1.5830095
1.5829878
1.582965
1.582941
1.5829162
1.5828909
1.5828656
1.5828409
1.5828178
1.5827971
1.5827805
1.5827695
1.5827659
1.5827722
1.5827922
1.5828292
1.5828871
1.5829719
1.5830951
1.5832658
1.583493
1.5837974
1.5842148
1.5848056
1.5856301
1.5867284
1.5881789
1.5901167
1.5926414
1.5957869
1.5995133
1.6036167
1.6076951
1.6111686
1.6134967
1.614397
1.6138685
1.6129014
1.6119891
1.6113109
1.6119593
1.6141217
1.6180723
1.6237989
1.6314051
1.6406086
1.6513737
1.663106
1.6758628
1.688552
1.7018465
1.7135995
1.7261667
1.7349239
1.7462687
1.7496434
1.7607541
1.5808798
1.5808744
1.5808681
1.5808614
1.5808543
1.5808466
1.5808384
1.5808298
1.5808208
1.5808114
1.5808019
1.5807925
1.5807834
1.580775
1.5807678
1.5807628
1.5807608
1.5807631
1.5807713
1.5807873
1.5808134
1.5808525
1.5809072
1.5809808
1.5810745
1.5811955
1.5813621
1.5815848
1.581882
1.5822795
1.5827845
1.5834307
1.5842911
1.5854378
1.5869539
1.58894
1.5914951
1.5946924
1.598548
1.6029293
1.6075024
1.6117933
1.6153024
1.6176192
1.6192734
1.620744
1.6217303
1.6231057
1.6253501
1.6287074
1.6333836
1.6394635
1.6470646
1.6559533
1.6661435
1.6771031
1.6889735
1.7006958
1.7130476
1.7238762
1.7356555
1.7437064
1.7545788
1.7575164
1.7686375
1.578283
1.5782816
1.57828
1.5782785
1.578277
1.5782757
1.5782746
1.5782738
1.5782734
1.5782738
1.5782752
1.5782779
1.5782825
1.5782895
1.5782997
1.5783143
1.5783343
1.5783615
1.578398
1.5784461
1.5785077
1.5785864
1.5786875
1.5788193
1.5789872
1.5792006
1.5794775
1.5798192
1.5802299
1.5807409
1.5813874
1.5822046
1.5832365
1.5845395
1.5862042
1.5883376
1.5910522
1.5944555
1.5985929
1.6033528
1.6084385
1.6134583
1.617817
1.6216709
1.6253963
1.6284005
1.6312168
1.6344155
1.6380891
1.6425233
1.6479547
1.6544497
1.6621263
1.6708067
1.6805536
1.6908749
1.7019922
1.7128728
1.7243972
1.7343975
1.7454794
1.7528808
1.7633471
1.7658608
1.777039
1.5752736
1.5752742
1.5752751
1.5752763
1.575278
1.5752803
1.5752834
1.5752875
1.5752928
1.5752999
1.575309
1.5753208
1.575336
1.5753556
1.5753807
1.5754127
1.5754535
1.5755052
1.5755708
1.5756535
1.5757574
1.5758877
1.5760522
1.5762599
1.5765165
1.5768298
1.5772121
1.5776788
1.5782487
1.5789427
1.5797864
1.5808078
1.5820532
1.5835993
1.5855369
1.5879761
1.5910541
1.594886
1.5994858
1.604732
1.6104022
1.6159316
1.6213007
1.6267294
1.631702
1.6362276
1.6408027
1.6454328
1.6503673
1.6558212
1.6619783
1.6689029
1.6767218
1.6852815
1.6946879
1.7044821
1.7149609
1.7251092
1.7359089
1.7451685
1.7556373
1.7624348
1.7725622
1.7746701
1.7859347
1.5715793
1.5715815
1.5715845
1.571588
1.5715924
1.571598
1.5716048
1.5716134
1.5716242
1.5716376
1.5716543
1.5716752
1.5717012
1.5717338
1.5717743
1.5718249
1.5718878
1.5719661
1.5720633
1.5721839
1.5723335
1.5725183
1.5727465
1.5730263
1.5733671
1.5737823
1.5742866
1.5748977
1.5756334
1.5765126
1.5775632
1.5788335
1.5803841
1.5822864
1.5846479
1.5876005
1.5912752
1.5957427
1.6009746
1.6068648
1.6130336
1.6192966
1.6259226
1.6323884
1.6385412
1.6445531
1.6504332
1.6563352
1.6624089
1.6687879
1.6756332
1.6829906
1.6909867
1.6994847
1.7086301
1.7179868
1.7279214
1.737431
1.747594
1.7561938
1.7661163
1.7723757
1.7822036
1.7839371
1.7953161
1.5667512
1.5667565
1.5667632
1.5667708
1.5667799
1.5667907
1.5668038
1.5668195
1.5668384
1.5668614
1.5668891
1.5669229
1.5669639
1.5670139
1.5670748
1.5671491
1.5672398
1.5673505
1.5674856
1.5676504
1.567851
1.568095
1.5683915
1.5687509
1.569187
1.5697143
1.5703466
1.5711023
1.5720083
1.5730995
1.5744176
1.576017
1.5779725
1.5803854
1.5833773
1.5870718
1.5915557
1.5968329
1.6028591
1.6093965
1.6162291
1.6236618
1.6312618
1.6387048
1.6459903
1.6531657
1.6602493
1.6672865
1.6743722
1.681594
1.6890782
1.6968508
1.7050401
1.713516
1.7224583
1.7314476
1.7409147
1.7498642
1.7594665
1.7674737
1.7769179
1.7826802
1.7922578
1.7936413
1.8051485
1.5603918
1.5604024
1.5604155
1.5604301
1.560447
1.5604667
1.5604897
1.5605167
1.5605485
1.560586
1.5606303
1.5606828
1.5607453
1.5608197
1.5609085
1.5610147
1.5611417
1.5612938
1.5614764
1.561695
1.5619574
1.5622731
1.5626517
1.5631043
1.5636444
1.5642903
1.5650665
1.5660009
1.5671278
1.5684933
1.5701589
1.5722054
1.5747346
1.5778634
1.5817071
1.5863489
1.5918048
1.5980468
1.6049244
1.6122233
1.6202406
1.628678
1.6370742
1.6455292
1.653911
1.6621979
1.6703629
1.6784154
1.6864103
1.6943915
1.7024584
1.7106177
1.7189978
1.7274713
1.7362488
1.7449221
1.753981
1.7624344
1.771536
1.7790211
1.7880235
1.7933543
1.8026952
1.8037767
1.8153931
1.5521608
1.5521792
1.5522017
1.5522263
1.5522544
1.5522867
1.5523239
1.5523667
1.5524163
1.5524738
1.5525406
1.5526185
1.5527094
1.552816
1.552941
1.5530868
1.5532582
1.5534625
1.5537045
1.553989
1.5543237
1.5547196
1.5551902
1.5557505
1.5564183
1.557217
1.558177
1.5593383
1.5607543
1.5624951
1.5646504
1.5673284
1.57065
1.5747271
1.5796398
1.5854058
1.5919978
1.5993004
1.607111
1.6156798
1.6248338
1.6340966
1.643505
1.6529824
1.66241
1.6717222
1.6808764
1.6898475
1.6986567
1.7073166
1.7159046
1.7244109
1.7329646
1.7414391
1.750072
1.758464
1.7671576
1.7751671
1.7838202
1.790833
1.7994401
1.804389
1.8135049
1.8142894
1.8260755
1.5417136
1.5417423
1.541777
1.5418148
1.5418575
1.5419063
1.5419618
1.542025
1.5420971
1.5421789
1.5422715
1.5423782
1.5425048
1.5426534
1.5428222
1.5430154
1.5432404
1.5435031
1.5438104
1.5441704
1.5445922
1.5450874
1.5456713
1.546364
1.5471911
1.5481869
1.5493972
1.5508831
1.5527246
1.5550223
1.557895
1.5614693
1.5658615
1.5711448
1.5773438
1.5844186
1.5922635
1.6006884
1.6098717
1.6197331
1.6298173
1.6401254
1.6506025
1.6611152
1.6715574
1.6818433
1.6919105
1.7017115
1.7112452
1.7205014
1.7295419
1.7383441
1.7470392
1.7555017
1.7639934
1.7721246
1.7804816
1.7880844
1.7963243
1.8029173
1.8111621
1.8158
1.824676
1.8253863
1.8370272
1.5289275
1.5289689
1.529017
1.529067
1.5291216
1.5291858
1.5292659
1.5293602
1.5294614
1.529571
1.5296954
1.5298385
1.5300028
1.5301917
1.5304092
1.5306598
1.5309484
1.5312808
1.531665
1.5321117
1.5326339
1.5332484
1.5339771
1.5348493
1.5359043
1.5371951
1.5387917
1.5407846
1.5432849
1.5464205
1.5503221
1.5551063
1.5608458
1.5675588
1.5752204
1.5836888
1.5927853
1.6026831
1.6133102
1.6242475
1.6354742
1.6469469
1.6585169
1.6700705
1.6814981
1.6927009
1.7036048
1.7141484
1.7243153
1.7340811
1.7434973
1.7525339
1.7613247
1.7697472
1.7780848
1.7859578
1.7939894
1.8012121
1.8090605
1.8152688
1.8231619
1.8275323
1.8361476
1.8366463
1.8481794
1.5137897
1.5138455
1.5139061
1.5139697
1.5140433
1.5141273
1.5142223
1.5143303
1.5144539
1.514596
1.5147601
1.5149509
1.5151717
1.5154214
1.5156971
1.5160038
1.516353
1.516755
1.5172194
1.5177594
1.518392
1.5191403
1.5200352
1.521119
1.5224489
1.5241014
1.5261757
1.5287953
1.5321037
1.5362532
1.5413789
1.5475837
1.5548963
1.5632903
1.5725953
1.5826564
1.5935528
1.6051812
1.6171447
1.6294117
1.6419547
1.6546275
1.6673189
1.6799117
1.6922929
1.7043581
1.7160267
1.7272296
1.737942
1.7481314
1.7578451
1.7670492
1.7758824
1.7842286
1.792388
1.7999959
1.8077019
1.8145588
1.8220307
1.8278945
1.8354507
1.8396908
1.8480464
1.8490476
1.8611065
1.4959814
1.4960483
1.4961327
1.4962245
1.4963266
1.496441
1.4965686
1.4967102
1.4968676
1.4970435
1.4972408
1.4974628
1.4977128
1.4979954
1.4983159
1.4986813
1.4991001
1.4995837
1.5001467
1.5008088
1.5015962
1.5025448
1.503703
1.5051356
1.506928
1.5091894
1.5120533
1.5156731
1.5202101
1.5258105
1.5325806
1.5405731
1.5497198
1.5599459
1.571059
1.5831176
1.5959133
1.6090302
1.6224643
1.6361939
1.6500694
1.6639834
1.6778158
1.6914435
1.7047499
1.7176282
1.7299941
1.7417767
1.7529468
1.7634707
1.7733919
1.7826828
1.7914849
1.7996948
1.8076256
1.814932
1.8222833
1.8287615
1.8358401
1.8413639
1.8485514
1.8527114
1.8605519
1.8627756
1.8718347
1.4771471
1.4772319
1.4773355
1.4774427
1.477561
1.4776929
1.4778397
1.4780031
1.4781853
1.4783889
1.4786169
1.478873
1.4791619
1.4794894
1.4798629
1.4802922
1.4807902
1.481374
1.4820668
1.4828999
1.4839156
1.4851706
1.48674
1.488721
1.4912357
1.4944303
1.4984694
1.5035221
1.5097398
1.5172274
1.526037
1.5360865
1.5472843
1.5595296
1.5726659
1.586512
1.6007092
1.6152992
1.6302364
1.6453549
1.660536
1.6756496
1.6905633
1.7051474
1.7192818
1.7328587
1.7457946
1.75802
1.769507
1.780226
1.7902227
1.7994795
1.8081414
1.8161275
1.8237493
1.8307038
1.8376446
1.8437298
1.8503739
1.8555747
1.8623698
1.8664151
1.8739155
1.8763514
1.8849438
1.4596182
1.4597135
1.4598299
1.4599499
1.4600819
1.4602286
1.4603915
1.4605725
1.4607739
1.4609989
1.4612511
1.4615353
1.4618576
1.4622259
1.4626509
1.4631466
1.4637323
1.4644337
1.4652857
1.4663351
1.4676443
1.4692953
1.4713931
1.4740683
1.4774766
1.4817926
1.4871972
1.4938553
1.501888
1.5113546
1.5222086
1.5343349
1.5477496
1.5618868
1.5767126
1.5920127
1.6077984
1.6239588
1.6403157
1.6567514
1.6731278
1.6893062
1.7051494
1.7205252
1.7353145
1.7494125
1.7627394
1.7752322
1.7868667
1.7976228
1.8075493
1.8166465
1.8250592
1.8327359
1.8399777
1.846536
1.8530249
1.858712
1.8648922
1.869808
1.8761521
1.8802095
1.8871842
1.8903941
1.8979585
1.4464596
1.4465604
1.4466831
1.4468095
1.4469482
1.4471021
1.4472728
1.4474624
1.4476739
1.4479109
1.4481782
1.4484818
1.4488302
1.4492343
1.4497091
1.450275
1.4509592
1.4517987
1.4528429
1.4541573
1.455827
1.4579606
1.4606925
1.4641825
1.4686108
1.4741659
1.4810245
1.4893256
1.4991435
1.5104638
1.5231796
1.537308
1.5522181
1.5677952
1.5841661
1.6010764
1.618346
1.6358397
1.6534294
1.6709741
1.6883313
1.705356
1.7219075
1.7378539
1.7530783
1.7674815
1.7809894
1.7935479
1.8051395
1.8157569
1.8254542
1.83425
1.8422914
1.84956
1.8563381
1.8624437
1.8684291
1.8736967
1.8793826
1.8840105
1.8898914
1.8939158
1.9004372
1.9039097
1.9110614
1.4395253
1.4396265
1.4397492
1.4398757
1.4400143
1.4401682
1.440339
1.4405293
1.4407426
1.4409835
1.4412579
1.4415743
1.4419436
1.4423809
1.4429067
1.4435487
1.4443443
1.4453431
1.4466106
1.4482321
1.4503153
1.4529938
1.4564265
1.4607939
1.4662879
1.4730945
1.4813696
1.4912114
1.5026361
1.5155658
1.5299382
1.545323
1.5614769
1.5786772
1.5964092
1.6145397
1.6329472
1.6514887
1.6700193
1.6883896
1.7064473
1.7240421
1.7410313
1.7572852
1.7726907
1.7871551
1.8006115
1.813015
1.8243596
1.8346498
1.8439509
1.8523009
1.8598448
1.8666012
1.8728292
1.8784168
1.8838456
1.8886621
1.8938254
1.8981572
1.9035699
1.9075786
1.9136601
1.9175863
1.9243337
1.4411236
1.4412201
1.4413358
1.4414564
1.4415887
1.4417355
1.4418992
1.4420826
1.4422899
1.442527
1.4428014
1.4431237
1.4435085
1.4439753
1.4445507
1.4452707
1.446183
1.4473506
1.4488547
1.4507989
1.4533112
1.4565447
1.4606752
1.4658933
1.47239
1.4803351
1.4898518
1.5009916
1.5137165
1.5279232
1.5433866
1.5598409
1.5773254
1.5954333
1.614042
1.6330028
1.652166
1.6713808
1.6904901