/*--------------------------------*- C++ -*----------------------------------*\
  =========                 |
  \\      /  F ield         | OpenFOAM: The Open Source CFD Toolbox
   \\    /   O peration     | Website:  https://openfoam.org
    \\  /    A nd           | Version:  13
     \\/     M anipulation  |
\*---------------------------------------------------------------------------*/
FoamFile
{
    format      ascii;
    class       volScalarField;
    location    "0.006";
    object      CrankNicolson:ddt0(p);
}
// * * * * * * * * * * * * * * * * * * * * * * * * * * * * * * * * * * * * * //

dimensions      [1 -1 -3 0 0 0 0];

internalField   nonuniform List<scalar> 
1000
(
-3.73169e-07
-7.63852e-07
1.35927e-07
4.36131e-06
2.91188e-06
3.22302e-06
-4.36221e-07
-1.22801e-06
-5.30973e-07
-1.57998e-06
-2.18366e-06
9.20893e-07
2.38688e-06
3.88981e-06
6.39311e-06
-2.72335e-06
-5.79386e-07
-5.41006e-07
1.08801e-07
8.16612e-07
-5.58457e-06
-7.1965e-06
-2.02976e-06
9.12775e-07
-4.42314e-06
1.08563e-06
4.01055e-06
-4.84048e-07
5.26082e-06
-7.93821e-06
-1.19579e-07
-3.16297e-06
1.36296e-06
5.05949e-07
3.76189e-08
-2.17895e-06
6.67626e-06
7.79375e-06
9.56092e-06
1.09191e-06
2.50835e-06
-4.41254e-06
1.01466e-06
-6.40228e-06
1.07361e-06
-6.78954e-06
-8.85306e-07
-4.34995e-07
-2.46538e-06
4.33793e-07
-2.98822e-07
4.92168e-07
-1.59125e-06
5.15038e-06
4.34962e-06
8.95679e-08
4.14943e-06
-2.03353e-06
1.79688e-06
1.09126e-06
-2.03703e-07
8.41589e-06
7.10964e-06
5.34612e-06
5.31203e-06
1.67931e-06
-1.63142e-06
-2.68256e-06
-1.45856e-06
1.62365e-06
4.99417e-06
5.18974e-07
-6.82304e-08
-5.44003e-06
-1.04113e-06
-1.03658e-07
-2.738e-06
3.68669e-06
4.36486e-06
-7.74156e-06
-8.33758e-06
3.79526e-08
-6.82704e-07
-3.82359e-06
-2.23848e-06
7.85122e-07
2.64356e-06
4.225e-06
1.66984e-06
1.84865e-06
-1.41848e-07
-4.03456e-07
4.79614e-08
-3.41049e-07
-1.88729e-08
-7.51088e-06
-1.2522e-06
-1.65755e-06
1.9643e-07
2.97555e-06
2.13883e-06
2.16697e-06
-8.89262e-06
-5.40084e-06
1.3848e-06
5.4567e-06
-5.92254e-06
-6.41322e-07
-3.79437e-07
-2.2071e-06
-4.74641e-06
2.20973e-07
7.19557e-07
1.58461e-06
5.49261e-07
6.38921e-06
1.64955e-06
-1.60304e-06
5.19496e-06
-3.23978e-06
-1.67489e-07
8.18588e-07
3.08057e-06
1.80019e-06
4.61196e-06
-2.90055e-06
-1.1907e-07
7.14435e-07
-2.7096e-07
-2.2113e-06
-7.0965e-06
-3.95457e-06
2.11431e-06
3.6326e-06
6.22895e-06
-1.61693e-06
-3.68268e-07
-6.78191e-06
1.77324e-06
-2.23532e-06
2.8147e-07
-6.12827e-06
4.46075e-06
7.66659e-07
7.19976e-06
1.61278e-06
5.18095e-06
3.82729e-06
2.06089e-06
-5.16698e-06
-4.32195e-07
-4.16195e-06
-7.8614e-06
-2.90113e-06
1.11153e-06
2.69451e-07
-4.73413e-07
-1.60736e-07
6.40807e-06
3.52147e-06
6.73865e-07
8.20134e-07
3.2202e-08
-5.93834e-06
-1.00972e-06
3.50453e-06
4.92836e-06
-3.93492e-06
9.45865e-07
-3.65113e-06
-7.10217e-07
-7.76916e-06
-1.2396e-06
-9.49758e-08
4.46376e-07
3.13762e-06
-3.95637e-07
-1.43029e-06
-2.69154e-07
-7.52529e-06
-1.34612e-06
-1.95633e-07
-3.39265e-06
-6.84486e-07
-7.16057e-06
-3.24473e-06
4.49448e-07
-3.99615e-06
-2.84593e-06
5.73645e-07
-7.82174e-07
9.18007e-07
-1.41902e-05
-1.01132e-05
5.20228e-06
1.15448e-06
-9.5282e-07
6.27636e-06
7.85306e-07
-1.67919e-06
2.36338e-07
8.9364e-06
4.33848e-07
-1.49112e-07
-5.14851e-06
1.09846e-06
-2.40264e-06
-2.35024e-06
3.28844e-06
6.77045e-06
-3.44383e-07
-2.69696e-07
-7.12228e-06
-1.8266e-05
-3.06572e-05
-6.63131e-05
-0.000149079
-0.000304215
-0.000599308
-0.00118824
-0.00233701
-0.00456356
-0.00884608
-0.0170269
-0.0325713
-0.0618558
-0.116587
-0.218196
-0.405299
-0.747249
-1.36719
-2.48216
-4.47101
-7.98925
-14.1603
-24.891
-43.3865
-74.9794
-128.45
-218.103
-366.98
-611.787
-1010.29
-1652.33
-2675.78
-4289.51
-6805.56
-10683.2
-16588.4
-25470.6
-38660.5
-57988.8
-85923.3
-125719
-181569
-258727
-363588
-503669
-687455
-924068
-1.22272e+06
-1.59195e+06
-2.03868e+06
-2.56715e+06
-3.17793e+06
-3.86711e+06
-4.62592e+06
-5.44083e+06
-6.29428e+06
-7.16598e+06
-8.03448e+06
-8.87894e+06
-9.68062e+06
-1.04241e+07
-1.10987e+07
-1.16998e+07
-1.2227e+07
-1.26831e+07
-1.30728e+07
-1.34018e+07
-1.36763e+07
-1.39025e+07
-1.40864e+07
-1.42333e+07
-1.43482e+07
-1.44355e+07
-1.4499e+07
-1.45419e+07
-1.45671e+07
-1.45771e+07
-1.45739e+07
-1.45593e+07
-1.45348e+07
-1.45018e+07
-1.44612e+07
-1.44141e+07
-1.43612e+07
-1.43032e+07
-1.42406e+07
-1.4174e+07
-1.41039e+07
-1.40304e+07
-1.3954e+07
-1.38749e+07
-1.37934e+07
-1.37097e+07
-1.36239e+07
-1.35362e+07
-1.34468e+07
-1.33558e+07
-1.32633e+07
-1.31694e+07
-1.30743e+07
-1.2978e+07
-1.28806e+07
-1.27823e+07
-1.2683e+07
-1.25829e+07
-1.24821e+07
-1.23806e+07
-1.22785e+07
-1.21758e+07
-1.20727e+07
-1.19692e+07
-1.18653e+07
-1.17611e+07
-1.16567e+07
-1.15521e+07
-1.14473e+07
-1.13425e+07
-1.12376e+07
-1.11328e+07
-1.10279e+07
-1.09232e+07
-1.08186e+07
-1.07141e+07
-1.06098e+07
-1.05057e+07
-1.04018e+07
-1.02983e+07
-1.0195e+07
-1.0092e+07
-9.98933e+06
-9.88704e+06
-9.78512e+06
-9.68358e+06
-9.58246e+06
-9.48175e+06
-9.38147e+06
-9.28164e+06
-9.18227e+06
-9.08336e+06
-8.98493e+06
-8.88699e+06
-8.78954e+06
-8.69259e+06
-8.59616e+06
-8.50024e+06
-8.40484e+06
-8.30996e+06
-8.21562e+06
-8.12181e+06
-8.02855e+06
-7.93582e+06
-7.84365e+06
-7.75202e+06
-7.66095e+06
-7.57042e+06
-7.48046e+06
-7.39105e+06
-7.3022e+06
-7.21392e+06
-7.12619e+06
-7.03903e+06
-6.95243e+06
-6.86639e+06
-6.78092e+06
-6.69601e+06
-6.61167e+06
-6.52789e+06
-6.44467e+06
-6.36202e+06
-6.27993e+06
-6.1984e+06
-6.11743e+06
-6.03703e+06
-5.95718e+06
-5.87789e+06
-5.79916e+06
-5.72099e+06
-5.64337e+06
-5.56631e+06
-5.48979e+06
-5.41383e+06
-5.33842e+06
-5.26356e+06
-5.18924e+06
-5.11547e+06
-5.04224e+06
-4.96955e+06
-4.8974e+06
-4.82579e+06
-4.75472e+06
-4.68417e+06
-4.61416e+06
-4.54469e+06
-4.47573e+06
-4.40731e+06
-4.33941e+06
-4.27203e+06
-4.20517e+06
-4.13883e+06
-4.073e+06
-4.00769e+06
-3.94289e+06
-3.87859e+06
-3.81481e+06
-3.75153e+06
-3.68875e+06
-3.62647e+06
-3.56469e+06
-3.5034e+06
-3.44261e+06
-3.38231e+06
-3.3225e+06
-3.26317e+06
-3.20433e+06
-3.14597e+06
-3.08809e+06
-3.03069e+06
-2.97376e+06
-2.9173e+06
-2.86132e+06
-2.8058e+06
-2.75074e+06
-2.69616e+06
-2.64203e+06
-2.58836e+06
-2.53514e+06
-2.48238e+06
-2.43007e+06
-2.37821e+06
-2.3268e+06
-2.27583e+06
-2.2253e+06
-2.17521e+06
-2.12556e+06
-2.07634e+06
-2.02756e+06
-1.9792e+06
-1.93128e+06
-1.88378e+06
-1.8367e+06
-1.79004e+06
-1.7438e+06
-1.69798e+06
-1.65257e+06
-1.60757e+06
-1.56298e+06
-1.5188e+06
-1.47502e+06
-1.43165e+06
-1.38867e+06
-1.34608e+06
-1.3039e+06
-1.2621e+06
-1.22069e+06
-1.17967e+06
-1.13903e+06
-1.09877e+06
-1.05889e+06
-1.01938e+06
-980242
-941473
-903067
-865021
-827331
-789991
-752999
-716347
-680030
-644041
-608374
-573021
-537972
-503218
-468747
-434547
-400605
-366905
-333432
-300167
-267093
-234192
-201444
-168835
-136356
-104004
-71791
-39751.9
-7951.22
23500.7
54430.7
84579.9
113577
140909
165891
187643
205089
216985
222003
218888
206687
185049
154519
116742
74473.9
31490
-7902.62
-39597.5
-60474
-68993.2
-65423.4
-51659.7
-30746.7
-6290.18
18079.8
39086.8
53990.5
60742.8
58077.8
45575.2
23728.2
-5979.03
-41014.1
-77822.3
-112015
-138784
-153544
-152625
-134067
-98395.3
-48845.2
9007.21
68154.3
121338
162172
185953
190070
173924
138944
88500.4
27635.9
-37299.1
-99144.4
-150608
-185131
-197846
-186435
-151622
-97602.8
-31597
37263.7
99458
146631
172831
175227
154204
113178
58180.8
-2951.95
-61609.2
-109556
-140104
-149131
-135757
-102498
-55064.3
-1407.55
49690.5
90174
114071
118397
103451
72601.2
31685.4
-12022.4
-51057.5
-79023.9
-91667.5
-87572.7
-68318.1
-38172.9
-3239.41
29777.2
54887.5
67934.2
67285.4
53982
31410.7
4550.94
-21071.7
-40498.7
-50299.2
-49187.5
-38170.9
-20243.2
340.506
19043.1
32041.8
37012.4
33537.7
23064.4
8477.32
-6635.59
-18834.9
-25601.5
-25854.1
-20102.6
-10225.5
1067.48
10945.9
17156.2
18530.3
15190.1
8417.33
245.065
-7116.88
-11862.5
-13025.7
-10665.4
-5766.99
96.8259
5240.85
8338.18
8755.33
6667.45
2937.49
-1190.42
-4483.76
-6079.42
-5703.79
-3698.87
-861.328
1844.04
3598.44
3970.36
3013.2
1199.44
-774.803
-2241.15
-2778.3
-2328.09
-1177.02
179.93
1236.25
1656.88
1382.44
623.259
-245.592
-841.261
-919.001
-452.904
374.554
1264.38
1933.82
2233.01
2192.36
1974.74
1753.73
1588.72
1381.74
957.883
209.462
-803.152
-1883.46
-2835.43
-3576.45
-4130.87
-4529.43
-4725.38
-4605.79
-4075.57
-3136.14
-1896.32
-538.405
733.537
1738.68
2349.86
2517.75
2283.68
1766.98
1125.03
503.976
3.0722
-334.7
-512.028
-558.864
-516.19
-425.288
-321.349
-229.835
-165.073
-131.1
-124.313
-136.944
-160.278
-186.866
-211.573
-231.684
-246.438
-256.357
-262.593
-266.455
-269.125
-271.565
-274.507
-278.482
-283.825
-290.643
-298.783
-307.815
-317.069
-325.738
-333.02
-338.278
-341.155
-341.627
-339.962
-336.632
-332.203
-327.269
-322.44
-318.374
-315.823
-315.615
-318.572
-325.356
-336.3
-351.29
-369.752
-390.744
-413.134
-435.778
-457.663
-477.963
-496.049
-511.487
-524.07
-533.898
-541.478
-547.758
-554.054
-561.828
-572.356
-586.389
-603.919
-624.15
-645.698
-666.969
-686.601
-703.815
-718.573
-731.486
-743.528
-755.658
-768.492
-782.132
-796.201
-810.055
-823.062
-834.874
-845.554
-855.566
-865.668
-876.769
-889.855
-905.969
-926.193
-951.55
-982.785
-1020.11
-1062.9
-1109.38
-1157.14
-1204.3
-1249.87
-1293.44
-1337.05
-1384.92
-1435.4
-1482.13
-1530.7
-1581.22
-1596.42
-1582.93
-1638.43
-1700.5
-1588.26
-1650.24
-2133.28
-1757.19
-539.582
-1871.96
-3107.43
3533.18
4707.19
-12477
-814.143
44275.8
-12263.9
-83739.3
155073
231471
-442514
-99423.6
1.67827e+06
-399502
-3.7428e+06
4.96404e+06
8.95064e+06
-1.77318e+07
-8.5015e+06
6.54996e+07
-7.59211e+06
-1.73654e+08
2.49968e+08
6.37204e+08
2.87324e+08
6.08254e+07
1.04421e+07
1.70373e+06
280938
46458.7
7686.06
1271.62
210.383
34.8071
5.75872
0.952759
0.157631
0.0260794
0.00431465
0.00071333
0.000118433
2.12697e-05
3.28287e-06
1.25883e-08
5.74329e-08
5.65241e-07
-1.3705e-07
4.34444e-07
-1.94449e-07
4.52592e-07
-2.55113e-08
4.4901e-07
-1.4138e-07
2.42411e-07
3.45013e-07
-1.3381e-06
-3.09338e-07
-7.07449e-07
-5.2821e-07
-3.09456e-07
-3.29335e-08
6.63897e-09
1.06347e-07
-6.0485e-07
5.48047e-08
8.34013e-08
-9.54955e-07
-6.94737e-07
2.82841e-07
-2.31685e-07
3.3316e-10
-4.64656e-07
3.30294e-07
-9.99008e-07
7.18173e-08
1.01962e-07
1.53204e-07
6.31628e-07
5.37694e-07
4.12957e-07
1.60912e-07
8.04019e-08
2.68535e-07
-3.27301e-08
-5.3336e-07
-3.72499e-10
-7.98964e-07
-2.94267e-07
2.10864e-07
8.99048e-08
3.52314e-08
-2.62971e-07
2.29417e-07
2.3431e-08
-3.93428e-08
2.87538e-07
-1.35315e-07
-8.87912e-10
-4.59694e-07
1.00213e-07
1.45999e-08
-5.70081e-08
-4.30763e-07
2.59537e-08
-8.48493e-08
1.07206e-07
-3.17885e-07
4.9697e-07
1.0874e-07
1.71527e-08
3.53159e-10
-3.22016e-07
1.09423e-07
3.10623e-07
-2.027e-07
-1.53336e-07
-4.63446e-07
-7.83869e-07
-4.62695e-07
4.46335e-07
1.81379e-08
3.50716e-07
4.67893e-08
-1.21301e-07
4.27758e-07
-9.40154e-08
4.04711e-07
-2.10426e-08
3.66086e-10
-3.53687e-07
6.85295e-08
1.53869e-08
-1.29499e-07
-2.72316e-07
2.56671e-07
-2.65719e-08
1.81555e-07
-3.19903e-07
-8.49965e-07
-4.78543e-07
-5.27311e-07
6.98554e-08
-2.0206e-08
-8.51705e-09
-2.56714e-07
-3.1157e-07
1.9216e-08
8.49508e-07
-4.7462e-08
8.318e-07
5.13923e-07
2.87535e-07
5.78222e-07
6.23698e-07
6.35468e-07
-3.71369e-07
5.8566e-07
1.23012e-07
6.50838e-07
1.09469e-07
1.29581e-06
-2.76584e-08
5.92704e-08
-6.87103e-07
-1.22826e-06
-1.30989e-06
-1.12054e-06
-1.21896e-06
-1.57678e-06
-4.78716e-07
-1.34689e-06
-4.28316e-07
-1.48395e-07
1.36421e-07
-3.08738e-07
6.16716e-07
-9.21258e-08
-2.66142e-07
6.44039e-07
9.40223e-07
-1.26571e-07
6.21919e-07
1.30497e-06
4.22308e-07
9.87992e-08
7.77927e-07
1.04696e-06
-4.57147e-07
1.44922e-07
-4.2842e-08
-7.91713e-09
1.65253e-08
-5.54041e-08
-2.0858e-08
1.63046e-08
8.45083e-09
)
;

boundaryField
{
    sides
    {
        type            calculated;
        value           nonuniform List<scalar> 2(8.45083e-09 -3.73169e-07);
    }
    empty
    {
        type            empty;
    }
}


// ************************************************************************* //
