/*--------------------------------*- C++ -*----------------------------------*\
  =========                 |
  \\      /  F ield         | OpenFOAM: The Open Source CFD Toolbox
   \\    /   O peration     | Website:  https://openfoam.org
    \\  /    A nd           | Version:  13
     \\/     M anipulation  |
\*---------------------------------------------------------------------------*/
FoamFile
{
    format      ascii;
    class       volVectorField;
    location    "0.006";
    object      CrankNicolson:ddtCorrDdt0(rho,U);
}
// * * * * * * * * * * * * * * * * * * * * * * * * * * * * * * * * * * * * * //

dimensions      [1 -2 -2 0 0 0 0];

internalField   nonuniform List<vector> 
1000
(
(4.36557e-09 0 0)
(4.36557e-09 0 0)
(-7.27596e-09 0 0)
(-1.01863e-08 0 0)
(-1.45519e-09 0 0)
(1.45519e-09 0 0)
(4.36557e-09 0 0)
(2.91038e-09 0 0)
(-2.91038e-09 0 0)
(-8.13739e-23 0 0)
(-4.36557e-09 0 0)
(-1.30967e-08 0 0)
(-1.01863e-08 0 0)
(-4.36557e-09 0 0)
(-2.38642e-22 0 0)
(-1.45519e-09 0 0)
(2.91038e-09 0 0)
(1.45519e-09 0 0)
(2.91038e-09 0 0)
(8.73115e-09 0 0)
(7.27596e-09 0 0)
(1.01863e-08 0 0)
(2.91038e-09 0 0)
(6.99937e-23 0 0)
(2.91038e-09 0 0)
(5.82077e-09 0 0)
(2.91038e-09 0 0)
(-8.73115e-09 0 0)
(-8.73115e-09 0 0)
(-1.16415e-08 0 0)
(-1.16415e-08 0 0)
(-4.36557e-09 0 0)
(-1.33063e-22 0 0)
(1.45519e-09 0 0)
(4.36557e-09 0 0)
(8.73115e-09 0 0)
(4.36557e-09 0 0)
(5.82077e-09 0 0)
(4.36557e-09 0 0)
(-1.45519e-09 0 0)
(-1.45519e-09 0 0)
(-2.91038e-09 0 0)
(-4.36557e-09 0 0)
(1.45519e-09 0 0)
(-4.36557e-09 0 0)
(-4.36557e-09 0 0)
(-1.45519e-09 0 0)
(-3.97047e-23 0 0)
(1.45519e-09 0 0)
(-2.91038e-09 0 0)
(-4.36557e-09 0 0)
(-4.36557e-09 0 0)
(1.45519e-09 0 0)
(2.91038e-09 0 0)
(-3.37076e-23 0 0)
(2.91038e-09 0 0)
(1.45519e-09 0 0)
(-2.91038e-09 0 0)
(-5.82077e-09 0 0)
(-5.82077e-09 0 0)
(-4.36557e-09 0 0)
(-4.36557e-09 0 0)
(-1.60071e-08 0 0)
(-1.01863e-08 0 0)
(2.91038e-09 0 0)
(2.91038e-09 0 0)
(2.91038e-09 0 0)
(-1.45519e-09 0 0)
(-1.45519e-09 0 0)
(4.36557e-09 0 0)
(2.91038e-09 0 0)
(-5.82077e-09 0 0)
(-2.91038e-09 0 0)
(-1.45519e-09 0 0)
(-1.45519e-09 0 0)
(2.91038e-09 0 0)
(7.20035e-23 0 0)
(1.45519e-09 0 0)
(4.36557e-09 0 0)
(-1.45519e-09 0 0)
(-4.36557e-09 0 0)
(-4.36557e-09 0 0)
(4.36557e-09 0 0)
(2.91038e-09 0 0)
(-4.36557e-09 0 0)
(1.45519e-09 0 0)
(-4.36557e-09 0 0)
(-7.27596e-09 0 0)
(5.82077e-09 0 0)
(7.27596e-09 0 0)
(-1.45519e-09 0 0)
(-1.45519e-09 0 0)
(-6.54507e-23 0 0)
(1.45519e-09 0 0)
(2.91038e-09 0 0)
(1.2029e-22 0 0)
(-7.27596e-09 0 0)
(1.27224e-22 0 0)
(4.36557e-09 0 0)
(2.91038e-09 0 0)
(-4.36557e-09 0 0)
(-2.91038e-09 0 0)
(4.36557e-09 0 0)
(4.36557e-09 0 0)
(1.45519e-09 0 0)
(-2.91038e-09 0 0)
(-4.36557e-09 0 0)
(-2.91038e-09 0 0)
(-2.24373e-23 0 0)
(5.82077e-09 0 0)
(2.91038e-09 0 0)
(-4.36557e-09 0 0)
(-2.78139e-23 0 0)
(5.82077e-09 0 0)
(-1.10635e-23 0 0)
(-4.36557e-09 0 0)
(1.14358e-22 0 0)
(2.91038e-09 0 0)
(2.91038e-09 0 0)
(-5.82077e-09 0 0)
(-4.36557e-09 0 0)
(-2.48154e-24 0 0)
(-2.91038e-09 0 0)
(-5.82077e-09 0 0)
(-4.36557e-09 0 0)
(-1.45519e-09 0 0)
(-1.01863e-08 0 0)
(-8.73115e-09 0 0)
(-4.36557e-09 0 0)
(-7.27596e-09 0 0)
(-1.01863e-08 0 0)
(-1.45519e-09 0 0)
(-2.91038e-09 0 0)
(-1.45519e-09 0 0)
(2.91038e-09 0 0)
(-1.45519e-09 0 0)
(1.45519e-09 0 0)
(2.91038e-09 0 0)
(1.45519e-09 0 0)
(1.45519e-09 0 0)
(1.44343e-22 0 0)
(-7.27596e-09 0 0)
(-1.48996e-22 0 0)
(2.91038e-09 0 0)
(1.45519e-09 0 0)
(-4.22896e-23 0 0)
(1.01863e-08 0 0)
(8.73115e-09 0 0)
(2.91038e-09 0 0)
(2.91038e-09 0 0)
(4.36557e-09 0 0)
(4.36557e-09 0 0)
(-5.82077e-09 0 0)
(1.45519e-09 0 0)
(5.82077e-09 0 0)
(-2.91038e-09 0 0)
(2.04727e-23 0 0)
(-2.91038e-09 0 0)
(-4.36557e-09 0 0)
(-7.27596e-09 0 0)
(-2.91038e-09 0 0)
(2.91038e-09 0 0)
(-4.36557e-09 0 0)
(-1.45519e-09 0 0)
(2.91038e-09 0 0)
(2.91038e-09 0 0)
(4.36557e-09 0 0)
(2.91038e-09 0 0)
(-2.91038e-09 0 0)
(-5.82077e-09 0 0)
(-1.45519e-09 0 0)
(-1.45519e-09 0 0)
(1.45519e-09 0 0)
(-1.45519e-09 0 0)
(-7.27596e-09 0 0)
(-5.82077e-09 0 0)
(-4.36557e-09 0 0)
(-2.91038e-09 0 0)
(5.82077e-09 0 0)
(8.73115e-09 0 0)
(-2.00591e-23 0 0)
(1.45519e-09 0 0)
(5.82077e-09 0 0)
(4.36557e-09 0 0)
(8.73115e-09 0 0)
(4.36557e-09 0 0)
(2.91038e-09 0 0)
(-4.36557e-09 0 0)
(-4.36557e-09 0 0)
(-5.82077e-09 0 0)
(-5.82077e-09 0 0)
(1.44757e-23 0 0)
(4.36557e-09 0 0)
(-1.45519e-09 0 0)
(-5.00444e-23 0 0)
(4.36557e-09 0 0)
(-1.45519e-09 0 0)
(-1.01863e-08 0 0)
(-2.91038e-09 0 0)
(-2.91038e-09 0 0)
(-1.45519e-09 0 0)
(4.36557e-09 0 0)
(4.36557e-09 0 0)
(7.27596e-09 0 0)
(-1.45519e-09 0 0)
(-5.82077e-09 0 0)
(-8.73115e-09 0 0)
(-4.36557e-09 0 0)
(7.27596e-09 0 0)
(8.73115e-09 0 0)
(1.01863e-08 0 0)
(1.30967e-08 0 0)
(2.32831e-08 0 0)
(4.80213e-08 0 0)
(9.74978e-08 0 0)
(2.09548e-07 0 0)
(4.23461e-07 0 0)
(8.39646e-07 0 0)
(1.67056e-06 0 0)
(3.30037e-06 0 0)
(6.47706e-06 0 0)
(1.26427e-05 0 0)
(2.45011e-05 0 0)
(4.71482e-05 0 0)
(9.00938e-05 0 0)
(0.000170924 0 0)
(0.000321973 0 0)
(0.000602094 0 0)
(0.00111759 0 0)
(0.00205891 0 0)
(0.0037642 0 0)
(0.0068287 0 0)
(0.0122908 0 0)
(0.0219454 0 0)
(0.038866 0 0)
(0.0682649 0 0)
(0.118895 0 0)
(0.205307 0 0)
(0.351437 0 0)
(0.596239 0 0)
(1.00241 0 0)
(1.66972 0 0)
(2.75505 0 0)
(4.50208 0 0)
(7.28447 0 0)
(11.6677 0 0)
(18.4954 0 0)
(29.0083 0 0)
(45.0029 0 0)
(69.0376 0 0)
(104.694 0 0)
(156.891 0 0)
(232.253 0 0)
(339.502 0 0)
(489.85 0 0)
(697.33 0 0)
(978.976 0 0)
(1354.76 0 0)
(1847.17 0 0)
(2480.27 0 0)
(3278.24 0 0)
(4263.31 0 0)
(5453.2 0 0)
(6858.37 0 0)
(8479.33 0 0)
(10304.6 0 0)
(12309.7 0 0)
(14457.6 0 0)
(16700.7 0 0)
(18984.5 0 0)
(21251.6 0 0)
(23446.6 0 0)
(25520.1 0 0)
(27432 0 0)
(29155.6 0 0)
(30678.7 0 0)
(32001 0 0)
(33130.2 0 0)
(34079.2 0 0)
(34863.8 0 0)
(35501 0 0)
(36007.8 0 0)
(36400.1 0 0)
(36693 0 0)
(36899.7 0 0)
(37032.2 0 0)
(37100.7 0 0)
(37114.3 0 0)
(37080.7 0 0)
(37006.5 0 0)
(36897.3 0 0)
(36758.1 0 0)
(36592.8 0 0)
(36405 0 0)
(36197.7 0 0)
(35973.3 0 0)
(35734.1 0 0)
(35481.9 0 0)
(35218.3 0 0)
(34944.6 0 0)
(34662.1 0 0)
(34371.6 0 0)
(34074.1 0 0)
(33770.4 0 0)
(33461.1 0 0)
(33146.9 0 0)
(32828.3 0 0)
(32505.7 0 0)
(32179.6 0 0)
(31850.4 0 0)
(31518.5 0 0)
(31184.1 0 0)
(30847.7 0 0)
(30509.5 0 0)
(30169.8 0 0)
(29828.8 0 0)
(29486.9 0 0)
(29144.1 0 0)
(28800.9 0 0)
(28457.3 0 0)
(28113.6 0 0)
(27769.9 0 0)
(27426.6 0 0)
(27083.6 0 0)
(26741.3 0 0)
(26399.7 0 0)
(26059 0 0)
(25719.3 0 0)
(25380.9 0 0)
(25043.7 0 0)
(24708 0 0)
(24373.8 0 0)
(24041.2 0 0)
(23710.4 0 0)
(23381.3 0 0)
(23054.2 0 0)
(22729.1 0 0)
(22406 0 0)
(22085 0 0)
(21766.2 0 0)
(21449.6 0 0)
(21135.3 0 0)
(20823.3 0 0)
(20513.7 0 0)
(20206.5 0 0)
(19901.7 0 0)
(19599.5 0 0)
(19299.7 0 0)
(19002.4 0 0)
(18707.7 0 0)
(18415.6 0 0)
(18126 0 0)
(17839.1 0 0)
(17554.8 0 0)
(17273.1 0 0)
(16994 0 0)
(16717.6 0 0)
(16443.9 0 0)
(16172.8 0 0)
(15904.4 0 0)
(15638.6 0 0)
(15375.5 0 0)
(15115.1 0 0)
(14857.4 0 0)
(14602.3 0 0)
(14349.9 0 0)
(14100.1 0 0)
(13853 0 0)
(13608.6 0 0)
(13366.8 0 0)
(13127.6 0 0)
(12891.1 0 0)
(12657.2 0 0)
(12425.9 0 0)
(12197.3 0 0)
(11971.3 0 0)
(11747.8 0 0)
(11527 0 0)
(11308.7 0 0)
(11093 0 0)
(10879.8 0 0)
(10669.2 0 0)
(10461.2 0 0)
(10255.6 0 0)
(10052.6 0 0)
(9852.1 0 0)
(9654.08 0 0)
(9458.55 0 0)
(9265.48 0 0)
(9074.87 0 0)
(8886.7 0 0)
(8700.97 0 0)
(8517.65 0 0)
(8336.75 0 0)
(8158.23 0 0)
(7982.1 0 0)
(7808.34 0 0)
(7636.93 0 0)
(7467.86 0 0)
(7301.12 0 0)
(7136.69 0 0)
(6974.57 0 0)
(6814.73 0 0)
(6657.16 0 0)
(6501.86 0 0)
(6348.8 0 0)
(6197.97 0 0)
(6049.36 0 0)
(5902.96 0 0)
(5758.74 0 0)
(5616.7 0 0)
(5476.82 0 0)
(5339.1 0 0)
(5203.5 0 0)
(5070.02 0 0)
(4938.65 0 0)
(4809.38 0 0)
(4682.18 0 0)
(4557.04 0 0)
(4433.95 0 0)
(4312.9 0 0)
(4193.87 0 0)
(4076.85 0 0)
(3961.82 0 0)
(3848.76 0 0)
(3737.68 0 0)
(3628.54 0 0)
(3521.34 0 0)
(3416.07 0 0)
(3312.7 0 0)
(3211.22 0 0)
(3111.63 0 0)
(3013.9 0 0)
(2918.03 0 0)
(2824 0 0)
(2731.79 0 0)
(2641.39 0 0)
(2552.79 0 0)
(2465.97 0 0)
(2380.93 0 0)
(2297.64 0 0)
(2216.09 0 0)
(2136.27 0 0)
(2058.17 0 0)
(1981.76 0 0)
(1907.05 0 0)
(1834.01 0 0)
(1762.63 0 0)
(1692.9 0 0)
(1624.8 0 0)
(1558.33 0 0)
(1493.46 0 0)
(1430.19 0 0)
(1368.49 0 0)
(1308.37 0 0)
(1249.8 0 0)
(1192.76 0 0)
(1137.26 0 0)
(1083.28 0 0)
(1030.79 0 0)
(979.793 0 0)
(930.272 0 0)
(882.214 0 0)
(835.606 0 0)
(790.435 0 0)
(746.688 0 0)
(704.351 0 0)
(663.413 0 0)
(623.86 0 0)
(585.679 0 0)
(548.858 0 0)
(513.384 0 0)
(479.244 0 0)
(446.424 0 0)
(414.913 0 0)
(384.696 0 0)
(355.761 0 0)
(328.095 0 0)
(301.685 0 0)
(276.518 0 0)
(252.581 0 0)
(229.859 0 0)
(208.339 0 0)
(188.007 0 0)
(168.848 0 0)
(150.848 0 0)
(133.992 0 0)
(118.264 0 0)
(103.646 0 0)
(90.1209 0 0)
(77.6678 0 0)
(66.2645 0 0)
(55.8859 0 0)
(46.5032 0 0)
(38.0821 0 0)
(30.5816 0 0)
(23.9511 0 0)
(18.128 0 0)
(13.0342 0 0)
(8.5719 0 0)
(4.61923 0 0)
(1.02556 0 0)
(-2.39195 0 0)
(-5.84904 0 0)
(-9.58887 0 0)
(-13.8662 0 0)
(-18.9153 0 0)
(-24.8959 0 0)
(-31.8132 0 0)
(-39.4161 0 0)
(-47.0912 0 0)
(-53.791 0 0)
(-58.0572 0 0)
(-58.2009 0 0)
(-52.6883 0 0)
(-40.6037 0 0)
(-22.419 0 0)
(-0.0844013 0 0)
(23.1124 0 0)
(43.2634 0 0)
(56.8988 0 0)
(61.961 0 0)
(58.2915 0 0)
(47.4696 0 0)
(32.1538 0 0)
(15.2584 0 0)
(-0.721788 0 0)
(-13.9896 0 0)
(-23.6072 0 0)
(-29.2574 0 0)
(-30.9356 0 0)
(-28.674 0 0)
(-22.3831 0 0)
(-11.8696 0 0)
(2.95213 0 0)
(21.694 0 0)
(43.0699 0 0)
(64.6633 0 0)
(82.8536 0 0)
(93.5162 0 0)
(93.2557 0 0)
(80.3935 0 0)
(55.811 0 0)
(22.9726 0 0)
(-12.9176 0 0)
(-46.2834 0 0)
(-72.4694 0 0)
(-88.6094 0 0)
(-93.4668 0 0)
(-87.4594 0 0)
(-71.9804 0 0)
(-48.7322 0 0)
(-19.5335 0 0)
(13.5888 0 0)
(48.1062 0 0)
(80.7126 0 0)
(107.344 0 0)
(123.654 0 0)
(125.735 0 0)
(111.929 0 0)
(83.2663 0 0)
(43.7297 0 0)
(-0.438193 0 0)
(-42.1466 0 0)
(-75.0168 0 0)
(-94.6187 0 0)
(-98.831 0 0)
(-87.9014 0 0)
(-64.0814 0 0)
(-30.8387 0 0)
(7.53779 0 0)
(46.2388 0 0)
(80.2312 0 0)
(104.729 0 0)
(115.878 0 0)
(111.484 0 0)
(92.0839 0 0)
(60.8674 0 0)
(23.274 0 0)
(-14.0803 0 0)
(-44.7808 0 0)
(-63.8946 0 0)
(-68.7395 0 0)
(-59.1506 0 0)
(-37.3917 0 0)
(-7.45577 0 0)
(25.5881 0 0)
(56.327 0 0)
(79.7702 0 0)
(92.1589 0 0)
(91.5796 0 0)
(78.5628 0 0)
(56.0007 0 0)
(28.5956 0 0)
(1.88033 0 0)
(-18.9525 0 0)
(-30.1128 0 0)
(-29.8555 0 0)
(-18.7468 0 0)
(0.598635 0 0)
(24.1518 0 0)
(47.2777 0 0)
(65.6207 0 0)
(75.9398 0 0)
(76.7109 0 0)
(68.4653 0 0)
(53.638 0 0)
(35.9861 0 0)
(19.714 0 0)
(8.51117 0 0)
(4.75239 0 0)
(9.05976 0 0)
(20.2311 0 0)
(35.639 0 0)
(51.8879 0 0)
(65.6087 0 0)
(74.221 0 0)
(76.4867 0 0)
(72.7559 0 0)
(64.8158 0 0)
(55.3869 0 0)
(47.4101 0 0)
(43.3076 0 0)
(44.4138 0 0)
(50.7093 0 0)
(60.9099 0 0)
(72.8801 0 0)
(84.2345 0 0)
(92.9728 0 0)
(97.9817 0 0)
(99.2832 0 0)
(97.9708 0 0)
(95.8522 0 0)
(94.9165 0 0)
(96.7774 0 0)
(102.256 0 0)
(111.217 0 0)
(122.686 0 0)
(135.214 0 0)
(147.355 0 0)
(158.112 0 0)
(167.234 0 0)
(175.27 0 0)
(183.389 0 0)
(193.018 0 0)
(205.447 0 0)
(221.5 0 0)
(241.394 0 0)
(264.808 0 0)
(291.107 0 0)
(319.665 0 0)
(350.187 0 0)
(383.059 0 0)
(419.886 0 0)
(464.557 0 0)
(525.374 0 0)
(618.827 0 0)
(775.5 0 0)
(1048.19 0 0)
(1521.63 0 0)
(2322.27 0 0)
(3625.28 0 0)
(5655.02 0 0)
(8674.57 0 0)
(12960.2 0 0)
(18758.9 0 0)
(26230.8 0 0)
(35384 0 0)
(46017 0 0)
(57684.9 0 0)
(69708.3 0 0)
(81232.6 0 0)
(91331.2 0 0)
(99134.7 0 0)
(103955 0 0)
(105377 0 0)
(103299 0 0)
(97925.5 0 0)
(89710.8 0 0)
(79288.4 0 0)
(67392.4 0 0)
(54788 0 0)
(42216.7 0 0)
(30352.1 0 0)
(19763.1 0 0)
(10880.1 0 0)
(3965.65 0 0)
(-905.537 0 0)
(-3847.78 0 0)
(-5139.87 0 0)
(-5174.78 0 0)
(-4392.12 0 0)
(-3208.97 0 0)
(-1964.85 0 0)
(-891.218 0 0)
(-107.508 0 0)
(361.802 0 0)
(558.192 0 0)
(557.568 0 0)
(443.183 0 0)
(286.814 0 0)
(139.069 0 0)
(27.5288 0 0)
(-39.683 0 0)
(-67.6401 0 0)
(-67.9857 0 0)
(-53.5308 0 0)
(-34.8063 0 0)
(-18.5835 0 0)
(-7.90812 0 0)
(-3.01571 0 0)
(-2.53451 0 0)
(-4.55794 0 0)
(-7.37502 0 0)
(-9.82384 0 0)
(-11.345 0 0)
(-11.8555 0 0)
(-11.5566 0 0)
(-10.7566 0 0)
(-9.74695 0 0)
(-8.7398 0 0)
(-7.8542 0 0)
(-7.1314 0 0)
(-6.56172 0 0)
(-6.11073 0 0)
(-5.73864 0 0)
(-5.41169 0 0)
(-5.10671 0 0)
(-4.81123 0 0)
(-4.52121 0 0)
(-4.23814 0 0)
(-3.96654 0 0)
(-3.71214 0 0)
(-3.48101 0 0)
(-3.27908 0 0)
(-3.11189 0 0)
(-2.98417 0 0)
(-2.89922 0 0)
(-2.85814 0 0)
(-2.85921 0 0)
(-2.8977 0 0)
(-2.96616 0 0)
(-3.05523 0 0)
(-3.15476 0 0)
(-3.25485 0 0)
(-3.3468 0 0)
(-3.42375 0 0)
(-3.48121 0 0)
(-3.51747 0 0)
(-3.53396 0 0)
(-3.53543 0 0)
(-3.52973 0 0)
(-3.52688 0 0)
(-3.5374 0 0)
(-3.57019 0 0)
(-3.6302 0 0)
(-3.7169 0 0)
(-3.82374 0 0)
(-3.93926 0 0)
(-4.04936 0 0)
(-4.14045 0 0)
(-4.20231 0 0)
(-4.2302 0 0)
(-4.22547 0 0)
(-4.19486 0 0)
(-4.14894 0 0)
(-4.10025 0 0)
(-4.06172 0 0)
(-4.04549 0 0)
(-4.06193 0 0)
(-4.11841 0 0)
(-4.2178 0 0)
(-4.35686 0 0)
(-4.52537 0 0)
(-4.70681 0 0)
(-4.88088 0 0)
(-5.0276 0 0)
(-5.13205 0 0)
(-5.18826 0 0)
(-5.20072 0 0)
(-5.18292 0 0)
(-5.15401 0 0)
(-5.13493 0 0)
(-5.14474 0 0)
(-5.19897 0 0)
(-5.30957 0 0)
(-5.48258 0 0)
(-5.71536 0 0)
(-6.00212 0 0)
(-6.33346 0 0)
(-6.67613 0 0)
(-6.98757 0 0)
(-7.27048 0 0)
(-7.50833 0 0)
(-7.58355 0 0)
(-7.55994 0 0)
(-7.74215 0 0)
(-7.79648 0 0)
(-7.12872 0 0)
(-7.0878 0 0)
(-8.35701 0 0)
(-6.45758 0 0)
(-2.20438 0 0)
(-7.19658 0 0)
(-10.6771 0 0)
(12.7909 0 0)
(15.6591 0 0)
(-37.7517 0 0)
(16.1355 0 0)
(167.262 0 0)
(-34.4586 0 0)
(-227.889 0 0)
(618.245 0 0)
(764.237 0 0)
(-1456.93 0 0)
(150.788 0 0)
(5966.99 0 0)
(-1751.29 0 0)
(-11355.3 0 0)
(19858 0 0)
(28459.2 0 0)
(-61432.8 0 0)
(-12498.1 0 0)
(230671 0 0)
(-57455.5 0 0)
(-519823 0 0)
(1.05835e+06 0 0)
(2.28607e+06 0 0)
(1.05919e+06 0 0)
(223493 0 0)
(37984.5 0 0)
(6363.23 0 0)
(1044.96 0 0)
(172.607 0 0)
(28.5515 0 0)
(4.72366 0 0)
(0.781508 0 0)
(0.129298 0 0)
(0.0213918 0 0)
(0.0035392 0 0)
(0.000585548 0 0)
(9.68766e-05 0 0)
(1.60275e-05 0 0)
(2.65136e-06 0 0)
(4.3874e-07 0 0)
(7.40329e-08 0 0)
(1.34605e-08 0 0)
(1.27329e-09 0 0)
(-1.81899e-10 0 0)
(-4.50187e-23 0 0)
(-5.45697e-10 0 0)
(-1.81899e-10 0 0)
(1.09139e-09 0 0)
(7.27596e-10 0 0)
(-3.70107e-23 0 0)
(-7.27596e-10 0 0)
(-1.45519e-09 0 0)
(-1.09139e-09 0 0)
(-7.27596e-10 0 0)
(-1.45519e-09 0 0)
(-2.00089e-09 0 0)
(-1.45519e-09 0 0)
(-9.09495e-10 0 0)
(-5.45697e-10 0 0)
(-1.41437e-23 0 0)
(-1.81899e-10 0 0)
(-1.09139e-09 0 0)
(-2.00089e-09 0 0)
(-1.09139e-09 0 0)
(-7.27596e-10 0 0)
(-9.09495e-10 0 0)
(1.20975e-23 0 0)
(-6.46235e-24 0 0)
(-3.63798e-10 0 0)
(-1.81899e-10 0 0)
(8.10379e-24 0 0)
(1.81899e-10 0 0)
(5.45697e-10 0 0)
(1.45519e-09 0 0)
(1.09139e-09 0 0)
(3.63798e-10 0 0)
(3.63798e-10 0 0)
(9.09495e-10 0 0)
(-7.27596e-10 0 0)
(-5.45697e-10 0 0)
(-1.81899e-10 0 0)
(-3.63798e-10 0 0)
(-4.67874e-24 0 0)
(-7.27596e-10 0 0)
(-1.09139e-09 0 0)
(9.43503e-24 0 0)
(7.27596e-10 0 0)
(-3.63798e-10 0 0)
(-9.09495e-10 0 0)
(-7.27596e-10 0 0)
(-5.45697e-10 0 0)
(-3.63798e-10 0 0)
(1.81899e-10 0 0)
(-1.81899e-10 0 0)
(5.81611e-25 0 0)
(-1.81899e-10 0 0)
(-3.63798e-10 0 0)
(-5.45697e-10 0 0)
(-3.10193e-24 0 0)
(9.09495e-10 0 0)
(9.09495e-10 0 0)
(1.27329e-09 0 0)
(7.27596e-10 0 0)
(-1.81899e-10 0 0)
(-3.63798e-10 0 0)
(7.27596e-10 0 0)
(1.09139e-09 0 0)
(1.09139e-09 0 0)
(5.45697e-10 0 0)
(1.81899e-10 0 0)
(3.63798e-10 0 0)
(-7.27596e-10 0 0)
(-3.63798e-10 0 0)
(1.81899e-10 0 0)
(-1.81899e-10 0 0)
(-1.09139e-09 0 0)
(-2.18279e-09 0 0)
(-1.27329e-09 0 0)
(4.71751e-24 0 0)
(3.63798e-10 0 0)
(1.81899e-10 0 0)
(7.90911e-24 0 0)
(5.45697e-10 0 0)
(-7.60497e-24 0 0)
(-5.45697e-10 0 0)
(-3.63798e-10 0 0)
(5.45697e-10 0 0)
(1.81899e-10 0 0)
(-1.81899e-10 0 0)
(-3.63798e-10 0 0)
(-1.81899e-10 0 0)
(-5.66021e-24 0 0)
(7.27596e-10 0 0)
(1.81899e-10 0 0)
(-5.45697e-10 0 0)
(-3.63798e-10 0 0)
(-8.3752e-24 0 0)
(-7.27596e-10 0 0)
(-7.27596e-10 0 0)
(3.63798e-10 0 0)
(-1.81899e-10 0 0)
(-5.45697e-10 0 0)
(-5.45697e-10 0 0)
(1.81899e-10 0 0)
(3.63798e-10 0 0)
(-3.63798e-10 0 0)
(3.63798e-10 0 0)
(3.63798e-10 0 0)
(-1.81899e-10 0 0)
(1.81899e-10 0 0)
(9.09495e-10 0 0)
(1.09139e-09 0 0)
(5.45697e-10 0 0)
(9.09495e-10 0 0)
(1.27329e-09 0 0)
(2.00089e-09 0 0)
(2.36469e-09 0 0)
(2.54659e-09 0 0)
(2.36469e-09 0 0)
(1.09139e-09 0 0)
(-1.81899e-10 0 0)
(-3.63798e-10 0 0)
(-3.63798e-10 0 0)
(-1.63709e-09 0 0)
(-1.81899e-09 0 0)
(-1.27329e-09 0 0)
(-2.08088e-24 0 0)
(-1.96377e-23 0 0)
(-1.99557e-23 0 0)
(1.81899e-10 0 0)
(-1.89735e-23 0 0)
(1.81899e-10 0 0)
(7.27596e-10 0 0)
(5.45697e-10 0 0)
(7.27596e-10 0 0)
(1.09139e-09 0 0)
(1.81899e-10 0 0)
(-1.09139e-09 0 0)
(-1.27329e-09 0 0)
(-3.63798e-10 0 0)
(-3.63798e-10 0 0)
(-9.09495e-10 0 0)
(-7.27596e-10 0 0)
(-5.45697e-10 0 0)
(-1.81899e-09 0 0)
(-1.27329e-09 0 0)
(-3.63798e-10 0 0)
(-9.09495e-10 0 0)
(-9.09495e-10 0 0)
(-9.09495e-10 0 0)
(-1.09139e-09 0 0)
(-3.63798e-10 0 0)
(3.63798e-10 0 0)
(-1.81899e-10 0 0)
(-1.81899e-10 0 0)
)
;

boundaryField
{
    sides
    {
        type            calculated;
        value           nonuniform List<vector> 2((-1.81899e-10 0 0) (4.36557e-09 0 0));
    }
    empty
    {
        type            empty;
    }
}


// ************************************************************************* //
