/*--------------------------------*- C++ -*----------------------------------*\
  =========                 |
  \\      /  F ield         | OpenFOAM: The Open Source CFD Toolbox
   \\    /   O peration     | Website:  https://openfoam.org
    \\  /    A nd           | Version:  13
     \\/     M anipulation  |
\*---------------------------------------------------------------------------*/
FoamFile
{
    format      ascii;
    class       volScalarField;
    location    "0.006";
    object      mag(U);
}
// * * * * * * * * * * * * * * * * * * * * * * * * * * * * * * * * * * * * * //

dimensions      [0 1 -1 0 0 0 0];

internalField   nonuniform List<scalar> 
1000
(
2.75214e-12
2.53333e-12
2.66948e-12
2.55278e-12
2.88342e-12
2.53333e-12
3.01957e-12
2.70837e-12
3.42315e-12
2.84939e-12
3.27728e-12
3.16544e-12
3.72462e-12
3.35508e-12
3.86077e-12
3.77811e-12
3.84132e-12
3.80242e-12
3.79756e-12
3.36967e-12
3.38912e-12
2.98067e-12
2.86883e-12
2.84452e-12
2.57223e-12
2.7181e-12
2.36314e-12
2.56736e-12
2.35342e-12
2.52846e-12
2.21241e-12
2.33883e-12
2.00818e-12
2.18323e-12
1.80882e-12
1.51708e-12
1.77479e-12
2.05195e-12
2.11516e-12
2.80076e-12
2.71324e-12
2.65003e-12
2.69379e-12
2.37773e-12
2.24644e-12
1.82341e-12
1.98387e-12
1.69699e-12
2.01305e-12
1.58029e-12
1.91094e-12
1.66295e-12
1.81369e-12
1.74561e-12
2.26589e-12
1.83314e-12
2.1103e-12
1.94497e-12
2.08598e-12
2.02277e-12
1.9936e-12
1.88176e-12
2.57223e-12
2.48957e-12
3.06819e-12
2.96608e-12
3.06333e-12
2.95636e-12
2.76672e-12
2.90773e-12
2.89315e-12
3.22379e-12
2.99526e-12
3.00498e-12
3.00985e-12
2.90287e-12
2.84452e-12
2.88828e-12
3.09251e-12
3.22379e-12
3.00498e-12
3.06333e-12
3.00498e-12
3.02443e-12
2.96608e-12
2.99526e-12
3.00985e-12
3.23352e-12
2.92718e-12
3.2481e-12
2.90287e-12
3.31618e-12
3.09251e-12
3.15572e-12
3.14599e-12
3.13141e-12
3.08278e-12
2.92232e-12
2.93691e-12
3.0293e-12
3.18003e-12
3.31132e-12
3.05361e-12
3.10223e-12
2.86883e-12
3.17031e-12
3.00498e-12
2.98553e-12
3.03416e-12
3.04874e-12
2.84939e-12
3.07792e-12
2.86883e-12
2.96608e-12
2.92718e-12
3.03902e-12
3.09737e-12
3.04388e-12
3.15572e-12
3.16544e-12
2.81535e-12
3.22865e-12
3.02443e-12
3.69545e-12
3.79756e-12
3.96288e-12
4.30811e-12
4.06986e-12
3.98719e-12
3.32104e-12
3.41343e-12
2.72296e-12
2.80076e-12
2.67434e-12
2.96122e-12
2.96608e-12
2.92718e-12
2.97581e-12
2.67434e-12
2.86883e-12
2.37773e-12
2.35828e-12
2.09571e-12
2.15892e-12
2.12002e-12
2.04222e-12
1.89635e-12
2.12002e-12
2.27562e-12
2.42149e-12
2.13461e-12
2.23672e-12
1.76993e-12
1.59488e-12
1.21561e-12
1.55598e-12
1.11836e-12
1.42955e-12
1.48304e-12
1.85259e-12
1.93039e-12
2.0714e-12
2.12002e-12
1.89635e-12
1.65323e-12
1.53653e-12
1.46359e-12
1.35176e-12
1.58029e-12
1.55598e-12
1.51708e-12
1.32258e-12
1.16212e-12
1.1913e-12
1.39552e-12
1.34203e-12
1.60946e-12
1.51222e-12
1.35176e-12
1.29341e-12
1.23506e-12
1.25937e-12
1.04542e-12
9.72486e-13
6.90465e-13
5.78629e-13
2.47984e-13
4.86243e-15
2.91746e-13
5.78629e-13
8.26613e-13
9.53037e-13
1.5268e-12
1.4879e-12
2.04222e-12
1.67268e-12
1.77965e-12
1.51222e-12
1.84772e-12
1.71644e-12
2.13947e-12
1.93039e-12
1.73103e-12
1.7991e-12
1.50735e-12
1.85745e-12
1.88662e-12
2.01791e-12
2.26103e-12
1.86231e-12
1.79424e-12
1.7213e-12
2.28534e-12
3.25297e-12
5.62097e-12
1.07265e-11
2.08793e-11
4.15932e-11
8.26516e-11
1.6452e-10
3.24572e-10
6.37868e-10
1.24452e-09
2.41296e-09
4.64662e-09
8.88779e-09
1.68826e-08
3.18434e-08
5.96346e-08
1.10871e-07
2.04617e-07
3.74819e-07
6.81409e-07
1.22929e-06
2.20043e-06
3.90765e-06
6.88376e-06
1.20276e-05
2.0841e-05
3.58082e-05
6.09964e-05
0.000102996
0.000172368
0.000285854
0.000469682
0.000764463
0.0012323
0.00196696
0.00310815
0.00486111
0.00752307
0.0115179
0.0174403
0.026111
0.038642
0.0565113
0.0816439
0.116492
0.164106
0.228185
0.31309
0.423808
0.565852
0.745089
0.967499
1.23888
1.56452
1.94886
2.39522
2.9056
3.48056
4.11924
4.81945
5.57793
6.39061
7.25297
8.16039
9.10834
10.0925
11.109
12.1541
13.2248
14.318
15.4314
16.5628
17.7102
18.8721
20.0471
21.2338
22.4313
23.6387
24.855
26.0797
27.3122
28.5518
29.7981
31.0507
32.3092
33.5732
34.8426
36.1169
37.3959
38.6794
39.9672
41.2591
42.5549
43.8544
45.1574
46.4639
47.7735
49.0863
50.402
51.7205
53.0417
54.3655
55.6918
57.0204
58.3512
59.6842
61.0193
62.3563
63.6952
65.0358
66.3782
67.7221
69.0677
70.4147
71.7631
73.1128
74.4639
75.8161
77.1696
78.5242
79.8798
81.2365
82.5942
83.9528
85.3123
86.6727
88.0339
89.3959
90.7586
92.1221
93.4863
94.8512
96.2167
97.5829
98.9497
100.317
101.685
103.053
104.422
105.792
107.162
108.532
109.903
111.274
112.646
114.018
115.39
116.763
118.136
119.51
120.884
122.258
123.633
125.008
126.383
127.758
129.134
130.51
131.886
133.262
134.639
136.016
137.393
138.77
140.148
141.526
142.904
144.282
145.66
147.039
148.417
149.796
151.175
152.554
153.933
155.312
156.692
158.071
159.451
160.831
162.211
163.591
164.971
166.351
167.731
169.111
170.491
171.872
173.252
174.633
176.013
177.394
178.774
180.155
181.535
182.916
184.297
185.677
187.058
188.438
189.819
191.199
192.58
193.96
195.341
196.721
198.101
199.481
200.861
202.241
203.621
205.001
206.381
207.76
209.139
210.519
211.898
213.277
214.655
216.034
217.412
218.79
220.168
221.546
222.923
224.301
225.677
227.054
228.43
229.806
231.181
232.557
233.931
235.305
236.679
238.053
239.425
240.798
242.169
243.54
244.911
246.28
247.649
249.017
250.384
251.751
253.116
254.48
255.844
257.206
258.566
259.926
261.284
262.64
263.994
265.347
266.698
268.046
269.392
270.736
272.076
273.413
274.747
276.077
277.403
278.725
280.041
281.351
282.655
283.952
285.24
286.52
287.789
289.046
290.29
291.519
292.73
293.921
295.088
296.229
297.338
298.411
299.441
300.421
301.343
302.195
302.968
303.645
304.212
304.649
304.936
305.049
304.964
304.653
304.093
303.261
302.143
300.735
299.049
297.121
295.009
292.801
290.608
288.56
286.796
285.441
284.597
284.322
284.624
285.462
286.749
288.371
290.195
292.087
293.918
295.575
296.962
298.002
298.643
298.855
298.632
297.996
296.997
295.712
294.244
292.717
291.264
290.017
289.087
288.556
288.457
288.779
289.463
290.418
291.529
292.674
293.737
294.617
295.236
295.547
295.535
295.219
294.647
293.895
293.057
292.235
291.525
291.007
290.733
290.721
290.955
291.386
291.944
292.546
293.111
293.567
293.864
293.972
293.892
293.648
293.287
292.867
292.455
292.109
291.876
291.782
291.83
291.999
292.254
292.546
292.827
293.052
293.19
293.226
293.164
293.023
292.833
292.632
292.455
292.331
292.278
292.296
292.378
292.5
292.637
292.762
292.852
292.893
292.884
292.83
292.747
292.655
292.572
292.515
292.492
292.505
292.547
292.605
292.667
292.717
292.747
292.752
292.733
292.699
292.658
292.62
292.594
292.585
292.592
292.612
292.639
292.665
292.684
292.692
292.688
292.676
292.658
292.641
292.628
292.623
292.626
292.635
292.646
292.657
292.664
292.666
292.663
292.657
292.649
292.643
292.64
292.64
292.643
292.648
292.652
292.655
292.656
292.655
292.652
292.649
292.647
292.646
292.647
292.649
292.652
292.655
292.658
292.663
292.67
292.681
292.697
292.72
292.748
292.782
292.817
292.852
292.883
292.906
292.916
292.912
292.891
292.853
292.799
292.731
292.654
292.573
292.494
292.423
292.366
292.328
292.314
292.323
292.354
292.402
292.46
292.521
292.577
292.623
292.657
292.676
292.684
292.683
292.677
292.668
292.659
292.652
292.647
292.644
292.644
292.644
292.645
292.647
292.648
292.648
292.649
292.649
292.649
292.649
292.648
292.648
292.648
292.648
292.649
292.649
292.649
292.649
292.649
292.649
292.649
292.649
292.649
292.649
292.649
292.649
292.649
292.649
292.649
292.649
292.649
292.649
292.649
292.649
292.649
292.649
292.649
292.649
292.649
292.649
292.649
292.649
292.649
292.65
292.65
292.65
292.65
292.65
292.65
292.65
292.65
292.65
292.65
292.65
292.651
292.651
292.651
292.651
292.651
292.651
292.651
292.651
292.651
292.651
292.652
292.652
292.652
292.652
292.652
292.652
292.652
292.652
292.652
292.652
292.653
292.653
292.653
292.653
292.653
292.653
292.653
292.653
292.653
292.653
292.654
292.654
292.654
292.654
292.654
292.655
292.655
292.655
292.655
292.655
292.656
292.656
292.656
292.656
292.656
292.657
292.657
292.657
292.657
292.657
292.658
292.657
292.656
292.657
292.656
292.652
292.651
292.655
292.641
292.614
292.635
292.634
292.484
292.463
292.715
292.304
291.44
292.567
293.12
287.461
286.702
296.508
268.669
163.407
51.5478
9.97891
1.71562
0.283425
0.0467966
0.00773987
0.00128049
0.000211852
3.50501e-05
5.79891e-06
9.59405e-07
1.58727e-07
2.62586e-08
4.34207e-09
7.16407e-10
1.16159e-10
1.71352e-11
2.91746e-13
2.33883e-12
3.24325e-12
3.24811e-12
3.91426e-12
3.57876e-12
3.61279e-12
3.47178e-12
3.36481e-12
3.79756e-12
3.7538e-12
4.34702e-12
3.89481e-12
4.13794e-12
3.22866e-12
3.20921e-12
2.71324e-12
2.78618e-12
2.14434e-12
2.55764e-12
2.19782e-12
2.13461e-12
1.62892e-12
1.56571e-12
1.16699e-12
1.09405e-12
7.05054e-13
1.03084e-12
6.95329e-13
7.9744e-13
4.76519e-13
7.05054e-13
2.62572e-13
6.22392e-13
8.1689e-13
8.55789e-13
1.40524e-12
1.71644e-12
1.93039e-12
1.92066e-12
1.83314e-12
1.94984e-12
2.227e-12
1.6046e-12
1.54139e-12
1.16699e-12
1.57057e-12
1.63864e-12
1.69213e-12
1.3858e-12
1.43928e-12
1.16699e-12
1.48304e-12
1.2691e-12
1.35176e-12
1.05515e-12
1.06001e-12
9.7735e-13
1.12809e-12
1.2691e-12
1.24965e-12
1.53167e-12
1.54139e-12
1.89149e-12
1.43928e-12
1.81855e-12
2.16379e-12
2.29507e-12
2.50416e-12
2.46039e-12
2.43122e-12
2.45553e-12
2.57709e-12
2.35828e-12
2.18324e-12
1.9547e-12
1.44901e-12
1.31286e-12
9.19001e-13
1.17671e-12
1.06974e-12
1.1135e-12
1.40524e-12
1.41983e-12
1.83314e-12
1.76507e-12
1.94498e-12
1.71644e-12
1.82828e-12
1.67268e-12
1.48791e-12
1.48791e-12
1.37607e-12
1.77965e-12
1.42469e-12
1.37121e-12
1.1913e-12
1.09405e-12
6.75879e-13
6.46704e-13
7.48816e-13
7.82853e-13
7.05054e-13
3.84133e-13
2.72297e-13
1.50736e-13
1.16699e-13
5.83493e-14
3.40371e-13
1.36148e-13
5.05694e-13
6.66154e-13
9.7735e-13
8.07165e-13
1.12809e-12
1.40038e-12
1.85259e-12
2.21241e-12
2.90774e-12
3.08765e-12
3.28215e-12
2.92233e-12
2.33883e-12
1.89635e-12
4.81381e-13
1.94498e-14
1.11836e-12
1.52681e-12
2.40691e-12
2.44094e-12
3.06334e-12
2.70352e-12
3.3016e-12
2.83966e-12
3.49123e-12
3.15572e-12
2.8737e-12
2.40691e-12
2.17837e-12
1.96443e-12
1.58029e-12
9.968e-13
1.11836e-12
6.80741e-13
6.02942e-13
1.6046e-13
3.20921e-13
2.43122e-14
2.23672e-13
2.1881e-13
2.47984e-13
3.20921e-13
2.28535e-13
2.13947e-13
)
;

boundaryField
{
    sides
    {
        type            calculated;
        value           nonuniform List<scalar> 2(2.13947e-13 2.75214e-12);
    }
    empty
    {
        type            empty;
    }
}


// ************************************************************************* //
