/*--------------------------------*- C++ -*----------------------------------*\
  =========                 |
  \\      /  F ield         | OpenFOAM: The Open Source CFD Toolbox
   \\    /   O peration     | Website:  https://openfoam.org
    \\  /    A nd           | Version:  13
     \\/     M anipulation  |
\*---------------------------------------------------------------------------*/
FoamFile
{
    format      ascii;
    class       volScalarField;
    location    "0.006";
    object      p;
}
// * * * * * * * * * * * * * * * * * * * * * * * * * * * * * * * * * * * * * //

dimensions      [1 -1 -2 0 0 0 0];

internalField   nonuniform List<scalar> 
1000
(
100000
100000
100000
100000
100000
100000
100000
100000
100000
100000
100000
100000
100000
100000
100000
100000
100000
100000
100000
100000
100000
100000
100000
100000
100000
100000
100000
100000
100000
100000
100000
100000
100000
100000
100000
100000
100000
100000
100000
100000
100000
100000
100000
100000
100000
100000
100000
100000
100000
100000
100000
100000
100000
100000
100000
100000
100000
100000
100000
100000
100000
100000
100000
100000
100000
100000
100000
100000
100000
100000
100000
100000
100000
100000
100000
100000
100000
100000
100000
100000
100000
100000
100000
100000
100000
100000
100000
100000
100000
100000
100000
100000
100000
100000
100000
100000
100000
100000
100000
100000
100000
100000
100000
100000
100000
100000
100000
100000
100000
100000
100000
100000
100000
100000
100000
100000
100000
100000
100000
100000
100000
100000
100000
100000
100000
100000
100000
100000
100000
100000
100000
100000
100000
100000
100000
100000
100000
100000
100000
100000
100000
100000
100000
100000
100000
100000
100000
100000
100000
100000
100000
100000
100000
100000
100000
100000
100000
100000
100000
100000
100000
100000
100000
100000
100000
100000
100000
100000
100000
100000
100000
100000
100000
100000
100000
100000
100000
100000
100000
100000
100000
100000
100000
100000
100000
100000
100000
100000
100000
100000
100000
100000
100000
100000
100000
100000
100000
100000
100000
100000
100000
100000
100000
100000
100000
100000
100000
100000
100000
100000
100000
100000
100000
100000
100000
100000
100000
100000
100000
100000
100000
100000
100000
100000
100000
100000
100000
100000
100000
100000
100000
100000
100000
100000
100000
100000
100000
100000
100000
100000
100000
100000
99999.9
99999.9
99999.8
99999.7
99999.5
99999.3
99998.9
99998.2
99997.2
99995.8
99993.6
99990.4
99985.7
99979.1
99969.8
99956.9
99939.2
99915.5
99883.9
99842.8
99789.9
99723.2
99640.5
99539.5
99418.3
99275.4
99109.6
98920.1
98707
98470.6
98211.9
97932.4
97633.6
97317.4
96985.6
96640.1
96282.6
95914.6
95537.5
95152.6
94760.9
94363.6
93961.4
93554.9
93145
92732.1
92316.7
91899.2
91479.9
91059.2
90637.4
90214.6
89791.1
89367
88942.6
88517.9
88093.2
87668.4
87243.8
86819.4
86395.2
85971.5
85548.2
85125.5
84703.4
84281.9
83861.1
83441.1
83021.9
82603.6
82186.2
81769.8
81354.3
80939.9
80526.6
80114.4
79703.3
79293.4
78884.7
78477.3
78071.1
77666.2
77262.6
76860.3
76459.4
76059.9
75661.7
75265
74869.7
74475.8
74083.3
73692.4
73302.9
72914.8
72528.3
72143.3
71759.7
71377.7
70997.2
70618.3
70240.8
69864.9
69490.5
69117.7
68746.4
68376.7
68008.5
67641.9
67276.8
66913.3
66551.3
66190.8
65832
65474.6
65118.9
64764.6
64412
64060.8
63711.2
63363.2
63016.7
62671.7
62328.3
61986.4
61646.1
61307.3
60970
60634.2
60300
59967.2
59636
59306.3
58978.1
58651.4
58326.2
58002.6
57680.4
57359.7
57040.4
56722.7
56406.5
56091.7
55778.4
55466.5
55156.2
54847.2
54539.8
54233.8
53929.2
53626.1
53324.4
53024.2
52725.4
52428
52132
51837.5
51544.3
51252.6
50962.3
50673.3
50385.8
50099.7
49814.9
49531.6
49249.6
48969
48689.7
48411.9
48135.3
47860.2
47586.4
47313.9
47042.8
46773
46504.6
46237.5
45971.7
45707.2
45444.1
45182.3
44921.8
44662.6
44404.7
44148.1
43892.8
43638.7
43386
43134.6
42884.4
42635.5
42387.9
42141.6
41896.5
41652.7
41410.1
41168.8
40928.8
40690
40452.4
40216.1
39981.1
39747.3
39514.7
39283.3
39053.2
38824.4
38596.7
38370.3
38145.1
37921.2
37698.5
37477
37256.7
37037.7
36819.9
36603.3
36388
36173.9
35961
35749.4
35539.1
35330
35122.2
34915.6
34710.4
34506.4
34303.7
34102.4
33902.4
33703.8
33506.6
33310.7
33116.4
32923.4
32732.1
32542.2
32354
32167.5
31982.7
31799.7
31618.7
31439.6
31262.7
31088.2
30916.1
30746.6
30580.1
30416.7
30256.9
30101
29949.4
29802.7
29661.6
29526.8
29399.2
29279.9
29170.1
29071.4
28985.4
28914.3
28860.2
28825.9
28814.2
28828.3
28871.3
28946.3
29056.1
29202.4
29385.6
29604.2
29853.5
30126.1
30410.6
30692.8
30955.8
31182
31354.9
31461.8
31495.2
31454.4
31345.3
31179
30971
30738.3
30498.1
30266.7
30058.3
29884.7
29755
29675.8
29650.3
29678.9
29758.8
29883.8
30043.9
30226.5
30416.2
30596.4
30750.8
30865.7
30931
30942.7
30902.5
30817.7
30700.1
30563.8
30423.7
30294.2
30187.2
30112.2
30074.7
30076.2
30114.6
30183.6
30274.2
30375
30473.8
30559
30621.1
30653.9
30655.3
30627.4
30576.1
30509.9
30438.5
30371.7
30317.8
30282.9
30270
30279.4
30307.8
30350.1
30399
30447.1
30487.4
30514.5
30525.6
30520.2
30500.6
30471.3
30437.8
30405.6
30379.7
30363.9
30359.6
30366.5
30382.5
30404
30426.7
30446.7
30460.8
30467
30465
30456
30442.3
30427.1
30413.2
30403.1
30398.4
30399.4
30405.2
30414.3
30424.5
30433.6
30439.9
30442.4
30441.1
30436.6
30430.3
30423.7
30418.2
30415
30414.4
30416.3
30419.9
30424.3
30428.3
30431.1
30432.2
30431.5
30429.4
30426.6
30423.8
30421.9
30421
30421.3
30422.6
30424.4
30426.2
30427.5
30428.1
30427.8
30427
30425.8
30424.7
30424
30423.7
30424
30424.7
30425.4
30426
30426.4
30426.4
30426.1
30425.6
30425.2
30424.9
30424.8
30425
30425.2
30425.5
30425.7
30425.8
30425.8
30425.6
30425.5
30425.3
30425.3
30425.3
30425.4
30425.5
30425.6
30425.6
30425.5
30425.4
30425.3
30425.2
30425.2
30425.1
30425.1
30425
30425
30425
30425
30425.1
30425.2
30425.3
30425.5
30425.6
30425.8
30425.9
30426
30426.1
30426.2
30426.2
30426.2
30426.1
30426
30425.9
30425.9
30425.8
30425.8
30425.8
30425.8
30425.8
30425.8
30425.8
30425.8
30425.9
30425.9
30425.9
30425.9
30425.9
30425.9
30425.9
30425.9
30425.9
30425.9
30425.9
30425.9
30425.9
30425.9
30425.9
30425.9
30425.9
30425.9
30425.9
30425.9
30425.9
30425.9
30425.9
30425.9
30425.9
30425.9
30425.9
30425.9
30425.9
30425.9
30425.9
30426
30426
30426
30426
30426
30426
30426
30426
30426
30426.1
30426.1
30426.1
30426.1
30426.1
30426.1
30426.1
30426.1
30426.1
30426.1
30426.1
30426.1
30426.1
30426.1
30426.1
30426.1
30426.2
30426.2
30426.2
30426.2
30426.2
30426.2
30426.2
30426.2
30426.2
30426.2
30426.2
30426.2
30426.2
30426.3
30426.3
30426.3
30426.3
30426.3
30426.3
30426.3
30426.4
30426.4
30426.4
30426.4
30426.5
30426.5
30426.5
30426.5
30426.5
30426.5
30426.6
30426.6
30426.6
30426.6
30426.6
30426.6
30426.7
30426.7
30426.7
30426.7
30426.7
30426.8
30426.8
30426.8
30426.8
30426.9
30426.9
30426.9
30426.9
30427
30426.9
30426.9
30427
30427
30426.3
30426.2
30427.4
30425.5
30421.8
30427.6
30430.4
30406.5
30406.1
30459.9
30399.9
30256.1
30480.6
30658.6
29745.9
29653.3
32079.2
29036.9
18399.6
11978.6
10351.6
10057.7
10009.5
10001.6
10000.3
10000
10000
10000
10000
10000
10000
10000
10000
10000
10000
10000
10000
10000
10000
10000
10000
10000
10000
10000
10000
10000
10000
10000
10000
10000
10000
10000
10000
10000
10000
10000
10000
10000
10000
10000
10000
10000
10000
10000
10000
10000
10000
10000
10000
10000
10000
10000
10000
10000
10000
10000
10000
10000
10000
10000
10000
10000
10000
10000
10000
10000
10000
10000
10000
10000
10000
10000
10000
10000
10000
10000
10000
10000
10000
10000
10000
10000
10000
10000
10000
10000
10000
10000
10000
10000
10000
10000
10000
10000
10000
10000
10000
10000
10000
10000
10000
10000
10000
10000
10000
10000
10000
10000
10000
10000
10000
10000
10000
10000
10000
10000
10000
10000
10000
10000
10000
10000
10000
10000
10000
10000
10000
10000
10000
10000
10000
10000
10000
10000
10000
10000
10000
10000
10000
10000
10000
10000
10000
10000
10000
10000
10000
10000
10000
10000
10000
10000
10000
10000
10000
10000
10000
10000
10000
10000
10000
10000
10000
10000
10000
10000
10000
10000
10000
10000
)
;

boundaryField
{
    sides
    {
        type            zeroGradient;
    }
    empty
    {
        type            empty;
    }
}


// ************************************************************************* //
