/*--------------------------------*- C++ -*----------------------------------*\
  =========                 |
  \\      /  F ield         | OpenFOAM: The Open Source CFD Toolbox
   \\    /   O peration     | Website:  https://openfoam.org
    \\  /    A nd           | Version:  13
     \\/     M anipulation  |
\*---------------------------------------------------------------------------*/
FoamFile
{
    format      ascii;
    class       volScalarField;
    location    "0.006";
    object      p_0;
}
// * * * * * * * * * * * * * * * * * * * * * * * * * * * * * * * * * * * * * //

dimensions      [1 -1 -2 0 0 0 0];

internalField   nonuniform List<scalar> 
1000
(
100000
100000
100000
100000
100000
100000
100000
100000
100000
100000
100000
100000
100000
100000
100000
100000
100000
100000
100000
100000
100000
100000
100000
100000
100000
100000
100000
100000
100000
100000
100000
100000
100000
100000
100000
100000
100000
100000
100000
100000
100000
100000
100000
100000
100000
100000
100000
100000
100000
100000
100000
100000
100000
100000
100000
100000
100000
100000
100000
100000
100000
100000
100000
100000
100000
100000
100000
100000
100000
100000
100000
100000
100000
100000
100000
100000
100000
100000
100000
100000
100000
100000
100000
100000
100000
100000
100000
100000
100000
100000
100000
100000
100000
100000
100000
100000
100000
100000
100000
100000
100000
100000
100000
100000
100000
100000
100000
100000
100000
100000
100000
100000
100000
100000
100000
100000
100000
100000
100000
100000
100000
100000
100000
100000
100000
100000
100000
100000
100000
100000
100000
100000
100000
100000
100000
100000
100000
100000
100000
100000
100000
100000
100000
100000
100000
100000
100000
100000
100000
100000
100000
100000
100000
100000
100000
100000
100000
100000
100000
100000
100000
100000
100000
100000
100000
100000
100000
100000
100000
100000
100000
100000
100000
100000
100000
100000
100000
100000
100000
100000
100000
100000
100000
100000
100000
100000
100000
100000
100000
100000
100000
100000
100000
100000
100000
100000
100000
100000
100000
100000
100000
100000
100000
100000
100000
100000
100000
100000
100000
100000
100000
100000
100000
100000
100000
100000
100000
100000
100000
100000
100000
100000
100000
100000
100000
100000
100000
100000
100000
100000
100000
100000
100000
100000
100000
100000
100000
100000
100000
100000
100000
100000
99999.9
99999.9
99999.9
99999.8
99999.6
99999.4
99999
99998.5
99997.7
99996.4
99994.5
99991.8
99987.7
99982
99973.8
99962.4
99946.7
99925.4
99897
99859.7
99811.6
99750.4
99673.9
99580
99466.6
99331.9
99174.6
98993.9
98789.4
98561.3
98310.6
98038.3
97746
97435.6
97109
96767.8
96414
96049.2
95674.7
95291.9
94902.1
94506.1
94104.9
93699.3
93290
92877.5
92462.2
92044.8
91625.5
91204.6
90782.5
90359.3
89935.4
89510.9
89085.9
88660.7
88235.3
87809.9
87384.5
86959.4
86534.5
86109.9
85685.9
85262.3
84839.3
84416.9
83995.2
83574.3
83154.2
82735
82316.6
81899.2
81482.8
81067.4
80653.1
80239.9
79827.8
79416.9
79007.2
78598.7
78191.5
77785.5
77380.9
76977.6
76575.7
76175.1
75775.9
75378.1
74981.7
74586.8
74193.3
73801.3
73410.7
73021.7
72634.1
72248
71863.4
71480.4
71098.9
70718.9
70340.4
69963.5
69588.1
69214.3
68842
68471.2
68102.1
67734.4
67368.3
67003.8
66640.9
66279.5
65919.6
65561.3
65204.6
64849.4
64495.8
64143.7
63793.2
63444.2
63096.8
62750.9
62406.5
62063.7
61722.5
61382.8
61044.6
60707.9
60372.8
60039.2
59707.1
59376.5
59047.4
58719.9
58393.9
58069.3
57746.3
57424.7
57104.7
56786.1
56469.1
56153.5
55839.4
55526.7
55215.6
54905.9
54597.6
54290.8
53985.5
53681.6
53379.2
53078.2
52778.6
52480.5
52183.8
51888.5
51594.6
51302.2
51011.1
50721.5
50433.2
50146.4
49861
49576.9
49294.2
49012.9
48733
48454.5
48177.3
47901.5
47627
47353.9
47082.1
46811.7
46542.6
46274.9
46008.5
45743.4
45479.7
45217.2
44956.1
44696.3
44437.8
44180.6
43924.7
43670.1
43416.8
43164.8
42914.1
42664.6
42416.4
42169.5
41923.9
41679.6
41436.5
41194.6
40954.1
40714.7
40476.7
40239.9
40004.3
39770
39536.9
39305
39074.4
38845.1
38616.9
38390.1
38164.4
37940
37716.8
37494.8
37274.1
37054.6
36836.3
36619.3
36403.6
36189
35975.7
35763.7
35552.9
35343.4
35135.2
34928.2
34722.5
34518.2
34315.1
34113.4
33913
33714
33516.3
33320.1
33125.4
32932.1
32740.3
32550.1
32361.5
32174.6
31989.5
31806.1
31624.7
31445.3
31268.1
31093.2
30920.7
30751
30584.1
30420.4
30260.2
30104
29952.1
29805.1
29663.6
29528.5
29400.5
29280.9
29170.8
29071.8
28985.5
28914
28859.7
28825.1
28813.1
28826.9
28869.6
28944.4
29054
29200.2
29383.4
29602
29851.5
30124.2
30409.1
30691.6
30955
31181.6
31355
31462.2
31495.8
31455.1
31345.9
31179.6
30971.3
30738.3
30498
30266.3
30057.7
29884.1
29754.5
29675.3
29650
29679
29759.2
29884.5
30045.1
30227.9
30417.7
30597.9
30752.2
30866.6
30931.5
30942.6
30901.8
30816.5
30698.5
30561.9
30421.8
30292.4
30185.9
30111.3
30074.4
30076.6
30115.6
30185.1
30276.1
30377
30475.6
30560.5
30622.1
30654.3
30654.9
30626.4
30574.6
30508.2
30436.8
30370.2
30316.7
30282.3
30270
30280
30308.9
30351.5
30400.5
30448.5
30488.4
30515.1
30525.6
30519.7
30499.7
30470.2
30436.6
30404.5
30379
30363.5
30359.7
30367
30383.3
30404.9
30427.6
30447.4
30461.2
30467
30464.7
30455.4
30441.6
30426.4
30412.6
30402.8
30398.3
30399.6
30405.6
30414.8
30425
30434
30440.1
30442.4
30440.9
30436.3
30429.9
30423.3
30418
30414.9
30414.4
30416.5
30420.2
30424.6
30428.5
30431.2
30432.2
30431.4
30429.2
30426.4
30423.7
30421.8
30421
30421.4
30422.7
30424.5
30426.3
30427.6
30428.1
30427.8
30426.9
30425.7
30424.6
30423.9
30423.7
30424.1
30424.7
30425.5
30426.1
30426.4
30426.4
30426.1
30425.6
30425.2
30424.9
30424.8
30425
30425.2
30425.5
30425.7
30425.8
30425.7
30425.6
30425.4
30425.3
30425.3
30425.4
30425.4
30425.5
30425.6
30425.6
30425.5
30425.4
30425.3
30425.2
30425.2
30425.1
30425.1
30425
30425
30425
30425
30425.1
30425.2
30425.4
30425.5
30425.7
30425.8
30426
30426.1
30426.2
30426.2
30426.2
30426.2
30426.1
30426
30425.9
30425.8
30425.8
30425.8
30425.8
30425.8
30425.8
30425.8
30425.8
30425.9
30425.9
30425.9
30425.9
30425.9
30425.9
30425.9
30425.9
30425.9
30425.9
30425.9
30425.9
30425.9
30425.9
30425.9
30425.9
30425.9
30425.9
30425.9
30425.9
30425.9
30425.9
30425.9
30425.9
30425.9
30425.9
30425.9
30425.9
30425.9
30425.9
30425.9
30426
30426
30426
30426
30426
30426
30426
30426
30426
30426
30426.1
30426.1
30426.1
30426.1
30426.1
30426.1
30426.1
30426.1
30426.1
30426.1
30426.1
30426.1
30426.1
30426.1
30426.1
30426.1
30426.2
30426.2
30426.2
30426.2
30426.2
30426.2
30426.2
30426.2
30426.2
30426.2
30426.2
30426.2
30426.3
30426.3
30426.3
30426.3
30426.3
30426.3
30426.3
30426.4
30426.4
30426.4
30426.4
30426.4
30426.5
30426.5
30426.5
30426.5
30426.5
30426.6
30426.6
30426.6
30426.6
30426.6
30426.6
30426.6
30426.7
30426.7
30426.7
30426.7
30426.8
30426.8
30426.8
30426.8
30426.9
30426.9
30426.9
30426.9
30426.9
30426.9
30426.9
30426.9
30427.1
30426.7
30426.1
30426.9
30427
30422.9
30423.5
30431.8
30419.8
30397.9
30436.1
30453.1
30303.3
30319.9
30673.4
30269.7
29346.2
30931.6
31785.2
23325.7
14038.2
10781.5
10131.2
10021.5
10003.5
10000.6
10000.1
10000
10000
10000
10000
10000
10000
10000
10000
10000
10000
10000
10000
10000
10000
10000
10000
10000
10000
10000
10000
10000
10000
10000
10000
10000
10000
10000
10000
10000
10000
10000
10000
10000
10000
10000
10000
10000
10000
10000
10000
10000
10000
10000
10000
10000
10000
10000
10000
10000
10000
10000
10000
10000
10000
10000
10000
10000
10000
10000
10000
10000
10000
10000
10000
10000
10000
10000
10000
10000
10000
10000
10000
10000
10000
10000
10000
10000
10000
10000
10000
10000
10000
10000
10000
10000
10000
10000
10000
10000
10000
10000
10000
10000
10000
10000
10000
10000
10000
10000
10000
10000
10000
10000
10000
10000
10000
10000
10000
10000
10000
10000
10000
10000
10000
10000
10000
10000
10000
10000
10000
10000
10000
10000
10000
10000
10000
10000
10000
10000
10000
10000
10000
10000
10000
10000
10000
10000
10000
10000
10000
10000
10000
10000
10000
10000
10000
10000
10000
10000
10000
10000
10000
10000
10000
10000
10000
10000
10000
10000
10000
10000
10000
10000
10000
10000
)
;

boundaryField
{
    sides
    {
        type            calculated;
        value           nonuniform List<scalar> 2(10000 100000);
    }
    empty
    {
        type            empty;
    }
}


// ************************************************************************* //
