/*--------------------------------*- C++ -*----------------------------------*\
  =========                 |
  \\      /  F ield         | OpenFOAM: The Open Source CFD Toolbox
   \\    /   O peration     | Website:  https://openfoam.org
    \\  /    A nd           | Version:  13
     \\/     M anipulation  |
\*---------------------------------------------------------------------------*/
FoamFile
{
    format      ascii;
    class       surfaceScalarField;
    location    "0.006";
    object      phi_0;
}
// * * * * * * * * * * * * * * * * * * * * * * * * * * * * * * * * * * * * * //

dimensions      [1 0 -1 0 0 0 0];

internalField   nonuniform List<scalar> 
999
(
-1.07045e-11
-1.01326e-11
-1.03457e-11
-1.06114e-11
-1.0998e-11
-1.10729e-11
-1.13941e-11
-1.22063e-11
-1.2273e-11
-1.20791e-11
-1.24918e-11
-1.27946e-11
-1.37953e-11
-1.44674e-11
-1.5574e-11
-1.51128e-11
-1.58232e-11
-1.4932e-11
-1.44829e-11
-1.40939e-11
-1.30662e-11
-1.17777e-11
-1.11332e-11
-1.12229e-11
-1.08029e-11
-1.01199e-11
-9.95457e-12
-9.45591e-12
-9.63202e-12
-9.07842e-12
-8.82683e-12
-8.48039e-12
-8.37583e-12
-8.2068e-12
-6.85543e-12
-6.14777e-12
-7.84966e-12
-8.25033e-12
-1.0418e-11
-1.09563e-11
-1.10543e-11
-1.04047e-11
-1.02538e-11
-9.11352e-12
-8.28231e-12
-6.6171e-12
-7.73098e-12
-7.45295e-12
-7.00285e-12
-6.8545e-12
-7.3208e-12
-6.72763e-12
-6.89087e-12
-8.29528e-12
-8.6563e-12
-7.67273e-12
-8.25353e-12
-7.8317e-12
-8.27528e-12
-7.76663e-12
-7.00302e-12
-8.43668e-12
-9.74923e-12
-1.10481e-11
-1.24628e-11
-1.23323e-11
-1.19944e-11
-1.10281e-11
-1.12053e-11
-1.1679e-11
-1.24888e-11
-1.23133e-11
-1.19903e-11
-1.16043e-11
-1.18123e-11
-1.15612e-11
-1.14122e-11
-1.17624e-11
-1.29276e-11
-1.26171e-11
-1.13277e-11
-1.18966e-11
-1.2025e-11
-1.19095e-11
-1.1538e-11
-1.18984e-11
-1.25103e-11
-1.20665e-11
-1.20875e-11
-1.29139e-11
-1.19941e-11
-1.27551e-11
-1.24622e-11
-1.2264e-11
-1.27361e-11
-1.20195e-11
-1.19578e-11
-1.16029e-11
-1.15612e-11
-1.27682e-11
-1.28293e-11
-1.31521e-11
-1.22137e-11
-1.19715e-11
-1.14329e-11
-1.26442e-11
-1.17752e-11
-1.18101e-11
-1.23925e-11
-1.21129e-11
-1.18525e-11
-1.16747e-11
-1.15382e-11
-1.18232e-11
-1.15214e-11
-1.24486e-11
-1.22297e-11
-1.27811e-11
-1.25575e-11
-1.17517e-11
-1.18881e-11
-1.19786e-11
-1.34921e-11
-1.45767e-11
-1.59309e-11
-1.58988e-11
-1.64716e-11
-1.61654e-11
-1.44377e-11
-1.33705e-11
-1.18748e-11
-1.06249e-11
-1.0773e-11
-1.13332e-11
-1.19683e-11
-1.16408e-11
-1.1903e-11
-1.12863e-11
-1.15008e-11
-1.02364e-11
-9.90274e-12
-7.91582e-12
-8.79009e-12
-8.48439e-12
-8.08891e-12
-7.88144e-12
-8.31678e-12
-9.146e-12
-9.86014e-12
-9.33958e-12
-9.058e-12
-8.09463e-12
-6.87113e-12
-5.04435e-12
-5.80504e-12
-5.22814e-12
-4.96337e-12
-5.43189e-12
-6.53722e-12
-7.5712e-12
-8.05879e-12
-8.33586e-12
-8.2855e-12
-6.92843e-12
-6.23217e-12
-5.95143e-12
-6.03322e-12
-5.32231e-12
-6.45027e-12
-6.2773e-12
-5.88126e-12
-4.45681e-12
-4.33325e-12
-5.34001e-12
-4.99381e-12
-5.58049e-12
-6.4324e-12
-5.73866e-12
-5.65712e-12
-5.37284e-12
-4.92746e-12
-4.89601e-12
-3.88669e-12
-3.89765e-12
-2.73884e-12
-1.87613e-12
-5.24578e-13
6.92909e-13
2.15463e-12
2.8659e-12
3.67702e-12
4.42799e-12
6.27549e-12
7.33709e-12
7.6029e-12
6.82603e-12
6.52015e-12
6.9472e-12
7.06509e-12
7.86942e-12
8.23185e-12
7.08586e-12
6.80908e-12
6.34358e-12
6.82712e-12
7.63883e-12
8.22838e-12
8.59749e-12
8.17515e-12
6.94317e-12
6.08979e-12
6.72362e-12
8.8946e-12
1.32677e-11
2.29338e-11
4.40215e-11
8.63043e-11
1.72428e-10
3.43522e-10
6.82652e-10
1.34876e-09
2.6498e-09
5.17019e-09
1.00245e-08
1.93054e-08
3.69292e-08
7.01496e-08
1.32318e-07
2.47798e-07
4.607e-07
8.50228e-07
1.55741e-06
2.8312e-06
5.10731e-06
9.14146e-06
1.62326e-05
2.85927e-05
4.99528e-05
8.6545e-05
0.000148676
0.000253216
0.000427492
0.000715283
0.00118596
0.00194815
0.00317001
0.00510853
0.00815155
0.0128765
0.0201314
0.0311432
0.0476601
0.0721335
0.107942
0.159657
0.23335
0.336912
0.480377
0.676198
0.939433
1.28777
1.74134
2.32226
3.0539
3.95981
5.06247
6.38194
7.93444
9.73131
11.7781
14.0744
16.6137
19.3843
22.3701
25.552
28.9092
32.4211
36.0677
39.8304
43.6919
47.637
51.6519
55.7248
59.845
64.0036
68.1927
72.4055
76.6361
80.8795
85.1313
89.3877
93.6455
97.9017
102.154
106.4
110.638
114.866
119.083
123.287
127.478
131.653
135.812
139.955
144.08
148.186
152.273
156.341
160.388
164.414
168.418
172.401
176.361
180.298
184.212
188.102
191.968
195.81
199.627
203.419
207.186
210.927
214.642
218.332
221.995
225.631
229.242
232.825
236.382
239.912
243.414
246.89
250.338
253.759
257.153
260.519
263.858
267.169
270.453
273.709
276.938
280.139
283.313
286.459
289.578
292.67
295.734
298.771
301.781
304.763
307.718
310.646
313.547
316.421
319.268
322.089
324.882
327.649
330.389
333.103
335.79
338.451
341.086
343.694
346.277
348.833
351.364
353.869
356.348
358.801
361.23
363.632
366.01
368.362
370.689
372.991
375.268
377.521
379.748
381.952
384.13
386.285
388.415
390.521
392.603
394.662
396.696
398.707
400.694
402.658
404.598
406.515
408.409
410.28
412.128
413.953
415.756
417.536
419.293
421.028
422.741
424.432
426.101
427.748
429.373
430.977
432.558
434.119
435.658
437.176
438.672
440.148
441.603
443.037
444.45
445.843
447.215
448.567
449.899
451.211
452.502
453.774
455.026
456.258
457.471
458.664
459.837
460.992
462.127
463.244
464.341
465.42
466.479
467.521
468.543
469.548
470.534
471.501
472.451
473.383
474.297
475.193
476.072
476.932
477.776
478.602
479.411
480.203
480.977
481.735
482.476
483.2
483.908
484.599
485.273
485.932
486.574
487.2
487.81
488.404
488.982
489.544
490.091
490.622
491.138
491.638
492.124
492.594
493.049
493.489
493.914
494.325
494.72
495.102
495.468
495.821
496.159
496.483
496.792
497.088
497.37
497.638
497.892
498.132
498.359
498.572
498.772
498.958
499.131
499.29
499.437
499.57
499.69
499.797
499.891
499.971
500.039
500.093
500.135
500.164
500.179
500.182
500.172
500.149
500.114
500.067
500.009
499.941
499.864
499.78
499.692
499.601
499.512
499.427
499.352
499.289
499.241
499.211
499.198
499.2
499.215
499.239
499.266
499.292
499.312
499.323
499.325
499.317
499.3
499.277
499.252
499.227
499.207
499.196
499.197
499.213
499.243
499.287
499.342
499.403
499.464
499.517
499.556
499.574
499.57
499.541
499.491
499.425
499.348
499.27
499.198
499.141
499.103
499.091
499.104
499.143
499.202
499.276
499.354
499.428
499.488
499.526
499.538
499.521
499.479
499.418
499.346
499.274
499.209
499.161
499.136
499.135
499.158
499.2
499.255
499.313
499.367
499.406
499.426
499.425
499.402
499.363
499.314
499.264
499.219
499.187
499.171
499.173
499.191
499.22
499.255
499.287
499.312
499.324
499.322
499.307
499.281
499.25
499.219
499.193
499.176
499.17
499.174
499.187
499.203
499.219
499.23
499.233
499.228
499.215
499.197
499.176
499.157
499.141
499.132
499.128
499.13
499.133
499.137
499.138
499.135
499.126
499.114
499.098
499.082
499.066
499.053
499.043
499.036
499.03
499.024
499.016
499.006
498.992
498.976
498.958
498.939
498.92
498.901
498.884
498.866
498.848
498.828
498.806
498.782
498.754
498.724
498.691
498.656
498.619
498.579
498.537
498.49
498.439
498.382
498.318
498.245
498.158
498.049
497.9
497.685
497.356
496.842
496.043
494.821
493.005
490.388
486.745
481.852
475.514
467.595
458.053
446.96
434.514
421.025
406.897
392.59
378.573
365.291
353.124
342.369
333.221
325.773
320.018
315.861
313.127
311.589
310.985
311.042
311.506
312.156
312.824
313.4
313.828
314.097
314.225
314.249
314.21
314.142
314.071
314.014
313.975
313.956
313.951
313.955
313.963
313.971
313.978
313.983
313.985
313.987
313.987
313.987
313.988
313.989
313.99
313.992
313.993
313.995
313.996
313.997
313.998
313.999
314
314.001
314.002
314.002
314.003
314.004
314.004
314.005
314.005
314.006
314.006
314.006
314.007
314.007
314.007
314.007
314.008
314.008
314.008
314.008
314.009
314.009
314.009
314.009
314.01
314.01
314.01
314.011
314.011
314.011
314.012
314.012
314.012
314.013
314.013
314.013
314.013
314.014
314.014
314.014
314.015
314.015
314.016
314.016
314.016
314.016
314.017
314.017
314.017
314.018
314.018
314.018
314.018
314.019
314.019
314.019
314.02
314.02
314.02
314.021
314.021
314.021
314.022
314.022
314.022
314.023
314.023
314.024
314.024
314.024
314.025
314.025
314.026
314.026
314.027
314.027
314.028
314.028
314.029
314.029
314.029
314.03
314.031
314.03
314.029
314.032
314.032
314.02
314.026
314.046
314.001
313.951
314.075
314.067
313.633
313.835
314.738
313.226
311.275
316.29
317.159
299.959
306.476
350.73
279.9
112.965
26.4812
4.55714
0.734262
0.121128
0.0200482
0.00331771
0.000548937
9.08206e-05
1.5026e-05
2.48599e-06
4.11298e-07
6.80467e-08
1.12571e-08
1.86161e-09
3.07109e-10
5.00432e-11
7.4695e-12
-1.40215e-13
-1.32995e-12
-1.4932e-12
-1.60246e-12
-1.77716e-12
-1.87584e-12
-1.8242e-12
-1.73292e-12
-1.7401e-12
-1.70733e-12
-1.91061e-12
-1.93929e-12
-2.04064e-12
-2.07694e-12
-1.70094e-12
-1.60467e-12
-1.38849e-12
-1.34817e-12
-1.19262e-12
-1.20994e-12
-1.11442e-12
-1.10589e-12
-8.90962e-13
-6.85334e-13
-7.26221e-13
-5.15751e-13
-4.56798e-13
-3.93634e-13
-4.55841e-13
-3.70944e-13
-3.06725e-13
-3.42376e-13
-2.71799e-13
-2.42138e-13
-3.6336e-13
-4.36523e-13
-5.70269e-13
-7.96753e-13
-8.92083e-13
-9.63164e-13
-9.20172e-13
-9.63124e-13
-1.02013e-12
-9.23429e-13
-8.36806e-13
-6.0678e-13
-6.21434e-13
-8.62292e-13
-8.0291e-13
-7.70125e-13
-6.92647e-13
-6.29482e-13
-6.77409e-13
-6.84806e-13
-6.55149e-13
-5.97925e-13
-4.98762e-13
-5.39654e-13
-4.98345e-13
-6.1101e-13
-6.96794e-13
-7.13729e-13
-8.18402e-13
-8.39983e-13
-8.52847e-13
-7.66116e-13
-1.0743e-12
-1.16129e-12
-1.24817e-12
-1.22896e-12
-1.21355e-12
-1.19297e-12
-1.23807e-12
-1.32214e-12
-1.07702e-12
-9.98563e-13
-8.21848e-13
-5.83664e-13
-5.88347e-13
-5.15578e-13
-5.96139e-13
-5.6789e-13
-5.85166e-13
-7.21565e-13
-7.88965e-13
-9.11796e-13
-9.35929e-13
-9.21919e-13
-8.60094e-13
-8.94595e-13
-7.67579e-13
-7.61694e-13
-6.86211e-13
-8.35106e-13
-7.66253e-13
-7.12546e-13
-6.48008e-13
-5.55189e-13
-4.40107e-13
-2.72026e-13
-3.55967e-13
-3.66452e-13
-3.79214e-13
-2.62222e-13
-1.63676e-13
-5.02059e-14
1.85891e-14
-7.05213e-14
-9.81103e-14
-1.50373e-13
-1.93649e-13
-3.6281e-13
-4.50947e-13
-5.04902e-13
-5.09833e-13
-6.80059e-13
-8.82838e-13
-1.09393e-12
-1.34675e-12
-1.55663e-12
-1.6061e-12
-1.59622e-12
-1.34704e-12
-9.94988e-13
-5.29058e-13
-1.25217e-13
3.46949e-13
6.2578e-13
1.00942e-12
1.26159e-12
1.35638e-12
1.42249e-12
1.44917e-12
1.53747e-12
1.56819e-12
1.56804e-12
1.6454e-12
1.35778e-12
1.12107e-12
1.07057e-12
9.50077e-13
6.26959e-13
5.00677e-13
5.53799e-13
3.92271e-13
2.03658e-13
1.30965e-13
1.17862e-13
-3.59105e-15
-7.17262e-14
-1.12224e-13
-1.11147e-13
-1.21486e-13
-1.32193e-13
)
;

boundaryField
{
    sides
    {
        type            calculated;
        value           nonuniform List<scalar> 2(-9.45874e-14 1.12341e-11);
    }
    empty
    {
        type            empty;
    }
}


// ************************************************************************* //
