/*--------------------------------*- C++ -*----------------------------------*\
  =========                 |
  \\      /  F ield         | OpenFOAM: The Open Source CFD Toolbox
   \\    /   O peration     | Website:  https://openfoam.org
    \\  /    A nd           | Version:  13
     \\/     M anipulation  |
\*---------------------------------------------------------------------------*/
FoamFile
{
    format      ascii;
    class       volScalarField;
    location    "0.006";
    object      rho_0;
}
// * * * * * * * * * * * * * * * * * * * * * * * * * * * * * * * * * * * * * //

dimensions      [1 -3 0 0 0 0 0];

internalField   nonuniform List<scalar> 
1000
(
0.997575
0.997575
0.997575
0.997575
0.997575
0.997575
0.997575
0.997575
0.997575
0.997575
0.997575
0.997575
0.997575
0.997575
0.997575
0.997575
0.997575
0.997575
0.997575
0.997575
0.997575
0.997575
0.997575
0.997575
0.997575
0.997575
0.997575
0.997575
0.997575
0.997575
0.997575
0.997575
0.997575
0.997575
0.997575
0.997575
0.997575
0.997575
0.997575
0.997575
0.997575
0.997575
0.997575
0.997575
0.997575
0.997575
0.997575
0.997575
0.997575
0.997575
0.997575
0.997575
0.997575
0.997575
0.997575
0.997575
0.997575
0.997575
0.997575
0.997575
0.997575
0.997575
0.997575
0.997575
0.997575
0.997575
0.997575
0.997575
0.997575
0.997575
0.997575
0.997575
0.997575
0.997575
0.997575
0.997575
0.997575
0.997575
0.997575
0.997575
0.997575
0.997575
0.997575
0.997575
0.997575
0.997575
0.997575
0.997575
0.997575
0.997575
0.997575
0.997575
0.997575
0.997575
0.997575
0.997575
0.997575
0.997575
0.997575
0.997575
0.997575
0.997575
0.997575
0.997575
0.997575
0.997575
0.997575
0.997575
0.997575
0.997575
0.997575
0.997575
0.997575
0.997575
0.997575
0.997575
0.997575
0.997575
0.997575
0.997575
0.997575
0.997575
0.997575
0.997575
0.997575
0.997575
0.997575
0.997575
0.997575
0.997575
0.997575
0.997575
0.997575
0.997575
0.997575
0.997575
0.997575
0.997575
0.997575
0.997575
0.997575
0.997575
0.997575
0.997575
0.997575
0.997575
0.997575
0.997575
0.997575
0.997575
0.997575
0.997575
0.997575
0.997575
0.997575
0.997575
0.997575
0.997575
0.997575
0.997575
0.997575
0.997575
0.997575
0.997575
0.997575
0.997575
0.997575
0.997575
0.997575
0.997575
0.997575
0.997575
0.997575
0.997575
0.997575
0.997575
0.997575
0.997575
0.997575
0.997575
0.997575
0.997575
0.997575
0.997575
0.997575
0.997575
0.997575
0.997575
0.997575
0.997575
0.997575
0.997575
0.997575
0.997575
0.997575
0.997575
0.997575
0.997575
0.997575
0.997575
0.997575
0.997575
0.997575
0.997575
0.997575
0.997575
0.997575
0.997575
0.997575
0.997575
0.997575
0.997575
0.997575
0.997575
0.997575
0.997575
0.997575
0.997575
0.997575
0.997575
0.997575
0.997575
0.997575
0.997575
0.997575
0.997575
0.997575
0.997575
0.997575
0.997575
0.997575
0.997575
0.997575
0.997575
0.997575
0.997575
0.997575
0.997575
0.997575
0.997574
0.997574
0.997574
0.997574
0.997574
0.997574
0.997573
0.997572
0.99757
0.997568
0.997564
0.997558
0.997549
0.997536
0.997516
0.997487
0.997446
0.997388
0.997307
0.997195
0.997043
0.996841
0.996576
0.996233
0.995797
0.995252
0.994582
0.993774
0.992813
0.991691
0.990401
0.98894
0.98731
0.985516
0.983567
0.981473
0.979247
0.976903
0.974452
0.971907
0.96928
0.966581
0.963819
0.961002
0.958138
0.955233
0.952292
0.94932
0.946321
0.943299
0.940257
0.937197
0.934122
0.931033
0.927933
0.924823
0.921704
0.918578
0.915446
0.912308
0.909166
0.90602
0.90287
0.899719
0.896566
0.893411
0.890256
0.887101
0.883946
0.880791
0.877638
0.874486
0.871336
0.868189
0.865044
0.861901
0.858762
0.855627
0.852495
0.849367
0.846244
0.843125
0.840011
0.836902
0.833798
0.830699
0.827606
0.824519
0.821437
0.818362
0.815293
0.81223
0.809174
0.806124
0.803081
0.800045
0.797016
0.793993
0.790978
0.78797
0.78497
0.781977
0.778991
0.776012
0.773042
0.770078
0.767123
0.764175
0.761235
0.758303
0.755378
0.752462
0.749553
0.746652
0.743759
0.740874
0.737997
0.735128
0.732268
0.729415
0.72657
0.723734
0.720905
0.718085
0.715272
0.712468
0.709672
0.706884
0.704105
0.701333
0.69857
0.695815
0.693068
0.690329
0.687599
0.684876
0.682162
0.679456
0.676758
0.674068
0.671387
0.668714
0.666049
0.663392
0.660743
0.658102
0.65547
0.652846
0.650229
0.647621
0.645022
0.64243
0.639846
0.637271
0.634703
0.632144
0.629593
0.62705
0.624515
0.621988
0.619469
0.616958
0.614456
0.611961
0.609474
0.606996
0.604525
0.602063
0.599608
0.597161
0.594723
0.592292
0.58987
0.587455
0.585048
0.582649
0.580258
0.577876
0.5755
0.573133
0.570774
0.568423
0.566079
0.563744
0.561416
0.559097
0.556785
0.554481
0.552184
0.549896
0.547616
0.545343
0.543078
0.540821
0.538572
0.536331
0.534097
0.531872
0.529654
0.527444
0.525242
0.523047
0.520861
0.518682
0.516512
0.514349
0.512194
0.510047
0.507908
0.505777
0.503654
0.501538
0.499431
0.497332
0.495241
0.493158
0.491083
0.489016
0.486958
0.484908
0.482866
0.480833
0.478808
0.476792
0.474784
0.472786
0.470796
0.468815
0.466843
0.464881
0.462929
0.460986
0.459053
0.45713
0.455218
0.453317
0.451427
0.449549
0.447683
0.44583
0.44399
0.442164
0.440354
0.438559
0.436782
0.435023
0.433284
0.431567
0.429873
0.428206
0.426569
0.424964
0.423396
0.421869
0.420389
0.418963
0.417599
0.416306
0.415094
0.413978
0.412973
0.412095
0.411368
0.410813
0.410458
0.410333
0.410469
0.410899
0.411655
0.412763
0.414242
0.416094
0.418301
0.420818
0.423567
0.426433
0.429272
0.431916
0.434188
0.435926
0.437
0.437337
0.43693
0.435836
0.434168
0.432078
0.429736
0.427317
0.424982
0.422877
0.421121
0.419809
0.419007
0.418749
0.419041
0.419853
0.421119
0.422742
0.42459
0.426506
0.428323
0.429879
0.431033
0.431686
0.431797
0.431384
0.430523
0.42933
0.427949
0.426532
0.425222
0.424142
0.423386
0.423011
0.423032
0.423426
0.42413
0.425051
0.426072
0.427071
0.427929
0.428552
0.428876
0.428881
0.42859
0.428064
0.427388
0.426662
0.425985
0.42544
0.425089
0.424964
0.425063
0.425356
0.425787
0.426283
0.426769
0.427173
0.427443
0.427547
0.427485
0.42728
0.426977
0.426633
0.426304
0.426042
0.425882
0.425841
0.425913
0.426077
0.426294
0.426523
0.426723
0.426861
0.426917
0.42689
0.426793
0.426649
0.42649
0.426347
0.426243
0.426194
0.426203
0.426261
0.426352
0.426452
0.42654
0.426599
0.426619
0.426599
0.426547
0.426477
0.426405
0.426345
0.426308
0.426298
0.426313
0.426346
0.426385
0.42642
0.426442
0.426445
0.426429
0.4264
0.426364
0.426328
0.4263
0.426284
0.426279
0.426284
0.426293
0.426301
0.426304
0.426298
0.426283
0.426262
0.426237
0.426212
0.42619
0.426173
0.426161
0.42615
0.42614
0.426127
0.426109
0.426087
0.42606
0.426029
0.425997
0.425964
0.425931
0.425897
0.425861
0.425821
0.425777
0.425726
0.425667
0.425598
0.425513
0.425404
0.42525
0.425019
0.424663
0.424106
0.423248
0.421954
0.420062
0.417388
0.413739
0.408934
0.40283
0.395352
0.386514
0.376432
0.365326
0.353507
0.341344
0.329238
0.31758
0.306722
0.296951
0.288476
0.281415
0.275803
0.271593
0.268668
0.266856
0.265948
0.265717
0.265937
0.266408
0.266965
0.267491
0.267914
0.268208
0.268374
0.268439
0.268432
0.268387
0.268329
0.268275
0.268235
0.268211
0.268201
0.268201
0.268206
0.268212
0.268219
0.268223
0.268226
0.268228
0.268229
0.268229
0.268229
0.26823
0.268231
0.268232
0.268233
0.268235
0.268236
0.268237
0.268238
0.268239
0.268239
0.26824
0.268241
0.268241
0.268242
0.268242
0.268243
0.268243
0.268243
0.268244
0.268244
0.268244
0.268245
0.268245
0.268245
0.268245
0.268245
0.268246
0.268246
0.268246
0.268246
0.268246
0.268247
0.268247
0.268247
0.268247
0.268247
0.268248
0.268248
0.268248
0.268248
0.268248
0.268248
0.268249
0.268249
0.268249
0.268249
0.268249
0.26825
0.26825
0.26825
0.26825
0.26825
0.26825
0.268251
0.268251
0.268251
0.268251
0.268251
0.268251
0.268251
0.268252
0.268252
0.268252
0.268252
0.268252
0.268253
0.268253
0.268253
0.268253
0.268254
0.268254
0.268254
0.268254
0.268254
0.268254
0.268254
0.268254
0.268255
0.268255
0.268255
0.268255
0.268255
0.268256
0.268256
0.268256
0.268256
0.268256
0.268257
0.268257
0.268257
0.268257
0.268257
0.268257
0.268257
0.268257
0.268258
0.268255
0.268252
0.268258
0.268257
0.26823
0.26824
0.26829
0.2682
0.268079
0.26835
0.268387
0.267407
0.267742
0.269911
0.266741
0.261557
0.273431
0.276888
0.220737
0.157565
0.131802
0.12589
0.12489
0.124729
0.124702
0.124698
0.124697
0.124697
0.124697
0.124697
0.124697
0.124697
0.124697
0.124697
0.124697
0.124697
0.124697
0.124697
0.124697
0.124697
0.124697
0.124697
0.124697
0.124697
0.124697
0.124697
0.124697
0.124697
0.124697
0.124697
0.124697
0.124697
0.124697
0.124697
0.124697
0.124697
0.124697
0.124697
0.124697
0.124697
0.124697
0.124697
0.124697
0.124697
0.124697
0.124697
0.124697
0.124697
0.124697
0.124697
0.124697
0.124697
0.124697
0.124697
0.124697
0.124697
0.124697
0.124697
0.124697
0.124697
0.124697
0.124697
0.124697
0.124697
0.124697
0.124697
0.124697
0.124697
0.124697
0.124697
0.124697
0.124697
0.124697
0.124697
0.124697
0.124697
0.124697
0.124697
0.124697
0.124697
0.124697
0.124697
0.124697
0.124697
0.124697
0.124697
0.124697
0.124697
0.124697
0.124697
0.124697
0.124697
0.124697
0.124697
0.124697
0.124697
0.124697
0.124697
0.124697
0.124697
0.124697
0.124697
0.124697
0.124697
0.124697
0.124697
0.124697
0.124697
0.124697
0.124697
0.124697
0.124697
0.124697
0.124697
0.124697
0.124697
0.124697
0.124697
0.124697
0.124697
0.124697
0.124697
0.124697
0.124697
0.124697
0.124697
0.124697
0.124697
0.124697
0.124697
0.124697
0.124697
0.124697
0.124697
0.124697
0.124697
0.124697
0.124697
0.124697
0.124697
0.124697
0.124697
0.124697
0.124697
0.124697
0.124697
0.124697
0.124697
0.124697
0.124697
0.124697
0.124697
0.124697
0.124697
0.124697
0.124697
0.124697
0.124697
0.124697
0.124697
0.124697
0.124697
0.124697
0.124697
0.124697
0.124697
0.124697
0.124697
0.124697
0.124697
0.124697
)
;

boundaryField
{
    sides
    {
        type            calculated;
        value           nonuniform List<scalar> 2(0.124697 0.997575);
    }
    empty
    {
        type            empty;
    }
}


// ************************************************************************* //
