/*--------------------------------*- C++ -*----------------------------------*\
  =========                 |
  \\      /  F ield         | OpenFOAM: The Open Source CFD Toolbox
   \\    /   O peration     | Website:  https://openfoam.org
    \\  /    A nd           | Version:  13
     \\/     M anipulation  |
\*---------------------------------------------------------------------------*/
FoamFile
{
    format      ascii;
    class       volScalarField;
    location    "0.006";
    object      T;
}
// * * * * * * * * * * * * * * * * * * * * * * * * * * * * * * * * * * * * * //

dimensions      [0 0 0 1 0 0 0];

internalField   nonuniform List<scalar> 
1000
(
348.432
348.432
348.432
348.432
348.432
348.432
348.432
348.432
348.432
348.432
348.432
348.432
348.432
348.432
348.432
348.432
348.432
348.432
348.432
348.432
348.432
348.432
348.432
348.432
348.432
348.432
348.432
348.432
348.432
348.432
348.432
348.432
348.432
348.432
348.432
348.432
348.432
348.432
348.432
348.432
348.432
348.432
348.432
348.432
348.432
348.432
348.432
348.432
348.432
348.432
348.432
348.432
348.432
348.432
348.432
348.432
348.432
348.432
348.432
348.432
348.432
348.432
348.432
348.432
348.432
348.432
348.432
348.432
348.432
348.432
348.432
348.432
348.432
348.432
348.432
348.432
348.432
348.432
348.432
348.432
348.432
348.432
348.432
348.432
348.432
348.432
348.432
348.432
348.432
348.432
348.432
348.432
348.432
348.432
348.432
348.432
348.432
348.432
348.432
348.432
348.432
348.432
348.432
348.432
348.432
348.432
348.432
348.432
348.432
348.432
348.432
348.432
348.432
348.432
348.432
348.432
348.432
348.432
348.432
348.432
348.432
348.432
348.432
348.432
348.432
348.432
348.432
348.432
348.432
348.432
348.432
348.432
348.432
348.432
348.432
348.432
348.432
348.432
348.432
348.432
348.432
348.432
348.432
348.432
348.432
348.432
348.432
348.432
348.432
348.432
348.432
348.432
348.432
348.432
348.432
348.432
348.432
348.432
348.432
348.432
348.432
348.432
348.432
348.432
348.432
348.432
348.432
348.432
348.432
348.432
348.432
348.432
348.432
348.432
348.432
348.432
348.432
348.432
348.432
348.432
348.432
348.432
348.432
348.432
348.432
348.432
348.432
348.432
348.432
348.432
348.432
348.432
348.432
348.432
348.432
348.432
348.432
348.432
348.432
348.432
348.432
348.432
348.432
348.432
348.432
348.432
348.432
348.432
348.432
348.432
348.432
348.432
348.432
348.432
348.432
348.432
348.432
348.432
348.432
348.432
348.432
348.432
348.432
348.432
348.432
348.432
348.432
348.432
348.432
348.432
348.432
348.432
348.432
348.432
348.432
348.432
348.432
348.432
348.432
348.432
348.432
348.432
348.432
348.432
348.432
348.432
348.432
348.431
348.431
348.43
348.429
348.428
348.426
348.422
348.418
348.411
348.402
348.389
348.371
348.348
348.316
348.275
348.222
348.156
348.073
347.972
347.851
347.707
347.541
347.351
347.136
346.898
346.637
346.355
346.052
345.731
345.393
345.04
344.675
344.297
343.909
343.512
343.107
342.695
342.276
341.852
341.423
340.989
340.551
340.11
339.665
339.218
338.767
338.314
337.859
337.402
336.943
336.482
336.019
335.555
335.089
334.622
334.153
333.683
333.213
332.741
332.268
331.794
331.319
330.843
330.367
329.89
329.412
328.934
328.455
327.975
327.495
327.015
326.534
326.052
325.571
325.089
324.606
324.124
323.641
323.158
322.675
322.191
321.708
321.224
320.741
320.257
319.773
319.289
318.806
318.322
317.838
317.354
316.871
316.387
315.904
315.42
314.937
314.454
313.971
313.488
313.005
312.522
312.04
311.558
311.076
310.594
310.112
309.631
309.149
308.668
308.187
307.707
307.226
306.746
306.266
305.787
305.307
304.828
304.349
303.871
303.392
302.914
302.436
301.959
301.482
301.005
300.528
300.052
299.576
299.1
298.624
298.149
297.674
297.2
296.726
296.252
295.778
295.305
294.832
294.359
293.887
293.415
292.944
292.472
292.002
291.531
291.061
290.591
290.121
289.652
289.183
288.715
288.247
287.779
287.312
286.845
286.378
285.912
285.446
284.98
284.515
284.05
283.586
283.122
282.658
282.195
281.732
281.269
280.807
280.345
279.884
279.423
278.963
278.503
278.043
277.584
277.125
276.666
276.208
275.75
275.293
274.836
274.38
273.924
273.469
273.013
272.559
272.105
271.651
271.198
270.745
270.292
269.841
269.389
268.938
268.488
268.038
267.588
267.139
266.691
266.243
265.796
265.349
264.903
264.457
264.012
263.567
263.123
262.68
262.237
261.795
261.353
260.912
260.472
260.033
259.594
259.156
258.719
258.283
257.847
257.412
256.979
256.546
256.114
255.684
255.254
254.826
254.399
253.973
253.549
253.127
252.706
252.287
251.87
251.455
251.043
250.633
250.226
249.823
249.423
249.027
248.636
248.25
247.87
247.497
247.132
246.775
246.429
246.095
245.775
245.471
245.186
244.924
244.688
244.481
244.311
244.182
244.101
244.074
244.111
244.217
244.401
244.668
245.022
245.462
245.982
246.572
247.209
247.869
248.516
249.114
249.623
250.01
250.247
250.321
250.231
249.988
249.617
249.149
248.623
248.076
247.545
247.063
246.66
246.357
246.172
246.113
246.181
246.369
246.661
247.034
247.455
247.89
248.3
248.649
248.908
249.055
249.081
248.992
248.803
248.539
248.233
247.916
247.621
247.378
247.206
247.121
247.125
247.214
247.372
247.579
247.809
248.033
248.225
248.366
248.44
248.444
248.382
248.268
248.121
247.961
247.812
247.691
247.613
247.585
247.607
247.672
247.768
247.879
247.988
248.079
248.141
248.166
248.155
248.113
248.049
247.976
247.905
247.849
247.815
247.806
247.823
247.86
247.909
247.961
248.007
248.04
248.055
248.052
248.034
248.006
247.974
247.945
247.925
247.916
247.92
247.935
247.958
247.982
248.004
248.021
248.029
248.028
248.021
248.01
247.998
247.989
247.985
247.986
247.994
248.005
248.018
248.03
248.04
248.046
248.048
248.048
248.046
248.044
248.045
248.048
248.053
248.061
248.071
248.08
248.089
248.097
248.103
248.108
248.113
248.118
248.125
248.133
248.143
248.154
248.166
248.179
248.191
248.204
248.217
248.231
248.245
248.262
248.28
248.301
248.323
248.348
248.375
248.405
248.437
248.475
248.52
248.578
248.658
248.778
248.963
249.252
249.7
250.382
251.394
252.853
254.892
257.657
261.294
265.941
271.711
278.679
286.864
296.217
306.604
317.805
329.511
341.338
352.854
363.616
373.22
381.346
387.802
392.539
395.657
397.374
397.987
397.826
397.207
396.394
395.586
394.908
394.417
394.118
393.983
393.966
394.02
394.103
394.186
394.251
394.294
394.315
394.319
394.314
394.304
394.294
394.287
394.281
394.279
394.277
394.277
394.276
394.275
394.274
394.273
394.271
394.269
394.267
394.266
394.264
394.263
394.262
394.261
394.26
394.26
394.259
394.258
394.258
394.257
394.256
394.256
394.256
394.255
394.255
394.255
394.255
394.254
394.254
394.254
394.254
394.254
394.254
394.254
394.253
394.253
394.253
394.253
394.252
394.252
394.252
394.252
394.252
394.251
394.251
394.251
394.251
394.251
394.251
394.25
394.25
394.25
394.25
394.25
394.25
394.249
394.249
394.249
394.249
394.249
394.249
394.249
394.249
394.249
394.249
394.249
394.249
394.249
394.249
394.249
394.249
394.248
394.248
394.248
394.248
394.248
394.248
394.248
394.248
394.248
394.248
394.248
394.248
394.248
394.248
394.248
394.248
394.248
394.248
394.248
394.248
394.248
394.249
394.249
394.249
394.249
394.249
394.248
394.249
394.249
394.246
394.245
394.249
394.246
394.229
394.242
394.268
394.19
394.136
394.344
394.264
393.601
394.115
395.366
392.474
389.736
397.697
391.019
340.04
293.529
281.273
279.189
278.82
278.758
278.748
278.746
278.746
278.746
278.746
278.746
278.746
278.746
278.746
278.746
278.746
278.746
278.746
278.746
278.746
278.746
278.746
278.746
278.746
278.746
278.746
278.746
278.746
278.746
278.746
278.746
278.746
278.746
278.746
278.746
278.746
278.746
278.746
278.746
278.746
278.746
278.746
278.746
278.746
278.746
278.746
278.746
278.746
278.746
278.746
278.746
278.746
278.746
278.746
278.746
278.746
278.746
278.746
278.746
278.746
278.746
278.746
278.746
278.746
278.746
278.746
278.746
278.746
278.746
278.746
278.746
278.746
278.746
278.746
278.746
278.746
278.746
278.746
278.746
278.746
278.746
278.746
278.746
278.746
278.746
278.746
278.746
278.746
278.746
278.746
278.746
278.746
278.746
278.746
278.746
278.746
278.746
278.746
278.746
278.746
278.746
278.746
278.746
278.746
278.746
278.746
278.746
278.746
278.746
278.746
278.746
278.746
278.746
278.746
278.746
278.746
278.746
278.746
278.746
278.746
278.746
278.746
278.746
278.746
278.746
278.746
278.746
278.746
278.746
278.746
278.746
278.746
278.746
278.746
278.746
278.746
278.746
278.746
278.746
278.746
278.746
278.746
278.746
278.746
278.746
278.746
278.746
278.746
278.746
278.746
278.746
278.746
278.746
278.746
278.746
278.746
278.746
278.746
278.746
278.746
278.746
278.746
278.746
278.746
278.746
278.746
278.746
278.746
278.746
278.746
278.746
)
;

boundaryField
{
    sides
    {
        type            zeroGradient;
    }
    empty
    {
        type            empty;
    }
}


// ************************************************************************* //
