/*--------------------------------*- C++ -*----------------------------------*\
  =========                 |
  \\      /  F ield         | OpenFOAM: The Open Source CFD Toolbox
   \\    /   O peration     | Website:  https://openfoam.org
    \\  /    A nd           | Version:  13
     \\/     M anipulation  |
\*---------------------------------------------------------------------------*/
FoamFile
{
    format      ascii;
    class       surfaceScalarField;
    location    "500";
    object      phi;
}
// * * * * * * * * * * * * * * * * * * * * * * * * * * * * * * * * * * * * * //

dimensions      [0 3 -1 0 0 0 0];

internalField   nonuniform List<scalar> 
1199
(
1.5059608e-07
-1.3907329e-07
-1.1522038e-08
1.158233e-06
-9.3058285e-07
-7.7051545e-08
5.2721555e-06
-3.7996915e-06
-3.1422726e-07
1.9841825e-05
-1.3457116e-05
-1.1125501e-06
6.8226881e-05
-4.4687071e-05
-3.6980063e-06
0.00022266379
-0.00014264171
-1.1795344e-05
0.00069924607
-0.0004402401
-3.6342586e-05
0.002113586
-0.0013068111
-0.00010752919
0.0060970743
-0.0036822357
-0.00030125266
0.016596169
-0.0097148633
-0.0007842335
0.042242083
-0.023740941
-0.0019049802
0.10077934
-0.054206363
-0.0043309107
-0.11883258
0.22908433
-0.0094724198
1.6744838e-07
-3.0652091e-07
1.2883559e-06
-2.0514898e-06
5.8706182e-06
-8.3819573e-06
2.2116309e-05
-2.9702832e-05
7.6071148e-05
-9.8642015e-05
0.00024833726
-0.00031490805
0.00078017862
-0.00097208177
0.0023586871
-0.0028853206
0.0068030791
-0.0081266327
0.018514837
-0.021426641
0.047162866
-0.052389011
0.11281116
-0.11985467
-0.26328341
0.25726214
1.9299769e-07
-4.9951777e-07
1.4844063e-06
-3.3428974e-06
6.7594244e-06
-1.3656975e-05
2.5444585e-05
-4.8388001e-05
8.743438e-05
-0.00016063184
0.00028496974
-0.00051244345
0.0008929661
-0.001580078
0.0026903301
-0.0046826843
0.0077308455
-0.013167148
0.02098096
-0.034676754
0.0534134
-0.084821444
0.12835709
-0.19479834
-0.42903509
0.29410884
2.2831429e-07
-7.2783128e-07
1.7549945e-06
-4.8695766e-06
7.9839964e-06
-1.9885975e-05
3.0006676e-05
-7.0410684e-05
0.00010286027
-0.00023348545
0.00033401636
-0.00074359954
0.0010412183
-0.0022872795
0.0031168177
-0.0067582817
0.0088999814
-0.018950306
0.024019755
-0.049796518
0.061003886
-0.12180555
0.14732259
-0.28111699
-0.61959673
0.33788433
2.6852892e-07
-9.9635942e-07
2.0630581e-06
-6.6641042e-06
9.3783997e-06
-2.7201313e-05
3.5203177e-05
-9.623545e-05
0.00012042426
-0.00031870648
0.00038975371
-0.0010129287
0.0012087859
-0.0031063102
0.0035928962
-0.0091423873
0.010180224
-0.025537623
0.027246347
-0.06686262
0.068950435
-0.16350961
0.16655173
-0.37871821
-0.83243601
0.37939112
3.0693691e-07
-1.3032956e-06
2.3567574e-06
-8.7139228e-06
1.0703076e-05
-3.5547626e-05
4.0108851e-05
-0.0001256412
0.00013682305
-0.00041542057
0.00044082643
-0.0013169315
0.0013578309
-0.0040233123
0.0039982471
-0.011782796
0.011190456
-0.032729817
0.029638733
-0.085310869
0.074759066
-0.2086299
0.17922859
-0.48318765
-1.0530868
0.39987948
3.172756e-07
-1.6205707e-06
2.4355155e-06
-1.0832161e-05
1.1056685e-05
-4.4168789e-05
4.1409797e-05
-0.00015599429
0.00014112153
-0.00051513217
0.0004538791
-0.0016296884
0.0013934458
-0.0049628763
0.0040778564
-0.014467199
0.011304702
-0.039956646
0.029685625
-0.10369176
0.073955552
-0.25289978
0.17316738
-0.58239937
-1.2498837
0.36996444
2.8317871e-07
-1.9037491e-06
2.1721115e-06
-1.2721093e-05
9.8486287e-06
-5.1845302e-05
3.6805701e-05
-0.00018295134
0.00012496907
-0.00060329543
0.00039948577
-0.0019042045
0.001214898
-0.0057782861
0.0035084561
-0.016760749
0.0095667233
-0.046014898
0.024592278
-0.11871728
0.059438018
-0.28774549
0.13273031
-0.65569157
-1.3758857
0.25873251
1.5239623e-07
-2.0561454e-06
1.1667971e-06
-1.3735493e-05
5.2753022e-06
-5.5953805e-05
1.9619183e-05
-0.00019729521
6.6063645e-05
-0.00064973981
0.00020823227
-0.0020463727
0.00061870477
-0.0061887568
0.001722718
-0.017864757
0.0044574475
-0.048749617
0.010686048
-0.12494586
0.023503593
-0.30056301
0.045184994
-0.67737289
-1.4036796
0.072979042
-2.9396395e-08
-2.0267495e-06
-2.2865087e-07
-1.353624e-05
-1.0587004e-06
-5.5123756e-05
-4.0950327e-06
-0.00019425887
-1.470492e-05
-0.00063912987
-5.1316016e-05
-0.0020097614
-0.00017751309
-0.0060625587
-0.0006088226
-0.017433446
-0.0020327612
-0.047325677
-0.0064481331
-0.12053048
-0.019391848
-0.2876193
-0.056268079
-0.64049661
-1.3071449
-0.15280257
-2.373107e-07
-1.7894397e-06
-1.8243406e-06
-1.1949212e-05
-8.3008076e-06
-4.8647294e-05
-3.1206187e-05
-0.0001713535
-0.00010702638
-0.0005633097
-0.00034785661
-0.0017689313
-0.0010859592
-0.0053244568
-0.0032583347
-0.015261073
-0.0093416811
-0.041242341
-0.025443555
-0.10442862
-0.065639457
-0.24742342
-0.16107364
-0.54506239
-1.0962894
-0.37192911
-4.428506e-07
-1.3465904e-06
-3.4013274e-06
-8.9907383e-06
-1.5455364e-05
-3.6593265e-05
-5.7976279e-05
-0.00012883261
-0.00019812841
-0.00042315766
-0.0006400795
-0.0013269805
-0.001977223
-0.0039873153
-0.0058365119
-0.011401792
-0.016367114
-0.030711758
-0.043400207
-0.077395553
-0.10867353
-0.18215013
-0.2558302
-0.3979057
-0.79183744
-0.56028217
-6.0877322e-07
-7.3781862e-07
-4.6736289e-06
-4.9258861e-06
-2.1240433e-05
-2.0026471e-05
-7.9698884e-05
-7.0374191e-05
-0.0002722712
-0.00023058547
-0.00087751311
-0.00072173929
-0.0026970103
-0.0021678213
-0.0079061789
-0.0061926351
-0.021971253
-0.016646711
-0.057534013
-0.041832842
-0.14164899
-0.098035201
-0.32646377
-0.21309093
-0.42114196
-0.69715915
-7.1018085e-07
-2.763833e-08
-5.4517035e-06
-1.8436835e-07
-2.4728659e-05
-7.495274e-07
-9.2470644e-05
-2.6322543e-06
-0.00031444857
-8.6077288e-06
-0.0010092076
-2.6981216e-05
-0.0030955331
-8.1500229e-05
-0.0090552008
-0.00023298288
-0.025076845
-0.00062510183
-0.065347137
-0.0015626064
-0.15973499
-0.0036473961
-0.36475307
-0.0080728925
-0.76984891
-0.016045939
0.33144321
-0.089123194
-0.013235643
0.45976964
-0.11041641
-0.017909943
0.60825268
-0.1244759
-0.024007007
0.76661564
-0.12665613
-0.031706711
-0.11071376
0.91872513
-0.041395626
0.37194784
-0.20380842
0.51549461
-0.25396248
0.68219956
-0.29118009
0.86039079
-0.30484678
-0.28096306
1.0306398
0.42696976
-0.33666917
0.59119969
-0.41819223
0.78272548
-0.48270565
0.98743852
-0.50955966
-0.47403921
1.1805145
0.49615182
-0.49493643
0.68819288
-0.61023308
0.91297194
-0.70748448
1.1536125
-0.75019992
-0.69790284
1.3774759
0.57008645
-0.68563151
0.79799464
-0.83814101
1.0666705
-0.97616021
1.3565302
-1.0400591
-0.96655598
1.6251832
0.62673469
-0.9124865
0.89933283
-1.1107388
1.225154
-1.3019813
1.5824613
-1.3973657
-1.3026904
1.9185956
0.63316123
-1.1756831
0.96120531
-1.4387827
1.3606402
-1.7014162
1.8090956
-1.8458203
-1.7380613
2.2444665
0.55887826
-1.4758286
0.95338257
-1.8332867
1.4463547
-2.1943883
2.0142087
-2.4136732
2.5859985
-2.3098511
0.95740689
0.0079130339
-0.046594809
1.0020636
0.029598195
-0.074255061
1.0489463
0.072232142
-0.11911488
1.0942301
0.14354714
-0.18883103
0.25837145
-0.28884687
1.0687167
-0.030165648
1.1137644
-0.015450726
1.1622166
0.023772238
1.2100944
0.09566133
0.22568918
1.2115886
-0.06123949
1.2507848
-0.054647141
1.2959383
-0.02138097
1.3431139
0.048485574
0.19234831
1.3944885
-0.078251276
1.4202344
-0.080393289
1.4555206
-0.056666626
1.4971666
0.0068397835
0.16077845
1.6230499
-0.076116496
1.6284617
-0.085805264
1.6466057
-0.074809788
1.6766943
-0.023248298
0.13423425
1.8970413
-0.054559763
1.8788315
-0.06759541
1.8739169
-0.069894074
1.8862909
-0.035621866
0.11649291
2.2087593
-0.018849155
2.1693626
-0.028198363
2.139569
-0.040099223
2.1299671
-0.026019467
0.11103465
2.5444515
0.02270196
2.4912983
0.024955251
2.4415206
0.0096789319
2.4101463
0.0053552608
0.11974521
0.064478074
-1.596289
1.6047901
-0.27680391
-11.494625
11.835907
-81.176322
84.048202
-0.28729546
-1.4617959
-1.4392849
-10.342632
-72.867008
-0.62259381
-1.2111312
-2.4841664
-8.4810595
-59.667007
-0.90366438
-0.86774904
-3.3423906
-6.0423333
-42.458515
-1.1054184
-0.45948996
-3.9566027
-3.1911491
-22.398028
-1.2120119
-0.017327086
-4.2817751
-0.1213863
-0.83323303
1.5946624
-1.4657007
1.5831081
-1.8217322
1.5651203
-2.1764002
1.5368167
-2.3853682
-2.2658753
1.4928413
11.781121
-1.4109195
11.654797
-1.6954079
11.431879
-1.9534828
11.139086
-2.0925748
-1.9515842
10.824795
82.613856
80.888705
78.897453
76.756917
74.744432
1.4704764
0.045069731
1.4412401
0.054192056
1.4123622
0.038554912
1.3901328
0.027584953
0.12939406
10.756896
0.11296865
10.657962
0.15312628
10.503625
0.19288867
10.31955
0.21165842
0.27049272
74.803575
74.87246
74.933494
74.938805
1.5081204e-07
-1.6233355e-07
1.1599375e-06
-1.0861763e-06
5.2802956e-06
-4.4345893e-06
1.9871906e-05
-1.5704189e-05
6.8318255e-05
-5.214447e-05
0.00022293576
-0.0001664131
0.00070002201
-0.00051342918
0.0021156907
-0.0015231989
0.0061025579
-0.0042881237
0.016610073
-0.011291763
0.042278678
-0.027573611
0.10088623
-0.062938448
-0.1379794
0.22939348
1.6812247e-07
-3.304552e-07
1.2935056e-06
-2.2115584e-06
5.8941319e-06
-9.035216e-06
2.2203251e-05
-3.2013318e-05
7.6353526e-05
-0.00010629479
0.00024918894
-0.00033924858
0.00078259494
-0.0010468353
0.0023651697
-0.0031057742
0.0068198982
-0.0087428537
0.01855766
-0.023029527
0.047276772
-0.056292721
0.11314156
-0.12880322
-0.28306587
0.25822808
1.9389233e-07
-5.243467e-07
1.491243e-06
-3.5089078e-06
6.7902833e-06
-1.4334255e-05
2.5559432e-05
-5.0782473e-05
8.7818791e-05
-0.00016855417
0.00028616138
-0.0005375912
0.00089640329
-0.0016570769
0.0026995348
-0.0049089046
0.0077544466
-0.013797763
0.021041956
-0.036317031
0.053581895
-0.088832646
0.12884469
-0.20406598
-0.44977389
0.29555277
2.2915398e-07
-7.5349988e-07
1.7614021e-06
-5.0411548e-06
8.0128164e-06
-2.0585667e-05
3.011278e-05
-7.2882434e-05
0.00010321085
-0.00024165223
0.00033508293
-0.00076946311
0.0010441825
-0.0023661754
0.0031240697
-0.0069887882
0.0089146235
-0.019588308
0.024063551
-0.051465944
0.061165041
-0.12593411
0.14778522
-0.2906861
-0.64111904
0.33913044
2.6939409e-07
-1.0228932e-06
2.0696191e-06
-6.8413779e-06
9.4076125e-06
-2.7923655e-05
3.5308968e-05
-9.8783773e-05
0.00012076378
-0.00032710697
0.00039073282
-0.0010394317
0.0012112377
-0.0031866783
0.0035976916
-0.0093752363
0.010185188
-0.026175792
0.027255415
-0.068536147
0.068935949
-0.16761461
0.16647184
-0.38822191
-0.85362795
0.37898084
3.0696378e-07
-1.3298563e-06
2.3568413e-06
-8.8912536e-06
1.0702598e-05
-3.6269406e-05
4.0101654e-05
-0.00012818281
0.00013676758
-0.00042377277
0.00044048514
-0.0013431486
0.0013560055
-0.0041021961
0.0039896839
-0.012008907
0.011156293
-0.033342386
0.029513312
-0.086893136
0.074306393
-0.21240765
0.17794787
-0.49186329
-1.0718532
0.39617321
3.1438327e-07
-1.644239e-06
2.4132054e-06
-1.0990074e-05
1.0954621e-05
-4.4810815e-05
4.1022525e-05
-0.00015825068
0.00013977247
-0.00052252257
0.00044938253
-0.001652758
0.0013788629
-0.0050316736
0.0040317549
-0.01466179
0.011163465
-0.040474078
0.029253764
-0.1049834
0.07272049
-0.25587433
0.16983567
-0.58897837
-1.2634036
0.36138625
2.7576431e-07
-1.920003e-06
2.1150984e-06
-1.2829407e-05
9.5891226e-06
-5.2284835e-05
3.582948e-05
-0.00018449102
0.00012161681
-0.00060830979
0.00038856398
-0.0019197046
0.001180639
-0.0058237462
0.0034046921
-0.016885836
0.0092639101
-0.046333281
0.023737863
-0.11945732
0.057117782
-0.28925422
0.12673956
-0.65860005
-1.3812297
0.2445658
1.410094e-07
-2.0610125e-06
1.0793243e-06
-1.3767722e-05
4.8777264e-06
-5.6083236e-05
1.812712e-05
-0.0001977404
6.0960854e-05
-0.00065114345
0.00019172395
-0.0020504673
0.00056755174
-0.0061995722
0.0015709804
-0.01788926
0.004028919
-0.048791209
0.0095324268
-0.12496081
0.020479113
-0.30020088
0.037658338
-0.67577919
-1.3996913
0.056120026
-4.4505433e-08
-2.0165075e-06
-3.4460469e-07
-1.3467623e-05
-1.5848943e-06
-5.4842947e-05
-6.0643663e-06
-0.00019326092
-2.1408337e-05
-0.00063579943
-7.2834031e-05
-0.0019990413
-0.00024337486
-0.0060290305
-0.00080065804
-0.017331975
-0.0025598816
-0.047031984
-0.0078009829
-0.1197197
-0.02272865
-0.28527322
-0.064225417
-0.63428235
-1.2942671
-0.16964941
-2.5442071e-07
-1.7620878e-06
-1.9555741e-06
-1.1766472e-05
-8.8958286e-06
-4.7902697e-05
-3.3429996e-05
-0.00016872677
-0.00011457831
-0.00055465114
-0.0003720049
-0.0017416149
-0.0011594249
-0.0052416112
-0.0034704809
-0.015020922
-0.0099185897
-0.040583887
-0.026898587
-0.10273971
-0.068956399
-0.24321543
-0.16843709
-0.53480162
-1.0753307
-0.38737343
-4.5811018e-07
-1.3039789e-06
-3.5183335e-06
-8.706252e-06
-1.5985619e-05
-3.5435419e-05
-5.9955955e-05
-0.00012475645
-0.00020483752
-0.00040976966
-0.00066144582
-0.001285007
-0.0020419769
-0.0038610822
-0.0060228918
-0.011040015
-0.016872741
-0.029734058
-0.044684518
-0.074927962
-0.11157345
-0.17632654
-0.26178579
-0.38458925
-0.76469744
-0.57241897
-6.1833409e-07
-6.8564623e-07
-4.747048e-06
-4.5775416e-06
-2.1572745e-05
-1.8609733e-05
-8.0935269e-05
-6.5393965e-05
-0.00027643556
-0.00021426952
-0.00089079169
-0.00067065159
-0.0027377553
-0.0020141222
-0.0080244828
-0.0057533002
-0.022292015
-0.015466556
-0.058342567
-0.038877458
-0.14354285
-0.091126302
-0.33045095
-0.19768115
-0.39028665
-0.70486157
-7.1328514e-07
-5.4752001e-06
-2.4834474e-05
-9.2860752e-05
-0.00031573829
-0.0010133727
-0.0031090027
-0.0090953093
-0.025187007
-0.065627112
-0.16040078
-0.36615486
-0.7724872
0.33171129
-0.11555303
0.46005242
-0.14625033
0.60879783
-0.17275151
0.76781651
-0.1907247
-0.19464463
0.9210657
0.37357521
-0.23090004
0.51792607
-0.29060109
0.68591054
-0.34073583
0.86593882
-0.37075294
-0.36708769
1.0383817
0.42980825
-0.36515534
0.59573605
-0.45652877
0.78968616
-0.53468578
0.99760892
-0.5786756
-0.56371956
1.1942405
0.49939981
-0.52542448
0.69401398
-0.65114281
0.92228356
-0.76295526
1.167549
-0.82394083
-0.79285667
1.3966857
0.57208881
-0.71853224
0.80326046
-0.88231428
1.0762723
-1.035967
1.3720264
-1.1196946
-1.0688116
1.6479809
0.62534112
-0.94769996
0.90148258
-1.1584555
1.2321742
-1.3666587
1.5963967
-1.4839165
-1.4143558
1.9419405
0.62652958
-1.2128431
0.95811763
-1.4900434
1.3626303
-1.7711715
1.8186062
-1.9398917
-1.8608907
2.2651408
0.54642858
-1.5147057
0.94424384
-1.8878585
1.4422618
-2.2691895
2.0178349
-2.5154639
2.6018916
-2.4449475
0.95958002
-0.085111171
1.0040043
-0.11867896
1.0506624
-0.16578106
1.0957035
-0.23387482
-0.31914073
1.075952
-0.1226814
1.1202682
-0.16299542
1.1679979
-0.21351057
1.2150754
-0.28095241
-0.35121291
1.2246123
-0.1530528
1.2626937
-0.20107708
1.3066737
-0.25749026
1.3524728
-0.32675135
-0.38347164
1.4132014
-0.16956757
1.4378635
-0.22573947
1.4718202
-0.2914463
1.511681
-0.36661189
-0.41355881
1.6461581
-0.16774321
1.6512437
-0.23082526
1.6685339
-0.30873555
1.6968614
-0.39493909
-0.43840951
1.9220348
-0.14783502
1.9050968
-0.21388725
1.9007205
-0.30435789
1.9121051
-0.40632325
-0.45462501
2.2325167
-0.11520746
2.1965356
-0.17790593
2.169584
-0.27740483
2.1607069
-0.39744567
-0.45931459
2.5644106
-0.077722385
2.516751
-0.13024603
2.4724963
-0.23314932
2.4443172
-0.36926626
-0.45123003
0.038112198
-1.5903421
1.60835
-0.36930628
-11.433559
11.840978
-80.725554
84.022053
-0.313824
-1.4461672
-1.5256062
-10.221772
-72.020682
-0.64595869
-1.1875819
-2.5583882
-8.3093424
-58.481103
-0.92182734
-0.83817369
-3.3990889
-5.8320808
-41.01179
-1.116913
-0.42612245
-3.9923362
-2.9566579
-20.787436
-1.2159369
-4.293982
1.5996389
-1.5059943
1.5886238
-1.8768432
1.5707646
-2.2513301
1.5424834
-2.4871815
-2.40188
1.4994161
11.788991
-1.4540137
11.665294
-1.7531463
11.444267
-2.030303
11.152119
-2.1950338
-2.0882207
10.83846
82.591459
80.868057
78.875524
76.728451
74.701133
1.4794739
-0.057777034
1.4536473
-0.10441898
1.4283369
-0.20784057
1.4086235
-0.3495525
-0.44259663
10.778002
0.0026808511
10.692143
-0.018559914
10.557896
-0.073595804
10.402488
-0.19414648
-0.32989994
74.757638
74.823316
74.881553
74.893749
)
;

boundaryField
{
    inlet
    {
        type            calculated;
        value           nonuniform List<scalar> 
32
(
-3.1486868
-9.748603
-15.684168
-20.550883
-24.017089
-25.84657
0.023423751
0.029744028
0.037769664
0.047960804
0.060901753
0.053824587
0.08424003
0.13184277
0.20634509
0.32294752
-3.6658072
-10.230483
-16.097967
-20.868402
-24.21669
-25.914651
-0.023423751
-0.029744028
-0.037769664
-0.047960804
-0.060901753
-0.053824587
-0.08424003
-0.13184277
-0.20634509
-0.32294752
)
;
    }
    outlet
    {
        type            calculated;
        value           nonuniform List<scalar> 
22
(
1.1247057
1.2427819
1.3764539
1.5287357
1.7032386
1.9040316
2.1354239
2.4014339
1.380483
10.17844
74.886369
1.1259938
1.2471469
1.384731
1.5417684
1.7217118
1.9283197
2.1653953
2.436231
1.3999894
10.28978
74.886817
)
;
    }
    cylinder
    {
        type            calculated;
        value           uniform 0;
    }
    frontAndBack
    {
        type            empty;
    }
}


// ************************************************************************* //
