/*--------------------------------*- C++ -*----------------------------------*\
  =========                 |
  \\      /  F ield         | OpenFOAM: The Open Source CFD Toolbox
   \\    /   O peration     | Website:  https://openfoam.org
    \\  /    A nd           | Version:  13
     \\/     M anipulation  |
\*---------------------------------------------------------------------------*/
FoamFile
{
    format      ascii;
    class       volVectorField;
    location    "500";
    object      U;
}
// * * * * * * * * * * * * * * * * * * * * * * * * * * * * * * * * * * * * * //

dimensions      [0 1 -1 0 0 0 0];

internalField   nonuniform List<vector> 
620
(
(2.7651219e-06 -4.1843105e-05 3.2993317e-23)
(1.7060821e-05 -0.00015681493 -7.6744194e-23)
(6.0689335e-05 -0.00035789321 1.9632652e-22)
(0.00019719749 -0.00070668983 -3.9015416e-22)
(0.0006144294 -0.0013028832 8.8594919e-22)
(0.0018676897 -0.0022849179 -8.0467031e-22)
(0.0054602303 -0.0038111734 2.6527299e-22)
(0.015064364 -0.0059555938 -4.7320292e-21)
(0.038024257 -0.0084817871 3.1181914e-21)
(0.084525304 -0.010700321 1.7932582e-21)
(0.16204104 -0.01160293 5.4418592e-20)
(0.26329109 -0.011146464 -1.0100743e-20)
(0.3881544 -0.0094507055 3.0907729e-20)
(3.0401622e-05 -0.00014188642 1.9285876e-22)
(0.00012011176 -0.00053277598 -5.314645e-22)
(0.00029719467 -0.0012194575 1.3556202e-21)
(0.00066798867 -0.0024134354 -2.1114682e-21)
(0.0014924137 -0.0044545603 1.3804457e-21)
(0.0034352799 -0.007836387 3.0522454e-21)
(0.0081639746 -0.013137545 -4.7084829e-21)
(0.019532959 -0.020683218 4.6261744e-21)
(0.044978842 -0.029797021 -2.5534126e-20)
(0.094569893 -0.038280136 -2.9973422e-22)
(0.1754035 -0.042952463 -4.267753e-20)
(0.280259 -0.043517885 -3.255768e-21)
(0.41099139 -0.039874558 7.9350159e-20)
(9.4199649e-05 -0.00024435922 3.3173089e-22)
(0.00036008625 -0.00091757735 6.9613935e-23)
(0.0008487079 -0.0021002682 -1.5316253e-21)
(0.0017668888 -0.0041570601 1.1340793e-21)
(0.0035436807 -0.0076708452 3.7611951e-21)
(0.007112521 -0.013484294 -5.7835439e-21)
(0.01452361 -0.022572404 -1.3995115e-21)
(0.030052635 -0.035441799 1.7341031e-20)
(0.061316599 -0.050854057 -1.6820908e-20)
(0.1180748 -0.064954096 4.3594174e-20)
(0.20644708 -0.072422686 7.5497757e-20)
(0.31939432 -0.072773674 -6.8207656e-20)
(0.46277479 -0.06423975 -1.2260516e-19)
(0.00020571485 -0.00034209769 2.4406534e-22)
(0.00077937083 -0.0012841682 -5.8769436e-22)
(0.0018114508 -0.0029372448 1.4489456e-22)
(0.0036824932 -0.0058069528 8.6339218e-22)
(0.0071113399 -0.010694208 -4.7454612e-21)
(0.013484809 -0.018737577 6.2360103e-21)
(0.025481404 -0.031202185 -9.8813217e-21)
(0.048031322 -0.048602937 8.0078521e-21)
(0.088968307 -0.068960179 3.5994572e-20)
(0.15746325 -0.086572453 6.3838326e-21)
(0.25762489 -0.094494305 -1.6635484e-19)
(0.38389847 -0.092141252 2.0843759e-19)
(0.54384767 -0.073907694 -3.4305259e-19)
(0.00037671049 -0.00041845616 -1.2412712e-22)
(0.0014218376 -0.0015699382 -3.6002294e-22)
(0.0032841866 -0.0035869068 1.1906497e-21)
(0.0066051382 -0.0070782956 -2.5072679e-21)
(0.012530579 -0.012994432 -3.2521258e-21)
(0.023096516 -0.022647341 9.194305e-21)
(0.04183672 -0.037387889 -5.9690316e-22)
(0.074482032 -0.057463686 7.5418295e-21)
(0.12898754 -0.079928036 -2.349119e-20)
(0.21317244 -0.097579253 -8.4979606e-20)
(0.32899875 -0.10209381 -3.4851962e-20)
(0.47161093 -0.093354579 8.3345954e-20)
(0.64598722 -0.060135298 2.9849939e-19)
(0.00061070007 -0.00044190576 1.6650621e-22)
(0.0023004559 -0.0016565618 -8.0858555e-22)
(0.0052952037 -0.0037793654 7.7014232e-22)
(0.010586407 -0.0074395005 2.4707311e-21)
(0.019882075 -0.013598769 -7.3001728e-21)
(0.036044733 -0.023526282 6.914025e-22)
(0.06362317 -0.038361617 -1.0224956e-20)
(0.10913201 -0.057794969 3.8494583e-20)
(0.1802799 -0.077888266 -2.8323919e-21)
(0.28197989 -0.090478219 3.1350332e-20)
(0.41503445 -0.086358907 7.4435843e-20)
(0.57412797 -0.067268622 -3.4066999e-19)
(0.75465005 -0.017950369 2.2197052e-21)
(0.00089530966 -0.00037105558 4.5811318e-23)
(0.0033678725 -0.001389237 -1.2543038e-22)
(0.0077333619 -0.0031622067 6.2089523e-22)
(0.015396452 -0.006199679 -5.0225428e-22)
(0.028711627 -0.011252478 -3.8373628e-21)
(0.051446052 -0.019224797 4.8440213e-21)
(0.089146124 -0.030660059 6.3527551e-21)
(0.14882932 -0.044412398 -1.9351419e-20)
(0.2371032 -0.055851257 9.2155685e-22)
(0.35679517 -0.057037114 4.6479856e-20)
(0.50598779 -0.040224891 1.3662693e-21)
(0.67489146 -0.0091271463 1.7572803e-19)
(0.84600391 0.050341692 -2.1125549e-19)
(0.0011624695 -0.00015801943 1.3434922e-22)
(0.0043695403 -0.00058901673 -3.1108009e-22)
(0.010019807 -0.0013297389 -9.6576113e-23)
(0.019901774 -0.0025688893 1.0752033e-21)
(0.036963399 -0.0045389907 -3.8908256e-22)
(0.06577826 -0.0073745579 -9.1086704e-22)
(0.11270213 -0.010657112 -9.1844219e-22)
(0.18491912 -0.01247179 5.8776793e-21)
(0.28766503 -0.0084800477 -6.3594284e-21)
(0.42091465 0.0071452395 -4.87887e-21)
(0.57877414 0.038345621 -3.5439921e-20)
(0.74858616 0.07783212 5.4899448e-22)
(0.89597145 0.13084054 -1.6125451e-20)
(0.0013191519 0.00017382133 2.707259e-23)
(0.0049554489 0.00065571963 -1.3931496e-22)
(0.011351521 0.0015136844 9.711885e-23)
(0.022506674 0.0030411449 1.5325556e-22)
(0.041675346 0.0057586922 -4.1590098e-22)
(0.073795053 0.010577744 -5.1687053e-23)
(0.12545406 0.01902807 5.9171371e-23)
(0.20353036 0.033402926 2.0757659e-21)
(0.31206459 0.056325584 -2.4435354e-21)
(0.44933533 0.089200822 1.3628858e-21)
(0.60765465 0.13041478 1.0053752e-21)
(0.77207307 0.16997118 1.2781307e-20)
(0.90284411 0.19773211 1.2222008e-20)
(0.0012708781 0.00052640624 1.1518553e-22)
(0.0047735189 0.0019766091 -2.9263302e-22)
(0.010932927 0.0045246572 4.2294313e-22)
(0.021670726 0.0089598346 -3.0033339e-22)
(0.040109512 0.016553611 -7.3529528e-23)
(0.070974063 0.029191695 4.9066135e-22)
(0.12054786 0.049249917 -1.4330581e-21)
(0.19539721 0.078768861 6.6934125e-21)
(0.29957183 0.11767638 -4.9167034e-21)
(0.43209117 0.16215172 -5.4802125e-21)
(0.58597274 0.20516291 -5.0557994e-20)
(0.74650677 0.23347624 2.2106167e-20)
(0.87619951 0.23191531 -6.3143393e-20)
(0.0010249679 0.00078622182 -2.4498115e-22)
(0.0038514526 0.0029489199 9.0735855e-22)
(0.0088282501 0.0067367725 -2.6333595e-21)
(0.017524051 0.013293542 -3.6544597e-22)
(0.032517111 0.024410781 -5.8488057e-22)
(0.057797927 0.042598052 9.173125e-21)
(0.098935785 0.070615853 -3.8434954e-21)
(0.162459 0.10981827 -6.4629146e-21)
(0.25407234 0.15740915 8.1869109e-21)
(0.37636709 0.20519951 -2.60991e-20)
(0.52529501 0.24237934 5.4713352e-21)
(0.68695516 0.25502962 -1.7860038e-19)
(0.82471279 0.23194824 -8.2414397e-20)
(0.00064759706 0.00084330567 -3.9966064e-22)
(0.0024377578 0.0031613398 1.4942654e-21)
(0.0056061988 0.0072152093 -9.0238861e-22)
(0.011192164 0.014214115 5.2107631e-21)
(0.020974533 0.026025682 -1.0981769e-20)
(0.037915032 0.045186914 1.4339465e-20)
(0.066717389 0.07426462 1.6005738e-20)
(0.11426711 0.11387863 -3.7324341e-20)
(0.18925724 0.15971574 -6.3512949e-21)
(0.29939147 0.20185626 3.4462318e-20)
(0.44628147 0.22889867 9.0939511e-20)
(0.61688146 0.2290056 3.1366431e-19)
(0.76961804 0.19617333 6.5287177e-20)
(0.00027176083 0.00065478803 2.5368289e-22)
(0.0010305926 0.0024536617 5.4780755e-22)
(0.0024003934 0.0055964443 -1.5846423e-21)
(0.0048976722 0.011010958 5.6489502e-21)
(0.009516756 0.020112347 -6.8856856e-21)
(0.018234135 0.034778323 3.9637904e-21)
(0.034996088 0.056856764 1.6453033e-20)
(0.067262276 0.086518838 -2.4564895e-20)
(0.12698798 0.11993856 2.5049421e-20)
(0.2275002 0.14905081 -5.043023e-20)
(0.37410221 0.16479748 8.5345614e-20)
(0.55428147 0.16057985 -1.0840305e-21)
(0.72477123 0.13347227 1.4081513e-19)
(3.2719048e-05 0.000260359 -8.7627291e-23)
(0.00014529081 0.00097326955 3.8554387e-22)
(0.00037972677 0.002212846 -8.5590378e-22)
(0.00093505118 0.0043280056 2.8262907e-21)
(0.0023209143 0.007852781 -4.4950161e-21)
(0.005902517 0.013553199 -9.9309126e-22)
(0.015158274 0.022250665 1.7965319e-20)
(0.038062346 0.0338934 -2.6184278e-20)
(0.088583791 0.046970273 6.6131819e-21)
(0.18366147 0.058332621 2.8795031e-20)
(0.33112117 0.064684368 1.0828961e-20)
(0.51849563 0.063424079 -1.4914016e-19)
(0.69948569 0.053517548 -1.0904455e-19)
(0.47239016 -0.0042583277 -1.3730637e-21)
(0.5329103 -0.0029366589 -2.7293842e-21)
(0.60191802 -0.0003029376 -8.1871867e-21)
(0.64637227 0.0016825264 5.3680843e-21)
(0.69448387 0.003026877 8.2546337e-21)
(0.49409489 -0.026203861 8.9012879e-20)
(0.55101477 -0.023479403 1.2283159e-19)
(0.61807635 -0.016494339 -1.6464818e-20)
(0.66090043 -0.01115684 -2.5062408e-20)
(0.70726588 -0.0076923927 -3.4142458e-20)
(0.54415243 -0.043495652 -1.1936105e-19)
(0.59387234 -0.040417656 -4.914401e-20)
(0.65651696 -0.029882362 3.5800959e-21)
(0.69535717 -0.02196968 9.3234042e-20)
(0.73749338 -0.016810283 6.6237695e-20)
(0.62222608 -0.049614201 -1.1265866e-20)
(0.66144863 -0.047921617 3.1359295e-20)
(0.71655596 -0.036259717 -3.2484546e-21)
(0.74909201 -0.027543958 -3.144614e-20)
(0.78477146 -0.021852611 -6.3699677e-20)
(0.72032708 -0.038763971 1.1553377e-20)
(0.74616654 -0.041380834 -1.2122014e-19)
(0.79110863 -0.032151498 -6.2916439e-20)
(0.81612698 -0.025486502 -2.0849831e-19)
(0.84427688 -0.020928519 1.7909996e-19)
(0.82246228 -0.0093782294 4.4377758e-19)
(0.83399364 -0.019800989 -2.7170413e-19)
(0.86793619 -0.017642596 -3.5208263e-20)
(0.88595047 -0.015830294 9.7622504e-20)
(0.90715365 -0.013886581 -1.6460051e-19)
(0.90771055 0.034523818 -1.8119275e-19)
(0.90981588 0.012106615 -1.5009334e-23)
(0.93395246 0.0036251578 1.6103113e-20)
(0.94736386 -0.0013095158 2.014536e-19)
(0.96340925 -0.0027929525 -2.4052855e-20)
(0.95401326 0.088991812 -1.5366057e-19)
(0.95928346 0.050297856 1.8635047e-19)
(0.9800903 0.027583457 4.7010847e-19)
(0.99299981 0.014540215 -1.6198123e-19)
(1.0057737 0.0092464248 1.4293445e-19)
(0.72902038 0.0049671948 0)
(0.7599223 0.0061082983 0)
(0.79903935 0.0072254793 0)
(0.83164092 0.0080371233 0)
(0.87028091 0.0084623779 0)
(0.73856959 -0.0024051793 0)
(0.7660678 0.0006375844 0)
(0.8026008 0.0035368403 0)
(0.83344493 0.0057475086 0)
(0.87098243 0.0074678471 0)
(0.76165176 -0.0091364265 0)
(0.78168804 -0.004554511 0)
(0.81232024 -0.00011512649 0)
(0.83903489 0.0033955308 0)
(0.87371605 0.0064288833 0)
(0.79871591 -0.013858964 0)
(0.80777783 -0.0085963226 0)
(0.82916168 -0.0032825192 0)
(0.8491432 0.0011885242 0)
(0.87889094 0.005412781 0)
(0.84722307 -0.015303658 0)
(0.84371218 -0.010553182 0)
(0.85334045 -0.0054108562 0)
(0.86423617 -0.00061228952 0)
(0.88689229 0.0044974282 0)
(0.90130524 -0.012874024 0)
(0.88659339 -0.0097461326 0)
(0.88381638 -0.0059526704 0)
(0.88425569 -0.0016891531 0)
(0.89796968 0.0037824127 0)
(0.95297581 -0.0071053165 0)
(0.93120444 -0.0061159427 0)
(0.91790476 -0.0045703623 0)
(0.90832296 -0.0017596142 0)
(0.91214575 0.0034040685 0)
(0.99455895 0.00052952856 0)
(0.97090601 -0.00024988425 0)
(0.95136471 -0.0013491488 0)
(0.93458595 -0.00073867683 0)
(0.92906917 0.0034466064 0)
(0.96284696 0.18373701 -5.3214982e-20)
(1.0038991 0.075212345 7.195495e-19)
(1.0145053 0.021173285 -1.9339129e-18)
(0.93418334 0.19182197 2.6692559e-20)
(0.99099409 0.071899121 -2.4456731e-18)
(1.0077547 0.02151545 -2.2373422e-17)
(0.89606255 0.17504401 -2.9542348e-19)
(0.97464589 0.063727245 2.2392323e-18)
(1.004289 0.019864451 2.7627929e-17)
(0.8600118 0.14054896 1.7800778e-19)
(0.96191237 0.051673747 1.5183086e-18)
(1.0005809 0.017668832 3.4871212e-17)
(0.83257719 0.093793054 -1.7210174e-19)
(0.95301704 0.036424032 -5.6944619e-18)
(0.9979499 0.014950355 -5.6817928e-17)
(0.81764607 0.039178349 -1.2920461e-19)
(0.94795577 0.01936405 4.0831584e-18)
(0.99649303 0.011722277 1.1782465e-17)
(0.98284471 0.12239521 3.6870957e-19)
(0.98898426 0.07381578 -5.1964673e-20)
(1.0072802 0.041261817 -8.7852652e-19)
(1.0183856 0.023661118 2.0384715e-19)
(1.0263256 0.016641722 -1.3812095e-19)
(1.0209714 0.063077886 -4.6382848e-20)
(1.0341255 0.050156772 5.6806411e-20)
(1.0441161 0.0382892 1.7208691e-19)
(1.0472791 0.029784195 -9.2088784e-20)
(1.0474451 0.025869511 -5.1222093e-20)
(1.01734 0.025077261 1.1945914e-20)
(1.0187663 0.024835842 -4.3417422e-21)
(1.0198336 0.024387919 -3.4347031e-20)
(1.0204189 0.023751307 2.776337e-20)
(1.021004 0.022764334 1.0000734e-20)
(1.0136422 0.0065302827 0)
(0.99195807 0.0047490706 0)
(0.9721828 0.0017842553 0)
(0.9538825 0.00073868889 0)
(0.94309081 0.0038291236 0)
(1.0436925 0.020526183 0)
(1.0344102 0.017987482 0)
(1.0214272 0.012801199 0)
(1.0053161 0.0074548876 0)
(0.98318678 0.0058748229 0)
(1.0215877 0.021805425 0)
(1.022687 0.02142319 0)
(1.023732 0.021188268 0)
(1.0241538 0.021559744 0)
(1.0234752 0.02241406 0)
(3.7609129e-06 5.6878729e-05 -3.2986371e-23)
(2.0904388e-05 0.00021336006 7.673468e-23)
(6.9525675e-05 0.00048758365 -1.9630083e-22)
(0.00021510564 0.0009649079 3.9006457e-22)
(0.00064765571 0.0017855004 -8.8569477e-22)
(0.0019286703 0.0031506449 8.0431911e-22)
(0.0055680468 0.0053111969 -2.6523527e-22)
(0.015249052 0.0084512879 4.7273095e-21)
(0.038326535 0.012413321 -3.1135617e-21)
(0.084984894 0.016455109 -1.7898357e-21)
(0.16271079 0.019464026 -5.4323799e-20)
(0.26420267 0.021195219 1.008566e-20)
(0.38950351 0.021810868 -3.0798224e-20)
(3.3609528e-05 0.0001569262 -1.9275605e-22)
(0.00013219603 0.00058934432 1.0852661e-22)
(0.0003250223 0.0013492929 -6.1294418e-22)
(0.00072365975 0.0026716559 2.089303e-21)
(0.0015970892 0.0049356681 -1.3789973e-21)
(0.0036252818 0.0086975123 -3.0482007e-21)
(0.0084991206 0.014626051 4.7026241e-21)
(0.020104036 0.023153476 -4.6270964e-21)
(0.04590844 0.033678988 2.5475468e-20)
(0.095973696 0.043951535 2.9481908e-22)
(0.17745138 0.050687733 4.2619383e-20)
(0.28302407 0.053435302 3.2324083e-21)
(0.41506301 0.051998593 1.6618901e-19)
(9.9940371e-05 0.00025927432 -3.3099016e-22)
(0.00038168917 0.00097365562 -6.9462474e-23)
(0.00089838289 0.0022289012 1.5310935e-21)
(0.0018660111 0.0044127286 -3.4035529e-21)
(0.0037292758 0.0081463173 2.7584653e-22)
(0.0074472479 0.01433247 5.7708757e-21)
(0.015108955 0.02403161 1.3977251e-21)
(0.031039591 0.037850441 -1.7292353e-20)
(0.062905272 0.05462099 1.672449e-20)
(0.12043347 0.070448931 -4.3406496e-20)
(0.20989573 0.079865205 -4.8557771e-20)
(0.32394308 0.082362972 4.4781477e-20)
(0.46943023 0.075869711 -1.3485107e-19)
(0.00021424626 0.00035629848 -2.4308351e-22)
(0.00081145224 0.0013375499 5.8532561e-22)
(0.0018851232 0.0030596345 -1.3286652e-21)
(0.0038291598 0.0060500269 1.2023229e-21)
(0.0073848552 0.011145657 4.6159832e-21)
(0.013974821 0.019541094 -6.2071666e-21)
(0.026329384 0.032579669 9.8323356e-21)
(0.049439761 0.050865571 -7.9696327e-21)
(0.091190561 0.072477854 -6.2126626e-21)
(0.16065677 0.091760609 8.6883493e-21)
(0.26241516 0.1014692 1.2868142e-19)
(0.39010161 0.10122684 -2.0644016e-19)
(0.5525621 0.084951671 3.3905307e-19)
(0.0003881536 0.00043117879 1.2335589e-22)
(0.0014648599 0.0016177429 -8.1698324e-22)
(0.0033828895 0.0036964558 8.9324866e-22)
(0.0068013599 0.0072956594 2.4912314e-21)
(0.012895574 0.013397483 3.229669e-21)
(0.023747527 0.023362812 -9.130989e-21)
(0.042955101 0.038609465 5.9567036e-22)
(0.076319651 0.059460067 -7.4834712e-21)
(0.13183265 0.083039288 2.3263894e-20)
(0.21734311 0.1021796 8.3981619e-20)
(0.33480093 0.10847767 3.4361102e-20)
(0.47899353 0.10186079 -8.1650703e-20)
(0.65528477 0.070733869 -2.9478523e-19)
(0.00062506637 0.00045230958 -1.6475517e-22)
(0.0023544062 0.0016956334 8.0004486e-22)
(0.0054187389 0.0038688297 -7.6199861e-22)
(0.010831186 0.0076167807 -2.443858e-21)
(0.020334861 0.013926828 7.2196634e-21)
(0.03684501 0.024107002 -6.8629919e-22)
(0.064978787 0.039350094 1.0090081e-20)
(0.11131523 0.059407766 -3.7990661e-20)
(0.18356128 0.080419484 2.8385479e-21)
(0.28677397 0.094282096 -3.1131627e-20)
(0.42116228 0.09202171 -7.3226294e-20)
(0.58176248 0.075049948 3.3480972e-19)
(0.76337469 0.028564353 -1.1429664e-22)
(0.00091112657 0.00037761953 -4.4913297e-23)
(0.0034272081 0.0014139228 1.2298108e-22)
(0.0078689824 0.0032188848 -6.0858078e-22)
(0.015664341 0.0063125322 4.9260264e-22)
(0.029204544 0.011463106 3.7597905e-21)
(0.052309661 0.019603353 1.2021744e-21)
(0.090588998 0.031321928 -1.5504435e-20)
(0.15110768 0.045543027 1.8952342e-20)
(0.24046592 0.057745469 -8.940006e-22)
(0.36139117 0.060155467 -4.5341957e-20)
(0.51167212 0.045259474 -9.4800307e-22)
(0.68158252 0.016755318 -1.7192453e-19)
(0.85295182 -0.039039172 2.5406015e-19)
(0.0011761977 0.00015989462 -1.288201e-22)
(0.0044210006 0.00059617798 2.9826204e-22)
(0.01013728 0.0013466367 9.2543824e-23)
(0.020133311 0.0026041168 -1.0303601e-21)
(0.037387815 0.0046098555 3.7288773e-22)
(0.066517013 0.007517594 8.7112001e-22)
(0.11392289 0.010952155 8.8708867e-22)
(0.18681271 0.013092734 -5.5912841e-21)
(0.29038378 0.0097805085 5.9986416e-21)
(0.42449354 -0.0045334493 4.9014914e-21)
(0.58298963 -0.033476857 3.4007442e-20)
(0.75323468 -0.069580641 -3.237709e-22)
(0.90059893 -0.11799711 -3.4806028e-20)
(0.0013267287 -0.00017480823 -2.3037077e-23)
(0.0049838221 -0.00065920838 1.1846487e-22)
(0.011416207 -0.0015207635 -8.2635893e-23)
(0.022633891 -0.0030520173 -1.3013691e-22)
(0.041907712 -0.0057685903 3.5033506e-22)
(0.074197291 -0.010563858 3.245107e-23)
(0.12611363 -0.018913836 -4.6257268e-23)
(0.2045443 -0.032978734 -1.7648732e-21)
(0.31350777 -0.055125085 2.1074339e-21)
(0.4512026 -0.086406443 -1.1407876e-21)
(0.60971324 -0.12484316 5.4286284e-21)
(0.77419037 -0.16009613 -1.6199966e-20)
(0.90511037 -0.18290624 -1.1823908e-20)
(0.0012697413 -0.00052592053 -4.349372e-23)
(0.0047692558 -0.0019744925 3.4010426e-22)
(0.010923243 -0.0045186037 -4.9111506e-22)
(0.021651825 -0.0089436682 3.4825254e-22)
(0.040075573 -0.016510282 8.3722035e-23)
(0.070917649 -0.029074302 -5.6641942e-22)
(0.12046429 -0.048935123 1.6574234e-21)
(0.19529952 -0.077962783 -7.4131905e-21)
(0.29951651 -0.11578623 5.5442223e-21)
(0.43214085 -0.15821854 6.2076068e-21)
(0.58572621 -0.19800371 4.6660084e-20)
(0.74642166 -0.22156285 -2.1762951e-20)
(0.876769 -0.21595696 6.8175721e-20)
(0.0010152598 -0.00077875139 2.5814617e-22)
(0.0038151302 -0.0029205833 -9.5599668e-22)
(0.0087456823 -0.0066707149 2.7716268e-21)
(0.017362541 -0.013158604 3.8417253e-22)
(0.032225124 -0.024148162 -5.6828536e-21)
(0.057302555 -0.042094411 1.3140925e-21)
(0.098155774 -0.069651007 4.0603839e-21)
(0.16135551 -0.10797833 6.877631e-21)
(0.25274217 -0.15399738 -8.7310332e-21)
(0.37512014 -0.1992307 2.6907412e-20)
(0.52408224 -0.23266023 -1.1386721e-19)
(0.68523418 -0.24123458 -7.8874485e-20)
(0.82451749 -0.21375041 8.5261429e-20)
(0.00063315195 -0.00082445633 4.1087859e-22)
(0.0023837352 -0.0030903956 -1.5362374e-21)
(0.0054834482 -0.0070521006 -2.5262918e-21)
(0.010952218 -0.013888632 7.3002196e-22)
(0.020541165 -0.025416181 1.1286035e-20)
(0.037180461 -0.044086824 -1.5152736e-20)
(0.065560111 -0.072334809 -1.6424318e-20)
(0.11262041 -0.11059344 3.8405711e-20)
(0.18723105 -0.15434291 6.4414364e-21)
(0.29740139 -0.19355078 -3.5776886e-20)
(0.4448707 -0.2167685 1.3804785e-20)
(0.61483073 -0.21289851 2.9452305e-19)
(0.76886708 -0.17661306 -6.6615313e-20)
(0.00025939024 -0.00062491966 -2.5722834e-22)
(0.00098435597 -0.0023414667 -5.5545248e-22)
(0.0022952528 -0.0053395159 1.6067293e-21)
(0.0046920278 -0.010501765 -5.7542152e-21)
(0.0091449348 -0.019170229 6.9806536e-21)
(0.017602361 -0.033113216 -4.0201299e-21)
(0.033995895 -0.054023937 -1.667237e-20)
(0.065825048 -0.081904668 2.4929189e-20)
(0.12518459 -0.11281874 -2.5372083e-20)
(0.22562084 -0.13874276 5.1139976e-20)
(0.37254626 -0.15090642 -8.6268857e-20)
(0.55311975 -0.14280457 -3.5810813e-19)
(0.72405817 -0.11300328 -1.4297052e-19)
(2.8094983e-05 -0.00022429899 5.0739901e-23)
(0.00012746885 -0.00083800207 -4.379616e-22)
(0.00033939123 -0.0019035841 7.0274483e-22)
(0.00085639013 -0.0037172272 -1.1538307e-21)
(0.0021781562 -0.0067295302 3.0110968e-21)
(0.0056567358 -0.011573994 -3.0782312e-21)
(0.014771362 -0.01889107 1.5768131e-20)
(0.037499122 -0.02849401 -1.5328731e-20)
(0.087877657 -0.03882468 -1.3343683e-20)
(0.1829212 -0.046882599 2.1544277e-20)
(0.33051201 -0.049644783 4.3274382e-20)
(0.51807308 -0.044687488 2.3224576e-19)
(0.69922103 -0.032590572 -2.971416e-20)
(0.47400373 0.018370555 1.3691044e-21)
(0.53459771 0.017971765 2.7206499e-21)
(0.60367121 0.016175463 8.1546588e-21)
(0.64820548 0.014826821 -5.3454286e-21)
(0.69634969 0.01394817 -8.2159149e-21)
(0.49894612 0.040148035 -8.8428177e-20)
(0.55608443 0.038301538 -1.2206125e-19)
(0.6233293 0.032193487 1.633536e-20)
(0.66638457 0.027521865 2.4842531e-20)
(0.71283948 0.024533955 3.3810316e-20)
(0.55196035 0.057110354 1.184925e-19)
(0.60202029 0.054854471 4.8819044e-20)
(0.66492289 0.04527255 -3.571232e-21)
(0.70411184 0.038079807 -9.2261456e-20)
(0.74638497 0.033407621 -6.5540517e-20)
(0.63210456 0.062825147 1.0931495e-20)
(0.67182046 0.061880012 -3.0994048e-20)
(0.72713187 0.051309947 3.1165278e-21)
(0.76005897 0.043392157 3.1154411e-20)
(0.79591075 0.038197581 6.3019719e-20)
(0.7308485 0.051740247 -1.2216591e-20)
(0.75729162 0.055067899 1.199044e-19)
(0.8023277 0.047026072 6.1821727e-20)
(0.82769366 0.041258351 2.0535894e-19)
(0.85603225 0.037204804 -1.7751413e-19)
(0.83212184 0.022561219 3.5466486e-19)
(0.8442094 0.033736029 2.6792893e-19)
(0.87808348 0.032802529 3.4088243e-20)
(0.896406 0.031924477 -9.6314032e-20)
(0.91777352 0.030477216 1.6308071e-19)
(0.91519311 -0.020664574 -5.5232828e-19)
(0.91792641 0.0025742171 -3.6117444e-21)
(0.94189489 0.012308339 -1.6632322e-20)
(0.95552767 0.018161867 -1.9633523e-19)
(0.97163397 0.020134811 2.3818526e-20)
(0.9588561 -0.074091539 1.4323771e-19)
(0.9648208 -0.034505816 -1.7992215e-19)
(0.98550363 -0.010576492 -4.5449833e-19)
(0.99853766 0.0033440308 1.572066e-19)
(1.0112286 0.0091441199 -1.4317779e-19)
(0.73077043 0.012329826 0)
(0.7614965 0.011503277 0)
(0.80042909 0.010826025 0)
(0.83287154 0.010247889 0)
(0.87127849 0.0094136973 0)
(0.74383264 0.01963689 0)
(0.7708367 0.016915611 0)
(0.80683483 0.014478895 0)
(0.83720926 0.012512378 0)
(0.87404384 0.010388405 0)
(0.77017298 0.026242367 0)
(0.78955372 0.021989643 0)
(0.81941107 0.018054917 0)
(0.84541211 0.014808128 0)
(0.87897281 0.011400905 0)
(0.8096688 0.030828572 0)
(0.8182198 0.025883984 0)
(0.83883554 0.021118599 0)
(0.85803182 0.016934017 0)
(0.88638596 0.012371092 0)
(0.85923657 0.032227264 0)
(0.85574206 0.027734311 0)
(0.86497489 0.023149728 0)
(0.87530278 0.018645238 0)
(0.8965137 0.013246162 0)
(0.91274279 0.029965763 0)
(0.89886088 0.026964611 0)
(0.89644649 0.023663014 0)
(0.89689256 0.019642557 0)
(0.90942762 0.013905515 0)
(0.96244027 0.024651639 0)
(0.942316 0.023606369 0)
(0.93037022 0.022394958 0)
(0.92166729 0.019703039 0)
(0.92495271 0.014239675 0)
(1.0013914 0.017729932 0)
(0.97990603 0.018315728 0)
(0.96262922 0.019514697 0)
(0.94765548 0.018760999 0)
(0.94253709 0.014191464 0)
(0.96448799 -0.16620387 6.0826892e-20)
(1.004231 -0.05467099 -1.4308908e-18)
(1.0142312 -0.00095321975 -1.5654387e-18)
(0.93498068 -0.17290788 -3.6352271e-20)
(0.99096408 -0.0512691 3.2576642e-18)
(1.0075693 -0.0013113052 2.6841824e-17)
(0.8959138 -0.15523521 -5.7307244e-19)
(0.97462184 -0.043025253 -2.2172738e-18)
(1.0041447 0.00031473975 -2.9941025e-17)
(0.85981346 -0.12024636 3.1479465e-19)
(0.96178662 -0.03097514 -1.5505152e-18)
(1.0004814 0.0024988116 -3.5744391e-17)
(0.83235425 -0.073055184 1.7594568e-19)
(0.95292486 -0.015693272 5.8321674e-18)
(0.99786274 0.0052123407 7.0283356e-17)
(0.81755616 -0.018231809 -2.4041995e-20)
(0.94790266 0.001398988 -4.385051e-18)
(0.99646017 0.0084393538 -2.9543524e-17)
(0.98554465 -0.1053947 -3.4782513e-19)
(0.99239302 -0.056399325 5.0335713e-20)
(1.0107042 -0.023092384 8.4486245e-19)
(1.0220163 -0.0048602045 -1.9577018e-19)
(1.0299774 0.0025998163 1.3791018e-19)
(1.0213829 -0.042804966 4.2031175e-20)
(1.0349651 -0.029796013 -5.5002494e-20)
(1.0450131 -0.017853966 -1.6721813e-19)
(1.0483408 -0.0092962104 8.5318512e-20)
(1.0485586 -0.0051713292 4.8950192e-20)
(1.0170132 -0.0047565704 -3.1886773e-20)
(1.0184019 -0.004513471 2.1613436e-20)
(1.0194438 -0.0040761686 3.8858688e-20)
(1.0199523 -0.0034229167 -3.0245602e-20)
(1.0204553 -0.0023638276 -1.0185999e-20)
(1.0188778 0.012343596 0)
(0.99945506 0.01383757 0)
(0.98225516 0.016720924 0)
(0.96607503 0.017441343 0)
(0.95642238 0.013847487 0)
(1.04527 -3.7649352e-05 0)
(1.0370597 0.0023649631 0)
(1.0258568 0.0072534935 0)
(1.0116437 0.011766948 0)
(0.99398677 0.012123677 0)
(1.0209778 -0.0013340269 0)
(1.0220129 -0.00084080545 0)
(1.0230424 -0.00053641148 0)
(1.0234239 -0.00077238077 0)
(1.0232736 -0.0011150221 0)
)
;

boundaryField
{
    inlet
    {
        type            fixedValue;
        value           uniform (0.99995 0.00999 0);
    }
    outlet
    {
        type            zeroGradient;
    }
    cylinder
    {
        type            noSlip;
    }
    frontAndBack
    {
        type            empty;
    }
}


// ************************************************************************* //
