/*--------------------------------*- C++ -*----------------------------------*\
  =========                 |
  \\      /  F ield         | OpenFOAM: The Open Source CFD Toolbox
   \\    /   O peration     | Website:  https://openfoam.org
    \\  /    A nd           | Version:  13
     \\/     M anipulation  |
\*---------------------------------------------------------------------------*/
FoamFile
{
    format      ascii;
    class       volScalarField;
    location    "11.098223";
    object      omega;
}
// * * * * * * * * * * * * * * * * * * * * * * * * * * * * * * * * * * * * * //

dimensions      [0 0 -1 0 0 0 0];

internalField   nonuniform List<scalar> 
17140
(
3736295.3
603677.08
185333.98
78619.153
40002.761
22782.113
13988.216
9056.8456
6097.2652
4227.9864
2999.6652
2166.7436
1587.3636
1175.7824
878.19949
659.7844
497.38649
375.27508
282.56699
211.62922
157.06317
115.04215
82.861383
58.606379
40.876023
28.531276
20.475395
15.587932
12.857819
11.366771
10.503426
9.8818469
9.3394893
8.8325495
8.3546452
7.9048538
7.4828087
7.0887976
6.723637
6.3887062
6.0847315
5.8136201
5.5767156
5.3759155
5.2161785
5.1109789
5.0547458
5.0333768
5.0230143
5.0497632
5.0960724
5.1622168
5.2404874
5.3280039
5.4147163
5.4904133
5.5731245
5.6296975
5.6249977
5.4117757
5.0921461
4.6816019
4.1608987
3.7198949
3.3008368
3736320.9
603681.73
185335.71
78620.082
40003.363
22782.561
13988.589
9057.1794
6097.5826
4228.3009
2999.9853
2167.0748
1587.7092
1176.1438
878.57678
660.17611
497.7897
375.6854
282.97842
212.03404
157.45181
115.40328
83.182468
58.875183
41.083252
28.673844
20.560785
15.626742
12.865066
11.356209
10.485524
9.8630838
9.3222184
8.8174405
8.3420906
7.8953172
7.4767966
7.0866416
6.7252967
6.395613
6.0989574
5.8371629
5.6121691
5.4264829
5.2883212
5.2154408
5.1869198
5.185589
5.2307793
5.3110531
5.4254133
5.5628476
5.7219934
5.8894231
6.068682
6.2270229
6.3553143
6.4072314
6.3857716
6.1147731
5.6922474
5.1665436
4.5648389
4.0721435
3.5454573
3736345.9
603685.88
185337.05
78620.751
40003.822
22782.958
13988.984
9057.6002
6098.044
4228.8123
3000.5525
2167.701
1588.3955
1176.8889
879.37716
661.02574
498.67978
376.60406
283.91032
212.95993
158.34816
116.24238
83.933659
59.508226
41.57453
29.014196
20.766502
15.725413
12.88804
11.337273
10.449997
9.8267324
9.2891965
8.788705
8.3182962
7.877492
7.466719
7.0866331
6.7372935
6.4226474
6.1441791
5.9056948
5.7101479
5.5686377
5.4947677
5.4699139
5.487179
5.5728713
5.695593
5.8430988
6.0077232
6.1807448
6.3526861
6.5122234
6.6519154
6.751916
6.7986304
6.8055064
6.7019735
6.3363525
5.7990412
5.1674294
4.4002658
3.7970111
3.106029
3736372.1
603690.21
185338.48
78621.515
40004.395
22783.495
13989.551
9058.2251
6098.7433
4229.5969
3001.4295
2168.6744
1589.4662
1178.0549
880.63294
662.36211
500.08326
378.05634
285.38759
214.43216
159.77844
117.5869
85.143491
60.534417
42.377719
29.577203
21.113348
15.898848
12.936823
11.316495
10.401022
9.7731203
9.2394783
8.7456078
8.2833207
7.852464
7.4541071
7.0910043
6.7620381
6.4728494
6.2257429
6.0250169
5.8789998
5.8000772
5.7687448
5.7749345
5.8762782
6.0033567
6.1600584
6.3218265
6.4861017
6.6347462
6.7652099
6.8660976
6.9232465
6.9426947
6.9420525
6.8937015
6.7418705
6.2484591
5.4758115
4.6231347
3.7329503
3.033301
2.3107509
3736400.1
603694.84
185340.01
78622.374
40005.078
22784.166
13990.283
9059.0455
6099.6709
4230.6442
3002.605
2169.9831
1590.9097
1179.6309
882.33482
664.17824
501.9963
380.04242
287.4153
216.46146
161.75966
119.46055
86.842295
61.989803
43.532507
30.403265
21.626137
16.161593
13.02225
11.300507
10.338985
9.7006047
9.1713688
8.6867817
8.2363488
7.8195526
7.4386018
7.0973508
6.7940683
6.5359425
6.3245199
6.1643325
6.0741681
6.0315286
6.0216135
6.0929022
6.2230215
6.3634159
6.5213501
6.664266
6.79629
6.8980177
6.9704417
7.0053446
7.0172745
6.9908684
6.9180824
6.8149821
6.6071387
6.0131871
5.084734
4.0989457
3.1386985
2.4067639
1.75142
3736429.1
603699.63
185341.62
78623.313
40005.859
22784.959
13991.162
9060.0407
6100.8028
4231.9273
3004.0497
2171.5961
1592.6936
1181.5842
884.45069
666.44395
504.39211
382.54038
289.97795
219.04025
164.29351
121.87524
89.052384
63.905829
45.076029
31.529056
22.342306
16.544086
13.16157
11.297775
10.266383
9.6068811
9.0811239
8.6093829
8.1748846
7.7771859
7.4167512
7.0973499
6.8248365
6.5976187
6.4207252
6.3086638
6.2515448
6.2303191
6.2458209
6.3577225
6.484954
6.6229645
6.7579325
6.869694
6.9617109
7.0117566
7.0375864
7.0472254
7.0238167
6.9405112
6.8172866
6.6654542
6.4034659
5.7247176
4.6342401
3.5312373
2.5570031
1.8683014
1.3116263
3736459.3
603704.59
185343.28
78624.323
40006.724
22785.852
13992.162
9061.1805
6102.1044
4233.4071
3005.7203
2173.4663
1594.7681
1183.8631
886.92854
669.1085
507.22305
385.50781
293.04055
222.14326
167.36665
124.83148
91.789313
66.312858
47.050885
33.004066
23.311534
17.091155
13.388267
11.327465
10.193804
9.5012323
8.9777398
8.5194324
8.1020261
7.7238229
7.3865011
7.0898941
6.8488084
6.6495385
6.5084365
6.4304784
6.3941533
6.3840817
6.4266593
6.5454019
6.6602532
6.7843117
6.8901488
6.9732418
7.0239141
7.0462668
7.0550783
7.0493962
6.9891423
6.8685307
6.693932
6.487979
6.1696045
5.3735684
4.1451795
2.9934022
2.0701588
1.4654371
1.0164261
3736490.6
603709.73
185345.02
78625.391
40007.653
22786.821
13993.254
9062.4292
6103.5338
4235.0363
3007.564
2175.5359
1597.0714
1186.4029
889.70211
672.10603
510.42597
388.88683
296.55342
225.73207
170.95513
128.32282
95.066636
69.245568
49.511445
34.897151
24.608665
17.850006
13.739333
11.417375
10.140633
9.3938581
8.8647742
8.418641
8.01868
7.6603579
7.3451477
7.0741481
6.853801
6.6852419
6.5752661
6.5187323
6.4961023
6.4929482
6.5515394
6.6611522
6.762439
6.8679772
6.9495887
7.0086982
7.0390589
7.0517743
7.0555571
7.0392854
6.9530844
6.7805247
6.5542126
6.2934799
5.9212943
4.9749056
3.6354698
2.4859908
1.6487525
1.143843
0.79091577
3736522
603715.03
185346.83
78626.504
40008.622
22787.835
13994.4
9063.7412
6105.0384
4236.7544
3009.5133
2177.7309
1599.5231
1189.1184
892.68291
675.3468
513.91248
392.59355
300.44068
229.74277
175.01109
132.32159
98.880415
72.72588
52.504551
37.274137
26.306037
18.900513
14.278308
11.608799
10.132664
9.2975252
8.7484012
8.3104844
7.9270266
7.5879138
7.2938196
7.0472147
6.844983
6.7023264
6.6180576
6.5757505
6.5611057
6.5628434
6.6257055
6.7188223
6.8042057
6.890851
6.9573773
7.0073827
7.033949
7.0451132
7.047232
7.0224851
6.9052474
6.661895
6.3916059
6.0959073
5.6618678
4.5185114
3.1159732
2.0306117
1.3075492
0.90402419
0.63443512
3736555.2
603720.56
185348.72
78627.651
40009.609
22788.862
13995.557
9065.0652
6106.5575
4238.4921
3011.4897
2179.9638
1602.0277
1191.9065
895.76197
678.71802
517.56866
396.51636
304.5972
234.08144
179.45714
136.77246
103.20287
76.75808
56.068605
40.204884
28.495638
20.342605
15.07949
11.950143
10.203264
9.2334631
8.6393744
8.2000387
7.8301286
7.5083553
7.2329857
7.0056116
6.8246906
6.6959546
6.6273815
6.5965637
6.5867995
6.590046
6.6428741
6.7202796
6.8013056
6.882519
6.9450247
6.9918079
7.0161829
7.0256172
7.0237078
6.9828042
6.8163568
6.5024931
6.2092117
5.9066773
5.3825801
4.0090463
2.6043891
1.631449
1.0338909
0.72025261
0.51404638
3736589.7
603726.42
185350.81
78628.889
40010.643
22789.901
13996.695
9066.3533
6108.0296
4240.1752
3013.4074
2182.1374
1604.4769
1194.6488
898.81177
682.08478
521.25483
400.51426
308.88512
238.61883
184.17895
141.58312
107.97117
81.315955
60.219324
43.747691
31.270647
22.285698
16.255297
12.528589
10.400233
9.2275025
8.5498468
8.094644
7.7321519
7.424452
7.1645292
6.9527935
6.7898852
6.6776679
6.6167062
6.589238
6.5811012
6.5848919
6.6329805
6.7042866
6.7787642
6.8526789
6.910443
6.9554589
6.9790504
6.985266
6.9692879
6.8968261
6.6652023
6.3012446
6.0278283
5.7299613
5.0427359
3.4564808
2.1173622
1.2885599
0.82242481
0.58850957
0.43011901
3736625.1
603732.42
185352.92
78630.102
40011.626
22790.871
13997.744
9067.5341
6109.3772
4241.7176
3015.1697
2184.1437
1606.7505
1197.2126
901.68732
685.29095
524.80561
404.41564
313.13087
243.18506
189.01741
146.61363
113.07406
86.327156
64.932887
47.933589
34.715229
24.852399
17.940331
13.46845
10.811919
9.3348716
8.5203147
8.0060093
7.6390596
7.3398038
7.0916336
6.8920536
6.7409598
6.6423184
6.5901881
6.5670087
6.5607172
6.5636589
6.6012118
6.6608965
6.7264395
6.7940447
6.8509988
6.8953118
6.9172858
6.9112556
6.8754767
6.7561653
6.4336182
6.0821548
5.8858088
5.5472817
4.5710466
2.8929916
1.6698579
1.0022887
0.65694411
0.48846804
0.36463384
3736662.3
603738.64
185355.04
78631.267
40012.524
22791.725
13998.65
9068.5439
6110.5255
4243.0324
3016.6767
2185.8684
1608.7192
1199.4527
904.2272
688.15893
528.02819
408.01463
317.11916
247.5608
193.75657
151.66084
118.33273
91.650514
70.120198
52.73888
38.878234
28.157097
20.287527
14.92011
11.562995
9.6301506
8.5690278
7.9689689
7.5607542
7.2616728
7.0194567
6.8268671
6.6835878
6.5906465
6.541818
6.5218331
6.5175867
6.5177143
6.5423385
6.5913651
6.6504246
6.7135289
6.7682168
6.8090737
6.8203286
6.8012604
6.7358301
6.5393579
6.1446957
5.9667956
5.7974841
5.3642698
4.0190429
2.2893921
1.2718271
0.77714888
0.53230742
0.41260055
0.31567662
3736699.8
603744.92
185357.13
78632.354
40013.304
22792.424
13999.364
9069.3242
6111.4055
4244.0389
3017.8345
2187.2029
1610.2578
1201.2259
906.26826
690.5043
530.7161
411.08289
320.60149
251.48124
198.12163
156.44943
123.48405
97.051287
75.594423
58.04622
43.731206
32.268021
23.445532
17.069493
12.826337
10.245078
8.7889085
8.0018108
7.5329166
7.1973687
6.9539864
6.7645295
6.6223713
6.5301446
6.4816172
6.4622044
6.4588658
6.4562085
6.4673534
6.5042203
6.5547815
6.6107384
6.6600483
6.6919858
6.6871426
6.6514809
6.5402363
6.2091249
6.0026463
5.9350795
5.7365292
5.1180128
3.2395104
1.7107652
0.95898387
0.61771025
0.44399133
0.35420137
0.27462612
3736738.4
603751.32
185359.2
78633.35
40013.943
22792.938
13999.849
9069.8293
6111.9622
4244.6716
3018.5658
2188.0561
1611.2595
1202.4064
907.66332
692.15529
532.66994
413.39093
323.31692
254.65444
201.79299
160.63912
128.17868
102.18817
81.045405
63.605856
49.117905
37.1512
27.510055
20.109624
14.821915
11.374055
9.3211507
8.181413
7.5667284
7.185896
6.9064279
6.7067936
6.5648888
6.468723
6.4145954
6.3926644
6.389905
6.3849354
6.3853898
6.4026791
6.4424131
6.486974
6.5271237
6.540174
6.5225406
6.4564234
6.2519201
6.0243073
5.9793055
5.987853
5.6827684
4.5913262
2.3914841
1.2405457
0.731036
0.50398392
0.37888384
0.30857285
0.24211694
3736780.4
603758.1
185361.28
78634.251
40014.43
22793.251
14000.085
9070.0343
6112.1649
4244.8926
3018.8235
2188.3702
1611.6526
1202.9062
908.30425
692.97947
533.72802
414.74204
325.02818
256.79801
204.44059
163.85313
131.99933
106.61657
86.023375
68.99555
54.687543
42.578455
32.419202
24.154112
17.798333
13.289247
10.378602
8.668294
7.7404852
7.23106
6.9096738
6.680331
6.5127886
6.4079635
6.348783
6.3212284
6.3153596
6.3085507
6.2974592
6.3004339
6.3174322
6.3468992
6.3692642
6.3628386
6.3260879
6.1927757
6.0345656
5.9782719
6.1857969
6.1498673
5.5437316
3.4885007
1.6842072
0.90105692
0.57456028
0.42995491
0.33586391
0.27571203
0.21741391
3736824.8
603765.06
185363.34
78635.064
40014.774
22793.372
14000.08
9069.9491
6112.0234
4244.711
3018.6149
2188.1481
1611.4329
1202.7094
908.15688
692.91682
533.79681
415.00297
325.55626
257.68235
205.78044
165.74656
134.53398
109.85804
89.994391
73.651285
59.889953
48.077917
37.857812
29.110084
21.883783
16.276537
12.287093
9.7210081
8.2170363
7.4200615
6.9754381
6.6961072
6.5071448
6.3689675
6.2857423
6.2484931
6.2410738
6.234122
6.2156458
6.2003526
6.199344
6.2029957
6.1995373
6.1762622
6.1004981
5.9887875
5.9838644
6.2094211
6.6459634
6.2709457
4.9162618
2.2851491
1.1225995
0.6706536
0.48359857
0.37398671
0.29435269
0.24313085
0.19484629
3736869.6
603772.11
185365.4
78635.804
40014.998
22793.332
13999.872
9069.6161
6111.5867
4244.182
3018.0017
2187.4584
1610.6761
1201.8987
907.31085
692.0613
532.96645
414.24306
324.9254
257.25503
205.65125
166.03968
135.39523
111.4324
92.393133
76.923762
64.012095
52.922407
43.169848
34.506676
26.899129
20.46919
15.384416
11.714278
9.3295084
7.9417051
7.2062764
6.7912415
6.539404
6.3756367
6.267027
6.1970658
6.1683151
6.1579932
6.136547
6.1102639
6.0910918
6.075236
6.0518406
6.0070719
5.9525882
5.9847972
6.2775804
7.0440337
6.8852471
6.0080317
3.2495527
1.5123047
0.82587538
0.55413754
0.41355086
0.32661677
0.26169964
0.21803082
0.17636518
3736913.9
603779.28
185367.46
78636.493
40015.14
22793.18
13999.521
9069.1077
6110.9381
4243.4006
3017.0904
2186.4187
1609.5103
1200.6114
905.91112
690.5645
531.39652
412.63493
323.32744
255.73102
204.28081
164.91497
134.62392
111.14639
92.768555
78.165718
66.278421
56.23163
47.421283
39.456672
32.156131
25.533316
19.753225
15.036906
11.52879
9.1678509
7.8232184
7.0922202
6.6813249
6.4400039
6.2922426
6.2033949
6.1549782
6.1289221
6.0967602
6.0610907
6.0248709
5.9963388
5.961991
5.9571003
6.0496973
6.3860593
7.3592628
7.7284416
7.0186468
4.5834917
1.9619886
0.97563031
0.6237157
0.46247103
0.36691511
0.29616942
0.23885254
0.20010173
0.16399439
3736961
603786.75
185369.59
78637.192
40015.262
22792.986
13999.111
9068.5208
6110.1907
4242.4972
3016.03
2185.1976
1608.1242
1199.0569
904.18727
688.67447
529.34983
410.44996
321.0344
253.37512
201.92533
162.64344
132.5407
109.37364
91.432785
77.396611
66.233908
57.169312
49.534986
42.75659
36.445648
30.441568
24.770431
19.608059
15.20538
11.763644
9.3094297
7.9005315
7.1132327
6.6723475
6.4190808
6.2831418
6.2087149
6.1703796
6.1302823
6.0908095
6.046625
6.0383425
6.0744747
6.2034617
6.6328807
7.7916814
8.5651944
7.9860952
5.9666457
2.4543166
1.185475
0.72135478
0.5322767
0.4195855
0.32884781
0.26189262
0.21243562
0.17960185
0.15038142
3737011.6
603794.65
185371.84
78637.941
40015.412
22792.812
13998.716
9067.9463
6109.4519
4241.5975
3014.9663
2183.9631
1606.7103
1197.4543
902.38716
686.66981
527.13694
408.03061
318.41847
250.58394
198.99559
159.6315
129.52671
106.46458
88.763496
75.130019
64.51437
56.090497
49.233343
43.474548
38.408318
33.65572
28.957617
24.303943
19.847239
15.829207
12.485034
9.8935765
8.2829518
7.3655324
6.8428796
6.5574261
6.4093984
6.3332221
6.2854381
6.2590293
6.2835006
6.3617746
6.5643871
7.1050393
8.5775368
9.5160362
8.9933048
7.2154557
3.1039684
1.4454068
0.83577146
0.59822412
0.45971519
0.36172947
0.29481198
0.24183591
0.19883413
0.16743973
0.13967741
3737062.3
603802.7
185374.18
78638.764
40015.633
22792.715
13998.407
9067.4689
6108.8229
4240.8205
3014.038
2182.8758
1605.4536
1196.0159
900.75375
684.82761
525.07283
405.7334
315.88076
247.80468
195.98362
156.41006
126.13917
102.98132
85.290346
71.785225
61.476637
53.55964
47.343732
42.284031
37.963278
34.178912
30.697095
27.281554
23.741076
20.155058
16.723287
13.657328
11.10663
9.2107766
8.0780269
7.4251858
7.0753141
6.8886704
6.841906
6.9022227
7.0597721
7.3837886
8.0767238
9.8126202
10.632491
10.091587
8.2778927
3.795558
1.7365478
0.96004158
0.66274983
0.5034591
0.40134845
0.32371474
0.26132648
0.21417504
0.17921917
0.15606214
0.13350641
3737113.2
603810.95
185376.63
78639.676
40015.948
22792.724
13998.221
9067.1338
6108.3576
4240.2304
3013.3209
2182.0251
1604.4593
1194.8654
899.43219
683.31855
523.35838
403.79487
313.69946
245.36301
193.2668
153.40849
122.85108
99.414926
81.462626
67.757646
57.35259
49.516867
43.650126
39.233909
35.787585
32.826255
30.113831
27.539797
25.096359
22.654124
20.080185
17.47405
14.989699
12.846352
11.092763
9.8221592
9.056176
8.5880556
8.5838941
8.7184846
9.0409624
9.7663421
11.526759
11.905758
11.300793
9.3233157
4.5012857
2.0332773
1.091345
0.72676272
0.54784187
0.43804804
0.35718971
0.29259592
0.24149944
0.20090654
0.16747822
0.14375434
0.12498573
3737167.7
603819.71
185379.24
78640.692
40016.361
22792.839
13998.157
9066.9403
6108.0562
4239.829
3012.8198
2181.4197
1603.7416
1194.0246
898.45505
682.18924
522.05841
402.30307
311.99223
243.41516
191.0525
150.90254
120.0309
96.262888
77.968601
63.929639
53.226847
45.144231
39.12084
34.706309
31.53716
29.270557
27.551313
25.96528
24.319955
22.568346
20.898714
19.241173
17.559935
15.88469
14.355961
13.081579
12.20627
11.607408
11.417649
11.515206
11.974677
13.329688
13.270819
12.553297
10.280551
4.9695673
2.2853475
1.2172372
0.78520451
0.58460231
0.46951478
0.38413575
0.31395556
0.25639309
0.21320512
0.17926236
0.15525501
0.13710919
0.11939484
3737225.4
603828.87
185381.99
78641.777
40016.823
22793.001
13998.14
9066.7984
6107.8132
4239.4943
3012.3949
2180.9014
1603.123
1193.2961
897.6048
681.20305
520.92015
400.99472
310.49393
241.70515
189.1073
148.69759
117.54201
93.469834
74.862035
60.499431
49.466965
41.064957
34.754261
30.11184
26.795829
24.515566
23.013827
22.080495
21.429213
20.787531
19.891297
18.875267
17.817603
16.797908
15.817702
14.907468
14.199203
13.540275
13.553712
14.002676
15.168148
14.820097
13.779516
11.003555
5.150475
2.4623686
1.3295247
0.84388118
0.62317049
0.50100246
0.40896268
0.33469024
0.27935313
0.23626407
0.19978187
0.16958284
0.14577869
0.12945886
0.11554121
3737283.9
603838.25
185384.82
78642.898
40017.293
22793.155
13998.105
9066.6314
6107.5388
4239.1227
3011.9284
2180.337
1602.4547
1192.5151
896.69996
680.16159
519.72776
399.63594
308.95232
239.96344
187.14752
146.50166
115.09272
90.752049
71.864356
57.219075
45.904059
37.22813
30.663476
25.80068
22.31232
19.925025
18.404972
17.535607
17.099394
16.871014
16.770217
16.625497
16.419858
16.013831
15.413829
14.736394
14.472365
14.860139
16.106813
17.024111
16.547025
14.981448
11.142
5.3051137
2.6029772
1.4290137
0.90770153
0.66744355
0.53434231
0.43171576
0.35553012
0.29998801
0.2521376
0.20971244
0.17885424
0.15469034
0.13659006
0.12261867
0.11079484
3737344.3
603847.99
185387.73
78644.008
40017.703
22793.21
13997.936
9066.2983
6107.0691
4238.5275
3011.2104
2179.4948
1601.484
1191.4104
895.45486
678.76911
518.18057
397.92623
307.07173
237.90316
184.89875
144.0565
112.44508
87.898634
68.806082
53.962248
42.462525
33.624582
26.928571
21.970753
18.426871
16.024175
14.52369
13.707208
13.358936
13.289151
13.331829
13.449196
13.780235
14.028045
14.320179
15.147097
16.664852
18.683024
18.67796
18.000529
15.84633
10.850999
5.3012844
2.6851986
1.5130863
0.97136882
0.71183258
0.56303793
0.45062043
0.37379589
0.31697004
0.26550098
0.22471234
0.19475571
0.16899732
0.14794148
0.13070665
0.11823306
0.10779938
3737407.1
603858.08
185390.77
78645.141
40018.105
22793.239
13997.728
9065.9167
6106.543
4237.8696
3010.4255
2178.5833
1600.444
1190.2389
894.14827
677.32392
516.59346
396.19444
305.19349
235.87815
182.72854
141.74478
109.99825
85.327381
66.125816
51.193901
39.63278
30.761966
24.066488
19.144
15.662842
13.334358
11.95008
11.273367
11.025437
11.090754
11.483202
12.184473
13.322315
14.840551
16.669685
19.304657
20.505596
20.207532
19.151946
16.362615
10.394983
5.2298743
2.738134
1.5851904
1.0373008
0.76035824
0.5951137
0.47519611
0.39724867
0.33486076
0.28095078
0.24046082
0.20830812
0.1784212
0.15426347
0.13669581
0.12428119
0.11418789
0.10558345
3737471.9
603868.55
185393.97
78646.455
40018.721
22793.529
13997.837
9065.9123
6106.4574
4237.72
3010.2208
2178.3278
1600.1394
1189.885
893.74393
676.86708
516.08172
395.62535
304.56481
235.18815
181.97631
140.93052
109.12347
84.394195
65.13712
50.153811
38.548019
29.652224
22.952499
18.043926
14.607262
12.370853
11.142219
10.668681
10.684684
11.223047
12.316686
14.02065
16.309039
18.695173
21.199407
22.050784
21.580307
20.041198
16.356723
10.073275
5.1964516
2.7975342
1.6608595
1.1054476
0.8157963
0.63102276
0.50293552
0.41770066
0.3488497
0.29347084
0.25354109
0.21916679
0.1880466
0.16496584
0.14753447
0.13178817
0.11919635
0.11003394
0.10309432
3737539.4
603879.52
185397.36
78647.964
40019.567
22794.1
13998.288
9066.3131
6106.8456
4238.1173
3010.6408
2178.7796
1600.6293
1190.4175
894.32186
677.49213
516.75436
396.34477
305.32877
235.99269
182.81545
141.79585
110.00385
85.27563
66.003295
50.987254
39.330734
30.362046
23.583226
18.616337
15.158874
12.971584
11.876625
11.591842
12.046856
13.26071
15.202984
17.776285
20.55704
22.922692
23.508404
22.848983
20.84094
16.31683
10.041724
5.261393
2.8866148
1.7490534
1.1834387
0.87982419
0.67514869
0.53389357
0.44054836
0.3656151
0.31107995
0.26903
0.23166688
0.200201
0.17677944
0.15596014
0.13854236
0.12577439
0.11584915
0.10795295
0.10171838
3737610.3
603890.95
185400.93
78649.605
40020.548
22794.828
13998.926
9066.9352
6107.4926
4238.8145
3011.4057
2179.6252
1601.5658
1191.4531
895.46356
678.74548
518.12346
397.83216
306.93522
237.71697
184.65392
143.7421
112.04809
87.404376
68.199257
53.230116
41.599105
32.637071
25.846058
20.854267
17.382509
15.240429
14.26164
14.310541
15.219045
17.018098
19.560108
22.561877
25.025508
25.157361
24.245948
21.755946
16.527028
10.241115
5.4487315
3.0138283
1.8555038
1.2764394
0.95635319
0.72557154
0.57058446
0.46584971
0.3867625
0.32891051
0.28324481
0.24210857
0.21154905
0.18664917
0.16308723
0.14521906
0.13115109
0.12016685
0.11144922
0.10486291
0.099983972
3737682.9
603902.71
185404.61
78651.272
40021.522
22795.527
13999.52
9067.5011
6108.0725
4239.4349
3012.085
2180.3773
1602.4024
1192.3845
896.49902
679.89369
519.3926
399.22981
308.46832
239.39163
186.4753
145.71417
114.17345
89.684205
70.633092
55.816319
44.334926
35.521175
28.883849
24.066006
20.811917
18.941921
18.325534
18.76093
20.128211
22.222976
24.911903
27.409665
27.153183
25.882299
22.71613
16.938863
10.542043
5.6763965
3.1685784
1.9803746
1.3846744
1.0388895
0.78434142
0.61336557
0.49876226
0.41157402
0.34967671
0.29783154
0.25582545
0.22421029
0.1970344
0.1719746
0.15436455
0.13964103
0.12699524
0.11727283
0.1094649
0.10354731
0.098936151
3737758.4
603914.97
185408.38
78652.912
40022.408
22796.092
13999.938
9067.8501
6108.3959
4239.7588
3012.4269
2180.7507
1602.8186
1192.8539
897.03193
680.50072
520.08508
400.02008
309.36989
240.41941
187.64574
147.04547
115.68596
91.400752
72.579285
58.020599
46.829675
38.343508
32.077701
27.685896
24.925484
23.62184
23.61588
24.383681
26.056582
28.54493
30.321026
29.644226
27.792902
23.714558
17.466565
10.910003
5.9275277
3.3525205
2.1267735
1.5088298
1.1335107
0.85463024
0.66985797
0.53879784
0.44257908
0.37183466
0.31616627
0.27108812
0.23802803
0.2065475
0.1823205
0.16354755
0.14659589
0.13164889
0.12096724
0.11277989
0.10623809
0.10134361
0.097918056
3737836.4
603927.56
185412.25
78654.561
40023.256
22796.587
14000.257
9068.0757
6108.5717
4239.9105
3012.5718
2180.9016
1602.9865
1193.0491
897.26513
680.78361
520.43092
400.44423
309.89039
241.05751
188.42655
147.99861
116.84627
92.808972
74.2832
60.076055
49.30177
41.307358
35.617239
31.888194
29.865347
29.326131
29.766903
31.014155
33.017272
33.350581
32.293214
29.761527
24.796618
18.069847
11.310198
6.2120169
3.5721794
2.2987567
1.6518021
1.2407
0.93796825
0.7352249
0.58731805
0.47697483
0.39990398
0.33745814
0.29045307
0.25177078
0.21853186
0.19305639
0.17282749
0.15273574
0.13813455
0.12759901
0.11822489
0.11080371
0.10474703
0.10037626
0.096930767
3737916.9
603940.56
185416.25
78656.273
40024.147
22797.116
14000.608
9068.3349
6108.784
4240.103
3012.7627
2181.1049
1603.214
1193.3123
897.57612
681.15577
520.87969
400.98789
310.55084
241.86118
189.40544
149.1915
118.29987
94.579113
76.435611
62.686462
52.454699
45.090851
40.110805
37.140589
35.863619
35.936328
36.743943
37.283716
36.444188
34.860563
31.423088
25.696502
18.574519
11.645923
6.5169013
3.8325815
2.5089673
1.8159485
1.3597867
1.0333895
0.81197702
0.64499548
0.52226073
0.43344889
0.3654885
0.31125198
0.26897468
0.23190486
0.20590048
0.1814471
0.16145679
0.14642979
0.13414354
0.12280446
0.1136706
0.10770759
0.10239762
0.099054881
0.096324457
3738001.3
603954.2
185420.47
78658.114
40025.145
22797.754
14001.079
9068.7304
6109.1533
4240.4761
3013.1606
2181.544
1603.7092
1193.8781
898.22773
681.91015
521.75637
402.00986
311.74558
243.26185
191.05221
151.13296
120.59438
97.294792
79.639179
66.435458
56.821614
50.124987
45.809321
43.403233
42.474442
42.230834
41.486988
39.72426
37.198358
32.914011
26.555677
19.098806
12.068908
6.9542162
4.1814823
2.7654262
1.991628
1.4866766
1.1409496
0.90174448
0.71443342
0.57636971
0.47497193
0.39594029
0.33745145
0.28816853
0.24987002
0.21881252
0.19245142
0.17077076
0.15520327
0.13938598
0.12761383
0.11838297
0.11156879
0.1063375
0.10146606
0.098084618
0.095487988
3738088.5
603968.34
185424.88
78660.078
40026.25
22798.506
14001.679
9069.2747
6109.695
4241.049
3013.7889
2182.2481
1604.5076
1194.7895
899.27223
683.11018
523.13774
403.60291
313.58646
245.39408
193.52713
154.00874
123.93215
101.14955
84.056286
71.442801
62.403442
56.241082
52.316746
49.890785
47.999347
45.772692
43.060738
39.643872
34.385708
27.386862
19.627987
12.557971
7.4495471
4.5550774
3.0114698
2.1557861
1.623061
1.2685207
1.0074053
0.79676232
0.64033071
0.52420777
0.43476814
0.36750541
0.31419968
0.26926038
0.23536872
0.20431755
0.18267394
0.16315971
0.14688464
0.13409507
0.12468501
0.11605466
0.10906789
0.10393006
0.099960858
0.097422194
0.095103523
3738178.6
603982.99
185429.48
78662.162
40027.463
22799.371
14002.408
9069.9667
6110.4078
4241.8197
3014.6455
2183.2144
1605.6062
1196.0437
900.7071
684.75362
525.02142
405.76277
316.06279
248.23032
196.76903
157.70238
128.12031
105.86775
89.325625
77.218053
68.543552
62.399135
57.885379
54.085978
50.415289
46.664412
42.048286
35.810814
28.239835
20.272835
13.20095
8.0661689
5.0051488
3.308587
2.3725783
1.810464
1.4278147
1.1280591
0.88882574
0.71509758
0.58299223
0.48179764
0.40451618
0.34256067
0.29436083
0.25324207
0.22109134
0.19478212
0.17354275
0.15482855
0.14211257
0.12953783
0.11994003
0.11229218
0.10676971
0.10266192
0.098833337
0.096553221
0.094461407
3738271.2
603998.15
185434.27
78664.37
40028.788
22800.353
14003.265
9070.8067
6111.2909
4242.7864
3015.7268
2184.4369
1606.9956
1197.626
902.5097
686.80627
527.35613
408.41348
319.0641
251.61515
200.56345
161.91737
132.73972
110.83194
94.511786
82.46149
73.486825
66.552934
60.818802
55.710516
50.648329
44.688016
37.47713
29.363914
21.190961
14.053734
8.7939534
5.5052992
3.6302656
2.6048753
1.9988875
1.5760232
1.2442178
0.99052008
0.80398473
0.65542496
0.53808741
0.44882529
0.37767746
0.32262687
0.27783503
0.23905385
0.21074077
0.18421184
0.16581027
0.14957354
0.13631215
0.12535963
0.11780363
0.11066749
0.10545957
0.10158962
0.098162689
0.096160748
0.094216599
3738367.1
604011.05
185436.9
78664.872
40028.872
22800.424
14003.45
9071.1525
6111.8198
4243.5133
3016.6653
2185.6019
1608.404
1199.2971
904.46509
689.06925
529.95065
411.36205
322.38421
255.31358
204.6279
166.30488
137.36197
115.53801
99.069895
86.537605
76.765195
68.761399
61.804906
55.031929
47.630376
39.435725
30.771126
22.353794
15.076501
9.6231746
6.0863306
4.0255604
2.896624
2.2293516
1.7620413
1.4036199
1.1313308
0.91774524
0.74125738
0.60483211
0.50080436
0.42034919
0.35673694
0.30489531
0.2630874
0.22757492
0.20009685
0.17700733
0.15943243
0.14319902
0.13244525
0.12221613
0.11423765
0.10796468
0.10354134
0.10013954
0.097178289
0.095408222
0.093879809
3739014.3
604121.75
185474.23
78682.647
40039.055
22807.054
14008.21
9074.8599
6114.9177
4246.2647
3019.2394
2188.1152
1610.9419
1201.9259
907.23783
692.02884
533.12994
414.78187
326.04909
259.20503
208.69545
170.45562
141.45059
119.36128
102.37157
89.027477
78.193921
68.843059
59.944638
50.930721
41.650504
32.35201
23.617209
16.151487
10.492221
6.7225514
4.4696911
3.2100142
2.4597878
1.9451512
1.5612877
1.2644317
1.0221499
0.8258445
0.67826581
0.56302816
0.46996431
0.3970673
0.33688371
0.2896396
0.25046787
0.21630922
0.19202097
0.16885414
0.15316401
0.13928292
0.12808484
0.11839921
0.11263522
0.106777
0.10269272
0.099446217
0.096738567
0.095045416
0.093636923
3739013.7
604118.79
185471.89
78681.001
40038.03
22806.493
14008.013
9074.9688
6115.3003
4246.905
3020.1316
2189.2603
1612.3451
1203.5941
909.17778
694.24319
535.61338
417.51535
328.99263
262.2893
211.81294
173.4536
144.12887
121.48008
103.68908
89.249013
76.855249
65.558791
54.781625
44.306746
34.277016
25.127627
17.402649
11.500394
7.4761434
4.9928264
3.5677183
2.7219693
2.1638502
1.7555263
1.4309882
1.162347
0.94763031
0.78008723
0.64206065
0.53041043
0.44347094
0.3757062
0.32076021
0.27573246
0.23860753
0.20732184
0.18354804
0.16287695
0.14821489
0.13372608
0.12502035
0.11639077
0.10990031
0.10461358
0.1011879
0.098199615
0.095926158
0.094565389
0.093418645
3739013.8
604118.97
185472.09
78681.278
40038.39
22806.944
14008.565
9075.6314
6116.0843
4247.8219
3021.1929
2190.477
1613.7265
1205.1461
910.90029
696.12704
537.63547
419.6332
331.13812
264.36278
213.67963
174.94656
145.05401
121.58978
102.62774
86.702616
72.737424
60.020857
48.206143
37.292224
27.547907
19.362165
13.028008
8.5777089
5.7225054
4.0404343
3.0516713
2.4243194
1.9725403
1.6104625
1.3128349
1.0740682
0.8804567
0.72113203
0.59689289
0.49982549
0.42156512
0.35909494
0.30613286
0.2643686
0.22926478
0.19876418
0.1773878
0.15696153
0.14337051
0.13110856
0.12173552
0.11334818
0.10840347
0.10373233
0.1005733
0.097710882
0.09562153
0.094167519
0.093229483
3739014
604119.11
185472.22
78681.453
40038.618
22807.232
14008.919
9076.0593
6116.5936
4248.4201
3021.8866
2191.2712
1614.6228
1206.1408
911.98135
697.27031
538.80062
420.75925
332.14011
265.12759
214.05747
174.73886
144.00907
119.47298
99.311082
82.176359
67.141879
53.671316
41.580585
30.96032
22.043647
15.042871
9.9850291
6.6398666
4.6207318
3.4448318
2.7256339
2.2229556
1.8267889
1.5031484
1.2375034
1.0164352
0.8358966
0.6931277
0.5763931
0.48041645
0.40429216
0.34435338
0.294746
0.25438118
0.22071564
0.19238987
0.17138946
0.15231627
0.13982431
0.12697854
0.11950975
0.11214099
0.10683286
0.10217846
0.099401222
0.096811328
0.095234243
0.093976252
0.093069787
3739014.9
604119.24
185472.29
78681.52
40038.705
22807.346
14009.063
9076.2375
6116.8109
4248.6797
3022.1904
2191.618
1615.007
1206.5498
912.39273
697.64818
539.09134
420.88611
331.99631
264.57371
212.9326
172.88122
141.28904
115.80833
94.701678
76.73827
61.127562
47.459706
35.625542
25.701466
17.803742
11.953659
7.9581886
5.4658736
3.9967755
3.1165364
2.5284218
2.0825192
1.7205861
1.4183777
1.1657967
0.9598481
0.79255907
0.65467707
0.54478218
0.45802561
0.38832576
0.33228871
0.28403407
0.24610992