/*--------------------------------*- C++ -*----------------------------------*\
  =========                 |
  \\      /  F ield         | OpenFOAM: The Open Source CFD Toolbox
   \\    /   O peration     | Website:  https://openfoam.org
    \\  /    A nd           | Version:  13
     \\/     M anipulation  |
\*---------------------------------------------------------------------------*/
FoamFile
{
    format      ascii;
    class       volScalarField;
    location    "39.200547";
    object      pMean;
}
// * * * * * * * * * * * * * * * * * * * * * * * * * * * * * * * * * * * * * //

dimensions      [0 2 -2 0 0 0 0];

internalField   nonuniform List<scalar> 
17140
(
1.0391733
1.039094
1.0389983
1.0389004
1.0387944
1.0386787
1.0385531
1.0384172
1.0382708
1.0381134
1.037945
1.0377651
1.0375737
1.0373703
1.0371542
1.0369241
1.0366777
1.0364112
1.0361185
1.0357906
1.0354144
1.0349712
1.0344355
1.0337729
1.0329374
1.0318722
1.0305205
1.0288319
1.0267577
1.0242415
1.0212063
1.0175586
1.0131965
1.0080078
1.0018742
0.99467654
0.9863008
0.97664594
0.96563427
0.95322732
0.93944763
0.92440537
0.90833446
0.89162825
0.87485351
0.85878569
0.84434408
0.83234608
0.82362105
0.81888908
0.81868031
0.8233503
0.83319387
0.84818785
0.86822945
0.89258786
0.9209108
0.95136234
0.98468703
1.0171428
1.0522279
1.0803433
1.1134381
1.1292447
1.1564343
1.0379615
1.0378837
1.0377899
1.0376941
1.0375902
1.0374768
1.0373537
1.0372205
1.0370769
1.0369226
1.0367574
1.0365811
1.0363934
1.0361941
1.0359823
1.0357569
1.0355156
1.0352547
1.0349683
1.0346475
1.0342791
1.0338448
1.0333193
1.0326682
1.031846
1.0307958
1.0294603
1.0277891
1.0257332
1.0232355
1.0202183
1.016588
1.0122424
1.0070689
1.0009489
0.99376255
0.98539504
0.97574445
0.96473231
0.95231909
0.93852635
0.92346344
0.90736367
0.89062023
0.87380606
0.85769487
0.8431923
0.83115718
0.82240678
0.81763633
0.81738466
0.82200896
0.83178874
0.84670712
0.86667198
0.89093878
0.91918756
0.94963196
0.98307554
1.0159205
1.0515078
1.0799618
1.1130657
1.1284398
1.1554561
1.0351426
1.0350687
1.0349796
1.0348885
1.0347897
1.0346817
1.0345643
1.0344374
1.0343005
1.0341533
1.0339958
1.0338276
1.0336486
1.0334586
1.0332569
1.0330424
1.032813
1.0325651
1.0322932
1.0319885
1.0316384
1.0312247
1.0307224
1.0300981
1.0293065
1.0282908
1.0269926
1.0253606
1.023345
1.0208883
1.0179124
1.0143228
1.0100168
1.0048809
0.99879499
0.99163758
0.98329202
0.97365428
0.96264355
0.95021805
0.93639702
0.92128858
0.90512657
0.88830643
0.87141207
0.85522762
0.8406392
0.82852337
0.81971234
0.81489055
0.81457644
0.8191129
0.82877869
0.84356232
0.86337814
0.88747466
0.91555522
0.94588383
0.9793555
1.0125542
1.0487357
1.0778037
1.1111499
1.1264865
1.1536547
1.0307682
1.0307004
1.030619
1.0305351
1.0304441
1.0303446
1.0302365
1.0301194
1.0299929
1.029857
1.0297114
1.029556
1.0293906
1.0292152
1.0290292
1.0288316
1.0286205
1.0283929
1.0281433
1.0278635
1.0275413
1.0271592
1.0266928
1.0261092
1.0253645
1.0244019
1.0231615
1.0215896
1.0196357
1.0172421
1.0143304
1.010805
1.006562
1.0014864
0.99545613
0.98834705
0.98003959
0.97042639
0.95942316
0.94698443
0.93312618
0.91795535
0.90170692
0.88478154
0.86777905
0.85149437
0.83679745
0.82458981
0.81570616
0.8108214
0.81043443
0.81486502
0.82438182
0.83897722
0.85857161
0.88239556
0.91016896
0.94024885
0.97370505
1.0072703
1.0441375
1.0740467
1.1079834
1.123556
1.1511232
1.0249756
1.0249161
1.0248448
1.0247707
1.0246903
1.0246022
1.0245063
1.0244024
1.0242901
1.0241693
1.0240397
1.0239015
1.0237544
1.0235984
1.0234333
1.0232582
1.0230715
1.0228704
1.0226501
1.0224028
1.0221171
1.021776
1.0213561
1.0208255
1.0201416
1.0192489
1.0180851
1.0165925
1.0147196
1.0124094
1.0095834
1.0061445
1.0019871
0.9969946
0.99104204
0.98400209
0.9757514
0.96617839
0.95519416
0.94274856
0.92885368
0.91361541
0.89727116
0.88023058
0.86311397
0.84671849
0.83191144
0.81961954
0.81067519
0.80574269
0.80528942
0.80961005
0.81896337
0.83334184
0.85266381
0.8761502
0.90356907
0.93334074
0.96677785
1.0008304
1.0385265
1.0693911
1.1040282
1.1201017
1.1480941
1.01799
1.0179405
1.0178816
1.0178197
1.0177521
1.0176781
1.0175974
1.0175097
1.0174148
1.0173125
1.0172028
1.0170856
1.016961
1.0168289
1.0166892
1.0165413
1.0163841
1.0162149
1.0160294
1.0158207
1.0155779
1.0152852
1.0149199
1.0144515
1.0138389
1.0130287
1.0119567
1.0105603
1.0087855
1.0065756
1.0038532
1.0005207
0.99646977
0.99158172
0.98572874
0.97877982
0.97060713
0.96109416
0.9501465
0.93770863
0.92378863
0.90849159
0.89205846
0.87491112
0.8576922
0.84119289
0.82629839
0.81394748
0.8049676
0.80001219
0.79951622
0.80374451
0.81294442
0.82709719
0.84611517
0.86921769
0.89622394
0.92569651
0.95918028
0.99386699
1.0325021
1.0645108
1.0998626
1.1164552
1.1448152
1.0101164
1.0100783
1.0100332
1.0099851
1.0099326
1.0098748
1.0098116
1.0097428
1.009668
1.0095873
1.0095005
1.0094077
1.0093089
1.0092043
1.0090938
1.008977
1.0088529
1.0087194
1.0085728
1.0084067
1.008211
1.0079709
1.0076651
1.0072642
1.006729
1.0060086
1.0050389
1.0037523
1.0020888
0.99999126
0.99738598
0.99417591
0.99024893
0.98548441
0.97975164
0.97291577
0.96484432
0.95541526
0.94452819
0.93212198
0.91820064
0.90286892
0.88637282
0.86914826
0.85185512
0.8352832
0.82033792
0.80795558
0.79896651
0.79401169
0.79349623
0.79765655
0.80672792
0.82067942
0.83942254
0.86216281
0.88877991
0.91805973
0.95174328
0.98722432
1.0268581
1.0600488
1.0959854
1.1129666
1.1415042
1.0017237
1.0016981
1.0016675
1.0016348
1.0015987
1.0015588
1.0015149
1.0014668
1.0014143
1.0013574
1.0012959
1.00123
1.0011597
1.0010853
1.0010066
1.0009234
1.0008351
1.0007397
1.000634
1.0005122
1.0003651
1.0001789
0.99993357
0.9996012
0.99914452
0.99851504
0.99765161
0.99648275
0.9949393
0.99296188
0.99048191
0.98740399
0.98361421
0.97898892
0.97339487
0.9666935
0.95874774
0.94942994
0.93863374
0.92629245
0.91240649
0.89708063
0.88056699
0.86331592
0.84599273
0.82939525
0.81443863
0.80204643
0.79306196
0.78812038
0.7876038
0.79171788
0.80068567
0.81447798
0.83299711
0.85546634
0.88181453
0.91107244
0.94517538
0.98153899
1.0221704
1.056336
1.0926435
1.1100399
1.1386081
0.99322159
0.9932089
0.99319355
0.99317681
0.99315805
0.99313696
0.99311341
0.99308721
0.99305824
0.99302645
0.99299182
0.99295438
0.99291424
0.99287149
0.9928262
0.99277813
0.99272663
0.99267012
0.99260561
0.99252784
0.99242842
0.9922944
0.99210701
0.99183998
0.99145795
0.99091488
0.99015272
0.9891016
0.98768502
0.98583214
0.98347746
0.98053551
0.97689096
0.97241584
0.96697581
0.96042905
0.9526342
0.94345847
0.93279007
0.92055743
0.90675798
0.89149672
0.87503137
0.85782429
0.84053446
0.82397141
0.809046
0.79666576
0.78769572
0.78277121
0.78225349
0.78633204
0.79523371
0.80892229
0.82728862
0.84958476
0.87581016
0.90528008
0.94006359
0.97753789
1.0191605
1.0539864
1.0904025
1.1079466
1.1361557
0.98503202
0.98503223
0.98503208
0.98503136
0.98502995
0.98502777
0.98502471
0.98502063
0.98501549
0.98500924
0.98500183
0.98499335
0.98498383
0.98497331
0.98496176
0.98494896
0.98493418
0.98491594
0.98489141
0.98485571
0.98480095
0.98471503
0.98458027
0.98437193
0.98405655
0.98359055
0.98291892
0.98197479
0.98068164
0.97895901
0.97673034
0.97391732
0.97041803
0.96610263
0.96083016
0.95445696
0.94683902
0.93783984
0.92734362
0.91527505
0.90162904
0.88651091
0.87018204
0.85310956
0.83594285
0.81949568
0.80465991
0.79233437
0.78339861
0.77849043
0.77797888
0.78205697
0.79094155
0.80457876
0.82287313
0.84512294
0.87148004
0.90155518
0.93736976
0.97586579
1.0179095
1.0528585
1.088675
1.1061516
1.1339365
0.97755245
0.97756483
0.97757907
0.97759356
0.97760869
0.9776246
0.97764119
0.97765844
0.97767633
0.97769485
0.97771399
0.97773373
0.9777541
0.97777506
0.97779647
0.97781795
0.97783869
0.97785709
0.97787036
0.97787374
0.97785968
0.97781669
0.97772802
0.97757018
0.97731146
0.97691057
0.97631544
0.97546247
0.97427734
0.9726785
0.97058189
0.9679008
0.96453852
0.96037866
0.95528325
0.94910354
0.94169248
0.93291142
0.92264185
0.9108062
0.89739818
0.88252322
0.86644504
0.84962163
0.83269733
0.816477
0.80182424
0.78962785
0.78076622
0.77589719
0.77540869
0.77946959
0.78831932
0.80193117
0.82021798
0.84257591
0.8693344
0.9002552
0.93697867
0.97607264
1.0179281
1.0523561
1.087439
1.1051044
1.131969
0.97112258
0.97114579
0.9711728
0.97120088
0.97123086
0.97126307
0.97129747
0.97133413
0.97137309
0.97141436
0.97145798
0.97150395
0.9715522
0.97160262
0.97165493
0.97170863
0.97176266
0.97181533
0.97186361
0.97190276
0.97192534
0.97192028
0.97187138
0.97175626
0.97154463
0.9711972
0.97066455
0.9698865
0.96879174
0.96729999
0.96532576
0.96277873
0.95956175
0.95556195
0.95064908
0.94467939
0.93750645
0.92899035
0.91901165
0.90749187
0.89442408
0.8799129
0.86422001
0.8477875
0.83124901
0.81538579
0.80103443
0.78906507
0.78035045
0.77553237
0.77498131
0.77895886
0.78772857
0.80130311
0.81962116
0.84221469
0.86954284
0.90136518
0.93884203
0.97808601
1.0193217
1.0531826
1.0871162
1.104662
1.1301048
0.96598732
0.9660193
0.96605672
0.96609598
0.96613822
0.96618396
0.96623329
0.96628633
0.9663432
0.96640399
0.96646877
0.96653758
0.96661037
0.96668692
0.96676693
0.96684969
0.96693404
0.96701802
0.96709852
0.96717067
0.967227
0.96725663
0.96724389
0.96716701
0.96699689
0.96669585
0.96621657
0.9655019
0.96448452
0.96308669
0.96122285
0.95880335
0.95573315
0.95190436
0.9471936
0.94146089
0.9345636
0.92636475
0.91674908
0.90563847
0.89302584
0.87901198
0.86384881
0.84796455
0.83196824
0.81659778
0.80266444
0.79103044
0.78248226
0.77765658
0.77699321
0.78085383
0.78952828
0.80307269
0.82149098
0.84443168
0.87248642
0.90518002
0.94310996
0.98207325
1.0221687
1.0547504
1.0873903
1.1045326
1.1283482
0.96227497
0.96231321
0.96235807
0.96240539
0.96245657
0.96251231
0.96257275
0.96263812
0.96270865
0.96278453
0.96286591
0.96295289
0.96304543
0.96314343
0.9632465
0.9633539
0.96346441
0.96357603
0.96368554
0.96378803
0.96387616
0.96393922
0.96396196
0.96392332
0.96379507
0.9635406
0.96311426
0.96246105
0.961517
0.9602095
0.95846078
0.95616142
0.95324389
0.94959949
0.94511048
0.93964352
0.93307121
0.92525748
0.91608842
0.90548978
0.89345465
0.88007721
0.86559418
0.85041042
0.83509556
0.82033924
0.80693734
0.79565771
0.78725495
0.78239494
0.78161985
0.78533151
0.7939097
0.80745376
0.82600564
0.84938434
0.87812766
0.91155026
0.94940217
0.98746022
1.0259106
1.0572743
1.0881265
1.1045474
1.1269448
0.95997819
0.96001976
0.96006877
0.9601206
0.9601769
0.9602385
0.96030562
0.96037858
0.96045772
0.96054335
0.96063573
0.96073507
0.96084147
0.9609549
0.96107508
0.96120143
0.96133279
0.96146729
0.96160187
0.9617319
0.96185033
0.96194701
0.96200739
0.96201135
0.96193178
0.96173345
0.96137221
0.96079471
0.95993883
0.95873284
0.95710184
0.9549865
0.95224689
0.94876906
0.94453314
0.93938337
0.93318341
0.92581527
0.91717715
0.90719602
0.89586088
0.88325548
0.86959433
0.85524177
0.84071765
0.82668555
0.81383289
0.8028903
0.79462916
0.78973098
0.78881874
0.79239867
0.80089298
0.81443408
0.83312703
0.85701055
0.88648109
0.92012156
0.95736099
0.99395289
1.0306454
1.060111
1.0890179
1.1046732
1.1256592
0.95897471
0.95901675
0.95906664
0.95911933
0.95917683
0.95923996
0.95930906
0.95938454
0.95946683
0.95955636
0.95965353
0.95975867
0.95987211
0.95999393
0.96012412
0.96026232
0.96040771
0.96055874
0.96071289
0.96086612
0.9610122
0.96114201
0.96124233
0.96129474
0.96127385
0.96114623
0.96086949
0.96039134
0.95965069
0.95857891
0.95710252
0.95514567
0.95259871
0.94943893
0.94548947
0.94065065
0.93489083
0.9280628
0.92005757
0.9108036
0.90028766
0.88857821
0.87585495
0.86243462
0.84880083
0.83550467
0.82319239
0.81258509
0.80443515
0.79950303
0.79847437
0.80194364
0.81035107
0.82385528
0.84283797
0.86734879
0.8970583
0.93033882
0.96642524
1.001349
1.0356241
1.0631223
1.0901347
1.1049487
1.1247391
0.95902948
0.95906945
0.95911727
0.95916752
0.95922254
0.95928322
0.95934992
0.9594231
0.95950328
0.95959102
0.95968679
0.95979115
0.9599045
0.96002729
0.96015967
0.96030172
0.96045299
0.96061257
0.96077863
0.96094814
0.96111619
0.96127523
0.9614141
0.96151685
0.96156123
0.96151704
0.96134448
0.96099409
0.96040671
0.9595142
0.95824292
0.95651252
0.95426119
0.95139023
0.94778813
0.94346316
0.93821829
0.93197746
0.9246867
0.91626122
0.90667265
0.89596112
0.88426534
0.87186561
0.85913265
0.84656973
0.83479621
0.82448434
0.81644316
0.81148115
0.81037602
0.81371758
0.82199338
0.83566303
0.85507962
0.87984083
0.90924907
0.94188077
0.97628393
1.0089318
1.0408168
1.0662344
1.0914634
1.1054688
1.1241901
0.95986906
0.95990487
0.95994805
0.9599932
0.96004278
0.96009766
0.96015826
0.96022506
0.96029863
0.96037957
0.96046846
0.96056596
0.96067271
0.96078926
0.96091617
0.96105381
0.96120231
0.96136142
0.96153023
0.96170689
0.96188819
0.96206874
0.96224023
0.96239024
0.96250088
0.96254697
0.96249463
0.96229961
0.9619065
0.96124969
0.960256
0.95884525
0.95694388
0.95447135
0.95136903
0.94751953
0.94287693
0.93740212
0.93093167
0.92342828
0.9148576
0.90522423
0.8946339
0.88326888
0.87143984
0.8596124
0.84832626
0.83829737
0.83036353
0.82539283
0.8241639
0.82735782
0.83572156
0.84969099
0.86928517
0.8938456
0.9230325
0.95406828
0.9862983
1.0166627
1.0459421
1.0695455
1.0931129
1.1063341
1.1241054
0.96119247
0.96122274
0.96125948
0.96129774
0.96133989
0.96138675
0.9614387
0.96149624
0.96155992
0.96163036
0.9617082
0.96179418
0.96188899
0.96199342
0.9621082
0.96223405
0.96237158
0.96252112
0.96268272
0.96285575
0.96303863
0.96322838
0.96341984
0.9636047
0.96377035
0.96389847
0.96396288
0.96392786
0.96374702
0.96336202
0.9627041
0.9616954
0.960258
0.95830719
0.95577822
0.95260021
0.94872515
0.94403727
0.93850643
0.93205214
0.92458941
0.91611188
0.90665062
0.8963281
0.88540694
0.87425325
0.86343407
0.85364618
0.84579888
0.84074166
0.83941702
0.84263366
0.85120576
0.8653341
0.88485917
0.90943342
0.9373241
0.96634553
0.99645977
1.0240862
1.0512253
1.0730737
1.0951276
1.107567
1.1244792
0.96274459
0.96276875
0.96279819
0.96282877
0.9628626
0.96290036
0.96294239
0.96298914
0.96304115
0.963099
0.9631633
0.96323482
0.96331427
0.96340252
0.96350041
0.96360889
0.96372886
0.96386116
0.96400655
0.96416541
0.96433767
0.96452239
0.96471737
0.96491838
0.96511833
0.96530602
0.96546472
0.96557014
0.96558875
0.96547591
0.96517542
0.96461944
0.96373312
0.96243466
0.9606493
0.95829425
0.9552961
0.95160504
0.94714561
0.94181577
0.93554658
0.92826354
0.9199492
0.91067149
0.90058811
0.8900613
0.87962263
0.87004043
0.86217542
0.8570946
0.85578774
0.85916964
0.86800918
0.8821964
0.90186833
0.92557503
0.95157026
0.9787224
1.0060508
1.0315611
1.056626
1.0768747
1.0975347
1.1092044
1.1253456
0.96432044
0.96433853
0.9643604
0.96438345
0.96440902
0.96443765
0.96446965
0.9645054
0.96454538
0.96459008
0.96464006
0.96469602
0.96475867
0.96482879
0.96490733
0.96499526
0.96509364
0.96520358
0.96532625
0.96546272
0.96561399
0.96578067
0.96596275
0.96615941
0.96636854
0.9665857
0.96680292
0.96700777
0.96718152
0.96729757
0.96731935
0.9671984
0.96687472
0.96627683
0.96532641
0.96393843
0.96202905
0.95950293
0.95625999
0.95221132
0.94722736
0.94119363
0.93404131
0.92574319
0.91643415
0.90642542
0.89627586
0.88679458
0.87898073
0.8739802
0.87288297
0.87670876
0.88574616
0.90026263
0.91954608
0.94158264
0.96590125
0.99049152
1.0156337
1.0390165
1.0622174
1.0809726
1.100348
1.1112575
1.1267024
0.9657983
0.96581084
0.96582585
0.96584197
0.96585993
0.96588009
0.96590272
0.96592814
0.96595674
0.965989
0.96602543
0.9660665
0.9661127
0.96616474
0.96622333
0.96628937
0.96636405
0.96644863
0.96654446
0.966653
0.96677577
0.96691445
0.96707071
0.96724616
0.967442
0.96765887
0.96789625
0.96815187
0.96842111
0.96869562
0.96896078
0.9691939
0.96936194
0.96941675
0.96929393
0.96891005
0.96816446
0.9669373
0.96509
0.96246306
0.95888039
0.95416655
0.94816392
0.94079563
0.93216702
0.92256157
0.91264037
0.90329244
0.89557601
0.89090346
0.89046508
0.89470871
0.90440611
0.91899282
0.93699803
0.95730034
0.97965462
1.0019763
1.0250056
1.0465253
1.0680229
1.0853818
1.1035742
1.1137388
1.1285584
0.96712163
0.96712918
0.96713824
0.96714807
0.96715911
0.96717154
0.96718559
0.96720176
0.96722037
0.967241
0.96726324
0.96728775
0.96731592
0.9673492
0.96738897
0.96743566
0.9674892
0.96755005
0.96761914
0.96769776
0.96778822
0.96789315
0.96801537
0.96815825
0.96832538
0.96852066
0.96874886
0.96901579
0.96932715
0.96968842
0.97010507
0.97058026
0.97110962
0.97167864
0.97225284
0.9727702
0.97313244
0.97319465
0.97276991
0.97163078
0.96950761
0.96614267
0.96127292
0.95481276
0.94678601
0.93755796
0.92786708
0.91866689
0.91148175
0.9078057
0.90807185
0.91334958
0.92354059
0.93727525
0.95370017
0.97267222
0.99258901
1.013113
1.0343174
1.0541153
1.0740539
1.090114
1.1072163
1.1166485
1.130903
0.9682912
0.96829401
0.96829743
0.96830112
0.96830521
0.96830999
0.96831585
0.96832289
0.96833122
0.96834094
0.96835223
0.9683655
0.96838105
0.96839919
0.96842009
0.96844382
0.96847147
0.96850559
0.96854747
0.96859668
0.96865452
0.96872485
0.96881265
0.96892224
0.96905669
0.96922061
0.96942298
0.96967492
0.96998924
0.97038117
0.97086851
0.97147682
0.97222956
0.97313582
0.97419603
0.97538314
0.97661826
0.9777609
0.97859181
0.97881526
0.97807003
0.9759768
0.97221815
0.96661091
0.95917583
0.95038199
0.94116228
0.93282575
0.927138
0.9244988
0.92610971
0.93228013
0.94210074
0.95455128
0.96993901
0.98679595
1.0052203
1.0240581
1.0435689
1.0618026
1.0803161
1.0951677
1.1112706
1.1199922
1.1337383
0.96929419
0.969292
0.96928947
0.96928686
0.96928411
0.96928122
0.96927835
0.96927577
0.96927405
0.96927339
0.96927281
0.96927115
0.96926862
0.96926632
0.96926567
0.96926846
0.96927649
0.96929138
0.96931372
0.9693416
0.96937465
0.96941695
0.96947359
0.96954926
0.96964942
0.9697812
0.9699546
0.97018406
0.97048751
0.97088554
0.97140267
0.97207541
0.97293578
0.97401303
0.97534135
0.97692049
0.97869998
0.98055546
0.98228527
0.98354037
0.9839159
0.98292441
0.98017184
0.97537488
0.96870169
0.96084738
0.95300329
0.94654308
0.94224739
0.94122842
0.94409635
0.95021456
0.9593607
0.97114799
0.98501558
1.0005795
1.0174716
1.0347841
1.0527989
1.0696042
1.0868169
1.1005472
1.1157284
1.1237656
1.1370539
0.97007696
0.97006964
0.97006098
0.97005191
0.97004204
0.97003128
0.97001974
0.97000763
0.96999512
0.96998207
0.9699683
0.96995371
0.96993886
0.9699248
0.96991232
0.96990166
0.96989248
0.96988437
0.96987927
0.9698804
0.96989065
0.9699131
0.96995001
0.97000422
0.97008286
0.97019579
0.97035275
0.97056649
0.97085531
0.9712397
0.97175364
0.97242887
0.97330086
0.97442375
0.97584165
0.97757596
0.97960945
0.98183678
0.98406913
0.98598417
0.98711984
0.9869369
0.98500209
0.98121296
0.97592108
0.96984369
0.96408621
0.95942697
0.95700595
0.95758766
0.96071238
0.96698585
0.97559171
0.9866949
0.99948544
1.0137905
1.0294009
1.0453695
1.062026
1.0775308
1.0935587
1.1062495
1.1205861
1.1279658
1.1408438
0.97043031
0.9704187
0.97040502
0.97039061
0.970375
0.97035802
0.97033963
0.97031981
0.97029853
0.9702758
0.97025173
0.97022647
0.97020042
0.97017397
0.97014768
0.97012247
0.97009938
0.97007953
0.97006398
0.97005377
0.97005106
0.97005856
0.97007925
0.97011653
0.97017738
0.97027385
0.97041811
0.97062077
0.97089729
0.9712686
0.9717653
0.97242704
0.97328986
0.97440291
0.97581337
0.97753931
0.97958883
0.98191608
0.98431947
0.98650002
0.98803818
0.98853821
0.98768317
0.98539456
0.98193105
0.97806008
0.97435847
0.97164021
0.9712517
0.9724787
0.97632181
0.98262596
0.99111408
1.0013347
1.0133016
1.0266004
1.0410704
1.0558271
1.0712697
1.0855938
1.1005436
1.1122727
1.1258333
1.1325835
1.1450997
0.97016052
0.97014682
0.97013076
0.9701138
0.97009543
0.97007549
0.97005391
0.97003066
0.97000576
0.96997926
0.96995123
0.96992181
0.96989132
0.96986004
0.96982852
0.96979744
0.96976767
0.96974041
0.96971721
0.96969991
0.96969094
0.9696942
0.96971526
0.96975795
0.969824
0.96991866
0.97005423
0.97024532
0.97049786
0.97083626
0.97130677
0.97193865
0.97274544
0.973763
0.97504848
0.97666759
0.97862265
0.98087846
0.98330534
0.98566854
0.98769305
0.98903191
0.98941519
0.98876162
0.98734882
0.98555981
0.98372917
0.98333091
0.98412245
0.98643848
0.99113521
0.99739633
1.0055162
1.0153217
1.0266231
1.0390318
1.0525106
1.0661959
1.0805501
1.0938031
1.1077718
1.1186142
1.1314644
1.1376223
1.1498143
0.96904563
0.96903325
0.9690187
0.96900336
0.96898676
0.96896874
0.96894925
0.96892831
0.9689059
0.96888207
0.96885695
0.96883068
0.96880356
0.96877593
0.96874832
0.96872143
0.96869615
0.96867356
0.96865522
0.96864294
0.96863886
0.96864586
0.96866777
0.96870934
0.96877685
0.96887386
0.96900466
0.96918517
0.96944698
0.96979521
0.97023307
0.97080328
0.97154183
0.97249843
0.97372505
0.975255
0.97711386
0.97931135
0.98179514
0.98442121
0.98698352
0.98922459
0.99090153
0.99194073
0.99241713
0.99232038
0.99283442
0.9942119
0.99616068
0.99973671
1.0047201
1.0112287
1.0193199
1.0287542
1.0394914
1.0511571
1.0637722
1.0765033
1.0898846
1.1021671
1.1152453
1.1252712
1.1374706
1.1430712
1.1549672
0.96719123
0.96718238
0.96717198
0.96716105
0.96714926
0.96713652
0.9671228
0.96710816
0.96709262
0.96707628
0.96705926
0.96704179
0.96702415
0.96700676
0.96699015
0.96697504
0.96696236
0.96695335
0.96694949
0.96695269
0.96696528
0.96699038
0.96703162
0.967091
0.96717252
0.96728461
0.96744209
0.96765492
0.96791988
0.96825641
0.96870753
0.96930024
0.97004756
0.97098241
0.97217328
0.97368312
0.9755493
0.97780303
0.98044921
0.98342908
0.98661648
0.98979641
0.99272675
0.9953083
0.99716554
0.99917613
1.0017392
1.0042487
1.0075745
1.0120174
1.0176408
1.0244482
1.032512
1.0417026
1.0519973
1.0630288
1.074893
1.0867793
1.0992915
1.1106966
1.1229661
1.1322408
1.1438431
1.1489207
1.1605553
0.96469373
0.9646889
0.96468329
0.96467746
0.9646713
0.96466477
0.96465791
0.96465081
0.96464361
0.96463645
0.96462953
0.96462318
0.96461776
0.96461385
0.96461207
0.96461328
0.96461851
0.96462916
0.96464707
0.96467456
0.9647144
0.96476888
0.96484136
0.96493584
0.965058
0.96521879
0.96542297
0.96568613
0.96603055
0.96645491
0.96696889
0.96761029
0.96841837
0.96943353
0.97070422
0.97228937
0.9742563
0.97668044
0.97961736
0.98307982
0.98696005
0.99105262
0.99517819
0.99878743
1.0023768
1.006356
1.0100105
1.0138466
1.0184566
1.0237787
1.0299749
1.0371059
1.0452501
1.0542759
1.0642097
1.0747051
1.0859171
1.097053
1.1087902
1.1193972
1.130933
1.1395157
1.1505778
1.1551499
1.1665938
0.96166994
0.96166839
0.96166673
0.96166516
0.96166373
0.9616625
0.96166162
0.96166125
0.96166159
0.96166291
0.96166557
0.96167002
0.96167682
0.96168671
0.96170059
0.96171965
0.96174534
0.96177944
0.96182424
0.96188248
0.96195718
0.96205158
0.96217051
0.96232007
0.96250895
0.96275085
0.96305042
0.96340663
0.96383684
0.96436322
0.96500267
0.96577984
0.96672527
0.96787538
0.96928795
0.97104511
0.97324455
0.97600062
0.97941006
0.98348682
0.98811397
0.99315574
0.99807034
1.0029669
1.0082626
1.0132645
1.0180965
1.0233625
1.0289697
1.0350976
1.0418893
1.0493743
1.0576311
1.0665531
1.0762011
1.0862408
1.0968844
1.107353
1.1183965
1.1282772
1.1391512
1.14709
1.1576684
1.1617508
1.1730448
0.95800552
0.95800656
0.95800805
0.95800994
0.95801244
0.95801571
0.95801999
0.95802556
0.95803268
0.95804187
0.95805358
0.95806852
0.9580875
0.95811152
0.95814189
0.95818017
0.95822827
0.95828858
0.95836396
0.95845786
0.9585742
0.95871918
0.95889881
0.95911929
0.95938906
0.95971528
0.96010802
0.96057938
0.9611423
0.96181258
0.96260916
0.96355332
0.96467547
0.966031
0.96769567
0.96976957
0.9723865
0.97568688
0.97975289
0.98456364
0.99002808
0.99579104
1.0016083
1.0079406
1.0141829
1.0202072
1.0264073
1.0327063
1.0392596
1.0461644
1.0535208
1.0613589
1.069761
1.0786245
1.0880417
1.0976908
1.1078363
1.1177084
1.128129
1.1373479
1.1476243
1.1549591
1.1651094
1.1687171
1.1798929
0.95343647
0.95344047
0.95344554
0.95345141
0.95345843
0.95346689
0.95347714
0.95348954
0.95350462
0.95352293
0.95354527
0.95357253
0.95360579
0.95364649
0.95369628
0.95375719
0.95383174
0.95392287
0.95403425
0.95417009
0.95433553
0.95453729
0.95478158
0.95507577
0.95542947
0.95585272
0.95635696
0.95695552
0.95766207
0.95849131
0.95946315
0.96061222
0.96198777
0.96365544
0.9657164
0.96830539
0.97156987
0.97562973
0.98050121
0.98616844
0.9923997
0.9988538
1.0059409
1.0132051
1.020366
1.0275736
1.0347847
1.0420688
1.0494892
1.0571025
1.0649955
1.0731804
1.0817382
1.0905711
1.0997988
1.1091082
1.1188122
1.1281474
1.1380047
1.146619
1.1563498
1.1631307
1.1728858
1.1760448
1.1871282
0.94759738
0.94760591
0.94761642
0.94762821
0.94764192
0.94765799
0.94767686
0.94769908
0.9477253
0.94775636
0.94779322
0.9478371
0.94788942
0.94795191
0.94802672
0.94811637
0.94822384
0.94835283
0.94850761
0.94869323
0.94891555
0.94918151
0.94949906
0.94987693
0.95032609
0.95085794
0.95148355
0.952217
0.95307731
0.95408978
0.95528737
0.95671661
0.95844676
0.96057824
0.96324114
0.96657986
0.97071909
0.97571079
0.98153772
0.98810681
0.99504421
1.0026705
1.0107596
1.0188544
1.0270451
1.0352119
1.0433875
1.0515637
1.0597722
1.0680415
1.0764327
1.0849435
1.0936563
1.1024732
1.111538
1.1205448
1.1298514
1.1386981
1.1480409
1.1560986
1.1653315
1.1715924
1.1809909
1.1837206
1.1947268
0.94012901
0.94014423
0.9401628
0.94018329
0.94020671
0.94023373
0.94026489
0.94030095
0.94034277
0.94039142
0.94044813
0.94051441
0.94059206
0.94068324
0.94079045
0.94091669
0.94106556
0.94124134
0.941449
0.94169383
0.94198272
0.94232439
0.94272701
0.94319975
0.94375345
0.94440233
0.94516456
0.94606026
0.94711586
0.94836825
0.94987032
0.95169744
0.95395212
0.95676324
0.96027115
0.96459765
0.96980644
0.97589049
0.98278962
0.9901868
0.99830347
1.0070717
1.0159788
1.0250336
1.0341293
1.0432362
1.0523029
1.0613001
1.0702321
1.0790983
1.0879434
1.0967516
1.1056058
1.1144075
1.1233225
1.1320509
1.1409914
1.1493867
1.1582534
1.1658006
1.1745621
1.1803512
1.1894045
1.1917404
1.2026557
0.93074123
0.93076556
0.93079505
0.93082726
0.9308637
0.93090526
0.93095272
0.93100697
0.93106914
0.93114053
0.93122268
0.93131738
0.93142686
0.93155368
0.93170053
0.93186989
0.93206701
0.93229882
0.93256924
0.93288271
0.93324689
0.93367143
0.93416741
0.93474653
0.93542267
0.93621394
0.93714353
0.93824288
0.93955544
0.94114183
0.94308523
0.9454948
0.94850275
0.95225023
0.95685616
0.96238811
0.96884901
0.97617413
0.9841162
0.99274009
1.0021538
1.0118358
1.0216883
1.0316724
1.0417167
1.0517233
1.0616302
1.071388
1.0809791
1.0903835
1.0996326
1.1087003
1.1176713
1.126447
1.1352126
1.1436738
1.1522671
1.1602404
1.16866
1.1757299
1.1840497
1.1894048
1.1981201
1.2000695
1.2109444
0.919149
0.91918481
0.91922792
0.9192748
0.91932754
0.91938734
0.91945504
0.91953178
0.9196189
0.91971644
0.91982233
0.91994443
0.92009612
0.92027212
0.92046568
0.92068481
0.92093776
0.92123008
0.92156799
0.92195847
0.9224095
0.92293099
0.92353582
0.92423997
0.92506383
0.92603459
0.92718919
0.92857854
0.93027246
0.93236412
0.93497204
0.93823416
0.94229464
0.94727217
0.95323062
0.96018419
0.96804899
0.97661487
0.98586951
0.99595413
1.0064151
1.0170753
1.0279543
1.0389414
1.0499178
1.0607927
1.0714908
1.0819474
1.0921318
1.1020099
1.1116051
1.120884
1.129935
1.1386609
1.1472648
1.1554599
1.1637137
1.1712809
1.1792719
1.1858968
1.193795
1.1987681
1.2071314
1.2088695
1.2194543
0.90535516
0.90540541
0.90546496
0.90552683
0.90559236
0.90566897
0.90576379
0.90587126
0.90598558
0.90611195
0.90625603
0.90642012
0.90660659
0.90681811
0.90705784
0.90733177
0.90765049
0.90801879
0.90843527
0.90890926
0.9094562
0.91009008
0.91082872
0.91169601
0.91272417
0.91395697
0.91545398
0.91729488
0.91958289
0.92244464
0.92602358
0.9304627
0.93588285
0.94234218
0.94985939
0.95836247
0.96758312
0.97756937
0.98841629
0.99969462
1.0112378
1.0230496
1.0350108
1.0469898
1.0588827
1.0705883
1.0820221
1.0931111
1.1038164
1.1140964
1.1239702
1.1334021
1.1424842
1.1511242
1.159541
1.1674566
1.1753659
1.1825352
1.1901033
1.1963028
1.2037807
1.2084016
1.2163891
1.2178006
1.2281229
0.88943749
0.88950723
0.88957689
0.88964514
0.88972597
0.88982085
0.88993029
0.89005627
0.8902015
0.8903692
0.89056127
0.89077763
0.89101794
0.89128308
0.89157779
0.89191022
0.8922878
0.8927175
0.89320824
0.89377165
0.89442241
0.89517986
0.89606991
0.89712773
0.89840143
0.89995639
0.90188
0.90428543
0.90731177
0.91111788
0.9158661
0.92169387
0.92868584
0.93685299
0.94613335
0.95626166
0.96727743
0.97913168
0.99144202
1.004014
1.0168718
1.0298887
1.0429393
1.0559131
1.0686984
1.0811901
1.0933002
1.1049518
1.1161031
1.1267098
1.136791
1.1463113
1.1553691
1.1638798
1.172076
1.1796924
1.1872432
1.1940132
1.2011599
1.2069563
1.2140198
1.2183924
1.2260109
1.2276983
1.2383332
0.87122368
0.87130266
0.87139728
0.87149927
0.8716119
0.87173735
0.87187714
0.87203298
0.87220676
0.87240075
0.87261751
0.87286004
0.87313191
0.87343731
0.87378145
0.87417064
0.8746127
0.87511766
0.87569826
0.87637147
0.87715978
0.87809351
0.87921366
0.88057566
0.88225348
0.88434406
0.88697027
0.89028056
0.89444231
0.89962605
0.90597954
0.91359633
0.92249225
0.93259568
0.94372826
0.95583118
0.9688192
0.98225999
0.99596147
1.0099743
1.0241554
1.0383785
1.0525296
1.0664877
1.0801362
1.0933676
1.1060923
1.1182334
1.1297493
1.1405984
1.1507999
1.1603268
1.1692827
1.177596
1.1855106
1.1927787
1.1999281
1.2062696
1.2129631
1.2183433
1.2249495
1.2290962
1.2361064
1.2385934
1.2464796
0.85246649
0.85255943
0.85267299
0.85279039
0.85291977
0.85306388
0.85322399
0.85340191
0.85359978
0.85382015
0.85406603
0.85434093
0.85464925
0.85499631
0.85538894
0.85583584
0.85634832
0.85694131
0.85763471
0.8584552
0.85943873
0.8606336
0.86210421
0.86393517
0.86623505
0.86913845
0.87280444
0.87740833
0.88312516
0.89010451
0.89844105
0.90814672
0.91914499
0.93134121
0.94453995
0.95852446
0.97297261
0.9877774
1.0029569
1.0183382
1.0337837
1.0491653
1.0643509
1.079211
1.0936251
1.1074843
1.1207007
1.133201
1.1449476
1.1559052
1.1660983
1.1755113
1.1842538
1.1922747
1.19982
1.2066762
1.2133589
1.2192384
1.2254301
1.2303871
1.2365098
1.2403844
1.2469405
1.2493872
1.2567544
0.83544259
0.8355454
0.83567082
0.83580017
0.8359423
0.83610022
0.83627526
0.83646933
0.83668484
0.83692468
0.8371924
0.83749234
0.83783005
0.83821267
0.83864955
0.83915297
0.83973943
0.84043094
0.84125716
0.84225791
0.84348641
0.8450129
0.84692878
0.84934996
0.85241893
0.85630275
0.86118535
0.86725178
0.87466384
0.88353113
0.89388028
0.90564468