/*--------------------------------*- C++ -*----------------------------------*\
  =========                 |
  \\      /  F ield         | OpenFOAM: The Open Source CFD Toolbox
   \\    /   O peration     | Website:  https://openfoam.org
    \\  /    A nd           | Version:  13
     \\/     M anipulation  |
\*---------------------------------------------------------------------------*/
FoamFile
{
    format      ascii;
    class       volScalarField;
    location    "1.899221";
    object      pMean;
}
// * * * * * * * * * * * * * * * * * * * * * * * * * * * * * * * * * * * * * //

dimensions      [0 2 -2 0 0 0 0];

internalField   nonuniform List<scalar> 
17140
(
25.591135
25.591061
25.590971
25.590882
25.590786
25.590682
25.590571
25.590452
25.590325
25.590191
25.590048
25.589898
25.58974
25.589577
25.589407
25.589232
25.58905
25.58886
25.58866
25.588442
25.588199
25.587916
25.587576
25.587155
25.586626
25.585961
25.58513
25.584103
25.582852
25.581359
25.57962
25.577647
25.575484
25.573208
25.570949
25.568891
25.567293
25.566494
25.566921
25.569071
25.573493
25.580762
25.591002
25.604148
25.619469
25.634847
25.647345
25.653238
25.649284
25.633587
25.606093
25.567927
25.520672
25.465496
25.403069
25.333401
25.256254
25.170866
25.076611
24.972151
24.85669
24.728305
24.585949
24.427526
24.250574
25.589175
25.589102
25.589014
25.588926
25.588831
25.588729
25.588619
25.588502
25.588377
25.588244
25.588103
25.587955
25.587801
25.58764
25.587473
25.587301
25.587124
25.58694
25.586745
25.586535
25.5863
25.586026
25.585697
25.585288
25.584771
25.584119
25.5833
25.582284
25.581043
25.579557
25.577821
25.575848
25.573678
25.571391
25.569113
25.567028
25.565396
25.564555
25.564934
25.567032
25.571406
25.578624
25.588907
25.602158
25.617605
25.633214
25.645992
25.652176
25.648473
25.632972
25.605622
25.56758
25.520447
25.465399
25.4031
25.333558
25.256532
25.171255
25.077108
24.972744
24.857384
24.729087
24.586842
24.428516
24.251728
25.584463
25.584392
25.584308
25.584222
25.584131
25.584032
25.583926
25.583812
25.583691
25.583563
25.583427
25.583285
25.583136
25.582982
25.582823
25.58266
25.582493
25.582321
25.58214
25.581946
25.581729
25.581478
25.581172
25.58079
25.580302
25.579677
25.578887
25.577897
25.576679
25.57521
25.573484
25.57151
25.569329
25.567016
25.564695
25.562551
25.560839
25.559902
25.56017
25.562156
25.566434
25.573567
25.583881
25.597336
25.613136
25.629294
25.642753
25.64964
25.64654
25.631513
25.604513
25.566772
25.519936
25.465192
25.403202
25.333958
25.257221
25.172211
25.078322
24.974192
24.859073
24.73099
24.589006
24.430877
24.254392
25.57699
25.576923
25.576844
25.576763
25.576676
25.576583
25.576482
25.576375
25.57626
25.576139
25.57601
25.575876
25.575736
25.575592
25.575445
25.575295
25.575143
25.574989
25.574829
25.574659
25.57447
25.57425
25.57398
25.573637
25.573191
25.57261
25.571862
25.570912
25.569729
25.568287
25.566577
25.564605
25.562406
25.560053
25.557667
25.555427
25.553589
25.552494
25.552579
25.554372
25.558477
25.565499
25.575855
25.589587
25.605947
25.622977
25.637529
25.645551
25.643433
25.629185
25.60276
25.565516
25.519164
25.464912
25.403412
25.334641
25.258357
25.17377
25.08029
24.976531
24.861799
24.734061
24.592499
24.434722
24.258792
25.566824
25.566763
25.56669
25.566615
25.566535
25.566449
25.566355
25.566256
25.56615
25.566037
25.565919
25.565795
25.565668
25.565537
25.565404
25.565271
25.565139
25.565006
25.564873
25.564733
25.56458
25.5644
25.564176
25.563884
25.563492
25.562968
25.562275
25.561378
25.560242
25.558836
25.557147
25.555176
25.552953
25.550544
25.548064
25.545688
25.543668
25.542344
25.542159
25.543662
25.547498
25.554335
25.564709
25.578782
25.595893
25.614116
25.630188
25.639806
25.639082
25.625952
25.600358
25.563836
25.518175
25.464613
25.403788
25.335663
25.259999
25.175987
25.083066
24.979819
24.865624
24.738366
24.59739
24.440075
24.26485
25.554147
25.554092
25.554028
25.553961
25.553888
25.55381
25.553726
25.553636
25.55354
25.553439
25.553333
25.553222
25.553108
25.552993
25.552878
25.552765
25.552655
25.552548
25.552444
25.55234
25.552227
25.552094
25.551922
25.551688
25.55136
25.550901
25.550274
25.549439
25.548355
25.546991
25.545323
25.543347
25.541085
25.538597
25.535986
25.533423
25.531151
25.529508
25.528944
25.530032
25.533466
25.540006
25.550332
25.564771
25.582796
25.602524
25.620561
25.632277
25.633401
25.62177
25.597299
25.561755
25.517014
25.46435
25.404391
25.337084
25.262198
25.178912
25.0867
24.984108
24.870604
24.743969
24.603755
24.447064
24.272814
25.539245
25.539198
25.539142
25.539084
25.539021
25.538953
25.53888
25.538801
25.538718
25.538629
25.538537
25.538441
25.538344
25.538246
25.53815
25.538059
25.537973
25.537895
25.537823
25.537755
25.537685
25.537602
25.537486
25.537314
25.537053
25.536664
25.536105
25.535333
25.534304
25.532977
25.531322
25.529327
25.527004
25.5244
25.521612
25.518794
25.516183
25.51411
25.513032
25.513546
25.516409
25.522492
25.532657
25.547444
25.566513
25.588051
25.608516
25.622872
25.626336
25.616621
25.593602
25.559317
25.515743
25.464194
25.405292
25.338971
25.265022
25.182609
25.091256
24.98946
24.876806
24.750936
24.611661
24.45572
24.282624
25.522526
25.522487
25.522442
25.522394
25.522342
25.522285
25.522224
25.522159
25.522089
25.522015
25.521938
25.521859
25.52178
25.521701
25.521626
25.521558
25.521497
25.521447
25.521407
25.521376
25.521348
25.521312
25.521251
25.521138
25.520941
25.520618
25.520124
25.519409
25.518424
25.517121
25.515461
25.513422
25.511003
25.508239
25.50521
25.502059
25.499007
25.496377
25.494626
25.494383
25.496472
25.501907
25.511759
25.526844
25.547058
25.57069
25.594041
25.611599
25.617909
25.610544
25.589324
25.556593
25.514439
25.464222
25.406563
25.341394
25.268536
25.18714
25.096793
24.995938
24.884293
24.759337
24.621193
24.466171
24.294508
25.504501
25.504472
25.504438
25.504401
25.504361
25.504318
25.504271
25.50422
25.504165
25.504108
25.504048
25.503988
25.503927
25.503869
25.503816
25.503771
25.503735
25.503712
25.503703
25.503706
25.503715
25.503721
25.503707
25.503645
25.503503
25.503235
25.502791
25.502117
25.501158
25.499856
25.498163
25.496043
25.493485
25.490505
25.487169
25.483598
25.479996
25.476675
25.474092
25.472906
25.474024
25.478618
25.488015
25.503351
25.524796
25.550758
25.577402
25.598659
25.608304
25.603671
25.584582
25.553691
25.513202
25.464524
25.408288
25.344429
25.27281
25.192573
25.103381
25.003609
24.893136
24.769245
24.632418
24.478457
24.308433
25.485773
25.485754
25.485732
25.485708
25.485681
25.485652
25.485619
25.485584
25.485547
25.485507
25.485466
25.485425
25.485385
25.485348
25.485318
25.485295
25.485284
25.485286
25.485303
25.485335
25.485375
25.485415
25.485436
25.485413
25.485309
25.485078
25.484665
25.484009
25.483047
25.481716
25.479956
25.477716
25.474971
25.471721
25.46801
25.463941
25.459696
25.455571
25.452028
25.449758
25.449767
25.453407
25.462289
25.477896
25.500653
25.529094
25.559235
25.584483
25.597852
25.596247
25.579554
25.550756
25.512152
25.4652
25.410552
25.348152
25.277919
25.198979
25.111088
25.012542
24.903407
24.780735
24.645428
24.492704
24.324609
25.467006
25.466998
25.466989
25.466978
25.466965
25.46695
25.466934
25.466915
25.466895
25.466874
25.466853
25.466832
25.466814
25.466799
25.46679
25.466791
25.466802
25.466827
25.466867
25.466921
25.466985
25.467047
25.467092
25.46709
25.467006
25.466791
25.466385
25.465721
25.464728
25.463335
25.461472
25.459076
25.456102
25.452539
25.448407
25.443789
25.438846
25.433865
25.429313
25.42593
25.424831
25.427568
25.436033
25.452032
25.476186
25.507091
25.540617
25.569788
25.586884
25.588612
25.574481
25.547962
25.511426
25.466359
25.413446
25.352646
25.283937
25.20643
25.119986
25.02281
24.915179
24.793882
24.660292
24.50896
24.343024
25.448879
25.448882
25.448885
25.448887
25.448888
25.448889
25.448888
25.448887
25.448885
25.448883
25.448882
25.448882
25.448886
25.448893
25.448907
25.448929
25.448962
25.449008
25.449067
25.449139
25.449218
25.449294
25.44935
25.449356
25.449275
25.449054
25.448632
25.447936
25.446888
25.445407
25.443414
25.44084
25.437623
25.433731
25.429169
25.424003
25.41838
25.412583
25.407102
25.402736
25.400722
25.402807
25.411133
25.427744
25.453338
25.486418
25.522868
25.5556
25.576524
25.581224
25.569664
25.545513
25.511172
25.468118
25.417069
25.357996
25.290943
25.215002
25.130151
25.034487
24.928531
24.808766
24.677106
24.527341
24.363883
25.432058
25.432071
25.432086
25.4321
25.432115
25.43213
25.432144
25.43216
25.432176
25.432193
25.432212
25.432233
25.432257
25.432287
25.432323
25.432367
25.432421
25.432486
25.432563
25.432649
25.43274
25.432824
25.432882
25.432887
25.432798
25.432562
25.432112
25.431368
25.430247
25.428676
25.426558
25.423805
25.420351
25.416155
25.411208
25.405564
25.399368
25.392914
25.386726
25.381678
25.379126
25.38098
25.38955
25.406948
25.433829
25.468603
25.507478
25.543646
25.567629
25.574431
25.565405
25.543625
25.51155
25.470599
25.421521
25.364291
25.29902
25.224774
25.141658
25.04765
24.943539
24.825468
24.695944
24.547912
24.387196
25.417118
25.41714
25.417165
25.417191
25.417217
25.417245
25.417274
25.417305
25.417337
25.417372
25.41741
25.41745
25.417496
25.417546
25.417604
25.417669
25.417744
25.417828
25.417922
25.418023
25.418124
25.418216
25.418277
25.418279
25.41818
25.417925
25.417444
25.416661
25.415495
25.413836
25.411597
25.408707
25.405079
25.400661
25.39544
25.38947
25.382905
25.376064
25.369518
25.364219
25.361617
25.363711
25.372881
25.391133
25.419014
25.455109
25.496182
25.533997
25.559916
25.56867
25.561989
25.542514
25.51272
25.473931
25.426909
25.371622
25.308251
25.235824
25.154587
25.062376
24.960285
24.844069
24.716912
24.570779
24.413143
25.404489
25.404519
25.404552
25.404587
25.404623
25.404662
25.404702
25.404746
25.404793
25.404843
25.404897
25.404956
25.40502
25.40509
25.405168
25.405254
25.40535
25.405455
25.405568
25.405687
25.405806
25.405912
25.405988
25.406004
25.40592
25.405679
25.405212
25.40445
25.403292
25.401622
25.399343
25.39636
25.392616
25.38808
25.38274
25.376655
25.369998
25.36312
25.35664
25.351572
25.349422
25.352216
25.362242
25.3813
25.409958
25.447231
25.488706
25.52699
25.554176
25.564443
25.559696
25.542396
25.514848
25.478244
25.433341
25.380086
25.318724
25.248234
25.169017
25.078746
24.978851
24.864643
24.740091
24.596017
24.441744
25.394465
25.394499
25.394539
25.39458
25.394623
25.394669
25.394719
25.394773
25.39483
25.394892
25.39496
25.395033
25.395113
25.3952
25.395296
25.395402
25.395517
25.395643
25.395779
25.395921
25.396063
25.396196
25.396302
25.396351
25.396305
25.396109
25.395697
25.394981
25.393847
25.392198
25.389945
25.387023
25.383383
25.378959
25.373743
25.367825
25.361409
25.354885
25.348919
25.344557
25.343324
25.347154
25.358112
25.377951
25.407278
25.444346
25.485349
25.523813
25.550824
25.561966
25.558753
25.54346
25.518087
25.483667
25.440931
25.38978
25.330527
25.262087
25.18503
25.096838
24.999324
24.887278
24.765572
24.623741
24.473157
25.387009
25.387046
25.387089
25.387133
25.387181
25.387232
25.387287
25.387347
25.387412
25.387482
25.387559
25.387643
25.387734
25.387835
25.387946
25.388067
25.388201
25.388346
25.388504
25.388671
25.388842
25.389008
25.389155
25.389257
25.389278
25.389167
25.388851
25.388242
25.387262
25.385816
25.383813
25.381174
25.377822
25.37371
25.368874
25.363426
25.357599
25.351818
25.346777
25.343531
25.34353
25.348528
25.36052
25.381019
25.410048
25.446365
25.486797
25.523844
25.549985
25.561352
25.55935
25.545877
25.522587
25.49033
25.449787
25.400802
25.34375
25.277467
25.202708
25.116734
25.021781
24.912062
24.793434
24.654031
24.507427
25.382061
25.382098
25.382142
25.382187
25.382235
25.382288
25.382345
25.382407
25.382475
25.382549
25.382631
25.38272
25.382819
25.382928
25.383049
25.383183
25.383332
25.383496
25.383676
25.383873
25.384083
25.384299
25.384511
25.3847
25.384839
25.384878
25.38476
25.384413
25.383745
25.382657
25.381053
25.378844
25.37597
25.372422
25.368248
25.363579
25.358675
25.353983
25.350201
25.348333
25.349691
25.35598
25.368878
25.389391
25.417849
25.453471
25.492097
25.527097
25.551559
25.562702
25.561632
25.549793
25.528485
25.498354
25.46002
25.413249
25.358482
25.29446
25.222131
25.138514
25.046303
24.93908
24.82377
24.68698
24.544705
25.379234
25.379269
25.379311
25.379354
25.3794
25.379451
25.379507
25.379568
25.379635
25.379709
25.379791
25.379882
25.379983
25.380095
25.38022
25.380361
25.380519
25.380696
25.380895
25.381118
25.381364
25.381634
25.381919
25.38221
25.382487
25.382722
25.382868
25.382853
25.382603
25.382025
25.381021
25.379505
25.377422
25.374762
25.371577
25.368015
25.36435
25.361033
25.358727
25.35834
25.361162
25.368608
25.381962
25.402338
25.430263
25.464509
25.500848
25.532912
25.555406
25.566059
25.565699
25.555333
25.535904
25.507853
25.471733
25.427218
25.374812
25.313148
25.243383
25.162259
25.07297
24.968408
24.856665
24.72266
24.585058
25.378167
25.378199
25.378237
25.378276
25.378319
25.378366
25.378418
25.378475
25.378538
25.378608
25.378687
25.378774
25.378872
25.378982
25.379107
25.379248
25.379409
25.379593
25.379804
25.380046
25.380323
25.380638
25.380994
25.381388
25.381812
25.38225
25.382676
25.383047
25.383302
25.383362
25.383143
25.382561
25.38155
25.380088
25.378219
25.376081
25.373938
25.372205
25.371482
25.372683
25.376849
25.385112
25.3988
25.418984
25.446101
25.4787
25.512065
25.541055
25.561293
25.571404
25.571627
25.562593
25.54495
25.518933
25.485026
25.4428
25.392827
25.333615
25.266542
25.188047
25.10186
25.000128
24.892206
24.761172
24.628617
25.378439
25.378467
25.3785
25.378534
25.378571
25.378613
25.378659
25.37871
25.378767
25.378831
25.378903
25.378983
25.379075
25.379179
25.379298
25.379434
25.379593
25.379777
25.379992
25.380245
25.380542
25.380893
25.381307
25.38179
25.382349
25.382985
25.383693
25.384454
25.385236
25.385991
25.386653
25.387149
25.387412
25.3874
25.387127
25.38669
25.386298
25.386309
25.387333
25.39004
25.395299
25.404286
25.418214
25.438135
25.464499
25.494933
25.52511
25.550841
25.569257
25.578709
25.579452
25.57165
25.555713
25.531687
25.49999
25.460084
25.412612
25.355941
25.291686
25.215952
25.133052
25.034317
24.93047
24.802595
24.67545
25.379693
25.379716
25.379743
25.379772
25.379803
25.379839
25.379878
25.379922
25.379971
25.380026
25.380089
25.380161
25.380243
25.380337
25.380446
25.380573
25.380723
25.3809
25.381111
25.381365
25.381673
25.382047
25.382502
25.383054
25.383721
25.384521
25.38547
25.386578
25.387844
25.389255
25.390777
25.392362
25.393951
25.395491
25.396955
25.398381
25.399912
25.401865
25.404584
25.408656
25.415015
25.424677
25.438918
25.458905
25.484445
25.512462
25.539545
25.562194
25.579047
25.587983
25.589202
25.582562
25.568269
25.546197
25.516709
25.479152
25.434247
25.380203
25.31889
25.246047
25.166619
25.071048
24.971538
24.84702
24.725665
25.381619
25.381636
25.381658
25.38168
25.381705
25.381734
25.381767
25.381803
25.381845
25.381892
25.381945
25.382007
25.382079
25.382163
25.382261
25.382377
25.382515
25.382683
25.382886
25.383135
25.383443
25.383826
25.384305
25.384902
25.385646
25.386569
25.387705
25.389087
25.390746
25.3927
25.394957
25.397501
25.400295
25.403289
25.406435
25.40972
25.413187
25.416941
25.421292
25.426851
25.434363
25.444998
25.460173
25.480551
25.504878
25.530576
25.554797
25.575276
25.590553
25.599163
25.60088
25.595365
25.582678
25.562535
25.53526
25.500083
25.457809
25.406476
25.348223
25.278401
25.202629
25.110392
25.015487
24.894512
24.779282
25.383935
25.383948
25.383964
25.383982
25.384002
25.384024
25.38405
25.384079
25.384112
25.384151
25.384195
25.384247
25.384307
25.384377
25.38446
25.384561
25.384686
25.384842
25.385037
25.385283
25.385591
25.38598
25.38647
25.387095
25.387889
25.388895
25.390163
25.391743
25.393688
25.396049
25.39886
25.402142
25.405894
25.410071
25.414615
25.41946
25.424588
25.430061
25.4361
25.443253
25.45247
25.464843
25.481424
25.502045
25.525306
25.54904
25.570678
25.589595
25.603779
25.61222
25.614483
25.610089
25.598989
25.580763
25.555713
25.522946
25.483367
25.434827
25.379751
25.313079
25.241147
25.152417
25.06238
24.945126
24.836384
25.386281
25.38629
25.386302
25.386314
25.386329
25.386345
25.386365
25.386387
25.386412
25.386443
25.386479
25.386522
25.386573
25.386636
25.386713
25.386807
25.386923
25.387069
25.387251
25.387484
25.387783
25.388167
25.38866
25.389297
25.390123
25.391189
25.392547
25.394258
25.396391
25.39902
25.402209
25.405997
25.410396
25.415405
25.420984
25.427067
25.433599
25.440646
25.44857
25.457956
25.469466
25.484068
25.502052
25.522971
25.545111
25.567259
25.587531
25.605123
25.618628
25.627101
25.629999
25.626753
25.617243
25.600936
25.578127
25.547807
25.510986
25.465319
25.413535
25.350144
25.282232
25.197184
25.112271
24.998908
24.897092
25.388265
25.388272
25.38828
25.388289
25.3883
25.388313
25.388328
25.388346
25.388367
25.388392
25.388422
25.388459
25.388503
25.388558
25.388626
25.388711
25.388818
25.388955
25.38913
25.389356
25.389649
25.390032
25.390532
25.391183
25.39203
25.393124
25.394526
25.396308
25.398556
25.401348
25.404746
25.408818
25.413625
25.419182
25.425482
25.432533
25.440434
25.449358
25.459595
25.471545
25.48573
25.502651
25.52192
25.542896
25.564672
25.585521
25.604996
25.621848
25.635069
25.64378
25.647422
25.645371
25.637474
25.623101
25.60256
25.574724
25.540723
25.49801
25.449631
25.389655
25.325934
25.244754
25.165202
25.055941
24.9615
25.389422
25.389429
25.389436
25.389445
25.389455
25.389467
25.389481
25.389498
25.389517
25.389541
25.38957
25.389605
25.389647
25.3897
25.389765
25.389848
25.389952
25.390085
25.390257
25.39048
25.39077
25.391151
25.39165
25.392303
25.393155
25.394261
25.395686
25.397503
25.39979
25.402642
25.406164
25.410438
25.415533
25.421542
25.428584
25.436786
25.446284
25.457286
25.470042
25.484727
25.501657
25.520531
25.541135
25.562359
25.583722
25.604296
25.623289
25.639833
25.653091
25.662243
25.666751
25.665961
25.659714
25.6473
25.629061
25.60375
25.572634
25.532954
25.488089
25.431667
25.372296
25.295163
25.221194
25.116203
25.029652
25.389599
25.389607
25.389617
25.389628
25.38964
25.389655
25.389672
25.389691
25.389714
25.389741
25.389773
25.389812
25.389858
25.389915
25.389984
25.390071
25.390179
25.390316
25.390491
25.390717
25.39101
25.391392
25.391893
25.392546
25.3934
25.394509
25.395944
25.397801
25.400168
25.403119
25.406772
25.411273
25.416769
25.423424
25.431417
25.440963
25.452287
25.465607
25.480971
25.498345
25.517569
25.538146
25.55964
25.58159
25.602959
25.62353
25.642494
25.659121
25.672704
25.682494
25.687996
25.688542
25.683993
25.673573
25.657675
25.634932
25.606766
25.570199
25.528965
25.476234
25.421339
25.348469
25.280312
25.179913
25.101623
25.388968
25.388979
25.388993
25.389008
25.389025
25.389044
25.389066
25.389091
25.389121
25.389155
25.389194
25.389241
25.389296
25.389363
25.389443
25.38954
25.389661
25.389811
25.390001
25.390242
25.390552
25.390954
25.391476
25.392154
25.393048
25.394231
25.395754
25.397695
25.400175
25.403319
25.407268
25.412195
25.418295
25.425802
25.434992
25.446155
25.459538
25.475207
25.492945
25.512702
25.533739
25.55588
25.578413
25.600786
25.622682
25.643546
25.662798
25.679803
25.693953
25.704557
25.711176
25.713139
25.710342
25.701957
25.688441
25.668313
25.643166
25.609794
25.57229
25.523379
25.473118
25.404713
25.342551
25.247046
25.177296
25.387924
25.387939
25.387957
25.387977
25.387999
25.388024
25.388052
25.388084
25.388121
25.388163
25.388213
25.38827
25.388337
25.388417
25.388512
25.388626
25.388765
25.388938
25.389152
25.389424
25.389768
25.390211
25.390788
25.391539
25.392517
25.39379
25.395439
25.397566
25.400294
25.403768
25.408162
25.413691
25.420617
25.429252
25.439941
25.45297
25.468457
25.486326
25.506317
25.527918
25.550641
25.574023
25.597504
25.620642
25.643146
25.664549
25.684351
25.701976
25.716896
25.728472
25.736321
25.739779
25.738793
25.732483
25.721396
25.703931
25.681873
25.651768
25.618105
25.573173
25.527683
25.463941
25.407925
25.317563
25.256502
25.386671
25.38669
25.386712
25.386736
25.386763
25.386794
25.386828
25.386868
25.386913
25.386965
25.387025
25.387094
25.387175
25.387271
25.387384
25.38752
25.387684
25.387885
25.388134
25.388446
25.388841
25.389348
25.39
25.390844
25.391941
25.393365
25.395212
25.397598
25.400666
25.404593
25.409597
25.415948
25.423989
25.434091
25.446538
25.461551
25.479204
25.499204
25.521156
25.544229
25.568418
25.592906
25.617295
25.641318
25.664617
25.686763
25.707317
25.725754
25.741609
25.754288
25.763469
25.768495
25.769373
25.765182
25.75657
25.741816
25.722919
25.696152
25.666471
25.625562
25.584998
25.526079
25.476496
25.391357
25.33963
25.385297
25.385319
25.385346
25.385375
25.385408
25.385444
25.385486
25.385534
25.385588
25.38565
25.385721
25.385804
25.3859
25.386013
25.386146
25.386305
25.386496
25.386729
25.387016
25.387374
25.387824
25.388399
25.389136
25.39009
25.391329
25.392939
25.395032
25.397747
25.401261
25.405786
25.411601
25.419084
25.428568
25.440336
25.454751
25.471954
25.491692
25.513603
25.537093
25.561821
25.587189
25.612703
25.638157
25.663156
25.687368
25.710404
25.731862
25.751255
25.768175
25.782063
25.792659
25.799316
25.80211
25.800078
25.793987
25.781992
25.766324
25.742961
25.717362
25.680543
25.645141
25.591085
25.548286
25.468314
25.426538
25.383729
25.383756
25.383788
25.383823
25.383862
25.383906
25.383956
25.384012
25.384076
25.38415
25.384234
25.384331
25.384444
25.384576
25.384732
25.384916
25.385137
25.385405
25.385734
25.386142
25.386655
25.387307
25.388144
25.389225
25.390632
25.392469
25.39487
25.398
25.402084
25.407418
25.414362
25.423214
25.434291
25.448064
25.464717
25.484057
25.505789
25.529478
25.554447
25.580551
25.607084
25.633789
25.660336
25.68639
25.711622
25.735661
25.758139
25.778599
25.79668
25.811856
25.823932
25.832271
25.837025
25.837191
25.833664
25.824472
25.812098
25.792205
25.7708
25.738151
25.708165
25.6589
25.623356
25.54853
25.517105
25.381994
25.382026
25.382065
25.382106
25.382153
25.382205
25.382264
25.382331
25.382406
25.382492
25.382591
25.382704
25.382835
25.382987
25.383165
25.383376
25.383628
25.383933
25.384305
25.384767
25.385346
25.386083
25.387031
25.388263
25.38987
25.391984
25.394775
25.398482
25.403381
25.409749
25.417917
25.428378
25.441556
25.457567
25.47641
25.49785
25.521482
25.546736
25.573354
25.600671
25.628462
25.656377
25.684086
25.711265
25.737596
25.762721
25.7863
25.8079
25.827206
25.843727
25.857328
25.867388
25.874135
25.876533
25.875607
25.869258
25.860232
25.843875
25.826753
25.798387
25.773933
25.729716
25.70155
25.632049
25.611183
25.380158
25.380196
25.380243
25.380292
25.380347
25.380409
25.380478
25.380556
25.380644
25.380744
25.380858
25.380988
25.381138
25.381312
25.381515
25.381754
25.382039
25.382383
25.382803
25.383325
25.38398
25.384817
25.385902
25.387321
25.389214
25.391744
25.395085
25.399482
25.405283
25.412914
25.422799
25.435292
25.450645
25.46893
25.489982
25.513446
25.538847
25.565761
25.593778
25.622468
25.65157
25.680736
25.709654
25.73801
25.765494
25.791759
25.816486
25.839268
25.859836
25.877733
25.892886
25.904688
25.913451
25.918105
25.91981
25.916338
25.910711
25.897951
25.885206
25.861171
25.84249
25.80328
25.78285
25.718781
25.708754
25.37846
25.378506
25.378561
25.378619
25.378683
25.378755
25.378835
25.378926
25.379027
25.379141
25.379271
25.379419
25.379589
25.379785
25.380013
25.380282
25.380603
25.38099
25.381466
25.382061
25.382816
25.383795
25.385078
25.386768
25.388995
25.391964
25.395974
25.40135
25.408463
25.417725
25.429539
25.444216
25.461895
25.482485
25.505697
25.531103
25.558226
25.586757
25.616183
25.64627
25.67669
25.707131
25.737289
25.766853
25.795517
25.822946
25.848837
25.872813
25.894653
25.913937
25.930648
25.9442
25.954986
25.961908
25.966261
25.965695
25.963503
25.954396
25.94607
25.926582
25.913581
25.879703
25.866893
25.808632
25.809201
25.377396
25.37745
25.377514
25.377581
25.377655
25.377738
25.37783
25.377932
25.378047
25.378177
25.378324
25.378491
25.378684
25.378906
25.379165
25.379465
25.379822
25.380262
25.380817
25.381509
25.382375
25.383499
25.385004
25.387032
25.389764
25.393447
25.398393
25.404979
25.413629
25.424762
25.438732
25.455737
25.475779
25.498629
25.523902
25.551126
25.579986
25.609984
25.640882
25.672349
25.704096
25.73582
25.767223
25.797996
25.827838
25.856419
25.883463
25.90862
25.931719
25.952378
25.970638
25.985931
25.998731
26.007917
26.014921
26.017278
26.018544
26.013167
26.009354
25.994463
25.987308
25.958917
25.953711
25.901191
25.912816
25.377585
25.377646
25.37772
25.377796
25.377879
25.377972
25.378076
25.378191
25.37832
25.378465
25.378628
25.378815
25.379037
25.379289
25.379567
25.379889
25.380285
25.380785
25.381423
25.382243
25.383303
25.384696
25.386557
25.389063
25.39245
25.397017
25.403131
25.411205
25.421667
25.434903
25.451174
25.470557
25.492923
25.5179
25.545074
25.574088
25.604509
25.636025
25.668331
25.701147
25.734187
25.767158
25.799766
25.831704
25.862674
25.892358
25.920503
25.946798
25.971112
25.993109
26.01288
26.02988
26.044657
26.056087
26.065725
26.071036
26.075785
26.074177
26.074894
26.064784
26.06354
26.040961
26.04297
25.997763
26.017024
25.380317
25.380384
25.380464
25.380548
25.380642
25.380753
25.380878
25.381006
25.381139
25.381288
25.381462
25.381664
25.3819
25.382177
25.382504
25.382896
25.383375
25.383973
25.384733
25.385717
25.387012
25.388739
25.391063
25.394202
25.398437
25.404112
25.411626
25.421406
25.433853
25.449281
25.467834
25.489466
25.513904
25.540741
25.569807
25.600527
25.63248
25.665424
25.699079
25.733171
25.767431
25.80157
25.835298
25.868311
25.900316
25.931012
25.960174
25.98753
26.012992
26.036267
26.057492
26.076158
26.092866
26.106506
26.118742
26.126994
26.135204
26.137429
26.142661
26.137415
26.142017
26.125505
26.134892
26.095894
26.125853
25.386446
25.386519
25.386606
25.386698
25.386799
25.386911
25.387035
25.387172
25.387327
25.3875
25.387697
25.387923
25.388185
25.388493
25.388861
25.38931
25.389867
25.390572
25.391483
25.392678
25.394265
25.396395
25.399267
25.403139
25.408333
25.415231
25.424253
25.435818
25.450282
25.46788
25.488615
25.512373
25.538894
25.567767
25.598469
25.630646
25.663988
25.698221
25.733096
25.768349
25.803717
25.838915
25.873652
25.907627
25.940559
25.972167
26.002258
26.030599
26.057135
26.081614
26.104226
26.124489
26.143062
26.158873
26.173655
26.184848
26.196489
26.202587
26.212349
26.212198
26.22257
26.213157
26.228775
26.201152
26.23572
25.398602
25.398679
25.39877
25.398868
25.398974
25.399092
25.399223
25.399369
25.399533
25.399719
25.399932
25.400178
25.400467
25.400814
25.401235
25.401759
25.402421
25.403275
25.404391
25.405872
25.407853
25.410515
25.414094
25.418888
25.425253
25.433589
25.444316
25.457817
25.474383
25.494126
25.516987
25.542912
25.571243
25.601666
25.633611
25.666995
25.701516
25.736878
25.772832
25.80911
25.845451
25.88157
25.917172
25.951967
25.985683
26.018087
26.049004
26.078255
26.105803
26.131456
26.155403
26.17726
26.197698
26.215721
26.233112
26.247345
26.262555
26.272739
26.28723
26.2925
26.308859
26.307198
26.329258
26.317428
26.349395
25.420418
25.420497
25.420592
25.42069
25.420797
25.420916
25.421049
25.421197
25.421366
25.421559
25.421782
25.422046
25.422362
25.422748
25.423229
25.423839
25.424627
25.425659
25.427026
25.428854
25.431305
25.434596
25.438995
25.444829
25.452474
25.462333
25.474795
25.490185
25.508698
25.530348
25.555198
25.582557
25.612072
25.643533
25.676703
25.71117
25.746664
25.782944
25.819743
25.856817
25.893876
25.930645
25.966839
26.002183
26.036438
26.069399
26.100934
26.1309
26.159288
26.185952
26.211107
26.23445
26.256648
26.276868
26.296774
26.314142
26.332814
26.347348
26.36641
26.377647
26.399766
26.406413
26.435145
26.436534
26.47313
25.45145
25.451527
25.451621
25.451717
25.451823
25.451941
25.452072
25.452222
25.452392
25.45259
25.452823
25.453103
25.453446
25.453874
25.454418
25.455123
25.456047
25.457273
25.45891
25.461107
25.464052
25.467989
25.473212
25.480066
25.48893
25.500191
25.514197
25.5312
25.551304
25.57454
25.60054
25.628836
25.659546
25.692076
25.726069
25.761269
25.797414
25.83427
25.871576
25.909076
25.946497
25.98356
26.019998
26.05556
26.090042
26.123279
26.155169
26.185609
26.214607
26.242078
26.268231
26.292884
26.31666
26.338935
26.361186
26.381593
26.403542
26.422415
26.445795
26.463142
26.490479
26.50582
26.540229
26.554358
26.595856
25.493949
25.494022
25.49411
25.494201
25.494302
25.494415
25.494542
25.494687
25.494855
25.495053
25.495291
25.495583
25.495949
25.496415
25.49702
25.497817
25.498875
25.500292
25.502195
25.50475
25.50817
25.512716
25.518698
25.526468
25.536396
25.548836
25.564084
25.582322
25.603601
25.62779
25.65456
25.683836
25.715082
25.748009
25.782337
25.817805
25.854168
25.891181
25.928582
25.966109
26.003489
26.040454
26.076756
26.112179
26.146557
26.179761
26.211718
26.242361
26.271714
26.299751
26.326682
26.352442
26.377599
26.401751
26.42616
26.449454
26.474487
26.49757
26.525074
26.548395
26.580848
26.604706
26.644922
26.671009
26.71924
25.547776
25.547843
25.547923
25.548007
25.5481
25.548205
25.548324
25.548462
25.548624
25.548819
25.549059
25.549359
25.549745
25.550247
25.55091
25.551795
25.552983
25.554584
25.55674
25.559633
25.563491
25.568588
25.57524
25.583793
25.594594
25.607962
25.624138
25.643245
25.665266
25.690029
25.71731
25.746767
25.778106
25.811031
25.84528
25.880607
25.916772
25.953522
25.990594
26.027723
26.064643
26.101103
26.136883
26.171804
26.205736
26.238587
26.270306
26.300863
26.330301
26.358657
26.386146
26.412808
26.439158
26.464996
26.491392
26.517394
26.545357
26.572482
26.603968
26.633063
26.670545
26.702511
26.748576
26.785717
26.840996
25.613362
25.613422
25.613492
25.613566
25.61365
25.613744
25.613852
25.61398
25.614133
25.614321
25.614558
25.614863
25.615263
25.615793
25.616505
25.617466
25.618767
25.620528
25.622901
25.626081
25.630305
25.63585
25.643029
25.652173
25.663602
25.677594
25.694334
25.713895
25.736213
25.761108
25.788323
25.817575
25.84858
25.881075
25.914815
25.949566
25.985091
26.021138
26.05744
26.093736
26.129774
26.165323