/*--------------------------------*- C++ -*----------------------------------*\
  =========                 |
  \\      /  F ield         | OpenFOAM: The Open Source CFD Toolbox
   \\    /   O peration     | Website:  https://openfoam.org
    \\  /    A nd           | Version:  13
     \\/     M anipulation  |
\*---------------------------------------------------------------------------*/
FoamFile
{
    format      ascii;
    class       volScalarField;
    location    "30.798592";
    object      pMean;
}
// * * * * * * * * * * * * * * * * * * * * * * * * * * * * * * * * * * * * * //

dimensions      [0 2 -2 0 0 0 0];

internalField   nonuniform List<scalar> 
17140
(
1.4043878
1.4042895
1.4041708
1.4040501
1.4039198
1.403778
1.4036247
1.4034597
1.4032826
1.4030931
1.4028913
1.4026767
1.402449
1.4022073
1.40195
1.4016742
1.4013748
1.4010443
1.4006708
1.4002369
1.399718
1.3990798
1.3982748
1.3972385
1.3958955
1.3941832
1.3920626
1.3894897
1.3863863
1.3826506
1.3781713
1.3728239
1.3664715
1.3589669
1.3501547
1.3398765
1.3279801
1.3143318
1.2988364
1.2814645
1.2622842
1.2415011
1.2195127
1.1969446
1.1746892
1.1539003
1.1357436
1.1213965
1.1120313
1.1086058
1.1117619
1.1218819
1.1391153
1.1631153
1.1933375
1.2284388
1.2673432
1.3075774
1.3488844
1.3867721
1.4237947
1.4505789
1.4781328
1.4862537
1.5043208
1.4028083
1.4027119
1.4025956
1.4024772
1.4023494
1.4022104
1.40206
1.401898
1.4017242
1.4015384
1.4013403
1.4011299
1.4009067
1.4006699
1.400418
1.4001481
1.3998555
1.3995325
1.3991676
1.3987436
1.3982361
1.3976109
1.3968212
1.3958027
1.3944797
1.3927881
1.3906892
1.3881395
1.3850605
1.38135
1.3768961
1.371574
1.3652461
1.3577646
1.3489731
1.3387125
1.3268293
1.3131887
1.2976943
1.2803151
1.261118
1.2403077
1.2182804
1.1956648
1.1733658
1.1525111
1.1342844
1.1199076
1.1105209
1.1070614
1.1101919
1.1202958
1.1374975
1.1614651
1.1916512
1.2267015
1.2655566
1.3057532
1.3470172
1.3848286
1.4217039
1.4483039
1.4756732
1.4836507
1.5022447
1.3989225
1.3988308
1.3987205
1.3986078
1.3984861
1.3983537
1.3982103
1.3980559
1.3978902
1.397713
1.3975243
1.3973239
1.3971115
1.3968865
1.3966475
1.396392
1.3961155
1.3958107
1.3954666
1.3950663
1.3945862
1.3939926
1.3932396
1.3922642
1.3909895
1.3893488
1.3873018
1.3848059
1.3817836
1.3781321
1.3737382
1.3684761
1.3622069
1.3547808
1.3460396
1.3358216
1.3239709
1.3103498
1.2948588
1.277464
1.2582297
1.2373596
1.2152511
1.1925441
1.170154
1.1491857
1.1308445
1.1163761
1.1069282
1.1034287
1.1065132
1.1165497
1.1336714
1.157552
1.1876296
1.2225557
1.2612782
1.3013443
1.3424989
1.3802163
1.416988
1.4434615
1.4707748
1.4788878
1.4983198
1.3928051
1.392721
1.3926201
1.3925165
1.3924045
1.3922824
1.3921503
1.3920078
1.391855
1.3916915
1.3915175
1.3913329
1.3911376
1.3909311
1.3907125
1.3904795
1.390228
1.3899516
1.3896395
1.3892761
1.3888383
1.3882937
1.3875975
1.3866886
1.3854897
1.3839295
1.3819638
1.3795508
1.3766162
1.3730569
1.368757
1.3635896
1.3574136
1.3500763
1.3414163
1.3312686
1.3194731
1.3058879
1.2904091
1.272998
1.2537157
1.232765
1.2105458
1.1877145
1.1651955
1.1440744
1.1255915
1.1110073
1.1014784
1.0979242
1.1009537
1.1109052
1.1279049
1.1516338
1.1815255
1.2162119
1.2546652
1.2944688
1.3354145
1.3730031
1.4097078
1.4362598
1.4637869
1.4724189
1.4930042
1.3846552
1.3845814
1.3844933
1.3844019
1.3843028
1.3841949
1.3840779
1.3839517
1.3838162
1.3836712
1.3835171
1.3833537
1.3831813
1.3829997
1.3828081
1.3826048
1.3823864
1.382147
1.381877
1.3815616
1.381179
1.380698
1.3800758
1.3792537
1.378155
1.3767031
1.3748461
1.3725423
1.3697235
1.3662868
1.3621128
1.3570728
1.3510229
1.3438071
1.3352601
1.3252123
1.3134984
1.299971
1.2845204
1.2671022
1.2477732
1.2267358
1.2043956
1.1814294
1.1587597
1.1374766
1.1188506
1.1041506
1.0945541
1.0909604
1.0939452
1.1038115
1.1206791
1.1442286
1.1738813
1.2082556
1.2463761
1.2858606
1.3265496
1.3640138
1.4006934
1.4274641
1.455357
1.4648943
1.4868153
1.3748023
1.3747411
1.3746686
1.3745922
1.3745093
1.3744188
1.3743205
1.3742143
1.3741002
1.3739782
1.3738484
1.3737112
1.3735668
1.3734153
1.3732563
1.3730887
1.3729097
1.3727143
1.3724939
1.3722348
1.3719167
1.3715102
1.3709745
1.370254
1.3692753
1.3679556
1.3662303
1.3640575
1.3613776
1.3580886
1.3540677
1.3491838
1.3432902
1.3362269
1.3278239
1.3179064
1.3063033
1.2928607
1.2774618
1.2600553
1.2406936
1.2195783
1.1971249
1.174031
1.1512126
1.1297861
1.1110346
1.0962392
1.0865985
1.0829977
1.0859711
1.0957826
1.1125371
1.1359042
1.1652884
1.1992982
1.2370135
1.2761321
1.3165562
1.3539346
1.3906501
1.4178323
1.4463713
1.4570758
1.4804271
1.3636921
1.3636453
1.3635899
1.363531
1.3634668
1.3633965
1.3633199
1.3632371
1.3631478
1.3630523
1.3629508
1.3628438
1.3627315
1.3626143
1.3624923
1.3623647
1.3622295
1.3620825
1.3619161
1.3617181
1.3614698
1.3611437
1.3607014
1.3600905
1.3592419
1.3580704
1.356498
1.3544749
1.3519481
1.3488235
1.3449766
1.3402716
1.3345589
1.3276748
1.3194446
1.3096877
1.2982268
1.2849006
1.2695842
1.2522191
1.2328527
1.211687
1.1891508
1.165956
1.1430213
1.1214885
1.1026356
1.087766
1.0781034
1.0745233
1.0775202
1.0873187
1.1040035
1.1272319
1.156391
1.1900724
1.2273849
1.2661516
1.3063554
1.3437496
1.3805896
1.4083747
1.4376447
1.449623
1.4741671
1.3518646
1.3518335
1.3517965
1.3517569
1.3517133
1.3516654
1.3516128
1.3515557
1.351494
1.3514278
1.3513575
1.3512835
1.3512063
1.3511265
1.3510442
1.3509591
1.3508698
1.3507728
1.3506617
1.3505256
1.3503474
1.3501019
1.349753
1.3492518
1.3485336
1.3475171
1.346113
1.3442518
1.3418838
1.338931
1.3352697
1.3307583
1.3252448
1.3185613
1.3105287
1.300961
1.2896743
1.2764995
1.2613036
1.2440202
1.2246918
1.2035227
1.1809566
1.1577079
1.13471
1.1131164
1.0941864
1.079252
1.0695736
1.0660343
1.0690904
1.0789153
1.0955802
1.1187309
1.1477356
1.1811677
1.2181735
1.2566654
1.2967026
1.3341306
1.3712132
1.3997545
1.4298455
1.4432328
1.4687445
1.3399209
1.3399063
1.3398886
1.3398692
1.3398474
1.3398231
1.339796
1.3397661
1.3397336
1.3396985
1.3396611
1.339622
1.3395817
1.3395406
1.3394992
1.3394574
1.339414
1.3393663
1.3393086
1.3392314
1.339119
1.3389485
1.3386864
1.3382871
1.3376902
1.3368196
1.3355856
1.3338994
1.3316938
1.3289063
1.3254303
1.3211182
1.3158124
1.3093434
1.301528
1.2921752
1.2810946
1.2681098
1.2530795
1.2359301
1.2166996
1.1955957
1.1730753
1.1498483
1.1268667
1.1052724
1.0862995
1.0713168
1.0616353
1.0581458
1.0612646
1.0711404
1.0878358
1.1109713
1.1398802
1.1731301
1.2099178
1.2482369
1.2881918
1.3259919
1.3636043
1.3930823
1.4239557
1.4384422
1.46402
1.3284806
1.3284825
1.3284841
1.328485
1.3284853
1.3284848
1.3284834
1.3284812
1.3284783
1.3284748
1.328471
1.3284673
1.3284641
1.328462
1.3284612
1.3284617
1.3284625
1.3284611
1.3284526
1.3284282
1.3283738
1.3282681
1.3280803
1.3277681
1.3272753
1.3265307
1.3254486
1.3239358
1.3219028
1.319273
1.3159621
1.3118424
1.3067484
1.3005023
1.2929181
1.2838017
1.2729581
1.2602049
1.2453941
1.2284463
1.2093967
1.1884565
1.1660884
1.1429994
1.1201488
1.0986454
1.0797072
1.0647401
1.0550881
1.0516453
1.0548344
1.0647947
1.0815479
1.1046844
1.1335259
1.1666752
1.2033879
1.2418014
1.2820629
1.3203066
1.3583135
1.3884897
1.419671
1.4347897
1.4601007
1.3181298
1.3181473
1.3181673
1.3181877
1.318209
1.3182314
1.318255
1.3182796
1.3183055
1.3183328
1.3183616
1.3183924
1.3184254
1.3184609
1.3184991
1.3185398
1.3185817
1.3186225
1.3186575
1.3186784
1.3186721
1.3186187
1.3184897
1.3182456
1.3178343
1.3171893
1.3162296
1.3148631
1.3129945
1.3105321
1.3073802
1.3034248
1.2985219
1.2924963
1.2851536
1.2762958
1.2657247
1.2532541
1.2387323
1.2220766
1.2033218
1.1826829
1.1606114
1.1378211
1.1152677
1.0940127
1.0752647
1.0604312
1.0508644
1.0474976
1.0507368
1.0606915
1.0774356
1.1005423
1.1293364
1.1624675
1.1992026
1.2377844
1.2782897
1.3168761
1.3551457
1.3857221
1.4170326
1.4325327
1.4569269
1.3093673
1.3093987
1.3094352
1.309473
1.3095133
1.3095565
1.3096026
1.3096518
1.3097042
1.3097599
1.3098191
1.309882
1.3099487
1.3100193
1.3100937
1.3101713
1.3102507
1.3103292
1.3104019
1.3104608
1.3104931
1.3104801
1.3103947
1.3101998
1.3098466
1.3092731
1.3084034
1.3071483
1.3054115
1.3030957
1.3000998
1.2963106
1.2915897
1.2857723
1.2786719
1.2700916
1.2598325
1.2477075
1.2335625
1.2173148
1.1989996
1.1788323
1.1572549
1.1349776
1.1129229
1.0921224
1.0737657
1.0592199
1.0498377
1.0464773
1.0495999
1.0593964
1.075983
1.0989495
1.1276244
1.1606821
1.1974366
1.2362163
1.2769919
1.3159454
1.3544028
1.3852135
1.4158558
1.4314932
1.4544912
1.3025515
1.3025941
1.302644
1.3026961
1.3027521
1.3028126
1.3028778
1.3029478
1.3030228
1.3031029
1.3031884
1.3032794
1.3033759
1.3034777
1.3035844
1.3036952
1.3038082
1.3039202
1.3040262
1.304118
1.3041828
1.3042024
1.3041506
1.3039921
1.3036804
1.3031571
1.302351
1.3011793
1.299546
1.2973482
1.2944883
1.2908553
1.2863148
1.2807129
1.2738704
1.2655961
1.2556949
1.2439849
1.2303214
1.2146184
1.1969113
1.1774107
1.1565534
1.1350244
1.113694
1.09356
1.075789
1.0616976
1.0524686
1.0490096
1.0518734
1.0613847
1.0776713
1.1003716
1.1288245
1.1617341
1.1986342
1.2376823
1.278736
1.3176965
1.3558186
1.3859545
1.4158905
1.4310675
1.4525083
1.2978592
1.2979097
1.297969
1.2980313
1.2980986
1.2981718
1.2982511
1.2983367
1.2984289
1.2985279
1.2986341
1.2987475
1.298868
1.2989955
1.2991294
1.2992684
1.2994106
1.2995525
1.2996887
1.2998106
1.2999058
1.2999561
1.2999359
1.2998109
1.299536
1.2990553
1.2983006
1.2971929
1.2956442
1.2935616
1.2908067
1.2873197
1.282967
1.2775916
1.2710294
1.2631033
1.2536316
1.2424383
1.2293704
1.2143598
1.1974431
1.1788187
1.1589029
1.1383372
1.1179447
1.0986725
1.0816484
1.0680043
1.0588918
1.0552753
1.0577864
1.06687
1.0827437
1.1050803
1.1331834
1.1660068
1.2028678
1.2421279
1.2829705
1.321576
1.3586281
1.3880731
1.416388
1.4309171
1.4510355
1.2952538
1.2953083
1.2953725
1.2954403
1.2955139
1.2955942
1.2956816
1.2957766
1.2958794
1.2959905
1.2961101
1.2962386
1.296376
1.296522
1.2966762
1.2968374
1.2970035
1.297171
1.2973346
1.2974859
1.2976127
1.2976973
1.2977149
1.2976321
1.2974051
1.296979
1.2962879
1.2952558
1.2937963
1.2918198
1.289262
1.2859331
1.2817155
1.2765951
1.2703579
1.2628377
1.2538595
1.243262
1.2309157
1.2167593
1.2008152
1.1832688
1.1644975
1.1450835
1.1257929
1.1075255
1.0912365
1.0780102
1.0689943
1.0651273
1.0672103
1.0758034
1.0911936
1.1130257
1.1407277
1.1732796
1.2101913
1.2492237
1.2895106
1.3270129
1.3627814
1.3905499
1.4173556
1.431016
1.4498857
1.2945186
1.2945731
1.294638
1.2947062
1.2947806
1.2948622
1.2949515
1.2950489
1.295155
1.2952704
1.2953955
1.2955306
1.2956762
1.2958321
1.2959981
1.2961734
1.2963561
1.2965434
1.2967304
1.2969095
1.2970695
1.2971941
1.29726
1.2972354
1.2970784
1.2967355
1.2961419
1.2952219
1.2938905
1.2920586
1.2896377
1.28649
1.2825935
1.277745
1.2718306
1.2647721
1.2563795
1.2465049
1.2350329
1.2218844
1.2070859
1.1907941
1.1733305
1.1552139
1.1371331
1.1198541
1.104265
1.0914301
1.0824129
1.0782771
1.0799132
1.0880006
1.102833
1.1240459
1.1512604
1.1836433
1.2202057
1.2585248
1.2977073
1.3336553
1.3673499
1.3934659
1.4185175
1.4313951
1.4492015
1.2952594
1.2953105
1.2953719
1.2954361
1.2955063
1.2955838
1.2956689
1.2957624
1.2958647
1.2959767
1.2960989
1.296232
1.2963765
1.2965328
1.2967009
1.2968804
1.2970704
1.2972687
1.2974716
1.297673
1.2978635
1.2980292
1.2981497
1.2981966
1.2981312
1.2979028
1.2974476
1.2966899
1.2955452
1.2939229
1.2917257
1.2888884
1.2852858
1.2808059
1.2754099
1.268882
1.2611584
1.2521227
1.2416466
1.2296534
1.216151
1.2012513
1.1852195
1.1684855
1.1516048
1.1352782
1.1203519
1.1077913
1.0987507
1.094333
1.095548
1.1031318
1.1172537
1.13787
1.1646767
1.1966173
1.2322975
1.2697115
1.306997
1.3408298
1.3723216
1.3964648
1.4200005
1.4321273
1.4489948
1.2970317
1.2970766
1.297131
1.2971875
1.2972496
1.2973185
1.2973946
1.2974786
1.2975711
1.297673
1.297785
1.297908
1.2980427
1.2981899
1.29835
1.2985233
1.2987097
1.298908
1.2991162
1.2993302
1.2995433
1.299745
1.2999193
1.3000432
1.3000843
1.2999978
1.2997264
1.2991983
1.2983287
1.2970252
1.2951874
1.2927277
1.2895539
1.2855923
1.2807142
1.2748905
1.2680334
1.2599378
1.250573
1.2398604
1.2277723
1.2143726
1.1998424
1.1844908
1.1687869
1.1533659
1.1389847
1.1266517
1.1175602
1.1128957
1.1137095
1.1206363
1.1341593
1.1542458
1.1804887
1.2115212
1.2463759
1.2818249
1.3168382
1.3482493
1.3772576
1.3997786
1.4218656
1.4332572
1.449304
1.2993629
1.2993999
1.2994449
1.2994916
1.2995432
1.2996006
1.2996644
1.2997352
1.2998137
1.2999007
1.2999971
1.3001038
1.3002218
1.300352
1.3004954
1.3006527
1.3008246
1.3010111
1.3012116
1.3014242
1.3016452
1.3018681
1.3020821
1.3022711
1.3024109
1.3024674
1.3023932
1.3021263
1.3015896
1.3006928
1.2993357
1.2974195
1.2948446
1.2915406
1.2874269
1.2824389
1.2764785
1.2695244
1.2614657
1.2521649
1.241602
1.2297734
1.2167626
1.2027834
1.1882105
1.1735855
1.1596752
1.1475072
1.1383666
1.133421
1.13373
1.140085
1.1530659
1.1725385
1.1980065
1.2283038
1.2613661
1.2944107
1.3268599
1.3554728
1.3824911
1.4033847
1.4241478
1.4348174
1.4501346
1.3018708
1.3018993
1.3019338
1.30197
1.3020102
1.3020552
1.3021053
1.3021613
1.3022238
1.3022936
1.3023714
1.3024584
1.3025554
1.3026635
1.302784
1.302918
1.3030666
1.3032308
1.3034111
1.3036075
1.3038189
1.3040423
1.3042725
1.3044999
1.3047096
1.3048792
1.304976
1.3049546
1.3047544
1.3042994
1.3034994
1.3022557
1.3004672
1.2980425
1.2948995
1.2909737
1.2862152
1.2805754
1.2739178
1.2661586
1.2572107
1.2469927
1.235509
1.2228579
1.2093157
1.195392
1.181854
1.1698339
1.1605307
1.1552334
1.1550423
1.1609539
1.1734226
1.1922794
1.2172105
1.2460577
1.2765716
1.3070508
1.3364886
1.3629174
1.3879341
1.407343
1.426868
1.4368292
1.4515021
1.3042672
1.3042878
1.3043126
1.3043389
1.3043683
1.3044013
1.3044384
1.3044799
1.3045267
1.3045792
1.3046382
1.3047047
1.3047796
1.3048639
1.304959
1.305066
1.3051863
1.3053215
1.3054728
1.3056414
1.3058281
1.3060325
1.3062535
1.3064873
1.3067274
1.3069624
1.3071742
1.3073367
1.3074127
1.3073514
1.3070875
1.3065418
1.3056248
1.3042437
1.3023095
1.2997361
1.2964331
1.2923215
1.2873016
1.2812567
1.2740274
1.265471
1.2554895
1.2440792
1.2314569
1.218102
1.2048653
1.1928283
1.1832996
1.1776528
1.1771459
1.1827449
1.1947981
1.2134126
1.2373066
1.2636552
1.2917763
1.31921
1.346228
1.3704332
1.3936632
1.411667
1.4300444
1.4393025
1.4534026
1.3064084
1.3064223
1.3064389
1.306457
1.3064771
1.3064998
1.3065255
1.3065545
1.3065872
1.3066243
1.3066663
1.306714
1.3067684
1.3068303
1.3069007
1.3069807
1.3070718
1.3071754
1.307293
1.3074263
1.307577
1.307747
1.3079375
1.3081487
1.3083797
1.308628
1.3088881
1.3091509
1.3094017
1.3096187
1.3097706
1.3098141
1.3096942
1.3093407
1.3086703
1.3075858
1.3059747
1.3037043
1.3006126
1.2965103
1.2911658
1.2843403
1.2758327
1.2655776
1.2537379
1.2408308
1.2276895
1.2155479
1.2057708
1.1999593
1.1994182
1.2049469
1.2172222
1.235207
1.2568385
1.2811203
1.3063577
1.3312375
1.3558847
1.3781318
1.3996899
1.4163665
1.4336854
1.4422567
1.4558457
1.3082449
1.3082534
1.3082637
1.3082749
1.3082875
1.3083018
1.308318
1.3083363
1.3083572
1.3083811
1.3084086
1.30844
1.3084753
1.3085152
1.308561
1.3086144
1.308677
1.3087503
1.3088359
1.3089347
1.3090475
1.3091761
1.3093237
1.3094937
1.3096892
1.3099133
1.3101693
1.3104603
1.3107893
1.3111585
1.3115681
1.3120167
1.3124955
1.3129827
1.3134337
1.3137697
1.3138645
1.3135306
1.3125268
1.3105547
1.3072461
1.3022329
1.2952191
1.2860911
1.2749402
1.2623192
1.2492081
1.2369049
1.2270869
1.2216267
1.2214568
1.2278065
1.239984
1.2564424
1.2759969
1.2978869
1.3204505
1.3430086
1.3655924
1.3860132
1.4060286
1.4214574
1.4377894
1.4456918
1.4588304
1.3098496
1.3098536
1.3098585
1.3098638
1.3098698
1.3098767
1.3098846
1.3098938
1.3099045
1.3099169
1.3099313
1.3099477
1.3099668
1.3099894
1.3100166
1.3100492
1.3100875
1.3101319
1.3101839
1.3102459
1.3103204
1.3104083
1.3105115
1.3106334
1.3107791
1.310957
1.3111767
1.3114476
1.3117829
1.3122012
1.3127256
1.3133894
1.3142256
1.3152569
1.3164969
1.3179215
1.3194294
1.3208234
1.3217899
1.321881
1.3205998
1.3174251
1.3119496
1.3038789
1.2933604
1.2810152
1.2678965
1.2559462
1.2471786
1.2426523
1.2439152
1.250677
1.2618413
1.2765827
1.2945788
1.3135888
1.3341114
1.3546467
1.3753376
1.3940903
1.4126811
1.4269379
1.4423593
1.4496117
1.4623457
1.3112837
1.3112827
1.3112816
1.3112805
1.3112792
1.3112782
1.3112775
1.3112772
1.3112775
1.3112784
1.3112801
1.3112837
1.3112892
1.3112943
1.3112982
1.3113031
1.311311
1.3113244
1.3113462
1.3113782
1.3114206
1.3114727
1.3115354
1.3116145
1.3117174
1.3118517
1.3120292
1.3122656
1.3125819
1.3130043
1.3135677
1.3143212
1.3153208
1.3166274
1.3183038
1.320367
1.3227659
1.3253234
1.3277283
1.3294901
1.3299686
1.3284671
1.3243989
1.317384
1.3074995
1.2957303
1.2837625
1.273704
1.2663485
1.2637627
1.2659215
1.2722426
1.2823469
1.2958275
1.3114568
1.328824
1.3474631
1.3661521
1.3851482
1.4023681
1.4196486
1.4328098
1.4473894
1.4540135
1.4663962
1.3125939
1.312587
1.3125789
1.3125705
1.3125613
1.3125513
1.3125405
1.3125291
1.3125172
1.3125049
1.312492
1.3124788
1.3124653
1.3124515
1.3124379
1.3124251
1.3124142
1.3124068
1.3124038
1.3124071
1.3124206
1.3124458
1.3124826
1.3125348
1.3126096
1.3127145
1.3128603
1.3130638
1.3133501
1.3137512
1.314302
1.3150511
1.3160673
1.3174268
1.3192126
1.3214822
1.3242511
1.3274032
1.3306476
1.3334952
1.3351998
1.3349565
1.3319765
1.3258937
1.3174567
1.3077459
1.2982133
1.2899387
1.2849651
1.2837663
1.2858947
1.2922381
1.3016033
1.3135497
1.3278116
1.3435142
1.3604921
1.3775624
1.3950281
1.4108497
1.4269298
1.43907
1.4528741
1.4588962
1.4709733
1.3135307
1.3135181
1.3135033
1.3134877
1.3134707
1.3134516
1.3134303
1.3134073
1.3133842
1.313361
1.3133369
1.3133117
1.3132856
1.3132586
1.3132306
1.313202
1.3131733
1.3131452
1.3131193
1.3130983
1.3130858
1.3130851
1.3130979
1.3131254
1.3131753
1.3132609
1.3133924
1.3135793
1.313842
1.3142142
1.3147382
1.3154613
1.3164463
1.3177693
1.3195248
1.3217968
1.3245921
1.3278568
1.3313372
1.3345527
1.3367732
1.3372576
1.3355221
1.3313619
1.325274
1.3180403
1.310835
1.3052039
1.3023301
1.301632
1.3046412
1.3106458
1.31946
1.3303629
1.3433562
1.3577176
1.3732726
1.3888952
1.4049899
1.4195392
1.4345219
1.445714
1.4588044
1.4642507
1.4760708
1.3138497
1.3138337
1.3138149
1.3137951
1.3137737
1.3137503
1.313725
1.3136975
1.3136679
1.3136364
1.313603
1.313568
1.3135315
1.3134939
1.3134557
1.3134176
1.3133804
1.3133453
1.3133136
1.3132867
1.3132681
1.3132638
1.3132767
1.3133031
1.3133457
1.3134189
1.3135357
1.3137076
1.3139523
1.3142894
1.3147539
1.3154012
1.3162919
1.3174945
1.3190709
1.3210925
1.3236438
1.3266924
1.3300641
1.3333655
1.3360883
1.3376474
1.3374273
1.3352607
1.3315562
1.3268479
1.3222246
1.3192872
1.3175658
1.318374
1.322099
1.327894
1.3361187
1.346297
1.3583231
1.3715227
1.3858281
1.4001737
1.4150435
1.4284393
1.4424206
1.4527375
1.4651745
1.4700835
1.481682
1.313145
1.3131303
1.3131129
1.3130945
1.3130747
1.3130531
1.3130297
1.3130045
1.3129775
1.3129486
1.3129181
1.3128861
1.3128526
1.3128182
1.3127833
1.3127484
1.3127145
1.3126822
1.3126529
1.3126293
1.3126137
1.3126074
1.3126133
1.3126348
1.3126773
1.3127497
1.3128598
1.3130172
1.3132358
1.3135434
1.3139692
1.3145459
1.3153278
1.3163755
1.3177825
1.3196239
1.3219545
1.3248021
1.3280758
1.3315619
1.3348164
1.3373263
1.3385851
1.3384475
1.3369876
1.3346192
1.3328887
1.3317653
1.3317294
1.3339555
1.3379429
1.3439048
1.3518987
1.3615273
1.3727419
1.3849666
1.3982012
1.4114211
1.4251993
1.437552
1.4506239
1.4601353
1.4719748
1.4763823
1.4877857
1.311622
1.3116116
1.3115994
1.3115865
1.3115725
1.3115574
1.3115409
1.3115233
1.3115044
1.3114844
1.3114632
1.3114411
1.3114183
1.3113951
1.311372
1.3113496
1.3113287
1.3113104
1.3112961
1.3112873
1.3112859
1.3112942
1.3113158
1.3113541
1.3114118
1.3114943
1.3116117
1.3117763
1.3119986
1.3122894
1.3126806
1.3132287
1.313984
1.3149815
1.3162873
1.3180182
1.3202615
1.323053
1.3263795
1.330101
1.3339189
1.3373715
1.3400374
1.3415928
1.3419763
1.3422585
1.3426837
1.3432654
1.3450597
1.3481738
1.3528466
1.3590643
1.3669107
1.3761354
1.3867146
1.3981202
1.4104303
1.4226603
1.435469
1.4468825
1.4591302
1.4679027
1.4791955
1.4831376
1.4943792
1.3094474
1.309442
1.3094357
1.309429
1.3094219
1.3094143
1.3094062
1.3093976
1.3093886
1.3093793
1.3093699
1.3093606
1.3093516
1.3093433
1.3093363
1.3093314
1.3093296
1.309332
1.3093402
1.3093561
1.309382
1.3094206
1.3094738
1.3095451
1.3096357
1.3097539
1.30992
1.3101377
1.3104212
1.3107979
1.3112733
1.3118772
1.3126713
1.3137175
1.3150881
1.3168709
1.3191592
1.3220354
1.3255483
1.3296223
1.3340089
1.3383313
1.3421114
1.3449133
1.347402
1.3498529
1.3518565
1.3542587
1.3574401
1.3616024
1.3669165
1.3734469
1.3812918
1.3902411
1.4003139
1.4110347
1.4225541
1.4339154
1.4458665
1.4564299
1.4679334
1.476028
1.4868317
1.4903232
1.5014856
1.3069054
1.3069035
1.3069015
1.3068994
1.3068973
1.3068953
1.3068935
1.3068919
1.3068908
1.3068902
1.3068906
1.3068923
1.3068957
1.3069015
1.3069104
1.3069235
1.306942
1.3069674
1.3070019
1.3070478
1.3071065
1.3071818
1.3072786
1.3074053
1.307569
1.3077756
1.3080398
1.3083653
1.3087561
1.30924
1.3098469
1.3106068
1.3115576
1.3127484
1.3142593
1.3161912
1.3186595
1.3217887
1.3256563
1.3301911
1.3351821
1.3402416
1.344781
1.3491168
1.3534868
1.3572203
1.3608487
1.3648465
1.3692839
1.3743943
1.380373
1.3872691
1.3951805
1.4039444
1.4136218
1.4237715
1.4346126
1.4452109
1.4564023
1.4661974
1.4770355
1.4845023
1.4948773
1.4979305
1.5090599
1.3039142
1.3039142
1.3039145
1.3039151
1.303916
1.3039175
1.3039196
1.3039227
1.303927
1.3039328
1.3039406
1.303951
1.3039646
1.3039825
1.3040056
1.3040354
1.3040737
1.3041228
1.3041852
1.3042639
1.3043631
1.3044883
1.304647
1.3048466
1.3050918
1.3053909
1.3057553
1.3061986
1.3067373
1.3073892
1.3081762
1.3091229
1.3102693
1.3116848
1.3134561
1.315697
1.3185537
1.322162
1.3265551
1.3316519
1.3372661
1.3427908
1.3484111
1.3542392
1.3596668
1.3647585
1.3699412
1.3752059
1.3807567
1.3867667
1.3933858
1.4006595
1.4086935
1.4173455
1.4267139
1.4363854
1.4466445
1.4565719
1.4670906
1.4761922
1.4864377
1.4933167
1.5033236
1.5059545
1.5170811
1.3002081
1.3002099
1.3002123
1.3002152
1.300219
1.3002237
1.3002298
1.3002375
1.3002472
1.3002595
1.300275
1.3002945
1.300319
1.3003497
1.3003883
1.3004366
1.3004969
1.3005722
1.3006658
1.300782
1.3009265
1.301105
1.3013246
1.3015935
1.3019204
1.3023175
1.3027978
1.3033767
1.3040697
1.3048932
1.3058712
1.3070463
1.3084744
1.3102267
1.3124136
1.3151762
1.3186581
1.3229471
1.3280234
1.3338286
1.3399156
1.3462796
1.3531192
1.3598369
1.3663219
1.3727462
1.3790967
1.3854943
1.3920567
1.3988865
1.4061134
1.4137665
1.4219516
1.4305402
1.4396653
1.4489333
1.4586892
1.4680238
1.4779439
1.4864205
1.496131
1.5024789
1.5121536
1.5143893
1.5255414
1.2953584
1.2953633
1.2953695
1.2953766
1.2953851
1.2953954
1.2954077
1.2954226
1.2954407
1.2954626
1.2954893
1.2955218
1.2955615
1.2956099
1.295669
1.2957412
1.2958294
1.2959371
1.2960686
1.2962289
1.296424
1.2966609
1.2969481
1.2972954
1.297715
1.2982198
1.2988221
1.2995382
1.3003911
1.3014113
1.3026366
1.3041183
1.305931
1.3081796
1.3109947
1.3145121
1.3188305
1.3239659
1.3298872
1.3363235
1.3431534
1.3507073
1.358393
1.3659938
1.373522
1.3810047
1.3884418
1.395859
1.4033259
1.4109056
1.4186977
1.4267137
1.4350615
1.4436184
1.4525473
1.461469
1.4707847
1.4795919
1.4889768
1.4968849
1.5061183
1.5119708
1.5213564
1.5232179
1.5344102
1.2889704
1.2889807
1.2889933
1.2890074
1.2890237
1.2890429
1.2890653
1.2890915
1.2891225
1.2891591
1.2892024
1.2892538
1.289315
1.289388
1.2894752
1.2895794
1.2897041
1.2898534
1.2900325
1.2902468
1.2905035
1.2908114
1.2911795
1.2916179
1.2921388
1.2927584
1.2934982
1.2943826
1.2954421
1.2967191
1.298272
1.3001812
1.3025519
1.3055091
1.3091795
1.3136568
1.3189671
1.3250931
1.3318633
1.3390941
1.3471444
1.3555782
1.3640153
1.3725925
1.3811475
1.3896555
1.398081
1.4064187
1.414704
1.4229621
1.4312698
1.4396224
1.4481282
1.456667
1.4654292
1.4740457
1.482969
1.4913009
1.5001999
1.5075986
1.5163854
1.5217989
1.5309074
1.5324364
1.5436524
1.2806981
1.2807161
1.2807381
1.2807623
1.2807899
1.2808216
1.2808582
1.2809004
1.2809492
1.2810059
1.2810718
1.2811486
1.2812384
1.2813437
1.2814671
1.2816112
1.2817806
1.281982
1.2822201
1.2824998
1.2828284
1.2832158
1.2836745
1.2842178
1.2848617
1.285627
1.286541
1.2876397
1.2889729
1.2906073
1.292632
1.2951577
1.298312
1.3022165
1.3069616
1.3125732
1.3190333
1.3262102
1.3339189
1.3424581
1.351559
1.36079
1.3702327
1.3797787
1.3893161
1.3987786
1.4081158
1.4172925
1.4263147
1.435181
1.4439495
1.4526015
1.4612471
1.4697668
1.478376
1.486713
1.4952773
1.5031756
1.5116309
1.5185612
1.5269397
1.5319567
1.540797
1.541997
1.5532942
1.2701859
1.2702142
1.2702485
1.2702859
1.2703281
1.2703763
1.2704313
1.2704939
1.2705653
1.2706465
1.2707387
1.2708444
1.2709693
1.2711167
1.2712844
1.2714761
1.271699
1.2719589
1.2722622
1.2726166
1.2730307
1.2735151
1.2740838
1.2747548
1.2755514
1.2765048
1.2776573
1.2790663
1.2808087
1.2829839
1.2857123
1.2891255
1.2933477
1.2984612
1.3044994
1.311427
1.3191323
1.3274273
1.3365427
1.3463093
1.3563135
1.3665915
1.3770603
1.387598
1.3980995
1.4084771
1.4186633
1.4286034
1.4382845
1.4476857
1.4568526
1.4657562
1.4745092
1.4829941
1.4914483
1.4995189
1.5077445
1.5152377
1.5232763
1.5297813
1.5377779
1.5424605
1.5510183
1.5520928
1.5631828
1.257297
1.2573381
1.2573854
1.2574343
1.2574883
1.2575525
1.2576328
1.2577269
1.2578277
1.2579368
1.2580609
1.2582034
1.258367
1.2585548
1.2587708
1.2590193
1.2593051
1.2596339
1.2600133
1.2604531
1.2609656
1.2615662
1.262275
1.2631193
1.2641355
1.2653733
1.2668995
1.2688017
1.2711893
1.2741907
1.2779402
1.2825605
1.2881314
1.2946798
1.3021846
1.3104959
1.3194475
1.3292435
1.3397523
1.3505735
1.3617229
1.373132
1.3846631
1.3962047
1.4076476
1.4188926
1.4298618
1.4404883
1.4507466
1.460604
1.4700983
1.479195
1.4880103
1.4964306
1.5047128
1.5125139
1.5204055
1.5275121
1.5351489
1.5412559
1.5488766
1.5532602
1.5615122
1.5623273
1.5732479
1.2420122
1.2420683
1.242128
1.2421901
1.2422624
1.2423452
1.2424391
1.2425465
1.2426706
1.2428139
1.2429797
1.2431718
1.2433923
1.2436394
1.2439123
1.2442166
1.244563
1.2449607
1.245419
1.2459502
1.2465701
1.2473004
1.24817
1.2492186
1.2505006
1.2520894
1.2540814
1.2565983
1.2597834
1.2637913
1.268762
1.2748047
1.2819522
1.2901854
1.2993236
1.3092361
1.3200034
1.3314962
1.343317
1.3554709
1.3679091
1.3804952
1.3931199
1.4056677
1.4180267
1.4300921
1.4417803
1.4530181
1.4637734
1.4740075
1.4837557
1.4929815
1.5018068
1.5101245
1.5182079
1.5257279
1.53328
1.5400077
1.5472517
1.5529928
1.5602483
1.5644556
1.5724064
1.5736344
1.5849828
1.2239901
1.2240575
1.2241417
1.2242332
1.224335
1.224449
1.2245761
1.2247174
1.2248744
1.22505
1.225247
1.2254683
1.2257174
1.2259987
1.2263174
1.22668
1.227095
1.227573
1.2281278
1.2287783
1.2295493
1.2304749
1.2316014
1.2329911
1.2347267
1.2369147
1.2396867
1.2431953
1.2476031
1.2530594
1.2596755
1.2675083
1.27649
1.2865503
1.2975189
1.3094334
1.3220745
1.3350306
1.3483267
1.3619212
1.3756744
1.3894802
1.4032205
1.4167742
1.4300252
1.4428667
1.4552118
1.4669867
1.4781561
1.4886818
1.4985971
1.5078725
1.5166342
1.5247875
1.5326184
1.5398161
1.5469941
1.5533233
1.5601513
1.5655231
1.5723761
1.5764435
1.5838434
1.5861032
1.5945777
1.204851
1.2049358
1.2050394
1.2051465
1.2052648
1.2053966
1.2055433
1.2057066
1.2058887
1.206092
1.2063196
1.2065751
1.2068629
1.2071889
1.2075601
1.207986
1.208479
1.2090556
1.2097381
1.2105567
1.2115522
1.2127795
1.2143116
1.2162433
1.2186944
1.2218091
1.2257509
1.2306891
1.2367767
1.2441216
1.2527784
1.2626691
1.2736973
1.2858066
1.2987896
1.312465
1.3264946
1.340933
1.3557158
1.3706876
1.385731
1.4007181
1.4155185
1.430004
1.4440552
1.457564
1.4704449
1.482626
1.4940748
1.5047577
1.5147121
1.5239188
1.5325088
1.540409
1.5479052
1.5547255
1.5614703
1.5673786
1.5737467
1.5787556
1.5851822
1.5890698
1.5960862
1.5984509
1.6064416
1.1869572
1.1870525
1.1871689
1.1872889
1.1874209
1.1875677
1.1877306
1.1879114
1.1881127
1.1883374
1.1885892
1.1888726
1.1891936
1.18956
1.1899821
1.1904737
1.1910533
1.191746
1.1925857
1.1936181
1.1949041
1.1965239
1.1985805
1.2012025
1.2045437
1.2087776
1.2140845
1.2206303
1.228538
1.2378691
1.2485812
1.2605571
1.2738419
1.2878114
1.3024385
1.3175719
1.3331932
1.3491838
1.365377
1.3816544
1.3978802
1.4139175
1.4296306
1.4448885
1.4595724
1.4735771
1.4868214
1.4992399
1.5108047
1.5214926
1.5313451
1.5403614
1.5486729
1.5562347
1.5633251
1.5697211
1.5759893
1.5814671
1.5873437
1.59202
1.597963
1.6017829
1.6082406
1.6112307
1.6181824
1.1733621
1.1734629
1.1735857
1.1737121
1.1738509
1.1740048
1.1741756
1.1743652
1.1745765
1.1748132
1.1750799
1.1753826
1.1757295
1.1761314
1.1766029
1.1771638
1.177841
1.1786705
1.1797009
1.1809962
1.1826403
1.18474
1.1874278
1.1908617
1.1952205
1.2006916
1.2074518
1.2156409
1.2253346
1.2365216
1.2490944
1.2630655
1.2778285
1.2932145
1.3094331
1.3261801
1.3432802
1.3606057
1.3780283
1.3954095
1.4126088
1.4294829
1.4458924
1.4617065
1.4768086
1.4910988
1.5045018
1.5169624
1.5284583
1.5389803
1.5485769
1.5572631
1.5651769
1.5723028
1.5789039
1.5848177
1.5905567
1.5955791
1.6009322
1.6052704
1.6107157
1.6144255
1.6203921
1.6235326
1.630028
1.1659363
1.1660375
1.1661604
1.166287
1.1664257
1.1665796
1.1667504
1.1669406
1.1671538
1.1673942
1.1676681
1.1679833
1.1683509
1.1687857
1.1693077
1.1699442
1.1707319
1.1717197
1.1729721
1.1745731
1.1766289
1.1792716
1.1826583
1.1869679
1.1923909
1.1991127
1.2072889
1.2170183
1.2283183
1.2411126
1.2553269
1.2705661
1.2865775
1.3036308
1.321199
1.3391632
1.357401
1.3757711
1.3941311
1.4123334
1.4302275
1.4476647
1.4645034
1.480615
1.4958855
1.5102216
1.5235565
1.535841
1.5470695
1.5572416
1.5664181
1.574634
1.5820255
1.5886125
1.594638
1.6000043
1.6051594
1.6096935
1.6144927
1.6184824
1.623422
1.6270369
1.6325207
1.6359935
1.6420316
1.1670009
1.1670974
1.1672133
1.1673339
1.1674662
1.1676131
1.1677767
1.16796
1.1681671
1.1684036
1.1686773
1.1689984
1.1693813
1.1698452
1.1704166
1.1711307
1.1720347
1.1731907
1.1746791
1.1766022
1.1790865
1.1822839
1.1863686
1.1915298
1.1979575
1.205821
1.2152436
1.2262775
1.2388861
1.2529646
1.2682949
1.2846192
1.301942
1.3198863
1.3383283
1.3571185
1.3761092
1.3951508