/*--------------------------------*- C++ -*----------------------------------*\
  =========                 |
  \\      /  F ield         | OpenFOAM: The Open Source CFD Toolbox
   \\    /   O peration     | Website:  https://openfoam.org
    \\  /    A nd           | Version:  13
     \\/     M anipulation  |
\*---------------------------------------------------------------------------*/
FoamFile
{
    format      ascii;
    class       volScalarField;
    location    "29.000118";
    object      k;
}
// * * * * * * * * * * * * * * * * * * * * * * * * * * * * * * * * * * * * * //

dimensions      [0 2 -2 0 0 0 0];

internalField   nonuniform List<scalar> 
17140
(
1.3210593e-11
4.1512256e-10
3.3945807e-09
1.4598639e-08
4.4923313e-08
1.1335862e-07
2.513651e-07
5.0941672e-07
9.6666464e-07
1.7451011e-06
3.0301938e-06
5.1007835e-06
8.3721881e-06
1.345803e-05
2.1258456e-05
3.3085286e-05
5.0838324e-05
7.725168e-05
0.00011623413
0.00017333257
0.00025634982
0.00037614299
0.00054760424
0.00079076235
0.0011318018
0.001603516
0.0022442266
0.0030935407
0.0041829106
0.005520228
0.0070728739
0.0087618666
0.010479914
0.012128053
0.013644297
0.015007389
0.016224163
0.017315092
0.018304951
0.019218521
0.020079247
0.02090921
0.021729507
0.022560631
0.023423013
0.024337129
0.025322197
0.026396479
0.027579269
0.028890335
0.030350861
0.031984317
0.033817351
0.035877782
0.038191055
0.040778238
0.043662327
0.046840093
0.05030553
0.053915372
0.057311934
0.06011803
0.061895559
0.063822887
0.067068158
1.3098825e-11
4.1161044e-10
3.3658697e-09
1.447524e-08
4.4543904e-08
1.1240221e-07
2.4924684e-07
5.0512977e-07
9.585424e-07
1.7304637e-06
3.0048263e-06
5.0581736e-06
8.3024166e-06
1.3346171e-05
2.1082286e-05
3.2812019e-05
5.0420018e-05
7.6618812e-05
0.00011528675
0.00017192829
0.00025428796
0.00037314425
0.00054328611
0.00078461217
0.001123153
0.0015915399
0.0022279639
0.0030720099
0.0041553377
0.0054863354
0.0070331626
0.0087176121
0.01043321
0.01208111
0.013598617
0.014963819
0.016183099
0.017276671
0.018269197
0.019185434
0.020048865
0.020881672
0.02170511
0.022539907
0.023406823
0.024326764
0.025319503
0.026403931
0.027600148
0.028928862
0.030411998
0.032073348
0.033938625
0.036031413
0.038365433
0.040935959
0.043724961
0.046661398
0.049655221
0.052566585
0.055159593
0.057337108
0.058961508
0.060931559
0.064707477
1.2895187e-11
4.0521139e-10
3.3135426e-09
1.425021e-08
4.3851492e-08
1.1065522e-07
2.4537379e-07
4.9728267e-07
9.4365663e-07
1.7036013e-06
2.9582046e-06
4.9797391e-06
8.1737665e-06
1.3139543e-05
2.0756228e-05
3.2305208e-05
4.96425e-05
7.5439716e-05
0.00011351726
0.00016929839
0.00025041547
0.00036749476
0.00053512381
0.00077294474
0.0011066803
0.0015686293
0.0021966968
0.0030303669
0.0041015959
0.0054198003
0.0069548714
0.0086305255
0.010341157
0.01198756
0.013506044
0.014873577
0.016095737
0.017192296
0.018187729
0.019106749
0.01997289
0.020808443
0.02163484
0.022473061
0.02334421
0.024269645
0.025269742
0.026364194
0.027574111
0.028921464
0.030429771
0.032124788
0.034033605
0.036179275
0.038569251
0.041181051
0.043954668
0.046790811
0.049523227
0.051988734
0.054061121
0.055754179
0.056929902
0.057312995
0.059574462
1.2596029e-11
3.9581081e-10
3.2366709e-09
1.3919621e-08
4.2834236e-08
1.0808848e-07
2.3968277e-07
4.8575076e-07
9.2177743e-07
1.6641113e-06
2.8896513e-06
4.8643771e-06
7.984488e-06
1.2835428e-05
2.0276135e-05
3.1558611e-05
4.8496483e-05
7.3700691e-05
0.00011090557
0.00016541361
0.00024468988
0.00035913316
0.00052302934
0.00075563519
0.0010822098
0.0015345505
0.002150131
0.0029682954
0.0040214988
0.0053206037
0.0068379216
0.0084997895
0.010202137
0.01184545
0.013364484
0.014734508
0.015959894
0.017059761
0.018058305
0.018980176
0.019848953
0.020687049
0.021516079
0.022357289
0.02323214
0.024162441
0.025169214
0.026273078
0.027496399
0.028862935
0.030398811
0.032132914
0.034097131
0.036318258
0.038804071
0.041523902
0.044392783
0.04726498
0.049952124
0.052296088
0.054202005
0.055609425
0.055757763
0.052119535
0.049738502
1.2204986e-11
3.8352286e-10
3.1361887e-09
1.3487495e-08
4.1504525e-08
1.0473328e-07
2.3224338e-07
4.7067558e-07
8.9317452e-07
1.6124832e-06
2.800022e-06
4.7135399e-06
7.7369887e-06
1.2437741e-05
1.9648276e-05
3.0582133e-05
4.6997439e-05
7.142567e-05
0.00010748837
0.00016032958
0.00023719474
0.00034818339
0.0005071836
0.000732942
0.0010500999
0.0014897781
0.002088851
0.0028864193
0.0039154979
0.0051887904
0.0066817934
0.0083244171
0.010014776
0.011653073
0.01317202
0.014544585
0.015773486
0.016876939
0.017878749
0.018803462
0.0196747
0.020514994
0.021346143
0.022189662
0.023067372
0.024001514
0.025013787
0.02612585
0.027361545
0.028746889
0.03031152
0.032089879
0.03412061
0.036439998
0.039062994
0.041961251
0.045041849
0.048152819
0.051045038
0.053526465
0.055487901
0.056839201
0.055265783
0.045304622
0.033505911
1.1726069e-11
3.6847366e-10
3.0131269e-09
1.2958262e-08
3.9875984e-08
1.0062399e-07
2.231318e-07
4.5221135e-07
8.581402e-07
1.5492438e-06
2.6902297e-06
4.52876e-06
7.4337752e-06
1.1950495e-05
1.8878951e-05
2.9385509e-05
4.5160193e-05
6.8636917e-05
0.00010329865
0.0001540946
0.00022799973
0.00033474441
0.00048772463
0.00070505338
0.0010105997
0.0014346284
0.0020132338
0.002785149
0.0037839826
0.005024612
0.0064864362
0.0081038979
0.0097780586
0.011408991
0.012926932
0.014301929
0.015534547
0.0166418
0.017646962
0.018574416
0.019447806
0.020289772
0.021122287
0.021967127
0.022846458
0.023782917
0.024798882
0.025917137
0.027163189
0.028565779
0.030159027
0.031984598
0.034092032
0.03652974
0.039328664
0.04247188
0.045872383
0.049404906
0.052803732
0.055783765
0.058043661
0.058885018
0.054731861
0.037748907
0.015752365
1.1165685e-11
3.5086448e-10
2.8691317e-09
1.2339001e-08
3.7970398e-08
9.5815581e-08
2.1246986e-07
4.3060494e-07
8.1714276e-07
1.4752383e-06
2.5617409e-06
4.3125039e-06
7.0788916e-06
1.138018e-05
1.7978396e-05
2.7984626e-05
4.300907e-05
6.5371221e-05
9.8391407e-05
0.00014678993
0.00021722354
0.00031898748
0.00046489594
0.00067230969
0.00096417439
0.0013697182
0.0019240644
0.0026654229
0.0036279713
0.0048290094
0.0062524806
0.0078383277
0.0094914519
0.011112117
0.012627751
0.014004846
0.015241255
0.016352432
0.017360938
0.018290912
0.01916598
0.020008875
0.020841712
0.021686509
0.022565743
0.023502387
0.024519458
0.025640907
0.026894028
0.028310671
0.029930298
0.031803514
0.033993077
0.036565086
0.039571345
0.043014624
0.04682549
0.05092747
0.054996632
0.058622502
0.060973371
0.060201088
0.05276499
0.027678951
0.0090459574
1.0532736e-11
3.3097506e-10
2.7064901e-09
1.1639549e-08
3.5818034e-08
9.038442e-08
2.004269e-07
4.0619946e-07
7.7083319e-07
1.3916415e-06
2.4165948e-06
4.068203e-06
6.6779662e-06
1.0735835e-05
1.696087e-05
2.6401641e-05
4.0578031e-05
6.1680006e-05
9.2843638e-05
0.00013852962
0.00020503331
0.00030115461
0.00043904351
0.00063519779
0.00091149575
0.0012959511
0.0018225144
0.0025286834
0.0034491092
0.0046036503
0.0059813269
0.0075285304
0.0091550303
0.010761822
0.012273332
0.013651872
0.014891957
0.016007055
0.017018775
0.017950898
0.018826976
0.019669791
0.020501569
0.021344515
0.022221368
0.023155345
0.024170014
0.025290462
0.026545809
0.02797126
0.029612313
0.031529922
0.033802312
0.0365181
0.039747986
0.043529524
0.047809675
0.052578735
0.05725821
0.061368608
0.062850019
0.059221095
0.044657863
0.01654705
0.0051961303
9.8384262e-12
3.091574e-10
2.5280799e-09
1.0872281e-08
3.3456981e-08
8.442662e-08
1.8721602e-07
3.7942675e-07
7.2003081e-07
1.2999322e-06
2.2573589e-06
3.8001774e-06
6.2380867e-06
1.0028847e-05
1.5844339e-05
2.4664476e-05
3.7909898e-05
5.7628165e-05
8.6752604e-05
0.00012945793
0.00019164073
0.00028155312
0.00041060802
0.00059434064
0.00085342891
0.0012145007
0.0017101263
0.0023768691
0.0032496783
0.0043509753
0.005675238
0.0071761896
0.008769621
0.01035806
0.011862946
0.013241833
0.014485209
0.015604043
0.016618688
0.017552406
0.01842859
0.019270016
0.020098955
0.020937736
0.021809265
0.022736897
0.023744591
0.024858458
0.026109365
0.027535958
0.029190211
0.031144244
0.033493062
0.036348356
0.039803201
0.04393276
0.048684546
0.053993659
0.05906805
0.062871651
0.061915825
0.053955058
0.027565836
0.0083208978
0.0026075881
9.0959332e-12
2.858257e-10
2.3372891e-09
1.0051769e-08
3.0932072e-08
7.8055305e-08
1.7308807e-07
3.5079515e-07
6.6570023e-07
1.2018517e-06
2.0870561e-06
3.5135147e-06
5.7676007e-06
9.2726269e-06
1.4649977e-05
2.2806045e-05
3.5055172e-05
5.3292272e-05
8.0233167e-05
0.0001197454
0.00017729646
0.00026054763
0.00038011384
0.00055048247
0.00079101314
0.0011267883
0.0015887901
0.002212396
0.0030325974
0.0040742334
0.0053374272
0.0067839911
0.0083369756
0.0099015328
0.01139641
0.012773935
0.014019831
0.015141957
0.016159024
0.017093556
0.017968666
0.01880704
0.019630918
0.020462645
0.021325163
0.022241841
0.023236789
0.02433693
0.025574683
0.026992055
0.028647616
0.030624924
0.033037411
0.036018515
0.039679395
0.044095785
0.049174823
0.054710244
0.059547732
0.061186387
0.056444521
0.037826367
0.012011762
0.0036204006
0.0011743779
8.3200124e-12
2.6144359e-10
2.1379088e-09
9.1943145e-09
2.8293474e-08
7.1397072e-08
1.5832378e-07
3.208736e-07
6.0892098e-07
1.0993488e-06
1.9090701e-06
3.2139099e-06
5.275854e-06
8.4821931e-06
1.3401492e-05
2.0863227e-05
3.2070456e-05
4.8758201e-05
7.341424e-05
0.00010958363
0.00016228258
0.00023854927
0.00034815387
0.000504468
0.00072543452
0.0010344485
0.0014607033
0.0020381185
0.0028013967
0.0037774918
0.0049721298
0.0063557682
0.0078599705
0.0093938965
0.010874263
0.012247889
0.013494989
0.014619599
0.015638294
0.016572574
0.017445101
0.018278354
0.019094441
0.019915594
0.020764583
0.021664651
0.022639756
0.023717304
0.024930979
0.026325936
0.027967136
0.029951295
0.032410598
0.035492408
0.03930535
0.043869759
0.048941904
0.053982184
0.056572471
0.053977176
0.0414426
0.014896014
0.0045726521
0.0014323355
0.00051325567
7.5264657e-12
2.365076e-10
1.933999e-09
8.3173797e-09
2.5594921e-08
6.4587508e-08
1.432238e-07
2.9027142e-07
5.5084939e-07
9.9451101e-07
1.7270257e-06
2.9074646e-06
4.7728606e-06
7.6736408e-06
1.2124305e-05
1.8875562e-05
2.901647e-05
4.4118132e-05
6.6434312e-05
9.9178701e-05
0.00014690289
0.00021600177
0.00031536989
0.00045721524
0.0006579891
0.00093928147
0.0013283124
0.0018572641
0.002560158
0.0034656072
0.0045846391
0.0058966326
0.0073428257
0.0088380225
0.010298006
0.011664105
0.01291033
0.014036091
0.015055225
0.01598782
0.016855854
0.01768144
0.018486428
0.01929277
0.020122829
0.020999446
0.021946145
0.02299035
0.024166689
0.025523198
0.027132227
0.029109268
0.031595377
0.034741123
0.038611486
0.043013298
0.047203473
0.049535143
0.046848999
0.036695405
0.015003791
0.0048471679
0.0015617178
0.0005582178
0.00025361945
6.7315247e-12
2.115278e-10
1.7297312e-09
7.4389044e-09
2.2891621e-08
5.7765932e-08
1.2809708e-07
2.5961475e-07
4.9267365e-07
8.8948346e-07
1.544648e-06
2.6004499e-06
4.2689145e-06
6.8635179e-06
1.0844552e-05
1.6883729e-05
2.5955708e-05
3.946699e-05
5.9436123e-05
8.8743252e-05
0.00013147138
0.00019336475
0.00028242859
0.00040968176
0.00059003648
0.00084319033
0.0011942331
0.0016733381
0.0023134137
0.0031441428
0.0041812861
0.0054130644
0.0067913228
0.0082382988
0.0096704119
0.011023947
0.012266174
0.01339102
0.014408848
0.015337842
0.016198981
0.01701379
0.017803691
0.018590155
0.019394885
0.020239904
0.021147971
0.02214597
0.023269239
0.024568963
0.026133265
0.028093987
0.030577976
0.033712662
0.03738929
0.040618165
0.041333267
0.037844975
0.02618328
0.011651507
0.0044628275
0.0015250409
0.00055385321
0.0002590658
0.0001656966
5.9511842e-12
1.8700678e-10
1.5292146e-09
6.5765608e-09
2.0237953e-08
5.1069573e-08
1.1324793e-07
2.2952037e-07
4.3556432e-07
7.8637965e-07
1.3656073e-06
2.2990451e-06
3.7741601e-06
6.068135e-06
9.5880064e-06
1.4927848e-05
2.2949833e-05
3.4898506e-05
5.2560735e-05
7.8487686e-05
0.00011629924
0.00017109478
0.00024999437
0.00036282595
0.00052294554
0.00074810721
0.001061151
0.0014899978
0.0020659996
0.0028192212
0.0037693378
0.0049129244
0.0062129827
0.0076009552
0.0089959136
0.010330101
0.011563812
0.012684643
0.01369864
0.014621458
0.015472663
0.016272902
0.01704292
0.017803444
0.018575251
0.019379028
0.020236285
0.021172667
0.022224362
0.023452722
0.024970191
0.02690146
0.029307286
0.032162926
0.034601094
0.033747501
0.028733596
0.015532963
0.0077220412
0.0033569398
0.0013355238
0.00052639357
0.00025084637
0.00016642191
0.00013789695
5.2004576e-12
1.6341634e-10
1.3363077e-09
5.7469422e-09
1.7684984e-08
4.4627298e-08
9.8962133e-08
2.005675e-07
3.8062067e-07
6.8718445e-07
1.1933511e-06
2.0090551e-06
3.2981281e-06
5.3028185e-06
8.3788891e-06
1.3045639e-05
2.0056855e-05
3.0500913e-05
4.5941072e-05
6.861053e-05
0.00010168067
0.00014962457
0.00021869906
0.00031756354
0.0004580327
0.00065590668
0.00093170411
0.0013108958
0.0018228581
0.0024972997
0.0033567874
0.0044053411
0.0056171422
0.0069343577
0.0082810427
0.0095870403
0.010805905
0.011918206
0.012924748
0.013837899
0.014675273
0.015456261
0.016200595
0.016927893
0.017657653
0.018408667
0.019200528
0.020056314
0.021018445
0.022173827
0.023634833
0.025484235
0.027474805
0.02887071
0.026990121
0.020294066
0.009706605
0.0045633111
0.0021822806
0.00099147813
0.00045129084
0.00023532546
0.00015949096
0.00013719634
0.00012698929
4.4926684e-12
1.4117516e-10
1.1544345e-09
4.964776e-09
1.5278037e-08
3.8553485e-08
8.5493346e-08
1.732703e-07
3.2881852e-07
5.9365988e-07
1.0309398e-06
1.7356333e-06
2.8492817e-06
4.5811813e-06
7.2387202e-06
1.1270629e-05
1.7328358e-05
2.6352732e-05
3.9695546e-05
5.9288888e-05
8.7878609e-05
0.00012934189
0.00018911099
0.00027472239
0.00039649639
0.00056831155
0.00080834825
0.0011394938
0.0015887877
0.0021848547
0.0029520037
0.003900409
0.0050148323
0.0062491667
0.0075348416
0.0088015587
0.0099970236
0.011094391
0.012088324
0.012987021
0.013805474
0.014561312
0.015272793
0.01595797
0.016634414
0.017318516
0.018027296
0.018779973
0.019647166
0.020719114
0.022050126
0.023513996
0.023631346
0.021009787
0.012844547
0.0061891553
0.0028361027
0.0013353607
0.0006646626
0.00034937085
0.00020717536
0.00015149863
0.00013125939
0.00012609564
0.0001200452
3.8387542e-12
1.2062694e-10
9.8640528e-10
4.2421468e-09
1.3054299e-08
3.2941976e-08
7.3049682e-08
1.4805058e-07
2.8095852e-07
5.0725175e-07
8.8088479e-07
1.4830092e-06
2.4345668e-06
3.914397e-06
6.1851679e-06
9.6303526e-06
1.4806726e-05
2.2518528e-05
3.392162e-05
5.0668749e-05
7.5110256e-05
0.00011056803
0.00016170293
0.0002349951
0.000339347
0.00048678993
0.00069320698
0.00097884479
0.0013681338
0.0018879615
0.0025632054
0.0034086339
0.0044183679
0.005558249
0.0067691496
0.0079833224
0.009144271
0.010217889
0.011191968
0.012069606
0.012862345
0.013585378
0.01425484
0.014886539
0.015495153
0.016093936
0.01669617
0.017333243
0.018094657
0.018987957
0.019811826
0.019212621
0.01602716
0.008147638
0.0038540342
0.0018021687
0.0008588727
0.00044416457
0.00026129831
0.00017793853
0.00014043857
0.00012673763
0.00012139059
0.00011915684
0.0001145161
3.2470719e-12
1.0203424e-10
8.3436671e-10
3.5882866e-09
1.1042182e-08
2.7864473e-08
6.1790154e-08
1.2523067e-07
2.3765246e-07
4.290649e-07
7.4510538e-07
1.2544157e-06
2.0592937e-06
3.3110112e-06
5.2317501e-06
8.1458896e-06
1.2524438e-05
1.9047828e-05
2.8694181e-05
4.2862527e-05
6.3543377e-05
9.3552154e-05
0.00013684366
0.00019892607
0.000287387
0.00041252396
0.00058802145
0.00083151133
0.0011646555
0.001612078
0.0021981288
0.0029404784
0.0038408199
0.0048763037
0.0059986091
0.0071452632
0.0082578999
0.009296038
0.010240256
0.01108768
0.011845453
0.012525411
0.013140613
0.013703376
0.014224243
0.014711448
0.015173294
0.015690929
0.016244888
0.016503181
0.015368822
0.011518119
0.0054545189
0.0024730617
0.0011565198
0.0005758052
0.00031864409
0.00020519529
0.00015481399
0.00013218618
0.00012161347
0.00011865756
0.00011559928
0.00011397466
0.00011000857
2.7231151e-12
8.5569678e-11
6.9973038e-10
3.0092673e-09
9.2603697e-09
2.336813e-08
5.1819354e-08
1.0502262e-07
1.9930288e-07
3.5982646e-07
6.2486516e-07
1.0519818e-06
1.7269621e-06
2.7766595e-06
4.3873904e-06
6.8311734e-06
1.0502997e-05
1.5973505e-05
2.4063087e-05
3.5945386e-05
5.3290766e-05
7.8463043e-05
0.00011478539
0.00016689232
0.00024118124
0.00034636304
0.00049407543
0.00069944398
0.00098132598
0.001361722
0.0018635246
0.002505636
0.0032952
0.0042190909
0.0052402139
0.0063035566
0.0073516434
0.00833931
0.0092401838
0.010044768
0.010754758
0.01137738
0.011921062
0.012392733
0.012795839
0.013128993
0.013415111
0.013719657
0.013573789
0.012068165
0.0076690939
0.0036479996
0.0016633669
0.00077896111
0.00040511981
0.00024460383
0.0001737114
0.00014130975
0.00012636202
0.00011937311
0.00011566053
0.00011336559
0.00011091944
0.00010912675
0.00010619269
2.2689156e-12
7.1297155e-11
5.8301931e-10
2.5073376e-09
7.7157847e-09
1.9470421e-08
4.3176038e-08
8.7504985e-08
1.6605898e-07
2.9980599e-07
5.2063269e-07
8.7649743e-07
1.4388709e-06
2.3134359e-06
3.6554099e-06
5.6914014e-06
8.7504522e-06
1.3307926e-05
2.0047234e-05
2.9946108e-05
4.4396243e-05
6.5367565e-05
9.5630704e-05
0.00013905257
0.00020097805
0.0002887012
0.00041200369
0.00058368058
0.00081986104
0.0011397384
0.0015640572
0.0021115123
0.0027925397
0.0036015662
0.0045115821
0.0054764264
0.0064421427
0.0073611673
0.0082011538
0.0089457238
0.0095900349
0.010134968
0.010581853
0.010929251
0.011166783
0.011289297
0.011299967
0.01090295
0.0091534126
0.0049502073
0.0023964071
0.0011239884
0.00055098249
0.00030474319
0.00020136259
0.0001555674
0.00013467412
0.00012367558
0.0001182305
0.00011527163
0.00011159345
0.00010912808
0.00010668795
0.00010557257
0.0001029333
1.8832669e-12
5.9178749e-11
4.8392335e-10
2.0811641e-09
6.4043252e-09
1.6160998e-08
3.5837275e-08
7.2631336e-08
1.3783272e-07
2.4884474e-07
4.3213278e-07
7.2750041e-07
1.1942639e-06
1.9201298e-06
3.0339077e-06
4.7236402e-06
7.2623505e-06
1.1044438e-05
1.6636857e-05
2.4850643e-05
3.6840094e-05
5.4238985e-05
7.9345153e-05
0.00011536613
0.00016673741
0.00023951815
0.00034185045
0.00048442594
0.00068081961
0.00094740453
0.0013023472
0.0017629831
0.0023409871
0.0030357461
0.0038285132
0.0046818663
0.0055471679
0.0063768172
0.0071340572
0.0077958241
0.008349588
0.0087874475
0.0091005041
0.0092728066
0.0092699213
0.0091088115
0.0084499211
0.0064378661
0.0033179488
0.0015733966
0.00076313725
0.00039947951
0.00024289938
0.00017577428
0.00014620167
0.00013106458
0.00012363112
0.00011870011
0.00011553297
0.00011146311
0.00010815187
0.00010623321
0.00010374902
0.00010216658
0.0001001172
1.5617349e-12
4.9075101e-11
4.0130258e-10
1.7258442e-09
5.310903e-09
1.3401788e-08
2.9718638e-08
6.0230578e-08
1.1429942e-07
2.0635662e-07
3.5834777e-07
6.0327795e-07
9.9033025e-07
1.5922245e-06
2.5157526e-06
3.9168005e-06
6.0216737e-06
9.1572311e-06
1.3793235e-05
2.0601498e-05
3.0537839e-05
4.4954524e-05
6.5752515e-05
9.5583891e-05
0.00013811409
0.00019834848
0.0002830134
0.00040095001
0.00056341583
0.00078407804
0.0010783174
0.001461292
0.0019442196
0.002528942
0.0032023935
0.0039344838
0.004682442
0.005400475
0.0060491164
0.0065990631
0.0070288182
0.0073188526
0.0074452116
0.0073744497
0.0070834177
0.0062792697
0.0041815486
0.0021253732
0.0010556951
0.00053055006
0.00029977343
0.0002017381
0.00016012795
0.00014076277
0.00013077243
0.00012479451
0.00012037917
0.0001164248
0.00011165139
0.00010846559
0.00010564619
0.00010318379
0.00010097435
9.9600695e-05
9.780933e-05
1.2968546e-12
4.0751641e-11
3.3323892e-10
1.4331291e-09
4.410135e-09
1.1128737e-08
2.4678087e-08
5.0014834e-08
9.4912785e-08
1.7135531e-07
2.9756492e-07
5.0094659e-07
8.223367e-07
1.3221103e-06
2.088923e-06
3.2521701e-06
4.9996663e-06
7.6026081e-06
1.1450624e-05
1.7100659e-05
2.5344596e-05
3.7301815e-05
5.4544152e-05
7.9261435e-05
0.00011447496
0.00016430187
0.00023426184
0.00033159199
0.00046548705
0.00064709689
0.00088898707
0.0012036319
0.0016004925
0.0020816308
0.0026369197
0.0032413478
0.0038572803
0.0044415672
0.0049533418
0.0053574079
0.0056223418
0.0057147672
0.0056074828
0.0052384589
0.0043840391
0.0025789399
0.001355811
0.00069520874
0.00037955555
0.00023561291
0.00017441151
0.0001497106
0.0001379854
0.00013170696
0.00012677764
0.00012220561
0.00011719646
0.00011217756
0.00010906584
0.000106007
0.00010306607
0.00010130809
9.9037412e-05
9.7622865e-05
9.6016154e-05
1.0783584e-12
3.3885738e-11
2.7709433e-10
1.1916736e-09
3.667109e-09
9.2537463e-09
2.0520258e-08
4.1588149e-08
7.8921381e-08
1.4248408e-07
2.4742795e-07
4.1653908e-07
6.8376967e-07
1.0993131e-06
1.7368658e-06
2.7039714e-06
4.1566883e-06
6.320276e-06
9.5181964e-06
1.4212474e-05
2.1059362e-05
3.0985223e-05
4.5288403e-05
6.5773171e-05
9.4920638e-05
0.00013609734
0.00019379181
0.00027384812
0.00038362569
0.00053194848
0.00072861127
0.00098311113
0.001302262
0.001686639
0.0021266083
0.0025998149
0.0030723373
0.0035036733
0.0038523263
0.0040782423
0.0041406674
0.0040135394
0.0036331576
0.0027695195
0.0015892508
0.00084339765
0.0004609611
0.00027561242
0.00019235629
0.00015660462
0.00014204094
0.00013635363
0.00013283091
0.00012906576
0.00012390018
0.00011787014
0.00011333971
0.00011015589
0.00010675587
0.0001037356
0.00010136995
9.9244005e-05
9.7091132e-05
9.5820464e-05
9.4432702e-05
8.9374335e-13
2.8084503e-11
2.296559e-10
9.8765985e-10
3.0393024e-09
7.6695081e-09
1.7007184e-08
3.4468203e-08
6.540981e-08
1.1809004e-07
2.0506599e-07
3.4522109e-07
5.6669064e-07
9.1106433e-07
1.4393962e-06
2.2407597e-06
3.4443627e-06
5.2366074e-06
7.8849492e-06
1.1770991e-05
1.7435907e-05
2.5641966e-05
3.7454348e-05
5.4347307e-05
7.833706e-05
0.00011213926
0.00015933896
0.00022454192
0.00031344275
0.00043269299
0.00058938271
0.00078988609
0.0010378363
0.0013312451
0.0016593761
0.0020008437
0.0023243857
0.0025923583
0.0027641683
0.0027972109
0.0026690773
0.002303893
0.0016004239
0.00092224053
0.00052070924
0.00030718739
0.00020550392
0.00016165638
0.00014327251
0.00013664809
0.00013487862
0.00013360626
0.00013124345
0.00012549816
0.00011900778
0.0001147717
0.00011151325
0.00010751151
0.00010451274
0.00010183534
9.9487995e-05
9.759661e-05
9.5671048e-05
9.4407037e-05
9.3194975e-05
7.2981507e-13
2.2933312e-11
1.8753302e-10
8.0650593e-10
2.4818405e-09
6.262777e-09
1.3887718e-08
2.8145936e-08
5.3411873e-08
9.642842e-08
1.6744827e-07
2.818884e-07
4.6271657e-07
7.4387787e-07
1.1751906e-06
1.8293068e-06
2.8115521e-06
4.2737456e-06
6.433457e-06
9.6005788e-06
1.4213533e-05
2.0887795e-05
3.0479466e-05
4.416596e-05
6.3543661e-05
9.0737409e-05
0.00012850681
0.00018031685
0.00025031205
0.00034309286
0.00046314669
0.00061376614
0.00079533451
0.0010030624
0.0012248144
0.0014400754
0.0016207707
0.0017335937
0.0017402619
0.0016285125
0.0013285981
0.00087844908
0.00052365427
0.00031571209
0.00020582016
0.00015815925
0.00013796964
0.00013259278
0.00013303729
0.0001344945
0.00013458177
0.00013296912
0.00012767774
0.00012048578
0.0001164317
0.0001126889
0.0001085609
0.00010545285
0.00010275754
0.00010020412
9.8036759e-05
9.6177629e-05
9.4185915e-05
9.3187253e-05
9.2135267e-05
5.7576302e-13
1.8092463e-11
1.4794784e-10
6.3626512e-10
1.9579585e-09
4.940772e-09
1.0956099e-08
2.2204273e-08
4.2135937e-08
7.6069625e-08
1.3209143e-07
2.2235849e-07
3.6497802e-07
5.8670247e-07
9.2677509e-07
1.4423861e-06
2.2163635e-06
3.3679315e-06
5.0676149e-06
7.5576401e-06
1.1179413e-05
1.6409743e-05
2.3907158e-05
3.4568554e-05
4.9593751e-05
7.0550204e-05
9.9420645e-05
0.00013860086
0.00019079232
0.00025870695
0.00034448115
0.0004487063
0.00056910624
0.00069895329
0.00082594298
0.00093194298
0.00099369375
0.00098619229
0.00089514337
0.00068400358
0.00044867171
0.00028882003
0.000190236
0.00014288218
0.00012135307
0.00012018024
0.00012360132
0.00013038142
0.00013661977
0.00013660143
0.00013501701
0.00012964457
0.00012193706
0.00011777879
0.00011382408
0.00010973631
0.00010676459
0.00010366767
0.00010102907
9.8566769e-05
9.6624259e-05
9.4805802e-05
9.319076e-05
9.2137274e-05
9.1191266e-05
4.2731477e-13
1.3427704e-11
1.0980251e-10
4.7221588e-10
1.4531266e-09
3.6668269e-09
8.1310151e-09
1.6478417e-08
3.126925e-08
5.6449009e-08
9.8014928e-08
1.6498077e-07
2.7076595e-07
4.3518452e-07
6.8727645e-07
1.0693113e-06
1.6424054e-06
2.4943287e-06
3.7502228e-06
5.5870846e-06
8.2529224e-06
1.2091342e-05
1.7571736e-05
2.5323864e-05
3.6172769e-05
5.1164956e-05
7.1568455e-05
9.8817466e-05
0.00013435756
0.00017933407
0.00023406694
0.00029732966
0.00036544002
0.00043150221
0.00048501402
0.00051233343
0.00049920657
0.0004358191
0.00032645506
0.00022571192
0.00015466133
0.00011801214
9.950781e-05
9.805329e-05
0.00010407234
0.00011719316
0.00013333308
0.00013866976
0.00013878795
0.00013712726
0.0001315586
0.00012348291
0.00011931452
0.0001151839
0.00011131689
0.00010813666
0.00010474936
0.0001018506
9.9510414e-05
9.7316213e-05
9.5465003e-05
9.3704102e-05
9.2004683e-05
9.116378e-05
9.0373538e-05
2.8935095e-13
9.0924003e-12
7.4351209e-11
3.1975229e-10
9.8394603e-10
2.4828442e-09
5.5054199e-09
1.1156853e-08
2.1169774e-08
3.8213511e-08
6.6343825e-08
1.11653e-07
1.8320388e-07
2.9436359e-07
4.6469459e-07
7.2261454e-07
1.1091011e-06
1.6827883e-06
2.5268654e-06
3.7582138e-06
5.5391429e-06
8.0918011e-06
1.1714647e-05
1.6798983e-05
2.384105e-05
3.3441155e-05
4.6275407e-05
6.3018298e-05
8.4187848e-05
0.00010988896
0.00013945008
0.00017096046
0.00020089097
0.00022390059
0.00023304941
0.00022226872
0.00018875968
0.00014530165
0.00010902967
8.6419845e-05
7.3592341e-05
7.3673462e-05
7.9176908e-05
9.2674944e-05
0.000119087
0.00013657543
0.00014115418
0.00014107586
0.00013936176
0.00013361878
0.00012526539
0.00012080683
0.00011659403
0.00011273839
0.00010939875
0.0001057843
0.00010297217
0.00010044887
9.8196401e-05
9.6028191e-05
9.4267227e-05
9.2586883e-05
9.125004e-05
9.0489091e-05
8.9722766e-05
1.7328518e-13
5.4452101e-12
4.4526874e-11
1.9148862e-10
5.892387e-10
1.4868058e-09
3.2966449e-09
6.6802096e-09
1.2674117e-08
2.2874613e-08
3.9705364e-08
6.6803635e-08
1.0957336e-07
1.7597133e-07
2.7761539e-07
4.3133033e-07
6.6127712e-07
1.0018369e-06
1.50143e-06
2.2274166e-06
3.2720969e-06
4.7595284e-06
6.8522692e-06
9.7560743e-06
1.3718805e-05
1.9017258e-05
2.5922441e-05
3.4631615e-05
4.5155857e-05
5.7158791e-05
6.976893e-05
8.140955e-05
8.9734517e-05
9.1673427e-05
8.6259198e-05
7.4583761e-05
6.2938921e-05
5.4238961e-05
4.8546617e-05
5.0429757e-05
5.5238269e-05
6.7047511e-05
9.0674004e-05
0.00012336737
0.00013855752
0.00014354686
0.00014343585
0.00014169681
0.00013590198
0.00012714006
0.00012250421
0.00011797124
0.0001142697
0.00011075226
0.00010721618
0.00010431373
0.00010155938
9.9023627e-05
9.6897952e-05
9.4921792e-05
9.3349e-05
9.1750786e-05
9.0366134e-05
8.959899e-05
8.8988382e-05
8.9321845e-14
2.8067925e-12
2.2951698e-11
9.87024e-11
3.0371161e-10
7.6630316e-10
1.6989583e-09
3.4423022e-09
6.5298648e-09
1.1782585e-08
2.0445647e-08
3.4385102e-08
5.6368105e-08
9.04587e-08
1.4257074e-07
2.2123e-07
3.3860641e-07
5.1187993e-07
7.6498922e-07
1.1307637e-06
1.6533258e-06
2.3904242e-06
3.4149549e-06
4.8142758e-06
6.6849867e-06
9.1198145e-06
1.2182155e-05
1.5864728e-05
2.0032226e-05
2.4355757e-05
2.8261959e-05
3.092522e-05
3.1605831e-05
3.0800295e-05
2.930689e-05
2.7730659e-05
2.8023849e-05
3.1119928e-05
3.5553975e-05
4.5623321e-05
6.3239833e-05
9.3390202e-05
0.00012392331
0.00013944128
0.00014551833
0.00014575078
0.00014404681
0.00013830954
0.00012923776
0.00012429456
0.00011955635
0.00011571122
0.00011222097
0.00010863605
0.00010563792
0.0001025574
9.9999899e-05
9.7778053e-05
9.5822919e-05
9.3958729e-05
9.2368953e-05
9.080226e-05
8.9686887e-05
8.9146242e-05
8.8510311e-05
3.9082664e-14
1.2281061e-12
1.0042361e-11
4.3185459e-11
1.3287727e-10
3.3524065e-10
7.4317121e-10
1.5055087e-09
2.8552092e-09
5.1503458e-09
8.9332631e-09
1.5015163e-08
2.4595874e-08
3.9431504e-08
6.2065853e-08
9.6144137e-08
1.4682822e-07
2.2132812e-07
3.2954951e-07
4.8482213e-07
7.0460533e-07
1.0109459e-06
1.4302719e-06
1.9918445e-06
2.7238561e-06
3.6461028e-06
4.7583312e-06
6.0248724e-06
7.3595143e-06
8.6191285e-06
9.6393742e-06
1.0447536e-05
1.1303519e-05
1.2465364e-05
1.4216257e-05
1.6482508e-05
2.1505323e-05
2.9595917e-05
4.372639e-05
6.4891581e-05
9.4293231e-05
0.00012262068
0.00013871916
0.00014701609
0.00014798556
0.00014639903
0.00014099122
0.00013145703
0.00012631202
0.0001212141
0.0001172655
0.00011358135
0.00011018923
0.0001069875
0.00010386892
0.00010121942
9.8880411e-05
9.6705706e-05
9.4768771e-05
9.2982279e-05
9.1559147e-05
9.0167519e-05
8.9087703e-05
8.842106e-05
8.7821573e-05
1.510915e-14
4.7477812e-13
3.8822691e-12
1.6694577e-11
5.1364959e-11
1.2958013e-10
2.8722283e-10
5.8175393e-10
1.1030387e-09
1.9890618e-09
3.4485189e-09
5.7929689e-09
9.4820734e-09
1.5186399e-08
2.3873145e-08
3.6920638e-08
5.6266835e-08
8.4594053e-08
1.255448e-07
1.8394868e-07
2.660145e-07
3.7940222e-07
5.3303751e-07
7.3649463e-07
9.9878689e-07
1.3266181e-06
1.7227327e-06
2.1862809e-06
2.7203717e-06
3.3483426e-06
4.1272984e-06
5.1302845e-06
6.6246031e-06
9.0573269e-06
1.2840084e-05
1.9189357e-05
2.9511575e-05
4.4919621e-05
6.5742944e-05
9.1957966e-05
0.0001186638
0.00013802598
0.00014857712
0.0001501944
0.00014876537
0.00014386721
0.00013391937
0.00012843986
0.00012308728
0.00011885291
0.00011508085
0.0001116589
0.00010852189
0.0001052372
0.00010252561
9.9875293e-05
9.7611944e-05
9.5583085e-05
9.3831164e-05
9.2218529e-05
9.0810123e-05
8.9393998e-05
8.8433456e-05
8.7965968e-05
8.7413128e-05
6.6086887e-15
2.0766623e-13
1.6980892e-12
7.3021476e-12
2.2466966e-11
5.667886e-11
1.2563501e-10
2.5447508e-10
4.8252338e-10
8.7017883e-10
1.5088355e-09
2.5350363e-09
4.1504666e-09
6.6498843e-09
1.0459628e-08
1.6189887e-08
2.470432e-08
3.7210677e-08
5.5375564e-08
8.1465388e-08
1.1851448e-07
1.7052336e-07
2.4270321e-07
3.4182456e-07
4.768333e-07
6.60122e-07
9.1033694e-07
1.2582194e-06
1.7572605e-06
2.4907392e-06
3.6003337e-06
5.332306e-06
8.1424712e-06
1.2631282e-05
1.9731971e-05
3.0270454e-05
4.499379e-05
6.4544261e-05
8.9125965e-05
0.00011586791
0.00013898357
0.00015040917
0.00015247726
0.00015119323
0.00014678955
0.0001365967
0.00013080469
0.00012506493
0.00012065827
0.00011660704
0.00011319833
0.00010994211
0.00010678641
0.00010382998
0.00010110596
9.8714881e-05
9.6645726e-05
9.4743945e-05
9.3002888e-05
9.1401843e-05
9.0068946e-05
8.8852627e-05