/*--------------------------------*- C++ -*----------------------------------*\
  =========                 |
  \\      /  F ield         | OpenFOAM: The Open Source CFD Toolbox
   \\    /   O peration     | Website:  https://openfoam.org
    \\  /    A nd           | Version:  13
     \\/     M anipulation  |
\*---------------------------------------------------------------------------*/
FoamFile
{
    format      ascii;
    class       volScalarField;
    location    "32.996546";
    object      p;
}
// * * * * * * * * * * * * * * * * * * * * * * * * * * * * * * * * * * * * * //

dimensions      [0 2 -2 0 0 0 0];

internalField   nonuniform List<scalar> 
17140
(
-0.27945481
-0.27946297
-0.27947265
-0.27948298
-0.27949431
-0.27950682
-0.2795206
-0.27953574
-0.27955235
-0.27957053
-0.27959039
-0.27961203
-0.27963556
-0.27966105
-0.27968858
-0.27971822
-0.27974998
-0.27978388
-0.27981992
-0.27985803
-0.27989819
-0.27994034
-0.27998451
-0.28003083
-0.28007969
-0.28013193
-0.28018915
-0.28025421
-0.28033197
-0.28043024
-0.2805609
-0.28074052
-0.28098943
-0.28132777
-0.28176828
-0.28230865
-0.28292803
-0.2835903
-0.28425222
-0.28487234
-0.28541755
-0.28586672
-0.28621131
-0.28645269
-0.28660276
-0.28668514
-0.28672066
-0.28672735
-0.28672635
-0.28674352
-0.28679608
-0.28691166
-0.2870751
-0.28727156
-0.28725581
-0.28673975
-0.28457218
-0.27942243
-0.26752431
-0.24895647
-0.21741032
-0.19685378
-0.17912384
-0.17910035
-0.11273759
-0.2797173
-0.27972526
-0.27973494
-0.27974493
-0.27975587
-0.27976798
-0.27978131
-0.27979595
-0.27981202
-0.27982961
-0.27984882
-0.27986976
-0.27989252
-0.27991718
-0.2799438
-0.27997245
-0.28000315
-0.2800359
-0.28007068
-0.28010746
-0.28014618
-0.28018678
-0.28022929
-0.28027384
-0.2803208
-0.280371
-0.28042603
-0.28048872
-0.28056385
-0.28065914
-0.28078626
-0.2809615
-0.28120485
-0.28153611
-0.281968
-0.28249869
-0.28310827
-0.28376197
-0.28441805
-0.28503665
-0.2855863
-0.28604771
-0.28641457
-0.28669118
-0.28689383
-0.2870512
-0.28719214
-0.28734724
-0.2875556
-0.28786781
-0.28834008
-0.28905085
-0.29006491
-0.29145678
-0.29310145
-0.29483854
-0.29545182
-0.29321967
-0.28315305
-0.2622046
-0.22208499
-0.18832269
-0.15412958
-0.14437769
-0.082934325
-0.28005101
-0.28005858
-0.28006777
-0.28007729
-0.28008772
-0.28009925
-0.28011196
-0.28012592
-0.28014124
-0.28015801
-0.28017634
-0.28019631
-0.28021802
-0.28024153
-0.28026691
-0.28029422
-0.28032347
-0.28035467
-0.28038779
-0.28042278
-0.28045959
-0.28049816
-0.28053849
-0.28058072
-0.2806252
-0.28067275
-0.28072491
-0.28078445
-0.28085605
-0.28094722
-0.28106934
-0.28123824
-0.28147338
-0.28179415
-0.28221321
-0.28272933
-0.28332388
-0.28396377
-0.28460909
-0.28522178
-0.28577215
-0.28624284
-0.28662974
-0.28694007
-0.28719457
-0.28742667
-0.28767317
-0.2879774
-0.28839613
-0.28900506
-0.28989997
-0.29121185
-0.29308914
-0.29570151
-0.29905929
-0.30317537
-0.30687358
-0.30818636
-0.30020337
-0.27576981
-0.22637266
-0.17841683
-0.12850397
-0.10920316
-0.052052997
-0.2804521
-0.28045918
-0.28046775
-0.28047666
-0.28048642
-0.28049723
-0.28050914
-0.28052222
-0.28053659
-0.28055232
-0.2805695
-0.28058823
-0.28060859
-0.28063064
-0.28065445
-0.28068006
-0.28070748
-0.28073672
-0.28076774
-0.28080049
-0.28083491
-0.28087094
-0.28090858
-0.28094794
-0.28098938
-0.28103365
-0.28108228
-0.28113792
-0.2812051
-0.28129107
-0.28140676
-0.28156744
-0.28179185
-0.28209878
-0.28250085
-0.28299754
-0.28357175
-0.28419243
-0.28482181
-0.28542384
-0.28597079
-0.28644724
-0.28685129
-0.28719298
-0.28749748
-0.28780238
-0.28815263
-0.28860371
-0.28922981
-0.29013151
-0.29144417
-0.29335225
-0.29609027
-0.29992483
-0.30501251
-0.31157344
-0.31846742
-0.32333325
-0.31777669
-0.29008689
-0.22978654
-0.16755429
-0.10255111
-0.075462481
-0.022749307
-0.28091548
-0.28092196
-0.28092978
-0.28093794
-0.28094691
-0.28095683
-0.28096776
-0.28097978
-0.28099298
-0.28100744
-0.28102325
-0.28104047
-0.2810592
-0.28107949
-0.28110139
-0.28112494
-0.28115016
-0.28117704
-0.28120554
-0.28123561
-0.28126718
-0.28130019
-0.28133463
-0.28137059
-0.28140841
-0.28144883
-0.28149327
-0.28154429
-0.28160621
-0.28168592
-0.28179386
-0.28194453
-0.28215579
-0.28244575
-0.28282683
-0.28329935
-0.28384798
-0.28444398
-0.28505205
-0.2856384
-0.28617735
-0.28665551
-0.28707306
-0.287443
-0.28779424
-0.28816837
-0.2886183
-0.28921079
-0.29003696
-0.29122128
-0.29293793
-0.2954246
-0.29900094
-0.30402911
-0.31082544
-0.31986427
-0.33009591
-0.33880994
-0.33550039
-0.30378532
-0.23211688
-0.15290701
-0.07609031
-0.044096005
0.0035478099
-0.28143401
-0.28143978
-0.28144673
-0.28145403
-0.28146206
-0.28147095
-0.28148074
-0.28149153
-0.28150337
-0.28151635
-0.28153054
-0.28154601
-0.28156283
-0.28158106
-0.28160075
-0.28162192
-0.28164458
-0.28166872
-0.2816943
-0.28172127
-0.28174955
-0.28177908
-0.28180984
-0.28184192
-0.28187561
-0.28191161
-0.28195127
-0.281997
-0.28205287
-0.28212538
-0.28222433
-0.28236336
-0.28255931
-0.28282939
-0.28318582
-0.28362971
-0.28414768
-0.28471361
-0.2852949
-0.2858603
-0.28638633
-0.2868616
-0.28728833
-0.28768237
-0.28807573
-0.28851399
-0.28905706
-0.28978233
-0.29079654
-0.29224648
-0.29434356
-0.29737675
-0.30174833
-0.3079132
-0.31635993
-0.3277996
-0.34133778
-0.35389111
-0.3525039
-0.31602172
-0.23092293
-0.13730761
-0.050192148
-0.015783307
0.025155864
-0.28199894
-0.28200393
-0.28200989
-0.28201623
-0.2820232
-0.28203091
-0.28203943
-0.28204881
-0.28205912
-0.28207042
-0.28208279
-0.28209628
-0.28211096
-0.28212687
-0.28214405
-0.28216252
-0.2821823
-0.28220336
-0.28222566
-0.28224914
-0.28227373
-0.28229936
-0.282326
-0.28235373
-0.28238281
-0.28241388
-0.28244821
-0.28248804
-0.28253715
-0.2826016
-0.28269048
-0.28281643
-0.28299517
-0.28324285
-0.28357134
-0.28398254
-0.28446511
-0.28499572
-0.2855448
-0.28608381
-0.28659161
-0.28705888
-0.2874898
-0.28790267
-0.28833242
-0.28882797
-0.28945528
-0.29030124
-0.29148638
-0.29317753
-0.29562028
-0.29915022
-0.30424464
-0.3114323
-0.32142097
-0.33511784
-0.35178676
-0.36775461
-0.36758521
-0.3249397
-0.22789706
-0.12066049
-0.026425716
0.0077232985
0.042218514
-0.28259972
-0.28260386
-0.28260878
-0.28261406
-0.28261987
-0.2826263
-0.28263342
-0.28264125
-0.28264988
-0.28265934
-0.28266971
-0.28268102
-0.28269334
-0.2827067
-0.28272113
-0.28273665
-0.28275325
-0.28277093
-0.28278963
-0.28280929
-0.28282984
-0.2828512
-0.28287334
-0.28289632
-0.28292037
-0.28294608
-0.2829746
-0.28300799
-0.28304974
-0.28310538
-0.28318326
-0.28329497
-0.28345491
-0.2836781
-0.28397587
-0.28435085
-0.28479369
-0.28528406
-0.28579557
-0.28630265
-0.28678665
-0.28724031
-0.2876697
-0.28809536
-0.28855447
-0.28909858
-0.28979891
-0.29074991
-0.29208363
-0.2939837
-0.29672548
-0.30068309
-0.30639907
-0.31448573
-0.32578804
-0.34150618
-0.36084094
-0.37948759
-0.3789152
-0.33008283
-0.22328777
-0.10322186
-0.0065350913
0.024711972
0.051628098
-0.28322476
-0.283228
-0.28323186
-0.283236
-0.28324056
-0.28324563
-0.28325124
-0.28325743
-0.28326425
-0.28327175
-0.28327997
-0.28328895
-0.28329874
-0.28330936
-0.28332084
-0.28333319
-0.2833464
-0.28336045
-0.28337528
-0.28339085
-0.28340706
-0.28342384
-0.28344116
-0.28345904
-0.2834777
-0.28349765
-0.28351994
-0.28354643
-0.28358027
-0.28362649
-0.28369261
-0.2837891
-0.28392901
-0.28412606
-0.28439093
-0.28472674
-0.28512612
-0.28557173
-0.28604055
-0.28651016
-0.28696455
-0.28739857
-0.28782009
-0.28825166
-0.28873175
-0.28931405
-0.29007384
-0.29111074
-0.29256539
-0.29463409
-0.29761415
-0.30191322
-0.30813126
-0.31688715
-0.32925303
-0.34661302
-0.36792232
-0.38772831
-0.38500978
-0.33020677
-0.2175851
-0.097663798
0.00045129452
0.033174904
0.055762867
-0.2838612
-0.2838635
-0.28386625
-0.28386921
-0.28387248
-0.28387612
-0.28388016
-0.28388464
-0.28388957
-0.28389502
-0.283901
-0.28390754
-0.28391468
-0.28392245
-0.28393084
-0.28393987
-0.28394952
-0.28395977
-0.28397056
-0.28398183
-0.28399349
-0.28400548
-0.28401773
-0.28403026
-0.28404326
-0.28405716
-0.2840729
-0.28409212
-0.28411764
-0.28415394
-0.28420771
-0.28428828
-0.2844073
-0.28457705
-0.2848074
-0.28510179
-0.28545458
-0.28585142
-0.28627273
-0.28669941
-0.28711826
-0.28752624
-0.28793298
-0.2883627
-0.28885427
-0.28946278
-0.29026613
-0.29136623
-0.29290857
-0.29509619
-0.29823998
-0.30276076
-0.30928622
-0.31850938
-0.33167889
-0.35006088
-0.37238876
-0.39104442
-0.38386927
-0.32116656
-0.21145192
-0.099626139
-0.010089052
0.023094042
0.05016991
-0.28449621
-0.28449757
-0.28449919
-0.28450095
-0.28450291
-0.2845051
-0.28450755
-0.28451028
-0.28451331
-0.28451666
-0.28452035
-0.28452441
-0.28452886
-0.2845337
-0.28453894
-0.28454458
-0.28455059
-0.28455693
-0.28456357
-0.28457042
-0.28457741
-0.28458444
-0.28459146
-0.28459847
-0.28460559
-0.2846132
-0.2846221
-0.28463372
-0.28465054
-0.28467648
-0.2847174
-0.28478147
-0.28487894
-0.28502059
-0.28521543
-0.28546687
-0.28577071
-0.28611545
-0.28648488
-0.2868634
-0.2872407
-0.28761598
-0.28800052
-0.28841972
-0.28891233
-0.28953366
-0.29036247
-0.29150004
-0.29309228
-0.29534133
-0.29853666
-0.30318608
-0.30973502
-0.31921704
-0.33279337
-0.35176037
-0.3733217
-0.38927876
-0.37448501
-0.31050807
-0.20211032
-0.10357061
-0.023552993
0.0065318923
0.032950048
-0.28511615
-0.28511657
-0.28511709
-0.28511767
-0.28511833
-0.2851191
-0.28511998
-0.28512098
-0.28512211
-0.28512339
-0.28512483
-0.28512643
-0.2851282
-0.28513014
-0.28513224
-0.2851345
-0.28513688
-0.28513934
-0.28514182
-0.28514426
-0.28514655
-0.28514861
-0.28515037
-0.28515178
-0.28515295
-0.28515416
-0.28515606
-0.2851599
-0.28516777
-0.28518306
-0.28521083
-0.28525811
-0.28533397
-0.28544727
-0.28560581
-0.2858133
-0.2860664
-0.28635628
-0.28666993
-0.28699527
-0.28732504
-0.28766071
-0.28801517
-0.28841439
-0.28889668
-0.28951615
-0.29034998
-0.29149557
-0.29309364
-0.29531204
-0.29852425
-0.30310986
-0.30954958
-0.31890145
-0.33258319
-0.3511673
-0.37089784
-0.38113668
-0.35932062
-0.29559929
-0.19283669
-0.10859918
-0.03689546
-0.0073373886
0.018546551
-0.28570946
-0.28570899
-0.28570846
-0.28570791
-0.28570734
-0.28570675
-0.28570612
-0.28570547
-0.28570479
-0.28570408
-0.28570335
-0.28570258
-0.28570177
-0.28570091
-0.28569998
-0.28569897
-0.28569782
-0.2856965
-0.28569494
-0.28569305
-0.28569073
-0.28568789
-0.28568442
-0.28568027
-0.28567545
-0.28567018
-0.28566495
-0.28566077
-0.28565939
-0.28566362
-0.28567776
-0.28570756
-0.28576119
-0.28584426
-0.2859681
-0.28613142
-0.28633282
-0.28656605
-0.28682074
-0.28708839
-0.28736479
-0.28765385
-0.28796987
-0.28833897
-0.2887985
-0.28939985
-0.29021641
-0.29133967
-0.29289232
-0.29505248
-0.29817474
-0.30246928
-0.30876281
-0.31766145
-0.33099942
-0.34827039
-0.36445593
-0.36704652
-0.33879983
-0.27465621
-0.18680513
-0.11268224
-0.048543583
-0.020785115
0.0043155537
-0.28626376
-0.28626248
-0.28626099
-0.28625941
-0.28625771
-0.28625586
-0.28625385
-0.28625168
-0.28624933
-0.28624679
-0.28624404
-0.28624108
-0.28623788
-0.28623441
-0.28623067
-0.28622659
-0.28622215
-0.28621728
-0.2862119
-0.28620592
-0.28619923
-0.2861917
-0.2861832
-0.28617363
-0.28616295
-0.28615126
-0.28613889
-0.28612659
-0.28611574
-0.28610863
-0.28610877
-0.28611998
-0.28615564
-0.28621527
-0.28629581
-0.28641458
-0.28656344
-0.28673842
-0.28693127
-0.28713697
-0.28735425
-0.28758949
-0.28785816
-0.28818627
-0.2886091
-0.28917474
-0.2899499
-0.29101934
-0.29245904
-0.29454244
-0.29734575
-0.3013477
-0.30707977
-0.3154809
-0.32778383
-0.34298765
-0.35320097
-0.34832222
-0.31733038
-0.25706688
-0.1800513
-0.11604351
-0.058522488
-0.031774421
-0.0074038463
-0.28677185
-0.28676986
-0.28676752
-0.28676505
-0.28676235
-0.2867594
-0.28675618
-0.28675267
-0.28674884
-0.28674467
-0.28674015
-0.28673524
-0.28672991
-0.28672413
-0.28671786
-0.28671105
-0.28670364
-0.28669556
-0.28668672
-0.286677
-0.28666628
-0.28665441
-0.28664122
-0.28662655
-0.28661027
-0.28659237
-0.28657301
-0.28655267
-0.28653237
-0.28651383
-0.28649959
-0.28649638
-0.28650046
-0.28651797
-0.28657234
-0.28665441
-0.28674824
-0.28686589
-0.28699528
-0.2871356
-0.28728839
-0.28746245
-0.28767427
-0.2879495
-0.28831921
-0.28882829
-0.28953501
-0.29048949
-0.29180302
-0.29363772
-0.29614051
-0.2996689
-0.30479202
-0.31231364
-0.32335753
-0.33493419
-0.33801685
-0.32682226
-0.29365961
-0.24288317
-0.17393622
-0.11851676
-0.067060498
-0.041804615
-0.018586591
-0.28722476
-0.2872222
-0.28721918
-0.28721597
-0.28721247
-0.28720862
-0.28720441
-0.2871998
-0.28719476
-0.28718926
-0.28718327
-0.28717675
-0.28716966
-0.28716195
-0.28715356
-0.28714445
-0.28713453
-0.28712371
-0.28711189
-0.28709894
-0.28708468
-0.28706894
-0.28705149
-0.28703209
-0.28701052
-0.28698659
-0.28696024
-0.28693165
-0.28690139
-0.28687065
-0.28684126
-0.28681678
-0.28679896
-0.28680121
-0.28681768
-0.28684164
-0.28688862
-0.28694524
-0.28700943
-0.28708074
-0.28716355
-0.28726856
-0.28741298
-0.28762097
-0.28791833
-0.28834746
-0.28895157
-0.28976953
-0.29089992
-0.29238158
-0.29450035
-0.29737743
-0.30171456
-0.30851602
-0.31729321
-0.32287484
-0.32068608
-0.30590064
-0.27280386
-0.22813481
-0.16916776
-0.12031673
-0.074121135
-0.050048825
-0.027514311
-0.28762202
-0.28761905
-0.28761553
-0.28761179
-0.28760771
-0.2876032
-0.28759826
-0.28759284
-0.28758691
-0.28758042
-0.28757334
-0.28756561
-0.28755719
-0.28754802
-0.28753803
-0.28752715
-0.28751529
-0.28750235
-0.28748819
-0.28747265
-0.28745554
-0.28743661
-0.28741559
-0.28739214
-0.28736592
-0.28733657
-0.2873038
-0.28726747
-0.28722775
-0.28718529
-0.2871414
-0.2870984
-0.28705941
-0.28702561
-0.28699995
-0.28698495
-0.28697748
-0.2869735
-0.28697075
-0.28696985
-0.28697708
-0.2870043
-0.28706884
-0.28719114
-0.2873937
-0.28771422
-0.28817937
-0.28882374
-0.28964198
-0.29082615
-0.29238081
-0.29476342
-0.29854615
-0.3038156
-0.30856446
-0.30954718
-0.30307817
-0.28416053
-0.25606831
-0.21526637
-0.1643062
-0.12131758
-0.079955478
-0.057158088
-0.035634596
-0.28796036
-0.28795717
-0.28795339
-0.28794936
-0.28794495
-0.28794009
-0.28793474
-0.28792886
-0.28792242
-0.28791537
-0.28790765
-0.28789921
-0.28789
-0.28787994
-0.28786897
-0.28785698
-0.28784389
-0.28782954
-0.2878138
-0.28779646
-0.28777728
-0.28775596
-0.28773211
-0.28770531
-0.28767502
-0.28764068
-0.2876017
-0.28755754
-0.28750786
-0.28745264
-0.2873924
-0.28732838
-0.2872626
-0.28719687
-0.28713453
-0.28707403
-0.28701353
-0.28694904
-0.28687814
-0.28680197
-0.28672747
-0.2866664
-0.28663452
-0.28664712
-0.28672507
-0.28689549
-0.28717142
-0.28753991
-0.28808642
-0.28883638
-0.29015801
-0.29223141
-0.29491193
-0.29732866
-0.29808432
-0.29522798
-0.28457494
-0.26787659
-0.23988523
-0.20420411
-0.15996288
-0.1217979
-0.084550559
-0.062907142
-0.042096646
-0.28824604
-0.28824284
-0.28823905
-0.288235
-0.28823056
-0.28822565
-0.28822025
-0.28821431
-0.28820779
-0.28820063
-0.28819279
-0.2881842
-0.2881748
-0.28816451
-0.28815324
-0.2881409
-0.28812736
-0.28811247
-0.28809603
-0.28807781
-0.28805751
-0.28803475
-0.28800905
-0.28797983
-0.28794637
-0.28790784
-0.28786334
-0.28781189
-0.28775258
-0.28768473
-0.28760805
-0.28752288
-0.28743022
-0.28733144
-0.28722794
-0.28711934
-0.28700351
-0.28687633
-0.28673476
-0.28657889
-0.28641449
-0.28625126
-0.28609978
-0.28597398
-0.28588948
-0.2858714
-0.28588736
-0.2860394
-0.28622575
-0.28691601
-0.28791406
-0.28888088
-0.28936796
-0.28889144
-0.28671726
-0.28083069
-0.26837387
-0.25235389
-0.2265202
-0.19452052
-0.1556193
-0.12163427
-0.088099528
-0.067621416
-0.047679545
-0.28848409
-0.28848111
-0.28847758
-0.2884738
-0.28846965
-0.28846506
-0.28846
-0.28845443
-0.2884483
-0.28844156
-0.28843415
-0.28842603
-0.2884171
-0.2884073
-0.28839653
-0.28838468
-0.28837159
-0.28835709
-0.28834096
-0.28832291
-0.28830256
-0.28827945
-0.28825297
-0.28822237
-0.28818671
-0.28814488
-0.28809555
-0.28803728
-0.28796855
-0.2878879
-0.2877942
-0.28768682
-0.28756584
-0.28743189
-0.28728578
-0.28712718
-0.28695386
-0.28676148
-0.28654573
-0.2863038
-0.28603823
-0.28575372
-0.28545325
-0.28515796
-0.28488013
-0.28463233
-0.28448613
-0.28437408
-0.28459288
-0.28494928
-0.28493245
-0.28427255
-0.28244255
-0.279825
-0.27502413
-0.26651933
-0.25507274
-0.23851325
-0.21438078
-0.18569768
-0.15141047
-0.12100243
-0.090662509
-0.071297008
-0.052082121
-0.28868794
-0.28868544
-0.28868246
-0.28867927
-0.28867576
-0.28867187
-0.28866758
-0.28866283
-0.2886576
-0.28865183
-0.28864548
-0.28863847
-0.28863074
-0.2886222
-0.28861276
-0.28860227
-0.28859058
-0.28857748
-0.2885627
-0.28854589
-0.28852661
-0.28850427
-0.28847813
-0.28844722
-0.28841038
-0.28836613
-0.28831273
-0.2882482
-0.28817032
-0.28807688
-0.28796581
-0.28783547
-0.28768498
-0.28751422
-0.28732342
-0.28711219
-0.28687825
-0.28661661
-0.28632069
-0.28598228
-0.28560041
-0.28516715
-0.28469712
-0.28420672
-0.28373323
-0.28334102
-0.28308728
-0.28294963
-0.28285582
-0.28226605
-0.28084072
-0.27805166
-0.27476425
-0.2700646
-0.26317511
-0.25470298
-0.24215241
-0.2260167
-0.20370137
-0.17775587
-0.14724023
-0.11989769
-0.092382854
-0.074105146
-0.055698675
-0.2888719
-0.28887013
-0.28886802
-0.28886576
-0.28886326
-0.28886047
-0.28885738
-0.28885396
-0.28885016
-0.28884595
-0.28884128
-0.28883609
-0.2888303
-0.28882384
-0.28881659
-0.2888084
-0.28879908
-0.28878841
-0.28877606
-0.28876161
-0.28874452
-0.28872409
-0.28869939
-0.28866926
-0.28863223
-0.28858645
-0.28852974
-0.28845951
-0.28837288
-0.28826677
-0.28813819
-0.28798447
-0.28780367
-0.28759494
-0.28735777
-0.28709154
-0.28679337
-0.28645695
-0.28607212
-0.28562375
-0.28510684
-0.28452303
-0.28385665
-0.28322589
-0.28263056
-0.2822432
-0.28190805
-0.28144216
-0.28048519
-0.27870051
-0.27514664
-0.27138018
-0.26646128
-0.25996628
-0.25245774
-0.24302365
-0.23052442
-0.2147591
-0.19393423
-0.17036598
-0.14308286
-0.11839957
-0.093336544
-0.076105818
-0.058423687
-0.28906003
-0.28905927
-0.28905835
-0.28905735
-0.28905623
-0.28905497
-0.28905354
-0.28905193
-0.28905011
-0.28904804
-0.28904569
-0.289043
-0.28903989
-0.28903628
-0.28903205
-0.28902703
-0.28902101
-0.2890137
-0.28900474
-0.28899361
-0.28897968
-0.28896207
-0.2889397
-0.28891113
-0.28887459
-0.28882785
-0.28876822
-0.28869254
-0.28859722
-0.28847836
-0.28833205
-0.28815435
-0.28794247
-0.28769544
-0.28741126
-0.28708868
-0.28672302
-0.2863059
-0.28582199
-0.28525081
-0.28461057
-0.28384826
-0.28312415
-0.28239035
-0.28184397
-0.28135926
-0.28060623
-0.27934437
-0.27718974
-0.27331312
-0.26915528
-0.26406735
-0.2574043
-0.25027144
-0.242182
-0.23236317
-0.21971763
-0.20441301
-0.18502638
-0.1635051
-0.13892851
-0.11654402
-0.093632428
-0.077432822
-0.060445646
-0.28928012
-0.28928063
-0.28928121
-0.2892818
-0.28928241
-0.28928305
-0.28928371
-0.28928437
-0.28928501
-0.28928562
-0.28928616
-0.28928657
-0.28928679
-0.28928672
-0.28928622
-0.2892851
-0.28928312
-0.28927993
-0.28927509
-0.289268
-0.28925788
-0.2892437
-0.28922414
-0.28919753
-0.28916175
-0.28911418
-0.28905167
-0.2889705
-0.28886643
-0.2887349
-0.2885713
-0.28837068
-0.28812737
-0.2878423
-0.28751056
-0.28713039
-0.28669367
-0.28619181
-0.28561008
-0.28492385
-0.2841779
-0.28340402
-0.28264964
-0.28192125
-0.28127802
-0.28031125
-0.27878966
-0.27626707
-0.27236676
-0.26794246
-0.26275383
-0.25563767
-0.248555
-0.24111535
-0.23242633
-0.22220235
-0.20965164
-0.19487013
-0.17674487
-0.15700157
-0.13474449
-0.11437217
-0.093340227
-0.078145542
-0.061819172
-0.28957673
-0.2895787
-0.28958101
-0.28958343
-0.28958604
-0.28958886
-0.28959191
-0.28959516
-0.28959863
-0.28960229
-0.2896061
-0.28961003
-0.28961399
-0.28961788
-0.28962152
-0.28962472
-0.28962715
-0.28962843
-0.289628
-0.28962515
-0.28961896
-0.2896082
-0.28959135
-0.28956644
-0.28953103
-0.28948216
-0.28941626
-0.28932915
-0.28921597
-0.28907201
-0.28889702
-0.28866278
-0.28837971
-0.28806483
-0.28768937
-0.28725723
-0.28675538
-0.28618836
-0.28550759
-0.28477674
-0.28399484
-0.28325379
-0.28250463
-0.28163715
-0.28050696
-0.27875495
-0.2759668
-0.27188827
-0.26720896
-0.26190735
-0.25487973
-0.24740606
-0.24021658
-0.23214667
-0.22304218
-0.21263477
-0.20021323
-0.18595916
-0.1689914
-0.15080635
-0.13052744
-0.11191744
-0.09253859
-0.078316626
-0.062628661
-0.29000112
-0.29000463
-0.29000875
-0.2900131
-0.29001781
-0.29002292
-0.29002845
-0.29003441
-0.2900408
-0.29004759
-0.29005477
-0.29006227
-0.29007
-0.29007783
-0.29008556
-0.29009293
-0.29009956
-0.29010496
-0.29010848
-0.29010926
-0.29010618
-0.29009783
-0.29008242
-0.29005769
-0.2900209
-0.28996872
-0.28989721
-0.28980161
-0.2896761
-0.28952516
-0.28931939
-0.28906097
-0.28876895
-0.28841433
-0.28799736
-0.28751899
-0.2869534
-0.28633096
-0.28565933
-0.28491012
-0.28413077
-0.28337941
-0.28242353
-0.28112388
-0.27917264
-0.27619204
-0.27187075
-0.26698058
-0.26147677
-0.25469829
-0.24673193
-0.23971224
-0.23189782
-0.22343424
-0.21403898
-0.20349946
-0.19127902
-0.17756964
-0.16164154
-0.14482686
-0.12625631
-0.10920563
-0.091283838
-0.078003297
-0.06293091
-0.290627
-0.29063191
-0.29063768
-0.29064377
-0.29065035
-0.29065751
-0.29066525
-0.2906736
-0.29068254
-0.29069207
-0.29070214
-0.29071267
-0.29072356
-0.29073463
-0.29074564
-0.29075625
-0.290766
-0.29077431
-0.29078036
-0.29078316
-0.29078138
-0.2907734
-0.29075716
-0.29073015
-0.29068934
-0.29063111
-0.29055126
-0.29044465
-0.29030149
-0.29012294
-0.28991284
-0.28964906
-0.28932286
-0.28893857
-0.28848416
-0.2879679
-0.28739323
-0.28672975
-0.28604856
-0.28532514
-0.28449525
-0.28350478
-0.28210596
-0.27999588
-0.27688475
-0.27245835
-0.26737749
-0.26190836
-0.25481581
-0.2469922
-0.23984522
-0.2319875
-0.22374214
-0.21494945
-0.20532687
-0.19475381
-0.18277126
-0.16959553
-0.15461193
-0.13901453
-0.12192526
-0.10625985
-0.089629853
-0.077255481
-0.062777054
-0.29153762
-0.29154353
-0.29155047
-0.29155778
-0.29156567
-0.29157425
-0.29158351
-0.29159347
-0.29160411
-0.2916154
-0.29162728
-0.29163965
-0.29165235
-0.29166517
-0.29167779
-0.29168978
-0.2917006
-0.29170949
-0.29171553
-0.2917175
-0.29171388
-0.2917028
-0.29168197
-0.29164857
-0.29159923
-0.29152998
-0.29143606
-0.2913121
-0.29117823
-0.29101223
-0.29075994
-0.29043379
-0.29007556
-0.28966953
-0.28920142
-0.28865368
-0.28805272
-0.28739872
-0.28667906
-0.2858595
-0.2848156
-0.28335714
-0.28115958
-0.277972
-0.27349547
-0.26825193
-0.26273998
-0.25561158
-0.24790858
-0.24039912
-0.23242172
-0.22423766
-0.21568521
-0.20662994
-0.19686698
-0.18631479
-0.17459775
-0.16194843
-0.14782309
-0.13331284
-0.1175201
-0.10309612
-0.087618668
-0.076116459
-0.062214197
-0.29281684
-0.29282315
-0.29283054
-0.2928383
-0.29284667
-0.29285572
-0.29286545
-0.29287586
-0.2928869
-0.29289852
-0.29291063
-0.29292307
-0.29293564
-0.29294803
-0.29295985
-0.29297056
-0.29297947
-0.29298568
-0.29298806
-0.29298518
-0.2929753
-0.29295628
-0.2929255
-0.29287937
-0.29281378
-0.29273648
-0.29264891
-0.29253271
-0.29233609
-0.29208074
-0.29181499
-0.29149367
-0.29110902
-0.29066253
-0.29014864
-0.28957566
-0.28894126
-0.28823265
-0.28740585
-0.28635223
-0.2848312
-0.28259333
-0.27937956
-0.27491683
-0.26953402
-0.26399
-0.25688447
-0.24902177
-0.24133515
-0.23328187
-0.22506362
-0.21656258
-0.20771221
-0.19845486
-0.1886039
-0.17812328
-0.16669104
-0.1545528
-0.14121206
-0.12768165
-0.11303302
-0.099728729
-0.085286648
-0.074622466
-0.061277888
-0.29455678
-0.29456272
-0.29456966
-0.29457692
-0.29458468
-0.29459302
-0.2946019
-0.29461129
-0.29462112
-0.29463129
-0.29464164
-0.29465196
-0.29466195
-0.29467124
-0.29467928
-0.29468542
-0.2946888
-0.29468832
-0.29468264
-0.2946701
-0.29464864
-0.29461537
-0.29456732
-0.29451046
-0.29443873
-0.29434248
-0.29420452
-0.29400468
-0.29377383
-0.29351625
-0.29319919
-0.2928247
-0.29238727
-0.2918892
-0.29133138
-0.29070661
-0.29000214
-0.28917193
-0.28809156
-0.28656088
-0.28427538
-0.28109945
-0.2766922
-0.27120676
-0.2656173
-0.25858942
-0.25056484
-0.2427023
-0.23460629
-0.22625167
-0.21766967
-0.20886377
-0.19978211
-0.19037479
-0.18048765
-0.17011699
-0.15898216
-0.14734107
-0.13472231
-0.12208187
-0.10845277
-0.096166616
-0.08266243
-0.072803979
-0.060000435
-0.29683746
-0.29684237
-0.29684805
-0.29685393
-0.29686012
-0.29686665
-0.29687346
-0.29688046
-0.29688753
-0.29689449
-0.29690112
-0.2969071
-0.29691204
-0.29691539
-0.29691648
-0.29691445
-0.29690821
-0.29689643
-0.29687744
-0.29684906
-0.29680889
-0.29675714
-0.29669035
-0.29660317
-0.2964851
-0.29631816
-0.29611895
-0.29589366
-0.29562002
-0.29529438
-0.29491077
-0.29446728
-0.29396579
-0.29340298
-0.29277368
-0.2920628
-0.29121683
-0.29011614
-0.28855724
-0.28628807
-0.28307885
-0.27890779
-0.27335641
-0.26776389
-0.26076376
-0.25255889
-0.24450111
-0.23628645
-0.22778882
-0.21907903
-0.21019857
-0.20114284
-0.19186713
-0.18235352
-0.17247018
-0.16224105
-0.15141339
-0.14025522
-0.12830599
-0.11648139
-0.10377038
-0.092417224
-0.079770162
-0.070686762
-0.058408381
-0.2997602
-0.2997636
-0.29976744
-0.29977128
-0.29977515
-0.29977901
-0.29978275
-0.29978619
-0.29978915
-0.29979135
-0.29979244
-0.29979197
-0.29978936
-0.29978389
-0.29977463
-0.29976046
-0.29973996
-0.2997114
-0.29967263
-0.29962122
-0.29955561
-0.29947146
-0.29936178
-0.29921634
-0.29903917
-0.29883302
-0.29858462
-0.29828768
-0.29793657
-0.29752824
-0.29706316
-0.29653892
-0.29595284
-0.29530162
-0.29456461
-0.2936854
-0.29254494
-0.29094673
-0.28864403
-0.28542035
-0.28116547
-0.27574401
-0.27001059
-0.26313819
-0.25492724
-0.24669718
-0.23837916
-0.22971818
-0.22085095
-0.21181902
-0.2026491
-0.19336198
-0.18392833
-0.17434691
-0.16450304
-0.15444219
-0.14392966
-0.13324251
-0.12192016
-0.11085044
-0.098975658
-0.088484531
-0.07662849
-0.068292743
-0.056524268
-0.30349847
-0.30349969
-0.30350089
-0.3035018
-0.30350235
-0.30350238
-0.30350171
-0.30350009
-0.30349719
-0.30349261
-0.30348584
-0.30347623
-0.30346299
-0.30344513
-0.3034214
-0.30339032
-0.30335006
-0.3032984
-0.30323274
-0.30315015
-0.30304691
-0.30291596
-0.30275546
-0.30256342
-0.3023318
-0.30205475
-0.30172657
-0.30134324
-0.30090309
-0.30040363
-0.29984275
-0.29921985
-0.298528
-0.29774399
-0.29680887
-0.29560572
-0.29394792
-0.29160004
-0.28835645
-0.28409525
-0.27871414
-0.27269617
-0.26602579
-0.25766699
-0.24930617
-0.24089227
-0.23207819
-0.22300823
-0.21376697
-0.20440784
-0.19497018
-0.18548363
-0.17592601
-0.16631213
-0.15653952
-0.14667083
-0.13648154
-0.1262562
-0.11552699
-0.1051628
-0.094059065
-0.08437089
-0.073252881
-0.065639765
-0.054368853
-0.30832429
-0.30832217
-0.30831933
-0.30831581
-0.30831133
-0.30830564
-0.30829844
-0.30828935
-0.3082779
-0.30826351
-0.30824547
-0.3082229
-0.30819472
-0.30815962
-0.308116
-0.30806193
-0.30799511
-0.30791281
-0.30781181
-0.30768841
-0.30753836
-0.30735688
-0.30713891
-0.30687878
-0.30657083
-0.30621031
-0.30579356
-0.3053167
-0.30477673
-0.30417242
-0.3035009
-0.3027525
-0.30190011
-0.30088243
-0.29958431
-0.29783021
-0.29539896
-0.29209306
-0.28780502
-0.282426
-0.27628937
-0.2695737
-0.26136093
-0.25269396
-0.24411749
-0.23499063
-0.2256429
-0.21612548
-0.20649681
-0.19681981
-0.187131
-0.17746878
-0.16781801
-0.15820446
-0.14853304
-0.13887923
-0.1290226
-0.11925344
-0.10909214
-0.099394255
-0.089010856
-0.080076714
-0.069655338
-0.06274382
-0.051958955
-0.31454377
-0.31453662
-0.31452774
-0.31451762
-0.31450574
-0.31449166
-0.31447496
-0.3144551
-0.31443144
-0.31440318
-0.31436936
-0.31432883
-0.31428018
-0.31422175
-0.31415152
-0.31406712
-0.31396574
-0.3138441
-0.31369842
-0.3135244
-0.31331721
-0.31307158
-0.31278221
-0.31244387
-0.31205144
-0.31159986
-0.31108489
-0.31050348
-0.30985229
-0.30912535
-0.30830853
-0.30736952
-0.30624305
-0.30481527
-0.30291807
-0.30034889
-0.29691228
-0.29251609
-0.28706434
-0.28072327
-0.27387307
-0.26561122
-0.2568168
-0.24789562
-0.23846823
-0.22879834
-0.21895136
-0.20898702
-0.19898012
-0.18899639
-0.17907775
-0.16926882
-0.15955752
-0.14997758
-0.14043746
-0.13102185
-0.12150974
-0.11219524
-0.10258463
-0.093522752
-0.083821539
-0.07560045
-0.065845501
-0.059614685
-0.04931099
-0.32252486
-0.3225106
-0.32249319
-0.32247381
-0.32245159
-0.32242587
-0.32239607
-0.32236148
-0.32232121
-0.32227425
-0.32221934
-0.32215502
-0.32207949
-0.3219907
-0.32188625
-0.32176328
-0.32161849
-0.32144809
-0.32124783
-0.32101307
-0.32073872
-0.32041943
-0.32004955
-0.31962344
-0.31913588
-0.31858201
-0.31795681
-0.31725407
-0.31646341
-0.31556476
-0.31451903
-0.3132555
-0.31165966
-0.30956963
-0.30679463
-0.30315529
-0.29854169
-0.29291906
-0.28629239
-0.2791816
-0.27079597
-0.26171794
-0.25243931
-0.24266399
-0.23261453
-0.22235295
-0.21196672
-0.20154464
-0.19116026
-0.18088428
-0.17075966
-0.16083395
-0.15109597
-0.14158413
-0.13220688
-0.12305458
-0.11390225
-0.10504552
-0.095976021
-0.087527891
-0.078481953
-0.070939455
-0.061831286
-0.056258787
-0.046448972
-0.33259169
-0.33256788
-0.33253907
-0.33250739
-0.3324715
-0.33243048
-0.33238357
-0.33232985
-0.33226821
-0.33219733
-0.33211573
-0.33202169
-0.33191301
-0.33178716
-0.3316414
-0.3314725
-0.33127669
-0.33104978
-0.33078724
-0.33048402
-0.3301347
-0.32973362
-0.32927495
-0.32875269
-0.32816046
-0.32749088
-0.32673389
-0.32587359
-0.32488261
-0.32371359
-0.3222885
-0.32048949
-0.31815738
-0.31510891
-0.31117586
-0.30624534
-0.3002837
-0.29333405
-0.28580541
-0.2771454
-0.26764567
-0.25788512
-0.24768365
-0.23715815
-0.22640156
-0.21551109
-0.20458372
-0.19370765
-0.18296067
-0.17241563
-0.16211534
-0.15210842
-0.14238192
-0.13297598
-0.12379618
-0.11493532
-0.10616215
-0.097771197
-0.08924052
-0.081391092
-0.072983763
-0.066091147
-0.057620663
-0.052694066
-0.043354454
-0.34507597
-0.3450402
-0.34499714
-0.34495009
-0.34489717
-0.34483723
-0.34476938
-0.34469223
-0.34460395
-0.34450487
-0.34440223
-0.34428495
-0.34412929
-0.34394689
-0.3437513
-0.3435315
-0.34327934
-0.34299015
-0.34265912
-0.34228127
-0.34185061
-0.34136064
-0.34080415
-0.34017266
-0.33945534
-0.33863703
-0.33769462
-0.33659162
-0.33527041
-0.33364361
-0.33158737
-0.32894378
-0.32553352
-0.32119962
-0.31583089
-0.30938213
-0.30193933
-0.29381723
-0.28477039
-0.27472352
-0.2643792
-0.25364036
-0.24254092
-0.23119414
-0.21970463
-0.20817491
-0.19670333
-0.18538446
-0.17429731
-0.16351475
-0.15307717
-0.14303144