/*--------------------------------*- C++ -*----------------------------------*\
  =========                 |
  \\      /  F ield         | OpenFOAM: The Open Source CFD Toolbox
   \\    /   O peration     | Website:  https://openfoam.org
    \\  /    A nd           | Version:  13
     \\/     M anipulation  |
\*---------------------------------------------------------------------------*/
FoamFile
{
    format      ascii;
    class       surfaceScalarField;
    location    "38.801805";
    object      phi;
}
// * * * * * * * * * * * * * * * * * * * * * * * * * * * * * * * * * * * * * //

dimensions      [0 3 -1 0 0 0 0];

internalField   nonuniform List<scalar> 
34068
(
-1.1044936e-08
6.2255517e-08
-5.1210581e-08
-4.9161557e-08
2.1519147e-07
-1.7707485e-07
-1.2339626e-07
4.1959918e-07
-3.4536447e-07
-2.4515742e-07
6.8893752e-07
-5.6717635e-07
-4.2877326e-07
1.0398107e-06
-8.561949e-07
-6.9216923e-07
1.492642e-06
-1.2292461e-06
-1.0576876e-06
2.0724691e-06
-1.7069507e-06
-1.5530534e-06
2.80988e-06
-2.3145142e-06
-2.2125347e-06
3.7421071e-06
-3.0826258e-06
-3.0783426e-06
4.9142969e-06
-4.048489e-06
-4.2022742e-06
6.3809578e-06
-5.2570262e-06
-5.6476422e-06
8.207602e-06
-6.7622339e-06
-7.491516e-06
1.0472563e-05
-8.6286886e-06
-9.8272907e-06
1.3268968e-05
-1.0933194e-05
-1.2767608e-05
1.6706818e-05
-1.3766501e-05
-1.6447593e-05
2.0915062e-05
-1.7235077e-05
-2.1028396e-05
2.6043543e-05
-2.1462739e-05
-2.6700924e-05
3.226458e-05
-2.6592052e-05
-3.3689629e-05
3.9773836e-05
-3.2785131e-05
-4.2256092e-05
4.8790058e-05
-4.0223594e-05
-5.2702068e-05
5.9553012e-05
-4.9107037e-05
-6.5371463e-05
7.2318872e-05
-5.9649477e-05
-8.0650501e-05
8.7351977e-05
-7.207294e-05
-9.8965188e-05
0.00010491199
-8.6597307e-05
-0.00012077479
0.00012523534
-0.00010342574
-0.00014655993
0.00014851059
-0.00012272546
-0.00017680379
0.00017484903
-0.00014460517
-0.00021196556
0.00020425528
-0.0001690935
-0.00025244728
0.00023661019
-0.00019612847
-0.00029855973
0.00027168846
-0.00022557601
-0.00035050086
0.00030924156
-0.00025730042
-0.00040836645
0.00034916036
-0.00029129477
-0.00047220596
0.00039166976
-0.00032783025
-0.00054210948
0.00043743676
-0.00036753325
-0.00061828526
0.00048751412
-0.00041133834
-0.00070109798
0.00054319666
-0.00046038394
-0.00079107254
0.00060593708
-0.00051596252
-0.00088888785
0.00067738208
-0.00057956677
-0.00099538126
0.00075950348
-0.00065301007
-0.0011115745
0.00085479015
-0.00073859693
-0.0012387271
0.00096649134
-0.0008393387
-0.0013784246
0.0010989173
-0.0009592198
-0.0015327121
0.0012578086
-0.0011035211
-0.0017042908
0.0014507941
-0.0012792155
-0.001896753
0.001687749
-0.0014952868
-0.0021148365
0.0019809722
-0.0017628887
-0.0023648209
0.002345736
-0.0020957515
-0.0026550129
0.0028003604
-0.0025101684
-0.0029962764
0.0033652725
-0.003024009
-0.0034027651
0.0040609117
-0.003654423
-0.0038929784
0.0049023412
-0.0044121278
-0.0044912505
0.0058867418
-0.0052884698
-0.0052292894
0.0069662829
-0.006228244
-0.0061466567
0.0079941055
-0.0070767383
-0.0072868985
0.0086256373
-0.0074853954
-0.0086831963
0.0081553901
-0.0067590923
-0.010304883
0.0052318731
-0.0036101869
-0.011942096
-0.0024247087
0.0040619224
-0.0129912
-0.017768604
0.018817708
-0.012501457
-0.042466083
0.041976339
-0.010078583
-0.072098568
0.069675694
-0.0063667395
-0.095201748
0.091489904
-0.00093094514
-0.093996374
0.08856058
0.01202196
-0.040819392
0.027866487
0.057613288
0.032695145
-0.078286473
-1.0817745e-08
7.3073262e-08
-4.815208e-08
2.5252581e-07
-1.208675e-07
4.923146e-07
-2.4014769e-07
8.082177e-07
-4.2003723e-07
1.2197003e-06
-6.7810098e-07
1.7507058e-06
-1.0362202e-06
2.4305884e-06
-1.5215508e-06
3.2952105e-06
-2.1676722e-06
4.3882285e-06
-3.0159533e-06
5.7625781e-06
-4.1171736e-06
7.4821782e-06
-5.533418e-06
9.6238463e-06
-7.3402943e-06
1.2279439e-05
-9.629472e-06
1.5558146e-05
-1.2511578e-05
1.9588924e-05
-1.611943e-05
2.4522914e-05
-2.061157e-05
3.0535683e-05
-2.6176014e-05
3.7829024e-05
-3.3034111e-05
4.6631932e-05
-4.1444214e-05
5.7200161e-05
-5.1704886e-05
6.9813683e-05
-6.4157066e-05
8.4771051e-05
-7.9184562e-05
0.00010237947
-9.7211839e-05
0.00012293927
-0.0001186979
0.00014672141
-0.0001441248
0.00017393749
-0.00017397911
0.00020470334
-0.00020872544
0.00023900161
-0.00024877266
0.00027665741
-0.00029443818
0.00031735398
-0.00034592318
0.00036072656
-0.00040331879
0.00040655597
-0.00046665798
0.00045500895
-0.00053600176
0.00050678054
-0.00061151968
0.00056303204
-0.00069353105
0.00062520804
-0.00078250858
0.00069491461
-0.00087906877
0.00077394226
-0.00098397076
0.00086440546
-0.0010981352
0.00096895458
-0.0012226893
0.0010910455
-0.001359045
0.0012352729
-0.0015090195
0.0014077831
-0.0016750171
0.0016167918
-0.00186025
0.0018729819
-0.0020689884
0.0021897105
-0.0023069404
0.002583688
-0.0025817446
0.0030751646
-0.0029035397
0.0036870677
-0.0032858101
0.004443182
-0.003746701
0.005363232
-0.00431102
0.0064510608
-0.0050126854
0.0076679484
-0.0058967029
0.008878123
-0.0070181137
0.0097470481
-0.0084314747
0.0095687511
-0.010136721
0.0069371191
-0.011939467
-0.00062196242
-0.01312468
-0.01658339
-0.01259417
-0.042996593
-0.010081681
-0.074611057
-0.0065187827
-0.098764646
-0.0021806456
-0.098334511
0.0078851836
-0.050885221
0.039051774
0.026446698
-1.0429836e-08
8.3503098e-08
-4.6430757e-08
2.8852673e-07
-1.165572e-07
5.6244105e-07
-2.3160217e-07
9.2326267e-07
-4.051206e-07
1.3932187e-06
-6.5406684e-07
1.999652e-06
-9.9956259e-07
2.7760842e-06
-1.4678281e-06
3.7634761e-06
-2.0912905e-06
5.0116908e-06
-2.909914e-06
6.5812017e-06
-3.9727699e-06
8.545034e-06
-5.3398905e-06
1.0990967e-05
-7.084424e-06
1.4023972e-05
-9.2951357e-06
1.7768858e-05
-1.2079245e-05
2.2373034e-05
-1.5565627e-05
2.8009296e-05
-1.9908324e-05
3.4878379e-05
-2.5290322e-05
4.3211022e-05
-3.1927436e-05
5.3269047e-05
-4.0072129e-05
6.5344853e-05
-5.0016882e-05
7.9758436e-05
-6.2096683e-05
9.6850852e-05
-7.668991e-05
0.0001169727
-9.421664e-05
0.000140466
-0.00011513322
0.00016763799
-0.00013992145
0.00019872572
-0.00016907077
0.00023385266
-0.00020305216
0.000272983
-0.00024228401
0.00031588927
-0.00028709458
0.00036216455
-0.00033769291
0.00041132488
-0.00039416833
0.00046303139
-0.00045653587
0.00051737649
-0.00052482033
0.000575065
-0.00059914034
0.00063735204
-0.00067975418
0.00070582188
-0.00076706436
0.00078222478
-0.00086160408
0.00086848199
-0.00096402902
0.0009668304
-0.0010751265
0.0010800521
-0.0011958489
0.0012117678
-0.0013273764
0.0013668004
-0.0014712195
0.0015516262
-0.001629374
0.0017749462
-0.001804515
0.002048123
-0.0020002279
0.0023854234
-0.0022213398
0.0028047999
-0.0024743582
0.0033281829
-0.0027680162
0.0039807257
-0.0031141138
0.0047892797
-0.0035289203
0.0057780385
-0.0040354354
0.006957576
-0.004666392
0.0082989049
-0.0054671897
0.0096789208
-0.0064971064
0.010776965
-0.0078225981
0.010894243
-0.0094573457
0.0085718667
-0.011193855
0.0011145469
-0.01221743
-0.015559815
-0.011293325
-0.043920699
-0.0083175617
-0.07758682
-0.0046397022
-0.10244251
-0.00088818894
-0.10208602
0.0070132652
-0.058786675
0.022815765
0.023249274
-9.8759357e-09
9.3379034e-08
-4.3974012e-08
3.2262481e-07
-1.1040637e-07
6.2887341e-07
-2.1940909e-07
1.0322654e-06
-3.8383971e-07
1.5576493e-06
-6.1978173e-07
2.2355941e-06
-9.4728018e-07
3.1035826e-06
-1.3912222e-06
4.2074182e-06
-1.982403e-06
5.6028716e-06
-2.7587908e-06
7.3575895e-06
-3.7670384e-06
9.5532816e-06
-5.0642597e-06
1.2288188e-05
-6.7201175e-06
1.567983e-05
-8.8192372e-06
1.9867978e-05
-1.1463981e-05
2.5017777e-05
-1.4777578e-05
3.1322893e-05
-1.8907604e-05
3.9008406e-05
-2.4029749e-05
4.8333167e-05
-3.0351758e-05
5.9591056e-05
-3.8117358e-05
7.3110452e-05
-4.7609892e-05
8.925097e-05
-5.9155159e-05
0.00010839612
-7.3122816e-05
0.00013094036
-8.9925439e-05
0.00015726862
-0.00011001394
0.00018772649
-0.00013386786
0.00022257964
-0.00016197861
0.00026196341
-0.00019482419
0.00030582858
-0.00023283505
0.00035390013
-0.00027635454
0.00040568404
-0.00032560461
0.00046057495
-0.0003806764
0.00051810318
-0.00044156633
0.00057826642
-0.00050825617
0.00064175483
-0.00058080098
0.00070989686
-0.00065938153
0.00078440243
-0.00074431087
0.00086715412
-0.00083601679
0.00096018791
-0.00093502462
0.0010658382
-0.0010419543
0.0011869818
-0.0011575382
0.0013273517
-0.0012826637
0.001491926
-0.0014184503
0.0016874128
-0.0015663674
0.0019228633
-0.0017283846
0.0022101401
-0.001907159
0.0025641978
-0.0021062918
0.0030039327
-0.0023306435
0.0035525346
-0.0025867624
0.0042368447
-0.0028835748
0.005086092
-0.0032336432
0.006128107
-0.0036553297
0.0073792625
-0.0041758099
0.0088193851
-0.0048340373
0.010337148
-0.0056830491
0.011625977
-0.0067851511
0.011996345
-0.0081461158
0.0099328314
-0.0095090994
0.0024775305
-0.0099339099
-0.015135004
-0.008051332
-0.045803277
-0.0041404433
-0.081497709
-0.0001803
-0.10640265
0.0031584207
-0.10542475
0.0097430554
-0.06537131
0.0085206208
0.024038199
-9.1558964e-09
1.0253493e-07
-4.0777276e-08
3.5424619e-07
-1.0239874e-07
6.9049488e-07
-2.0352994e-07
1.1333966e-06
-3.5611877e-07
1.7102382e-06
-5.7511766e-07
2.4545929e-06
-8.7916625e-07
3.4076312e-06
-1.291423e-06
4.6196749e-06
-1.840556e-06
6.1520047e-06
-2.5619439e-06
8.0789774e-06
-3.4990917e-06
1.0490429e-05
-4.7053243e-06
1.3494421e-05
-6.2457604e-06
1.7220266e-05
-8.1996361e-06
2.1821853e-05
-1.0662968e-05
2.7481109e-05
-1.3751601e-05
3.4411526e-05
-1.7604614e-05
4.2861418e-05
-2.2388058e-05
5.3116611e-05
-2.8298949e-05
6.5501947e-05
-3.5569332e-05
8.0380835e-05
-4.4470154e-05
9.8151792e-05
-5.5314557e-05
0.00011924052
-6.8459911e-05
0.00014408571
-8.4307777e-05
0.00017311649
-0.00010330048
0.00020671919
-0.00012591277
0.00024519193
-0.00015263663
0.00028868726
-0.00018395725
0.0003371492
-0.00022031929
0.00039026217
-0.00026208536
0.00044745011
-0.00030949573
0.00050798532
-0.00036264801
0.00057125545
-0.00042152053
0.00063713895
-0.00048604606
0.00070628036
-0.0005562035
0.0007800543
-0.00063207871
0.00086027763
-0.00071387493
0.00094895035
-0.0008018911
0.0010482041
-0.00089649415
0.0011604413
-0.00099810118
0.0012885888
-0.0011071776
0.001436428
-0.0012242547
0.0016090031
-0.0013499726
0.0018131307
-0.0014851511
0.0020580418
-0.001630878
0.002355867
-0.0017886241
0.002721944
-0.0019603828
0.0031756913
-0.0021488042
0.003740956
-0.0023573825
0.004445423
-0.0025908088
0.0053195183
-0.0028557893
0.0063930875
-0.0031626511
0.0076861243
-0.0035276607
0.0091843946
-0.0039744106
0.010783898
-0.00453496
0.012186526
-0.0052469971
0.012708382
-0.0060679857
0.01075382
-0.0066332535
0.0030427983
-0.0057765849
-0.015991673
-0.0020720161
-0.049507846
0.003400062
-0.086969787
0.0075397849
-0.11054237
0.010306771
-0.10819173
0.016037527
-0.071102065
-0.0046880803
0.029246228
-8.2719058e-09
1.1080684e-07
-3.6851248e-08
3.8282553e-07
-9.2562131e-08
7.4620576e-07
-1.8402035e-07
1.2248548e-06
-3.2205666e-07
1.8482745e-06
-5.2023095e-07
2.6527672e-06
-7.954601e-07
3.6828604e-06
-1.1687733e-06
4.9929881e-06
-1.6662325e-06
6.6494639e-06
-2.32003e-06
8.7327748e-06
-3.1698059e-06
1.1340205e-05
-4.2642188e-06
1.4588834e-05
-5.662805e-06
1.8618853e-05
-7.4381551e-06
2.3597203e-05
-9.6784528e-06
2.9721407e-05
-1.2490396e-05
3.7223469e-05
-1.6002511e-05
4.6373534e-05
-2.0368841e-05
5.748294e-05
-2.5772945e-05
7.0906051e-05
-3.2432109e-05
8.7039999e-05
-4.0601485e-05
0.00010632117
-5.057787e-05
0.00012921691
-6.2702496e-05
0.00015621034
-7.7362001e-05
0.00018777599
-9.4986456e-05
0.00022434365
-0.00011604273
0.0002662482
-0.00014102126
0.0003136658
-0.0001704139
0.00036654184
-0.00020468102
0.00042452928
-0.00024420838
0.00048697747
-0.00028926027
0.00055303721
-0.0003399464
0.00062194158
-0.00039622944
0.00069342198
-0.00045798863
0.00076803955
-0.00052511453
0.0008471802
-0.00059758018
0.00093274329
-0.00067545756
0.0010268277
-0.00075889222
0.0011316387
-0.00084806372
0.0012496128
-0.00094314996
0.001383675
-0.0010443019
0.00153758
-0.0011516302
0.0017163315
-0.0012652059
0.0019267064
-0.0013850714
0.0021779074
-0.0015112501
0.0024820457
-0.0016437617
0.0028544555
-0.0017825895
0.0033145192
-0.0019275666
0.0038859331
-0.0020781862
0.0045960427
-0.0022333896
0.0054747218
-0.0023915717
0.0065512695
-0.0025510801
0.0078456327
-0.0027108963
0.0093442109
-0.0028682785
0.01094128
-0.0030179172
0.012336165
-0.003142579
0.012833044
-0.0030934222
0.010704663
-0.0022926206
0.0022419967
0.00081213084
-0.019096424
0.0073952995
-0.056091014
0.015116552
-0.09469104
0.019565068
-0.11499089
0.021241039
-0.1098677
0.025935576
-0.075796602
-0.017419831
0.038667327
-7.2320567e-09
1.1803889e-07
-3.2232022e-08
4.0782549e-07
-8.0986356e-08
7.949601e-07
-1.6105785e-07
1.3049263e-06
-2.8195962e-07
1.9691763e-06
-4.5561287e-07
2.8264205e-06
-6.9690215e-07
3.9241496e-06
-1.0243527e-06
5.3204386e-06
-1.4609507e-06
7.0860619e-06
-2.0351343e-06
9.3069584e-06
-2.7819853e-06
1.2087056e-05
-3.7446628e-06
1.5551511e-05
-4.9760959e-06
1.9850286e-05
-6.5410141e-06
2.5162122e-05
-8.5183125e-06
3.1698705e-05
-1.1003818e-05
3.9708974e-05
-1.4113471e-05
4.9483187e-05
-1.7986932e-05
6.1356402e-05
-2.2791564e-05
7.5710683e-05
-2.8726751e-05
9.2975187e-05
-3.6028351e-05
0.00011362277
-4.4972932e-05
0.00013816149
-5.5881414e-05
0.00016711882
-6.9121246e-05
0.00020101583
-8.5105983e-05
0.00024032838
-0.00010429081
0.00028543303
-0.00012716165
0.00033653664
-0.00015421548
0.00039359568
-0.00018592896
0.00045624276
-0.00022271416
0.00052376268
-0.0002648652
0.00059518825
-0.00031251078
0.00066958717
-0.00036560232
0.00074651352
-0.00042396331
0.00082640054
-0.00048738505
0.00091060193
-0.00055570966
0.0010010679
-0.0006288555
0.0010999736
-0.00070678924
0.0012095725
-0.00078947351
0.0013322971
-0.00087681065
0.0014710122
-0.00096858979
0.0016293591
-0.0010644368
0.0018121785
-0.0011637641
0.0020260337
-0.0012657095
0.0022798528
-0.0013690469
0.0025853831
-0.0014720746
0.0029574832
-0.0015723588
0.0034148034
-0.0016662822
0.0039798565
-0.001748337
0.0046780974
-0.0018100821
0.0055364669
-0.0018388992
0.0065800866
-0.0018168688
0.0078236023
-0.0017186918
0.0092460339
-0.001502062
0.01072465
-0.0011085491
0.011942652
-0.00042601206
0.012150507
0.00085784055
0.0094208106
0.0037394044
-0.00063956711
0.010143324
-0.025500343
0.020387432
-0.066335123
0.030759864
-0.10506347
0.036087387
-0.12031841
0.036565203
-0.11034552
0.039654161
-0.07888556
-0.029624014
0.051858344
-6.050583e-09
1.2408948e-07
-2.6981265e-08
4.2875617e-07
-6.7824677e-08
8.3580351e-07
-1.3494416e-07
1.3720458e-06
-2.3635339e-07
2.0705855e-06
-3.8210561e-07
2.9721727e-06
-5.8477093e-07
4.126815e-06
-8.6002191e-07
5.5956896e-06
-1.2273405e-06
7.4533805e-06
-1.7108852e-06
9.7905031e-06
-2.3405381e-06
1.2716709e-05
-3.1531668e-06
1.636414e-05
-4.1941562e-06
2.0891275e-05
-5.5192238e-06
2.6487189e-05
-7.1966052e-06
3.3376087e-05
-9.3096125e-06
4.1821981e-05
-1.1959643e-05
5.2133217e-05
-1.526966e-05
6.4666419e-05
-1.9388147e-05
7.982917e-05
-2.4493472e-05
9.8080511e-05
-3.07986e-05
0.0001199279
-3.8555884e-05
0.00014591877
-4.8061529e-05
0.00017662446
-5.9659035e-05
0.00021261333
-7.3740662e-05
0.00025441001
-9.0745206e-05
0.00030243757
-0.00011115007
0.0003569415
-0.00013545454
0.00041790015
-0.00016415079
0.00048493901
-0.0001976793
0.00055729119
-0.00023636941
0.00063387835
-0.00028037676
0.00071359452
-0.00032964848
0.00079578525
-0.00038395315
0.00088070521
-0.00044297391
0.00096962269
-0.00050640447
0.0010644985
-0.00057398652
0.0011675556
-0.00064548165
0.0012810676
-0.00072060571
0.0014074211
-0.00079894958
0.0015493561
-0.00087989448
0.001710304
-0.00096251912
0.0018948031
-0.0010454905
0.0021090051
-0.0011269172
0.0023612796
-0.001204143
0.0026626088
-0.001273477
0.0030268172
-0.0013296615
0.0034709879
-0.0013649931
0.004015188
-0.0013679435
0.0046810479
-0.001321011
0.0054895344
-0.0011978873
0.0064569629
-0.00096021369
0.0075859287
-0.00055182982
0.00883765
0.00012098822
0.010051832
0.0011938588
0.010869781
0.0029161299
0.010428236
0.0058615254
0.0064754152
0.011531136
-0.0063091775
0.021810085
-0.035779292
0.035517052
-0.08004209
0.04761857
-0.11716499
0.054429037
-0.12712888
0.0553909
-0.11130738
0.057299334
-0.080793995
-0.040936093
0.068611413
-4.7479429e-09
1.2883742e-07
-2.1190182e-08
4.4519841e-07
-5.3304803e-08
8.6791813e-07
-1.0613004e-07
1.424871e-06
-1.860208e-07
2.1504762e-06
-3.0096505e-07
3.087117e-06
-4.6097543e-07
4.2868253e-06
-6.7856526e-07
5.8132794e-06
-9.6933975e-07
7.744155e-06
-1.3527156e-06
1.0173879e-05
-1.8528062e-06
1.32168e-05
-2.4995023e-06
1.7010836e-05
-3.3297949e-06
2.1721568e-05
-4.3893659e-06
2.754676e-05
-5.7345382e-06
3.4721259e-05
-7.4346062e-06
4.3522049e-05
-9.5746283e-06
5.4273239e-05
-1.2258707e-05
6.7350498e-05
-1.5613861e-05
8.3184324e-05
-1.9794423e-05
0.00010226107
-2.4986933e-05
0.00012512041
-3.1415457e-05
0.0001523473
-3.9346863e-05
0.00018455587
-4.9095645e-05
0.00022236211
-6.1027264e-05
0.00026634163
-7.5558597e-05
0.0003169689
-9.3153238e-05
0.00037453614
-0.00011430842
0.00043905533
-0.00013952927
0.00051015986
-0.00016928511
0.00058704703
-0.00020394508
0.00066853833
-0.00024370038
0.00075334982
-0.00028850348
0.00084058834
-0.00033807236
0.00093027409
-0.00039197626
0.0010235266
-0.00044974464
0.0011222668
-0.00051091941
0.0012287304
-0.00057503022
0.0013451784
-0.00064151629
0.0014739072
-0.00070962215
0.0016174619
-0.00077827716
0.001778959
-0.00084595412
0.00196248
-0.00091049185
0.0021735428
-0.00096885049
0.0024196382
-0.0010167704
0.0027105287
-0.0010483144
0.0030583613
-0.001055002
0.0034776755
-0.0010244208
0.0039846068
-0.0009380173
0.0045946444
-0.00076760494
0.005319122
-0.00047084212
0.0061602001
1.3369395e-05
0.0071017172
0.00078158239
0.008069437
0.001997368
0.0088360468
0.0038896484
0.0089775008
0.0068778542
0.0074400297
0.011876693
0.0014765765
0.020927847
-0.015360332
0.035010408
-0.049861853
0.050565385
-0.095597067
0.062003245
-0.12860285
0.069071861
-0.13419749
0.07301836
-0.11525388
0.077373343
-0.085148978
-0.052360628
0.088797878
-3.3506721e-09
1.3218809e-07
-1.4976863e-08
4.568246e-07
-3.7722671e-08
8.9066394e-07
-7.5200581e-08
1.4623489e-06
-1.3198213e-07
2.2072578e-06
-2.1383397e-07
3.1689688e-06
-3.2801405e-07
4.4010054e-06
-4.836352e-07
5.9689006e-06
-6.9212419e-07
7.952644e-06
-9.6778244e-07
1.0449537e-05
-1.3284996e-06
1.3577517e-05
-1.7966197e-06
1.7478956e-05
-2.4000364e-06
2.2324984e-05
-3.1735418e-06
2.8320265e-05
-4.1604953e-06
3.5708212e-05
-5.4148828e-06
4.4776437e-05
-7.0038261e-06
5.5862183e-05
-9.010662e-06
6.9357334e-05
-1.1538603e-05
8.5712266e-05
-1.471511e-05
0.00010543758
-1.8696947e-05
0.00012910224
-2.3675861e-05
0.00015732621
-2.9884716e-05
0.00019076472
-3.7603598e-05
0.000230081
-4.7165186e-05
0.00027590322
-5.8957909e-05
0.00032876163
-7.3424873e-05
0.00038900311
-9.1055037e-05
0.00045668549
-0.0001123616
0.00053146642
-0.00013784071
0.00061252613
-0.00016790417
0.00069860179
-0.00020278774
0.00078823339
-0.00024246131
0.00088026191
-0.00028660004
0.00097441282
-0.00033465806
0.0010715846
-0.000385988
0.0011735968
-0.00043990982
0.0012826522
-0.00049569357
0.0014009622
-0.00055247224
0.0015306859
-0.00060911039
0.0016741001
-0.0006640443
0.0018338929
-0.00071508598
0.0020135217
-0.00075916928
0.0022176261
-0.00079199513
0.0024524641
-0.00080753559
0.0027260692
-0.00079735364
0.0030481793
-0.0007493551
0.0034296769
-0.00064581124
0.0038810629
-0.00046010992
0.0044089431
-0.00015200768
0.0050110198
0.00033808798
0.0056701044
0.001100362
0.0063394431
0.0022982466
0.0068715525
0.0041622543
0.006972039
0.0070003338
0.0061394213
0.011460036
0.0029803278
0.019019765
-0.0060831526
0.031850452
-0.028191019
0.04885643
-0.066867831
0.063974689
-0.11071533
0.072709417
-0.13733758
0.077790469
-0.13927855
0.083799215
-0.12126263
0.093721412
-0.095071175
-0.068142831
0.10950361
-1.8939216e-09
1.3408201e-07
-8.4965852e-09
4.6342727e-07
-2.1466857e-08
9.0363421e-07
-4.2925999e-08
1.4838081e-06
-7.5579323e-08
2.2399111e-06
-1.2286867e-07
3.2162581e-06
-1.8916583e-07
4.4673026e-06
-2.8002081e-07
6.0597555e-06
-4.0247453e-07
8.0750977e-06
-5.6546062e-07
1.0612523e-05
-7.8031517e-07
1.3792371e-05
-1.0614374e-06
1.7760078e-05
-1.4271186e-06
2.2690666e-05
-1.9006259e-06
2.8793773e-05
-2.5115519e-06
3.6319138e-05
-3.2975607e-06
4.5562446e-05
-4.3065933e-06
5.6871215e-05
-5.5996131e-06
7.0650353e-05
-7.2540485e-06
8.7366701e-05
-9.3680097e-06
0.00010755154
-1.2065394e-05
0.00013179963
-1.5501843e-05
0.00016076266
-1.987159e-05
0.00019513447
-2.5414808e-05
0.00023562421
-3.2424854e-05
0.00028291326
-4.1254302e-05
0.00033759107
-5.2317611e-05
0.00040006642
-6.6087051e-05
0.00047045493
-8.3076176e-05
0.00054845555
-0.00010380263
0.00063325259
-0.00012872266
0.00072352182
-0.00015812571
0.00081763644
-0.00019201151
0.00091414771
-0.00023002358
0.0010124249
-0.00027149842
0.0011130594
-0.00031561342
0.0012177118
-0.00036144401
0.0013284828
-0.00040797232
0.0014474905
-0.00045399562
0.0015767092
-0.00049796646
0.0017180709
-0.00053778921
0.0018737157
-0.00057056378
0.0020462963
-0.00059224645
0.0022393088
-0.00059717778
0.0024573954
-0.00057743455
0.0027063259
-0.00052173995
0.0029924847
-0.00041398899
0.003321926
-0.00023055371
0.0036976276
6.4407712e-05
0.0041139817
0.00052486178
0.0045505657
0.0012306001
0.004964366
0.0023236881
0.0052463551
0.0040383039
0.0051569367
0.0066400664
0.0043702765
0.010580016
0.0021994719
0.01688659
-0.0033262464
0.02768722
-0.016883783
0.044213142
-0.04471694
0.062252086
-0.084906775
0.074572987
-0.12303623
0.079866208
-0.1426308
0.082781693
-0.14219403
0.088702684
-0.12718362
0.100973
-0.10734149
-0.08841598
0.12124615
-4.1664966e-10
1.3449866e-07
-1.9226151e-09
4.6493323e-07
-4.970577e-09
9.0668217e-07
-1.0165319e-08
1.4890028e-06
-1.8310984e-08
2.2480568e-06
-3.0481945e-08
3.2284291e-06
-4.8109934e-08
4.4849306e-06
-7.3109513e-08
6.0847551e-06
-1.0804549e-07
8.1100337e-06
-1.5636006e-07
1.0660838e-05
-2.2268697e-07
1.3858698e-05
-3.1326721e-07
1.7850659e-05
-4.3652452e-07
2.2813923e-05
-6.0383468e-07
2.8961083e-05
-8.3055552e-07
3.6545859e-05
-1.1374081e-06
4.5869298e-05
-1.552293e-06
5.72861e-05
-2.1126874e-06
7.1210748e-05
-2.8687543e-06
8.8122768e-05
-3.887301e-06
0.00010857009
-5.2567824e-06
0.00013316911
-7.0934489e-06
0.00016259933
-9.5486675e-06
0.00019758969
-1.2817359e-05
0.00023889291
-1.7147058e-05
0.00028724296
-2.2846652e-05
0.00034329067
-3.0292929e-05
0.00040751269
-3.9931454e-05
0.00048009346
-5.2265814e-05
0.00056078991
-6.7824159e-05
0.00064881094
-8.7093936e-05
0.00074279159
-0.0001104412
0.0008409837
-0.0001379049
0.00094161142
-0.00016909503
0.001043615
-0.00020324253
0.0011472069
-0.00023937447
0.0012538437
-0.00027629122
0.0013653995
-0.0003126616
0.0014838609
-0.00034691645
0.001610964
-0.00037706455
0.001748219
-0.00040044067
0.0018970918
-0.00041338192
0.0020592376
-0.00041079223
0.0022367191
-0.00038552765
0.0024321308
-0.00032754176
0.0026483401
-0.0002225673
0.0028875103
-5.0068847e-05
0.0031494275
0.00022060515
0.0034269536
0.00063592396
0.0036986629
0.0012661394
0.0039203503
0.0022256243
0.0040048811
0.0037263657
0.0037456136
0.006027629
0.0028556734
0.0094815338
0.00091637174
0.014854866
-0.0031738603
0.02381032
-0.0122817
0.038450008
-0.031523471
0.057336049
-0.063602981
0.073509028
-0.10107975
0.081542351
-0.13106955
0.083933706
-0.14502215
0.085899106
-0.14415943
0.091875578
-0.13316009
0.10395129
-0.1194172
-0.10823423
0.12376954
1.0310155e-09
1.3346765e-07
4.522259e-09
4.6144199e-07
1.1206737e-08
8.9999769e-07
2.1973825e-08
1.4782357e-06
3.7889108e-08
2.2321415e-06
6.0214707e-08
3.2061035e-06
9.0419206e-08
4.4547261e-06
1.3017954e-07
6.0449948e-06
1.813589e-07
8.0588543e-06
2.4595269e-07
1.0596244e-05
3.2598782e-07
1.3778663e-05
4.2333389e-07
1.7753312e-05
5.3941865e-07
2.2697838e-05
6.7477055e-07
2.8825731e-05
8.2834476e-07
3.6392285e-05
9.9654148e-07
4.5701101e-05
1.171807e-06
5.7110835e-05
1.3406645e-06
7.104189e-05
1.481054e-06
8.7982379e-05
1.5587132e-06
0.00010849243
1.5224408e-06
0.00013320538
1.2979865e-06
0.00016282378
7.8039882e-07
0.00019810728
-1.7516691e-07
0.00023984847
-1.7641106e-06
0.00028883191
-4.2436483e-06
0.0003457702
-7.9431913e-06
0.00041121224
-1.3270538e-05
0.00048542081
-2.0707812e-05
0.00056822718
-3.0788125e-05
0.00065889125
-4.4016066e-05
0.00075601954
-6.0772283e-05
0.00085773992
-8.1172168e-05
0.0009620113
-0.00010486048
0.0010673033
-0.00013100105
0.0011733475
-0.00015837084
0.0012812135
-0.00018557265
0.0013926014
-0.00021091813
0.0015092063
-0.00023243917
0.001632485
-0.00024766615
0.001763446
-0.00025332381
0.0019027495
-0.00024493155
0.0020508453
-0.00021625686
0.0022080444
-0.00015853544
0.0023744094
-5.9360007e-05
0.0025491646
9.8881238e-05
0.002729269
0.0003419795
0.0029063293
0.00070896757
0.0030599656
0.0012597686
0.0031478619
0.0020889036
0.0030912152
0.0033687528
0.0027250319
0.0053451215
0.001769245
0.0083286453
-0.00012785037
0.01296593
-0.0037209134
0.020598866
-0.010806795
0.033215511
-0.024898346
0.051102212
-0.049410172
0.069347913
-0.081848682
0.080910366
-0.11264221
0.084936728
-0.13509591
0.085991073
-0.1460765
0.088240176
-0.14640853
0.094748391
-0.13966831
0.10677852
-0.13144733
-0.12648502
0.1250293
2.4030544e-09
1.3106459e-07
1.0634394e-08
4.5321065e-07
2.6556352e-08
8.8407574e-07
5.2480761e-08
1.4523113e-06
9.1257876e-08
2.1933644e-06
1.4637603e-07
3.1509853e-06
2.2207691e-07
4.3790252e-06
3.2347067e-07
5.943601e-06
4.5666479e-07
7.9256602e-06
6.2887796e-07
1.0424031e-05
8.4853979e-07
1.3559001e-05
1.1253501e-06
1.7476502e-05
1.4702693e-06
2.2352919e-05
1.8953918e-06
2.8400608e-05
2.4136452e-06
3.5874032e-05
3.0382261e-06
4.507652e-05
3.7816786e-06
5.6367382e-05
4.6544274e-06
7.0169141e-05
5.6626279e-06
8.6974178e-05
6.8050691e-06
0.00010734999
8.0688668e-06
0.00013194158
9.4236562e-06
0.00016146899
1.0813989e-05
0.00019671695
1.2149688e-05
0.00023851277
1.3294263e-05
0.00028768733
1.4051592e-05
0.00034501288
1.4152371e-05
0.00041111146
1.324315e-05
0.00048633003
1.0884237e-05
0.00057058609
6.5663347e-06
0.00066320915
-2.4537355e-07
0.00076283124
-9.9638674e-06
0.00086745841
-2.2832519e-05
0.00097487995
-3.8405656e-05
0.0010828765
-5.5963064e-05
0.0011909049
-7.4001095e-05
0.0012992515
-9.0782233e-05
0.0014093825
-0.00010431596
0.0015227401
-0.00011221691
0.001640386
-0.00011149916
0.0017627282
-9.8233861e-05
0.0018894842
-6.7055197e-05
0.0020196666
-1.0481321e-05
0.0021514705
8.2056476e-05
0.0022818716
0.00022564944
0.0024055716
0.00044204937
0.0025128691
0.00076372408
0.0025846546
0.0012407605
0.0025829291
0.0019529882
0.0024356342
0.0030359162
0.0020082872
0.0047109862
0.001049962
0.0072700036
-0.00078977243
0.01129478
-0.0041526272
0.017991109
-0.010417242
0.029050895
-0.021866581
0.045238168
-0.041085619
0.063623003
-0.067795007
0.077614838
-0.095840518
0.08422454
-0.11925191
0.086280222
-0.1371516
0.087258243
-0.14705452
0.090327648
-0.14947794
0.097436344
-0.146777
0.10935328
-0.14336427
-0.143473
0.12634127
3.6438147e-09
1.2742078e-07
1.616336e-08
4.406911e-07
4.0446216e-08
8.5979288e-07
8.0097692e-08
1.4126598e-06
1.3959008e-07
2.133872e-06
2.2444429e-07
3.0661311e-06
3.4142773e-07
4.2620418e-06
4.9879182e-07
5.7862369e-06
7.0652722e-07
7.7179248e-06
9.7664507e-07
1.0153913e-05
1.3234689e-06
1.3212178e-05
1.7639341e-06
1.7036037e-05
2.3178356e-06
2.1799018e-05
3.0080453e-06
2.7710399e-05
3.8605785e-06
3.5021499e-05
4.9044804e-06
4.4032619e-05
6.1713771e-06
5.5100485e-05
7.6946187e-06
6.86459e-05
9.507689e-06
8.5161108e-05
1.1641783e-05
0.00010521589
1.4122124e-05
0.00012946124
1.6962714e-05
0.0001586284
2.0159123e-05
0.00019352054
2.3678931e-05
0.00023499296
2.7449581e-05
0.00028391668
3.1343819e-05
0.00034111864
3.516352e-05
0.00040729176
3.8624332e-05
0.00048286922
4.1346343e-05
0.00056786408
4.2865007e-05
0.00066169049
4.2662963e-05
0.00076303329
4.0267481e-05
0.00086985389
3.5469865e-05
0.00097967757
2.8443436e-05
0.0010899029
2.0070702e-05
0.0011992777
1.1927064e-05
0.0013073952
6.1138797e-06
0.0014151957
5.039371e-06
0.0015238146
1.1539134e-05
0.0016338862
2.9136574e-05
0.0017451308
6.247013e-05
0.0018561506
0.00011789061
0.0019642462
0.00020431562
0.0020650455
0.00033447687
0.0021517104
0.00052681014
0.0022132384
0.00080843556
0.0022312437
0.0012210425
0.0021720476
0.0018317072
0.0019722644
0.0027523572
0.0015149841
0.0041721252
0.00058851927
0.0063763081
-0.001154221
0.0099131731
-0.0043266375
0.015913824
-0.010153278
0.025876617
-0.020380036
0.040444203
-0.036434166
0.057769216
-0.058410633
0.072694406
-0.082720197
0.081213454
-0.10435957
0.085011218
-0.12304967
0.086669083
-0.13880946
0.088329734
-0.14871517
0.09223882
-0.15338702
0.099787797
-0.15432598
0.11148825
-0.15506472
-0.15937097
0.12738622
4.6882594e-09
1.2273252e-07
2.0823446e-08
4.2455592e-07
5.2164126e-08
8.284522e-07
1.0341408e-07
1.3614099e-06
1.8042884e-07
2.0568572e-06
2.9045603e-07
2.9561039e-06
4.4242306e-07
4.1100747e-06
6.4726592e-07
5.5813941e-06
9.1830462e-07
7.4468861e-06
1.2716723e-06
9.8005454e-06
1.7267809e-06
1.2757069e-05
2.3068248e-06
1.6455993e-05
3.0393052e-06
2.1066537e-05
3.9565243e-06
2.679318e-05
5.0960414e-06
3.3881981e-05
6.5009761e-06
4.2627684e-05
8.2200938e-06
5.3381368e-05
1.0307481e-05
6.6558513e-05
1.2821702e-05
8.2646886e-05
1.5824056e-05
0.00010221354
1.9375723e-05
0.00012590958
2.3533296e-05
0.00015447083
2.8342294e-05
0.00018871154
3.3828079e-05
0.00022950718
3.9983803e-05
0.00027776096
4.6755076e-05
0.00033434737
5.4021796e-05
0.00040002504
6.1578842e-05
0.00047531217
6.9119827e-05
0.0005603231
7.6230704e-05
0.00065457961
8.2424951e-05
0.00075683904
8.727205e-05
0.00086500679
9.0695985e-05
0.00097625364
9.2593516e-05
0.0010880054
9.3972585e-05
0.0011978986
9.6393417e-05
0.0013049743
0.00010221874
0.0014093703
0.00011426321
0.0015117701
0.000135882
0.0016122674
0.00017122732
0.0017097855
0.00022575609
0.0018016218
0.00030698607
0.0018830162
0.00042560779
0.0019464238
0.00059715775
0.0019801604
0.00084461178
0.0019657843
0.001203013
0.0018728424
0.0017289217
0.001646139
0.0025182617
0.0011829244
0.0037329669
0.00030027902
0.0056493455
-0.0013278594
0.0088097811
-0.0043146565
0.014295982
-0.0098128384
0.023462739
-0.019320035
0.036721834
-0.03363913
0.052536222
-0.052248555
0.067171876
-0.073046286
0.076823738
-0.092372058