/*--------------------------------*- C++ -*----------------------------------*\
  =========                 |
  \\      /  F ield         | OpenFOAM: The Open Source CFD Toolbox
   \\    /   O peration     | Website:  https://openfoam.org
    \\  /    A nd           | Version:  13
     \\/     M anipulation  |
\*---------------------------------------------------------------------------*/
FoamFile
{
    format      ascii;
    class       volScalarField;
    location    "0.03";
    object      mag(U);
}
// * * * * * * * * * * * * * * * * * * * * * * * * * * * * * * * * * * * * * //

dimensions      [0 1 -1 0 0 0 0];

internalField   nonuniform List<scalar> 
1000
(
27.4208
27.6844
28.2103
28.8103
29.3045
29.6488
29.9493
30.2576
30.6085
31.0067
31.4303
31.8573
32.2759
32.6799
33.0683
33.4443
33.8111
34.1732
34.5392
34.9172
35.309
35.7105
36.1159
36.5206
36.9214
37.3165
37.7049
38.0874
38.4667
38.8465
39.2302
39.6198
40.0154
40.4157
40.818
41.2195
41.618
42.0116
42.3997
42.7828
43.1627
43.5415
43.9222
44.3013
44.6739
45.0288
45.3554
45.673
45.9854
46.3039
46.6548
47.0071
47.3773
47.7862
48.1634
48.5354
48.9536
49.3361
49.6933
50.1087
50.5102
50.8583
51.2529
51.6789
52.0363
52.3989
52.833
53.219
53.5664
53.9867
54.4009
54.7581
55.1623
55.5918
55.9696
56.3728
56.8166
57.2061
57.6007
58.0721
58.4696
58.8024
59.2787
59.7296
59.9855
60.3775
60.9472
61.2565
61.4664
62.009
62.5824
62.7907
63.0308
63.6416
64.1484
64.2986
64.5983
65.244
65.6627
65.7813
66.1638
66.8189
67.1414
67.2636
67.7458
68.3739
68.6016
68.7676
69.3457
69.9038
70.0551
70.3027
70.9505
71.4125
71.5184
71.86
72.5443
72.9174
73.0056
73.4293
74.1199
74.4259
74.4899
74.7516
75.4027
76.1619
76.4383
76.4391
76.7161
77.4339
78.0748
78.1996
78.2762
78.8429
79.5852
79.8526
79.8806
80.2977
81.0677
81.4957
81.525
81.772
82.5017
83.1196
83.2189
83.308
83.9049
84.6681
84.9338
84.9431
85.3198
86.1073
86.6336
86.6788
86.8117
87.4635
88.2227
88.4527
88.4607
88.8455
89.6358
90.1828
90.2336
90.335
90.9454
91.7451
92.0534
92.0525
92.3302
93.0818
93.7671
93.8976
93.9234
94.3783
95.1955
95.7116
95.7479
95.8513
96.4428
97.2654
97.6236
97.6225
97.8086
98.4782
99.2797
99.5394
99.5371
99.7666
100.439
101.245
101.508
101.509
101.715
102.315
103.166
103.583
103.576
103.688
104.261
105.112
105.546
105.531
105.692
106.409
107.176
107.352
107.342
107.82
108.664
109.083
109.066
109.32
110.115
110.729
110.79
110.834
111.329
112.197
112.738
112.761
112.822
113.278
114.126
114.75
114.8
114.819
115.237
116.073
116.718
116.773
116.779
117.186
118.019
118.66
118.71
118.712
119.102
119.927
120.583
120.637
120.626
120.97
121.767
122.478
122.569
122.543
122.817
123.55
124.333
124.5
124.449
124.634
125.257
126.116
126.454
126.41
126.516
126.998
127.863
128.442
128.465
128.504
128.833
129.598
130.42
130.608
130.592
130.785
131.306
132.193
132.709
132.741
132.867
133.157
133.784
134.626
134.919
134.909
135.063
135.45
136.253
136.945
136.988
137.085
137.777
138.296
138.334
138.683
139.399
139.659
139.658
139.842
140.455
141.357
141.75
141.652
141.852
142.653
143.21
143.193
143.381
144.147
144.663
144.635
144.73
145.452
146.241
146.363
146.263
146.581
147.43
148.088
148.088
148.069
148.695
149.519
149.699
149.625
150.107
150.944
151.214
151.14
151.554
152.394
152.723
152.638
152.975
153.821
154.25
154.165
154.357
155.17
155.779
155.758
155.726
156.281
157.174
157.515
157.388
157.527
158.305
159.055
159.106
159.007
159.504
160.384
160.71
160.591
160.891
161.711
162.107
162.072
162.14
162.494
163.317
164.078
164.12
163.988
164.439
165.335
165.729
165.619
165.858
166.683
167.152
167.075
167.304
168.117
168.57
168.494
168.75
169.565
169.985
169.902
170.185
171.002
171.379
171.295
171.638
172.432
172.703
172.65
173.126
173.863
173.992
173.993
174.609
175.262
175.28
175.343
176.046
176.641
176.603
176.699
177.441
177.987
177.928
178.1
178.853
179.247
179.189
179.558
180.28
180.444
180.469
181.071
181.63
181.623
181.829
182.561
182.889
182.827
183.246
183.984
184.13
184.083
184.642
185.362
185.422
185.336
185.897
186.706
186.835
186.656
187.001
187.887
188.32
188.155
188.238
189.016
189.638
189.572
189.465
190.012
190.903
191.155
190.943
191.075
191.889
192.566
192.504
192.403
193.013
193.767
193.825
193.651
193.922
194.78
195.378
195.28
195.123
195.515
196.419
196.909
196.731
196.665
197.332
198.103
198.139
197.919
198.23
199.095
199.536
199.371
199.263
199.721
200.625
201.008
200.777
200.726
201.405
202.175
202.19
201.937
202.266
203.113
203.449
203.265
203.179
203.543
204.421
204.942
204.75
204.569
205.098
205.934
206.092
205.83
205.894
206.632
207.314
207.267
207.054
207.177
207.894
208.652
208.642
208.355
208.499
209.286
209.96
209.866
209.609
210.002
210.859
211.141
210.858
210.88
211.618
212.204
212.058
211.898
212.467
213.187
213.174
212.93
213.341
214.136
214.278
213.999
214.232
215.03
215.329
215.075
215.2
215.93
216.263
216.038
215.948
216.551
217.329
217.36
217.055
217.09
217.779
218.532
218.493
218.147
218.395
219.215
219.557
219.266
219.246
219.935
220.409
220.195
220.145
220.775
221.201
221.012
221.061
221.684
221.982
221.751
221.669
222.278
222.956
222.921
222.694
222.675
223.066
223.874
224.145
223.852
223.662
224.034
224.865
225.156
224.847
224.644
225.083
225.869
226.019
225.748
225.617
225.884
226.668
227.076
226.845
226.61
226.732
227.438
228.071
227.937
227.601
227.644
228.313
229.012
228.916
228.533
228.596
229.32
229.944
229.77
229.396
229.63
230.443
230.826
230.505
230.259
230.776
231.557
231.589
231.181
231.257
232.02
232.503
232.232
231.945
232.42
233.206
233.262
232.862
232.89
233.637
234.198
233.977
233.636
233.987
234.822
235.056
234.685
234.544
235.171
235.902
235.824
235.423
235.625
236.444
236.818
236.489
236.303
236.905
237.599
237.504
237.121
237.321
238.146
238.552
238.245
237.976
238.432
239.266
239.406
239.018
238.926
239.587
240.331
240.245
239.83
240.003
240.83
241.269
240.949
240.73
241.32
242.01
241.917
241.539
241.757
242.589
242.958
242.646
242.381
242.781
243.66
243.921
243.548
243.347
243.899
244.731
244.785
244.359
244.366
245.121
245.733
245.513
245.133
245.495
246.326
246.493
246.052
245.963
246.661
247.253
247.03
246.694
247.153
248.021
248.154
247.769
247.855
248.673
249.162
248.869
248.644
249.239
249.973
249.882
249.512
249.869
250.606
250.633
250.374
250.692
251.166
251.134
251.172
251.61
251.767
251.694
252.094
252.581
252.463
252.177
252.472
253.36
253.739
253.353
253.216
253.875
254.349
254.137
254.135
254.687
254.923
254.791
255.098
255.655
255.636
255.535
256.077
256.58
256.38
256.31
256.934
257.318
257.114
256.913
256.996
257.684
258.418
258.327
257.951
257.902
258.489
259.367
259.439
259
258.865
259.475
260.344
260.38
259.909
259.883
260.646
261.311
261.095
260.678
261.036
261.91
262.107
261.666
261.611
262.365
262.935
262.653
262.32
262.834
263.608
263.555
263.109
263.344
264.198
264.451
264.021
263.934
264.657
265.213
264.923
264.547
265.01
265.827
265.849
265.373
265.425
266.247
266.764
266.428
266.042
266.486
267.334
267.408
266.908
266.879
267.655
268.206
267.896
267.488
267.898
268.755
268.868
268.371
268.26
268.992
269.67
269.433
268.96
269.3
270.12
270.199
269.719
269.819
270.532
270.715
270.344
270.083
270.394
271.255
271.556
271.139
270.771
270.99
271.838
272.274
271.874
271.431
271.747
272.627
272.894
272.422
272.089
272.588
273.439
273.465
272.897
272.826
273.567
274.074
273.708
273.254
273.643
274.442
274.46
273.893
273.738
274.419
275.107
274.88
274.32
274.447
275.263
275.626
275.146
274.744
275.247
276.011
275.908
275.327
275.413
276.188
276.463
275.963
275.7
276.31
276.883
276.566
276.078
276.447
277.191
277.129
276.54
276.554
277.314
277.667
277.179
276.784
277.292
277.995
277.809
277.225
277.384
278.137
278.264
277.7
277.57
278.242
278.621
278.161
277.835
278.38
278.904
278.555
278.109
278.529
279.15
278.921
278.399
278.687
279.368
279.269
278.703
278.844
279.554
279.609
279.034
279.005
279.697
279.926
279.391
279.183
279.809
280.221
279.768
279.375
279.881
280.483
280.182
279.627
279.934
280.665
280.595
279.972
280.009
280.749
280.962
280.384
280.124
280.752
281.263
280.854
280.34
280.733
281.462
281.331
280.682
280.732
281.496
281.749
281.176
280.843
281.431
282.033
281.692
281.083
281.333
282.134
282.21
281.564
281.324
281.973
282.564
282.198
281.554
281.711
282.54
282.833
282.245
281.858
282.409
282.985
282.659
282.047
282.045
282.781
283.363
282.961
282.295
282.449
283.265
283.531
282.932
282.552
283.116
283.722
283.367
282.782
283.105
283.773
283.612
282.978
282.725
283.16
283.986
283.995
283.296
282.922
283.405
284.202
284.096
283.351
283.235
283.947
284.356
283.824
283.383
283.855
284.394
283.966
283.694
)
;

boundaryField
{
    sides
    {
        type            calculated;
        value           nonuniform List<scalar> 2(283.694 27.4208);
    }
    empty
    {
        type            empty;
    }
}


// ************************************************************************* //
