/*--------------------------------*- C++ -*----------------------------------*\
  =========                 |
  \\      /  F ield         | OpenFOAM: The Open Source CFD Toolbox
   \\    /   O peration     | Website:  https://openfoam.org
    \\  /    A nd           | Version:  13
     \\/     M anipulation  |
\*---------------------------------------------------------------------------*/
FoamFile
{
    format      ascii;
    class       volScalarField;
    location    "0.03";
    object      p;
}
// * * * * * * * * * * * * * * * * * * * * * * * * * * * * * * * * * * * * * //

dimensions      [1 -1 -2 0 0 0 0];

internalField   nonuniform List<scalar> 
1000
(
21744.4
21740.7
21733
21725.1
21718.5
21713.8
21709.5
21705.2
21700.3
21694.9
21689.2
21683.5
21677.9
21672.3
21667
21661.7
21656.4
21651.2
21645.9
21640.5
21634.8
21628.9
21622.9
21617
21611
21605.1
21599.1
21593.2
21587.2
21581.1
21574.9
21568.6
21562
21555.4
21548.7
21542
21535.4
21529
21522.6
21516.5
21510.5
21504.6
21498.9
21493.3
21487.3
21483.2
21476.5
21473.1
21468.4
21460
21459.6
21450
21441.8
21445.7
21434.3
21423
21428.5
21420.9
21403.7
21407.7
21409.4
21386.2
21384
21394.2
21374.3
21361.8
21372.7
21365.8
21343.3
21349.4
21353.6
21330.3
21329.9
21337.7
21318.8
21313.9
21323.8
21307.4
21294.7
21311.5
21303.8
21265.4
21287.8
21309.6
21242.5
21237.9
21301.9
21263.2
21191.5
21239.9
21299
21220.3
21169.5
21243.2
21280.4
21180.9
21153.4
21242.1
21251.2
21141.7
21141.8
21236.7
21209.1
21106.4
21140.1
21225.7
21157.2
21078.4
21146.2
21206.1
21104.5
21058.4
21152.2
21177.8
21059.1
21045.2
21152.8
21144.9
21024
21036.5
21146.2
21109.4
21001.3
20970.4
21031.8
21143
21111.8
20976.7
20946.7
21048.9
21125.7
21021.7
20931.9
20977.7
21095.6
21050.4
20921.8
20923
21055.9
21068.3
20922.4
20882.8
20996.3
21068
20946.8
20862.9
20915.5
21040.9
20993.3
20857.4
20843.5
20982.1
21024.5
20876.7
20812.9
20884.4
21005.7
20939.3
20808.1
20792.9
20935.3
20985
20837
20766.2
20814.4
20954.4
20921.1
20769.2
20733.6
20852
20946.1
20831.3
20726.4
20720.1
20875.3
20914.3
20754.3
20689.3
20722.1
20878.7
20863
20701.9
20656.1
20721.2
20868.5
20808.5
20668
20628.7
20693.3
20846.8
20787
20647.6
20610.6
20635.4
20807.4
20816.7
20644.3
20590.7
20610.1
20782.9
20797.6
20618.8
20559.6
20662.6
20792.2
20700.4
20556.8
20570.9
20743
20751.4
20567.3
20522.2
20675.2
20750.7
20591.8
20508.4
20500.9
20682.4
20727.9
20551.7
20484
20461.9
20636.7
20712.3
20549.1
20460.4
20433.3
20603.3
20688.6
20530.5
20435.1
20407.3
20579.4
20665.5
20505.6
20412.2
20380.8
20550.7
20644.9
20489.7
20392.6
20354.4
20508.3
20625.6
20489.2
20376.2
20331.9
20444.8
20600.8
20506.9
20360.5
20315.8
20360.1
20557.1
20535.6
20351.1
20303.1
20283.5
20482.2
20549.4
20369.4
20295.9
20250.1
20362.6
20532.7
20430.8
20297.3
20259.3
20244.7
20461.5
20494.4
20320.5
20284.1
20237.8
20285.8
20491.4
20435.6
20281.6
20247.8
20203.8
20379.3
20504.4
20334.9
20227.5
20387.6
20451
20264.1
20265.9
20440.3
20371
20229.9
20184.8
20223.4
20450.8
20462.2
20237.5
20184.2
20378.7
20453.6
20251.4
20187.3
20377
20435.5
20235.6
20150
20285.7
20454.8
20336.5
20168.4
20133.9
20337.9
20447.1
20262.4
20130.6
20227.6
20420.6
20328.8
20134.2
20180.6
20392.9
20343.5
20131.7
20152.9
20373
20351.3
20130.1
20120.6
20345.1
20369.7
20142.2
20082
20287.8
20385.3
20185.2
20071.4
20115.6
20354.1
20343.9
20110
20044.3
20219.2
20377.5
20224.6
20054.1
20095.2
20333.3
20318.1
20079.7
20066.5
20295.2
20297.1
20103.6
20052.1
20003.3
20200.5
20362.4
20207.7
20027.8
20049.4
20302.2
20313.3
20070.1
20031.4
20264.7
20312.3
20079.2
20034.2
20265.7
20304.7
20070.2
20036.9
20274.4
20300.2
20063.3
20041.7
20282.6
20288.7
20053.3
20065.3
20300.2
20250.1
20034.7
20115.2
20319.9
20190.5
20022.2
20174.7
20328.1
20142.1
20018.5
20214.3
20332.5
20118.6
20018.1
20235.1
20330.7
20102.3
20038.5
20271.9
20294.1
20064.5
20102.3
20320.6
20209.9
20041.9
20209.4
20328.5
20118.9
20068.4
20300.7
20291.1
20068.5
20129.9
20352.1
20242.5
20051.7
20183.9
20380.7
20231.1
20047.7
20164.5
20400.6
20296.7
20072.6
20075.1
20363.7
20408.7
20145.8
20062.5
20303.2
20435.6
20221.2
20077.7
20155.5
20440.3
20406.4
20147.3
20084.3
20332.6
20493.1
20288.3
20120.6
20279.2
20491.8
20347.6
20168.6
20130.2
20413.8
20538.8
20312.4
20183.7
20178.7
20492.3
20573.5
20313.6
20191.4
20376.9
20600.1
20457.2
20253.6
20246.1
20559.4
20617.2
20369.8
20274
20299.4
20627.7
20670.9
20397.2
20293.4
20489.8
20722.5
20583.3
20362.5
20377.9
20696.3
20708.3
20473.4
20402.6
20385.6
20714.2
20823.3
20569.7
20427.4
20537.8
20836.1
20773
20527.9
20458.3
20704.3
20902.9
20719.9
20574.3
20511.5
20727.6
20976.6
20830.1
20626
20572.5
20857
21045.9
20855.6
20663.1
20715.2
21053.4
21068.8
20789.2
20711.8
21003.8
21161.3
20939.2
20773.5
20965.5
21216.8
21077.3
20852.6
20948.7
21261.2
21206.9
20940.3
20951.5
21289.9
21316.1
21040.5
21011.3
21328.5
21368.5
21125.3
21024
21206.6
21498.5
21377.3
21162.9
21094.7
21338.8
21603.5
21466.9
21218.5
21232.2
21595.8
21651.9
21365.9
21280.6
21593.8
21725.5
21473.1
21363.7
21658
21767.4
21521.4
21464.9
21759.7
21805.2
21572.8
21467.1
21686.5
21941.9
21785.5
21650.2
21596.3
21621.5
22002.1
22028
21765
21675.8
21706.3
22097.6
22134.7
21859.6
21756.6
21843.3
22207.6
22160.7
21939.7
21879.8
21856.3
22233.5
22328.4
22082.5
21993.9
21928.6
22226.8
22460.3
22262.2
22092.8
22022.6
22290.4
22567.7
22399.4
22181.9
22119.2
22447.5
22671.9
22459.8
22251.5
22252.4
22656.6
22751.8
22458.2
22311.5
22491.1
22837.1
22755.5
22460
22414.9
22796.1
22945.7
22675.5
22496.5
22658.6
23017.1
22940.6
22647
22583.3
22948.9
23138
22891.1
22695.8
22760.5
23174.9
23196.5
22878.8
22765.4
23035.7
23334.6
23181.5
22908.2
22911.5
23331
23423.9
23112.3
22963.6
23236.5
23523.1
23347.9
23099.6
23088.9
23515.2
23620.4
23317.6
23167.9
23292
23702.6
23668.8
23351.3
23252.6
23541.7
23851.4
23686.1
23407.4
23393.3
23827.5
23955
23641.3
23466.5
23743.5
24037.4
23857.3
23601.2
23597.3
24039.2
24126
23815
23681.4
23743.2
24199.7
24230.1
23892.9
23766.3
23961.9
24361.1
24278.3
23946.5
23871.1
24264.3
24496.2
24238.5
23998.2
24099.1
24541.9
24540.1
24178.8
24082.4
24468.5
24697.8
24431.9
24184.3
24333.9
24756.7
24701.6
24343.8
24293.2
24735.5
24889.3
24566.5
24375.9
24661
24994.4
24815.5
24500.4
24643.5
25041.5
24915.4
24641.4
24820.8
25030.1
24857.4
24782.4
25037.3
25017.7
24810.6
25020.2
25244.5
25035.7
24834.7
24853.5
25355.4
25460.8
25074.7
24934.7
25318.6
25481.4
25186.4
25114.4
25442.6
25453.8
25206.2
25335.6
25623.4
25454.9
25251.8
25562
25778.6
25485.1
25336.4
25715
25822.6
25557.6
25466
25374.2
25689.8
26040.4
25824.7
25589.1
25497.3
25690.3
26163.6
26075.9
25719.8
25608.2
25849.1
26296.4
26193
25812
25723.3
26156.2
26440.9
26161
25864.9
25969.7
26473.4
26477
26062.9
25960.1
26412.6
26643
26317.6
26060.5
26322.6
26733.1
26578.3
26204.8
26258.6
26773.1
26806.8
26391.8
26276.5
26727.9
26965.3
26641.1
26373.9
26593.1
27052.6
26949.5
26552.7
26491.5
26998.2
27201.5
26840.3
26595.7
26779.6
27276.2
27217.2
26789.8
26705.2
27200
27433.9
27092.4
26827.6
26983.6
27506
27476.9
27047.4
26926.7
27373.1
27697.5
27418.2
27079.3
27228.1
27746.6
27696.2
27257.2
27278.4
27766
27758.7
27425.7
27312.7
27338.6
27917.2
27995.9
27603.9
27461.2
27439.4
28014
28195.2
27804.3
27585
27647.6
28233.6
28304.4
27876.5
27695.8
27928
28457.3
28388.3
27931.9
27844.5
28371.7
28612.5
28253.9
27977.9
28175
28711.9
28641.5
28207.2
28085.8
28533.3
28908.6
28656.2
28302
28299.3
28894.3
29051.7
28623.1
28388.4
28703.8
29183.4
29036.6
28598.7
28614.5
29198.9
29307.4
28863.9
28684.7
29152.7
29478.4
29163
28829.8
29070.1
29586.4
29477
29031.4
29001.7
29595.9
29760.6
29326.9
29087.3
29453.4
29906.2
29702.9
29277.8
29360.9
29951.4
29982.5
29505.9
29404.9
29959.1
30158.3
29733.7
29507.2
29961.8
30291.5
29953.9
29632.4
29974.3
30408.8
30162.4
29765.5
29989.3
30505
30361.1
29908.1
30006.7
30585.5
30557.7
30065.7
30039.1
30625.8
30728.3
30238.6
30090.2
30626.8
30875.1
30450
30174.5
30577.6
30984.1
30688.8
30287.4
30498.6
31048.3
30935.4
30428.8
30438.6
31047
31140.6
30620.5
30447
30963.2
31275.6
30877.4
30523.2
30806
31328.3
31162.4
30655.8
30667.3
31288.3
31398
30861.4
30651.5
31121.6
31505.9
31156.9
30741.3
30874.5
31488.3
31482.3
30919.8
30760.7
31263
31633.9
31261.1
30860.7
30889.3
31531.6
31675.1
31117.9
30873.2
31321
31695.3
31329
30975.5
30888.2
31446.9
31798.1
31395.5
30988.7
31017.7
31661.7
31790.6
31220.5
30987.7
31436.2
31837.2
31474.2
31042.5
31292.7
31800.1
31578
31151
31016.5
31213
31844.2
31793
31209.5
31038.3
31323.7
31885.2
31760.9
31183.9
31085.3
31651
31928.1
31449
31080.7
31414.3
31939.3
31695.7
31176.7
)
;

boundaryField
{
    sides
    {
        type            zeroGradient;
    }
    empty
    {
        type            empty;
    }
}


// ************************************************************************* //
