/*--------------------------------*- C++ -*----------------------------------*\
  =========                 |
  \\      /  F ield         | OpenFOAM: The Open Source CFD Toolbox
   \\    /   O peration     | Website:  https://openfoam.org
    \\  /    A nd           | Version:  13
     \\/     M anipulation  |
\*---------------------------------------------------------------------------*/
FoamFile
{
    format      ascii;
    class       surfaceScalarField;
    location    "0.03";
    object      phi;
}
// * * * * * * * * * * * * * * * * * * * * * * * * * * * * * * * * * * * * * //

dimensions      [1 0 -1 0 0 0 0];

internalField   nonuniform List<scalar> 
999
(
37.4114
37.9227
38.4336
38.9442
39.4548
39.9654
40.4761
40.9869
41.4978
42.0088
42.5201
43.0316
43.5434
44.0554
44.5676
45.08
45.5925
46.105
46.6175
47.1298
47.642
48.1539
48.6656
49.177
49.6882
50.1991
50.7099
51.2206
51.7313
52.2421
52.753
53.264
53.7748
54.2851
54.7948
55.303
55.8097
56.3152
56.8169
57.32
57.8176
58.3142
58.8213
59.297
59.8211
60.3035
60.7908
61.3687
61.7411
62.3103
62.9264
63.1666
63.8338
64.541
64.631
65.2891
66.1442
66.1371
66.6854
67.6669
67.8389
68.0954
69.0226
69.6733
69.5461
70.2788
71.3141
71.1266
71.6259
72.7315
72.9212
73.1496
74.1285
74.6127
74.7202
75.5975
76.2987
76.1633
76.9603
78.2133
77.4865
77.8714
80.0459
79.6475
78.5417
80.877
82.6063
79.9307
80.2039
83.9672
84.3688
81.5735
82.7
86.3601
85.6845
83.3854
85.4305
88.6849
86.6873
85.1245
88.3334
90.9021
87.5622
87.0031
91.2859
92.6271
88.8152
89.3542
93.8508
93.7276
90.4538
92.1709
96.1794
94.4446
92.1038
95.1428
98.5164
95.2903
93.7846
97.9922
100.607
96.5585
95.8153
95.732
101.535
103.838
99.4272
98.0771
99.1347
104.739
105.415
100.425
100.058
105.733
108.163
103.202
101.978
105.949
109.961
107.102
104.243
105.642
111.481
111.604
106.514
106.122
112.402
114.975
109.523
108.19
111.298
116.465
114.924
110.676
110.483
117.397
119.631
113.546
112.443
115.496
121.048
119.828
115.076
114.477
121.251
124.393
118.826
117.026
118.091
125.258
126.153
119.725
118.897
122.946
128.429
126.292
121.789
120.937
127.634
131.53
126.334
123.947
123.313
131.268
134.131
127.401
126.219
125.513
133.713
136.683
129.864
128.764
127.755
134.529
139.096
134.951
131.312
130.213
136.758
141.596
137.625
133.335
133.34
142.165
144.27
136.212
134.702
141.098
146.258
141.496
137.284
139.596
147.512
146.381
140.014
138.896
143.791
150.532
147.912
142.481
141.429
144.76
152.802
151.939
144.921
143.867
146.61
155.202
154.738
147.265
146.161
148.887
157.661
157.087
149.594
148.447
150.791
160.032
159.723
151.968
150.844
152.048
162.205
162.915
154.429
153.357
152.952
163.903
166.307
157.258
155.957
154.463
163.932
168.933
161.671
158.622
157.219
161.637
170.41
168.019
161.395
160.355
159.607
171.468
173.833
164.571
163.599
161.896
167.501
176.054
171.008
167.188
166.66
164.259
174.861
179.488
170.716
169.21
167.79
169.187
180.994
180.737
170.74
172.757
182.532
178.099
172.05
180.042
184.497
175.551
173.951
171.974
182.436
188.822
182.174
175.631
179.224
189.425
185.995
177.751
181.758
191.237
187.17
179.526
179.102
192.273
194.727
183.026
180.811
184.074
195.68
195.08
183.979
182.599
195.519
199.245
187.236
184.243
195.46
201.127
190.271
186.103
196.041
202.916
193.301
188.036
195.875
204.465
197.608
190.277
193.712
205.544
203.345
193.128
190.745
202.551
209.48
200.184
194.229
194.972
209.198
210.645
197.423
194.728
206.475
213.552
203.637
197.36
205.593
214.005
205.923
201.502
199.546
200.787
215.889
217.54
203.457
200.462
211.256
219.754
211.134
203.548
210.013
220.753
214.154
205.454
212.054
222.628
215.345
207.032
214.51
224.692
216.464
208.577
217.146
226.673
217.069
210.182
221.171
228.505
215.996
212.051
226.249
229.269
215.345
215.034
229.931
229.094
216.193
218.254
232.473
229.54
217.47
220.916
234.574
229.904
218.96
225.477
236.516
227.143
220.227
233.086
237.56
223.613
224.099
238.475
234.541
223.799
231.586
241.466
230.294
224.509
238.837
243.169
228.551
226.506
242.866
244.718
229.53
226.86
244.027
248.435
232.84
228.069
238.704
250.096
242.249
231.411
234.593
250.545
248.232
234.328
230.921
247.676
255.165
241.716
234.685
237.427
254.965
254.243
238.09
236.496
254.833
256.747
241.418
237.704
242.829
259.338
256.01
242.492
238.813
249.007
262.55
256.73
243.356
242.086
261.867
264.209
247.416
242.84
253.022
266.217
258.331
248.068
243.986
257.952
269.523
260.58
249.039
247.803
268.466
271.155
253.458
248.311
261.388
272.468
261.647
254.313
250.468
259.407
275.246
270.661
255.558
251.709
271.594
277.935
262.38
256.153
256.444
277.318
276.666
261.535
258.302
256.871
279.399
281.679
264.009
259.691
262.237
282.784
282.834
264.694
259.714
276.7
286.89
275.284
264.198
268.023
287.097
284.774
267.461
265.391
287.275
289.826
271.281
265.912
285.778
292.92
276.6
268.301
282.345
294.338
282.761
271.361
282.09
294.816
285.092
274.482
271.133
294.836
298.4
280.628
275.874
274.673
298.91
301.844
282.025
275.552
289.872
303.326
293.686
279.813
285.233
303.833
298.422
282.411
287.262
304.79
297.932
284.291
293.226
305.983
296.839
285.675
283.187
307.099
307.366
292.521
289.991
284.49
300.391
313.243
301.289
291.459
286.047
302.653
315.825
304.546
293.239
287.697
308.932
317.13
301.949
296.507
291.596
301.314
319.106
311.077
299.519
295.468
295.899
320.894
320.159
302.099
297.946
296.578
323.022
324.701
304.556
299.396
301.581
326.358
325.783
305.279
299.485
313.119
329.974
321.826
305.349
301.006
327.235
333.37
313.554
304.716
313.215
333.658
328.925
309.632
304.808
330.719
337.374
317.89
309.134
314.256
337.564
334.934
314.585
308.358
329.441
341.765
327.886
314.658
312.809
340.639
343.695
321.195
313.683
328.725
345.697
336.79
319.152
317.628
345.036
346.858
324.786
317.875
331.244
349.983
341.269
324.413
318.436
344.217
353.66
335.774
325.201
323.501
352.684
355.619
332.166
324.642
337.939
357.681
350.611
330.2
328.78
356.836
358.491
335.839
328.598
343.551
361.951
351.274
335.962
329.342
351.693
365.885
351.217
337.185
332.038
361.853
369.182
347.377
337.458
342.033
369.037
367.592
343.351
336.396
361.884
373.677
356.61
342.206
346.665
373.55
372.061
347.233
340.982
369.356
378.881
357.648
345.51
356.309
379.238
372.572
350.495
348.403
379.139
382.431
356.295
348.698
376.292
383.138
360.339
356.462
377.354
375.041
360.695
368.886
379.016
364.811
361.12
384.144
382.037
362.359
355.055
374.211
394.307
383.277
361.767
367.437
391.731
383.89
366.181
376.859
390.078
376.28
367.677
390.424
392.107
371.087
372.353
398.391
393.241
370.904
377.953
399.463
389.295
377.094
372.291
369.645
403.307
404.518
380.664
375.526
369.106
402.41
411.727
387.722
377.816
372.509
407.338
415.371
389.621
378.448
382.58
414.706
414.191
385.362
377.301
405.739
419.95
400.504
383.387
390.864
419.866
416.104
388.411
383.865
418.29
424.252
395.977
385.05
409.724
426.793
409.052
390.432
397.423
427.045
423.458
395.376
389.199
423.738
432.494
405.79
393.359
404.617
432.959
426.836
399.983
392.936
426.935
438.151
413.278
398.322
407.422
437.548
433.017
404.944
397.074
430.114
442.889
420.113
403.971
407.097
442.293
442.962
411.016
402.419
435.024
447.902
422.678
407.111
429.561
444.956
426.134
414.335
406.13
428.901
450.62
435.001
417.475
409.671
425.786
453.633
444.785
419.345
410.581
437.64
457.229
441.187
420.28
413.183
451.202
462.144
435.144
419.255
429.05
460.501
455.434
425.939
418.002
454.319
465.881
439.212
424.664
425.741
464.224
466.143
433.92
423.858
443.808
469.638
458.931
431.396
426.434
466.281
473.493
442.226
428.674
451.708
474.044
459.785
434.759
438.026
474.218
473.01
440.019
432.394
470.529
480.02
450.588
435.707
454.109
480.973
470.034
441.845
438.493
479.198
484.626
450.646
438.466
468.249
486.298
465.21
443.702
456.644
486.296
477.053
447.588
450.467
486.865
484.924
451.369
447.728
486.757
490.505
455.94
447.307
484.656
494.247
462.054
448.577
479.782
496.118
470.292
451.35
472.691
496.983
480.304
454.772
464.616
497.588
490.527
458.442
457.411
497.252
499.664
463.142
454.252
492.509
504.555
472.494
456.647
480.949
504.867
486.829
460.852
467.082
504.072
501.129
465.039
459.005
499.834
509.585
474.4
460.009
484.549
509.517
492.855
464.877
467.405
507.694
508.827
470.436
460.642
495.835
513.977
487.863
466.193
470.505
510.664
510.798
472.807
463.013
489.042
515.471
500.925
469.501
471.101
511.1
510.53
475.472
467.221
475.128
514.953
514.966
475.37
465.597
492.062
518.396
502.393
472.013
473.601
514.77
516.826
476.396
469.067
508.902
517.426
482.483
473.534
465.857
505.926
522.721
492.661
474.043
467.896
511.322
524.551
488.34
471.27
485.329
519.881
511.276
475.143
476.555
515.896
513.93
477.849
)
;

boundaryField
{
    sides
    {
        type            calculated;
        value           nonuniform List<scalar> 2(492.11 -36.8997);
    }
    empty
    {
        type            empty;
    }
}


// ************************************************************************* //
