/*--------------------------------*- C++ -*----------------------------------*\
  =========                 |
  \\      /  F ield         | OpenFOAM: The Open Source CFD Toolbox
   \\    /   O peration     | Website:  https://openfoam.org
    \\  /    A nd           | Version:  13
     \\/     M anipulation  |
\*---------------------------------------------------------------------------*/
FoamFile
{
    format      ascii;
    class       surfaceScalarField;
    location    "0.03";
    object      phi_0;
}
// * * * * * * * * * * * * * * * * * * * * * * * * * * * * * * * * * * * * * //

dimensions      [1 0 -1 0 0 0 0];

internalField   nonuniform List<scalar> 
999
(
37.4121
37.9234
38.4344
38.9451
39.4557
39.9663
40.4771
40.9879
41.4989
42.0099
42.5212
43.0328
43.5446
44.0566
44.5689
45.0813
45.5938
46.1063
46.6188
47.1312
47.6434
48.1553
48.667
49.1784
49.6896
50.2006
50.7113
51.222
51.7328
52.2436
52.7545
53.2655
53.7763
54.2867
54.7964
55.3047
55.8116
56.3171
56.8189
57.3221
57.8196
58.3167
58.8235
59.2988
59.8252
60.3014
60.7964
61.372
61.7393
62.3208
62.9148
63.1739
63.8581
64.5259
64.6354
65.3175
66.1412
66.1222
66.7086
67.6881
67.7849
68.104
69.0694
69.6321
69.5526
70.325
71.3151
71.0934
71.6561
72.7548
72.8627
73.1606
74.1688
74.5681
74.7289
75.6445
76.2617
76.1685
77.0282
78.2086
77.4032
77.9587
80.0935
79.4308
78.5381
81.1087
82.5129
79.8173
80.3664
84.0686
84.1145
81.5375
82.9673
86.436
85.3379
83.3445
85.7622
88.7726
86.3092
85.0948
88.6921
90.8772
87.3017
87.1041
91.5172
92.4184
88.7275
89.6092
93.9549
93.3515
90.4062
92.5484
96.2835
93.99
92.0431
95.5842
98.5797
94.8675
93.7849
98.4039
100.545
96.288
95.7563
95.9209
101.798
103.844
99.0225
97.9993
99.5568
104.866
105.022
100.337
100.188
106.087
108.084
102.858
101.9
106.532
110.112
106.482
104.152
106.149
111.615
111.089
106.435
106.285
112.785
114.888
109.14
108.078
111.957
116.626
114.242
110.595
110.75
117.714
119.441
113.243
112.323
116.198
121.214
119.12
114.997
114.613
121.748
124.399
118.274
116.911
118.668
125.433
125.641
119.609
118.771
123.747
128.623
125.481
121.704
120.98
128.31
131.636
125.623
123.839
123.541
131.764
133.969
126.997
126.111
125.732
134.249
136.51
129.469
128.668
127.734
135.358
139.32
134.045
131.205
130.164
137.636
141.835
136.654
133.201
133.856
142.487
143.882
135.875
134.631
142.032
146.495
140.478
137.111
140.509
147.718
145.453
139.923
138.719
144.884
150.779
146.867
142.384
141.242
145.842
153.024
150.961
144.833
143.689
147.676
155.422
153.784
147.169
145.976
149.981
157.884
156.104
149.497
148.259
151.88
160.256
158.766
151.858
150.659
153.013
162.451
162.103
154.284
153.189
153.574
164.353
165.846
156.893
155.808
154.549
164.985
169.04
160.666
158.485
156.978
163.008
170.682
166.803
161.297
160.168
160.232
172.009
173.269
164.291
163.464
161.622
169.032
176.333
169.842
167.102
166.431
164.374
176.006
179.276
170.089
169.085
167.48
170.43
181.285
179.535
170.551
173.946
182.771
176.743
171.952
181.31
184.08
175.037
173.76
171.971
183.865
189.17
180.569
175.344
180.724
189.746
184.464
177.49
183.245
191.556
185.646
179.277
180.026
192.802
193.973
182.551
180.5
185.686
196.017
193.692
183.715
183.186
196.393
198.721
186.422
184.383
196.828
200.982
189.039
186.029
197.661
203.022
191.782
187.746
197.697
204.842
195.816
189.941
195.43
205.904
201.707
192.898
190.813
204.197
209.735
198.449
193.905
196.376
209.64
209.475
196.977
194.772
208.176
213.753
201.857
197.038
207.533
214.259
204.412
201.304
199.154
202.442
216.319
216.338
202.957
200.297
213.278
220.133
209.119
203.159
212.1
221.166
212.125
205.073
214.144
223.034
213.296
206.647
216.664
225.069
214.413
208.214
219.322
226.981
215.063
210.019
223.185
228.251
214.561
212.6
227.445
228.12
214.803
216.397
230.427
227.351
215.853
220.091
232.878
227.529
217.085
222.984
234.984
227.745
218.561
227.717
236.833
225.065
220.368
234.793
236.532
222.976
225.705
238.85
232.506
223.425
233.854
241.578
228.352
224.872
240.41
242.188
227.66
227.641
243.724
243.31
228.856
227.731
245.312
247.602
231.638
227.615
241.475
250.61
239.677
230.897
236.989
250.988
246.07
233.935
231.268
249.769
255.158
239.581
234.116
239.906
255.459
252.183
237.596
237.902
255.671
255.334
240.758
237.08
245.732
259.8
253.665
242.139
238.234
252.17
263.091
254.016
242.896
243.789
262.678
262.814
246.537
242.206
256.209
266.697
255.782
247.698
243.661
261.071
270.061
257.744
248.534
249.642
269.31
269.791
252.392
247.847
264.502
272.774
259.324
253.956
249.804
262.882
275.785
267.895
255.096
252.388
273.596
277.468
260.495
255.49
258.892
277.844
274.69
261.105
257.695
258.867
280.276
280.222
263.093
258.959
265.238
283.29
280.77
263.97
259.612
279.754
287.278
272.325
263.433
271.195
287.572
282.243
266.85
267.217
288.295
288.376
270.036
266.395
288.124
292.505
274.265
267.736
285.845
294.708
279.755
270.641
285.531
295.15
282.402
273.901
272.685
296.2
297.109
279.447
275.13
277.059
299.812
300.465
280.543
274.912
293.683
303.841
290.436
279.058
288.778
304.291
295.447
281.749
290.608
305.176
295.052
283.603
296.545
306.264
294.166
285.033
285.266
307.925
305.562
292.114
289.543
283.964
304.305
313.578
298.402
290.934
285.538
306.643
316.237
301.463
292.675
287.878
311.953
316.686
300.08
296.051
290.698
305.583
319.539
308.221
299.084
294.601
299.08
321.466
317.807
301.5
297.125
299.274
323.908
322.783
303.537
298.46
305.231
326.941
323.249
304.435
298.57
317.658
330.556
318.31
304.665
302.506
329.239
332.609
311.034
303.639
317.658
334.219
325.607
308.897
306.057
333.017
336.658
315.334
308.063
318.492
338.112
331.891
313.812
308.198
333.439
342.18
324.251
313.853
315.647
341.708
341.982
319.473
312.742
333.485
346.306
332.987
318.352
320.561
345.999
344.776
323.431
316.808
336.174
350.579
337.566
323.705
319.053
347.518
353.494
332.509
324.307
326.588
353.772
353.726
330.466
323.548
343.023
358.345
346.673
329.362
331.816
357.84
356.299
334.408
327.517
348.679
362.532
347.491
335.272
329.061
356.312
366.357
347.264
336.386
333.679
364.352
368.398
344.369
336.25
346.719
369.702
364.322
342.3
336.654
365.92
374
352.408
341.133
351.343
374.237
368.669
346.159
342.02
372.637
378.465
353.998
344.246
361.703
379.917
368.413
349.584
351.57
380.471
380.279
354.21
349.692
379.304
381.575
358.406
358.407
377.946
372.743
360.173
371.962
378.553
362.408
363.588
384.867
379.234
361.329
354.114
380.045
395.129
378.368
360.772
372.205
392.207
380.066
365.461
380.853
390.01
373.2
368.961
392.258
389.786
369.839
376.205
398.99
389.321
369.947
382.704
399.848
385.953
376.542
371.06
373.078
404.555
401.754
379.678
374.626
370.552
405.866
410.845
384.482
376.853
374.787
410.065
414.308
386.175
377.177
387.98
415.566
410.514
383.948
377.546
410.66
420.375
395.464
382.113
396.63
420.645
411.723
387.24
386.641
420.534
422.455
392.938
384.579
415.413
427.363
403.873
389.164
403.209
427.833
419.068
394.158
391.232
426.866
431.392
402.014
391.8
411.091
433.792
421.965
398.902
394.363
430.903
437.754
408.663
396.906
413.781
438.368
428.374
403.766
398.006
434.718
442.923
415.131
402.608
412.741
443.295
439.24
409.197
403.296
439.692
447.595
417.737
406.26
435.226
444.949
422.161
413.448
405.064
435.776
451.291
429.984
416.587
408.161
433.059
454.491
439.504
418.325
409.983
444.189
457.985
435.652
419.166
415.217
455.052
461.618
430.226
417.717
435.875
461.33
450.482
424.648
419.498
458.632
465.256
434.621
423.26
431.292
465.364
462.781
431.818
422.336
451.247
470.56
453.114
430.136
429.843
468.847
471.82
438.233
427.427
458.794
474.895
453.859
433.393
444.024
475.159
468.631
438.254
434.604
474.174
478.91
446.09
434.057
461.613
481.89
464.124
440.516
442.737
481.202
482.073
447.359
438.208
474.629
486.908
459.111
442.155
463.858
487.152
471.205
446.248
456.307
487.834
480.21
449.73
451.76
488.731
487.202
453.288
449.416
488.509
492.61
457.847
448.702
485.85
496.123
464.413
450.069
480.057
497.897
473.829
453.347
471.659
498.522
484.66
457.107
462.436
498.813
495.696
460.805
456.105
496.993
503.571
467.352
455.446
488.474
505.886
480.033
459.425
473.867
505.167
495.649
463.436
462.04
503.309
507.843
469.873
458.791
492.254
510.675
485.786
463.511
473.495
509.101
504.165
468.328
461.226
502.075
514.662
481.004
464.738
477.072
511.999
505.81
470.989
461.996
496.916
516.822
493.495
468.173
476.884
512.457
505.594
474.092
465.735
482.481
516.284
509.614
473.644
464.597
499.975
519.757
494.841
470.707
479.448
516.399
512.017
474.259
471.706
512.535
514.773
479.746
472.462
467.404
511.671
522.861
486.165
472.818
470.936
515.4
523.885
482.651
469.741
492.914
521.22
504.666
473.703
481.037
519.101
510.317
473.875
)
;

boundaryField
{
    sides
    {
        type            calculated;
        value           nonuniform List<scalar> 2(492.492 -36.9004);
    }
    empty
    {
        type            empty;
    }
}


// ************************************************************************* //
