/*--------------------------------*- C++ -*----------------------------------*\
  =========                 |
  \\      /  F ield         | OpenFOAM: The Open Source CFD Toolbox
   \\    /   O peration     | Website:  https://openfoam.org
    \\  /    A nd           | Version:  13
     \\/     M anipulation  |
\*---------------------------------------------------------------------------*/
FoamFile
{
    format      ascii;
    class       volScalarField;
    location    "0.03";
    object      rho;
}
// * * * * * * * * * * * * * * * * * * * * * * * * * * * * * * * * * * * * * //

dimensions      [1 -3 0 0 0 0 0];

internalField   nonuniform List<scalar> 
1000
(
0.336426
0.336375
0.336272
0.336169
0.336081
0.336017
0.335956
0.335894
0.335827
0.335753
0.335675
0.335598
0.33552
0.335444
0.335369
0.335296
0.335222
0.335148
0.335074
0.334997
0.334917
0.334836
0.334754
0.334671
0.334588
0.334505
0.334421
0.334337
0.334252
0.334166
0.334077
0.333987
0.333895
0.333802
0.333708
0.333615
0.333524
0.333434
0.333347
0.333264
0.333183
0.333105
0.333031
0.33296
0.332888
0.332838
0.332762
0.332726
0.332677
0.33259
0.332591
0.332487
0.332397
0.332438
0.332308
0.332185
0.332245
0.332158
0.331972
0.332018
0.332033
0.331779
0.331758
0.331869
0.331646
0.331511
0.331631
0.331548
0.331301
0.331369
0.331409
0.331151
0.331148
0.331232
0.331021
0.33097
0.331077
0.330894
0.330757
0.330944
0.330852
0.330432
0.330686
0.330917
0.330173
0.330136
0.33084
0.330397
0.329616
0.330165
0.330803
0.329923
0.329377
0.330201
0.330594
0.329489
0.329201
0.330185
0.330265
0.329059
0.329076
0.33012
0.329793
0.32867
0.32906
0.329993
0.329217
0.328363
0.329127
0.32977
0.328637
0.328146
0.329191
0.329451
0.328139
0.328005
0.329194
0.329081
0.327752
0.327913
0.329118
0.328686
0.327506
0.327165
0.327867
0.329081
0.328712
0.327231
0.326906
0.328054
0.328882
0.327712
0.326735
0.327265
0.328554
0.328026
0.326618
0.326649
0.328117
0.328228
0.326615
0.32619
0.327463
0.328233
0.326872
0.325961
0.326569
0.32794
0.327382
0.325896
0.325757
0.327298
0.32774
0.326095
0.325402
0.326222
0.327544
0.326779
0.325347
0.325192
0.326778
0.327302
0.32565
0.32488
0.325443
0.326977
0.326574
0.324908
0.324523
0.325859
0.326876
0.325579
0.324436
0.324385
0.32611
0.326513
0.324732
0.324024
0.324418
0.32614
0.325931
0.324158
0.323655
0.32441
0.326021
0.325319
0.323783
0.323346
0.324097
0.325776
0.325076
0.323552
0.323139
0.323446
0.325342
0.325411
0.323502
0.322915
0.32316
0.325069
0.325197
0.323214
0.322572
0.323749
0.325159
0.324101
0.322534
0.322719
0.324623
0.324678
0.32264
0.322162
0.323882
0.324685
0.322901
0.321994
0.321932
0.323953
0.32442
0.322454
0.321716
0.321487
0.323445
0.324249
0.322413
0.321448
0.321158
0.323071
0.323982
0.322199
0.321162
0.320866
0.322802
0.32372
0.321918
0.320901
0.320565
0.322481
0.323489
0.321736
0.320682
0.320264
0.322011
0.323275
0.321724
0.320495
0.320003
0.321305
0.323004
0.321916
0.320318
0.319816
0.320353
0.322523
0.322236
0.320203
0.319674
0.319477
0.321706
0.322412
0.320393
0.319594
0.319084
0.320387
0.322239
0.321061
0.319609
0.319182
0.319048
0.321472
0.321785
0.319853
0.319456
0.318934
0.319523
0.321786
0.321114
0.319428
0.319049
0.318571
0.320567
0.321912
0.319988
0.318835
0.320649
0.321301
0.31921
0.319285
0.321214
0.320389
0.318845
0.31834
0.318822
0.321334
0.321412
0.318912
0.318354
0.320544
0.321324
0.319052
0.318384
0.320517
0.321114
0.318876
0.317947
0.319513
0.321353
0.319982
0.318146
0.317781
0.320085
0.321253
0.319154
0.317724
0.318861
0.32097
0.319887
0.317755
0.318324
0.320664
0.32005
0.317715
0.318005
0.320444
0.320138
0.317692
0.317634
0.320137
0.320351
0.317817
0.317185
0.319511
0.320544
0.318283
0.317042
0.317591
0.320228
0.320051
0.31746
0.316751
0.318755
0.320467
0.318706
0.316847
0.317362
0.319993
0.319758
0.317117
0.317024
0.319572
0.319528
0.317386
0.316816
0.316283
0.318539
0.320287
0.318502
0.316539
0.316833
0.31964
0.319695
0.316991
0.316612
0.319229
0.319691
0.317086
0.316641
0.319236
0.319601
0.316984
0.316671
0.319327
0.319544
0.316906
0.316726
0.319412
0.319405
0.316793
0.316994
0.319597
0.318959
0.316591
0.31756
0.319796
0.318289
0.316459
0.31822
0.31987
0.317748
0.316424
0.318655
0.319906
0.317487
0.316423
0.318882
0.319876
0.317305
0.31666
0.319275
0.319446
0.316897
0.317396
0.319793
0.318485
0.316667
0.318587
0.319848
0.317477
0.31699
0.319585
0.319395
0.316936
0.317697
0.320135
0.318835
0.31676
0.318305
0.32044
0.318705
0.316711
0.318091
0.320663
0.319429
0.316977
0.317065
0.320276
0.320704
0.317766
0.31689
0.31962
0.321019
0.318588
0.317029
0.317976
0.321102
0.320644
0.31779
0.317125
0.319942
0.321656
0.319319
0.31751
0.319352
0.321648
0.319978
0.318032
0.317639
0.320835
0.322146
0.319588
0.318196
0.318197
0.321687
0.322517
0.319602
0.318289
0.320433
0.322841
0.32118
0.318968
0.318947
0.322434
0.322993
0.320241
0.319196
0.319551
0.323175
0.323576
0.320537
0.319422
0.321687
0.324194
0.322572
0.320178
0.320423
0.323938
0.323983
0.321397
0.320625
0.320492
0.324155
0.325283
0.322435
0.320902
0.322221
0.325463
0.324678
0.322006
0.321262
0.324061
0.326175
0.324093
0.322529
0.321845
0.324331
0.326999
0.325305
0.323106
0.322542
0.325751
0.327753
0.325585
0.323514
0.324179
0.327877
0.327965
0.324888
0.324093
0.327364
0.329016
0.326514
0.324753
0.326961
0.329649
0.328031
0.325615
0.326775
0.330159
0.329471
0.326579
0.326791
0.330498
0.330699
0.327674
0.327438
0.330928
0.331284
0.328615
0.327528
0.329641
0.332761
0.33135
0.329053
0.328322
0.331098
0.333912
0.332328
0.329664
0.329897
0.33387
0.334396
0.331257
0.330399
0.333874
0.335225
0.332423
0.331309
0.334573
0.335679
0.332966
0.332442
0.335672
0.336085
0.333542
0.332426
0.334928
0.337621
0.335852
0.334423
0.333831
0.3342
0.338326
0.338512
0.335663
0.33471
0.335134
0.33937
0.339681
0.336693
0.335598
0.336651
0.340553
0.339952
0.337596
0.336945
0.336752
0.340874
0.341807
0.339128
0.338192
0.337506
0.340835
0.343266
0.34105
0.339271
0.338524
0.341534
0.344437
0.342529
0.34024
0.339594
0.343229
0.345557
0.343189
0.340997
0.341091
0.345457
0.346394
0.343197
0.341662
0.343724
0.347363
0.346389
0.343255
0.342843
0.346984
0.348505
0.345543
0.343672
0.345543
0.349316
0.34839
0.345287
0.344655
0.348657
0.350585
0.347868
0.345829
0.346633
0.35104
0.35117
0.347777
0.346601
0.349617
0.35272
0.350983
0.348118
0.348249
0.352732
0.353635
0.350271
0.348745
0.351774
0.354738
0.352773
0.350185
0.350152
0.354716
0.355737
0.352479
0.350923
0.352379
0.356685
0.356223
0.352876
0.351859
0.355061
0.358253
0.356394
0.353497
0.353433
0.358073
0.359325
0.355946
0.354162
0.357224
0.360244
0.358236
0.355584
0.355634
0.360331
0.361143
0.357834
0.356452
0.357228
0.362026
0.362239
0.358681
0.357374
0.359589
0.363716
0.362729
0.359281
0.358539
0.362779
0.365122
0.36232
0.359848
0.361051
0.365661
0.365533
0.361751
0.3608
0.364956
0.367264
0.364375
0.36184
0.363557
0.367928
0.367232
0.363515
0.363073
0.367765
0.369273
0.365829
0.363905
0.367025
0.370424
0.368434
0.365205
0.366849
0.370945
0.369504
0.366704
0.368694
0.370809
0.368944
0.368245
0.370929
0.370631
0.368509
0.370812
0.373068
0.370815
0.368762
0.369072
0.374316
0.375294
0.371234
0.369886
0.373963
0.375542
0.372431
0.371795
0.375227
0.375241
0.372686
0.374162
0.377084
0.375234
0.373214
0.376543
0.378681
0.375564
0.374132
0.378126
0.379127
0.376368
0.375437
0.374498
0.377927
0.38144
0.379104
0.376735
0.375782
0.377945
0.382741
0.38171
0.378088
0.376953
0.379608
0.384132
0.382932
0.379056
0.378195
0.382787
0.385609
0.382608
0.379634
0.380864
0.385999
0.385911
0.381666
0.380694
0.385447
0.387704
0.384261
0.381708
0.384565
0.388678
0.386958
0.383196
0.383892
0.389144
0.389358
0.385095
0.384007
0.388738
0.391056
0.387629
0.384973
0.387394
0.39201
0.390817
0.386821
0.386286
0.391541
0.393496
0.389722
0.38729
0.389342
0.394331
0.393594
0.389274
0.388499
0.39364
0.395907
0.392329
0.389708
0.391467
0.396719
0.396291
0.391949
0.390792
0.39547
0.398648
0.395675
0.392316
0.393997
0.399194
0.398534
0.394114
0.394487
0.399421
0.399214
0.395859
0.394719
0.395108
0.400981
0.401644
0.397661
0.396248
0.39613
0.402002
0.403703
0.399683
0.397523
0.398305
0.404203
0.404789
0.400445
0.398666
0.4012
0.406441
0.405605
0.40105
0.400263
0.405671
0.407971
0.40426
0.40156
0.403732
0.409043
0.408185
0.403865
0.402698
0.407358
0.410997
0.408328
0.404855
0.404949
0.41095
0.412399
0.40803
0.405759
0.40911
0.413796
0.412174
0.407858
0.408168
0.414011
0.414966
0.410491
0.408804
0.413618
0.416738
0.41346
0.410228
0.412817
0.417864
0.416623
0.412241
0.412071
0.41803
0.419541
0.415152
0.412854
0.416682
0.421059
0.418881
0.414742
0.415738
0.421563
0.421727
0.41699
0.416117
0.421698
0.423531
0.419237
0.417109
0.421761
0.424895
0.421425
0.418344
0.42191
0.426091
0.423503
0.41967
0.422071
0.427076
0.425492
0.421086
0.42224
0.427908
0.427468
0.422646
0.422538
0.428343
0.429205
0.424347
0.423013
0.428406
0.430707
0.426411
0.423813
0.427964
0.431822
0.428761
0.424908
0.42718
0.432496
0.431208
0.426285
0.426546
0.432527
0.43329
0.428147
0.426552
0.431754
0.434678
0.430638
0.427264
0.430233
0.435245
0.433441
0.428548
0.428815
0.434909
0.43583
0.430528
0.428566
0.433339
0.436965
0.433386
0.429411
0.430901
0.436854
0.436622
0.431137
0.429664
0.43473
0.438221
0.434422
0.430596
0.43102
0.437307
0.438565
0.433058
0.430771
0.435306
0.438818
0.435096
0.431742
0.430946
0.43654
0.439818
0.435732
0.431863
0.432285
0.438585
0.439687
0.434062
0.431885
0.436439
0.440216
0.4365
0.432391
0.435025
0.439869
0.437529
0.433452
0.432124
0.434241
0.440317
0.439641
0.433981
0.432341
0.435335
0.4407
0.439288
0.433727
0.43288
0.438483
0.44103
0.436243
0.432778
0.436201
0.441154
0.438613
0.433723
)
;

boundaryField
{
    sides
    {
        type            calculated;
        value           nonuniform List<scalar> 2(0.433723 0.336426);
    }
    empty
    {
        type            empty;
    }
}


// ************************************************************************* //
