/*--------------------------------*- C++ -*----------------------------------*\
  =========                 |
  \\      /  F ield         | OpenFOAM: The Open Source CFD Toolbox
   \\    /   O peration     | Website:  https://openfoam.org
    \\  /    A nd           | Version:  13
     \\/     M anipulation  |
\*---------------------------------------------------------------------------*/
FoamFile
{
    format      ascii;
    class       volScalarField;
    location    "0.03";
    object      rho_0;
}
// * * * * * * * * * * * * * * * * * * * * * * * * * * * * * * * * * * * * * //

dimensions      [1 -3 0 0 0 0 0];

internalField   nonuniform List<scalar> 
1000
(
0.336438
0.336387
0.336285
0.336182
0.336094
0.336029
0.335968
0.335907
0.33584
0.335766
0.335688
0.33561
0.335533
0.335457
0.335382
0.335308
0.335235
0.335161
0.335087
0.33501
0.33493
0.334849
0.334766
0.334683
0.334601
0.334517
0.334434
0.33435
0.334265
0.334178
0.33409
0.334
0.333908
0.333815
0.333721
0.333628
0.333536
0.333447
0.33336
0.333276
0.333196
0.333117
0.333044
0.332972
0.332901
0.33285
0.332775
0.332741
0.332686
0.332604
0.332606
0.332493
0.332414
0.332455
0.33231
0.332202
0.332266
0.332157
0.331986
0.332042
0.332037
0.331786
0.331781
0.331884
0.331644
0.331529
0.331656
0.331543
0.331314
0.331396
0.331413
0.331158
0.331173
0.331243
0.331024
0.330992
0.331094
0.330891
0.330777
0.330974
0.330833
0.330443
0.33074
0.330904
0.330148
0.330197
0.330879
0.330331
0.329627
0.330258
0.330809
0.329856
0.329409
0.33029
0.330572
0.329436
0.329257
0.330263
0.330209
0.329024
0.329161
0.330179
0.329708
0.32866
0.329168
0.330021
0.329123
0.32838
0.329237
0.329761
0.328559
0.328194
0.329287
0.329401
0.328085
0.328087
0.329273
0.328995
0.32772
0.328022
0.329177
0.328584
0.327489
0.327166
0.328012
0.329135
0.328597
0.327201
0.326939
0.32819
0.328892
0.327591
0.326729
0.327409
0.328609
0.3279
0.326591
0.326756
0.328212
0.328148
0.32655
0.326233
0.327604
0.328227
0.326751
0.325955
0.326727
0.327998
0.327243
0.325865
0.325844
0.327421
0.327691
0.325996
0.325402
0.326394
0.327594
0.326627
0.325321
0.325278
0.32691
0.32726
0.325539
0.324869
0.325615
0.327049
0.32643
0.324868
0.324558
0.326033
0.32689
0.325424
0.324416
0.324498
0.32624
0.326447
0.324629
0.324005
0.324591
0.32623
0.325793
0.324105
0.323644
0.324611
0.326084
0.325149
0.323756
0.323333
0.324304
0.325842
0.324905
0.323527
0.323116
0.323624
0.325449
0.325294
0.323421
0.322889
0.323334
0.325182
0.325084
0.323116
0.322581
0.323966
0.325202
0.323902
0.3225
0.32289
0.324743
0.324545
0.322544
0.322233
0.324071
0.324642
0.322753
0.321966
0.32207
0.324111
0.324339
0.32233
0.321689
0.321586
0.323635
0.324212
0.322249
0.32142
0.321242
0.323275
0.323955
0.322023
0.321134
0.320951
0.32301
0.32369
0.321742
0.320871
0.32064
0.322701
0.323466
0.321553
0.320652
0.320309
0.322255
0.323279
0.321521
0.320468
0.320004
0.321575
0.323052
0.321693
0.320287
0.319783
0.3206
0.322636
0.322043
0.320137
0.319637
0.319607
0.321912
0.322333
0.320242
0.319567
0.319077
0.32068
0.322284
0.320835
0.319586
0.319138
0.31921
0.32167
0.321642
0.31977
0.319441
0.31888
0.319798
0.321885
0.320892
0.319395
0.319011
0.318627
0.320849
0.321886
0.319751
0.318903
0.320881
0.321171
0.319076
0.319499
0.321304
0.320166
0.318807
0.318294
0.319098
0.32148
0.321224
0.318763
0.318466
0.320784
0.321216
0.318862
0.318506
0.320739
0.32099
0.3187
0.317953
0.319835
0.321398
0.319695
0.318092
0.317887
0.320359
0.321216
0.318892
0.317702
0.319184
0.321045
0.319587
0.317692
0.318616
0.320787
0.319769
0.317625
0.318271
0.320597
0.319882
0.317575
0.317854
0.320333
0.320155
0.317651
0.317297
0.319789
0.320464
0.318045
0.316988
0.317902
0.320384
0.319798
0.317327
0.316792
0.319096
0.320482
0.318387
0.316787
0.317672
0.320151
0.31949
0.316977
0.317255
0.319761
0.319308
0.31729
0.316765
0.316341
0.318899
0.320306
0.318161
0.31647
0.317126
0.319831
0.319454
0.31682
0.316803
0.319476
0.319497
0.316889
0.316836
0.319479
0.319391
0.316797
0.316887
0.319558
0.319311
0.316729
0.316969
0.319625
0.319141
0.316644
0.317291
0.319752
0.318637
0.316517
0.317918
0.319842
0.317951
0.316476
0.31858
0.31982
0.317444
0.316504
0.318991
0.319802
0.317206
0.31654
0.319202
0.319728
0.317054
0.316854
0.319525
0.319186
0.316752
0.317731
0.319871
0.318145
0.316708
0.318929
0.31972
0.317231
0.317216
0.319803
0.319096
0.31682
0.318065
0.320212
0.318475
0.316735
0.318706
0.320457
0.318338
0.316666
0.31852
0.320747
0.319039
0.316867
0.317366
0.320534
0.320472
0.31752
0.317007
0.319993
0.320928
0.318263
0.316957
0.318409
0.321263
0.320288
0.317631
0.317233
0.320354
0.321604
0.318937
0.317497
0.319799
0.321667
0.319607
0.317939
0.317811
0.321216
0.322027
0.319275
0.318104
0.318494
0.321994
0.322332
0.319295
0.318288
0.320912
0.322871
0.320771
0.318858
0.319244
0.322731
0.322761
0.320009
0.319098
0.319936
0.323433
0.323314
0.320275
0.319424
0.322187
0.324232
0.322139
0.320058
0.320788
0.32418
0.323686
0.321235
0.320527
0.320764
0.324515
0.325127
0.322086
0.320825
0.322727
0.325591
0.324278
0.321862
0.321311
0.324555
0.326127
0.323736
0.322446
0.321846
0.324874
0.327026
0.324874
0.322999
0.322654
0.326232
0.32772
0.325151
0.3234
0.324634
0.328099
0.327639
0.324635
0.324238
0.327806
0.328919
0.326107
0.324735
0.327492
0.32968
0.327576
0.325506
0.327285
0.330304
0.329047
0.326394
0.327184
0.330759
0.330373
0.327418
0.327752
0.331207
0.331008
0.328373
0.327477
0.330224
0.332817
0.330912
0.328937
0.328335
0.33168
0.333954
0.331837
0.329514
0.330303
0.334167
0.334111
0.33094
0.330588
0.3343
0.335047
0.332052
0.33148
0.334973
0.335468
0.332654
0.332711
0.335953
0.335824
0.333286
0.332403
0.335504
0.337594
0.335501
0.334358
0.333697
0.334644
0.338604
0.33818
0.335443
0.33458
0.335596
0.339656
0.339361
0.336438
0.335474
0.337206
0.340716
0.339562
0.337474
0.336819
0.337056
0.341271
0.341568
0.338868
0.338086
0.337571
0.341424
0.343209
0.340623
0.339163
0.338539
0.342166
0.344442
0.342042
0.34011
0.339709
0.343807
0.345501
0.342701
0.340855
0.341492
0.345831
0.346141
0.342819
0.341587
0.344376
0.347482
0.34588
0.34305
0.343122
0.347447
0.348338
0.345094
0.343583
0.346193
0.349445
0.347889
0.345083
0.34485
0.349192
0.350473
0.347389
0.345686
0.3472
0.351305
0.35078
0.347477
0.346606
0.350283
0.352759
0.350428
0.347942
0.348687
0.353108
0.35336
0.349866
0.348759
0.352428
0.354744
0.352236
0.350018
0.350554
0.355132
0.355468
0.352094
0.350798
0.353044
0.356879
0.355747
0.352636
0.351872
0.355759
0.358286
0.355817
0.353317
0.353834
0.358514
0.359092
0.355475
0.35418
0.357893
0.360243
0.357685
0.35541
0.356076
0.360736
0.360826
0.357488
0.356298
0.357834
0.362331
0.361825
0.358365
0.357283
0.360332
0.363858
0.362167
0.359051
0.358728
0.363402
0.365034
0.361746
0.359697
0.361721
0.365911
0.365061
0.361425
0.360985
0.365577
0.367173
0.363787
0.361717
0.36428
0.368121
0.366672
0.363238
0.363421
0.36828
0.369047
0.365318
0.36391
0.367762
0.370459
0.367791
0.365058
0.36755
0.37106
0.368939
0.366655
0.369193
0.370716
0.368611
0.368491
0.371136
0.370261
0.368477
0.37136
0.372971
0.370348
0.368586
0.369623
0.374759
0.374951
0.370744
0.3701
0.374515
0.375293
0.372029
0.372115
0.375506
0.374868
0.372527
0.374727
0.377076
0.374727
0.373311
0.377149
0.378496
0.375044
0.374379
0.378607
0.378831
0.376095
0.375308
0.374497
0.378732
0.381418
0.378535
0.376606
0.375661
0.378786
0.382921
0.381093
0.377862
0.37687
0.38047
0.384284
0.382271
0.378798
0.378385
0.38353
0.385536
0.381922
0.37946
0.381616
0.3863
0.38537
0.38128
0.380968
0.386109
0.387543
0.383612
0.381651
0.385406
0.388774
0.386248
0.382958
0.384569
0.389509
0.388854
0.384674
0.38427
0.389415
0.390899
0.38697
0.384868
0.388255
0.392176
0.390129
0.386534
0.386663
0.39218
0.393271
0.389099
0.387155
0.390206
0.394558
0.392934
0.388935
0.388821
0.394324
0.395724
0.391673
0.389547
0.39232
0.396983
0.395673
0.391584
0.390962
0.396288
0.398601
0.394908
0.392142
0.394841
0.399455
0.397861
0.393777
0.395112
0.399738
0.398707
0.395596
0.39452
0.39576
0.40145
0.401192
0.397269
0.396051
0.396632
0.402621
0.403407
0.399099
0.397319
0.399052
0.404625
0.404318
0.399973
0.398539
0.402154
0.406661
0.404891
0.400689
0.400609
0.406382
0.407771
0.403571
0.401407
0.404655
0.409272
0.407485
0.403533
0.402818
0.408258
0.410984
0.407547
0.404615
0.405545
0.411519
0.41205
0.407398
0.405703
0.41008
0.413921
0.411379
0.407556
0.40883
0.414497
0.414531
0.40992
0.408981
0.414455
0.416637
0.412674
0.410096
0.41377
0.418042
0.415861
0.411904
0.412632
0.418623
0.419186
0.414503
0.412849
0.417659
0.421133
0.418036
0.41448
0.416544
0.421945
0.421129
0.416506
0.416544
0.422361
0.423217
0.418558
0.417275
0.422605
0.424772
0.42063
0.418331
0.422848
0.426116
0.422659
0.419519
0.423007
0.427247
0.424672
0.420806
0.423073
0.428243
0.426766
0.422229
0.423164
0.428873
0.428705
0.42377
0.423362
0.429153
0.430445
0.425667
0.423874
0.428907
0.431809
0.427879
0.424745
0.428148
0.432728
0.430374
0.425939
0.427243
0.433047
0.432752
0.427561
0.426812
0.432605
0.434518
0.429789
0.427181
0.431241
0.435421
0.432545
0.428231
0.429521
0.435456
0.43532
0.429896
0.428727
0.434281
0.436912
0.432467
0.429209
0.431829
0.437239
0.435894
0.430654
0.429876
0.435663
0.43814
0.433521
0.430369
0.431764
0.437892
0.438099
0.432346
0.430906
0.436243
0.438722
0.43427
0.431535
0.431255
0.437457
0.439729
0.434796
0.431635
0.43304
0.439166
0.439184
0.433377
0.432019
0.437408
0.440182
0.435533
0.432275
0.436015
0.440003
0.436669
0.433242
0.431977
0.435273
0.440667
0.438828
0.433571
0.432253
0.436414
0.440967
0.438343
0.433345
0.43334
0.439269
0.440715
0.435407
0.432894
0.437156
0.44102
0.437719
0.434128
)
;

boundaryField
{
    sides
    {
        type            calculated;
        value           nonuniform List<scalar> 2(0.434128 0.336438);
    }
    empty
    {
        type            empty;
    }
}


// ************************************************************************* //
