/*--------------------------------*- C++ -*----------------------------------*\
  =========                 |
  \\      /  F ield         | OpenFOAM: The Open Source CFD Toolbox
   \\    /   O peration     | Website:  https://openfoam.org
    \\  /    A nd           | Version:  13
     \\/     M anipulation  |
\*---------------------------------------------------------------------------*/
FoamFile
{
    format      ascii;
    class       volScalarField;
    location    "0.03";
    object      T;
}
// * * * * * * * * * * * * * * * * * * * * * * * * * * * * * * * * * * * * * //

dimensions      [0 0 0 1 0 0 0];

internalField   nonuniform List<scalar> 
1000
(
224.658
224.653
224.642
224.63
224.62
224.615
224.611
224.607
224.602
224.596
224.589
224.582
224.575
224.569
224.563
224.558
224.553
224.548
224.543
224.537
224.532
224.525
224.519
224.513
224.506
224.5
224.495
224.489
224.484
224.479
224.474
224.468
224.462
224.456
224.449
224.442
224.435
224.428
224.42
224.412
224.404
224.395
224.386
224.375
224.361
224.352
224.333
224.322
224.306
224.276
224.271
224.242
224.217
224.23
224.198
224.163
224.18
224.159
224.105
224.116
224.123
224.052
224.043
224.075
224.017
223.977
224.01
223.994
223.925
223.943
223.959
223.889
223.887
223.913
223.857
223.841
223.871
223.824
223.783
223.832
223.814
223.695
223.758
223.831
223.628
223.605
223.802
223.695
223.468
223.607
223.796
223.564
223.399
223.618
223.742
223.443
223.348
223.617
223.658
223.322
223.31
223.603
223.534
223.212
223.303
223.574
223.378
223.124
223.323
223.518
223.215
223.061
223.343
223.436
223.072
223.016
223.347
223.34
222.963
222.987
223.329
223.232
222.89
222.794
222.968
223.32
223.241
222.816
222.718
223.022
223.272
222.966
222.677
222.803
223.177
223.057
222.649
222.641
223.053
223.109
222.658
222.526
222.866
223.103
222.742
222.471
222.616
223.015
222.889
222.457
222.403
222.828
222.977
222.527
222.318
222.521
222.91
222.726
222.305
222.248
222.684
222.856
222.406
222.176
222.306
222.752
222.672
222.189
222.071
222.424
222.732
222.394
222.053
222.021
222.501
222.642
222.15
221.939
222.021
222.516
222.492
221.981
221.835
222.016
222.489
222.329
221.875
221.752
221.931
222.425
222.265
221.814
221.699
221.756
222.301
222.353
221.812
221.64
221.68
222.226
222.295
221.736
221.54
221.84
222.264
222.004
221.536
221.56
222.104
222.156
221.576
221.418
221.884
222.144
221.66
221.385
221.346
221.913
222.081
221.536
221.312
221.232
221.77
222.031
221.535
221.242
221.148
221.668
221.96
221.482
221.165
221.068
221.596
221.891
221.407
221.096
220.988
221.507
221.828
221.36
221.036
220.91
221.372
221.768
221.363
220.987
220.845
221.172
221.687
221.422
220.938
220.799
220.91
221.547
221.512
220.915
220.759
220.682
221.3
221.54
220.983
220.736
220.59
220.913
221.479
221.188
220.741
220.623
220.555
221.237
221.377
220.824
220.703
220.559
220.675
221.344
221.204
220.695
220.589
220.44
220.97
221.398
220.889
220.516
221.003
221.241
220.655
220.622
221.186
221.003
220.535
220.392
220.48
221.216
221.286
220.572
220.376
220.98
221.253
220.626
220.39
220.98
221.202
220.576
220.285
220.68
221.247
220.91
220.348
220.223
220.853
221.232
220.676
220.226
220.499
221.14
220.891
220.244
220.358
221.051
220.939
220.245
220.276
220.987
220.963
220.243
220.18
220.896
221.015
220.29
220.069
220.706
221.052
220.436
220.051
220.155
220.931
220.942
220.184
219.956
220.48
221.019
220.573
219.997
220.09
220.867
220.865
220.09
220.011
220.744
220.795
220.166
219.996
219.831
220.427
220.979
220.53
219.922
219.955
220.773
220.855
220.073
219.911
220.649
220.847
220.107
219.921
220.654
220.827
220.079
219.931
220.686
220.817
220.057
219.945
220.717
220.788
220.025
220.017
220.781
220.676
219.961
220.172
220.858
220.491
219.917
220.365
220.896
220.336
219.899
220.496
220.918
220.26
219.897
220.566
220.919
220.208
219.957
220.695
220.819
220.077
220.145
220.868
220.566
219.988
220.49
220.915
220.27
220.054
220.794
220.821
220.093
220.238
220.973
220.679
220.031
220.407
221.073
220.645
220.022
220.343
221.135
220.859
220.11
220.076
221.001
221.195
220.364
220.06
220.797
221.268
220.618
220.13
220.325
221.262
221.211
220.363
220.136
220.895
221.452
220.843
220.266
220.721
221.443
221.033
220.429
220.282
221.16
221.608
220.92
220.481
220.425
221.422
221.727
220.923
220.499
221.036
221.791
221.392
220.708
220.642
221.633
221.87
221.092
220.772
220.804
221.859
222.048
221.185
220.828
221.395
222.178
221.795
221.057
221.055
222.073
222.17
221.417
221.183
221.091
222.115
222.511
221.743
221.26
221.546
222.525
222.387
221.586
221.347
222.074
222.751
222.219
221.727
221.521
222.138
222.973
222.569
221.888
221.699
222.55
223.195
222.65
222.007
222.11
223.19
223.293
222.417
222.132
223.013
223.557
222.906
222.342
222.881
223.713
223.338
222.597
222.829
223.835
223.729
222.873
222.848
223.908
224.047
223.192
223.043
224.022
224.2
223.45
223.115
223.611
224.564
224.249
223.549
223.325
224.015
224.882
224.525
223.72
223.707
224.831
225.06
224.192
223.876
224.807
225.267
224.526
224.133
225.004
225.396
224.664
224.428
225.32
225.515
224.811
224.461
225.062
225.896
225.467
225.024
224.862
224.876
226.044
226.185
225.381
225.097
225.128
226.326
226.499
225.669
225.338
225.529
226.663
226.584
225.89
225.708
225.595
226.714
227.06
226.333
226.048
225.836
226.671
227.43
226.889
226.344
226.121
226.855
227.741
227.301
226.609
226.398
227.325
228.051
227.477
226.815
226.762
227.963
228.301
227.455
226.985
227.439
228.518
228.342
227.434
227.25
228.357
228.852
228.096
227.527
227.926
229.032
228.877
227.978
227.754
228.785
229.401
228.726
228.112
228.231
229.469
229.598
228.663
228.302
229.019
229.95
229.571
228.732
228.679
229.906
230.233
229.352
228.873
229.6
230.489
230.047
229.283
229.197
230.426
230.792
229.939
229.476
229.753
230.98
230.95
230.013
229.703
230.461
231.413
231.008
230.161
230.064
231.297
231.725
230.861
230.308
231.03
231.928
231.481
230.704
230.634
231.89
232.204
231.33
230.925
231.024
232.346
232.5
231.539
231.155
231.621
232.808
232.648
231.67
231.419
232.482
233.197
232.529
231.805
232.005
233.288
233.353
232.322
232.005
233.04
233.745
233.062
232.316
232.65
233.88
233.802
232.771
232.57
233.783
234.276
233.414
232.829
233.55
234.535
234.113
233.184
233.496
234.647
234.375
233.568
233.999
234.626
234.184
233.921
234.617
234.622
234.02
234.531
235.202
234.675
234.087
234.067
235.448
235.811
234.775
234.315
235.328
235.846
235.063
234.792
235.684
235.779
235.086
235.361
236.19
235.794
235.178
235.963
236.619
235.866
235.387
236.382
236.744
236.032
235.77
235.508
236.275
237.293
236.777
236.092
235.842
236.267
237.605
237.448
236.449
236.132
236.687
237.946
237.754
236.691
236.415
237.51
238.338
237.664
236.815
237.007
238.39
238.476
237.358
237.024
238.182
238.861
238.059
237.309
237.915
239.069
238.741
237.697
237.754
239.14
239.309
238.213
237.844
238.985
239.678
238.891
238.126
238.605
239.87
239.685
238.596
238.375
239.674
240.279
239.385
238.692
239.077
240.429
240.358
239.209
238.929
240.178
240.856
240.027
239.28
239.589
240.995
241
239.861
239.498
240.588
241.498
240.86
239.919
240.208
241.596
241.556
240.393
240.353
241.627
241.689
240.813
240.514
240.505
241.998
242.279
241.28
240.888
240.769
242.22
242.76
241.802
241.198
241.271
242.79
243.047
241.969
241.473
241.959
243.365
243.277
242.084
241.801
243.094
243.775
242.93
242.175
242.569
243.981
243.894
242.766
242.422
243.467
244.485
243.934
242.986
242.906
244.392
244.86
243.831
243.185
243.872
245.139
244.866
243.726
243.675
245.142
245.487
244.408
243.893
244.987
245.869
245.167
244.275
244.767
246.105
245.926
244.783
244.633
246.086
246.565
245.54
244.89
245.694
246.878
246.475
245.371
245.479
246.956
247.115
245.95
245.622
246.94
247.505
246.52
245.891
246.925
247.801
247.057
246.204
246.941
248.062
247.556
246.529
246.97
248.273
248.021
246.877
247.014
248.444
248.474
247.262
247.107
248.519
248.849
247.688
247.249
248.49
249.166
248.212
247.474
248.347
249.4
248.787
247.76
248.16
249.528
249.363
248.112
248.04
249.499
249.811
248.59
248.105
249.272
250.093
249.225
248.311
248.883
250.188
249.899
248.643
248.582
250.061
250.408
249.16
248.598
249.631
250.615
249.886
248.836
249.05
250.54
250.625
249.278
248.846
249.962
250.913
250.124
249.115
249.1
250.624
251.042
249.763
249.114
250.095
251.058
250.279
249.377
249.134
250.39
251.299
250.444
249.414
249.403
250.925
251.315
250.007
249.393
250.363
251.381
250.63
249.542
250.03
251.286
250.866
249.801
249.487
249.843
251.379
251.361
249.965
249.537
250.1
251.484
251.308
249.906
249.604
250.898
251.634
250.577
249.626
250.325
251.651
251.178
249.851
)
;

boundaryField
{
    sides
    {
        type            zeroGradient;
    }
    empty
    {
        type            empty;
    }
}


// ************************************************************************* //
