/*--------------------------------*- C++ -*----------------------------------*\
  =========                 |
  \\      /  F ield         | OpenFOAM: The Open Source CFD Toolbox
   \\    /   O peration     | Website:  https://openfoam.org
    \\  /    A nd           | Version:  13
     \\/     M anipulation  |
\*---------------------------------------------------------------------------*/
FoamFile
{
    format      ascii;
    class       volScalarField;
    location    "34.396593";
    object      p;
}
// * * * * * * * * * * * * * * * * * * * * * * * * * * * * * * * * * * * * * //

dimensions      [0 2 -2 0 0 0 0];

internalField   nonuniform List<scalar> 
17140
(
-0.27448067
-0.27448819
-0.2744972
-0.27450666
-0.27451702
-0.27452846
-0.27454105
-0.27455486
-0.27456999
-0.27458655
-0.27460461
-0.27462427
-0.27464561
-0.27466871
-0.27469362
-0.27472041
-0.27474908
-0.27477967
-0.27481217
-0.27484657
-0.27488288
-0.27492117
-0.27496161
-0.2750046
-0.27505095
-0.27510218
-0.27516094
-0.27523178
-0.27532201
-0.2754428
-0.27560979
-0.27584214
-0.27615894
-0.27657271
-0.27708284
-0.27767265
-0.27831209
-0.27896372
-0.27958976
-0.28015745
-0.28064232
-0.28102978
-0.28131411
-0.28149401
-0.28158076
-0.28159073
-0.28152565
-0.2813864
-0.28116485
-0.28085273
-0.28039816
-0.27978794
-0.27887299
-0.27769928
-0.2759262
-0.27398123
-0.27109129
-0.26861356
-0.26435983
-0.26357732
-0.25569894
-0.24665881
-0.19341624
-0.14055425
-0.082330572
-0.27403109
-0.27403848
-0.27404734
-0.27405663
-0.2740668
-0.27407804
-0.2740904
-0.27410396
-0.27411883
-0.27413508
-0.27415282
-0.27417214
-0.27419311
-0.27421581
-0.2742403
-0.27426664
-0.27429483
-0.27432491
-0.27435687
-0.27439069
-0.27442638
-0.27446399
-0.27450367
-0.2745458
-0.27459113
-0.2746411
-0.27469828
-0.27476702
-0.27485444
-0.27497139
-0.27513313
-0.27535842
-0.27566595
-0.27606801
-0.27656394
-0.27713717
-0.2777574
-0.27838713
-0.27898826
-0.27952736
-0.27997893
-0.280327
-0.28056411
-0.28068678
-0.28070329
-0.28062653
-0.28045469
-0.28018441
-0.27980273
-0.27929862
-0.27861748
-0.27775653
-0.27658213
-0.275204
-0.27338746
-0.27183431
-0.27012405
-0.27008594
-0.27026753
-0.27636378
-0.27792214
-0.27665418
-0.21880006
-0.15095501
-0.075240679
-0.2736484
-0.27365561
-0.27366437
-0.27367337
-0.27368323
-0.27369411
-0.27370609
-0.27371923
-0.27373364
-0.2737494
-0.27376661
-0.27378534
-0.27380569
-0.27382772
-0.2738515
-0.27387707
-0.27390446
-0.27393368
-0.27396472
-0.27399757
-0.27403222
-0.27406871
-0.27410717
-0.27414792
-0.27419168
-0.27423978
-0.27429466
-0.27436046
-0.27444399
-0.2745557
-0.27471032
-0.27492602
-0.27522101
-0.27560734
-0.27608444
-0.27663599
-0.27723215
-0.27783547
-0.27840764
-0.2789147
-0.27933023
-0.27963691
-0.27982554
-0.27989069
-0.27983752
-0.27967534
-0.27939924
-0.27900207
-0.27846633
-0.27777887
-0.2768828
-0.27578684
-0.27437151
-0.27280742
-0.27096233
-0.26981617
-0.26929389
-0.27163989
-0.27603725
-0.28885786
-0.29993772
-0.30537436
-0.24211036
-0.15839929
-0.061169564
-0.27333601
-0.27334288
-0.27335125
-0.27335985
-0.27336925
-0.27337965
-0.27339109
-0.27340364
-0.27341741
-0.27343247
-0.27344892
-0.27346684
-0.27348631
-0.27350739
-0.27353016
-0.27355465
-0.27358088
-0.27360887
-0.27363861
-0.27367008
-0.27370325
-0.27373815
-0.27377488
-0.27381373
-0.27385534
-0.27390094
-0.2739528
-0.27401481
-0.27409341
-0.27419853
-0.2743442
-0.2745479
-0.27482719
-0.2751939
-0.27564765
-0.27617271
-0.27673988
-0.27731217
-0.2778513
-0.27832294
-0.27869982
-0.27896332
-0.27910252
-0.27911016
-0.27898837
-0.27874268
-0.27836544
-0.27784609
-0.27716283
-0.27630084
-0.27520089
-0.27388362
-0.2722408
-0.27049808
-0.26862643
-0.26790122
-0.26855353
-0.27313426
-0.2814808
-0.30080937
-0.32083422
-0.33135971
-0.26148428
-0.15972284
-0.043826374
-0.27309511
-0.27310157
-0.27310941
-0.27311749
-0.27312633
-0.2731361
-0.27314685
-0.27315865
-0.27317159
-0.27318576
-0.27320124
-0.27321811
-0.27323645
-0.27325632
-0.27327778
-0.27330088
-0.27332563
-0.27335204
-0.2733801
-0.27340978
-0.27344105
-0.27347391
-0.27350845
-0.27354489
-0.27358381
-0.27362631
-0.27367446
-0.27373189
-0.27380458
-0.27390184
-0.2740369
-0.27422633
-0.27448697
-0.27483035
-0.27525644
-0.27575033
-0.27628379
-0.27682056
-0.2773227
-0.27775565
-0.27809143
-0.2783102
-0.27839929
-0.27834984
-0.27816085
-0.27783417
-0.27735959
-0.27672341
-0.2758997
-0.27487215
-0.27357875
-0.27205183
-0.27018863
-0.26825703
-0.26631579
-0.2659506
-0.26770763
-0.27441001
-0.28644898
-0.31147222
-0.33914576
-0.35329323
-0.27503462
-0.159181
-0.026884688
-0.2729256
-0.27293155
-0.27293876
-0.27294621
-0.27295436
-0.27296337
-0.27297329
-0.27298418
-0.27299613
-0.27300922
-0.27302353
-0.27303914
-0.27305611
-0.27307451
-0.27309439
-0.2731158
-0.27313875
-0.27316325
-0.27318927
-0.27321679
-0.27324575
-0.27327616
-0.27330804
-0.2733416
-0.2733773
-0.27341614
-0.27345997
-0.27351208
-0.27357798
-0.27366624
-0.27378919
-0.27396234
-0.27420169
-0.27451839
-0.27491284
-0.27537119
-0.27586647
-0.27636348
-0.27682485
-0.27721605
-0.27750849
-0.2776812
-0.27771984
-0.27761403
-0.27735971
-0.27695522
-0.2763876
-0.27564044
-0.27468365
-0.27349936
-0.27202199
-0.27029491
-0.26821273
-0.26606706
-0.26404325
-0.26400365
-0.26648751
-0.27479908
-0.2901933
-0.32037249
-0.35339982
-0.36812793
-0.2824647
-0.15717743
-0.013384924
-0.27282564
-0.272831
-0.27283748
-0.2728442
-0.27285156
-0.27285969
-0.27286865
-0.27287849
-0.2728893
-0.27290115
-0.2729141
-0.27292824
-0.27294362
-0.27296032
-0.27297838
-0.27299783
-0.27301869
-0.27304096
-0.27306462
-0.27308962
-0.27311592
-0.27314347
-0.27317229
-0.27320252
-0.27323455
-0.27326921
-0.27330816
-0.27335432
-0.27341266
-0.27349097
-0.27360054
-0.27375574
-0.27397153
-0.27425867
-0.27461799
-0.27503688
-0.27548989
-0.27594321
-0.27636033
-0.27670693
-0.27695404
-0.27707967
-0.27706786
-0.27690666
-0.27658941
-0.27611079
-0.27545494
-0.274603
-0.27352061
-0.27218789
-0.27053466
-0.26861393
-0.26630387
-0.26388099
-0.26193263
-0.2621815
-0.26488131
-0.27411117
-0.29235152
-0.32681943
-0.36158016
-0.37409854
-0.28223985
-0.15328667
-0.011693142
-0.27279168
-0.27279639
-0.27280205
-0.27280797
-0.27281444
-0.2728216
-0.27282948
-0.27283816
-0.27284769
-0.27285814
-0.27286958
-0.27288208
-0.2728957
-0.27291049
-0.2729265
-0.27294375
-0.27296227
-0.27298205
-0.27300305
-0.27302523
-0.27304853
-0.27307289
-0.27309828
-0.2731248
-0.27315274
-0.27318281
-0.2732164
-0.27325609
-0.27330625
-0.27337386
-0.27346909
-0.27360502
-0.27379549
-0.27405074
-0.27437205
-0.27474811
-0.27515529
-0.27556141
-0.27593113
-0.27623063
-0.27643071
-0.2765085
-0.27644661
-0.2762315
-0.27585415
-0.27530539
-0.27456673
-0.27361653
-0.27241606
-0.27094262
-0.26912064
-0.26701252
-0.26445272
-0.26184137
-0.25989052
-0.26012994
-0.26266932
-0.27300383
-0.29337462
-0.33015345
-0.36392823
-0.36979414
-0.27340879
-0.14775152
-0.017594014
-0.27281866
-0.27282266
-0.27282745
-0.27283249
-0.27283801
-0.27284411
-0.27285083
-0.27285824
-0.27286638
-0.27287533
-0.27288513
-0.27289585
-0.27290755
-0.27292026
-0.27293405
-0.27294891
-0.27296488
-0.27298193
-0.27300004
-0.27301914
-0.27303916
-0.27306003
-0.27308169
-0.27310418
-0.2731277
-0.27315281
-0.27318068
-0.27321348
-0.27325501
-0.27331139
-0.27339161
-0.27350738
-0.27367133
-0.27389302
-0.27417412
-0.27450471
-0.2748631
-0.27521906
-0.2755387
-0.27578895
-0.27594065
-0.27597022
-0.27585896
-0.27559195
-0.27515763
-0.27454319
-0.2737276
-0.27268594
-0.27137477
-0.26976721
-0.26778226
-0.26548566
-0.26262847
-0.26000723
-0.25784021
-0.25773827
-0.26023532
-0.27110872
-0.29330259
-0.32941618
-0.36088153
-0.35609952
-0.26593583
-0.13716965
-0.025271769
-0.27289989
-0.27290314
-0.27290701
-0.27291112
-0.27291564
-0.27292063
-0.27292613
-0.2729322
-0.27293889
-0.27294624
-0.27295431
-0.27296316
-0.27297282
-0.27298335
-0.27299477
-0.2730071
-0.27302036
-0.27303452
-0.27304954
-0.27306537
-0.27308191
-0.27309907
-0.27311677
-0.27313499
-0.27315385
-0.27317375
-0.27319562
-0.27322128
-0.27325391
-0.27329876
-0.27336364
-0.27345883
-0.27359561
-0.2737828
-0.27402229
-0.27430554
-0.27461293
-0.2749164
-0.2751838
-0.27538312
-0.27548549
-0.27546684
-0.27530736
-0.27499093
-0.27450312
-0.27382795
-0.27294174
-0.27181551
-0.27040059
-0.26866377
-0.26652006
-0.26400993
-0.26091154
-0.25811986
-0.25575147
-0.25511974
-0.25759878
-0.26845349
-0.29123201
-0.32559001
-0.35031522
-0.33630484
-0.25231601
-0.12998121
-0.033820635
-0.27302768
-0.27303019
-0.27303316
-0.27303633
-0.27303981
-0.27304366
-0.27304792
-0.27305262
-0.27305781
-0.27306353
-0.27306982
-0.27307673
-0.2730843
-0.27309257
-0.27310155
-0.27311127
-0.27312172
-0.27313288
-0.27314471
-0.27315713
-0.27317005
-0.27318336
-0.27319694
-0.27321072
-0.27322474
-0.27323926
-0.27325498
-0.27327334
-0.27329696
-0.2733302
-0.27337969
-0.27345428
-0.27356383
-0.27371626
-0.27391358
-0.2741485
-0.2744035
-0.27465288
-0.27486651
-0.27501374
-0.27506627
-0.27499981
-0.27479366
-0.27443066
-0.27389337
-0.27316294
-0.27221265
-0.27100875
-0.26949621
-0.26763349
-0.26533048
-0.26258945
-0.2593833
-0.25620196
-0.25338324
-0.25222381
-0.25408594
-0.26487698
-0.2871274
-0.31791429
-0.33240233
-0.31141281
-0.22728155
-0.1298394
-0.040938906
-0.27319312
-0.27319488
-0.27319697
-0.2731992
-0.27320165
-0.27320437
-0.27320738
-0.27321072
-0.27321441
-0.2732185
-0.27322301
-0.27322799
-0.27323346
-0.27323945
-0.27324598
-0.27325306
-0.27326069
-0.27326882
-0.27327742
-0.27328639
-0.27329565
-0.27330505
-0.27331445
-0.27332374
-0.27333286
-0.27334196
-0.2733515
-0.27336257
-0.27337722
-0.27339901
-0.27343339
-0.27348777
-0.2735706
-0.27368877
-0.27384419
-0.27403068
-0.27423277
-0.27442724
-0.2745862
-0.27468071
-0.27468337
-0.27456991
-0.27431909
-0.27391264
-0.2733304
-0.27255059
-0.27154288
-0.27026778
-0.2686619
-0.26667177
-0.26418772
-0.26120709
-0.25776477
-0.25417691
-0.25068858
-0.24867225
-0.24981996
-0.26023204
-0.2811723
-0.30497862
-0.31040709
-0.28426642
-0.208921
-0.12572857
-0.048105765
-0.27338745
-0.27338849
-0.27338973
-0.27339105
-0.27339251
-0.27339414
-0.27339595
-0.27339796
-0.27340021
-0.27340271
-0.27340549
-0.27340858
-0.27341201
-0.27341578
-0.27341992
-0.27342441
-0.27342926
-0.27343441
-0.27343982
-0.27344539
-0.27345101
-0.27345653
-0.27346177
-0.27346658
-0.27347083
-0.27347452
-0.27347792
-0.27348177
-0.27348762
-0.27349821
-0.27351791
-0.27355274
-0.27360973
-0.27369467
-0.27380917
-0.27394803
-0.27409763
-0.27423724
-0.27434141
-0.27438319
-0.2743364
-0.27417718
-0.27388401
-0.27343751
-0.27281515
-0.27199204
-0.27093344
-0.26959277
-0.26789493
-0.26576463
-0.26306378
-0.2598066
-0.25591553
-0.25185548
-0.24757257
-0.24472041
-0.24545869
-0.25537964
-0.27359668
-0.28868903
-0.28659404
-0.25642132
-0.19329959
-0.12281926
-0.053993731
-0.27360079
-0.27360117
-0.27360161
-0.27360209
-0.27360263
-0.27360323
-0.27360391
-0.27360469
-0.27360558
-0.27360659
-0.27360776
-0.27360908
-0.27361057
-0.27361225
-0.27361412
-0.27361617
-0.27361837
-0.27362068
-0.27362304
-0.27362535
-0.27362748
-0.27362927
-0.2736305
-0.27363098
-0.2736305
-0.27362894
-0.27362637
-0.27362323
-0.27362057
-0.27362043
-0.27362615
-0.27364241
-0.2736751
-0.2737286
-0.27380382
-0.27389659
-0.2739948
-0.2740803
-0.27413015
-0.27411966
-0.27402424
-0.27382075
-0.27348774
-0.27300464
-0.27234693
-0.2714864
-0.27038302
-0.26898088
-0.26718533
-0.26489355
-0.26195597
-0.25837407
-0.2540225
-0.24924869
-0.24426075
-0.24100978
-0.2418795
-0.25059173
-0.2625878
-0.27032256
-0.26209615
-0.23548146
-0.17841777
-0.1205325
-0.059164026
-0.27382524
-0.27382502
-0.27382476
-0.27382448
-0.27382419
-0.27382388
-0.27382355
-0.27382322
-0.27382289
-0.27382257
-0.27382226
-0.27382198
-0.27382173
-0.27382151
-0.27382131
-0.27382111
-0.27382089
-0.27382059
-0.27382014
-0.27381942
-0.27381829
-0.27381657
-0.27381403
-0.27381039
-0.2738054
-0.2737988
-0.27379049
-0.2737806
-0.27376974
-0.27375927
-0.27375164
-0.27375005
-0.27375965
-0.27378314
-0.2738211
-0.27387014
-0.27391912
-0.27395231
-0.27394921
-0.27388759
-0.27374471
-0.2734986
-0.27312805
-0.27261149
-0.2719225
-0.27102943
-0.26988577
-0.26842272
-0.26651373
-0.26404352
-0.26083975
-0.25691628
-0.25197029
-0.24661166
-0.24132155
-0.23823422
-0.23837458
-0.24342564
-0.25075433
-0.25357657
-0.23927629
-0.21642473
-0.16688853
-0.11825586
-0.063399405
-0.27405171
-0.27405099
-0.27405013
-0.27404922
-0.27404823
-0.27404714
-0.27404597
-0.27404469
-0.27404333
-0.27404187
-0.27404032
-0.27403867
-0.27403692
-0.27403506
-0.27403307
-0.27403093
-0.2740286
-0.27402601
-0.27402307
-0.27401967
-0.27401564
-0.27401077
-0.27400479
-0.27399738
-0.2739882
-0.27397688
-0.27396313
-0.27394679
-0.27392807
-0.27390768
-0.2738874
-0.27386775
-0.27385983
-0.27385769
-0.27385834
-0.27386592
-0.27386748
-0.27385016
-0.27379557
-0.27368406
-0.27349482
-0.27320735
-0.27280066
-0.27225261
-0.27153447
-0.27061083
-0.26943002
-0.26789135
-0.26585205
-0.26318153
-0.25970396
-0.25533866
-0.24989638
-0.24446946
-0.23894205
-0.23531046
-0.23348058
-0.23645162
-0.23909961
-0.23566949
-0.22345473
-0.20047346
-0.15677864
-0.11600276
-0.066865688
-0.27427514
-0.27427403
-0.27427271
-0.27427131
-0.27426977
-0.27426808
-0.27426624
-0.27426423
-0.27426205
-0.2742597
-0.27425716
-0.27425442
-0.27425147
-0.2742483
-0.27424487
-0.27424116
-0.2742371
-0.27423263
-0.27422764
-0.274222
-0.27421552
-0.27420795
-0.274199
-0.2741883
-0.2741754
-0.27415983
-0.27414109
-0.2741188
-0.27409275
-0.27406314
-0.2740312
-0.27399526
-0.27396248
-0.27393451
-0.27390337
-0.27387382
-0.27383209
-0.27376766
-0.2736642
-0.27350454
-0.27326995
-0.2729415
-0.27249826
-0.27191762
-0.27116847
-0.27021179
-0.26898176
-0.26734443
-0.26516565
-0.26226422
-0.25847843
-0.25373133
-0.24837945
-0.24229372
-0.23596186
-0.23136733
-0.22897884
-0.22886135
-0.22718533
-0.22262321
-0.2079756
-0.18678896
-0.14841437
-0.11378555
-0.069597169
-0.27448912
-0.27448775
-0.27448613
-0.2744844
-0.27448251
-0.27448043
-0.27447814
-0.27447565
-0.27447292
-0.27446996
-0.27446675
-0.27446327
-0.2744595
-0.27445542
-0.27445098
-0.27444615
-0.27444085
-0.27443501
-0.27442849
-0.27442116
-0.27441278
-0.2744031
-0.27439175
-0.27437829
-0.2743622
-0.27434286
-0.27431959
-0.27429174
-0.27425875
-0.27422033
-0.27417593
-0.27413099
-0.27407745
-0.2740166
-0.27395763
-0.27389427
-0.27381106
-0.27370171
-0.27355129
-0.27334447
-0.27306423
-0.27269295
-0.27220902
-0.27158907
-0.27079927
-0.26979599
-0.26848686
-0.26672543
-0.26437521
-0.26119717
-0.25726702
-0.25232082
-0.24626707
-0.23929957
-0.23275559
-0.22756622
-0.22359328
-0.22080463
-0.21644671
-0.20982695
-0.19531417
-0.17532515
-0.14104386
-0.11148468
-0.071649566
-0.27469239
-0.27469092
-0.27468918
-0.27468731
-0.27468527
-0.27468302
-0.27468054
-0.27467783
-0.27467487
-0.27467163
-0.27466811
-0.27466427
-0.2746601
-0.27465555
-0.27465059
-0.27464516
-0.27463918
-0.27463255
-0.27462513
-0.27461674
-0.27460714
-0.274596
-0.27458292
-0.27456739
-0.27454875
-0.27452624
-0.274499
-0.27446607
-0.27442653
-0.27437962
-0.27432458
-0.27426291
-0.27418864
-0.27410898
-0.27402543
-0.27392159
-0.27380032
-0.27364774
-0.27345163
-0.27319737
-0.27286891
-0.27244907
-0.27191423
-0.27124054
-0.27039093
-0.26931012
-0.26786614
-0.26600224
-0.26339909
-0.26018838
-0.25591311
-0.25029418
-0.24317191
-0.23599821
-0.22907898
-0.22265938
-0.21765912
-0.2123843
-0.20686554
-0.19901199
-0.1839162
-0.16523805
-0.13462512
-0.10916269
-0.07310413
-0.27488292
-0.27488151
-0.27487984
-0.27487806
-0.2748761
-0.27487393
-0.27487155
-0.27486894
-0.27486607
-0.27486294
-0.27485951
-0.27485576
-0.27485167
-0.27484718
-0.27484225
-0.27483682
-0.27483078
-0.27482403
-0.27481641
-0.27480769
-0.2747976
-0.27478577
-0.27477172
-0.27475482
-0.2747343
-0.27470923
-0.2746785
-0.27464086
-0.27459499
-0.2745396
-0.27447354
-0.27439627
-0.27430686
-0.27420377
-0.27408835
-0.27395382
-0.27379513
-0.27360114
-0.27335971
-0.27305578
-0.27267283
-0.27219316
-0.27158652
-0.27083499
-0.26989268
-0.26867878
-0.26713523
-0.26508656
-0.26247963
-0.25890181
-0.25396398
-0.24719355
-0.23970983
-0.23227942
-0.22432184
-0.21733919
-0.21057769
-0.20492615
-0.19779744
-0.18883036
-0.17391235
-0.1564803
-0.12883769
-0.10673542
-0.074008103
-0.27506437
-0.27506321
-0.27506183
-0.27506035
-0.27505873
-0.27505693
-0.27505494
-0.27505276
-0.27505036
-0.27504772
-0.27504482
-0.27504164
-0.27503813
-0.27503426
-0.27502996
-0.27502516
-0.27501976
-0.27501361
-0.27500654
-0.27499828
-0.27498852
-0.27497681
-0.27496259
-0.27494512
-0.27492348
-0.27489653
-0.2748629
-0.27482102
-0.27476915
-0.2747055
-0.27462837
-0.27453633
-0.27442819
-0.27430267
-0.27415884
-0.27399189
-0.27379563
-0.27355926
-0.27326948
-0.2729085
-0.27245834
-0.27189528
-0.27119587
-0.27033603
-0.26926805
-0.26793284
-0.26630842
-0.26420756
-0.2612438
-0.25696041
-0.25087967
-0.24344352
-0.23587156
-0.22730955
-0.218818
-0.21110817
-0.20430153
-0.19739783
-0.18928408
-0.17974844
-0.16492884
-0.14862749
-0.12358909
-0.10425373
-0.074433179
-0.27524137
-0.27524065
-0.27523979
-0.27523886
-0.27523784
-0.2752367
-0.27523544
-0.27523404
-0.2752325
-0.27523079
-0.27522889
-0.27522677
-0.27522441
-0.27522174
-0.27521871
-0.27521523
-0.27521118
-0.27520639
-0.27520065
-0.27519368
-0.27518506
-0.2751743
-0.27516072
-0.27514345
-0.27512139
-0.27509317
-0.27505714
-0.27501138
-0.27495372
-0.27488186
-0.27479354
-0.27468672
-0.27455966
-0.27441072
-0.27423813
-0.27403776
-0.27380261
-0.27352062
-0.27317628
-0.27274544
-0.2722076
-0.27155158
-0.27071418
-0.26974133
-0.26856185
-0.26724203
-0.26555047
-0.26305551
-0.25932691
-0.25392444
-0.24683321
-0.23947739
-0.23068768
-0.22146134
-0.21302511
-0.20537799
-0.19767166
-0.19013268
-0.18126885
-0.17127391
-0.15678353
-0.14156709
-0.11872903
-0.10167506
-0.074425386
-0.27542414
-0.27542406
-0.27542396
-0.27542385
-0.27542371
-0.27542355
-0.27542336
-0.27542313
-0.27542285
-0.27542251
-0.2754221
-0.27542158
-0.27542092
-0.27542006
-0.27541895
-0.27541746
-0.27541547
-0.27541279
-0.27540915
-0.27540421
-0.27539752
-0.27538845
-0.27537621
-0.27535977
-0.27533783
-0.27530877
-0.27527063
-0.27522111
-0.2751576
-0.2750773
-0.27497737
-0.27485523
-0.27470839
-0.27453482
-0.27433238
-0.27409631
-0.27381806
-0.27348267
-0.27307037
-0.27255048
-0.27191468
-0.27110868
-0.27023399
-0.26915295
-0.26802901
-0.26660956
-0.26448123
-0.26127388
-0.25637654
-0.24966892
-0.24275825
-0.2341091
-0.22447365
-0.21575649
-0.20739199
-0.19922257
-0.19114261
-0.18303281
-0.17364176
-0.16345664
-0.14933266
-0.13509437
-0.11417225
-0.099026972
-0.074035032
-0.27562795
-0.27562873
-0.27562965
-0.27563061
-0.27563165
-0.27563278
-0.27563401
-0.27563532
-0.27563672
-0.2756382
-0.27563974
-0.27564133
-0.27564292
-0.27564445
-0.27564585
-0.27564698
-0.2756477
-0.27564777
-0.27564688
-0.27564461
-0.27564042
-0.27563358
-0.27562314
-0.27560789
-0.27558631
-0.2755565
-0.27551618
-0.27546267
-0.27539293
-0.27530368
-0.27519152
-0.27505334
-0.27488633
-0.2746868
-0.27445263
-0.27417751
-0.27384941
-0.27345022
-0.27296579
-0.27233581
-0.27159275
-0.27075156
-0.2698224
-0.26879423
-0.26757758
-0.26564554
-0.26286198
-0.25847523
-0.25202482
-0.24557025
-0.23730075
-0.22756652
-0.21869656
-0.21005749
-0.20142041
-0.19308004
-0.18459836
-0.1760952
-0.16637339
-0.15610664
-0.14242028
-0.12909888
-0.10983829
-0.096292175
-0.073298549
-0.27587583
-0.27587765
-0.27587981
-0.27588209
-0.27588457
-0.27588728
-0.27589022
-0.2758934
-0.27589683
-0.27590051
-0.27590442
-0.27590854
-0.27591282
-0.2759172
-0.27592157
-0.2759258
-0.27592968
-0.27593294
-0.27593519
-0.27593594
-0.27593452
-0.27593006
-0.27592147
-0.2759073
-0.27588581
-0.27585482
-0.27581171
-0.27575346
-0.27567662
-0.27557741
-0.27545193
-0.27529959
-0.2751073
-0.27487726
-0.27461054
-0.27429244
-0.27390834
-0.27344459
-0.27286074
-0.2721979
-0.27141299
-0.27056701
-0.26966313
-0.26850507
-0.26678186
-0.26411703
-0.26027718
-0.25409972
-0.24788149
-0.24011106
-0.23049541
-0.22163835
-0.21288238
-0.20409657
-0.19538485
-0.186817
-0.17807316
-0.16930264
-0.15938794
-0.14917105
-0.13595085
-0.1234663
-0.10566363
-0.093477071
-0.072255526
-0.27620357
-0.27620658
-0.27621012
-0.27621388
-0.27621796
-0.27622242
-0.27622727
-0.27623253
-0.2762382
-0.27624429
-0.27625078
-0.27625764
-0.27626483
-0.27627225
-0.27627977
-0.27628723
-0.27629436
-0.27630082
-0.27630615
-0.27630974
-0.27631079
-0.27630827
-0.2763009
-0.27628702
-0.27626464
-0.27623132
-0.27618417
-0.27611986
-0.27603472
-0.27592448
-0.27578711
-0.27560647
-0.27539043
-0.27513975
-0.27483399
-0.27447624
-0.27402135
-0.27349707
-0.27289727
-0.27220909
-0.27145212
-0.27060352
-0.26950877
-0.26786965
-0.26532511
-0.26141598
-0.25580808
-0.24977437
-0.24252834
-0.23310827
-0.22438165
-0.21573071
-0.20685954
-0.19804285
-0.18920832
-0.18049989
-0.17156698
-0.16263183
-0.15264445
-0.14255341
-0.12981999
-0.11811376
-0.10159873
-0.090577971
-0.070933716
-0.27665759
-0.27666177
-0.27666669
-0.2766719
-0.27667756
-0.27668375
-0.27669047
-0.27669775
-0.27670559
-0.276714
-0.27672296
-0.27673242
-0.27674231
-0.27675253
-0.27676291
-0.27677321
-0.27678313
-0.27679222
-0.27679992
-0.2768055
-0.276808
-0.27680623
-0.27679867
-0.27678349
-0.27675845
-0.27672086
-0.27666762
-0.27659537
-0.27650102
-0.2763704
-0.2762021
-0.27601729
-0.2757884
-0.2755016
-0.2751536
-0.27474598
-0.27429285
-0.27372015
-0.27310761
-0.27244326
-0.27163955
-0.27058728
-0.26901535
-0.2665315
-0.26276263
-0.25738766
-0.25138637
-0.24482478
-0.23555101
-0.22690821
-0.21850135
-0.20963045
-0.20072682
-0.19184173
-0.1829304
-0.17411796
-0.16507102
-0.15605988
-0.14608913
-0.13619276
-0.12395584
-0.1129694
-0.097600465
-0.087592239
-0.069356943
-0.27730229
-0.27730745
-0.27731354
-0.27731997
-0.27732694
-0.27733455
-0.2773428
-0.27735172
-0.2773613
-0.27737154
-0.2773824
-0.27739382
-0.2774057
-0.27741789
-0.27743016
-0.27744223
-0.27745367
-0.27746396
-0.27747239
-0.27747807
-0.27747986
-0.27747636
-0.27746583
-0.27744619
-0.27741493
-0.27736899
-0.27730504
-0.27722088
-0.27710514
-0.27696505
-0.27679415
-0.27657474
-0.27630531
-0.27599259
-0.27563607
-0.27519252
-0.27469418
-0.27414442
-0.27350183
-0.2727561
-0.27173931
-0.27019584
-0.26776457
-0.26411528
-0.25894708
-0.25312959
-0.24679297
-0.23835362
-0.22933185
-0.22114178
-0.21230772
-0.20340778
-0.19445436
-0.18551883
-0.17654866
-0.16767799
-0.15857815
-0.14956161
-0.13968111
-0.13002631
-0.11828824
-0.10797456
-0.09363438
-0.084517857
-0.067547128
-0.27820312
-0.2782089
-0.2782157
-0.27822287
-0.27823063
-0.27823907
-0.27824819
-0.278258
-0.27826849
-0.27827964
-0.27829138
-0.27830361
-0.27831619
-0.27832891
-0.27834147
-0.27835348
-0.27836442
-0.27837361
-0.27838019
-0.27838306
-0.27838087
-0.27837197
-0.27835435
-0.27832559
-0.27828254
-0.27822125
-0.27814665
-0.27806024
-0.27795609
-0.27778605
-0.27755096
-0.27730087
-0.27701617
-0.27666815
-0.27626135
-0.27579869
-0.27527456
-0.27467755
-0.27394933
-0.27295967
-0.2714335
-0.26904717
-0.26550901
-0.2605342
-0.25484783
-0.24873371
-0.24054732
-0.23189172
-0.22358748
-0.21487173
-0.20601139
-0.19705864
-0.18804577
-0.17906851
-0.1700644
-0.16117277
-0.15207318
-0.14311131
-0.13337819
-0.12400312
-0.11276308
-0.10308039
-0.089671277
-0.081350772
-0.065519093
-0.27945027
-0.27945611
-0.27946295
-0.27947014
-0.27947789
-0.27948628
-0.27949529
-0.27950491
-0.27951511
-0.27952583
-0.27953697
-0.27954837
-0.27955984
-0.27957107
-0.27958168
-0.27959116
-0.27959885
-0.2796039
-0.27960524
-0.27960157
-0.27959128
-0.27957241
-0.27954235
-0.27949817
-0.27944388
-0.27937719
-0.27929629
-0.27917057
-0.27898075
-0.27877466
-0.2785427
-0.27825028
-0.27791024
-0.27751212
-0.27706262
-0.27655563
-0.27597086
-0.27525797
-0.27426817
-0.27275726
-0.27041112
-0.26697881
-0.26218619
-0.256611
-0.25066236
-0.24279111
-0.23426517
-0.22611301
-0.21738601
-0.20857479
-0.19960259
-0.19056105
-0.18149384
-0.17248637
-0.16347072
-0.15459381
-0.14554045
-0.13668277
-0.12714367
-0.11807675
-0.10733108
-0.098245375
-0.085686342
-0.078087696
-0.063286537
-0.28111625
-0.28112162
-0.28112788
-0.28113441
-0.28114139
-0.28114887
-0.28115681
-0.28116517
-0.28117387
-0.28118279
-0.28119178
-0.28120062
-0.281209
-0.28121652
-0.28122266
-0.28122674
-0.2812279
-0.28122508
-0.28121696
-0.2812019
-0.28117762
-0.28114186
-0.28109877
-0.28104145
-0.28096859
-0.2808682
-0.28070635
-0.28051936
-0.280317
-0.28006405
-0.27976472
-0.27941221
-0.27900998
-0.27855706
-0.27804476
-0.27745881
-0.27673755
-0.27574012
-0.27422482
-0.27191576
-0.26856603
-0.26395719
-0.25846997
-0.25266408
-0.24507886
-0.23668035
-0.22853457
-0.21993469
-0.21109354
-0.20211386
-0.19301942
-0.18390213
-0.17478565
-0.16576149
-0.15675768
-0.14792767
-0.13896076
-0.13024977
-0.12094249
-0.11220671
-0.10195154
-0.093434513
-0.081658664
-0.074724475
-0.060859748
-0.28329966
-0.28330417
-0.28330937
-0.28331472
-0.28332032
-0.2833262
-0.28333227
-0.28333842
-0.28334454
-0.28335041
-0.2833558
-0.28336036
-0.28336366
-0.28336513
-0.28336406
-0.28335952
-0.28335042
-0.28333532
-0.28331239
-0.2832796
-0.28323739
-0.28318206
-0.28311041
-0.28301341
-0.28287411
-0.28270733
-0.28251695
-0.28228608
-0.28201099
-0.28168573
-0.2813102
-0.28088656
-0.28041127
-0.2798794
-0.27927091
-0.27852095
-0.27749437
-0.27596099
-0.27365841
-0.27039504
-0.26591406
-0.26052745
-0.25482127
-0.24751034
-0.23921258
-0.23106259
-0.22251033
-0.21368569
-0.20464328
-0.1954893
-0.18627001
-0.17706772
-0.16790695
-0.15888029
-0.14991085
-0.1411581
-0.13231373
-0.1237861
-0.11474255
-0.10635665
-0.096588272
-0.088617578
-0.077570161
-0.071257688
-0.058246285
-0.28614578
-0.28614897
-0.28615256
-0.2861561
-0.28615962
-0.28616307
-0.28616629
-0.28616913
-0.28617135
-0.28617264
-0.28617264
-0.28617082
-0.28616658
-0.28615912
-0.28614744
-0.28613034
-0.28610629
-0.28607337
-0.2860295
-0.28597378
-0.28590187
-0.28580655
-0.28568084
-0.28552771
-0.2853479
-0.28513083
-0.28487092
-0.28456293
-0.28420504
-0.28379848
-0.28334094
-0.28283024
-0.28226178
-0.28161055
-0.28081104
-0.27972792
-0.27815938
-0.27584043
-0.27263362
-0.26833763
-0.26300686
-0.2574054
-0.25024351
-0.24198517
-0.23378306
-0.22524423
-0.21637105
-0.20726822
-0.19800084
-0.1886644
-0.17931246
-0.1700297
-0.16083535
-0.15182318
-0.14291188
-0.13426577
-0.12557722
-0.11726583
-0.10851377
-0.10049404
-0.091210283
-0.083768378
-0.073405369
-0.06768263
-0.055455465
-0.28988599
-0.28988705
-0.28988805
-0.2898887
-0.28988892
-0.28988854
-0.28988734
-0.28988505
-0.28988129
-0.28987564
-0.28986751
-0.28985621
-0.28984085
-0.28982034
-0.28979335
-0.28975826
-0.2897131
-0.28965553
-0.28958294
-0.289492
-0.28937618
-0.28923397
-0.28906376
-0.28885795
-0.28861123
-0.28831861
-0.2879769
-0.2875848
-0.28713968
-0.28663974
-0.2860841
-0.28546356
-0.28474932
-0.28387249
-0.28270385
-0.28104825
-0.27868537
-0.27542657
-0.27124968
-0.26590355
-0.26026448
-0.25322644
-0.24504488
-0.23676632
-0.22821852
-0.21926847
-0.21005095
-0.20064854
-0.19113674
-0.18160843
-0.17212263
-0.16276365
-0.15354747
-0.14456836
-0.13573972
-0.12722927
-0.11872817
-0.11066332
-0.10222811
-0.094589549
-0.085790222
-0.078863955
-0.069151006
-0.063996396
-0.052492311
-0.2948344
-0.29483191
-0.29482861
-0.29482454
-0.29481941
-0.29481291
-0.29480471
-0.29479441
-0.29478147
-0.29476525
-0.29474497
-0.29471966
-0.29468813
-0.29464895
-0.29460038
-0.29454036
-0.29446642
-0.29437566
-0.29426472
-0.29412977
-0.2939665
-0.29377025
-0.29353583
-0.29325844
-0.29293401
-0.29255891
-0.29212947
-0.29164306
-0.29109811
-0.29048994
-0.28980491
-0.28900845
-0.28802768
-0.28673504
-0.28494712
-0.28245481
-0.27909006
-0.27476619
-0.26943361
-0.26358232
-0.25670086
-0.24842944
-0.24013497
-0.23153277
-0.22248243
-0.21310583
-0.20350585
-0.19377713
-0.18400322
-0.17427687
-0.16465897
-0.15523384
-0.14601261
-0.13708882
-0.12836974
-0.12002488
-0.11174255
-0.10395342
-0.095859363
-0.088616504
-0.080304144
-0.073883507
-0.064795792
-0.060192303
-0.049364469
-0.30137301
-0.30136502
-0.30135509
-0.30134378
-0.30133052
-0.30131481
-0.30129618
-0.30127405
-0.30124768
-0.30121622
-0.30117859
-0.30113353
-0.30107952
-0.30101471
-0.30093694
-0.30084369
-0.30073197
-0.30059834
-0.3004389
-0.30024927
-0.30002486
-0.29976099
-0.29945291
-0.29909579
-0.298685
-0.2982168
-0.29768782
-0.29709349
-0.296425
-0.29566274
-0.29476531
-0.29365519
-0.29220587
-0.29024467
-0.28757775
-0.28404862
-0.27957217
-0.27410301
-0.26793489
-0.26106327
-0.25274622
-0.2443005
-0.23554353
-0.22621821
-0.2165817
-0.2067038
-0.19667619
-0.18659565
-0.1765465
-0.16662109
-0.15687909
-0.14740276
-0.13819753
-0.12935493
-0.12077506
-0.11262738
-0.1045958
-0.097111494
-0.089383044
-0.082550793
-0.074731065
-0.068808059
-0.060329633
-0.056259807
-0.046087395
-0.30988447
-0.30986859
-0.30984921
-0.30982766
-0.30980295
-0.30977436
-0.30974125
-0.30970283
-0.30965814
-0.30960605
-0.30954522
-0.30947404
-0.30939068
-0.30929285
-0.30917793
-0.309043
-0.30888467
-0.30869913
-0.30848218
-0.3082293
-0.30793559
-0.30759597
-0.30720549
-0.30675934
-0.30625259
-0.30567963
-0.30503233
-0.30429646
-0.30344511
-0.30242882
-0.30116365
-0.29952274
-0.29733891
-0.29443385
-0.29065609
-0.2859326
-0.28022547
-0.27376814
-0.26662463
-0.25822246
-0.24939475
-0.24031792
-0.23061454
-0.22060946
-0.21036166
-0.19994978
-0.18947254
-0.17902714
-0.16870031
-0.15858328
-0.14873237
-0.13922666
-0.13006458
-0.12133407
-0.11292687
-0.10501052
-0.097263333
-0.090113813
-0.082776524
-0.076370765
-0.069053317
-0.063623038
-0.055747934
-0.052212324
-0.04263453
-0.32079446
-0.32076811
-0.32073623
-0.3207012
-0.32066156
-0.3206163
-0.32056458
-0.32050535
-0.32043737
-0.32035906
-0.32026909
-0.32016878
-0.32005274
-0.31991171
-0.31974918
-0.31956568
-0.31935377
-0.31910914
-0.31882743
-0.31850379
-0.31813309
-0.31770989
-0.31722825
-0.31668133
-0.31606023
-0.31535176
-0.31453437
-0.31357186
-0.31240465
-0.31094048
-0.30904942
-0.30656942
-0.30333066
-0.29919763
-0.2940846
-0.28800021
-0.28109664
-0.27353441
-0.26478147
-0.25554481
-0.24597111
-0.23582587
-0.22535363
-0.21461847
-0.20371279
-0.19273863
-0.1817947
-0.17098177
-0.16038569
-0.15009475
-0.14016006
-0.13065563