/*--------------------------------*- C++ -*----------------------------------*\
  =========                 |
  \\      /  F ield         | OpenFOAM: The Open Source CFD Toolbox
   \\    /   O peration     | Website:  https://openfoam.org
    \\  /    A nd           | Version:  13
     \\/     M anipulation  |
\*---------------------------------------------------------------------------*/
FoamFile
{
    format      ascii;
    class       volVectorField;
    location    "34.396593";
    object      wallShearStress;
}
// * * * * * * * * * * * * * * * * * * * * * * * * * * * * * * * * * * * * * //

dimensions      [0 2 -2 0 0 0 0];

internalField   uniform (0 0 0);

boundaryField
{
    inlet
    {
        type            calculated;
        value           uniform (0 0 0);
    }
    outlet
    {
        type            calculated;
        value           uniform (0 0 0);
    }
    cylinder
    {
        type            calculated;
        value           nonuniform List<vector> 
132
(
(6.4791053e-07 0.00020631251 -2.5802031e-22)
(6.4190053e-06 -7.3448228e-05 7.3297127e-23)
(2.7301747e-05 -0.00035073658 4.0357008e-21)
(6.361554e-05 -0.00062103965 -1.3498969e-20)
(0.00011451305 -0.00087965245 9.4961196e-21)
(0.0001788223 -0.0011219516 2.8913377e-20)
(0.00025488439 -0.0013434565 -5.4586698e-21)
(0.00034055539 -0.0015400467 -2.1549139e-20)
(0.00043325458 -0.0017081028 2.0241366e-20)
(0.00053006273 -0.0018447288 -4.5235889e-20)
(0.00062777435 -0.0019478636 -8.2070998e-22)
(0.00072322054 -0.002016527 2.7941253e-20)
(0.00081326643 -0.0020507314 4.5457597e-20)
(0.00089515607 -0.0020519327 -3.6846123e-20)
(0.00096652962 -0.0020225112 3.8729118e-20)
(0.0010259583 -0.0019664619 6.2245231e-20)
(0.0010727631 -0.0018884489 -4.0741648e-20)
(0.0011075933 -0.0017944162 6.5298305e-20)
(0.0011324077 -0.0016909859 8.6285133e-20)
(0.0011507064 -0.0015853292 -5.5948632e-20)
(0.0011679233 -0.0014852233 -7.1295182e-20)
(0.0011910559 -0.0013980424 2.5101021e-23)
(0.0012295582 -0.0013314333 1.0342239e-20)
(0.0012947279 -0.0012920634 -1.238422e-20)
(0.0014000068 -0.0012855875 -2.1071607e-20)
(0.0015586243 -0.0013142519 4.5072337e-21)
(0.0017814737 -0.0013756893 -4.06964e-20)
(0.0020705676 -0.0014592999 1.0871703e-20)
(0.0024194059 -0.0015494163 8.533826e-21)
(0.0028057922 -0.0016235854 -5.8739706e-20)
(0.0031963388 -0.0016591129 7.6585585e-20)
(0.0035632563 -0.0016435985 2.3154782e-21)
(0.0038801819 -0.0015712323 1.6670669e-20)
(0.0041046621 -0.001435994 -1.9726757e-20)
(0.0041579129 -0.001229854 6.2590893e-20)
(0.0039065192 -0.00094783426 -3.9531538e-21)
(0.0031838105 -0.00060657005 1.5927192e-20)
(0.0017764784 -0.00025170383 -2.1850639e-21)
(-0.00052230823 2.2220376e-05 3.1339078e-21)
(-0.0039461034 7.8618845e-05 -1.954987e-21)
(-0.0088418632 -0.00030027939 3.6540179e-21)
(-0.015184393 -0.0014156625 -1.1287815e-22)
(-0.022449518 -0.0034579471 4.1468638e-20)
(-0.030194146 -0.0065260206 -1.6012562e-20)
(-0.037850906 -0.010597565 1.447649e-20)
(-0.044921084 -0.015548399 -9.3148225e-20)
(-0.050967536 -0.021158264 -1.5044686e-20)
(-0.055717185 -0.027170811 1.3224365e-19)
(-0.058974841 -0.033297813 -1.1289423e-19)
(-0.060699648 -0.039273994 -2.1571862e-21)
(-0.060887257 -0.044822475 3.4429063e-20)
(-0.059677341 -0.049747076 -3.1399939e-20)
(-0.057156728 -0.053806329 -6.1643718e-21)
(-0.053526137 -0.056854296 -3.9292072e-21)
(-0.049023764 -0.058805569 -6.0074025e-21)
(-0.043817134 -0.059518395 -2.8159034e-21)
(-0.038160686 -0.058977681 5.9824009e-22)
(-0.032270248 -0.057156279 4.8580996e-20)
(-0.026370268 -0.054080382 -7.4328e-20)
(-0.020672017 -0.0498049 -7.9384602e-20)
(-0.015372417 -0.044416448 -3.2243494e-20)
(-0.010649624 -0.038030715 -7.3952413e-20)
(-0.0066588992 -0.030788616 1.6505297e-20)
(-0.0035274204 -0.022852847 2.4021567e-20)
(-0.0013583953 -0.014417555 -3.734016e-20)
(-0.00020802419 -0.0056392548 -4.9885987e-21)
(1.0096087e-05 0.00048666818 -1.1891669e-21)
(3.4778204e-05 0.00076821499 -7.0939999e-23)
(7.5661425e-05 0.0010491236 -4.0769534e-21)
(0.00013253928 0.0013246506 1.3680349e-20)
(0.00020491322 0.001589732 -9.6608357e-21)
(0.00029170677 0.0018391127 -2.9527693e-20)
(0.00039123293 0.0020675078 5.5957858e-21)
(0.00050115237 0.0022698279 2.2172625e-20)
(0.00061858139 0.0024413663 -2.0902616e-20)
(0.00074017257 0.0025780339 4.6877445e-20)
(0.00086213906 0.0026765974 8.533131e-22)
(0.00098047297 0.0027349572 -2.9144993e-20)
(0.0010911478 0.0027523163 -4.7557576e-20)
(0.0011904049 0.0027294343 3.8655234e-20)
(0.0012750116 0.0026686374 -4.0733674e-20)
(0.0013426744 0.0025740785 -6.5617163e-20)
(0.0013920966 0.0024511377 4.3036062e-20)
(0.0014235632 0.0023068767 -6.9098705e-20)
(0.0014390562 0.00214947 -9.1446276e-20)
(0.0014425592 0.0019880202 5.9371787e-20)
(0.0014404163 0.0018323774 7.5737872e-20)
(0.0014409889 0.0016920558 6.7877099e-20)
(0.0014555557 0.0015767982 5.5795018e-20)
(0.0014973547 0.0014948883 1.3183879e-20)
(0.0015818578 0.0014531382 2.2442471e-20)
(0.0017237382 0.0014539712 -4.8023904e-21)
(0.0019341136 0.0014939773 4.3378242e-20)
(0.0022147306 0.0015612542 -1.1593015e-20)
(0.0025563199 0.0016374066 -9.1045589e-21)
(0.0029336875 0.0016978728 6.2705412e-20)
(0.0033116438 0.0017192421 -8.1813947e-20)
(0.0036570958 0.0016872102 -2.4612176e-21)
(0.0039363851 0.001594443 4.0590674e-20)
(0.0040931789 0.0014326766 2.1137748e-20)
(0.0040299059 0.001193106 -6.7159045e-20)
(0.0035970463 0.00087455764 4.2476994e-21)
(0.0026190178 0.00050227526 1.2497669e-20)
(0.00087030987 0.00013200909 2.3534502e-21)
(-0.0018427532 -0.00012929889 -3.3763802e-21)
(-0.005707495 -0.00012255121 2.1050657e-21)
(-0.011087521 0.00037121955 -3.9264143e-21)
(-0.017856778 0.0016605707 3.1858189e-20)
(-0.025405762 0.0039092677 -4.4138176e-20)
(-0.033275863 0.0071881071 1.6928998e-20)
(-0.040868887 0.011439118 -1.5191824e-20)
(-0.047753121 0.016525574 9.7005397e-20)
(-0.053506494 0.022208162 1.5540634e-20)
(-0.057892818 0.028227896 -1.3550536e-19)
(-0.060759593 0.034301824 1.1469031e-19)
(-0.062086063 0.040167557 2.1714917e-21)
(-0.061887543 0.045555519 -3.4285062e-20)
(-0.060327182 0.050285583 3.0845854e-20)
(-0.057478689 0.054106133 -4.7764354e-20)
(-0.0535669 0.056894479 3.6212333e-21)
(-0.048845506 0.058588497 -6.3839744e-21)
(-0.043452367 0.059019399 4.1897235e-21)
(-0.037660573 0.058200919 -6.7699747e-22)
(-0.03168023 0.056106877 -5.2316297e-20)
(-0.025733953 0.052770239 7.8303316e-20)
(-0.020030546 0.048252961 8.2537758e-20)
(-0.014762557 0.042645845 3.3216517e-20)
(-0.01010411 0.036070558 7.564225e-20)
(-0.0062049658 0.028670662 -1.6782802e-20)
(-0.003186913 0.020614228 4.8191533e-20)
(-0.0011468433 0.012088728 3.7591983e-20)
(-0.00013869533 0.003288217 5.0026375e-21)
)
;
    }
    frontAndBack
    {
        type            empty;
    }
}


// ************************************************************************* //
