/*--------------------------------*- C++ -*----------------------------------*\
  =========                 |
  \\      /  F ield         | OpenFOAM: The Open Source CFD Toolbox
   \\    /   O peration     | Website:  https://openfoam.org
    \\  /    A nd           | Version:  13
     \\/     M anipulation  |
\*---------------------------------------------------------------------------*/
FoamFile
{
    format      ascii;
    class       volVectorField;
    location    "26.403396";
    object      UMean;
}
// * * * * * * * * * * * * * * * * * * * * * * * * * * * * * * * * * * * * * //

dimensions      [0 1 -1 0 0 0 0];

internalField   nonuniform List<vector> 
17140
(
(-2.5849551e-06 0.00010824514 -1.5350699e-22)
(-3.3572452e-05 0.00033299855 -1.2009887e-23)
(-0.00010072895 0.00057844246 7.939297e-22)
(-0.00021804004 0.00084565529 -8.7318504e-22)
(-0.00039818616 0.0011357518 1.0213277e-22)
(-0.00065841887 0.0014496359 -3.3436903e-22)
(-0.0010198937 0.0017879441 -5.6327812e-22)
(-0.0015080496 0.0021509467 2.7550922e-22)
(-0.0021533588 0.0025384321 9.0233143e-22)
(-0.0029920311 0.0029495717 2.2160275e-21)
(-0.0040666876 0.0033827695 -3.2927941e-21)
(-0.0054269562 0.0038355026 2.9409991e-21)
(-0.0071299299 0.0043041605 4.5082883e-22)
(-0.0092403861 0.0047838967 -2.5627468e-21)
(-0.011830654 0.0052685208 2.8553391e-22)
(-0.014980003 0.0057504494 -2.2742846e-21)
(-0.018773435 0.0062207653 8.5668753e-23)
(-0.023299784 0.0066694135 -1.8600931e-23)
(-0.028649107 0.007085578 -1.3703482e-21)
(-0.03490949 0.007458255 1.7923679e-21)
(-0.042163526 0.007777016 -8.6810478e-22)
(-0.050484925 0.0080329002 1.6842835e-22)
(-0.059936512 0.0082193222 1.2409863e-21)
(-0.070571938 0.0083328732 -1.2419804e-21)
(-0.08243329 0.0083739965 -1.9868574e-21)
(-0.095551205 0.0083470655 1.6084133e-21)
(-0.10995576 0.0082588988 7.9072159e-21)
(-0.12569341 0.0081184241 9.2608399e-22)
(-0.14281019 0.0079373775 -8.2236206e-21)
(-0.1613411 0.0077250689 -1.9170144e-21)
(-0.18132826 0.0074863804 -6.8680726e-21)
(-0.20280965 0.0072231863 9.0819127e-21)
(-0.22581549 0.0069354668 -2.3596707e-21)
(-0.25036371 0.0066217058 -1.1356571e-21)
(-0.27645263 0.0062789862 -1.1101571e-20)
(-0.30405183 0.005903393 4.8971017e-21)
(-0.33309144 0.0054904066 -7.3335225e-21)
(-0.36344895 0.0050351639 -4.9435561e-21)
(-0.39493345 0.0045328781 -2.2470424e-21)
(-0.42726919 0.0039800017 6.8058955e-21)
(-0.46008041 0.003374743 1.2722153e-20)
(-0.49287574 0.0027168177 1.1434912e-20)
(-0.52503264 0.0020055051 4.9449546e-21)
(-0.55579654 0.0012365881 -2.3588398e-20)
(-0.58426742 0.00040422126 -1.6962843e-20)
(-0.60945095 -0.00049177012 4.1062511e-21)
(-0.63039878 -0.0014585746 -2.7418572e-20)
(-0.64597901 -0.0024984015 -9.1546552e-21)
(-0.65508786 -0.0036002539 9.1915656e-21)
(-0.65686989 -0.0047395441 2.2226924e-20)
(-0.65061159 -0.0058860162 -1.3582198e-20)
(-0.63567685 -0.0070240391 -8.5493195e-21)
(-0.61152941 -0.0081822479 2.2262838e-20)
(-0.57773599 -0.0093469712 1.0566829e-20)
(-0.53382227 -0.010436832 7.6095655e-21)
(-0.47968008 -0.011382065 -5.9989119e-21)
(-0.41509693 -0.012050916 1.6623537e-20)
(-0.34033235 -0.012258516 1.4098754e-20)
(-0.25541503 -0.011757945 3.6120834e-21)
(-0.16210934 -0.01033421 -9.3983897e-21)
(-0.060876963 -0.007810767 -7.5166194e-21)
(0.043268999 -0.0043222377 -2.8266185e-20)
(0.15207052 -0.00051445106 -4.2074409e-21)
(0.2544061 0.0028208761 3.5638644e-20)
(0.36210658 0.0041908314 -2.7881864e-20)
(-2.6354416e-05 0.00061511555 4.3528036e-23)
(-0.0001061614 0.0018921156 -4.1564597e-21)
(-0.00022601415 0.0032863328 3.6995679e-21)
(-0.00039985057 0.0048042701 -1.0092231e-21)
(-0.00064037893 0.0064519506 -2.0852441e-21)
(-0.0009647388 0.0082342446 3.9863583e-21)
(-0.0013938578 0.010154445 -4.1591609e-21)
(-0.0019528073 0.012213707 3.663815e-22)
(-0.0026715231 0.01441037 -1.1450779e-21)
(-0.0035854778 0.016739185 -1.9100348e-23)
(-0.0047363274 0.01919045 -3.8353665e-21)
(-0.0061724804 0.021749088 6.1095654e-21)
(-0.0079495402 0.024393736 5.0584491e-22)
(-0.010130518 0.027095908 -5.0090018e-21)
(-0.012785715 0.029819399 1.5450555e-21)
(-0.01599215 0.032520093 9.8496775e-22)
(-0.019832422 0.035146407 -6.2707074e-21)
(-0.024392912 0.037640641 2.0533421e-20)
(-0.02976132 0.039941481 -1.2923329e-20)
(-0.03602363 0.041987831 1.5556943e-20)
(-0.043260772 0.043723952 -2.3110674e-20)
(-0.051545394 0.045105562 5.6978624e-21)
(-0.060939901 0.04610611 2.3631064e-21)
(-0.071498033 0.046721972 -7.7409015e-21)
(-0.083263333 0.046975249 2.8003148e-20)
(-0.096267523 0.046910886 4.1688782e-21)
(-0.11054109 0.04658287 -2.1852361e-20)
(-0.12613185 0.046044483 2.455699e-20)
(-0.14308623 0.045341889 -3.4354507e-21)
(-0.16143879 0.044513093 -3.3300641e-20)
(-0.18123067 0.043583944 3.494596e-21)
(-0.20249863 0.04256949 2.6559059e-20)
(-0.22527101 0.041476174 6.240254e-22)
(-0.24956309 0.040302604 -1.9874935e-20)
(-0.27536989 0.039039985 2.2231522e-20)
(-0.30265695 0.037672848 -9.9893188e-21)
(-0.33134943 0.036179756 1.1843497e-20)
(-0.36131883 0.034533966 3.7429857e-20)
(-0.39236719 0.032704632 8.3056723e-21)
(-0.4242103 0.030659644 3.2393026e-20)
(-0.456462 0.028368077 -4.1383651e-20)
(-0.48861765 0.025801036 -3.7598781e-20)
(-0.52003687 0.022930718 -6.2763571e-21)
(-0.5499366 0.019732657 5.0489007e-20)
(-0.57738178 0.016198975 -2.3326383e-20)
(-0.60135819 0.012354766 -7.9328722e-21)
(-0.62080269 0.008221113 4.2786742e-21)
(-0.6346197 0.0038138183 1.2984034e-20)
(-0.64174319 -0.00076995692 -6.2795714e-21)
(-0.64124358 -0.005416284 1.1214253e-20)
(-0.63238685 -0.010050864 6.7159694e-20)
(-0.6145889 -0.014626724 3.2127073e-21)
(-0.58735489 -0.019124689 -1.4472773e-20)
(-0.55029353 -0.023521432 3.2342173e-20)
(-0.50305995 -0.027740246 -2.7868537e-20)
(-0.44553064 -0.031680292 8.0106468e-20)
(-0.37754954 -0.035194178 2.3139717e-20)
(-0.2994917 -0.038039919 -6.6638336e-20)
(-0.2114442 -0.039840534 1.141912e-20)
(-0.11529621 -0.040210832 1.3383222e-20)
(-0.011536391 -0.038728967 2.7442027e-21)
(0.094600855 -0.035616741 -3.681838e-20)
(0.2049036 -0.031120525 7.3002053e-20)
(0.30830857 -0.026892408 2.1966216e-20)
(0.41745015 -0.02365725 3.7092508e-20)
(-7.7865356e-05 0.0011117028 2.3970393e-21)
(-0.00026329248 0.0034200417 -1.25034e-21)
(-0.00049704116 0.0059407317 -3.3256155e-22)
(-0.00079284608 0.0086858388 3.1558548e-22)
(-0.0011634315 0.011666447 -1.5294345e-21)
(-0.0016256344 0.014891618 -1.1347166e-22)
(-0.0021998061 0.018367615 -1.4547591e-21)
(-0.0029101285 0.022096904 -1.5686642e-21)
(-0.0037852673 0.026076923 1.2844731e-20)
(-0.0048589774 0.030298687 -1.148673e-20)
(-0.0061706873 0.034745223 5.5080852e-21)
(-0.0077660159 0.039389883 8.0874724e-21)
(-0.0096971789 0.044194655 -1.6086628e-20)
(-0.012023195 0.049108618 -1.9960479e-21)
(-0.014809803 0.054066782 7.7456942e-21)
(-0.018128982 0.058989651 5.3474558e-21)
(-0.022057968 0.06378392 -6.2335125e-21)
(-0.026677701 0.068344809 2.2687848e-20)
(-0.032070663 0.072560502 -1.3499759e-20)
(-0.038318217 0.076319064 6.7118685e-21)
(-0.045497652 0.079517838 -2.2804675e-20)
(-0.053679315 0.082074761 -5.97101e-21)
(-0.062924705 0.083940179 1.2549389e-20)
(-0.073287755 0.085106828 -1.8993363e-20)
(-0.084815053 0.085615181 -7.4940262e-21)
(-0.097540292 0.085548794 9.1302324e-21)
(-0.11149566 0.085009969 5.1925451e-20)
(-0.12673088 0.084097387 2.3527199e-20)
(-0.14329241 0.082891722 -1.1925896e-20)
(-0.16121491 0.081460903 1.2632821e-20)
(-0.18053664 0.079853043 -8.1030354e-21)
(-0.20129151 0.078096974 -4.5444695e-20)
(-0.22350334 0.076205848 1.5277922e-20)
(-0.2471813 0.074178461 4.5636778e-20)
(-0.27231254 0.072000249 -1.545891e-20)
(-0.29885289 0.069644125 -2.1506603e-20)
(-0.32671564 0.067071356 3.7259459e-20)
(-0.35575763 0.064232943 1.1275777e-20)
(-0.38576324 0.061071598 -2.0272267e-20)
(-0.41642733 0.057525774 -8.1577655e-21)
(-0.44733788 0.053533867 3.8768434e-20)
(-0.4779571 0.049035707 -1.1110645e-20)
(-0.50760255 0.043972713 -1.5857149e-20)
(-0.53543593 0.03829729 -4.1694137e-20)
(-0.56046609 0.03199893 7.8789992e-20)
(-0.58162938 0.025128456 -5.0362402e-20)
(-0.59780377 0.017757915 -1.2411204e-20)
(-0.60786575 0.0099490569 -4.9274553e-20)
(-0.61078029 0.0018606649 -5.8694679e-20)
(-0.6056939 -0.0062961591 -2.9515357e-21)
(-0.59196344 -0.014359879 1.2394379e-20)
(-0.56911429 -0.022255865 -9.2090345e-20)
(-0.53674548 -0.029972213 -3.9497745e-20)
(-0.49454903 -0.037478441 -4.0962871e-20)
(-0.44226596 -0.044683425 -1.3544581e-20)
(-0.379879 -0.051465775 -1.0695424e-19)
(-0.30735901 -0.057648607 4.2920959e-20)
(-0.22519799 -0.062938158 -1.3413401e-20)
(-0.13354893 -0.066828025 -1.118647e-19)
(-0.034470655 -0.068788373 -4.5256116e-20)
(0.071532222 -0.068102316 5.5093379e-20)
(0.17886801 -0.065070723 1.9281126e-19)
(0.28961636 -0.059597024 -6.2762143e-20)
(0.39210744 -0.054364768 -1.0178838e-19)
(0.4997748 -0.048891154 -4.4081986e-20)
(-0.00015550598 0.0015809632 -7.9848301e-21)
(-0.0005001006 0.0048647959 8.9475181e-21)
(-0.0009055027 0.008452071 -3.2363395e-21)
(-0.0013850716 0.012360514 3.5207525e-22)
(-0.0019515938 0.016606449 -6.9613245e-21)
(-0.0026214304 0.021203476 7.2091858e-21)
(-0.0034140575 0.026161377 -1.0943533e-20)
(-0.0043523069 0.031484692 5.1573342e-21)
(-0.0054629186 0.037170997 1.9628985e-20)
(-0.0067770419 0.043208918 -4.7306462e-21)
(-0.0083307259 0.049575884 -1.8048925e-20)
(-0.010165352 0.056235696 5.5271635e-21)
(-0.012327983 0.06313605 3.7239159e-22)
(-0.014871552 0.070206208 -1.4561951e-20)
(-0.017854824 0.077355183 4.5779088e-20)
(-0.021342045 0.084470859 -2.8261549e-20)
(-0.025402189 0.091420698 -2.7059122e-22)
(-0.03010775 0.098054712 1.5840289e-20)
(-0.035533053 0.10421146 -4.0540894e-20)
(-0.041752138 0.10972766 1.9305697e-20)
(-0.048836412 0.11445152 2.9055915e-20)
(-0.056852334 0.1182592 1.1859097e-20)
(-0.065859705 0.12107235 -5.9359776e-20)
(-0.07591251 0.12287351 -3.1300216e-20)
(-0.087061168 0.12371488 2.0519275e-20)
(-0.099342857 0.12371404 -1.2016423e-20)
(-0.11279332 0.12302265 4.5643106e-20)
(-0.12746348 0.12178558 -1.3202679e-20)
(-0.14340021 0.12011898 3.5940369e-20)
(-0.16063951 0.11812228 -2.0526338e-20)
(-0.17921456 0.11586758 1.271115e-20)
(-0.19915516 0.11339851 -4.7166911e-20)
(-0.22047821 0.11073541 6.862991e-21)
(-0.24318377 0.10787741 -3.6106371e-20)
(-0.26724725 0.10480403 3.4836368e-20)
(-0.2926098 0.10147645 1.101647e-20)
(-0.31916688 0.097838609 -1.4030587e-19)
(-0.34675376 0.093818625 -3.6555537e-20)
(-0.37512899 0.089332129 3.0502102e-20)
(-0.40395685 0.084287356 -2.9981403e-20)
(-0.4327887 0.078590182 7.5931962e-21)
(-0.461042 0.072146569 4.8125402e-20)
(-0.48798039 0.064865644 -2.2732795e-21)
(-0.51270173 0.056678465 -1.5776055e-20)
(-0.53417011 0.047580853 7.8252595e-21)
(-0.55131171 0.037655921 -3.4525395e-21)
(-0.56297359 0.027018585 -1.0675232e-20)
(-0.56805831 0.015808921 1.6709694e-19)
(-0.56562598 0.0042909422 -1.8494023e-20)
(-0.55496216 -0.0072393824 1.7083017e-20)
(-0.53555452 -0.018557627 -1.6028458e-19)
(-0.50704382 -0.029565523 8.8150896e-20)
(-0.46912084 -0.040254929 7.2556609e-20)
(-0.4215646 -0.050602411 6.9857402e-20)
(-0.36421999 -0.060510931 6.8009437e-20)
(-0.2972287 -0.069845061 1.0828721e-19)
(-0.22068968 -0.078414301 -2.1917862e-19)
(-0.13524238 -0.085897671 1.3713967e-19)
(-0.041086886 -0.091646565 2.1239076e-19)
(0.05946246 -0.094993601 -1.5828015e-19)
(0.1658769 -0.094895509 -5.1743923e-20)
(0.27208674 -0.091841772 -4.6413534e-20)
(0.38072517 -0.085217464 2.3681717e-19)
(0.47942817 -0.07881421 1.7564309e-19)
(0.58172486 -0.071094143 -7.7890904e-21)
(-0.00025575562 0.0020058695 5.5825881e-21)
(-0.00080593767 0.0061743365 -1.3013927e-20)
(-0.001433126 0.01073048 1.0614362e-20)
(-0.0021502148 0.015697758 -4.0134399e-21)
(-0.0029701041 0.021097925 -1.4507125e-21)
(-0.0039085774 0.026949564 1.2495569e-20)
(-0.0049840215 0.033266691 -3.1699299e-21)
(-0.0062175733 0.04005699 -6.7381461e-21)
(-0.0076335374 0.047319652 -5.1840859e-22)
(-0.0092597514 0.055042859 -4.4099188e-21)
(-0.011127948 0.063200914 6.1907789e-21)
(-0.013274073 0.071751099 -4.3181355e-21)
(-0.015738542 0.08063039 -1.5969473e-20)
(-0.018566398 0.089752304 -4.6426386e-22)
(-0.021807304 0.099004258 1.2341358e-20)
(-0.02551533 0.10824603 8.7982672e-21)
(-0.029748478 0.11731008 -7.6257941e-21)
(-0.034567891 0.12600469 7.4443494e-22)
(-0.040036755 0.13412089 1.5157185e-20)
(-0.046218898 0.14144416 1.864721e-20)
(-0.053177249 0.14777118 -2.152517e-20)
(-0.060972297 0.15293104 -2.1915756e-20)
(-0.069660842 0.15680875 2.9848402e-20)
(-0.079296397 0.1593668 -3.7343766e-20)
(-0.089932718 0.16065876 -6.5335443e-20)
(-0.10161318 0.16082821 1.5575134e-19)
(-0.11437853 0.16007597 -8.6546347e-20)
(-0.12827863 0.15859303 1.2904555e-19)
(-0.14336348 0.1565344 -1.6242205e-19)
(-0.15967165 0.15403233 1.8226257e-19)
(-0.17722946 0.15118501 -1.8936074e-19)
(-0.19606144 0.14805264 3.2141076e-20)
(-0.2161757 0.14466367 1.1084776e-19)
(-0.23756079 0.14101794 -6.2740198e-20)
(-0.26017749 0.13708912 1.9709986e-20)
(-0.28394898 0.13282654 5.8620532e-21)
(-0.30874859 0.12815648 7.1009654e-20)
(-0.33438535 0.12298391 2.299537e-20)
(-0.36058754 0.11719696 2.2975145e-20)
(-0.38698443 0.11067264 2.3040618e-20)
(-0.41308622 0.1032827 -1.1723079e-19)
(-0.43826305 0.094897177 5.1274237e-20)
(-0.46172569 0.085393093 7.806737e-21)
(-0.48252236 0.074687857 -9.2644499e-20)
(-0.49961158 0.062798886 -4.6312288e-20)
(-0.51193633 0.049854414 2.2810218e-20)
(-0.51839607 0.036010402 8.1121246e-20)
(-0.51798508 0.021503025 -3.53408e-20)
(-0.50988028 0.0066957697 1.0127634e-19)
(-0.49346375 -0.0080222485 5.4709056e-20)
(-0.46832425 -0.022372761 7.5553334e-20)
(-0.43419308 -0.036254682 2.018342e-19)
(-0.39082223 -0.049679186 -1.5698723e-19)
(-0.33806888 -0.062625018 5.0854362e-20)
(-0.27590169 -0.074973772 -8.9593998e-20)
(-0.20465133 -0.086570581 -8.598886e-20)
(-0.12460424 -0.097222783 -3.3848057e-20)
(-0.036630262 -0.10662101 -3.177937e-19)
(0.059031062 -0.11396006 -8.7431893e-20)
(0.15971322 -0.11846098 2.0361891e-19)
(0.26488399 -0.11868486 7.8155761e-20)
(0.36799425 -0.11544001 -6.0192614e-20)
(0.47217775 -0.10758397 -1.262291e-19)
(0.56517421 -0.099782639 -1.9679698e-19)
(0.65943046 -0.089827598 1.5420464e-20)
(-0.00037316493 0.0023700366 1.686332e-20)
(-0.0011643013 0.007298511 4.1628023e-21)
(-0.0020515606 0.012689229 -3.374172e-21)
(-0.0030473749 0.018571379 -1.2462467e-20)
(-0.0041648318 0.024972303 6.8326166e-21)
(-0.0054191174 0.031916035 -9.8445686e-21)
(-0.0068274338 0.03942166 4.2649173e-21)
(-0.0084090359 0.047501281 1.0172095e-21)
(-0.010185491 0.056157515 -5.7696491e-21)
(-0.012180878 0.065380539 -1.246436e-20)
(-0.014421993 0.075144686 -6.2499465e-22)
(-0.016938513 0.085404632 2.063263e-20)
(-0.019763136 0.096091344 -2.8670536e-20)
(-0.022931655 0.10710803 4.6562752e-20)
(-0.026482962 0.11832655 -1.2251456e-20)
(-0.030458951 0.1295849 2.6227802e-20)
(-0.034904308 0.14068672 -3.2017789e-20)
(-0.039866174 0.15140395 2.1014981e-20)
(-0.045393693 0.16148395 -3.3653234e-21)
(-0.051537458 0.1706623 -1.3822096e-20)
(-0.058348936 0.17868215 3.4062788e-20)
(-0.06587995 0.18531965 -4.8812689e-20)
(-0.074182265 0.19041334 5.3894706e-20)
(-0.083307849 0.19389271 9.3453636e-21)
(-0.093311438 0.19579864 -9.3636665e-20)
(-0.10424675 0.19628721 9.5954226e-20)
(-0.11615887 0.1956002 -6.3267237e-20)
(-0.12909464 0.19398159 7.1729229e-20)
(-0.14311322 0.19163155 6.72043e-21)
(-0.1582545 0.18871254 4.1894092e-21)
(-0.17453811 0.18535147 -2.9357486e-20)
(-0.19198194 0.18162855 1.851511e-21)
(-0.21058436 0.17758207 -1.1178438e-19)
(-0.23032095 0.17321356 3.0569907e-20)
(-0.25113604 0.16849123 9.1286879e-20)
(-0.27293256 0.16335247 -4.2845453e-20)
(-0.29555971 0.15770582 3.5425346e-20)
(-0.31879871 0.15143348 -3.5450345e-20)
(-0.34234622 0.14439594 -1.9792039e-19)
(-0.36579599 0.13643846 1.0943722e-19)
(-0.3886186 0.12739748 2.6630719e-20)
(-0.41014185 0.1171072 -1.504212e-19)
(-0.42953651 0.10541661 9.0464621e-21)
(-0.44583315 0.092241694 1.8429186e-20)
(-0.45803828 0.077637022 1.9455578e-19)
(-0.46514622 0.061780293 4.456879e-20)
(-0.46617833 0.044871929 -6.9155198e-20)
(-0.46023784 0.027237116 -6.997277e-20)
(-0.4465634 0.0093231338 -9.8404185e-20)
(-0.42455442 -0.008392857 -1.203753e-19)
(-0.3938576 -0.025569318 -7.310627e-20)
(-0.35428574 -0.042101215 -1.1433243e-19)
(-0.30566478 -0.058020738 3.9375387e-20)
(-0.24794798 -0.073302064 -2.4361238e-19)
(-0.18125752 -0.087794762 -1.6365781e-20)
(-0.10614701 -0.10132792 -1.4391447e-20)
(-0.023109334 -0.11371327 -7.7599775e-21)
(0.066754283 -0.12468858 3.4197818e-19)
(0.16307898 -0.13328804 1.3653868e-19)
(0.2628099 -0.13865157 -2.141217e-19)
(0.3653322 -0.13894409 -3.142778e-19)
(0.46397623 -0.1352952 -1.4328681e-19)
(0.5618213 -0.1262274 -4.7548739e-20)
(0.64775893 -0.11684329 2.7915262e-19)
(0.73258808 -0.10465198 -7.1003073e-20)
(-0.00050042882 0.0026588168 -3.1539877e-21)
(-0.0015533817 0.0081922454 -6.9824385e-21)
(-0.0027231197 0.014250179 1.6862973e-20)
(-0.0040221409 0.020867325 -6.2829672e-22)
(-0.0054636534 0.028076703 -8.2250363e-21)
(-0.0070623319 0.035908212 -3.6290425e-21)
(-0.0088342383 0.044386831 -2.6834006e-21)
(-0.010796749 0.053530439 5.2981281e-21)
(-0.012968637 0.063347068 -2.7488952e-20)
(-0.015370098 0.073831643 2.0805914e-20)
(-0.01802276 0.084962147 -1.0081944e-21)
(-0.020949675 0.09669525 -1.26881e-20)
(-0.024175286 0.10896154 4.7721099e-20)
(-0.027725386 0.12166055 -4.7862613e-20)
(-0.031627064 0.13465613 6.4302686e-21)
(-0.035908671 0.14777264 4.0102078e-20)
(-0.040599819 0.16079318 -3.8105863e-20)
(-0.045731453 0.17346105 1.3489912e-20)
(-0.051336046 0.18548604 -2.6533086e-20)
(-0.057447922 0.19655724 3.4549535e-20)
(-0.0641038 0.20636372 6.5871358e-20)
(-0.071343465 0.21462316 -6.6272949e-20)
(-0.079210554 0.22111673 -9.8573304e-20)
(-0.087753264 0.22572522 1.9310732e-19)
(-0.097025745 0.2284582 -1.5705511e-19)
(-0.10708947 0.22946472 9.2289387e-20)
(-0.11799754 0.22901163 -2.4108866e-20)
(-0.12979874 0.227406 5.7392687e-20)
(-0.14255531 0.22489958 -5.9428555e-20)
(-0.15631158 0.22168254 -8.042788e-20)
(-0.17108546 0.21791339 5.3956048e-20)
(-0.18688448 0.21369738 8.948782e-20)
(-0.20369773 0.20908564 -8.0090295e-21)
(-0.22148692 0.20408314 -3.3639489e-21)
(-0.24017882 0.19865335 -5.8403069e-20)
(-0.25965546 0.19272235 2.533788e-20)
(-0.27974179 0.18618156 9.3004153e-20)
(-0.30019142 0.17889072 4.6663359e-20)
(-0.3206707 0.17068295 -7.1660477e-20)
(-0.34074049 0.16137169 5.6781036e-20)
(-0.35983697 0.15075842 -4.7870567e-20)
(-0.37725662 0.13864389 1.6237623e-20)
(-0.39215158 0.12485843 6.0556134e-20)
(-0.40357714 0.10933393 -1.4389606e-19)
(-0.41063182 0.092172483 -8.501588e-20)
(-0.41241653 0.073594702 -5.4645369e-20)
(-0.40808761 0.053842763 1.6966374e-19)
(-0.39681371 0.033284909 1.0894765e-19)
(-0.37778514 0.012431897 1.2666457e-19)
(-0.35037382 -0.0081280607 2.1939892e-19)
(-0.31430408 -0.027956488 -7.5378769e-20)
(-0.26948575 -0.046936235 1.5834681e-20)
(-0.21583562 -0.065127973 1.2655719e-19)
(-0.15344215 -0.082498394 3.7413418e-19)
(-0.082626511 -0.098852442 2.495136e-19)
(-0.0041894714 -0.11400901 9.9720709e-20)
(0.081230171 -0.12778948 2.9604403e-19)
(0.17234465 -0.14000022 -2.0425149e-19)
(0.26859793 -0.14949972 2.141521e-20)
(0.36655213 -0.15536591 3.4517572e-19)
(0.46531636 -0.1554701 2.3929556e-19)
(0.55861228 -0.15115976 1.1384903e-20)
(0.64895837 -0.14090751 -3.9528223e-19)
(0.72680964 -0.12997488 4.1671912e-20)
(0.80145222 -0.11551672 -6.0734792e-20)
(-0.00062893961 0.0028601535 -1.2322621e-20)
(-0.0019467343 0.0088183105 5.7638139e-21)
(-0.0034023793 0.01534846 -7.7908004e-21)
(-0.0050087395 0.022490459 -4.4312095e-21)
(-0.0067792057 0.030282927 1.2378636e-20)
(-0.0087280999 0.038761876 1.1569391e-20)
(-0.010870516 0.047958884 -1.1890984e-20)
(-0.013222148 0.057898866 1.4327434e-21)
(-0.015799186 0.068597235 3.3269482e-22)
(-0.018618157 0.080056479 2.3721531e-20)
(-0.021695736 0.092262046 -2.6139509e-21)
(-0.025048522 0.10517757 -4.8227965e-20)
(-0.028692808 0.11873946 3.8769502e-20)
(-0.032644357 0.13285116 -1.3466418e-21)
(-0.036918225 0.14737726 -2.6363627e-20)
(-0.041528686 0.16213831 -2.2919595e-21)
(-0.046489339 0.17690732 5.8908956e-21)
(-0.051813466 0.19140918 2.6879942e-20)
(-0.057514767 0.20532514 -4.9920147e-20)
(-0.063608531 0.21830418 8.9100194e-20)
(-0.070113287 0.22998341 -1.954933e-20)
(-0.077052856 0.24001836 1.4581202e-20)
(-0.084458592 0.24812224 -1.2239693e-20)
(-0.092371336 0.2541096 4.886216e-22)
(-0.10084263 0.25793583 -7.4794965e-20)
(-0.10993531 0.25971898 -7.571439e-20)
(-0.11971728 0.25972847 1.5194965e-19)
(-0.13024342 0.25832242 2.5566102e-20)
(-0.14156745 0.2558263 -9.0220768e-20)
(-0.15374652 0.25246771 -3.2370645e-20)
(-0.16680285 0.24842772 -7.358635e-20)
(-0.1807317 0.24384288 8.3843404e-20)
(-0.19551217 0.23878353 3.6867821e-20)
(-0.21109157 0.23326037 -8.6227178e-20)
(-0.22737957 0.22723418 3.6473291e-20)
(-0.24423774 0.22062119 1.7046578e-20)
(-0.26146748 0.21329672 -5.1381915e-20)
(-0.27879635 0.20509898 -1.3436221e-19)
(-0.2958628 0.19583459 -4.073249e-20)
(-0.31219853 0.18528597 2.7309366e-20)
(-0.32721247 0.17322178 6.4664093e-20)
(-0.34018289 0.15941532 6.6485729e-20)
(-0.35026672 0.14369067 7.3129867e-20)
(-0.35658674 0.12601366 1.5232578e-19)
(-0.358353 0.10654584 -4.149811e-21)
(-0.35480563 0.08553078 6.3235814e-20)
(-0.34518982 0.063219318 -3.3806565e-19)
(-0.32864502 0.039969218 -9.2764297e-20)
(-0.30426477 0.016352965 -1.0512155e-19)
(-0.27149593 -0.0068851894 -2.8950156e-19)
(-0.23020665 -0.029183596 3.3721546e-19)
(-0.18040413 -0.050419765 -7.5312208e-20)
(-0.12209211 -0.070671285 -2.4324774e-19)
(-0.055505056 -0.089885591 -3.0171371e-19)
(0.018831574 -0.10782086 -3.8914274e-20)
(0.099908963 -0.12430976 9.9076677e-20)
(0.18699751 -0.13919282 1.6235606e-19)
(0.27867149 -0.15233928 -6.9674644e-20)
(0.37420295 -0.162409 1.2778851e-19)
(0.46976442 -0.16842602 -1.0862355e-19)
(0.56408902 -0.16809877 -3.7183141e-20)
(0.65143148 -0.16287606 -1.1140016e-19)
(0.73364727 -0.15132889 4.9290489e-19)
(0.80253427 -0.13881504 1.6019432e-20)
(0.86587468 -0.12207748 1.998162e-19)
(-0.00074910583 0.002965552 1.1450453e-20)
(-0.0023149117 0.0091502918 2.1165777e-21)
(-0.0040386455 0.015937667 -2.3273432e-21)
(-0.0059336447 0.023372125 -1.1446855e-20)
(-0.0080136297 0.031497537 1.3740514e-20)
(-0.01029278 0.040356019 -1.1681115e-20)
(-0.012785504 0.049986169 -5.5896982e-21)
(-0.015506177 0.060420918 3.0044626e-22)
(-0.018468865 0.071684756 4.7376765e-21)
(-0.021686981 0.083790306 2.7010139e-20)
(-0.025172892 0.096734133 -4.5493833e-20)
(-0.028937474 0.11049174 5.4870478e-20)
(-0.032989645 0.12501177 -1.6189799e-20)
(-0.037335907 0.14020948 -2.2092824e-20)
(-0.041979965 0.15595982 3.4113695e-20)
(-0.046922492 0.17209074 -6.7781969e-20)
(-0.052161176 0.18837746 8.2918699e-20)
(-0.057691196 0.20453944 1.3141364e-21)
(-0.063506276 0.2202418 4.8642034e-20)
(-0.069600527 0.23510377 -1.9581909e-19)
(-0.075971097 0.24871684 4.8155956e-20)
(-0.082621639 0.2606745 2.024227e-19)
(-0.089566221 0.27061394 -9.7352935e-20)
(-0.096833071 0.27826631 -1.1807578e-19)
(-0.10446707 0.28350733 3.0215857e-20)
(-0.1125297 0.28639392 1.6035921e-19)
(-0.12109504 0.28716781 -2.4665639e-19)
(-0.13023573 0.28620672 2.7707146e-19)
(-0.14000335 0.2839154 -2.2072042e-19)
(-0.15044912 0.28060367 4.2712911e-20)
(-0.16161034 0.27647178 -7.3783273e-20)
(-0.17347873 0.27167297 -1.0580909e-19)
(-0.18602176 0.26630621 4.221306e-20)
(-0.1991732 0.26039831 1.1071575e-20)
(-0.21282489 0.2539108 1.5757774e-19)
(-0.22681835 0.24675173 -3.0930556e-20)
(-0.24093259 0.23878161 7.9225424e-20)
(-0.2548708 0.22981834 -6.7104248e-20)
(-0.26824543 0.21964337 4.011936e-20)
(-0.28056217 0.20801004 2.5981882e-20)
(-0.29120872 0.19465871 2.219448e-20)
(-0.29945645 0.17934424 2.2005192e-20)
(-0.30448754 0.1619 -1.3342283e-19)
(-0.3055207 0.14234361 -1.040997e-19)
(-0.30186402 0.12089638 2.9197783e-20)
(-0.29287484 0.097798107 -1.8238739e-20)
(-0.27781089 0.073258859 7.5813989e-20)
(-0.25572622 0.047594653 -1.4863133e-19)
(-0.22577158 0.02146901 -1.7147549e-19)
(-0.18764349 -0.0041981338 -4.9440869e-20)
(-0.1413798 -0.028745135 -1.3000776e-19)
(-0.087030092 -0.052032484 4.1769312e-21)
(-0.024639215 -0.074151331 6.3313632e-20)
(0.045425553 -0.095015285 3.0924879e-19)
(0.12247199 -0.1143268 -1.5610229e-19)
(0.20537035 -0.13194235 6.3708964e-20)
(0.29338443 -0.14771682 -1.8961278e-19)
(0.38507352 -0.16155331 3.2317382e-19)
(0.47942084 -0.17189455 -1.8828083e-19)
(0.57221571 -0.17759557 6.5834324e-20)
(0.6618336 -0.17644737 -9.5010242e-23)
(0.74290876 -0.17001945 5.3332462e-20)
(0.81647356 -0.15710476 1.9965306e-19)
(0.87513633 -0.14316172 -3.7951717e-19)
(0.9250224 -0.1244869 3.9040438e-19)
(-0.00085101432 0.0029710578 -2.5318792e-20)
(-0.0026275709 0.0091755116 -1.1964267e-20)
(-0.0045795013 0.015994938 1.879608e-20)
(-0.0067206812 0.023477536 -4.9518211e-22)
(-0.0090652902 0.031671775 -1.7028752e-20)
(-0.011627596 0.040625488 -8.9161181e-21)
(-0.014421669 0.050384283 1.8827616e-20)
(-0.017461053 0.060989608 -3.0973716e-21)
(-0.020758338 0.072476179 4.3800103e-20)
(-0.024324654 0.084868756 -8.5660814e-21)
(-0.028169092 0.098178085 -2.197103e-22)
(-0.032298031 0.11239591 3.1792091e-20)
(-0.036714434 0.12748902 -1.0251752e-19)
(-0.041417108 0.14339224 4.8126372e-20)
(-0.046400041 0.16000066 8.6994714e-20)
(-0.051651884 0.17716142 -9.3686767e-20)
(-0.057155763 0.19466585 1.166431e-20)
(-0.0628896 0.21224335 -6.7249214e-20)
(-0.068827234 0.22955894 -5.0748074e-20)
(-0.074940545 0.24621726 1.6242714e-19)
(-0.081202883 0.26177621 -1.2425854e-19)
(-0.087593744 0.27577345 1.6678051e-19)
(-0.09410448 0.28776757 -2.0011954e-20)
(-0.10074419 0.29739252 8.3280717e-20)
(-0.10754442 0.30441861 -1.8458977e-19)
(-0.11456073 0.3088061 4.4493517e-20)
(-0.12186835 0.31072992 1.1408909e-19)
(-0.12954982 0.3105511 -2.7989163e-19)
(-0.13767707 0.30872198 1.2333725e-19)
(-0.14629277 0.30565296 1.3407916e-19)
(-0.1554259 0.30162219 -1.1200782e-19)
(-0.16508653 0.29680751 -1.4969815e-20)
(-0.17523252 0.29131474 7.6405671e-20)
(-0.18578233 0.28518546 -4.2611806e-20)
(-0.19661458 0.27839333 6.5744823e-20)
(-0.20755229 0.27084425 -2.3265431e-19)
(-0.21835174 0.26238736 1.2274448e-19)
(-0.22869135 0.25282267 7.413242e-20)
(-0.23815742 0.24190819 1.5245441e-19)
(-0.2462313 0.22937154 2.0034465e-20)
(-0.25228345 0.21493091 -1.638609e-19)
(-0.25558636 0.19833451 6.5849381e-20)
(-0.25536139 0.17944214 9.6854222e-20)
(-0.25091796 0.15832702 1.5186591e-20)
(-0.24163643 0.13525687 -9.254234e-20)
(-0.22693143 0.11045453 -8.0665055e-20)
(-0.20602311 0.084053059 2.4311029e-19)
(-0.17799014 0.05634791 1.2767921e-19)
(-0.1423035 0.028104664 2.7530965e-19)
(-0.098989839 0.00038125477 9.6263992e-20)
(-0.048179652 -0.026102004 3.7268333e-20)
(0.010106155 -0.051220242 2.7643754e-19)
(0.075821341 -0.075038468 1.0933661e-19)
(0.1485183 -0.097397643 -3.6946245e-19)
(0.2274193 -0.11792974 2.9884263e-19)
(0.31138948 -0.13651747 -2.771945e-19)
(0.39984614 -0.15301423 1.3414518e-19)
(0.4913757 -0.16726293 -6.5399465e-19)
(0.58444797 -0.17749217 -3.2970347e-19)
(0.674634 -0.18256273 1.3415432e-19)
(0.75960931 -0.18034359 2.1111427e-19)
(0.83399664 -0.17245003 3.5403815e-19)
(0.89761316 -0.15797741 6.2265965e-20)
(0.94345496 -0.14252349 4.9109708e-20)
(0.97660483 -0.12234974 -5.2150137e-19)
(-0.00092533889 0.0028780671 -4.5493264e-22)
(-0.0028560819 0.0088975691 2.2140391e-20)
(-0.0049753637 0.015525392 -2.6119341e-20)
(-0.0072975927 0.022812362 -1.2580806e-20)
(-0.0098374807 0.030810519 2.522445e-20)
(-0.012609584 0.039572582 8.1812681e-21)
(-0.015627983 0.049150607 -3.9742927e-20)
(-0.018905925 0.059594379 4.2855483e-20)
(-0.02245527 0.070949204 9.0634644e-21)
(-0.026285875 0.083253063 3.6165686e-20)
(-0.03040484 0.096532914 -9.6392685e-20)
(-0.034815662 0.11080001 -1.1822695e-21)
(-0.039517277 0.12604407 8.7447807e-20)
(-0.044503051 0.14222621 -9.4495536e-20)
(-0.049759764 0.15927063 6.818845e-20)
(-0.055266718 0.1770552 2.5522746e-20)
(-0.060995132 0.19540169 -5.3910083e-20)
(-0.066908056 0.21406646 4.9272244e-20)
(-0.072961154 0.23273363 6.6523965e-20)
(-0.079104744 0.25101344 -1.4362676e-21)
(-0.08528742 0.26844933 -1.083707e-19)
(-0.091461568 0.28453802 6.8181255e-20)
(-0.097590577 0.29876609 -3.8669608e-20)
(-0.10365708 0.31066436 -1.9044029e-19)
(-0.10967058 0.31987622 -6.4686582e-20)
(-0.1156721 0.32622801 1.7879993e-19)
(-0.12173225 0.32977978 -1.8125358e-20)
(-0.12793937 0.33082697 2.0787594e-19)
(-0.13437839 0.32982741 -1.2489769e-19)
(-0.14110902 0.32726861 6.6737781e-20)
(-0.14816216 0.32354399 -9.805302e-20)
(-0.15552938 0.31889857 -2.4140482e-20)
(-0.16316654 0.31346558 1.2311574e-19)
(-0.17099691 0.30730327 -1.2850231e-19)
(-0.17888381 0.30039193 -1.8990111e-19)
(-0.18663141 0.29263517 1.9685088e-20)
(-0.19397436 0.28387279 2.0960348e-19)
(-0.20056594 0.27388928 -2.7053486e-19)
(-0.20596567 0.26242467 5.8993027e-20)
(-0.20963083 0.24918598 -1.2651258e-19)
(-0.21091851 0.23387672 1.9513497e-20)
(-0.20910776 0.21624832 -1.9839504e-19)
(-0.20346922 0.19619296 -9.5081439e-20)
(-0.19336663 0.17384841 -1.1721758e-19)
(-0.17823415 0.14951272 4.7023179e-19)
(-0.15750049 0.12337883 1.521513e-19)
(-0.13038121 0.095522444 -2.017638e-19)
(-0.096222504 0.066244724 1.6312969e-19)
(-0.054957784 0.036401501 1.3572446e-19)
(-0.0068556588 0.0070875102 -1.5277575e-19)
(0.047951746 -0.021010642 -7.9833619e-20)
(0.1095088 -0.04775753 -1.8742004e-19)
(0.17781896 -0.073120971 -9.1249169e-20)
(0.25243777 -0.0968449 3.1277902e-19)
(0.33259709 -0.11848842 1.7684693e-19)
(0.41733424 -0.13795282 2.8553293e-20)
(0.50630577 -0.15506988 -1.265456e-21)
(0.59807763 -0.1695128 1.6204605e-19)
(0.69040408 -0.1793326 -2.351642e-19)
(0.77825122 -0.18316759 -3.0609155e-19)
(0.85812092 -0.17927105 -8.6106122e-20)
(0.92399867 -0.16949969 -6.5442546e-19)
(0.97418893 -0.15353615 -5.2123716e-19)
(1.0026809 -0.13722403 -1.3284476e-19)
(1.0156221 -0.11708718 -7.0847024e-20)
(-0.00096437653 0.0026939588 1.535026e-20)
(-0.0029766996 0.008338353 9.2605085e-21)
(-0.0051849532 0.014565724 -1.9271833e-20)
(-0.0076039777 0.02142812 3.3056507e-20)
(-0.01024899 0.028979756 8.2834902e-21)
(-0.013134946 0.037276903 -3.5533761e-20)