/*--------------------------------*- C++ -*----------------------------------*\
  =========                 |
  \\      /  F ield         | OpenFOAM: The Open Source CFD Toolbox
   \\    /   O peration     | Website:  https://openfoam.org
    \\  /    A nd           | Version:  13
     \\/     M anipulation  |
\*---------------------------------------------------------------------------*/
FoamFile
{
    format      ascii;
    class       volScalarField;
    location    "4.099786";
    object      k;
}
// * * * * * * * * * * * * * * * * * * * * * * * * * * * * * * * * * * * * * //

dimensions      [0 2 -2 0 0 0 0];

internalField   nonuniform List<scalar> 
17140
(
9.6345367e-11
3.0274966e-09
2.4756405e-08
1.06463e-07
3.2758409e-07
8.264812e-07
1.8320892e-06
3.7108548e-06
7.0351708e-06
1.268163e-05
2.1969657e-05
3.685279e-05
6.0174585e-05
9.599572e-05
0.00014998264
0.00022981126
0.00034546785
0.00050920745
0.00073475424
0.0010351378
0.0014184963
0.001881552
0.0024016979
0.0029308905
0.0033969724
0.0036995247
0.0038202703
0.0038308855
0.0037311
0.0035777859
0.0034159386
0.0032634847
0.0031228117
0.0029925747
0.0028717637
0.0027598738
0.002656859
0.0025630952
0.0024792478
0.0024062022
0.0023445417
0.0022932909
0.0022528925
0.0022260167
0.002213394
0.0022644717
0.0023521169
0.0024796836
0.0026284714
0.0027862652
0.0029420796
0.0030767031
0.0031945924
0.0032968206
0.0033352285
0.0031217246
0.002698735
0.0021593791
0.0016073803
0.0011118686
0.00073182939
0.00048225581
0.00033953659
0.00026433602
0.0002207804
9.5089949e-11
2.9880474e-09
2.4433889e-08
1.050766e-07
3.2332058e-07
8.1573223e-07
1.8082836e-06
3.6626959e-06
6.9440177e-06
1.2517677e-05
2.1686469e-05
3.6379684e-05
5.9406349e-05
9.4779383e-05
0.00014810166
0.00022696902
0.00034127498
0.0005031824
0.00072635245
0.0010238309
0.0014039219
0.0018637374
0.002381317
0.0029094497
0.0033767693
0.0036835294
0.0038069756
0.0038197559
0.0037216039
0.0035676672
0.0034040688
0.0032490408
0.0031049483
0.0029702544
0.0028436788
0.0027243963
0.0026120309
0.0025067113
0.0024085354
0.0023178777
0.0022345214
0.002156417
0.002078192
0.0019902565
0.0019352514
0.0019012081
0.0018800997
0.0018650437
0.0018506544
0.0018249362
0.0017774689
0.0017173593
0.0016687644
0.0016267888
0.0015817374
0.0015420265
0.001473613
0.0013149121
0.0011181307
0.00088959674
0.00065464188
0.00046434963
0.00033667109
0.00026022799
0.00021366649
9.211911e-11
2.8946939e-09
2.3670533e-08
1.0179402e-07
3.1322135e-07
7.9025806e-07
1.7518365e-06
3.5484376e-06
6.7276229e-06
1.2128204e-05
2.1013288e-05
3.5254213e-05
5.7577363e-05
9.1881171e-05
0.00014361584
0.00022018432
0.00033125612
0.0004887702
0.0007062329
0.00099672555
0.0013689529
0.0018209799
0.0023324482
0.0028582468
0.0033290793
0.00364751
0.0037793827
0.0037976704
0.0037011931
0.0035451337
0.0033761943
0.0032135423
0.0030597786
0.0029129291
0.0027709533
0.0026318784
0.002493594
0.0023565447
0.0022192739
0.0020815035
0.0019423232
0.00179974
0.0016493904
0.0014873602
0.0013689926
0.0012516503
0.0011576666
0.0010629365
0.00098459561
0.00090111784
0.00082993823
0.00076737334
0.00072504097
0.00069875354
0.00068487221
0.00068152609
0.00070091002
0.00069866642
0.00065335903
0.00060259264
0.00052213684
0.00040940453
0.00031055028
0.00024310178
0.00019915852
8.745716e-11
2.7482002e-09
2.2472646e-08
9.6642831e-08
2.9737295e-07
7.5028135e-07
1.6632503e-06
3.3691135e-06
6.3879683e-06
1.1516804e-05
1.9956317e-05
3.3486618e-05
5.4703788e-05
8.732532e-05
0.00013655926
0.00020950088
0.00031545883
0.00046600409
0.00067437218
0.00095365744
0.0013131337
0.0017522913
0.0022532178
0.0027740471
0.003248698
0.0035851543
0.0037353395
0.0037573702
0.0036645458
0.0035040293
0.0033239322
0.0031447804
0.0029704972
0.0027987419
0.0026270463
0.0024538199
0.0022787355
0.0021003079
0.0019194486
0.0017377356
0.0015573683
0.001379756
0.001204285
0.0010295208
0.00090541391
0.00078443343
0.00070518694
0.0006314576
0.00059037445
0.00055207736
0.0005187828
0.00047699909
0.00044084644
0.00041913394
0.0004113517
0.00041591103
0.00044706833
0.00049271492
0.00048418442
0.00046320051
0.00043898792
0.00037135292
0.00028674266
0.00022443865
0.00018412057
8.1238734e-11
2.5527971e-09
2.0874825e-08
8.9771833e-08
2.7623324e-07
6.9695711e-07
1.5450843e-06
3.129902e-06
5.9348501e-06
1.0701067e-05
1.8545838e-05
3.1127193e-05
5.0866525e-05
8.1238071e-05
0.00012712293
0.00019519821
0.00029427642
0.00043541137
0.00063143336
0.00089538746
0.0012372192
0.0016582289
0.002143711
0.0026561535
0.0031338968
0.0034907413
0.0036601713
0.003692012
0.0036035816
0.0034366014
0.0032409584
0.0030418686
0.0028438793
0.0026451181
0.0024435957
0.0022383876
0.002029675
0.0018186434
0.0016087317
0.001404136
0.0012096416
0.0010285312
0.00086160668
0.00071426606
0.00061884531
0.00054655271
0.00051405043
0.00049674381
0.00048643948
0.00047590072
0.00045664641
0.00041032797
0.00036494118
0.00033724269
0.00032465687
0.00032929924
0.00035151638
0.00040896925
0.00041057648
0.00040124824
0.00038931277
0.00035408493
0.00027755437
0.00021515242
0.000173893
7.3639971e-11
2.3140191e-09
1.8922316e-08
8.1375488e-08
2.5039985e-07
6.3179026e-07
1.4006644e-06
2.8375085e-06
5.3808949e-06
9.7035351e-06
1.6820367e-05
2.8239306e-05
4.6166268e-05
7.3774041e-05
0.00011553577
0.00017760114
0.00026814569
0.00039753624
0.00057801526
0.00082242329
0.0011413253
0.0015379951
0.0020014316
0.0024993374
0.0029755331
0.0033541186
0.0035539711
0.0036020661
0.0035236321
0.003353169
0.0031436011
0.0029239056
0.0027019283
0.0024771715
0.0022486674
0.0020168873
0.0017839318
0.0015536313
0.0013316158
0.0011241052
0.00093693731
0.00077386782
0.00063574909
0.00053886693
0.00048910183
0.00046731392
0.00046316222
0.00048293024
0.00050492016
0.00051736941
0.00050251847
0.00043057731
0.000359294
0.00031133404
0.00028833611
0.0002908396
0.000307556
0.00036368994
0.00037479679
0.00037100214
0.00036199685
0.0003354183
0.00026920779
0.0002092636
0.00016700813
6.5039683e-11
2.0437697e-09
1.6712456e-08
7.1872363e-08
2.2116056e-07
5.5802883e-07
1.237187e-06
2.5064967e-06
4.7536757e-06
8.5738074e-06
1.4865564e-05
2.4966e-05
4.0835073e-05
6.5300072e-05
0.00010236375
0.00015756208
0.00023831865
0.00035416839
0.00051659976
0.00073809169
0.00102975
0.0013969475
0.0018328903
0.0023115244
0.0027836624
0.0031821161
0.0034198826
0.0034911243
0.0034302344
0.0032619417
0.0030412968
0.0028028875
0.0025592068
0.002312088
0.0020621282
0.0018115736
0.0015645374
0.001326882
0.0011056824
0.00090809703
0.00074013571
0.00060489605
0.00051077562
0.00046279848
0.00044434003
0.00044150773
0.0004681259
0.00051456748
0.00055935958
0.00057854213
0.00057523098
0.0004903675
0.00038486404
0.00030125781
0.00026501058
0.00026572626
0.00028368902
0.00033521988
0.00035190475
0.00035033472
0.00034316295
0.00031570504
0.00025543848
0.00020077615
0.00016043169
5.585971e-11
1.7553045e-09
1.4353632e-08
6.1728534e-08
1.8994921e-07
4.7928915e-07
1.0626634e-06
2.1530767e-06
4.0838743e-06
7.3670521e-06
1.2776643e-05
2.1466108e-05
3.5130222e-05
5.6221942e-05
8.8230685e-05
0.00013601544
0.00020615602
0.0003072258
0.00044978464
0.00064573406
0.00090649601
0.0012393949
0.0016419309
0.0020947899
0.0025566888
0.0029665176
0.0032450138
0.0033555162
0.003325038
0.0031690514
0.002943999
0.0026910147
0.0024291801
0.0021640918
0.0018982067
0.0016353927
0.0013815769
0.0011442954
0.00093159738
0.00075064915
0.00060646039
0.00050438095
0.00045020443
0.00042691492
0.00042113444
0.00043271886
0.00047140066
0.00052357809
0.00057258578
0.00059520282
0.00059718444
0.00051101034
0.00040850197
0.00029727807
0.00024904996
0.00024878109
0.00027152138
0.00032247366
0.00033752894
0.00033638648
0.00032729948
0.00029187268
0.00023704607
0.00018943726
0.00015347095
4.6535166e-11
1.4622957e-09
1.1957639e-08
5.1424747e-08
1.582449e-07
3.99302e-07
8.8536026e-07
1.7939801e-06
3.4031742e-06
6.1402795e-06
1.06521e-05
1.7904183e-05
2.9318822e-05
4.6962161e-05
7.3788794e-05
0.00011394373
0.00017309995
0.00025876423
0.00038039981
0.00054907949
0.00077620544
0.0010706894
0.0014341001
0.0018540745
0.0022981789
0.0027130152
0.0030304364
0.0031893914
0.0032052117
0.0030758116
0.0028554872
0.0025943345
0.0023193552
0.002040748
0.0017635652
0.0014936847
0.0012386093
0.0010065688
0.0008054692
0.00064153
0.00051816479
0.00044941845
0.00041622454
0.00040459952
0.00040343897
0.00042107822
0.00045274379
0.00047744946
0.00050037623
0.00055230973
0.00057575571
0.00051106163
0.00041558296
0.00029038697
0.00023775109
0.0002397919
0.00026701321
0.00031524484
0.00032482044
0.00032213811
0.00030719478
0.00026508472
0.00021785482
0.00017766676
0.00014683505
3.750346e-11
1.1784881e-09
9.6368556e-09
4.1444139e-08
1.2753419e-07
3.2181816e-07
7.1359202e-07
1.4460455e-06
2.7434887e-06
4.9509856e-06
8.5914505e-06
1.4446915e-05
2.3672437e-05
3.7952476e-05
5.9709208e-05
9.2367614e-05
0.00014066809
0.00021098533
0.00031154908
0.00045235335
0.00064438018
0.00089758893
0.0012170783
0.0015972549
0.0020152357
0.0024272123
0.0027735352
0.0029888969
0.0030553045
0.0029778809
0.0027833495
0.0025231175
0.002238609
0.0019495686
0.0016644194
0.0013899635
0.0011342933
0.00090650354
0.00071471687
0.00056456005
0.00046550478
0.00041508352
0.00039229908
0.00038505755
0.00038443207
0.00039060697
0.00039126523
0.00036742968
0.00035845635
0.00043170275
0.00050802924
0.0004766114
0.00041378981
0.00027671044
0.00022805207
0.00023378504
0.00026634486
0.00030707823
0.00031243472
0.00030609801
0.00028026365
0.00024000319
0.00020026279
0.00016694816
0.00014096697
2.9158665e-11
9.1626566e-10
7.4925807e-09
3.2222559e-08
9.9158257e-08
2.502212e-07
5.5485969e-07
1.1244698e-06
2.1336413e-06
3.8511606e-06
6.6848425e-06
1.1245697e-05
1.8438626e-05
2.9588482e-05
4.6611147e-05
7.2237612e-05
0.00011029124
0.00016599817
0.00024626751
0.00035979652
0.00051672378
0.00072737602
0.00099950997
0.0013335694
0.0017163159
0.0021152122
0.0024786376
0.0027465154
0.0028734728
0.0028552899
0.0027052715
0.0024678841
0.0021871151
0.0018930024
0.0016013516
0.0013226708
0.0010671639
0.0008437484
0.00065962179
0.00051931112
0.00043249293
0.0003890959
0.00036982714
0.00036152595
0.00035671143
0.00034815921
0.000320266
0.00028493425
0.00028758639
0.00036063241
0.00047392099
0.00045971255
0.00039937146
0.00025789971
0.00022011661
0.00022995218
0.0002716859
0.00029936594
0.00029853305
0.00028458012
0.00025058738
0.00021713617
0.00018467341
0.00015750512
0.00013579065
2.1810518e-11
6.853614e-10
5.6044036e-09
2.4102303e-08
7.4170597e-08
1.8717011e-07
4.1506159e-07
8.4121268e-07
1.5963423e-06
2.8818405e-06
5.0036089e-06
8.4207556e-06
1.3814973e-05
2.2188112e-05
3.4996955e-05
5.43345e-05
8.3163974e-05
0.00012560094
0.00018721241
0.00027524741
0.00039861487
0.00056727233
0.00079050527
0.0010734885
0.001411852
0.0017852706
0.0021536396
0.0024617163
0.0026561977
0.0027080344
0.002620205
0.0024193385
0.0021568333
0.001868602
0.001576763
0.0012945411
0.0010347325
0.00080835571
0.00062405768
0.00048807188
0.00040852113
0.00036921251
0.00034947313
0.00033896032
0.00033037345
0.00031386805
0.0002775763
0.00024323984
0.00026212876
0.00033592036
0.00046187444
0.00045375495
0.0003713821
0.00024066951
0.00021478659
0.0002281261
0.00027369814
0.00028696414
0.00028029009
0.00025456139
0.00022611932
0.0001979399
0.00017142498
0.00014929859
0.00013115834
1.5655217e-11
4.9194057e-10
4.022741e-09
1.7300211e-08
5.3238726e-08
1.3435052e-07
2.9793969e-07
6.0387085e-07
1.1460448e-06
2.0692158e-06
3.5934704e-06
6.04962e-06
9.9299882e-06
1.5960604e-05
2.5202511e-05
3.9191303e-05
6.0123896e-05
9.1097344e-05
0.00013639106
0.00020175199
0.00029457807
0.00042378231
0.0005989507
0.00082822532
0.0011143226
0.0014486546
0.0018052543
0.002139087
0.0023947651
0.0025258101
0.0025136929
0.0023813274
0.0021475639
0.0018707513
0.001581817
0.0012995243
0.0010382577
0.00080990284
0.00062347634
0.00048478367
0.00039660146
0.00034942342
0.00032879393
0.00031790372
0.00030706177
0.0002900513
0.0002486396
0.00023114507
0.0002566331
0.00035680979
0.00048388453
0.00046290384
0.00033640584
0.00022453395
0.00021222403
0.00023466417
0.00026953836
0.00027041965
0.00025514699
0.0002274908
0.00020444955
0.00018145491
0.00016015091
0.00014217246
0.00012699244
1.0761535e-11
3.3816417e-10
2.7652634e-09
1.1892292e-08
3.6596795e-08
9.2354599e-08
2.0481193e-07
4.1513106e-07
7.8789377e-07
1.4227011e-06
2.4710987e-06
4.1611427e-06
6.8328588e-06
1.0989099e-05
1.7367869e-05
2.704395e-05
4.1569055e-05
6.3159533e-05
9.4935856e-05
0.00014120305
0.00020772585
0.0003018811
0.00043244628
0.00060860164
0.00083754351
0.001120141
0.0014448113
0.0017818536
0.0020834647
0.002294857
0.0023733987
0.002325862
0.0021592378
0.0019078138
0.0016256347
0.0013405201
0.0010719083
0.00083544506
0.00064150115
0.00049460959
0.00039972031
0.00034564104
0.00031396254
0.00029683488
0.0002840989
0.00026880039
0.00023540693
0.0002392714
0.00028650034
0.00045499191
0.00053564426
0.00047385226
0.00027599288
0.00020867571
0.00021055052
0.00024146567
0.00025871178
0.0002513966
0.00022578789
0.00020510274
0.00018633593
0.00016760946
0.00015053726
0.00013596682
0.00012324415
7.0781108e-12
2.224183e-10
1.8187742e-09
7.8218061e-09
2.4070436e-08
6.0743491e-08
1.3470957e-07
2.7304461e-07
5.1823514e-07
9.3582227e-07
1.6255733e-06
2.7377395e-06
4.4966231e-06
7.2346054e-06
1.1441036e-05
1.7831997e-05
2.7448782e-05
4.1794531e-05
6.3018432e-05
9.4152269e-05
0.00013938858
0.0002043534
0.00029625219
0.00042363827
0.00059536481
0.00081809745
0.0010918215
0.0014036068
0.0017221156
0.0019983258
0.0021778043
0.0022225663
0.0021480997
0.0019666408
0.0017074106
0.0014285038
0.0011563406
0.00090732342
0.00069500977
0.00052930645
0.00041882119
0.00035270106
0.00031496453
0.00029136347
0.00027729347
0.00025651478
0.000248169
0.00027153152
0.00038429033
0.00059454153
0.00056861648
0.00041654219
0.00023795291
0.00020043583
0.00021075355
0.00024400278
0.00024350317
0.00022360076
0.00020201514
0.00018656128
0.00017124416
0.00015596103
0.00014228658
0.00013061432
0.00011991432
4.4570417e-12
1.4005535e-10
1.1452688e-09
4.9253218e-09
1.5156871e-08
3.8249234e-08
8.4823952e-08
1.719296e-07
3.2631849e-07
5.8926219e-07
1.0235947e-06
1.7239769e-06
2.8318131e-06
4.5568796e-06
7.2086117e-06
1.1241227e-05
1.7318484e-05
2.640579e-05
3.9899194e-05
5.980121e-05
8.89497e-05
0.00013129198
0.00019216203
0.00027844544
0.00039838653
0.00056060788
0.00077171679
0.0010319099
0.0013287747
0.0016316528
0.0018920934
0.0020563258
0.0020883261
0.0020103201
0.0018278027
0.0015649831
0.001288308
0.0010288578
0.00080190446
0.00061412394
0.00047244399
0.00038344152
0.00033170112
0.00030074278
0.00028510908
0.00027497579
0.000292638
0.00037416848
0.00062802883
0.00069709396
0.0005942063
0.00030617048
0.00020774789
0.00019637769
0.00021683681
0.00023176902
0.00022041068
0.00019713375
0.0001821778
0.00017086252
0.00015903948
0.00014646291
0.00013540322
0.00012614006
0.00011701357
2.6930596e-12
8.4625045e-11
6.9200008e-10
2.9759943e-09
9.1580743e-09
2.3110687e-08
5.1250983e-08
1.0387841e-07
1.9715329e-07
3.5600414e-07
6.1837984e-07
1.0414482e-06
1.7106112e-06
2.7526001e-06
4.3544835e-06
6.7912487e-06
1.046579e-05
1.5966731e-05
2.4151493e-05
3.6264071e-05
5.4097912e-05
8.0211412e-05
0.00011819135
0.00017292966
0.00025081699
0.00035964153
0.00050778501
0.00070211562
0.00094397231
0.0012232726
0.0015127645
0.0017675652
0.0019423108
0.0019618
0.0018982635
0.0017420829
0.0014915349
0.0012189594
0.00096653255
0.0007544321
0.0005856474
0.00046590099
0.00039211224
0.00034973302
0.0003375263
0.00035575716
0.00043350341
0.00068500597
0.00083419836
0.00074289576
0.00043629092
0.00023893464
0.00019058456
0.00019595329
0.00021783716
0.0002159548
0.00019691352
0.00018204262
0.00016944796
0.00015799476
0.00014856567
0.00013845066
0.00012975349
0.00012251789
0.00011454495
1.5676636e-12
4.9261282e-11
4.0282129e-10
1.7323563e-09
5.3309707e-09
1.3452715e-08
2.9832627e-08
6.0464807e-08
1.1475289e-07
2.0719968e-07
3.5987689e-07
6.060229e-07
9.952723e-07
1.6012497e-06
2.532597e-06
3.949004e-06
6.0845485e-06
9.2817291e-06
1.4041085e-05
2.1093272e-05
3.1502685e-05
4.6813184e-05
6.9244946e-05
0.00010194167
0.0001492404
0.00021687837
0.00031196392
0.00044239587
0.00061524826
0.00083338611
0.0010903125
0.0013646552
0.0016231551
0.0018114446
0.0018451838
0.0018043587
0.0016994605
0.0014962712
0.001251151
0.0010123205
0.00081437142
0.00065551454
0.00055447059
0.00050612918
0.00052328543
0.00060211347
0.00085373478
0.0010011899
0.00091676609
0.00062580571
0.00029226942
0.00019799569
0.00018434017
0.00020047221
0.00020819721
0.00019704078
0.00018039685
0.00016829009
0.00015758841
0.000148761
0.0001401464
0.00013179616
0.00012508693
0.00011955178
0.00011249204
8.838224e-13
2.7772672e-11
2.2710352e-10
9.7667042e-10
3.0054879e-09
7.5842866e-09
1.68186e-08
3.4087115e-08
6.4689506e-08
1.1679723e-07
2.02842e-07
3.4153587e-07
5.6080331e-07
9.0203126e-07
1.4262298e-06
2.2229744e-06
3.423418e-06
5.2192934e-06
7.8907624e-06
1.1847338e-05
1.7687963e-05
2.6288572e-05
3.8927386e-05
5.7457855e-05
8.4532333e-05
0.00012385941
0.00018042292
0.00026050724
0.00037125795
0.0005194403
0.00070905083
0.00093717124
0.0011900759
0.0014511873
0.0016678422
0.0017331485
0.0017118903
0.0016591366
0.0015432378
0.0013753533
0.0011911168
0.0010527416
0.00092953184
0.00092337811
0.0009774496
0.0011576498
0.0011974821
0.0011081821
0.00080946036
0.0003529979
0.00021014234
0.00017849564
0.00018392904
0.00020141592
0.00019706992
0.0001805041
0.00016754145
0.0001579124
0.00014905824
0.000140945
0.00013355484
0.00012646449
0.00012111436
0.00011696361
0.0001108788
4.8472462e-13
1.5231675e-11
1.2455285e-10
5.356459e-10
1.6483295e-09
4.1595109e-09
9.2238905e-09
1.8694239e-08
3.5476344e-08
6.4049574e-08
1.1122631e-07
1.8725534e-07
3.0742039e-07
4.943516e-07
7.8136622e-07
1.2173005e-06
1.8735145e-06
2.8540859e-06
4.3107197e-06
6.4646756e-06
9.6391763e-06
1.4307391e-05
2.1163189e-05
3.1224049e-05
4.5976803e-05
6.757127e-05
9.9054395e-05
0.0001445949
0.00020956842
0.00030027093
0.00042287191
0.00058157774
0.00077583264
0.0010002732
0.0012440074
0.0014934225
0.0016040681
0.0016183883
0.0016058559
0.0015687804
0.0015024368
0.0014426281
0.0013997178
0.0014142562
0.0014427115
0.0014078412
0.0012941168
0.00092280015
0.00039745717
0.00022124803
0.00017489713
0.00017480827
0.00018931023
0.0001893105
0.00017735644
0.0001648405
0.00015642269
0.00014833916
0.00014058728
0.00013425823
0.00012839285
0.00012260363
0.00011801131
0.00011473975
0.00010954767
2.6028881e-13
8.1791493e-12
6.6882787e-11
2.8763356e-10
8.8513156e-10
2.2336192e-09
4.953186e-09
1.0038787e-08
1.9050786e-08
3.4394288e-08
5.9726376e-08
1.0054706e-07
1.6505393e-07
2.653753e-07
4.1934665e-07
6.5306914e-07
1.0046036e-06
1.5293221e-06
2.3076815e-06
3.4566035e-06
5.146248e-06
7.6249027e-06
1.1256065e-05
1.657357e-05
2.4362435e-05
3.5774244e-05
5.2483555e-05
7.688243e-05
0.00011228392
0.0001630614
0.00023450772
0.00033215372
0.0004601027
0.00061972226
0.00080814866
0.0010173985
0.0012545479
0.0014387757
0.0015107748
0.0015350089
0.0015502732
0.0015654149
0.0015887771
0.0015805958
0.0015251272
0.0013505179
0.00087899337
0.00039740406
0.00022199344
0.00017249032
0.00016685415
0.00017842289
0.00019013794
0.00018166062
0.00016648403
0.00015759301
0.00014893703
0.00014255544
0.00013639016
0.00013020421
0.00012475209
0.00011964847
0.00011580306
0.00011287516
0.00010843226
1.3879749e-13
4.3614836e-12
3.5664869e-11
1.5337948e-10
4.7199655e-10
1.1910921e-09
2.641357e-09
5.3533972e-09
1.0159318e-08
1.8341581e-08
3.1849902e-08
5.3615941e-08
8.8008275e-08
1.4148763e-07
2.2354944e-07
3.4807983e-07
5.3530204e-07
8.1457334e-07
1.2284327e-06
1.8384677e-06
2.7338709e-06
4.0439868e-06
5.9571866e-06
8.7488418e-06
1.2822675e-05
1.8771943e-05
2.7467538e-05
4.0178352e-05
5.8721078e-05
8.5615152e-05
0.00012423642
0.00017868302
0.00025352635
0.00035277995
0.00047855358
0.00062837788
0.00080408334
0.0009934191
0.0011834231
0.0013305616
0.0014162102
0.0014680393
0.0014602561
0.0013940287
0.0011952551
0.00067259641
0.00035309698
0.00021376383
0.0001683406
0.00016040975
0.00016796928
0.00018221062
0.00017669835
0.0001638175
0.00015562588
0.00014914863
0.00014377253
0.00013695529
0.00013084813
0.00012590219
0.00012134436
0.00011686365
0.00011365527
0.00011104325
0.00010744853
7.7770709e-14
2.4438175e-12
1.9983702e-11
8.5942124e-11
2.6447539e-10
6.674272e-10
1.4801359e-09
3.0000082e-09
5.6934634e-09
1.0279348e-08
1.7850389e-08
3.0049127e-08
4.9321686e-08
7.9283027e-08
1.2524109e-07
1.9494673e-07
2.9966709e-07
4.5572264e-07
6.8669338e-07
1.0265993e-06
1.5244811e-06
2.2511298e-06
3.3085975e-06
4.8441502e-06
7.0706652e-06
1.0297136e-05
1.4975678e-05
2.1765635e-05
3.162288e-05
4.5912494e-05
6.652931e-05
9.5929215e-05
0.00013718639
0.00019367436
0.00026855311
0.00036369971
0.00048093156
0.00061504149
0.00076459036
0.00089612174
0.0010359182
0.0010739401
0.0010145317
0.00079247325
0.0004565757
0.00027654993
0.00019070057
0.00016039811
0.00015439897
0.0001620159
0.00017584286
0.00017414952
0.00016478475
0.0001572192
0.00015106477
0.0001443855
0.00013800027
0.00013282337
0.00012812637
0.00012329407
0.00011908806
0.00011507624
0.00011215594
0.00010962081
0.00010672468
5.1817216e-14
1.6282738e-12
1.3314902e-11
5.7263494e-11
1.7622847e-10
4.4475912e-10
9.8642642e-10
1.9995853e-09
3.7954285e-09
6.8537581e-09
1.190422e-08
2.0043996e-08
3.2907499e-08
5.2909964e-08
8.3595676e-08
1.3013384e-07
2.00022e-07
3.0408059e-07
4.5785445e-07
6.8358306e-07
1.0129995e-06
1.4912322e-06
2.1823283e-06
3.1771476e-06
4.6048599e-06
6.6488522e-06
9.5671451e-06
1.372725e-05
1.965244e-05
2.8080916e-05
4.0064714e-05
5.7039252e-05
8.0907494e-05
0.00011401268
0.00015888289
0.00021770479
0.0002923856
0.00038146661
0.00048067871
0.00057709225
0.00061665008
0.00057543476
0.00042348768
0.00028702829
0.00019949102
0.00016197724
0.00014592718
0.00014814647
0.00015731096
0.00017141849
0.00017224155
0.00016772138
0.00015853117
0.00015154736
0.00014560531
0.00014027309
0.0001350229
0.00012967445
0.00012462359
0.00012026794
0.00011659724
0.0001130844
0.00011049328
0.00010845121
0.00010624231
4.4341618e-14
1.3933685e-12
1.1394151e-11
4.9004555e-11
1.5082136e-10
3.806765e-10
8.4442006e-10
1.7120498e-09
3.2504366e-09
5.8713463e-09
1.0201476e-08
1.7184045e-08
2.8225419e-08
4.5405695e-08
7.1779641e-08
1.1180449e-07
1.7194451e-07
2.6151971e-07
3.9388769e-07
5.8807398e-07
8.7099653e-07
1.2804609e-06
1.8691289e-06
2.7097646e-06
3.9020134e-06
5.5813093e-06
7.9311349e-06
1.1197438e-05
1.5709912e-05
2.1915855e-05
3.0428784e-05
4.2089702e-05
5.8027023e-05
7.9659396e-05
0.00010855635
0.00014590157
0.00019138997
0.00024058606
0.00028273642
0.00029394532
0.00026634972
0.00020690914
0.0001643033
0.00014069398
0.0001285784
0.00013216461
0.00013843712
0.00015572347
0.00016811564
0.00017165466
0.00016865187
0.00015899384
0.0001516237
0.00014616668
0.00014096169
0.00013580286
0.00013074756
0.00012632553
0.00012243371
0.00011849288
0.00011501746
0.00011177213
0.00010928682
0.00010766242
0.00010579876
4.3336222e-14
1.3617789e-12
1.1135971e-11
4.78958e-11
1.4741856e-10
3.7212586e-10
8.2557188e-10
1.6741537e-09
3.1792542e-09
5.744469e-09
9.9845759e-09
1.6825711e-08
2.7650121e-08
4.4504216e-08
7.0395904e-08
1.0971676e-07
1.6883668e-07
2.5693337e-07
3.8713469e-07
5.7806606e-07
8.5590063e-07
1.2570013e-06
1.8312058e-06
2.6456147e-06
3.7886794e-06
5.3740816e-06
7.543904e-06
1.0470681e-05
1.4358339e-05
1.9443592e-05
2.5996179e-05
3.4324645e-05
4.4804736e-05
5.7812175e-05
7.3349216e-05
9.0799048e-05
0.00010819545
0.00012077211
0.00012130989
0.00010907321
0.00010026174
9.4106877e-05
9.6949787e-05
0.00010337804
0.00011307693
0.00013505962
0.00015815955
0.00016733145
0.0001704962
0.00016876205
0.00016074411
0.00015288505
0.00014794184
0.00014321214
0.00013834429
0.00013344938
0.00012880289
0.00012405393
0.00011977691
0.00011623931
0.00011315785
0.00011035641
0.00010816208
0.00010705247
0.0001052976
3.8316695e-14
1.2040482e-12
9.8461678e-12
4.2348937e-11
1.3034955e-10
3.2905359e-10
7.3005913e-10
1.4805778e-09
2.8118964e-09
5.0811976e-09
8.8326248e-09
1.4885936e-08
2.4464482e-08
3.9378844e-08
6.2288525e-08
9.7071815e-08
1.4934311e-07
2.2716656e-07
3.4202234e-07
5.1008137e-07
7.5382505e-07
1.1039913e-06
1.6017137e-06
2.300522e-06
3.2675773e-06
4.5831363e-06
6.3369586e-06
8.6205642e-06
1.1516286e-05
1.5083799e-05
1.934409e-05
2.4258497e-05
2.9732115e-05
3.5585629e-05
4.1465822e-05
4.684046e-05
5.0295761e-05
5.0606529e-05
5.0480163e-05
5.3371574e-05
5.9945081e-05
6.7473862e-05
8.308061e-05
0.00010153424
0.00013846351
0.00015938393
0.00016753755
0.00017012878
0.00016906778
0.00016355599
0.00015430778
0.00014882151
0.00014396491
0.00013901396
0.00013415011
0.00012947709
0.00012530726
0.00012180611
0.00011834164
0.00011495597
0.00011193652
0.00010929103
0.00010727145
0.00010652891
0.00010489779
2.7717392e-14
8.7097931e-13
7.1224545e-12
3.0633906e-11
9.4290073e-11
2.3802238e-10
5.2808069e-10
1.0709234e-09
2.0337713e-09
3.6747787e-09
6.3870287e-09
1.0762286e-08
1.7682795e-08
2.8452548e-08
4.498347e-08
7.0056897e-08
1.0768608e-07
1.6361014e-07
2.4595124e-07
3.6605924e-07
5.3954244e-07
7.8742326e-07
1.1372432e-06
1.623749e-06
2.2885179e-06
3.1775705e-06
4.3358444e-06
5.7979334e-06
7.5747712e-06
9.6408188e-06
1.1928089e-05
1.4329479e-05
1.6717491e-05
1.8952724e-05
2.0866244e-05
2.2207065e-05
2.3822426e-05
2.7266431e-05
3.1633118e-05
4.0749987e-05
5.4216961e-05
7.2550962e-05
0.00010026439
0.00013916215
0.00015926659
0.00016797362
0.00017058168
0.000169812
0.00016569174
0.0001554244
0.0001495729
0.00014476113
0.00014034736
0.00013595987
0.00013172962
0.00012755837
0.00012340087
0.00011946627
0.00011607732
0.00011316595
0.0001105688
0.00010827091
0.00010654701
0.00010602598
0.00010451228
1.6459454e-14
5.1721385e-13
4.2294927e-12
1.8190818e-11
5.5988707e-11
1.4132795e-10
3.1352691e-10
6.3574418e-10
1.207137e-09
2.1806807e-09
3.7890995e-09
6.3823436e-09
1.0481374e-08
1.6854742e-08
2.6626624e-08
4.1427472e-08
6.3600986e-08
9.6482729e-08
1.4476468e-07
2.1495277e-07
3.1590489e-07
4.5939611e-07
6.6058315e-07
9.3812003e-07
1.3135141e-06
1.8091603e-06
2.4444726e-06
3.2299817e-06
4.1604595e-06
5.2088203e-06
6.3298875e-06
7.472095e-06
8.5994837e-06
9.7322064e-06
1.1126752e-05
1.3186902e-05
1.6785213e-05
2.2919431e-05
3.231626e-05
4.8097417e-05
6.9357102e-05
9.8724512e-05
0.00013586046
0.00015649407
0.00016808359
0.00017161273
0.00017104182
0.00016741559
0.00015717337
0.00015112381
0.00014616167
0.00014168817
0.00013762427
0.00013334487
0.00012906371
0.00012501137
0.00012144655
0.00011817897
0.00011497393
0.00011210617
0.00010953192
0.00010743841
0.00010596819
0.00010547339
0.00010391985
8.6152444e-15
2.7072065e-13
2.2137817e-12
9.5210764e-12
2.9302849e-11
7.3960286e-11
1.6405492e-10
3.3259872e-10
6.3138539e-10
1.140253e-09
1.980533e-09
3.3344336e-09
5.4727631e-09
8.7942364e-09
1.3880642e-08
2.1573289e-08
3.3077219e-08
5.0100172e-08
7.5032276e-08
1.111682e-07
1.629633e-07
2.362951e-07
3.3866772e-07
4.7924394e-07
6.6852889e-07
9.175118e-07
1.2361259e-06
1.6313447e-06
2.1059573e-06
2.6604432e-06
3.3028645e-06
4.0725388e-06
5.0596106e-06
6.5570621e-06
8.9370418e-06
1.267249e-05
1.9143569e-05
2.9579136e-05
4.5638715e-05
6.6857864e-05
9.4667269e-05
0.00012957419
0.00015368412
0.00016953877
0.00017336193
0.00017268749
0.00016956158
0.00015981181
0.00015303332
0.00014735637
0.00014260212
0.00013859388
0.00013448931
0.00013023598
0.0001262777
0.00012255853
0.0001191646
0.00011607766
0.00011326741
0.00011079565
0.0001085428
0.00010675789
0.00010543576
0.00010492936
0.00010337693
4.6911494e-15
1.4741179e-13
1.2054259e-12
5.1841182e-12
1.595376e-11
4.0261901e-11
8.9290339e-11
1.809805e-10
3.434612e-10
6.2005696e-10
1.0765499e-09
1.8116317e-09
2.9718319e-09
4.7726617e-09
7.5282731e-09
1.1692585e-08
1.7915499e-08
2.7118366e-08
4.0592934e-08
6.0127125e-08
8.8158468e-08
1.2795128e-07
1.8378716e-07
2.6115483e-07
3.6693121e-07
5.0962235e-07
6.998826e-07
9.5193929e-07
1.2872616e-06
1.7423099e-06
2.3855669e-06
3.3503531e-06
4.8817459e-06
7.3903554e-06
1.1457831e-05
1.8069724e-05
2.8481017e-05
4.3752301e-05
6.3872908e-05
9.0963686e-05
0.00012465118
0.00015286977
0.00017090182
0.00017570287
0.00017497052
0.0001721225
0.00016295096
0.00015495262
0.00014873653
0.0001438847
0.00013989617
0.00013594909
0.00013211731
0.00012822671
0.000124663
0.00012118336
0.00011791363
0.00011488392
0.00011217994
0.0001098127
0.0001076803
0.00010602778
0.00010484147
0.00010435256
0.00010291716
3.6235107e-15
1.1386292e-13
9.310823e-13
4.0041378e-12
1.2321514e-11
3.1091452e-11
6.8941201e-11
1.3970786e-10
2.6507892e-10
4.7845351e-10
8.3055018e-10
1.3975008e-09
2.2924625e-09
3.6821768e-09
5.8104403e-09
9.0311567e-09
1.3854575e-08
2.1011537e-08
3.1542202e-08
4.6918004e-08
6.9209216e-08
1.0131686e-07
1.4730043e-07
2.1285962e-07
3.0608822e-07
4.3874845e-07
6.2859676e-07
9.0391283e-07
1.312935e-06
1.939542e-06
2.9247786e-06
4.5066129e-06
7.0815827e-06
1.1218447e-05
1.7690428e-05
2.7759817e-05
4.2336064e-05
6.178589e-05
8.8386937e-05
0.00012137824
0.00015131249
0.00017201692
0.00017826935
0.00017766446
0.00017506144
0.00016649242
0.00015707437
0.00015057265
0.00014559491
0.00014127282
0.00013723795
0.0001334401
0.00012964248
0.00012584473
0.00012222113
0.00011890222
0.00011613075
0.00011348148
0.00011097773
0.00010884757
0.0001069179
0.00010544766
0.00010427695
0.00010375379
0.0001022011
4.236685e-15
1.3313096e-13
1.0886414e-12
4.6816822e-12
1.4406062e-11
3.6349889e-11
8.0596739e-11
1.633189e-10
3.0986637e-10
5.5929031e-10
9.7092757e-10
1.6339364e-09
2.6810455e-09
4.3083027e-09
6.8033549e-09
1.0585855e-08
1.6265149e-08
2.4722736e-08
3.7230602e-08
5.5622501e-08
8.254551e-08
1.2184449e-07
1.7918059e-07
2.6300568e-07
3.8622249e-07
5.6907655e-07
8.4428407e-07
1.2648157e-06
1.9160522e-06
2.937881e-06
4.5612765e-06
7.1550876e-06
1.1266198e-05
1.7671548e-05
2.7456928e-05
4.1472273e-05
6.0609268e-05
8.6468959e-05
0.00011847842
0.00014924765
0.00017233856
0.00018063418
0.00018076906
0.00017827651
0.00017006849
0.00015954171
0.0001529165
0.00014771106
0.00014284928
0.00013853173
0.00013479082
0.00013117044
0.00012754279
0.00012383598
0.00012069543
0.00011764805
0.00011470109
0.00011217043
0.00010997367
0.00010793458