/*--------------------------------*- C++ -*----------------------------------*\
  =========                 |
  \\      /  F ield         | OpenFOAM: The Open Source CFD Toolbox
   \\    /   O peration     | Website:  https://openfoam.org
    \\  /    A nd           | Version:  13
     \\/     M anipulation  |
\*---------------------------------------------------------------------------*/
FoamFile
{
    format      ascii;
    class       volScalarField;
    location    "25.099814";
    object      pPrime2Mean;
}
// * * * * * * * * * * * * * * * * * * * * * * * * * * * * * * * * * * * * * //

dimensions      [0 4 -4 0 0 0 0];

internalField   nonuniform List<scalar> 
17140
(
12357.25
12357.25
12357.25
12357.25
12357.25
12357.249
12357.247
12357.245
12357.243
12357.239
12357.234
12357.228
12357.22
12357.209
12357.196
12357.179
12357.157
12357.129
12357.093
12357.047
12356.988
12356.912
12356.816
12356.692
12356.533
12356.329
12356.068
12355.735
12355.312
12354.776
12354.1
12353.249
12352.183
12350.851
12349.192
12347.134
12344.591
12341.462
12337.631
12332.964
12327.31
12320.497
12312.33
12302.591
12291.038
12277.399
12261.379
12242.652
12220.862
12195.623
12166.519
12133.095
12094.864
12051.301
12001.838
11945.865
11882.722
11811.701
11732.025
11642.871
11543.323
11432.423
11309.063
11172.139
11020.351
12357.561
12357.561
12357.561
12357.561
12357.561
12357.56
12357.558
12357.556
12357.554
12357.55
12357.545
12357.539
12357.53
12357.52
12357.506
12357.488
12357.466
12357.437
12357.401
12357.354
12357.295
12357.218
12357.12
12356.995
12356.835
12356.631
12356.369
12356.036
12355.613
12355.078
12354.403
12353.554
12352.489
12351.159
12349.502
12347.446
12344.905
12341.779
12337.95
12333.286
12327.636
12320.827
12312.665
12302.932
12291.385
12277.754
12261.742
12243.024
12221.244
12196.017
12166.926
12133.517
12095.304
12051.76
12002.319
11946.372
11883.258
11812.269
11732.63
11643.517
11544.014
11433.166
11309.865
11173.008
11021.285
12358.331
12358.331
12358.331
12358.331
12358.331
12358.33
12358.328
12358.326
12358.323
12358.319
12358.314
12358.307
12358.298
12358.287
12358.273
12358.254
12358.231
12358.201
12358.163
12358.115
12358.054
12357.976
12357.876
12357.749
12357.588
12357.382
12357.12
12356.787
12356.365
12355.831
12355.158
12354.312
12353.25
12351.924
12350.27
12348.218
12345.682
12342.56
12338.737
12334.08
12328.438
12321.639
12313.489
12303.77
12292.239
12278.626
12262.635
12243.939
12222.184
12196.986
12167.927
12134.555
12096.385
12052.89
12003.505
11947.62
11884.578
11813.669
11734.12
11645.108
11545.717
11434.995
11311.834
11175.135
11023.57
12359.577
12359.577
12359.577
12359.577
12359.576
12359.575
12359.573
12359.571
12359.568
12359.563
12359.558
12359.55
12359.541
12359.529
12359.514
12359.494
12359.47
12359.438
12359.399
12359.349
12359.286
12359.206
12359.104
12358.976
12358.813
12358.606
12358.344
12358.012
12357.591
12357.06
12356.39
12355.547
12354.49
12353.168
12351.52
12349.473
12346.942
12343.828
12340.015
12335.369
12329.74
12322.957
12314.826
12305.129
12293.624
12280.041
12264.082
12245.422
12223.708
12198.555
12169.549
12136.238
12098.138
12054.723
12005.428
11949.647
11886.722
11815.944
11736.542
11647.693
11548.485
11437.965
11315.03
11178.586
11027.274
12361.315
12361.315
12361.315
12361.315
12361.314
12361.313
12361.311
12361.308
12361.305
12361.3
12361.294
12361.286
12361.276
12361.264
12361.247
12361.227
12361.201
12361.169
12361.128
12361.077
12361.012
12360.931
12360.828
12360.698
12360.535
12360.328
12360.066
12359.735
12359.317
12358.788
12358.122
12357.283
12356.23
12354.913
12353.271
12351.232
12348.709
12345.605
12341.804
12337.174
12331.564
12324.802
12316.697
12307.032
12295.562
12282.019
12266.105
12247.496
12225.838
12200.75
12171.818
12138.594
12100.592
12057.29
12008.124
11952.489
11889.727
11819.134
11739.938
11651.318
11552.366
11442.131
11319.513
11183.427
11032.471
12363.563
12363.564
12363.563
12363.563
12363.562
12363.561
12363.559
12363.556
12363.552
12363.547
12363.541
12363.533
12363.522
12363.509
12363.492
12363.472
12363.445
12363.412
12363.371
12363.319
12363.254
12363.172
12363.069
12362.939
12362.776
12362.57
12362.31
12361.981
12361.565
12361.039
12360.377
12359.542
12358.494
12357.183
12355.547
12353.516
12351.005
12347.914
12344.128
12339.518
12333.931
12327.198
12319.127
12309.501
12298.077
12284.585
12268.729
12250.184
12228.601
12203.598
12174.763
12141.651
12103.779
12060.624
12011.626
11956.181
11893.634
11823.281
11744.353
11656.033
11557.414
11447.549
11325.345
11189.724
11039.235
12366.344
12366.344
12366.344
12366.344
12366.343
12366.341
12366.339
12366.336
12366.332
12366.327
12366.321
12366.312
12366.302
12366.289
12366.272
12366.251
12366.225
12366.192
12366.151
12366.099
12366.034
12365.953
12365.851
12365.722
12365.56
12365.356
12365.098
12364.772
12364.359
12363.837
12363.178
12362.347
12361.304
12359.999
12358.371
12356.35
12353.85
12350.775
12347.01
12342.423
12336.865
12330.168
12322.139
12312.561
12301.192
12287.763
12271.977
12253.513
12232.022
12207.125
12178.412
12145.441
12107.729
12064.758
12015.97
11960.761
11898.481
11828.426
11749.833
11661.885
11563.681
11454.277
11332.587
11197.546
11047.64
12369.684
12369.684
12369.684
12369.683
12369.682
12369.68
12369.678
12369.675
12369.671
12369.666
12369.66
12369.652
12369.642
12369.629
12369.612
12369.592
12369.566
12369.534
12369.494
12369.443
12369.38
12369.3
12369.2
12369.073
12368.914
12368.712
12368.457
12368.133
12367.723
12367.204
12366.549
12365.722
12364.684
12363.385
12361.766
12359.756
12357.271
12354.214
12350.471
12345.913
12340.39
12333.734
12325.754
12316.234
12304.93
12291.576
12275.875
12257.509
12236.129
12211.36
12182.795
12149.994
12112.477
12069.728
12021.192
11966.268
11904.309
11834.614
11756.423
11668.925
11571.221
11462.373
11341.304
11206.962
11057.763
12373.613
12373.613
12373.612
12373.612
12373.611
12373.609
12373.607
12373.604
12373.6
12373.595
12373.589
12373.581
12373.571
12373.559
12373.543
12373.524
12373.499
12373.468
12373.429
12373.38
12373.319
12373.241
12373.143
12373.019
12372.862
12372.663
12372.41
12372.089
12371.682
12371.167
12370.514
12369.692
12368.659
12367.367
12365.757
12363.759
12361.291
12358.254
12354.538
12350.012
12344.529
12337.921
12329.998
12320.543
12309.316
12296.048
12280.447
12262.196
12240.948
12216.331
12187.941
12155.341
12118.054
12075.568
12027.329
11972.742
11911.161
11841.89
11764.174
11677.204
11580.089
11471.895
11351.558
11218.042
11069.684
12378.164
12378.164
12378.164
12378.163
12378.162
12378.16
12378.158
12378.155
12378.152
12378.147
12378.141
12378.133
12378.124
12378.112
12378.097
12378.078
12378.054
12378.024
12377.987
12377.94
12377.88
12377.804
12377.708
12377.587
12377.432
12377.235
12376.985
12376.667
12376.262
12375.749
12375.099
12374.281
12373.254
12371.969
12370.369
12368.385
12365.934
12362.921
12359.234
12354.745
12349.307
12342.753
12334.894
12325.513
12314.372
12301.203
12285.718
12267.6
12246.506
12222.067
12193.881
12161.514
12124.495
12082.314
12034.42
11980.222
11919.078
11850.299
11773.131
11686.774
11590.342
11482.908
11363.421
11230.864
11083.485
12383.367
12383.367
12383.367
12383.366
12383.365
12383.363
12383.361
12383.358
12383.355
12383.35
12383.344
12383.337
12383.328
12383.316
12383.302
12383.283
12383.26
12383.232
12383.195
12383.149
12383.091
12383.017
12382.923
12382.803
12382.65
12382.455
12382.206
12381.889
12381.486
12380.975
12380.329
12379.515
12378.493
12377.217
12375.628
12373.659
12371.228
12368.24
12364.585
12360.137
12354.748
12348.254
12340.465
12331.168
12320.123
12307.067
12291.714
12273.748
12252.831
12228.594
12200.643
12168.545
12131.833
12090.001
12042.502
11988.749
11928.106
11859.887
11783.347
11697.691
11602.04
11495.476
11376.961
11245.502
11099.247
12389.249
12389.249
12389.248
12389.248
12389.246
12389.245
12389.243
12389.24
12389.236
12389.232
12389.226
12389.219
12389.21
12389.198
12389.184
12389.166
12389.143
12389.115
12389.079
12389.033
12388.976
12388.902
12388.809
12388.69
12388.537
12388.343
12388.095
12387.779
12387.378
12386.869
12386.226
12385.416
12384.402
12383.134
12381.558
12379.605
12377.196
12374.236
12370.617
12366.212
12360.878
12354.449
12346.738
12337.531
12326.594
12313.664
12298.459
12280.666
12259.948
12235.944
12208.259
12176.467
12140.104
12098.667
12051.616
11998.367
11938.29
11870.706
11794.875
11710.011
11615.244
11509.663
11392.25
11262.034
11117.056
12395.828
12395.828
12395.828
12395.827
12395.826
12395.824
12395.822
12395.819
12395.815
12395.81
12395.805
12395.797
12395.788
12395.777
12395.762
12395.744
12395.721
12395.693
12395.657
12395.611
12395.553
12395.48
12395.387
12395.267
12395.115
12394.921
12394.673
12394.358
12393.958
12393.452
12392.812
12392.009
12391.001
12389.745
12388.182
12386.248
12383.862
12380.933
12377.353
12372.997
12367.722
12361.364
12353.736
12344.629
12333.81
12321.022
12305.981
12288.382
12267.89
12244.147
12216.763
12185.315
12149.343
12108.351
12061.801
12009.118
11949.676
11882.803
11807.767
11723.791
11630.016
11525.54
11409.361
11280.543
11136.995
12403.122
12403.121
12403.121
12403.12
12403.119
12403.117
12403.115
12403.112
12403.108
12403.103
12403.097
12403.09
12403.08
12403.068
12403.054
12403.035
12403.012
12402.983
12402.947
12402.901
12402.843
12402.768
12402.674
12402.555
12402.402
12402.208
12401.961
12401.647
12401.249
12400.745
12400.111
12399.314
12398.316
12397.071
12395.525
12393.611
12391.252
12388.357
12384.82
12380.516
12375.304
12369.022
12361.486
12352.489
12341.801
12329.168
12314.311
12296.927
12276.688
12253.236
12226.188
12195.124
12159.589
12119.091
12073.101
12021.047
11962.311
11896.229
11822.079
11739.092
11646.421
11543.174
11428.37
11301.105
11159.149
12411.146
12411.146
12411.145
12411.144
12411.143
12411.141
12411.139
12411.136
12411.132
12411.127
12411.121
12411.113
12411.103
12411.091
12411.076
12411.058
12411.034
12411.004
12410.967
12410.921
12410.862
12410.787
12410.692
12410.572
12410.419
12410.225
12409.979
12409.667
12409.272
12408.772
12408.144
12407.355
12406.369
12405.138
12403.61
12401.72
12399.391
12396.533
12393.042
12388.795
12383.652
12377.452
12370.016
12361.138
12350.594
12338.133
12323.48
12306.336
12286.375
12263.248
12236.572
12205.933
12170.88
12130.93
12085.557
12034.199
11976.244
11911.038
11837.867
11755.974
11664.523
11562.637
11449.35
11323.801
11183.601
12419.923
12419.923
12419.922
12419.921
12419.92
12419.918
12419.915
12419.912
12419.908
12419.903
12419.897
12419.889
12419.879
12419.867
12419.852
12419.833
12419.809
12419.779
12419.741
12419.694
12419.634
12419.559
12419.464
12419.344
12419.191
12418.998
12418.754
12418.444
12418.053
12417.559
12416.938
12416.159
12415.185
12413.971
12412.464
12410.6
12408.304
12405.487
12402.046
12397.86
12392.792
12386.682
12379.354
12370.608
12360.222
12347.95
12333.522
12316.642
12296.989
12274.218
12247.951
12217.779
12183.257
12143.908
12099.215
12048.622
11991.526
11927.282
11855.188
11774.499
11684.39
11583.995
11472.373
11348.705
11210.431
12429.48
12429.479
12429.479
12429.478
12429.476
12429.475
12429.472
12429.469
12429.465
12429.46
12429.454
12429.446
12429.436
12429.423
12429.408
12429.389
12429.364
12429.334
12429.297
12429.249
12429.19
12429.114
12429.019
12428.9
12428.748
12428.556
12428.314
12428.008
12427.621
12427.134
12426.522
12425.754
12424.794
12423.598
12422.114
12420.278
12418.018
12415.246
12411.86
12407.741
12402.753
12396.741
12389.532
12380.93
12370.718
12358.653
12344.471
12327.88
12308.565
12286.184
12260.364
12230.702
12196.761
12158.07
12114.119
12064.362
12008.206
11945.016
11874.101
11794.727
11706.084
11607.317
11497.509
11375.894
11239.719
12439.848
12439.847
12439.847
12439.846
12439.844
12439.843
12439.84
12439.837
12439.833
12439.828
12439.822
12439.814
12439.804
12439.792
12439.776
12439.757
12439.733
12439.703
12439.665
12439.618
12439.559
12439.484
12439.39
12439.271
12439.121
12438.931
12438.692
12438.389
12438.008
12437.528
12436.925
12436.169
12435.225
12434.049
12432.589
12430.785
12428.564
12425.84
12422.513
12418.466
12413.565
12407.66
12400.58
12392.136
12382.113
12370.275
12356.361
12340.085
12321.137
12299.18
12273.847
12244.741
12211.432
12173.457
12130.315
12081.469
12026.336
11964.294
11894.663
11816.719
11729.668
11632.668
11524.83
11405.443
11271.544
12451.058
12451.058
12451.057
12451.056
12451.055
12451.053
12451.051
12451.048
12451.044
12451.039
12451.033
12451.025
12451.015
12451.003
12450.988
12450.969
12450.945
12450.916
12450.878
12450.832
12450.773
12450.699
12450.606
12450.489
12450.341
12450.154
12449.919
12449.621
12449.246
12448.773
12448.18
12447.437
12446.509
12445.353
12443.92
12442.15
12439.971
12437.298
12434.034
12430.064
12425.258
12419.469
12412.531
12404.258
12394.442
12382.849
12369.226
12353.292
12334.743
12313.245
12288.439
12259.936
12227.311
12190.112
12147.847
12099.988
12045.966
11985.17
11916.929
11840.534
11755.203
11660.113
11554.404
11437.425
11305.983
12463.138
12463.138
12463.137
12463.137
12463.135
12463.134
12463.132
12463.129
12463.125
12463.12
12463.114
12463.107
12463.097
12463.085
12463.07
12463.052
12463.029
12463
12462.963
12462.918
12462.86
12462.788
12462.697
12462.582
12462.437
12462.253
12462.022
12461.73
12461.361
12460.898
12460.315
12459.586
12458.675
12457.542
12456.137
12454.402
12452.267
12449.649
12446.452
12442.566
12437.863
12432.2
12425.416
12417.329
12407.736
12396.409
12383.1
12367.535
12349.415
12328.414
12304.178
12276.325
12244.44
12208.079
12166.76
12119.969
12067.149
12007.696
11940.956
11866.228
11782.749
11689.716
11586.299
11471.912
11343.11
12476.109
12476.108
12476.108
12476.107
12476.106
12476.105
12476.103
12476.1
12476.096
12476.092
12476.086
12476.079
12476.07
12476.058
12476.044
12476.026
12476.004
12475.976
12475.941
12475.896
12475.841
12475.771
12475.682
12475.571
12475.429
12475.251
12475.025
12474.74
12474.38
12473.927
12473.357
12472.643
12471.752
12470.643
12469.268
12467.571
12465.482
12462.922
12459.798
12456.001
12451.41
12445.884
12439.266
12431.38
12422.027
12410.987
12398.017
12382.849
12365.191
12344.723
12321.1
12293.945
12262.856
12227.395
12187.096
12141.458
12089.93
12031.924
11966.793
11893.856
11812.365
11721.539
11620.579
11508.973
11382.996
12489.988
12489.987
12489.987
12489.986
12489.985
12489.984
12489.982
12489.98
12489.976
12489.972
12489.967
12489.96
12489.951
12489.941
12489.927
12489.91
12489.889
12489.862
12489.829
12489.786
12489.733
12489.666
12489.581
12489.474
12489.338
12489.165
12488.947
12488.671
12488.322
12487.881
12487.327
12486.633
12485.764
12484.683
12483.341
12481.684
12479.646
12477.148
12474.1
12470.4
12465.928
12460.549
12454.111
12446.441
12437.347
12426.615
12414.008
12399.266
12382.104
12362.208
12339.24
12312.834
12282.596
12248.103
12208.904
12164.501
12114.36
12057.901
11994.494
11923.472
11844.109
11755.643
11657.31
11548.674
11425.708
12504.792
12504.792
12504.792
12504.791
12504.79
12504.789
12504.787
12504.785
12504.782
12504.778
12504.773
12504.767
12504.759
12504.749
12504.737
12504.721
12504.701
12504.676
12504.645
12504.605
12504.555
12504.491
12504.411
12504.309
12504.179
12504.014
12503.805
12503.54
12503.204
12502.78
12502.245
12501.573
12500.731
12499.682
12498.379
12496.767
12494.783
12492.352
12489.388
12485.791
12481.448
12476.227
12469.981
12462.543
12453.726
12443.325
12431.107
12416.822
12400.188
12380.901
12358.631
12333.023
12303.697
12270.244
12232.22
12189.139
12140.481
12085.674
12024.107
11955.13
11878.037
11792.086
11696.551
11591.08
11471.309
12520.547
12520.547
12520.547
12520.546
12520.546
12520.544
12520.543
12520.541
12520.538
12520.534
12520.53
12520.524
12520.517
12520.508
12520.496
12520.482
12520.464
12520.441
12520.412
12520.375
12520.328
12520.268
12520.193
12520.097
12519.974
12519.818
12519.619
12519.366
12519.045
12518.639
12518.126
12517.48
12516.67
12515.658
12514.398
12512.838
12510.916
12508.56
12505.687
12502.203
12497.997
12492.946
12486.905
12479.715
12471.196
12461.148
12449.347
12435.545
12419.47
12400.829
12379.301
12354.546
12326.198
12293.855
12257.083
12215.416
12168.334
12115.289
12055.68
11988.881
11914.202
11830.925
11738.362
11636.253
11519.861
12537.279
12537.279
12537.279
12537.279
12537.278
12537.277
12537.276
12537.274
12537.271
12537.268
12537.264
12537.259
12537.252
12537.244
12537.233
12537.22
12537.203
12537.182
12537.155
12537.121
12537.077
12537.022
12536.951
12536.86
12536.745
12536.597
12536.409
12536.169
12535.864
12535.477
12534.988
12534.371
12533.595
12532.624
12531.414
12529.912
12528.06
12525.789
12523.018
12519.656
12515.6
12510.73
12504.909
12497.985
12489.784
12480.111
12468.749
12455.456
12439.974
12422.016
12401.281
12377.438
12350.131
12318.969
12283.534
12243.364
12197.961
12146.787
12089.262
12024.775
11952.659
11872.215
11782.798
11684.252
11571.42
12555.018
12555.018
12555.018
12555.018
12555.017
12555.016
12555.015
12555.013
12555.011
12555.008
12555.004
12554.999
12554.993
12554.985
12554.975
12554.963
12554.947
12554.927
12554.902
12554.869
12554.828
12554.776
12554.708
12554.623
12554.513
12554.373
12554.194
12553.966
12553.677
12553.309
12552.844
12552.257
12551.519
12550.593
12549.437
12548.001
12546.228
12544.05
12541.392
12538.165
12534.272
12529.597
12524.013
12517.373
12509.507
12500.228
12489.327
12476.575
12461.72
12444.493
12424.602
12401.726
12375.524
12345.618
12311.599
12273.021
12229.399
12180.212
12124.896
12062.859
11993.456
11916.008
11829.912
11735.135
11626.042
12573.785
12573.785
12573.785
12573.785
12573.784
12573.783
12573.782
12573.781
12573.778
12573.776
12573.772
12573.767
12573.761
12573.754
12573.744
12573.732
12573.716
12573.697
12573.672
12573.641
12573.601
12573.55
12573.486
12573.403
12573.298
12573.164
12572.993
12572.777
12572.502
12572.153
12571.712
12571.155
12570.455
12569.577
12568.479
12567.115
12565.427
12563.352
12560.817
12557.739
12554.022
12549.559
12544.227
12537.885
12530.372
12521.511
12511.1
12498.919
12484.731
12468.282
12449.284
12427.434
12402.403
12373.827
12341.31
12304.419
12262.684
12215.602
12162.625
12103.18
12036.643
11962.355
11879.756
11788.955
11683.782
12593.591
12593.591
12593.591
12593.591
12593.59
12593.589
12593.588
12593.586
12593.584
12593.581
12593.577
12593.573
12593.567
12593.559
12593.549
12593.537
12593.521
12593.502
12593.477
12593.446
12593.406
12593.356
12593.293
12593.212
12593.111
12592.982
12592.818
12592.611
12592.35
12592.019
12591.602
12591.077
12590.417
12589.588
12588.553
12587.265
12585.669
12583.706
12581.303
12578.383
12574.854
12570.615
12565.55
12559.525
12552.388
12543.969
12534.077
12522.503
12509.026
12493.395
12475.343
12454.581
12430.789
12403.621
12372.692
12337.586
12297.849
12252.994
12202.49
12145.782
12082.267
12011.306
11932.381
11845.764
11744.7
12614.433
12614.433
12614.433
12614.433
12614.432
12614.431
12614.43
12614.428
12614.426
12614.423
12614.419
12614.414
12614.408
12614.4
12614.39
12614.377
12614.361
12614.341
12614.317
12614.285
12614.246
12614.196
12614.134
12614.055
12613.956
12613.831
12613.675
12613.478
12613.23
12612.918
12612.526
12612.033
12611.414
12610.638
12609.667
12608.458
12606.96
12605.113
12602.851
12600.098
12596.769
12592.768
12587.987
12582.298
12575.56
12567.609
12558.267
12547.339
12534.61
12519.846
12502.796
12483.182
12460.699
12435.017
12405.767
12372.549
12334.924
12292.422
12244.529
12190.708
12130.374
12062.908
11987.836
11905.613
11808.861
12636.299
12636.299
12636.299
12636.298
12636.298
12636.297
12636.295
12636.293
12636.291
12636.288
12636.284
12636.279
12636.272
12636.264
12636.254
12636.242
12636.226
12636.206
12636.181
12636.15
12636.111
12636.062
12636.001
12635.925
12635.83
12635.711
12635.562
12635.377
12635.144
12634.852
12634.487
12634.028
12633.451
12632.729
12631.826
12630.699
12629.301
12627.576
12625.46
12622.884
12619.766
12616.018
12611.537
12606.205
12599.889
12592.434
12583.674
12573.427
12561.49
12547.644
12531.65
12513.247
12492.147
12468.033
12440.556
12409.331
12373.936
12333.918
12288.779
12238
12181.013
12117.214
12046.179
11968.568
11876.332
12659.173
12659.173
12659.173
12659.172
12659.172
12659.171
12659.169
12659.167
12659.165
12659.162
12659.158
12659.153
12659.147
12659.139
12659.129
12659.117
12659.101
12659.082
12659.058
12659.028
12658.991
12658.945
12658.887
12658.816
12658.726
12658.616
12658.477
12658.305
12658.09
12657.821
12657.484
12657.06
12656.529
12655.862
12655.027
12653.985
12652.69
12651.092
12649.13
12646.738
12643.844
12640.363
12636.199
12631.245
12625.373
12618.441
12610.297
12600.769
12589.668
12576.789
12561.91
12544.784
12525.141
12502.681
12477.072
12447.949
12414.907
12377.51
12335.275
12287.699
12234.231
12174.277
12107.472
12034.715
11947.183
12683.045
12683.045
12683.045
12683.044
12683.044
12683.043
12683.041
12683.04
12683.038
12683.035
12683.031
12683.027
12683.021
12683.014
12683.005
12682.993
12682.979
12682.962
12682.94
12682.913
12682.879
12682.837
12682.785
12682.72
12682.639
12682.539
12682.414
12682.258
12682.063
12681.819
12681.512
12681.127
12680.641
12680.032
12679.267
12678.312
12677.125
12675.657
12673.855
12671.658
12668.998
12665.798
12661.969
12657.411
12652.005
12645.627
12638.131
12629.36
12619.139
12607.28
12593.574
12577.793
12559.684
12538.965
12515.324
12488.417
12457.856
12423.222
12384.049
12339.848
12290.08
12234.158
12171.765
12104.059
12021.607
12707.912
12707.912
12707.912
12707.912
12707.911
12707.911
12707.91
12707.908
12707.906
12707.904
12707.901
12707.897
12707.892
12707.886
12707.878
12707.868
12707.856
12707.841
12707.822
12707.799
12707.77
12707.734
12707.688
12707.632
12707.562
12707.474
12707.364
12707.227
12707.054
12706.837
12706.562
12706.216
12705.779
12705.228
12704.536
12703.671
12702.595
12701.264
12699.629
12697.636
12695.221
12692.316
12688.838
12684.694
12679.781
12673.982
12667.167
12659.192
12649.897
12639.109
12626.637
12612.27
12595.773
12576.886
12555.317
12530.742
12502.795
12471.075
12435.132
12394.49
12348.622
12296.926
12239.088
12176.776
12099.664
12733.779
12733.779
12733.779
12733.778
12733.778
12733.777
12733.776
12733.775
12733.774
12733.772
12733.769
12733.766
12733.762
12733.757
12733.751
12733.743
12733.733
12733.72
12733.705
12733.686
12733.662
12733.631
12733.594
12733.546
12733.487
12733.412
12733.318
12733.2
12733.049
12732.859
12732.617
12732.311
12731.923
12731.434
12730.817
12730.046
12729.086
12727.898
12726.439
12724.658
12722.501
12719.904
12716.791
12713.082
12708.683
12703.492
12697.39
12690.25
12681.926
12672.262
12661.085
12648.202
12633.399
12616.437
12597.046
12574.926
12549.734
12521.087
12488.552
12451.669
12409.915
12362.618
12309.548
12252.956
12181.428
12760.642
12760.642
12760.642
12760.642
12760.642
12760.641
12760.64
12760.639
12760.638
12760.636
12760.634
12760.632
12760.628
12760.624
12760.619
12760.613
12760.604
12760.594
12760.582
12760.566
12760.546
12760.521
12760.489
12760.45
12760.4
12760.337
12760.257
12760.156
12760.028
12759.864
12759.655
12759.39
12759.053
12758.627
12758.09
12757.417
12756.578
12755.54
12754.264
12752.706
12750.818
12748.54
12745.809
12742.554
12738.694
12734.137
12728.782
12722.515
12715.207
12706.72
12696.898
12685.57
12672.544
12657.603
12640.501
12620.963
12598.671
12573.267
12544.336
12511.428
12474
12431.39
12383.233
12332.675
12267.16
12788.49
12788.49
12788.49
12788.49
12788.49
12788.489
12788.488
12788.488
12788.486
12788.485
12788.483
12788.48
12788.477
12788.474
12788.469
12788.463
12788.456
12788.447
12788.435
12788.421
12788.404
12788.382
12788.355
12788.321
12788.279
12788.225
12788.158
12788.072
12787.964
12787.826
12787.65
12787.426
12787.142
12786.782
12786.328
12785.757
12785.045
12784.163
12783.078
12781.753
12780.143
12778.198
12775.866
12773.084
12769.785
12765.891
12761.315
12755.958
12749.711
12742.452
12734.047
12724.346
12713.18
12700.359
12685.661
12668.837
12649.6
12627.618
12602.499
12573.789
12540.992
12503.335
12460.314
12416.077
12357.122
12817.29
12817.29
12817.289
12817.289
12817.289
12817.288
12817.287
12817.286
12817.285
12817.284
12817.281
12817.279
12817.276
12817.272
12817.267
12817.261
12817.254
12817.245
12817.234
12817.22
12817.204
12817.184
12817.159
12817.129
12817.091
12817.045
12816.988
12816.917
12816.828
12816.715
12816.573
12816.391
12816.161
12815.868
12815.498
12815.033
12814.453
12813.733
12812.847
12811.761
12810.439
12808.842
12806.924
12804.635
12801.92
12798.716
12794.95
12790.542
12785.399
12779.422
12772.495
12764.494
12755.274
12744.671
12732.493
12718.521
12702.498
12684.123
12663.036
12638.817
12610.948
12578.618
12541.113
12503.457
12451.522
12846.99
12846.99
12846.99
12846.989
12846.989
12846.988
12846.987
12846.986
12846.984
12846.983
12846.98
12846.977
12846.974
12846.969
12846.964
12846.958
12846.95
12846.941
12846.929
12846.916
12846.899
12846.88
12846.857
12846.829
12846.796
12846.757
12846.71
12846.652
12846.581
12846.493
12846.383
12846.243
12846.065
12845.84
12845.556
12845.199
12844.753
12844.2
12843.517
12842.678
12841.656
12840.419
12838.932
12837.157
12835.051
12832.564
12829.641
12826.218
12822.224
12817.579
12812.193
12805.965
12798.776
12790.489
12780.948
12769.963
12757.317
12742.754
12725.952
12706.517
12683.962
12657.443
12626.097
12595.283
12550.347
12877.522
12877.522
12877.522
12877.522
12877.521
12877.52
12877.519
12877.518
12877.516
12877.514
12877.512
12877.509
12877.505
12877.5
12877.495
12877.488
12877.481
12877.471
12877.46
12877.447
12877.431
12877.413
12877.392
12877.368
12877.34
12877.308
12877.271
12877.226
12877.174
12877.109
12877.029
12876.93
12876.805
12876.648
12876.451
12876.203
12875.896
12875.512
12875.037
12874.453
12873.741
12872.877
12871.837
12870.596
12869.122
12867.38
12865.332
12862.931
12860.129
12856.867
12853.082
12848.695
12843.619
12837.749
12830.961
12823.108
12814.012
12803.463
12791.206
12776.909
12760.127
12740.037
12715.767
12691.666
12654.25
12908.815
12908.815
12908.815
12908.814
12908.814
12908.813
12908.812
12908.81
12908.809
12908.807
12908.805
12908.802
12908.798
12908.794
12908.789
12908.783
12908.777
12908.768
12908.759
12908.748
12908.735
12908.72
12908.703
12908.684
12908.663
12908.639
12908.611
12908.58
12908.543
12908.501
12908.451
12908.392
12908.32
12908.232
12908.122
12907.986
12907.817
12907.606
12907.345
12907.024
12906.631
12906.153
12905.578
12904.89
12904.071
12903.1
12901.956
12900.615
12899.047
12897.221
12895.096
12892.624
12889.746
12886.391
12882.475
12877.892
12872.519
12866.2
12858.744
12849.921
12839.384
12826.487
12810.491
12794.122
12765.979
12942.218
12942.218
12942.217
12942.217
12942.216
12942.215
12942.214
12942.213
12942.212
12942.21
12942.208
12942.206
12942.203
12942.2
12942.196
12942.191
12942.186
12942.18
12942.172
12942.164
12942.154
12942.144
12942.131
12942.118
12942.103
12942.087
12942.07
12942.051
12942.032
12942.012
12941.992
12941.973
12941.956
12941.941
12941.926
12941.909
12941.891
12941.869
12941.842
12941.806
12941.762
12941.707
12941.64
12941.555
12941.448
12941.317
12941.157
12940.966
12940.739
12940.468
12940.143
12939.748
12939.256
12938.635
12937.844
12936.829
12935.521
12933.834
12931.657
12928.866
12925.274
12920.524
12914.619
12909.242
12898.99
12977.363
12977.363
12977.362
12977.361
12977.361
12977.36
12977.359
12977.358
12977.357
12977.356
12977.355
12977.353
12977.351
12977.349
12977.346
12977.343
12977.339
12977.335
12977.331
12977.325
12977.32
12977.313
12977.306
12977.299
12977.291
12977.284
12977.278
12977.275
12977.275
12977.281
12977.296
12977.323
12977.366
12977.429
12977.514
12977.627
12977.772
12977.954
12978.175
12978.444
12978.772
12979.167
12979.638
12980.195
12980.848
12981.611
12982.503
12983.54
12984.742
12986.131
12987.726
12989.545
12991.6
12993.902
12996.455
12999.261
13002.315
13005.608
13009.118
13012.842
13016.769
13020.86
13025.494
13031.479
13036.014
13012.451
13012.451
13012.45
13012.45
13012.449
13012.449
13012.448
13012.447
13012.447
13012.446
13012.445
13012.445
13012.444
13012.443
13012.442
13012.442
13012.441
13012.44
13012.439
13012.439
13012.438
13012.438
13012.438
13012.439
13012.441
13012.445
13012.452
13012.465
13012.486
13012.518
13012.569
13012.642
13012.745
13012.885
13013.069
13013.305
13013.605
13013.979
13014.443
13015.014
13015.71
13016.552
13017.559
13018.756
13020.169
13021.83
13023.776
13026.046
13028.686
13031.743
13035.268
13039.314
13043.934
13049.18
13055.108
13061.775
13069.239
13077.57
13086.842
13097.163
13108.657
13121.516
13136.182
13153.144
13172.097
13047.328
13047.328
13047.327
13047.327
13047.327
13047.326
13047.326
13047.326
13047.326
13047.326
13047.326
13047.326
13047.327
13047.328
13047.329
13047.331
13047.333
13047.336
13047.34
13047.344
13047.35
13047.356
13047.364
13047.373
13047.386
13047.401
13047.423
13047.453
13047.495
13047.556
13047.642
13047.76
13047.923
13048.139
13048.419
13048.777
13049.23
13049.797
13050.501
13051.368
13052.427
13053.71
13055.249
13057.081
13059.251
13061.806
13064.802
13068.304
13072.379
13077.103
13082.557
13088.829
13096.013
13104.208
13113.515
13124.05
13135.934
13149.314
13164.352
13181.26
13200.28
13221.758
13246.216
13274.277
13306.817
13081.842
13081.842
13081.842
13081.841
13081.841
13081.841
13081.841
13081.841
13081.842
13081.843
13081.844
13081.845
13081.847
13081.85
13081.854
13081.858
13081.863
13081.87
13081.877
13081.887
13081.898
13081.911
13081.926
13081.945
13081.967
13081.995
13082.032
13082.08
13082.145
13082.234
13082.357
13082.524
13082.748
13083.041
13083.419
13083.901
13084.508
13085.266
13086.208
13087.369
13088.787
13090.505
13092.568
13095.03
13097.948
13101.39
13105.431
13110.156
13115.657
13122.039
13129.412
13137.9
13147.636
13158.763
13171.434
13185.817
13202.099
13220.499
13241.264
13264.703
13291.171
13321.149
13355.274
13394.368
13439.639
13115.867
13115.866
13115.866
13115.866
13115.866
13115.866
13115.866
13115.867
13115.868
13115.87
13115.872
13115.874
13115.877
13115.882
13115.887
13115.893
13115.901
13115.911
13115.922
13115.936
13115.951
13115.97
13115.993
13116.019
13116.051
13116.091
13116.141
13116.207
13116.295
13116.415
13116.576
13116.793
13117.079
13117.452
13117.929
13118.535
13119.296
13120.247
13121.426