/*--------------------------------*- C++ -*----------------------------------*\
  =========                 |
  \\      /  F ield         | OpenFOAM: The Open Source CFD Toolbox
   \\    /   O peration     | Website:  https://openfoam.org
    \\  /    A nd           | Version:  13
     \\/     M anipulation  |
\*---------------------------------------------------------------------------*/
FoamFile
{
    format      ascii;
    class       volScalarField;
    location    "17.398119";
    object      nut;
}
// * * * * * * * * * * * * * * * * * * * * * * * * * * * * * * * * * * * * * //

dimensions      [0 2 -1 0 0 0 0];

internalField   nonuniform List<scalar> 
17140
(
2.8112311e-17
5.4674734e-15
1.4562822e-13
1.4763808e-12
8.928876e-12
3.9561086e-11
1.4286246e-10
4.4708711e-10
1.2597238e-09
3.2774046e-09
8.0121844e-09
1.8638028e-08
4.1641451e-08
8.9992098e-08
1.8915568e-07
3.8837238e-07
7.8160714e-07
1.546125e-06
3.0129384e-06
5.7944256e-06
1.1013511e-05
2.0710731e-05
3.8555029e-05
7.104623e-05
0.0001294189
0.00023222535
0.0004075206
0.00069097103
0.0011135536
0.001677519
0.0021334462
0.002315163
0.0024841129
0.0026327064
0.0027663372
0.0029024308
0.0030504652
0.0032212639
0.0034281064
0.0036833219
0.003994367
0.0043707521
0.0048155758
0.0053255247
0.0058864144
0.0064578775
0.006814503
0.0068118031
0.0067722103
0.0066850316
0.0065418581
0.0063355033
0.0060417977
0.0056637663
0.0052390577
0.0047896984
0.0043474412
0.0039662124
0.0036645585
0.0034541331
0.0032948099
0.0031236003
0.0028175894
0.0025094333
0.0020924392
2.7770847e-17
5.4010589e-15
1.4385938e-13
1.4584516e-12
8.8204718e-12
3.9080895e-11
1.4112876e-10
4.416623e-10
1.2444395e-09
3.2376366e-09
7.9149378e-09
1.8411687e-08
4.1135281e-08
8.8896614e-08
1.8684813e-07
3.8362021e-07
7.7200382e-07
1.5270246e-06
2.9754571e-06
5.7217179e-06
1.0873892e-05
2.0445136e-05
3.8054703e-05
7.0114914e-05
0.00012771537
0.00022919844
0.00040240691
0.00068304514
0.0011028774
0.0016660551
0.0021742343
0.0023603093
0.0025348815
0.0026939503
0.0028384005
0.0029855311
0.003148818
0.0033391837
0.0035690515
0.0038509577
0.004192938
0.0045997882
0.0050700563
0.0055960394
0.0061619452
0.0067393227
0.0072011982
0.0072867562
0.0073554362
0.0073919573
0.007382891
0.0073365417
0.007181534
0.0069361272
0.0066032565
0.0061771878
0.005701427
0.0052053186
0.0047355692
0.0043582483
0.0040560305
0.0037740767
0.0034217558
0.0031004136
0.0026454949
2.7084776e-17
5.2676264e-15
1.4030532e-13
1.42242e-12
8.6025508e-12
3.8115292e-11
1.376414e-10
4.3074682e-10
1.2136761e-09
3.1575698e-09
7.7190941e-09
1.7955757e-08
4.0115509e-08
8.6689385e-08
1.82199e-07
3.7404781e-07
7.5266783e-07
1.4885928e-06
2.9001146e-06
5.5757534e-06
1.0594039e-05
1.9913716e-05
3.7055371e-05
6.8257241e-05
0.0001243182
0.00022314946
0.00039211943
0.00066685534
0.0010803606
0.0016401148
0.0022414622
0.0024315727
0.0026120021
0.0027865448
0.0029478875
0.0031140517
0.0032987857
0.003515451
0.0037777253
0.0040965176
0.0044771953
0.0049183201
0.0054118395
0.005946293
0.0065063435
0.0070704214
0.0076016513
0.0079027023
0.0081084784
0.0083128143
0.0085108036
0.0086923321
0.0087898921
0.0087827693
0.0086880103
0.008450418
0.0081105756
0.0076488884
0.0070971985
0.0065100788
0.0059361806
0.0053191318
0.0045407926
0.0037123573
0.0029800022
2.6058534e-17
5.0680355e-15
1.3498911e-13
1.3685234e-12
8.2765872e-12
3.6670984e-11
1.3242533e-10
4.1442112e-10
1.1676675e-09
3.0378348e-09
7.4262525e-09
1.727411e-08
3.8591167e-08
8.3390878e-08
1.752536e-07
3.5975368e-07
7.2381015e-07
1.4312759e-06
2.7878457e-06
5.35847e-06
1.0177926e-05
1.9124515e-05
3.5572997e-05
6.5503902e-05
0.000119283
0.00021416765
0.00037676396
0.00064241023
0.001045565
0.0015980183
0.0022669933
0.0025331973
0.0027238315
0.0029163797
0.003101072
0.0032926382
0.0035065935
0.0037585087
0.0040621087
0.0044255598
0.0048489549
0.0053230892
0.0058335403
0.0063681955
0.0069143718
0.0074528697
0.0079588218
0.0084038769
0.008766015
0.0091077501
0.0095022463
0.010013107
0.010466153
0.010782479
0.010930458
0.010923538
0.010807499
0.010509956
0.0099948845
0.0092595086
0.0083183346
0.0070601936
0.0053551689
0.0038809222
0.0029081163
2.4711569e-17
4.8060686e-15
1.2801151e-13
1.2977839e-12
7.8487601e-12
3.4775345e-11
1.2557937e-10
3.9299448e-10
1.1072853e-09
2.8806995e-09
7.0419629e-09
1.6379677e-08
3.6591221e-08
7.9063938e-08
1.6614476e-07
3.4101262e-07
6.8598933e-07
1.356193e-06
2.6408645e-06
5.0742026e-06
9.633956e-06
1.8093631e-05
3.3637965e-05
6.1910789e-05
0.00011270772
0.00020240802
0.00035653165
0.00060978048
0.00099797465
0.0015377982
0.0022038085
0.002681402
0.0028857641
0.0030920244
0.0033047381
0.0035294363
0.0037826481
0.0040801351
0.0044335645
0.0048462084
0.0053113494
0.0058119369
0.0063296864
0.0068561735
0.0073843185
0.0078992707
0.0083804935
0.0088142235
0.009200032
0.0095948102
0.010066033
0.010671082
0.011466761
0.012508194
0.013043093
0.013266944
0.01331718
0.013213664
0.012793304
0.012022989
0.010768384
0.0087089613
0.0058596714
0.0037372392
0.0025244358
2.3078909e-17
4.4885382e-15
1.1955397e-13
1.2120406e-12
7.3301937e-12
3.247768e-11
1.1728169e-10
3.6702492e-10
1.0341036e-09
2.6902668e-09
6.5762787e-09
1.529592e-08
3.4168324e-08
7.3823033e-08
1.5511499e-07
3.183277e-07
6.4023134e-07
1.2654075e-06
2.4632763e-06
4.7310461e-06
8.9779745e-06
1.6851886e-05
3.1309779e-05
5.7591574e-05
0.0001048054
0.00018825581
0.00033207565
0.00056996652
0.00093896056
0.0014613967
0.0021217182
0.0028600793
0.0031153897
0.0033311495
0.0035732286
0.0038377055
0.0041405284
0.004494866
0.0049055181
0.005367074
0.0058658998
0.0063860926
0.0069089329
0.0074282456
0.0079387729
0.0084284049
0.0088884245
0.0093097659
0.0097059437
0.010140021
0.010667325
0.011334479
0.012200354
0.01330985
0.014702419
0.015270069
0.015461166
0.015498799
0.015176233
0.01438821
0.012861453
0.0097467778
0.0060528139
0.0033512534
0.0020877047
2.1205914e-17
4.1242665e-15
1.0985148e-13
1.113676e-12
6.7352964e-12
2.9841829e-11
1.0776284e-10
3.3723413e-10
9.5015679e-10
2.471832e-09
6.0421581e-09
1.4053027e-08
3.1390072e-08
6.7814713e-08
1.4247368e-07
2.9233796e-07
5.8783233e-07
1.1615096e-06
2.2601919e-06
4.3389796e-06
8.2292848e-06
1.5436277e-05
2.8658612e-05
5.2677339e-05
9.5814624e-05
0.0001721244
0.00030404406
0.00052377766
0.0008689416
0.0013671221
0.0020126996
0.0027550855
0.0034197875
0.0036855515
0.0039524167
0.0042526442
0.0046045539
0.0050206717
0.0054933515
0.0060054887
0.0065348975
0.0070659572
0.0075933911
0.0081094933
0.008602876
0.0090613402
0.0094831273
0.0098800731
0.010273233
0.010729536
0.011293143
0.011994712
0.012883333
0.0140048
0.015416747
0.016817953
0.017107608
0.017203174
0.016885664
0.015988077
0.014041008
0.01012508
0.005368575
0.0026653804
0.0015365098
1.9144852e-17
3.7234179e-15
9.9174737e-14
1.0054345e-12
6.0806668e-12
2.6941333e-11
9.7288374e-11
3.0445314e-10
8.5778647e-10
2.2314893e-09
5.4545063e-09
1.2685702e-08
2.8334106e-08
6.1207106e-08
1.2857527e-07
2.6377411e-07
5.3027112e-07
1.0474457e-06
2.0374067e-06
3.9092762e-06
7.4096038e-06
1.3888265e-05
2.5762863e-05
4.7314546e-05
8.6004027e-05
0.00015449105
0.00027323706
0.00047242082
0.00078943414
0.0012564453
0.0018783426
0.0026166182
0.0033989107
0.0041462248
0.0044834672
0.0048345747
0.0052397767
0.0057035752
0.0062206485
0.0067696099
0.007312648
0.0076850482
0.0080997284
0.008559672
0.0090688312
0.0096349016
0.010116947
0.010461517
0.010833406
0.011288652
0.011866378
0.012579167
0.013466225
0.014582479
0.015945042
0.017681499
0.01817515
0.018220685
0.01776544
0.016638571
0.014305068
0.0091549338
0.0040672926
0.0019165686
0.0011705513
1.6952162e-17
3.2969682e-15
8.7816064e-14
8.9027967e-13
5.3842274e-12
2.3855595e-11
8.6145006e-11
2.6957911e-10
7.5952038e-10
1.975815e-09
4.8294033e-09
1.1231363e-08
2.5084077e-08
5.4181189e-08
1.1380079e-07
2.3342038e-07
4.6913128e-07
9.2636276e-07
1.8010894e-06
3.4538871e-06
6.541848e-06
1.2251373e-05
2.2704383e-05
4.1655368e-05
7.5651967e-05
0.00013585163
0.00024049631
0.00041719662
0.00070209602
0.0011306596
0.0017177994
0.0024381847
0.0032270024
0.0040054877
0.0047118529
0.0053163645
0.0058210892
0.0062487532
0.0066329526
0.0070022136
0.0073756711
0.0077754733
0.0082228795
0.0087163452
0.0092617058
0.009868413
0.0105384
0.010963061
0.011300469
0.011735197
0.012303542
0.013004061
0.013868741
0.014947059
0.016263243
0.018001032
0.018599271
0.01849355
0.017802791
0.016342919
0.013210921
0.0069334908
0.0026214172
0.0013963453
0.00090040777
1.4688965e-17
2.8568066e-15
7.6092173e-14
7.7142222e-13
4.6653953e-12
2.0670644e-11
7.4643404e-11
2.3358429e-10
6.5809804e-10
1.7119371e-09
4.1842767e-09
9.7305602e-09
2.1730631e-08
4.6933004e-08
9.856276e-08
2.0212516e-07
4.0612434e-07
8.0165759e-07
1.5578887e-06
2.9856726e-06
5.6506359e-06
1.0572293e-05
1.9570953e-05
3.5863306e-05
6.5059565e-05
0.00011675168
0.00020678244
0.00035970614
0.00060932091
0.00099268927
0.0015335928
0.002221171
0.0030022903
0.0037995696
0.0045426641
0.0051906722
0.005736985
0.006202824
0.0066170893
0.0070055137
0.0073924593
0.0078069768
0.0082732065
0.0087893024
0.0093611027
0.0099942338
0.010688764
0.011308629
0.011600025
0.012003236
0.012540838
0.0132022
0.01401858
0.015020551
0.016306042
0.018066169
0.018330193
0.017989618
0.016922902
0.014924129
0.010497761
0.0041331947
0.0017048479
0.0010024432
0.00071873074
1.2424001e-17
2.4163009e-15
6.435908e-14
6.5247098e-13
3.9459956e-12
1.748319e-11
6.3132865e-11
1.9756199e-10
5.5660053e-10
1.4478732e-09
3.5387334e-09
8.2289225e-09
1.8375764e-08
3.9683138e-08
8.3325325e-08
1.7084283e-07
3.4317489e-07
6.7714813e-07
1.3152739e-06
2.5190732e-06
4.7636073e-06
8.9034751e-06
1.646136e-05
3.0123155e-05
5.4570196e-05
9.782415e-05
0.00017324692
0.0003019851
0.00051448171
0.00084744465
0.0013314929
0.001970533
0.0027270974
0.0035305215
0.0043051987
0.0049983076
0.0055917069
0.0060957725
0.0065405553
0.0069528755
0.0073616665
0.0077962558
0.0082726626
0.0087944756
0.0093719445
0.010010148
0.010708736
0.011460852
0.011708149
0.012072112
0.012561699
0.013160074
0.013890638
0.014773499
0.016070355
0.017486266
0.017382224
0.016664365
0.015152279
0.01229774
0.0063858563
0.0021812841
0.0011374214
0.00074262297
0.00059713298
1.0231786e-17
1.9899439e-15
5.3002843e-14
5.3734058e-13
3.2497051e-12
1.4398138e-11
5.1992214e-11
1.6269779e-10
4.5836866e-10
1.1923161e-09
2.9140263e-09
6.7758946e-09
1.5129962e-08
3.2670405e-08
6.859055e-08
1.4060455e-07
2.8235926e-07
5.5694526e-07
1.0812673e-06
2.0695541e-06
3.9102659e-06
7.3007138e-06
1.3480358e-05
2.4630459e-05
4.4547325e-05
7.9742614e-05
0.00014113364
0.00024630445
0.0004215706
0.00070132188
0.0011201395
0.0016953078
0.002407909
0.0032001337
0.0039961202
0.0047318668
0.0053744732
0.0059234506
0.0064033949
0.0068409608
0.0072673592
0.0077130354
0.0081973774
0.0087248465
0.0093038283
0.0099383117
0.010625773
0.01135494
0.011622596
0.011914407
0.01231441
0.012803676
0.013401858
0.014226625
0.015580249
0.016177021
0.015745424
0.014567407
0.012380071
0.008187732
0.0028653807
0.0011798691
0.00075425439
0.00056259878
0.00052821349
8.1854878e-18
1.5919663e-15
4.2402527e-14
4.2987411e-13
2.599767e-12
1.1518474e-11
4.1593357e-11
1.3015557e-10
3.6668164e-10
9.5379643e-10
2.3310063e-09
5.4199636e-09
1.2101499e-08
2.612861e-08
5.4849324e-08
1.1241666e-07
2.2569876e-07
4.4503783e-07
8.6362095e-07
1.6519801e-06
3.1187885e-06
5.8168974e-06
1.0726417e-05
1.9567466e-05
3.5327159e-05
6.3127713e-05
0.00011159406
0.0001948113
0.00033454559
0.0005611999
0.00090997283
0.0014082042
0.0020561046
0.0028146189
0.0036149227
0.004385643
0.0050785489
0.0056786596
0.0061957227
0.0066642618
0.0071096255
0.0075624999
0.0080441472
0.008563543
0.0091275413
0.0097392429
0.010394149
0.011077646
0.011295263
0.011489217
0.011772833
0.012132233
0.012633003
0.013524875
0.014621665
0.014342996
0.013440788
0.01170883
0.0085979795
0.003508121
0.0012464399
0.00070999401
0.00054568126
0.0004906281
0.00051881625
6.3479841e-18
1.2345962e-15
3.2883819e-14
3.3337329e-13
2.0161489e-12
8.9326687e-12
3.225576e-11
1.0093497e-10
2.8435553e-10
7.3963792e-10
1.8075667e-09
4.2027145e-09
9.3831555e-09
2.0257858e-08
4.2521051e-08
8.7136937e-08
1.7491075e-07
3.4480028e-07
6.6885545e-07
1.2787652e-06
2.4124961e-06
4.4953267e-06
8.2791548e-06
1.5079518e-05
2.7174256e-05
4.8462965e-05
8.5524646e-05
0.00014920786
0.0002566981
0.0004333061
0.0007116731
0.0011244675
0.0016883237
0.0023866277
0.0031662202
0.0039557623
0.0046936805
0.0053470903
0.0059137791
0.0064114014
0.006879927
0.0073396548
0.0078140048
0.0083179581
0.008855066
0.009429386
0.010034255
0.010652243
0.010741918
0.01081974
0.01097013
0.011219624
0.011759317
0.01272726
0.012726514
0.011991523
0.010528099
0.0079756771
0.0037136196
0.0013118972
0.0006204252
0.00047474878
0.00043342399
0.00045151794
0.00053736941
4.7638759e-18
9.2650828e-16
2.4677778e-14
2.5018057e-13
1.5130178e-12
6.7034866e-12
2.4206053e-11
7.574506e-11
2.1338739e-10
5.5503274e-10
1.3563868e-09
3.153593e-09
7.0405558e-09
1.5199463e-08
3.190125e-08
6.536785e-08
1.3119612e-07
2.5857804e-07
5.0146639e-07
9.5837656e-07
1.8070775e-06
3.3646377e-06
6.1901643e-06
1.1258715e-05
2.0252645e-05
3.6043686e-05
6.3474395e-05
0.0001105733
0.00019028096
0.0003224263
0.00053472903
0.00085995459
0.0013256246
0.0019368902
0.0026635571
0.0034449091
0.0042128567
0.0049172173
0.0055381606
0.0060782649
0.0065653072
0.0070356803
0.0075018764
0.007984742
0.0084861104
0.0090099646
0.0095480834
0.010034855
0.0099746588
0.0099376936
0.0099805445
0.010244469
0.01090885
0.011106883
0.01040688
0.009132652
0.0069697729
0.0034794781
0.0012654932
0.00051386326
0.00039140334
0.00037327567
0.0004111047
0.0004845125
0.00057969033
3.4548104e-18
6.7191295e-16
1.7896554e-14
1.8143291e-13
1.0972491e-12
4.8613861e-12
1.7554188e-11
5.4929739e-11
1.5474522e-10
4.024955e-10
9.8359976e-10
2.286816e-09
5.1053015e-09
1.1021213e-08
2.3130914e-08
4.7394635e-08
9.5117249e-08
1.8745284e-07
3.634837e-07
6.945275e-07
1.3091444e-06
2.436272e-06
4.4786752e-06
8.1365405e-06
1.4613269e-05
2.5954706e-05
4.5600942e-05
7.9261577e-05
0.00013623069
0.00023113632
0.00038564073
0.00062848022
0.00099073847
0.0014937341
0.0021324048
0.0028676439
0.0036365879
0.0043772465
0.0050496479
0.0056424504
0.0061599457
0.0066343643
0.007096913
0.0075527441
0.0080165237
0.0084788058
0.0089342726
0.0091668172
0.009027746
0.008921589
0.008981999
0.0093820277
0.0095982354
0.0088805091
0.0076716555
0.0057956866
0.0028578608
0.0011222743
0.00044479958
0.00030659594
0.00030460439
0.00035013595
0.00042684292
0.00050775183
0.00061033413
2.4195664e-18
4.7057236e-16
1.2533794e-14
1.2706571e-13
7.6845132e-13
3.4046278e-12
1.2293856e-11
3.8469106e-11
1.083723e-10
2.8187589e-10
6.8882789e-10
1.6014705e-09
3.5752397e-09
7.7181054e-09
1.6198478e-08
3.3190525e-08
6.6611861e-08
1.312787e-07
2.545632e-07
4.8640474e-07
9.167819e-07
1.7057722e-06
3.1345205e-06
5.6904616e-06
1.0208145e-05
1.8099637e-05
3.1727991e-05
5.5004154e-05
9.4312621e-05
0.00015985262
0.00026730117
0.00043912799
0.00070371866
0.0010892942
0.0016111762
0.0022567322
0.0029825298
0.0037274708
0.0044363296
0.0050769928
0.0056398814
0.0061325725
0.0065796873
0.0070076495
0.0074234385
0.0078222515
0.0081823276
0.0081579285
0.0079947084
0.0079406077
0.0081476855
0.0081923311
0.0074673981
0.0062727021
0.0045662839
0.0021405542
0.00089403509
0.00037424965
0.0002364216
0.00024338236
0.00029752636
0.00038281607
0.00047046068
0.00055063633
0.00064560846
1.636674e-18
3.1831056e-16
8.4782614e-15
8.5951183e-14
5.1980308e-13
2.3029837e-12
8.3158716e-12
2.6021353e-11
7.3305055e-11
1.9066519e-10
4.6593209e-10
1.083255e-09
2.4183523e-09
5.2207455e-09
1.0957482e-08
2.2453084e-08
4.5066415e-08
8.8828668e-08
1.7227898e-07
3.2925461e-07
6.2073969e-07
1.1552183e-06
2.1230625e-06
3.853689e-06
6.9091445e-06
1.2235945e-05
2.1408961e-05
3.7018857e-05
6.3280862e-05
0.00010695623
0.00017863795
0.00029423107
0.00047584849
0.00075025486
0.0011422449
0.0016621298
0.0022934479
0.0029918206
0.003700216
0.004369603
0.0049730804
0.0054967905
0.0059473195
0.006339574
0.0066927052
0.007007148
0.0072670914
0.0071160015
0.0070169308
0.0071373931
0.0068708119
0.006140302
0.0049997604
0.003401337
0.0015214711
0.0006547272
0.00028935275
0.00018238797
0.00019865888
0.00025407276
0.000338761
0.00041958531
0.00049387581
0.00057142979
0.00068032875
1.070577e-18
2.0821234e-16
5.5457677e-15
5.6221988e-14
3.4001061e-13
1.5064119e-12
5.4395118e-12
1.7020853e-11
4.7949581e-11
1.2471606e-10
3.0477199e-10
7.0857729e-10
1.5819209e-09
3.415181e-09
7.1683485e-09
1.4690197e-08
2.9489686e-08
5.8138673e-08
1.127913e-07
2.1564985e-07
4.0676741e-07
7.5746526e-07
1.3930052e-06
2.5301929e-06
4.5385518e-06
8.0378277e-06
1.4051441e-05
2.424727e-05
4.1319335e-05
6.9572287e-05
0.00011577399
0.00019030442
0.00030837291
0.00049051546
0.00076068652
0.0011398213
0.0016347084
0.0022278899
0.002877196
0.003530529
0.0041434736
0.0046905142
0.0051519293
0.0055309429
0.0058236685
0.0060338793
0.0061637119
0.0061353601
0.0059797495
0.0055962773
0.0049067982
0.0038347109
0.0023653168
0.001009529
0.00045189141
0.00020967655
0.00013791651
0.00016143381
0.00021674426
0.00030020756
0.00038039686
0.00045228624
0.00052038073
0.00061767151
0.00071632075
6.7888924e-19
1.3203449e-16
3.5167561e-15
3.565221e-14
2.1561179e-13
9.5526494e-13
3.4493755e-12
1.079351e-11
3.0406589e-11
7.9087507e-11
1.9327034e-10
4.4935091e-10
1.0032225e-09
2.1659557e-09
4.5466583e-09
9.3187707e-09
1.8710603e-08
3.6898491e-08
7.1613715e-08
1.3699687e-07
2.5859689e-07
4.8198761e-07
8.8735491e-07
1.6137037e-06
2.8981845e-06
5.138638e-06
8.9911503e-06
1.5519467e-05
2.6416755e-05
4.4339655e-05
7.3419317e-05
0.00012006389
0.00019382547
0.00030830899
0.00048129389
0.00073273193
0.00107905
0.0015241828
0.002050886
0.0026215985
0.0031890013
0.0037110935
0.0041607769
0.0045116208
0.0047455609
0.0048479012
0.0048257838
0.0046878199
0.0043403797
0.0037054756
0.0027787433
0.001492327
0.00062604029
0.00029288896
0.00014576468
0.00010372429
0.00013078572
0.00018630314
0.00026656359
0.00028998684
0.00031785069
0.00037645032
0.00046183764
0.00063475757
0.00074967595
4.1916966e-19
8.152267e-17
2.1713669e-15
2.2012911e-14
1.3312636e-13
5.8981613e-13
2.1297829e-12
6.6643913e-12
1.877455e-11
4.8833224e-11
1.1933862e-10
2.7746866e-10
6.1950493e-10
1.3376011e-09
2.8081128e-09
5.7563747e-09
1.1560574e-08
2.2805905e-08
4.428373e-08
8.4771342e-08
1.6015981e-07
2.9886681e-07
5.5103763e-07
1.0038649e-06
1.8065087e-06
3.2096344e-06
5.6266188e-06
9.7262521e-06
1.6570738e-05
2.7818341e-05
4.6009858e-05
7.4924611e-05
0.00012014549
0.00018987614
0.00029538863
0.00045069397
0.00067056531
0.00096592637
0.0013367709
0.0017662913
0.0022207212
0.0026572502
0.00303477
0.0033176596
0.0034680182
0.0034753505
0.0033660678
0.0030873641
0.0025607855
0.0017968543
0.00083590967
0.0003665416
0.00018055129
9.7636683e-05
7.8462189e-05
0.00010675294
0.00016164984
0.00023898017
0.00020957146
0.00022945693
0.00026396692
0.00031961144
0.00038408198
0.00054311322
0.00073135629
2.5393895e-19
4.9387589e-17
1.3154446e-15
1.3335746e-14
8.0650192e-14
3.5732297e-13
1.2902802e-12
4.0375242e-12
1.1374488e-11
2.9586097e-11
7.2304687e-11
1.6811917e-10
3.7538175e-10
8.105708e-10
1.7018882e-09
3.4893262e-09
7.0094255e-09
1.3832789e-08
2.6874086e-08
5.1482189e-08
9.7364199e-08
1.819328e-07
3.3603141e-07
6.135273e-07
1.106995e-06
1.9726219e-06
3.4684587e-06
6.0109235e-06
1.0258698e-05
1.7235541e-05
2.8506727e-05
4.6420464e-05
7.4382413e-05
0.00011705434
0.00018073723
0.00027360341
0.00040551627
0.0005853412
0.00081739496
0.0010965466
0.0014044459
0.0017098432
0.0019744483
0.0021545729
0.0022207013
0.00217699
0.0019750846
0.001597448
0.0010049108
0.00044326003
0.00021030122
0.00010798148
6.4183814e-05
6.0290127e-05
8.9197166e-05
0.00014240462
0.00019024358
0.00015319636
0.00016889626
0.0001909715
0.00021969955
0.0002727836
0.00035071913
0.0004933071
0.00065566648
1.5329851e-19
2.9814414e-17
7.9411065e-16
8.0505787e-15
4.8687628e-14
2.1571489e-13
7.7895435e-13
2.4375569e-12
6.867305e-12
1.786326e-11
4.3657893e-11
1.01518e-10
2.2669233e-10
4.8955817e-10
1.0280431e-09
2.1082092e-09
4.2362528e-09
8.3634723e-09
1.6257654e-08
3.1169105e-08
5.9011765e-08
1.1043095e-07
2.0436785e-07
3.7408815e-07
6.7713496e-07
1.2112656e-06
2.1390019e-06
3.7240009e-06
6.3827505e-06
1.075451e-05
1.779688e-05
2.8918639e-05
4.6179556e-05
7.2505719e-05
0.00011184096
0.00016878141
0.00024820411
0.00035477471
0.0004919526
0.00065779444
0.00084188259
0.0010238428
0.0011773208
0.0012563701
0.0012638969
0.0011438076
0.00087318636
0.00048535266
0.00022155729
0.00011695027
6.4405234e-05
4.2580514e-05
4.7728472e-05
7.6643086e-05
0.0001280285
0.0001361366
0.00011938592
0.00013337127
0.00014802321
0.00016593685
0.00019569571
0.00024351603
0.00030896251
0.00045136143
0.00063047901
9.4978986e-20
1.8472088e-17
4.9200717e-16
4.987931e-15
3.0166049e-14
1.3365673e-13
4.8265684e-13
1.5104352e-12
4.2555944e-12
1.1070514e-11
2.7058964e-11
6.2927892e-11
1.4054089e-10
3.0356703e-10
6.3763197e-10
1.3080137e-09
2.6294301e-09
5.1940108e-09
1.0103804e-08
1.9389288e-08
3.6755443e-08
6.8897012e-08
1.2778614e-07
2.3458589e-07
4.2620266e-07
7.659535e-07
1.3603159e-06
2.3841128e-06
4.1158642e-06
6.983667e-06
1.1618525e-05
1.891468e-05
3.0103501e-05
4.6850858e-05
7.1383614e-05
0.00010672657
0.00015611548
0.0002223486
0.00030528247
0.00040235821
0.00050590599
0.00060223151
0.00066351768
0.00067204018
0.0005969407
0.00041429105
0.00021945729
0.00011028747
6.2545171e-05
3.8293751e-05
2.9283357e-05
3.9477525e-05
6.7665712e-05
0.00011701388
0.0001070753
0.00010148878
0.00011421392
0.00012217083
0.00013204849
0.000148687
0.00017492686
0.0002216064
0.00029010466
0.00041172705
0.00057797079
6.3144827e-20
1.22808e-17
3.2710246e-16
3.3161795e-15
2.0056121e-14
8.8866329e-14
3.2093019e-13
1.0044041e-12
2.8301568e-12
7.3633082e-12
1.800048e-11
4.1869635e-11
9.3531997e-11
2.020861e-10
4.2462523e-10
8.7144772e-10
1.7528216e-09
3.464949e-09
6.7466612e-09
1.2962724e-08
2.4611448e-08
4.6225552e-08
8.5953998e-08
1.5830069e-07
2.8877915e-07
5.2163043e-07
9.3218841e-07
1.6457254e-06
2.8640812e-06
4.8995611e-06
8.2128029e-06
1.3446811e-05
2.145145e-05
3.3294152e-05
5.0239817e-05
7.3711887e-05
0.0001052612
0.00014608761
0.00019649325
0.00025277307
0.00030550513
0.00033704591
0.00033049227
0.00027623265
0.00017641068
9.3906245e-05
5.3631676e-05
3.3155881e-05
2.3208581e-05
2.1438135e-05
3.4201735e-05
6.0868445e-05
0.0001077242
9.1439494e-05
9.3141351e-05
0.00010275377
0.00010767698
0.00011320105
0.00012320837
0.00014018817
0.00016759452
0.0002101574
0.0002718172
0.00039958556
0.00057270263
4.6476321e-20
9.0390149e-18
2.4075791e-16
2.4408529e-15
1.4762653e-14
6.5414994e-14
2.3625627e-13
7.394786e-13
2.0839419e-12
5.4227843e-12
1.3259501e-11
3.0850313e-11
6.8939261e-11
1.4901292e-10
3.1326871e-10
6.4332096e-10
1.2949724e-09
2.5623087e-09
4.9949464e-09
9.6109337e-09
1.8280618e-08
3.4413269e-08
6.4173482e-08
1.1861088e-07
2.1733153e-07
3.9468206e-07
7.0982472e-07
1.2623324e-06
2.2145739e-06
3.81989e-06
6.4509976e-06
1.0616072e-05
1.6947563e-05
2.6155967e-05
3.8951316e-05
5.5928752e-05
7.7361501e-05
0.00010268436
0.00012946436
0.00015212246
0.0001598007
0.00014631341
0.00011026705
6.796146e-05
3.947702e-05
2.5660899e-05
1.7845146e-05
1.4857334e-05
1.6723042e-05
2.9802303e-05
5.5598876e-05
9.9261427e-05
8.47032e-05
9.1218184e-05
9.8461543e-05
0.00010118386
0.00010515398
0.00011148304
0.0001216136
0.00013778496
0.00016119897
0.00020261513
0.00026406946
0.00037622325
0.00054691653
3.688998e-20
7.174608e-18
1.9109965e-16
1.9374341e-15
1.1718207e-14
5.192691e-14
1.8755357e-13
5.8708995e-13
1.6546805e-12
4.3064126e-12
1.0531835e-11
2.4509988e-11
5.4787966e-11
1.1847106e-10
2.4918264e-10
5.1202714e-10
1.0314638e-09
2.0428224e-09
3.9868387e-09
7.6819777e-09
1.463644e-08
2.7609243e-08
5.1610897e-08
9.5669449e-08
1.7590244e-07
3.2074754e-07
5.7958261e-07
1.0361742e-06
1.8278729e-06
3.1688021e-06
5.3679611e-06
8.8226307e-06
1.3961738e-05
2.1127527e-05
3.0412375e-05
4.1460715e-05
5.3267499e-05
6.3774276e-05
6.9856371e-05
6.7150516e-05
5.6265363e-05
3.8930817e-05
2.5063652e-05
1.6467952e-05
1.2229507e-05
1.0223094e-05
9.9252623e-06
1.3666444e-05
2.6618693e-05
5.1284007e-05
9.2816286e-05
8.6183491e-05
9.3077871e-05
9.88487e-05
0.00010005227
0.0001026131
0.00010695305
0.00011316586
0.00012283913
0.00013780096
0.00016101142
0.00019914546
0.0002576055
0.00037643264
0.00055220928
2.90294e-20
5.6458332e-18
1.5038024e-16
1.5246152e-15
9.2214327e-15
4.0863504e-14
1.4759689e-13
4.6202864e-13
1.3022537e-12
3.3893802e-12
8.2897112e-12
1.9293822e-11
4.313313e-11
9.3282743e-11
1.9623855e-10
4.0332271e-10
8.1268674e-10
1.6099958e-09
3.1431137e-09
6.0582683e-09
1.154661e-08
2.1787359e-08
4.0737362e-08
7.5522218e-08
1.3884899e-07
2.5309253e-07
4.5695923e-07
8.156775e-07
1.4344102e-06
2.4719668e-06
4.1429647e-06
6.6853484e-06
1.0265362e-05
1.4816194e-05
1.9863171e-05
2.4526151e-05
2.7719031e-05
2.8030181e-05
2.4753404e-05
1.8884962e-05
1.3522003e-05
9.3401555e-06
7.1535052e-06
6.1647082e-06
6.0220145e-06
7.4974868e-06
1.1660797e-05
2.416977e-05
4.8504241e-05
8.7937023e-05
9.5507584e-05
9.8245772e-05
0.00010146943
0.00010173005
0.00010333791
0.00010594645
0.00011001746
0.00011682206
0.00012620971
0.00014103285
0.00016219355
0.00020054741
0.00025808457
0.00036685163
0.00054655248
2.0659462e-20
4.0179896e-18
1.070214e-16
1.0850189e-15
6.5625042e-15
2.9080168e-14
1.0503252e-13
3.2877209e-13
9.2660315e-13
2.4114674e-12
5.8972763e-12
1.3723526e-11
3.0674204e-11
6.6321042e-11
1.394717e-10
2.8652228e-10
5.7699171e-10
1.1421631e-09
2.2274611e-09
4.2874649e-09
8.1568011e-09
1.5354572e-08
2.86203e-08
5.284283e-08
9.6634789e-08
1.7491167e-07
3.1288756e-07
5.5167755e-07
9.5462748e-07
1.6101577e-06
2.6209086e-06
4.0635435e-06
5.9088385e-06
7.9153984e-06
9.5980585e-06
1.0407108e-05
9.9305267e-06
8.3416621e-06
6.3688661e-06
4.8150027e-06
3.8466669e-06
3.32497e-06
3.5049732e-06
4.1452295e-06
5.8236955e-06
1.0620391e-05
2.3544706e-05
4.6634173e-05
8.274348e-05
0.00010982724
0.0001073797
0.00010662476
0.00010609705
0.00010645154
0.00010706489
0.00010935382
0.00011423061
0.00012113856
0.00013080219
0.0001454017
0.00016638542
0.00020228975
0.00025702585
0.00037449903
0.0005550416
1.2663559e-20
2.46289e-18
6.560007e-17
6.6506484e-16
4.022375e-15
1.7823272e-14
6.4369602e-14
2.0146735e-13
5.6772589e-13
1.4771992e-12
3.6115446e-12
8.4014409e-12
1.87698e-11
4.0557722e-11
8.5224281e-11
1.7489853e-10
3.5173271e-10
6.950442e-10
1.3524184e-09
2.5955517e-09
4.9193431e-09
9.2153027e-09
1.7069716e-08
3.126429e-08
5.6588504e-08
1.010893e-07
1.7782554e-07
3.0690001e-07
5.1670683e-07
8.4153989e-07
1.3100451e-06
1.9176896e-06
2.586521e-06
3.1440117e-06
3.3827521e-06
3.215617e-06
2.7733795e-06
2.3032609e-06
1.9158308e-06
1.7768159e-06
1.9356457e-06
2.2621472e-06
3.119483e-06
5.1369559e-06
1.0787346e-05
2.2847722e-05
4.4573947e-05
7.834074e-05
0.00012060367
0.0001225256
0.0001171911
0.00011318769
0.00011105907
0.00010952916
0.00011014901
0.00011343094
0.00011835021
0.00012601564
0.00013591676
0.00015098229
0.00017112857
0.00020811573
0.00026351462
0.00037458549
0.00055864672
6.6198166e-21
1.2874624e-18
3.4291798e-17
3.4764831e-16
2.1025187e-15
9.3156688e-15
3.3640439e-14
1.052739e-13
2.9659621e-13
7.7151721e-13
1.8855545e-12
4.3841736e-12
9.7884693e-12
2.1133129e-11
4.43586e-11
9.09038e-11
1.8247619e-10
3.5972224e-10
6.9778932e-10
1.3338687e-09
2.5151516e-09
4.6806525e-09
8.5971568e-09
1.5576888e-08
2.7807129e-08
4.8805073e-08
8.3940369e-08
1.4076851e-07
2.2850073e-07
3.5531579e-07
5.2186774e-07
7.1118429e-07
8.8151811e-07
9.8215629e-07
1.0021187e-06
9.7573101e-07
9.3576027e-07
9.2954297e-07
9.7249283e-07
1.2479583e-06
1.7518514e-06
2.7955901e-06
5.1112922e-06
1.0673485e-05
2.1592116e-05
4.2222327e-05
7.3614348e-05
0.00011196132
0.00014597038
0.00013327662
0.00012385853
0.00011776987
0.00011381703
0.00011275752
0.00011408606
0.00011725952
0.00012279336
0.0001308513
0.00014137363
0.00015714145
0.00017760514
0.00021347937
0.0002663159
0.00038413942
0.00056972189
3.0130245e-21
5.8599032e-19
1.5607802e-17
1.5822681e-16
9.568805e-16
4.2393172e-15
1.5307005e-14
4.7893228e-14
1.3490135e-13
3.5079911e-13
8.5697725e-13
1.9914887e-12
4.4431518e-12
9.5836734e-12
2.0091702e-11
4.1108948e-11
8.2352559e-11
1.6191991e-10
3.1303589e-10
5.9580575e-10
1.117246e-09
2.064485e-09
3.7577526e-09
6.7304484e-09
1.1840014e-08
2.0398454e-08
3.4272939e-08
5.5825134e-08
8.7441378e-08
1.3036111e-07
1.8282773e-07
2.3895929e-07
2.9355652e-07
3.4578e-07
3.9778288e-07
4.4468468e-07
5.3342336e-07
6.8378284e-07
1.0099351e-06
1.6038255e-06
2.7099218e-06
4.9582424e-06
9.9354027e-06
2.0018905e-05
3.9865963e-05
6.8915312e-05
0.00010355739
0.00013924521
0.00015568987
0.00013879159
0.00012769114
0.00012024451
0.00011681877
0.0001159941
0.00011718207
0.00012106369
0.00012688423
0.00013579778
0.00014703432
0.00016348313
0.00018398883
0.00022159755
0.0002748084
0.00039376766
0.00057844522
1.3116669e-21
2.5510007e-19
6.7945092e-18
6.887883e-17
4.1652597e-16
1.8452099e-15
6.6617739e-15
2.0840354e-14
5.868895e-14
1.5257402e-13
3.7259777e-13
8.6547931e-13
1.9298657e-12
4.1596992e-12
8.7128888e-12
1.7807375e-11
3.562362e-11
6.9921321e-11
1.3488672e-10
2.5604915e-10
4.7856906e-10
8.8078875e-10
1.5955002e-09
2.8414555e-09
4.9661324e-09
8.4957627e-09
1.4177862e-08
2.2985513e-08
3.6000905e-08
5.4142389e-08
7.8388282e-08
1.1059281e-07
1.5260699e-07
2.0763694e-07
2.8502505e-07
4.018734e-07
5.8898177e-07
9.3386369e-07
1.5130357e-06
2.5594143e-06
4.6224377e-06
9.1032411e-06
1.8660486e-05
3.7365733e-05
6.4117228e-05
9.5232149e-05
0.00012828507
0.0001633077
0.00015655875
0.00013977326
0.00012841754
0.00012226658
0.00011907308
0.00011847334
0.00012039515
0.00012455122
0.00013105448
0.00014062624
0.00015243475
0.0001702301
0.00019153771
0.00022884682
0.00028165355
0.00040255101
0.00058616963
7.3931898e-22
1.4378683e-19
3.8297207e-18
3.8823388e-17
2.3477108e-16
1.0400159e-15
3.7546981e-15
1.174584e-14
3.307782e-14
8.5995676e-14
2.1002643e-13
4.8793399e-13
1.0883027e-12
2.3467651e-12
4.9186697e-12
1.0062142e-11
2.015613e-11
3.9636268e-11
7.6662817e-11
1.4604979e-10
2.7432359e-10
5.0828938e-10
9.2919671e-10
1.6754859e-09
2.9779983e-09