/*--------------------------------*- C++ -*----------------------------------*\
  =========                 |
  \\      /  F ield         | OpenFOAM: The Open Source CFD Toolbox
   \\    /   O peration     | Website:  https://openfoam.org
    \\  /    A nd           | Version:  13
     \\/     M anipulation  |
\*---------------------------------------------------------------------------*/
FoamFile
{
    format      ascii;
    class       volVectorField;
    location    "17.398119";
    object      wallShearStress;
}
// * * * * * * * * * * * * * * * * * * * * * * * * * * * * * * * * * * * * * //

dimensions      [0 2 -2 0 0 0 0];

internalField   uniform (0 0 0);

boundaryField
{
    inlet
    {
        type            calculated;
        value           uniform (0 0 0);
    }
    outlet
    {
        type            calculated;
        value           uniform (0 0 0);
    }
    cylinder
    {
        type            calculated;
        value           nonuniform List<vector> 
132
(
(7.9619429e-05 -0.0032439018 -1.5956316e-22)
(0.00029326663 -0.0063005938 4.6087897e-23)
(0.00067276435 -0.0092634987 2.5993951e-21)
(0.0012073826 -0.012045459 -8.9444963e-21)
(0.0018766613 -0.014559967 6.4991003e-21)
(0.0026505529 -0.01672498 2.0493689e-20)
(0.0034899161 -0.018467736 -4.0126035e-21)
(0.0043474504 -0.019725052 -1.6426382e-20)
(0.0051704879 -0.020446862 1.5977434e-20)
(0.005900924 -0.020598093 -3.687253e-20)
(0.0064801555 -0.020166898 -6.8798297e-22)
(0.0068551653 -0.019172855 2.3984674e-20)
(0.0069854249 -0.017671817 3.9730746e-20)
(0.0068489357 -0.015754809 -3.2603682e-20)
(0.0064473906 -0.013543661 3.4498447e-20)
(0.0058073232 -0.01117896 5.5526866e-20)
(0.0049797165 -0.0088078863 -3.6232248e-20)
(0.0040333742 -0.0065697365 5.7691139e-20)
(0.003044217 -0.0045745254 7.5552858e-20)
(0.0020886169 -0.0028999243 -4.8489379e-20)
(0.0012260465 -0.0015763443 -6.1140766e-20)
(0.00049868026 -0.0005994387 2.1255408e-23)
(-7.4098381e-05 7.1074813e-05 8.6961521e-21)
(-0.00047419362 0.0004685823 -1.0321308e-20)
(-0.00067644304 0.00062108656 -1.7419767e-20)
(-0.0006003881 0.00051074186 3.6965888e-21)
(-0.00018869463 0.00015388019 -3.3160045e-20)
(0.0006021359 -0.00041444741 8.8183843e-21)
(0.0016384423 -0.0010406068 6.9145934e-21)
(0.002642464 -0.0015236096 -4.7683437e-20)
(0.0034119449 -0.0017690071 6.2403498e-20)
(0.0038678314 -0.0017843717 1.8938476e-21)
(0.0041012316 -0.0016617729 1.3676077e-20)
(0.004215651 -0.0014755475 -1.6216839e-20)
(0.0042204447 -0.0012485405 5.1555487e-20)
(0.0039793331 -0.00096524024 -3.2629159e-21)
(0.0033163451 -0.00063099729 1.3176547e-20)
(0.0020203876 -0.00028372971 -1.8120625e-21)
(-0.00011056996 -8.4736321e-06 2.6055254e-21)
(-0.0033150517 6.3596395e-05 -1.6298427e-21)
(-0.0079309053 -0.00026927983 3.0561562e-21)
(-0.014024267 -0.0013091738 -9.4824663e-23)
(-0.021166708 -0.0032622889 3.5001668e-20)
(-0.02894459 -0.0062582001 -1.358857e-20)
(-0.036809728 -0.010308731 1.2356044e-20)
(-0.044293176 -0.01533363 -7.996441e-20)
(-0.050876214 -0.021123575 -1.2977798e-20)
(-0.056225743 -0.027422779 1.1451269e-19)
(-0.060094832 -0.033934149 -9.7918049e-20)
(-0.062371904 -0.040359891 -1.8690082e-21)
(-0.063027479 -0.046401759 2.9657124e-20)
(-0.062160385 -0.051820443 -2.667799e-20)
(-0.059860708 -0.056355178 -5.0801782e-21)
(-0.05632659 -0.059831956 -2.9883402e-21)
(-0.051795979 -0.062133784 -2.9304937e-21)
(-0.046459622 -0.063110467 -5.1683665e-21)
(-0.040588219 -0.062731982 7.0703356e-22)
(-0.034418524 -0.060963691 5.2890939e-20)
(-0.028197627 -0.057830371 -7.8313364e-20)
(-0.022158223 -0.053388124 -8.2254765e-20)
(-0.016518246 -0.047729973 -3.3094894e-20)
(-0.011474723 -0.040980666 -7.5486642e-20)
(-0.0071997288 -0.033294084 1.6795196e-20)
(-0.0038338329 -0.024847483 2.4407744e-20)
(-0.0014920608 -0.015855753 -3.7933467e-20)
(-0.00023565368 -0.0064857112 -5.0726099e-21)
(3.3614073e-05 -0.00015223382 -7.2716867e-22)
(0.00015596054 0.0029437392 -4.31808e-23)
(0.00044717508 0.0059854284 -2.4841468e-21)
(0.0008992633 0.0088806699 8.4005797e-21)
(0.0014939504 0.011536755 -6.0129612e-21)
(0.0022022076 0.013861964 -1.8717046e-20)
(0.0029850177 0.015772632 3.6249582e-21)
(0.0037942727 0.017198941 1.4708582e-20)
(0.0045758844 0.018085113 -1.4206429e-20)
(0.0052721578 0.018396993 3.2608645e-20)
(0.0058245283 0.018123171 6.0598904e-22)
(0.0061795585 0.017282123 -2.1063147e-20)
(0.0062966606 0.015929824 -3.4817325e-20)
(0.0061546638 0.014159347 2.8527534e-20)
(0.0057569253 0.012095582 -3.0151527e-20)
(0.0051328852 0.0098833532 -4.8487658e-20)
(0.00433595 0.0076719485 3.161794e-20)
(0.0034363235 0.0055999913 -5.0316757e-20)
(0.0025100724 0.0037746151 -6.586876e-20)
(0.0016290659 0.0022647003 4.2261429e-20)
(0.00084713026 0.0010926882 5.3276079e-20)
(0.00019701423 0.00024359392 4.7211229e-20)
(-0.00030033435 -0.00031754592 3.8402591e-20)
(-0.00063489935 -0.00063050608 8.9851912e-21)
(-0.00073753597 -0.00067867085 1.5155087e-20)
(-0.00058248332 -0.0004971668 -3.2151937e-21)
(-1.068128e-05 -1.7888469e-05 2.8827761e-20)
(0.00089104898 0.00061780282 -7.6731947e-21)
(0.0019502448 0.0012408996 -6.0235848e-21)
(0.0029142077 0.0016819767 4.1613618e-20)
(0.0035851227 0.0018599957 -5.4544492e-20)
(0.0039551204 0.0018253321 -1.6481484e-21)
(0.0041395069 0.0016775606 2.7276072e-20)
(0.0042366387 0.0014830868 1.4248422e-20)
(0.0042080274 0.0012452221 -4.5431945e-20)
(0.0039031343 0.00094741281 2.8866006e-21)
(0.0031364766 0.00059797807 8.5413283e-21)
(0.0016971317 0.00024120878 1.6195848e-21)
(-0.00061277111 -2.9121225e-05 -2.3429938e-21)
(-0.0040214015 -8.0737019e-05 1.4747445e-21)
(-0.0088627495 0.00030082601 -2.7825141e-21)
(-0.015164423 0.0014137634 2.2880722e-20)
(-0.022442685 0.0034571017 -3.214164e-20)
(-0.030275569 0.0065441213 1.2496417e-20)
(-0.038111249 0.010671275 -1.1354384e-20)
(-0.045454328 0.01573388 7.3248763e-20)
(-0.051830182 0.021517862 1.1823613e-20)
(-0.05692612 0.02776197 -1.0343931e-19)
(-0.060506528 0.034164222 8.7377766e-20)
(-0.062497694 0.040438847 1.6384063e-21)
(-0.062864679 0.046279418 -2.5299181e-20)
(-0.061749111 0.051475047 2.1765604e-20)
(-0.059209706 0.05573942 -3.0507136e-20)
(-0.055478308 0.058928059 1.7125449e-21)
(-0.050814094 0.060952762 2.5103222e-21)
(-0.045368418 0.061624513 9.2622471e-21)
(-0.039437989 0.06094999 -9.1893583e-22)
(-0.033251648 0.058891763 -6.2164066e-20)
(-0.027055922 0.055482512 8.7582573e-20)
(-0.021081308 0.050785179 8.925088e-20)
(-0.015541658 0.044896869 3.5170961e-20)
(-0.010630309 0.037948527 7.8984058e-20)
(-0.0065139872 0.030096489 -1.7356346e-20)
(-0.0033279991 0.021523804 4.950088e-20)
(-0.001181173 0.012435092 3.8428994e-20)
(-0.00013423181 0.0030463557 5.0973458e-21)
)
;
    }
    frontAndBack
    {
        type            empty;
    }
}


// ************************************************************************* //
