/*--------------------------------*- C++ -*----------------------------------*\
  =========                 |
  \\      /  F ield         | OpenFOAM: The Open Source CFD Toolbox
   \\    /   O peration     | Website:  https://openfoam.org
    \\  /    A nd           | Version:  13
     \\/     M anipulation  |
\*---------------------------------------------------------------------------*/
FoamFile
{
    format      ascii;
    class       volScalarField;
    location    "46.300903";
    object      pPrime2Mean;
}
// * * * * * * * * * * * * * * * * * * * * * * * * * * * * * * * * * * * * * //

dimensions      [0 4 -4 0 0 0 0];

internalField   nonuniform List<scalar> 
17140
(
6726.6429
6726.6431
6726.643
6726.6427
6726.6421
6726.6412
6726.64
6726.6384
6726.6362
6726.6332
6726.6295
6726.6248
6726.6187
6726.6111
6726.6016
6726.5896
6726.5746
6726.5557
6726.5322
6726.5028
6726.4657
6726.4193
6726.3611
6726.2878
6726.1953
6726.079
6725.9321
6725.7468
6725.5132
6725.2189
6724.8487
6724.3839
6723.8021
6723.0757
6722.1722
6721.0521
6719.6691
6717.9688
6715.888
6713.3542
6710.2843
6706.5845
6702.1493
6696.8601
6690.5855
6683.1792
6674.4811
6664.3155
6652.4902
6638.7966
6623.007
6604.8753
6584.1355
6560.5006
6533.661
6503.2835
6469.0058
6430.439
6387.1561
6338.7032
6284.5721
6224.2443
6157.1157
6082.5995
5999.985
6726.8067
6726.8067
6726.8066
6726.8063
6726.8058
6726.8048
6726.8037
6726.8019
6726.7997
6726.7968
6726.793
6726.7883
6726.7822
6726.7747
6726.7651
6726.753
6726.738
6726.7191
6726.6956
6726.6661
6726.6292
6726.5827
6726.5245
6726.4514
6726.3591
6726.2431
6726.0967
6725.912
6725.6788
6725.3851
6725.0157
6724.552
6723.971
6723.2457
6722.343
6721.2238
6719.8417
6718.1422
6716.0625
6713.5299
6710.4614
6706.7633
6702.3302
6697.0434
6690.7718
6683.3693
6674.6754
6664.5147
6652.6952
6639.0079
6623.2257
6605.1025
6584.3723
6560.7484
6533.9215
6503.5583
6469.2969
6430.7487
6387.4861
6339.0555
6284.9487
6224.6475
6157.549
6083.0682
6000.4889
6727.2117
6727.2116
6727.2116
6727.2113
6727.2106
6727.2099
6727.2085
6727.2068
6727.2046
6727.2018
6727.1979
6727.1933
6727.1872
6727.1797
6727.1702
6727.1583
6727.1433
6727.1245
6727.1011
6727.0718
6727.0351
6726.9891
6726.9312
6726.8586
6726.767
6726.6515
6726.506
6726.3222
6726.0904
6725.7982
6725.4303
6724.9683
6724.3892
6723.6658
6722.765
6721.6476
6720.2673
6718.5697
6716.4923
6713.9623
6710.8973
6707.2034
6702.7753
6697.4948
6691.2306
6683.837
6675.1538
6665.0053
6653.1997
6639.5281
6623.7639
6605.6615
6584.9552
6561.3585
6534.5625
6504.2343
6470.0127
6431.5091
6388.2961
6339.9197
6285.8728
6225.6377
6158.6138
6084.2183
6001.7246
6727.8711
6727.8711
6727.871
6727.8708
6727.8701
6727.8692
6727.8681
6727.8664
6727.8642
6727.8615
6727.8577
6727.8531
6727.847
6727.8396
6727.8301
6727.8185
6727.8036
6727.7853
6727.7621
6727.7331
6727.6969
6727.6514
6727.594
6727.5221
6727.4316
6727.3173
6727.1731
6726.9908
6726.7608
6726.4706
6726.1051
6725.6455
6725.0689
6724.3481
6723.4499
6722.3354
6720.958
6719.2635
6717.1897
6714.6644
6711.6048
6707.9177
6703.4978
6698.2275
6691.9753
6684.5962
6675.9302
6665.8013
6654.0185
6640.3726
6624.6378
6606.5691
6585.9015
6562.3492
6535.6037
6505.3325
6471.175
6432.7436
6389.6106
6341.3223
6287.3724
6227.2455
6160.3432
6086.0866
6003.7308
6728.799
6728.799
6728.7988
6728.7986
6728.7979
6728.7971
6728.7958
6728.7943
6728.792
6728.7893
6728.7856
6728.781
6728.7751
6728.7677
6728.7585
6728.7469
6728.7323
6728.7141
6728.6914
6728.6629
6728.6271
6728.5821
6728.5257
6728.4548
6728.3652
6728.2523
6728.1095
6727.9293
6727.7016
6727.4139
6727.0513
6726.5947
6726.0216
6725.3041
6724.4096
6723.2985
6721.9251
6720.2354
6718.167
6715.6481
6712.5964
6708.919
6704.5111
6699.2548
6693.0196
6685.6608
6677.0185
6666.9176
6655.166
6641.5564
6625.8632
6607.8421
6587.2289
6563.7391
6537.0641
6506.8729
6472.8053
6434.4746
6391.4534
6343.2884
6289.4754
6229.5011
6162.7708
6088.7092
6006.5483
6730.0064
6730.0065
6730.0063
6730.0059
6730.0054
6730.0046
6730.0033
6730.0017
6729.9997
6729.9968
6729.9931
6729.9886
6729.983
6729.9757
6729.9666
6729.9551
6729.9407
6729.9228
6729.9005
6729.8725
6729.8372
6729.793
6729.7376
6729.6675
6729.5794
6729.4681
6729.3274
6729.1496
6728.9244
6728.64
6728.2808
6727.8279
6727.2589
6726.5457
6725.6555
6724.5492
6723.1812
6721.4976
6719.4364
6716.9264
6713.8853
6710.2208
6705.8279
6700.5903
6694.3774
6687.0451
6678.4335
6668.3681
6656.6576
6643.0953
6627.456
6609.4971
6588.9554
6565.5464
6538.9636
6508.8764
6474.9258
6436.7254
6393.8493
6345.8446
6292.2104
6232.4362
6165.9308
6092.1244
6010.2184
6731.5063
6731.5062
6731.506
6731.5057
6731.5052
6731.5042
6731.5031
6731.5015
6731.4993
6731.4966
6731.493
6731.4886
6731.4828
6731.4757
6731.4667
6731.4555
6731.4415
6731.4239
6731.4019
6731.3743
6731.3397
6731.2965
6731.2419
6731.1734
6731.0868
6730.9774
6730.839
6730.6638
6730.4421
6730.1611
6729.8059
6729.3575
6728.793
6728.0849
6727.2001
6726.1
6724.7387
6723.063
6721.0113
6718.5123
6715.4847
6711.8359
6707.4624
6702.2479
6696.0625
6688.7628
6680.1896
6670.1682
6658.5088
6645.0049
6629.4332
6611.5519
6591.0987
6567.7908
6541.3221
6511.3639
6477.5584
6439.5197
6396.8232
6349.0183
6295.6071
6236.0827
6169.8587
6096.3703
6014.7838
6733.3118
6733.3117
6733.3114
6733.3112
6733.3105
6733.3098
6733.3085
6733.3068
6733.3047
6733.302
6733.2985
6733.2942
6733.2887
6733.2816
6733.2728
6733.2619
6733.2481
6733.231
6733.2095
6733.1826
6733.1488
6733.1063
6733.0531
6732.9859
6732.9013
6732.794
6732.6582
6732.486
6732.2679
6731.991
6731.6403
6731.1968
6730.6376
6729.9354
6729.0569
6727.964
6726.611
6724.945
6722.9045
6720.419
6717.4076
6713.7783
6709.428
6704.2414
6698.0894
6690.8287
6682.3012
6672.333
6660.735
6647.3021
6631.812
6614.0241
6593.6778
6570.4914
6544.1603
6514.3573
6480.7259
6442.8817
6400.4014
6352.8375
6299.6965
6240.4744
6174.5902
6101.4858
6020.2873
6735.4391
6735.4391
6735.4389
6735.4387
6735.438
6735.437
6735.4358
6735.4344
6735.4321
6735.4295
6735.4261
6735.4218
6735.4162
6735.4094
6735.401
6735.3902
6735.3768
6735.3601
6735.3391
6735.3127
6735.2799
6735.2386
6735.1865
6735.1211
6735.0383
6734.9334
6734.8004
6734.6314
6734.4169
6734.1443
6733.7982
6733.3601
6732.8066
6732.1107
6731.2397
6730.155
6728.8117
6727.157
6725.1301
6722.6604
6719.6679
6716.0615
6711.7388
6706.5848
6700.4718
6693.2572
6684.7833
6674.8777
6663.3523
6650.003
6634.6093
6616.932
6596.7117
6573.6683
6547.4992
6517.8787
6484.4521
6446.8362
6404.6106
6357.3312
6304.5094
6245.6449
6180.1619
6107.511
6026.7729
6737.9054
6737.9054
6737.9053
6737.9049
6737.9043
6737.9034
6737.9022
6737.9006
6737.8985
6737.8959
6737.8926
6737.8882
6737.8829
6737.8764
6737.8679
6737.8576
6737.8445
6737.8283
6737.8078
6737.7823
6737.7503
6737.7101
6737.6594
6737.5955
6737.5145
6737.412
6737.2816
6737.1161
6736.905
6736.6366
6736.2952
6735.8623
6735.3149
6734.6258
6733.7627
6732.6873
6731.3548
6729.7129
6727.7013
6725.2502
6722.2795
6718.6996
6714.4086
6709.2926
6703.2247
6696.063
6687.6512
6677.8179
6666.3764
6653.1244
6637.8425
6620.2931
6600.219
6577.3413
6551.3596
6521.9502
6488.7602
6451.4084
6409.4776
6362.5288
6310.0784
6251.6294
6186.6126
6114.4877
6034.2852
6740.7284
6740.7283
6740.7281
6740.7278
6740.7271
6740.7262
6740.7251
6740.7236
6740.7215
6740.7188
6740.7156
6740.7115
6740.7063
6740.6998
6740.6916
6740.6814
6740.6689
6740.6529
6740.6331
6740.6082
6740.577
6740.5379
6740.4885
6740.426
6740.3469
6740.2464
6740.1186
6739.9556
6739.748
6739.4832
6739.1463
6738.7185
6738.1772
6737.4951
6736.6404
6735.575
6734.2544
6732.6271
6730.6325
6728.2021
6725.2564
6721.7065
6717.4517
6712.379
6706.3622
6699.2607
6690.9195
6681.1688
6669.8235
6656.6826
6641.5287
6624.1261
6604.2189
6581.5306
6555.7632
6526.5946
6493.6744
6456.6243
6415.0317
6368.4623
6316.4381
6258.4652
6193.9811
6122.4567
6042.8694
6743.9244
6743.9243
6743.9242
6743.9237
6743.923
6743.9221
6743.9211
6743.9195
6743.9174
6743.915
6743.9116
6743.9076
6743.9027
6743.8961
6743.8882
6743.8783
6743.866
6743.8505
6743.8311
6743.8068
6743.7763
6743.7379
6743.6894
6743.6283
6743.5506
6743.4518
6743.3261
6743.1655
6742.9607
6742.6992
6742.3661
6741.9431
6741.4076
6740.7329
6739.8869
6738.8324
6737.525
6735.9133
6733.9377
6731.5302
6728.6126
6725.0967
6720.8827
6715.8586
6709.899
6702.8654
6694.6038
6684.9463
6673.7096
6660.6947
6645.6859
6628.4493
6608.731
6586.2573
6560.7319
6531.8352
6499.2201
6462.5116
6421.3025
6375.1636
6323.6218
6266.1871
6202.3058
6131.4607
6052.5704
6747.5071
6747.507
6747.507
6747.5065
6747.5059
6747.505
6747.5038
6747.5022
6747.5002
6747.4979
6747.4947
6747.4906
6747.4857
6747.4794
6747.4716
6747.4619
6747.4497
6747.4345
6747.4156
6747.3918
6747.3617
6747.324
6747.2764
6747.2161
6747.1396
6747.0421
6746.9177
6746.7593
6746.5566
6746.2981
6745.9688
6745.5503
6745.0207
6744.3534
6743.5167
6742.4735
6741.1801
6739.5854
6737.6309
6735.2491
6732.3626
6728.8845
6724.7158
6719.7459
6713.8506
6706.8924
6698.7198
6689.1667
6678.0519
6665.1782
6650.3324
6633.282
6613.776
6591.5422
6566.2877
6537.6959
6505.4226
6469.098
6428.3197
6382.6639
6331.6635
6274.8331
6211.6262
6141.5425
6063.4337
6751.489
6751.4889
6751.4887
6751.4882
6751.4876
6751.4868
6751.4856
6751.484
6751.4821
6751.4798
6751.4767
6751.4726
6751.4677
6751.4617
6751.4539
6751.4443
6751.4324
6751.4174
6751.3987
6751.3752
6751.3457
6751.3085
6751.2614
6751.2017
6751.1259
6751.0296
6750.9066
6750.7495
6750.5487
6750.293
6749.967
6749.5533
6749.0297
6748.3699
6747.543
6746.512
6745.2337
6743.6576
6741.7261
6739.3726
6736.5208
6733.0846
6728.9662
6724.0562
6718.232
6711.3579
6703.2843
6693.8473
6682.8682
6670.1521
6655.4873
6638.6443
6619.3739
6597.4073
6572.454
6544.2015
6512.3089
6476.4116
6436.1137
6390.9965
6340.5986
6284.4387
6221.9819
6152.7443
6075.5034
6755.881
6755.881
6755.8807
6755.8803
6755.8797
6755.8789
6755.8777
6755.8761
6755.8742
6755.8719
6755.8688
6755.8649
6755.8601
6755.8539
6755.8463
6755.837
6755.8251
6755.8104
6755.792
6755.7687
6755.7395
6755.7026
6755.656
6755.5968
6755.5216
6755.4261
6755.3041
6755.1485
6754.9496
6754.6964
6754.3741
6753.965
6753.4478
6752.7964
6751.9799
6750.9619
6749.6998
6748.1441
6746.2378
6743.9152
6741.1015
6737.7114
6733.6486
6728.8047
6723.059
6716.2779
6708.3139
6699.0057
6688.1768
6675.6347
6661.1704
6644.5564
6625.5463
6603.8749
6579.2548
6551.3767
6519.9053
6484.4815
6444.7154
6400.194
6350.4612
6295.042
6233.4121
6165.1081
6088.8241
6760.6956
6760.6956
6760.6953
6760.6949
6760.6942
6760.6934
6760.6925
6760.6909
6760.6889
6760.6866
6760.6835
6760.6797
6760.6749
6760.6691
6760.6615
6760.6522
6760.6405
6760.6259
6760.6075
6760.5845
6760.5555
6760.5189
6760.4727
6760.4141
6760.3395
6760.2447
6760.1236
6759.9693
6759.7728
6759.5222
6759.2037
6758.7997
6758.2893
6757.6466
6756.8412
6755.8374
6754.5929
6753.0592
6751.1804
6748.8918
6746.1197
6742.7803
6738.7786
6734.0074
6728.3483
6721.6695
6713.8264
6704.6598
6693.9961
6681.6458
6667.4015
6651.0389
6632.3153
6610.968
6586.7134
6559.247
6528.2395
6493.3372
6454.1561
6410.2889
6361.2867
6306.6793
6245.9558
6178.6756
6103.4394
6765.9479
6765.9478
6765.9475
6765.9472
6765.9466
6765.9458
6765.9446
6765.9432
6765.9412
6765.9389
6765.936
6765.9321
6765.9273
6765.9215
6765.9141
6765.9048
6765.8931
6765.8787
6765.8603
6765.8375
6765.8086
6765.7723
6765.7262
6765.668
6765.5939
6765.4998
6765.3797
6765.227
6765.0322
6764.7847
6764.4703
6764.0718
6763.5685
6762.935
6762.1416
6761.1526
6759.9273
6758.4178
6756.5688
6754.3174
6751.591
6748.3068
6744.3717
6739.6805
6734.1161
6727.5499
6719.8393
6710.8281
6700.3455
6688.2042
6674.2006
6658.1131
6639.7023
6618.7088
6594.854
6567.8384
6537.3393
6503.0078
6464.4665
6421.3142
6373.1088
6319.3872
6259.6513
6193.4878
6119.3929
6771.6539
6771.6538
6771.6535
6771.6532
6771.6526
6771.6517
6771.6507
6771.6493
6771.6473
6771.6449
6771.642
6771.6382
6771.6334
6771.6275
6771.6201
6771.6108
6771.5993
6771.5846
6771.5664
6771.5435
6771.5148
6771.4784
6771.4326
6771.3746
6771.3007
6771.2072
6771.0882
6770.9367
6770.7442
6770.4996
6770.1892
6769.7963
6769.3004
6768.6767
6767.8958
6766.9231
6765.7185
6764.2348
6762.4186
6760.2075
6757.5307
6754.3067
6750.4441
6745.8399
6740.3794
6733.9359
6726.3701
6717.5283
6707.2428
6695.3295
6681.588
6665.7998
6647.7289
6627.1204
6603.7013
6577.1777
6547.2314
6513.5221
6475.6774
6433.3016
6385.9617
6333.2011
6274.5371
6209.5853
6136.7267
6777.8301
6777.83
6777.8299
6777.8294
6777.8289
6777.828
6777.827
6777.8255
6777.8237
6777.8213
6777.8183
6777.8143
6777.8096
6777.8037
6777.7961
6777.7867
6777.7749
6777.7604
6777.742
6777.7188
6777.6899
6777.6535
6777.6076
6777.5495
6777.4759
6777.3828
6777.2645
6777.1145
6776.924
6776.6823
6776.3761
6775.9888
6775.5005
6774.8871
6774.1197
6773.1643
6771.9818
6770.5263
6768.7453
6766.578
6763.9545
6760.7959
6757.0122
6752.5026
6747.1548
6740.845
6733.4365
6724.7787
6714.707
6703.0411
6689.5832
6674.1192
6656.4165
6636.226
6613.2798
6587.2893
6557.9443
6524.9095
6487.818
6446.2831
6399.8781
6348.1563
6290.6502
6227.0075
6155.4826
6784.4899
6784.4898
6784.4896
6784.4893
6784.4886
6784.4879
6784.4868
6784.4853
6784.4834
6784.481
6784.4779
6784.4739
6784.4692
6784.463
6784.4555
6784.4458
6784.434
6784.4191
6784.4006
6784.3772
6784.348
6784.3114
6784.2652
6784.207
6784.1337
6784.0409
6783.9233
6783.7746
6783.5861
6783.3475
6783.0455
6782.6644
6782.1842
6781.5814
6780.8281
6779.8914
6778.7327
6777.3076
6775.5646
6773.4442
6770.8789
6767.7906
6764.0919
6759.6847
6754.4591
6748.2939
6741.0557
6732.5969
6722.7566
6711.3575
6698.206
6683.0916
6665.7869
6646.0482
6623.6127
6598.1996
6569.5046
6537.1971
6500.919
6460.2887
6414.8908
6364.2871
6308.0273
6245.7934
6175.7013
6791.6427
6791.6428
6791.6426
6791.6423
6791.6417
6791.6408
6791.6397
6791.6382
6791.6363
6791.6338
6791.6307
6791.6268
6791.6218
6791.6156
6791.6081
6791.5983
6791.5862
6791.5712
6791.5524
6791.529
6791.4996
6791.4626
6791.4165
6791.3584
6791.2853
6791.1932
6791.0766
6790.9295
6790.7435
6790.5083
6790.2111
6789.8364
6789.3651
6788.774
6788.0364
6787.1196
6785.9867
6784.5943
6782.8922
6780.8225
6778.3191
6775.3066
6771.6998
6767.4027
6762.3089
6756.2997
6749.245
6741.0007
6731.4092
6720.2971
6707.4748
6692.7366
6675.8608
6656.6081
6634.7241
6609.934
6581.9376
6550.4128
6515.0073
6475.3489
6431.0312
6381.6274
6326.7041
6265.9809
6197.4213
6799.2946
6799.2946
6799.2944
6799.2941
6799.2935
6799.2928
6799.2916
6799.2901
6799.2881
6799.2858
6799.2827
6799.2786
6799.2738
6799.2677
6799.2599
6799.2503
6799.2382
6799.2232
6799.2044
6799.181
6799.1519
6799.1153
6799.0695
6799.0119
6798.9398
6798.8486
6798.7339
6798.5891
6798.4062
6798.1754
6797.8842
6797.5173
6797.0559
6796.4783
6795.7576
6794.8632
6793.7583
6792.4014
6790.7432
6788.7279
6786.2912
6783.3599
6779.8515
6775.673
6770.7204
6764.8789
6758.0212
6750.0068
6740.6821
6729.8771
6717.4076
6703.0735
6686.6572
6667.9278
6646.6373
6622.5156
6595.2688
6564.5824
6530.1113
6491.4929
6448.3312
6400.21
6346.715
6287.6062
6220.68
6807.4497
6807.4497
6807.4495
6807.4493
6807.4487
6807.4479
6807.4468
6807.4454
6807.4435
6807.4411
6807.4382
6807.4344
6807.4295
6807.4236
6807.4162
6807.4067
6807.3949
6807.3804
6807.3621
6807.3394
6807.3108
6807.2751
6807.2305
6807.1743
6807.1038
6807.015
6806.903
6806.7616
6806.5832
6806.3582
6806.0742
6805.7164
6805.2673
6804.7051
6804.004
6803.1343
6802.0606
6800.7422
6799.1316
6797.1747
6794.8097
6791.9655
6788.5628
6784.511
6779.71
6774.0476
6767.4003
6759.6316
6750.5912
6740.1142
6728.0222
6714.1192
6698.1962
6680.0288
6659.374
6635.9667
6609.5223
6579.7308
6546.2578
6508.7495
6466.8209
6420.0669
6368.0933
6310.7046
6245.5119
6816.1146
6816.1146
6816.1144
6816.114
6816.1136
6816.1128
6816.1118
6816.1104
6816.1089
6816.1065
6816.1037
6816.1002
6816.0958
6816.0901
6816.083
6816.0743
6816.0632
6816.0494
6816.0322
6816.0105
6815.9834
6815.9494
6815.9065
6815.8528
6815.785
6815.6995
6815.5916
6815.4551
6815.2825
6815.0647
6814.7898
6814.4435
6814.0087
6813.4643
6812.7857
6811.9437
6810.9045
6809.6283
6808.0696
6806.1761
6803.8881
6801.1376
6797.8478
6793.9316
6789.2919
6783.8205
6777.3971
6769.8892
6761.1504
6751.0235
6739.3333
6725.8917
6710.497
6692.9307
6672.9536
6650.3102
6624.7201
6595.8828
6563.473
6527.1468
6486.5302
6441.229
6390.8709
6335.3098
6271.9507
6825.2996
6825.2996
6825.2996
6825.2992
6825.2987
6825.2981
6825.2973
6825.2961
6825.2945
6825.2925
6825.2901
6825.2867
6825.2828
6825.2776
6825.2713
6825.2631
6825.253
6825.2403
6825.2244
6825.2045
6825.1793
6825.1474
6825.1075
6825.0567
6824.9926
6824.9116
6824.8086
6824.6782
6824.5129
6824.3039
6824.0398
6823.7067
6823.2882
6822.764
6822.1107
6821.2999
6820.2988
6819.0693
6817.5674
6815.7426
6813.5377
6810.8876
6807.7184
6803.9466
6799.4787
6794.2093
6788.0227
6780.7904
6772.3738
6762.6184
6751.3566
6738.4088
6723.5777
6706.6503
6687.3962
6665.5647
6640.8837
6613.0615
6581.7819
6546.7114
6507.4871
6463.726
6415.0784
6361.4544
6300.0277
6835.02
6835.02
6835.0198
6835.0196
6835.0193
6835.0187
6835.0179
6835.0169
6835.0156
6835.0138
6835.0116
6835.0088
6835.0052
6835.0006
6834.995
6834.9876
6834.9787
6834.9671
6834.9526
6834.9346
6834.9114
6834.8823
6834.845
6834.7979
6834.7378
6834.6616
6834.5643
6834.4407
6834.2835
6834.0843
6833.8321
6833.5138
6833.1137
6832.6122
6831.9867
6831.2103
6830.2511
6829.0724
6827.6319
6825.8815
6823.7662
6821.2239
6818.1837
6814.5654
6810.2787
6805.2231
6799.2868
6792.3484
6784.2727
6774.9124
6764.1085
6751.6849
6737.4527
6721.2049
6702.7182
6681.7493
6658.0341
6631.2894
6601.2088
6567.4693
6529.7194
6487.5867
6440.7447
6389.1698
6329.7732
6845.2915
6845.2915
6845.2914
6845.2912
6845.291
6845.2905
6845.2899
6845.2889
6845.2878
6845.2862
6845.2844
6845.2818
6845.2785
6845.2745
6845.2693
6845.2629
6845.2547
6845.2444
6845.2311
6845.2144
6845.1934
6845.1662
6845.132
6845.0881
6845.0319
6844.9604
6844.8689
6844.7521
6844.6033
6844.4145
6844.1751
6843.8729
6843.4925
6843.0157
6842.4204
6841.6811
6840.7672
6839.6435
6838.2694
6836.5991
6834.5798
6832.1523
6829.249
6825.7931
6821.6984
6816.8688
6811.1992
6804.5719
6796.8581
6787.9191
6777.5999
6765.7327
6752.1352
6736.6087
6718.9357
6698.8813
6676.1904
6650.5878
6621.7769
6589.4454
6553.2532
6512.8385
6467.898
6418.4852
6361.2186
6856.1269
6856.1269
6856.1268
6856.1266
6856.1264
6856.126
6856.1254
6856.1245
6856.1235
6856.1221
6856.1203
6856.1179
6856.1151
6856.1113
6856.1065
6856.1005
6856.0929
6856.0832
6856.0709
6856.0554
6856.0356
6856.0104
6855.9781
6855.937
6855.8841
6855.8167
6855.7303
6855.6202
6855.48
6855.3018
6855.0759
6854.7905
6854.4312
6853.9807
6853.4179
6852.7183
6851.8526
6850.7874
6849.4842
6847.8989
6845.9817
6843.6762
6840.9178
6837.6341
6833.743
6829.1543
6823.7673
6817.469
6810.1403
6801.6466
6791.8406
6780.5629
6767.6378
6752.8742
6736.0631
6716.9773
6695.3704
6670.9767
6643.5086
6612.6641
6578.1145
6539.5083
6496.5656
6449.4286
6394.3963
6867.5311
6867.5311
6867.5311
6867.5309
6867.5307
6867.5303
6867.5297
6867.5289
6867.5279
6867.5265
6867.5247
6867.5225
6867.5195
6867.516
6867.5114
6867.5055
6867.4981
6867.4888
6867.4771
6867.4621
6867.4433
6867.4191
6867.3884
6867.3493
6867.2992
6867.2354
6867.154
6867.0502
6866.9184
6866.751
6866.539
6866.2715
6865.9344
6865.5117
6864.983
6864.3253
6863.5107
6862.5074
6861.2787
6859.7834
6857.9743
6855.7976
6853.1932
6850.0922
6846.4176
6842.0844
6836.9953
6831.0467
6824.125
6816.102
6806.8393
6796.1842
6783.9696
6770.0129
6754.1129
6736.0514
6715.591
6692.4749
6666.4247
6637.1486
6604.3284
6567.623
6526.776
6482.0284
6429.3413
6879.5018
6879.5018
6879.5016
6879.5016
6879.5012
6879.5008
6879.5002
6879.4995
6879.4983
6879.4969
6879.4952
6879.493
6879.49
6879.4865
6879.482
6879.4761
6879.4688
6879.4597
6879.4482
6879.4336
6879.4152
6879.3919
6879.3625
6879.3252
6879.2776
6879.2173
6879.1407
6879.0433
6878.9202
6878.7641
6878.5668
6878.3177
6878.0043
6877.6107
6877.1179
6876.5042
6875.7429
6874.8044
6873.6542
6872.2535
6870.5582
6868.5183
6866.0767
6863.1694
6859.7248
6855.6603
6850.8873
6845.309
6838.8162
6831.2906
6822.6011
6812.6032
6801.1389
6788.0336
6773.0958
6756.1163
6736.8664
6715.0994
6690.5457
6662.922
6631.9211
6597.2099
6558.5597
6516.3211
6466.0889
6892.0313
6892.0313
6892.0311
6892.0309
6892.0307
6892.0304
6892.0296
6892.0288
6892.0279
6892.0265
6892.0246
6892.0224
6892.0195
6892.016
6892.0115
6892.0058
6891.9987
6891.9897
6891.9784
6891.9645
6891.9467
6891.9245
6891.8965
6891.8613
6891.8165
6891.76
6891.6887
6891.5984
6891.4845
6891.3405
6891.1587
6890.9294
6890.6407
6890.2775
6889.8224
6889.2544
6888.549
6887.6781
6886.6101
6885.3088
6883.7335
6881.8376
6879.5684
6876.8667
6873.6633
6869.8831
6865.4446
6860.2559
6854.2157
6847.2143
6839.1287
6829.824
6819.1501
6806.9427
6793.0199
6777.1819
6759.2097
6738.8663
6715.8904
6690.0076
6660.9188
6628.2985
6591.9505
6552.3495
6504.6811
6905.1113
6905.1113
6905.1114
6905.1112
6905.111
6905.1104
6905.1099
6905.1091
6905.1081
6905.1068
6905.105
6905.1029
6905.1002
6905.0967
6905.0924
6905.0871
6905.0803
6905.0718
6905.0614
6905.0481
6905.0316
6905.011
6904.9849
6904.9523
6904.911
6904.8592
6904.7939
6904.7118
6904.608
6904.4774
6904.3123
6904.1041
6903.8412
6903.5099
6903.0939
6902.5735
6901.9261
6901.1258
6900.1437
6898.9466
6897.4975
6895.7534
6893.6664
6891.18
6888.231
6884.7514
6880.6644
6875.8851
6870.3218
6863.8721
6856.4227
6847.8473
6838.0058
6826.7441
6813.8902
6799.2554
6782.6307
6763.7885
6742.4768
6718.4285
6691.3513
6660.9229
6626.974
6590.1201
6545.2173
6918.7345
6918.7345
6918.7343
6918.7341
6918.734
6918.7336
6918.733
6918.7323
6918.7315
6918.7302
6918.7286
6918.7269
6918.7244
6918.7213
6918.7174
6918.7127
6918.7067
6918.6991
6918.6897
6918.678
6918.6633
6918.6447
6918.6216
6918.5925
6918.5561
6918.5098
6918.4519
6918.3788
6918.2868
6918.1705
6918.0233
6917.837
6917.6011
6917.3031
6916.9273
6916.4559
6915.8686
6915.1419
6914.2497
6913.1622
6911.8456
6910.2616
6908.3653
6906.1047
6903.4238
6900.2594
6896.5409
6892.1924
6887.13
6881.2604
6874.4796
6866.6709
6857.7047
6847.4373
6835.7087
6822.3414
6807.1368
6789.8778
6770.3215
6748.208
6723.2513
6695.119
6663.645
6629.7299
6587.7256
6932.8957
6932.8957
6932.8955
6932.8954
6932.8952
6932.895
6932.8945
6932.8939
6932.8932
6932.8922
6932.8909
6932.8894
6932.8874
6932.8849
6932.8817
6932.8778
6932.8728
6932.8666
6932.8588
6932.8489
6932.8366
6932.8211
6932.8016
6932.7768
6932.7457
6932.7063
6932.6566
6932.5939
6932.5142
6932.413
6932.2846
6932.1211
6931.9129
6931.6483
6931.3138
6930.8932
6930.368
6929.7181
6928.9201
6927.9475
6926.7702
6925.3537
6923.6562
6921.6329
6919.2325
6916.3975
6913.0658
6909.1692
6904.6326
6899.3718
6893.2922
6886.2884
6878.2415
6869.019
6858.4734
6846.4399
6832.732
6817.1431
6799.4397
6779.3702
6756.6474
6730.9079
6702.0275
6671.2223
6632.252
6947.5895
6947.5896
6947.5894
6947.5894
6947.5893
6947.5889
6947.5885
6947.5882
6947.5877
6947.5869
6947.586
6947.5849
6947.5834
6947.5817
6947.5794
6947.5764
6947.5727
6947.5681
6947.5622
6947.5547
6947.5452
6947.5333
6947.5178
6947.4983
6947.4733
6947.4412
6947.4002
6947.348
6947.2812
6947.1956
6947.0858
6946.9449
6946.7644
6946.534
6946.2415
6945.873
6945.4129
6944.8433
6944.1439
6943.2914
6942.26
6941.0173
6939.5282
6937.7524
6935.6442
6933.1539
6930.2267
6926.8035
6922.8177
6918.1947
6912.8502
6906.6898
6899.6065
6891.4805
6882.1776
6871.5471
6859.4162
6845.5901
6829.8459
6811.9358
6791.567
6768.3746
6742.1652
6714.642
6678.9356
6962.8116
6962.8114
6962.8115
6962.8113
6962.8113
6962.8112
6962.8108
6962.8107
6962.8103
6962.8098
6962.8093
6962.8086
6962.8077
6962.8066
6962.8051
6962.8033
6962.8009
6962.7979
6962.7939
6962.789
6962.7824
6962.7738
6962.7626
6962.7479
6962.7288
6962.704
6962.6716
6962.6294
6962.5747
6962.5041
6962.4123
6962.2938
6962.141
6961.9449
6961.6956
6961.3815
6960.9888
6960.5027
6959.9062
6959.1794
6958.2988
6957.2373
6955.9649
6954.4465
6952.6429
6950.512
6948.0078
6945.0795
6941.6697
6937.7137
6933.138
6927.8595
6921.7849
6914.8083
6906.81
6897.6542
6887.1846
6875.2197
6861.5463
6845.9204
6828.0685
6807.5683
6784.1531
6760.0685
6727.9203
6978.5509
6978.5509
6978.5509
6978.5508
6978.5508
6978.5507
6978.5505
6978.5504
6978.5502
6978.5499
6978.5498
6978.5493
6978.549
6978.5483
6978.5477
6978.5468
6978.5456
6978.544
6978.5417
6978.5388
6978.5347
6978.529
6978.5216
6978.5112
6978.4972
6978.4786
6978.4538
6978.4208
6978.3774
6978.3205
6978.2461
6978.1494
6978.0241
6977.863
6977.6582
6977.3998
6977.0772
6976.6781
6976.1883
6975.591
6974.8666
6973.9934
6972.9456
6971.6941
6970.2074
6968.4516
6966.3887
6963.9766
6961.1677
6957.9079
6954.1345
6949.7776
6944.7575
6938.9837
6932.3527
6924.7457
6916.0241
6906.0199
6894.5416
6881.3561
6866.1845
6848.5806
6828.1679
6807.6622
6779.3204
6994.7916
6994.7914
6994.7914
6994.7913
6994.7913
6994.7912
6994.791
6994.7911
6994.791
6994.7909
6994.7907
6994.7906
6994.7903
6994.7903
6994.7898
6994.7896
6994.7889
6994.7881
6994.7868
6994.7851
6994.7828
6994.7791
6994.774
6994.7667
6994.7565
6994.7427
6994.7238
6994.6985
6994.6649
6994.6208
6994.5628
6994.4874
6994.3896
6994.2641
6994.1044
6993.9035
6993.6529
6993.3435
6992.9636
6992.4997
6991.9373
6991.2586
6990.4432
6989.4689
6988.3118
6986.9462
6985.3431
6983.4688
6981.2858
6978.7505
6975.8134
6972.4173
6968.4975
6963.9802
6958.7798
6952.7939
6945.9083
6937.9785
6928.8309
6918.2475
6905.9656
6891.5216
6874.4609
6857.6734
6833.1339
7011.5036
7011.5036
7011.5034
7011.5033
7011.5033
7011.5032
7011.5031
7011.5029
7011.5028
7011.5026
7011.5025
7011.5024
7011.5023
7011.5022
7011.502
7011.5016
7011.5012
7011.5006
7011.4999
7011.4986
7011.4969
7011.4943
7011.4904
7011.4851
7011.4774
7011.4671
7011.453
7011.4343
7011.4097
7011.3773
7011.3355
7011.2812
7011.2114
7011.122
7011.0084
7010.8664
7010.6901
7010.4723
7010.2047
7009.8787
7009.4826
7009.0041
7008.4292
7007.7424
7006.9278
7005.9678
7004.842
7003.5262
7001.993
7000.2105
6998.1414
6995.743
6992.9685
6989.7616
6986.0559
6981.771
6976.8137
6971.0667
6964.3921
6956.6035
6947.462
6936.5144
6923.3018
6910.1628
6889.7154
7028.6524
7028.6523
7028.6521
7028.652
7028.6518
7028.6517
7028.6515
7028.6512
7028.6511
7028.6507
7028.6506
7028.6503
7028.6498
7028.6495
7028.649
7028.6486
7028.648
7028.6472
7028.6462
7028.6448
7028.6429
7028.6405
7028.6371
7028.6327
7028.6264
7028.6184
7028.608
7028.5949
7028.5782
7028.5572
7028.5309
7028.4981
7028.4569
7028.4041
7028.3377
7028.2556
7028.1544
7028.0297
7027.8779
7027.6931
7027.4685
7027.1966
7026.8698
7026.4808
7026.0211
7025.4814
7024.8502
7024.1128
7023.2528
7022.2509
7021.083
7019.7224
7018.1393
7016.2971
7014.1507
7011.6424
7008.7084
7005.2597
7001.1957
6996.3853
6990.641
6983.6063
6974.8918
6965.9614
6950.5824
7046.9677
7046.9676
7046.9674
7046.9672
7046.9669
7046.9667
7046.9664
7046.966
7046.9655
7046.9649
7046.9644
7046.9639
7046.9632
7046.9623
7046.9615
7046.9604
7046.9591
7046.9576
7046.9557
7046.9537
7046.951
7046.9477
7046.9439
7046.9393
7046.9337
7046.9271
7046.9197
7046.9114
7046.9022
7046.8923
7046.8814
7046.87
7046.8573
7046.8432
7046.828
7046.8108
7046.7915
7046.7698
7046.7444
7046.7134
7046.6758
7046.6298
7046.5753
7046.5121
7046.4397
7046.3576
7046.2638
7046.1541
7046.024
7045.8673
7045.6764
7045.4423
7045.1538
7044.796
7044.3473
7043.7783
7043.0524
7042.1222
7040.9273
7039.3978
7037.4319
7034.8295
7031.6001
7028.644
7022.9976
7066.2365
7066.2361
7066.2359
7066.2355
7066.2352
7066.2348
7066.2344
7066.2339
7066.2333
7066.2326
7066.2318
7066.2309
7066.23
7066.2287
7066.2273
7066.2256
7066.2237
7066.2215
7066.2189
7066.2158
7066.2123
7066.2085
7066.204
7066.1995
7066.1944
7066.1897
7066.1856
7066.1827
7066.1822
7066.1845
7066.1912
7066.2033
7066.2227
7066.2505
7066.2891
7066.3417
7066.4117
7066.5004
7066.6097
7066.7431
7066.905
7067.1004
7067.3364
7067.621
7067.962
7068.368
7068.8466
7069.4054
7070.0528
7070.7976
7071.6497
7072.6189
7073.7142
7074.9433
7076.3109
7077.8188
7079.4633
7081.2397
7083.1367
7085.1507
7087.275
7089.4826
7091.9859
7095.2128
7097.6465
7085.4671
7085.4669
7085.4665
7085.4661
7085.4657
7085.4653
7085.465
7085.4644
7085.4636
7085.4631
7085.4621
7085.4612
7085.4603
7085.459
7085.4575
7085.456
7085.4541
7085.4519
7085.4495
7085.4469
7085.444
7085.4407
7085.4375
7085.4343
7085.432
7085.4308
7085.4318
7085.436
7085.4451
7085.4611
7085.4858
7085.5218
7085.5718
7085.6401
7085.7312
7085.8507
7086.0039
7086.1973
7086.4378
7086.7333
7087.0936
7087.53
7088.0568
7088.6892
7089.4439
7090.3379
7091.3895
7092.618
7094.0456
7095.6964
7097.5977
7099.7784
7102.2682
7105.0976
7108.298
7111.9026
7115.9438
7120.459
7125.4889
7131.0906
7137.331
7144.3102
7152.2725
7161.4759
7171.759
7104.5777
7104.5775
7104.5771
7104.5767
7104.5765
7104.5759
7104.5755
7104.5752
7104.5746
7104.574
7104.5732
7104.5725
7104.5716
7104.5707
7104.5697
7104.5685
7104.567
7104.5657
7104.564
7104.5625
7104.5608
7104.5593
7104.5582
7104.5577
7104.5587
7104.5621
7104.569
7104.581
7104.6
7104.6289
7104.6709
7104.7295
7104.8102
7104.9187
7105.0612
7105.2457
7105.4816
7105.779
7106.1488
7106.6042
7107.1605
7107.8363
7108.652
7109.6305
7110.7965
7112.176
7113.7978
7115.6937
7117.8993
7120.455
7123.405
7126.7974
7130.6825
7135.1144
7140.1508
7145.856
7152.2993
7159.5591
7167.7249
7176.9094
7187.2433
7198.9131
7212.204
7227.4504
7245.1322
7123.4775
7123.4771
7123.4769
7123.4765
7123.4763
7123.4759
7123.4755
7123.4751
7123.4747
7123.4743
7123.474
7123.4736
7123.4731
7123.4728
7123.4724
7123.472
7123.4716
7123.4713
7123.4713
7123.4715
7123.4719
7123.473
7123.4751
7123.4784
7123.484
7123.493
7123.5067
7123.5274
7123.5578
7123.6014
7123.6621
7123.7456
7123.8582
7124.0068
7124.2006
7124.4505
7124.7689
7125.1691
7125.667
7126.2811
7127.0323
7127.9452
7129.0475
7130.3689
7131.9419
7133.8021
7135.989
7138.5471
7141.526
7144.9814
7148.9744
7153.5716
7158.8447
7164.8709
7171.7355
7179.5323
7188.3663
7198.3555
7209.6354
7222.3717
7236.758
7253.0531
7271.6055
7292.8596
7317.474
7142.0938
7142.0934
7142.0932
7142.093
7142.0928
7142.0924
7142.0921
7142.0921
7142.0919
7142.0917
7142.0918
7142.0918
7142.0921
7142.0922
7142.0928
7142.0933
7142.0943
7142.0954
7142.097
7142.0991
7142.1022
7142.1062
7142.1117
7142.1195
7142.1303
7142.1457
7142.1674
7142.1983
7142.2413
7142.3011
7142.3827
7142.4921
7142.6374
7142.8271
7143.0732
7143.3885
7143.789
7144.2918