/*--------------------------------*- C++ -*----------------------------------*\
  =========                 |
  \\      /  F ield         | OpenFOAM: The Open Source CFD Toolbox
   \\    /   O peration     | Website:  https://openfoam.org
    \\  /    A nd           | Version:  13
     \\/     M anipulation  |
\*---------------------------------------------------------------------------*/
FoamFile
{
    format      ascii;
    class       volScalarField;
    location    "35.29776";
    object      k;
}
// * * * * * * * * * * * * * * * * * * * * * * * * * * * * * * * * * * * * * //

dimensions      [0 2 -2 0 0 0 0];

internalField   nonuniform List<scalar> 
17140
(
8.3518998e-12
2.6244563e-10
2.1460976e-09
9.2294703e-09
2.8401314e-08
7.1667946e-08
1.5892082e-07
3.2207455e-07
6.1117953e-07
1.1033829e-06
1.9159868e-06
3.2253772e-06
5.2943284e-06
8.5112026e-06
1.3445949e-05
2.0929676e-05
3.2167034e-05
4.8893766e-05
7.3595535e-05
0.00010980812
0.00016252232
0.00023871676
0.00034803317
0.00050358064
0.00072278789
0.0010280812
0.0014469012
0.0020101466
0.0027476349
0.0036791137
0.0048011197
0.0060750724
0.0074276526
0.0087714897
0.010035471
0.011182094
0.012204936
0.013116477
0.013937256
0.014689799
0.015396265
0.016078028
0.016756004
0.01745145
0.018186604
0.018983696
0.019864781
0.020854286
0.021978719
0.023267024
0.024751951
0.02647103
0.028465281
0.030772655
0.033428882
0.03647056
0.039930299
0.043785959
0.047996588
0.052147504
0.054613562
0.054187938
0.049234366
0.04197562
0.043194081
8.2834504e-12
2.6029473e-10
2.1285148e-09
9.1539064e-09
2.8169032e-08
7.1082608e-08
1.5762504e-07
3.1945373e-07
6.0621758e-07
1.0944482e-06
1.9005171e-06
3.1994196e-06
5.2518721e-06
8.4432184e-06
1.3339014e-05
2.0764021e-05
3.191379e-05
4.8511118e-05
7.3023405e-05
0.00010896094
0.00016127934
0.00023690955
0.00034542997
0.00049986832
0.00071755372
0.0010208002
0.0014369405
0.0019968081
0.0027302713
0.0036572744
0.0047747025
0.0060444048
0.0073938171
0.0087363211
0.010000592
0.011148552
0.012173289
0.013086953
0.013909889
0.014664526
0.015373009
0.016056769
0.016736854
0.017434751
0.018173062
0.018974498
0.019861746
0.02086
0.021996901
0.023303062
0.024813155
0.026565894
0.028604036
0.030964369
0.03367288
0.036737463
0.040131521
0.043740551
0.04732739
0.050020003
0.05087031
0.048832128
0.043330236
0.032461846
0.032221943
8.1591302e-12
2.5638815e-10
2.0965696e-09
9.0165337e-09
2.7746382e-08
7.0016434e-08
1.5526192e-07
3.1466736e-07
5.9714135e-07
1.0780765e-06
1.8721165e-06
3.1516646e-06
5.1735871e-06
8.3175563e-06
1.3140837e-05
2.0456163e-05
3.1441749e-05
4.7795601e-05
7.1949953e-05
0.00010736568
0.00015892979
0.00023347932
0.00034046685
0.00049275625
0.00070747257
0.0010066935
0.0014175141
0.001970565
0.0026956452
0.0036130429
0.0047206278
0.0059818431
0.0073254472
0.0086650321
0.0099288488
0.011077988
0.012104712
0.013020615
0.013845734
0.014602367
0.015312632
0.015998014
0.016679691
0.017379362
0.01811995
0.01892463
0.019816716
0.020822274
0.021970138
0.023292488
0.02482603
0.02661269
0.028697936
0.031119416
0.033897564
0.037018036
0.040407927
0.043892137
0.047091911
0.048871199
0.048636379
0.04568548
0.040391187
0.026719348
0.019814201
7.9754409e-12
2.5061598e-10
2.0493689e-09
8.813552e-09
2.7121832e-08
6.844076e-08
1.5176892e-07
3.0759093e-07
5.8371895e-07
1.0538576e-06
1.8300875e-06
3.0809637e-06
5.0576304e-06
8.1313216e-06
1.2846953e-05
1.9999307e-05
3.0740695e-05
4.6732007e-05
7.0352707e-05
0.00010498933
0.00015542532
0.00022835547
0.00033304072
0.00048209362
0.00069232259
0.00098542935
0.001388106
0.0019307042
0.0026430734
0.0035461216
0.0046391466
0.0058875164
0.0072217651
0.0085562672
0.0098186689
0.01096874
0.011997505
0.012915735
0.013743035
0.01450152
0.015213268
0.015899809
0.016582441
0.017283049
0.018024829
0.01883137
0.019726594
0.020737419
0.021893912
0.023230083
0.024785401
0.026605663
0.028740892
0.031232828
0.034101463
0.037318878
0.040779354
0.044276628
0.047382743
0.049033835
0.048281731
0.045332175
0.040618625
0.025819731
0.011823057
7.7323163e-12
2.4297616e-10
1.986896e-09
8.544889e-09
2.6295153e-08
6.6354982e-08
1.4714463e-07
2.9822136e-07
5.6594402e-07
1.0217789e-06
1.7744058e-06
2.9872724e-06
4.9039227e-06
7.8843765e-06
1.2457124e-05
1.9393062e-05
2.9809998e-05
4.5319341e-05
6.8230151e-05
0.0001018297
0.00015076304
0.00022153481
0.00032314977
0.00046788489
0.00067212738
0.00095708909
0.0013489682
0.0018777355
0.0025732307
0.0034570816
0.0045302901
0.0057608602
0.0070818839
0.0084088597
0.0096686715
0.010819306
0.011850092
0.012770687
0.013600116
0.014360249
0.015073101
0.015760233
0.016443038
0.017143561
0.017885197
0.018691881
0.019588105
0.020601596
0.021763688
0.023110452
0.02468468
0.026537224
0.028724754
0.031296171
0.034277913
0.037638162
0.041257346
0.044936737
0.048261321
0.050172452
0.049360076
0.046957969
0.042445168
0.026240313
0.0091887913
7.4352071e-12
2.3363997e-10
1.9105512e-09
8.216568e-09
2.5284878e-08
6.380587e-08
1.4149277e-07
2.8676895e-07
5.4421583e-07
9.8256157e-07
1.7063256e-06
2.8727042e-06
4.7159381e-06
7.5823146e-06
1.1980205e-05
1.8651234e-05
2.867091e-05
4.3589951e-05
6.5631005e-05
9.795942e-05
0.0001450501
0.00021317362
0.00031101887
0.00045044817
0.0006473265
0.00092224935
0.0013007685
0.0018123378
0.0024867133
0.0033463199
0.0043942612
0.0056018185
0.006905372
0.0082219916
0.009477733
0.010628363
0.011661039
0.012583968
0.013415415
0.014176924
0.014890409
0.015577435
0.01625946
0.016958652
0.01769853
0.018503251
0.019397824
0.020410713
0.021574509
0.022927528
0.024516402
0.026398161
0.028638033
0.031296546
0.034412345
0.037961339
0.041847936
0.046004067
0.049952012
0.052513384
0.051948158
0.050015239
0.044101168
0.02406157
0.0074423982
7.0882465e-12
2.2273728e-10
1.821397e-09
7.8331566e-09
2.4105066e-08
6.0828907e-08
1.3489206e-07
2.7339326e-07
5.1883732e-07
9.3675289e-07
1.626797e-06
2.7388591e-06
4.4963033e-06
7.229359e-06
1.1422865e-05
1.7784195e-05
2.7339346e-05
4.1567953e-05
6.2591387e-05
9.3431948e-05
0.00013836464
0.00020338448
0.0002968074
0.00043000399
0.00061821553
0.00088129409
0.0012439986
0.0017351211
0.0023842403
0.0032146258
0.0042317723
0.0054108334
0.0066922413
0.0079952052
0.009245007
0.010394808
0.011429091
0.01235423
0.013187509
0.013950039
0.014663577
0.01534966
0.016029763
0.016726106
0.01746227
0.018262505
0.019152192
0.020160432
0.021321008
0.022674575
0.02427201
0.026177484
0.028466545
0.031215697
0.034479202
0.038270481
0.042558528
0.047377423
0.052094057
0.055226658
0.054931716
0.052426746
0.043535265
0.018337532
0.0056021624
6.6966942e-12
2.1043337e-10
1.7207843e-09
7.4004658e-09
2.2773597e-08
5.7469203e-08
1.2744248e-07
2.5829683e-07
4.9019257e-07
8.8504563e-07
1.5370219e-06
2.5877578e-06
4.2483296e-06
6.8308214e-06
1.0793472e-05
1.6804928e-05
2.5835176e-05
3.9283389e-05
5.9156212e-05
8.8313735e-05
0.00013080397
0.00019230843
0.00028071764
0.0004068391
0.00058519573
0.00083477539
0.0011793993
0.001647043
0.0022669814
0.0030633075
0.0040441067
0.0051889278
0.0064430382
0.0077284857
0.0089699916
0.010117801
0.011153202
0.0120803
0.012915126
0.013678218
0.014391105
0.01507524
0.015752059
0.016443758
0.017173864
0.017966608
0.018847526
0.019846199
0.020997448
0.022344234
0.023941889
0.025862214
0.02819228
0.031027346
0.034439487
0.038485159
0.043233268
0.048662643
0.054067918
0.057438028
0.056984764
0.052884612
0.037186684
0.012026195
0.0036447682
6.2673306e-12
1.9694126e-10
1.6104548e-09
6.9259854e-09
2.131352e-08
5.3784917e-08
1.1927297e-07
2.4174091e-07
4.5877722e-07
8.2833432e-07
1.4385531e-06
2.4220127e-06
3.9763028e-06
6.3935864e-06
1.0102892e-05
1.5730324e-05
2.418431e-05
3.6775547e-05
5.5384424e-05
8.2692336e-05
0.00012249689
0.00018013306
0.0002630199
0.00038133833
0.00054880708
0.00078343702
0.0011079699
0.0015494007
0.0021365398
0.0028942089
0.0038331749
0.0049378004
0.0061589609
0.0074223767
0.0086526199
0.0097968271
0.010832576
0.011761204
0.012597163
0.013360231
0.014071608
0.014752596
0.01542453
0.016109481
0.016830774
0.017612478
0.018480046
0.019463277
0.02059779
0.021928664
0.023515576
0.025437694
0.02779426
0.030698674
0.034247931
0.038507573
0.043578254
0.049410772
0.055146787
0.058387465
0.056857833
0.049554396
0.024234444
0.0067476986
0.0020333173
5.8081983e-12
1.8251373e-10
1.4924762e-09
6.4186073e-09
1.9752196e-08
4.9845084e-08
1.1053662e-07
2.2403574e-07
4.2517993e-07
7.6768154e-07
1.3332352e-06
2.2447289e-06
3.6853178e-06
5.9258412e-06
9.3640514e-06
1.4580484e-05
2.2417607e-05
3.4091251e-05
5.1346329e-05
7.6672286e-05
0.00011359734
0.00016708296
0.00024403849
0.00035396459
0.00050970136
0.00072818104
0.0010309312
0.0014437964
0.0019949289
0.0027097091
0.0036015484
0.0046599027
0.0058419732
0.007078107
0.008293373
0.0094317829
0.010466719
0.011396202
0.0122327
0.012994995
0.013703823
0.014380242
0.015045412
0.015721171
0.016430461
0.017196989
0.018045882
0.019006796
0.020115811
0.021419802
0.022982257
0.024889231
0.027251801
0.030195092
0.03383626
0.038220244
0.04333744
0.049128653
0.054735579
0.056631017
0.05251582
0.036834952
0.011100106
0.0031514966
0.00099236614
5.3282991e-12
1.6743364e-10
1.3691614e-09
5.8882785e-09
1.8120232e-08
4.5726944e-08
1.014047e-07
2.0552845e-07
3.9005941e-07
7.0427649e-07
1.2231334e-06
2.0593821e-06
3.3810797e-06
5.436755e-06
8.5914302e-06
1.3377939e-05
2.0569664e-05
3.1283027e-05
4.712085e-05
7.0371043e-05
0.00010427856
0.00015341123
0.00022413962
0.00032524219
0.00046861981
0.00067003927
0.00094969088
0.0013320988
0.0018445377
0.0025127013
0.0033524716
0.0043584998
0.0054949182
0.0066977356
0.0078934211
0.0090230871
0.010055521
0.010984834
0.011821031
0.01258159
0.013286608
0.013956777
0.014612988
0.015276729
0.015970357
0.016716966
0.017541082
0.0184718
0.019545261
0.020809767
0.022332015
0.024206714
0.02655219
0.029495224
0.033137752
0.037464875
0.042302938
0.047471391
0.051092306
0.049541691
0.040022307
0.014711319
0.0043092984
0.0012946642
0.0004562283
4.8372517e-12
1.5200322e-10
1.2429816e-09
5.345627e-09
1.6450337e-08
4.1513032e-08
9.2060257e-08
1.8659e-07
3.5411968e-07
6.3939029e-07
1.1104549e-06
1.8696888e-06
3.0696887e-06
4.936135e-06
7.8005212e-06
1.2146798e-05
1.8677524e-05
2.8407142e-05
4.2792597e-05
6.3914649e-05
9.4726627e-05
0.00013939024
0.00020371839
0.00029573853
0.00042636808
0.00061013985
0.00086580078
0.0012163927
0.0016880761
0.0023065469
0.0030898435
0.0040377069
0.0051216249
0.0062843137
0.0074548001
0.0085718335
0.009599366
0.010526996
0.011361702
0.012119278
0.012818945
0.013480877
0.014125567
0.014774022
0.015447816
0.016169131
0.016961579
0.017853266
0.018880033
0.020091415
0.021559755
0.023391221
0.025699839
0.028604934
0.032159911
0.036218682
0.039973622
0.042388005
0.040447302
0.032697749
0.014248829
0.0045727888
0.0014520749
0.00051020378
0.00023133609
4.3449054e-12
1.3653199e-10
1.1164683e-09
4.8015397e-09
1.4776012e-08
3.7287898e-08
8.2690777e-08
1.6760043e-07
3.1808206e-07
5.7432535e-07
9.9746206e-07
1.6794578e-06
2.7573987e-06
4.4340374e-06
7.0072139e-06
1.0911799e-05
1.677921e-05
2.552139e-05
3.8448537e-05
5.743279e-05
8.5133303e-05
0.00012530116
0.00018318361
0.00026604269
0.0003837864
0.00054966669
0.00078090362
0.0010989116
0.0015284962
0.0020949952
0.0028181582
0.0037024841
0.0047269886
0.0058420506
0.0069806221
0.0080799932
0.0090992919
0.010023049
0.010854584
0.011607536
0.012299948
0.012951273
0.013581445
0.014210821
0.014860028
0.015549985
0.016303082
0.017146079
0.018114255
0.019260517
0.020671731
0.022458277
0.024716846
0.02752352
0.030765868
0.033612259
0.03357222
0.029988142
0.01962056
0.0099204811
0.0040922701
0.001418657
0.0005144377
0.00023864987
0.00015412317
3.8609436e-12
1.2132422e-10
9.9210905e-10
4.2667152e-09
1.3130182e-08
3.313463e-08
7.348054e-08
1.4893328e-07
2.8265551e-07
5.10362e-07
8.8637859e-07
1.492434e-06
2.4503592e-06
3.9403524e-06
6.2271404e-06
9.6972874e-06
1.4912157e-05
2.2682701e-05
3.4174411e-05
5.1053457e-05
7.5688091e-05
0.00011142241
0.00016294113
0.00023674154
0.00034171581
0.0004898126
0.00069666932
0.00098195382
0.001368889
0.0018820664
0.0025423941
0.003358571
0.0043169991
0.0053764608
0.0064753099
0.00755067
0.0085572142
0.009473986
0.010299981
0.011046117
0.011728871
0.012366727
0.012978847
0.013584695
0.014203838
0.014855572
0.015560812
0.01634489
0.017242765
0.018322481
0.019684168
0.021430083
0.023599824
0.026003689
0.027768483
0.026291095
0.020928435
0.01059222
0.0056115512
0.0027522322
0.0011857513
0.00048672925
0.00023429236
0.00015589883
0.00013021448
3.3944477e-12
1.0666529e-10
8.7223783e-10
3.7511909e-09
1.1543737e-08
2.913119e-08
6.4602453e-08
1.3093905e-07
2.4850541e-07
4.4870185e-07
7.7929202e-07
1.3121334e-06
2.1543446e-06
3.4643691e-06
5.4749869e-06
8.5261426e-06
1.3111565e-05
1.9944645e-05
3.0050965e-05
4.4897326e-05
6.6569945e-05
9.8017424e-05
0.00014337609
0.00020839408
0.00030096154
0.00043172754
0.00061472317
0.0008677859
0.0012123571
0.0016718951
0.0022678436
0.0030123399
0.0038986819
0.0048944478
0.0059448208
0.0069883965
0.0079762152
0.0088816705
0.0096987963
0.010435142
0.01110514
0.011725983
0.01231579
0.012892851
0.013475406
0.014080965
0.014728883
0.01544337
0.01626672
0.017290195
0.018604346
0.020271478
0.022021599
0.022479349
0.02008396
0.01265563
0.0063641064
0.0030657775
0.0015728148
0.00079751147
0.00039729252
0.0002194813
0.00015069141
0.00013074475
0.00012143545
2.953498e-12
9.2809129e-11
7.5893139e-10
3.2638995e-09
1.004417e-08
2.5346962e-08
5.6210415e-08
1.1392973e-07
2.1622398e-07
3.9041458e-07
6.7806079e-07
1.1416864e-06
1.8744973e-06
3.0143615e-06
4.7638381e-06
7.418758e-06
1.1408826e-05
1.7355024e-05
2.6150316e-05
3.9072309e-05
5.7939154e-05
8.5322719e-05
0.00012483526
0.00018150576
0.00026225579
0.00037646515
0.00053656971
0.00075853525
0.0010618681
0.0014685383
0.001999878
0.0026705509
0.0034799138
0.0044042719
0.0053968074
0.0063994373
0.0073608894
0.0082491399
0.0090527598
0.0097752488
0.010428411
0.011027715
0.01158987
0.012131689
0.012669571
0.013219188
0.013798787
0.014432857
0.015193642
0.016156505
0.017351505
0.018538668
0.018058661
0.01511533
0.0077050282
0.0037695866
0.0018344016
0.0009092699
0.00049149873
0.00028821039
0.00018698711
0.00014358192
0.00012524479
0.00012123264
0.00011515997
2.544803e-12
7.9966529e-11
6.5391328e-10
2.8122523e-09
8.6542888e-09
2.1839513e-08
4.8432114e-08
9.8164203e-08
1.8630273e-07
3.36388e-07
5.8422758e-07
9.8369201e-07
1.6150876e-06
2.5972024e-06
4.1045669e-06
6.392087e-06
9.8300491e-06
1.4953634e-05
2.2532568e-05
3.3668473e-05
4.9929772e-05
7.3536619e-05
0.00010761053
0.00015650406
0.00022622189
0.00032493039
0.00046351659
0.00065608048
0.00092009851
0.0012757571
0.0017436593
0.0023400031
0.0030690727
0.0039153107
0.0048406046
0.0057920051
0.0067176882
0.007580958
0.008364705
0.0090677426
0.009698585
0.010270398
0.010797931
0.011296047
0.011778567
0.012258979
0.012754617
0.013304827
0.014004104
0.014806186
0.015394222
0.01437095
0.010821079
0.0050895044
0.00233281
0.001122229
0.0005754009
0.00032360764
0.00021003422
0.00015659166
0.00013104781
0.00012124197
0.0001164843
0.00011471216
0.00011008136
2.1734268e-12
6.8296605e-11
5.5848431e-10
2.4018443e-09
7.3913122e-09
1.8652304e-08
4.1363952e-08
8.3837927e-08
1.5911276e-07
2.8729254e-07
4.9895756e-07
8.4011359e-07
1.379342e-06
2.2180865e-06
3.5053943e-06
5.4589547e-06
8.3950027e-06
1.2770628e-05
1.9243324e-05
2.8754277e-05
4.2643934e-05
6.2810729e-05
9.1925997e-05
0.0001337192
0.00019334527
0.0002778357
0.00039660812
0.00056195029
0.00078927987
0.0010967875
0.0015038076
0.0020270871
0.002674511
0.0034375921
0.0042869694
0.005176277
0.0060551547
0.0068835322
0.0076388392
0.0083147294
0.0089157356
0.0094519646
0.0099354184
0.010377925
0.010789727
0.011180913
0.011566089
0.012027142
0.012559494
0.012635204
0.011294615
0.0071719413
0.0034086551
0.001555004
0.00073519994
0.00038883732
0.00023777541
0.00016858347
0.00013696638
0.00012228871
0.00011550366
0.00011389297
0.00011101629
0.00010958463
0.00010589649
1.8426308e-12
5.7901834e-11
4.7348249e-10
2.0362801e-09
6.2663343e-09
1.5813334e-08
3.506804e-08
7.1076829e-08
1.3489319e-07
2.435602e-07
4.2300149e-07
7.1221638e-07
1.1693401e-06
1.8803627e-06
2.9716225e-06
4.6276379e-06
7.116454e-06
1.0825509e-05
1.6312129e-05
2.4374184e-05
3.6148212e-05
5.3244351e-05
7.7929446e-05
0.00011337094
0.00016395296
0.00023566886
0.00033657459
0.00047724302
0.00067107089
0.00093413684
0.0012840872
0.0017373296
0.0023039783
0.0029811024
0.0037474693
0.004564041
0.0053838488
0.0061652268
0.0068808856
0.0075191442
0.0080798723
0.0085691484
0.008994935
0.0093642836
0.0096815059
0.009949716
0.010191647
0.010444515
0.010229863
0.0086592676
0.0046664059
0.0022398573
0.0010520085
0.00051754922
0.00028757147
0.00019092272
0.00014784418
0.00012745524
0.00011759221
0.00011280558
0.00011057485
0.00010874722
0.00010659049
0.00010539653
0.00010217701
1.5537878e-12
4.8825382e-11
3.9926121e-10
1.7170792e-09
5.2840329e-09
1.3334416e-08
2.9570597e-08
5.9934106e-08
1.1374511e-07
2.0537377e-07
3.5667746e-07
6.0053718e-07
9.8596593e-07
1.5854576e-06
2.5055163e-06
3.9016842e-06
5.9999002e-06
9.126722e-06
1.3751875e-05
2.0547794e-05
3.0472338e-05
4.4882596e-05
6.5689508e-05
9.5564247e-05
0.00013820678
0.00019868191
0.00028381346
0.00040259377
0.00056649847
0.00078947707
0.0010872099
0.0014750342
0.0019639623
0.0025549311
0.0032333114
0.0039675932
0.0047156072
0.0054359355
0.0060978012
0.0066844086
0.0071903119
0.007616269
0.0079641869
0.0082335085
0.0084173702
0.0085153311
0.0084946011
0.0080395334
0.0063269088
0.003207539
0.0014915068
0.00071745714
0.00037638805
0.00022900544
0.00016554771
0.00013751006
0.0001233549
0.0001160512
0.00011201369
0.00010975684
0.00010637775
0.00010447366
0.00010266438
0.00010184396
9.9422963e-05
1.3062797e-12
4.1047826e-11
3.3566159e-10
1.4435587e-09
4.4423077e-09
1.1210253e-08
2.4859884e-08
5.0385993e-08
9.5623477e-08
1.726521e-07
2.9984488e-07
5.0484002e-07
8.2883355e-07
1.3327538e-06
2.1061072e-06
3.2796001e-06
5.0430752e-06
7.6708836e-06
1.1557595e-05
1.7267955e-05
2.5606255e-05
3.7711765e-05
5.5188361e-05
8.0277626e-05
0.00011608439
0.00016685992
0.00023833675
0.0003380838
0.00047579866
0.00066336226
0.00091433842
0.0012424371
0.001658423
0.0021653848
0.0027535988
0.0033980693
0.0040619894
0.0047058033
0.005296748
0.0058134459
0.0062444855
0.0065834772
0.0068236938
0.0069515203
0.0069399157
0.006779612
0.0061407342
0.0042519307
0.0021322375
0.001030216
0.00050689425
0.00028429098
0.00019103012
0.00015098139
0.00013221596
0.00012260532
0.0001170191
0.00011296609
0.00010999665
0.00010595754
0.00010343609
0.00010149693
9.9617785e-05
9.8822772e-05
9.6505247e-05
1.0974095e-12
3.4484401e-11
2.8199023e-10
1.2127363e-09
3.7319811e-09
9.4176879e-09
2.0884554e-08
4.2328447e-08
8.0330881e-08
1.4503886e-07
2.5188514e-07
4.2408388e-07
6.9623488e-07
1.119507e-06
1.7690626e-06
2.7546482e-06
4.2356384e-06
6.4423066e-06
9.7057426e-06
1.4499671e-05
2.1498461e-05
3.1656824e-05
4.63179e-05
6.7357349e-05
9.7370734e-05
0.00013990845
0.00019975348
0.00028321713
0.00039838758
0.00055519501
0.00076504638
0.0010396526
0.0013886122
0.0018155799
0.0023137763
0.002863113
0.003431788
0.0039830176
0.0044833492
0.0049074187
0.0052370735
0.0054568037
0.0055467194
0.0054795728
0.0052107975
0.0044829849
0.002716156
0.0013969165
0.00070143343
0.00037201497
0.00022589912
0.0001662313
0.00014171612
0.00012977217
0.00012355994
0.00011879313
0.00011463854
0.00011055894
0.00010606693
0.00010349203
0.00010084558
9.8981534e-05
9.6836969e-05
9.5982573e-05
9.4191691e-05
9.2242169e-13
2.8985675e-11
2.3702523e-10
1.0193573e-09
3.1368827e-09
7.9159132e-09
1.7554115e-08
3.5578053e-08
6.7519242e-08
1.2190557e-07
2.1170676e-07
3.5643101e-07
5.8515268e-07
9.4086548e-07
1.4867158e-06
2.314891e-06
3.5592371e-06
5.413086e-06
8.1543011e-06
1.2180236e-05
1.8056136e-05
2.6581449e-05
3.8879474e-05
5.6516303e-05
8.1654611e-05
0.00011724496
0.00016724962
0.00023687711
0.00033277341
0.00046305936
0.00063701841
0.00086413736
0.0011521556
0.0015039633
0.0019138443
0.0023646999
0.002828622
0.0032716984
0.0036605757
0.0039662201
0.0041632673
0.0042246834
0.0041310519
0.0038088419
0.0030455148
0.0017356504
0.0009006803
0.00047865083
0.00027683416
0.00018743177
0.00014974204
0.00013553026
0.00012863749
0.00012491885
0.00012094484
0.00011631643
0.00011115109
0.00010685043
0.00010415209
0.00010119348
9.8735206e-05
9.6777528e-05
9.5142438e-05
9.3917203e-05
9.2177585e-05
7.746997e-13
2.434374e-11
1.9906662e-10
8.5611067e-10
2.634514e-09
6.6481537e-09
1.4742659e-08
2.9879613e-08
5.6704207e-08
1.0237765e-07
1.7779064e-07
2.9932337e-07
4.9138641e-07
7.9007314e-07
1.2483873e-06
1.943693e-06
2.9882813e-06
4.5442821e-06
6.8445794e-06
1.0221937e-05
1.5149196e-05
2.2294107e-05
3.2593012e-05
4.7347798e-05
6.8349804e-05
9.8031386e-05
0.00013963867
0.00019740431
0.00027667191
0.00038387848
0.00052623559
0.00071087635
0.00094320844
0.0012243643
0.0015481429
0.0018986896
0.0022506895
0.0025727374
0.0028319273
0.0029962594
0.0030327889
0.0029232288
0.0026044793
0.0018863325
0.0010632133
0.00058038677
0.00032795257
0.00021206749
0.0001595758
0.00013836497
0.00013033272
0.00012785341
0.00012588366
0.00012319802
0.00011764119
0.00011193732
0.00010794962
0.00010512651
0.00010171816
9.9075554e-05
9.676029e-05
9.5017388e-05
9.3024882e-05
9.2057661e-05
9.0585219e-05
6.4623389e-13
2.0306903e-11
1.6605614e-10
7.1414433e-10
2.1976336e-09
5.5456629e-09
1.2297726e-08
2.4924097e-08
4.7299229e-08
8.5395892e-08
1.4829693e-07
2.4966241e-07
4.0984724e-07
6.5894371e-07
1.0411338e-06
1.620886e-06
2.4917345e-06
3.788645e-06
5.705317e-06
8.5181923e-06
1.2619425e-05
1.856155e-05
2.7116913e-05
3.9354803e-05
5.6738027e-05
8.1237404e-05
0.00011545551
0.00016273746
0.00022722295
0.00031375723
0.00042752965
0.00057326238
0.00075377047
0.00096786419
0.0012079678
0.0014584663
0.001695919
0.001891463
0.0020134549
0.0020276301
0.0019196144
0.0016213355
0.0010841375
0.00063150199
0.00036466918
0.00022992338
0.00016481087
0.00014031427
0.00012896057
0.00012706572
0.00012716784
0.0001267969
0.00012492225
0.00011938912
0.00011318321
0.00010953245
0.00010633015
0.00010257016
9.9811622e-05
9.7348412e-05
9.5241483e-05
9.34699e-05
9.1731526e-05
9.0531487e-05
8.9205323e-05
5.2879204e-13
1.6616475e-11
1.358783e-10
5.8436015e-10
1.7982424e-09
4.5377802e-09
1.0062605e-08
2.0393847e-08
3.8701359e-08
6.9871414e-08
1.2133399e-07
2.0426208e-07
3.3530186e-07
5.3905711e-07
8.5163961e-07
1.3257176e-06
2.0376538e-06
3.0975333e-06
4.6631391e-06
6.9592413e-06
1.0303883e-05
1.5143609e-05
2.2099619e-05
3.2026307e-05
4.6082055e-05
6.580845e-05
9.3206933e-05
0.0001307892
0.00018155731
0.00024884079
0.00033588454
0.00044506969
0.00057667374
0.000727226
0.00088785451
0.0010434136
0.0011729036
0.0012510718
0.0012487006
0.0011546302
0.00091687766
0.00059913768
0.00036312739
0.00022995899
0.00016036777
0.00013368436
0.00012196575
0.00012233378
0.00012432607
0.00012797653
0.0001281831
0.00012659431
0.00012126607
0.00011453071
0.00011084726
0.00010730795
0.00010344585
0.00010075694
9.8071737e-05
9.57932e-05
9.3702939e-05
9.1945194e-05
9.027669e-05
8.9232515e-05
8.815032e-05
4.1620177e-13
1.3078498e-11
1.0694707e-10
4.5993704e-10
1.415349e-09
3.5715307e-09
7.9198111e-09
1.6050722e-08
3.0458584e-08
5.4987923e-08
9.5483799e-08
1.6073403e-07
2.6382751e-07
4.241024e-07
6.6992613e-07
1.0426396e-06
1.602117e-06
2.4345431e-06
3.6631872e-06
5.4631485e-06
8.0812119e-06
1.1862009e-05
1.7281438e-05
2.4987476e-05
3.5846537e-05
5.0989662e-05
7.1845877e-05
0.00010013881
0.00013780646
0.00018678416
0.00024857661
0.0003235552
0.00041000155
0.00050296504
0.00059340538
0.00066795146
0.00070929458
0.00069963079
0.000626599
0.00047047172
0.00031137561
0.00020615109
0.00014383757
0.00011721333
0.00010603271
0.00010959381
0.00011455652
0.00012453504
0.000130231
0.00013009342
0.00012848154
0.00012307209
0.00011586513
0.0001122104
0.0001083979
0.00010484261
0.00010202424
9.9053244e-05
9.6512143e-05
9.4277649e-05
9.2395939e-05
9.0832834e-05
8.918198e-05
8.8168202e-05
8.7177078e-05
3.070942e-13
9.6499589e-12
7.8910701e-11
3.3936226e-10
1.0442983e-09
2.635168e-09
5.843299e-09
1.1841942e-08
2.2470758e-08
4.0564682e-08
7.0432666e-08
1.1855066e-07
1.9455925e-07
3.1269202e-07
4.9380839e-07
7.6826776e-07
1.1799613e-06
1.7919132e-06
2.6939683e-06
4.0131741e-06
5.9275002e-06
8.6834238e-06
1.2617475e-05
1.8180815e-05
2.5963861e-05
3.6714275e-05
5.1335702e-05
7.0846033e-05
9.6263705e-05
0.00012838031
0.00016738207
0.00021233144
0.00026051009
0.00030688041
0.00034379068
0.00036132039
0.00034934636
0.0003006824
0.00022441799
0.00015906196
0.00011494724
9.3990659e-05
8.47961e-05
8.8508942e-05
9.5949743e-05
0.00011191113
0.0001285902
0.0001321942
0.00013211635
0.00013044763
0.00012484558
0.0001173971
0.00011346791
0.00010969078
0.00010620345
0.00010320687
9.9900277e-05
9.7340848e-05
9.501365e-05
9.3092098e-05
9.125838e-05
8.9615786e-05
8.8081133e-05
8.7195329e-05
8.6332283e-05
2.0629356e-13
6.4824517e-12
5.3008868e-11
2.2796741e-10
7.014987e-10
1.7701051e-09
3.9249263e-09
7.953746e-09
1.5091508e-08
2.7240629e-08
4.729135e-08
7.9584703e-08
1.3057757e-07
2.0979204e-07
3.3116106e-07
5.1492047e-07
7.9024286e-07
1.1988587e-06
1.7999539e-06
2.6766478e-06
3.9443009e-06
5.7606874e-06
8.3375688e-06
1.19522e-05
1.6955505e-05
2.3770756e-05
3.2872407e-05
4.4729471e-05
5.9693753e-05
7.7815949e-05
9.8584167e-05
0.00012060184
0.00014131818
0.00015689442
0.00016236233
0.00015390086
0.00013009173
0.00010158546
7.9541425e-05
6.724594e-05
6.1743493e-05
6.5326667e-05
7.227337e-05
8.7950824e-05
0.00011630358
0.00013057222
0.00013459915
0.00013430151
0.00013257004
0.00012680381
0.00011901833
0.00011492335
0.00011091528
0.00010762726
0.0001043195
0.00010111448
9.8449598e-05
9.6047164e-05
9.3850664e-05
9.1859838e-05
9.0121741e-05
8.8665227e-05
8.7262758e-05
8.6397537e-05
8.5631601e-05
1.2250081e-13
3.8493919e-12
3.1477432e-11
1.3536861e-10
4.1654419e-10
1.0510304e-09
2.3303477e-09
4.7219615e-09
8.9583928e-09
1.6167476e-08
2.8061414e-08
4.7209325e-08
7.7427435e-08
1.2433352e-07
1.9612798e-07
3.0468274e-07
4.6703984e-07
7.0743889e-07
1.0599982e-06
1.5721479e-06
2.3088203e-06
3.3571852e-06
4.831285e-06
6.8751488e-06
9.661721e-06
1.338312e-05
1.8225567e-05
2.4320891e-05
3.1666892e-05
4.0014362e-05
4.8736705e-05
5.6716801e-05
6.2312642e-05
6.3375648e-05
5.9710942e-05
5.2664649e-05
4.5904279e-05
4.0805056e-05
4.0106958e-05
4.4125783e-05
5.0014023e-05
6.3052898e-05
8.9792084e-05
0.00011924248
0.00013242298
0.00013666454
0.00013641874
0.00013468993
0.00012890036
0.00012079114
0.00011646414
0.00011226652
0.00010887373
0.000105648
0.00010238398
9.9696766e-05
9.6932555e-05
9.4648926e-05
9.252561e-05
9.0829243e-05
8.9210951e-05
8.7742567e-05
8.6346062e-05
8.5653997e-05
8.4955272e-05
6.2704182e-14
1.9703759e-12
1.6112133e-11
6.9288821e-11
2.1320142e-10
5.3792022e-10
1.1925695e-09
2.4161779e-09
4.5830871e-09
8.269199e-09
1.4347863e-08
2.4127609e-08
3.9548357e-08
6.3458376e-08
1.0000094e-07
1.551468e-07
2.3741461e-07
3.5882284e-07
5.3610598e-07
7.9219312e-07
1.1578659e-06
1.6733531e-06
2.3893371e-06
3.3663887e-06
4.6712112e-06
6.3673618e-06
8.4974332e-06
1.1054496e-05
1.3942927e-05
1.6935196e-05
1.964096e-05
2.1509277e-05
2.2149667e-05
2.1995159e-05
2.1638201e-05
2.1644445e-05
2.3129699e-05
2.6064539e-05
3.2570423e-05
4.3173094e-05
6.2155212e-05
9.2499461e-05
0.00011916289
0.00013287113
0.00013852084
0.0001385819
0.00013689421
0.00013122002
0.0001227148
0.00011815665
0.000113709
0.00011021625
0.0001069034
0.00010383777
0.00010083548
9.8061056e-05
9.5591998e-05
9.3530181e-05
9.1611977e-05
8.9883803e-05
8.8259704e-05
8.6933432e-05
8.5752006e-05
8.5068421e-05
8.4395671e-05
2.7440412e-14
8.6226803e-13
7.0508524e-12
3.032077e-11
9.3292271e-11
2.3536323e-10
5.217379e-10
1.0568737e-09
2.004236e-09
3.6150411e-09
6.2697128e-09
1.0537142e-08
1.7258566e-08
2.7664932e-08
4.3538825e-08
6.7433888e-08
1.0296509e-07
1.5518012e-07
2.3101164e-07
3.3978615e-07
4.9371772e-07
7.08232e-07
1.0018359e-06
1.3950717e-06
1.9078827e-06
2.5547026e-06
3.3367539e-06
4.2322257e-06
5.1873797e-06
6.1155121e-06
6.9387395e-06
7.7415623e-06
8.7220055e-06
1.0073077e-05
1.1888212e-05
1.4648657e-05
1.9970039e-05
2.8766602e-05
4.3114596e-05
6.4094786e-05
9.1874264e-05
0.00011681249
0.00013217676
0.00013997947
0.00014073042
0.0001391372
0.00013371917
0.00012481582
0.00011999178
0.00011528174
0.00011160251
0.0001081997
0.00010514329
0.00010219114
9.9216834e-05
9.6798082e-05
9.4421858e-05
9.2439474e-05
9.0490884e-05
8.8956199e-05
8.7509699e-05
8.6222741e-05
8.4982567e-05
8.4402604e-05
8.3822162e-05
1.0948799e-14
3.4404656e-13
2.8132749e-12
1.2097636e-11
3.7220955e-11
9.3896897e-11
2.0812366e-10
4.2153132e-10
7.9922468e-10
1.4411698e-09
2.498569e-09
4.1971794e-09
6.8701534e-09
1.1003696e-08
1.7299524e-08
2.675859e-08
4.0790264e-08
6.1349441e-08
9.1099408e-08
1.3358892e-07
1.9341564e-07
2.7632381e-07
3.8915407e-07
5.3954706e-07
7.3533552e-07
9.8374356e-07
1.2909808e-06
1.6628791e-06
2.1080588e-06
2.6494637e-06
3.3514661e-06
4.3737761e-06
5.9578036e-06
8.4023795e-06
1.222503e-05
1.8823566e-05
2.9142927e-05
4.4034302e-05
6.3899856e-05
8.8697328e-05
0.00011324815
0.00013234793
0.00014161378
0.00014285825
0.00014141937
0.00013643471
0.00012709452
0.00012200172
0.00011698095
0.00011310305
0.00010954596
0.00010648415
0.00010351812
0.00010064504
9.7913814e-05
9.5523767e-05
9.3275335e-05
9.144415e-05
8.9723363e-05
8.8224002e-05
8.6708423e-05
8.5525126e-05
8.4503765e-05
8.4016554e-05
8.3385204e-05
5.3861875e-15
1.6925148e-13
1.3839774e-12
5.9514573e-12
1.8311519e-11
4.6196892e-11
1.0240491e-10
2.0743567e-10
3.9336725e-10
7.0949394e-10
1.2304609e-09
2.0679023e-09
3.386948e-09
5.4294086e-09
8.5459938e-09
1.3240531e-08
2.022979e-08
3.0523153e-08
4.5526888e-08
6.7178558e-08
9.8118867e-08
1.419133e-07
2.0334326e-07
2.8885047e-07
4.0729766e-07
5.7146671e-07
8.0098276e-07
1.1276885e-06
1.6046592e-06
2.3178744e-06
3.4161662e-06
5.1670052e-06
7.9734368e-06
1.2422299e-05
1.9401672e-05
2.959455e-05
4.3708655e-05
6.2471419e-05
8.6071037e-05
0.00011141864
0.00013349219
0.00014338504
0.00014503348
0.00014374512
0.00013934474
0.00012956755
0.00012418613
0.00011884644
0.00011472637
0.00011099974
0.00010782822
0.00010484578
0.00010200085