/*--------------------------------*- C++ -*----------------------------------*\
  =========                 |
  \\      /  F ield         | OpenFOAM: The Open Source CFD Toolbox
   \\    /   O peration     | Website:  https://openfoam.org
    \\  /    A nd           | Version:  13
     \\/     M anipulation  |
\*---------------------------------------------------------------------------*/
FoamFile
{
    format      ascii;
    class       volScalarField;
    location    "8.499689";
    object      pMean;
}
// * * * * * * * * * * * * * * * * * * * * * * * * * * * * * * * * * * * * * //

dimensions      [0 2 -2 0 0 0 0];

internalField   nonuniform List<scalar> 
17140
(
5.5794955
5.5793154
5.579098
5.5788774
5.5786391
5.5783797
5.5780991
5.5777968
5.5774721
5.5771246
5.5767541
5.5763603
5.5759427
5.5755005
5.5750315
5.5745321
5.5739954
5.5734106
5.5727607
5.5720203
5.5711538
5.5701121
5.5688306
5.5672254
5.565189
5.5626069
5.559406
5.5555071
5.5507294
5.5448584
5.5376927
5.5290024
5.5185362
5.5060255
5.4911892
5.4737441
5.4534244
5.4300119
5.4033822
5.3735715
5.3408659
5.3059063
5.2698232
5.2343536
5.2018351
5.1751677
5.157474
5.1514911
5.1594608
5.1826437
5.2209872
5.2725933
5.3352193
5.4058216
5.4794183
5.5506566
5.612806
5.6579857
5.6795352
5.6756058
5.6503605
5.6101032
5.5629694
5.5110213
5.4594499
5.5764383
5.5762622
5.5760498
5.5758339
5.5756006
5.5753467
5.5750719
5.5747758
5.5744578
5.5741175
5.5737545
5.5733689
5.57296
5.5725271
5.5720683
5.5715799
5.5710555
5.5704842
5.5698494
5.5691261
5.5682789
5.567259
5.5660022
5.5644247
5.5624197
5.5598705
5.5567016
5.5528354
5.5480933
5.5422586
5.5351286
5.5264726
5.5160379
5.5035541
5.4887382
5.4713044
5.4509839
5.4275553
5.4008904
5.371022
5.338233
5.3031638
5.266946
5.2313192
5.1986456
5.1718095
5.1539228
5.147866
5.1558515
5.1790267
5.2172932
5.2689982
5.3317385
5.4022613
5.4758829
5.5472143
5.6096191
5.6551862
5.6771828
5.6737108
5.6488812
5.608992
5.5621962
5.5105442
5.4592728
5.5690849
5.5689184
5.5687179
5.5685134
5.5682922
5.5680514
5.5677907
5.5675096
5.5672076
5.5668843
5.5665396
5.5661734
5.5657853
5.5653747
5.56494
5.5644778
5.5639822
5.5634428
5.5628437
5.5621606
5.5613588
5.5603904
5.5591916
5.5576798
5.555749
5.5532786
5.5501867
5.5463984
5.5417409
5.5359938
5.5289505
5.5203783
5.5100209
5.4976041
5.4828397
5.4654361
5.4451175
5.4216543
5.3949098
5.3649083
5.3319262
5.296602
5.2600727
5.2240906
5.1910517
5.1638678
5.1456739
5.1393811
5.147254
5.1704174
5.2086695
5.2603914
5.3232206
5.3937925
5.4675012
5.5390874
5.6020747
5.6485186
5.6714965
5.6690213
5.6451414
5.6061331
5.5601872
5.5092429
5.4585613
5.5575896
5.5574382
5.5572565
5.5570699
5.5568678
5.5566477
5.5564092
5.5561518
5.555875
5.5555787
5.5552627
5.554927
5.5545716
5.5541959
5.5537989
5.5533776
5.5529267
5.5524367
5.5518926
5.5512713
5.5505392
5.5496496
5.5485399
5.5471287
5.5453116
5.542964
5.5399926
5.5363237
5.5317966
5.5261865
5.5192792
5.5108392
5.500605
5.4882962
5.4736169
5.4562663
5.4359579
5.4124498
5.3855924
5.3553972
5.3221306
5.2864292
5.2494381
5.2129321
5.1793493
5.1516446
5.1330115
5.1264134
5.134127
5.1572569
5.1955397
5.2473598
5.3102903
5.3809093
5.4547338
5.5266563
5.5904418
5.6381149
5.6625171
5.6615316
5.6391453
5.6016224
5.5571114
5.5073885
5.4576985
5.5423454
5.5422143
5.5420576
5.541895
5.5417186
5.5415263
5.5413175
5.541092
5.5408493
5.5405892
5.5403117
5.540017
5.5397052
5.5393761
5.5390291
5.5386618
5.5382696
5.5378442
5.5373717
5.5368305
5.5361886
5.5354008
5.5344061
5.5331248
5.5314547
5.5292701
5.5264603
5.522946
5.5185867
5.5131585
5.5064319
5.4981689
5.4881014
5.4759407
5.4613811
5.4441104
5.4238279
5.4002765
5.3732897
5.342863
5.3092505
5.2730864
5.2355282
5.1983839
5.1641424
5.1358205
5.1166711
5.1097108
5.1172599
5.1404066
5.1788039
5.2308079
5.2939529
5.3647329
5.4387297
5.511049
5.5757465
5.6248479
5.6509268
5.6517701
5.6313219
5.5957877
5.5532039
5.5050786
5.4567053
5.5239918
5.5238852
5.5237589
5.5236258
5.5234809
5.5233227
5.5231505
5.5229641
5.5227632
5.5225475
5.5223173
5.5220728
5.5218143
5.521542
5.5212554
5.520953
5.5206311
5.5202823
5.5198942
5.5194468
5.5189099
5.5182405
5.5173795
5.5162491
5.51475
5.5127584
5.5101442
5.5068135
5.5026491
5.4974364
5.4909272
5.4828787
5.4730158
5.4610403
5.4466354
5.4294751
5.4092433
5.3856647
5.3585533
5.3278862
5.2939034
5.2572367
5.2190583
5.1812198
5.1462679
5.1172943
5.0976134
5.0902934
5.0977081
5.1209415
5.1595652
5.2118771
5.275357
5.3464015
5.420616
5.493341
5.5589668
5.609514
5.6374095
5.6403232
5.6221883
5.5890891
5.5488638
5.5026664
5.4558593
5.5033882
5.5033095
5.5032162
5.5031169
5.5030083
5.5028892
5.5027592
5.5026179
5.5024651
5.5023007
5.502125
5.5019381
5.5017407
5.501533
5.5013151
5.5010858
5.5008421
5.500578
5.5002821
5.4999364
5.4995128
5.4989704
5.4982525
5.4972837
5.4959673
5.4941832
5.4917903
5.4886695
5.4847126
5.4797295
5.4734641
5.4656574
5.4560289
5.4442703
5.430053
5.413037
5.3928894
5.3693156
5.342109
5.3112263
5.2768928
5.2397379
5.200952
5.1624352
5.1267966
5.0971997
5.0770079
5.0693371
5.0766292
5.0999877
5.1389239
5.191685
5.255673
5.3271319
5.4016468
5.4747896
5.5412691
5.5931886
5.6228865
5.6279354
5.6123484
5.5819779
5.5443741
5.5002579
5.4551693
5.4815651
5.4815164
5.4814582
5.4813957
5.4813267
5.4812504
5.4811665
5.4810746
5.4809746
5.4808664
5.4807503
5.4806265
5.4804957
5.4803583
5.4802144
5.4800632
5.4799024
5.4797266
5.4795259
5.4792838
5.4789742
5.4785587
5.4779832
5.4771749
5.47604
5.4744618
5.4723005
5.4694076
5.465659
5.460902
5.4548901
5.4473397
5.4379648
5.4264479
5.4124489
5.3956141
5.3755941
5.3520752
5.3248303
5.2937957
5.2591817
5.2216158
5.1823097
5.1432077
5.1069779
5.0768397
5.056171
5.0481219
5.0552409
5.0787024
5.1179922
5.1712763
5.2358725
5.3078846
5.3828344
5.4564864
5.5237355
5.5768344
5.6080356
5.6152966
5.6023344
5.5748438
5.5399946
5.4980382
5.4547633
5.4596541
5.4596362
5.4596144
5.4595899
5.4595621
5.4595303
5.4594944
5.4594541
5.4594093
5.45936
5.4593063
5.4592487
5.4591876
5.4591232
5.4590558
5.4589848
5.4589078
5.4588202
5.458713
5.4585709
5.4583697
5.4580733
5.4576301
5.4569703
5.4560031
5.4546149
5.4526693
5.4500104
5.4464805
5.4419273
5.436149
5.4288606
5.4197477
5.4084893
5.3947363
5.3781232
5.358286
5.3348937
5.3077001
5.2766229
5.2418587
5.2040339
5.1643806
5.1248758
5.0882331
5.0576889
5.036593
5.0281346
5.0350103
5.0584968
5.098053
5.1518158
5.2170696
5.2896913
5.365134
5.43922
5.5070203
5.5608351
5.5935715
5.6029605
5.5925984
5.5679721
5.5358723
5.4960469
5.4546155
5.4388022
5.4388147
5.4388284
5.4388415
5.4388542
5.4388665
5.4388782
5.4388893
5.4388996
5.4389092
5.4389182
5.4389269
5.4389355
5.4389442
5.438953
5.4389609
5.4389658
5.438963
5.4389439
5.4388943
5.4387911
5.4386002
5.4382724
5.4377408
5.4369176
5.4356925
5.4339321
5.4314817
5.4281714
5.4238229
5.4182425
5.411185
5.4023368
5.3913532
5.3778773
5.3615349
5.3419513
5.3187827
5.2917685
5.2608118
5.2260986
5.188255
5.1485276
5.1089092
5.0721316
5.0414077
5.0200247
5.0112245
5.0178265
5.0412042
5.0809045
5.1351132
5.2009493
5.2740941
5.3499547
5.4243947
5.4926381
5.5471003
5.5808001
5.5912873
5.583468
5.5615637
5.532126
5.4943763
5.4548132
5.4200606
5.420101
5.4201476
5.4201954
5.4202459
5.4202994
5.4203559
5.4204154
5.420478
5.4205437
5.4206125
5.4206847
5.4207603
5.4208392
5.420921
5.4210043
5.4210867
5.4211633
5.4212254
5.421259
5.421242
5.4211416
5.4209106
5.4204844
5.4197782
5.418685
5.4170745
5.4147941
5.411672
5.4075219
5.4021403
5.3952894
5.3866797
5.3759743
5.3628081
5.3467977
5.3275615
5.3047481
5.278089
5.2474789
5.2130988
5.1755751
5.1361589
5.0968426
5.0603426
5.0297971
5.0084309
4.9994958
5.0058664
5.0290758
5.0687636
5.1229867
5.1888954
5.262161
5.3381578
5.4127836
5.4811216
5.5352605
5.5692866
5.5805329
5.5751383
5.5557469
5.528826
5.4930618
5.4553673
5.4042914
5.4043556
5.4044304
5.4045082
5.4045914
5.4046808
5.4047766
5.4048788
5.4049878
5.4051035
5.4052262
5.4053559
5.4054924
5.4056355
5.4057842
5.4059369
5.4060905
5.4062397
5.4063753
5.4064833
5.406542
5.4065191
5.406369
5.406029
5.4054169
5.4044283
5.4029365
5.4007921
5.397824
5.3938445
5.3886499
5.3820061
5.3736394
5.3632255
5.3504046
5.3347977
5.3160257
5.2937361
5.2676585
5.2376879
5.2040054
5.1672362
5.1286211
5.0901267
5.0544095
5.0245104
5.0035802
4.9948172
5.0011337
5.0239983
5.0629629
5.1164339
5.1816628
5.2543496
5.3299196
5.4041412
5.4717729
5.5249992
5.5590095
5.5711867
5.5677564
5.5506196
5.5260474
5.4921808
5.4563704
5.3920653
5.3921477
5.3922441
5.392345
5.3924538
5.3925715
5.3926984
5.392835
5.3929816
5.3931384
5.3933057
5.3934836
5.3936719
5.3938702
5.3940772
5.3942911
5.3945082
5.3947228
5.3949256
5.395102
5.3952305
5.3952795
5.3952042
5.3949434
5.3944167
5.3935222
5.3921353
5.3901101
5.3872805
5.3834578
5.3784362
5.3720011
5.363893
5.3538069
5.3414043
5.3263076
5.3081464
5.2865793
5.2613535
5.2323673
5.1998059
5.1642864
5.1270199
5.0899159
5.0555269
5.0267707
5.0066941
4.9984584
5.0046384
5.0266131
5.0642168
5.1162855
5.1801017
5.2514926
5.3260311
5.3992508
5.4655788
5.5175453
5.5504902
5.5632416
5.5613711
5.5462461
5.5238528
5.4917891
5.4578612
5.383614
5.3837078
5.3838178
5.3839337
5.3840591
5.3841956
5.3843437
5.3845039
5.3846768
5.3848629
5.3850628
5.3852765
5.3855042
5.3857453
5.3859988
5.3862626
5.3865332
5.3868046
5.3870676
5.3873078
5.387504
5.3876254
5.3876287
5.3874543
5.3870233
5.3862352
5.3849672
5.3830754
5.380398
5.3767569
5.3719626
5.3657378
5.3579384
5.348246
5.3363298
5.3218572
5.3044941
5.2839013
5.2598329
5.2322089
5.2012202
5.1674645
5.1321025
5.0969454
5.0643859
5.037182
5.0183402
5.0105816
5.016311
5.0369679
5.0728035
5.122769
5.1844382
5.2538506
5.3267286
5.3982677
5.4624082
5.5119773
5.5435901
5.5566002
5.5560445
5.5426897
5.5223175
5.4919641
5.4599269
5.3787919
5.3788896
5.3790049
5.3791268
5.3792592
5.3794039
5.3795618
5.3797334
5.3799198
5.3801217
5.3803397
5.3805746
5.3808265
5.3810954
5.3813806
5.3816803
5.3819915
5.3823088
5.3826237
5.3829231
5.383187
5.3833867
5.3834811
5.3834137
5.3831088
5.3824692
5.3813748
5.3796832
5.377233
5.3738413
5.3693204
5.3635365
5.3561198
5.3468025
5.3355258
5.3218632
5.3054693
5.286075
5.2634745
5.2375961
5.2086212
5.1771146
5.144157
5.1113966
5.0810297
5.0557273
5.0380394
5.0305369
5.0355503
5.0545451
5.0880706
5.1354069
5.1943186
5.2611787
5.3317516
5.4007721
5.4618215
5.5084563
5.5383548
5.5513259
5.5518205
5.5400057
5.5215092
5.4927686
5.4626104
5.3771585
5.3772535
5.3773666
5.3774855
5.3776153
5.3777579
5.3779141
5.3780849
5.3782715
5.3784748
5.3786959
5.3789358
5.3791953
5.3794747
5.379774
5.3800923
5.3804275
5.3807756
5.3811298
5.3814791
5.3818065
5.3820867
5.3822835
5.3823458
5.3822033
5.3817636
5.380911
5.3795035
5.3773781
5.3743564
5.3702549
5.364888
5.3579656
5.3494687
5.3389535
5.3261656
5.3109704
5.2930946
5.272309
5.2485488
5.22199
5.1931435
5.1629562
5.1328883
5.1050085
5.0815007
5.0647732
5.0573194
5.0612346
5.0782501
5.1091584
5.1534441
5.2092063
5.2730955
5.3407083
5.4062946
5.4633402
5.5066272
5.53468
5.5473859
5.548731
5.5382517
5.5214948
5.494276
5.4659867
5.3779958
5.3780823
5.3781863
5.378295
5.3784141
5.3785456
5.3786903
5.3788494
5.3790242
5.379216
5.379426
5.3796556
5.3799061
5.3801784
5.3804734
5.3807911
5.3811308
5.3814903
5.381865
5.3822473
5.3826242
5.3829759
5.3832725
5.3834711
5.3835115
5.3833118
5.3827633
5.3817321
5.3800601
5.3775665
5.374062
5.369339
5.3632609
5.3555722
5.3460147
5.3345814
5.3208963
5.3047875
5.2860932
5.2647683
5.2409473
5.2150417
5.1878424
5.1606806
5.1351512
5.113251
5.0973092
5.089475
5.0920532
5.1068624
5.1349315
5.175962
5.2283913
5.2889509
5.3529136
5.4140757
5.4667831
5.5062849
5.5325022
5.5448049
5.5468111
5.5374798
5.5223337
5.4965435
5.4700999
5.3805499
5.3806239
5.3807136
5.3808068
5.3809093
5.381023
5.3811489
5.381288
5.3814417
5.3816114
5.3817987
5.3820051
5.3822323
5.3824818
5.3827553
5.3830537
5.3833778
5.3837274
5.3841005
5.3844931
5.3848974
5.3853003
5.3856807
5.3860066
5.3862317
5.3862896
5.3860908
5.3855176
5.3844217
5.3826293
5.3799482
5.376169
5.3711124
5.3645853
5.3564492
5.3464398
5.3345346
5.3205602
5.3042571
5.2856369
5.2647748
5.241968
5.217897
5.1934876
5.1701145
5.1496515
5.1340356
5.1255687
5.1265979
5.1391013
5.1642525
5.2020221
5.2511369
5.3080572
5.3674602
5.4237003
5.4714493
5.5074979
5.5317374
5.5435588
5.5460781
5.5377347
5.5240825
5.4996284
5.4750156
5.3840394
5.3840988
5.3841713
5.3842465
5.3843295
5.384422
5.3845248
5.3846391
5.3847662
5.3849075
5.3850646
5.3852391
5.385433
5.3856481
5.3858865
5.3861502
5.3864409
5.3867601
5.3871084
5.387485
5.3878869
5.3883078
5.3887359
5.3891516
5.3895243
5.3898086
5.3899384
5.3898224
5.3893413
5.3883442
5.386653
5.3840684
5.3803908
5.3754135
5.3689819
5.3609585
5.351244
5.3395925
5.3259636
5.3102741
5.2925069
5.2728964
5.2518036
5.2299418
5.2085239
5.189012
5.1734171
5.1640184
5.1633383
5.1735219
5.1958853
5.2306344
5.2764785
5.3292181
5.3835747
5.4344321
5.4773287
5.5099704
5.5323947
5.5436468
5.5465475
5.5390488
5.526789
5.5035813
5.480777
5.3878658
5.3879109
5.3879657
5.3880227
5.388086
5.3881568
5.3882359
5.3883244
5.3884233
5.388534
5.388658
5.3887969
5.3889526
5.3891271
5.3893226
5.3895416
5.3897866
5.39006
5.3903642
5.3907011
5.3910715
5.3914746
5.3919066
5.3923592
5.3928174
5.3932562
5.3936373
5.3939034
5.3939736
5.3937394
5.3930619
5.3917733
5.3896872
5.3866035
5.3823417
5.3767086
5.3695172
5.3606792
5.3500554
5.3374952
5.3229662
5.3064555
5.2881556
5.2686071
5.2486346
5.2296908
5.2137478
5.203258
5.20087
5.2089203
5.2289361
5.261098
5.3037264
5.3518162
5.4007604
5.4456446
5.484293
5.5137143
5.5344242
5.5450494
5.548228
5.5414488
5.5304897
5.5084499
5.487441
5.3915934
5.3916252
5.3916632
5.3917039
5.3917493
5.3918004
5.3918577
5.3919221
5.3919946
5.3920762
5.3921683
5.3922723
5.3923898
5.3925229
5.3926737
5.3928447
5.3930385
5.3932582
5.393507
5.3937882
5.3941052
5.3944606
5.3948561
5.3952923
5.3957674
5.396275
5.3968002
5.3973185
5.3977911
5.3981613
5.3983487
5.3982429
5.3977045
5.3965641
5.3946326
5.3917018
5.3875527
5.3819675
5.3747266
5.3656244
5.3544154
5.3409399
5.3252451
5.3075369
5.2885977
5.2698476
5.2533616
5.2417888
5.2380454
5.244642
5.2631093
5.2931524
5.3319684
5.3750464
5.4181456
5.457771
5.4921373
5.5187031
5.5377917
5.5477496
5.5511237
5.5449565
5.5352155
5.5142705
5.4950454
5.3950153
5.3950362
5.3950612
5.3950883
5.3951186
5.3951528
5.3951914
5.3952349
5.3952845
5.3953412
5.3954061
5.39548
5.3955639
5.3956591
5.3957672
5.3958902
5.3960312
5.3961938
5.3963814
5.396598
5.3968479
5.3971363
5.397469
5.3978519
5.3982913
5.3987929
5.3993609
5.3999966
5.4006987
5.4014598
5.4022587
5.4030552
5.4037862
5.404354
5.4046133
5.4043618
5.4033384
5.4012272
5.3976542
5.3921904
5.3844053
5.3739507
5.3605542
5.3443763
5.3262034
5.3074982
5.290591
5.2783099
5.2740215
5.2801552
5.2977268
5.325479
5.3600789
5.3981488
5.4352632
5.4703657
5.5009406
5.5248848
5.5424394
5.5517164
5.5552279
5.5495846
5.5409947
5.5210794
5.5036319
5.398103
5.3981145
5.3981284
5.3981435
5.3981606
5.3981799
5.3982021
5.3982288
5.3982608
5.3982954
5.3983297
5.3983659
5.398409
5.3984644
5.3985365
5.3986256
5.3987289
5.3988463
5.3989792
5.3991307
5.3993081
5.3995196
5.3997736
5.4000806
5.4004521
5.4009006
5.4014426
5.4020999
5.4028947
5.4038517
5.4050015
5.4063666
5.4079566
5.4097594
5.4117119
5.41367
5.4153819
5.4164481
5.4163421
5.4144253
5.4099851
5.4023462
5.3911337
5.3764889
5.3591225
5.3407145
5.3238894
5.3120676
5.3085792
5.3151185
5.3318966
5.3567816
5.3871748
5.4199339
5.4525886
5.4833828
5.5105999
5.5321797
5.5483145
5.5569196
5.5605302
5.5553413
5.5478488
5.5289037
5.5132211
5.4009106
5.4009131
5.4009163
5.4009198
5.400924
5.4009296
5.4009373
5.4009475
5.4009601
5.4009746
5.4009907
5.401009
5.4010304
5.4010556
5.4010849
5.4011184
5.4011609
5.4012229
5.4013073
5.4014074
5.4015233
5.4016669
5.4018541
5.4020988
5.4024084
5.4027942
5.4032834
5.4039103
5.4047124
5.4057366
5.407036
5.4086743
5.4107231
5.4132467
5.416257
5.4196744
5.4232865
5.4267083
5.4293253
5.4302919
5.4286897
5.4236761
5.414667
5.401682
5.3854655
5.3683216
5.3532747
5.3436768
5.341915
5.3490112
5.3646184
5.3861771
5.4128062
5.4409097
5.4695537
5.4967466
5.5210735
5.5405291
5.5553639
5.5633243
5.5670158
5.5622293
5.5557926
5.5377649
5.5238406
5.4034302
5.4034229
5.4034143
5.4034052
5.4033953
5.4033848
5.4033741
5.4033638
5.4033539
5.4033445
5.4033359
5.4033283
5.4033222
5.4033189
5.4033199
5.4033256
5.4033367
5.403358
5.403396
5.4034509
5.4035229
5.4036221
5.4037602
5.4039473
5.4041959
5.4045239
5.4049584
5.4055411
5.4063234
5.4073594
5.408709
5.4104507
5.4126885
5.4155135
5.4189748
5.4230673
5.427637
5.4323373
5.4365867
5.4395574
5.4402253
5.4374585
5.4305891
5.4197331
5.4061141
5.3920414
5.3801797
5.3733449
5.3732805
5.3807184
5.3944598
5.4139187
5.4364062
5.4611376
5.486426
5.510511
5.5323064
5.5498703
5.5635354
5.5708961
5.5746666
5.5702476
5.5648351
5.5476798
5.5355262
5.4054246
5.4054079
5.4053883
5.4053677
5.405345
5.4053197
5.4052926
5.4052654
5.4052387
5.4052117
5.4051838
5.4051551
5.4051264
5.4050982
5.4050712
5.4050464
5.4050256
5.405012
5.4050102
5.4050265
5.4050663
5.4051331
5.4052337
5.4053829
5.4056032
5.4059155
5.4063379
5.4069025
5.407661
5.408669
5.4099872
5.4116935
5.4138906
5.4166927
5.4201922
5.4244003
5.4292266
5.4344347
5.4395265
5.4437125
5.4459028
5.4450866
5.4408123
5.4331464
5.4230584
5.4125971
5.4043911
5.4004185
5.4018478
5.4094051
5.4221098
5.4390514
5.4589464
5.4807383
5.5031627
5.5246231
5.5442474
5.5601502
5.5727807
5.5795999
5.5834615
5.5793921
5.5749789
5.5586694
5.5483051
5.4063377
5.4063159
5.4062905
5.4062637
5.4062349
5.4062037
5.40617
5.4061338
5.4060954
5.4060549
5.4060126
5.405969
5.4059247
5.4058806
5.4058378
5.405798
5.4057632
5.405736
5.4057198
5.4057201
5.4057451
5.405803
5.4058997
5.4060417
5.4062437
5.4065274
5.406915
5.4074351
5.4081268
5.4090484
5.4102851
5.4119112
5.4139882
5.4166159
5.4198863
5.423868
5.4285869
5.4338748
5.4393188
5.4442769
5.4478952
5.4492747
5.4477412
5.4433173
5.4369653
5.430658
5.4261868
5.424516
5.4277114
5.4354071
5.4474044
5.4624728
5.4802804
5.4997451
5.5198416
5.5390935
5.5568624
5.5713217
5.5830539
5.5894014
5.5933768
5.5896518
5.58622
5.5707296
5.5621909
5.4057235
5.405704
5.4056813
5.4056573
5.4056315
5.4056036
5.4055736
5.4055416
5.4055077
5.4054719
5.4054346
5.4053962
5.4053572
5.4053185
5.4052811
5.4052465
5.4052166
5.4051939
5.4051814
5.4051832
5.4052045
5.4052515
5.405332
5.4054557
5.4056368
5.405894
5.4062519
5.4067413
5.4073923
5.408247
5.4093724
5.4108361
5.4127066
5.4151104
5.4181749
5.4219773
5.4265788
5.4319074
5.4377145
5.4434677
5.4484215
5.4517337
5.4528962
5.4517395
5.4491797
5.446794
5.4453468
5.446355
5.4511354
5.4592662
5.4704251
5.4844343
5.5007131
5.5183229
5.5365013
5.5539115
5.5701194
5.5833438
5.5943162
5.6002689
5.6043851
5.6010191
5.5985623
5.5839118
5.5772053
5.4037031
5.4036913
5.4036775
5.403663
5.4036474
5.4036306
5.4036127
5.4035937
5.4035736
5.4035528
5.4035315
5.4035099
5.4034888
5.4034688
5.4034509
5.4034364
5.4034269
5.4034246
5.4034325
5.4034541
5.4034937
5.4035569
5.4036525
5.4037903
5.4039857
5.4042557
5.4046166
5.405088
5.405701
5.4065023
5.4075574
5.4089596
5.4107933
5.4131313
5.4161036
5.4198691
5.4245204
5.4300555
5.4362797
5.4427818
5.4489726
5.4540676
5.45757
5.4594005
5.460313
5.4612975
5.4627754
5.4663075
5.4724261
5.4809166
5.4920023
5.5052812
5.5203879
5.5365485
5.5531899
5.5690872
5.583999
5.5961842
5.6065298
5.6121678
5.6164673
5.6134817
5.611999
5.5982031
5.5933042
5.4007421
5.4007389
5.4007352
5.4007313
5.4007274
5.4007234
5.4007194
5.4007156
5.4007122
5.4007093
5.4007074
5.4007069
5.4007083
5.4007126
5.4007205
5.4007334
5.4007531
5.4007821
5.4008234
5.4008808
5.4009591
5.4010643
5.4012045
5.4013892
5.401628
5.4019375
5.4023447
5.4028772
5.4035726
5.4044767
5.4056276
5.407092
5.4089759
5.4114079
5.4145274
5.4184757
5.4233508
5.4292023
5.4359225
5.4431783
5.4504174
5.4570734
5.462617
5.4670907
5.4709868
5.4746654
5.4789638
5.4846319
5.4919987
5.501218
5.5123567
5.5251969
5.5394855
5.5545399
5.5699627
5.5846324
5.5984872
5.6098136
5.6196643
5.6250775
5.6296043
5.6270273
5.6265159
5.6135944
5.610518
5.3972683
5.3972713
5.3972749
5.397279
5.3972837
5.3972894
5.3972961
5.3973042
5.3973139
5.3973257
5.39734
5.3973575
5.397379
5.3974054
5.3974383
5.3974792
5.3975303
5.3975945
5.3976752
5.3977767
5.3979045
5.3980666
5.3982726
5.3985345
5.3988636
5.3992832
5.399826
5.4005078
5.4013508
5.4024081
5.4037425
5.4054256
5.4075601
5.410265
5.4136693
5.4179341
5.4232072
5.4295523
5.4368571
5.4448623
5.4531063
5.4610997
5.4684396
5.4751827
5.4815104
5.4876978
5.494322
5.5017952
5.5104401
5.5203985
5.5317928
5.5444365
5.5581656
5.5723937
5.5868738
5.6005663
5.6135781
5.6242109
5.6336995
5.6389539
5.6437609
5.6416189
5.6421187
5.6300237
5.6289596
5.3933298
5.3933363
5.3933444
5.3933532
5.3933634
5.3933752
5.3933889
5.393405
5.393424
5.3934463
5.3934727
5.3935042
5.3935418
5.393587
5.3936416
5.3937077
5.3937883
5.3938868
5.3940077
5.3941568
5.3943413
5.3945698
5.3948548
5.3952117
5.3956564
5.3962077
5.3968903
5.3977367
5.3987858
5.4000813
5.4016854
5.4036836
5.4061775
5.4092787
5.4131473
5.4179715
5.4238762
5.4309048
5.4389619
5.4477925
5.4570341
5.466277
5.4752067
5.4838837
5.4921832
5.5005812
5.509124
5.5182137
5.5280666
5.5388198
5.5505788
5.5631931
5.5765775
5.5902127
5.6039822
5.6169126
5.6292702
5.6393585
5.6486016
5.6537678
5.6589302
5.6572249
5.6587994
5.647486
5.6484936
5.3886413
5.3886509
5.3886627
5.3886756
5.3886905
5.3887078
5.3887279
5.3887514
5.3887788
5.388811
5.388849
5.3888939
5.3889473
5.389011
5.3890873
5.389179
5.3892896
5.3894235
5.3895863
5.3897849
5.3900276
5.3903256
5.3906929
5.3911446
5.3917
5.3923843
5.3932267
5.3942613
5.3955343
5.3971049
5.3990504
5.4014491
5.4044003
5.4080787
5.4126603
5.4182805
5.4250496
5.432985
5.4419516
5.4517378
5.4619821
5.4723897
5.4828216
5.4930882
5.5033217
5.5134793
5.523705
5.5342231
5.5452074
5.5567495
5.5689459
5.5816598
5.5948641
5.6080932
5.6213459
5.6336984
5.6455669
5.6552452
5.664353
5.6695026
5.675097
5.6738151
5.6765494
5.6659807
5.6690916
5.3827736
5.3827876
5.3828049
5.3828238
5.3828454
5.3828703
5.3828991
5.3829324
5.3829711
5.3830163
5.3830691
5.383131
5.383204
5.3832903
5.3833926
5.3835143
5.3836598
5.383834
5.3840437
5.3842966
5.3846028
5.3849746
5.3854273
5.3859796
5.3866539
5.3874789
5.3884916
5.3897411
5.3912832
5.3931781
5.3955053
5.3983985
5.4020158
5.4065007
5.4120117
5.4186801
5.4265596
5.4356054
5.4456349
5.4564763
5.4677791
5.4794442
5.4913005
5.5031194
5.5149226
5.5265875
5.5382753
5.5500813
5.562118
5.5744324
5.5871059
5.6000066
5.6131565
5.6261286
5.6390231
5.6509526
5.6624735
5.6718612
5.6809298
5.6861357
5.6922161
5.6914144
5.6953135
5.6855183
5.6907436
5.3753838
5.3754047
5.3754301
5.3754578
5.3754893
5.3755252
5.3755664
5.3756137
5.3756681
5.3757309
5.3758037
5.3758881
5.3759865
5.3761014
5.3762362
5.3763948
5.3765819
5.3768038
5.3770676
5.3773824
5.3777591
5.3782121
5.3787593
5.3794221
5.3802325
5.3812262
5.3824401
5.3839277
5.3857661
5.3880593
5.3909295
5.3945176
5.3989838
5.4044954
5.4111894
5.4191385
5.4283262
5.438639
5.4498996
5.4618656
5.4744203
5.4874544
5.5006492
5.513855
5.5269814
5.5400434
5.5530476
5.5660204
5.5790298
5.5920818
5.6052461
5.6183906
5.6315774
5.6444072
5.6570695
5.6687038
5.6799974
5.6891993
5.6983139
5.703637
5.7102704
5.7099479
5.7150718
5.7060474
5.7133796
5.3661752
5.3662052
5.3662416
5.366281
5.3663254
5.3663758
5.3664331
5.3664984
5.3665729
5.3666581
5.3667559
5.3668683
5.366998
5.3671481
5.3673223
5.367525
5.3677617
5.3680395
5.3683669
5.3687522
5.3692096
5.3697603
5.3704225
5.3712187
5.3721802
5.3733548
5.3748101
5.3766226
5.3788897
5.3817371
5.3853177
5.3898055
5.3953753
5.4021751
5.4102922
5.4197256
5.4303859
5.4421144
5.4547096
5.467987
5.4819939
5.4962956
5.5107541
5.5252224
5.5396728
5.5540104
5.5682056
5.5822404
5.5961433
5.609889
5.6235381
5.6369569
5.6502417
5.6630136
5.6755405
5.6869821
5.6981456
5.7072496
5.7164821
5.7220045
5.7291922
5.7294304
5.735743
5.7275545
5.7369236
5.3550322
5.3550736
5.3551236
5.3551773
5.3552374
5.3553054
5.3553822
5.355469
5.3555675
5.3556793
5.3558067
5.355952
5.3561185
5.3563097
5.3565286
5.3567757
5.3570626
5.3574068
5.3578109
5.3582777
5.3588239
5.359474
5.3602583
5.3612101
5.3623724
5.3638064
5.3655922
5.367835
5.3706694
5.3742584
5.3787867
5.3844427
5.3913904
5.3997348
5.4094893
5.4205702
5.4328421
5.4460913
5.4601458
5.4749849
5.4903427
5.5059111
5.521638
5.5374109
5.5531064
5.5686285
5.583917
5.598919
5.6136369
5.6280229
5.6421338
5.6558349
5.6692521
5.6820236
5.6944848
5.7058102
5.7169192
5.7260102
5.7354233
5.7411965
5.7489861
5.7498313
5.7573099
5.7499272
5.7614078
5.3418579
5.3419124
5.3419778
5.342048
5.3421267
5.3422157
5.3423158
5.3424279
5.3425528
5.3426899
5.3428396
5.3430147
5.3432288
5.3434726
5.3437376
5.3440366
5.3443843
5.3447903
5.3452666
5.3458274
5.3464892
5.3472756
5.3482225
5.3493775
5.350803
5.3525835
5.3548292
5.357681
5.3613107
5.3659145
5.3716957
5.3788344
5.3874567
5.3975915
5.4091606
5.4220304
5.4359891
5.4508436
5.4665607
5.4828936
5.4995616
5.516482
5.5335401
5.5505695
5.5674525
5.584077
5.6003622
5.6162354
5.6316833
5.6466449
5.6611761
5.6751437
5.6887009
5.7015032
5.7139429
5.7252155
5.7363271
5.745461
5.755101
5.761195
5.7696164
5.7711585
5.7797074
5.7735245
5.7863525
5.3271122
5.3271822
5.3272649
5.3273507
5.327445
5.3275569
5.3276871
5.3278238
5.3279661
5.3281259
5.3283106
5.328523
5.3287665
5.329046
5.3293673
5.3297373
5.3301628
5.3306516
5.3312167
5.3318802
5.3326701
5.333622
5.3347841
5.3362216
5.3380219
5.3402997
5.3432013
5.3469053
5.3516162
5.3575472
5.3648943
5.3737948
5.3843045
5.3963588
5.4098369
5.4245416
5.4402262
5.4568638
5.4742063
5.4919595
5.5100536
5.5283557
5.5466956
5.5649309
5.5829275
5.6005614
5.6177413
5.6343833
5.6504676
5.6659276
5.6808216
5.6950237
5.7087057
5.7215463
5.7339849
5.745237
5.756386
5.7656161
5.7755054
5.7819667
5.7910072
5.7933162
5.8029162
5.7976784
5.812177
5.3111599
5.311248
5.3113424
5.3114374
5.311546
5.3116708
5.3118131
5.3119747
5.312158
5.3123649
5.3125976
5.3128571
5.3131458
5.31347
5.313838
5.3142586
5.3147428
5.3153048
5.3159641
5.3167468
5.3176883
5.3188369
5.320258
5.3220397
5.3242984
5.3271834
5.3308793
5.3356012
5.3415803
5.349038
5.3581499
5.3689928
5.3815512
5.3957363
5.4112852
5.4279631
5.4456754
5.4641437
5.4830635
5.5023664
5.5219315
5.5415847
5.5611796
5.5805634
5.5995951
5.618146
5.63612
5.6534311
5.6700573
5.6859332
5.7011234
5.7155088
5.7292831
5.7421507
5.7545874
5.765841
5.777043
5.786402
5.7965633
5.8034607
5.8131129
5.8164455
5.8269139
5.8238733
5.8399423
5.2946136
5.2947086
5.2948213
5.2949425
5.2950762
5.2952249
5.2953901
5.2955738
5.2957783
5.2960065
5.2962618
5.2965483
5.2968713
5.2972374
5.2976553
5.2981361
5.2986949
5.2993516
5.3001336
5.3010777
5.3022344
5.3036716
5.3054802
5.3077795
5.3107222
5.3144962
5.3193219
5.3254394
5.3330849
5.3424566
5.3536694
5.3667235
5.3815598
5.3979266
5.4155728
5.4343204
5.4539154
5.4740123
5.4945484
5.5153991
5.536386
5.5573594
5.5781562
5.5986192
5.6185999
5.6379703
5.6566351
5.6745112
5.6915784
5.7077817
5.7231805
5.7376843
5.7514959
5.7643578
5.7767737
5.7880293
5.7992945
5.8088133
5.819266
5.8266546
5.8369214
5.8414347
5.8525737
5.8532403
5.8665539
5.2802898
5.2803945
5.2805223
5.2806541
5.280799
5.2809602
5.2811389
5.2813376
5.2815587
5.2818057
5.2820826
5.2823947
5.2827487
5.2831535
5.2836208
5.2841663
5.2848113
5.2855847
5.2865256
5.287687
5.2891401
5.2909791
5.2933271
5.29634
5.300209
5.3051578
5.3114312
5.3192729
5.3288939
5.3404332
5.3539163
5.3693058
5.3863822
5.4048543
5.4244551
5.4449657
5.4660842
5.4877456
5.5097974
5.5320508
5.5543418
5.5764945
5.5983425
5.6197182
5.6404738
5.6604837
5.6796589
5.6979244
5.7152654
5.7316375
5.7471077
5.7616112
5.7753587
5.7881494
5.8004771
5.8117232
5.8230001
5.8327194
5.843402
5.8513886
5.8621877
5.867933
5.8798668
5.8828757
5.8964786
5.2703336
5.2704436
5.2705776
5.2707156
5.2708671
5.2710353
5.2712219
5.2714291
5.2716602
5.2719191
5.2722109
5.2725422
5.2729218
5.2733616
5.2738775
5.2744911
5.2752318
5.2761393
5.2772673
5.2786872
5.2804936
5.282809
5.2857882
5.2896213
5.2945312
5.300765
5.3085747
5.3181887
5.3297746
5.3433999
5.3590287
5.3765287
5.395624
5.415875
5.4371269
5.4591674
5.4818448
5.5049672
5.5283397
5.5517986
5.5751661
5.5982619
5.6209115
5.6429498
5.6642329
5.6846443
5.7041038
5.7225482
5.7399672
5.7563328
5.7717158
5.7860898
5.7996639
5.8123055
5.8244763
5.8356807
5.8469208
5.8568501
5.8677057
5.8763507
5.8875469
5.8947058
5.9071195
5.912927
5.926574
5.2679571
5.2680672
5.2682008
5.2683386
5.2684897
5.2686574
5.2688436
5.2690509
5.269283
5.2695447
5.2698423
5.2701843
5.270582
5.2710509
5.2716123
5.2722946
5.2731367
5.2741907
5.2755259
5.2772337
5.279432
5.2822703
5.2859317
5.2906329
5.296617
5.3041392
5.3134398
5.3247129
5.3380687
5.3535052
5.3709168
5.3901109
5.4106168
5.4322391
5.4549485
5.47836
5.5022604
5.5264851
5.550857
5.575196
5.5993181
5.6230371
5.6461762
5.668575
5.6900974
5.7106384
5.730128
5.7485145
5.7657919
5.7819511
5.7970701
5.8111651
5.8244418
5.8368382
5.8487692
5.8598735
5.8710164
5.881125
5.892104
5.9013823
5.91295
5.9214275
5.9343871
5.9423687
5.9567677
5.2744032
5.2745087
5.2746357
5.2747676
5.2749124
5.2750732
5.2752522
5.2754525
5.2756784
5.2759357
5.2762322
5.2765785
5.2769891
5.2774839
5.2780897
5.2788429
5.2797925
5.2810035
5.2825614
5.2845766
5.287189
5.2905709
5.2949274
5.3004925
5.307517
5.3162481
5.3269011
5.3396243
5.3544672
5.3713618
5.3901577
5.4105272
5.4321841
5.4550712
5.4787452
5.5030238
5.5277232
5.5526571
5.5776396
5.6024801
5.6269854
5.6509656
5.6742456
5.6966731
5.7181217
5.7384992
5.7577455
5.7758191
5.7927221
5.8084652
5.8231376
5.8367979
5.8496479
5.8616916
5.8732949
5.8842247
5.8952124
5.9054528
5.9165202
5.9263943
5.9383204
5.9480666
5.9615976
5.9717801
5.9870336
5.2914542
5.2915509
5.2916657
5.2917869
5.2919202
5.2920684
5.2922342
5.2924212
5.2926344
5.2928807
5.2931694
5.2935136
5.2939311
5.294446
5.2950912
5.295911
5.2969642
5.2983283
5.3001033
5.3024165
5.3054255
5.3093199
5.3143189
5.3206632
5.3285995
5.3383568
5.350115
5.3639742
5.3799292
5.3978638
5.4175694
5.4387578
5.461221
5.4846414
5.5088059
5.5335099
5.5585603
5.5837649