/*--------------------------------*- C++ -*----------------------------------*\
  =========                 |
  \\      /  F ield         | OpenFOAM: The Open Source CFD Toolbox
   \\    /   O peration     | Website:  https://openfoam.org
    \\  /    A nd           | Version:  13
     \\/     M anipulation  |
\*---------------------------------------------------------------------------*/
FoamFile
{
    format      ascii;
    class       volVectorField;
    location    "8.499689";
    object      wallShearStress;
}
// * * * * * * * * * * * * * * * * * * * * * * * * * * * * * * * * * * * * * //

dimensions      [0 2 -2 0 0 0 0];

internalField   uniform (0 0 0);

boundaryField
{
    inlet
    {
        type            calculated;
        value           uniform (0 0 0);
    }
    outlet
    {
        type            calculated;
        value           uniform (0 0 0);
    }
    cylinder
    {
        type            calculated;
        value           nonuniform List<vector> 
132
(
(0.00010475831 -0.0019940261 -1.1237699e-22)
(0.00043253724 -0.0086765333 3.2682504e-23)
(0.0011236412 -0.015209769 1.907199e-21)
(0.0021557664 -0.021369707 -6.8962341e-21)
(0.0034816416 -0.02693344 5.3271806e-21)
(0.0050288047 -0.031686415 1.7953474e-20)
(0.0067006206 -0.035438282 -3.7564789e-21)
(0.0083837297 -0.038034928 -1.6362857e-20)
(0.0099538062 -0.03937035 1.6819065e-20)
(0.011282675 -0.039398811 -4.0675575e-20)
(0.012250176 -0.038143026 -7.880502e-22)
(0.012757176 -0.035701498 2.8294947e-20)
(0.012738103 -0.032247585 4.785748e-20)
(0.012175025 -0.028028991 -3.9795783e-20)
(0.011102163 -0.023343024 4.2392336e-20)
(0.0096118791 -0.018521009 6.8316483e-20)
(0.0078409687 -0.013884336 -4.4454764e-20)
(0.0059519783 -0.0097079121 7.0395406e-20)
(0.0041121303 -0.006190137 9.1566053e-20)
(0.0024579559 -0.0034229475 -5.8357618e-20)
(0.0010856208 -0.0014065723 -7.3115132e-20)
(2.0829213e-05 -4.3975193e-05 2.5311411e-23)
(-0.0007429463 0.00079308959 1.030206e-20)
(-0.0012522507 0.0012446224 -1.2190068e-20)
(-0.0014940747 0.0013733007 -2.051302e-20)
(-0.0013429885 0.0011408987 4.3395799e-21)
(-0.00060655339 0.00048286431 -3.8796603e-20)
(0.0007108678 -0.00048484576 1.0294406e-20)
(0.0022782118 -0.0014464418 8.0675527e-21)
(0.0036197865 -0.0020884881 -5.5695763e-20)
(0.0044342339 -0.0023010656 7.298296e-20)
(0.0047922862 -0.0022125047 2.2166862e-21)
(0.0049287081 -0.001997958 1.6012064e-20)
(0.0049953635 -0.0017490151 -1.8999261e-20)
(0.004924086 -0.0014574577 6.0471234e-20)
(0.0045088599 -0.0010949619 -3.8338249e-21)
(0.0035342388 -0.00067467476 1.5514815e-20)
(0.001762959 -0.00025268333 -2.1388842e-21)
(-0.0010152713 5.8379685e-05 3.0831466e-21)
(-0.0050354252 0.00010328842 -1.9330571e-21)
(-0.01066271 -0.00036019268 3.630805e-21)
(-0.017851244 -0.0016625995 -1.1268237e-22)
(-0.026014509 -0.0040054772 4.1550895e-20)
(-0.034670458 -0.0074920024 -1.6095596e-20)
(-0.043184824 -0.012089636 1.4590821e-20)
(-0.051057461 -0.017671215 -9.4113587e-20)
(-0.057794674 -0.023991513 -1.5230161e-20)
(-0.063090193 -0.030765661 1.341061e-19)
(-0.066731232 -0.037676701 -1.1462856e-19)
(-0.068654045 -0.04442037 -2.1923106e-21)
(-0.068857193 -0.050689402 3.4999335e-20)
(-0.067480721 -0.056251808 -3.1899123e-20)
(-0.06462401 -0.060835852 -6.2489416e-21)
(-0.06052473 -0.064288105 -3.9586758e-21)
(-0.055437288 -0.066498835 -5.8733132e-21)
(-0.049547354 -0.067302017 -3.1720208e-21)
(-0.043150303 -0.066689283 6.3110368e-22)
(-0.036487608 -0.064626111 5.0761395e-20)
(-0.02981471 -0.06114449 -7.7393082e-20)
(-0.023370638 -0.056306964 -8.2521769e-20)
(-0.01737811 -0.050212047 -3.3489297e-20)
(-0.012038602 -0.04299149 -7.6777995e-20)
(-0.0075273755 -0.034805095 1.7133491e-20)
(-0.0039875825 -0.025837299 2.4937357e-20)
(-0.0015361612 -0.016308374 -3.8773096e-20)
(-0.00023548857 -0.0063949879 -5.182208e-21)
(0.00014089005 0.0046864406 -5.1966612e-22)
(0.00053797966 0.011279599 -3.2060238e-23)
(0.001288608 0.017632399 -1.9521104e-21)
(0.0023630187 0.023524242 7.0895028e-21)
(0.0037070155 0.028739778 -5.4880832e-21)
(0.0052423441 0.033076016 -1.8487128e-20)
(0.0068680243 0.036359879 3.8586791e-21)
(0.0084705076 0.038457289 1.6742533e-20)
(0.0099264383 0.039285648 -1.7126621e-20)
(0.011112639 0.0388249 4.1200095e-20)
(0.01191791 0.037125481 7.9391903e-22)
(0.012255164 0.034311292 -2.8348577e-20)
(0.01207531 0.030582357 -4.7702201e-20)
(0.011376019 0.026200446 3.9483671e-20)
(0.01021 0.021476323 -4.1891431e-20)
(0.0086805926 0.016733187 -6.7297707e-20)
(0.0069296399 0.012276182 4.3691549e-20)
(0.0051183338 0.0083529103 -6.9097108e-20)
(0.0033995704 0.0051216759 -8.983011e-20)
(0.0018923072 0.0026402254 5.7263077e-20)
(0.0006696579 0.00087757327 7.1790521e-20)
(-0.00026029964 -0.00028896682 6.3348627e-20)
(-0.00091684637 -0.00098331351 5.1366669e-20)
(-0.0013430721 -0.0013372743 1.1992278e-20)
(-0.001437149 -0.0013229827 2.0184891e-20)
(-0.0011742394 -0.0010005836 -4.2728982e-21)
(-0.0002295065 -0.00019329513 3.8213199e-20)
(0.0012147217 0.00084048559 -1.0161096e-20)
(0.0027179444 0.0017300323 -7.9770246e-21)
(0.0038988279 0.0022521428 5.5152914e-20)
(0.0045359707 0.0023553045 -7.2309555e-20)
(0.0048027901 0.0022178651 -2.1841129e-21)
(0.0049176501 0.0019935981 3.6122675e-20)
(0.0049671817 0.0017394842 1.8863927e-20)
(0.0048214599 0.0014278769 -6.0139279e-20)
(0.0042730176 0.0010390942 3.8203682e-21)
(0.0031067058 0.00059569821 1.1299314e-20)
(0.0010833665 0.00016287542 2.1407552e-21)
(-0.0019959461 -0.00013918438 -3.092009e-21)
(-0.0063383083 -0.00013591649 1.9415699e-21)
(-0.012314457 0.00041216252 -3.6492468e-21)
(-0.019812984 0.0018423396 2.9841824e-20)
(-0.02817665 0.0043354689 -4.1650426e-20)
(-0.036900966 0.0079710911 1.6080405e-20)
(-0.045352046 0.012693886 -1.4515172e-20)
(-0.053071012 0.018365796 9.3150724e-20)
(-0.059563416 0.0247226 1.4980315e-20)
(-0.064557632 0.031478217 -1.3098549e-19)
(-0.067869898 0.038316636 1.1100103e-19)
(-0.069460597 0.044939347 2.1007808e-21)
(-0.069332436 0.051036429 -3.30599e-20)
(-0.067670096 0.056406923 2.9527349e-20)
(-0.064531567 0.060745759 -4.493104e-20)
(-0.060193851 0.063933827 3.2610345e-21)
(-0.054938882 0.06589789 -4.3549313e-21)
(-0.048897329 0.066415584 5.6061653e-21)
(-0.042402838 0.065530202 -7.6090006e-22)
(-0.035683203 0.063196826 -5.6584766e-20)
(-0.028995061 0.059458049 8.3334122e-20)
(-0.022574596 0.054382087 8.7081882e-20)
(-0.01664058 0.048071692 3.4861034e-20)
(-0.011390778 0.040664545 7.9114067e-20)
(-0.0069951984 0.032322866 -1.7511471e-20)
(-0.0035918835 0.023236551 5.0198965e-20)
(-0.0012916788 0.01361769 3.9110238e-20)
(-0.00015555493 0.0036845562 5.2000749e-21)
)
;
    }
    frontAndBack
    {
        type            empty;
    }
}


// ************************************************************************* //
