/*--------------------------------*- C++ -*----------------------------------*\
  =========                 |
  \\      /  F ield         | OpenFOAM: The Open Source CFD Toolbox
   \\    /   O peration     | Website:  https://openfoam.org
    \\  /    A nd           | Version:  13
     \\/     M anipulation  |
\*---------------------------------------------------------------------------*/
FoamFile
{
    format      ascii;
    class       volScalarField;
    location    "27.000949";
    object      p;
}
// * * * * * * * * * * * * * * * * * * * * * * * * * * * * * * * * * * * * * //

dimensions      [0 2 -2 0 0 0 0];

internalField   nonuniform List<scalar> 
17140
(
-0.26221632
-0.2622254
-0.26223616
-0.26224762
-0.26226019
-0.26227403
-0.26228925
-0.26230593
-0.26232419
-0.26234413
-0.26236585
-0.26238945
-0.26241501
-0.26244261
-0.2624723
-0.26250414
-0.26253814
-0.2625743
-0.26261263
-0.26265315
-0.26269591
-0.26274112
-0.26278921
-0.26284109
-0.26289844
-0.26296432
-0.26304395
-0.26314585
-0.2632831
-0.26347399
-0.2637409
-0.26410597
-0.26458404
-0.26517562
-0.26586394
-0.26661762
-0.26739679
-0.26815984
-0.26886869
-0.26949226
-0.27000831
-0.27040379
-0.27067444
-0.270822
-0.27085014
-0.2707706
-0.27059139
-0.27030973
-0.26991289
-0.26939159
-0.2686953
-0.26780844
-0.26657068
-0.26500198
-0.26259537
-0.25952959
-0.25423201
-0.24752586
-0.23498694
-0.219806
-0.19202862
-0.16707014
-0.12915643
-0.11345689
-0.078334173
-0.26225144
-0.26226037
-0.26227123
-0.26228239
-0.26229461
-0.26230811
-0.26232294
-0.26233921
-0.26235701
-0.26237645
-0.26239763
-0.26242065
-0.26244557
-0.26247248
-0.26250144
-0.26253247
-0.2625656
-0.26260084
-0.26263817
-0.2626776
-0.26271919
-0.26276312
-0.26280981
-0.26286013
-0.26291573
-0.26297958
-0.2630568
-0.26315574
-0.26328922
-0.26347522
-0.26373572
-0.26409257
-0.26456053
-0.26514029
-0.2658156
-0.26655572
-0.26732148
-0.26807191
-0.26876949
-0.26938363
-0.26989255
-0.27028371
-0.27055346
-0.27070443
-0.27074194
-0.27067955
-0.27052821
-0.27029108
-0.26996333
-0.26954796
-0.26901192
-0.26836707
-0.26748884
-0.26645119
-0.26480192
-0.26278592
-0.25889167
-0.25371835
-0.24241572
-0.22765053
-0.1979799
-0.1685188
-0.12487782
-0.10360888
-0.065064861
-0.26237632
-0.26238488
-0.26239528
-0.262406
-0.26241773
-0.26243069
-0.26244494
-0.26246056
-0.26247767
-0.26249635
-0.2625167
-0.26253882
-0.26256278
-0.26258865
-0.26261648
-0.26264631
-0.26267815
-0.262712
-0.26274784
-0.26278568
-0.26282555
-0.26286763
-0.2629123
-0.26296039
-0.26301348
-0.26307445
-0.26314822
-0.26324289
-0.26337089
-0.26354967
-0.26380066
-0.26414527
-0.26459814
-0.26516036
-0.26581645
-0.26653668
-0.26728293
-0.26801511
-0.26869649
-0.26929711
-0.26979573
-0.27018033
-0.27044787
-0.2706018
-0.27064935
-0.27060562
-0.27048466
-0.2702958
-0.27004231
-0.26973992
-0.26937333
-0.26898304
-0.26848121
-0.26799852
-0.26713768
-0.26621579
-0.26372946
-0.26024095
-0.25046262
-0.2360259
-0.20423937
-0.1697676
-0.12023896
-0.093361926
-0.051523169
-0.26258942
-0.26259748
-0.26260726
-0.26261738
-0.26262845
-0.26264069
-0.26265414
-0.2626689
-0.26268506
-0.26270271
-0.26272195
-0.26274286
-0.26276552
-0.26278999
-0.26281631
-0.26284453
-0.26287464
-0.26290664
-0.2629405
-0.26297623
-0.26301385
-0.2630535
-0.26309553
-0.26314072
-0.26319057
-0.26324781
-0.26331712
-0.26340626
-0.26352712
-0.26369645
-0.26393493
-0.26426338
-0.26469629
-0.26523527
-0.26586593
-0.2665599
-0.26728041
-0.26798859
-0.2686487
-0.26923153
-0.26971646
-0.27009203
-0.27035579
-0.27051195
-0.27056968
-0.27054568
-0.27045694
-0.27031898
-0.27014334
-0.26995878
-0.2697677
-0.26964016
-0.26952554
-0.26961301
-0.26955961
-0.26976715
-0.26877835
-0.26704251
-0.25888668
-0.24481493
-0.21063578
-0.17060796
-0.11462512
-0.082642305
-0.038034757
-0.26288748
-0.26289493
-0.26290393
-0.26291329
-0.26292354
-0.26293486
-0.26294732
-0.26296099
-0.26297596
-0.26299233
-0.26301017
-0.26302957
-0.2630506
-0.26307331
-0.26309776
-0.26312395
-0.2631519
-0.2631816
-0.26321302
-0.26324613
-0.26328096
-0.26331761
-0.26335642
-0.26339808
-0.26344398
-0.26349668
-0.2635606
-0.26364302
-0.26375519
-0.26391299
-0.26413616
-0.26444474
-0.26485307
-0.26536336
-0.26596255
-0.26662396
-0.26731254
-0.26799094
-0.26862459
-0.26918523
-0.26965292
-0.27001677
-0.27027487
-0.2704322
-0.27049982
-0.27049604
-0.27044035
-0.27035474
-0.27025869
-0.27019412
-0.27018068
-0.27031848
-0.27059371
-0.2712538
-0.27201128
-0.27335816
-0.27390952
-0.27400697
-0.26755758
-0.25377169
-0.21676086
-0.17087881
-0.10889438
-0.071425233
-0.024717643
-0.26326473
-0.26327144
-0.26327952
-0.26328797
-0.26329724
-0.26330747
-0.26331874
-0.26333111
-0.26334468
-0.26335951
-0.26337569
-0.26339329
-0.26341237
-0.26343299
-0.26345519
-0.26347898
-0.26350437
-0.26353134
-0.26355984
-0.26358986
-0.2636214
-0.26365453
-0.26368955
-0.26372708
-0.26376839
-0.26381583
-0.26387349
-0.26394814
-0.26405024
-0.26419466
-0.26440001
-0.26468541
-0.26506493
-0.26554145
-0.26610347
-0.26672631
-0.26737695
-0.26801983
-0.26862184
-0.26915579
-0.26960253
-0.26995177
-0.27020206
-0.27035917
-0.27043599
-0.27045201
-0.27042922
-0.27039607
-0.27037929
-0.27043386
-0.27059576
-0.27099508
-0.27165282
-0.27287172
-0.27440743
-0.27689105
-0.27898904
-0.28093599
-0.27620439
-0.26251072
-0.22228702
-0.17015715
-0.10073425
-0.059787544
-0.012124297
-0.26371299
-0.26371886
-0.26372589
-0.2637333
-0.26374144
-0.26375043
-0.26376034
-0.26377122
-0.26378316
-0.26379623
-0.2638105
-0.26382603
-0.26384288
-0.2638611
-0.26388073
-0.26390176
-0.26392421
-0.26394805
-0.26397323
-0.26399971
-0.26402749
-0.26405663
-0.26408735
-0.26412021
-0.26415636
-0.2641979
-0.26424857
-0.26431453
-0.26440541
-0.26453491
-0.26472032
-0.2649797
-0.26532673
-0.265765
-0.26628466
-0.26686332
-0.2674703
-0.26807213
-0.26863737
-0.26914012
-0.26956208
-0.26989362
-0.2701337
-0.27028886
-0.27037357
-0.27040815
-0.27041718
-0.27043505
-0.27049494
-0.2706643
-0.27099406
-0.27164311
-0.27266236
-0.27440338
-0.27671179
-0.28023511
-0.28384802
-0.28755796
-0.28443044
-0.27056571
-0.22634301
-0.16828376
-0.090814852
-0.049035109
-0.00061191388
-0.26422185
-0.26422679
-0.26423265
-0.26423892
-0.2642458
-0.26425341
-0.2642618
-0.26427104
-0.26428117
-0.26429228
-0.26430442
-0.26431765
-0.26433202
-0.26434757
-0.26436432
-0.26438229
-0.26440146
-0.26442181
-0.26444329
-0.26446586
-0.26448948
-0.26451419
-0.26454017
-0.26456791
-0.26459839
-0.26463351
-0.26467658
-0.26473315
-0.26481189
-0.26492526
-0.2650891
-0.26532021
-0.26563177
-0.26602799
-0.26650079
-0.26703024
-0.26758828
-0.26814382
-0.26866736
-0.26913442
-0.26952773
-0.26983831
-0.27006553
-0.27021663
-0.27030727
-0.27035848
-0.27039711
-0.27046283
-0.27059418
-0.27087004
-0.27135415
-0.27223095
-0.27357216
-0.27578269
-0.27877822
-0.28327454
-0.28825294
-0.29355655
-0.29169763
-0.27710227
-0.22924024
-0.16534169
-0.081657588
-0.039651006
0.0074225851
-0.26477864
-0.26478259
-0.26478728
-0.2647923
-0.26479783
-0.26480395
-0.2648107
-0.26481815
-0.26482634
-0.26483532
-0.26484516
-0.26485589
-0.26486757
-0.26488022
-0.26489386
-0.2649085
-0.26492413
-0.26494071
-0.26495818
-0.2649765
-0.26499563
-0.26501557
-0.26503646
-0.2650587
-0.26508314
-0.26511142
-0.26514645
-0.26519312
-0.26525911
-0.26535554
-0.26549668
-0.26569796
-0.26597185
-0.26632309
-0.26674536
-0.26722131
-0.26772572
-0.26823016
-0.26870729
-0.26913431
-0.26949504
-0.26978127
-0.26999274
-0.27013732
-0.27023128
-0.27029637
-0.27036117
-0.27046975
-0.27066446
-0.27103414
-0.27165258
-0.27272245
-0.27432089
-0.27686631
-0.28041955
-0.28582802
-0.29192569
-0.29841065
-0.29721721
-0.28108203
-0.23006522
-0.16337581
-0.077161307
-0.035619885
0.012376332
-0.26536941
-0.26537232
-0.26537579
-0.2653795
-0.26538361
-0.26538816
-0.26539319
-0.26539876
-0.26540489
-0.26541165
-0.26541905
-0.26542716
-0.26543599
-0.26544558
-0.26545593
-0.26546705
-0.26547892
-0.2654915
-0.26550473
-0.26551856
-0.26553293
-0.26554783
-0.26556336
-0.26557982
-0.26559793
-0.26561908
-0.26564576
-0.26568221
-0.26573509
-0.26581414
-0.265932
-0.26610257
-0.26633746
-0.26664174
-0.26701076
-0.26742978
-0.26787662
-0.26832567
-0.26875206
-0.26913483
-0.26945911
-0.26971747
-0.26991004
-0.27004528
-0.27013933
-0.27021463
-0.27030089
-0.27044525
-0.27069186
-0.27113732
-0.27186061
-0.27306296
-0.2748325
-0.27761759
-0.28160912
-0.28764842
-0.29453375
-0.3016392
-0.29980641
-0.28140509
-0.2273272
-0.16208432
-0.080815028
-0.043285278
0.0039486726
-0.26597855
-0.26598041
-0.26598263
-0.26598501
-0.26598766
-0.2659906
-0.26599388
-0.26599752
-0.26600155
-0.266006
-0.26601092
-0.26601632
-0.26602222
-0.26602866
-0.26603562
-0.26604311
-0.2660511
-0.26605955
-0.26606841
-0.2660776
-0.26608706
-0.26609676
-0.26610676
-0.26611729
-0.26612891
-0.26614278
-0.266161
-0.26618712
-0.26622683
-0.26628847
-0.26638302
-0.26652274
-0.26671818
-0.26697453
-0.26728862
-0.26764826
-0.26803437
-0.26842438
-0.26879611
-0.26913066
-0.26941465
-0.26964151
-0.26981182
-0.26993449
-0.27002471
-0.27010563
-0.27020718
-0.270378
-0.2706614
-0.27115961
-0.27194635
-0.273213
-0.27504277
-0.27796164
-0.28219141
-0.28853024
-0.29578978
-0.30232121
-0.29902093
-0.27697375
-0.22328936
-0.15883044
-0.085625628
-0.05207611
-0.010246938
-0.26659068
-0.26659149
-0.26659247
-0.26659353
-0.26659473
-0.26659608
-0.26659761
-0.26659932
-0.26660126
-0.26660342
-0.26660584
-0.26660853
-0.26661151
-0.26661477
-0.26661833
-0.26662217
-0.26662625
-0.26663053
-0.26663496
-0.26663945
-0.26664394
-0.26664837
-0.26665276
-0.26665727
-0.26666233
-0.26666886
-0.26667856
-0.26669437
-0.266721
-0.26676544
-0.26683699
-0.26694629
-0.26710256
-0.26731099
-0.26756964
-0.26786853
-0.26819175
-0.26851984
-0.26883352
-0.2691162
-0.26935615
-0.26954779
-0.2696922
-0.26979848
-0.2698804
-0.26996135
-0.27007024
-0.27025543
-0.27055609
-0.27107452
-0.2718643
-0.27310019
-0.27488656
-0.27778342
-0.28198553
-0.28826979
-0.29509277
-0.30017428
-0.29378039
-0.26800272
-0.21675993
-0.15511097
-0.091986306
-0.061282433
-0.021183938
-0.2671894
-0.2671892
-0.26718899
-0.26718878
-0.26718858
-0.2671884
-0.26718823
-0.2671881
-0.267188
-0.26718795
-0.26718795
-0.26718801
-0.26718814
-0.26718833
-0.26718856
-0.26718883
-0.26718909
-0.26718929
-0.26718937
-0.26718925
-0.26718885
-0.26718808
-0.26718694
-0.2671855
-0.26718408
-0.26718336
-0.2671847
-0.26719044
-0.26720438
-0.26723224
-0.26728169
-0.26736209
-0.26748039
-0.26764143
-0.26784507
-0.26808271
-0.26834171
-0.26860567
-0.2688584
-0.26908581
-0.26927806
-0.26943065
-0.2695452
-0.26963054
-0.26969898
-0.26977319
-0.26987921
-0.27006305
-0.27035564
-0.27084741
-0.2715626
-0.272671
-0.27425726
-0.276903
-0.28080636
-0.28661413
-0.29211311
-0.29466157
-0.28368932
-0.25615801
-0.20571564
-0.15309128
-0.096032429
-0.068218605
-0.032349251
-0.26776137
-0.26776025
-0.26775893
-0.26775755
-0.26775606
-0.26775445
-0.26775271
-0.26775085
-0.26774886
-0.26774674
-0.26774448
-0.26774207
-0.26773952
-0.2677368
-0.2677339
-0.26773078
-0.2677274
-0.26772371
-0.26771963
-0.26771508
-0.26770995
-0.26770416
-0.26769763
-0.26769038
-0.2676826
-0.26767477
-0.26766787
-0.2676637
-0.26766522
-0.26767696
-0.2677048
-0.26775752
-0.26783667
-0.26795396
-0.26810468
-0.26828171
-0.26847648
-0.26867512
-0.26886475
-0.26903392
-0.2691749
-0.26928446
-0.26936469
-0.26942387
-0.26947236
-0.26953128
-0.26962125
-0.269784
-0.27003217
-0.27043317
-0.27099608
-0.27185513
-0.27311904
-0.27532508
-0.27867118
-0.28322927
-0.28699425
-0.28509086
-0.27093005
-0.24207352
-0.19647924
-0.15012143
-0.10016929
-0.073857238
-0.04059588
-0.26829177
-0.26828982
-0.26828753
-0.26828511
-0.26828248
-0.26827961
-0.26827648
-0.26827309
-0.26826941
-0.26826544
-0.26826115
-0.26825654
-0.26825158
-0.26824624
-0.26824049
-0.26823431
-0.26822762
-0.26822037
-0.26821247
-0.26820382
-0.26819431
-0.2681838
-0.2681722
-0.26815944
-0.26814557
-0.26813087
-0.26811599
-0.26810221
-0.26809173
-0.26808787
-0.2680933
-0.26812996
-0.26818089
-0.26824097
-0.26834163
-0.26845919
-0.26859022
-0.26872274
-0.26884747
-0.26895561
-0.2690417
-0.26910386
-0.26914449
-0.26917113
-0.26919114
-0.2692239
-0.26928056
-0.26939406
-0.26954356
-0.26978586
-0.27011104
-0.2706237
-0.27127274
-0.27272717
-0.27522224
-0.27861435
-0.27875785
-0.27304444
-0.25716903
-0.2278965
-0.18811039
-0.14717876
-0.10283646
-0.078915088
-0.048266762
-0.26877369
-0.26877106
-0.26876796
-0.26876468
-0.26876109
-0.26875716
-0.26875286
-0.26874818
-0.26874308
-0.26873754
-0.26873154
-0.26872504
-0.26871802
-0.26871043
-0.26870224
-0.26869339
-0.26868383
-0.26867346
-0.2686622
-0.26864992
-0.26863648
-0.26862174
-0.26860551
-0.26858768
-0.26856815
-0.26854702
-0.26852461
-0.26850175
-0.26847988
-0.26846084
-0.26845312
-0.268451
-0.26845142
-0.26848553
-0.26854866
-0.2686048
-0.26867531
-0.26874248
-0.26880151
-0.26884631
-0.26887382
-0.26888357
-0.26887813
-0.26886387
-0.26884355
-0.26883505
-0.2688362
-0.26885572
-0.26884608
-0.26886666
-0.26885649
-0.26878859
-0.26877098
-0.26957873
-0.27124307
-0.27182434
-0.26843524
-0.26030572
-0.24197577
-0.21687483
-0.1797258
-0.1443078
-0.10499899
-0.082757283
-0.054330302
-0.26919614
-0.26919301
-0.26918931
-0.26918537
-0.26918107
-0.26917634
-0.26917116
-0.2691655
-0.26915932
-0.26915258
-0.26914526
-0.26913731
-0.26912869
-0.26911934
-0.26910922
-0.26909826
-0.26908638
-0.26907349
-0.26905946
-0.26904416
-0.26902741
-0.26900901
-0.26898872
-0.2689663
-0.26894154
-0.26891428
-0.26888455
-0.26885268
-0.26881946
-0.26878568
-0.26875858
-0.26872938
-0.26871693
-0.26871795
-0.26871303
-0.26872169
-0.26872963
-0.26873183
-0.26872399
-0.26870291
-0.26866757
-0.26861858
-0.26855846
-0.26849081
-0.26841438
-0.26834486
-0.26825094
-0.26812125
-0.26788734
-0.26758802
-0.26715317
-0.26636318
-0.26624515
-0.26616666
-0.26570309
-0.26317842
-0.25775815
-0.24685792
-0.22900657
-0.20559343
-0.17294288
-0.14146452
-0.10631702
-0.085817491
-0.059572802
-0.26956138
-0.26955794
-0.26955386
-0.26954952
-0.26954477
-0.26953954
-0.2695338
-0.2695275
-0.26952062
-0.26951311
-0.26950492
-0.269496
-0.2694863
-0.26947577
-0.26946432
-0.2694519
-0.26943839
-0.26942369
-0.26940766
-0.26939013
-0.26937088
-0.26934965
-0.26932616
-0.26930004
-0.26927093
-0.26923849
-0.26920244
-0.26916269
-0.26911952
-0.26907353
-0.26902737
-0.2689783
-0.26893042
-0.2688892
-0.26884508
-0.2688009
-0.26874961
-0.26868783
-0.26861269
-0.26852315
-0.26841976
-0.26830343
-0.26817581
-0.26803562
-0.2678798
-0.26771226
-0.26746903
-0.26713174
-0.2666061
-0.26589649
-0.26491789
-0.26408674
-0.26299903
-0.26123182
-0.25836758
-0.25440651
-0.24617928
-0.234149
-0.21774876
-0.19579709
-0.16639875
-0.13845842
-0.1070525
-0.088034089
-0.063649042
-0.26986424
-0.26986071
-0.26985652
-0.26985205
-0.26984716
-0.26984176
-0.26983582
-0.2698293
-0.26982216
-0.26981435
-0.26980581
-0.26979649
-0.26978633
-0.26977526
-0.2697632
-0.26975005
-0.2697357
-0.26972002
-0.26970284
-0.26968394
-0.26966306
-0.26963987
-0.26961397
-0.26958487
-0.26955201
-0.26951477
-0.26947251
-0.26942466
-0.2693708
-0.26931082
-0.26924524
-0.26917441
-0.26909853
-0.26902093
-0.26893585
-0.26884198
-0.26873446
-0.26861023
-0.26846752
-0.26830636
-0.26812779
-0.26793154
-0.26771567
-0.26747633
-0.26720467
-0.26689265
-0.26641275
-0.26583131
-0.26486619
-0.26396173
-0.26283443
-0.26112613
-0.25855998
-0.25516778
-0.25105479
-0.2445131
-0.23466234
-0.22367957
-0.20710711
-0.18678721
-0.16048782
-0.13546669
-0.10720855
-0.089558667
-0.066928598
-0.27011465
-0.27011124
-0.27010721
-0.2701029
-0.27009817
-0.27009294
-0.27008719
-0.27008086
-0.27007392
-0.27006631
-0.27005797
-0.27004884
-0.27003886
-0.27002795
-0.27001602
-0.27000295
-0.26998863
-0.26997288
-0.26995551
-0.26993626
-0.2699148
-0.26989072
-0.2698635
-0.26983251
-0.26979697
-0.26975598
-0.26970853
-0.26965355
-0.26959
-0.26951701
-0.26943405
-0.26934082
-0.26923712
-0.26912294
-0.26899571
-0.26885268
-0.26868953
-0.26850301
-0.26829105
-0.26805283
-0.26778787
-0.26749156
-0.26715655
-0.2667771
-0.26633847
-0.26576204
-0.26510331
-0.26407884
-0.26317007
-0.26201459
-0.26008209
-0.25698422
-0.2531464
-0.24872485
-0.24251149
-0.23446224
-0.22524745
-0.21339723
-0.19758787
-0.17873581
-0.15488272
-0.13234733
-0.10684761
-0.090423657
-0.069340086
-0.27031768
-0.27031464
-0.27031104
-0.27030718
-0.27030295
-0.27029826
-0.27029309
-0.2702874
-0.27028114
-0.27027426
-0.2702667
-0.2702584
-0.27024929
-0.27023929
-0.2702283
-0.27021619
-0.27020282
-0.27018799
-0.27017148
-0.27015296
-0.27013205
-0.27010823
-0.27008086
-0.27004911
-0.27001199
-0.26996826
-0.2699165
-0.26985511
-0.2697824
-0.26969673
-0.26959665
-0.26948103
-0.26934898
-0.26919961
-0.26903083
-0.26883956
-0.2686214
-0.26837214
-0.26808752
-0.26776324
-0.26739524
-0.26696551
-0.26647022
-0.26590366
-0.26520582
-0.26443964
-0.26342938
-0.26253956
-0.26141991
-0.25943306
-0.25630067
-0.25202764
-0.24736881
-0.24118417
-0.23363751
-0.22569372
-0.21577038
-0.20407505
-0.18882025
-0.17122409
-0.14956211
-0.12916248
-0.10602935
-0.090727411
-0.071064783
-0.27048825
-0.27048582
-0.27048293
-0.27047984
-0.27047644
-0.27047267
-0.2704685
-0.27046389
-0.27045881
-0.2704532
-0.27044702
-0.2704402
-0.27043267
-0.27042434
-0.27041511
-0.27040485
-0.27039337
-0.27038047
-0.27036587
-0.27034919
-0.27032997
-0.27030758
-0.27028122
-0.27024988
-0.27021229
-0.27016687
-0.27011177
-0.27004483
-0.26996368
-0.26986588
-0.2697491
-0.26961133
-0.26945092
-0.26926647
-0.26905588
-0.26881597
-0.26854147
-0.26822623
-0.2678607
-0.2674346
-0.2669333
-0.26633851
-0.26563869
-0.26483884
-0.26392585
-0.26300124
-0.26209675
-0.26099272
-0.25903128
-0.25603409
-0.25153317
-0.24669612
-0.2405072
-0.23304983
-0.22546588
-0.21704826
-0.20703635
-0.19531044
-0.18067672
-0.16425381
-0.14444009
-0.12586746
-0.10479533
-0.090522449
-0.072135538
-0.27064161
-0.27064005
-0.27063818
-0.27063617
-0.27063394
-0.27063147
-0.27062872
-0.27062566
-0.27062227
-0.27061849
-0.27061429
-0.27060961
-0.27060438
-0.2705985
-0.27059186
-0.27058432
-0.27057569
-0.27056571
-0.27055406
-0.2705403
-0.27052387
-0.27050403
-0.2704798
-0.27044997
-0.27041296
-0.27036686
-0.27030935
-0.27023769
-0.27014887
-0.27003964
-0.26990684
-0.26974756
-0.26955937
-0.26934031
-0.26908793
-0.26879857
-0.26846478
-0.26807717
-0.26761648
-0.26706491
-0.26641926
-0.26559818
-0.26471458
-0.26372017
-0.26284345
-0.26196168
-0.26074732
-0.25891221
-0.25596722
-0.25133729
-0.24652998
-0.24036899
-0.23281593
-0.22538713
-0.21754269
-0.20881826
-0.19863091
-0.18706666
-0.17304136
-0.15765574
-0.13946207
-0.12248282
-0.10319859
-0.089874303
-0.072640155
-0.27080013
-0.27079967
-0.27079912
-0.2707985
-0.27079781
-0.27079701
-0.2707961
-0.27079505
-0.27079385
-0.27079245
-0.27079082
-0.27078891
-0.27078665
-0.27078394
-0.27078067
-0.27077667
-0.27077172
-0.27076553
-0.27075773
-0.27074778
-0.27073503
-0.27071859
-0.27069732
-0.27066975
-0.27063403
-0.27058786
-0.27052848
-0.27045263
-0.27035663
-0.27023654
-0.27008838
-0.26990833
-0.26969318
-0.26944044
-0.26914629
-0.26880567
-0.26840618
-0.267935
-0.26736047
-0.26667286
-0.265825
-0.26491544
-0.26391956
-0.2630272
-0.26213217
-0.26083621
-0.25895695
-0.25628229
-0.251395
-0.24659339
-0.24064436
-0.23293135
-0.22551412
-0.2179925
-0.20977367
-0.20081994
-0.19062147
-0.17924014
-0.16580834
-0.15137779
-0.13458942
-0.11899636
-0.10127204
-0.088829602
-0.072634833
-0.2709938
-0.27099469
-0.27099572
-0.2709968
-0.27099794
-0.27099917
-0.27100047
-0.27100184
-0.27100325
-0.2710047
-0.27100615
-0.27100754
-0.27100881
-0.27100987
-0.27101057
-0.27101072
-0.27101009
-0.27100832
-0.27100495
-0.2709994
-0.27099085
-0.27097828
-0.27096034
-0.27093532
-0.2709011
-0.27085501
-0.27079388
-0.27071397
-0.27061106
-0.27048054
-0.27031777
-0.27011879
-0.2698776
-0.26959214
-0.26925588
-0.26886148
-0.26839006
-0.2678343
-0.26712414
-0.26631946
-0.26542153
-0.26452719
-0.26360946
-0.26263059
-0.26126774
-0.25934681
-0.25634471
-0.25181156
-0.24694095
-0.24110945
-0.23337911
-0.2258996
-0.21850712
-0.21060251
-0.2021661
-0.19307956
-0.18289498
-0.17175531
-0.15890088
-0.14533374
-0.12977936
-0.11541029
-0.099051213
-0.087435741
-0.072172683
-0.2712639
-0.27126629
-0.2712691
-0.27127205
-0.27127525
-0.27127873
-0.27128248
-0.27128652
-0.27129083
-0.2712954
-0.27130021
-0.2713052
-0.2713103
-0.27131539
-0.27132032
-0.27132487
-0.27132872
-0.27133148
-0.2713326
-0.27133137
-0.27132684
-0.27131781
-0.27130274
-0.27127967
-0.27124621
-0.27119939
-0.2711357
-0.27105104
-0.27094079
-0.27080028
-0.27062607
-0.27040351
-0.27013533
-0.2698218
-0.26944615
-0.26900137
-0.26845594
-0.26781524
-0.2670836
-0.26624155
-0.26540004
-0.26455322
-0.26348384
-0.26208679
-0.26004574
-0.25691224
-0.25242618
-0.24752131
-0.24206202
-0.23389704
-0.22653621
-0.21919312
-0.21140263
-0.20330405
-0.19469535
-0.18552198
-0.17541962
-0.16454776
-0.15224471
-0.13947096
-0.12500463
-0.11172159
-0.09656386
-0.085728136
-0.071309461
-0.27166744
-0.27167132
-0.27167588
-0.27168069
-0.27168591
-0.27169159
-0.27169775
-0.27170438
-0.27171151
-0.2717191
-0.27172714
-0.27173556
-0.27174428
-0.27175315
-0.271762
-0.27177054
-0.27177842
-0.27178514
-0.27179005
-0.27179232
-0.27179087
-0.27178431
-0.2717709
-0.27174851
-0.2717145
-0.27166573
-0.27159851
-0.27150849
-0.27139174
-0.27124027
-0.27104332
-0.27080902
-0.27052445
-0.27017778
-0.26976421
-0.26926523
-0.26870218
-0.26802995
-0.26731506
-0.26654264
-0.26568776
-0.26464585
-0.26319439
-0.26103014
-0.25778676
-0.25317533
-0.24813446
-0.24252322
-0.23537102
-0.22716779
-0.22006034
-0.21232393
-0.20434473
-0.19606141
-0.18732613
-0.17812726
-0.1681391
-0.15755629
-0.14578151
-0.13373599
-0.12023635
-0.10792752
-0.093832305
-0.083735509
-0.070082325
-0.27227778
-0.27228292
-0.27228896
-0.27229533
-0.27230224
-0.27230976
-0.2723179
-0.27232667
-0.27233608
-0.2723461
-0.2723567
-0.27236779
-0.27237927
-0.27239097
-0.27240263
-0.27241393
-0.27242441
-0.27243348
-0.27244038
-0.27244411
-0.27244342
-0.27243674
-0.27242213
-0.27239724
-0.27235921
-0.27230465
-0.27223008
-0.27213042
-0.27199332
-0.27182438
-0.27162639
-0.27137863
-0.27106821
-0.27069914
-0.27027897
-0.26977417
-0.26918336
-0.26854221
-0.26784209
-0.26702128
-0.2659851
-0.26451459
-0.26226834
-0.25897093
-0.25434592
-0.24922329
-0.24371507
-0.23630962
-0.22827838
-0.22107913
-0.21341071
-0.20546361
-0.19728833
-0.18885276
-0.18003772
-0.1708507
-0.1610094
-0.15072895
-0.13945778
-0.12808692
-0.11545304
-0.10402544
-0.090877766
-0.0814855
-0.068533831
-0.27316777
-0.2731737
-0.27318067
-0.27318801
-0.27319596
-0.27320458
-0.2732139
-0.27322391
-0.2732346
-0.27324594
-0.27325787
-0.27327027
-0.27328299
-0.2732958
-0.27330839
-0.27332034
-0.27333109
-0.27333992
-0.2733459
-0.27334787
-0.27334437
-0.2733336
-0.27331341
-0.27328118
-0.27323344
-0.27316584
-0.2730846
-0.27298552
-0.27286532
-0.27268746
-0.27243177
-0.27214441
-0.27183039
-0.2714497
-0.27099245
-0.27047817
-0.26990438
-0.26924591
-0.26846994
-0.26745592
-0.2659612
-0.26369156
-0.26038255
-0.25578122
-0.25059714
-0.24510238
-0.23777094
-0.22998608
-0.22259338
-0.21468866
-0.20671996
-0.19856526
-0.19021184
-0.18165949
-0.17279765
-0.16365874
-0.15398723
-0.14401786
-0.13322858
-0.12248584
-0.11063396
-0.1000116
-0.087714619
-0.078997234
-0.066688695
-0.27443601
-0.27444204
-0.2744491
-0.27445653
-0.27446452
-0.27447317
-0.27448246
-0.27449238
-0.27450289
-0.27451394
-0.27452542
-0.27453717
-0.27454898
-0.27456056
-0.2745715
-0.27458126
-0.27458918
-0.27459437
-0.27459574
-0.27459193
-0.27458127
-0.27456171
-0.27453068
-0.27448519
-0.27442651
-0.27435131
-0.27426533
-0.27414338
-0.27394829
-0.27372681
-0.27348478
-0.27317792
-0.27281787
-0.27239715
-0.271919
-0.27137936
-0.27075882
-0.2700153
-0.26901405
-0.26752382
-0.26525197
-0.26197918
-0.25744469
-0.25221918
-0.24673697
-0.23949926
-0.2316656
-0.22415048
-0.21619332
-0.20813198
-0.19994538
-0.19159464
-0.18309439
-0.17445316
-0.16557631
-0.15651425
-0.14703214
-0.13738009
-0.12705317
-0.11690019
-0.10576182
-0.095882123
-0.084356764
-0.076290138
-0.064577347
-0.2761485
-0.27615398
-0.27616039
-0.27616707
-0.27617421
-0.27618186
-0.27618999
-0.27619855
-0.27620747
-0.27621663
-0.27622587
-0.27623497
-0.27624363
-0.27625144
-0.27625787
-0.27626224
-0.2762637
-0.27626115
-0.27625327
-0.2762384
-0.27621434
-0.2761788
-0.27613398
-0.27607364
-0.27600098
-0.27590327
-0.27573935
-0.27554847
-0.27534524
-0.27508974
-0.27478529
-0.2744259
-0.27401384
-0.27354964
-0.27302322
-0.27242365
-0.27169261
-0.27069731
-0.26920498
-0.26695942
-0.26372197
-0.25930601
-0.25406348
-0.24860322
-0.24149583
-0.23361265
-0.22598907
-0.21801888
-0.20984812
-0.20151625
-0.19307451
-0.1845414
-0.1759115
-0.16720706
-0.15834213
-0.14938248
-0.14010622
-0.13077642
-0.12089594
-0.11130096
-0.10082033
-0.091632456
-0.080813614
-0.073376942
-0.062216835
-0.27838892
-0.27839345
-0.27839869
-0.27840408
-0.27840973
-0.27841565
-0.27842177
-0.27842799
-0.27843416
-0.27844011
-0.27844558
-0.27845024
-0.27845364
-0.27845523
-0.27845428
-0.27844988
-0.27844093
-0.27842598
-0.27840319
-0.27837059
-0.278329
-0.27827327
-0.27820127
-0.27810607
-0.27796929
-0.27780386
-0.27761318
-0.27738279
-0.27710833
-0.2767833
-0.27640732
-0.27598306
-0.27550707
-0.27497477
-0.27436774
-0.27362481
-0.27261497
-0.2711184
-0.26887414
-0.26571482
-0.26136971
-0.25617747
-0.25072518
-0.24377651
-0.23586073
-0.22811453
-0.22006916
-0.21177525
-0.20330046
-0.1947144
-0.18606131
-0.1773667
-0.16863161
-0.15988975
-0.15106245
-0.14222831
-0.13317315
-0.12417065
-0.11472435
-0.10566207
-0.095795074
-0.087257765
-0.077093298
-0.070270662
-0.059627393
-0.281298
-0.28130117
-0.28130473
-0.28130824
-0.28131173
-0.28131514
-0.28131834
-0.28132114
-0.28132332
-0.28132459
-0.28132456
-0.28132272
-0.28131847
-0.28131101
-0.28129934
-0.28128226
-0.28125826
-0.28122542
-0.28118166
-0.28112599
-0.28105406
-0.28095891
-0.28083504
-0.28068359
-0.28050388
-0.28028743
-0.28002859
-0.27972196
-0.27936571
-0.27896162
-0.27850765
-0.27800188
-0.27744086
-0.27680135
-0.27602064
-0.27496801
-0.27344562
-0.27119785
-0.26808202
-0.26393808
-0.25875709
-0.25338049
-0.24646664
-0.23847919
-0.23058922
-0.2224461
-0.21400412
-0.20536907
-0.19659802
-0.18775648
-0.1788913
-0.17004699
-0.16122579
-0.1524698
-0.14370417
-0.13501748
-0.12619852
-0.11752931
-0.10850908
-0.099960009
-0.090672472
-0.082752469
-0.073201596
-0.06697926
-0.056823401
-0.28509854
-0.28509958
-0.28510054
-0.28510117
-0.28510135
-0.28510093
-0.2850997
-0.28509737
-0.28509358
-0.28508789
-0.28507974
-0.28506842
-0.28505305
-0.28503254
-0.28500558
-0.28497053
-0.28492543
-0.28486797
-0.28479555
-0.28470483
-0.28458886
-0.2844466
-0.28427692
-0.28407172
-0.28382587
-0.28353438
-0.28319416
-0.28280437
-0.28236276
-0.28186785
-0.28131967
-0.28071028
-0.28001278
-0.27916106
-0.27802919
-0.27642541
-0.2741312
-0.27095993
-0.26688209
-0.26167322
-0.25617485
-0.24937195
-0.2414326
-0.23340442
-0.22518172
-0.21657904
-0.20774561
-0.19875405
-0.18967323
-0.18057727
-0.17151605
-0.16254124
-0.15365694
-0.14491188
-0.13623274
-0.12771575
-0.11914908
-0.11082098
-0.10222305
-0.094173136
-0.085440113
-0.078110961
-0.069143205
-0.063511657
-0.053818239
-0.29010559
-0.29010311
-0.29009981
-0.29009575
-0.29009062
-0.29008414
-0.29007596
-0.29006567
-0.29005275
-0.29003657
-0.29001633
-0.28999108
-0.28995962
-0.28992054
-0.2898721
-0.28981223
-0.28973846
-0.28964793
-0.28953726
-0.28940265
-0.2892398
-0.2890441
-0.28881043
-0.28853395
-0.28821071
-0.28783737
-0.28741055
-0.28692791
-0.28638858
-0.28578885
-0.28511655
-0.28433922
-0.28338678
-0.28213494
-0.28040336
-0.27798459
-0.27471115
-0.27049491
-0.26528752
-0.25955295
-0.25286838
-0.24474897
-0.23668816
-0.22833957
-0.21958067
-0.21051677
-0.20125659
-0.19188993
-0.18249432
-0.17314702
-0.16390059
-0.15481302
-0.14588854
-0.13718011
-0.12861324
-0.12028931
-0.1119929
-0.10401622
-0.095841395
-0.088281586
-0.080086356
-0.073326498
-0.064921489
-0.059869873
-0.050625364
-0.29670661
-0.29669866
-0.29668879
-0.29667754
-0.29666434
-0.2966487
-0.29663016
-0.29660812
-0.29658186
-0.29655052
-0.29651304
-0.29646816
-0.29641435
-0.29634977
-0.29627228
-0.29617935
-0.29606801
-0.29593483
-0.29577591
-0.29558689
-0.29536319
-0.29510018
-0.2947932
-0.29443755
-0.29402881
-0.29356344
-0.29303854
-0.29245019
-0.29179061
-0.29104168
-0.2901641
-0.28908306
-0.28767512
-0.28577035
-0.28317647
-0.27973696
-0.27536651
-0.27001722
-0.2639805
-0.25726856
-0.2491471
-0.2408621
-0.23232721
-0.22319824
-0.21380822
-0.20420567
-0.1944777
-0.18471624
-0.17499943
-0.16540726
-0.15599262
-0.14681539
-0.137878
-0.12923525
-0.12080932
-0.11270428
-0.10469896
-0.097087116
-0.089340992
-0.082267025
-0.074600539
-0.068392389
-0.060539171
-0.056054847
-0.047265672
-0.30528599
-0.30527021
-0.30525094
-0.30522951
-0.30520493
-0.30517648
-0.30514353
-0.30510529
-0.30506081
-0.30500896
-0.30494839
-0.30487752
-0.30479451
-0.30469708
-0.30458261
-0.3044482
-0.30429046
-0.30410561
-0.30388945
-0.30363753
-0.30334498
-0.30300679
-0.3026181
-0.30217429
-0.30167073
-0.30110222
-0.30046132
-0.29973479
-0.29889719
-0.29790104
-0.29666494
-0.29506475
-0.29293577
-0.29010095
-0.28640862
-0.28178505
-0.2761894
-0.26984811
-0.262847
-0.25459877
-0.24592151
-0.23700535
-0.22749854
-0.2177025
-0.20768733
-0.19752682
-0.18731884
-0.17715717
-0.16712449
-0.15730193
-0.14774096
-0.13850152
-0.1295824
-0.12103796
-0.11278494
-0.10492767
-0.097237634
-0.090007604
-0.082700616
-0.076112709
-0.068973361
-0.063302943
-0.056000442
-0.052080533
-0.043711945
-0.31627145
-0.31624525
-0.31621356
-0.31617872
-0.31613929
-0.31609427
-0.3160428
-0.31598386
-0.3159162
-0.31583825
-0.31574867
-0.31564896
-0.31553359
-0.31539298
-0.31523092
-0.31504818
-0.31483713
-0.31459344
-0.31431284
-0.31399055
-0.3136215
-0.31320034
-0.31272135
-0.31217797
-0.31156174
-0.31086014
-0.31005261
-0.30910435
-0.30795761
-0.30652242
-0.30467127
-0.30224414
-0.29907247
-0.29502026
-0.29000142
-0.28402147
-0.27722529
-0.26979383
-0.26118369
-0.25207681
-0.24265088
-0.23267203
-0.22238035
-0.21183636
-0.20113894
-0.19038955
-0.17968558
-0.16912451
-0.15878904
-0.14875891
-0.1390821
-0.12981584