/*--------------------------------*- C++ -*----------------------------------*\
  =========                 |
  \\      /  F ield         | OpenFOAM: The Open Source CFD Toolbox
   \\    /   O peration     | Website:  https://openfoam.org
    \\  /    A nd           | Version:  13
     \\/     M anipulation  |
\*---------------------------------------------------------------------------*/
FoamFile
{
    format      ascii;
    class       volVectorField;
    location    "27.000949";
    object      wallShearStress;
}
// * * * * * * * * * * * * * * * * * * * * * * * * * * * * * * * * * * * * * //

dimensions      [0 2 -2 0 0 0 0];

internalField   uniform (0 0 0);

boundaryField
{
    inlet
    {
        type            calculated;
        value           uniform (0 0 0);
    }
    outlet
    {
        type            calculated;
        value           uniform (0 0 0);
    }
    cylinder
    {
        type            calculated;
        value           nonuniform List<vector> 
132
(
(1.4797686e-05 -0.00076797873 -2.4649818e-22)
(4.9188265e-05 -0.001104964 7.0151735e-23)
(0.00010281995 -0.0014351468 3.8696089e-21)
(0.00017472438 -0.0017523591 -1.2968706e-20)
(0.00026372135 -0.0020504501 9.1414945e-21)
(0.00036792441 -0.0023232098 2.7890834e-20)
(0.00048474844 -0.0025647006 -5.276515e-21)
(0.00061092928 -0.0027694061 -2.0872791e-20)
(0.0007425323 -0.0029326168 1.9645509e-20)
(0.00087529599 -0.0030505001 -4.398923e-20)
(0.0010046122 -0.0031205739 -7.9953534e-22)
(0.0011257368 -0.0031416687 2.7267015e-20)
(0.001234219 -0.0031145851 4.4428713e-20)
(0.00132595 -0.003041496 -3.6061122e-20)
(0.0013979159 -0.002927057 3.7947958e-20)
(0.0014479053 -0.0027769082 6.1048831e-20)
(0.0014754457 -0.0025988926 -3.9988775e-20)
(0.0014816818 -0.0024019708 6.4128583e-20)
(0.0014696778 -0.0021960311 8.4771884e-20)
(0.0014448166 -0.0019918665 -5.4980269e-20)
(0.0014140323 -0.0017994586 -7.0067605e-20)
(0.0013869987 -0.0016292051 2.4656343e-23)
(0.0013752424 -0.0014902295 1.0163048e-20)
(0.0013931763 -0.0013911796 -1.2167767e-20)
(0.0014570234 -0.0013385999 -2.0699505e-20)
(0.001583654 -0.0013357677 4.4267927e-21)
(0.0017868678 -0.0013800368 -3.996385e-20)
(0.0020691224 -0.001458289 1.0675113e-20)
(0.0024228477 -0.0015515321 8.3796755e-21)
(0.0028207054 -0.0016321223 -5.7687861e-20)
(0.0032213356 -0.0016720444 7.523499e-20)
(0.0035931245 -0.0016573801 2.2754259e-21)
(0.0039101354 -0.0015833896 1.6388853e-20)
(0.0041328481 -0.0014458741 -1.9401696e-20)
(0.0041857138 -0.0012380667 6.1589304e-20)
(0.0039365093 -0.00095505721 -3.8920908e-21)
(0.0032189026 -0.00061312377 1.5691429e-20)
(0.001820593 -0.00025756992 -2.1543373e-21)
(-0.0004649179 1.7976583e-05 3.0924213e-21)
(-0.003870869 7.6792594e-05 -1.9308728e-21)
(-0.0087433137 -0.0002969782 3.6125363e-21)
(-0.015059572 -0.0014041466 -1.1171411e-22)
(-0.02229966 -0.003434969 4.108144e-20)
(-0.030023278 -0.0064891886 -1.5877393e-20)
(-0.03766478 -0.010545548 1.4365897e-20)
(-0.044727205 -0.015481341 -9.2502508e-20)
(-0.050773362 -0.021077784 -1.4949565e-20)
(-0.055529116 -0.027079234 1.3147575e-19)
(-0.058798724 -0.033198517 -1.1228645e-19)
(-0.060539309 -0.039170401 -2.1462816e-21)
(-0.06074627 -0.044718846 3.4262608e-20)
(-0.059556712 -0.049646689 -3.1249639e-20)
(-0.057058664 -0.053714209 -6.1337103e-21)
(-0.053450186 -0.056773823 -3.9055907e-21)
(-0.048968105 -0.058739038 -5.9414807e-21)
(-0.043781818 -0.059470703 -2.8587958e-21)
(-0.038143473 -0.058951408 5.9996401e-22)
(-0.03226901 -0.057154495 4.8646735e-20)
(-0.026382381 -0.054105744 -7.4399135e-20)
(-0.020694496 -0.049859745 -7.9457827e-20)
(-0.015402028 -0.04450296 -3.2277886e-20)
(-0.010682807 -0.038150634 -7.4050813e-20)
(-0.0066919258 -0.030943637 1.6533225e-20)
(-0.0035563047 -0.02304403 2.4073404e-20)
(-0.0013790197 -0.014646959 -3.7442073e-20)
(-0.00021568833 -0.0059050169 -5.0057551e-21)
(-1.5658978e-06 -0.00042680958 -1.1341532e-21)
(6.6522773e-07 -8.0809896e-05 -6.7552228e-23)
(2.270814e-05 0.00026735143 -3.8762629e-21)
(6.3623664e-05 0.00061200522 1.2988707e-20)
(0.00012396159 0.00094690014 -9.1604939e-21)
(0.00020227397 0.00126545 -2.7965651e-20)
(0.00029671059 0.0015611974 5.2942848e-21)
(0.00040467626 0.0018278746 2.0959262e-20)
(0.00052285638 0.0020596988 -1.974401e-20)
(0.00064728155 0.0022516789 4.4252687e-20)
(0.00077364527 0.0023998183 8.0516844e-22)
(0.00089729515 0.0025014733 -2.7491762e-20)
(0.0010135437 0.0025555377 -4.485103e-20)
(0.0011180233 0.0025627746 3.6452013e-20)
(0.001206929 0.0025256943 -3.841223e-20)
(0.0012775716 0.0024490132 -6.1882295e-20)
(0.0013283719 0.0023388211 4.0592275e-20)
(0.0013596409 0.002203274 -6.5186468e-20)
(0.0013734067 0.0020514645 -8.6287304e-20)
(0.0013737766 0.00189332 5.6034536e-20)
(0.0013675348 0.0017397655 7.1496633e-20)
(0.0013636193 0.0016012933 6.4089163e-20)
(0.0013737182 0.0014881949 5.2691105e-20)
(0.0014119764 0.0014096443 1.2452292e-20)
(0.0014942607 0.0013726004 2.1199599e-20)
(0.0016357665 0.0013796372 -4.5367538e-21)
(0.0018480619 0.0014273378 4.0980486e-20)
(0.0021323343 0.0015030083 -1.0952422e-20)
(0.0024751018 0.0015852816 -8.6016315e-21)
(0.0028480198 0.0016482422 5.9241693e-20)
(0.0032195422 0.0016713807 -7.7292884e-20)
(0.0035625268 0.0016435083 -2.3251328e-21)
(0.0038454005 0.0015574882 3.8346503e-20)
(0.0040141698 0.0014048713 1.9969726e-20)
(0.0039770991 0.0011772298 -6.3452538e-20)
(0.003590658 0.00087260687 4.0139105e-21)
(0.0026813114 0.00051343924 1.1813137e-20)
(0.0010289284 0.00015266669 2.2255511e-21)
(-0.0015615557 -0.00010636462 -3.1950893e-21)
(-0.0052872803 -0.00011232618 1.9938808e-21)
(-0.010506071 0.00035263788 -3.7237639e-21)
(-0.01711489 0.0015923148 3.026157e-20)
(-0.024532922 0.0037757183 -4.1997858e-20)
(-0.03231108 0.0069804615 1.6134472e-20)
(-0.039850195 0.011154639 -1.4498555e-20)
(-0.046711473 0.016165716 9.2670115e-20)
(-0.052475906 0.021781198 1.4853352e-20)
(-0.056897074 0.027743112 -1.2947961e-19)
(-0.059815439 0.033769474 1.0946188e-19)
(-0.061205468 0.039598444 2.0672786e-21)
(-0.061077085 0.044959474 -3.2488737e-20)
(-0.059590313 0.049671834 2.8987095e-20)
(-0.056816903 0.053483576 -4.4143321e-20)
(-0.052979468 0.056270884 3.2103425e-21)
(-0.048329341 0.057969631 -4.4202241e-21)
(-0.043005014 0.058411962 5.3387834e-21)
(-0.03727818 0.057610064 -7.3317534e-22)
(-0.031358583 0.055537224 -5.4659533e-20)
(-0.025468506 0.052225775 8.056203e-20)
(-0.019816486 0.047736979 8.4205455e-20)
(-0.014594983 0.042161163 3.3710171e-20)
(-0.009978024 0.035619372 7.6495407e-20)
(-0.0061153888 0.028254762 -1.6929458e-20)
(-0.0031288485 0.020234854 4.8522167e-20)
(-0.0011154226 0.011746203 3.7796208e-20)
(-0.00012959028 0.0029854477 5.024285e-21)
)
;
    }
    frontAndBack
    {
        type            empty;
    }
}


// ************************************************************************* //
