/*--------------------------------*- C++ -*----------------------------------*\
  =========                 |
  \\      /  F ield         | OpenFOAM: The Open Source CFD Toolbox
   \\    /   O peration     | Website:  https://openfoam.org
    \\  /    A nd           | Version:  13
     \\/     M anipulation  |
\*---------------------------------------------------------------------------*/
FoamFile
{
    format      ascii;
    class       volScalarField;
    location    "36.796919";
    object      yPlus;
}
// * * * * * * * * * * * * * * * * * * * * * * * * * * * * * * * * * * * * * //

dimensions      [];

internalField   uniform 0;

boundaryField
{
    inlet
    {
        type            calculated;
        value           uniform 0;
    }
    outlet
    {
        type            calculated;
        value           uniform 0;
    }
    cylinder
    {
        type            calculated;
        value           nonuniform List<scalar> 
132
(
1.8259019e-07
1.8284046e-07
1.8247398e-07
1.8143421e-07
1.7968646e-07
1.7720666e-07
1.7398063e-07
1.700053e-07
1.6529016e-07
1.5985869e-07
1.537499e-07
1.4701941e-07
1.3973997e-07
1.3200198e-07
1.2391239e-07
1.1559364e-07
1.0718001e-07
9.8812943e-08
9.0639391e-08
8.2801496e-08
7.5425754e-08
6.8600827e-08
6.2354711e-08
5.6628319e-08
5.1252901e-08
4.5957798e-08
4.0431105e-08
3.4437658e-08
2.7971478e-08
2.1341845e-08
1.5109998e-08
9.9118951e-09
6.2998895e-09
4.6269053e-09
4.7008038e-09
5.6331705e-09
6.9967244e-09
8.728475e-09
1.0857047e-08
1.3436696e-08
1.6589248e-08
2.042409e-08
2.4617745e-08
2.910391e-08
3.375548e-08
3.8456163e-08
4.3107975e-08
4.7636044e-08
5.1986615e-08
5.6125851e-08
6.0029687e-08
6.3690333e-08
6.7091252e-08
7.0214482e-08
7.3116257e-08
7.5763798e-08
7.8150406e-08
8.0294616e-08
8.2199079e-08
8.3871471e-08
8.5315118e-08
8.6507089e-08
8.7472315e-08
8.8191836e-08
8.8688437e-08
8.8949221e-08
1.8169291e-07
1.8014174e-07
1.7798177e-07
1.7518918e-07
1.7176322e-07
1.6771378e-07
1.6306042e-07
1.5783244e-07
1.5206927e-07
1.4582032e-07
1.391453e-07
1.3211372e-07
1.2480427e-07
1.1730367e-07
1.0970527e-07
1.0210887e-07
9.46194e-08
8.7344414e-08
8.0388071e-08
7.3843989e-08
6.7785738e-08
6.2250222e-08
5.7211974e-08
5.2553383e-08
4.8047826e-08
4.3381638e-08
3.8240149e-08
3.2449357e-08
2.6111627e-08
1.9648958e-08
1.369198e-08
8.8750274e-09
5.7157375e-09
4.5161849e-09
4.8568072e-09
5.9068815e-09
7.3540957e-09
9.1741248e-09
1.140105e-08
1.4089772e-08
1.7356671e-08
2.1304214e-08
2.5589553e-08
3.0143306e-08
3.4833064e-08
3.9547907e-08
4.419467e-08
4.8698928e-08
5.3014939e-08
5.7109794e-08
6.0962129e-08
6.4565968e-08
6.7904605e-08
7.0963774e-08
7.3821079e-08
7.6399976e-08
7.8729953e-08
8.0810862e-08
8.2661286e-08
8.4273786e-08
8.5653167e-08
8.6786258e-08
8.7687554e-08
8.8344095e-08
8.8773068e-08
8.8972437e-08
)
;
    }
    frontAndBack
    {
        type            empty;
    }
}


// ************************************************************************* //
