/*--------------------------------*- C++ -*----------------------------------*\
  =========                 |
  \\      /  F ield         | OpenFOAM: The Open Source CFD Toolbox
   \\    /   O peration     | Website:  https://openfoam.org
    \\  /    A nd           | Version:  13
     \\/     M anipulation  |
\*---------------------------------------------------------------------------*/
FoamFile
{
    format      ascii;
    class       volSymmTensorField;
    location    "23.701649";
    object      UPrime2Mean;
}
// * * * * * * * * * * * * * * * * * * * * * * * * * * * * * * * * * * * * * //

dimensions      [0 2 -2 0 0 0 0];

internalField   nonuniform List<symmTensor> 
17140
(
(5.102086e-12 -2.9695924e-10 -2.2758794e-27 1.9101844e-08 3.649281e-26 1.2670288e-40)
(5.0190729e-10 -5.561469e-09 -1.1082622e-27 1.8133202e-07 7.8230554e-27 1.0865467e-42)
(4.46193e-09 -2.4475028e-08 1.8753046e-25 5.4889637e-07 -8.2351035e-25 4.7348461e-39)
(2.096039e-08 -7.0960391e-08 -4.0987259e-25 1.1776788e-06 1.267305e-24 5.7194917e-39)
(7.0017913e-08 -1.6466169e-07 8.3271923e-26 2.1335962e-06 -1.9478036e-25 7.8118253e-41)
(1.9156546e-07 -3.3385127e-07 -4.3680252e-25 3.4932506e-06 8.0717663e-25 8.3611666e-40)
(4.5949306e-07 -6.1766419e-07 -1.117893e-24 5.3441846e-06 1.6746172e-24 2.3676764e-39)
(1.0034274e-06 -1.0686641e-06 7.9866829e-25 7.7845097e-06 -9.8667375e-25 5.6367931e-40)
(2.0419053e-06 -1.7555051e-06 3.7191833e-24 1.0921604e-05 -3.8358534e-24 6.0305844e-39)
(3.9315492e-06 -2.7652017e-06 1.2690451e-23 1.4869557e-05 -1.1028798e-23 3.6217877e-38)
(7.238122e-06 -4.2043401e-06 -2.5710912e-23 1.9744981e-05 1.8963351e-23 7.9470826e-38)
(1.2836515e-05 -6.1982901e-06 3.0848887e-23 2.5660852e-05 -1.9417842e-23 6.2953918e-38)
(2.2047458e-05 -8.8871474e-06 6.2803175e-24 3.2718105e-05 -3.3882349e-24 1.4702373e-39)
(3.6818428e-05 -1.2416884e-05 -4.6711958e-23 4.0994906e-05 2.1679527e-23 4.6849758e-38)
(5.9954254e-05 -1.6924204e-05 6.7599756e-24 5.0533876e-05 -2.7056543e-24 5.7488852e-40)
(9.5398304e-05 -2.2514069e-05 -6.918445e-23 6.132797e-05 2.3932972e-23 3.5874715e-38)
(0.00014855734 -2.9230219e-05 3.2961689e-24 7.330634e-05 -9.8728432e-25 4.9365137e-41)
(0.00022665269 -3.7021444e-05 -9.4555933e-25 8.6322055e-05 2.4487576e-25 2.453074e-42)
(0.00033906914 -4.5710119e-05 -8.411232e-23 0.000100144 1.8923763e-23 1.2230314e-38)
(0.00049766674 -5.4973857e-05 1.3635272e-22 0.00011445524 -2.6620872e-23 2.030149e-38)
(0.00071702597 -6.4354405e-05 -8.140432e-23 0.00012885979 1.379409e-23 4.6355703e-39)
(0.0010146206 -7.3306191e-05 1.9026797e-23 0.00014289899 -2.8026021e-24 1.657086e-40)
(0.001411034 -8.1292147e-05 1.7049604e-22 0.00015607874 -2.1792689e-23 8.8000099e-39)
(0.0019305508 -8.7916944e-05 -2.0433835e-22 0.00016791062 2.2685852e-23 8.5324097e-39)
(0.0026010929 -9.2972475e-05 -3.8672912e-22 0.00017797426 3.7292652e-23 2.1044417e-38)
(0.0034549214 -9.6256799e-05 3.6550697e-22 0.00018599935 -3.062904e-23 1.3212584e-38)
(0.0045330172 -9.7982702e-05 2.0933756e-21 0.00019191022 -1.5230027e-22 3.0986695e-37)
(0.0058857697 -9.802342e-05 2.8547402e-22 0.00019585113 -1.8009186e-23 4.1860732e-39)
(0.0075723492 -9.5338207e-05 -2.872368e-21 0.00019814678 1.5721113e-22 3.1483567e-37)
(0.0096650554 -8.9358327e-05 -7.6700712e-22 0.00019925652 3.6320611e-23 1.6850534e-38)
(0.012251093 -7.9673193e-05 -3.1058166e-21 0.00019964775 1.2704919e-22 2.1087059e-37)
(0.015433905 -6.5718978e-05 4.6174709e-21 0.0001996649 -1.6272598e-22 3.6040229e-37)
(0.019334903 -4.69813e-05 -1.3550827e-21 0.00019947393 4.0945899e-23 2.4221536e-38)
(0.024094857 -2.2905913e-05 -7.2495561e-22 0.00019907061 1.8718465e-23 5.4932782e-39)
(0.029874758 7.1554276e-06 -7.9683878e-21 0.00019833185 1.7423121e-22 5.2891431e-37)
(0.03685524 4.40566e-05 3.8862422e-21 0.00019709307 -7.1516966e-23 1.0177145e-37)
(0.045233141 8.9004948e-05 -6.4948869e-21 0.00019521424 9.9292228e-23 2.3130539e-37)
(0.05521364 0.0001437173 -4.8501504e-21 0.00019262966 6.07392e-23 1.0614866e-37)
(0.06699569 0.00021066473 -2.4396288e-21 0.00018941808 2.4521596e-23 2.2300515e-38)
(0.080748213 0.00029345604 8.0654752e-21 0.00018585359 -6.3438296e-23 2.0512272e-37)
(0.096575852 0.00039687377 1.6532112e-20 0.00018242712 -9.748351e-23 7.305179e-37)
(0.11447466 0.00052653016 1.618572e-20 0.0001797715 -6.6957325e-23 6.0030905e-37)
(0.13428534 0.00068724887 7.5714887e-21 0.00017847166 -1.9348441e-23 1.1394931e-37)
(0.15567267 0.00088112554 -3.9285427e-20 0.00017894654 4.3793167e-23 2.6817023e-36)
(0.17811022 0.0011048706 -3.0373613e-20 0.00018147838 -5.9681053e-24 1.4213656e-36)
(0.20093276 0.0013457588 7.8283232e-21 0.00018618872 1.0956464e-23 8.4901274e-38)
(0.22351431 0.0015907785 -5.5407245e-20 0.000193172 -1.3984363e-22 3.8725414e-36)
(0.24515886 0.0018284654 -1.9431196e-20 0.00020243758 -6.9575651e-23 4.4004689e-37)
(0.26530073 0.0020526469 2.0269731e-20 0.00021370698 9.2946301e-23 4.4936053e-37)
(0.28365408 0.0022621988 5.0378159e-20 0.00022659181 2.7903236e-22 2.6458445e-36)
(0.29994093 0.0024620055 -3.1224537e-20 0.00024114616 -2.009998e-22 9.851682e-37)
(0.31380766 0.0026667228 -1.9668661e-20 0.00025906758 -1.4323565e-22 3.8533966e-37)
(0.3249609 0.0029125411 5.0736033e-20 0.00028137629 4.1331464e-22 2.5712787e-36)
(0.33326556 0.0032108468 2.3502447e-20 0.00030897031 2.1167691e-22 5.6365597e-37)
(0.33877201 0.0035377621 1.6253748e-20 0.00034458483 1.6003899e-22 2.8112857e-37)
(0.34183099 0.0038690846 -1.2298958e-20 0.000392414 -1.3133586e-22 1.705517e-37)
(0.3426158 0.004158434 3.1481028e-20 0.00045601541 3.5892399e-22 1.2210472e-36)
(0.34082525 0.0043299106 2.4729113e-20 0.00053610924 2.985926e-22 8.3906032e-37)
(0.33575629 0.0042964623 5.7418002e-21 0.00062807779 7.2568924e-23 5.1948361e-38)
(0.32639906 0.004011625 -1.3588543e-20 0.0007183092 -1.7897596e-22 3.4127949e-37)
(0.31155771 0.0035590375 -9.5648245e-21 0.0007815731 -1.3189954e-22 2.0727752e-37)
(0.29132442 0.0031424939 -3.1390901e-20 0.00079786949 -4.632136e-22 2.8195042e-36)
(0.26342242 0.0030997194 -3.9961978e-21 0.00075978778 -6.6913846e-23 6.0400567e-38)
(0.23179041 0.003755203 2.8741584e-20 0.00069502613 5.8839048e-22 4.2644621e-36)
(0.18867361 0.0050049423 -1.8177542e-20 0.00065676179 -5.0570123e-22 2.5479514e-36)
(3.1188877e-10 -7.2942882e-09 3.1096079e-27 1.7064621e-07 -6.2124718e-26 1.0260846e-41)
(4.9707559e-09 -8.9081594e-08 -1.0239078e-24 1.608172e-06 1.629128e-23 1.3037688e-37)
(2.2348494e-08 -3.260071e-07 1.7793262e-24 4.8363104e-06 -2.3100007e-23 1.0320306e-37)
(6.9717553e-08 -8.3614628e-07 -8.1547625e-25 1.0302174e-05 8.7887261e-24 7.6662496e-39)
(1.7847539e-07 -1.7848071e-06 -2.6192719e-24 1.8514118e-05 2.3819238e-23 3.2695063e-38)
(4.0453941e-07 -3.4072218e-06 7.4123713e-24 3.0035687e-05 -5.7565586e-23 1.1928412e-37)
(8.4344647e-07 -6.0284205e-06 -1.1064128e-23 4.5473474e-05 7.3948059e-23 1.2949635e-37)
(1.6532257e-06 -1.0086854e-05 1.3599686e-24 6.5455643e-05 -7.864088e-24 1.0018638e-39)
(3.0885803e-06 -1.6161331e-05 -5.8161878e-24 9.0598483e-05 2.9212733e-23 9.7510701e-39)
(5.5506836e-06 -2.4998743e-05 -1.3303403e-25 0.00012145853 5.8216793e-25 2.7808837e-42)
(9.6581056e-06 -3.7539245e-05 -3.4880691e-23 0.00015846853 1.3329881e-22 1.0825696e-37)
(1.634543e-05 -5.4933669e-05 7.302322e-23 0.00020185709 -2.4418018e-22 2.7255775e-37)
(2.6996779e-05 -7.8545832e-05 7.8746298e-24 0.00025155499 -2.3074443e-23 1.8527168e-39)
(4.3621103e-05 -0.00010993011 -1.0064472e-22 0.00030709558 2.5871734e-22 1.7965915e-37)
(6.9074207e-05 -0.00015077356 3.9722771e-23 0.00036752296 -8.9647155e-23 1.6845883e-38)
(0.00010732824 -0.0002027929 3.2193032e-23 0.00043132901 -6.3813391e-23 6.7414228e-39)
(0.00016378231 -0.00026758206 -2.5883698e-22 0.00049644663 4.5070443e-22 2.6863514e-37)
(0.00024559838 -0.00034641753 1.0609292e-21 0.00056033016 -1.6227508e-21 2.8163536e-36)
(0.00036203663 -0.00044004781 -8.2963846e-22 0.00062014781 1.1144499e-21 1.0877048e-36)
(0.00052475942 -0.00054851879 1.2318711e-21 0.00067309322 -1.4528081e-21 1.5336715e-36)
(0.00074807843 -0.00067111038 -2.2363588e-21 0.00071678893 2.3148882e-21 3.2786066e-36)
(0.0010491416 -0.00080646669 6.6783968e-22 0.00074970808 -6.066063e-22 1.9252637e-37)
(0.0014481676 -0.00095299612 3.3203365e-22 0.00077149731 -2.6461724e-22 3.1861293e-38)
(0.0019690494 -0.0011095591 -1.2983392e-21 0.00078307484 9.0775782e-22 3.3126989e-37)
(0.002639429 -0.0012759418 5.52902e-21 0.00078644345 -3.3924808e-21 4.1658405e-36)
(0.0034911294 -0.0014529549 9.6912293e-22 0.00078412504 -5.2187436e-22 9.0141474e-38)
(0.0045645653 -0.0016429154 -5.8366045e-21 0.00077809196 2.7611348e-21 2.3566774e-36)
(0.0059097157 -0.0018485001 7.5589904e-21 0.0007698673 -3.1408733e-21 2.8896412e-36)
(0.0075849612 -0.0020713467 -1.1903666e-21 0.00076109383 4.3456473e-22 5.3490363e-38)
(0.0096616419 -0.0023134609 -1.3321501e-20 0.00075281967 4.2660627e-21 5.0284017e-36)
(0.012225786 -0.0025766939 1.5659994e-21 0.00074550544 -4.3989293e-22 5.3295886e-38)
(0.015379365 -0.0028622071 1.3584765e-20 0.00073924278 -3.3414268e-21 3.0923892e-36)
(0.019241979 -0.0031706891 3.8988058e-22 0.00073384752 -8.3688265e-23 1.9439539e-39)
(0.023952166 -0.0035021499 -1.2791323e-20 0.00072893429 2.4065122e-21 1.6998299e-36)
(0.02966804 -0.0038555067 1.5945825e-20 0.00072395911 -2.6193119e-21 2.1148256e-36)
(0.036566497 -0.0042278103 -7.9967129e-21 0.00071825645 1.1451642e-21 4.295076e-37)
(0.044839421 -0.0046130805 1.041805e-20 0.00071106986 -1.2987822e-21 5.9707046e-37)
(0.054685357 -0.0050007761 3.6605992e-20 0.00070160804 -3.9624288e-21 6.0659618e-36)
(0.06629454 -0.0053739454 9.0200056e-21 0.00068918323 -8.4523251e-22 3.0582005e-37)
(0.079824573 -0.0057072929 3.8523238e-20 0.00067343418 -3.1129753e-21 4.6940911e-36)
(0.095365668 -0.0059662853 -5.3592981e-20 0.0006547389 3.7146907e-21 7.7267419e-36)
(0.11289651 -0.0061090599 -5.3336037e-20 0.00063483703 3.1482012e-21 6.5546922e-36)
(0.13223872 -0.0060927743 -9.8277601e-21 0.00061753388 4.8947653e-22 1.9188145e-37)
(0.15303313 -0.0058835978 8.3455134e-20 0.00060916315 -3.4513296e-21 1.2235606e-35)
(0.17472542 -0.0054688007 -4.1860969e-20 0.00061848844 1.4126063e-21 2.7238462e-36)
(0.19664313 -0.0048720632 -1.5249919e-20 0.00065513021 4.0903113e-22 3.2477876e-37)
(0.21807736 -0.0041402636 8.4763933e-21 0.00072497643 -1.7313341e-22 9.2356999e-38)
(0.23838254 -0.0033299747 2.7375044e-20 0.00082344956 -3.9839023e-22 8.8810715e-37)
(0.25706578 -0.0025104477 -1.3710171e-20 0.00093690659 1.2596075e-22 2.0970158e-37)
(0.27377008 -0.0017144959 2.5244523e-20 0.0010501143 -1.0535355e-22 6.7896287e-37)
(0.28822169 -0.00092941264 1.5290388e-19 0.001152811 7.2679303e-23 2.4228796e-35)
(0.30015696 -0.00013754067 7.2782784e-21 0.0012467669 3.5897195e-23 5.4422333e-38)
(0.30937709 0.0006605036 -3.2420286e-20 0.0013402908 -2.9317193e-22 1.0866874e-36)
(0.31586495 0.0014338722 7.0593032e-20 0.0014416511 9.289086e-22 5.2903735e-36)
(0.31988503 0.0021305431 -5.8397077e-20 0.0015570259 -1.0068344e-21 3.7925956e-36)
(0.32180108 0.0027334624 1.5881436e-19 0.001687123 3.3837156e-21 3.0022556e-35)
(0.32189624 0.0032626326 4.2949789e-20 0.0018254693 1.0965186e-21 2.4029582e-36)
(0.31998923 0.0037217838 -1.1310941e-19 0.0019617551 -3.3693964e-21 1.8759559e-35)
(0.3153832 0.0041212693 1.7780846e-20 0.0020749788 6.142065e-22 5.3350796e-37)
(0.30703943 0.0044424775 1.8430441e-20 0.0021279177 7.2471962e-22 6.8692019e-37)
(0.29349713 0.0047859672 3.3049854e-21 0.0020762718 1.4777713e-22 2.7421798e-38)
(0.27459146 0.0053313939 -3.8718743e-20 0.0019001326 -1.9840718e-21 4.8159633e-36)
(0.24765027 0.0063156933 6.4793302e-20 0.00160278 3.8564341e-21 1.8247743e-35)
(0.21669807 0.0081707843 1.6393814e-20 0.0012898435 1.1682247e-21 1.6348386e-36)
(0.17361809 0.0098977139 2.1795398e-20 0.0011176581 1.9661602e-21 4.5143435e-36)
(2.6597477e-09 -3.7972758e-08 4.6279542e-25 5.4214072e-07 -6.2501927e-24 3.1187731e-38)
(3.024551e-08 -3.9306577e-07 -7.2521624e-25 5.1100606e-06 8.9828642e-24 1.1910243e-38)
(1.0738609e-07 -1.2840642e-06 -3.3577228e-25 1.5369943e-05 3.8047002e-24 8.4209829e-40)
(2.7235012e-07 -2.9833934e-06 4.8606536e-25 3.2746642e-05 -5.0326824e-24 7.5675033e-40)
(5.8463753e-07 -5.8566911e-06 -3.379949e-24 5.8860483e-05 3.1990476e-23 1.7760433e-38)
(1.1379996e-06 -1.0401087e-05 -3.4795379e-25 9.55088e-05 3.010352e-24 9.8115858e-41)
(2.0775409e-06 -1.7279733e-05 -5.9996175e-24 0.0001446275 4.7386477e-23 1.6006341e-38)
(3.6244818e-06 -2.7361676e-05 -8.5744746e-24 0.00020822286 6.1717014e-23 1.8560469e-38)
(6.1118969e-06 -4.176676e-05 9.1713123e-23 0.00028826482 -6.0036038e-22 1.2381101e-36)
(1.0035063e-05 -6.1911045e-05 -1.0608395e-22 0.00038653378 6.3024259e-22 9.8528886e-37)
(1.6121163e-05 -8.9547109e-05 6.5235055e-23 0.00050441462 -3.510093e-22 2.251483e-37)
(2.5423891e-05 -0.00012679045 1.2202305e-22 0.00064263709 -5.9344373e-22 4.8203334e-37)
(3.9448942e-05 -0.00017611975 -3.0714641e-22 0.00080097091 1.3474629e-21 1.8889271e-36)
(6.0316045e-05 -0.00024033522 -4.8031878e-23 0.0009778987 1.8970443e-22 2.8813813e-38)
(9.0961476e-05 -0.00032245735 2.3313336e-22 0.00117031 -8.2731959e-22 4.2716075e-37)
(0.00013538159 -0.00042555042 2.006111e-22 0.0013732842 -6.3838841e-22 2.0043068e-37)
(0.00019891223 -0.00055246387 -2.8982721e-22 0.0015800528 8.2540871e-22 2.6712337e-37)
(0.00028853156 -0.00070550392 1.3007167e-21 0.0017822457 -3.3086758e-21 3.4618345e-36)
(0.00041316608 -0.00088607935 -9.4782194e-22 0.0019705106 2.1493212e-21 1.193301e-36)
(0.00058397726 -0.0010944084 5.7452245e-22 0.0021355424 -1.1592253e-21 2.871819e-37)
(0.00081461161 -0.0013294146 -2.3579554e-21 0.0022694489 4.2260963e-21 3.2059721e-36)
(0.001121416 -0.0015889517 -7.4104942e-22 0.0023672231 1.177882e-21 2.1240072e-37)
(0.001523705 -0.0018704862 1.8527706e-21 0.0024279354 -2.608213e-21 9.0341113e-37)
(0.0020443805 -0.0021722866 -3.3144875e-21 0.0024551885 4.127406e-21 1.9960673e-36)
(0.0027103188 -0.0024944213 -1.5390314e-21 0.0024565347 1.6935463e-21 3.0159267e-37)
(0.0035521879 -0.0028388486 2.1579818e-21 0.0024415471 -2.0978322e-21 4.2438404e-37)
(0.004608963 -0.0032101333 1.4218868e-20 0.0024181409 -1.2200522e-20 1.3351424e-35)
(0.0059294587 -0.0036140044 7.412744e-21 0.0023919036 -5.6110536e-21 2.6722169e-36)
(0.0075699974 -0.0040547903 -4.2288081e-21 0.0023674038 2.8227823e-21 6.52999e-37)
(0.0095994395 -0.0045370373 5.1659149e-21 0.0023471295 -3.0356694e-21 7.3558433e-37)
(0.012100642 -0.0050648659 -3.6502513e-21 0.0023316344 1.8884379e-21 2.8445488e-37)
(0.015171686 -0.0056411229 -2.3393061e-20 0.0023204095 1.0633175e-20 9.0434737e-36)
(0.018927315 -0.0062676178 8.8129525e-21 0.0023123829 -3.5176997e-21 1.0098832e-36)
(0.023500033 -0.0069447946 2.9516151e-20 0.0023061569 -1.0335591e-20 8.9966974e-36)
(0.029040347 -0.0076709263 -1.098409e-20 0.0022999754 3.3722439e-21 1.0053436e-36)
(0.03571532 -0.0084406678 -1.7156332e-20 0.00229162 4.6107846e-21 1.9827295e-36)
(0.043704108 -0.0092428893 3.2996517e-20 0.0022783055 -7.7535352e-21 6.0028572e-36)
(0.053188737 -0.010057799 1.1148358e-20 0.0022566886 -2.2862123e-21 5.6467948e-37)
(0.064337984 -0.010853507 -2.1788034e-20 0.002223165 3.8915836e-21 1.8074528e-36)
(0.077282012 -0.011582578 -9.5638897e-21 0.0021746218 1.4830417e-21 2.9403249e-37)
(0.092076825 -0.012180478 5.0173746e-20 0.0021099877 -6.7245976e-21 6.8680861e-36)
(0.10866055 -0.012569191 -1.5359425e-20 0.0020329352 1.7667135e-21 5.575303e-37)
(0.12680983 -0.012668287 -2.399829e-20 0.0019550233 2.3548926e-21 1.1790665e-36)
(0.14611426 -0.01241337 -6.8668508e-20 0.0018978956 5.6801912e-21 8.4678294e-36)
(0.16597568 -0.011780534 1.3868365e-19 0.0018930466 -9.5130011e-21 3.0810952e-35)
(0.18569758 -0.010814592 -9.46942e-20 0.0019752436 5.2774286e-21 1.2961663e-35)
(0.20458194 -0.0096150244 -2.5032296e-20 0.0021636381 1.1048292e-21 8.2588692e-37)
(0.22203586 -0.0082972998 -1.0249336e-19 0.0024431233 3.4052102e-21 1.2945842e-35)
(0.23763356 -0.0069795731 -1.2620042e-19 0.0027720923 2.9466679e-21 1.8572584e-35)
(0.25113503 -0.0057282806 -6.5355748e-21 0.0030974887 9.6990097e-23 4.7647567e-38)
(0.26240057 -0.0045395892 2.7860195e-20 0.0033837202 -1.61031e-22 8.4951657e-37)
(0.27130109 -0.0033874239 -2.0414187e-19 0.0036342779 -5.319836e-22 4.5602057e-35)
(0.27776751 -0.0022828299 -8.5907372e-20 0.003876658 -8.8562932e-22 8.2035799e-36)
(0.28192222 -0.0012958211 -8.6219278e-20 0.0041370875 -1.5394822e-21 8.5580991e-36)
(0.28415202 -0.00050113356 -2.7363296e-20 0.0044224769 -7.014915e-22 9.1136054e-37)
(0.28490297 0.00010098001 -2.0186246e-19 0.0047178157 -6.6754232e-21 5.369934e-35)
(0.28450121 0.00060275271 7.56713e-20 0.0049907729 3.1255462e-21 8.3510588e-36)
(0.2827044 0.0011168996 -2.1374043e-20 0.0052047675 -1.0609538e-21 7.6288078e-37)
(0.27868206 0.0017704452 -1.612942e-19 0.0053096017 -9.5153363e-21 5.0758322e-35)
(0.27128097 0.0026054387 -5.7943334e-20 0.0052390033 -4.0176827e-21 7.9513926e-36)
(0.25871893 0.0037504671 6.1107291e-20 0.0049237035 4.938471e-21 1.1215205e-35)
(0.24079248 0.0053571885 1.8282757e-19 0.0043600767 1.7243987e-20 1.3234836e-34)
(0.21430498 0.0074721506 -4.9291254e-20 0.0035930714 -5.484224e-21 1.3494805e-35)
(0.18471325 0.010611539 -6.5748829e-20 0.0028875152 -8.8727492e-21 3.5054913e-35)
(0.14309501 0.012791522 -2.190373e-20 0.0024319639 -3.7525375e-21 6.4297563e-36)
(1.0537578e-08 -1.0712075e-07 -3.0511537e-24 1.0889505e-06 3.0171604e-23 3.4977093e-37)
(1.0840965e-07 -1.0551781e-06 9.8391781e-24 1.0270798e-05 -9.3301734e-23 6.1916144e-37)
(3.5409479e-07 -3.3081272e-06 -5.9222081e-24 3.0910608e-05 5.3656673e-23 8.0922021e-38)
(8.2536441e-07 -7.3739699e-06 9.4140639e-25 6.590058e-05 -8.1304383e-24 9.55955e-40)
(1.632264e-06 -1.3906358e-05 -2.5647067e-23 0.0001185404 2.1076753e-22 3.7343272e-37)
(2.9331165e-06 -2.3752417e-05 3.5344474e-23 0.00019250594 -2.758177e-22 3.9954275e-37)
(4.9539221e-06 -3.7996407e-05 -6.9808447e-23 0.0002917787 5.1589738e-22 9.1868346e-37)
(8.0149962e-06 -5.8007926e-05 4.207354e-23 0.00042051602 -2.9352752e-22 2.0318791e-37)
(1.2567832e-05 -8.5494235e-05 2.0254563e-22 0.00058284479 -1.3294763e-21 2.9337895e-36)
(1.9244867e-05 -0.00012255028 -6.1123298e-23 0.00078256049 3.7614654e-22 1.6939029e-37)
(2.8925878e-05 -0.00017169915 -2.9033871e-22 0.0010227178 1.6691812e-21 2.4528134e-36)
(4.2825154e-05 -0.00023591158 1.0998827e-22 0.0013051074 -5.886151e-22 2.2810893e-37)
(6.2603864e-05 -0.00031858944 9.0799347e-24 0.001629632 -4.5069106e-23 1.0163761e-39)
(9.0511662e-05 -0.00042349423 -4.3849545e-22 0.0019936229 2.0114897e-21 1.5520139e-36)
(0.00012956039 -0.00055460001 1.68588e-21 0.002391179 -7.1211172e-21 1.5121752e-35)
(0.00018373016 -0.0007158533 -1.2685763e-21 0.002812662 4.916154e-21 5.6665641e-36)
(0.00025820477 -0.00091083492 -1.4777511e-23 0.0032445314 5.2349539e-23 5.1072801e-40)
(0.00035962826 -0.0011423422 1.045202e-21 0.0036697394 -3.3725014e-21 1.7059604e-36)
(0.00049637071 -0.0014119508 -3.2230568e-21 0.0040688921 9.4386456e-21 1.0884741e-35)
(0.00067879122 -0.0017196693 1.83935e-21 0.004422285 -4.8718512e-21 2.3944941e-36)
(0.00091949242 -0.0020638504 3.3009489e-21 0.0047127105 -7.8816286e-21 5.2498957e-36)
(0.0012335756 -0.0024415416 1.5998217e-21 0.0049286129 -3.4326836e-21 8.470351e-37)
(0.0016389555 -0.0028494195 -9.4073085e-21 0.0050668151 1.8088016e-20 2.0372227e-35)
(0.0021569927 -0.0032853891 -5.8078797e-21 0.0051338251 9.980672e-21 5.4639608e-36)
(0.0028132775 -0.0037502082 4.399507e-21 0.0051449347 -6.7425872e-21 2.2411584e-36)
(0.0036367751 -0.0042472618 -2.9923306e-21 0.005120613 4.081244e-21 7.4930688e-37)
(0.0046642322 -0.0047836818 1.2963922e-20 0.0050792032 -1.571494e-20 1.0352861e-35)
(0.0059424218 -0.0053684824 -4.2833811e-21 0.0050331257 4.6074908e-21 8.4229946e-37)
(0.0075246026 -0.0060087031 1.3203937e-20 0.0049915023 -1.2585705e-20 6.0513582e-36)
(0.0094756763 -0.0067113715 -8.491535e-21 0.0049595004 7.1617168e-21 1.9177142e-36)
(0.01187348 -0.0074828021 5.9589184e-21 0.0049381432 -4.4398615e-21 7.3034039e-37)
(0.014809967 -0.0083273985 -2.4655617e-20 0.004926072 1.6213483e-20 9.8143872e-36)
(0.018392221 -0.0092478757 3.9789196e-21 0.0049207973 -2.3067157e-21 2.0293357e-37)
(0.022743243 -0.010244788 -2.355927e-20 0.0049191916 1.2024482e-20 5.6746136e-36)
(0.028001581 -0.011315336 2.5188163e-20 0.0049173917 -1.130897e-20 5.2443515e-36)
(0.034319058 -0.01245124 8.9966484e-21 0.0049104301 -3.5485985e-21 5.4226137e-37)
(0.041855376 -0.013635587 -1.2415459e-19 0.0048919018 4.2978731e-20 8.5530838e-35)
(0.050767666 -0.014838655 -3.5822108e-20 0.0048539167 1.0863849e-20 5.9048611e-36)
(0.061193073 -0.016013005 3.2644445e-20 0.004787634 -8.6543153e-21 4.1193524e-36)
(0.073222279 -0.017088774 -3.5120639e-20 0.0046849189 8.1155898e-21 4.0363072e-36)
(0.086864083 -0.017971985 9.8655427e-21 0.0045419408 -1.978397e-21 2.7097974e-37)
(0.1020037 -0.018550265 6.6785078e-20 0.0043653151 -1.1569659e-20 1.0777296e-35)
(0.11836327 -0.018709325 -3.3290566e-21 0.0041794603 4.9483588e-22 2.3559219e-38)
(0.13547961 -0.018361465 -2.5865926e-20 0.0040320238 3.256912e-21 1.2422304e-36)
(0.15273362 -0.017487335 1.3316969e-20 0.0039934189 -1.3896475e-21 2.9818574e-37)
(0.16946639 -0.016173373 -7.1579012e-21 0.0041385793 6.2096597e-22 7.5000194e-38)
(0.18505263 -0.014581938 -2.1305145e-20 0.0045045858 1.4704794e-21 6.2911117e-37)
(0.19903096 -0.012901908 3.3845699e-19 0.005056837 -1.7969865e-20 1.4995991e-34)
(0.21115789 -0.011303428 -3.8812348e-20 0.0057010625 1.4695485e-21 1.8785549e-36)
(0.22135914 -0.0098574234 3.6373715e-20 0.0063198701 -9.0243411e-22 1.5998249e-36)
(0.22960169 -0.0085319731 -3.4315307e-19 0.0068405997 4.1945349e-21 1.405244e-34)
(0.23582328 -0.0072819737 1.8658562e-19 0.0072764513 -7.6832187e-23 4.1792945e-35)
(0.24002286 -0.0061372027 1.5075777e-19 0.0076922234 1.6996516e-21 2.794955e-35)
(0.2424109 -0.0052042073 1.3959659e-19 0.0081439268 3.1536408e-21 2.509097e-35)
(0.24345115 -0.0045676794 1.2888952e-19 0.0086403604 4.3769859e-21 2.2880732e-35)
(0.24361348 -0.0041899077 1.9157462e-19 0.0091412472 8.7512733e-21 5.5375554e-35)
(0.24310711 -0.0038830149 -3.5836877e-19 0.0095719368 -2.088793e-20 2.1749246e-34)
(0.2415226 -0.0034220474 2.0358383e-19 0.0098566152 1.4618942e-20 8.1095402e-35)
(0.23776834 -0.002569841 2.8055798e-19 0.0099043393 2.4329091e-20 1.8415736e-34)
(0.23059987 -0.0012176279 -1.8397524e-19 0.0096149764 -1.9087503e-20 9.8153747e-35)
(0.21799084 0.00076803948 -5.132748e-20 0.0088982399 -6.3092434e-21 9.9312774e-36)
(0.20008488 0.0035208791 -3.8212542e-20 0.0077735953 -5.5661147e-21 7.5297772e-36)
(0.17324212 0.0067111639 1.6171314e-19 0.0064030058 2.8348363e-20 1.9500155e-34)
(0.14462355 0.010867854 9.5968024e-20 0.0051738027 2.0731237e-20 1.0520886e-34)
(0.10575697 0.013282258 -3.1294238e-21 0.0043233039 -8.8296338e-22 2.0419461e-37)
(2.8229062e-08 -2.2138954e-07 3.5580123e-24 1.7362741e-06 -2.745582e-23 1.7342136e-37)
(2.7881878e-07 -2.1377593e-06 -2.3465772e-23 1.6390823e-05 1.7691455e-22 1.336634e-36)
(8.782181e-07 -6.5845373e-06 3.1170767e-23 4.9370103e-05 -2.2897779e-22 8.8819496e-37)
(1.9688915e-06 -1.4401791e-05 -1.6861186e-23 0.00010535272 1.2048081e-22 1.2681504e-37)
(3.7404886e-06 -2.6635955e-05 -8.2207303e-24 0.0001897013 5.7046768e-23 1.6546349e-38)
(6.4480218e-06 -4.4590126e-05 9.2309294e-23 0.00030842595 -6.2095141e-22 1.224782e-36)
(1.0433078e-05 -6.9870624e-05 -2.9819807e-23 0.00046808708 1.9399298e-22 7.8538607e-38)
(1.6151269e-05 -0.0001044344 -7.9466293e-23 0.00067560642 4.9859013e-22 3.5392417e-37)
(2.4208533e-05 -0.00015063632 -7.5594535e-24 0.00093795721 4.5604956e-23 2.0822927e-39)
(3.5407859e-05 -0.00021126832 -7.895859e-23 0.0012617026 4.5653786e-22 1.5015482e-37)
(5.0809038e-05 -0.00028958162 1.3505929e-22 0.0016523557 -7.4587508e-22 2.9414098e-37)
(7.180404e-05 -0.00038927939 -1.1411686e-22 0.0021135463 5.9978e-22 1.4190969e-37)
(0.00010021091 -0.00051446407 -5.0948682e-22 0.0026460058 2.5389033e-21 1.9235603e-36)
(0.00013838857 -0.00066952004 -1.790001e-23 0.0032464245 8.4244538e-23 1.6203789e-39)
(0.00018937449 -0.00085891326 5.6738892e-22 0.0039063007 -2.5117195e-21 1.118092e-36)
(0.00025704594 -0.0010868944 4.8374521e-22 0.0046109847 -2.0058037e-21 5.5882935e-37)
(0.00034630383 -0.0013571066 -5.0014317e-22 0.0053392127 1.9340454e-21 4.1175841e-37)
(0.00046327686 -0.0016721265 5.7458187e-23 0.0060635022 -2.0629711e-22 3.7691771e-39)
(0.00061554305 -0.0020330133 1.3979359e-21 0.0067517833 -4.6392697e-21 1.5434049e-36)
(0.00081236803 -0.002438993 2.0308783e-21 0.0073705211 -6.2015062e-21 2.2693351e-36)
(0.0010649672 -0.0028874642 -2.7524994e-21 0.0078892611 7.6991901e-21 2.9222869e-36)
(0.0013868095 -0.0033745243 -3.273245e-21 0.0082860125 8.3502931e-21 2.9186918e-36)
(0.0017939955 -0.00389615 5.1772469e-21 0.0085522497 -1.1995267e-20 5.2038543e-36)
(0.0023058982 -0.0044500991 -7.4873181e-21 0.0086958337 1.5693291e-20 7.8357528e-36)
(0.0029462724 -0.0050381512 -1.5068063e-20 0.0087402671 2.8467501e-20 2.310932e-35)
(0.0037421969 -0.0056657043 4.0955524e-20 0.0087197206 -6.952852e-20 1.2600406e-34)
(0.0047274857 -0.0063429242 -2.5839197e-20 0.0086681196 3.9311453e-20 3.7489713e-35)
(0.0059457009 -0.0070820409 4.3626026e-20 0.0086074422 -5.9337278e-20 8.0860063e-35)
(0.0074466533 -0.0078931609 -6.1786229e-20 0.0085530927 7.4962772e-20 1.2426086e-34)
(0.0092899504 -0.0087857172 7.7830075e-20 0.0085146996 -8.405065e-20 1.5279196e-34)
(0.011546802 -0.0097680335 -9.0430218e-20 0.0084945604 8.6764412e-20 1.6165423e-34)
(0.014301135 -0.010845894 1.7031319e-20 0.0084904017 -1.4494972e-20 4.5467581e-36)
(0.017650004 -0.012022574 6.5713934e-20 0.0084978032 -4.9529456e-20 5.4016844e-35)
(0.021703971 -0.013298287 -4.1247408e-20 0.008511118 2.7496724e-20 1.7174122e-35)
(0.026586078 -0.014668601 1.4309222e-20 0.0085233365 -8.4258166e-21 1.6840725e-36)
(0.032428734 -0.016121652 4.6093851e-21 0.0085253893 -2.3949902e-21 1.4429395e-37)
(0.039367233 -0.017634065 6.2894183e-20 0.0085054991 -2.8785431e-20 2.2107504e-35)
(0.047528212 -0.019165612 2.2562772e-20 0.0084490538 -9.0844754e-21 2.3709055e-36)
(0.057011297 -0.020653067 2.4947129e-20 0.0083394952 -8.8135357e-21 2.4385785e-36)
(0.067862483 -0.022004765 2.6836514e-20 0.0081613414 -8.2986725e-21 2.4140715e-36)
(0.080040253 -0.023099429 -1.4836213e-19 0.007906775 3.9982386e-20 6.3463718e-35)
(0.093378153 -0.023794824 7.0255905e-20 0.007586852 -1.6411283e-20 1.2365769e-35)
(0.10755284 -0.023951109 1.2073679e-20 0.0072450165 -2.433701e-21 3.1617099e-37)
(0.12207582 -0.023473194 -1.4735324e-19 0.0069678075 2.5227988e-20 4.2463594e-35)
(0.13636356 -0.022372454 -7.8968477e-20 0.0068823122 1.1378806e-20 1.0972814e-35)
(0.14985966 -0.020802016 4.0592932e-20 0.0071163587 -4.8458679e-21 2.6620815e-36)
(0.16211019 -0.0189983 1.5340957e-19 0.0077190964 -1.4723011e-20 3.5205842e-35)
(0.1728572 -0.017213291 -6.8535855e-20 0.0086186367 5.1566031e-21 6.6551945e-36)
(0.18203335 -0.015629441 2.041667e-19 0.0096391567 -1.1173446e-20 5.6613579e-35)
(0.18964566 -0.014279958 1.1193147e-19 0.01057537 -4.1056467e-21 1.6637231e-35)
(0.1956676 -0.013077679 1.5415262e-19 0.011315585 -3.1141868e-21 3.1424606e-35)
(0.20001805 -0.011954166 4.089783e-19 0.011902524 -1.468725e-21 2.2441142e-34)
(0.20270615 -0.010970136 -3.0869395e-19 0.012461569 -3.6955879e-21 1.3250337e-34)
(0.20400296 -0.010278768 9.7259147e-20 0.0130888 2.7774184e-21 1.3896947e-35)
(0.20441412 -0.0099653726 -1.5914327e-19 0.013791084 -6.889932e-21 4.0384501e-35)
(0.20435374 -0.0099306176 -1.4226295e-19 0.014493212 -8.5493763e-21 3.5831721e-35)
(0.20382359 -0.0098760648 -5.1614571e-20 0.015066801 -4.0462475e-21 5.3899292e-36)
(0.20222056 -0.009464244 -4.297904e-19 0.015383151 -4.1571584e-20 4.3958015e-34)
(0.19815445 -0.0083698233 -1.0387729e-19 0.015302657 -1.2306625e-20 3.1347142e-35)
(0.19042115 -0.0064294242 2.0963167e-19 0.014681733 3.0146835e-20 1.6215492e-34)
(0.17686315 -0.0035572224 6.8328821e-20 0.013439834 1.1884222e-20 2.3030315e-35)
(0.15822617 0.00034831309 -4.2884016e-20 0.01160786 -8.9784846e-21 1.2827803e-35)
(0.13106591 0.0045190715 -7.1897184e-20 0.0095658671 -1.8408618e-20 5.4823346e-35)
(0.10326497 0.0092628635 -8.8378039e-20 0.0077322076 -2.8485939e-20 1.3290161e-34)
(0.069106221 0.011616616 4.8152915e-21 0.0064071939 2.0677617e-21 7.7280689e-37)
(5.9219287e-08 -3.7611327e-07 1.6111529e-23 2.3887704e-06 -1.0123411e-22 1.6100012e-36)
(5.7342516e-07 -3.5980133e-06 1.1159679e-23 2.2576211e-05 -6.9169431e-23 1.4023323e-37)
(1.7734623e-06 -1.0987429e-05 -1.4533696e-23 6.8073382e-05 8.868025e-23 9.1927781e-38)
(3.8966896e-06 -2.3805446e-05 -7.5862301e-23 0.0001454362 4.5522155e-22 1.2531172e-36)
(7.2462177e-06 -4.3589033e-05 5.5421219e-23 0.00026222354 -3.2668376e-22 3.7608493e-37)
(1.2209438e-05 -7.2197757e-05 -1.0286296e-22 0.00042697111 5.9480549e-22 7.7890207e-37)
(1.9279864e-05 -0.00011185815 5.6091446e-23 0.00064908624 -3.1762754e-22 1.4577505e-37)
(2.9083424e-05 -0.00016520246 1.6559151e-23 0.00093862102 -9.1635728e-23 8.2662336e-39)
(4.2411444e-05 -0.00023530015 -1.1474263e-22 0.0013058831 6.190682e-22 2.6470508e-37)
(6.0260728e-05 -0.00032567191 -2.9997714e-22 0.0017608364 1.5738622e-21 1.2287878e-36)
(8.3882269e-05 -0.00044027668 -1.8155444e-23 0.002312249 9.2371453e-23 3.0938975e-39)
(0.00011483973 -0.00058345762 7.1235727e-22 0.0029665558 -3.5038084e-21 3.316599e-36)
(0.00015507921 -0.00075983206 -1.1771488e-21 0.0037264346 5.579157e-21 6.3416432e-36)
(0.00020701168 -0.00097410917 2.2641437e-21 0.0045891499 -1.0303861e-20 1.6515986e-35)
(0.00027360956 -0.0012308218 -7.0339928e-22 0.0055448046 3.06203e-21 1.1263829e-36)
(0.00035851895 -0.0015339684 1.7736995e-21 0.0065747584 -7.3559127e-21 5.0748867e-36)
(0.00046619024 -0.0018865795 -2.5409441e-21 0.0076506175 9.9958366e-21 7.3998682e-36)
(0.00060202994 -0.0022902525 1.9522441e-21 0.0087343311 -7.2516198e-21 3.1108748e-36)
(0.00077258108 -0.0027447458 -3.6413271e-22 0.0097799919 1.2710015e-21 7.7337413e-38)
(0.00098574264 -0.0032477741 -1.7397671e-21 0.010737827 5.6780186e-21 1.2653875e-36)
(0.0012510456 -0.0037951945 4.966314e-21 0.01156048 -1.5077795e-20 7.4267061e-36)
(0.0015800119 -0.0043817819 -8.2007539e-21 0.012210952 2.3041865e-20 1.4679508e-35)