/*--------------------------------*- C++ -*----------------------------------*\
  =========                 |
  \\      /  F ield         | OpenFOAM: The Open Source CFD Toolbox
   \\    /   O peration     | Website:  https://openfoam.org
    \\  /    A nd           | Version:  13
     \\/     M anipulation  |
\*---------------------------------------------------------------------------*/
FoamFile
{
    format      ascii;
    class       volVectorField;
    location    "21.704366";
    object      U;
}
// * * * * * * * * * * * * * * * * * * * * * * * * * * * * * * * * * * * * * //

dimensions      [0 1 -1 0 0 0 0];

internalField   nonuniform List<vector> 
17140
(
(-8.919758e-07 5.2521429e-05 2.1538029e-23)
(-7.2240129e-06 0.00016448104 2.3876909e-24)
(-1.9945852e-05 0.00028840987 -1.5747472e-22)
(-4.1541581e-05 0.00042296143 1.730678e-22)
(-7.4283185e-05 0.00056651159 -2.0225517e-23)
(-0.00012128982 0.00071711862 6.6184278e-23)
(-0.00018642958 0.00087251836 1.1138772e-22)
(-0.00027442094 0.0010301318 -5.4301202e-23)
(-0.00039101216 0.0011870855 -1.7769905e-22)
(-0.00054317326 0.0013402526 -4.3552282e-22)
(-0.00073930973 0.0014863183 6.449101e-22)
(-0.00098949793 0.0016218782 -5.7391624e-22)
(-0.0013057422 0.0017435753 -8.7819759e-23)
(-0.0017022458 0.0018482836 4.9453381e-22)
(-0.0021956856 0.0019333489 -5.4811195e-23)
(-0.0028054757 0.0019968921 4.3215841e-22)
(-0.0035539943 0.0020381841 -1.5922345e-23)
(-0.0044667425 0.0020580939 3.6571918e-24)
(-0.0055723883 0.0020596085 2.5125384e-22)
(-0.0069026352 0.0020484094 -3.2245224e-22)
(-0.0084918383 0.002033476 1.5374217e-22)
(-0.010376271 0.0020276511 -2.8682941e-23)
(-0.012592927 0.0020480532 -2.0944707e-22)
(-0.015177748 0.0021161301 2.045175e-22)
(-0.018163161 0.0022569964 3.1813224e-22)
(-0.021574945 0.0024974946 -2.4784895e-22)
(-0.025428627 0.0028622586 -1.1766957e-21)
(-0.029726068 0.0033673715 -1.3405848e-22)
(-0.034453545 0.0040128154 1.1097671e-21)
(-0.039582918 0.0047779431 2.4584572e-22)
(-0.04507595 0.0056256735 8.1716197e-22)
(-0.050893136 0.0065162713 -9.9499282e-22)
(-0.057001225 0.0074204872 2.4212955e-22)
(-0.063374213 0.0083250516 1.0677118e-22)
(-0.069991272 0.0092301019 1.0088754e-21)
(-0.076833612 0.010144097 -4.2187384e-22)
(-0.083882689 0.01107991 6.2051002e-22)
(-0.091120074 0.012052828 4.141183e-22)
(-0.098528547 0.01307992 1.8981623e-22)
(-0.10609414 0.014180127 -5.7721064e-22)
(-0.11380905 0.015374678 -1.1063486e-21)
(-0.12167453 0.016687482 -1.0244999e-21)
(-0.12970445 0.018145363 -4.5800012e-22)
(-0.13792882 0.019777442 2.2934316e-21)
(-0.14639643 0.021615308 1.7234188e-21)
(-0.15516777 0.023691565 -4.3524077e-22)
(-0.16431675 0.026039518 3.0249725e-21)
(-0.17393529 0.028698209 1.0526627e-21)
(-0.18413089 0.031711433 -1.0971602e-21)
(-0.19503094 0.035126054 -2.7436055e-21)
(-0.20678197 0.038984858 1.7276945e-21)
(-0.21956885 0.043314433 1.1164699e-21)
(-0.23359472 0.048095468 -2.9712572e-21)
(-0.24915147 0.0532294 -1.4381845e-21)
(-0.26647594 0.058465709 -1.0539223e-21)
(-0.28595727 0.063340024 8.4654557e-22)
(-0.30746457 0.067060865 -2.3836373e-21)
(-0.33112735 0.068520137 -2.063886e-21)
(-0.35536775 0.066242183 -5.3746907e-22)
(-0.38018053 0.058689439 1.4426086e-21)
(-0.40054062 0.043166434 1.1534732e-21)
(-0.41478224 0.017657186 4.4749978e-21)
(-0.40812033 -0.019645422 6.217364e-22)
(-0.37785905 -0.065963904 -4.912548e-21)
(-0.28823727 -0.10677994 2.5225335e-21)
(-5.8744521e-06 0.00013885936 -6.1315393e-24)
(-2.2552962e-05 0.00043158604 8.2438497e-22)
(-4.6513573e-05 0.00075459164 -7.3352035e-22)
(-8.0174786e-05 0.0011077865 1.9987426e-22)
(-0.00012575092 0.0014908264 4.128688e-22)
(-0.00018626825 0.0019030335 -7.8870688e-22)
(-0.00026547216 0.0023433689 8.21659e-22)
(-0.00036792554 0.0028104064 -7.227272e-23)
(-0.00049918358 0.0033023074 2.2548477e-22)
(-0.00066598128 0.0038168061 3.8568434e-24)
(-0.00087644324 0.0043512064 7.5117031e-22)
(-0.0011403157 0.0049023953 -1.191188e-21)
(-0.0014692211 0.0054668793 -9.8225884e-23)
(-0.0018769285 0.0060408472 9.6646475e-22)
(-0.0023796299 0.0066202694 -2.9547802e-22)
(-0.0029962083 0.0072010374 -1.8666313e-22)
(-0.0037484735 0.0077791526 1.1787763e-21)
(-0.0046613359 0.0083509669 -3.8098794e-21)
(-0.0057628699 0.0089134764 2.3627052e-21)
(-0.0070842117 0.00946466 -2.7993391e-21)
(-0.00865921 0.010003842 4.0789618e-21)
(-0.010523736 0.010532033 -9.8341178e-22)
(-0.012714535 0.01105218 -3.9785172e-22)
(-0.015267499 0.01156918 1.274858e-21)
(-0.018215254 0.012089478 -4.4724989e-21)
(-0.02158404 0.012619967 -6.5105375e-22)
(-0.025390105 0.013165978 3.2500684e-21)
(-0.029636218 0.01372848 -3.5044102e-21)
(-0.03430953 0.014301594 4.5115326e-22)
(-0.039382409 0.014872783 4.2414246e-21)
(-0.044817309 0.015427537 -4.0804625e-22)
(-0.050574952 0.015956033 -2.9484147e-21)
(-0.05662149 0.016458057 -7.5791138e-23)
(-0.062930446 0.016942268 1.9234604e-21)
(-0.069480489 0.017422852 -2.0327195e-21)
(-0.076252228 0.017916686 8.8240292e-22)
(-0.083226334 0.018442034 -1.0039199e-21)
(-0.090383286 0.019018447 -3.1695856e-21)
(-0.097704351 0.019667241 -7.1214522e-22)
(-0.10517347 0.020412148 -2.8016143e-21)
(-0.11278 0.021279836 3.6499784e-21)
(-0.12052141 0.022300101 3.4374095e-21)
(-0.12840669 0.023505893 6.0821542e-22)
(-0.13645967 0.024932458 -4.9540663e-21)
(-0.14472164 0.026615058 2.4071733e-21)
(-0.15324395 0.02858654 8.5942496e-22)
(-0.16208963 0.030881695 -4.8325836e-22)
(-0.17133756 0.033541851 -1.5103744e-21)
(-0.18107908 0.03661252 7.5914724e-22)
(-0.19142127 0.040143449 -1.3884909e-21)
(-0.20248331 0.044182446 -8.6047251e-21)
(-0.21441278 0.048763596 -4.2466054e-22)
(-0.22735684 0.053876756 1.9495779e-21)
(-0.24152277 0.059430308 -4.4281019e-21)
(-0.25700599 0.065163854 3.8857288e-21)
(-0.27397111 0.070565783 -1.1381043e-20)
(-0.29190165 0.07472935 -3.3689948e-21)
(-0.31040983 0.076392898 9.8696377e-21)
(-0.32710989 0.07391374 -1.7300571e-21)
(-0.34148645 0.065588381 -2.048852e-21)
(-0.34851562 0.048246939 -4.2682768e-22)
(-0.3477642 0.018871204 6.2020046e-21)
(-0.32448521 -0.024634153 -1.1233216e-20)
(-0.28323348 -0.081508556 -3.5285384e-21)
(-0.18145713 -0.13440369 -3.4420799e-21)
(-1.5551402e-05 0.00022273146 -3.3668014e-22)
(-5.2312265e-05 0.00069109291 2.4881629e-22)
(-9.8130424e-05 0.0012075742 6.6175527e-23)
(-0.00015537117 0.0017733461 -6.2713342e-23)
(-0.00022622203 0.0023893513 3.0391032e-22)
(-0.00031362697 0.0030561921 2.2651419e-23)
(-0.00042120443 0.0037740816 2.8858628e-22)
(-0.00055333916 0.0045427857 3.108171e-22)
(-0.00071534742 0.0053615548 -2.5368823e-21)
(-0.00091365435 0.0062290558 2.2627612e-21)
(-0.0011559935 0.0071433033 -1.0813749e-21)
(-0.0014516287 0.0081015918 -1.5822017e-21)
(-0.0018115984 0.0091004332 3.1303888e-21)
(-0.0022489774 0.010135503 3.8690084e-22)
(-0.0027791463 0.0112016 -1.4865287e-21)
(-0.0034200567 0.012292624 -1.017625e-21)
(-0.0041924694 0.013401576 1.1735485e-21)
(-0.0051201369 0.014520595 -4.2192568e-21)
(-0.0062298869 0.015641014 2.4715865e-21)
(-0.0075515502 0.016753457 -1.2109758e-21)
(-0.009117657 0.017847944 4.0314125e-21)
(-0.010962807 0.018913993 1.0350067e-21)
(-0.013122602 0.01994067 -2.1205485e-21)
(-0.015632004 0.020916538 3.1327508e-21)
(-0.018523033 0.02182945 1.2088001e-21)
(-0.021821759 0.022666217 -1.4066688e-21)
(-0.025544788 0.023412413 -7.7706413e-21)
(-0.029695852 0.024052984 -3.3978511e-21)
(-0.034263631 0.02457479 1.6027546e-21)
(-0.039222368 0.02497158 -1.6567379e-21)
(-0.044536424 0.025249429 9.4347307e-22)
(-0.050167878 0.025428111 5.1099786e-21)
(-0.056083312 0.025536596 -1.5947216e-21)
(-0.062255998 0.025606078 -4.5189187e-21)
(-0.068663852 0.025665481 1.4147373e-21)
(-0.075286325 0.0257406 1.9278926e-21)
(-0.082102494 0.025855368 -3.2628871e-21)
(-0.089090679 0.026033697 -9.8484053e-22)
(-0.096229236 0.026301143 1.7599783e-21)
(-0.10349819 0.026686147 7.1995391e-22)
(-0.11088171 0.027220731 -3.5062513e-21)
(-0.11837042 0.027940513 1.0007976e-21)
(-0.12596455 0.028884588 1.5197053e-21)
(-0.13367697 0.030094386 4.200891e-21)
(-0.14153483 0.03160895 -8.2358429e-21)
(-0.14957231 0.033461707 5.4882585e-21)
(-0.15783222 0.035688946 1.4223675e-21)
(-0.16636825 0.038333903 5.8178768e-21)
(-0.17523964 0.041443297 7.1832322e-21)
(-0.18451251 0.045068699 3.8247548e-22)
(-0.19425123 0.04926101 -1.6005034e-21)
(-0.20452973 0.054058526 1.2225198e-20)
(-0.21539042 0.059454458 5.3597037e-21)
(-0.22689301 0.065353987 5.6669475e-21)
(-0.23890876 0.071470256 1.9095384e-21)
(-0.25128961 0.077219064 1.532897e-20)
(-0.26306914 0.081557776 -6.3420163e-21)
(-0.27340255 0.083039632 2.1094207e-21)
(-0.27928743 0.079915896 1.7254253e-20)
(-0.28023545 0.070450379 7.2223472e-21)
(-0.2713876 0.051249767 -9.0187816e-21)
(-0.25402143 0.018534085 -3.2404729e-20)
(-0.21275132 -0.029918902 9.7093471e-21)
(-0.15887625 -0.096715644 1.5493977e-20)
(-0.040316466 -0.16042492 4.8274741e-21)
(-2.9661162e-05 0.00030196978 1.1268977e-21)
(-9.569881e-05 0.00093631743 -1.7930148e-21)
(-0.00017340362 0.0016357297 6.4822568e-22)
(-0.00026510121 0.00240262 -7.0446355e-23)
(-0.0003729837 0.003239207 1.3927066e-21)
(-0.00049992541 0.0041473755 -1.4403403e-21)
(-0.00064941677 0.0051286089 2.1844062e-21)
(-0.00082564634 0.0061839016 -1.0268038e-21)
(-0.0010336517 0.0073136528 -3.9027122e-21)
(-0.0012794813 0.0085175501 9.3727494e-22)
(-0.0015703775 0.0097944396 3.5673067e-21)
(-0.0019149815 0.011142184 -1.087156e-21)
(-0.0023235605 0.012557507 -7.2246952e-23)
(-0.0028082519 0.014035832 2.8350432e-21)
(-0.0033833184 0.015571102 -8.8414108e-21)
(-0.0040654018 0.017155608 5.4073002e-21)
(-0.004873756 0.018779806 5.1557952e-23)
(-0.0058304335 0.020432142 -2.9606501e-21)
(-0.0069603847 0.02209888 7.4663903e-21)
(-0.0082914183 0.023763939 -3.4932039e-21)
(-0.0098539499 0.025408732 -5.161394e-21)
(-0.011680449 0.027012002 -2.0681464e-21)
(-0.013804471 0.028549636 1.008681e-20)
(-0.016259158 0.029994481 5.19575e-21)
(-0.019075089 0.031316247 -3.2922686e-21)
(-0.022277469 0.032481796 1.8875984e-21)
(-0.025882833 0.033456517 -6.8762631e-21)
(-0.029895835 0.034208064 1.9171122e-21)
(-0.034307182 0.034713685 -4.9717943e-21)
(-0.039094076 0.034970262 2.668919e-21)
(-0.04422414 0.035001509 -1.5708213e-21)
(-0.049662093 0.034854919 5.4197889e-21)
(-0.055375888 0.034588527 -7.2428354e-22)
(-0.061338877 0.034256986 3.6575826e-21)
(-0.067528066 0.033905056 -3.3354132e-21)
(-0.07392123 0.033568283 -1.0491798e-21)
(-0.080495041 0.033276743 1.2597839e-20)
(-0.087224562 0.033058887 3.273035e-21)
(-0.094083813 0.032944485 -2.7083358e-21)
(-0.10104707 0.032966552 2.6951812e-21)
(-0.10809093 0.033162292 -6.9895281e-22)
(-0.11519615 0.033573025 -4.5720958e-21)
(-0.12235042 0.034243945 2.2369417e-22)
(-0.12955089 0.035222619 1.6325522e-21)
(-0.13680412 0.036552016 -7.9800335e-22)
(-0.14411992 0.038266356 4.1077486e-22)
(-0.15151191 0.040403506 1.2472356e-21)
(-0.15899767 0.043007887 -2.0043981e-20)
(-0.16659067 0.046126331 2.2753788e-21)
(-0.17429916 0.049810387 -2.184979e-21)
(-0.18211169 0.054111033 2.1065922e-20)
(-0.19000354 0.059066128 -1.186735e-20)
(-0.19788302 0.064665028 -9.9565408e-21)
(-0.20563282 0.070797961 -9.7638141e-21)
(-0.21287092 0.077138208 -9.6764911e-21)
(-0.219128 0.083016467 -1.5711276e-20)
(-0.22302465 0.087262019 3.2444839e-20)
(-0.22345133 0.088254158 -2.0895104e-20)
(-0.21712992 0.0842075 -3.3092656e-20)
(-0.20404377 0.073487531 2.6074988e-20)
(-0.17931214 0.052689723 8.480049e-21)
(-0.14575349 0.016808859 7.3330627e-21)
(-0.085560184 -0.035240248 -3.9971446e-20)
(-0.016134659 -0.11125473 -2.8140982e-20)
(0.12076355 -0.18496688 5.625183e-22)
(-4.7696665e-05 0.00037437952 -7.9369471e-22)
(-0.00015115537 0.0011604873 2.6351475e-21)
(-0.00026963199 0.0020272676 -2.1480837e-21)
(-0.00040542779 0.0029783398 8.1168228e-22)
(-0.00056077035 0.004017167 2.9323864e-22)
(-0.00073847941 0.0051469034 -2.5226054e-21)
(-0.00094192056 0.0063703082 6.3849897e-22)
(-0.0011750749 0.0076896354 1.3557105e-21)
(-0.0014426712 0.0091064943 1.0393382e-22)
(-0.0017503269 0.010621693 8.8292505e-22)
(-0.0021047104 0.012235054 -1.2354672e-21)
(-0.0025137215 0.01394521 8.5785222e-22)
(-0.0029866946 0.015749363 3.1577328e-21)
(-0.0035346183 0.017643021 9.2481424e-23)
(-0.0041703678 0.019619705 -2.4037318e-21)
(-0.0049089387 0.021670621 -1.6983233e-21)
(-0.0057676678 0.023784307 1.4570283e-21)
(-0.0067664159 0.025946258 -1.3864181e-22)
(-0.0079276794 0.028138521 -2.8128537e-21)
(-0.0092765809 0.030339274 -3.4060752e-21)
(-0.010840675 0.032522375 3.8543293e-21)
(-0.01264948 0.034656906 3.8422509e-21)
(-0.014733639 0.036706706 -5.1100992e-21)
(-0.017123579 0.038629976 6.2370499e-21)
(-0.019847583 0.040379159 1.0635569e-20)
(-0.022929243 0.041901635 -2.4549232e-20)
(-0.026384473 0.043142332 1.318064e-20)
(-0.030218642 0.044050111 -1.8945485e-20)
(-0.034424745 0.044589495 2.2763744e-20)
(-0.038983759 0.044755974 -2.4244327e-20)
(-0.043867818 0.044586249 2.3712887e-20)
(-0.049045615 0.044152482 -3.7274892e-21)
(-0.05448749 0.043541154 -1.2203582e-20)
(-0.060167349 0.042831433 6.4829037e-21)
(-0.066061237 0.042085415 -1.9187553e-21)
(-0.072144801 0.041349595 -5.3968447e-22)
(-0.078391523 0.040660893 -6.5758119e-21)
(-0.084772133 0.040052586 -2.1443109e-21)
(-0.091254905 0.039558652 -2.1331845e-21)
(-0.097806573 0.039216509 -2.1445828e-21)
(-0.10439388 0.039068304 1.1078511e-20)
(-0.11098484 0.039160873 -4.9753866e-21)
(-0.11755101 0.039545421 -8.2262356e-22)
(-0.12406944 0.040275431 9.6806344e-21)
(-0.13052019 0.041397959 5.077478e-21)
(-0.13688248 0.042948673 -2.5941891e-21)
(-0.14313327 0.044966862 -9.5800784e-21)
(-0.14924491 0.047497211 4.3294191e-21)
(-0.15517491 0.050585399 -1.2752004e-20)
(-0.1608624 0.054280786 -7.1007919e-21)
(-0.16620816 0.058631174 -1.0090851e-20)
(-0.17107888 0.06366935 -2.7497959e-20)
(-0.17524432 0.069374174 2.180021e-20)
(-0.17841808 0.075610965 -7.1821999e-21)
(-0.17998589 0.081997984 1.2874142e-20)
(-0.17920135 0.087767751 1.2579002e-20)
(-0.17430371 0.091674192 5.2254983e-21)
(-0.16404239 0.091962093 4.9372238e-20)
(-0.14521495 0.086962312 1.3803596e-20)
(-0.1185262 0.074956365 -3.3518676e-20)
(-0.078525806 0.052816702 -1.3559505e-20)
(-0.029234487 0.013805854 1.0285791e-20)
(0.050123529 -0.041405774 2.0699033e-20)
(0.1407195 -0.12529736 3.2607877e-20)
(0.29490411 -0.20743614 -1.0823808e-21)
(-6.8900231e-05 0.00043782598 -2.4205985e-21)
(-0.00021635472 0.0013570116 -8.5450926e-22)
(-0.00038277824 0.0023707069 6.9151996e-22)
(-0.00057046455 0.0034836782 2.5538304e-21)
(-0.00078170599 0.0047005797 -1.3991685e-21)
(-0.001019285 0.006025802 2.013376e-21)
(-0.0012864506 0.0074633707 -8.7096886e-22)
(-0.0015869737 0.0090168187 -2.0744175e-22)
(-0.0019252566 0.010689023 1.1734369e-21)
(-0.0023064497 0.012482016 2.5280757e-21)
(-0.0027365872 0.014396759 1.2739196e-22)
(-0.0032227389 0.016432883 -4.1504086e-21)
(-0.0037731827 0.018588381 5.7379313e-21)
(-0.0043975925 0.02085926 -9.2543437e-21)
(-0.0051072402 0.023239135 2.4149256e-21)
(-0.005915202 0.025718778 -5.1244209e-21)
(-0.0068365584 0.028285602 6.180496e-21)
(-0.0078885659 0.030923092 -4.0046129e-21)
(-0.0090907734 0.033610183 6.2917079e-22)
(-0.01046504 0.036320565 2.5456793e-21)
(-0.012035395 0.03902195 -6.1601216e-21)
(-0.013827665 0.041675279 8.6361917e-21)
(-0.015868765 0.044233927 -9.3213595e-21)
(-0.018185558 0.046643001 -1.5912136e-21)
(-0.020803169 0.048839054 1.5384004e-20)
(-0.023742764 0.050750898 -1.5321089e-20)
(-0.027018965 0.052303028 9.7647549e-21)
(-0.030637414 0.053424002 -1.0698794e-20)
(-0.034593348 0.054061952 -1.0074668e-21)
(-0.038871978 0.054205188 -6.1727237e-22)
(-0.043450944 0.053896956 3.7313852e-21)
(-0.048304194 0.053229406 -2.5923271e-22)
(-0.053405583 0.052315965 1.2661241e-20)
(-0.058730227 0.051261319 -3.220828e-21)
(-0.064253317 0.050146787 -9.2816661e-21)
(-0.069948016 0.049031445 4.1762744e-21)
(-0.075783906 0.04796008 -3.3477903e-21)
(-0.081726358 0.046971248 3.3233334e-21)
(-0.087736569 0.046103195 1.8616335e-20)
(-0.093772035 0.04539756 -1.0384598e-20)
(-0.09978754 0.044901151 -2.6064688e-21)
(-0.10573574 0.044666077 1.504965e-20)
(-0.11156879 0.044749435 -8.7566947e-22)
(-0.1172398 0.04521033 -1.9333153e-21)
(-0.12269773 0.046100146 -2.1650992e-20)
(-0.12788577 0.047457001 -5.1677533e-21)
(-0.13273857 0.049321223 8.31728e-21)
(-0.13717699 0.051737033 8.7058304e-21)
(-0.1410965 0.054747892 1.2643171e-20)
(-0.14436214 0.058399008 1.5924117e-20)
(-0.14678448 0.062732502 9.9168643e-21)
(-0.14812677 0.067773104 1.5813627e-20)
(-0.14803852 0.073485132 -5.5525245e-21)
(-0.14610528 0.079695883 3.4839599e-20)
(-0.14154299 0.085969132 2.4101836e-21)
(-0.13338549 0.091425623 2.1794013e-21)
(-0.11941836 0.094753134 1.3165553e-21)
(-0.098364842 0.094172378 -5.383685e-20)
(-0.066749021 0.088257507 -2.2399412e-20)
(-0.027178466 0.075046202 3.6688567e-20)
(0.027316908 0.051728689 5.559029e-20)
(0.092787887 0.009656635 2.6399088e-20)
(0.19106044 -0.049217048 8.1601866e-21)
(0.30654431 -0.1393698 -4.6963338e-20)
(0.47920821 -0.22716892 9.1259482e-21)
(-9.2274467e-05 0.00049034065 4.5791324e-22)
(-0.00028823249 0.0015198067 1.4553967e-21)
(-0.00050752501 0.0026554407 -3.5126775e-21)
(-0.00075245615 0.0039030727 1.3045161e-22)
(-0.0010254091 0.0052684705 1.7100937e-21)
(-0.001329148 0.0067572051 7.5374947e-22)
(-0.0016668191 0.0083745386 5.5656016e-22)
(-0.0020419897 0.010125286 -1.0965953e-21)
(-0.0024587331 0.012013636 5.6764695e-21)
(-0.0029217177 0.014042944 -4.2821883e-21)
(-0.0034363126 0.016215474 2.0731329e-22)
(-0.0040087065 0.0185321 2.5908381e-21)
(-0.0046460439 0.020991948 -9.6873099e-21)
(-0.0053565766 0.023591978 9.6496956e-21)
(-0.0061498277 0.026326495 -1.2837124e-21)
(-0.0070367632 0.02918658 -7.9397072e-21)
(-0.0080299622 0.032159443 7.4557883e-21)
(-0.0091437698 0.035227674 -2.6004156e-21)
(-0.010394409 0.03836841 5.0417103e-21)
(-0.011800018 0.04155239 -6.4488446e-21)
(-0.01338056 0.044742909 -1.206055e-20)
(-0.015157536 0.047894681 1.1870377e-20)
(-0.017153425 0.05095266 1.7272008e-20)
(-0.019390734 0.053850936 -3.3002758e-20)
(-0.021890596 0.0565121 2.6145375e-20)
(-0.024670905 0.058847892 -1.49429e-20)
(-0.027744173 0.060762898 3.7715689e-21)
(-0.031115631 0.062164152 -8.7123472e-21)
(-0.034782306 0.062979527 8.6130201e-21)
(-0.038733635 0.063183371 1.1189742e-20)
(-0.04295335 0.062817205 -7.0715336e-21)
(-0.047421756 0.061986408 -1.1153343e-20)
(-0.052117448 0.060828426 9.1149846e-22)
(-0.057017629 0.059474069 3.6576002e-22)
(-0.062096963 0.058026059 6.1443925e-21)
(-0.067325931 0.056558195 -2.5539612e-21)
(-0.072669613 0.055124566 -9.2028269e-21)
(-0.078087095 0.053769736 -4.6129956e-21)
(-0.083531274 0.052536408 6.966448e-21)
(-0.088948896 0.051470294 -5.5163786e-21)
(-0.094280909 0.050622558 4.8027155e-21)
(-0.099462409 0.050050277 -1.6205242e-21)
(-0.10442347 0.049816253 -6.4193558e-21)
(-0.10908974 0.049985211 1.5774259e-20)
(-0.11337608 0.050612896 9.6839613e-21)
(-0.11718571 0.051740958 6.4395522e-21)
(-0.12040701 0.053411063 -2.0888945e-20)
(-0.12290618 0.055666288 -1.3840534e-20)
(-0.12451445 0.058547281 -1.6597597e-20)
(-0.12502346 0.062094008 -2.9537271e-20)
(-0.12415899 0.066341966 1.040042e-20)
(-0.12159747 0.071307767 -2.2037251e-21)
(-0.11690569 0.076938827 -1.8055245e-20)
(-0.10960431 0.083039448 -5.4234946e-20)
(-0.09880771 0.089059828 -3.6860689e-20)
(-0.083017027 0.093976757 -1.512599e-20)
(-0.059609703 0.096542905 -4.6159e-20)
(-0.027528692 0.094910112 3.2794817e-20)
(0.016398333 0.088249843 -3.75184e-21)
(0.068121906 0.074012514 -5.9674985e-20)
(0.1363384 0.049338325 -4.2582194e-20)
(0.21888656 0.0042966562 -1.9421482e-21)
(0.33683549 -0.058755261 7.1417197e-20)
(0.47913786 -0.15426923 -7.9998385e-21)
(0.67030564 -0.24340569 7.4605903e-21)
(-0.00011660977 0.00053022551 1.8117769e-21)
(-0.00036307293 0.0016436198 -1.2222225e-21)
(-0.00063742228 0.0028723004 1.6509661e-21)
(-0.00094199238 0.0042230505 9.3837035e-22)
(-0.0012792768 0.0057026484 -2.6182466e-21)
(-0.001652042 0.0073177641 -2.4441302e-21)
(-0.0020633495 0.0090748407 2.5075944e-21)
(-0.0025165799 0.010979954 -3.0183153e-22)
(-0.0030154911 0.01303863 -6.9939414e-23)
(-0.003564278 0.015255624 -4.9648914e-21)
(-0.004167646 0.017634657 5.4369425e-22)
(-0.0048308943 0.020178083 1.0005476e-20)
(-0.0055600125 0.022886509 -7.9969983e-21)
(-0.0063617907 0.025758323 2.749187e-22)
(-0.0072439405 0.028789142 5.3534424e-21)
(-0.0082152249 0.031971165 4.6019181e-22)
(-0.0092855912 0.035292401 -1.1694473e-21)
(-0.010466296 0.038735785 -5.2622319e-21)
(-0.01177 0.042278139 9.620683e-21)
(-0.013210817 0.045888997 -1.687362e-20)
(-0.014804258 0.049529258 3.6240369e-21)
(-0.016567026 0.053149681 -2.6552325e-21)
(-0.018516587 0.056689279 2.1638717e-21)
(-0.020670419 0.060073728 -9.546599e-23)
(-0.023044889 0.06321421 1.2643432e-20)
(-0.025653757 0.06600758 1.2458625e-20)
(-0.028506506 0.068339775 -2.4278687e-20)
(-0.031607001 0.070095729 -3.9717985e-21)
(-0.03495318 0.071179489 1.3416223e-20)
(-0.038538104 0.07154415 4.6081078e-21)
(-0.042351597 0.071219545 1.0053341e-20)
(-0.046381076 0.07031504 -1.073846e-20)
(-0.050611102 0.068987019 -4.4822838e-21)
(-0.055022085 0.067392038 9.8905245e-21)
(-0.059588766 0.065656487 -3.9893833e-21)
(-0.064278974 0.063871566 -1.8863244e-21)
(-0.069052858 0.06210266 5.1714034e-21)
(-0.073862432 0.060401453 1.3505361e-20)
(-0.078651241 0.058815532 4.1232085e-21)
(-0.083353985 0.057394644 -2.721275e-21)
(-0.087896238 0.056194034 -6.6407252e-21)
(-0.092193799 0.055275409 -7.0347469e-21)
(-0.096152688 0.054706984 -7.9753143e-21)
(-0.099668277 0.054559132 -1.7178542e-20)
(-0.10261957 0.054892433 5.5585943e-22)
(-0.1048676 0.055753178 -7.5976079e-21)
(-0.10625237 0.057184676 4.2642141e-20)
(-0.10658421 0.059229365 1.2114058e-20)
(-0.10563238 0.061924799 1.4056283e-20)
(-0.1031189 0.065305368 3.9751141e-20)
(-0.098694941 0.069401855 -4.7306553e-20)
(-0.091973593 0.074227246 1.0751356e-20)
(-0.082479398 0.07973299 3.5239517e-20)
(-0.0697544 0.085625916 4.4450394e-20)
(-0.052374018 0.091240515 5.8459985e-21)
(-0.028256289 0.095441738 -1.5341445e-20)
(0.0050924575 0.097130915 -2.5857352e-20)
(0.048454919 0.094536076 1.1350152e-20)
(0.10300893 0.087197126 -2.1602364e-20)
(0.16641614 0.07207875 1.9074725e-20)
(0.24812024 0.04572333 6.8912592e-21)
(0.34904074 -0.0024249228 2.1190451e-20)
(0.4884962 -0.069998049 -8.9237934e-20)
(0.65951436 -0.16927608 -2.2631072e-21)
(0.85812646 -0.25431614 -2.3348868e-20)
(-0.00014051937 0.00055617719 -1.7057566e-21)
(-0.00043667462 0.0017243854 -4.5697581e-22)
(-0.00076514471 0.0030141762 5.0201726e-22)
(-0.001128387 0.0044331315 2.4671907e-21)
(-0.0015289917 0.0059889166 -2.9582935e-21)
(-0.001969749 0.0076891892 2.5113563e-21)
(-0.0024536589 0.0095414878 1.1999008e-21)
(-0.0029839416 0.011553097 -6.4223648e-23)
(-0.0035640685 0.013730871 -1.0117987e-21)
(-0.0041977938 0.016081016 -5.7504497e-21)
(-0.0048891948 0.018608827 9.6462869e-21)
(-0.0056427181 0.021318353 -1.157676e-20)
(-0.0064632361 0.024211999 3.3944848e-21)
(-0.0073561114 0.027290038 4.5993707e-21)
(-0.0083272724 0.030550023 -7.0392846e-21)
(-0.0093832962 0.033986075 1.3841232e-20)
(-0.010531497 0.037588043 -1.6727104e-20)
(-0.011780011 0.041340493 -2.6344789e-22)
(-0.013137871 0.045221516 -9.521626e-21)
(-0.014615041 0.049201335 3.7631018e-20)
(-0.016222385 0.053240679 -9.0685025e-21)
(-0.017971528 0.057288916 -3.7344409e-20)
(-0.019874528 0.061281989 1.7545437e-20)
(-0.021943318 0.065140273 2.0797722e-20)
(-0.02418884 0.068766735 -5.1823313e-21)
(-0.026619898 0.072046328 -2.6880122e-20)
(-0.029241951 0.074848559 4.0180935e-20)
(-0.032056325 0.077036746 -4.3798394e-20)
(-0.035060551 0.078488463 3.368379e-20)
(-0.038250054 0.079128483 -6.2480141e-21)
(-0.041619977 0.078963769 1.0373948e-20)
(-0.045165023 0.0780957 1.4167867e-20)
(-0.048876776 0.076691504 -5.2374193e-21)
(-0.052740185 0.074931245 -1.2625622e-21)
(-0.056730996 0.072966849 -1.7958718e-20)
(-0.060814719 0.070910103 3.3320189e-21)
(-0.064946393 0.068840371 -8.4243061e-21)
(-0.069070391 0.066818135 7.0797557e-21)
(-0.073120066 0.064896657 -4.0912968e-21)
(-0.077017055 0.063129885 -2.7324145e-21)
(-0.080670399 0.06157697 -2.3788351e-21)
(-0.083975372 0.060303935 -2.3864785e-21)
(-0.086812543 0.059384021 1.5027623e-20)
(-0.089045681 0.058893174 1.221811e-20)
(-0.090516758 0.058897848 -3.4271011e-21)
(-0.091044131 0.059449869 2.3134055e-21)
(-0.090419014 0.060595045 -9.7794935e-21)
(-0.088396557 0.062375944 1.9830741e-20)
(-0.084687225 0.064828251 2.3487139e-20)
(-0.07895073 0.067981464 6.9323092e-21)
(-0.070772504 0.071865114 1.8653241e-20)
(-0.059716942 0.07650147 -6.1791847e-22)
(-0.045335339 0.081837107 -9.3880095e-21)
(-0.026972897 0.08741387 -4.6405812e-20)
(-0.0021861412 0.092458938 2.3868514e-20)
(0.030836854 0.095805271 -9.9454985e-21)
(0.07413006 0.096520582 3.0423667e-20)
(0.1282382 0.093363417 -5.3290272e-20)
(0.19228848 0.085496362 3.1826165e-20)
(0.26741185 0.069380202 -1.1810895e-20)
(0.36346864 0.040943186 -2.2863077e-23)
(0.48503386 -0.010452039 -1.0206075e-20)
(0.64933574 -0.08276674 -3.5797797e-20)
(0.8469375 -0.18143606 6.4243686e-20)
(1.0231435 -0.25692151 -4.5667331e-20)
(-0.00016256049 0.00056738754 3.820486e-21)
(-0.00050452566 0.0017595886 2.6286918e-21)
(-0.00088288913 0.0030766315 -4.1264939e-21)
(-0.0013002357 0.0045267336 1.0862078e-22)
(-0.0017592614 0.0061182917 3.7305055e-21)
(-0.0022627966 0.0078598105 1.950502e-21)
(-0.0028138035 0.0097598047 -4.1107613e-21)
(-0.0034153751 0.011826678 6.7493835e-22)
(-0.0040707397 0.014068563 -9.5157097e-21)
(-0.0047832661 0.016493121 1.8544607e-21)
(-0.0055564713 0.01910729 4.7573875e-23)
(-0.0063940312 0.02191697 -6.8199546e-21)
(-0.0072997961 0.024926632 2.1852319e-20)
(-0.0082778108 0.028138831 -1.0181185e-20)
(-0.0093323419 0.031553614 -1.8239062e-20)
(-0.01046791 0.035167788 1.9432837e-20)
(-0.01168933 0.038974029 -2.3926166e-21)
(-0.013001747 0.042959801 1.3581137e-20)
(-0.014410676 0.047106046 1.0083161e-20)
(-0.015922009 0.051385616 -3.1692136e-20)
(-0.01754199 0.055761398 2.3769227e-20)
(-0.019277106 0.060184116 -3.1241091e-20)
(-0.021133847 0.064589808 3.6605067e-21)
(-0.023118291 0.068897091 -1.4919564e-20)
(-0.02523546 0.073004534 3.2269955e-20)
(-0.027488493 0.076789023 -7.5950376e-21)
(-0.029877835 0.080106987 -1.8997608e-20)
(-0.032400945 0.082802077 4.5272458e-20)
(-0.035053259 0.084724382 -1.9279865e-20)
(-0.037830629 0.085764494 -2.0269881e-20)
(-0.040731826 0.085895028 1.619092e-20)
(-0.04375812 0.085194844 2.0886886e-21)
(-0.046908776 0.083830087 -1.0041396e-20)
(-0.050174719 0.081998968 5.2898739e-21)
(-0.053533894 0.079879563 -7.8574961e-21)
(-0.056950192 0.077607744 2.6603077e-20)
(-0.060373752 0.075280324 -1.3641895e-20)
(-0.063741043 0.072968996 -8.1508041e-21)
(-0.066974681 0.070734036 -1.6663598e-20)
(-0.069982539 0.068634094 -2.3121735e-21)
(-0.072656383 0.066732223 1.8037188e-20)
(-0.074870247 0.065098511 -7.3284655e-21)
(-0.076478542 0.063810828 -1.1086604e-20)
(-0.077313276 0.062950685 -1.7179286e-21)
(-0.077179313 0.062591374 1.1498831e-20)
(-0.075853004 0.062791343 1.0314295e-20)
(-0.073077464 0.063599868 -3.2211901e-20)
(-0.068555378 0.06506139 -1.7449026e-20)
(-0.061941549 0.067211242 -3.8638821e-20)
(-0.052838583 0.070074645 -1.3792467e-20)
(-0.040769663 0.073686218 -5.4126805e-21)
(-0.02527189 0.078115717 -4.0840468e-20)
(-0.0059634972 0.083184484 -1.6465435e-20)
(0.018765499 0.088266998 5.6334194e-20)
(0.051466271 0.092556343 -4.6345239e-20)
(0.093486354 0.095053682 4.3948922e-20)
(0.14672527 0.094988892 -2.1537925e-20)
(0.21047622 0.091477156 1.0815777e-19)
(0.2839073 0.083272637 5.6277654e-20)
(0.3718673 0.065989652 -2.4038772e-20)
(0.48483809 0.035102351 -3.8912612e-20)
(0.63096442 -0.01959183 -6.658905e-20)
(0.82406331 -0.094753595 -9.5705882e-21)
(1.02885 -0.18693487 -9.0094668e-21)
(1.1433292 -0.24910155 5.9902116e-20)
(-0.00018127193 0.00056363808 6.9446293e-23)
(-0.00056212357 0.0017485266 -4.9443536e-21)
(-0.00098283308 0.0030583876 5.8281416e-21)
(-0.0014461063 0.0045018887 2.8041927e-21)
(-0.0019547465 0.0060879767 -5.6157082e-21)
(-0.0025116347 0.007825832 -1.8184808e-21)
(-0.0031197185 0.0097247901 8.8170263e-21)
(-0.0037820007 0.011794241 -9.4851495e-21)
(-0.0045015206 0.014043495 -2.0000187e-21)
(-0.0052813351 0.016481613 -7.9519749e-21)
(-0.0061244968 0.019117179 2.1103528e-20)
(-0.0070340327 0.021958022 2.5646359e-22)
(-0.0080129204 0.025010852 -1.891946e-20)
(-0.0090640666 0.028280808 2.0286272e-20)
(-0.010190286 0.03177088 -1.4502895e-20)
(-0.011394286 0.0354812 -5.3692755e-21)
(-0.012678647 0.039408144 1.119852e-20)
(-0.014045815 0.043543223 -1.0084975e-20)
(-0.015498084 0.047871706 -1.339859e-20)
(-0.017037565 0.052370932 2.8361338e-22)
(-0.018666141 0.057008246 2.1015674e-20)
(-0.020385357 0.061738516 -1.2956909e-20)
(-0.02219623 0.06650119 7.1944872e-21)
(-0.024098924 0.071216972 3.4633959e-20)
(-0.026092281 0.075784364 1.152991e-20)
(-0.02817323 0.080076832 -3.1086423e-20)
(-0.030336299 0.083942308 3.0829926e-21)
(-0.032573731 0.087208471 -3.4430656e-20)
(-0.034876938 0.089699223 2.0055397e-20)
(-0.037239702 0.091267526 -1.0412699e-20)
(-0.039661743 0.091841358 1.4689348e-20)
(-0.042148956 0.091460929 3.4845772e-21)
(-0.04470819 0.090275126 -1.6893786e-20)
(-0.047337661 0.088489991 1.6734893e-20)
(-0.050018747 0.086307491 2.3835687e-20)
(-0.052714869 0.083891163 -2.1393505e-21)
(-0.055372108 0.081359558 -2.4413745e-20)
(-0.057919193 0.078798875 3.0880967e-20)
(-0.060267808 0.076278505 -6.5984411e-21)
(-0.062311731 0.073862774 1.4301238e-20)
(-0.063925137 0.071618927 -2.2804981e-21)
(-0.064960614 0.069620996 2.3071658e-20)
(-0.065246541 0.067951171 1.1295252e-20)
(-0.064583729 0.066696494 1.4489475e-20)
(-0.062741029 0.06593783 -6.0016662e-20)
(-0.059454314 0.065741478 -2.0202557e-20)
(-0.054420158 0.066161314 2.7492971e-20)
(-0.047291364 0.067245383 -2.2737196e-20)
(-0.037671154 0.069031089 -1.9405116e-20)
(-0.025104833 0.071538633 2.2265585e-20)
(-0.0090405116 0.074827289 1.1847747e-20)
(0.010927456 0.078976123 2.8224869e-20)
(0.035525711 0.083655303 1.3863047e-20)
(0.067243465 0.088081958 -4.8114768e-20)
(0.10796588 0.091538472 -2.7306718e-20)
(0.15913988 0.093193569 -4.4567883e-21)