/*--------------------------------*- C++ -*----------------------------------*\
  =========                 |
  \\      /  F ield         | OpenFOAM: The Open Source CFD Toolbox
   \\    /   O peration     | Website:  https://openfoam.org
    \\  /    A nd           | Version:  13
     \\/     M anipulation  |
\*---------------------------------------------------------------------------*/
FoamFile
{
    format      ascii;
    class       volVectorField;
    location    "21.704366";
    object      UMean;
}
// * * * * * * * * * * * * * * * * * * * * * * * * * * * * * * * * * * * * * //

dimensions      [0 1 -1 0 0 0 0];

internalField   nonuniform List<vector> 
17140
(
(-3.1508807e-06 0.00015107563 -1.6396268e-22)
(-3.4849162e-05 0.00046583813 -1.3572989e-23)
(-0.00010232776 0.00081091961 8.9716669e-22)
(-0.00021942087 0.0011883415 -9.8673217e-22)
(-0.00039879609 0.0016002206 1.1541479e-22)
(-0.00065772645 0.0020485282 -3.7787106e-22)
(-0.0010174723 0.0025350274 -6.3658256e-22)
(-0.00150373 0.003061164 3.1133836e-22)
(-0.0021474621 0.0036279332 1.0197673e-21)
(-0.0029857121 0.0042357189 2.5045653e-21)
(-0.0040624332 0.0048841065 -3.7216003e-21)
(-0.005429288 0.0055716698 3.3241831e-21)
(-0.0071463727 0.0062957369 5.096599e-22)
(-0.0092827711 0.0070521429 -2.8970912e-21)
(-0.011916828 0.0078349889 3.2285357e-22)
(-0.015136003 0.008636426 -2.572089e-21)
(-0.019036161 0.0094465057 9.6861017e-23)
(-0.023720142 0.010253134 -2.1132897e-23)
(-0.029295499 0.011042182 -1.5525845e-21)
(-0.035871373 0.011797814 2.0325981e-21)
(-0.043554611 0.012503066 -9.862209e-22)
(-0.052445445 0.013140718 1.9134879e-22)
(-0.062633264 0.013694421 1.4152914e-21)
(-0.074193552 0.014150064 -1.4210011e-21)
(-0.087188118 0.014497304 -2.2810768e-21)
(-0.10166559 0.014731252 1.8524734e-21)
(-0.11766063 0.014854036 9.1509346e-21)
(-0.13520864 0.014874952 1.0780732e-21)
(-0.15434838 0.014810145 -9.604757e-21)
(-0.17513031 0.014679795 -2.2513947e-21)
(-0.19760975 0.014498908 -8.1015544e-21)
(-0.2218334 0.014273542 1.0754675e-20)
(-0.24785193 0.014003074 -2.8066181e-21)
(-0.27570302 0.013683053 -1.3546058e-21)
(-0.30540577 0.013306725 -1.3296999e-20)
(-0.33695015 0.012865525 5.880727e-21)
(-0.3702848 0.012349738 -8.8370703e-21)
(-0.40530209 0.011748994 -5.97472e-21)
(-0.44182032 0.011052829 -2.723859e-21)
(-0.47956316 0.010253116 8.2679433e-21)
(-0.51813968 0.009346404 1.5495745e-20)
(-0.55702484 0.0083360492 1.3960773e-20)
(-0.59553648 0.0072294176 6.0501667e-21)
(-0.63282298 0.0060335261 -2.8928157e-20)
(-0.66785996 0.0047526251 -2.0840763e-20)
(-0.69944494 0.0033923434 5.0527162e-21)
(-0.72633413 0.0019529852 -3.3794253e-20)
(-0.74732299 0.00042545843 -1.129351e-20)
(-0.76100976 -0.0011919232 1.1343439e-20)
(-0.76637018 -0.0028591224 2.7426444e-20)
(-0.76245249 -0.0045266746 -1.674679e-20)
(-0.74850045 -0.0061646179 -1.05246e-20)
(-0.72372036 -0.007793289 2.7378448e-20)
(-0.68754118 -0.0094138545 1.2972064e-20)
(-0.63918649 -0.010961784 9.3246875e-21)
(-0.57828071 -0.012355558 -7.3453115e-21)
(-0.50455044 -0.01352425 2.0316493e-20)
(-0.41793595 -0.014357285 1.7228314e-20)
(-0.31846966 -0.014734612 4.4152486e-21)
(-0.20720186 -0.014560186 -1.1499561e-20)
(-0.085036044 -0.013887366 -9.215608e-21)
(0.044164245 -0.012837792 -3.4753607e-20)
(0.17905097 -0.01141639 -5.1817102e-21)
(0.30954642 -0.0095296819 4.4035815e-20)
(0.4409715 -0.0073409891 -3.442694e-20)
(-2.7691401e-05 0.00064848673 4.6508444e-23)
(-0.00010995457 0.0019977668 -4.6982953e-21)
(-0.00023208289 0.003474699 4.1819295e-21)
(-0.00040797781 0.0050874892 -1.1407826e-21)
(-0.00065035453 0.0068441738 -2.3571828e-21)
(-0.00097643209 0.0087519728 4.5063546e-21)
(-0.0014073036 0.010816926 -4.7016949e-21)
(-0.0019683646 0.013043375 4.1418164e-22)
(-0.0026901101 0.015433331 -1.2945105e-21)
(-0.003608918 0.017985727 -2.1628517e-23)
(-0.004767843 0.020695553 -4.3361528e-21)
(-0.0062173849 0.023552887 6.9074339e-21)
(-0.0080161857 0.02654186 5.7194704e-22)
(-0.010231564 0.029639595 -5.6640937e-21)
(-0.012939784 0.032815238 1.7472973e-21)
(-0.016225927 0.036029189 1.1142095e-21)
(-0.020183226 0.03923276 -7.0963949e-21)
(-0.024911718 0.042368467 2.3248881e-20)
(-0.030516098 0.045371278 -1.4643684e-20)
(-0.037102753 0.048171063 1.7648725e-20)
(-0.044776068 0.050696512 -2.6256594e-20)
(-0.0536343 0.052880522 6.4855705e-21)
(-0.063765534 0.054666798 2.6957387e-21)
(-0.075244692 0.056016955 -8.8618785e-21)
(-0.088133678 0.056916938 3.2161085e-20)
(-0.10248234 0.057381415 4.8128568e-21)
(-0.11832631 0.057453807 -2.5306186e-20)
(-0.13570206 0.057197257 2.8580037e-20)
(-0.15464949 0.056683803 -4.0095862e-21)
(-0.17521852 0.055978675 -3.9127961e-20)
(-0.19746348 0.055131766 4.1213262e-21)
(-0.22142913 0.054172285 3.1496665e-20)
(-0.24716367 0.053110638 7.493807e-22)
(-0.27470123 0.051944013 -2.3750972e-20)
(-0.30405627 0.050659633 2.6653719e-20)
(-0.33521313 0.049236209 -1.2017441e-20)
(-0.3681138 0.047644899 1.4279439e-20)
(-0.40264261 0.045850249 4.5276183e-20)
(-0.43860848 0.043811501 1.0079201e-20)
(-0.47572477 0.041486074 3.9402108e-20)
(-0.51358854 0.038834216 -5.0448528e-20)
(-0.55165991 0.035821362 -4.5955419e-20)
(-0.58923824 0.032417462 -7.6931863e-21)
(-0.62544501 0.028595527 6.1962994e-20)
(-0.65921591 0.02433798 -2.8684226e-20)
(-0.68930704 0.01965749 -9.7695346e-21)
(-0.7143931 0.014601469 5.2756373e-21)
(-0.73319771 0.0092196427 1.6027807e-20)
(-0.74446395 0.0035884167 -7.7532685e-21)
(-0.74704016 -0.0021540586 1.384465e-20)
(-0.73998096 -0.0079062265 8.28686e-20)
(-0.7225154 -0.013605362 3.9620252e-21)
(-0.69394523 -0.019228175 -1.7804827e-20)
(-0.6536897 -0.024765291 3.9708098e-20)
(-0.6011842 -0.030151098 -3.4161843e-20)
(-0.53610031 -0.035272061 9.8040316e-20)
(-0.4581729 -0.040043581 2.8290062e-20)
(-0.36755787 -0.044293254 -8.1433772e-20)
(-0.26439243 -0.047815844 1.3956418e-20)
(-0.14986117 -0.050348945 1.6380409e-20)
(-0.025005477 -0.051658713 3.3638254e-21)
(0.105864 -0.051619176 -4.5252604e-20)
(0.24144217 -0.049749804 8.9910623e-20)
(0.37165213 -0.046539756 2.7161626e-20)
(0.50256484 -0.041012244 4.5805479e-20)
(-7.9438977e-05 0.0011350486 2.5620327e-21)
(-0.00026802686 0.0034966582 -1.4146782e-21)
(-0.00050505177 0.0060816149 -3.7628487e-22)
(-0.0008042944 0.0089044146 3.5706016e-22)
(-0.0011785942 0.0119791 -1.7305504e-21)
(-0.0016449734 0.015318298 -1.2843482e-22)
(-0.0022240811 0.018932564 -1.6461431e-21)
(-0.0029405719 0.022829475 -1.7750795e-21)
(-0.0038238344 0.027012516 1.4534086e-20)
(-0.004908702 0.031479759 -1.2997547e-20)
(-0.0062361769 0.036222345 6.2325562e-21)
(-0.007854131 0.041222768 9.1516446e-21)
(-0.0098179462 0.046453031 -1.8203566e-20)
(-0.012191015 0.051872775 -2.2590111e-21)
(-0.015045003 0.057427522 8.766637e-21)
(-0.018459767 0.06304731 6.0536586e-21)
(-0.022522797 0.068646041 -7.0588731e-21)
(-0.027328046 0.074121981 2.5705911e-20)
(-0.032974056 0.07935995 -1.5306287e-20)
(-0.039561334 0.084235717 7.6197017e-21)
(-0.047189065 0.088623029 -2.5925745e-20)
(-0.055951412 0.092403383 -6.8025455e-21)
(-0.065933844 0.095478066 1.4330584e-20)
(-0.077210286 0.097781119 -2.1760103e-20)
(-0.08984302 0.099290999 -8.6238146e-21)
(-0.10388445 0.10003813 1.0530342e-20)
(-0.11937243 0.10010443 6.0215774e-20)
(-0.13634606 0.09960654 2.7430711e-20)
(-0.15484659 0.098672103 -1.3950867e-20)
(-0.17492275 0.097413018 1.4881659e-20)
(-0.19662785 0.095915803 -9.5653706e-21)
(-0.22000204 0.094234397 -5.3973022e-20)
(-0.24508801 0.092391229 1.8215321e-20)
(-0.27191231 0.090385394 5.463058e-20)
(-0.30047956 0.088198009 -1.854369e-20)
(-0.33076193 0.08579504 -2.5902492e-20)
(-0.36268663 0.083128512 4.5013133e-20)
(-0.39612028 0.080137605 1.3670191e-20)
(-0.43085048 0.076751007 -2.4620846e-20)
(-0.46656541 0.072891146 -9.9301822e-21)
(-0.50283199 0.068480325 4.7330208e-20)
(-0.53907257 0.063443753 -1.3583491e-20)
(-0.57453839 0.057710168 -1.9437275e-20)
(-0.60829118 0.05121462 -5.1230095e-20)
(-0.63919178 0.043915033 9.6976664e-20)
(-0.66592383 0.0358335 -6.2094671e-20)
(-0.68712954 0.027084691 -1.5322417e-20)
(-0.70146687 0.017807111 -6.0887667e-20)
(-0.70767137 0.0081345158 -7.2535541e-20)
(-0.70465392 -0.0016958086 -3.6424253e-21)
(-0.69157758 -0.011479285 1.5283931e-20)
(-0.66779218 -0.021114341 -1.1360196e-19)
(-0.63273927 -0.030587576 -4.8628115e-20)
(-0.58592298 -0.039890093 -5.0327091e-20)
(-0.52694482 -0.048943826 -1.6614384e-20)
(-0.45560541 -0.0576024 -1.3091047e-19)
(-0.37186882 -0.065732171 5.2482782e-20)
(-0.27612694 -0.0731161 -1.6386485e-20)
(-0.16866884 -0.079479194 -1.3670872e-19)
(-0.05099606 -0.084365132 -5.5373117e-20)
(0.075768637 -0.087231255 6.7512702e-20)
(0.20685007 -0.087791273 2.3699126e-19)
(0.34105731 -0.085112277 -7.7300042e-20)
(0.46786634 -0.080395369 -1.2581356e-19)
(0.59368461 -0.071004102 -5.4465558e-20)
(-0.00015673959 0.0015940102 -8.5419204e-21)
(-0.00050409283 0.0049113245 1.0139614e-20)
(-0.00091268207 0.0085432934 -3.66754e-21)
(-0.0013960424 0.012510699 3.9896856e-22)
(-0.0019672077 0.016833652 -7.8890423e-21)
(-0.002642889 0.021530395 8.169755e-21)
(-0.0034430526 0.026616373 -1.2401948e-20)
(-0.0043912238 0.032102973 5.8442834e-21)
(-0.0055151114 0.03799597 2.2244324e-20)
(-0.0068472088 0.044293688 -5.3605774e-21)
(-0.0084254114 0.050984853 -2.0453201e-20)
(-0.010293614 0.058046168 6.2631988e-21)
(-0.012502267 0.065439686 4.2176758e-22)
(-0.015108812 0.073110095 -1.6501958e-20)
(-0.018177941 0.080982142 5.1881267e-20)
(-0.021781573 0.088958554 -3.2033024e-20)
(-0.025998443 0.096918886 -3.0673207e-22)
(-0.030913199 0.10471997 1.7967293e-20)
(-0.036614926 0.11219873 -4.6018673e-20)
(-0.043195035 0.11917804 2.1936971e-20)
(-0.050744595 0.12547652 3.3066574e-20)
(-0.059351276 0.1309223 1.3527719e-20)
(-0.069096269 0.13537028 -6.7864245e-20)
(-0.08005172 0.1387212 -3.5906053e-20)
(-0.092280302 0.14093896 2.360489e-20)
(-0.10583771 0.1420623 -1.3898518e-20)
(-0.12076577 0.14220565 5.2997118e-20)
(-0.1371075 0.14153784 -1.5411439e-20)
(-0.15490529 0.14024056 4.2153789e-20)
(-0.17420722 0.13847544 -2.4191086e-20)
(-0.19506537 0.13636743 1.5065221e-20)
(-0.217513 0.13399751 -5.6122477e-20)
(-0.24158439 0.13140202 8.192061e-21)
(-0.26729478 0.12858263 -4.3297871e-20)
(-0.29463453 0.12551458 4.1902003e-20)
(-0.3235581 0.12215104 1.3313577e-20)
(-0.35397098 0.11842471 -1.6975043e-19)
(-0.38571364 0.11424915 -4.4364396e-20)
(-0.41854269 0.10952182 3.7095596e-20)
(-0.45210988 0.10412946 -3.6552399e-20)
(-0.485939 0.097954854 9.2890655e-21)
(-0.51939957 0.09088062 5.8944271e-20)
(-0.55167921 0.082791805 -2.7857824e-21)
(-0.58176521 0.073585402 -1.9411765e-20)
(-0.60843799 0.063201072 9.6484896e-21)
(-0.63033289 0.051686647 -4.2735598e-21)
(-0.64609883 0.039219548 -1.3202384e-20)
(-0.65437182 0.026032247 2.0669003e-19)
(-0.65396796 0.012374221 -2.2907541e-20)
(-0.64395411 -0.0014047594 2.1132869e-20)
(-0.6236793 -0.015024226 -1.9807843e-19)
(-0.59266057 -0.028351835 1.0874299e-19)
(-0.55048388 -0.04138358 8.9358367e-20)
(-0.49678492 -0.054119138 8.5836414e-20)
(-0.43132285 -0.066472625 8.3384466e-20)
(-0.3541224 -0.078276514 1.3255237e-19)
(-0.26539292 -0.089366223 -2.6803625e-19)
(-0.16579521 -0.099495806 1.6761469e-19)
(-0.055799165 -0.10831501 2.5957629e-19)
(0.062743341 -0.11523087 -1.9363337e-19)
(0.18860359 -0.11936111 -6.3401472e-20)
(0.31648772 -0.12028927 -5.709323e-20)
(0.44560447 -0.11654179 2.9155363e-19)
(0.56492155 -0.11004288 2.1710859e-19)
(0.67992172 -0.096797848 -9.6440712e-21)
(-0.0002560668 0.0020086864 5.9793105e-21)
(-0.00080748406 0.0061906575 -1.4780177e-20)
(-0.0014366198 0.010771308 1.2054893e-20)
(-0.0021567184 0.015777633 -4.5581008e-21)
(-0.0029810785 0.021235825 -1.6476033e-21)
(-0.0039260346 0.027169969 1.4191179e-20)
(-0.0050106999 0.03360086 -3.5998039e-21)
(-0.0062571774 0.040544463 -7.6520632e-21)
(-0.0076910477 0.048009975 -5.886083e-22)
(-0.0093418275 0.055997535 -5.0075005e-21)
(-0.011243447 0.064495524 7.0296852e-21)
(-0.013434708 0.07347749 -4.9028147e-21)
(-0.015959718 0.082898758 -1.8131965e-20)
(-0.01886824 0.092692898 -5.269701e-22)
(-0.02221592 0.10276825 1.4011631e-20)
(-0.02606432 0.11300499 9.9900829e-21)
(-0.030480676 0.12325325 -8.660943e-21)
(-0.035537316 0.13333316 8.4480871e-22)
(-0.041310659 0.1430377 1.7230229e-20)
(-0.047879771 0.15213952 2.1221926e-20)
(-0.05532448 0.16040272 -2.4532518e-20)
(-0.063723202 0.16760001 -2.5026182e-20)
(-0.073150674 0.17353491 3.4169335e-20)
(-0.083675938 0.17806675 -4.2886494e-20)
(-0.095361635 0.18113463 -7.5326147e-20)
(-0.10826621 0.18277432 1.8027055e-19)
(-0.12243878 0.18312254 -1.0064157e-19)
(-0.13792583 0.18239492 1.5084873e-19)
(-0.15477055 0.18082673 -1.907933e-19)
(-0.1730235 0.1786345 2.1522659e-19)
(-0.19273362 0.17598209 -2.2470703e-19)
(-0.21392682 0.17298069 3.8287076e-20)
(-0.23662597 0.16968393 1.3265152e-19)
(-0.26083244 0.16609765 -7.5342637e-20)
(-0.28651876 0.16219188 2.373907e-20)
(-0.31361727 0.15790682 7.0709616e-21)
(-0.34200662 0.15315549 8.6050872e-20)
(-0.37149544 0.14782571 2.7959034e-20)
(-0.40180344 0.14178358 2.8020269e-20)
(-0.43254011 0.13487951 2.8133067e-20)
(-0.46317961 0.1269551 -1.4345781e-19)
(-0.49303254 0.11784771 6.2882201e-20)
(-0.52121993 0.10739742 9.6103596e-21)
(-0.54665845 0.095465614 -1.1409187e-19)
(-0.56807035 0.081985938 -5.713792e-20)
(-0.58409447 0.067052888 2.8163975e-20)
(-0.59343405 0.050929414 1.0037178e-19)
(-0.59481921 0.033933466 -4.3714534e-20)
(-0.58720851 0.016448674 1.2548603e-19)
(-0.56985645 -0.0010570623 6.7741183e-20)
(-0.54227449 -0.018231921 9.3385691e-20)
(-0.50412278 -0.03494144 2.4927368e-19)
(-0.45508767 -0.051214265 -1.934511e-19)
(-0.39490072 -0.06706341 6.2627341e-20)
(-0.323478 -0.082375235 -1.0991329e-19)
(-0.24111172 -0.096936736 -1.053625e-19)
(-0.14834572 -0.1105646 -4.1430071e-20)
(-0.046155743 -0.1230274 -3.8846406e-19)
(0.064773685 -0.13389609 -1.0686416e-19)
(0.18218498 -0.14245562 2.4913869e-19)
(0.30474261 -0.14745569 9.5725871e-20)
(0.42660362 -0.14850959 -7.4018469e-20)
(0.54743792 -0.14358247 -1.5547933e-19)
(0.65619955 -0.13495138 -2.4325749e-19)
(0.75632369 -0.11792314 1.9048964e-20)
(-0.00037202723 0.0023631112 1.8088824e-20)
(-0.0011618101 0.0072856917 4.7407912e-21)
(-0.0020486595 0.012680831 -3.8423196e-21)
(-0.0030455364 0.018581548 -1.4192034e-20)
(-0.0041660896 0.025020053 7.7808296e-21)
(-0.0054262704 0.032026459 -1.1210369e-20)
(-0.0068442618 0.039627411 4.8564106e-21)
(-0.0084405803 0.047844322 1.1582352e-21)
(-0.010238406 0.056691163 -6.5691014e-21)
(-0.01226387 0.066171805 -1.4190257e-20)
(-0.014546357 0.076276867 -7.1173046e-22)
(-0.017118801 0.086980075 2.3485173e-20)
(-0.020017951 0.098234195 -3.263125e-20)
(-0.023284606 0.10996667 5.2988579e-20)
(-0.026963773 0.12207524 -1.3941325e-20)
(-0.031104724 0.13442401 2.9845893e-20)
(-0.035760912 0.14684056 -3.6437054e-20)
(-0.040989708 0.15911506 2.392173e-20)
(-0.046851925 0.17100263 -3.8326018e-21)
(-0.053411104 0.18223023 -1.5755295e-20)
(-0.060732569 0.19250949 3.8882725e-20)
(-0.068882313 0.20155635 -5.5825405e-20)
(-0.077925797 0.20911741 6.1795871e-20)
(-0.087926801 0.21500091 1.0762453e-20)
(-0.09894672 0.21910771 -1.081037e-19)
(-0.11104567 0.22145535 1.1125474e-19)
(-0.12428169 0.22218712 -7.3691269e-20)
(-0.13870448 0.22155346 8.3992414e-20)
(-0.15436136 0.21984691 7.9373858e-21)
(-0.17130565 0.21734106 4.9815276e-21)
(-0.18958052 0.2142406 -3.4885832e-20)
(-0.20920811 0.21069119 2.2300565e-21)
(-0.23019612 0.20676859 -1.3401269e-19)
(-0.25253054 0.20248564 3.6754346e-20)
(-0.27616332 0.19780821 1.1019124e-19)
(-0.30100179 0.19266373 -5.185485e-20)
(-0.3268949 0.18694581 4.2977165e-20)
(-0.35361694 0.18051687 -4.3144104e-20)
(-0.38084866 0.17321199 -2.414024e-19)
(-0.40815532 0.16484463 1.3378232e-19)
(-0.43496044 0.15521354 3.2639489e-20)
(-0.46051795 0.14410981 -1.8475499e-19)
(-0.48389161 0.13132997 1.1097469e-20)
(-0.50394986 0.11670728 2.2703786e-20)
(-0.51940379 0.10018664 2.4036116e-19)
(-0.52897738 0.081930017 5.5137055e-20)
(-0.5314661 0.062295952 -8.5673319e-20)
(-0.52578537 0.041682669 -8.6736572e-20)
(-0.51104217 0.020607898 -1.2200499e-19)
(-0.48661657 -0.00035857627 -1.4916658e-19)
(-0.45210796 -0.020805376 -9.0460115e-20)
(-0.40727863 -0.040601499 -1.4126184e-19)
(-0.35189 -0.05981369 4.8450331e-20)
(-0.2857706 -0.078454187 -2.9971913e-19)
(-0.20901541 -0.096358087 -2.0128583e-20)
(-0.12222656 -0.11325741 -1.7617335e-20)
(-0.026294418 -0.12894865 -9.5223398e-21)
(0.077385653 -0.14325835 4.1812814e-19)
(0.1879352 -0.1556916 1.6691222e-19)
(0.30260663 -0.16547293 -2.6192222e-19)
(0.41997607 -0.17095905 -3.8488017e-19)
(0.53387891 -0.17181713 -1.7598082e-19)
(0.64387365 -0.16564996 -5.8541234e-20)
(0.7397323 -0.15455299 3.449918e-19)
(0.82270264 -0.13391561 -8.7679829e-20)
(-0.0004974568 0.0026431219 -3.38906e-21)
(-0.0015455402 0.0081528115 -7.9768539e-21)
(-0.0027115816 0.014196138 1.9264146e-20)
(-0.0040086427 0.020811747 -7.1760401e-22)
(-0.0054506941 0.028037681 -9.3955065e-21)
(-0.0070533731 0.035910173 -4.1454135e-21)
(-0.0088339623 0.044462142 -3.0650447e-21)
(-0.010811383 0.053721325 6.0511067e-21)
(-0.013006347 0.063707889 -3.139293e-20)
(-0.015441464 0.074431535 2.3757553e-20)
(-0.018141348 0.085888017 -1.1513175e-21)
(-0.02113271 0.098055062 -1.4483791e-20)
(-0.024444435 0.11088773 5.4465688e-20)
(-0.028107652 0.12431328 -5.4617462e-20)
(-0.03215577 0.13822593 7.3357795e-21)
(-0.036624513 0.15248172 4.5749035e-20)
(-0.04155193 0.16689439 -4.3470133e-20)
(-0.046978409 0.18123316 1.5388677e-20)
(-0.052946678 0.19522376 -3.0284437e-20)
(-0.059501848 0.20855444 3.9466702e-20)
(-0.066691451 0.22088864 7.5342056e-20)
(-0.074565541 0.23188585 -7.5938056e-20)
(-0.083176772 0.24123094 -1.1324255e-19)
(-0.092580458 0.24867045 2.2252567e-19)
(-0.1028344 0.25405112 -1.8164901e-19)
(-0.11399912 0.25735263 1.071952e-19)
(-0.12613891 0.25870411 -2.8123769e-20)
(-0.13931149 0.25837315 6.7323392e-20)
(-0.15357033 0.25670788 -7.0029251e-20)
(-0.16896635 0.25403886 -9.5320342e-20)
(-0.18554233 0.25062113 6.424151e-20)
(-0.20331869 0.2466374 1.0708126e-19)
(-0.22228518 0.24219086 -9.6038065e-21)
(-0.24241154 0.23730636 -4.0455924e-21)
(-0.26362745 0.23194813 -7.0611705e-20)
(-0.28581387 0.22603219 3.0728092e-20)
(-0.30878931 0.2194336 1.1308277e-19)
(-0.33229354 0.21199012 5.6906444e-20)
(-0.35596862 0.20350595 -8.7557549e-20)
(-0.37933678 0.1937573 6.9499314e-20)
(-0.40177449 0.18249979 -5.875965e-20)
(-0.42248814 0.16947961 1.9923648e-20)
(-0.44050369 0.15445521 7.4599297e-20)
(-0.45467877 0.13724558 -1.7767573e-19)
(-0.46377731 0.11782927 -1.0511677e-19)
(-0.46667636 0.096446233 -6.7732264e-20)
(-0.46232437 0.073538258 2.1049826e-19)
(-0.44982107 0.049576413 1.3529119e-19)
(-0.42835649 0.025167687 1.5727304e-19)
(-0.39732132 0.00098194931 2.7227295e-19)
(-0.35637165 -0.022491065 -9.3370353e-20)
(-0.30536614 -0.045114178 1.9680771e-20)
(-0.24414207 -0.066996456 1.5621036e-19)
(-0.17266505 -0.088141931 4.6061089e-19)
(-0.091270193 -0.10830815 3.0642115e-19)
(-0.00092029569 -0.12715629 1.2222653e-19)
(0.097192471 -0.14445553 3.6239569e-19)
(0.20127354 -0.16014181 -2.4987945e-19)
(0.31025129 -0.17364749 2.6178809e-20)
(0.42089696 -0.18415971 4.2226887e-19)
(0.53156419 -0.18975162 2.9308395e-19)
(0.63619097 -0.19004213 1.4016058e-20)
(0.7337539 -0.18252738 -4.8631857e-19)
(0.81496739 -0.16889276 5.1399829e-20)
(0.87906427 -0.14485091 -7.493645e-20)
(-0.00062388646 0.0028372304 -1.3265957e-20)
(-0.0019328147 0.008756472 6.6074229e-21)
(-0.003380805 0.015255246 -8.930793e-21)
(-0.0049814002 0.022377221 -5.079427e-21)
(-0.0067488806 0.030165914 1.418865e-20)
(-0.0086986922 0.038663574 1.3260247e-20)
(-0.010847347 0.047909662 -1.3627627e-20)
(-0.013212314 0.057938965 1.6420301e-21)
(-0.015811991 0.068779169 3.8114999e-22)
(-0.018665626 0.080447863 2.7175486e-20)
(-0.021793215 0.092948893 -2.9937282e-21)
(-0.025215374 0.10626799 -5.5227594e-20)
(-0.0289532 0.1203677 4.4385696e-20)
(-0.033028119 0.1351817 -1.541538e-21)
(-0.037461763 0.15060856 -3.0167447e-20)
(-0.042275891 0.16650558 -2.6214943e-21)
(-0.0474924 0.18268311 6.7375798e-21)
(-0.053133508 0.19890054 3.0743746e-20)
(-0.059222129 0.21486535 -5.711759e-20)
(-0.065782558 0.23023707 1.0201856e-19)
(-0.072841503 0.24463844 -2.2407659e-20)
(-0.080429383 0.25767573 1.6746733e-20)
(-0.088581911 0.26896942 -1.4081349e-20)
(-0.097341652 0.2781946 5.7372778e-22)
(-0.10675907 0.28512669 -8.6682528e-20)
(-0.11689276 0.2896843 -8.8124016e-20)
(-0.12780898 0.29195691 1.7767204e-19)
(-0.13957767 0.29220391 3.005748e-20)
(-0.15225823 0.29080872 -1.0653381e-19)
(-0.16589839 0.28817141 -3.8426058e-20)
(-0.18054498 0.28460942 -8.7852198e-20)
(-0.19621621 0.28033914 1.0049221e-19)
(-0.21288889 0.2754993 4.4376053e-20)
(-0.23051248 0.27013509 -1.0412047e-19)
(-0.24899428 0.26421295 4.4168336e-20)
(-0.26818896 0.25764048 2.0776098e-20)
(-0.2878851 0.25027588 -6.2519707e-20)
(-0.30778895 0.24193337 -1.6399137e-19)
(-0.3275056 0.23238695 -4.9863956e-20)
(-0.34651713 0.22137618 3.3475366e-20)
(-0.36415931 0.20861536 7.9439999e-20)
(-0.37960472 0.19381075 8.1875273e-20)
(-0.39186672 0.17669338 9.0245829e-20)
(-0.3998341 0.15708586 1.8830086e-19)
(-0.40238688 0.13502127 -5.1055956e-21)
(-0.39858194 0.11082243 7.8418735e-20)
(-0.38755218 0.084978278 -4.1988508e-19)
(-0.36850148 0.057994191 -1.152378e-19)
(-0.340599 0.030526572 -1.3070152e-19)
(-0.30324749 0.0033617902 -3.5965345e-19)
(-0.25622385 -0.022898192 4.1840554e-19)
(-0.19949593 -0.048107926 -9.3247292e-20)
(-0.1329868 -0.072409216 -3.0047624e-19)
(-0.056837191 -0.095775567 -3.7162863e-19)
(0.028348091 -0.1178686 -4.7740606e-20)
(0.12121385 -0.13829655 1.216131e-19)
(0.22026839 -0.1568185 1.9897207e-19)
(0.32349522 -0.17348136 -8.5342229e-20)
(0.42961153 -0.18765338 1.5631047e-19)
(0.53509587 -0.19848876 -1.3291677e-19)
(0.63793405 -0.20387838 -4.5540455e-20)
(0.7323051 -0.2032568 -1.3676574e-19)
(0.81649201 -0.19413934 6.0640597e-19)
(0.88125653 -0.17765503 1.9705095e-20)
(0.92463762 -0.15056617 2.469064e-19)
(-0.00074203966 0.0029376012 1.2350786e-20)
(-0.0022950146 0.0090722966 2.435056e-21)
(-0.0040070476 0.015815291 -2.6773787e-21)
(-0.005892222 0.023214497 -1.3167821e-20)
(-0.0079652229 0.031318294 1.5805277e-20)
(-0.010241452 0.040174581 -1.3435185e-20)
(-0.012736854 0.049829337 -6.4285113e-21)
(-0.015467722 0.060324833 3.4551759e-22)
(-0.018450497 0.071697288 5.4469212e-21)
(-0.021701505 0.083973944 3.1047477e-20)
(-0.025236654 0.097169408 -5.2281462e-20)
(-0.029071077 0.11128123 6.3039614e-20)
(-0.033218755 0.1262846 -1.8594105e-20)
(-0.037692116 0.1421262 -2.5365411e-20)
(-0.042501681 0.15871733 3.9152216e-20)
(-0.047655788 0.17592659 -7.7767853e-20)
(-0.053160489 0.19357266 9.5113027e-20)
(-0.05901972 0.2114182 1.5075549e-21)
(-0.065235888 0.2291662 5.5799196e-20)
(-0.071811002 0.24646094 -2.2475384e-19)
(-0.078748472 0.26289603 5.5329306e-20)
(-0.086055606 0.27803217 2.3297924e-19)
(-0.0937467 0.29142704 -1.1230371e-19)
(-0.10184634 0.30267751 -1.3663879e-19)
(-0.11039228 0.31147151 3.5085631e-20)
(-0.11943677 0.31764138 1.87065e-19)
(-0.12904561 0.32120573 -2.8904183e-19)
(-0.13929387 0.32238291 3.2626322e-19)
(-0.15025477 0.32155886 -2.6115559e-19)
(-0.16198102 0.31919559 5.0798093e-20)
(-0.17450864 0.31569833 -8.8234189e-20)
(-0.18785939 0.31133504 -1.2711776e-19)
(-0.20200817 0.30626689 5.0846247e-20)
(-0.21688171 0.30057 1.3353944e-20)
(-0.23236648 0.2942255 1.9120021e-19)
(-0.24828968 0.28713746 -3.7577717e-20)
(-0.26441073 0.27914951 9.6622086e-20)
(-0.28040358 0.27005361 -8.2098526e-20)
(-0.2958381 0.25959487 4.9085272e-20)
(-0.31015952 0.24747814 3.1916774e-20)
(-0.32267004 0.233381 2.7353368e-20)
(-0.33252296 0.21697868 2.7133819e-20)
(-0.33874363 0.19798982 -1.648756e-19)
(-0.34028537 0.17626061 -1.2893792e-19)
(-0.33618414 0.15189223 3.6254586e-20)
(-0.32564882 0.12528359 -2.2683586e-20)
(-0.30796889 0.096921483 9.4197688e-20)
(-0.28235028 0.067295855 -1.8503731e-19)
(-0.24796538 0.037102944 -2.135897e-19)
(-0.20440169 0.0072693005 -6.1523417e-20)
(-0.15163513 -0.021493845 -1.6139403e-19)
(-0.089714145 -0.049026966 5.1509133e-21)
(-0.018613414 -0.075493 7.8212763e-20)
(0.061322626 -0.1008239 3.8132203e-19)
(0.14918881 -0.12456473 -1.9214342e-19)
(0.24325159 -0.14628246 7.836143e-20)
(0.34179308 -0.16575284 -2.3239493e-19)
(0.44278667 -0.18311407 3.9577785e-19)
(0.54478312 -0.19766887 -2.3039404e-19)
(0.64404744 -0.20840441 8.0552412e-20)
(0.73825206 -0.21318285 -8.3979628e-23)
(0.82169321 -0.21132509 6.5532633e-20)
(0.89142056 -0.20029907 2.4547991e-19)
(0.93719075 -0.18113333 -4.6863638e-19)
(0.95861559 -0.15191073 4.8181657e-19)
(-0.00084238922 0.0029409363 -2.7360342e-20)
(-0.0026029495 0.0090896924 -1.3812424e-20)
(-0.0045398396 0.015857125 2.1698371e-20)
(-0.0066676914 0.023294376 -5.7160032e-22)
(-0.0090016595 0.031453783 -1.9655016e-20)
(-0.011557247 0.040388198 -1.0290143e-20)
(-0.01435008 0.050149705 2.1725987e-20)
(-0.017395644 0.060788032 -3.5736694e-21)
(-0.020708927 0.072348432 5.0524902e-20)
(-0.024304009 0.084868982 -9.8787754e-21)
(-0.028193558 0.098377125 -2.5358545e-22)
(-0.03238827 0.11288539 3.6642029e-20)
(-0.03689624 0.12838611 -1.1810975e-19)
(-0.041722305 0.14484515 5.5423258e-20)
(-0.0468674 0.16219453 1.0013965e-19)
(-0.052328002 0.18032427 -1.0779843e-19)
(-0.058095772 0.19907371 1.3420052e-20)
(-0.064157541 0.21822317 -7.7338077e-20)
(-0.070495828 0.23748731 -5.8363761e-20)
(-0.077090138 0.25651213 1.8689989e-19)
(-0.083919203 0.27487839 -1.4311652e-19)
(-0.090964433 0.29211478 1.9240723e-19)
(-0.098214356 0.30772405 -2.3135818e-20)
(-0.10566986 0.32122419 9.6604306e-20)
(-0.11334921 0.33220364 -2.148945e-19)
(-0.12129158 0.34038413 5.2020938e-20)
(-0.12955721 0.34567838 1.3403354e-19)
(-0.13822265 0.34822343 -3.3034786e-19)
(-0.1473693 0.34836838 1.4621515e-19)
(-0.15706587 0.3465998 1.5980315e-19)
(-0.16734771 0.34341001 -1.3414159e-19)
(-0.17821966 0.33916589 -1.8027995e-20)
(-0.18966177 0.33407804 9.2291383e-20)
(-0.2015934 0.32823816 -5.1631014e-20)
(-0.21387302 0.3216421 7.9924185e-20)
(-0.22630647 0.31420279 -2.8352928e-19)
(-0.23862484 0.30575647 1.499757e-19)
(-0.25046914 0.2960764 9.0801497e-20)
(-0.26137403 0.28488141 1.8719152e-19)
(-0.27075052 0.27184543 2.4741712e-20)
(-0.27787436 0.25661621 -2.0189835e-19)
(-0.28189222 0.23884958 8.1326822e-20)
(-0.28185967 0.21826831 1.1981405e-19)
(-0.27681332 0.19476039 1.87774e-20)
(-0.2659403 0.16849552 -1.1500765e-19)
(-0.24855343 0.139926 -1.0042177e-19)
(-0.22403268 0.10950315 3.0288996e-19)
(-0.19158178 0.077683666 1.5916829e-19)
(-0.15059356 0.04521704 3.4324102e-19)
(-0.10100062 0.013155393 1.1999443e-19)
(-0.042964377 -0.017727601 4.6432546e-20)
(0.023463853 -0.04728469 3.4312843e-19)
(0.098271691 -0.075671713 1.3505401e-19)
(0.18090672 -0.10272751 -4.5612173e-19)
(0.27014052 -0.12786232 3.6809382e-19)
(0.3639204 -0.15061389 -3.406877e-19)
(0.46052467 -0.1708204 1.6468726e-19)
(0.55808085 -0.18867534 -8.0153251e-19)
(0.65494268 -0.20337131 -4.0361199e-19)
(0.74730432 -0.21388004 1.6417317e-19)
(0.83250293 -0.21796171 2.5849448e-19)
(0.9041284 -0.2146138 4.3447481e-19)
(0.95694157 -0.20138001 7.6435236e-20)
(0.98048417 -0.17959892 6.0671799e-20)
(0.98140908 -0.14923368 -6.4340392e-19)
(-0.00091608207 0.002849238 -4.924231e-22)
(-0.0028294305 0.0088142324 2.5642077e-20)
(-0.004932068 0.015389473 -3.0248283e-20)
(-0.0072391136 0.022628076 -1.4568243e-20)
(-0.0097661915 0.030585137 2.9206451e-20)
(-0.012529018 0.039317382 9.4715116e-21)
(-0.015543136 0.04888211 -4.6003576e-20)
(-0.018823618 0.059335898 4.9596814e-20)
(-0.022384586 0.070732832 1.0486607e-20)
(-0.02623868 0.08312217 4.1832274e-20)
(-0.0303964 0.096545293 -1.1145932e-19)
(-0.034865363 0.11103177 -1.3655573e-21)
(-0.03964945 0.12659445 1.0102872e-19)
(-0.044747887 0.14322324 -1.0911631e-19)
(-0.050154301 0.16087779 7.8696556e-20)
(-0.055855813 0.17947872 2.9440314e-20)
(-0.061832304 0.19889784 -6.2159005e-20)
(-0.068056026 0.21894786 5.6793802e-20)
(-0.074491784 0.23937264 7.668328e-20)
(-0.081097993 0.2598398 -1.6573392e-21)
(-0.087829011 0.27993842 -1.2509713e-19)
(-0.094638924 0.29918558 7.8840223e-20)
(-0.10148709 0.31704573 -4.4822853e-20)
(-0.10834501 0.33296678 -2.2141946e-19)
(-0.1152038 0.34643435 -7.5522735e-20)
(-0.12208065 0.35704081 2.0957672e-19)
(-0.12902175 0.36455804 -2.1350568e-20)
(-0.13609913 0.36899458 2.4598089e-19)
(-0.143399 0.37061171 -1.4842056e-19)
(-0.15100133 0.36987318 7.9727772e-20)
(-0.1589557 0.36732521 -1.1767006e-19)
(-0.16726973 0.36344803 -2.9111609e-20)
(-0.17590051 0.35854918 1.4899496e-19)
(-0.18475446 0.35276472 -1.5601289e-19)
(-0.19368691 0.3461146 -2.3137071e-19)
(-0.20248051 0.33851814 2.3884907e-20)
(-0.21083625 0.32980465 2.5653868e-19)
(-0.21836406 0.31973178 -3.31836e-19)
(-0.22456415 0.30799721 7.2470189e-20)
(-0.2288166 0.29425116 -1.5581496e-19)
(-0.23037779 0.27812121 2.4107822e-20)
(-0.22839903 0.25925631 -2.4535225e-19)
(-0.22197696 0.2373972 -1.1780474e-19)
(-0.21024021 0.21247984 -1.4563793e-19)
(-0.19247472 0.18474096 5.8527847e-19)
(-0.16808164 0.15465582 1.8967619e-19)
(-0.13649956 0.12264312 -2.5177844e-19)
(-0.097074983 0.089145056 2.0384553e-19)
(-0.049629747 0.054968576 1.6959544e-19)
(0.0055570568 0.021214905 -1.9081782e-19)
(0.068224586 -0.011365268 -9.9516564e-20)
(0.13837595 -0.042660482 -2.3285427e-19)
(0.21594913 -0.072731224 -1.1294761e-19)
(0.30019357 -0.10127429 3.8681448e-19)
(0.38953287 -0.12758293 2.1828682e-19)
(0.48172993 -0.15122377 3.5221444e-20)
(0.57530837 -0.17211104 -1.4607642e-21)
(0.6686171 -0.19042034 1.9864406e-19)
(0.75979487 -0.20524285 -2.8793664e-19)
(0.84502546 -0.21520539 -3.7466196e-19)
(0.92078966 -0.21798726 -1.0541615e-19)
(0.97830499 -0.21259431 -8.0303316e-19)
(1.0097741 -0.19707255 -6.4078213e-19)
(1.0098832 -0.17397343 -1.6372566e-19)
(0.99531187 -0.14414423 -8.7054081e-20)
(-0.00095590944 0.0026702434 1.6638806e-20)
(-0.0029522349 0.0082690645 1.0754002e-20)
(-0.0051450993 0.014451476 -2.2378072e-20)
(-0.0075499591 0.021271104 3.8380861e-20)
(-0.010182816 0.028784318 9.6162881e-21)
(-0.013059626 0.037050254 -4.1246205e-20)
(-0.016196024 0.046130021 2.1109947e-22)
(-0.019607008 0.056085781 -2.4754327e-20)
(-0.023306401 0.066979408 7.40107e-21)