/*--------------------------------*- C++ -*----------------------------------*\
  =========                 |
  \\      /  F ield         | OpenFOAM: The Open Source CFD Toolbox
   \\    /   O peration     | Website:  https://openfoam.org
    \\  /    A nd           | Version:  13
     \\/     M anipulation  |
\*---------------------------------------------------------------------------*/
FoamFile
{
    format      ascii;
    class       volScalarField;
    location    "49.403995";
    object      pPrime2Mean;
}
// * * * * * * * * * * * * * * * * * * * * * * * * * * * * * * * * * * * * * //

dimensions      [0 4 -4 0 0 0 0];

internalField   nonuniform List<scalar> 
17140
(
6304.2186
6304.2188
6304.2187
6304.2184
6304.2179
6304.217
6304.2159
6304.2144
6304.2123
6304.2094
6304.2059
6304.2015
6304.1958
6304.1887
6304.1797
6304.1685
6304.1544
6304.1367
6304.1146
6304.087
6304.0522
6304.0087
6303.9541
6303.8852
6303.7985
6303.6894
6303.5516
6303.3777
6303.1586
6302.8825
6302.5351
6302.0992
6301.5534
6300.8722
6300.0247
6298.9743
6297.6773
6296.0828
6294.1315
6291.7556
6288.877
6285.4081
6281.2498
6276.2911
6270.4089
6263.4663
6255.3131
6245.7849
6234.7016
6221.8677
6207.07
6190.078
6170.6422
6148.4939
6123.3428
6094.8765
6062.755
6026.6131
5986.0495
5940.6388
5889.9061
5833.3665
5770.4537
5700.616
5623.1902
6304.3721
6304.3721
6304.372
6304.3717
6304.3712
6304.3703
6304.3692
6304.3675
6304.3655
6304.3628
6304.3592
6304.3547
6304.349
6304.3419
6304.333
6304.3215
6304.3075
6304.2898
6304.2677
6304.24
6304.2054
6304.1617
6304.1072
6304.0385
6303.952
6303.8432
6303.7058
6303.5325
6303.3138
6303.0383
6302.6917
6302.2568
6301.7118
6301.0315
6300.1849
6299.1352
6297.8391
6296.2453
6294.2951
6291.9203
6289.0431
6285.5757
6281.4194
6276.463
6270.5836
6263.6445
6255.4953
6245.9717
6234.8938
6222.066
6207.2753
6190.2912
6170.8645
6148.7264
6123.5871
6095.1339
6063.027
6026.901
5986.3551
5940.9648
5890.2555
5833.7425
5770.8599
5701.0566
5623.6641
6304.7514
6304.7514
6304.7513
6304.7511
6304.7504
6304.7497
6304.7485
6304.7468
6304.7447
6304.7421
6304.7385
6304.7341
6304.7284
6304.7213
6304.7124
6304.7012
6304.6872
6304.6695
6304.6475
6304.62
6304.5856
6304.5425
6304.4882
6304.42
6304.3342
6304.2258
6304.0892
6303.9168
6303.6993
6303.4252
6303.0801
6302.6468
6302.1036
6301.4251
6300.5802
6299.5322
6298.2378
6296.6459
6294.6978
6292.3254
6289.4516
6285.9881
6281.8365
6276.886
6271.0136
6264.0828
6255.9436
6246.4315
6235.3667
6222.5535
6207.7798
6190.8152
6171.4109
6149.2984
6124.188
6095.7674
6063.6971
6027.6114
5987.1103
5941.7702
5891.1176
5834.6683
5771.8574
5702.1352
5624.8231
6305.3691
6305.3691
6305.369
6305.3688
6305.3682
6305.3673
6305.3663
6305.3646
6305.3626
6305.36
6305.3564
6305.3521
6305.3464
6305.3394
6305.3305
6305.3196
6305.3056
6305.2884
6305.2667
6305.2394
6305.2055
6305.1628
6305.109
6305.0416
6304.9566
6304.8494
6304.7141
6304.5431
6304.3273
6304.0551
6303.7122
6303.2811
6302.7404
6302.0642
6301.2219
6300.1766
6298.8849
6297.2959
6295.3512
6292.9832
6290.1144
6286.6574
6282.5134
6277.5725
6271.7113
6264.7942
6256.6711
6247.1774
6236.134
6223.345
6208.5988
6191.6658
6172.2979
6150.2269
6125.1638
6096.7964
6064.7855
6028.766
5988.3384
5943.0802
5892.5191
5836.1727
5773.4771
5703.8861
5626.7035
6306.2382
6306.2382
6306.238
6306.2378
6306.2372
6306.2364
6306.2352
6306.2338
6306.2316
6306.229
6306.2255
6306.2212
6306.2156
6306.2087
6306.2001
6306.1892
6306.1755
6306.1584
6306.1371
6306.1104
6306.0768
6306.0346
6305.9817
6305.9152
6305.8312
6305.7253
6305.5913
6305.4222
6305.2087
6304.9388
6304.5986
6304.1703
6303.6328
6302.9599
6302.1209
6301.0789
6299.7909
6298.2064
6296.2668
6293.9048
6291.0434
6287.5955
6283.4628
6278.535
6272.6898
6265.7916
6257.6908
6248.2233
6237.2092
6224.4543
6209.7471
6192.8589
6173.5419
6151.5296
6126.5326
6098.24
6066.3124
6030.3858
5990.0615
5944.9185
5894.4862
5838.284
5775.7506
5706.3432
5629.3434
6307.3691
6307.3692
6307.369
6307.3687
6307.3681
6307.3673
6307.3662
6307.3647
6307.3627
6307.36
6307.3566
6307.3524
6307.347
6307.3402
6307.3316
6307.3209
6307.3074
6307.2906
6307.2697
6307.2434
6307.2103
6307.1689
6307.1169
6307.0512
6306.9685
6306.8642
6306.7322
6306.5654
6306.3541
6306.0873
6305.7504
6305.3256
6304.7919
6304.123
6303.2881
6302.2506
6300.9677
6299.3889
6297.4561
6295.1024
6292.251
6288.8152
6284.6965
6279.7862
6273.9619
6267.0886
6259.0166
6249.5824
6238.6069
6225.8962
6211.2397
6194.4098
6175.1599
6153.2234
6128.3127
6100.1174
6068.2987
6032.4928
5992.3032
5947.3101
5897.0462
5841.0321
5778.7102
5709.5425
5632.7819
6308.774
6308.7739
6308.7738
6308.7735
6308.773
6308.7721
6308.771
6308.7695
6308.7675
6308.7649
6308.7615
6308.7574
6308.7519
6308.7453
6308.7369
6308.7264
6308.7132
6308.6967
6308.6761
6308.6502
6308.6178
6308.5772
6308.526
6308.4618
6308.3806
6308.278
6308.1482
6307.9839
6307.7758
6307.5123
6307.1791
6306.7586
6306.2291
6305.565
6304.7352
6303.7035
6302.4269
6300.8555
6298.9315
6296.5883
6293.7495
6290.3283
6286.228
6281.3393
6275.5408
6268.698
6260.662
6251.2691
6240.3415
6227.6857
6213.0926
6196.3354
6177.1686
6155.3268
6130.5232
6102.4484
6070.7647
6035.109
5995.087
5950.2811
5900.2267
5844.4473
5782.3893
5713.52
5637.059
6310.4653
6310.4653
6310.465
6310.4648
6310.4641
6310.4635
6310.4623
6310.4607
6310.4587
6310.4562
6310.4529
6310.4488
6310.4436
6310.437
6310.4288
6310.4186
6310.4056
6310.3895
6310.3694
6310.3442
6310.3125
6310.2727
6310.2228
6310.1597
6310.0804
6309.9798
6309.8525
6309.6909
6309.4863
6309.2266
6308.8977
6308.4818
6307.9573
6307.2987
6306.4748
6305.4498
6304.1811
6302.6188
6300.7054
6298.3748
6295.5511
6292.1483
6288.0697
6283.2071
6277.4399
6270.6338
6262.6407
6253.2976
6242.4276
6229.8383
6215.3217
6198.6523
6179.5856
6157.8578
6133.1831
6105.2533
6073.7318
6038.2573
5998.4374
5953.8577
5904.057
5848.5612
5786.8217
5718.3123
5642.2151
6312.4583
6312.4582
6312.458
6312.4578
6312.4573
6312.4563
6312.4551
6312.4538
6312.4517
6312.4492
6312.446
6312.4421
6312.4368
6312.4304
6312.4225
6312.4124
6312.3999
6312.3841
6312.3645
6312.3398
6312.309
6312.2703
6312.2215
6312.1601
6312.0825
6311.9841
6311.8594
6311.7009
6311.4997
6311.244
6310.9195
6310.5086
6309.9895
6309.3368
6308.52
6307.5028
6306.243
6304.6913
6302.7907
6300.4749
6297.669
6294.2877
6290.2349
6285.403
6279.6723
6272.9094
6264.9665
6255.6822
6244.8802
6232.3694
6217.9432
6201.3774
6182.4289
6160.8352
6136.3121
6108.5528
6077.2223
6041.961
6002.3798
5958.0672
5908.5661
5853.4052
5792.0416
5723.9571
5648.2915
6314.7689
6314.7689
6314.7688
6314.7684
6314.7679
6314.767
6314.7659
6314.7644
6314.7624
6314.76
6314.7569
6314.7528
6314.7478
6314.7417
6314.7338
6314.7241
6314.7119
6314.6966
6314.6775
6314.6536
6314.6235
6314.5858
6314.5383
6314.4784
6314.4024
6314.3064
6314.1841
6314.0289
6313.831
6313.5792
6313.259
6312.853
6312.3397
6311.6933
6310.8839
6309.8754
6308.6259
6307.0862
6305.2
6302.9016
6300.1162
6296.7597
6292.7366
6287.9404
6282.252
6275.5387
6267.6541
6258.4375
6247.7142
6235.2946
6220.9732
6204.5274
6185.7159
6164.2775
6139.9298
6112.3676
6081.2579
6046.2439
6006.9394
5962.9373
5913.7844
5859.0125
5798.0853
5730.4936
5655.3301
6317.4139
6317.4138
6317.4137
6317.4134
6317.4127
6317.4119
6317.4108
6317.4094
6317.4075
6317.405
6317.4019
6317.3981
6317.3932
6317.3872
6317.3795
6317.3699
6317.3582
6317.3432
6317.3247
6317.3013
6317.2721
6317.2355
6317.1892
6317.1305
6317.0564
6316.9622
6316.8423
6316.6895
6316.4948
6316.2464
6315.9305
6315.5293
6315.0216
6314.382
6313.5804
6312.5813
6311.343
6309.817
6307.9467
6305.6678
6302.9058
6299.5774
6295.5883
6290.8327
6285.1923
6278.5354
6270.7169
6261.5779
6250.9448
6238.6294
6224.428
6208.1197
6189.4646
6168.2036
6144.0563
6116.719
6085.8614
6051.1304
6012.1436
5968.4978
5919.7442
5865.418
5804.9894
5737.9603
5663.3734
6320.4086
6320.4085
6320.4084
6320.408
6320.4073
6320.4065
6320.4055
6320.404
6320.4021
6320.3999
6320.3967
6320.393
6320.3883
6320.3822
6320.3748
6320.3655
6320.354
6320.3395
6320.3212
6320.2985
6320.2699
6320.234
6320.1885
6320.1313
6320.0584
6319.9658
6319.8479
6319.6973
6319.5052
6319.26
6318.9477
6318.5509
6318.0488
6317.416
6316.6227
6315.6338
6314.4078
6312.8965
6311.0441
6308.7866
6306.051
6302.7546
6298.8037
6294.0937
6288.507
6281.9138
6274.17
6265.1183
6254.5869
6242.3896
6228.3242
6212.1715
6193.6935
6172.6332
6148.7122
6121.629
6091.057
6056.6467
6018.0206
5974.7789
5926.4772
5872.6545
5812.79
5746.3973
5672.4638
6323.7659
6323.7658
6323.7658
6323.7653
6323.7647
6323.764
6323.7628
6323.7614
6323.7595
6323.7573
6323.7544
6323.7505
6323.7459
6323.74
6323.7327
6323.7237
6323.7122
6323.698
6323.6802
6323.6579
6323.6298
6323.5945
6323.5499
6323.4933
6323.4216
6323.3302
6323.2136
6323.065
6322.875
6322.6325
6322.3237
6321.9313
6321.4347
6320.8088
6320.0242
6319.046
6317.8331
6316.3378
6314.5051
6312.2718
6309.5655
6306.3045
6302.3961
6297.7369
6292.2105
6285.6881
6278.0278
6269.0739
6258.6569
6246.5919
6232.6793
6216.701
6198.4218
6177.5861
6153.9182
6127.12
6096.8685
6062.819
6024.5978
5981.8092
5934.0146
5880.7575
5821.5244
5755.845
5682.6438
6327.4974
6327.4974
6327.4971
6327.4967
6327.4961
6327.4954
6327.4943
6327.4928
6327.491
6327.4888
6327.4859
6327.4821
6327.4776
6327.4719
6327.4647
6327.4557
6327.4445
6327.4305
6327.413
6327.391
6327.3633
6327.3284
6327.2843
6327.2284
6327.1574
6327.0671
6326.9517
6326.8044
6326.6162
6326.3764
6326.0706
6325.6827
6325.1917
6324.573
6323.7976
6322.8308
6321.6321
6320.1542
6318.3431
6316.1364
6313.4626
6310.2409
6306.3799
6301.7769
6296.3171
6289.8736
6282.3061
6273.4611
6263.1713
6251.254
6237.5109
6221.7269
6203.6682
6183.0825
6159.6964
6133.2156
6103.3213
6069.6734
6031.9036
5989.62
5942.3897
5889.7601
5831.2295
5766.3427
5693.9548
6331.6135
6331.6134
6331.6132
6331.6128
6331.6122
6331.6115
6331.6104
6331.6089
6331.6071
6331.605
6331.6021
6331.5985
6331.594
6331.5882
6331.5811
6331.5724
6331.5612
6331.5475
6331.5302
6331.5085
6331.481
6331.4465
6331.4028
6331.3474
6331.2769
6331.1874
6331.073
6330.9271
6330.7406
6330.5032
6330.201
6329.8174
6329.3323
6328.7215
6327.9559
6327.0012
6325.8178
6324.3591
6322.5717
6320.394
6317.7559
6314.5775
6310.7687
6306.2277
6300.8417
6294.4853
6287.0206
6278.2963
6268.1472
6256.3929
6242.8377
6227.2682
6209.4532
6189.1435
6166.069
6139.939
6110.4401
6077.2373
6039.9665
5998.2414
5951.634
5899.698
5841.9419
5777.9297
5706.4385
6336.1257
6336.1257
6336.1254
6336.125
6336.1245
6336.1237
6336.1228
6336.1213
6336.1195
6336.1174
6336.1145
6336.1109
6336.1064
6336.101
6336.0939
6336.0852
6336.0742
6336.0605
6336.0433
6336.0218
6335.9946
6335.9604
6335.917
6335.8621
6335.7923
6335.7033
6335.5898
6335.4452
6335.2609
6335.026
6334.7273
6334.3485
6333.8699
6333.2672
6332.512
6331.5708
6330.4039
6328.9659
6327.2042
6325.0585
6322.4594
6319.3287
6315.5771
6311.1044
6305.7996
6299.5392
6292.1878
6283.5963
6273.602
6262.0274
6248.6782
6233.3441
6215.7972
6195.7907
6173.0582
6147.3142
6118.2508
6085.5376
6048.8157
6007.7038
5961.7807
5910.6052
5853.6979
5790.645
5720.1356
6341.0482
6341.0481
6341.0479
6341.0476
6341.047
6341.0463
6341.0452
6341.0439
6341.042
6341.0399
6341.0371
6341.0335
6341.029
6341.0236
6341.0167
6341.008
6340.997
6340.9835
6340.9663
6340.945
6340.9179
6340.8839
6340.8407
6340.7862
6340.7168
6340.6285
6340.516
6340.3728
6340.1903
6339.9581
6339.6634
6339.2897
6338.8178
6338.2238
6337.4799
6336.5525
6335.4036
6333.9884
6332.2547
6330.144
6327.5879
6324.5089
6320.8199
6316.4222
6311.2062
6305.0514
6297.8242
6289.3783
6279.5537
6268.1749
6255.0512
6239.9746
6222.7203
6203.0448
6180.6869
6155.3656
6126.7795
6094.6019
6058.4801
6018.038
5972.8615
5922.5156
5866.5336
5804.5269
5735.087
6346.3961
6346.396
6346.3957
6346.3954
6346.3948
6346.394
6346.3931
6346.3917
6346.3899
6346.3877
6346.3849
6346.3815
6346.3769
6346.3714
6346.3645
6346.3558
6346.345
6346.3313
6346.3143
6346.2928
6346.2659
6346.2318
6346.1889
6346.1345
6346.0653
6345.9777
6345.8662
6345.7242
6345.5437
6345.3144
6345.0234
6344.6551
6344.1901
6343.6053
6342.8731
6341.9612
6340.8317
6339.4406
6337.7379
6335.6649
6333.1554
6330.133
6326.512
6322.196
6317.0774
6311.0376
6303.9461
6295.659
6286.019
6274.8538
6261.9754
6247.1789
6230.2427
6210.9277
6188.9781
6164.1184
6136.0509
6104.457
6068.9882
6029.2739
5984.9082
5935.4626
5880.4848
5819.6134
5751.3321
6352.1846
6352.1845
6352.1844
6352.1839
6352.1835
6352.1827
6352.1817
6352.1803
6352.1786
6352.1764
6352.1736
6352.1699
6352.1655
6352.1599
6352.1528
6352.144
6352.133
6352.1194
6352.1022
6352.0805
6352.0534
6352.0193
6351.9763
6351.9219
6351.8529
6351.7657
6351.6548
6351.5142
6351.3357
6351.1092
6350.8221
6350.459
6350.0012
6349.4261
6348.7067
6347.811
6346.7023
6345.3378
6343.6681
6341.6363
6339.1768
6336.2158
6332.6688
6328.4415
6323.4286
6317.5142
6310.5701
6302.4554
6293.0158
6282.0822
6269.4693
6254.9762
6238.3847
6219.4613
6197.9549
6173.5953
6146.0918
6115.1303
6080.3676
6041.4413
5997.9515
5949.4792
5895.5863
5835.9416
5768.9101
6358.4264
6358.4262
6358.4261
6358.4258
6358.4251
6358.4245
6358.4234
6358.4221
6358.4203
6358.418
6358.4152
6358.4114
6358.407
6358.4012
6358.3942
6358.3852
6358.3741
6358.3601
6358.3428
6358.3208
6358.2936
6358.2592
6358.216
6358.1615
6358.0928
6358.0058
6357.8957
6357.7563
6357.5797
6357.356
6357.0729
6356.7157
6356.2655
6355.7005
6354.9944
6354.1163
6353.0299
6351.694
6350.0601
6348.0723
6345.6675
6342.7724
6339.3052
6335.1739
6330.2757
6324.4968
6317.7123
6309.784
6300.5611
6289.8774
6277.5513
6263.3853
6247.1667
6228.6665
6207.6391
6183.8209
6156.9268
6126.6473
6092.647
6054.5683
6012.0222
5964.5976
5911.8725
5853.548
5787.859
6365.1302
6365.1302
6365.1301
6365.1298
6365.1293
6365.1284
6365.1273
6365.1259
6365.1241
6365.1218
6365.1189
6365.1153
6365.1106
6365.1048
6365.0977
6365.0886
6365.0773
6365.0632
6365.0457
6365.0237
6364.9961
6364.9616
6364.9183
6364.8639
6364.7954
6364.7091
6364.5999
6364.462
6364.2877
6364.0673
6363.7888
6363.4376
6362.9959
6362.4418
6361.7504
6360.891
6359.8291
6358.524
6356.9284
6354.9883
6352.6416
6349.8177
6346.4367
6342.4087
6337.634
6332.0013
6325.3887
6317.6614
6308.6714
6298.2564
6286.2384
6272.4249
6256.608
6238.5636
6218.0531
6194.8189
6168.5797
6139.034
6105.8515
6068.6837
6027.1498
5980.8495
5929.3767
5872.4678
5808.2151
6372.3017
6372.3017
6372.3015
6372.3012
6372.3007
6372.3
6372.2989
6372.2974
6372.2956
6372.2935
6372.2906
6372.2867
6372.2822
6372.2765
6372.2692
6372.2602
6372.2488
6372.2349
6372.2172
6372.1953
6372.1681
6372.1338
6372.0908
6372.0369
6371.9693
6371.8839
6371.7764
6371.6407
6371.4694
6371.253
6370.9801
6370.6363
6370.2039
6369.6626
6368.9872
6368.1489
6367.1133
6365.8415
6364.2873
6362.3983
6360.1142
6357.3666
6354.0779
6350.1611
6345.5187
6340.0432
6333.6152
6326.1032
6317.363
6307.2354
6295.5479
6282.113
6266.7267
6249.1729
6229.2187
6206.611
6181.0745
6152.3145
6120.0079
6083.8148
6043.3641
5998.2657
5948.1312
5892.7352
5830.0132
6379.9447
6379.9447
6379.9446
6379.9444
6379.9439
6379.9431
6379.942
6379.9408
6379.9389
6379.9367
6379.934
6379.9305
6379.9259
6379.9204
6379.9134
6379.9045
6379.8935
6379.8798
6379.8627
6379.8414
6379.8147
6379.7812
6379.7394
6379.6867
6379.6207
6379.5375
6379.4326
6379.3001
6379.1329
6378.922
6378.6559
6378.3207
6377.8998
6377.373
6376.716
6375.9009
6374.8947
6373.6591
6372.1496
6370.3155
6368.0988
6365.4329
6362.2434
6358.4454
6353.9452
6348.6374
6342.4065
6335.1244
6326.6504
6316.8301
6305.4964
6292.4654
6277.5416
6260.5145
6241.1561
6219.218
6194.4336
6166.5124
6135.1412
6099.9884
6060.6934
6016.8761
5968.1673
5914.3833
5853.2858
6388.0656
6388.0656
6388.0654
6388.0651
6388.0647
6388.064
6388.063
6388.0617
6388.0603
6388.058
6388.0555
6388.0521
6388.0481
6388.0427
6388.036
6388.0279
6388.0175
6388.0045
6387.9884
6387.9681
6387.9427
6387.9108
6387.8706
6387.8203
6387.7568
6387.6767
6387.5756
6387.4477
6387.286
6387.0819
6386.8243
6386.4998
6386.0924
6385.5822
6384.9463
6384.1574
6383.1835
6381.9876
6380.5269
6378.7523
6376.6079
6374.0299
6370.9463
6367.2755
6362.9264
6357.7975
6351.7763
6344.7384
6336.5471
6327.0549
6316.0976
6303.4992
6289.0705
6272.6067
6253.8835
6232.6614
6208.6776
6181.6507
6151.276
6117.2311
6079.1656
6036.7097
5989.5149
5937.4436
5878.0644
6396.6739
6396.6739
6396.6739
6396.6735
6396.6731
6396.6725
6396.6718
6396.6706
6396.6691
6396.6673
6396.665
6396.6618
6396.6581
6396.6533
6396.6473
6396.6397
6396.6302
6396.6183
6396.6035
6396.5847
6396.5612
6396.5313
6396.4939
6396.4463
6396.3862
6396.3103
6396.2138
6396.0916
6395.9367
6395.7408
6395.4934
6395.1812
6394.7891
6394.2979
6393.6858
6392.9261
6391.988
6390.8359
6389.4286
6387.7185
6385.6521
6383.1682
6380.1978
6376.6623
6372.4742
6367.5345
6361.7351
6354.9555
6347.066
6337.922
6327.3663
6315.2308
6301.3303
6285.4652
6267.4195
6246.9584
6223.8268
6197.7513
6168.4357
6135.5677
6098.8069
6057.7944
6012.2025
5961.9465
5904.3782
6405.784
6405.7839
6405.7837
6405.7835
6405.7833
6405.7827
6405.7819
6405.781
6405.7798
6405.7781
6405.7761
6405.7734
6405.77
6405.7657
6405.7605
6405.7536
6405.7452
6405.7344
6405.7208
6405.7039
6405.6821
6405.6548
6405.6199
6405.5758
6405.5195
6405.448
6405.3569
6405.241
6405.0937
6404.9071
6404.6707
6404.3725
6403.9976
6403.5277
6402.9416
6402.2142
6401.3154
6400.2109
6398.8611
6397.2208
6395.2385
6392.8557
6390.0062
6386.6145
6382.5961
6377.8568
6372.292
6365.788
6358.2181
6349.4442
6339.3179
6327.6737
6314.3344
6299.1062
6281.7798
6262.1271
6239.9006
6214.8351
6186.6433
6155.0225
6119.6435
6080.157
6036.2572
5987.9215
5932.2559
6415.4104
6415.4104
6415.4103
6415.4101
6415.4099
6415.4095
6415.4089
6415.4079
6415.407
6415.4054
6415.4037
6415.4013
6415.3982
6415.3945
6415.3896
6415.3836
6415.3759
6415.3662
6415.3537
6415.3381
6415.3184
6415.293
6415.2609
6415.2198
6415.1671
6415.1001
6415.0143
6414.9049
6414.7655
6414.5886
6414.3642
6414.0811
6413.7246
6413.2779
6412.72
6412.0273
6411.171
6410.118
6408.8305
6407.2653
6405.3729
6403.0978
6400.3766
6397.1371
6393.2986
6388.7712
6383.4564
6377.244
6370.0133
6361.6345
6351.9625
6340.8396
6328.0953
6313.5431
6296.9793
6278.1837
6256.9172
6232.922
6205.9202
6175.6191
6141.6998
6103.8234
6061.7056
6015.3963
5961.7267
6425.5653
6425.5653
6425.5653
6425.5651
6425.5649
6425.5645
6425.5639
6425.5631
6425.5622
6425.5608
6425.5591
6425.5569
6425.5542
6425.5507
6425.5462
6425.5406
6425.5335
6425.5243
6425.5128
6425.4983
6425.4797
6425.4561
6425.4259
6425.3873
6425.3378
6425.2746
6425.1936
6425.0905
6424.959
6424.7921
6424.5803
6424.313
6423.9762
6423.5541
6423.0268
6422.3712
6421.5601
6420.562
6419.3409
6417.8553
6416.0585
6413.8978
6411.3123
6408.2343
6404.5867
6400.2851
6395.2352
6389.3312
6382.4616
6374.5003
6365.3092
6354.7389
6342.6247
6328.7876
6313.0315
6295.1438
6274.8932
6252.0311
6226.2877
6197.3801
6165.0003
6128.8187
6088.5732
6044.3966
5992.821
6436.2533
6436.2533
6436.2533
6436.2531
6436.2529
6436.2525
6436.252
6436.2512
6436.2503
6436.249
6436.2473
6436.2452
6436.2424
6436.2391
6436.2348
6436.2292
6436.2224
6436.2136
6436.2027
6436.1886
6436.1709
6436.1483
6436.1196
6436.0829
6436.036
6435.9761
6435.8998
6435.8026
6435.679
6435.5222
6435.3235
6435.0728
6434.7569
6434.3608
6433.8655
6433.2492
6432.4858
6431.5458
6430.3944
6428.9932
6427.2977
6425.2576
6422.8164
6419.9096
6416.4651
6412.4029
6407.6323
6402.0563
6395.5683
6388.0481
6379.3663
6369.3795
6357.9312
6344.8503
6329.9482
6313.0204
6293.8444
6272.1796
6247.7651
6220.3274
6189.5684
6155.1681
6116.8867
6074.9494
6025.5716
6447.4721
6447.4721
6447.4719
6447.4719
6447.4716
6447.4712
6447.4707
6447.4699
6447.4688
6447.4676
6447.4659
6447.4639
6447.4611
6447.4578
6447.4535
6447.448
6447.4411
6447.4326
6447.4219
6447.4082
6447.391
6447.3691
6447.3416
6447.3066
6447.262
6447.2055
6447.1337
6447.0424
6446.927
6446.7807
6446.5958
6446.3624
6446.0687
6445.6999
6445.2381
6444.6631
6443.9497
6443.0703
6441.9925
6440.6798
6439.091
6437.179
6434.8904
6432.1651
6428.9361
6425.126
6420.6518
6415.4229
6409.337
6402.2831
6394.1384
6384.7676
6374.0225
6361.7396
6347.7393
6331.8256
6313.7841
6293.3837
6270.3717
6244.4826
6215.4286
6182.8973
6146.6747
6107.0887
6060.0117
6459.2146
6459.2147
6459.2145
6459.2143
6459.2142
6459.2138
6459.2131
6459.2124
6459.2115
6459.2102
6459.2084
6459.2064
6459.2036
6459.2003
6459.1961
6459.1907
6459.1841
6459.1756
6459.1651
6459.152
6459.1354
6459.1146
6459.0883
6459.0553
6459.0134
6458.9604
6458.8935
6458.809
6458.7022
6458.5672
6458.3968
6458.182
6457.9115
6457.5711
6457.1446
6456.6124
6455.9514
6455.1353
6454.1345
6452.9149
6451.4384
6449.6614
6447.5343
6445.0018
6441.9988
6438.4553
6434.2948
6429.431
6423.7694
6417.2069
6409.6283
6400.9071
6390.9029
6379.4615
6366.4125
6351.5686
6334.7246
6315.6584
6294.1252
6269.8676
6242.6056
6212.0339
6177.9688
6140.8547
6096.1805
6471.4732
6471.4732
6471.4732
6471.473
6471.4729
6471.4723
6471.4718
6471.4711
6471.4702
6471.4689
6471.4673
6471.4653
6471.4627
6471.4595
6471.4554
6471.4505
6471.4441
6471.4362
6471.4264
6471.4139
6471.3985
6471.3791
6471.3547
6471.3241
6471.2855
6471.2368
6471.1757
6471.0987
6471.0015
6470.879
6470.7244
6470.5292
6470.2829
6469.9724
6469.5826
6469.0949
6468.4883
6467.7383
6466.8179
6465.6959
6464.3377
6462.7028
6460.7466
6458.4157
6455.6513
6452.3897
6448.5586
6444.0787
6438.8641
6432.8187
6425.8364
6417.7988
6408.5747
6398.0196
6385.9725
6372.2562
6356.6751
6339.0158
6319.0423
6296.504
6271.1273
6242.6098
6210.793
6176.2535
6134.1711
6484.2407
6484.2408
6484.2406
6484.2404
6484.2403
6484.2399
6484.2394
6484.2387
6484.238
6484.2367
6484.2353
6484.2336
6484.2313
6484.2284
6484.2247
6484.2204
6484.2147
6484.2076
6484.1988
6484.1878
6484.174
6484.1566
6484.135
6484.1076
6484.0735
6484.0302
6483.9759
6483.9074
6483.8212
6483.7122
6483.5743
6483.3997
6483.1787
6482.8993
6482.5472
6482.1055
6481.5551
6480.874
6480.0377
6479.0185
6477.7843
6476.2995
6474.522
6472.4028
6469.8898
6466.9235
6463.438
6459.3619
6454.6167
6449.115
6442.7594
6435.4404
6427.0368
6417.4135
6406.421
6393.8926
6379.6425
6363.4671
6345.1386
6324.4137
6301.0242
6274.6585
6245.1613
6213.376
6174.0101
6497.5126
6497.5126
6497.5124
6497.5123
6497.5121
6497.512
6497.5114
6497.5109
6497.5102
6497.5093
6497.5081
6497.5066
6497.5049
6497.5025
6497.4994
6497.4958
6497.4911
6497.4853
6497.478
6497.4687
6497.4572
6497.4426
6497.4244
6497.4012
6497.372
6497.3351
6497.2885
6497.2297
6497.1551
6497.0602
6496.94
6496.7867
6496.5916
6496.3437
6496.0302
6495.636
6495.1438
6494.5346
6493.7866
6492.8749
6491.7714
6490.4434
6488.8522
6486.9556
6484.7054
6482.0479
6478.9249
6475.2724
6471.0201
6466.0891
6460.3907
6453.8261
6446.2839
6437.6401
6427.7562
6416.478
6403.6306
6389.0203
6372.4285
6353.6192
6332.3233
6308.2001
6281.1337
6252.2629
6215.7404
6511.2837
6511.2837
6511.2835
6511.2836
6511.2834
6511.2831
6511.2827
6511.2824
6511.2819
6511.2812
6511.2803
6511.2793
6511.2779
6511.2763
6511.2742
6511.2713
6511.2679
6511.2636
6511.258
6511.251
6511.2421
6511.2309
6511.2164
6511.1981
6511.1747
6511.1446
6511.1062
6511.0573
6510.9947
6510.9145
6510.8116
6510.6796
6510.5105
6510.2946
6510.0204
6509.675
6509.2437
6508.7098
6508.054
6507.2549
6506.288
6505.123
6503.7271
6502.0624
6500.0862
6497.7518
6495.0079
6491.7992
6488.0631
6483.7299
6478.7205
6472.9464
6466.3073
6458.6912
6449.9721
6440.0088
6428.6393
6415.6811
6400.9254
6384.1399
6365.0502
6343.3142
6318.7509
6292.9561
6259.4925
6525.5498
6525.5496
6525.5497
6525.5495
6525.5496
6525.5494
6525.5491
6525.5489
6525.5486
6525.5481
6525.5476
6525.547
6525.5461
6525.5451
6525.5437
6525.542
6525.5397
6525.5369
6525.5332
6525.5286
6525.5224
6525.5144
6525.5039
6525.4901
6525.4722
6525.4489
6525.4185
6525.379
6525.3278
6525.2616
6525.1756
6525.0646
6524.9214
6524.7375
6524.5039
6524.2094
6523.8412
6523.3855
6522.8263
6522.1449
6521.3192
6520.3241
6519.1313
6517.7079
6516.0172
6514.0196
6511.6723
6508.9274
6505.7312
6502.0231
6497.7342
6492.7867
6487.0931
6480.5541
6473.0577
6464.4765
6454.6641
6443.4502
6430.6352
6415.9904
6399.2596
6380.0467
6358.1022
6335.5299
6305.401
6540.3007
6540.3007
6540.3007
6540.3006
6540.3006
6540.3005
6540.3004
6540.3002
6540.3001
6540.2998
6540.2997
6540.2992
6540.2989
6540.2983
6540.2977
6540.2969
6540.2957
6540.2942
6540.292
6540.2893
6540.2855
6540.2802
6540.2732
6540.2635
6540.2504
6540.2329
6540.2097
6540.1788
6540.1381
6540.0848
6540.0151
6539.9244
6539.8069
6539.6559
6539.4639
6539.2216
6538.9191
6538.5449
6538.0856
6537.5255
6536.8464
6536.0278
6535.0454
6533.8722
6532.4785
6530.8325
6528.8987
6526.6376
6524.0047
6520.949
6517.4122
6513.3284
6508.6231
6503.2115
6496.9965
6489.8668
6481.6926
6472.3163
6461.5587
6449.201
6434.9821
6418.4836
6399.3529
6380.1348
6353.5733
6555.5216
6555.5214
6555.5214
6555.5213
6555.5213
6555.5212
6555.5211
6555.5211
6555.521
6555.5209
6555.5208
6555.5207
6555.5204
6555.5203
6555.5199
6555.5196
6555.5191
6555.5183
6555.5171
6555.5155
6555.5133
6555.5098
6555.505
6555.4982
6555.4886
6555.4757
6555.458
6555.4343
6555.4028
6555.3614
6555.3071
6555.2364
6555.1447
6555.027
6554.8771
6554.6887
6554.4537
6554.1635
6553.8071
6553.3722
6552.8448
6552.2084
6551.4439
6550.5305
6549.4457
6548.1655
6546.6626
6544.9056
6542.8593
6540.4828
6537.7296
6534.5463
6530.8723
6526.6383
6521.7641
6516.1537
6509.7002
6502.2682
6493.6947
6483.7758
6472.2651
6458.7281
6442.7389
6427.0055
6404.0075
6571.1841
6571.1842
6571.184
6571.1839
6571.1839
6571.1838
6571.1837
6571.1835
6571.1834
6571.1833
6571.1831
6571.183
6571.183
6571.1829
6571.1826
6571.1822
6571.1819
6571.1813
6571.1806
6571.1795
6571.1778
6571.1754
6571.1717
6571.1668
6571.1596
6571.1499
6571.1367
6571.1192
6571.096
6571.0657
6571.0264
6570.9755
6570.91
6570.8261
6570.7194
6570.5861
6570.4207
6570.2164
6569.9653
6569.6596
6569.2881
6568.8394
6568.3002
6567.6562
6566.8924
6565.9924
6564.9369
6563.7033
6562.266
6560.595
6558.6555
6556.4072
6553.8066
6550.8007
6547.3273
6543.3112
6538.665
6533.2785
6527.0229
6519.7232
6511.1557
6500.8955
6488.5127
6476.1987
6457.0358
6587.2562
6587.256
6587.2559
6587.2557
6587.2556
6587.2554
6587.2553
6587.255
6587.2549
6587.2545
6587.2544
6587.2541
6587.2537
6587.2534
6587.2529
6587.2525
6587.252
6587.2513
6587.2502
6587.2489
6587.2472
6587.2449
6587.2418
6587.2376
6587.2317
6587.2242
6587.2145
6587.2021
6587.1864
6587.1667
6587.142
6587.1111
6587.0724
6587.0227
6586.9603
6586.8831
6586.788
6586.671
6586.5285
6586.355
6586.1442
6585.8891
6585.5826
6585.2177
6584.7865
6584.2803
6583.6884
6582.9969
6582.1906
6581.2512
6580.1562
6578.8807
6577.3967
6575.6698
6573.6579
6571.3068
6568.5567
6565.3243
6561.5154
6557.0068
6551.6232
6545.0301
6536.863
6528.4932
6514.0804
6604.4214
6604.4212
6604.421
6604.4209
6604.4206
6604.4204
6604.4201
6604.4197
6604.4192
6604.4187
6604.4182
6604.4177
6604.4171
6604.4163
6604.4154
6604.4145
6604.4132
6604.4118
6604.4101
6604.4081
6604.4056
6604.4026
6604.3989
6604.3946
6604.3893
6604.3831
6604.3762
6604.3684
6604.3596
6604.3503
6604.34
6604.3291
6604.3171
6604.3037
6604.2891
6604.2728
6604.2545
6604.234
6604.2099
6604.1806
6604.1451
6604.1017
6604.0504
6603.9907
6603.9226
6603.8453
6603.7571
6603.6539
6603.5317
6603.3845
6603.2052
6602.9854
6602.7147
6602.3791
6601.9582
6601.4246
6600.744
6599.8719
6598.7519
6597.3183
6595.4757
6593.0366
6590.01
6587.2394
6581.9478
6622.48
6622.4797
6622.4795
6622.4792
6622.4788
6622.4785
6622.4781
6622.4776
6622.4771
6622.4764
6622.4757
6622.4748
6622.474
6622.4727
6622.4714
6622.4699
6622.468
6622.4659
6622.4636
6622.4606
6622.4573
6622.4538
6622.4495
6622.4452
6622.4405
6622.436
6622.4321
6622.4293
6622.4287
6622.4307
6622.4369
6622.4481
6622.4661
6622.4919
6622.5279
6622.577
6622.6423
6622.7252
6622.8274
6622.9522
6623.1036
6623.2865
6623.5074
6623.7738
6624.0931
6624.4733
6624.9215
6625.445
6626.0514
6626.7491
6627.5473
6628.4553
6629.4815
6630.6331
6631.9146
6633.3274
6634.8684
6636.533
6638.3107
6640.1979
6642.1888
6644.2575
6646.6036
6649.6277
6651.9087
6640.5029
6640.5027
6640.5024
6640.502
6640.5016
6640.5013
6640.5009
6640.5004
6640.4997
6640.4992
6640.4983
6640.4974
6640.4965
6640.4953
6640.494
6640.4925
6640.4907
6640.4886
6640.4864
6640.4839
6640.4812
6640.4781
6640.475
6640.4721
6640.4698
6640.4686
6640.4695
6640.4733
6640.4818
6640.4966
6640.5195
6640.5531
6640.5998
6640.6636
6640.7488
6640.8605
6641.0039
6641.1849
6641.41
6641.6867
6642.0241
6642.4329
6642.9263
6643.5187
6644.2257
6645.0633
6646.0486
6647.1997
6648.5373
6650.0841
6651.8657
6653.9092
6656.2424
6658.8937
6661.8928
6665.2708
6669.058
6673.2894
6678.0033
6683.253
6689.1013
6695.642
6703.1042
6711.7295
6721.3669
6658.4132
6658.413
6658.4127
6658.4123
6658.4121
6658.4116
6658.4112
6658.4108
6658.4103
6658.4098
6658.409
6658.4083
6658.4075
6658.4066
6658.4057
6658.4046
6658.4032
6658.402
6658.4003
6658.3989
6658.3973
6658.3959
6658.3948
6658.3943
6658.3952
6658.3982
6658.4046
6658.4158
6658.4334
6658.4603
6658.4996
6658.5543
6658.6297
6658.7312
6658.8645
6659.0372
6659.2581
6659.5366
6659.8829
6660.3095
6660.8306
6661.4637
6662.2279
6663.1447
6664.2372
6665.5298
6667.0495
6668.826
6670.8929
6673.2878
6676.0523
6679.2313
6682.8722
6687.0255
6691.7453
6697.092
6703.1304
6709.9341
6717.5868
6726.1943
6735.8791
6746.8159
6759.272
6773.5608
6790.1322
6676.1259
6676.1255
6676.1253
6676.1249
6676.1248
6676.1244
6676.124
6676.1236
6676.1233
6676.1229
6676.1225
6676.1222
6676.1217
6676.1214
6676.121
6676.1207
6676.1203
6676.1201
6676.12
6676.1202
6676.1205
6676.1215
6676.1234
6676.1265
6676.1316
6676.14
6676.1527
6676.172
6676.2004
6676.2411
6676.2978
6676.3758
6676.4812
6676.6202
6676.8016
6677.0357
6677.3338
6677.7087
6678.1751
6678.7504
6679.4542
6680.3095
6681.3424
6682.5805
6684.0545
6685.7977
6687.847
6690.2441
6693.0357
6696.2738
6700.0158
6704.3241
6709.2658
6714.9133
6721.3465
6728.6534
6736.9324
6746.2941
6756.8654
6768.8017
6782.2844
6797.5559
6814.9432
6834.8623
6857.9309
6693.5727
6693.5723
6693.5721
6693.5719
6693.5717
6693.5714
6693.5712
6693.5711
6693.571
6693.5708
6693.5708
6693.5708
6693.5711
6693.5712
6693.5717
6693.5722
6693.5731
6693.5742
6693.5757
6693.5776
6693.5805
6693.5841
6693.5893
6693.5965
6693.6066
6693.6209
6693.6411
6693.6699
6693.7101
6693.766
6693.8423
6693.9447
6694.0806
6694.2582
6694.4887
6694.784
6695.1591
6695.6301
6696.2159