/*--------------------------------*- C++ -*----------------------------------*\
  =========                 |
  \\      /  F ield         | OpenFOAM: The Open Source CFD Toolbox
   \\    /   O peration     | Website:  https://openfoam.org
    \\  /    A nd           | Version:  13
     \\/     M anipulation  |
\*---------------------------------------------------------------------------*/
FoamFile
{
    format      ascii;
    class       volScalarField;
    location    "34.896617";
    object      yPlus;
}
// * * * * * * * * * * * * * * * * * * * * * * * * * * * * * * * * * * * * * //

dimensions      [];

internalField   uniform 0;

boundaryField
{
    inlet
    {
        type            calculated;
        value           uniform 0;
    }
    outlet
    {
        type            calculated;
        value           uniform 0;
    }
    cylinder
    {
        type            calculated;
        value           nonuniform List<scalar> 
132
(
1.9131805e-07
1.9029765e-07
1.8861761e-07
1.8622983e-07
1.8314852e-07
1.7938044e-07
1.7493517e-07
1.6983472e-07
1.6411346e-07
1.5781775e-07
1.5100609e-07
1.4374893e-07
1.3612808e-07
1.2823633e-07
1.2017561e-07
1.1205557e-07
1.039908e-07
9.6098286e-08
8.8495874e-08
8.1292383e-08
7.4580314e-08
6.8415488e-08
6.2795557e-08
5.7633267e-08
5.2735086e-08
4.7807358e-08
4.2516421e-08
3.661328e-08
3.0084708e-08
2.324021e-08
1.6666371e-08
1.1045766e-08
6.9709508e-09
4.8480155e-09
4.656339e-09
5.4954224e-09
6.8197124e-09
8.5205273e-09
1.062013e-08
1.3172714e-08
1.6304038e-08
2.0127098e-08
2.432331e-08
2.8826177e-08
3.3509457e-08
3.8253542e-08
4.2954719e-08
4.7537631e-08
5.1944082e-08
5.6139724e-08
6.0098672e-08
6.3813146e-08
6.7265229e-08
7.0435634e-08
7.3380899e-08
7.6070151e-08
7.8496984e-08
8.0674809e-08
8.2610273e-08
8.4310213e-08
8.5782227e-08
8.6997417e-08
8.7985315e-08
8.8725359e-08
8.9237876e-08
8.9512639e-08
1.9165929e-07
1.9131526e-07
1.9030737e-07
1.8858674e-07
1.8612842e-07
1.8291786e-07
1.7895078e-07
1.7423452e-07
1.6878941e-07
1.6264998e-07
1.5586613e-07
1.4850407e-07
1.4064622e-07
1.3239173e-07
1.2385352e-07
1.1515627e-07
1.0643681e-07
9.7839207e-08
8.9511836e-08
8.1593945e-08
7.420417e-08
6.7421917e-08
6.1258977e-08
5.5626353e-08
5.0311786e-08
4.4998691e-08
3.9349366e-08
3.3158338e-08
2.6507891e-08
1.9810513e-08
1.3701014e-08
8.8223223e-09
5.6852281e-09
4.5661039e-09
4.9670734e-09
6.0539134e-09
7.532887e-09
9.3856636e-09
1.1648056e-08
1.4374696e-08
1.7680265e-08
2.1667078e-08
2.5987086e-08
3.0570174e-08
3.5284836e-08
4.00218e-08
4.4687537e-08
4.920828e-08
5.3539304e-08
5.7647673e-08
6.1512608e-08
6.5127668e-08
6.8476466e-08
7.1544765e-08
7.440961e-08
7.6995377e-08
7.9330189e-08
8.141493e-08
8.3267094e-08
8.4880064e-08
8.6258891e-08
8.7388989e-08
8.8286707e-08
8.893673e-08
8.9357346e-08
8.9547541e-08
)
;
    }
    frontAndBack
    {
        type            empty;
    }
}


// ************************************************************************* //
