/*--------------------------------*- C++ -*----------------------------------*\
  =========                 |
  \\      /  F ield         | OpenFOAM: The Open Source CFD Toolbox
   \\    /   O peration     | Website:  https://openfoam.org
    \\  /    A nd           | Version:  13
     \\/     M anipulation  |
\*---------------------------------------------------------------------------*/
FoamFile
{
    format      ascii;
    class       volScalarField;
    location    "27.599776";
    object      pMean;
}
// * * * * * * * * * * * * * * * * * * * * * * * * * * * * * * * * * * * * * //

dimensions      [0 2 -2 0 0 0 0];

internalField   nonuniform List<scalar> 
17140
(
1.5941057
1.5939966
1.5938648
1.5937302
1.5935846
1.5934256
1.5932531
1.5930667
1.5928658
1.5926501
1.5924194
1.5921733
1.5919115
1.5916336
1.5913386
1.5910245
1.5906882
1.5903243
1.5899241
1.5894749
1.588958
1.5883468
1.5876051
1.5866842
1.5855189
1.584029
1.5821343
1.5797647
1.5768532
1.5733232
1.5690703
1.5639692
1.5578836
1.5506627
1.5421434
1.5321552
1.5205267
1.5070988
1.4917424
1.4743852
1.4550448
1.4338685
1.4111845
1.387551
1.3637771
1.3409722
1.3204467
1.3033647
1.2909051
1.284093
1.2836707
1.290147
1.3038973
1.324914
1.3528983
1.3869043
1.4259255
1.4676198
1.5114393
1.5531273
1.5942021
1.6253228
1.6556264
1.6658604
1.6840641
1.5924175
1.5923106
1.5921815
1.5920498
1.5919071
1.5917514
1.5915824
1.5913997
1.5912028
1.5909914
1.5907652
1.590524
1.5902675
1.5899952
1.5897062
1.5893987
1.5890696
1.5887136
1.5883222
1.5878829
1.5873769
1.5867783
1.5860508
1.5851462
1.5839996
1.5825307
1.5806589
1.5783138
1.5754282
1.5719241
1.5676965
1.5626194
1.5565566
1.5493565
1.5408555
1.5308822
1.5192642
1.5058413
1.4904835
1.4731169
1.4537579
1.4325527
1.4098286
1.3861437
1.3623163
1.3394531
1.3188455
1.3017169
1.2892294
1.2823735
1.2819048
1.2883358
1.3020213
1.322963
1.3508763
1.3847909
1.4237291
1.4653862
1.5092467
1.5510666
1.5923502
1.6236959
1.6541176
1.6642162
1.6825529
1.5884785
1.588377
1.5882546
1.5881294
1.5879938
1.5878456
1.5876847
1.5875108
1.5873232
1.5871218
1.5869063
1.5866765
1.5864321
1.5861728
1.5858979
1.5856056
1.585293
1.5849552
1.5845841
1.5841674
1.583687
1.5831172
1.5824226
1.5815554
1.5804519
1.5790316
1.5772124
1.5749224
1.5720933
1.5686467
1.5644767
1.5594562
1.5534478
1.5462986
1.5378432
1.5279077
1.5163176
1.5029098
1.4875511
1.4701649
1.4507642
1.4294938
1.4066817
1.3828893
1.3589507
1.3359875
1.3152637
1.2980284
1.2854655
1.2785514
1.2780135
1.2843462
1.297905
1.3187009
1.3464584
1.380195
1.4189549
1.4604533
1.5042405
1.5460979
1.5875617
1.6191944
1.6499021
1.6601183
1.6788947
1.5823625
1.5822695
1.5821578
1.5820428
1.5819181
1.5817818
1.5816337
1.5814735
1.5813006
1.5811148
1.580916
1.580704
1.5804787
1.5802398
1.5799867
1.579718
1.5794311
1.5791215
1.5787816
1.5783997
1.5779585
1.5774329
1.5767886
1.5759787
1.5749411
1.5735955
1.5718576
1.5696522
1.5669096
1.5635513
1.5594709
1.5545393
1.5486174
1.5415501
1.5331689
1.5232967
1.5117551
1.4983766
1.4830238
1.4656148
1.4461584
1.4247978
1.4018626
1.3779221
1.3538329
1.3307322
1.3098611
1.2925051
1.2798525
1.272867
1.27225
1.2784652
1.2918563
1.312442
1.3399566
1.3733908
1.4118129
1.4529787
1.4965409
1.538368
1.5800437
1.6120862
1.6432425
1.6539083
1.6733085
1.5742641
1.5741827
1.5740851
1.5739839
1.5738739
1.5737536
1.5736227
1.5734808
1.5733277
1.573163
1.5729866
1.5727985
1.5725986
1.5723869
1.5721629
1.5719256
1.5716727
1.5714002
1.5711012
1.5707648
1.5703745
1.5699064
1.5693273
1.5685918
1.5676397
1.5663923
1.5647621
1.5626682
1.5600393
1.5567977
1.5528366
1.5480248
1.5422205
1.5352658
1.5269885
1.517207
1.505738
1.4924089
1.4770761
1.4596515
1.4401389
1.4186797
1.3956076
1.3715044
1.3472564
1.3240037
1.3029843
1.2855201
1.2727969
1.2657649
1.2650823
1.27118
1.2843899
1.3047327
1.3319465
1.3650081
1.4030109
1.4437465
1.4870013
1.528758
1.5706436
1.6031521
1.6348563
1.6462136
1.6663579
1.5645022
1.5644348
1.5643547
1.5642703
1.5641784
1.5640777
1.563968
1.5638488
1.5637199
1.5635811
1.5634324
1.5632736
1.563105
1.5629266
1.5627381
1.5625387
1.5623268
1.5620987
1.5618484
1.5615658
1.5612356
1.5608351
1.5603325
1.5596842
1.5588321
1.5577008
1.5561997
1.5542408
1.5517495
1.5486482
1.5448313
1.5401669
1.5345085
1.5276955
1.5195513
1.5098895
1.4985212
1.4852674
1.4699775
1.4525562
1.433002
1.4114556
1.3882555
1.3640015
1.3396116
1.3162174
1.2950828
1.2775477
1.2647919
1.2577513
1.25704
1.2630491
1.2760956
1.2961914
1.3230709
1.3556922
1.3932021
1.4334544
1.4763562
1.518042
1.5601455
1.5932506
1.6255844
1.6378083
1.6587987
1.5535082
1.5534568
1.5533958
1.5533309
1.5532599
1.5531819
1.5530967
1.5530037
1.552903
1.5527942
1.5526774
1.5525527
1.5524201
1.5522799
1.552132
1.5519759
1.5518101
1.5516318
1.5514356
1.5512124
1.5509479
1.550621
1.5502015
1.5496478
1.5489043
1.547899
1.5465415
1.5447367
1.5424013
1.539457
1.5358032
1.5313081
1.5258196
1.519174
1.5111906
1.5016779
1.4904411
1.4772944
1.4620793
1.4446935
1.42513
1.4035294
1.3802374
1.3558742
1.3313822
1.3078914
1.2866945
1.2691289
1.2563794
1.2493654
1.2486605
1.2546172
1.2675369
1.2874241
1.3140075
1.346211
1.383222
1.4230194
1.4656209
1.5073174
1.5496854
1.5834029
1.6163546
1.6294568
1.6511456
1.5418035
1.5417694
1.5417288
1.5416852
1.5416372
1.5415842
1.5415258
1.5414618
1.5413921
1.5413165
1.5412349
1.5411476
1.5410548
1.5409564
1.5408528
1.5407435
1.5406274
1.540502
1.5403627
1.5402011
1.5400044
1.5397527
1.5394176
1.5389596
1.538326
1.5374481
1.5362396
1.5346
1.5324327
1.529656
1.5261763
1.5218636
1.5165631
1.5101062
1.5023085
1.4929736
1.4819011
1.4688981
1.4537989
1.4364939
1.4169717
1.3953732
1.372053
1.3476521
1.3231208
1.2996004
1.2783978
1.2608333
1.2481105
1.2411419
1.2404695
1.246402
1.2592308
1.2789578
1.3053035
1.3371815
1.3737664
1.4131785
1.4555548
1.4973165
1.5399183
1.5742722
1.6078415
1.6220675
1.6445176
1.5299662
1.5299501
1.5299307
1.5299095
1.5298857
1.5298588
1.5298288
1.5297953
1.5297583
1.5297177
1.5296736
1.5296258
1.5295748
1.5295206
1.5294633
1.5294027
1.5293378
1.5292663
1.5291841
1.5290837
1.528953
1.5287738
1.5285194
1.5281526
1.5276232
1.5268661
1.5257993
1.5243246
1.5223348
1.5197316
1.5164256
1.5123004
1.5071986
1.5009449
1.4933534
1.4842234
1.4733492
1.4605319
1.4455991
1.4284353
1.4090254
1.3875111
1.3642553
1.3399163
1.3154356
1.2919707
1.2708232
1.253291
1.2406089
1.2336904
1.233048
1.2389666
1.2517465
1.2713748
1.2975454
1.3291552
1.3653869
1.4045114
1.446805
1.4888475
1.5319634
1.5670834
1.6012257
1.6163092
1.6390064
1.5185916
1.5185935
1.5185953
1.5185963
1.5185966
1.5185961
1.5185946
1.5185919
1.518588
1.5185829
1.5185766
1.5185691
1.5185606
1.5185511
1.5185406
1.5185288
1.5185147
1.5184962
1.5184694
1.5184271
1.5183583
1.5182457
1.5180642
1.5177788
1.5173421
1.5166923
1.5157519
1.5144266
1.5126091
1.5101874
1.5070558
1.5031077
1.4982041
1.4921665
1.4847996
1.4759002
1.4652598
1.4526753
1.4379701
1.4210244
1.4018203
1.3805005
1.3574333
1.3332842
1.3089811
1.2856873
1.2646777
1.2472381
1.2346238
1.2277518
1.2271429
1.2330897
1.245869
1.2654403
1.2914893
1.3229064
1.3589305
1.3980438
1.4405483
1.4830063
1.5263792
1.5619219
1.596033
1.6116456
1.6345099
1.5082393
1.5082581
1.5082799
1.5083021
1.5083254
1.5083499
1.5083757
1.5084027
1.5084308
1.5084601
1.5084905
1.5085222
1.5085551
1.5085892
1.5086243
1.5086599
1.5086949
1.508727
1.5087522
1.5087638
1.508751
1.5086976
1.5085797
1.508364
1.5080056
1.5074461
1.5066119
1.5054133
1.5037462
1.5014965
1.4985476
1.4947806
1.4900631
1.4842354
1.4771059
1.4684645
1.4580992
1.4458052
1.4314034
1.4147719
1.3958921
1.3749074
1.35219
1.3283926
1.3044357
1.2814701
1.2607303
1.2434878
1.2309951
1.2241972
1.2236344
1.2295654
1.2422932
1.2617943
1.2877298
1.3190124
1.3549395
1.3941179
1.4367988
1.4795135
1.522912
1.5585231
1.5924109
1.6085197
1.6310862
1.4993865
1.4994203
1.4994598
1.4995008
1.4995447
1.4995919
1.4996423
1.4996961
1.4997534
1.4998142
1.4998786
1.4999465
1.5000179
1.5000927
1.5001705
1.5002505
1.5003314
1.5004106
1.500484
1.5005447
1.5005821
1.5005807
1.5005173
1.5003602
1.5000664
1.4995804
1.4988324
1.4977375
1.4961954
1.4940938
1.4913139
1.4877308
1.4832111
1.4775993
1.4707146
1.4623541
1.4523074
1.4403693
1.4263606
1.4101596
1.3917478
1.3712681
1.3490904
1.3258449
1.302437
1.2799835
1.2596803
1.2427714
1.2304996
1.2237806
1.2231297
1.228921
1.2414946
1.2608396
1.2865941
1.3176903
1.3535366
1.3928423
1.435763
1.4787389
1.5220715
1.557417
1.5904611
1.6066789
1.6282313
1.4923756
1.4924215
1.4924753
1.4925318
1.4925925
1.4926584
1.4927294
1.4928058
1.4928878
1.4929755
1.493069
1.4931684
1.4932737
1.4933845
1.4935004
1.4936204
1.4937429
1.4938651
1.4939826
1.4940884
1.494172
1.4942179
1.4942038
1.4940989
1.4938618
1.4934393
1.4927644
1.4917566
1.490321
1.4883488
1.4857205
1.4823119
1.4779921
1.472612
1.4659997
1.457958
1.4482827
1.4367738
1.4232595
1.4076201
1.3898379
1.3700513
1.3486169
1.3261455
1.3035071
1.2817569
1.2620533
1.2456276
1.2335971
1.2268593
1.2260224
1.2315975
1.2439372
1.2630422
1.2885306
1.3194235
1.3553165
1.3949105
1.438109
1.4809912
1.5235308
1.5577161
1.5898258
1.6056872
1.6260981
1.4873833
1.4874378
1.4875018
1.4875692
1.4876422
1.4877217
1.4878079
1.4879012
1.4880019
1.4881103
1.4882265
1.4883508
1.4884831
1.4886233
1.4887707
1.4889245
1.4890828
1.4892427
1.4893999
1.4895471
1.4896741
1.4897656
1.4897999
1.4897471
1.4895673
1.4892085
1.4886061
1.4876825
1.4863477
1.4844996
1.4820296
1.478785
1.4746735
1.4695439
1.4632316
1.4555499
1.4463159
1.435332
1.4224298
1.4074966
1.3905162
1.3716186
1.3511394
1.3296564
1.3079831
1.2871057
1.2681587
1.2522375
1.2404036
1.2335891
1.2325366
1.2378067
1.2498338
1.2686077
1.2937486
1.3244783
1.3604169
1.4002378
1.4433007
1.4854817
1.526589
1.5596188
1.5901052
1.605291
1.6246077
1.4843941
1.484453
1.4845225
1.4845959
1.4846758
1.4847631
1.4848583
1.4849618
1.485074
1.4851955
1.4853266
1.4854676
1.4856187
1.4857798
1.4859504
1.4861299
1.4863165
1.4865077
1.4866989
1.4868837
1.4870521
1.4871895
1.4872753
1.487281
1.487168
1.4868865
1.486374
1.4855549
1.4843417
1.4826335
1.4803255
1.4773355
1.4734678
1.4685633
1.4625963
1.4553475
1.446622
1.4362487
1.4240777
1.4099994
1.3939932
1.3761752
1.3568503
1.3365385
1.3159823
1.2961297
1.2779578
1.2625063
1.2508428
1.2439189
1.2425803
1.2475055
1.2591486
1.2774952
1.3022496
1.3328114
1.3688327
1.4085454
1.4509289
1.491822
1.5311619
1.5622439
1.5908345
1.6053075
1.6235139
1.4832297
1.483289
1.4833594
1.4834337
1.4835149
1.483604
1.4837015
1.4838081
1.4839243
1.4840507
1.4841879
1.4843364
1.4844966
1.4846688
1.4848527
1.485048
1.4852534
1.4854668
1.4856845
1.4859008
1.4861069
1.4862897
1.4864305
1.486503
1.4864713
1.4862879
1.4858926
1.4852116
1.4841585
1.4826366
1.4805428
1.4777712
1.4741683
1.469704
1.4641295
1.457305
1.4491845
1.4395557
1.42826
1.4151911
1.4003265
1.3837618
1.3657528
1.346752
1.3274492
1.3086309
1.2912122
1.2762094
1.2646486
1.257586
1.2559499
1.2604939
1.2716912
1.2895342
1.3139138
1.3443568
1.3801323
1.4191889
1.4604851
1.4994702
1.5363995
1.5652854
1.5920422
1.6056369
1.6228947
1.4835524
1.4836086
1.4836758
1.4837464
1.4838237
1.483909
1.4840028
1.4841057
1.4842185
1.4843418
1.4844766
1.4846234
1.4847828
1.4849556
1.4851419
1.4853418
1.4855546
1.4857791
1.4860127
1.4862509
1.4864869
1.4867097
1.4869037
1.487046
1.487105
1.4870378
1.4867879
1.4862853
1.4854463
1.4841745
1.4823665
1.4799094
1.4767175
1.4726519
1.4675565
1.4614446
1.4540351
1.4452176
1.4349124
1.4229954
1.4094239
1.3942542
1.3776841
1.3601139
1.3420718
1.3242731
1.3075903
1.2929494
1.2814596
1.2742385
1.2722993
1.2764354
1.2870813
1.3044568
1.3284747
1.3586106
1.3936713
1.431946
1.4712387
1.5077416
1.5420408
1.568614
1.5935891
1.6063602
1.6228019
1.4849714
1.4850215
1.485082
1.4851452
1.4852146
1.4852914
1.4853763
1.4854698
1.4855729
1.4856863
1.4858108
1.4859475
1.4860971
1.4862605
1.4864385
1.4866315
1.4868397
1.4870628
1.4872994
1.4875469
1.4878006
1.4880529
1.4882919
1.4884998
1.4886511
1.4887101
1.4886285
1.4883436
1.4877767
1.4868351
1.4854155
1.4834051
1.4807006
1.4771892
1.4727893
1.4673354
1.4607607
1.4530083
1.443843
1.4332093
1.4210568
1.4073917
1.3923649
1.3762366
1.3594481
1.342657
1.3266095
1.312288
1.3008429
1.2934547
1.2911862
1.2948005
1.3049569
1.3218399
1.3454504
1.3749477
1.4094453
1.4457682
1.482509
1.5163545
1.5477321
1.5722805
1.595597
1.6075657
1.6232667
1.4870579
1.4871001
1.4871513
1.4872046
1.4872634
1.4873287
1.4874012
1.4874815
1.4875704
1.4876687
1.4877774
1.4878975
1.4880299
1.4881759
1.4883363
1.4885122
1.4887045
1.4889135
1.4891394
1.4893811
1.4896364
1.4899009
1.4901672
1.4904234
1.4906514
1.4908251
1.490907
1.4908464
1.4905773
1.4900169
1.489068
1.4876211
1.4855655
1.4827822
1.479182
1.4746639
1.4691585
1.4625
1.454643
1.4454707
1.434861
1.4228048
1.4093456
1.3946585
1.3791133
1.3632219
1.3477561
1.3336881
1.3222429
1.3146314
1.3119445
1.3150367
1.3246571
1.3411101
1.3642487
1.3933005
1.4262272
1.459895
1.4941531
1.5246988
1.5536877
1.576282
1.5980868
1.6092545
1.6242969
1.4894497
1.4894833
1.4895242
1.4895666
1.4896136
1.4896661
1.4897245
1.4897895
1.4898619
1.4899424
1.4900319
1.4901314
1.4902421
1.4903651
1.4905015
1.4906528
1.4908201
1.4910045
1.4912072
1.4914286
1.4916685
1.4919254
1.4921962
1.4924744
1.49275
1.4930067
1.4932204
1.4933564
1.4933668
1.493188
1.4927403
1.4919278
1.4906444
1.4887752
1.4862154
1.4828467
1.4785648
1.4732971
1.4669334
1.459326
1.4503752
1.4399739
1.4280952
1.414838
1.4004218
1.3853429
1.3703467
1.3564813
1.3449374
1.3370246
1.3338503
1.3364386
1.3457627
1.3619362
1.3847702
1.4126587
1.4430006
1.474403
1.5051613
1.5331964
1.5598534
1.5806683
1.6010817
1.6114565
1.6259057
1.4918581
1.4918831
1.4919134
1.4919454
1.4919808
1.4920205
1.4920649
1.4921145
1.49217
1.4922321
1.4923016
1.4923793
1.4924665
1.492564
1.4926733
1.4927957
1.4929326
1.4930857
1.4932564
1.4934462
1.4936564
1.4938876
1.4941398
1.4944114
1.4946992
1.4949964
1.4952913
1.4955658
1.4957927
1.4959339
1.4959371
1.4957334
1.495238
1.4943497
1.4929584
1.4909433
1.4881842
1.4845437
1.4798762
1.474051
1.4668814
1.4582012
1.4479136
1.4359831
1.422595
1.408192
1.3935567
1.3797524
1.3680444
1.3597795
1.3562294
1.358719
1.3680139
1.3841433
1.406286
1.4319357
1.4601533
1.4881875
1.5162545
1.5417423
1.5662996
1.5854602
1.6045858
1.6141778
1.6280966
1.4941143
1.4941317
1.4941526
1.494175
1.4942
1.494228
1.4942595
1.4942948
1.4943346
1.4943796
1.4944303
1.4944875
1.4945519
1.4946244
1.4947061
1.4947981
1.494902
1.4950198
1.495153
1.4953038
1.495474
1.4956659
1.4958816
1.496123
1.4963914
1.4966871
1.4970089
1.4973527
1.4977113
1.4980721
1.4984137
1.4987034
1.4988943
1.498918
1.4986837
1.4980728
1.4969409
1.4951149
1.4923934
1.488543
1.4833107
1.4764478
1.4677226
1.4570558
1.4445858
1.4307313
1.4163325
1.4024954
1.3905024
1.3820678
1.3787005
1.381537
1.391273
1.407161
1.4277012
1.4510012
1.476585
1.5016872
1.527143
1.5504142
1.5730515
1.590666
1.6086022
1.6174297
1.6308753
1.4961456
1.4961563
1.4961691
1.496183
1.4961986
1.4962162
1.4962361
1.496259
1.4962853
1.4963144
1.4963458
1.4963803
1.49642
1.4964669
1.4965228
1.4965883
1.4966634
1.4967485
1.4968448
1.4969541
1.4970793
1.497224
1.4973918
1.4975871
1.4978144
1.4980786
1.4983855
1.4987426
1.4991569
1.4996352
1.5001842
1.5008076
1.5014987
1.5022367
1.5029727
1.5036181
1.5040311
1.504002
1.5032591
1.5014715
1.4982598
1.4932452
1.4861035
1.4766818
1.4650502
1.4516445
1.4373458
1.4233243
1.4114784
1.4036835
1.4011314
1.4049498
1.4149232
1.4298404
1.4481574
1.4696538
1.4919767
1.5147906
1.5380088
1.5592341
1.5801146
1.5962916
1.6131324
1.6212066
1.6342314
1.4979639
1.4979683
1.4979737
1.4979795
1.4979858
1.4979932
1.4980022
1.4980129
1.4980255
1.4980401
1.498057
1.4980767
1.4980996
1.4981262
1.4981566
1.4981908
1.4982305
1.498279
1.498338
1.4984067
1.4984868
1.4985833
1.4987029
1.4988511
1.4990317
1.4992503
1.4995187
1.4998514
1.5002655
1.5007812
1.5014225
1.5022247
1.5032188
1.5044185
1.5058243
1.5073956
1.5090173
1.5104854
1.5114848
1.511581
1.5102806
1.5070568
1.5014657
1.4932332
1.4823589
1.4693307
1.4553208
1.4419335
1.4314399
1.4249553
1.4238638
1.4283753
1.4380447
1.451144
1.4680298
1.4866432
1.5070227
1.5276948
1.5488397
1.5682124
1.5874887
1.6023304
1.6181678
1.6255146
1.6381667
1.4995675
1.4995653
1.4995629
1.4995603
1.4995577
1.499555
1.4995525
1.4995505
1.4995498
1.4995507
1.4995519
1.4995517
1.4995502
1.4995492
1.4995504
1.4995564
1.4995697
1.4995924
1.4996251
1.4996649
1.4997109
1.4997685
1.4998443
1.4999445
1.5000758
1.5002474
1.5004724
1.5007698
1.5011635
1.5016814
1.5023577
1.5032369
1.5043679
1.5057954
1.5075605
1.5096632
1.5120272
1.5144747
1.5167054
1.518249
1.5185162
1.5168437
1.512658
1.5054855
1.4954575
1.4833772
1.4707618
1.4592852
1.4505726
1.4460102
1.4460425
1.450649
1.459393
1.4715467
1.486333
1.503218
1.5215994
1.540346
1.5596733
1.5773607
1.5951765
1.6087831
1.6236966
1.6303459
1.6426716
1.5009018
1.5008929
1.5008824
1.5008714
1.5008594
1.5008464
1.5008324
1.5008178
1.5008029
1.5007873
1.500771
1.5007536
1.500736
1.5007196
1.5007055
1.5006938
1.5006841
1.5006754
1.5006704
1.5006733
1.5006877
1.5007176
1.5007655
1.5008347
1.5009342
1.5010769
1.5012754
1.501546
1.501913
1.5024054
1.5030636
1.5039353
1.5050737
1.5065471
1.5084182
1.510718
1.5134109
1.5163582
1.5192929
1.5217532
1.5230896
1.5225375
1.5194023
1.513438
1.5049819
1.494877
1.4845177
1.4753643
1.4690044
1.4660218
1.4664695
1.4714044
1.4793074
1.4905116
1.5038287
1.5190402
1.5357722
1.5528387
1.5705243
1.586685
1.6031759
1.6156424
1.6297134
1.6356973
1.6477405
1.5016981
1.5016836
1.5016666
1.5016486
1.5016292
1.501608
1.5015851
1.5015604
1.501534
1.5015057
1.5014757
1.5014442
1.5014118
1.5013789
1.5013463
1.501315
1.5012865
1.501262
1.5012429
1.5012301
1.5012262
1.5012345
1.5012585
1.501302
1.5013738
1.5014898
1.5016657
1.5019148
1.5022555
1.5027188
1.5033486
1.5041918
1.5052982
1.5067418
1.5085817
1.5108471
1.5135514
1.516617
1.5197794
1.5226055
1.5244725
1.524775
1.5229513
1.5187394
1.5123601
1.5047517
1.4969987
1.4903899
1.4861716
1.4840334
1.4856864
1.4905232
1.4982523
1.5082297
1.5204406
1.5343354
1.549614
1.5651775
1.5814081
1.5961923
1.6114842
1.6229027
1.6362041
1.6415558
1.6533662
1.5017149
1.5016979
1.5016779
1.5016567
1.5016339
1.501609
1.5015821
1.5015531
1.5015221
1.501489
1.5014541
1.5014173
1.5013792
1.50134
1.5013004
1.5012611
1.5012233
1.5011883
1.501158
1.5011344
1.5011205
1.5011211
1.5011431
1.5011911
1.501266
1.5013738
1.5015306
1.5017568
1.5020652
1.5024776
1.5030478
1.5038256
1.5048379
1.5061292
1.507779
1.5098724
1.5124221
1.5153768
1.5185448
1.5215767
1.5240227
1.5252921
1.5248595
1.5224839
1.5184165
1.5134027
1.5081444
1.5041244
1.501405
1.5010002
1.5036881
1.5084351
1.5156344
1.5250467
1.5363787
1.5491225
1.5631542
1.5774045
1.592343
1.6058887
1.6200974
1.6305577
1.6431614
1.6479277
1.6595419
1.5006729
1.5006579
1.5006402
1.5006215
1.5006012
1.5005793
1.5005555
1.5005299
1.5005025
1.5004733
1.5004425
1.5004101
1.5003766
1.5003423
1.5003078
1.5002738
1.5002415
1.5002118
1.5001867
1.500168
1.5001582
1.5001605
1.5001792
1.5002199
1.5002897
1.5003955
1.5005453
1.5007539
1.5010477
1.5014437
1.5019604
1.5026427
1.5035417
1.5047254
1.5062656
1.5082138
1.5106041
1.5134426
1.516634
1.5199206
1.5229076
1.5251037
1.5260546
1.5255258
1.5237409
1.5210167
1.518404
1.5166006
1.5157209
1.5169201
1.5199656
1.5250267
1.5321752
1.5410903
1.5516893
1.5634898
1.5764513
1.5895466
1.6033433
1.6157786
1.6290137
1.6386012
1.6505733
1.6547983
1.6662422
1.4987606
1.4987504
1.4987384
1.4987258
1.4987121
1.4986974
1.4986814
1.4986644
1.4986462
1.4986271
1.498607
1.4985863
1.4985652
1.4985441
1.4985236
1.4985045
1.4984876
1.4984744
1.4984664
1.4984656
1.4984744
1.4984963
1.498535
1.4985948
1.4986807
1.4988
1.4989645
1.4991864
1.4994707
1.4998426
1.5003545
1.5010443
1.5019281
1.5030546
1.5045205
1.5064107
1.5087721
1.5116265
1.5149258
1.5184937
1.5220265
1.5251298
1.5273502
1.5285677
1.5286647
1.5282905
1.5282249
1.5281544
1.5290564
1.5314056
1.5352939
1.5407402
1.5478462
1.5564467
1.566487
1.5774985
1.5895461
1.601635
1.614426
1.6258704
1.638232
1.647027
1.6584279
1.6621554
1.6734653
1.4961516
1.4961467
1.4961411
1.4961352
1.4961289
1.4961223
1.4961153
1.496108
1.4961006
1.4960933
1.4960861
1.4960794
1.4960736
1.4960693
1.496067
1.4960677
1.4960724
1.4960824
1.4960997
1.4961268
1.4961665
1.4962218
1.4962967
1.4963941
1.4965173
1.496678
1.496887
1.4971668
1.4975423
1.4980098
1.4985808
1.4993083
1.5002483
1.5014565
1.5029989
1.5049515
1.5073851
1.5103533
1.5138462
1.5177674
1.5218718
1.5258081
1.5292437
1.5318541
1.5338096
1.5357808
1.5373281
1.5390013
1.5416204
1.545128
1.5497655
1.5556377
1.5628558
1.5712568
1.5808561
1.5912179
1.6024891
1.6137
1.6256098
1.6361651
1.6477464
1.6558224
1.6667195
1.6699707
1.6812354
1.4930605
1.4930597
1.493059
1.4930583
1.4930579
1.4930577
1.493058
1.4930588
1.4930605
1.4930632
1.4930674
1.4930735
1.493082
1.4930937
1.4931095
1.4931305
1.4931584
1.4931948
1.4932421
1.4933033
1.4933817
1.4934803
1.4936035
1.4937565
1.4939519
1.4942093
1.494531
1.4949128
1.4953772
1.4959542
1.4966678
1.4975516
1.4986477
1.5000055
1.5016971
1.5038135
1.5064411
1.5096575
1.5134933
1.5178758
1.5225919
1.5273724
1.5318068
1.5357138
1.539584
1.5430265
1.5461457
1.5497067
1.553626
1.5581863
1.5636058
1.5699482
1.5773273
1.5856183
1.5948857
1.6047127
1.6153249
1.6257716
1.6369084
1.6466683
1.6575603
1.6649768
1.6754396
1.6782336
1.6895012
1.4893992
1.4894012
1.4894038
1.4894068
1.4894106
1.4894152
1.489421
1.4894282
1.4894371
1.4894483
1.489462
1.4894792
1.4895006
1.4895273
1.4895605
1.4896019
1.4896534
1.4897174
1.4897971
1.489896
1.4900181
1.4901697
1.4903582
1.4905913
1.4908778
1.4912254
1.4916462
1.4921554
1.4927706
1.4935128
1.4944078
1.4954849
1.4967834
1.498371
1.5003287
1.5027477
1.5057376
1.5093971
1.5137546
1.5187316
1.5241442
1.5297152
1.5350197
1.5403787
1.5455566
1.5503747
1.5552413
1.5601201
1.5652624
1.5708324
1.5769909
1.5838049
1.591395
1.5996444
1.608661
1.6180476
1.6281002
1.6378809
1.6483403
1.6573895
1.6676751
1.6744815
1.6845802
1.6869363
1.6982433
1.4849035
1.4849083
1.4849143
1.4849212
1.4849293
1.4849389
1.4849505
1.4849643
1.4849809
1.4850009
1.4850251
1.4850544
1.4850899
1.4851331
1.4851856
1.4852495
1.4853276
1.4854227
1.4855387
1.4856802
1.4858526
1.4860635
1.4863196
1.4866289
1.4870028
1.4874534
1.4879952
1.4886454
1.4894219
1.4903446
1.4914399
1.4927518
1.4943377
1.4962632
1.4986221
1.5015298
1.5051023
1.5094243
1.5144749
1.5201848
1.5263634
1.5325926
1.5390653
1.5456419
1.5520352
1.5582608
1.5643733
1.5704955
1.5767416
1.5832227
1.5900816
1.5973616
1.605182
1.6134341
1.6222631
1.6312846
1.6408595
1.6500578
1.6599212
1.6683365
1.6780836
1.684345
1.69412
1.6960741
1.7074497
1.4791798
1.4791889
1.4792001
1.4792126
1.4792271
1.4792441
1.4792639
1.4792872
1.4793145
1.4793469
1.4793851
1.4794305
1.4794845
1.4795489
1.4796259
1.479718
1.4798283
1.4799608
1.4801199
1.4803109
1.4805402
1.4808155
1.4811457
1.4815412
1.4820151
1.4825814
1.483254
1.4840512
1.4849981
1.4861275
1.4874792
1.4891046
1.4910729
1.4934774
1.4964305
1.500051
1.5044344
1.5096116
1.5155271
1.5221066
1.528984
1.5362395
1.5439201
1.551547
1.5590721
1.5664461
1.5737378
1.5809632
1.5881995
1.5955175
1.6030253
1.6107471
1.6188031
1.627085
1.63577
1.644484
1.6536467
1.6623324
1.6716683
1.6795147
1.6887872
1.6945471
1.7040493
1.7056279
1.7170895
1.4718678
1.4718835
1.4719026
1.4719236
1.4719476
1.4719752
1.472007
1.4720438
1.4720864
1.4721359
1.4721935
1.4722608
1.4723396
1.4724321
1.4725407
1.4726687
1.4728197
1.4729983
1.4732097
1.4734594
1.4737552
1.4741071
1.4745244
1.4750175
1.4755998
1.4762889
1.4771085
1.4780839
1.4792476
1.4806428
1.4823269
1.4843759
1.4868856
1.4899698
1.4937464
1.498313
1.5037137
1.5099206
1.5168701
1.5243027
1.5322128
1.5407523
1.5493958
1.5580329
1.5665964
1.5750735
1.5834262
1.5916502
1.5997834
1.6078572
1.6159566
1.6240867
1.6323672
1.6406887
1.6492563
1.6577036
1.6665035
1.6747323
1.6835964
1.6909381
1.6997723
1.7050952
1.7143398
1.7155904
1.7271223
1.4626876
1.4627122
1.4627421
1.4627746
1.4628114
1.4628533
1.4629011
1.4629557
1.4630183
1.4630901
1.4631728
1.463268
1.4633782
1.4635058
1.4636535
1.4638235
1.4640217
1.4642562
1.4645306
1.4648492
1.4652204
1.4656557
1.4661681
1.4667717
1.4674834
1.4683254
1.4693261
1.4705227
1.4719647
1.4737173
1.4758645
1.4785105
1.481775
1.4857805
1.4906244
1.4963565
1.502963
1.510378
1.5184134
1.5269488
1.5362432
1.5458065
1.5554168
1.5650688
1.5746971
1.584204
1.5935414
1.6026764
1.6116179
1.6203702
1.6289989
1.6374936
1.6459746
1.654331
1.6627918
1.6709973
1.6794684
1.6872868
1.6957236
1.7026084
1.7110473
1.7159836
1.7249827
1.7259177
1.7375791
1.4513689
1.4514048
1.4514481
1.451495
1.4515478
1.4516077
1.4516755
1.4517523
1.4518391
1.4519367
1.4520449
1.4521691
1.4523187
1.4524925
1.4526861
1.4529056
1.4531595
1.4534538
1.4537954
1.454192
1.4546524
1.4551879
1.4558136
1.4565485
1.4574167
1.4584501
1.4596909
1.4611954
1.4630376
1.4653121
1.4681343
1.4716326
1.4759358
1.4811458
1.4873072
1.4944223
1.502404
1.5110967
1.5203573
1.5303872
1.5408279
1.551374
1.562073
1.5728141
1.5834712
1.593958
1.6042083
1.6141703
1.6238339
1.6331836
1.6422717
1.6510764
1.6597199
1.6680915
1.676441
1.6844174
1.6925803
1.7000179
1.7080592
1.7145348
1.7226098
1.7272271
1.735965
1.7367977
1.7482805
1.4379268
1.4379769
1.438035
1.438094
1.438158
1.4382361
1.4383333
1.4384416
1.4385549
1.4386797
1.4388225
1.438986
1.4391727
1.4393858
1.4396287
1.4399058
1.4402245
1.4405913
1.4410106
1.4414924
1.4420512
1.442703
1.4434683
1.4443741
1.4454566
1.4467642
1.4483612
1.4503311
1.452779
1.4558298
1.4596205
1.4642825
1.469922
1.4765854
1.4842701
1.4929175
1.5023011
1.5123381
1.5231769
1.5345066
1.5460302
1.557769
1.5696108
1.581411
1.5930665
1.6044778
1.6155672
1.6262711
1.6365674
1.6464284
1.6558979
1.6649483
1.6737031
1.682056
1.6902745
1.698017
1.7058766
1.7129546
1.7206165
1.7267153
1.7344351
1.7387775
1.7472366
1.7478403
1.7591986
1.4224466
1.4225142
1.4225829
1.4226512
1.4227319
1.4228261
1.4229342
1.4230581
1.4232005
1.4233651
1.4235557
1.423774
1.4240176
1.4242844
1.4245794
1.4249122
1.4252913
1.4257244
1.4262212
1.4267943
1.4274602
1.4282402
1.429163
1.4302672
1.4316048
1.4332451
1.4352791
1.437822
1.4410122
1.445004
1.4499518
1.4559794
1.4631644
1.4715117
1.4809395
1.4912368
1.5023352
1.5142173
1.5266307
1.5392513
1.5521107
1.5651
1.578079
1.5909347
1.6035542
1.615833
1.6276884
1.6390506
1.6498914
1.6601769
1.6699478
1.6791734
1.687982
1.6962742
1.7043321
1.7118284
1.7193791
1.7261062
1.7334001
1.7391581
1.7465348
1.7507348
1.7589108
1.7599907
1.7718087
1.4047747
1.404853
1.4049472
1.4050487
1.4051606
1.4052852
1.4054241
1.405579
1.4057518
1.4059448
1.4061606
1.4064022
1.4066735
1.4069786
1.4073231
1.4077136
1.4081585
1.4086684
1.4092571
1.409943
1.4107501
1.4117111
1.4128697
1.4142843
1.4160324
1.4182138
1.4209535
1.4244
1.428718
1.4340726
1.4406022
1.4483909
1.4574613
1.4677047
1.4789852
1.4911948
1.5042457
1.5178384
1.5316424
1.545713
1.5599364
1.5741691
1.5882954
1.6021912
1.6157384
1.6288301
1.641381
1.6533196
1.6646155
1.6752352
1.6852153
1.6945323
1.7033171
1.7114838
1.7193258
1.7265353
1.7337439
1.740103
1.747008
1.7524263
1.7594268
1.76353
1.7711774
1.7734143
1.7822679
1.3866631
1.3867554
1.3868683
1.3869849
1.3871134
1.3872566
1.3874157
1.3875926
1.3877895
1.3880088
1.3882537
1.3885279
1.3888358
1.3891831
1.3895767
1.3900258
1.3905424
1.391142
1.3918457
1.3926815
1.393687
1.3949126
1.3964251
1.3983119
1.4006839
1.4036778
1.4074533
1.412185
1.4180447
1.4251771
1.4336682
1.4435424
1.4546915
1.4669764
1.4803354
1.4944125
1.5090292
1.5239608
1.5392297
1.5546973
1.5702078
1.5856313
1.6008323
1.6156782
1.6300472
1.6438307
1.6569444
1.6693193
1.680927
1.6917381
1.7017921
1.7110754
1.719723
1.7276711
1.7352123
1.7420791
1.7488855
1.7548571
1.7613289
1.7664197
1.7730184
1.7769901
1.784276
1.7866991
1.7950604
1.3703339
1.3704362
1.3705608
1.3706894
1.3708308
1.3709879
1.371162
1.3713552
1.3715698
1.3718088
1.3720758
1.3723754
1.3727131
1.3730965
1.373535
1.3740416
1.3746332
1.3753327
1.3761707
1.3771883
1.3784404
1.3799991
1.3819578
1.3844344
1.3875734
1.3915428
1.3965268
1.4027091
1.410249
1.4192507
1.4297459
1.4416641
1.4548667
1.4692901
1.4843393
1.4999281
1.5160417
1.5325339
1.5492371
1.566002
1.5826928
1.5991655
1.6152809
1.6309045
1.6459146
1.6602064
1.6736997
1.6863322
1.6980793
1.7089205
1.7188991
1.7280188
1.736416
1.7440556
1.7512207
1.7576954
1.764055
1.769628
1.7756355
1.7804314
1.7865714
1.790529
1.7972787
1.8004162
1.8077443
1.3586783
1.3587852
1.3589155
1.3590497
1.3591969
1.3593602
1.359541
1.3597416
1.3599646
1.3602136
1.360493
1.3608083
1.3611671
1.3615791
1.3620577
1.3626206
1.3632915
1.3641024
1.3650963
1.36633
1.3678778
1.3698358
1.3723245
1.3754908
1.3795067
1.3845615
1.3908474
1.3985378
1.4077582
1.4185592
1.4308994
1.4446534
1.4597043
1.475508
1.4919228
1.5091329
1.5267123
1.5445135
1.5624066
1.5802457
1.5978839
1.6151737
1.631971
1.6481415
1.663566
1.6781448
1.6918041
1.7044897
1.7161826
1.7268746
1.7366143
1.7454261
1.7534477
1.7606762
1.7673785
1.7733997
1.7792568
1.7844056
1.789916
1.7944115
1.8000805
1.8039811
1.8102628
1.8136299
1.8205241
1.3533175
1.3534243
1.3535538
1.3536874
1.3538338
1.3539961
1.3541759
1.3543757
1.3545988
1.3548491
1.3551323
1.3554554
1.3558283
1.356264
1.3567802
1.3574006
1.3581573
1.3590929
1.360264
1.3617443
1.3636287
1.366036
1.3691114
1.3730253
1.3779672
1.3841343
1.3917112
1.400844
1.4116115
1.4240038
1.4379187
1.4531995
1.4694901
1.4865601
1.5045259
1.5228949
1.5415513
1.5603495
1.5791352
1.5977553
1.6160543
1.633878
1.6510806
1.6675294
1.6831095
1.6977284
1.7113189
1.7238347
1.7352669
1.7456179
1.7549488
1.7633036
1.7708212
1.7775327
1.7836827
1.7891815
1.7944798
1.7991694
1.8041527
1.808337
1.8135286
1.8173852
1.8232136
1.8269862
1.833458
1.3563705
1.3564721
1.3565938
1.3567209
1.3568601
1.3570145
1.357186
1.3573773
1.3575922
1.3578357
1.3581145
1.3584377
1.3588177
1.3592711
1.3598207
1.3604969
1.3613404
1.3624051
1.3637613
1.3654991
1.3677321
1.3705988
1.3742635
1.3789115
1.3847396
1.39194
1.4006767
1.4110586
1.4231146
1.4367805
1.4519053
1.4682683
1.4856168
1.5038318
1.5225806
1.5417181
1.561075
1.5804901
1.599802