/*--------------------------------*- C++ -*----------------------------------*\
  =========                 |
  \\      /  F ield         | OpenFOAM: The Open Source CFD Toolbox
   \\    /   O peration     | Website:  https://openfoam.org
    \\  /    A nd           | Version:  13
     \\/     M anipulation  |
\*---------------------------------------------------------------------------*/
FoamFile
{
    format      ascii;
    class       volSymmTensorField;
    location    "27.599776";
    object      UPrime2Mean;
}
// * * * * * * * * * * * * * * * * * * * * * * * * * * * * * * * * * * * * * //

dimensions      [0 2 -2 0 0 0 0];

internalField   nonuniform List<symmTensor> 
17140
(
(5.5155225e-12 -3.6173235e-10 -1.4258401e-27 2.5348173e-08 2.5007695e-26 7.7616045e-41)
(3.4534342e-10 -4.4763866e-09 -6.816854e-28 2.4205534e-07 5.6972923e-27 6.8959725e-43)
(3.04265e-09 -1.6583314e-08 1.1319079e-25 7.365263e-07 -6.0918023e-25 3.0062618e-39)
(1.4374662e-08 -4.2770371e-08 -2.4442164e-25 1.5891255e-06 9.469066e-25 3.6332345e-39)
(4.8339671e-08 -9.1501089e-08 4.9330793e-26 2.8967937e-06 -1.4648044e-25 4.9654017e-41)
(1.3307817e-07 -1.7456886e-07 -2.5764721e-25 4.7752425e-06 6.0974412e-25 5.3185975e-40)
(3.2107215e-07 -3.0786787e-07 -6.5771468e-25 7.3610599e-06 1.2697923e-24 1.5075017e-39)
(7.0514515e-07 -5.1216316e-07 4.6936776e-25 1.0813515e-05 -7.5092595e-25 3.5930809e-40)
(1.443157e-06 -8.1372386e-07 2.1861228e-24 1.5315713e-05 -2.9301371e-24 3.8495352e-39)
(2.7952077e-06 -1.2445663e-06 7.4685944e-24 2.1074702e-05 -8.4582869e-24 2.3159308e-38)
(5.1784105e-06 -1.8419218e-06 -1.5164264e-23 2.8319986e-05 1.4607146e-23 5.0925241e-38)
(9.2457031e-06 -2.6463877e-06 1.8251257e-23 3.7299761e-05 -1.5028969e-23 4.0445855e-38)
(1.5996522e-05 -3.698048e-06 3.7305814e-24 4.8274095e-05 -2.6362357e-24 9.4755965e-40)
(2.6928072e-05 -5.0296621e-06 -2.7875616e-23 6.1504178e-05 1.6971832e-23 3.030976e-38)
(4.4235899e-05 -6.6559808e-06 4.0566573e-24 7.7236818e-05 -2.1324086e-24 3.7363595e-40)
(7.1070693e-05 -8.5583682e-06 -4.1783244e-23 9.5683479e-05 1.900786e-23 2.3443914e-38)
(0.00011185373 -1.0664503e-05 2.0048391e-24 0.00011699359 -7.9124364e-25 3.2469738e-41)
(0.0001726456 -1.2824108e-05 -5.8075282e-25 0.00014122247 1.9767204e-25 1.6257011e-42)
(0.00026155123 -1.4783657e-05 -5.2094833e-23 0.00016829523 1.5475173e-23 8.1771713e-39)
(0.00038913164 -1.6165778e-05 8.5350078e-23 0.00019796923 -2.2037354e-23 1.3710425e-38)
(0.00056878283 -1.6462198e-05 -5.1565043e-23 0.00022979938 1.1570631e-23 3.1660763e-39)
(0.00081704292 -1.5051103e-05 1.2209397e-23 0.0002631127 -2.3867788e-24 1.145976e-40)
(0.001153808 -1.12482e-05 1.1098006e-22 0.00029700117 -1.8833333e-23 6.1683288e-39)
(0.0016025132 -4.3940756e-06 -1.3503344e-22 0.00033034641 1.9918289e-23 6.067041e-39)
(0.0021905238 6.0336255e-06 -2.5961165e-22 0.00036189465 3.327624e-23 1.5188569e-38)
(0.0029494712 2.0328954e-05 2.4930297e-22 0.00039040473 -2.7777445e-23 9.6821126e-39)
(0.0039154185 3.8607012e-05 1.4506829e-21 0.00041487762 -1.4031688e-22 2.3054982e-37)
(0.0051322875 6.0741019e-05 2.0086641e-22 0.00043480873 -1.6840053e-23 3.1610345e-39)
(0.0066534341 8.6435523e-05 -2.0479563e-21 0.00045033732 1.4926413e-22 2.4107026e-37)
(0.0085419556 0.00011609048 -5.5371556e-22 0.0004622017 3.4989737e-23 1.3073359e-38)
(0.010874531 0.00014991466 -2.2669594e-21 0.00047142643 1.2427636e-22 1.6562185e-37)
(0.013742175 0.00018764191 3.403174e-21 0.00047879299 -1.6172018e-22 2.8625489e-37)
(0.017252741 0.00022972505 -1.007564e-21 0.00048469123 4.1349705e-23 1.9433108e-38)
(0.021531245 0.0002769063 -5.4327237e-22 0.00048917625 1.9251507e-23 4.4469123e-39)
(0.026720323 0.00033028751 -6.0156673e-21 0.00049206579 1.8243502e-22 4.3155188e-37)
(0.0329794 0.00039121791 2.9533416e-21 0.00049305096 -7.6522045e-23 8.361065e-38)
(0.04048182 0.00046127753 -4.9665926e-21 0.000491807 1.087442e-22 1.9117097e-37)
(0.049408416 0.00054232055 -3.7297292e-21 0.00048807294 6.8407561e-23 8.8187904e-38)
(0.059935612 0.0006364986 -1.8856577e-21 0.00048176326 2.8566774e-23 1.8611156e-38)
(0.072215762 0.00074643064 6.2618969e-21 0.00047317124 -7.7309362e-23 1.7186391e-37)
(0.086348226 0.00087505273 1.2889639e-20 0.0004632114 -1.2621279e-22 6.1419356e-37)
(0.10234199 0.0010253314 1.2669636e-20 0.00045346457 -9.5163516e-23 5.0626418e-37)
(0.12007358 0.0011988976 5.9492948e-21 0.00044582208 -3.2538255e-23 9.6359814e-38)
(0.13925545 0.0013945199 -3.0991222e-20 0.00044185879 1.1141602e-22 2.2733011e-36)
(0.15942978 0.0016059539 -2.4054898e-20 0.00044240431 4.5852359e-23 1.2075691e-36)
(0.17997735 0.0018190115 6.224285e-21 0.00044750296 -2.2417508e-24 7.2275939e-38)
(0.20024179 0.0020163906 -4.4231995e-20 0.00045696668 -4.8021567e-23 3.3027409e-36)
(0.21964472 0.0021858584 -1.5580259e-20 0.00047123836 -3.8193136e-23 3.7593368e-37)
(0.23757083 0.0023187184 1.6329367e-20 0.00049178271 6.1438473e-23 3.8448727e-37)
(0.25380721 0.0024104666 4.079465e-20 0.00051956883 2.0494621e-22 2.2671071e-36)
(0.26812107 0.0024635265 -2.5428156e-20 0.00055570148 -1.5871252e-22 8.4525645e-37)
(0.28032529 0.0024933959 -1.6119374e-20 0.00060238369 -1.1979386e-22 3.3101313e-37)
(0.29012559 0.0025325856 4.1867829e-20 0.00066182696 3.629977e-22 2.2111964e-36)
(0.29744173 0.0026053106 1.9544996e-20 0.00073481572 1.9479731e-22 4.8520626e-37)
(0.30218475 0.0027082588 1.3632628e-20 0.00082310387 1.5459989e-22 2.4222008e-37)
(0.30465522 0.0028274179 -1.0412227e-20 0.00093449529 -1.3318983e-22 1.4706609e-37)
(0.30528109 0.0029511406 2.6933688e-20 0.0010828173 3.856725e-22 1.0536755e-36)
(0.30403338 0.0030605381 2.1405662e-20 0.0012939115 3.3983984e-22 7.2451559e-37)
(0.300668 0.0031192099 5.0355236e-21 0.001601998 8.7276577e-23 4.4882288e-38)
(0.29429554 0.003076534 -1.209111e-20 0.0020359332 -2.2235018e-22 2.9500556e-37)
(0.28377602 0.002896734 -8.6440755e-21 0.0025561147 -1.6206794e-22 1.7924396e-37)
(0.26880428 0.0025469588 -2.8867155e-20 0.0030036861 -5.1357823e-22 2.4391265e-36)
(0.24751248 0.0019343508 -3.7460941e-21 0.0032095779 -5.7314853e-23 5.2269823e-38)
(0.22369634 0.0010789599 2.7597083e-20 0.0032103036 3.022306e-22 3.6915013e-36)
(0.19010171 7.9874328e-05 -1.7979217e-20 0.003264644 -1.2273422e-22 2.2061777e-36)
(2.1788553e-10 -5.1139808e-09 1.8058219e-27 1.2008834e-07 -3.5977544e-26 6.28561e-42)
(3.4197687e-09 -6.1861214e-08 -6.1520345e-25 1.1370173e-06 9.7309887e-24 8.2746123e-38)
(1.5316512e-08 -2.2511623e-07 1.0605869e-24 3.4336598e-06 -1.37695e-23 6.5525982e-38)
(4.7808999e-08 -5.7518001e-07 -4.8350685e-25 7.3472187e-06 5.2375809e-24 4.8698909e-39)
(1.227806e-07 -1.2252776e-06 -1.5472152e-24 1.3269539e-05 1.4205094e-23 2.0781868e-38)
(2.7952967e-07 -2.3373899e-06 4.3674819e-24 2.1647519e-05 -3.4383026e-23 7.5877649e-38)
(5.8583268e-07 -4.1373502e-06 -6.5099231e-24 3.2980325e-05 4.4269254e-23 8.245077e-38)
(1.1548414e-06 -6.932951e-06 7.9987116e-25 4.7811542e-05 -4.7217575e-24 6.3862533e-40)
(2.1707272e-06 -1.113572e-05 -3.4227302e-24 6.6714245e-05 1.7602664e-23 6.224512e-39)
(3.9266599e-06 -1.7285004e-05 -7.8458417e-26 9.026692e-05 3.5243929e-25 1.7782293e-42)
(6.8799631e-06 -2.6072744e-05 -2.0602753e-23 0.00011901825 8.1051843e-23 6.9373056e-38)
(1.1730574e-05 -3.8366055e-05 4.3264246e-23 0.00015343893 -1.4930041e-22 1.7511542e-37)
(1.9530187e-05 -5.5223064e-05 4.6837022e-24 0.00019386013 -1.4198718e-23 1.1941262e-39)
(3.1830288e-05 -7.7895412e-05 -6.0141592e-23 0.00024039973 1.6035365e-22 1.1624005e-37)
(5.0877193e-05 -0.00010780889 2.3866954e-23 0.00029288116 -5.6018736e-23 1.0949769e-38)
(7.9860608e-05 -0.00014651252 1.9466808e-23 0.00035075332 -4.0245743e-23 4.40614e-39)
(0.00012321788 -0.00019558684 -1.5768065e-22 0.0004130259 2.8722556e-22 1.7672883e-37)
(0.00018698906 -0.00025650644 6.51746e-22 0.00047823896 -1.0461831e-21 1.8670736e-36)
(0.00027920713 -0.00033046102 -5.1453809e-22 0.00054448881 7.277388e-22 7.2751802e-37)
(0.00041029616 -0.00041815512 7.7226315e-22 0.00060952974 -9.6206199e-22 1.0362716e-36)
(0.0005934412 -0.00051962891 -1.4188966e-21 0.00067096107 1.5562335e-21 2.2407228e-36)
(0.00084489461 -0.00063416455 4.2936508e-22 0.00072648794 -4.1437353e-22 1.3324921e-37)
(0.0011842016 -0.00076035371 2.1655015e-22 0.00077421711 -1.8378161e-22 2.2354696e-38)
(0.0016343969 -0.00089639379 -8.597737e-22 0.00081292313 6.4114266e-22 2.3582014e-37)
(0.0022224077 -0.0010406428 3.7195158e-21 0.00084221773 -2.4362849e-21 3.0105471e-36)
(0.0029794718 -0.0011922255 6.6253691e-22 0.00086258976 -3.8086207e-22 6.6150037e-38)
(0.0039411612 -0.0013513131 -4.0525922e-21 0.00087528585 2.0459553e-21 1.7561694e-36)
(0.0051508277 -0.0015194941 5.3269358e-21 0.00088190298 -2.3608203e-21 2.1856584e-36)
(0.0066612701 -0.0016994263 -8.4975273e-22 0.00088430303 3.3095284e-22 4.1027595e-38)
(0.0085347349 -0.0018932815 -9.6287392e-21 0.0008847643 3.2907373e-21 3.9080161e-36)
(0.010846896 -0.0021034551 1.1441272e-21 0.00088507232 -3.4345471e-22 4.1932165e-38)
(0.013687463 -0.0023323357 1.0023414e-20 0.00088591583 -2.6380453e-21 2.4603689e-36)
(0.017162627 -0.0025809156 2.9052531e-22 0.0008870957 -6.6687918e-23 1.5622511e-39)
(0.021395297 -0.0028489637 -9.5963156e-21 0.00088785139 1.9372455e-21 1.3782179e-36)
(0.026525444 -0.0031348052 1.2049775e-20 0.00088716583 -2.1258457e-21 1.7280999e-36)
(0.032709057 -0.0034350708 -6.0834955e-21 0.0008839802 9.3611421e-22 3.5335551e-37)
(0.040115023 -0.0037440291 7.9727451e-21 0.00087731911 -1.0689333e-21 4.9410774e-37)
(0.048918342 -0.0040524651 2.8170824e-20 0.0008663728 -3.2818126e-21 5.0455737e-36)
(0.059287804 -0.0043463035 6.976837e-21 0.00085067918 -7.0457418e-22 2.5550435e-37)
(0.07136585 -0.004605125 2.9929893e-20 0.0008304799 -2.6136943e-21 3.9369089e-36)
(0.085239317 -0.0048013356 -4.1807597e-20 0.00080721281 3.1443954e-21 6.5022441e-36)
(0.10090203 -0.0049012171 -4.1774136e-20 0.00078383546 2.6897262e-21 5.5323574e-36)
(0.11821316 -0.0048691813 -7.7294586e-21 0.00076485689 4.2279588e-22 1.6238291e-37)
(0.13686606 -0.0046754049 6.5859271e-20 0.00075612299 -3.0280842e-21 1.037905e-35)
(0.15637918 -0.0043057874 -3.3171704e-20 0.0007643703 1.262437e-21 2.3155006e-36)
(0.17611506 -0.0037742953 -1.21343e-20 0.00079623503 3.7429115e-22 2.7662786e-37)
(0.19537734 -0.0031265475 6.7695501e-21 0.00085654566 -1.6390482e-22 7.880426e-38)
(0.21355385 -0.00242308 2.196372e-20 0.00094509875 -3.9680886e-22 7.5902261e-37)
(0.23017359 -0.0017313638 -1.1053011e-20 0.0010530273 1.37655e-22 1.7949155e-37)
(0.24491578 -0.0010971306 2.0460091e-20 0.0011677808 -1.4769243e-22 5.8195402e-37)
(0.25757233 -0.00051708495 1.2464385e-19 0.0012794563 -2.9497551e-22 2.0793451e-35)
(0.26795935 3.3907999e-05 5.9708736e-21 0.0013856657 1.3683306e-23 4.6760318e-38)
(0.27589948 0.00057182192 -2.6792624e-20 0.0014928493 -1.7779429e-22 9.3469365e-37)
(0.28134932 0.0010910541 5.8808637e-20 0.0016074289 6.4880397e-22 4.554835e-36)
(0.28449857 0.0015543108 -4.9079633e-20 0.0017358931 -7.5943652e-22 3.2681636e-36)
(0.28575453 0.0019299566 1.3479493e-19 0.0018848671 2.6910603e-21 2.5891563e-35)
(0.28560202 0.0022504491 3.6854822e-20 0.0020628735 9.097824e-22 2.0737847e-36)
(0.28420502 0.002557051 -9.8271041e-20 0.0022919282 -2.9014877e-21 1.6199951e-35)
(0.28131972 0.0029104155 1.5662685e-20 0.0026075146 5.4519642e-22 4.6096918e-37)
(0.27599448 0.0033079372 1.6490232e-20 0.0030448046 6.5702704e-22 5.938151e-37)
(0.26681621 0.003718281 3.0075108e-21 0.003561926 1.3403975e-22 2.3714215e-38)
(0.25345914 0.003994857 -3.5907279e-20 0.0040161152 -1.7391966e-21 4.1663923e-36)
(0.23348927 0.0039571675 6.1413543e-20 0.0042207753 3.1243119e-21 1.5791776e-35)
(0.21110241 0.0037221148 1.5970733e-20 0.004282684 8.3437873e-22 1.4152156e-36)
(0.1779334 0.0027532694 2.2005796e-20 0.0044222713 1.2258819e-21 3.9088554e-36)
(1.8094177e-09 -2.58432e-08 2.6446569e-25 3.6911778e-07 -3.5623441e-24 1.9105e-38)
(2.0656598e-08 -2.6848305e-07 -4.276706e-25 3.4923883e-06 5.2649341e-24 7.5590489e-39)
(7.3568968e-08 -8.7955608e-07 -1.9699401e-25 1.0539823e-05 2.2205564e-24 5.3466705e-40)
(1.8726068e-07 -2.0497449e-06 2.8438306e-25 2.2537945e-05 -2.9323651e-24 4.8071622e-40)
(4.0361047e-07 -4.0370918e-06 -1.9747517e-24 4.0675682e-05 1.863782e-23 1.128902e-38)
(7.8916745e-07 -7.1956864e-06 -2.0323794e-25 6.6303387e-05 1.7560172e-24 6.241241e-41)
(1.4478521e-06 -1.2002928e-05 -3.5053792e-24 0.00010092109 2.7695987e-23 1.019133e-38)
(2.5396094e-06 -1.9092339e-05 -5.0155929e-24 0.00014614989 3.6176119e-23 1.1831213e-38)
(4.3077289e-06 -2.9292453e-05 5.3743062e-23 0.00020368014 -3.531604e-22 7.9034596e-37)
(7.118007e-06 -4.366958e-05 -6.2317976e-23 0.00027518992 3.723245e-22 6.3005776e-37)
(1.1514075e-05 -6.3571698e-05 3.8441208e-23 0.00036222694 -2.0839743e-22 1.4428318e-37)
(1.8294269e-05 -9.0668444e-05 7.2178142e-23 0.00046604874 -3.5436253e-22 3.0971408e-37)
(2.8616455e-05 -0.00012697943 -1.8249343e-22 0.0005874195 8.0988994e-22 1.2175406e-36)
(4.4137871e-05 -0.00017487969 -2.8689276e-23 0.00072636865 1.1488013e-22 1.8644314e-38)
(6.7196875e-05 -0.00023706751 1.4007677e-22 0.00088192657 -5.0520912e-22 2.7768959e-37)
(0.00010104217 -0.00031647797 1.2136659e-22 0.0010518684 -3.9355868e-22 1.3102443e-37)
(0.0001501114 -0.00041612612 -1.7671292e-22 0.0012325142 5.1429399e-22 1.7578084e-37)
(0.0002203552 -0.00053887019 8.0010534e-22 0.0014186528 -2.0861135e-21 2.2958242e-36)
(0.00031959389 -0.00068710107 -5.8884758e-22 0.0016036672 1.3729375e-21 7.9853869e-37)
(0.00045788485 -0.0008623909 3.6093884e-22 0.0017799352 -7.5113562e-22 1.9416847e-37)
(0.00064787123 -0.0010651715 -1.4997536e-21 0.0019395443 2.7806895e-21 2.1928987e-36)
(0.00090508482 -0.0012945538 -4.7775705e-22 0.0020752862 7.8773653e-22 1.4715626e-37)
(0.0012481904 -0.001548422 1.2120065e-21 0.0021817918 -1.7740839e-21 6.3465007e-37)
(0.0016992127 -0.0018239233 -2.2017314e-21 0.002256554 2.8562317e-21 1.4230293e-36)
(0.0022839594 -0.0021184245 -1.0386623e-21 0.0023005274 1.1922663e-21 2.1831981e-37)
(0.0030326027 -0.0024306551 1.4794116e-21 0.0023180705 -1.5015139e-21 3.1201428e-37)
(0.0039794405 -0.0027612032 9.9006932e-21 0.0023160664 -8.8725324e-21 9.9693112e-36)
(0.0051663132 -0.0031132706 5.2375663e-21 0.002301876 -4.1416326e-21 2.0254811e-36)
(0.0066444162 -0.0034919987 -3.0261794e-21 0.0022820464 2.1118249e-21 5.0195688e-37)
(0.0084737789 -0.0039021875 3.7424788e-21 0.0022623905 -2.3010494e-21 5.7296399e-37)
(0.010727356 -0.0043488197 -2.6721513e-21 0.002246731 1.4485614e-21 2.2430023e-37)
(0.013491323 -0.0048363812 -1.7295239e-20 0.0022360787 8.2454822e-21 7.2107971e-36)
(0.016867439 -0.0053672489 6.5727892e-21 0.0022293693 -2.7543704e-21 8.1327305e-37)
(0.02097304 -0.0059415925 2.2189529e-20 0.0022243679 -8.1622015e-21 7.3090072e-36)
(0.025941092 -0.0065570122 -8.315737e-21 0.0022183671 2.6834068e-21 8.2303457e-37)
(0.031918696 -0.0072079017 -1.3076007e-20 0.0022085519 3.6934059e-21 1.6340211e-36)
(0.039063379 -0.0078840994 2.5299678e-20 0.0021920707 -6.249298e-21 4.9756507e-36)
(0.047535521 -0.0085687408 8.5952008e-21 0.0021660781 -1.853676e-21 4.7038235e-37)
(0.057485108 -0.0092355461 -1.6876503e-20 0.0021279883 3.1750871e-21 1.5120911e-36)
(0.069030683 -0.0098461084 -7.4399466e-21 0.0020762004 1.218112e-21 2.4690107e-37)
(0.082229438 -0.010348203 3.9196456e-20 0.002011242 -5.5645268e-21 5.785972e-36)
(0.097039729 -0.010677639 -1.2041283e-20 0.0019373703 1.4753189e-21 4.7102917e-37)
(0.11328061 -0.010765625 -1.8890082e-20 0.001864243 1.9875031e-21 9.9866967e-37)
(0.13060265 -0.010552589 -5.4270086e-20 0.0018082832 4.8585265e-21 7.1885893e-36)
(0.14847999 -0.010007032 1.1003623e-19 0.0017924548 -8.2757204e-21 2.6210023e-35)
(0.16624516 -0.009149649 -7.5448677e-20 0.0018430577 4.6865719e-21 1.1046728e-35)
(0.18321478 -0.0080687347 -2.003778e-20 0.0019808184 1.0066074e-21 7.0507673e-37)
(0.19880358 -0.0068878577 -8.2400759e-20 0.002205683 3.2261026e-21 1.1069428e-35)
(0.21259015 -0.0057206983 -1.0197269e-19 0.0024885089 2.9685181e-21 1.5903539e-35)
(0.22433355 -0.0046499017 -5.3113138e-21 0.0027856017 1.0846059e-22 4.0854781e-38)
(0.23394225 -0.0036879151 2.2781112e-20 0.0030599839 -2.5903263e-22 7.2929488e-37)
(0.24135123 -0.0028013016 -1.6798633e-19 0.0033018095 4.9597818e-22 3.9192286e-35)
(0.24652583 -0.0019732607 -7.1227229e-20 0.0035297603 -3.4187813e-22 7.0577502e-36)
(0.24955566 -0.0012386005 -7.2086786e-20 0.0037672572 -8.961965e-22 7.3696507e-36)
(0.25082081 -0.00066364307 -2.3090808e-20 0.0040269226 -4.6930392e-22 7.8546686e-37)
(0.25084329 -0.00028249726 -1.7213118e-19 0.0043065803 -4.8055899e-21 4.6316888e-35)
(0.25022096 -1.9602902e-05 6.5276534e-20 0.0045944428 2.369994e-21 7.2079039e-36)
(0.2491395 0.00025798953 -1.868472e-20 0.0048921402 -8.3680348e-22 6.5885763e-37)
(0.24717629 0.00074023441 -1.4312201e-19 0.0052190231 -7.7681022e-21 4.3860527e-35)
(0.24329562 0.0014789309 -5.228532e-20 0.0056052696 -3.3653544e-21 6.8741043e-36)
(0.2356347 0.0024342495 5.6169383e-20 0.0060089453 4.1816636e-21 9.6993456e-36)
(0.22395294 0.0033721066 1.7170916e-19 0.0063019378 1.4434747e-20 1.1450211e-34)
(0.20512018 0.0039521761 -4.7475571e-20 0.006298296 -4.405652e-21 1.1678904e-35)
(0.18497012 0.0044247112 -6.5440878e-20 0.0062330643 -6.6755306e-21 3.0346347e-35)
(0.15312783 0.0036680788 -2.2733488e-20 0.0062166856 -2.6374061e-21 5.5674328e-36)
(7.1882074e-09 -7.308442e-08 -1.7342811e-24 7.4307215e-07 1.7123068e-23 2.1426228e-37)
(7.4298552e-08 -7.2283986e-07 5.7541754e-24 7.0331055e-06 -5.437654e-23 3.9296129e-37)
(2.4356009e-07 -2.2737254e-06 -3.4454516e-24 2.1232657e-05 3.1105619e-23 5.1379147e-38)
(5.6996752e-07 -5.0863944e-06 5.4639208e-25 4.5420848e-05 -4.7019658e-24 6.0725821e-40)
(1.1319693e-06 -9.6294873e-06 -1.4874818e-23 8.2010438e-05 1.2182472e-22 2.3736421e-37)
(2.0434585e-06 -1.6517322e-05 2.0507955e-23 0.00013374853 -1.5955992e-22 2.5415353e-37)
(3.4685649e-06 -2.654629e-05 -4.0561163e-23 0.0002036958 2.9903656e-22 5.8493333e-37)
(5.6423087e-06 -4.0737324e-05 2.4497081e-23 0.0002951722 -1.7061793e-22 1.2952132e-37)
(8.8996267e-06 -6.0384991e-05 1.1825718e-22 0.00041165619 -7.7556248e-22 1.8728016e-36)
(1.3715322e-05 -8.7110032e-05 -3.5805695e-23 0.00055662342 2.2036627e-22 1.083211e-37)
(2.0758522e-05 -0.00012291153 -1.7075455e-22 0.00073331073 9.8283675e-22 1.5718947e-36)
(3.0965951e-05 -0.00017021192 6.4980751e-23 0.00094439325 -3.4859055e-22 1.4656975e-37)
(4.5639143e-05 -0.00023188505 5.3911726e-24 0.0011915693 -2.6862356e-23 6.5516492e-40)
(6.6571002e-05 -0.00031125263 -2.6196915e-22 0.0014750605 1.208291e-21 1.0043411e-36)
(9.6207179e-05 -0.00041203138 1.0139163e-21 0.0017930559 -4.3142476e-21 9.8316751e-36)
(0.00013784637 -0.00053820985 -7.6867691e-22 0.0021411599 3.0071812e-21 3.7050103e-36)
(0.00019588143 -0.00069383582 -9.031354e-24 0.0025119396 3.2374876e-23 3.3617249e-40)
(0.00027607847 -0.00088270304 6.4468226e-22 0.0028947119 -2.1105247e-21 1.131769e-36)
(0.00038588563 -0.0011079473 -2.0088225e-21 0.0032757408 5.9856019e-21 7.2874228e-36)
(0.00053475611 -0.001371593 1.1596917e-21 0.0036390077 -3.1345901e-21 1.6199865e-36)
(0.00073446671 -0.001674145 2.1077288e-21 0.0039676667 -5.1509896e-21 3.5938612e-36)
(0.00099941445 -0.0020143674 1.0356569e-21 0.004246147 -2.2809726e-21 5.8743689e-37)
(0.0013468868 -0.0023894264 -6.1794879e-21 0.0044626362 1.2228451e-20 1.4328945e-35)
(0.0017973328 -0.002795555 -3.8739613e-21 0.0046114296 6.8675163e-21 3.9008864e-36)
(0.0023748102 -0.0032293385 2.9805919e-21 0.004694429 -4.7214584e-21 1.6249766e-36)
(0.0031077577 -0.0036893896 -2.0593818e-21 0.0047211759 2.9072767e-21 5.5188796e-37)
(0.0040285513 -0.0041769739 9.058021e-21 0.0047070973 -1.1377018e-20 7.7452445e-36)
(0.0051766262 -0.0046972 -3.0360432e-21 0.0046692182 3.3865007e-21 6.3974243e-37)
(0.0066004722 -0.0052577306 9.4793842e-21 0.0046216706 -9.3783235e-21 4.6614379e-36)
(0.0083567621 -0.005866101 -6.1688191e-21 0.0045759781 5.4059308e-21 1.4969353e-36)
(0.010514092 -0.0065298542 4.3766547e-21 0.0045396533 -3.3912713e-21 5.7711593e-37)
(0.013153033 -0.0072554478 -1.828364e-20 0.00451471 1.2514344e-20 7.8417046e-36)
(0.01636836 -0.0080464989 2.9762309e-21 0.0044990742 -1.7970406e-21 1.6375113e-37)
(0.020268639 -0.0089033315 -1.776434e-20 0.0044884025 9.4447472e-21 4.6188516e-36)
(0.024975857 -0.0098224997 1.9127406e-20 0.0044773833 -8.9472419e-21 4.3009896e-36)
(0.030623335 -0.010795756 6.8775386e-21 0.0044603192 -2.8257807e-21 4.4763307e-37)
(0.03735115 -0.011808047 -9.543504e-20 0.0044311374 3.4433666e-20 7.1002833e-35)
(0.045297572 -0.012834386 -2.7681289e-20 0.0043833249 8.7552478e-21 4.9256436e-36)
(0.054584709 -0.013835961 2.534291e-20 0.0043102976 -7.0167476e-21 3.4505693e-36)
(0.065296511 -0.014756313 -2.7382824e-20 0.0042066573 6.6223861e-21 3.3932116e-36)
(0.077448735 -0.015519305 7.7246308e-21 0.0040705813 -1.6260739e-21 2.2852154e-37)
(0.09095277 -0.016032045 5.2482804e-20 0.003907576 -9.5909035e-21 9.1137035e-36)
(0.10557869 -0.01619597 -2.6254905e-21 0.0037352794 4.1449498e-22 1.9971263e-38)
(0.12093124 -0.015927587 -2.0491561e-20 0.0035875518 2.7632795e-21 1.0553484e-36)
(0.13645052 -0.015188026 1.0585355e-20 0.003514855 -1.1992069e-21 2.5382146e-37)
(0.15147528 -0.014020795 -5.7287804e-21 0.0035768832 5.4469707e-22 6.3957845e-38)
(0.16538961 -0.012568416 -1.7103662e-20 0.0038199289 1.3229574e-21 5.3735947e-37)
(0.17769728 -0.011022866 2.7291224e-19 0.004242263 -1.6738694e-20 1.2828175e-34)
(0.18812708 -0.0095555901 -3.1456237e-20 0.0047783421 1.4497571e-21 1.6092093e-36)
(0.19660881 -0.0082706603 2.9649024e-20 0.0053315009 -9.7963438e-22 1.3722006e-36)
(0.20318583 -0.0071665279 -2.8147319e-19 0.0058234887 5.7902558e-21 1.2067247e-34)
(0.207889 -0.0061879904 1.5412414e-19 0.0062376251 -1.3752672e-21 3.592773e-35)
(0.21077817 -0.005322369 1.2550973e-19 0.0066175209 3.2259992e-22 2.4050932e-35)
(0.21205702 -0.0046344291 1.1724214e-19 0.0070155219 1.6049064e-21 2.1610638e-35)
(0.21222127 -0.0042118434 1.0931572e-19 0.0074547398 2.7167393e-21 1.9723162e-35)
(0.21187334 -0.0040700433 1.642738e-19 0.0079174576 5.9666857e-21 4.7768983e-35)
(0.21156233 -0.0040601271 -3.1111288e-19 0.0083578338 -1.5122165e-20 1.8774112e-34)
(0.21132494 -0.003941163 1.7926031e-19 0.0087408837 1.1065237e-20 7.0043517e-35)
(0.21041279 -0.0033989127 2.5105602e-19 0.0090558961 1.9103223e-20 1.5914324e-34)
(0.2076008 -0.0023082239 -1.6763396e-19 0.0093211534 -1.5447078e-20 8.4860739e-35)
(0.20060007 -0.00075077486 -4.7722007e-20 0.0094991414 -5.1937492e-21 8.5893827e-36)
(0.18951852 0.00095959872 -3.6408263e-20 0.0094695081 -4.5703915e-21 6.5146997e-36)
(0.17055905 0.0021781088 1.5819778e-19 0.0091089274 2.2739e-20 1.687667e-34)
(0.15126477 0.0033046368 9.7474285e-20 0.0087239897 1.5950396e-20 9.107929e-35)
(0.12095444 0.0029098562 -3.3384261e-21 0.0083735454 -6.4644265e-22 1.7681262e-37)
(1.9372873e-08 -1.5194721e-07 2.0213245e-24 1.1917688e-06 -1.5578959e-23 1.0623398e-37)
(1.921776e-07 -1.4728295e-06 -1.3691044e-23 1.1287858e-05 1.0301394e-22 8.4831649e-37)
(6.0742145e-07 -4.5509838e-06 1.8080104e-23 3.4099681e-05 -1.3252417e-22 5.6393389e-37)
(1.366963e-06 -9.9885896e-06 -9.7520188e-24 7.2999034e-05 6.9521402e-23 8.055763e-38)
(2.6076066e-06 -1.8544062e-05 -4.7502614e-24 0.00013191259 3.2888316e-23 1.0517327e-38)
(4.5152381e-06 -3.1174357e-05 5.3366041e-23 0.00021533096 -3.5822226e-22 7.7909889e-37)
(7.3415852e-06 -4.9076723e-05 -1.7266098e-23 0.00032828498 1.1211779e-22 5.0006382e-38)
(1.1426387e-05 -7.3734951e-05 -4.6122364e-23 0.00047626993 2.8896059e-22 2.2560907e-37)
(1.7227229e-05 -0.0001069704 -4.4008317e-24 0.00066509673 2.6523543e-23 1.3292586e-39)
(2.5358829e-05 -0.0001509935 -4.6138477e-23 0.00090064711 2.6666714e-22 9.6022132e-38)
(3.6644507e-05 -0.00020845082 7.9261997e-23 0.0011885072 -4.3786507e-22 1.885064e-37)
(5.2182885e-05 -0.00028245966 -6.7304688e-23 0.0015334575 3.5414923e-22 9.1186721e-38)
(7.3433539e-05 -0.00037661907 -3.0219538e-22 0.0019388053 1.5091606e-21 1.2400153e-36)
(0.00010232527 -0.00049498161 -1.0690371e-23 0.0024055661 5.0481955e-23 1.0486714e-39)
(0.00014139086 -0.00064196722 3.4112277e-22 0.0029315278 -1.5172738e-21 7.2703974e-37)
(0.00019393127 -0.00082219884 2.9318296e-22 0.0035102905 -1.2234463e-21 3.6544946e-37)
(0.00026421092 -0.001040241 -3.0585806e-22 0.0041304238 1.1925635e-21 2.7109777e-37)
(0.00035768342 -0.0013002349 3.5481488e-23 0.0047749742 -1.2872239e-22 2.50142e-39)
(0.00048124375 -0.0016054429 8.7302512e-22 0.0054215997 -2.9342905e-21 1.0338038e-36)
(0.0006435001 -0.0019577564 1.2837968e-21 0.0060436461 -3.9801789e-21 1.5362483e-36)
(0.00085505739 -0.0023572703 -1.7630484e-21 0.0066123847 5.0199463e-21 2.0020375e-36)
(0.0011288068 -0.0028020881 -2.126497e-21 0.0071004405 5.536564e-21 2.0261367e-36)
(0.0014802264 -0.0032885549 3.414129e-21 0.0074860468 -8.0938032e-21 3.664441e-36)
(0.0019277109 -0.0038120926 -5.0147068e-21 0.0077573109 1.0780497e-20 5.6018288e-36)
(0.0024930492 -0.0043687363 -1.0251957e-20 0.0079152729 1.9908961e-20 1.6781704e-35)
(0.003202275 -0.0049572218 2.8302218e-20 0.0079745201 -4.9477318e-20 9.2965527e-35)
(0.0040855485 -0.0055800008 -1.8128094e-20 0.0079607827 2.8439739e-20 2.809913e-35)
(0.0051789896 -0.006244212 3.10451e-20 0.007904355 -4.3588116e-20 6.1534858e-35)
(0.0065271565 -0.0069600486 -4.4532618e-20 0.0078301328 5.5829384e-20 9.5912985e-35)
(0.0081828898 -0.0077382918 5.6767451e-20 0.0077578295 -6.3406501e-20 1.1951067e-34)
(0.01020879 -0.0085888434 -6.6678473e-20 0.0077005812 6.6215143e-20 1.2799864e-34)
(0.012678138 -0.009519929 1.2679775e-20 0.0076625043 -1.1175154e-20 3.6400655e-36)
(0.015676516 -0.010536207 4.935524e-20 0.007640648 -3.85319e-20 4.3670448e-35)
(0.019301072 -0.01163782 -3.1221092e-20 0.007628008 2.1562021e-20 1.4004147e-35)
(0.023659578 -0.012819847 1.090614e-20 0.0076156984 -6.6541857e-21 1.3834798e-36)
(0.028867691 -0.01407092 3.5340138e-21 0.0075938987 -1.9034466e-21 1.1929974e-37)
(0.03504351 -0.015370598 4.8505265e-20 0.0075518229 -2.3015562e-20 1.8378949e-35)
(0.042298014 -0.016685393 1.7490723e-20 0.0074775179 -7.3054866e-21 1.9803484e-36)
(0.050719891 -0.017963923 1.943124e-20 0.0073583894 -7.1295569e-21 2.045137e-36)
(0.060353327 -0.019132405 2.0986401e-20 0.007183252 -6.7548739e-21 2.0316491e-36)
(0.071169069 -0.020092768 -1.1647944e-19 0.006946466 3.2775526e-20 5.3572184e-35)
(0.08303144 -0.020727355 5.5369879e-20 0.006654989 -1.3566178e-20 1.0466151e-35)
(0.095667912 -0.020914419 9.5601004e-21 0.0063376417 -2.0319114e-21 2.6823285e-37)
(0.10865435 -0.020557035 -1.1706875e-19 0.006053382 2.1329248e-20 3.6100501e-35)
(0.12143332 -0.019625536 -6.3017372e-20 0.0058925349 9.7614012e-21 9.3462471e-36)
(0.13341188 -0.018208538 3.2533978e-20 0.00596194 -4.2288261e-21 2.2713709e-36)
(0.14411122 -0.016521006 1.235435e-19 0.0063392494 -1.3151534e-20 3.008589e-35)
(0.15322001 -0.014818726 -5.5461591e-20 0.0070096789 4.7515391e-21 5.6955665e-36)
(0.16065685 -0.013309182 1.6608633e-19 0.0078513247 -1.0850822e-20 4.851456e-35)
(0.16649881 -0.012081916 9.1584912e-20 0.0086912962 -4.3524115e-21 1.427468e-35)
(0.17084728 -0.011090183 1.2695275e-19 0.0094016931 -3.9827112e-21 2.6992837e-35)
(0.17374803 -0.010246167 3.3926438e-19 0.0099701918 -5.164474e-21 1.9296381e-34)
(0.17528832 -0.0095496646 -2.5819655e-19 0.010484564 4.5177219e-23 1.1404432e-34)
(0.17573785 -0.0091050231 8.2092881e-20 0.011038235 1.2973395e-21 1.1971364e-35)
(0.17565746 -0.0090158183 -1.35758e-19 0.011664339 -4.0605705e-21 3.4816545e-35)
(0.17564574 -0.0092588418 -1.2277949e-19 0.012321517 -5.6370278e-21 3.0913524e-35)
(0.17607955 -0.0095882553 -4.5136681e-20 0.012916251 -2.8516097e-21 4.6531231e-36)
(0.17672274 -0.0096382051 -3.8170452e-19 0.013363062 -3.0682901e-20 3.7970658e-34)
(0.17643036 -0.0089877353 -9.3876157e-20 0.013612969 -9.4502141e-21 2.7091206e-35)
(0.17380275 -0.007456076 1.9317564e-19 0.01366212 2.3941653e-20 1.4020227e-34)
(0.16623593 -0.005230269 6.4300925e-20 0.013506868 9.6464675e-21 1.99197e-35)
(0.15451138 -0.0026762993 -4.1430653e-20 0.012999406 -7.3144815e-21 1.1098944e-35)
(0.13472761 -0.00076362258 -7.1592148e-20 0.012189143 -1.4752552e-20 4.7449021e-35)
(0.11521976 0.00084493721 -9.1623381e-20 0.011342489 -2.2214315e-20 1.1505537e-34)
(0.087539459 0.00080199265 5.2954736e-21 0.010527044 1.5546978e-21 6.6917706e-37)
(4.0915864e-08 -2.5987992e-07 9.1650842e-24 1.6506461e-06 -5.7537758e-23 9.8624828e-37)
(3.9778542e-07 -2.4949662e-06 6.5150985e-24 1.5648894e-05 -4.0327652e-23 8.9001282e-38)
(1.2342559e-06 -7.6418706e-06 -8.4308463e-24 4.7315601e-05 5.1358552e-23 5.8366916e-38)
(2.7216306e-06 -1.6611211e-05 -4.3863744e-23 0.00010139023 2.6271716e-22 7.9602722e-37)
(5.0807865e-06 -3.0525684e-05 3.2010225e-23 0.00018341785 -1.8830378e-22 2.390506e-37)
(8.5974152e-06 -5.076314e-05 -5.9441853e-23 0.00029977669 3.430086e-22 4.9547059e-37)
(1.3640107e-05 -7.9000395e-05 3.2468763e-23 0.0004576637 -1.8348375e-22 9.2816989e-38)
(2.0682863e-05 -0.00011725805 9.6102083e-24 0.00066501154 -5.3077817e-23 5.2693526e-39)
(3.033399e-05 -0.00016794596 -6.6811705e-23 0.00093030896 3.5982531e-22 1.6897988e-37)
(4.3372317e-05 -0.00023390365 -1.7536826e-22 0.0012622896 9.1867049e-22 7.8580858e-37)
(6.0792564e-05 -0.00031842957 -1.0666094e-23 0.0016694525 5.4201688e-23 1.9828424e-39)
(8.3861715e-05 -0.00042529011 4.2062282e-22 0.0021593764 -2.0672887e-21 2.1312287e-36)
(0.00011418856 -0.00055869634 -6.9928824e-22 0.0027378026 3.3136759e-21 4.0883586e-36)
(0.0001538088 -0.00072323339 1.3541923e-21 0.0034074773 -6.1661608e-21 1.0689717e-35)
(0.00020528795 -0.00092372563 -4.2391814e-22 0.0041667948 1.8481395e-21 7.325227e-37)
(0.00027184453 -0.0011650202 1.07809e-21 0.0050083346 -4.4829361e-21 3.3193398e-36)
(0.00035749521 -0.0014516774 -1.559014e-21 0.005917496 6.1580265e-21 4.8732116e-36)
(0.00046722383 -0.0017875681 1.2103423e-21 0.0068715233 -4.5217986e-21 2.065236e-36)
(0.00060717529 -0.0021754024 -2.2832675e-22 0.0078393447 8.031496e-22 5.1825728e-38)
(0.00078487597 -0.0026162526 -1.1046306e-21 0.0087827023 3.6411319e-21 8.5712648e-37)
(0.0010094835 -0.0031091848 3.1959676e-21 0.00965899 -9.8236421e-21 5.0918438e-36)
(0.0012920715 -0.0036511635 -5.3535556e-21 0.010425971 1.5268329e-20 1.0199996e-35)