/*--------------------------------*- C++ -*----------------------------------*\
  =========                 |
  \\      /  F ield         | OpenFOAM: The Open Source CFD Toolbox
   \\    /   O peration     | Website:  https://openfoam.org
    \\  /    A nd           | Version:  13
     \\/     M anipulation  |
\*---------------------------------------------------------------------------*/
FoamFile
{
    format      ascii;
    class       volSymmTensorField;
    location    "10.204071";
    object      UPrime2Mean;
}
// * * * * * * * * * * * * * * * * * * * * * * * * * * * * * * * * * * * * * //

dimensions      [0 2 -2 0 0 0 0];

internalField   nonuniform List<symmTensor> 
17140
(
(1.3748472e-12 -5.9206264e-11 -4.2505556e-27 2.791566e-09 8.1774267e-26 2.098424e-40)
(2.2731557e-10 -2.1171187e-09 -2.382579e-27 2.6449382e-08 1.9072295e-26 1.8645406e-42)
(2.0632412e-09 -1.0858839e-08 4.1461707e-25 7.9967218e-08 -2.0652057e-24 8.1283602e-39)
(9.7253455e-09 -3.4114984e-08 -9.215432e-25 1.7116092e-07 3.2279935e-24 9.8235725e-39)
(3.2530492e-08 -8.3245301e-08 1.8929843e-25 3.0893932e-07 -5.002133e-25 1.3425494e-40)
(8.9081824e-08 -1.7487391e-07 -1.0001904e-24 5.0327786e-07 2.0806995e-24 1.4380463e-39)
(2.1385348e-07 -3.3247023e-07 -2.5719869e-24 7.6507738e-07 4.3237099e-24 4.0759921e-39)
(4.6741947e-07 -5.8823206e-07 1.8435778e-24 1.1059501e-06 -2.5490801e-24 9.7149859e-40)
(9.5208951e-07 -9.8529358e-07 8.6012981e-24 1.5378391e-06 -9.9073539e-24 1.0408381e-38)
(1.8352218e-06 -1.5801128e-06 2.9383452e-23 2.0724717e-06 -2.8465788e-23 6.2618128e-38)
(3.3831819e-06 -2.4448581e-06 -5.9571708e-23 2.7206003e-06 4.8894511e-23 1.3769148e-37)
(6.0096895e-06 -3.669508e-06 7.1494634e-23 3.4910234e-06 -4.999541e-23 1.093572e-37)
(1.0343064e-05 -5.3632658e-06 1.4551627e-23 4.3893802e-06 -8.7078563e-24 2.5620008e-39)
(1.7317296e-05 -7.6547235e-06 -1.0823903e-22 5.4167899e-06 5.5617053e-23 8.1950969e-38)
(2.8291949e-05 -1.0690161e-05 1.5658327e-23 6.5684352e-06 -6.9259502e-24 1.0102274e-39)
(4.5205211e-05 -1.4629378e-05 -1.6024212e-22 7.8322502e-06 6.1121452e-23 6.3386851e-38)
(7.0762571e-05 -1.9638671e-05 7.6431897e-24 9.1879596e-06 -2.5170876e-24 8.7790101e-41)
(0.00010866103 -2.5881256e-05 -2.1806684e-24 1.0606848e-05 6.2030025e-25 4.3955071e-42)
(0.00016384492 -3.3506349e-05 -1.9517629e-22 1.2052625e-05 4.7982118e-23 2.210885e-38)
(0.00024278882 -4.2639599e-05 3.1713989e-22 1.3483612e-05 -6.7360386e-23 3.706902e-38)
(0.00035380473 -5.3379228e-05 -1.8989132e-22 1.4856486e-05 3.483017e-23 8.5600961e-39)
(0.00050738142 -6.580316e-05 4.4648293e-23 1.6131334e-05 -7.0681954e-24 3.098335e-40)
(0.00071658912 -7.9992342e-05 4.019425e-22 1.7277506e-05 -5.4870031e-23 1.6676971e-38)
(0.00099764343 -9.6070858e-05 -4.848842e-22 1.827918e-05 5.7038761e-23 1.6402979e-38)
(0.001370861 -0.00011425919 -9.2494135e-22 1.9139158e-05 9.3699009e-23 4.1063731e-38)
(0.0018615303 -0.00013494217 8.8211085e-22 1.9880014e-05 -7.6925877e-23 2.6176228e-38)
(0.0025012086 -0.00015865436 5.0954072e-21 2.0542132e-05 -3.8249948e-22 6.2330106e-37)
(0.0033324659 -0.00018601403 7.0006365e-22 2.1174029e-05 -4.5235638e-23 8.5459317e-39)
(0.0044097274 -0.00021783615 -7.1050273e-21 2.1804936e-05 3.9516463e-22 6.5173241e-37)
(0.0058013468 -0.00025493444 -1.908858e-21 2.2462668e-05 9.1321095e-23 3.5343566e-38)
(0.0075972337 -0.00029800838 -7.7762379e-21 2.3161222e-05 3.1951446e-22 4.4775241e-37)
(0.0099104012 -0.00034769064 1.1620173e-20 2.3894664e-05 -4.0899187e-22 7.7387473e-37)
(0.012882672 -0.00040437754 -3.4214409e-21 2.4643952e-05 1.0275674e-22 5.2536233e-38)
(0.016689119 -0.00046818968 -1.8379473e-21 2.5381531e-05 4.6850674e-23 1.2021899e-38)
(0.021542633 -0.0005388178 -2.0238789e-20 2.6071219e-05 4.3485177e-22 1.1666684e-36)
(0.027697705 -0.00061540911 9.8994974e-21 2.6672924e-05 -1.7762923e-22 2.2603447e-37)
(0.035452018 -0.00069635824 -1.6559747e-20 2.7142999e-05 2.4520033e-22 5.1681554e-37)
(0.04514466 -0.00077899969 -1.2376759e-20 2.7433284e-05 1.4875677e-22 2.3840915e-37)
(0.057148798 -0.0008594259 -6.2253322e-21 2.7501949e-05 5.9338265e-23 5.0313898e-38)
(0.071855334 -0.00093181021 2.0591442e-20 2.7306111e-05 -1.5017214e-22 4.6462121e-37)
(0.08964554 -0.00098851124 4.2158214e-20 2.6836033e-05 -2.2219022e-22 1.6604294e-36)
(0.11085092 -0.0010193115 4.1208473e-20 2.6113152e-05 -1.4095913e-22 1.3686518e-36)
(0.13570038 -0.0010125318 1.9234046e-20 2.5245876e-05 -3.2843735e-23 2.6050263e-37)
(0.16426701 -0.00095549827 -9.9351505e-20 2.4433241e-05 1.0831747e-23 6.145743e-36)
(0.19643914 -0.00083691851 -7.6418465e-20 2.3983592e-05 -1.0813534e-22 3.2645995e-36)
(0.23188772 -0.0006515697 1.9568439e-20 2.4223903e-05 5.628937e-23 1.9539411e-37)
(0.27013659 -0.00039746812 -1.3728083e-19 2.5337881e-05 -5.8812206e-22 8.9287799e-36)
(0.31056952 -6.732376e-05 -4.7610693e-20 2.7263341e-05 -2.6889563e-22 1.0163132e-36)
(0.35209013 0.00035018271 4.8978588e-20 2.961522e-05 3.4202402e-22 1.0394323e-36)
(0.393662 0.00086141034 1.196625e-19 3.2130946e-05 9.9122993e-22 6.1289097e-36)
(0.43331735 0.0014643816 -7.2635991e-20 3.5015529e-05 -6.9302443e-22 2.2850487e-36)
(0.4682311 0.0021771154 -4.4604586e-20 3.9226783e-05 -4.8166454e-22 8.9484212e-37)
(0.49463608 0.0030303077 1.1154636e-19 4.499151e-05 1.3574118e-21 5.9775561e-36)
(0.50762804 0.0039286248 4.9719319e-20 5.3357877e-05 6.768629e-22 1.3116448e-36)
(0.50453043 0.0047565922 3.2802571e-20 6.4389057e-05 4.9681135e-22 6.5477604e-37)
(0.48130566 0.00547723 -2.3414367e-20 7.804292e-05 -3.9490463e-22 3.9754883e-37)
(0.43676635 0.0059437089 5.5686671e-20 9.2631262e-05 1.0487902e-21 2.848237e-36)
(0.37235595 0.0060005926 4.0009495e-20 0.00010486721 8.3968533e-22 1.958452e-36)
(0.29477114 0.0055093296 8.3524228e-21 0.00010844112 1.940601e-22 1.2132165e-37)
(0.21542246 0.0045476067 -1.7500868e-20 9.9895626e-05 -4.4494935e-22 7.9743218e-37)
(0.1453987 0.0033159479 -1.0826896e-20 7.8726732e-05 -2.9654559e-22 4.8452168e-37)
(0.09212766 0.0021555981 -3.111042e-20 5.2907032e-05 -9.0478703e-22 6.5933911e-36)
(0.05547575 0.0012708333 -3.4862666e-21 3.0999941e-05 -1.0771788e-22 1.4129686e-37)
(0.032705982 0.00069966779 2.2080458e-20 1.6470369e-05 7.3300328e-22 9.9790581e-36)
(0.018566361 0.00037919998 -1.2376775e-20 8.9973677e-06 -4.8853906e-22 5.9639365e-36)
(1.3895304e-10 -3.243488e-09 6.2654079e-27 7.5740486e-08 -1.2950391e-25 1.6993766e-41)
(2.2649202e-09 -4.0268993e-08 -2.2525384e-24 7.1678302e-07 3.6630925e-23 2.2372993e-37)
(1.0299038e-08 -1.4914341e-07 3.991124e-24 2.1646455e-06 -5.3159998e-23 1.7716988e-37)
(3.2328466e-08 -3.8611597e-07 -1.8524184e-24 4.6274344e-06 2.0504816e-23 1.3167261e-38)
(8.3066898e-08 -8.3046446e-07 -5.9949782e-24 8.3403853e-06 5.5992367e-23 5.6190215e-38)
(1.8871288e-07 -1.5954306e-06 1.704412e-23 1.3563579e-05 -1.3582743e-22 2.0515864e-37)
(3.9404458e-07 -2.8382275e-06 -2.5514793e-23 2.0577214e-05 1.7478792e-22 2.2293098e-37)
(7.7318508e-07 -4.7721295e-06 3.1416172e-24 2.9673832e-05 -1.8598552e-23 1.7267187e-39)
(1.4457584e-06 -7.6807759e-06 -1.344853e-23 4.1146167e-05 6.907815e-23 1.6829857e-38)
(2.6005758e-06 -1.1933891e-05 -3.0693908e-25 5.5270018e-05 1.3721959e-24 4.8079931e-42)
(4.5296784e-06 -1.8003417e-05 -8.0690766e-23 7.228141e-05 3.1472749e-22 1.8757071e-37)
(7.6762922e-06 -2.6478439e-05 1.6889896e-22 9.2347959e-05 -5.7588602e-22 4.7347596e-37)
(1.2700932e-05 -3.8076431e-05 1.820603e-23 0.0001155352 -5.4347205e-23 3.2286651e-39)
(2.0570395e-05 -5.3647492e-05 -2.3258752e-22 0.0001417699 6.0853419e-22 3.1428785e-37)
(3.2674375e-05 -7.4167487e-05 9.1771746e-23 0.00017080459 -2.1060739e-22 2.9605713e-38)
(5.0974034e-05 -0.00010071618 7.4356564e-23 0.00020218943 -1.4973964e-22 1.1913173e-38)
(7.8185043e-05 -0.00013443742 -5.9785616e-22 0.00023526027 1.0566288e-21 4.7783165e-37)
(0.00011799573 -0.00017648205 2.4523516e-21 0.00026915339 -3.8032269e-21 5.0480873e-36)
(0.00017531762 -0.00022793999 -1.9205547e-21 0.00030285702 2.6125836e-21 1.9670109e-36)
(0.00025656499 -0.00028977726 2.8584017e-21 0.00033530648 -3.4086766e-21 2.8017789e-36)
(0.00036996271 -0.00036280415 -5.2080138e-21 0.00036552078 5.4405451e-21 6.0582216e-36)
(0.00052589242 -0.00044770961 1.5628737e-21 0.00039276687 -1.4291165e-21 3.6026168e-37)
(0.0007373064 -0.00054519453 7.8195442e-22 0.00041672037 -6.2543791e-22 6.0439119e-38)
(0.0010203011 -0.00065622716 -3.0785465e-21 0.00043757972 2.1525383e-21 6.3756779e-37)
(0.0013950731 -0.00078242192 1.3220086e-20 0.00045609366 -8.0780321e-21 8.1392885e-36)
(0.0018868633 -0.00092635513 2.33568e-21 0.0004734796 -1.2472483e-21 1.7884116e-37)
(0.0025270362 -0.0010916485 -1.4207362e-20 0.00049119169 6.634057e-21 4.7478695e-36)
(0.003357921 -0.0012831085 1.8554039e-20 0.0005104547 -7.5811329e-21 5.9089584e-36)
(0.0044337451 -0.001506513 -2.9485307e-21 0.00053222261 1.0550456e-21 1.109174e-37)
(0.0058222305 -0.0017680044 -3.3165454e-20 0.00055717215 1.0398127e-20 1.0565214e-35)
(0.0076124897 -0.0020741384 3.9257897e-21 0.00058555409 -1.0786718e-21 1.1336144e-37)
(0.0099163472 -0.0024313382 3.4166686e-20 0.00061724383 -8.2245345e-21 6.6514711e-36)
(0.01287394 -0.0028456299 9.7515253e-22 0.00065183386 -2.0552038e-22 4.2235408e-39)
(0.016658072 -0.0033223106 -3.2398071e-20 0.00068869396 5.968992e-21 3.7259125e-36)
(0.02147862 -0.0038654142 4.0501323e-20 0.00072696837 -6.5135967e-21 4.671783e-36)
(0.027586021 -0.0044769886 -2.034642e-20 0.00076556665 2.851062e-21 9.5526889e-37)
(0.035272728 -0.0051560278 2.6577725e-20 0.00080313146 -3.2371794e-21 1.3357776e-36)
(0.044870904 -0.0058969085 9.3416135e-20 0.00083799697 -9.8654324e-21 1.3640298e-35)
(0.056744637 -0.0066875526 2.3005817e-20 0.00086825439 -2.0991472e-21 6.9073724e-37)
(0.071272806 -0.0075071053 9.8254809e-20 0.0008919014 -7.7039741e-21 1.0643149e-35)
(0.088821004 -0.0083239846 -1.3662444e-19 0.00090727697 9.135123e-21 1.7578349e-35)
(0.10970072 -0.0090949187 -1.3564328e-19 0.00091380668 7.6511714e-21 1.4956375e-35)
(0.13411452 -0.009766952 -2.4879363e-20 0.00091312915 1.1660002e-21 4.3899407e-37)
(0.162103 -0.010283857 2.1097107e-19 0.00091007345 -7.9858878e-21 2.8059159e-35)
(0.19350821 -0.010595427 -1.0514602e-19 0.00091262953 3.1046235e-21 6.2598424e-36)
(0.22795219 -0.010669675 -3.8024182e-20 0.00093013158 8.2276177e-22 7.4785018e-37)
(0.26486403 -0.010491927 2.100155e-20 0.00096812889 -2.9375448e-22 2.1304204e-37)
(0.30351549 -0.010040016 6.6956715e-20 0.0010196152 -4.5290298e-22 2.0519705e-36)
(0.34300369 -0.0092925616 -3.3065298e-20 0.0010628553 -5.5546673e-24 4.8524141e-37)
(0.38202388 -0.0081681816 5.9800239e-20 0.0010748146 4.087849e-22 1.5732594e-36)
(0.4185502 -0.0065129457 3.545624e-19 0.0010437447 4.7325991e-21 5.6212666e-35)
(0.44966699 -0.0041759234 1.6448449e-20 0.00097669936 3.278951e-22 1.2640972e-37)
(0.47176325 -0.0010782885 -7.0931577e-20 0.00089627972 -1.8927616e-21 2.5267688e-36)
(0.48097019 0.0025791675 1.4846812e-19 0.00084815337 5.0336778e-21 1.2312957e-35)
(0.47364672 0.006563592 -1.1697567e-19 0.0008554056 -4.8894671e-21 8.8346007e-36)
(0.44697865 0.010642047 2.9931211e-19 0.00092077045 1.5194595e-20 6.9989741e-35)
(0.40011232 0.014215771 7.5044374e-20 0.0010471422 4.572305e-21 5.6057548e-36)
(0.33509843 0.016531967 -1.7991592e-19 0.0012103893 -1.3008174e-20 4.3790385e-35)
(0.2590403 0.016751739 2.5296419e-20 0.0013385621 2.1284772e-21 1.2460496e-36)
(0.18342765 0.014755722 2.3058988e-20 0.0013376729 2.2086749e-21 1.6051496e-36)
(0.11873501 0.011250051 3.5982923e-21 0.001155039 3.8189877e-22 6.4102904e-38)
(0.071294146 0.0075499738 -3.6521524e-20 0.0008591514 -4.1899543e-21 1.1262488e-35)
(0.039962739 0.0045434886 5.3152642e-20 0.00056259077 6.5405926e-21 4.2688629e-35)
(0.021500306 0.0025530597 1.1658997e-20 0.00034203211 1.551615e-21 3.8256789e-36)
(0.01082687 0.0013395932 1.3537168e-20 0.00019974846 2.117289e-21 1.0566761e-35)
(1.2174378e-09 -1.7384981e-08 9.4554145e-25 2.4826857e-07 -1.2921299e-23 5.1652278e-38)
(1.3916844e-08 -1.8084119e-07 -1.6020214e-24 2.3501116e-06 2.0007873e-23 2.0438269e-38)
(4.9624627e-08 -5.9348929e-07 -7.5658137e-25 7.0989837e-06 8.6679681e-24 1.4456405e-39)
(1.2628212e-07 -1.3844059e-06 1.1081732e-24 1.5181003e-05 -1.1620393e-23 1.299767e-39)
(2.7176816e-07 -2.7269654e-06 -7.7551662e-24 2.7373756e-05 7.4412714e-23 3.0523398e-38)
(5.3000585e-07 -4.8572815e-06 -8.0063887e-25 4.4539654e-05 7.0249434e-24 1.6875151e-40)
(9.6898623e-07 -8.0911699e-06 -1.383379e-23 6.761163e-05 1.1082424e-22 2.7555428e-38)
(1.69245e-06 -1.2844384e-05 -1.978313e-23 9.7568752e-05 1.4442222e-22 3.198934e-38)
(2.8568439e-06 -1.9656328e-05 2.1163592e-22 0.00013539767 -1.4049364e-21 2.1369426e-36)
(4.6954135e-06 -2.9215882e-05 -2.4471706e-22 0.0001820376 1.4740986e-21 1.7035527e-36)
(7.5519565e-06 -4.2387698e-05 1.5039844e-22 0.00023830623 -8.2031066e-22 3.9011296e-37)
(1.192737e-05 -6.0236265e-05 2.8109684e-22 0.00030480592 -1.3853436e-21 8.3740394e-37)
(1.8542756e-05 -8.4043764e-05 -7.0700056e-22 0.00038181216 3.14191e-21 3.2919762e-36)
(2.8423299e-05 -0.00011531632 -1.104594e-22 0.00046915055 4.4173566e-22 5.0410238e-38)
(4.3007318e-05 -0.00015577216 5.3588846e-22 0.00056607509 -1.9245538e-21 7.5081103e-37)
(6.4284548e-05 -0.0002073051 4.6096456e-22 0.00067116819 -1.4836201e-21 3.5425981e-37)
(9.4966931e-05 -0.00027191947 -6.6608079e-22 0.00078229109 1.9172172e-21 4.7526889e-37)
(0.00013869336 -0.00035163664 2.991608e-21 0.00089662029 -7.6844552e-21 6.207324e-36)
(0.00020026861 -0.00044838523 -2.1837869e-21 0.0010108055 4.9951054e-21 2.1590328e-36)
(0.00028593569 -0.0005639004 1.3270889e-21 0.0011212749 -2.6972329e-21 5.2497574e-37)
(0.00040368476 -0.00069967695 -5.468773e-21 0.0012246871 9.8551999e-21 5.9289221e-36)
(0.00056361098 -0.00085703519 -1.7276946e-21 0.0013184848 2.7549355e-21 3.978618e-37)
(0.00077834971 -0.0010373568 4.3481279e-21 0.0014014513 -6.1235461e-21 1.7158677e-36)
(0.0010636648 -0.0012425309 -7.8370407e-21 0.0014741267 9.7321211e-21 3.8473273e-36)
(0.0014393963 -0.0014756186 -3.6678923e-21 0.0015389296 4.0111944e-21 5.9024791e-37)
(0.0019305611 -0.0017414597 5.1951397e-21 0.0015999022 -4.9993472e-21 8.4354938e-37)
(0.0025679893 -0.0020467057 3.4526564e-20 0.0016619611 -2.9227959e-20 2.6952391e-35)
(0.0033933096 -0.0024003379 1.8146742e-20 0.001729346 -1.3514201e-20 5.4759166e-36)
(0.004460102 -0.002812995 -1.0443767e-20 0.0018053308 6.8430673e-21 1.3570326e-36)
(0.0058345066 -0.0032959643 1.2821876e-20 0.0018923268 -7.3918856e-21 1.5489941e-36)
(0.0076035573 -0.0038614936 -9.137297e-21 0.0019913301 4.6339811e-21 6.0638286e-37)
(0.0098761628 -0.004521612 -5.8739829e-20 0.0021020944 2.6191695e-20 1.9493965e-35)
(0.012788345 -0.0052877538 2.2219178e-20 0.0022234284 -8.7036952e-21 2.1986281e-36)
(0.016507406 -0.0061701382 7.4638876e-20 0.0023533461 -2.5659067e-20 1.9759366e-35)
(0.021235881 -0.0071768658 -2.7897398e-20 0.0024891023 8.40522e-21 2.2250009e-36)
(0.027214438 -0.0083125534 -4.3611666e-20 0.0026271024 1.1501581e-20 4.4174414e-36)
(0.03472272 -0.0095763096 8.3981657e-20 0.0027627296 -1.935363e-20 1.345127e-35)
(0.044076095 -0.010958987 2.8362921e-20 0.0028902849 -5.7002518e-21 1.271646e-36)
(0.05561656 -0.012439575 -5.5527233e-20 0.003003073 9.7015162e-21 4.0878199e-36)
(0.069694237 -0.013981201 -2.4379691e-20 0.0030940655 3.6877607e-21 6.6747713e-37)
(0.08663737 -0.015527053 1.2759911e-19 0.0031571519 -1.6610023e-20 1.5641988e-35)
(0.10670889 -0.016998967 -3.9063825e-20 0.003189917 4.3286716e-21 1.2733939e-36)
(0.13004981 -0.018300652 -6.0790658e-20 0.0031973584 5.670402e-21 2.6998398e-36)
(0.15662413 -0.019329752 -1.7305841e-19 0.0031955477 1.3312482e-20 1.9433966e-35)
(0.18617912 -0.0199966 3.4768655e-19 0.0032119103 -2.1368937e-20 7.0857452e-35)
(0.21823979 -0.020248017 -2.3559055e-19 0.0032787006 1.1033808e-20 2.9864307e-35)
(0.25216223 -0.020075269 -6.1600501e-20 0.0034131669 2.0352462e-21 1.9061444e-36)
(0.28717953 -0.019469855 -2.4955633e-19 0.0035888192 4.8737803e-21 2.9925582e-35)
(0.32233785 -0.018377826 -3.0274689e-19 0.0037340519 2.0382101e-21 4.299409e-35)
(0.3562987 -0.016638331 -1.5376288e-20 0.0037632251 -7.9209277e-23 1.1044668e-37)
(0.38709415 -0.013987505 6.4080943e-20 0.0036285105 1.1277714e-21 1.9715646e-36)
(0.41196408 -0.010171269 -4.5727087e-19 0.003356017 -1.3727415e-20 1.0595093e-34)
(0.42759697 -0.0050973568 -1.8607777e-19 0.003033837 -7.9548454e-21 1.9079372e-35)
(0.43056273 0.0009998808 -1.7918171e-19 0.002784279 -1.011611e-20 1.9922219e-35)
(0.41783848 0.0077034371 -5.4027906e-20 0.0026920083 -3.8781493e-21 2.1233077e-36)
(0.3875812 0.014494034 -3.73602e-19 0.0027879642 -3.3338616e-20 1.2520324e-34)
(0.33957851 0.020469491 1.2926812e-19 0.0030792007 1.4145985e-20 1.9484088e-35)
(0.27642039 0.024341201 -3.3018598e-20 0.0035082999 -4.3813849e-21 1.7809728e-36)
(0.20550235 0.024703374 -2.2084852e-19 0.0038676666 -3.4741657e-20 1.1855969e-34)
(0.13811585 0.021420588 -6.9062239e-20 0.0038627087 -1.2586527e-20 1.8581481e-35)
(0.083473408 0.015838102 6.2608346e-20 0.003327715 1.2878579e-20 2.6218691e-35)
(0.04575705 0.010135785 1.6000298e-19 0.0024592788 3.6262715e-20 3.0951915e-34)
(0.022741573 0.0057001149 -3.6986503e-20 0.001592608 -9.1702249e-21 3.157063e-35)
(0.010496888 0.0029079882 -4.2089188e-20 0.00094768791 -1.1533961e-20 8.2033658e-35)
(0.004407968 0.0013130701 -1.2036743e-20 0.00052389278 -3.9599804e-21 1.505033e-35)
(4.8224093e-09 -4.9037481e-08 -6.2343259e-24 4.9865167e-07 6.2004623e-23 5.7928051e-37)
(4.9804968e-08 -4.8498939e-07 2.1659743e-23 4.7227934e-06 -2.063593e-22 1.0624966e-36)
(1.6322362e-07 -1.5263514e-06 -1.3308295e-23 1.4273792e-05 1.2135082e-22 1.3891994e-37)
(3.8151369e-07 -3.4134871e-06 2.1412468e-24 3.0542813e-05 -1.8633457e-23 1.641916e-39)
(7.5609633e-07 -6.4549767e-06 -5.8713366e-23 5.5112132e-05 4.8660479e-22 6.4178961e-37)
(1.360882e-06 -1.1050654e-05 8.1171553e-23 8.9744044e-05 -6.3920205e-22 6.8718458e-37)
(2.3013548e-06 -1.7713095e-05 -1.605297e-22 0.00013635573 1.1976505e-21 1.5815518e-36)
(3.727176e-06 -2.7092543e-05 9.6788104e-23 0.00019697381 -6.8191441e-22 3.502015e-37)
(5.8497871e-06 -4.0005561e-05 4.6576478e-22 0.00027366134 -3.0882743e-21 5.0637026e-36)
(8.9664971e-06 -5.7465568e-05 -1.4046744e-22 0.00036841149 8.7341916e-22 2.9287954e-37)
(1.3493166e-05 -8.0713265e-05 -6.6652745e-22 0.00048300265 3.8725118e-21 4.2500978e-36)
(2.0008064e-05 -0.00011124362 2.5223409e-22 0.00061881214 -1.3643242e-21 3.9629549e-37)
(2.9310076e-05 -0.00015082481 2.0815273e-23 0.00077659127 -1.044318e-22 1.7714308e-39)
(4.2494765e-05 -0.00020150265 -1.003347e-21 0.00095621238 4.6519419e-21 2.7155278e-36)
(6.1052358e-05 -0.00026558355 3.8544731e-21 0.0011564111 -1.6453535e-20 2.6582714e-35)
(8.6991385e-05 -0.0003455882 -2.899117e-21 0.0013745634 1.1351251e-20 1.0017509e-35)
(0.00012299221 -0.00044417227 -3.3772118e-23 0.0016065532 1.2083338e-22 9.0893063e-40)
(0.00017259346 -0.00056401566 2.3907462e-21 0.0018468042 -7.7870103e-21 3.0600195e-36)
(0.00024041475 -0.000707695 -7.3849314e-21 0.0020885532 2.181509e-20 1.970325e-35)
(0.00033241876 -0.00087757124 4.2265823e-21 0.002324426 -1.1281083e-20 4.3799823e-36)
(0.00045622144 -0.0010757501 7.6159835e-21 0.0025473298 -1.8299956e-20 9.7167027e-36)
(0.0006214647 -0.0013041879 3.7100149e-21 0.0027515901 -7.9971396e-21 1.5882369e-36)
(0.00084027984 -0.0015650176 -2.1966703e-20 0.0029341417 4.2338096e-20 3.8740391e-35)
(0.0011278962 -0.0018611428 -1.3664633e-20 0.0030954843 2.3479136e-20 1.0546512e-35)
(0.0015035698 -0.0021971203 1.0445778e-20 0.003240062 -1.5960334e-20 4.393268e-36)
(0.0019918704 -0.0025800964 -7.1636392e-21 0.0033758464 9.7129939e-21 1.4920648e-36)
(0.0026228581 -0.0030196611 3.1335268e-20 0.0035130131 -3.7650701e-20 2.0939542e-35)
(0.0034369641 -0.0035289234 -1.044015e-20 0.0036609822 1.1105781e-20 1.7295515e-36)
(0.0044865682 -0.0041230163 3.2433367e-20 0.0038264303 -3.0520546e-20 1.2602148e-35)
(0.0058355161 -0.0048180556 -2.1008706e-20 0.0040147652 1.74766e-20 4.0469178e-36)
(0.0075674411 -0.0056316113 1.4820162e-20 0.0042285527 -1.0889834e-20 1.5602092e-36)
(0.0097867634 -0.0065809176 -6.1671432e-20 0.0044676145 3.9992149e-20 2.1199594e-35)
(0.012623151 -0.0076823106 1.0003257e-20 0.0047297103 -5.718817e-21 4.426893e-37)
(0.016235367 -0.0089503466 -5.9371103e-20 0.0050108194 2.989267e-20 1.2486736e-35)
(0.020814555 -0.01039651 6.3673985e-20 0.0053052443 -2.8199579e-20 1.1627392e-35)
(0.026586359 -0.012027161 2.274246e-20 0.0056053458 -8.8500668e-21 1.2101471e-36)
(0.033810605 -0.013840599 -3.1501008e-19 0.0059012234 1.0750074e-19 1.919505e-34)
(0.042776854 -0.015823 -9.0913286e-20 0.0061805179 2.7163197e-20 1.3316112e-35)
(0.053793585 -0.017943199 8.2915566e-20 0.006428648 -2.162575e-20 9.3283538e-36)
(0.067167771 -0.020146678 -8.9158451e-20 0.0066300875 2.0220414e-20 9.1733051e-36)
(0.083172804 -0.022349951 2.4963425e-20 0.0067712833 -4.8944253e-21 6.1779678e-37)
(0.10200305 -0.024438351 1.6895754e-19 0.0068464144 -2.8390644e-20 2.4638322e-35)
(0.12371689 -0.026271876 -8.4189186e-21 0.0068658966 1.1972617e-21 5.3990573e-38)
(0.14818377 -0.027704183 -6.4833899e-20 0.0068644489 7.6616054e-21 2.8530895e-36)
(0.17505087 -0.028614667 3.3275937e-20 0.0069025638 -3.1509176e-21 6.8619634e-37)
(0.20376847 -0.028948117 -1.7522321e-20 0.0070508878 1.3071631e-21 1.7291196e-37)
(0.23366093 -0.028721433 -5.205648e-20 0.0073440998 2.7679891e-21 1.4527379e-36)
(0.26398116 -0.027956623 8.1841752e-19 0.0077194766 -2.7125308e-20 3.4680329e-34)
(0.29384425 -0.026588341 -9.2334311e-20 0.0080154887 1.2697477e-21 4.3504222e-36)
(0.32200525 -0.024366654 8.4858355e-20 0.0080397398 3.7704211e-22 3.7096369e-36)
(0.34658208 -0.020896437 -7.8153154e-19 0.0076899761 -1.7657939e-20 3.2622541e-34)
(0.3649547 -0.015832404 4.1275464e-19 0.0070318482 1.6909615e-20 9.712555e-35)
(0.37410548 -0.009110797 3.2180533e-19 0.0062680392 1.9435565e-20 6.5017531e-35)
(0.37116598 -0.0010852913 2.8520595e-19 0.005647462 2.3263778e-20 5.8419644e-35)
(0.35399019 0.007657329 2.4933684e-19 0.0053405363 2.6291367e-20 5.3316342e-35)
(0.32161105 0.016401207 3.4612615e-19 0.0054175434 4.6132594e-20 1.2912863e-34)
(0.27450116 0.024001391 -5.9446717e-19 0.0058943052 -9.8708788e-20 5.0749331e-34)
(0.21566415 0.028752852 3.0338289e-19 0.0066708001 6.1982808e-20 1.8933632e-34)
(0.15261527 0.028822433 3.6712327e-19 0.0073342238 9.0588855e-20 4.3018146e-34)
(0.096119271 0.024252033 -2.0743519e-19 0.007278492 -6.0256344e-20 2.2938826e-34)
(0.053488353 0.017153535 -4.927933e-20 0.006204628 -1.6396494e-20 2.321828e-35)
(0.026354807 0.010317947 -3.1184927e-20 0.0045105302 -1.1581652e-20 1.7610412e-35)
(0.011499216 0.0053401096 1.1294208e-19 0.0028513982 4.6294875e-20 4.5621239e-34)
(0.0046117695 0.0024382847 5.7749779e-20 0.0016362838 2.6198633e-20 2.4620955e-34)
(0.0017665289 0.00094993992 -1.6886437e-21 0.00086193911 -9.162353e-22 4.7797783e-37)
(1.2849606e-08 -1.0080019e-07 7.2451958e-24 7.9074187e-07 -5.6081842e-23 2.8721538e-37)
(1.2736649e-07 -9.7704036e-07 -5.1366345e-23 7.4950247e-06 3.8850757e-22 2.2937008e-36)
(4.0246613e-07 -3.0205655e-06 6.9666096e-23 2.2670144e-05 -5.1405224e-22 1.5247792e-36)
(9.0468066e-07 -6.6273887e-06 -3.814373e-23 4.8551528e-05 2.7405508e-22 2.1781377e-37)
(1.722178e-06 -1.2288871e-05 -1.8718813e-23 8.7693618e-05 1.3072801e-22 2.8437008e-38)
(2.9732586e-06 -2.0615929e-05 2.1083477e-22 0.00014295734 -1.4283693e-21 2.1065459e-36)
(4.8162617e-06 -3.236229e-05 -6.8192089e-23 0.00021747808 4.4707883e-22 1.3520835e-37)
(7.4626303e-06 -4.8450127e-05 -1.8172256e-22 0.00031460182 1.1497601e-21 6.1000638e-37)
(1.1194482e-05 -6.999851e-05 -1.7279575e-23 0.00043777946 1.0518674e-22 3.5940728e-39)
(1.6387736e-05 -9.835233e-05 -1.8027189e-22 0.00059040872 1.0523793e-21 2.5962612e-37)
(2.3542479e-05 -0.00013510968 3.0794292e-22 0.00077561398 -1.7180352e-21 5.096859e-37)
(3.3322601e-05 -0.00018214421 -2.5983054e-22 0.00099595788 1.3803567e-21 2.4655138e-37)
(4.6607225e-05 -0.00024161801 -1.1582674e-21 0.0012530854 5.837061e-21 3.3527571e-36)
(6.4556888e-05 -0.0003159791 -4.0624256e-23 0.001547313 1.9343193e-22 2.8353959e-39)
(8.8698017e-05 -0.00040793716 1.2868424e-21 0.0018771943 -5.7651735e-21 1.9657619e-36)
(0.00012102977 -0.0005204117 1.0963735e-21 0.0022391201 -4.6016929e-21 9.8809481e-37)
(0.00016415765 -0.00065644957 -1.1334117e-21 0.0026270369 4.4368439e-21 7.3298564e-37)
(0.00022145984 -0.0008191172 1.3048184e-22 0.003032404 -4.7419312e-22 6.7632136e-39)
(0.00029729163 -0.0010113828 3.1765181e-21 0.0034445184 -1.0666608e-20 2.7951354e-36)
(0.00039723701 -0.0012360258 4.6278451e-21 0.0038513299 -1.4290128e-20 4.1535862e-36)
(0.00052841983 -0.001495632 -6.2991582e-21 0.0042408003 1.7800523e-20 5.4129078e-36)
(0.00069989153 -0.001792753 -7.5334675e-21 0.0046027319 1.9390154e-20 5.4780157e-36)
(0.00092312528 -0.0021303138 1.1998793e-20 0.0049307999 -2.8001378e-20 9.9073612e-36)
(0.0012126518 -0.0025123128 -1.7490386e-20 0.0052243275 3.6850643e-20 1.5145223e-35)
(0.0015869638 -0.0029448384 -3.550294e-20 0.0054892204 6.7273602e-20 4.5370905e-35)
(0.0020698571 -0.0034372613 9.7412764e-20 0.0057375875 -1.6545843e-19 2.5133823e-34)
(0.0026907487 -0.0040021946 -6.2038696e-20 0.0059859965 9.4204813e-20 7.5967009e-35)
(0.0034881666 -0.0046564296 1.0565746e-19 0.0062512217 -1.4313968e-19 1.6636022e-34)
(0.0045124685 -0.0054190986 -1.5083162e-19 0.0065444353 1.8198518e-19 2.5929973e-34)
(0.005825277 -0.0063110188 1.9137645e-19 0.0068753582 -2.0532203e-19 3.2309357e-34)
(0.0075052438 -0.0073542617 -2.2379193e-19 0.0072493077 2.1319319e-19 3.4603856e-34)
(0.009651013 -0.0085707171 4.2399057e-20 0.0076666588 -3.5815813e-20 9.8406963e-36)
(0.012383877 -0.0099808406 1.6423419e-19 0.0081240482 -1.2286365e-19 1.180602e-34)
(0.015851428 -0.011602647 -1.0346923e-19 0.0086148573 6.8461923e-20 3.7859206e-35)
(0.020229925 -0.013449948 3.6006203e-20 0.0091293714 -2.1043648e-20 3.7401319e-36)
(0.025725466 -0.015529698 1.1649467e-20 0.0096543729 -6.0054168e-21 3.2251529e-37)
(0.0325724 -0.01783811 1.5878083e-19 0.010172578 -7.210773e-20 4.9686078e-35)
(0.041027424 -0.020355315 5.6955035e-20 0.010662233 -2.2741964e-20 5.3537337e-36)
(0.051357113 -0.023038561 6.290307e-20 0.011097511 -2.2016912e-20 5.5289173e-36)
(0.063815886 -0.025814525 6.7756666e-20 0.011450767 -2.0705001e-20 5.4924263e-36)
(0.078612744 -0.028572284 -3.7405471e-19 0.011697639 9.9213582e-20 1.4482908e-34)
(0.095865487 -0.031161428 1.7670558e-19 0.011827478 -4.0341209e-20 2.8294645e-35)
(0.11554674 -0.03340159 3.0121934e-20 0.011858512 -5.8649105e-21 7.2516119e-37)
(0.13743804 -0.035111706 -3.6736881e-19 0.011853234 5.9533321e-20 9.7596149e-35)
(0.16111697 -0.036160685 -1.9549422e-19 0.011921627 2.5773422e-20 2.5267229e-35)
(0.18602188 -0.036525179 9.9761008e-20 0.012189303 -1.0271525e-20 6.140534e-36)
(0.21154273 -0.03628138 3.7238701e-19 0.012707244 -2.7949314e-20 8.1336108e-35)
(0.23706493 -0.035491092 -1.6419928e-19 0.013347329 7.968235e-21 1.5397625e-35)
(0.26183239 -0.034044022 4.8026637e-19 0.013806289 -1.0712364e-20 1.3115676e-34)
(0.28464395 -0.031550674 2.5773397e-19 0.01373931 6.9614782e-22 3.8590615e-35)
(0.30358418 -0.027457632 3.4591544e-19 0.012989105 9.4353621e-21 7.2972331e-35)
(0.31606281 -0.02135328 8.8948224e-19 0.011706283 4.6992767e-20 5.2165373e-34)
(0.31931537 -0.013262275 -6.4639192e-19 0.010267128 -5.1593103e-20 3.0829999e-34)
(0.31107886 -0.0037230623 1.9447394e-19 0.0090889906 2.1360643e-20 3.2362394e-35)
(0.29017857 0.0064611277 -2.9998312e-19 0.0084514184 -4.320184e-20 9.4117661e-35)
(0.25665686 0.016415781 -2.4944257e-19 0.0084618276 -4.6076013e-20 8.3565667e-35)
(0.21174784 0.024871815 -8.2616413e-20 0.0091295072 -1.934232e-20 1.2578209e-35)
(0.15881743 0.029843396 -6.1214249e-19 0.010301494 -1.7919289e-19 1.0263951e-33)
(0.10537265 0.029268596 -1.2872523e-19 0.011294501 -4.6254065e-20 7.3230492e-35)
(0.061120901 0.023621569 2.2215152e-19 0.011101102 9.5222746e-20 3.7898266e-34)
(0.03069997 0.015769711 6.1594312e-20 0.0093129029 3.0518029e-20 5.3845728e-35)
(0.013434222 0.0088158796 -3.311559e-20 0.006619536 -1.8316411e-20 3.0002474e-35)
(0.0052355406 0.00418395 -4.8825435e-20 0.0040637075 -2.9434765e-20 1.2826515e-34)
(0.0020308668 0.0017444502 -5.4185515e-20 0.0022430741 -3.506092e-20 3.110224e-34)
(0.00093620555 0.00064150271 2.8641934e-21 0.0011327889 2.1110574e-21 1.8089931e-36)
(2.6745704e-08 -1.6990253e-07 3.2611534e-23 1.0793108e-06 -2.0530725e-22 2.6664393e-36)
(2.5983911e-07 -1.6312143e-06 2.4249982e-23 1.0240475e-05 -1.5066095e-22 2.4064477e-37)
(8.061733e-07 -4.9996161e-06 -3.2252888e-23 3.1006429e-05 1.9744627e-22 1.5781446e-37)
(1.775935e-06 -1.0865651e-05 -1.7042493e-22 6.6481173e-05 1.0268728e-21 2.1523251e-36)
(3.3089937e-06 -1.9945564e-05 1.2534019e-22 0.00012023248 -7.4242258e-22 6.4635282e-37)
(5.5834832e-06 -3.3103602e-05 -2.3336672e-22 0.00019628417 1.3569273e-21 1.339669e-36)
(8.8259973e-06 -5.1374852e-05 1.2740538e-22 0.00029908647 -7.2592959e-22 2.5096137e-37)
(1.3324267e-05 -7.5988238e-05 3.7613072e-23 0.0004334442 -2.0957511e-22 1.4247425e-38)
(1.9443601e-05 -0.00010839041 -2.6046653e-22 0.00060439185 1.4159274e-21 4.5689221e-37)
(2.7647686e-05 -0.00015026762 -6.8020658e-22 0.00081699777 3.5983883e-21 2.1246876e-36)
(3.8525118e-05 -0.0002035637 -4.1087416e-23 0.0010760842 2.1093234e-22 5.3612528e-39)
(5.2823132e-05 -0.00027049078 1.6105643e-21 0.0013858495 -7.9993718e-21 5.7624498e-36)
(7.1490635e-05 -0.00035352913 -2.6571282e-21 0.0017493891 1.2726413e-20 1.1054148e-35)
(9.5733094e-05 -0.00045541165 5.1032967e-21 0.0021681239 -2.3486267e-20 2.8902901e-35)
(0.00012708256 -0.00057908874 -1.5834857e-21 0.0026411689 6.9755904e-21 1.9805922e-36)
(0.00016748731 -0.00072767149 3.9895353e-21 0.0031647091 -1.6753419e-20 8.974788e-36)
(0.00021942615 -0.00090435268 -5.7145082e-21 0.0037314925 2.2775014e-20 1.317607e-35)
(0.00028605528 -0.0011123159 4.393348e-21 0.0043305981 -1.6539983e-20 5.5839059e-36)
(0.00037139616 -0.00135465 -8.2093216e-22 0.0049476714 2.9050202e-21 1.4012354e-37)
(0.00048057768 -0.001634308 -3.9332792e-21 0.0055658294 1.3015053e-20 2.3174351e-36)
(0.00062014889 -0.0019541674 1.1273995e-20 0.0061673707 -3.4696712e-20 1.376684e-35)