/*--------------------------------*- C++ -*----------------------------------*\
  =========                 |
  \\      /  F ield         | OpenFOAM: The Open Source CFD Toolbox
   \\    /   O peration     | Website:  https://openfoam.org
    \\  /    A nd           | Version:  13
     \\/     M anipulation  |
\*---------------------------------------------------------------------------*/
FoamFile
{
    format      ascii;
    class       volVectorField;
    location    "25.399043";
    object      U;
}
// * * * * * * * * * * * * * * * * * * * * * * * * * * * * * * * * * * * * * //

dimensions      [0 1 -1 0 0 0 0];

internalField   nonuniform List<vector> 
17140
(
(-9.8473651e-07 6.4510836e-05 2.9184615e-23)
(-5.290194e-06 0.00019885896 3.2309593e-24)
(-1.3071651e-05 0.00034684671 -2.1314914e-22)
(-2.5604625e-05 0.00051056508 2.3415506e-22)
(-4.4154767e-05 0.00069231411 -2.7349413e-23)
(-7.042672e-05 0.00089457549 8.9422726e-23)
(-0.00010653872 0.0011199953 1.5035614e-22)
(-0.00015508843 0.0013713518 -7.3258686e-23)
(-0.00021925533 0.0016515079 -2.3935528e-22)
(-0.00030291606 0.001963345 -5.8566622e-22)
(-0.00041077433 0.0023096727 8.6572973e-22)
(-0.00054850811 0.0026931106 -7.6864234e-22)
(-0.00072293399 0.0031159373 -1.1716891e-22)
(-0.00094218642 0.0035798998 6.5853842e-22)
(-0.0012159077 0.0040859809 -7.2637327e-23)
(-0.0015554415 0.0046341179 5.7063966e-22)
(-0.0019740184 0.0052228728 -2.0966752e-23)
(-0.0024869163 0.0058490535 4.7223809e-24)
(-0.003111571 0.0065072928 3.2569705e-22)
(-0.0038676019 0.0071895984 -4.1507685e-22)
(-0.0047767087 0.0078848977 1.9614801e-22)
(-0.0058623774 0.0085786183 -3.6493716e-23)
(-0.0071493219 0.0092523674 -2.6218726e-22)
(-0.008662571 0.0098838182 2.5408567e-22)
(-0.010426108 0.010446981 3.9110366e-22)
(-0.012460984 0.010913167 -3.0282178e-22)
(-0.014782916 0.011253136 -1.4309372e-21)
(-0.017399547 0.011441096 -1.6182999e-22)
(-0.020307936 0.011460894 1.3493814e-21)
(-0.023493288 0.011313221 2.996399e-22)
(-0.026930239 0.011019707 1.0057122e-21)
(-0.030587326 0.010618732 -1.2371451e-21)
(-0.034433012 0.010153244 3.0181224e-22)
(-0.038439886 0.0096585435 1.342342e-22)
(-0.04258527 0.0091571168 1.2394465e-21)
(-0.046849549 0.0086600612 -5.1215739e-22)
(-0.051214373 0.0081707893 7.3934464e-22)
(-0.05566172 0.0076880951 4.8292034e-22)
(-0.060173898 0.0072078015 2.1540605e-22)
(-0.064734288 0.0067232067 -6.4100429e-22)
(-0.069328712 0.0062246308 -1.2001524e-21)
(-0.073947306 0.0056982559 -1.0873243e-21)
(-0.078587005 0.0051243272 -4.7651973e-22)
(-0.083253841 0.0044747039 2.3408972e-21)
(-0.087965387 0.0037097189 1.7322767e-21)
(-0.092754973 0.0027740309 -4.3121297e-22)
(-0.097666779 0.0015925294 2.9787674e-21)
(-0.10275216 6.6632297e-05 1.0256156e-21)
(-0.10806368 -0.0019324444 -1.0586106e-21)
(-0.11364538 -0.00457083 -2.6231656e-21)
(-0.11949862 -0.0080564957 1.6292556e-21)
(-0.12557521 -0.012639877 1.0351829e-21)
(-0.13167627 -0.018598529 -2.7102808e-21)
(-0.13751209 -0.026191017 -1.2818027e-21)
(-0.14237796 -0.035507752 -9.0510067e-22)
(-0.14554659 -0.046443798 7.1079249e-22)
(-0.14566518 -0.058154899 -1.8430738e-21)
(-0.14185541 -0.068676484 -1.4913782e-21)
(-0.13171534 -0.07446332 -3.4830923e-22)
(-0.11681173 -0.071113174 8.6440255e-22)
(-0.09282342 -0.054317756 6.0746718e-22)
(-0.067529078 -0.02178008 2.0217466e-21)
(-0.028576624 0.022947618 2.4256951e-22)
(-0.0019796596 0.073255218 -1.9786929e-21)
(0.03627866 0.11258877 1.1860558e-21)
(-4.6046109e-06 0.00010984263 -8.3286963e-24)
(-1.649387e-05 0.00033915228 1.1208177e-21)
(-3.2564355e-05 0.00059186527 -9.9686295e-22)
(-5.4221316e-05 0.00087088278 2.7154578e-22)
(-8.2799209e-05 0.0011793574 5.6052025e-22)
(-0.00012008882 0.0015206454 -1.0699386e-21)
(-0.00016829768 0.0018982808 1.1137802e-21)
(-0.00023010911 0.0023159279 -9.7861497e-23)
(-0.00030878391 0.0027773127 3.0491467e-22)
(-0.00040827073 0.0032861287 5.1705405e-24)
(-0.00053333134 0.0038459122 1.0122982e-21)
(-0.00068968107 0.0044598793 -1.6020733e-21)
(-0.00088414551 0.0051307206 -1.3169383e-22)
(-0.0011248303 0.005860343 1.2920473e-21)
(-0.0014213007 0.0066495558 -3.9374431e-22)
(-0.0017847623 0.0074976925 -2.4778062e-22)
(-0.0022282338 0.0084021665 1.5546756e-21)
(-0.0027666925 0.0093579604 -4.99505e-21)
(-0.0034171701 0.010357054 3.076635e-21)
(-0.0041987658 0.011387805 -3.6167326e-21)
(-0.0051325307 0.012434312 5.2255678e-21)
(-0.0062411665 0.0134758 -1.2495404e-21)
(-0.0075484679 0.01448611 -5.0036092e-22)
(-0.0090784208 0.015433421 1.5879777e-21)
(-0.010853871 0.016280445 -5.5223628e-21)
(-0.0128947 0.01698552 -7.9645268e-22)
(-0.015215522 0.01750534 3.9626062e-21)
(-0.017823123 0.017800377 -4.2631848e-21)
(-0.020714193 0.017843764 5.5736114e-22)
(-0.02387431 0.01763231 5.2010813e-21)
(-0.027279317 0.017193819 -5.0590435e-22)
(-0.030899544 0.016582604 -3.6627866e-21)
(-0.034705324 0.015862428 -9.0164484e-23)
(-0.038670735 0.015087986 2.3937608e-21)
(-0.042774063 0.014296118 -2.5101285e-21)
(-0.046996215 0.013507091 1.072784e-21)
(-0.051319093 0.012729875 -1.2029773e-21)
(-0.055724802 0.011966865 -3.7053858e-21)
(-0.060195747 0.011216715 -8.121409e-22)
(-0.064715445 0.010475481 -3.1256319e-21)
(-0.069269952 0.0097365544 3.9696263e-21)
(-0.073849806 0.0089896681 3.6592493e-21)
(-0.078452623 0.0082190985 6.303794e-22)
(-0.083085464 0.0074010539 -5.0885347e-21)
(-0.08776764 0.0065004926 2.4477009e-21)
(-0.092534959 0.0054658751 8.6148538e-22)
(-0.097434788 0.0042223839 -4.5974592e-22)
(-0.10252329 0.0026692283 -1.4815179e-21)
(-0.10785912 0.00067185221 7.3317712e-22)
(-0.11349304 -0.00194901 -1.3633487e-21)
(-0.119433 -0.0054240707 -8.2400249e-21)
(-0.12563446 -0.010039462 -3.8997237e-22)
(-0.13189442 -0.016123267 1.7810327e-21)
(-0.13790088 -0.024011207 -4.0070776e-21)
(-0.14290591 -0.033947239 3.3877766e-21)
(-0.14608259 -0.045758456 -9.4953505e-21)
(-0.14593469 -0.058678719 -2.6511115e-21)
(-0.14124532 -0.07084898 7.0910354e-21)
(-0.12973651 -0.078617991 -1.1472728e-21)
(-0.11310237 -0.077286334 -1.2111908e-21)
(-0.087579835 -0.062102803 -2.0978886e-22)
(-0.06192029 -0.031287967 2.3923176e-21)
(-0.02413365 0.01318814 -3.9936225e-21)
(5.3889338e-05 0.064124862 -1.0336979e-21)
(0.038851885 0.10457653 -1.572086e-21)
(-1.0797566e-05 0.00015494675 -4.596692e-22)
(-3.5571247e-05 0.00047875559 3.3948862e-22)
(-6.5784514e-05 0.0008356972 9.024492e-23)
(-0.00010293491 0.0012294811 -8.5499045e-23)
(-0.00014848019 0.0016641063 4.1403108e-22)
(-0.00020432521 0.0021437986 3.0783547e-23)
(-0.00027278826 0.002672976 3.9248655e-22)
(-0.000356656 0.0032561862 4.2222468e-22)
(-0.00045927962 0.0038980179 -3.4431231e-21)
(-0.00058467815 0.0046029794 3.0664638e-21)
(-0.00073765529 0.0053753403 -1.4628435e-21)
(-0.00092392963 0.0062189259 -2.1353691e-21)
(-0.0011502791 0.0071368575 4.2139409e-21)
(-0.0014246968 0.00813123 5.1877395e-22)
(-0.0017565535 0.0092027172 -1.9876022e-21)
(-0.0021567615 0.010350099 -1.3544459e-21)
(-0.0026379265 0.011569705 1.5537168e-21)
(-0.0032144737 0.012854772 -5.5522924e-21)
(-0.0039027236 0.014194723 3.2308956e-21)
(-0.0047208866 0.015574379 -1.5699627e-21)
(-0.0056889346 0.016973134 5.1842377e-21)
(-0.0068282936 0.018364148 1.3170752e-21)
(-0.0081612904 0.019713634 -2.6771347e-21)
(-0.0097102749 0.02098041 3.9158595e-21)
(-0.011496339 0.022115993 1.4963356e-21)
(-0.013537584 0.023065796 -1.7351938e-21)
(-0.015846979 0.023772388 -9.5089157e-21)
(-0.018430061 0.024182266 -4.1402566e-21)
(-0.021283023 0.024257361 1.9705773e-21)
(-0.024392069 0.02398985 -2.0185558e-21)
(-0.027734923 0.023412882 1.1825967e-21)
(-0.031284657 0.022596161 6.3479441e-21)
(-0.03501441 0.021624225 -1.9960926e-21)
(-0.038900447 0.020571525 -5.6062708e-21)
(-0.042922385 0.019489746 1.7522939e-21)
(-0.047061756 0.018408744 2.3472551e-21)
(-0.051300624 0.017343334 -3.9106734e-21)
(-0.05562099 0.016299711 -1.1643555e-21)
(-0.060005004 0.01527951 2.0163532e-21)
(-0.064435834 0.014281698 7.9670229e-22)
(-0.068899124 0.013302916 -3.8399469e-21)
(-0.073384963 0.012336687 1.0959888e-21)
(-0.077890523 0.011371626 1.5976884e-21)
(-0.082422381 0.010388726 4.3357068e-21)
(-0.086999864 0.0093580927 -8.4056755e-21)
(-0.091658491 0.0082324247 5.5669038e-21)
(-0.096445379 0.0069380241 1.4424225e-21)
(-0.10141764 0.0053726149 5.799475e-21)
(-0.10663471 0.0033961954 7.088929e-21)
(-0.11214744 0.00081643975 3.6163362e-22)
(-0.11796175 -0.0026209214 -1.6176107e-21)
(-0.12402557 -0.0072403431 1.178355e-20)
(-0.13011556 -0.01342663 5.0541559e-21)
(-0.13587215 -0.021594175 5.1876899e-21)
(-0.14048544 -0.032053332 1.7180145e-21)
(-0.14304271 -0.044793421 1.2927211e-20)
(-0.14162749 -0.059258019 -5.049475e-21)
(-0.13509396 -0.0733608 1.4068916e-21)
(-0.12069537 -0.083135004 1.0987951e-20)
(-0.10055535 -0.083899608 4.0165282e-21)
(-0.071181163 -0.070169256 -4.065284e-21)
(-0.042369486 -0.040763011 -1.2698951e-20)
(-0.0019299291 0.003932831 3.4180922e-21)
(0.024551142 0.055209482 5.258216e-21)
(0.070064896 0.095863469 1.7604494e-21)
(-1.9536533e-05 0.00019899143 1.5432863e-21)
(-6.2494363e-05 0.00061511044 -2.453963e-21)
(-0.00011265879 0.0010738926 8.8683788e-22)
(-0.00017164301 0.0015798387 -9.6337428e-23)
(-0.00024106158 0.0021377763 1.9032875e-21)
(-0.00032296047 0.0027527854 -1.9672072e-21)
(-0.00041979145 0.003430154 2.9806385e-21)
(-0.00053446155 0.0041753028 -1.4000078e-21)
(-0.00067042129 0.0049936768 -5.3135454e-21)
(-0.00083175813 0.0058905994 1.2744463e-21)
(-0.0010233019 0.0068710823 4.8407961e-21)
(-0.0012507408 0.0079395791 -1.4723714e-21)
(-0.0015207497 0.0090996762 -9.7800652e-23)
(-0.0018411266 0.010353707 3.8159438e-21)
(-0.0022209338 0.011702283 -1.1857951e-20)
(-0.002670637 0.013143729 7.2204733e-21)
(-0.0032022328 0.014673417 6.8191181e-23)
(-0.0038293473 0.016283 -3.9088251e-21)
(-0.0045672871 0.017959541 9.7903926e-21)
(-0.005433012 0.019684557 -4.546823e-21)
(-0.0064449892 0.021433013 -6.6589146e-21)
(-0.007622881 0.023172308 -2.643262e-21)
(-0.0089870008 0.024861359 1.2775246e-20)
(-0.010557468 0.026449955 6.5160004e-21)
(-0.012352997 0.027878736 -4.0957637e-21)
(-0.014389286 0.029080431 2.3257379e-21)
(-0.01667709 0.029983563 -8.4414032e-21)
(-0.019220256 0.030520433 2.3454234e-21)
(-0.022014285 0.030641077 -6.0819005e-21)
(-0.025046184 0.030331807 3.2882379e-21)
(-0.028296154 0.0296296 -1.9421755e-21)
(-0.031740918 0.028618332 6.7249265e-21)
(-0.035357385 0.027402918 -9.0802464e-22)
(-0.039124752 0.026077919 4.5441012e-21)
(-0.043024391 0.024710526 -4.1166618e-21)
(-0.047038594 0.023340785 -1.2678674e-21)
(-0.051149501 0.021989776 1.5100313e-20)
(-0.055338762 0.02066776 3.8392854e-21)
(-0.059587891 0.019379527 -3.1212303e-21)
(-0.06387918 0.018127097 3.0406306e-21)
(-0.068197162 0.016910517 -7.8844575e-22)
(-0.072530553 0.015727304 -4.9232542e-21)
(-0.076874849 0.01457068 2.2859424e-22)
(-0.081234526 0.013426846 1.7069633e-21)
(-0.085626797 0.012271578 -8.5450781e-22)
(-0.090084236 0.01106211 4.4975822e-22)
(-0.094649885 0.0097269106 1.2963329e-21)
(-0.09937718 0.0081630253 -2.0187477e-20)
(-0.10432069 0.0062254451 2.3237898e-21)
(-0.10952392 0.0037089626 -2.1726744e-21)
(-0.11498131 0.00033509575 2.0749937e-20)
(-0.12062144 -0.0042614958 -1.1464545e-20)
(-0.12618522 -0.010528181 -9.5644658e-21)
(-0.13125276 -0.018971133 -9.1412479e-21)
(-0.13490514 -0.030029396 -8.7403657e-21)
(-0.13605301 -0.043828494 -1.3432137e-20)
(-0.13248492 -0.059784397 2.6036701e-20)
(-0.12291463 -0.076024003 -1.5260262e-20)
(-0.10413377 -0.088109182 -2.1157561e-20)
(-0.078714379 -0.091082922 1.3768748e-20)
(-0.043314769 -0.078687831 3.8919732e-21)
(-0.0087395522 -0.050459042 3.2708663e-21)
(0.037579295 -0.0053921607 -1.1156851e-20)
(0.070736899 0.046015691 -8.3455147e-21)
(0.12789019 0.086194696 2.8236848e-22)
(-3.0715475e-05 0.00024109945 -1.0898454e-21)
(-9.6938237e-05 0.00074550608 3.6160669e-21)
(-0.00017262295 0.0013017273 -2.9466294e-21)
(-0.00025952107 0.0019150277 1.1129148e-21)
(-0.00035943582 0.0025910341 4.0180284e-22)
(-0.00047458003 0.0033356531 -3.4544033e-21)
(-0.0006075608 0.0041550192 8.7383182e-22)
(-0.00076142187 0.005055407 1.8532421e-21)
(-0.00093972189 0.0060431054 1.4191512e-22)
(-0.0011466154 0.0071242505 1.2035257e-21)
(-0.001386944 0.008304606 -1.681173e-21)
(-0.0016663346 0.009589281 1.1647733e-21)
(-0.0019913075 0.010982375 4.2761333e-21)
(-0.0023693888 0.012486535 1.2404573e-22)
(-0.0028092251 0.014102416 -3.2336167e-21)
(-0.0033206933 0.015828035 -2.27448e-21)
(-0.0039149956 0.017657997 1.9409243e-21)
(-0.0046047271 0.019582614 -1.8375092e-22)
(-0.0054038953 0.021586887 -3.6992515e-21)
(-0.0063278651 0.023649393 -4.4449226e-21)
(-0.0073931946 0.025741089 4.9898363e-21)
(-0.0086173151 0.027824092 4.9266573e-21)
(-0.010017999 0.02985055 -6.4893896e-21)
(-0.011612558 0.031761782 7.8461925e-21)
(-0.01341671 0.03348809 1.3256242e-20)
(-0.015443128 0.034949979 -3.0360557e-20)
(-0.017699756 0.03606217 1.6200339e-20)
(-0.02018826 0.036742599 -2.3198642e-20)
(-0.022903157 0.036928547 2.7869959e-20)
(-0.025832298 0.036598763 -2.9759823e-20)
(-0.028958818 0.035791807 2.9251766e-20)
(-0.032263924 0.034603774 -4.643751e-21)
(-0.035729251 0.033159094 -1.5160527e-20)
(-0.039337736 0.03157272 8.0588921e-21)
(-0.043073007 0.029928163 -2.3825193e-21)
(-0.046918287 0.028276466 -6.5655231e-22)
(-0.050855724 0.026645549 -7.8692756e-21)
(-0.054866363 0.02505008 -2.4957948e-21)
(-0.058930671 0.023498211 -2.4812659e-21)
(-0.063029499 0.021995148 -2.4115739e-21)
(-0.067145504 0.020544471 1.2277327e-20)
(-0.071265026 0.019147851 -5.4188738e-21)
(-0.075380518 0.017803338 -8.7668709e-22)
(-0.079492634 0.016502677 1.0224653e-20)
(-0.083614145 0.015227855 5.2755829e-21)
(-0.087771509 0.01394115 -2.629594e-21)
(-0.091999753 0.012573783 -9.8175471e-21)
(-0.096343295 0.011023443 4.3205695e-21)
(-0.10084525 0.0091406379 -1.298029e-20)
(-0.10553321 0.006707638 -7.1851072e-21)
(-0.11037901 0.0034213943 -1.0018121e-20)
(-0.1152775 -0.0011265982 -2.7433155e-20)
(-0.11991329 -0.0074510905 2.1360194e-20)
(-0.12377851 -0.016157944 -7.1128834e-21)
(-0.12580923 -0.027813307 1.196377e-20)
(-0.12472632 -0.042721937 1.1176332e-20)
(-0.11797814 -0.06042444 4.2796339e-21)
(-0.10400248 -0.079008373 3.6046363e-20)
(-0.079229872 -0.093565846 8.794783e-21)
(-0.046802526 -0.098864825 -1.7949015e-20)
(-0.0034965516 -0.087715185 -5.406355e-21)
(0.038932714 -0.060457612 3.6910978e-21)
(0.093281909 -0.015053756 6.0302255e-21)
(0.13606914 0.036227138 9.0463035e-21)
(0.20732456 0.075517683 -4.6339936e-22)
(-4.4127686e-05 0.00028036872 -3.331402e-21)
(-0.00013826839 0.00086715757 -1.1751584e-21)
(-0.00024457517 0.0015143487 9.5090758e-22)
(-0.00036495903 0.0022279308 3.5097161e-21)
(-0.00050144092 0.0030142875 -1.9217394e-21)
(-0.00065642442 0.0038801135 2.7636076e-21)
(-0.00083269228 0.0048323548 -1.1945314e-21)
(-0.0010334405 0.0058781112 -2.8417391e-22)
(-0.0012623448 0.0070244962 1.6058075e-21)
(-0.0015236267 0.0082784518 3.4542396e-21)
(-0.0018221279 0.009646504 1.7333191e-22)
(-0.002163388 0.01113445 -5.6493309e-21)
(-0.0025537279 0.012746963 7.789237e-21)
(-0.0030003352 0.014487101 -1.2524351e-20)
(-0.0035113468 0.016355703 3.2565071e-21)
(-0.0040959241 0.018350666 -6.8785438e-21)
(-0.0047643117 0.020466085 8.2548435e-21)
(-0.0055278661 0.022691251 -5.3155338e-21)
(-0.0063990392 0.025009507 8.306192e-22)
(-0.007391291 0.027396974 3.3309929e-21)
(-0.0085189017 0.029821172 -7.988555e-21)
(-0.0097966424 0.032239599 1.110068e-20)
(-0.011239256 0.034598363 -1.1862836e-20)
(-0.0128607 0.036831098 -2.003745e-21)
(-0.014673109 0.038858554 1.921757e-20)
(-0.01668551 0.040589709 -1.8979222e-20)
(-0.018902431 0.041925937 1.2016726e-20)
(-0.021322798 0.042770734 -1.3105472e-20)
(-0.023939735 0.043047667 -1.2239465e-21)
(-0.026741785 0.042725813 -7.3734735e-22)
(-0.029715273 0.04184233 4.6120198e-21)
(-0.032846566 0.040502743 -3.0688e-22)
(-0.036122952 0.038849554 1.5677656e-20)
(-0.039531977 0.037018212 -4.0017031e-21)
(-0.043060106 0.035109503 -1.1429359e-20)
(-0.046691746 0.033186488 5.0870419e-21)
(-0.050409011 0.031284675 -4.0244838e-21)
(-0.054192086 0.029423595 3.9562153e-21)
(-0.058019955 0.027614999 2.155914e-20)
(-0.061871416 0.025867411 -1.1810806e-20)
(-0.065726421 0.024188035 -2.8899012e-21)
(-0.069567835 0.022582799 1.6496835e-20)
(-0.073383558 0.021054762 -9.3888137e-22)
(-0.077168589 0.019601519 -2.0464012e-21)
(-0.080928755 0.01821166 -2.286005e-20)
(-0.084680468 0.016852975 -5.3734898e-21)
(-0.08844656 0.015460301 8.6383532e-21)
(-0.092256404 0.013933138 8.9682295e-21)
(-0.09613356 0.012118283 1.2992086e-20)
(-0.10007929 0.0097860991 1.6356653e-20)
(-0.10402899 0.0066089507 1.0153179e-20)
(-0.10782499 0.00213292 1.5827087e-20)
(-0.11106761 -0.0042290729 -5.3811746e-21)
(-0.11312451 -0.013192069 3.4193274e-20)
(-0.11274571 -0.025464505 2.4456514e-21)
(-0.10842069 -0.041555788 1.9153609e-21)
(-0.097229611 -0.061094514 1.1660556e-21)
(-0.077255683 -0.082246295 -3.9725529e-20)
(-0.044607738 -0.099411098 -1.3824024e-20)
(-0.0033395912 -0.10706489 1.8668573e-20)
(0.049396306 -0.097023218 2.1402273e-20)
(0.10115728 -0.070465984 8.0498057e-21)
(0.16446289 -0.024625403 2.1352896e-21)
(0.21783528 0.02602734 -1.1788122e-20)
(0.30354788 0.064494133 2.0350872e-21)
(-5.9461875e-05 0.00031590461 6.3146936e-22)
(-0.00018552847 0.00097730222 2.0056938e-21)
(-0.00032685398 0.0017069408 -4.8391732e-21)
(-0.00048552802 0.0025114813 1.7973877e-22)
(-0.0006638144 0.0033980082 2.3536768e-21)
(-0.00086432853 0.004373953 1.0367438e-21)
(-0.001090047 0.0054470266 7.648713e-22)
(-0.0013443325 0.0066251147 -1.5055976e-21)
(-0.0016309867 0.0079161275 7.7841571e-21)
(-0.0019543003 0.0093278001 -5.8640666e-21)
(-0.0023191072 0.010867429 2.8325895e-22)
(-0.0027308401 0.012541536 3.5335569e-21)
(-0.0031955864 0.014355438 -1.317949e-20)
(-0.0037201421 0.016312717 1.3087751e-20)
(-0.0043120592 0.018414563 -1.7350562e-21)
(-0.0049796817 0.020658988 -1.0681844e-20)
(-0.0057321622 0.023039884 9.9791338e-21)
(-0.0065794478 0.025545918 -3.4594906e-21)
(-0.0075322209 0.02815927 6.6609752e-21)
(-0.008601775 0.030854211 -8.4558652e-21)
(-0.0097997974 0.033595545 -1.567623e-20)
(-0.011138027 0.036336979 1.5289534e-20)
(-0.012627747 0.039019525 2.2028466e-20)
(-0.01427907 0.041570142 -4.1678984e-20)
(-0.016100003 0.043901074 3.2704982e-20)
(-0.018095339 0.045910739 -1.8531584e-20)
(-0.02026557 0.04748786 4.6450278e-21)
(-0.022606265 0.048521597 -1.065986e-20)
(-0.025108599 0.04892084 1.0525557e-20)
(-0.027761424 0.048642563 1.3667352e-20)
(-0.030554219 0.047718842 -8.6707228e-21)
(-0.033478956 0.046260916 -1.3716016e-20)
(-0.036529418 0.044427156 1.1288157e-21)
(-0.039698677 0.042373308 4.3969112e-22)
(-0.042976735 0.040218463 7.5238522e-21)
(-0.04634952 0.03803895 -3.1296583e-21)
(-0.049799125 0.03587882 -1.1021836e-20)
(-0.053304633 0.033763047 -5.4083771e-21)
(-0.056843089 0.031707278 8.1198866e-21)
(-0.060390575 0.029723485 -6.3291633e-21)
(-0.063923439 0.027822547 5.3952188e-21)
(-0.067419872 0.026014692 -1.7613226e-21)
(-0.070861589 0.024308107 -6.9538186e-21)
(-0.074235878 0.022706516 1.7008604e-20)
(-0.077538713 0.021205261 1.0239996e-20)
(-0.080772222 0.019778091 6.8575272e-21)
(-0.083941993 0.018364598 -2.2064847e-20)
(-0.087055295 0.01686698 -1.4606839e-20)
(-0.090106095 0.015129312 -1.7426189e-20)
(-0.093056054 0.012910961 -3.0923746e-20)
(-0.095785736 0.0098599835 1.0938556e-20)
(-0.098058245 0.0054747448 -2.3388718e-21)
(-0.099348136 -0.00090780013 -1.854251e-20)
(-0.098847719 -0.010116395 -5.4598531e-20)
(-0.095069848 -0.023005581 -3.573112e-20)
(-0.08621011 -0.040313779 -1.3799581e-20)
(-0.068885146 -0.061781381 -3.848536e-20)
(-0.040785893 -0.085635559 2.4768681e-20)
(0.0021577271 -0.10534747 -2.2417716e-21)
(0.054550679 -0.11507935 -3.0388031e-20)
(0.11804247 -0.10586389 -1.658606e-20)
(0.17996427 -0.079623932 -8.5355031e-22)
(0.25200586 -0.033311075 1.4235237e-20)
(0.31520268 0.016215253 -1.2283515e-21)
(0.41414108 0.054019481 1.5269957e-21)
(-7.6299213e-05 0.00034684867 2.5029239e-21)
(-0.00023744155 0.0010732854 -1.6874051e-21)
(-0.00041723561 0.0018748754 2.2785407e-21)
(-0.00061797797 0.0027588838 1.2944753e-21)
(-0.00084219063 0.0037330281 -3.6101492e-21)
(-0.0010927187 0.004805412 -3.3678272e-21)
(-0.0013727481 0.0059844521 3.4527186e-21)
(-0.0016858212 0.0072787692 -4.1516826e-22)
(-0.0020358749 0.0086970321 -9.602142e-23)
(-0.0024272727 0.010247749 -6.8114537e-21)
(-0.002864839 0.01193899 7.4501046e-22)
(-0.0033538884 0.013778035 1.367434e-20)
(-0.0039002535 0.015770921 -1.0901267e-20)
(-0.0045103038 0.017921879 3.74038e-22)
(-0.0051909551 0.02023264 7.2487476e-21)
(-0.0059496628 0.022701595 6.2027938e-22)
(-0.006794392 0.025322785 -1.5681987e-21)
(-0.007733556 0.028084716 -7.0139982e-21)
(-0.0087759095 0.030968983 1.2737192e-20)
(-0.0099303807 0.033948717 -2.2166078e-20)
(-0.011205821 0.036986856 4.721652e-21)
(-0.012610641 0.040034319 -3.4237523e-21)
(-0.014152312 0.04302815 2.7662762e-21)
(-0.015836689 0.045889888 -1.1834394e-22)
(-0.017667175 0.048524574 1.5835554e-20)
(-0.019643786 0.050821323 1.5452184e-20)
(-0.021762366 0.052657203 -2.9890988e-20)
(-0.024014461 0.053907397 -4.8517339e-21)
(-0.026388577 0.05446528 1.6364293e-20)
(-0.028873221 0.054273131 5.6040138e-21)
(-0.031460627 0.053353655 1.2260483e-20)
(-0.034148489 0.051819097 -1.317665e-20)
(-0.036937753 0.04984054 -5.5006888e-21)
(-0.039827967 0.04759332 1.2116288e-20)
(-0.042813484 0.04521584 -4.8406356e-21)
(-0.045882222 0.042799175 -2.2802176e-21)
(-0.049016348 0.040397111 6.2336219e-21)
(-0.052193619 0.038040806 1.5996371e-20)
(-0.055388676 0.03575018 4.8155771e-21)
(-0.058574176 0.033540789 -3.1604646e-21)
(-0.061721887 0.031427203 -7.4873897e-21)
(-0.064804003 0.02942392 -7.8170257e-21)
(-0.06779429 0.027544291 -8.757371e-21)
(-0.070669966 0.025798326 -1.861971e-20)
(-0.07341373 0.024188122 5.2685367e-22)
(-0.076008818 0.022693756 -8.0981407e-21)
(-0.078437438 0.02126068 4.5505945e-20)
(-0.080676008 0.019794569 1.2825677e-20)
(-0.082676203 0.018137755 1.4951416e-20)
(-0.084342344 0.01603976 4.2191568e-20)
(-0.085474533 0.01312469 -5.0269036e-20)
(-0.085716635 0.0088405301 1.1385679e-20)
(-0.084355859 0.0024473239 3.7010642e-20)
(-0.080339748 -0.0069962222 4.5413454e-20)
(-0.071857687 -0.020486272 5.5267609e-21)
(-0.056678992 -0.03900901 -1.4587201e-20)
(-0.030779859 -0.062393613 -2.2344686e-20)
(0.0086192377 -0.088884469 9.0287893e-21)
(0.065298834 -0.11082604 -1.3433662e-20)
(0.13201579 -0.12183299 9.2499127e-21)
(0.20771053 -0.11260673 2.2283227e-21)
(0.28000006 -0.085963779 4.6775627e-21)
(0.35925858 -0.039001178 -1.7597458e-20)
(0.43031311 0.0087933697 -9.9436012e-23)
(0.53996578 0.045898163 -6.9247874e-21)
(-9.4122523e-05 0.00037242784 -2.3604757e-21)
(-0.00029243549 0.0011527064 -6.319764e-22)
(-0.00051297784 0.0020139621 6.9405394e-22)
(-0.00075829992 0.0029639776 3.4095128e-21)
(-0.0010311825 0.0040110248 -4.0861358e-21)
(-0.0013347144 0.0051638013 3.4666367e-21)
(-0.001672303 0.0064313567 1.6550419e-21)
(-0.0020476811 0.0078229834 -8.8555825e-23)
(-0.0024649296 0.0093480585 -1.3927256e-21)
(-0.0029284918 0.011015831 -7.9039069e-21)
(-0.0034431855 0.012835141 1.3235762e-20)
(-0.0040142068 0.014814056 -1.5851233e-20)
(-0.0046471267 0.016959404 4.6360839e-21)
(-0.0053478747 0.019276196 6.2623023e-21)
(-0.0061227078 0.021766903 -9.5489455e-21)
(-0.0069781582 0.024430578 1.8693881e-20)
(-0.0079209544 0.027261797 -2.2475692e-20)
(-0.0089579078 0.030249409 -3.5158148e-22)
(-0.010095754 0.033375068 -1.2628504e-20)
(-0.011340936 0.036611561 4.9522502e-20)
(-0.012699313 0.039920929 -1.1831978e-20)
(-0.014175769 0.043252438 -4.825985e-20)
(-0.01577371 0.046540484 2.2448538e-20)
(-0.017494422 0.04970265 2.6333413e-20)
(-0.019336318 0.052638345 -6.4964616e-21)
(-0.021294165 0.055228945 -3.3367161e-20)
(-0.023358584 0.057341203 4.9446599e-20)
(-0.025516382 0.058837039 -5.3537954e-20)
(-0.027752542 0.059593764 4.0991677e-20)
(-0.030054263 0.059536422 -7.5951871e-21)
(-0.03241571 0.058673617 1.2583788e-20)
(-0.034839963 0.05711291 1.7193417e-20)
(-0.037335527 0.055033756 -6.3980117e-21)
(-0.039909329 0.052629602 -1.5424374e-21)
(-0.042561022 0.050058992 -2.1751963e-20)
(-0.04528114 0.04742941 3.9922042e-21)
(-0.048052128 0.044805843 -1.0067336e-20)
(-0.050850252 0.042226575 8.4038937e-21)
(-0.053647275 0.039716277 -4.7729866e-21)
(-0.056411674 0.037294251 -3.1572846e-21)
(-0.059109579 0.034978737 -2.741898e-21)
(-0.061705725 0.03278839 -2.682402e-21)
(-0.06416396 0.030741641 1.6612832e-20)
(-0.066448742 0.028854775 1.3392654e-20)
(-0.068525397 0.027136498 -3.820975e-21)
(-0.070353136 0.025573417 2.5405487e-21)
(-0.071883165 0.024117767 -1.0428045e-20)
(-0.073049905 0.022679199 2.153333e-20)
(-0.073746045 0.021099129 2.5667121e-20)
(-0.073794067 0.01911839 7.6452764e-21)
(-0.072876341 0.016337092 1.9958008e-20)
(-0.070455956 0.012150253 -6.2461667e-22)
(-0.065546572 0.0057449217 -9.7144949e-21)
(-0.056749817 -0.0039248579 -4.8817814e-20)
(-0.04176239 -0.017983364 2.4285363e-20)
(-0.017658561 -0.037667524 -1.0074896e-20)
(0.020562725 -0.062805315 2.6209392e-20)
(0.076314064 -0.09148159 -4.0429666e-20)
(0.15181156 -0.11459003 2.0183855e-20)
(0.23773769 -0.12490968 -5.2157437e-21)
(0.32762004 -0.11415856 2.898658e-23)
(0.40982913 -0.085939854 -2.7525922e-21)
(0.49318844 -0.038204367 -5.7374333e-21)
(0.56889947 0.0069302796 1.3889082e-20)
(0.68456101 0.04366506 -1.210325e-20)
(-0.00011234093 0.00039197396 5.296065e-21)
(-0.00034866161 0.0012134986 3.6417642e-21)
(-0.00061088113 0.0021205855 -5.7148995e-21)
(-0.00090180991 0.0031214419 1.5038701e-22)
(-0.0012244945 0.0042248012 5.1619539e-21)
(-0.0015822742 0.0054398636 2.6973615e-21)
(-0.0019787856 0.006776226 -5.6802622e-21)
(-0.00241796 0.0082437753 9.3185773e-22)
(-0.0029040306 0.009852533 -1.3121932e-20)
(-0.0034415297 0.011612445 2.5536361e-21)
(-0.0040352781 0.013533103 6.5427482e-23)
(-0.0046903633 0.015623378 -9.3559312e-21)
(-0.0054121049 0.017890957 2.9901566e-20)
(-0.0062060025 0.020341752 -1.3888711e-20)
(-0.007077663 0.02297917 -2.4789534e-20)
(-0.0080327022 0.025803215 2.6296435e-20)
(-0.0090766147 0.028809399 -3.2216174e-21)
(-0.010214606 0.031987441 1.8173022e-20)
(-0.011451377 0.035319736 1.3398089e-20)
(-0.012790856 0.038779581 -4.178202e-20)
(-0.014235853 0.042329167 3.1060296e-20)
(-0.015787639 0.045917362 -4.0436011e-20)
(-0.017445424 0.049477376 4.6896968e-21)
(-0.019205735 0.0529245 -1.8910593e-20)
(-0.021061723 0.056154333 4.0473278e-20)
(-0.023002535 0.059042386 -9.4325368e-21)
(-0.02501305 0.061446821 -2.3370244e-20)
(-0.027074622 0.063217461 5.5261968e-20)
(-0.029167726 0.064215474 -2.3402392e-20)
(-0.031277005 0.064346447 -2.4504032e-20)
(-0.033397239 0.063599996 1.9562368e-20)
(-0.035536004 0.062072389 2.5339502e-21)
(-0.037709326 0.059945745 -1.210846e-20)
(-0.039932282 0.057429027 6.3975507e-21)
(-0.042210876 0.054701339 -9.4268885e-21)
(-0.044539078 0.051888352 3.1886503e-20)
(-0.046899966 0.049068008 -1.6277977e-20)
(-0.049268235 0.046286907 -9.5828152e-21)
(-0.051612306 0.04357509 -1.9449856e-20)
(-0.053895678 0.040955811 -2.6707803e-21)
(-0.05607768 0.038450916 2.052916e-20)
(-0.058113949 0.03608302 -8.3395427e-21)
(-0.059956198 0.033875388 -1.2407454e-20)
(-0.061553005 0.031850302 -1.878054e-21)
(-0.062847312 0.030022872 1.2684042e-20)
(-0.06376845 0.028386085 1.1408664e-20)
(-0.064226824 0.026899459 -3.5386975e-20)
(-0.06410031 0.025476641 -1.9110699e-20)
(-0.063199893 0.023958511 -4.2335841e-20)
(-0.06123129 0.022077911 -1.5156669e-20)
(-0.057702717 0.019410138 -6.0374874e-21)
(-0.051805408 0.015296674 -4.5328636e-20)
(-0.042165471 0.0088592291 -1.7766596e-20)
(-0.026866137 -0.0010422105 6.0409058e-20)
(-0.0027831083 -0.01563162 -4.8151482e-20)
(0.0342373 -0.036351328 4.2578458e-20)
(0.090744908 -0.062885075 -1.9512396e-20)
(0.17087059 -0.092373615 8.3559619e-20)
(0.27306802 -0.11484633 3.4744178e-20)
(0.38422237 -0.12144406 -1.0231823e-20)
(0.49018911 -0.10559022 -1.1419126e-20)
(0.57995696 -0.07375553 -1.4508195e-20)
(0.66136912 -0.02523512 -1.1751124e-21)
(0.73600036 0.015795855 -1.8432792e-21)
(0.84824436 0.050856272 1.5637721e-20)
(-0.00013029814 0.00040499284 9.6456627e-23)
(-0.00040409736 0.0012541274 -6.8626709e-21)
(-0.00070742841 0.0021920552 8.0868201e-21)
(-0.0010433601 0.0032273051 3.8895715e-21)
(-0.0014152039 0.0043689667 -7.7852582e-21)
(-0.0018265505 0.0056266396 -2.5195771e-21)
(-0.0022812673 0.0070103687 1.2207415e-20)
(-0.0027834882 0.0085305431 -1.3120257e-20)
(-0.0033376064 0.010197749 -2.7635373e-21)
(-0.0039482534 0.01202257 -1.0972413e-20)
(-0.0046202684 0.01401531 2.9069211e-20)
(-0.0053586507 0.016185648 3.5282613e-22)
(-0.0061684954 0.018542171 -2.5941175e-20)
(-0.0070549061 0.021091799 2.7730516e-20)
(-0.0080228816 0.023839056 -1.9751623e-20)
(-0.0090771712 0.026785171 -7.2808013e-21)
(-0.010222093 0.029926978 1.5105629e-20)
(-0.011461312 0.033255591 -1.3520891e-20)
(-0.012797562 0.036754834 -1.7839268e-20)
(-0.014232322 0.040399389 3.7394909e-22)
(-0.015765413 0.044152685 2.7509807e-20)
(-0.017394532 0.047964513 -1.6797145e-20)
(-0.0191147 0.051768471 9.2327079e-21)
(-0.020917634 0.055479374 4.3946785e-20)
(-0.022791099 0.058991049 1.4472348e-20)
(-0.024718376 0.062175318 -3.8609707e-20)
(-0.02667818 0.064883878 3.791157e-21)
(-0.028645733 0.066956158 -4.1960783e-20)
(-0.03059595 0.068237764 2.427897e-20)
(-0.032509419 0.068613242 -1.2530575e-20)
(-0.034379753 0.068048565 1.7653831e-20)
(-0.03621745 0.066621437 4.1827909e-21)
(-0.038045382 0.064509467 -2.0209103e-20)
(-0.03988723 0.061933035 2.0058659e-20)
(-0.041756443 0.059091445 2.849859e-20)
(-0.043651461 0.056130287 -2.5887644e-21)
(-0.045556578 0.053142476 -2.8945273e-20)
(-0.047444952 0.050184411 3.6348184e-20)
(-0.04928124 0.0472923 -7.7259257e-21)
(-0.051023113 0.044493625 1.6524818e-20)
(-0.052621808 0.041813757 -2.5925754e-21)
(-0.054021993 0.039278957 2.6141257e-20)
(-0.055160709 0.036916899 1.2694968e-20)
(-0.055966842 0.034755284 1.6248015e-20)
(-0.05635507 0.032815086 -6.6983441e-20)
(-0.056217292 0.031095431 -2.2490492e-20)
(-0.055410617 0.029562685 3.0523301e-20)
(-0.053736567 0.028133712 -2.5534105e-20)
(-0.050892545 0.026648337 -2.1894206e-20)
(-0.046415755 0.024830944 2.5196405e-20)