/*--------------------------------*- C++ -*----------------------------------*\
  =========                 |
  \\      /  F ield         | OpenFOAM: The Open Source CFD Toolbox
   \\    /   O peration     | Website:  https://openfoam.org
    \\  /    A nd           | Version:  13
     \\/     M anipulation  |
\*---------------------------------------------------------------------------*/
FoamFile
{
    format      ascii;
    class       volScalarField;
    location    "6.99846";
    object      k;
}
// * * * * * * * * * * * * * * * * * * * * * * * * * * * * * * * * * * * * * //

dimensions      [0 2 -2 0 0 0 0];

internalField   nonuniform List<scalar> 
17140
(
2.6909002e-11
8.4557274e-10
6.9144496e-09
2.9735514e-08
9.1498669e-08
2.3086398e-07
5.1183357e-07
1.0369559e-06
1.9666863e-06
3.5474383e-06
6.1517276e-06
1.0334796e-05
1.6913007e-05
2.7069711e-05
4.2493136e-05
6.5546428e-05
9.9458847e-05
0.00014850431
0.00021809237
0.00031463175
0.00044494246
0.00061491962
0.00082717637
0.0010776644
0.0013519448
0.0016228093
0.0018518677
0.0019870228
0.002037229
0.0020370327
0.0019872035
0.0019181527
0.001847695
0.0017816791
0.0017204221
0.0016633294
0.0016100568
0.0015604791
0.0015146375
0.0014726921
0.001434856
0.0014013481
0.0013722117
0.0013465236
0.00132134
0.0012964946
0.0012846182
0.0012828018
0.0013106323
0.0013460696
0.0014054169
0.0014688738
0.0015432207
0.0016145195
0.0016836992
0.0017216611
0.0017514059
0.0017485193
0.0016265378
0.0014508407
0.001254984
0.0010664907
0.00089856924
0.00076340655
0.00064374123
2.6602708e-11
8.35948e-10
6.8357635e-09
2.9397269e-08
9.0458452e-08
2.2824114e-07
5.0602339e-07
1.0251965e-06
1.9444118e-06
3.5073255e-06
6.0823136e-06
1.0218506e-05
1.6723402e-05
2.6767745e-05
4.2022264e-05
6.4826564e-05
9.8379572e-05
0.00014691855
0.00021581313
0.00031143677
0.00044059387
0.0006092077
0.00081999416
0.0010691105
0.0013424323
0.001613138
0.0018432008
0.0019808596
0.0020325943
0.0020337231
0.0019850508
0.0019163699
0.0018459547
0.0017799034
0.0017186164
0.0016615205
0.0016082709
0.001558738
0.001512982
0.0014711944
0.0014336292
0.0014005742
0.0013720611
0.0013469548
0.0013216457
0.0012943617
0.0012808346
0.0012771119
0.0012929995
0.0013140931
0.0013463951
0.0013704128
0.0013911275
0.0013985481
0.0013985217
0.0013761676
0.0013415597
0.0013184267
0.0012120859
0.0010896323
0.00095986755
0.00082274218
0.00068803033
0.00056697909
0.00045923777
2.5880285e-11
8.1324701e-10
6.6501329e-09
2.8598986e-08
8.8002218e-08
2.2204445e-07
4.9228805e-07
9.9737918e-07
1.8916837e-06
3.4123002e-06
5.9177453e-06
9.9425722e-06
1.6273106e-05
2.6049927e-05
4.0901822e-05
6.311185e-05
9.58059e-05
0.00014313267
0.00021036494
0.0003037897
0.00043017166
0.00059549955
0.00080273612
0.0010485378
0.001319552
0.0015899156
0.0018225192
0.0019665949
0.0020225126
0.0020265515
0.0019805462
0.0019126171
0.0018423565
0.0017762985
0.0017149607
0.0016577806
0.0016044453
0.0015549128
0.0015092779
0.0014677755
0.0014306919
0.0013985217
0.0013713376
0.0013473075
0.001321244
0.0012847083
0.0012646512
0.0012529351
0.0012484023
0.0012434639
0.0012358242
0.0012179347
0.001182404
0.0011223551
0.0010437394
0.00096364866
0.00085296959
0.00080260273
0.0007329032
0.00066980105
0.00060722982
0.00053137229
0.00045357586
0.00037817827
0.000317128
2.4748635e-11
7.7768674e-10
6.3593501e-09
2.7348508e-08
8.4154633e-08
2.1233763e-07
4.707723e-07
9.5380451e-07
1.8090865e-06
3.2634424e-06
5.6599377e-06
9.5102758e-06
1.556757e-05
2.4925067e-05
3.9145658e-05
6.0423436e-05
9.176912e-05
0.00013719128
0.00020180857
0.00029176868
0.00041376872
0.00057389393
0.00077549009
0.0010160009
0.0012833046
0.0015530836
0.0017897288
0.0019442661
0.0020073933
0.0020161104
0.0019736108
0.001907009
0.0018368396
0.0017705054
0.0017088503
0.0016513971
0.0015978445
0.0015482478
0.0015029331
0.0014623289
0.0014270151
0.0013973235
0.0013728037
0.0013513031
0.0013267588
0.001290899
0.0012734383
0.001263145
0.0012554546
0.0012459089
0.0012295753
0.0011977782
0.0011372183
0.001048902
0.00092840021
0.00080870678
0.00065854031
0.00057273754
0.00051721737
0.00047894486
0.00044271644
0.00039509287
0.00034545723
0.00030130191
0.0002687444
2.3232574e-11
7.3004702e-10
5.9697915e-09
2.5673252e-08
7.9000005e-08
1.9933315e-07
4.4194629e-07
8.9542225e-07
1.6984137e-06
3.0639665e-06
5.3144148e-06
8.9307775e-06
1.4621518e-05
2.341613e-05
3.6788544e-05
5.6812298e-05
8.6341178e-05
0.00012919109
0.0001902654
0.00027551016
0.00039150806
0.00054443901
0.00073811737
0.00097099324
0.0012325526
0.0015005194
0.0017412733
0.0019093229
0.0019849716
0.0019994071
0.0019632586
0.0018988666
0.0018287899
0.0017618633
0.0016994655
0.0016415746
0.0015880867
0.0015391594
0.0014951566
0.0014566463
0.001424218
0.001398021
0.0013774686
0.0013605558
0.00133737
0.0013104381
0.0013004984
0.0012979793
0.0013028256
0.0013166048
0.0013271817
0.0013331172
0.0012806666
0.0011385159
0.00093998286
0.00077170967
0.00058414489
0.00046729663
0.0004116414
0.00038038627
0.00035527901
0.00032706885
0.00029551041
0.00027201498
0.00025301238
2.1387761e-11
6.7207683e-10
5.4957588e-09
2.3634717e-08
7.2727557e-08
1.8350837e-07
4.0686803e-07
8.2437466e-07
1.5637243e-06
2.8211825e-06
4.8938216e-06
8.2252408e-06
1.346939e-05
2.1577799e-05
3.3915334e-05
5.2407215e-05
7.9713115e-05
0.00011940865
0.00017612476
0.00025554488
0.00036408607
0.00050800809
0.00069165816
0.0009146896
0.0011685682
0.0014335957
0.0016787344
0.00186267
0.0019536211
0.0019763781
0.0019481855
0.0018873949
0.0018175497
0.0017499038
0.0016872979
0.0016295997
0.0015767991
0.0015291625
0.0014872449
0.0014516101
0.001422614
0.001400811
0.0013862251
0.0013764247
0.0013616887
0.0013544287
0.0013594088
0.0013859325
0.0014312689
0.0014959705
0.0015519372
0.0015789713
0.0015493335
0.0013516905
0.0010522011
0.00076464988
0.00053482312
0.00039164697
0.00033640107
0.00031286442
0.00030359629
0.00029164702
0.00027338528
0.00026157624
0.00024746269
1.9275919e-11
6.0571565e-10
4.9531105e-09
2.1301092e-08
6.5547034e-08
1.6539217e-07
3.6670889e-07
7.4303114e-07
1.4095013e-06
2.5431482e-06
4.4120595e-06
7.4168487e-06
1.2148731e-05
1.9469288e-05
3.0617089e-05
4.7344672e-05
7.2083875e-05
0.00010812468
0.00015976714
0.00023236137
0.00033208229
0.00046520393
0.00063658339
0.00084714457
0.0010905382
0.0013499904
0.0015974465
0.0017976336
0.0019096432
0.0019449376
0.0019278701
0.0018722417
0.0018038293
0.0017362324
0.0016735623
0.0016162342
0.0015643601
0.0015183061
0.0014785451
0.0014454116
0.0014212918
0.0014086593
0.0014050571
0.0014073502
0.0014100867
0.0014248122
0.0014628783
0.0015239868
0.0016052879
0.0017062791
0.0017972178
0.0018419418
0.0018255285
0.0015394614
0.0011329808
0.0007614847
0.00048049462
0.00033436844
0.00028806588
0.00027578333
0.00027674781
0.00027338822
0.00026401184
0.00025760269
0.0002425852
1.6983315e-11
5.3367431e-10
4.364013e-09
1.8767703e-08
5.7751758e-08
1.4572458e-07
3.2310914e-07
6.5471342e-07
1.2420403e-06
2.241206e-06
3.8887621e-06
6.538494e-06
1.0713151e-05
1.717589e-05
2.7026564e-05
4.182701e-05
6.3755432e-05
9.577991e-05
0.00014182011
0.00020682822
0.00029665963
0.00041752386
0.00057473812
0.00077053434
0.001000958
0.0012526198
0.0015011589
0.0017140311
0.0018512932
0.0019035064
0.0019016349
0.0018539461
0.0017881939
0.0017209617
0.0016583308
0.0016014289
0.001550454
0.0015056702
0.0014672123
0.0014389368
0.0014255319
0.0014216986
0.0014284221
0.0014495752
0.0014693974
0.0015108534
0.0015760332
0.0016629488
0.0017722142
0.0019067764
0.0020326038
0.0020932823
0.0020357519
0.0016425936
0.001163461
0.00071222847
0.00041754128
0.00028725365
0.00025277337
0.00025254655
0.00026353786
0.00026331707
0.0002599241
0.00025293868
0.00023317674
1.4602115e-11
4.5884886e-10
3.7521466e-09
1.6136383e-08
4.9655048e-08
1.2529597e-07
2.7782044e-07
5.6296814e-07
1.0680615e-06
1.9274603e-06
3.3448755e-06
5.6252559e-06
9.2197975e-06
1.4788479e-05
2.3285097e-05
3.6069417e-05
5.5048369e-05
8.2840832e-05
0.00012294426
0.00017985048
0.00025900589
0.00036643734
0.00050778641
0.0006864772
0.00090092345
0.0011412547
0.001387069
0.0016087049
0.0017713593
0.0018517942
0.0018664915
0.0018315104
0.0017709609
0.0017050097
0.0016425319
0.0015859486
0.0015357461
0.0014921929
0.0014566184
0.0014375412
0.0014312204
0.0014334054
0.0014562246
0.0014949391
0.0015302066
0.001595298
0.0016799594
0.0017861007
0.0019167478
0.002076128
0.0022251976
0.0022957342
0.0021436122
0.0016730886
0.0011049722
0.00062666914
0.0003529433
0.00025298311
0.00023504742
0.00024173795
0.00025805793
0.0002588987
0.0002554645
0.00024490243
0.00021729241
1.2225845e-11
3.8417827e-10
3.1415442e-09
1.3510474e-08
4.1574879e-08
1.0490857e-07
2.3262105e-07
4.7139696e-07
8.9439227e-07
1.6142165e-06
2.8017131e-06
4.7128759e-06
7.7270061e-06
1.2400061e-05
1.9537875e-05
3.0294073e-05
4.6296037e-05
6.9797314e-05
0.00010384306
0.00015241121
0.00022044981
0.00031366513
0.00043783474
0.00059736509
0.00079289534
0.0010181559
0.0012571828
0.0014841362
0.0016682634
0.0017802555
0.00181999
0.0018034362
0.0017506899
0.0016867993
0.0016247027
0.0015684355
0.0015189259
0.001476783
0.0014473445
0.0014343779
0.0014316279
0.0014454696
0.0014799895
0.0015299295
0.0015816765
0.0016667215
0.0017672273
0.0018898865
0.0020382191
0.0022107999
0.0023301846
0.0023744537
0.0021431393
0.0015615889
0.00097298446
0.00052064946
0.00029289318
0.0002283956
0.0002237723
0.00023876268
0.00025476713
0.00025482128
0.00024735642
0.00022788044
0.00019976043
9.9458769e-12
3.1253377e-10
2.5556843e-09
1.0990945e-08
3.3821933e-08
8.5346306e-08
1.8924904e-07
3.8352119e-07
7.2771133e-07
1.3135213e-06
2.2801647e-06
3.8364444e-06
6.2921869e-06
1.0102474e-05
1.5928926e-05
2.4722789e-05
3.7834114e-05
5.7148421e-05
8.5244408e-05
0.00012554918
0.000182435
0.00026114739
0.0003673782
0.00050622111
0.00068024744
0.00088667573
0.001114293
0.0013419257
0.0015411141
0.0016831072
0.0017525863
0.0017624398
0.0017272603
0.0016701791
0.0016089984
0.0015525125
0.0015032687
0.0014625985
0.0014375355
0.0014280991
0.0014285476
0.0014471121
0.001493751
0.0015546941
0.0016226978
0.0017209129
0.0018340894
0.0019690857
0.0021236261
0.0022748359
0.0023537688
0.0022865908
0.0019804303
0.0013620254
0.00080152062
0.00040962632
0.00025142758
0.00021324393
0.00021906992
0.0002415651
0.00025150993
0.00024835431
0.00023058679
0.00020934879
0.00018374861
7.8428515e-12
2.464494e-10
2.0152913e-09
8.6669424e-09
2.667055e-08
6.7301386e-08
1.4923923e-07
3.0245118e-07
5.7392044e-07
1.0360276e-06
1.7987224e-06
3.027072e-06
4.9663522e-06
7.9775788e-06
1.2587186e-05
1.9555303e-05
2.9967283e-05
4.5351917e-05
6.7825218e-05
0.00010024752
0.00014635876
0.00021081523
0.00029898581
0.00041628345
0.00056675095
0.00075070617
0.00096168602
0.0011838891
0.0013925011
0.0015593106
0.0016630533
0.0017013691
0.0016882021
0.0016430554
0.0015867728
0.0015317104
0.0014833136
0.0014442036
0.0014219828
0.0014148406
0.0014188954
0.0014417238
0.0014902941
0.0015543049
0.001634196
0.001745001
0.0018687097
0.002005314
0.0021446725
0.0022570224
0.002252806
0.0021252138
0.0016946628
0.0011201052
0.00062477982
0.00031464115
0.00022060664
0.00020547386
0.00021733711
0.00024339302
0.00024507437
0.00023595196
0.00021009793
0.00019139538
0.00016967945
5.9802868e-12
1.8792117e-10
1.5366874e-09
6.6086651e-09
2.0336768e-08
5.1319063e-08
1.1380103e-07
2.3063899e-07
4.3767553e-07
7.9014798e-07
1.3720119e-06
2.3094182e-06
3.7900622e-06
6.0907441e-06
9.6162394e-06
1.4953396e-05
2.2945024e-05
3.4788036e-05
5.2158282e-05
7.7358198e-05
0.00011346888
0.00016445929
0.00023515485
0.00033089289
0.00045660951
0.00061507976
0.00080423146
0.0010141111
0.0012252658
0.0014112779
0.0015470137
0.0016197859
0.0016339837
0.0016068263
0.0015582732
0.0015061792
0.0014586694
0.0014206733
0.0013986275
0.0013916577
0.0013977202
0.0014248723
0.0014752086
0.0015418457
0.0016253639
0.0017372718
0.0018611151
0.0019930351
0.0021167647
0.002162338
0.0020990663
0.0018870635
0.0013933735
0.00089008726
0.00046413686
0.00025494656
0.00020101955
0.00020252409
0.00022494475
0.00023929141
0.00023532839
0.00021485133
0.00019217322
0.00017721609
0.00015836215
4.3993588e-12
1.3824294e-10
1.1304527e-09
4.8616141e-09
1.4960635e-08
3.7752892e-08
8.3719001e-08
1.6967642e-07
3.2200239e-07
5.8135889e-07
1.0095773e-06
1.6996332e-06
2.7900181e-06
4.4853175e-06
7.0854597e-06
1.1026885e-05
1.6939714e-05
2.5725573e-05
3.8660363e-05
5.7523501e-05
8.4747263e-05
0.00012356209
0.00017807923
0.00025319368
0.00035410772
0.00048519683
0.00064796048
0.00083812546
0.0010428447
0.0012402383
0.0014042032
0.0015138966
0.0015624793
0.001559627
0.0015266988
0.0014786236
0.0014324226
0.0013942874
0.0013704515
0.0013619993
0.0013672989
0.0013920071
0.0014405134
0.0015083371
0.0015947365
0.0017041995
0.0018226993
0.0019420242
0.0020275127
0.0020035741
0.001892408
0.0015756467
0.0011328578
0.00067575727
0.00033188732
0.00021557061
0.00019153611
0.00020105372
0.00022774849
0.00023008757
0.00021789544
0.00019436575
0.00017720741
0.00016449414
0.00014897082
3.1162659e-12
9.792372e-11
8.0074984e-10
3.4436939e-09
1.0597283e-08
2.6742163e-08
5.9302638e-08
1.2019273e-07
2.2810112e-07
4.1184337e-07
7.1525204e-07
1.2042748e-06
1.9772301e-06
3.1795565e-06
5.024911e-06
7.8251519e-06
1.2032563e-05
1.8298528e-05
2.7553431e-05
4.1112033e-05
6.0805303e-05
8.9130518e-05
0.00012939111
0.00018575861
0.00026312406
0.00036651768
0.00049980345
0.00066341967
0.00085138119
0.0010488173
0.0012326315
0.0013772207
0.0014666048
0.0014980383
0.0014880729
0.0014522928
0.0014073194
0.0013682632
0.0013411525
0.0013288893
0.0013312579
0.0013484699
0.0013904314
0.0014512259
0.0015289964
0.0016285421
0.0017305797
0.001834256
0.0018422277
0.0017915415
0.0016286565
0.0012868158
0.00088748142
0.00047565748
0.00025248195
0.00019143173
0.00018844613
0.00020928207
0.00022319716
0.00021603641
0.0001928893
0.00017734479
0.00016457825
0.00015411697
0.00014112734
2.1230295e-12
6.6712823e-11
5.4552902e-10
2.3460915e-09
7.219623e-09
1.8218665e-08
4.0401251e-08
8.1884388e-08
1.5540135e-07
2.8058736e-07
4.8731627e-07
8.2054991e-07
1.3473587e-06
2.1670504e-06
3.4257295e-06
5.3371417e-06
8.2123529e-06
1.2501672e-05
1.8853139e-05
2.8192522e-05
4.182922e-05
6.158904e-05
8.9964942e-05
0.00013025497
0.00018661443
0.00026388
0.00036693095
0.0004992849
0.00066072259
0.00084426601
0.0010339878
0.001206377
0.0013374482
0.001413373
0.0014343747
0.0014218547
0.0013861311
0.0013454659
0.0013140394
0.0012960476
0.001294259
0.0013025247
0.0013291956
0.0013783243
0.0014411402
0.0015155241
0.0015958333
0.0016461797
0.0016260785
0.0015458193
0.0013319826
0.0010458786
0.0006515461
0.00031763678
0.00020490934
0.00018048007
0.00018821519
0.00021213806
0.00021069523
0.00019184538
0.00017478428
0.00016417785
0.0001539647
0.00014520072
0.00013454209
1.3909684e-12
4.3708961e-11
3.5741982e-10
1.5371096e-09
4.7301303e-09
1.1936404e-08
2.6469748e-08
5.3648025e-08
1.0181338e-07
1.8382988e-07
3.1927038e-07
5.3759682e-07
8.8276955e-07
1.4199097e-06
2.2449064e-06
3.4982395e-06
5.3848131e-06
8.2023036e-06
1.2381411e-05
1.8542379e-05
2.7572909e-05
4.0732209e-05
5.9782718e-05
8.7141346e-05
0.00012601928
0.0001804772
0.00025525156
0.00035511381
0.00048345728
0.00063991464
0.00081735866
0.00099987291
0.0011644488
0.0012882506
0.0013583656
0.0013761577
0.0013640348
0.0013311155
0.0012949639
0.0012685026
0.0012575567
0.0012600585
0.0012717997
0.001300143
0.001344596
0.001389081
0.0014409568
0.0014406155
0.0014082821
0.001299655
0.0011141815
0.00081562664
0.0004246301
0.00023279576
0.00017960604
0.00017777406
0.00019669224
0.00020567949
0.00019277904
0.00017285255
0.00016191206
0.00015246799
0.00014473151
0.00013762594
0.00012893764
8.7762099e-13
2.7577832e-11
2.25511e-10
9.6982382e-10
2.9844146e-09
7.5310688e-09
1.6700469e-08
3.3847491e-08
6.4234608e-08
1.1597621e-07
2.014174e-07
3.3913909e-07
5.5686471e-07
8.9566444e-07
1.416026e-06
2.2066121e-06
3.3968828e-06
5.175271e-06
7.8152949e-06
1.1712898e-05
1.7439339e-05
2.5814799e-05
3.8007744e-05
5.566217e-05
8.1046385e-05
0.00011719631
0.00016798655
0.00023798563
0.00033187083
0.00045310375
0.0006016654
0.00077119591
0.00094696899
0.001107162
0.0012285371
0.0012996589
0.0013220626
0.0013121868
0.0012854836
0.0012556576
0.001233697
0.0012243646
0.0012268597
0.0012362027
0.0012562606
0.0012817671
0.0012949225
0.0012841045
0.0012391784
0.0011221488
0.00092844165
0.00054670894
0.00027153101
0.00018557627
0.00016993381
0.00017962545
0.00019873601
0.00019250503
0.00017313078
0.00016140749
0.00015160842
0.0001439034
0.00013702664
0.00013139229
0.00012445923
5.3478917e-13
1.6804883e-11
1.3741761e-10
5.9097132e-10
1.8185713e-09
4.5890627e-09
1.0176309e-08
2.0624312e-08
3.9138969e-08
7.0662856e-08
1.227141e-07
2.0660565e-07
3.3921199e-07
5.4552317e-07
8.623323e-07
1.3435566e-06
2.067918e-06
3.1500384e-06
4.7564788e-06
7.1289214e-06
1.0617582e-05
1.5729004e-05
2.3193356e-05
3.4056468e-05
4.9799461e-05
7.2480632e-05
0.00010487531
0.0001505583
0.00021381075
0.00029914707
0.00041016173
0.00054752771
0.00070638249
0.000874276
0.0010313924
0.0011567799
0.0012380658
0.0012686941
0.0012648759
0.0012481532
0.0012274975
0.0012116132
0.0012036813
0.0012042154
0.0012085187
0.0012150244
0.0012120368
0.0011894675
0.0011231511
0.00097740669
0.00064615763
0.00031061059
0.00019455982
0.00016537732
0.00016929964
0.00018622384
0.00018588126
0.00017216812
0.00015914678
0.00015061295
0.0001433852
0.00013688071
0.0001304155
0.00012603868
0.00012061281
3.161704e-13
9.9351393e-12
8.1241948e-11
3.4938423e-10
1.0751396e-09
2.7130297e-09
6.0160947e-09
1.2192542e-08
2.3137145e-08
4.177058e-08
7.2534359e-08
1.2210961e-07
2.0045747e-07
3.2232125e-07
5.0939226e-07
7.9343053e-07
1.2207643e-06
1.858787e-06
2.8053602e-06
4.2024572e-06
6.2559938e-06
9.2646337e-06
1.3661398e-05
2.0072939e-05
2.9401702e-05
4.2934368e-05
6.2473089e-05
9.0469601e-05
0.00013010896
0.00018524313
0.00026002604
0.0003580509
0.00048068585
0.00062487466
0.00078110041
0.00093351977
0.0010635863
0.0011644494
0.0012094739
0.0012196829
0.0012136294
0.0012042629
0.0011960556
0.0011958084
0.001195555
0.0011917381
0.0011735242
0.0011195426
0.00098999913
0.00068932241
0.00034003793
0.00020175663
0.00016321587
0.00016110079
0.00017546122
0.00018737914
0.00017722246
0.0001610693
0.00015163078
0.00014340626
0.00013586143
0.00013000594
0.00012536035
0.00012143793
0.00011722821
1.8240705e-13
5.7318437e-12
4.6870585e-11
2.0156837e-10
6.2027132e-10
1.5651915e-09
3.4707347e-09
7.0338217e-09
1.3347261e-08
2.4095233e-08
4.1838198e-08
7.0426256e-08
1.1559666e-07
1.8583508e-07
2.9361465e-07
4.5717673e-07
7.0309061e-07
1.069938e-06
1.6136301e-06
2.4151082e-06
3.5915433e-06
5.3126803e-06
7.8247227e-06
1.1485106e-05
1.6812541e-05
2.4557315e-05
3.5796271e-05
5.2050054e-05
7.540662e-05
0.00010860566
0.0001549884
0.00021819069
0.00030145505
0.00040648473
0.00053170994
0.00067071777
0.0008115753
0.00094220358
0.0010602152
0.0011312013
0.0011637421
0.0011720131
0.0011738707
0.0011766857
0.0011701501
0.0011484785
0.0010944266
0.00096338783
0.00066078932
0.00033708553
0.00020111426
0.00016043797
0.00015482638
0.00016345411
0.00017899704
0.00017257615
0.00015783468
0.00014918466
0.00014220335
0.00013601895
0.00013093494
0.00012656221
0.0001218033
0.00011835816
0.00011458794
1.0384803e-13
3.2632541e-12
2.6684344e-11
1.1475659e-10
3.531301e-10
8.9108028e-10
1.9759002e-09
4.0042959e-09
7.5982542e-09
1.371619e-08
2.3814824e-08
4.0083814e-08
6.5784398e-08
1.057365e-07
1.6701764e-07
2.5996499e-07
3.9960926e-07
6.0772846e-07
9.1579528e-07
1.3692204e-06
2.0334902e-06
3.0030908e-06
4.4145511e-06
6.4655579e-06
9.4429239e-06
1.3763128e-05
2.0029598e-05
2.9110507e-05
4.2236427e-05
6.1108322e-05
8.7981685e-05
0.00012564176
0.00017716973
0.00024530205
0.00033156082
0.0004350869
0.00055154529
0.00067300319
0.00079319024
0.00090547973
0.0010036821
0.0010608618
0.0010917257
0.0010890358
0.0010655463
0.0010018044
0.0008618825
0.00054765113
0.00029780923
0.00019311853
0.00015688007
0.00014951979
0.00015722145
0.00017167603
0.00016886696
0.00015819878
0.00015038547
0.0001440661
0.00013789857
0.00013242487
0.00012666217
0.00012193303
0.00011817732
0.00011513779
0.00011208644
5.9960596e-14
1.8841628e-12
1.5407191e-11
6.625873e-11
2.0389039e-10
5.144852e-10
1.1408065e-09
2.3118518e-09
4.3866116e-09
7.918144e-09
1.3746838e-08
2.313548e-08
3.7964038e-08
6.10096e-08
9.6347302e-08
1.4992214e-07
2.3036328e-07
3.5014489e-07
5.2723771e-07
7.8746223e-07
1.1678487e-06
1.7214807e-06
2.5245502e-06
3.6865273e-06
5.3650423e-06
7.7876035e-06
1.1282973e-05
1.63255e-05
2.3595247e-05
3.4053081e-05
4.9023767e-05
7.0261232e-05
9.9950062e-05
0.0001405397
0.00019427621
0.00026238765
0.00034412209
0.00043603479
0.00053297002
0.00062994297
0.00071809769
0.00079323525
0.00084136148
0.00083051679
0.00077973923
0.00064888301
0.00039253284
0.00024496845
0.0001735556
0.00015013159
0.00014499425
0.00015171904
0.00016612511
0.00016601327
0.00016020193
0.00015160726
0.00014433336
0.00013771666
0.00013202541
0.00012722087
0.00012320323
0.00011967987
0.00011591209
0.00011289221
0.00011025854
3.7684094e-14
1.1841606e-12
9.6831255e-12
4.1642207e-11
1.2813942e-10
3.2333332e-10
7.1693046e-10
1.4528061e-09
2.756471e-09
4.9752652e-09
8.6368069e-09
1.4533519e-08
2.3844263e-08
3.8308579e-08
6.0475219e-08
9.4055325e-08
1.4442399e-07
2.1932757e-07
3.2988217e-07
4.9198222e-07
7.2829045e-07
1.0710263e-06
1.565837e-06
2.2773193e-06
3.2967237e-06
4.7536422e-06
6.8322108e-06
9.7944548e-06
1.4013126e-05
2.0015975e-05
2.8540671e-05
4.0592179e-05
5.7481155e-05
8.0811249e-05
0.00011234618
0.00015373246
0.00020582248
0.00026803544
0.00033709287
0.00041001234
0.00047522899
0.00053678708
0.00054228102
0.00051073916
0.00040135342
0.00026531552
0.00018533003
0.00015154087
0.00013793162
0.00013929289
0.00014624504
0.00016108803
0.00016447692
0.00016125357
0.00015215271
0.00014446853
0.00013870509
0.00013379154
0.00012915301
0.00012460666
0.00012019469
0.00011666485
0.00011353159
0.00011098975
0.00010877531
2.8648801e-14
9.0024229e-13
7.3614887e-12
3.1658081e-11
9.7416359e-11
2.4580764e-10
5.4502454e-10
1.1044346e-09
2.0954583e-09
3.7821209e-09
6.5654712e-09
1.1047792e-08
1.8124919e-08
2.911826e-08
4.5962607e-08
7.147182e-08
1.0971249e-07
1.665262e-07
2.5025445e-07
3.7273804e-07
5.5068462e-07
8.0752783e-07
1.1759449e-06
1.7012798e-06
2.4462672e-06
3.4967894e-06
4.9703442e-06
7.0279857e-06
9.8906796e-06
1.3862554e-05
1.9359237e-05
2.6956287e-05
3.7420008e-05
5.1733069e-05
7.1055196e-05
9.6581528e-05
0.00012926998
0.0001692452
0.00021485518
0.00026204246
0.00030284859
0.00031191695
0.00028943314
0.00022305046
0.00016916334
0.00013898615
0.00012568682
0.00012641886
0.00013148631
0.00014484556
0.00015916939
0.00016349182
0.00016129171
0.0001530029
0.00014534575
0.00014031111
0.00013546107
0.00013044459
0.00012572654
0.00012180025
0.00011801088
0.0001147734
0.00011149367
0.00010914177
0.00010743911
2.6865642e-14
8.4421067e-13
6.9033472e-12
2.9688139e-11
9.1355659e-11
2.3051845e-10
5.1113592e-10
1.0357998e-09
1.965342e-09
3.5475447e-09
6.1589117e-09
1.036509e-08
1.7007792e-08
2.7329132e-08
4.3148453e-08
6.7112147e-08
1.0304403e-07
1.5643243e-07
2.3510023e-07
3.5011451e-07
5.1700199e-07
7.5734227e-07
1.1008103e-06
1.5877214e-06
2.2721205e-06
3.2254257e-06
4.5407133e-06
6.3375144e-06
8.7682084e-06
1.2027522e-05
1.6367483e-05
2.2119863e-05
2.9720965e-05
3.9726815e-05
5.2788411e-05
6.9529572e-05
9.0233067e-05
0.00011411605
0.00013824167
0.00015689531
0.0001575847
0.00014413449
0.00012096796
0.00010767187
0.00010207578
0.00010458904
0.00011107737
0.00012569288
0.0001492873
0.00015837309
0.00016237358
0.00016105913
0.00015418037
0.00014627257
0.00014158269
0.00013644031
0.0001312344
0.00012660026
0.00012262889
0.0001189066
0.00011543809
0.00011270574
0.00010996544
0.00010790942
0.00010629767
2.7068558e-14
8.5058817e-13
6.955545e-12
2.9913055e-11
9.2049915e-11
2.3227838e-10
5.1506392e-10
1.0438318e-09
1.9807658e-09
3.5758189e-09
6.2089556e-09
1.0451306e-08
1.7153205e-08
2.7570209e-08
4.354232e-08
6.7747067e-08
1.0405378e-07
1.5801425e-07
2.3753309e-07
3.5376759e-07
5.2230759e-07
7.6467427e-07
1.1101437e-06
1.5978272e-06
2.2787999e-06
3.2179008e-06
4.4946992e-06
6.2032336e-06
8.4501285e-06
1.1350914e-05
1.5026771e-05
1.9607693e-05
2.5238646e-05
3.2061941e-05
4.0119029e-05
4.9342725e-05
5.9115244e-05
6.8045576e-05
7.3533224e-05
7.3176251e-05
6.9803061e-05
6.8354181e-05
7.1088929e-05
7.708131e-05
8.4854115e-05
9.9163156e-05
0.00012923777
0.00015119218
0.00015893732
0.00016189292
0.00016102517
0.00015586088
0.00014710996
0.0001424449
0.00013721849
0.00013240242
0.0001283198
0.0001245164
0.00012076705
0.00011727367
0.0001140793
0.00011118225
0.00010836427
0.00010671122
0.0001054697
2.4433605e-14
7.6778903e-13
6.2784815e-12
2.7001444e-11
8.309124e-11
2.096763e-10
4.6495784e-10
9.4231869e-10
1.788207e-09
3.2283418e-09
5.6058678e-09
9.4365787e-09
1.548838e-08
2.4894921e-08
3.9316964e-08
6.1169672e-08
9.3939499e-08
1.4262031e-07
2.143034e-07
3.1895717e-07
4.7042461e-07
6.8763933e-07
9.9600223e-07
1.4287528e-06
2.0279987e-06
2.8448267e-06
3.9376574e-06
5.3679165e-06
7.1928077e-06
9.4550565e-06
1.2169668e-05
1.5313795e-05
1.8819057e-05
2.2569528e-05
2.6413224e-05
3.0127955e-05
3.3217055e-05
3.4756292e-05
3.549145e-05
3.7642317e-05
4.22612e-05
4.8039817e-05
5.9046334e-05
7.3528693e-05
9.6099356e-05
0.00013311133
0.00015241507
0.0001597269
0.00016192918
0.0001611032
0.00015712037
0.00014771783
0.00014297943
0.00013814475
0.00013377914
0.00012977405
0.00012553258
0.00012146353
0.00011787604
0.00011472146
0.00011180305
0.00010948557
0.00010709421
0.00010555402
0.00010440905
1.8265341e-14
5.7396027e-13
4.6934614e-12
2.0184767e-11
6.211408e-11
1.567406e-10
3.4756885e-10
7.0439444e-10
1.3366568e-09
2.4129906e-09
4.1896627e-09
7.0516709e-09
1.157177e-08
1.8594655e-08
2.9356105e-08
4.5649987e-08
7.0059627e-08
1.0627342e-07
1.5950653e-07
2.3704829e-07
3.4894358e-07
5.0878792e-07
7.3455753e-07
1.0492928e-06
1.4812935e-06
2.0632763e-06
2.8297374e-06
3.8119197e-06
5.0294424e-06
6.4795417e-06
8.1295655e-06
9.9084605e-06
1.1720583e-05
1.3455544e-05
1.5001086e-05
1.6252808e-05
1.7505959e-05
1.9660594e-05
2.2786216e-05
2.8028358e-05
3.6806111e-05
4.9721251e-05
6.8939544e-05
9.7502243e-05
0.00013383702
0.00015275196
0.00016054643
0.00016239358
0.00016179375
0.00015814203
0.00014867577
0.00014387002
0.00013928163
0.00013510744
0.00013076162
0.00012647375
0.00012268139
0.00011953643
0.00011649561
0.00011355667
0.00011076355
0.00010831022
0.00010604754
0.00010481426
0.00010376887
1.1325133e-14
3.5587436e-13
2.9100829e-12
1.2514987e-11
3.8511319e-11
9.7177846e-11
2.1548016e-10
4.3666979e-10
8.2854125e-10
1.4955066e-09
2.5961273e-09
4.3683953e-09
7.1659368e-09
1.1509454e-08
1.8159176e-08
2.8215788e-08
4.3259135e-08
6.5535405e-08
9.8203655e-08
1.4564944e-07
2.1386369e-07
3.1086393e-07
4.4709436e-07
6.3567376e-07
8.9225966e-07
1.2341758e-06
1.6783663e-06
2.2378949e-06
2.9168774e-06
3.705401e-06
4.5772639e-06
5.4930759e-06
6.4128772e-06
7.3228857e-06
8.364019e-06
9.9163771e-06
1.2231455e-05
1.5909851e-05
2.1640379e-05
3.1365783e-05
4.6763595e-05
6.8275131e-05
9.7170651e-05
0.00013120274
0.00015162244
0.00016137114
0.00016345303
0.00016277959
0.00015929399
0.00014987756
0.00014470961
0.00014001676
0.00013588664
0.00013164958
0.00012768838
0.00012428061
0.00012089804
0.00011753433
0.00011440514
0.00011162841
0.00010915826
0.00010703659
0.00010496153
0.00010391657
0.00010291431
6.1892344e-15
1.9448659e-13
1.5903589e-12
6.8393241e-12
2.1045527e-11
5.3103263e-11
1.1774299e-10
2.3858487e-10
4.5263699e-10
8.1686413e-10
1.4177079e-09
2.384784e-09
3.9104378e-09
6.2774318e-09
9.8977604e-09
1.5366417e-08
2.3534764e-08
3.5608682e-08
5.3276439e-08
7.88691e-08
1.1555088e-07
1.6752556e-07
2.4022522e-07
3.404172e-07
4.761228e-07
6.5621338e-07
8.8954432e-07
1.1837268e-06
1.5439412e-06
1.9730398e-06
2.4755126e-06
3.0687319e-06
3.8089881e-06
4.8566675e-06
6.4271779e-06
8.892559e-06
1.2828793e-05
1.9301512e-05
2.9893186e-05
4.5612259e-05
6.6900625e-05
9.4649819e-05
0.00012682132
0.00015084661
0.00016263796
0.0001651198
0.00016427635
0.0001608482
0.00015151083
0.00014593996
0.00014100551
0.00013697477
0.00013298329
0.00012921251
0.00012546338
0.00012181164
0.0001183588
0.00011547515
0.00011277005
0.00011026139
0.00010792512
0.00010595039
0.00010408932
0.00010320132
0.00010227929
3.4941348e-15
1.0979737e-13
8.9783167e-13
3.8610646e-12
1.1880736e-11
2.9977048e-11
6.6463054e-11
1.3466601e-10
2.5546187e-10
4.6097437e-10
7.9993296e-10
1.3453774e-09
2.2056536e-09
3.539981e-09
5.5802896e-09
8.6615246e-09
1.3263157e-08
2.0065134e-08
3.0021781e-08
4.4456902e-08
6.5182166e-08
9.4638362e-08
1.3605553e-07
1.9362433e-07
2.7267659e-07
3.7989956e-07
5.2369893e-07
7.1503621e-07
9.694525e-07
1.3114259e-06
1.7842834e-06
2.4675347e-06
3.5007434e-06
5.127372e-06
7.7726398e-06
1.2046802e-05
1.8789997e-05
2.9332615e-05
4.4464874e-05
6.5082348e-05
9.2224674e-05
0.00012374294
0.00015076305
0.00016431985
0.00016723815
0.00016628255
0.00016283122
0.00015357829
0.00014755865
0.00014226517
0.00013802541
0.00013410723
0.00013032625
0.00012645367
0.00012289459
0.00011982853
0.00011692677
0.00011425468
0.00011162011
0.00010920186
0.00010703749
0.00010513454
0.00010342993
0.00010260293
0.00010161123
2.7601926e-15
8.673451e-14
7.0924471e-13
3.0500703e-12
9.3852878e-12
2.3680772e-11
5.2504204e-11
1.063865e-10
2.0182858e-10
3.6423505e-10
6.3217418e-10
1.0635259e-09
1.7443028e-09
2.8012333e-09
4.4196059e-09
6.8684224e-09
1.0535631e-08
1.5977175e-08
2.3984865e-08
3.5679895e-08
5.2641476e-08
7.7084617e-08
1.1210943e-07
1.6206148e-07
2.3307903e-07
3.3398179e-07
4.7782505e-07
6.8482618e-07
9.8802107e-07
1.4406631e-06
2.1314776e-06
3.2091685e-06
4.9184445e-06
7.654382e-06
1.1983199e-05
1.8748898e-05
2.900211e-05
4.3621826e-05
6.3799976e-05
9.054772e-05
0.00012163629
0.00015000301
0.0001657993
0.00016967229
0.00016870824
0.00016534979
0.0001563009
0.00014955966
0.00014380655
0.00013926294
0.00013525616
0.00013155573
0.00012781996
0.00012436712
0.00012112699
0.00011804825
0.00011502318
0.00011237435
0.00010989052
0.0001077716
0.00010577727
0.0001040796
0.00010257947
0.0001019876
0.00010101134
3.2838315e-15
1.0318912e-13
8.4380118e-13
3.6287567e-12