/*--------------------------------*- C++ -*----------------------------------*\
  =========                 |
  \\      /  F ield         | OpenFOAM: The Open Source CFD Toolbox
   \\    /   O peration     | Website:  https://openfoam.org
    \\  /    A nd           | Version:  13
     \\/     M anipulation  |
\*---------------------------------------------------------------------------*/
FoamFile
{
    format      ascii;
    class       volSymmTensorField;
    location    "0.897827";
    object      UPrime2Mean;
}
// * * * * * * * * * * * * * * * * * * * * * * * * * * * * * * * * * * * * * //

dimensions      [0 2 -2 0 0 0 0];

internalField   nonuniform List<symmTensor> 
17140
(
(7.618985e-13 -1.0227709e-11 -3.4285628e-26 3.4971999e-10 3.1051369e-25 2.3677897e-39)
(3.1211078e-11 -2.7960886e-10 -1.2032939e-26 3.0130337e-09 5.4487054e-26 2.1066563e-41)
(2.4567977e-10 -1.3976924e-09 1.7462209e-24 8.9001486e-09 -4.8372095e-24 9.1838209e-38)
(1.0971213e-09 -4.3840835e-09 -3.4220175e-24 1.9038649e-08 6.7011326e-24 1.1099105e-37)
(3.599016e-09 -1.0819747e-08 6.4600059e-25 3.4845401e-08 -9.718964e-25 1.5168631e-39)
(9.8292249e-09 -2.3225513e-08 -3.215902e-24 5.8254428e-08 3.9392171e-24 1.6247476e-38)
(2.3832318e-08 -4.5535185e-08 -7.9540584e-24 9.1807174e-08 8.1766046e-24 4.6051379e-38)
(5.3154361e-08 -8.3783445e-08 5.5757559e-24 1.3885387e-07 -4.8900211e-24 1.0976077e-38)
(1.1147586e-07 -1.4712159e-07 2.5778097e-23 2.037448e-07 -1.9480434e-23 1.1759324e-37)
(2.2305404e-07 -2.4927409e-07 8.820228e-23 2.9208275e-07 -5.7814119e-23 7.0744433e-37)
(4.3011615e-07 -4.1059535e-07 -1.8068277e-22 4.1099492e-07 1.031981e-22 1.5555745e-36)
(8.0500505e-07 -6.6093571e-07 2.2069245e-22 5.6942259e-07 -1.1019167e-22 1.2354372e-36)
(1.4699793e-06 -1.0435959e-06 4.597807e-23 7.783732e-07 -2.0121756e-23 2.8942728e-38)
(2.6288921e-06 -1.6206247e-06 -3.5171728e-22 1.0511494e-06 1.3518698e-22 9.2576175e-37)
(4.6171208e-06 -2.4797441e-06 5.2508661e-23 1.4034542e-06 -1.7746925e-23 1.1411568e-38)
(7.9791936e-06 -3.7431827e-06 -5.5604373e-22 1.8532332e-06 1.6533851e-22 7.1598329e-37)
(1.358723e-05 -5.5784216e-06 2.7497993e-23 2.4200901e-06 -7.193283e-24 9.9157127e-40)
(2.2818212e-05 -8.2106619e-06 -8.1241877e-24 3.1241943e-06 1.8690097e-24 4.9641483e-41)
(3.7813171e-05 -1.1936044e-05 -7.5521138e-22 3.9844045e-06 1.5257841e-22 2.4967371e-37)
(6.1847849e-05 -1.7133752e-05 1.2715543e-21 5.0153716e-06 -2.2525712e-22 4.1857609e-37)
(9.9847857e-05 -2.4273564e-05 -7.8735309e-22 6.223584e-06 1.2202545e-22 9.6647661e-38)
(0.00015908026 -3.3913057e-05 1.9104875e-22 7.6023917e-06 -2.582661e-23 3.4977443e-39)
(0.00025004427 -4.6676378e-05 1.7676593e-21 9.1264018e-06 -2.0768384e-22 1.8824021e-37)
(0.0003875422 -6.3203513e-05 -2.1836518e-21 1.074606e-05 2.21963e-22 1.8511876e-37)
(0.00059185163 -8.4059618e-05 -4.2469109e-21 1.2383575e-05 3.7139938e-22 4.6335679e-37)
(0.00088979678 -0.00010959847 4.1099704e-21 1.3932236e-05 -3.0712691e-22 2.9532015e-37)
(0.0013154135 -0.00013978188 2.3959679e-20 1.5260219e-05 -1.5172787e-21 7.0308992e-36)
(0.0019098905 -0.00017397811 3.3024792e-21 1.6220911e-05 -1.753931e-22 9.6382639e-38)
(0.0027200357 -0.00021075995 -3.3450425e-20 1.6670834e-05 1.4700802e-21 7.3492976e-36)
(0.0037945197 -0.00024775177 -8.9097158e-21 1.649388e-05 3.1825303e-22 3.9849407e-37)
(0.0051778525 -0.00028157605 -3.5783345e-20 1.5624165e-05 1.0124122e-21 5.0477124e-36)
(0.0069017479 -0.00030799627 5.2397962e-20 1.4070811e-05 -1.131168e-21 8.7232787e-36)
(0.0089746697 -0.00032228329 -1.5018557e-20 1.1933614e-05 2.3342981e-22 5.9213815e-37)
(0.011369161 -0.00031983576 -7.8079729e-21 9.4070726e-06 7.8888172e-23 1.3548871e-37)
(0.014008508 -0.00029708808 -8.259089e-20 6.7673823e-06 4.3210763e-22 1.3147454e-35)
(0.016772948 -0.00025152596 3.8568727e-20 4.2871248e-06 -3.369716e-23 2.5470851e-36)
(0.019468031 -0.00018364554 -6.110748e-20 2.2771037e-06 -1.8360802e-22 5.8234108e-36)
(0.021891284 -9.7260918e-05 -4.2945891e-20 9.754341e-07 -2.7644578e-22 2.6862252e-36)
(0.023801265 3.6285625e-07 -2.0153716e-20 5.1674877e-07 -1.9055344e-22 5.6687394e-37)
(0.024995997 9.939396e-05 6.1771088e-20 8.6684327e-07 7.4595514e-22 5.234588e-36)
(0.025331168 0.00018990947 1.1630455e-19 1.8436818e-06 1.6664589e-21 1.8706264e-35)
(0.024760813 0.00026138642 1.0391231e-19 3.139941e-06 1.6840406e-21 1.54186e-35)
(0.023351119 0.00030806417 4.41137e-20 4.4258775e-06 7.8252986e-22 2.9346152e-36)
(0.021269163 0.00032717574 -2.0634855e-19 5.4021168e-06 -3.9108452e-21 6.9230624e-35)
(0.018748074 0.00032105769 -1.4352396e-19 5.8972974e-06 -2.856761e-21 3.6774054e-35)
(0.01604208 0.00029529197 3.3248945e-20 5.878255e-06 6.8699223e-22 2.2009639e-36)
(0.013380311 0.0002571575 -2.1147534e-19 5.431179e-06 -4.5029538e-21 1.0057351e-34)
(0.010936806 0.00021378451 -6.6800193e-20 4.7065038e-06 -1.4598167e-21 1.1447517e-35)
(0.0088184619 0.0001708726 6.3020594e-20 3.8621945e-06 1.4110802e-21 1.1707768e-35)
(0.0070710945 0.00013218051 1.4239779e-19 3.0252257e-06 3.2683783e-21 6.9033101e-35)
(0.0056927233 9.9639636e-05 -8.0772549e-20 2.2779652e-06 -1.9060698e-21 2.5737625e-35)
(0.004651258 7.3784805e-05 -4.6909339e-20 1.6607639e-06 -1.1440028e-21 1.0079092e-35)
(0.0038972778 5.4233136e-05 1.1241467e-19 1.1830215e-06 2.8532666e-21 6.7328698e-35)
(0.0033761393 4.0080386e-05 4.8779223e-20 8.3335529e-07 1.2985888e-21 1.4773992e-35)
(0.0030345177 3.0228914e-05 3.1862345e-20 5.9037157e-07 8.9763718e-22 7.3753404e-36)
(0.0028253473 2.3581579e-05 -2.2887363e-20 4.2905233e-07 -6.8855068e-22 4.4779924e-36)
(0.0027111262 1.9238718e-05 5.6167108e-20 3.2700692e-07 1.8262631e-21 3.2083644e-35)
(0.0026612882 1.638629e-05 4.2396296e-20 2.6485508e-07 1.5053394e-21 2.206114e-35)
(0.0026569665 1.4508176e-05 9.4865008e-21 2.2835504e-07 3.7412624e-22 1.3666638e-36)
(0.0026804425 1.3197567e-05 -2.1529423e-20 2.0829477e-07 -9.5575606e-22 8.9829764e-36)
(0.0027281038 1.2179525e-05 -1.449729e-20 1.9510137e-07 -7.4406734e-22 5.4581188e-36)
(0.002787774 1.1302889e-05 -4.4783908e-20 1.8745368e-07 -2.7124749e-21 7.4274065e-35)
(0.0028695217 1.0624854e-05 -5.2625932e-21 1.8045888e-07 -3.9730892e-22 1.5916855e-36)
(0.0029635953 9.3076091e-06 3.1299605e-20 1.7283605e-07 3.2666887e-21 1.1241133e-34)
(0.0030559273 7.1544219e-06 -1.3758607e-20 1.8747092e-07 -2.7394291e-21 6.7181657e-35)
(1.9342063e-11 -4.1946035e-10 3.1682975e-26 9.3649404e-09 -5.4807569e-25 1.9175142e-40)
(2.6359386e-10 -4.5341408e-09 -9.1399718e-24 7.993142e-08 1.213856e-22 2.5278183e-36)
(1.1585507e-09 -1.6348621e-08 1.4213543e-23 2.3649335e-07 -1.4759139e-22 2.001751e-36)
(3.5947424e-09 -4.2156543e-08 -6.0394078e-24 5.0670984e-07 5.0794222e-23 1.4876943e-37)
(9.262371e-09 -9.1640982e-08 -1.8470001e-23 9.2928002e-07 1.2999548e-22 6.3485782e-37)
(2.1304834e-08 -1.7989767e-07 5.0718594e-23 1.5567258e-06 -3.0701691e-22 2.317942e-36)
(4.5408104e-08 -3.3007268e-07 -7.4522197e-23 2.4588061e-06 3.9435005e-22 2.5187177e-36)
(9.1610389e-08 -5.771924e-07 9.117973e-24 3.7277244e-06 -4.2566821e-23 1.9508598e-38)
(1.7734344e-07 -9.7379786e-07 -3.9165179e-23 5.4840361e-06 1.621753e-22 1.9014251e-37)
(3.3244922e-07 -1.5979781e-06 -9.0347263e-25 7.8839191e-06 3.3294443e-24 5.4319068e-41)
(6.0739113e-07 -2.5647338e-06 -2.4196142e-22 1.1127389e-05 7.9526209e-22 2.1190846e-36)
(1.086556e-06 -4.0418342e-06 5.1842127e-22 1.546732e-05 -1.5219241e-21 5.348978e-36)
(1.9095803e-06 -6.2716108e-06 5.7453067e-23 2.1218569e-05 -1.5078347e-22 3.6473966e-38)
(3.3051258e-06 -9.6003392e-06 -7.5729589e-22 2.8766076e-05 1.7774835e-21 3.550357e-36)
(5.6436088e-06 -1.4516877e-05 3.0913523e-22 3.8570094e-05 -6.4886766e-22 3.3442692e-37)
(9.5183998e-06 -2.1702136e-05 2.5960771e-22 5.1165655e-05 -4.8705374e-22 1.3456445e-37)
(1.5868612e-05 -3.2089866e-05 -2.1657014e-21 6.7152222e-05 3.6284529e-21 5.3969721e-36)
(2.6161588e-05 -4.6937734e-05 9.2200142e-21 8.7168057e-05 -1.3777386e-20 5.701245e-35)
(4.2657894e-05 -6.7903607e-05 -7.4901192e-21 0.00011184279 9.9664124e-21 2.2213216e-35)
(6.8787371e-05 -9.711714e-05 1.1548211e-20 0.00014172174 -1.365682e-20 3.1636905e-35)
(0.00010966793 -0.0001372277 -2.1752205e-20 0.00017715619 2.2812447e-20 6.8399752e-35)
(0.00017279695 -0.00019139905 6.7295968e-21 0.00021816031 -6.2434778e-21 4.066965e-36)
(0.00026893081 -0.00026320715 3.4594249e-21 0.00026424206 -2.8315601e-21 6.8219379e-37)
(0.0004131318 -0.00035638745 -1.3935653e-20 0.0003142292 1.0032707e-20 7.195269e-36)
(0.00062589464 -0.00047437975 6.096924e-20 0.00036612806 -3.8476536e-20 9.1840861e-35)
(0.00093414962 -0.00061963333 1.0917537e-20 0.00041706276 -6.0168279e-21 2.0176296e-36)
(0.0013718423 -0.00079268956 -6.6997399e-20 0.00046334474 3.2107811e-20 5.3555311e-35)
(0.0019797638 -0.00099114524 8.7746085e-20 0.00050071998 -3.6390434e-20 6.6641346e-35)
(0.0028039158 -0.0012085928 -1.391156e-20 0.00052481966 4.9643052e-21 1.2507543e-36)
(0.0038916794 -0.0014337602 -1.5499544e-19 0.0005317787 4.7251927e-20 1.191193e-34)
(0.0052857688 -0.0016501506 1.8085839e-20 0.00051887352 -4.6665226e-21 1.2779616e-36)
(0.0070156786 -0.0018365537 1.5408855e-19 0.00048519077 -3.3257677e-20 7.4975094e-35)
(0.0090872355 -0.0019686411 4.2659936e-21 0.0004321239 -7.5886867e-22 4.7599488e-38)
(0.011470058 -0.0020216875 -1.3754889e-19 0.00036357386 1.9784905e-20 4.1990654e-35)
(0.014085637 -0.0019744836 1.6520873e-19 0.00028573676 -1.8741321e-20 5.2646731e-35)
(0.0168073 -0.0018127475 -7.916997e-20 0.00020593804 6.8440921e-21 1.0764292e-35)
(0.01945104 -0.0015367508 9.8003396e-20 0.00013282388 -6.1458585e-21 1.5051294e-35)
(0.021806163 -0.0011599321 3.2373451e-19 7.3356648e-05 -1.3602173e-20 1.5368799e-34)
(0.023642971 -0.00071258578 7.4353431e-20 3.264224e-05 -1.7977339e-21 7.7822824e-36)
(0.024763544 -0.00023864281 2.9414721e-19 1.2459364e-05 -2.6481143e-21 1.1990803e-34)
(0.025032619 0.00021225554 -3.7628592e-19 1.0793907e-05 -1.3914833e-21 1.9803506e-34)
(0.024412189 0.0005926387 -3.4139671e-19 2.2464227e-05 -4.8064013e-21 1.6848994e-34)
(0.022975801 0.00086836227 -5.6891539e-20 4.0516671e-05 -1.2684216e-21 4.9452378e-36)
(0.020893109 0.0010244248 4.3809168e-19 5.8181821e-05 1.2503276e-20 3.1608034e-34)
(0.018396061 0.0010666854 -1.9750077e-19 7.0594116e-05 -6.5259409e-21 7.0513357e-35)
(0.015733374 0.0010170299 -6.4667527e-20 7.5588693e-05 -2.3352885e-21 8.4238583e-36)
(0.013126203 0.00090566263 3.249902e-20 7.3490037e-05 1.2373948e-21 2.3997101e-36)
(0.010740223 0.00076289854 9.4506623e-20 6.6170339e-05 3.7051875e-21 2.3112834e-35)
(0.0086754657 0.0006133951 -4.2911938e-20 5.5973754e-05 -1.7055765e-21 5.4655642e-36)
(0.0069734132 0.00047380376 7.1969937e-20 4.493769e-05 2.8728442e-21 1.7720354e-35)
(0.0056303237 0.00035323531 4.0003764e-19 3.4479333e-05 1.5994052e-20 6.331475e-34)
(0.0046143722 0.00025506004 1.762139e-20 2.538927e-05 7.0849136e-22 1.4238098e-36)
(0.0038775655 0.00017895735 -7.3111524e-20 1.7997359e-05 -2.9860212e-21 2.8460408e-35)
(0.0033671395 0.00012243063 1.4960715e-19 1.2308889e-05 6.2904193e-21 1.3868931e-34)
(0.0030316061 8.2103593e-05 -1.1721628e-19 8.1556559e-06 -5.156951e-21 9.951166e-35)
(0.0028255024 5.421789e-05 3.042596e-19 5.2598911e-06 1.4227042e-20 7.8836976e-34)
(0.0027125133 3.559311e-05 7.8960622e-20 3.3355797e-06 4.0044303e-21 6.3144766e-35)
(0.002662869 2.3187694e-05 -2.0089509e-19 2.1132757e-06 -1.1232855e-20 4.9327923e-34)
(0.0026582705 1.5169936e-05 3.046581e-20 1.3675554e-06 1.929374e-21 1.4036319e-35)
(0.002681224 9.5476676e-06 3.059454e-20 9.4916305e-07 2.2254483e-21 1.8081793e-35)
(0.0027283919 5.8215856e-06 5.280716e-21 7.006303e-07 4.5875414e-22 7.2211629e-37)
(0.0027877176 2.4963688e-06 -5.8621043e-20 6.0533488e-07 -6.1389701e-21 1.2687056e-34)
(0.0028688519 1.7210174e-07 9.1571217e-20 5.1291757e-07 1.2461282e-20 4.808788e-34)
(0.0029620866 -4.2750351e-06 1.9476022e-20 5.9070775e-07 3.7317691e-21 4.3095054e-35)
(0.0030522041 -1.0902735e-05 1.9172986e-20 6.6215655e-07 7.1675578e-21 1.1903057e-34)
(1.5657572e-10 -2.1906045e-09 4.362014e-24 3.076258e-08 -5.567112e-23 5.8282532e-37)
(1.5869213e-09 -2.0354697e-08 -5.9344547e-24 2.6215148e-07 6.7731877e-23 2.3092194e-37)
(5.5577993e-09 -6.5488564e-08 -2.4333769e-24 7.7551003e-07 2.4629943e-23 1.6333519e-38)
(1.4188491e-08 -1.5309966e-07 3.2643836e-24 1.6616602e-06 -2.9476007e-23 1.4685309e-38)
(3.103742e-08 -3.0654517e-07 -2.1752312e-23 3.0480685e-06 1.7688857e-22 3.4486405e-37)
(6.2092746e-08 -5.610265e-07 -2.1967975e-24 5.1077362e-06 1.6252306e-23 1.9065976e-39)
(1.1731536e-07 -9.6892003e-07 -3.7797939e-23 8.070775e-06 2.5589679e-22 3.1132602e-37)
(2.130977e-07 -1.6074915e-06 -5.4459942e-23 1.2241588e-05 3.3824168e-22 3.6141726e-37)
(3.7624755e-07 -2.5900214e-06 5.9199571e-22 1.8018689e-05 -3.3750824e-21 2.4142984e-35)
(6.5032808e-07 -4.0814778e-06 -7.000258e-22 2.5918962e-05 3.6621008e-21 1.9246276e-35)
(1.1057266e-06 -6.3204392e-06 4.421762e-22 3.6605268e-05 -2.1207475e-21 4.4073034e-36)
(1.8555035e-06 -9.6493057e-06 8.5276725e-22 5.0916802e-05 -3.745375e-21 9.4603452e-36)
(3.0801697e-06 -1.4555382e-05 -2.2201172e-21 6.9900048e-05 8.9165861e-21 3.7189114e-35)
(5.0660555e-06 -2.1725722e-05 -3.5985698e-22 9.4836674e-05 1.3194688e-21 5.6945828e-37)
(8.2640259e-06 -3.2118581e-05 1.814324e-21 0.00012726213 -6.0619934e-21 8.4811558e-36)
(1.3378166e-05 -4.705383e-05 1.6232561e-21 0.00016896556 -4.931798e-21 4.0015031e-36)
(2.1497793e-05 -6.8323022e-05 -2.4401676e-21 0.00022195723 6.7257683e-21 5.3680061e-36)
(3.4290256e-05 -9.8315771e-05 1.139585e-20 0.00028838555 -2.842266e-20 7.0104366e-35)
(5.4276971e-05 -0.00014015312 -8.6394891e-21 0.0003703816 1.9444753e-20 2.4381548e-35)
(8.5218832e-05 -0.00019780755 5.4418844e-21 0.0004698085 -1.1019988e-20 5.9278309e-36)
(0.00013263927 -0.00027617458 -2.3185859e-20 0.00058789772 4.2112907e-20 6.6939257e-35)
(0.00020450875 -0.00038104094 -7.5484309e-21 0.00072476993 1.225697e-20 4.4913712e-36)
(0.00031209693 -0.00051887167 1.9504877e-20 0.00087886677 -2.8215846e-20 1.9367196e-35)
(0.00047096113 -0.0006963231 -3.5938592e-20 0.0010463633 4.6145434e-20 4.3418279e-35)
(0.00070197102 -0.00091939151 -1.7112691e-20 0.0012206828 1.9425648e-20 6.6599959e-36)
(0.0010321727 -0.0011921481 2.4549583e-20 0.0013922804 -2.4530478e-20 9.5165399e-36)
(0.0014951911 -0.0015150919 1.6430166e-19 0.0015488692 -1.438311e-19 3.0401212e-34)
(0.0021308445 -0.001883306 8.6483618e-20 0.0016762452 -6.5974158e-20 6.1755893e-35)
(0.0029832988 -0.0022846087 -4.9588563e-20 0.0017597841 3.2762841e-20 1.5302061e-35)
(0.004097082 -0.0026981021 6.0234778e-20 0.0017865012 -3.4211407e-20 1.7463877e-35)
(0.0055110204 -0.0030936498 -4.2302933e-20 0.0017471773 2.0462614e-20 6.8358628e-36)
(0.0072497567 -0.0034328634 -2.6595036e-19 0.0016385354 1.0833589e-19 2.1973157e-34)
(0.0093134445 -0.0036720282 9.7854853e-20 0.0014648893 -3.3110574e-20 2.4780115e-35)
(0.011665906 -0.0037669809 3.176287e-19 0.0012387408 -8.7768207e-20 2.2268294e-34)
(0.014224901 -0.0036800404 -1.1405186e-19 0.00098001663 2.518876e-20 2.5073727e-35)
(0.0168583 -0.0033876584 -1.69903e-19 0.00071360972 2.9154884e-20 4.9776991e-35)
(0.019386579 -0.0028899276 3.0966357e-19 0.0004668955 -3.9708972e-20 1.5156444e-34)
(0.021599133 -0.0022134034 9.8216514e-20 0.00026384745 -8.8788064e-21 1.4327699e-35)
(0.023280297 -0.0014132622 -1.7940987e-19 0.00012139758 1.0359864e-20 4.6056095e-35)
(0.024245142 -0.00056746654 -7.2946655e-20 4.5788468e-05 2.1822632e-21 7.5199688e-36)
(0.024376429 0.00023494102 3.5102357e-19 3.1168681e-05 -2.3211174e-21 1.7621936e-34)
(0.023654045 0.00091121132 -9.8437509e-20 6.1207055e-05 -1.2253839e-21 1.4345564e-35)
(0.022164917 0.0014019455 -1.3934231e-19 0.00011373677 -3.8332806e-21 3.041408e-35)
(0.020084845 0.0016828709 -3.5998486e-19 0.00016708254 -1.4012715e-20 2.1891853e-34)
(0.017642497 0.0017659039 6.5642051e-19 0.00020556317 3.0945479e-20 7.9817056e-34)
(0.015074631 0.0016903825 -4.0408839e-19 0.00022205097 -2.1291906e-20 3.3639613e-34)
(0.012585258 0.001509016 -9.6247045e-20 0.00021723455 -5.4021585e-21 2.1470484e-35)
(0.010322304 0.0012737339 -3.5796118e-19 0.00019662274 -2.075147e-20 3.3707272e-34)
(0.0083714481 0.0010261693 -4.0137904e-19 0.00016718582 -2.353447e-20 4.8426663e-34)
(0.0067653467 0.0007941553 -1.8986257e-20 0.00013497582 -1.1112376e-21 1.2440155e-36)
(0.0054968548 0.00059287869 7.4740058e-20 0.00010420141 4.347502e-21 2.2206536e-35)
(0.0045348328 0.00042806956 -5.0988816e-19 7.7231293e-05 -2.9577689e-20 1.1933675e-33)
(0.0038342929 0.00029943282 -2.0112521e-19 5.5098951e-05 -1.1758844e-20 2.1490041e-34)
(0.0033464803 0.00020311086 -1.9076532e-19 3.7895084e-05 -1.1406767e-20 2.2439673e-34)
(0.0030238212 0.00013380256 -5.7660929e-20 2.5203539e-05 -3.5916169e-21 2.3916434e-35)
(0.0028242277 8.5443824e-05 -4.0859256e-19 1.6262263e-05 -2.6989689e-20 1.4102978e-33)
(0.00271391 5.2852697e-05 1.4784832e-19 1.0259615e-05 1.0602442e-20 2.1947326e-34)
(0.0026648648 3.0950419e-05 -4.06957e-20 6.408622e-06 -3.22815e-21 2.0061852e-35)
(0.0026598767 1.6749402e-05 -2.9842497e-19 4.0337207e-06 -2.7016749e-20 1.3355388e-33)
(0.0026820857 6.7147888e-06 -1.0453591e-19 2.6879448e-06 -1.0946677e-20 2.0931689e-34)
(0.0027285091 1.920921e-07 1.0720313e-19 1.875327e-06 1.3570395e-20 2.9535081e-34)
(0.0027872243 -5.6724872e-06 3.0843621e-19 1.5674083e-06 4.743014e-20 3.4866899e-33)
(0.0028671803 -9.6537306e-06 -7.8995998e-20 1.2598108e-06 -1.6005443e-20 3.5563637e-34)
(0.0029591283 -1.7267623e-05 -9.1039477e-20 1.5372008e-06 -2.5950702e-20 9.240827e-34)
(0.0030513537 -2.6258728e-05 -2.3587402e-20 1.636343e-06 -1.3034825e-20 1.6953583e-34)
(6.3570818e-10 -6.4007642e-09 -2.8357921e-23 6.4505598e-08 2.7256307e-22 6.5363735e-36)
(5.8960681e-09 -5.6898556e-08 7.8779943e-23 5.4963049e-07 -7.156104e-22 1.2004598e-35)
(1.904474e-08 -1.7586239e-07 -4.1549636e-23 1.6259771e-06 3.5359557e-22 1.5695785e-36)
(4.4853202e-08 -3.949856e-07 6.0759595e-24 3.4836925e-06 -4.8448512e-23 1.8551007e-38)
(9.0845762e-08 -7.6124474e-07 -1.5817006e-22 6.3909256e-06 1.1850786e-21 7.2511469e-36)
(1.6885495e-07 -1.3433411e-06 2.1430783e-22 1.0711304e-05 -1.5146124e-21 7.7639807e-36)
(2.9736952e-07 -2.2406981e-06 -4.2391726e-22 1.6929278e-05 2.8310601e-21 1.7868607e-35)
(5.0513313e-07 -3.5963304e-06 2.5905765e-22 2.5685943e-05 -1.6346128e-21 3.9565875e-36)
(8.3674473e-07 -5.6149934e-06 1.2749295e-21 3.7821437e-05 -7.5913196e-21 5.7209112e-35)
(1.3612361e-06 -8.5883257e-06 -3.9579753e-22 5.4426311e-05 2.2197679e-21 3.3088658e-36)
(2.185216e-06 -1.2929414e-05 -1.9425527e-21 7.6900423e-05 1.0239013e-20 4.8015375e-35)
(3.4728819e-06 -1.9219645e-05 7.6312487e-22 0.00010701767 -3.7712137e-21 4.4770305e-36)
(5.4763602e-06 -2.8271416e-05 6.5556387e-23 0.00014699225 -3.0294729e-22 2.0011663e-38)
(8.5813106e-06 -4.1210395e-05 -3.2938736e-21 0.00019953873 1.4194397e-20 3.0675824e-35)
(1.337497e-05 -5.9581194e-05 1.3205247e-20 0.00026791263 -5.290734e-20 3.0027703e-34)
(2.0746199e-05 -8.547829e-05 -1.0367133e-20 0.00035591163 3.8494851e-20 1.1315122e-34)
(3.2031063e-05 -0.00012170247 -1.259755e-22 0.0004678082 4.3205022e-22 1.0266003e-38)
(4.9220663e-05 -0.00017193574 9.2933032e-21 0.00060817494 -2.9333026e-20 3.455909e-35)
(7.5251783e-05 -0.0002409182 -2.9855306e-20 0.00078155615 8.6398686e-20 2.2250339e-34)
(0.00011440289 -0.00033459428 1.772585e-20 0.00099193606 -4.684595e-20 4.9456733e-35)
(0.00017281895 -0.00046017696 3.3029493e-20 0.0012419657 -7.9388697e-20 1.0970321e-34)
(0.00025917832 -0.00062604733 1.6575812e-20 0.0015319433 -3.6080228e-20 1.7928999e-35)
(0.00038549627 -0.00084138156 -1.0069892e-19 0.0018586013 1.9761924e-19 4.3726031e-34)
(0.00056801847 -0.0011153793 -6.3969835e-20 0.0022138529 1.1266269e-19 1.1901847e-34)
(0.00082809154 -0.0014559779 4.9703773e-20 0.0025837555 -7.8175928e-20 4.9570232e-35)
(0.0011928215 -0.0018680093 -3.4453002e-20 0.0029480471 4.814339e-20 1.6832321e-35)
(0.0016952186 -0.0023508546 1.5157696e-19 0.0032806457 -1.8712441e-19 2.3618439e-34)
(0.0023735085 -0.0028958662 -5.0500513e-20 0.0035514244 5.473964e-20 1.9505005e-35)
(0.0032690004 -0.0034838658 1.5599166e-19 0.0037293996 -1.4743727e-19 1.4209896e-34)
(0.0044219154 -0.004083295 -9.9911101e-20 0.0037870914 8.1672557e-20 4.5625806e-35)
(0.005865316 -0.0046497057 6.9271713e-20 0.0037049821 -4.8498473e-20 1.7587848e-35)
(0.0076167279 -0.005127438 -2.8176886e-19 0.003476175 1.6703513e-19 2.3895268e-34)
(0.0096681757 -0.0054539864 4.441343e-20 0.0031097688 -2.1993409e-20 4.9893764e-36)
(0.011975449 -0.0055671713 -2.5433874e-19 0.0026320385 1.035056e-19 1.4072051e-34)
(0.014449837 -0.0054151438 2.6158734e-19 0.0020849057 -8.573203e-20 1.310273e-34)
(0.016955311 -0.0049679647 8.8887342e-20 0.001521407 -2.2856731e-20 1.3635905e-35)
(0.019313561 -0.0042287494 -1.1652784e-18 0.00099852917 2.269357e-19 2.162821e-33)
(0.02132114 -0.0032400776 -3.1559428e-19 0.00056720293 4.421285e-20 1.5003303e-34)
(0.022776978 -0.002084418 2.6833864e-19 0.00026301595 -2.4878591e-20 1.0509912e-34)
(0.023517222 -0.00087500035 -2.6707573e-19 9.8825009e-05 1.3934612e-20 1.0334839e-34)
(0.023449952 0.00026152697 6.8752848e-20 6.2182339e-05 -1.2449718e-21 6.9599303e-36)
(0.022580584 0.0012095829 4.2600746e-19 0.00011879959 4.1765722e-21 2.7756154e-34)
(0.021015393 0.0018900308 -1.9371334e-20 0.00022244475 -6.1851774e-22 6.0821729e-37)
(0.018938069 0.0022744914 -1.3554712e-19 0.00032839363 -6.6084949e-21 3.2139079e-35)
(0.016572041 0.0023850015 6.3520653e-20 0.00040473003 3.8713687e-21 7.7296974e-36)
(0.014136619 0.0022800284 -3.0255446e-20 0.00043732613 -2.0905804e-21 1.9475826e-36)
(0.01181148 0.0020338916 -8.285042e-20 0.00042790308 -6.1476771e-21 1.6363246e-35)
(0.0097198786 0.0017174401 1.2041898e-18 0.00038763294 9.2537429e-20 3.9062821e-33)
(0.0079278739 0.0013860053 -1.2647012e-19 0.00033028576 -9.8314102e-21 4.9000741e-35)
(0.0064561531 0.0010757903 1.0927321e-19 0.00026759207 8.4709043e-21 4.1783162e-35)
(0.0052929181 0.00080620062 -9.5721728e-19 0.00020759265 -7.3640558e-20 3.6743985e-33)
(0.004407883 0.00058447512 4.8726202e-19 0.00015478588 3.7314617e-20 1.0939664e-33)
(0.0037600408 0.00041026772 3.7135417e-19 0.00011117836 2.8591022e-20 7.3232272e-34)
(0.0033060036 0.00027873724 3.2730386e-19 7.7014937e-05 2.5682783e-20 6.5801683e-34)
(0.0030034777 0.00018319483 2.8987199e-19 5.1589472e-05 2.3607559e-20 6.0054565e-34)
(0.0028149948 0.00011584185 4.1665353e-19 3.3500691e-05 3.5884504e-20 1.4545112e-33)
(0.0027101994 7.0004735e-05 -7.5801781e-19 2.1235915e-05 -7.0826096e-20 5.7165259e-33)
(0.0026635105 3.8889493e-05 4.2166551e-19 1.3286789e-05 4.3613266e-20 2.1327708e-33)
(0.0026592048 1.8564606e-05 5.7124142e-19 8.3397591e-06 6.7592652e-20 4.8458477e-33)
(0.0026813462 4.0830766e-06 -3.6917905e-19 5.5069265e-06 -5.0641321e-20 2.5840052e-33)
(0.0027273992 -5.3557218e-06 -1.0134913e-19 3.781744e-06 -1.6884322e-20 2.6155106e-34)
(0.0027857761 -1.38801e-05 -7.3881333e-20 3.1156287e-06 -1.5004125e-20 1.9837942e-34)
(0.0028643614 -1.9562935e-05 3.0188404e-19 2.448236e-06 8.1109509e-20 5.1391128e-33)
(0.0029553665 -3.0316669e-05 1.6008616e-19 3.015347e-06 5.9996366e-20 2.7734647e-33)
(0.0030573605 -4.0612084e-05 -4.3156548e-21 3.0329091e-06 -3.0980783e-21 5.3841953e-36)
(1.8063387e-09 -1.4083385e-08 3.3351943e-23 1.098367e-07 -2.5308398e-22 3.2408161e-36)
(1.6148156e-08 -1.2290147e-07 -1.8913274e-22 9.356804e-07 1.3898065e-21 2.5915256e-35)
(5.033847e-08 -3.7320839e-07 2.1891409e-22 2.7680367e-06 -1.5474062e-21 1.7227573e-35)
(1.1418325e-07 -8.2267862e-07 -1.0831127e-22 5.9301653e-06 7.3592318e-22 2.4609371e-36)
(2.2265694e-07 -1.5560004e-06 -5.02744e-23 1.0880312e-05 3.2864454e-22 3.2128955e-37)
(3.98291e-07 -2.6943078e-06 5.543066e-22 1.8239361e-05 -3.4918894e-21 2.3800201e-35)
(6.7481548e-07 -4.4092807e-06 -1.794526e-22 2.8835969e-05 1.0898437e-21 1.5275998e-36)
(1.1025485e-06 -6.9428859e-06 -4.8559947e-22 4.3767278e-05 2.84084e-21 6.8918493e-36)
(1.7564934e-06 -1.0634738e-05 -4.7348836e-23 6.44727e-05 2.6640581e-22 4.0605302e-38)
(2.748295e-06 -1.595922e-05 -5.1003292e-22 9.2822486e-05 2.7542448e-21 2.9331689e-36)
(4.2439395e-06 -2.3575569e-05 9.0418805e-22 0.00013121994 -4.6752583e-21 5.7581456e-36)
(6.4898157e-06 -3.4394461e-05 -7.9472534e-22 0.0001827138 3.9244126e-21 2.7853313e-36)
(9.8509544e-06 -4.9665375e-05 -3.6998962e-21 0.00025111389 1.7399161e-20 3.7875503e-35)
(1.4866761e-05 -7.1088955e-05 -1.3570826e-22 0.00034109638 6.0589714e-22 3.202966e-38)
(2.2331589e-05 -0.00010095797 4.5011532e-21 0.00045827609 -1.9016362e-20 2.2205061e-35)
(3.3410028e-05 -0.00014232831 4.0137665e-21 0.00060921119 -1.5988962e-20 1.116082e-35)
(4.9799451e-05 -0.00019921622 -4.3388319e-21 0.00080128948 1.6234456e-20 8.2787452e-36)
(7.3955973e-05 -0.00027681107 5.2158445e-22 0.0010424294 -1.8255744e-21 7.6381842e-38)
(0.00010940118 -0.00038167653 1.3220907e-20 0.0013405141 -4.3097876e-20 3.1564459e-35)
(0.00016112786 -0.00052189399 1.9998432e-20 0.0017024722 -6.0437764e-20 4.6899914e-35)
(0.00023611882 -0.0007070743 -2.8160437e-20 0.00213294 7.8519294e-20 6.1111963e-35)
(0.00034398079 -0.00094813116 -3.4694736e-20 0.00263249 8.8807185e-20 6.1838476e-35)
(0.0004976744 -0.001256684 5.6664483e-20 0.0031955263 -1.324589e-19 1.1182204e-34)
(0.0007142729 -0.0016439352 -8.4275851e-20 0.0038081064 1.7893864e-19 1.7091253e-34)
(0.0010156316 -0.0021189074 -1.7362207e-19 0.0044461416 3.3294204e-19 5.1191862e-34)
(0.0014287777 -0.0026860115 4.8090535e-19 0.0050745962 -8.2789384e-19 2.8353523e-33)
(0.0019857174 -0.0033420458 -3.074539e-19 0.0056483981 4.7211963e-19 8.5683936e-34)
(0.0027223858 -0.0040730023 5.2265589e-19 0.0061155258 -7.1089512e-19 1.8760856e-33)
(0.0036761522 -0.0048510842 -7.4048832e-19 0.0064225341 8.8525002e-19 2.9237439e-33)
(0.0048815047 -0.0056327329 9.2712713e-19 0.0065220166 -9.6558122e-19 3.642542e-33)
(0.0063639368 -0.0063583741 -1.0638647e-18 0.0063803693 9.5535935e-19 3.9007466e-33)
(0.0081317248 -0.0069550075 1.9667684e-19 0.0059858336 -1.5051254e-19 1.1091895e-34)
(0.01016664 -0.0073422164 7.3851434e-19 0.0053541439 -4.7513895e-19 1.3305812e-33)
(0.01241445 -0.0074417539 -4.4833728e-19 0.0045306157 2.3862542e-19 4.2665437e-34)
(0.014778298 -0.0071906256 1.4937673e-19 0.003587623 -6.4489984e-20 4.2146803e-35)
(0.017117621 -0.0065559706 4.597111e-20 0.0026168803 -1.5700257e-20 3.6341865e-36)
(0.019256076 -0.0055488054 5.9102674e-19 0.0017165862 -1.5440582e-19 5.5983836e-34)
(0.02100037 -0.0042317625 1.9861154e-19 0.00097449909 -3.7827169e-20 6.0319904e-35)
(0.022168108 -0.0027175758 2.0422135e-19 0.00045126346 -2.6281268e-20 6.2291188e-35)
(0.02262268 -0.0011558743 2.0359375e-19 0.00016791984 -1.5379678e-20 6.1878359e-35)
(0.022304243 0.00029031654 -1.0340925e-18 0.00010188257 3.1709174e-20 1.6316119e-33)
(0.021250077 0.0014777101 4.4743152e-19 0.0001932707 2.8010181e-21 3.1875121e-34)
(0.019589731 0.0023138725 6.9452717e-20 0.00036274725 2.4726863e-21 8.1687292e-36)
(0.01751538 0.0027734398 -7.7540035e-19 0.00053491746 -4.5012542e-20 1.0993941e-33)
(0.015242491 0.0028937426 -3.7705001e-19 0.00065727794 -2.800728e-20 2.8461953e-34)
(0.012967958 0.0027543992 1.7667978e-19 0.00070782412 1.5067705e-20 6.9168181e-35)
(0.010841505 0.0024500373 6.0844164e-19 0.00069072264 5.6018077e-20 9.1615792e-34)
(0.0089569236 0.0020668978 -2.4963456e-19 0.00062493486 -2.3861474e-20 1.7343496e-34)
(0.0073573435 0.0016698396 6.8509326e-19 0.00053278015 6.6339649e-20 1.4772789e-33)
(0.0060496324 0.0012999249 3.4875688e-19 0.0004327093 3.3722582e-20 4.3466011e-34)
(0.0050165315 0.00097849118 4.4936489e-19 0.00033709126 4.3173784e-20 8.2191469e-34)
(0.0042284777 0.00071321204 1.1240763e-18 0.00025275344 1.0759302e-19 5.8755504e-33)
(0.0036487247 0.00050347018 -8.0702707e-19 0.00018276335 -7.7623553e-20 3.4725102e-33)
(0.0032398655 0.00034376767 2.4362565e-19 0.00012753923 2.3844061e-20 3.6450929e-34)
(0.0029656394 0.00022661888 -3.8582482e-19 8.6087807e-05 -3.9102832e-20 1.0601163e-33)
(0.0027939994 0.00014314092 -3.3620712e-19 5.6311667e-05 -3.5968312e-20 9.4127481e-34)
(0.0026986266 8.5749633e-05 -1.1981739e-19 3.5930823e-05 -1.3894122e-20 1.416816e-34)
(0.002656919 4.633405e-05 -9.8636851e-19 2.2592576e-05 -1.2659228e-19 1.1561741e-32)
(0.0026549773 2.0369262e-05 -2.3685172e-19 1.4222528e-05 -3.4798334e-20 8.2491477e-34)
(0.002678184 1.5914188e-06 4.771062e-19 9.3760535e-06 8.129838e-20 4.2691493e-33)
(0.0027245372 -1.0664363e-05 1.5518141e-19 6.4038119e-06 3.2170336e-20 6.0656125e-34)
(0.0027830254 -2.1891965e-05 -9.7018793e-20 5.2283633e-06 -2.4537749e-20 3.379729e-34)
(0.0028600103 -2.9258987e-05 -1.6078922e-19 4.0709394e-06 -5.398329e-20 1.4448742e-33)
(0.0029504188 -4.3076317e-05 -1.8311098e-19 5.018183e-06 -8.4564231e-20 3.5035523e-33)
(0.0030652418 -5.3775534e-05 8.8072832e-21 4.791289e-06 7.5145854e-21 2.0377534e-35)
(4.1410195e-09 -2.6193042e-08 1.5398867e-22 1.6569855e-07 -9.5720223e-22 3.0086869e-35)
(3.6333872e-08 -2.2638971e-07 9.1877297e-23 1.4107604e-06 -5.5976175e-22 2.7189026e-36)
(1.1118167e-07 -6.8109129e-07 -1.0406923e-22 4.1729227e-06 6.1836262e-22 1.7830459e-36)
(2.4719519e-07 -1.4863473e-06 -4.9533389e-22 8.9387755e-06 2.868393e-21 2.4317648e-35)
(4.7215023e-07 -2.7825111e-06 3.4373223e-22 1.6401734e-05 -1.940528e-21 7.3026569e-36)
(8.2663014e-07 -4.7672449e-06 -6.2576994e-22 2.7500597e-05 3.4469197e-21 1.5135813e-35)
(1.3696441e-06 -7.7166436e-06 3.4192089e-22 4.3490523e-05 -1.8376375e-21 2.8353807e-36)
(2.186677e-06 -1.2014006e-05 1.0256813e-22 6.603436e-05 -5.3740587e-22 1.6096677e-37)
(3.4014403e-06 -1.8189216e-05 -7.2914874e-22 9.7316382e-05 3.7192111e-21 5.1618807e-36)
(5.1926769e-06 -2.6971084e-05 -1.9690507e-21 0.0001401777 9.7602305e-21 2.4003923e-35)
(7.8182759e-06 -3.9356684e-05 -1.2363108e-22 0.00019827376 5.9430101e-22 6.0568075e-38)
(1.164966e-05 -5.6701616e-05 5.0585635e-21 0.00027624756 -2.3527923e-20 6.50991e-35)
(1.7220668e-05 -8.0835956e-05 -8.7332547e-21 0.00037990895 3.9202206e-20 1.2487628e-34)
(2.5296582e-05 -0.00011420996 1.7580331e-20 0.00051639888 -7.5950153e-20 3.2649767e-34)
(3.6970763e-05 -0.00016007209 -5.7209626e-21 0.00069430436 2.3714135e-20 2.2372483e-35)
(5.3798664e-05 -0.00022267864 1.5111811e-20 0.00092367064 -5.9900576e-20 1.0137234e-34)