/*--------------------------------*- C++ -*----------------------------------*\
  =========                 |
  \\      /  F ield         | OpenFOAM: The Open Source CFD Toolbox
   \\    /   O peration     | Website:  https://openfoam.org
    \\  /    A nd           | Version:  13
     \\/     M anipulation  |
\*---------------------------------------------------------------------------*/
FoamFile
{
    format      ascii;
    class       volScalarField;
    location    "4.799793";
    object      p;
}
// * * * * * * * * * * * * * * * * * * * * * * * * * * * * * * * * * * * * * //

dimensions      [0 2 -2 0 0 0 0];

internalField   nonuniform List<scalar> 
17140
(
-0.15045792
-0.15069781
-0.15098762
-0.15128171
-0.15159943
-0.15194509
-0.15231881
-0.15272117
-0.15315284
-0.15361428
-0.15410585
-0.15462803
-0.15518174
-0.15576891
-0.15639335
-0.1570619
-0.15778607
-0.1585841
-0.15948359
-0.16052442
-0.16176225
-0.16327191
-0.16515104
-0.16752665
-0.17055894
-0.17438267
-0.17906896
-0.18476458
-0.19175628
-0.20033631
-0.21079807
-0.22348245
-0.23876041
-0.25703252
-0.27872257
-0.30426257
-0.33406614
-0.36848721
-0.40776039
-0.45191917
-0.50068929
-0.5533744
-0.60874167
-0.66478269
-0.7185238
-0.76632526
-0.80421236
-0.82344231
-0.82082791
-0.79161378
-0.72945786
-0.63977226
-0.52568447
-0.39029491
-0.23480409
-0.073501852
0.062530692
0.15076762
0.1828607
0.17375046
0.14482078
0.11081288
0.081679094
0.057994286
0.042368792
-0.15428795
-0.15452228
-0.15480508
-0.15509253
-0.15540316
-0.15574115
-0.15610665
-0.15650022
-0.15692252
-0.15737397
-0.15785491
-0.15836573
-0.15890729
-0.15948142
-0.16009174
-0.1607449
-0.16145212
-0.16223135
-0.16310978
-0.16412689
-0.16533787
-0.16681713
-0.16866187
-0.17099835
-0.17398632
-0.17776534
-0.18240918
-0.18805788
-0.19499765
-0.20352487
-0.21393293
-0.22656398
-0.24179036
-0.26001415
-0.28166072
-0.30716372
-0.33693843
-0.37134053
-0.41060636
-0.45477118
-0.50356281
-0.55628782
-0.61171344
-0.66783526
-0.72173359
-0.76974347
-0.80749665
-0.82777465
-0.82522935
-0.79511073
-0.73330487
-0.64355623
-0.52998495
-0.39546272
-0.240621
-0.07926312
0.057170467
0.14604919
0.17885933
0.17042171
0.14227922
0.10910099
0.080758684
0.057509283
0.042204006
-0.16377244
-0.1639931
-0.16425888
-0.1645301
-0.16482341
-0.16514268
-0.16548813
-0.16586028
-0.16625975
-0.16668689
-0.16714195
-0.16762519
-0.16813729
-0.16867977
-0.1692559
-0.1698718
-0.17053804
-0.17127175
-0.17209918
-0.17305875
-0.17420455
-0.17560988
-0.17737086
-0.17961193
-0.18249139
-0.18616013
-0.19069872
-0.19623227
-0.20304383
-0.21143981
-0.22171392
-0.23421132
-0.24930788
-0.26740976
-0.28894681
-0.31435744
-0.34406172
-0.3784197
-0.41767128
-0.46185416
-0.51069892
-0.56351645
-0.61907564
-0.67538974
-0.72961936
-0.77808539
-0.81610895
-0.83699388
-0.83515476
-0.80482438
-0.74257626
-0.65273507
-0.54023686
-0.40772285
-0.25433916
-0.092956246
0.044436848
0.1346973
0.16899193
0.1623177
0.13614813
0.10495711
0.078243686
0.056240116
0.041724359
-0.17866487
-0.17886395
-0.17910293
-0.17934849
-0.17961438
-0.17990403
-0.18021772
-0.18055596
-0.18091928
-0.18130795
-0.18172207
-0.18216175
-0.18262736
-0.18312005
-0.1836425
-0.18420008
-0.18480237
-0.18546526
-0.18621353
-0.18708396
-0.18812886
-0.18941975
-0.19105099
-0.19314417
-0.19585492
-0.19935061
-0.20372345
-0.20907793
-0.21568886
-0.22387833
-0.23394069
-0.24622502
-0.26111275
-0.27901624
-0.30037214
-0.32562606
-0.35520499
-0.38947488
-0.42867957
-0.47285862
-0.52174474
-0.57465275
-0.63035725
-0.68691581
-0.74156104
-0.79061509
-0.82931407
-0.85112582
-0.84978494
-0.8192523
-0.75644304
-0.66635652
-0.55546978
-0.42597496
-0.27485954
-0.11362361
0.024896228
0.11717199
0.1536992
0.14992449
0.12693522
0.098758306
0.074628208
0.053993966
0.041472941
-0.1983774
-0.19854757
-0.1987508
-0.19896189
-0.19919094
-0.19944076
-0.19971173
-0.20000434
-0.200319
-0.20065592
-0.20101504
-0.20139626
-0.20179966
-0.20222591
-0.20267706
-0.20315754
-0.2036757
-0.20424589
-0.20489103
-0.20564573
-0.20655992
-0.20770268
-0.20916591
-0.21106789
-0.21355998
-0.21682246
-0.22097098
-0.22609621
-0.23244752
-0.24035963
-0.25013781
-0.2621337
-0.27673553
-0.294363
-0.31546088
-0.34048307
-0.36986432
-0.40397656
-0.44306674
-0.48717463
-0.53603383
-0.58896383
-0.64475226
-0.70152519
-0.75658429
-0.80629634
-0.84586659
-0.8688263
-0.86830865
-0.83758324
-0.77372942
-0.68306072
-0.57396891
-0.44814594
-0.30000022
-0.1391288
0.00043076076
0.094806611
0.13401942
0.13406373
0.11530143
0.091002841
0.069891261
0.051278243
0.040256457
-0.22197786
-0.22211287
-0.22227273
-0.22244171
-0.22262567
-0.22282673
-0.22304536
-0.22328202
-0.22353704
-0.22381052
-0.2241023
-0.2244121
-0.22473973
-0.22508542
-0.22545056
-0.22583865
-0.22625674
-0.22671747
-0.22724163
-0.22786131
-0.22862359
-0.22959443
-0.23086264
-0.23254318
-0.23478206
-0.23775789
-0.24162509
-0.24648664
-0.25254272
-0.26011908
-0.26955268
-0.28119397
-0.29543872
-0.3127142
-0.33347349
-0.35817863
-0.38727152
-0.42112882
-0.45999885
-0.50392006
-0.55262669
-0.60544813
-0.66120048
-0.71809035
-0.7735256
-0.82398519
-0.86467591
-0.88902955
-0.88954466
-0.85868612
-0.79336841
-0.70166093
-0.59425338
-0.47235884
-0.32743349
-0.16779382
-0.027496745
0.068939782
0.1112045
0.11580324
0.10205945
0.082212409
0.064504429
0.047972451
0.038172684
-0.24823208
-0.24832767
-0.24844096
-0.2485618
-0.24869406
-0.24883929
-0.24899795
-0.24917043
-0.249357
-0.24955768
-0.24977226
-0.25000035
-0.25024156
-0.25049583
-0.25076399
-0.25104874
-0.25135591
-0.25169649
-0.25208908
-0.25256307
-0.25316235
-0.25394932
-0.25500896
-0.2564524
-0.25841973
-0.26108391
-0.26463781
-0.26920868
-0.27494094
-0.28214594
-0.29119218
-0.30242807
-0.31625665
-0.33311189
-0.35345408
-0.37775203
-0.40645316
-0.43993704
-0.47845187
-0.52203461
-0.57042255
-0.62296407
-0.67852398
-0.73540819
-0.79118719
-0.84250286
-0.88460337
-0.91074905
-0.91272903
-0.88199704
-0.81476449
-0.72149118
-0.61526542
-0.49669681
-0.35535644
-0.19719975
-0.056251873
0.041281565
0.086551119
0.096166412
0.087889165
0.072756837
0.058530016
0.044218721
0.035701677
-0.27569725
-0.27575052
-0.27581425
-0.27588312
-0.2759594
-0.27604412
-0.27613768
-0.2762404
-0.27635249
-0.27647394
-0.27660453
-0.27674389
-0.27689157
-0.27704741
-0.27721195
-0.27738731
-0.27757847
-0.27779499
-0.27805353
-0.27838091
-0.27881782
-0.27942287
-0.2802768
-0.28148621
-0.2831864
-0.28554323
-0.28875099
-0.29299234
-0.29841775
-0.30526272
-0.31389168
-0.32469005
-0.33805788
-0.35443566
-0.37428873
-0.39809062
-0.42629202
-0.45927363
-0.49728297
-0.54035749
-0.58824376
-0.6403213
-0.69552634
-0.75229962
-0.80841949
-0.86073151
-0.90456567
-0.93297365
-0.93694452
-0.90613604
-0.83741421
-0.74214876
-0.63650731
-0.52020239
-0.38224673
-0.22501013
-0.086897207
0.013308281
0.061300667
0.076059885
0.073348505
0.062906543
0.052109074
0.039987365
0.032732056
-0.30281142
-0.30282152
-0.30283463
-0.30285025
-0.30286906
-0.30289149
-0.30291787
-0.30294845
-0.30298337
-0.30302263
-0.30306608
-0.30311344
-0.30316442
-0.30321894
-0.30327757
-0.30334229
-0.30341759
-0.30351215
-0.30364118
-0.30382934
-0.3041144
-0.30455132
-0.30521647
-0.30621151
-0.30766641
-0.309741
-0.31262399
-0.31652243
-0.32162925
-0.32814792
-0.33637722
-0.34672194
-0.35960882
-0.37547242
-0.39478014
-0.41800691
-0.44560532
-0.47795645
-0.51530819
-0.55770274
-0.60490492
-0.65633811
-0.71103535
-0.76759942
-0.82403806
-0.87743272
-0.92322678
-0.95422708
-0.96063914
-0.93064164
-0.85995622
-0.76293204
-0.65690639
-0.54236262
-0.40616699
-0.25190896
-0.11459725
-0.014071419
0.036534289
0.056149668
0.058799359
0.052802289
0.04527487
0.035304268
0.029457611
-0.32803651
-0.32800503
-0.32796925
-0.32793329
-0.32789623
-0.32785791
-0.32781855
-0.32777828
-0.3277372
-0.3276953
-0.32765253
-0.3276088
-0.32756409
-0.32751863
-0.32747334
-0.32743042
-0.32739444
-0.32737381
-0.32738295
-0.32744506
-0.32759566
-0.3278866
-0.32839024
-0.3292034
-0.33045045
-0.33228512
-0.33489019
-0.33847298
-0.34325317
-0.34946147
-0.35735769
-0.36728425
-0.37967893
-0.3950037
-0.41372014
-0.43630416
-0.46320701
-0.49480813
-0.53135757
-0.5729081
-0.61925077
-0.66986347
-0.72389171
-0.78010394
-0.83673103
-0.89108125
-0.93869735
-0.97215337
-0.98097641
-0.9517342
-0.88001066
-0.78164512
-0.67539775
-0.5617228
-0.42630747
-0.27403575
-0.13599956
-0.041280711
0.01284957
0.036886811
0.044462532
0.042551439
0.038087989
0.030234598
0.02579211
-0.35000088
-0.34993195
-0.349852
-0.34976923
-0.34968122
-0.34958726
-0.34948738
-0.34938159
-0.34926985
-0.34915215
-0.34902852
-0.34889905
-0.34876405
-0.3486242
-0.34848094
-0.34833706
-0.34819762
-0.34807135
-0.34797258
-0.3479239
-0.34795945
-0.34812882
-0.34850114
-0.34916907
-0.35025194
-0.35189765
-0.35428297
-0.3576113
-0.36210657
-0.36800858
-0.37558482
-0.38515103
-0.3971034
-0.4118953
-0.42999579
-0.45188052
-0.47800011
-0.50873556
-0.54434067
-0.5848825
-0.63018363
-0.67978398
-0.73293155
-0.78854183
-0.84502821
-0.899863
-0.94864231
-0.98370469
-0.99399767
-0.96583224
-0.8941716
-0.79585442
-0.69067247
-0.57706453
-0.44160945
-0.29224761
-0.15628096
-0.065526523
-0.0090912768
0.018596168
0.030477063
0.032227208
0.030620587
0.024817637
0.021876882
-0.36764302
-0.36754328
-0.36742682
-0.36730511
-0.36717445
-0.36703358
-0.36688232
-0.36672046
-0.3665478
-0.36636422
-0.36616972
-0.36596453
-0.36574919
-0.36552481
-0.36529338
-0.36505835
-0.36482551
-0.36460425
-0.36440938
-0.36426355
-0.36420038
-0.36426814
-0.36453381
-0.36508699
-0.36604303
-0.36754495
-0.36976331
-0.37289255
-0.3771812
-0.38282367
-0.39009673
-0.39931964
-0.41085843
-0.42513153
-0.44260468
-0.46374641
-0.48900232
-0.51875535
-0.55326723
-0.5926226
-0.63667806
-0.68503277
-0.73701302
-0.79163882
-0.84743026
-0.90192666
-0.95069926
-0.98610989
-0.99684681
-0.96964233
-0.89951434
-0.80386684
-0.70079338
-0.58693931
-0.4508843
-0.30626232
-0.17437422
-0.086269955
-0.029322454
0.0013947936
0.01693233
0.021926342
0.022967164
0.019163504
0.017724568
-0.3803404
-0.38021863
-0.3800759
-0.37992586
-0.37976385
-0.3795881
-0.37939818
-0.37919361
-0.37897392
-0.37873876
-0.37848799
-0.37822178
-0.37794071
-0.37764607
-0.37734017
-0.37702692
-0.37671265
-0.37640731
-0.37612617
-0.37589212
-0.37573856
-0.37571301
-0.37588106
-0.37633027
-0.37717335
-0.37855022
-0.38062965
-0.38359529
-0.3876397
-0.39306414
-0.40015327
-0.40904985
-0.42017054
-0.43392494
-0.45074791
-0.4710875
-0.49538396
-0.52402062
-0.55726853
-0.5952336
-0.63780553
-0.68462977
-0.73508436
-0.78823857
-0.84264028
-0.89583401
-0.94335864
-0.97771541
-0.98810427
-0.96154499
-0.89486398
-0.80435651
-0.7045264
-0.59005103
-0.45484753
-0.31351799
-0.19004305
-0.10472063
-0.047689433
-0.014634727
0.0039172315
0.011750272
0.015232254
0.013336177
0.01341949
-0.38796613
-0.38783269
-0.38767572
-0.38750996
-0.38733012
-0.38713404
-0.386921
-0.38669021
-0.38644084
-0.38617221
-0.38588387
-0.38557568
-0.38524799
-0.38490187
-0.38453952
-0.38416476
-0.38378387
-0.38340672
-0.38304839
-0.38273132
-0.38248813
-0.3823651
-0.38242613
-0.38275677
-0.38346773
-0.38469677
-0.3866091
-0.38939418
-0.39326072
-0.3984642
-0.40514386
-0.41373636
-0.42458897
-0.43775727
-0.45384738
-0.47330341
-0.49653145
-0.52390465
-0.5556976
-0.59203666
-0.63284232
-0.67779553
-0.7263024
-0.77743824
-0.8297307
-0.88069853
-0.92592031
-0.95825823
-0.96735025
-0.94200017
-0.88054278
-0.79710802
-0.70084965
-0.58628833
-0.45307725
-0.31742416
-0.20222625
-0.12051491
-0.064166133
-0.029463214
-0.0084819227
0.0018107462
0.007523747
0.0074359749
0.0090091164
-0.3909202
-0.39078584
-0.39062689
-0.3904587
-0.39027543
-0.39007464
-0.38985536
-0.38961645
-0.38935673
-0.3890751
-0.38877066
-0.38844276
-0.38809121
-0.38771649
-0.38732012
-0.38690518
-0.38647706
-0.38604454
-0.38562128
-0.38522793
-0.3848948
-0.38466528
-0.38459995
-0.38478086
-0.38531569
-0.38634046
-0.38801992
-0.39054494
-0.39413082
-0.39898028
-0.40535921
-0.41359828
-0.42366734
-0.43635774
-0.45179484
-0.47022738
-0.49218574
-0.51806142
-0.54813167
-0.58254172
-0.62123988
-0.66393715
-0.71005713
-0.75866602
-0.80825865
-0.85632495
-0.89858166
-0.92828023
-0.93585237
-0.91240846
-0.85792283
-0.78222784
-0.68940667
-0.57515012
-0.44522363
-0.31824009
-0.21171981
-0.13410039
-0.07882547
-0.04306822
-0.020180764
-0.0077864203
-5.9688986e-05
0.0015308197
0.0045514762
-0.3900206
-0.38989472
-0.38974415
-0.38958587
-0.38941271
-0.389222
-0.38901262
-0.38878318
-0.38853216
-0.38825808
-0.38795951
-0.38763523
-0.3872843
-0.38690632
-0.38650171
-0.38607219
-0.38562143
-0.38515601
-0.38468681
-0.38423083
-0.38381382
-0.38347351
-0.38326377
-0.38325925
-0.3835603
-0.38429705
-0.38563136
-0.38775491
-0.39088626
-0.39525029
-0.40110204
-0.40861869
-0.41810904
-0.42991742
-0.44410333
-0.46154524
-0.48217745
-0.50636751
-0.53443504
-0.56657528
-0.60278034
-0.64280557
-0.68610555
-0.73174627
-0.77820784
-0.82297719
-0.86198375
-0.88881711
-0.89524607
-0.87515309
-0.8287773
-0.76014053
-0.67029684
-0.55731382
-0.43366406
-0.31651803
-0.21870199
-0.1454432
-0.09169138
-0.055426643
-0.031102583
-0.016946062
-0.0074273222
-0.0042997694
9.9691978e-05
-0.38633778
-0.38622786
-0.38609521
-0.38595658
-0.38580428
-0.38563565
-0.3854495
-0.38524429
-0.38501828
-0.38476969
-0.38449669
-0.38419749
-0.38387044
-0.38351419
-0.3831279
-0.38271162
-0.38226685
-0.38179725
-0.38130985
-0.3808166
-0.38033662
-0.37989916
-0.37954753
-0.37934389
-0.37937471
-0.37975632
-0.38063922
-0.3822094
-0.38468565
-0.38830687
-0.3933332
-0.39998192
-0.40857486
-0.41928987
-0.43273243
-0.44853837
-0.46708943
-0.48918089
-0.51484307
-0.54429148
-0.57756443
-0.61447567
-0.65453405
-0.69684595
-0.73990863
-0.78129395
-0.81707206
-0.84141463
-0.84803016
-0.83313765
-0.79452638
-0.73130007
-0.64362231
-0.53505266
-0.41903785
-0.31300174
-0.2236182
-0.15479168
-0.10285922
-0.066533528
-0.041180001
-0.025584938
-0.014505759
-0.0099979513
-0.0042975975
-0.38104256
-0.3809532
-0.38084437
-0.38073129
-0.38060652
-0.38046761
-0.38031339
-0.38014232
-0.37995261
-0.37974234
-0.37950947
-0.37925186
-0.37896734
-0.3786538
-0.37830933
-0.37793248
-0.37752263
-0.37708057
-0.37660932
-0.37611536
-0.37561037
-0.37511372
-0.37465574
-0.37428217
-0.37405954
-0.37408156
-0.37447554
-0.37540757
-0.37708459
-0.37974925
-0.38367531
-0.38913009
-0.3964378
-0.40573298
-0.41715938
-0.43088327
-0.44753582
-0.46709722
-0.489874
-0.51619997
-0.54608659
-0.57944302
-0.61588358
-0.6546069
-0.69422317
-0.73234238
-0.76531742
-0.78846393
-0.79745356
-0.78880505
-0.75603658
-0.69573854
-0.61152363
-0.50836625
-0.404026
-0.30811518
-0.22669965
-0.16228215
-0.11239911
-0.07639107
-0.050365873
-0.033632231
-0.021215439
-0.015496325
-0.0085920054
-0.37512674
-0.37505932
-0.37497679
-0.37489106
-0.374796
-0.37468958
-0.37457071
-0.37443798
-0.37428971
-0.37412406
-0.37393898
-0.37373226
-0.37350151
-0.37324422
-0.37295781
-0.37263981
-0.37228804
-0.37190098
-0.3714783
-0.37102167
-0.37053597
-0.370031
-0.36952393
-0.36904268
-0.36863038
-0.36835106
-0.3682964
-0.36859278
-0.36940741
-0.37095019
-0.37347177
-0.37724189
-0.38255599
-0.38964552
-0.39879926
-0.41033372
-0.42427999
-0.44085624
-0.4604347
-0.48318244
-0.50925683
-0.53868494
-0.57123965
-0.60627524
-0.64259906
-0.67793965
-0.70934381
-0.73353053
-0.74686709
-0.74361949
-0.71329943
-0.65503077
-0.57749892
-0.4806437
-0.3872243
-0.3022817
-0.2281253
-0.16803414
-0.12038205
-0.085008149
-0.058635252
-0.041046249
-0.027504718
-0.02073931
-0.012739989
-0.36936391
-0.36931633
-0.36925813
-0.36919771
-0.36913033
-0.36905443
-0.36896913
-0.36887322
-0.36876529
-0.36864372
-0.3685067
-0.36835219
-0.36817793
-0.36798142
-0.36775997
-0.36751073
-0.3672308
-0.3669174
-0.36656818
-0.36618167
-0.36575794
-0.36529965
-0.36481354
-0.36431251
-0.36381854
-0.3633668
-0.36301092
-0.36282957
-0.36293362
-0.36347294
-0.36464141
-0.36667362
-0.36984189
-0.37442448
-0.38070164
-0.38895484
-0.39944458
-0.41240271
-0.42805539
-0.44666521
-0.46849711
-0.49371699
-0.52228065
-0.55384436
-0.58731932
-0.62093573
-0.65303959
-0.68045182
-0.69827628
-0.69812722
-0.66671196
-0.61128404
-0.53833565
-0.45727165
-0.37062289
-0.29548635
-0.22804571
-0.17217232
-0.12688732
-0.092411097
-0.065973446
-0.047794518
-0.033339759
-0.025685993
-0.0166992
-0.36421993
-0.36418939
-0.364153
-0.36411336
-0.36406886
-0.36401856
-0.36396166
-0.36389725
-0.36382423
-0.36374135
-0.36364712
-0.36353987
-0.36341767
-0.36327837
-0.36311952
-0.36293846
-0.36273229
-0.36249795
-0.36223238
-0.36193264
-0.36159625
-0.36122173
-0.3608094
-0.36036242
-0.3598879
-0.35939844
-0.35891554
-0.35847379
-0.35812595
-0.35794874
-0.35805048
-0.35857762
-0.35972155
-0.36171756
-0.36484138
-0.36940405
-0.37574338
-0.38419543
-0.39513044
-0.40894969
-0.42607328
-0.4468607
-0.47154309
-0.49995193
-0.53167065
-0.56584299
-0.60083028
-0.63178296
-0.65200398
-0.64898914
-0.6182288
-0.56650571
-0.5005385
-0.43064186
-0.35550592
-0.28800979
-0.22666627
-0.17486763
-0.13201267
-0.098639866
-0.07238087
-0.053850238
-0.038680703
-0.03029901
-0.020436787
-0.35978819
-0.35977007
-0.35974823
-0.35972431
-0.35969733
-0.35966671
-0.35963194
-0.35959184
-0.35954466
-0.35949044
-0.35942956
-0.35936068
-0.35928192
-0.35919135
-0.35908725
-0.3589678
-0.35883078
-0.35867331
-0.35849231
-0.35828526
-0.3580503
-0.35778626
-0.35749236
-0.35716591
-0.3567972
-0.35637748
-0.35590891
-0.35540059
-0.35486232
-0.35430671
-0.35376044
-0.35326182
-0.35288131
-0.35273674
-0.35301209
-0.35398039
-0.35601678
-0.35959194
-0.36528472
-0.37376541
-0.38575029
-0.40198319
-0.42309432
-0.44951336
-0.48143706
-0.51794577
-0.55620934
-0.58842448
-0.60738339
-0.60045565
-0.57236856
-0.519771
-0.46797744
-0.40501227
-0.33987299
-0.27967836
-0.22410655
-0.17623756
-0.13584894
-0.10374277
-0.07786907
-0.059200734
-0.043501668
-0.034545253
-0.023921963
-0.35604012
-0.35603197
-0.3560221
-0.35601121
-0.35599905
-0.35598508
-0.35596563
-0.35594039
-0.35591887
-0.35590291
-0.35588177
-0.35585057
-0.35581166
-0.35576645
-0.35571181
-0.35564322
-0.35555912
-0.35546224
-0.35535803
-0.35524573
-0.35511556
-0.3549578
-0.35476914
-0.3545466
-0.35428263
-0.35396845
-0.3535953
-0.35315049
-0.3526121
-0.35195059
-0.35112903
-0.35011153
-0.34885376
-0.34734032
-0.34560703
-0.34380737
-0.34227392
-0.34151659
-0.34232556
-0.34569424
-0.35288103
-0.36497191
-0.38323645
-0.40877382
-0.44228084
-0.48097451
-0.51858768
-0.54702253
-0.55914683
-0.54847041
-0.52416905
-0.48266511
-0.43524847
-0.38142004
-0.32482902
-0.27095879
-0.22059517
-0.17644326
-0.13850325
-0.10777913
-0.082460262
-0.063841237
-0.047781893
-0.038397315
-0.027126202
-0.35263927
-0.35264107
-0.35264312
-0.35264521
-0.35264734
-0.35264822
-0.35264748
-0.35264646
-0.35264598
-0.35264488
-0.3526415
-0.35263584
-0.35262737
-0.3526099
-0.35258643
-0.352584
-0.35259931
-0.35258235
-0.35252117
-0.35244775
-0.35238156
-0.3523153
-0.35222542
-0.35210248
-0.35195004
-0.35176229
-0.35152354
-0.35120343
-0.35074062
-0.35010326
-0.3492528
-0.34806073
-0.34641603
-0.34423966
-0.34145267
-0.33809833
-0.33438395
-0.33076473
-0.32811366
-0.32770914
-0.33091065
-0.33982644
-0.35700586
-0.38364382
-0.41639535
-0.45178862
-0.4843095
-0.50707553
-0.51251322
-0.50688165
-0.4765469
-0.44715451
-0.4062488
-0.35954485
-0.30995827
-0.26182301
-0.21623989
-0.17560378
-0.14007133
-0.11080956
-0.086183259
-0.067775754
-0.051509602
-0.041834207
-0.030023705
-0.34935828
-0.34937302
-0.34938977
-0.34940728
-0.34943503
-0.34947062
-0.34949271
-0.34950237
-0.34951273
-0.34952428
-0.34953603
-0.34954745
-0.34955855
-0.34957626
-0.34961036
-0.34965587
-0.34970295
-0.34974775
-0.34978532
-0.34982153
-0.3498632
-0.34989978
-0.34992854
-0.34992763
-0.34983828
-0.34965966
-0.349444
-0.34917719
-0.34878148
-0.34819128
-0.34735676
-0.34618506
-0.34454203
-0.34227029
-0.33909492
-0.33503154
-0.33044843
-0.32546964
-0.32111129
-0.31861994
-0.3205349
-0.32877209
-0.3449119
-0.36760367
-0.39552164
-0.4263533
-0.4530718
-0.47021488
-0.47294068
-0.46454036
-0.44424284
-0.41591565
-0.37988189
-0.33915858
-0.29556297
-0.25249418
-0.21121113
-0.17385605
-0.14065593
-0.11290089
-0.089073617
-0.071014882
-0.054678565
-0.044840483
-0.032590499
-0.34654083
-0.34656867
-0.34660142
-0.34663594
-0.34667332
-0.34671522
-0.34676191
-0.34681238
-0.34686664
-0.34692473
-0.34698657
-0.34705198
-0.34712069
-0.34719221
-0.34726531
-0.34733862
-0.34741114
-0.34748165
-0.34754865
-0.34760322
-0.34762595
-0.34761074
-0.34758604
-0.34758094
-0.34757846
-0.34754258
-0.34745234
-0.3472971
-0.34702253
-0.34651719
-0.34570518
-0.34450648
-0.34283459
-0.3404568
-0.33737324
-0.33374212
-0.32927571
-0.32442507
-0.32016203
-0.31811654
-0.31910031
-0.32491404
-0.33766079
-0.35628007
-0.38058587
-0.40423782
-0.42550691
-0.43696343
-0.43875577
-0.42789601
-0.41071665
-0.38672711
-0.3557557
-0.32009403
-0.28159041
-0.24301291
-0.20560936
-0.17130676
-0.14034821
-0.11411809
-0.091170683
-0.07357564
-0.057290064
-0.047406354
-0.034810618
-0.34520556
-0.34523882
-0.34527793
-0.34531924
-0.34536404
-0.34541281
-0.34546567
-0.3455227
-0.34558401
-0.34564963
-0.34571949
-0.34579343
-0.34587118
-0.34595231
-0.34603625
-0.3461221
-0.34620871
-0.3462946
-0.34637792
-0.34645642
-0.34652707
-0.34658496
-0.34662336
-0.34663647
-0.34662036
-0.34655141
-0.34638189
-0.34612187
-0.34581664
-0.34536588
-0.34467001
-0.34373745
-0.34252226
-0.34077923
-0.33832229
-0.33527321
-0.3315836
-0.32766101
-0.32387646
-0.32124364
-0.32140463
-0.32621918
-0.33597048
-0.35060448
-0.36795704
-0.38492658
-0.39750114
-0.40916061
-0.40552388
-0.398053
-0.38317446
-0.36149951
-0.33395378
-0.30236
-0.26814118
-0.23349089
-0.19955317
-0.16806538
-0.13923938
-0.11452777
-0.092517145
-0.075479475
-0.05935019
-0.049527231
-0.036672279
-0.3456222
-0.34565177
-0.34568654
-0.34572328
-0.34576314
-0.34580658
-0.34585373
-0.34590472
-0.34595964
-0.34601856
-0.34608144
-0.34614814
-0.34621841
-0.34629185
-0.34636786
-0.34644565
-0.34652417
-0.34660212
-0.3466779
-0.34674959
-0.34681495
-0.34687158
-0.34691639
-0.34694566
-0.34695492
-0.34693608
-0.34687132
-0.34676894
-0.34660225
-0.3463672
-0.34605487
-0.34543581
-0.34439479
-0.34304183
-0.34135495
-0.33909997
-0.33620288
-0.33283192
-0.32952003
-0.32707421
-0.32658167
-0.32921551
-0.33575609
-0.34590555
-0.35732826
-0.3697255
-0.37835933
-0.37984513
-0.38070415
-0.37194404
-0.35773736
-0.3382878
-0.31382396
-0.2857154
-0.25515914
-0.22395773
-0.19311852
-0.16421849
-0.13740938
-0.11419274
-0.093156768
-0.076751531
-0.060870847
-0.051202484
-0.038174719
-0.3478615
-0.34788043
-0.34790271
-0.34792628
-0.34795188
-0.34797982
-0.3480102
-0.34804312
-0.34807867
-0.34811692
-0.34815785
-0.34820141
-0.34824746
-0.34829575
-0.34834592
-0.34839744
-0.34844966
-0.34850176
-0.34855272
-0.34860103
-0.34864507
-0.34868819
-0.34873342
-0.34877135
-0.34879143
-0.34879996
-0.34880671
-0.34882128
-0.34875219
-0.34852084
-0.34823021
-0.34786554
-0.34728506
-0.34638591
-0.34503121
-0.34313455
-0.34076142
-0.33796143
-0.33501292
-0.33250066
-0.33128358
-0.33229313
-0.3359568
-0.34174791
-0.34907665
-0.35630812
-0.36109437
-0.36004025
-0.35713985
-0.34859341
-0.33542952
-0.31756695
-0.29543969
-0.2701549
-0.24267418
-0.21446922
-0.18638284
-0.15984793
-0.13493362
-0.11317381
-0.093133819
-0.077419158
-0.061866562
-0.052434741
-0.039316435
-0.35110518
-0.35111334
-0.35112294
-0.35113308
-0.35114408
-0.35115607
-0.35116908
-0.35118314
-0.35119827
-0.35121447
-0.35123167
-0.3512498
-0.35126869
-0.3512881
-0.35130772
-0.3513271
-0.35134572
-0.35136286
-0.3513773
-0.35138809
-0.35140144
-0.35141648
-0.35141653
-0.35138724
-0.35137544
-0.35137701
-0.35130071
-0.35118064
-0.35108184
-0.35094835
-0.35072072
-0.35036467
-0.34981651
-0.34902641
-0.34792487
-0.34642865
-0.34448935
-0.34211302
-0.33944136
-0.33685005
-0.33491918
-0.33427526
-0.33518906
-0.33770518
-0.34117719
-0.3443568
-0.34340367
-0.34148029
-0.33705185
-0.32813367
-0.31527198
-0.29859961
-0.27839771
-0.25548448
-0.23062307
-0.20503316
-0.17939508
-0.15501794
-0.13187702
-0.11152645
-0.092490975
-0.077510667
-0.062354913
-0.053228917
-0.040105191
-0.35476313
-0.35476534
-0.35476786
-0.35477041
-0.35477302
-0.35477567
-0.35477829
-0.3547808
-0.35478307
-0.35478493
-0.35478616
-0.35478646
-0.35478546
-0.35478265
-0.3547774
-0.35476893
-0.35475628
-0.35473827
-0.35471347
-0.35468026
-0.35463712
-0.35458214
-0.3545066
-0.35440589
-0.35429045
-0.35415413
-0.35399041
-0.35379551
-0.35354968
-0.35324997
-0.35289335
-0.35246319
-0.35191284
-0.35119335
-0.35025164
-0.34899915
-0.34733634
-0.34517236
-0.34251564
-0.33961622
-0.33683095
-0.33467529
-0.33370095
-0.33336394
-0.3331051
-0.33162503
-0.32965679
-0.32555463
-0.31919374
-0.30969648
-0.29706066
-0.28129151
-0.26260287
-0.24163647
-0.21898532
-0.19566558
-0.17219896
-0.14978465
-0.12829746
-0.10930181
-0.09126897
-0.077054316
-0.062353397
-0.053592911
-0.040541518
-0.35880135
-0.35880145
-0.35880136
-0.35880094
-0.3588001
-0.3587987
-0.35879654
-0.3587934
-0.35878898
-0.3587829
-0.3587747
-0.35876378
-0.35874939
-0.35873061
-0.35870629
-0.35867505
-0.35863518
-0.35858464
-0.35852101
-0.35844152
-0.35834341
-0.35822292
-0.35806726
-0.35787911
-0.35766388
-0.35740821
-0.35711033
-0.35676425
-0.3563654
-0.35591462
-0.35541679
-0.35487406
-0.35426578
-0.35354783
-0.35265056
-0.35144567
-0.34976323
-0.34743149
-0.34442971
-0.34090075
-0.33698838
-0.33365056
-0.33050038
-0.32777338
-0.3243759
-0.3210677
-0.31657429
-0.31067301
-0.30304638
-0.29298588
-0.2803895
-0.26528053
-0.24780826
-0.22846541
-0.20769644
-0.18635587
-0.1648193
-0.14419061
-0.12424341
-0.10654509
-0.089505494
-0.076077477
-0.061880519
-0.053536129
-0.040632062
-0.36367678
-0.36367518
-0.36367296
-0.36367006
-0.36366624
-0.36366125
-0.36365479
-0.36364647
-0.36363582
-0.36362223
-0.36360498
-0.36358315
-0.36355562
-0.363521
-0.36347762
-0.36342344
-0.36335602
-0.36327247
-0.36316938
-0.36304286
-0.36288849
-0.36270143
-0.36247642
-0.36220892
-0.36189371
-0.36152627
-0.36110461
-0.3606308
-0.36010758
-0.35953664
-0.35892208
-0.35826496
-0.35754741
-0.35671367
-0.3556499
-0.35417652
-0.35208211
-0.34919182
-0.34555024
-0.34108336
-0.33644285
-0.33181728
-0.32661012
-0.32114389
-0.31639057
-0.31080464
-0.30452361
-0.29713254
-0.28828958
-0.2776178
-0.264977
-0.25036078
-0.23386272
-0.21587088
-0.19670579
-0.17709229
-0.15727342
-0.13826964
-0.11975561
-0.10329593
-0.087234891
-0.074606071
-0.060953799
-0.05306989
-0.040378071
-0.37004084
-0.37003528
-0.37002822
-0.37001998
-0.37001006
-0.36999807
-0.36998356
-0.36996598
-0.36994466
-0.36991878
-0.36988734
-0.3698491
-0.36980257
-0.36974596
-0.36967709
-0.36959338
-0.36949176
-0.36936866
-0.36921994
-0.36904094
-0.36882647
-0.36857096
-0.36826861
-0.36791386
-0.36750245
-0.36703205
-0.36650147
-0.36591134
-0.3652656
-0.36456954
-0.36382379
-0.3630141
-0.36209338
-0.36096115
-0.35945231
-0.35735916
-0.35448068
-0.35074086
-0.34614965
-0.34072405
-0.33523528
-0.32869056
-0.32207655
-0.31520047
-0.30830552
-0.30101038
-0.29311296
-0.28435474
-0.27449929
-0.26327314
-0.25053781
-0.23629046
-0.22058524
-0.20373173
-0.18594619
-0.16784927
-0.14956629
-0.1320453
-0.11486693
-0.099588348
-0.084488016
-0.072664151
-0.059590921
-0.052205903
-0.039787642
-0.3783521
-0.37833963
-0.37832427
-0.37830698
-0.3782869
-0.37826343
-0.37823596
-0.37820375
-0.37816591
-0.37812134
-0.37806875
-0.37800658
-0.37793297
-0.37784569
-0.3777421
-0.37761912
-0.37747315
-0.37730003
-0.37709509
-0.37685309
-0.37656846
-0.37623561
-0.37584914
-0.37540418
-0.37489643
-0.37432319
-0.37368409
-0.37298014
-0.37221164
-0.37137335
-0.37044481
-0.36937561
-0.36806836
-0.36636964
-0.36408279
-0.36101532
-0.35704126
-0.35215754
-0.34632751
-0.34017646
-0.3327755
-0.32484085
-0.31684887
-0.3086064
-0.30018546
-0.29139015
-0.282112
-0.27218822
-0.26143777
-0.24969095
-0.23683592
-0.22287289
-0.20782397
-0.19194073
-0.17535309
-0.15859756
-0.14169608
-0.12553351
-0.10960333
-0.095451095
-0.081292497
-0.070273972
-0.057808923
-0.050958855
-0.038862295
-0.38910678
-0.38908459
-0.38905758
-0.38902765
-0.3889935
-0.38895423
-0.38890904
-0.38885698
-0.38879689
-0.38872739
-0.38864686
-0.38855334
-0.38844453
-0.38831784
-0.3881702
-0.38799804
-0.38779733
-0.38756354
-0.38729168
-0.38697642
-0.38661215
-0.38619312
-0.38571385
-0.3851696
-0.38455648
-0.38387123
-0.38311038
-0.38226779
-0.38132949
-0.38026484
-0.37901404
-0.37747495
-0.37549654
-0.37289168
-0.36947279
-0.36511019
-0.35975372
-0.35341914
-0.34647441
-0.33858366
-0.3297123
-0.32072881
-0.31146676
-0.30185509
-0.2919963
-0.28184362
-0.27133184
-0.26036593
-0.24883175
-0.23662218
-0.22364822
-0.20991752
-0.19542836
-0.18038869
-0.16485686
-0.14930092
-0.13365307
-0.11874275
-0.10398448
-0.090907733
-0.077672507
-0.067453739
-0.055623087
-0.04932733
-0.037617553
-0.40267859
-0.40264387
-0.40260192
-0.40255589
-0.40250388
-0.40244469
-0.40237732
-0.40230056
-0.40221299
-0.40211293
-0.40199849
-0.4018675
-0.40171716
-0.40154435
-0.4013457
-0.40111728
-0.40085463
-0.40055302
-0.40020731
-0.39981193
-0.39936113
-0.39884909
-0.39827003
-0.39761804
-0.39688662
-0.39606712
-0.39514584
-0.39409869
-0.39288297
-0.39142676
-0.38961874
-0.38730512
-0.38430095
-0.38042689
-0.37554802
-0.36961373
-0.3626334
-0.3548675
-0.34628104
-0.33659002
-0.32662385
-0.31634548
-0.30568319
-0.2947311
-0.28356132
-0.27217939
-0.26056815
-0.24868714
-0.23646899
-0.22385465
-0.21077793
-0.19725353
-0.18326036
-0.16897234
-0.15438849
-0.13992026
-0.12542275
-0.11167603
-0.098025202
-0.085978343
-0.073650879
-0.064225353
-0.053057151
-0.047354534
-0.036068234
-0.41943588
-0.41938548
-0.41932549
-0.41926012
-0.41918674
-0.41910385
-0.41901013
-0.41890373
-0.41878483
-0.4186594
-0.41852843
-0.41836422
-0.41814728
-0.41790416
-0.4176478
-0.41736093
-0.41703308
-0.41665965
-0.41623596
-0.41575597
-0.41521292
-0.41459944
-0.41390687
-0.41312433
-0.41223667
-0.41122106
-0.41004161
-0.40864187
-0.40693601
-0.40480156
-0.40207905
-0.39858516
-0.39414332
-0.38862899
-0.38197313
-0.3742312
-0.3656063
-0.3561676
-0.34557864
-0.33466089
-0.32332313
-0.31153005
-0.29946173
-0.2871817
-0.27475962
-0.26223834
-0.249634
-0.23694375