/*--------------------------------*- C++ -*----------------------------------*\
  =========                 |
  \\      /  F ield         | OpenFOAM: The Open Source CFD Toolbox
   \\    /   O peration     | Website:  https://openfoam.org
    \\  /    A nd           | Version:  13
     \\/     M anipulation  |
\*---------------------------------------------------------------------------*/
FoamFile
{
    format      ascii;
    class       volScalarField;
    location    "37.596034";
    object      yPlus;
}
// * * * * * * * * * * * * * * * * * * * * * * * * * * * * * * * * * * * * * //

dimensions      [];

internalField   uniform 0;

boundaryField
{
    inlet
    {
        type            calculated;
        value           uniform 0;
    }
    outlet
    {
        type            calculated;
        value           uniform 0;
    }
    cylinder
    {
        type            calculated;
        value           nonuniform List<scalar> 
132
(
1.2509051e-07
1.2546144e-07
1.2540976e-07
1.2487946e-07
1.2384292e-07
1.2228051e-07
1.2017954e-07
1.1753546e-07
1.1435317e-07
1.1064816e-07
1.0644779e-07
1.0179189e-07
9.6733254e-08
9.1337616e-08
8.5682875e-08
7.9857388e-08
7.3958072e-08
6.8086694e-08
6.2344376e-08
5.6823783e-08
5.1598283e-08
4.670626e-08
4.2134957e-08
3.7808649e-08
3.3592988e-08
2.9329927e-08
2.4901016e-08
2.0302235e-08
1.5688879e-08
1.1360545e-08
7.6751569e-09
4.9530402e-09
3.4288849e-09
3.1327054e-09
3.5798988e-09
4.3705676e-09
5.3925308e-09
6.6494461e-09
8.1674309e-09
9.9807293e-09
1.2154394e-08
1.4769908e-08
1.7599469e-08
2.0603798e-08
2.3708021e-08
2.6845859e-08
2.9956274e-08
3.2992211e-08
3.592018e-08
3.8715455e-08
4.1360976e-08
4.384884e-08
4.6168748e-08
4.831564e-08
5.0314005e-08
5.2129749e-08
5.3780218e-08
5.5265762e-08
5.6591864e-08
5.7753533e-08
5.8740391e-08
5.9566884e-08
6.0229709e-08
6.0731464e-08
6.107386e-08
6.1251007e-08
1.2426959e-07
1.2298698e-07
1.212712e-07
1.1911911e-07
1.1654162e-07
1.135493e-07
1.1016101e-07
1.0640341e-07
1.0231028e-07
9.7922058e-08
9.3285535e-08
8.8453221e-08
8.3482536e-08
7.8434905e-08
7.3374414e-08
6.8366421e-08
6.3476077e-08
5.8765505e-08
5.4287969e-08
5.0080387e-08
4.615257e-08
4.2475148e-08
3.896861e-08
3.5502673e-08
3.1915212e-08
2.8056069e-08
2.3856392e-08
1.9389063e-08
1.4884267e-08
1.0687886e-08
7.1664953e-09
4.6315019e-09
3.3035607e-09
3.1562366e-09
3.6693827e-09
4.4974037e-09
5.5552932e-09
6.8521539e-09
8.4152558e-09
1.0277987e-08
1.2502953e-08
1.5169117e-08
1.804019e-08
2.1076051e-08
2.4202212e-08
2.7349492e-08
3.0458937e-08
3.3487768e-08
3.6401322e-08
3.9179333e-08
4.180306e-08
4.4270759e-08
4.6565378e-08
4.8678148e-08
5.0659948e-08
5.2442838e-08
5.4068767e-08
5.5524607e-08
5.682439e-08
5.7952707e-08
5.8911134e-08
5.9704777e-08
6.0338092e-08
6.0807861e-08
6.1114828e-08
6.1261102e-08
)
;
    }
    frontAndBack
    {
        type            empty;
    }
}


// ************************************************************************* //
