/*--------------------------------*- C++ -*----------------------------------*\
  =========                 |
  \\      /  F ield         | OpenFOAM: The Open Source CFD Toolbox
   \\    /   O peration     | Website:  https://openfoam.org
    \\  /    A nd           | Version:  13
     \\/     M anipulation  |
\*---------------------------------------------------------------------------*/
FoamFile
{
    format      ascii;
    class       volScalarField;
    location    "9.800717";
    object      pMean;
}
// * * * * * * * * * * * * * * * * * * * * * * * * * * * * * * * * * * * * * //

dimensions      [0 2 -2 0 0 0 0];

internalField   nonuniform List<scalar> 
17140
(
4.8407501
4.8405671
4.8403465
4.8401232
4.8398827
4.8396219
4.8393406
4.8390387
4.8387158
4.8383718
4.8380064
4.8376192
4.8372095
4.8367753
4.836313
4.835816
4.8352735
4.8346687
4.8339765
4.8331609
4.8321727
4.8309457
4.8293926
4.8273999
4.8248601
4.8217313
4.8179556
4.8133441
4.8076735
4.8007413
4.7923148
4.7821364
4.7699266
4.7553854
4.7381974
4.7180448
4.6946282
4.6677003
4.6371168
4.6029076
4.5653659
4.5251662
4.4835241
4.4422686
4.403867
4.3713166
4.3477422
4.3361696
4.3392744
4.3587359
4.3951649
4.4474831
4.5138241
4.5912689
4.6746563
4.7577072
4.8331364
4.8927758
4.9287832
4.9376171
4.9221604
4.8883918
4.8455478
4.7967735
4.7487447
4.8372373
4.8370584
4.8368428
4.8366243
4.836389
4.8361335
4.8358581
4.8355625
4.8352464
4.8349095
4.8345518
4.8341731
4.8337725
4.8333483
4.8328971
4.8324125
4.831884
4.8312951
4.8306212
4.8298267
4.8288625
4.8276632
4.8261418
4.8241854
4.8216837
4.8185912
4.8148535
4.8102845
4.8046583
4.7977712
4.7893896
4.7792548
4.7670857
4.7525802
4.7354207
4.7152866
4.6918752
4.6649355
4.6343194
4.6000531
4.5624273
4.5221171
4.4803363
4.4389218
4.4003676
4.3676252
4.3438666
4.3322222
4.3352994
4.3547323
4.3910997
4.4435024
4.5099624
4.5873905
4.6708165
4.7539735
4.829643
4.8896782
4.9261541
4.9354715
4.920463
4.8870869
4.844595
4.7961439
4.7484223
4.8288687
4.8286995
4.8284961
4.828289
4.8280658
4.8278235
4.8275621
4.8272815
4.8269814
4.8266617
4.8263225
4.8259636
4.8255846
4.8251841
4.824759
4.8243036
4.8238081
4.8232567
4.8226257
4.8218805
4.8209731
4.8198388
4.8183922
4.8165216
4.8141103
4.8111047
4.8074568
4.8029887
4.7974689
4.79069
4.782417
4.7723878
4.7603178
4.7459004
4.7288124
4.7087265
4.6853323
4.6583703
4.6276833
4.593289
4.5554724
4.514909
4.4728176
4.431061
4.3921392
4.3590232
4.3349336
4.3230253
4.3259509
4.3453389
4.381665
4.4340613
4.5006449
4.5782152
4.6617932
4.7452292
4.8214388
4.8823463
4.9198341
4.9301925
4.9161767
4.8837169
4.842117
4.7944216
4.7473362
4.8158268
4.8156728
4.8154884
4.8152993
4.8150953
4.8148736
4.8146344
4.8143775
4.8141027
4.8138101
4.8134998
4.8131721
4.8128269
4.8124632
4.8120787
4.8116684
4.8112236
4.8107299
4.8101646
4.809495
4.8086743
4.8076394
4.8063071
4.8045681
4.802298
4.7994286
4.7959177
4.7916038
4.7862495
4.7796392
4.7715359
4.7616731
4.7497602
4.7354838
4.7185124
4.6985084
4.6751498
4.6481639
4.6173798
4.5828025
4.5447092
4.5037758
4.4612284
4.4189631
4.3794959
4.3458381
4.3212715
4.3089961
4.3116949
4.3310021
4.3673289
4.4198031
4.4865206
4.5642347
4.6480101
4.7317926
4.8087271
4.8708405
4.9097845
4.9216784
4.9092145
4.8782889
4.8381958
4.7918305
4.7458662
4.7985618
4.7984283
4.7982694
4.7981045
4.7979262
4.7977324
4.797523
4.7972979
4.7970571
4.7968008
4.7965294
4.7962434
4.7959431
4.7956282
4.795297
4.7949459
4.7945672
4.7941481
4.7936679
4.7930956
4.7923867
4.7914801
4.790295
4.7887258
4.7866431
4.7839558
4.7806217
4.7765058
4.7713697
4.7649817
4.7571035
4.7474625
4.735761
4.7216767
4.7048671
4.6849819
4.6616842
4.6346843
4.603794
4.569002
4.5305755
4.4891912
4.44609
4.4032047
4.3630807
4.328782
4.3036403
4.2909223
4.2933782
4.3126407
4.3490337
4.4016618
4.4686258
4.546605
4.6306563
4.714849
4.7926148
4.8561231
4.8967869
4.9105553
4.9000645
4.8711832
4.8331473
4.7885711
4.7440818
4.7778086
4.7777001
4.7775721
4.7774369
4.7772903
4.7771308
4.776958
4.7767721
4.7765731
4.7763613
4.7761374
4.7759022
4.7756563
4.7754001
4.7751328
4.7748517
4.7745508
4.7742188
4.7738374
4.7733777
4.7727979
4.7720395
4.7710245
4.7696515
4.7677934
4.7653303
4.7622022
4.758311
4.753432
4.7473093
4.739701
4.7303282
4.718885
4.7050387
4.6884345
4.6687075
4.6455029
4.618512
4.5875256
4.5525137
4.5137314
4.4718565
4.4281534
4.3845921
4.343761
4.3087802
4.2830251
4.2698416
4.2720681
4.2913448
4.3279012
4.3807915
4.4481028
4.5264402
4.6108253
4.6954523
4.7740821
4.8390306
4.8815434
4.8974302
4.8892737
4.8629125
4.8274151
4.7850094
4.7423141
4.7545511
4.7544708
4.7543759
4.7542751
4.7541652
4.7540451
4.7539147
4.753774
4.7536232
4.7534628
4.7532934
4.7531162
4.7529322
4.7527422
4.7525462
4.7523426
4.7521267
4.7518892
4.7516137
4.7512741
4.7508315
4.7502306
4.7493964
4.748232
4.7466149
4.7444058
4.7415116
4.7378565
4.7332488
4.7274199
4.7201108
4.7110389
4.699889
4.6863179
4.6699579
4.650428
4.6273551
4.6004089
4.5693578
4.5341511
4.495031
4.4526773
4.4083857
4.3641585
4.322638
4.2869888
4.2606081
4.2469336
4.2489259
4.2682532
4.3050643
4.3583593
4.4261774
4.5050147
4.5898247
4.6749287
4.7544155
4.8207168
4.8650897
4.8831457
4.8775502
4.8540211
4.8213751
4.781349
4.7406189
4.7299696
4.7299201
4.7298611
4.7297977
4.729728
4.7296513
4.7295673
4.7294763
4.7293784
4.7292742
4.7291646
4.7290505
4.7289334
4.7288143
4.7286938
4.728571
4.7284425
4.7283007
4.7281312
4.7279106
4.7276029
4.7271562
4.7264993
4.7255392
4.7241589
4.7222185
4.7195813
4.7161548
4.711806
4.7062779
4.699279
4.6905237
4.6796882
4.6664188
4.6503351
4.6310405
4.6081433
4.581292
4.5502315
4.5148901
4.4754964
4.4327352
4.3879339
4.3431225
4.300997
4.2647292
4.2377104
4.2234893
4.2252007
4.2445898
4.2817279
4.3355154
4.4039568
4.483434
4.5688088
4.6544833
4.7347983
4.8023121
4.8482864
4.8684754
4.8655165
4.844987
4.8153561
4.777799
4.7391445
4.7053656
4.7053479
4.7053262
4.7053019
4.7052741
4.7052427
4.7052075
4.7051686
4.7051263
4.7050811
4.7050339
4.7049857
4.7049378
4.7048914
4.7048473
4.7048051
4.7047621
4.7047119
4.7046419
4.7045311
4.7043462
4.7040389
4.7035418
4.7027662
4.7015995
4.6999064
4.697536
4.6943483
4.6902194
4.6849581
4.6782669
4.6698246
4.6593075
4.6463531
4.6305705
4.6115493
4.5888803
4.5621918
4.5312073
4.4958342
4.4562897
4.4132649
4.3681126
4.3228907
4.2803254
4.2435419
4.2159089
4.201116
4.2025221
4.2219428
4.2593604
4.3136443
4.3827599
4.4629308
4.5488853
4.6350931
4.7160276
4.7843423
4.831698
4.8541171
4.8536979
4.836176
4.8095641
4.7744434
4.7378774
4.6820601
4.6820739
4.682089
4.6821034
4.6821174
4.6821312
4.6821447
4.682158
4.6821715
4.6821856
4.682201
4.6822186
4.6822396
4.6822649
4.6822952
4.6823301
4.6823672
4.6824006
4.682419
4.682403
4.6823218
4.68213
4.6817642
4.6811396
4.6801485
4.6786595
4.676522
4.6735758
4.6696605
4.6646024
4.6581639
4.6500209
4.6398182
4.6271872
4.6117283
4.5930214
4.570645
4.5442117
4.5134267
4.4781805
4.4386822
4.395632
4.3503927
4.3050479
4.2623182
4.2252375
4.1971599
4.1819296
4.1830669
4.2024378
4.2400719
4.2948381
4.3645323
4.4452114
4.5315838
4.6181611
4.6996453
4.7686384
4.817136
4.8405766
4.8425278
4.8278528
4.8041531
4.7713798
4.7369022
4.6612756
4.6613186
4.661368
4.6614186
4.6614719
4.6615283
4.661588
4.661651
4.6617177
4.6617885
4.661864
4.6619448
4.6620316
4.662125
4.6622253
4.6623316
4.6624412
4.6625482
4.6626417
4.6627032
4.6627036
4.6625999
4.6623317
4.6618182
4.660956
4.6596182
4.6576562
4.6549052
4.6511917
4.6463283
4.6400871
4.6321788
4.62226
4.6099513
4.5948417
4.5765042
4.5545091
4.5284589
4.4980493
4.4631606
4.4239993
4.3812724
4.3363427
4.2913106
4.2488541
4.2119015
4.1838011
4.1684424
4.1694171
4.1887418
4.2264114
4.2811891
4.3509942
4.4317643
4.5182229
4.6049708
4.6866174
4.7554917
4.8041768
4.8279612
4.8322577
4.8201777
4.7992096
4.768653
4.7362285
4.6440145
4.6440826
4.6441617
4.6442438
4.6443314
4.6444254
4.644526
4.6446333
4.6447478
4.6448698
4.6449997
4.6451379
4.6452847
4.6454403
4.6456041
4.6457747
4.6459486
4.6461193
4.6462756
4.646399
4.6464614
4.6464211
4.6462199
4.64578
4.6450016
4.6437624
4.6419179
4.6393016
4.6357367
4.6310328
4.6249667
4.6172683
4.6076082
4.5956136
4.5808782
4.5629771
4.5414804
4.515989
4.4861922
4.4519722
4.4135384
4.3715996
4.3275174
4.2833699
4.2417549
4.2055308
4.1779786
4.1629175
4.1639693
4.1829198
4.2199314
4.2740064
4.3431437
4.4232649
4.5091216
4.5953189
4.676333
4.7440953
4.7925418
4.8169506
4.8230621
4.8132693
4.7948146
4.7663383
4.7359467
4.6309449
4.6310323
4.6311343
4.6312411
4.6313557
4.6314796
4.631613
4.6317563
4.63191
4.6320744
4.6322499
4.6324368
4.632635
4.6328442
4.6330634
4.6332902
4.6335206
4.6337471
4.6339577
4.6341339
4.6342473
4.6342569
4.6341058
4.633718
4.6329962
4.631821
4.6300522
4.6275315
4.6240756
4.6194865
4.6135648
4.6060569
4.5966508
4.584993
4.5706875
4.5533176
4.5324606
4.5077312
4.4788458
4.44568
4.4084475
4.3678526
4.3252355
4.2826091
4.2424701
4.2075939
4.1811637
4.1668702
4.1678219
4.185936
4.2216505
4.2743505
4.3419897
4.420582
4.5050198
4.5899553
4.6696525
4.7358734
4.783174
4.8075731
4.8149916
4.8071955
4.7910288
4.7644924
4.7360962
4.6223249
4.6224243
4.622541
4.6226636
4.622796
4.62294
4.6230958
4.6232641
4.6234456
4.6236407
4.6238499
4.6240734
4.6243112
4.6245628
4.6248266
4.6251002
4.6253786
4.6256542
4.6259145
4.6261403
4.6263035
4.6263636
4.6262645
4.6259308
4.6252667
4.6241543
4.6224547
4.6200111
4.6166517
4.6121995
4.6063799
4.5990641
4.5899342
4.5786537
4.5648512
4.5481385
4.5281294
4.5044546
4.4768037
4.4451106
4.4095969
4.3709373
4.3304172
4.2899337
4.2518581
4.2188611
4.1940181
4.1804205
4.1810647
4.1980031
4.2319127
4.2824798
4.3478129
4.424063
4.5063748
4.5893413
4.6667058
4.7303353
4.7755132
4.7996503
4.8081031
4.8020155
4.7879256
4.7631926
4.7367666
4.6179467
4.6180503
4.6181726
4.6183014
4.6184412
4.6185939
4.6187601
4.6189406
4.6191364
4.6193481
4.6195764
4.6198219
4.6200845
4.6203641
4.6206592
4.6209674
4.6212841
4.6216017
4.6219082
4.6221851
4.6224051
4.6225292
4.6225027
4.6222525
4.6216837
4.6206786
4.6190991
4.6167903
4.6135793
4.6092851
4.6037906
4.5967279
4.5877998
4.5769762
4.5638119
4.5479323
4.5289586
4.5065593
4.4804978
4.4507316
4.4174455
4.3812846
4.3434284
4.3056109
4.2700482
4.2392909
4.2159264
4.2028765
4.2030359
4.2183425
4.2499769
4.2978426
4.3601648
4.4333559
4.512809
4.5928702
4.6669275
4.727061
4.7698217
4.7932844
4.8024351
4.79778
4.7855693
4.7625032
4.7380032
4.6172399
4.6173402
4.6174598
4.6175851
4.6177217
4.6178717
4.6180359
4.6182153
4.618411
4.6186241
4.6188555
4.6191062
4.6193767
4.6196672
4.6199769
4.6203042
4.6206455
4.6209943
4.6213405
4.6216676
4.6219511
4.6221557
4.6222308
4.6221069
4.6216927
4.6208732
4.6195098
4.6174433
4.6144975
4.6104947
4.6052535
4.5984726
4.5901957
4.5799521
4.5674493
4.5525383
4.5348412
4.5140701
4.4900208
4.4625966
4.4320023
4.3988083
4.3640395
4.3292597
4.2964749
4.2678276
4.2457644
4.2330925
4.2323298
4.2457793
4.274807
4.3195279
4.3783237
4.4479429
4.5238601
4.6001519
4.669856
4.7259127
4.7657537
4.7883692
4.7980031
4.7945377
4.7840252
4.7624984
4.7398835
4.6192853
4.6193758
4.619485
4.6195986
4.619723
4.6198604
4.6200116
4.6201778
4.6203604
4.6205606
4.6207798
4.6210192
4.62128
4.6215631
4.6218687
4.6221961
4.6225435
4.6229066
4.6232778
4.6236446
4.6239872
4.6242758
4.6244674
4.624501
4.6242931
4.6237349
4.622689
4.6209933
4.6184707
4.6149345
4.6101856
4.6041005
4.5964413
4.5869252
4.575544
4.5618737
4.5457148
4.526867
4.5051172
4.4803927
4.4528521
4.422944
4.3915415
4.3599608
4.3298261
4.3030974
4.2821379
4.2693614
4.2674786
4.2788554
4.3051005
4.3463939
4.4013405
4.4670256
4.5388027
4.6103523
4.6749719
4.7264278
4.7634046
4.7849194
4.7948343
4.7923339
4.7833499
4.7632367
4.7424521
4.6231292
4.6232055
4.6232983
4.6233944
4.6235001
4.6236175
4.6237475
4.6238913
4.6240504
4.6242261
4.6244201
4.6246341
4.6248696
4.6251282
4.6254112
4.6257192
4.6260522
4.6264084
4.6267837
4.6271705
4.6275554
4.627917
4.6282226
4.6284243
4.6284544
4.628218
4.6275931
4.626428
4.6245426
4.621742
4.6178176
4.6125953
4.6058707
4.5975474
4.5873503
4.5751965
4.5609906
4.54435
4.5251992
4.5034635
4.4792198
4.452799
4.4248449
4.3963363
4.3686621
4.3436225
4.323274
4.310137
4.306943
4.3161833
4.3395053
4.3772072
4.4282489
4.4898094
4.5567423
4.6225857
4.6817142
4.7284265
4.762528
4.7829045
4.7929339
4.7912045
4.7835958
4.7647756
4.7457755
4.6278118
4.6278719
4.627945
4.6280209
4.6281047
4.6281984
4.6283027
4.6284189
4.6285483
4.6286925
4.6288531
4.629032
4.629231
4.6294522
4.6296975
4.6299689
4.6302677
4.6305946
4.6309488
4.6313273
4.6317233
4.6321246
4.6325106
4.6328489
4.633091
4.6331681
4.6329824
4.6324046
4.6312745
4.629403
4.6265806
4.6226041
4.6172655
4.6104399
4.6019953
4.5918261
4.5797002
4.5656088
4.5494074
4.530883
4.5101045
4.4872184
4.4625988
4.4369756
4.4114855
4.3876709
4.3675895
4.3537755
4.3491384
4.3561656
4.3765145
4.4107195
4.4579572
4.5151214
4.5765415
4.6364789
4.6893492
4.731815
4.7631088
4.7823029
4.792307
4.7911786
4.7848065
4.7671603
4.7498963
4.6326175
4.6326613
4.6327141
4.63277
4.6328322
4.632902
4.6329803
4.633068
4.6331665
4.6332771
4.6334015
4.6335414
4.6336987
4.6338758
4.6340749
4.6342984
4.634549
4.6348287
4.6351393
4.6354813
4.6358536
4.6362517
4.6366661
4.6370799
4.6374652
4.6377788
4.6379573
4.6379113
4.6375199
4.6366303
4.6350598
4.6326099
4.629075
4.6242801
4.6180606
4.6102794
4.6008657
4.5897478
4.576675
4.5615732
4.5443333
4.5249045
4.5034473
4.4803969
4.456635
4.4336021
4.413398
4.3987291
4.3925185
4.3973093
4.4148716
4.4459756
4.4897152
4.5420743
4.597614
4.6509859
4.6982192
4.73635
4.765092
4.7830706
4.7929426
4.792275
4.7870199
4.7704383
4.7548687
4.6370653
4.6370952
4.6371309
4.6371696
4.6372128
4.6372616
4.6373166
4.6373788
4.6374491
4.6375287
4.637619
4.6377217
4.6378384
4.6379712
4.6381225
4.6382948
4.6384912
4.6387144
4.6389677
4.6392538
4.6395747
4.6399315
4.6403228
4.6407438
4.6411838
4.6416235
4.6420309
4.6423594
4.6425409
4.6424813
4.6420577
4.6411189
4.6394923
4.6369973
4.6334583
4.6286981
4.6225508
4.6148433
4.6054166
4.5940319
4.5804178
4.5643764
4.5458008
4.5248797
4.5023468
4.4796542
4.459063
4.4433967
4.4356378
4.4385371
4.4539943
4.4826284
4.5227763
4.5698877
4.6192741
4.6657649
4.7079295
4.7420926
4.7684328
4.7851771
4.7948335
4.7945044
4.7902635
4.7746479
4.7607275
4.6409516
4.6409709
4.6409941
4.6410193
4.6410476
4.6410798
4.6411163
4.6411577
4.641205
4.6412589
4.6413208
4.6413919
4.6414739
4.6415685
4.6416773
4.6418024
4.6419466
4.6421126
4.6423036
4.6425229
4.6427747
4.643064
4.6433941
4.6437673
4.6441843
4.6446432
4.645138
4.6456573
4.6461811
4.6466777
4.6470988
4.6473747
4.6474135
4.6470949
4.6462641
4.6447261
4.6422426
4.6385339
4.633236
4.6259184
4.6161309
4.603405
4.5873984
4.5681788
4.5464652
4.5238392
4.5027007
4.4860452
4.4771508
4.4789318
4.4931878
4.5198112
4.5559653
4.5975006
4.6402427
4.6810028
4.718287
4.7489458
4.7730547
4.7885776
4.7979611
4.7978694
4.794556
4.779823
4.7675149
4.6443157
4.6443269
4.6443405
4.6443553
4.6443721
4.6443912
4.6444131
4.6444381
4.6444668
4.6445001
4.6445393
4.6445843
4.6446346
4.644691
4.6447566
4.6448353
4.6449305
4.6450454
4.6451827
4.6453437
4.6455283
4.6457402
4.645988
4.6462805
4.6466257
4.6470334
4.6475144
4.6480802
4.6487458
4.6495272
4.6504387
4.6514979
4.652713
4.6540647
4.6554888
4.6568393
4.6578513
4.6581063
4.6570481
4.6540048
4.6481411
4.6386515
4.6250763
4.6074321
4.5864572
4.5638679
4.5423317
4.525276
4.5162894
4.5181805
4.5318791
4.5561498
4.5875786
4.6237978
4.6605505
4.6963888
4.7293814
4.7568708
4.7788962
4.7932268
4.8023023
4.8023704
4.7999117
4.7859846
4.7752517
4.6473227
4.647327
4.6473322
4.647338
4.6473447
4.6473525
4.6473617
4.6473725
4.6473853
4.6474004
4.6474181
4.6474384
4.6474618
4.64749
4.6475257
4.647571
4.647626
4.6476902
4.6477671
4.6478633
4.6479853
4.648134
4.6483128
4.6485289
4.6487912
4.649118
4.6495337
4.6500634
4.65074
4.6516086
4.6527286
4.6541784
4.6560373
4.6583802
4.6612625
4.6646406
4.6682982
4.6717993
4.6744241
4.6751449
4.6728362
4.6664929
4.6554126
4.6394751
4.6194374
4.5972414
4.5764295
4.5607375
4.5534156
4.5562162
4.5691767
4.5900965
4.6177659
4.6483077
4.6804508
4.7118518
4.7411055
4.765761
4.7858788
4.7990727
4.8078293
4.808
4.8063376
4.7931497
4.7839628
4.6501707
4.6501663
4.6501612
4.6501556
4.6501492
4.6501429
4.6501371
4.6501318
4.6501272
4.6501234
4.6501208
4.6501195
4.6501199
4.6501227
4.6501298
4.6501412
4.6501558
4.6501748
4.6502022
4.6502432
4.6503052
4.6503903
4.6504985
4.6506411
4.650834
4.6510938
4.6514464
4.6519279
4.6525841
4.6534697
4.6546588
4.6562539
4.6583773
4.6611718
4.664753
4.6691384
4.6742076
4.6795525
4.6844539
4.68791
4.6885869
4.6851486
4.6765418
4.6624886
4.6441212
4.6242466
4.6064623
4.5937101
4.5885657
4.5919992
4.6035484
4.621881
4.6454242
4.6717707
4.6997826
4.7274125
4.7534345
4.77556
4.7939433
4.806069
4.8145122
4.8147476
4.813836
4.8013298
4.7936778
4.6528213
4.6528064
4.6527889
4.6527706
4.6527507
4.6527289
4.6527049
4.6526793
4.6526523
4.6526243
4.6525955
4.6525661
4.6525367
4.6525078
4.6524804
4.6524552
4.652434
4.6524192
4.6524135
4.6524197
4.6524408
4.6524838
4.6525588
4.6526746
4.6528417
4.6530744
4.6533944
4.6538365
4.6544544
4.6553148
4.6564865
4.658059
4.6601655
4.6629519
4.6665735
4.671129
4.6765844
4.6826706
4.688777
4.6938885
4.6965763
4.6952913
4.6888905
4.677706
4.6630396
4.6472087
4.6332094
4.6238303
4.620423
4.6244118
4.6348243
4.6510369
4.6710094
4.6940089
4.7186556
4.7430785
4.7663033
4.7861946
4.803024
4.8141664
4.8223178
4.8225995
4.8224034
4.8105401
4.8044193
4.654622
4.6545992
4.6545725
4.6545444
4.6545139
4.6544809
4.6544455
4.6544075
4.654367
4.6543238
4.6542783
4.6542308
4.6541818
4.6541323
4.6540835
4.6540366
4.6539934
4.6539564
4.6539286
4.6539133
4.6539138
4.6539345
4.6539836
4.6540718
4.6542112
4.6544168
4.6547121
4.6551284
4.6557047
4.6564895
4.6575615
4.6590373
4.6610271
4.6636513
4.6670476
4.6713564
4.6766025
4.6826334
4.688994
4.6947317
4.6986102
4.6993587
4.696101
4.6885716
4.6778888
4.6664442
4.6567385
4.6502492
4.6488821
4.6535095
4.6633551
4.6772859
4.6950219
4.7153333
4.7371513
4.7588544
4.7796817
4.7976154
4.8130679
4.8233207
4.8312125
4.8315358
4.8320295
4.8207733
4.8161968
4.6549581
4.6549348
4.6549074
4.6548786
4.6548474
4.6548137
4.6547773
4.6547383
4.6546967
4.6546526
4.6546063
4.654558
4.6545084
4.6544581
4.6544081
4.6543596
4.6543142
4.6542739
4.654241
4.6542185
4.6542113
4.6542253
4.6542694
4.6543541
4.6544865
4.6546748
4.6549354
4.6553008
4.6558198
4.6565337
4.6574946
4.6587932
4.660535
4.6628336
4.6658489
4.6697607
4.6746533
4.6804573
4.6868518
4.6931481
4.6983255
4.7010884
4.7004861
4.6964283
4.6899949
4.6830316
4.6772356
4.6737278
4.6745285
4.6798882
4.6889147
4.7017293
4.7176771
4.7358087
4.7553228
4.7747479
4.7935365
4.809773
4.8240252
4.8334896
4.8411599
4.8415399
4.8427111
4.8320704
4.8290271
4.653661
4.6536446
4.6536254
4.6536052
4.6535834
4.6535598
4.6535343
4.653507
4.6534779
4.6534472
4.653415
4.6533816
4.6533474
4.653313
4.6532791
4.6532469
4.6532177
4.6531923
4.6531734
4.6531667
4.6531766
4.6532041
4.6532542
4.6533336
4.6534525
4.6536306
4.6538857
4.6542341
4.6547049
4.6553409
4.6562028
4.6573735
4.6589663
4.6611194
4.6639687
4.6676509
4.6723313
4.6780598
4.6845949
4.6913926
4.6975232
4.7019724
4.7038293
4.7030764
4.7005845
4.6977149
4.6953682
4.6948551
4.6976416
4.7034616
4.7125169
4.7245362
4.739166
4.7556095
4.7732493
4.7907783
4.8078513
4.8226325
4.8358512
4.84463
4.8521318
4.8525918
4.8544336
4.8444139
4.8428717
4.6512902
4.6512833
4.6512754
4.651267
4.651258
4.6512484
4.6512382
4.6512274
4.6512161
4.6512046
4.6511928
4.6511812
4.65117
4.65116
4.6511519
4.651147
4.6511465
4.651152
4.6511661
4.6511919
4.6512322
4.6512919
4.6513784
4.6514995
4.6516655
4.6518869
4.6521792
4.6525675
4.6530791
4.6537624
4.6546877
4.6559174
4.6575331
4.6596727
4.6625156
4.666249
4.6710017
4.6768098
4.6835515
4.6907745
4.6977489
4.7035402
4.7074757
4.7095959
4.7105762
4.7110603
4.7117932
4.7140806
4.7184823
4.7252429
4.7344637
4.7460371
4.7597274
4.7748554
4.790995
4.8069672
4.8226134
4.8361604
4.8485082
4.8567116
4.8641009
4.8646725
4.8671801
4.8577942
4.8577517
4.6484536
4.6484538
4.6484543
4.6484548
4.6484557
4.6484569
4.6484586
4.6484609
4.6484641
4.6484684
4.6484742
4.6484818
4.6484921
4.6485056
4.6485236
4.6485465
4.6485758
4.6486147
4.6486668
4.6487359
4.6488265
4.6489451
4.6490981
4.6492933
4.6495421
4.6498572
4.6502632
4.6507952
4.6514756
4.6523307
4.6534203
4.6548286
4.6566622
4.6590434
4.6621159
4.6660575
4.6710284
4.6770884
4.6841322
4.6917736
4.6994124
4.7063541
4.7120565
4.716619
4.720419
4.7237492
4.7272275
4.7318377
4.7378385
4.745532
4.7551177
4.7664974
4.7795414
4.7936785
4.8086366
4.8233445
4.8378201
4.8503344
4.8619701
4.8696856
4.8770266
4.8777408
4.8809467
4.872148
4.8737653
4.6453814
4.6453851
4.6453896
4.6453946
4.6454005
4.6454074
4.6454156
4.6454254
4.645437
4.645451
4.645468
4.6454885
4.6455135
4.6455442
4.645582
4.6456288
4.6456869
4.6457596
4.6458506
4.6459648
4.6461084
4.6462889
4.6465153
4.6467995
4.6471591
4.6476147
4.6481851
4.648893
4.6497728
4.6508668
4.6522353
4.653962
4.6561332
4.6588607
4.6623236
4.666699
4.6721108
4.6786091
4.6860862
4.6942404
4.702533
4.7104778
4.7177325
4.7244076
4.7304432
4.7360767
4.7420919
4.7486165
4.7560771
4.7647463
4.7747978
4.7861644
4.7987976
4.8122027
4.8262461
4.8399419
4.8534722
4.8651349
4.8762001
4.8835173
4.890893
4.8917618
4.8957246
4.8874675
4.8907956
4.6418094
4.6418148
4.6418215
4.6418289
4.6418377
4.6418481
4.6418604
4.641875
4.6418925
4.6419135
4.6419388
4.6419694
4.6420065
4.6420517
4.6421069
4.6421747
4.642258
4.6423609
4.6424882
4.6426461
4.6428424
4.6430865
4.6433909
4.643771
4.6442438
4.6448301
4.6455567
4.6464535
4.647563
4.6489373
4.6506394
4.6527409
4.6553426
4.6586062
4.6626903
4.6677251
4.6738237
4.6809949
4.6890949
4.6978656
4.7069
4.7158042
4.7245191
4.7328455
4.7409037
4.7487258
4.7565969
4.7647881
4.7735945
4.7832006
4.7937771
4.8052609
4.8176625
4.8305468
4.8438978
4.8567955
4.8695761
4.8805495
4.8911769
4.8981841
4.9056805
4.9066999
4.9114941
4.9037529
4.9088033
4.637257
4.6372651
4.637275
4.6372861
4.6372991
4.6373143
4.6373323
4.6373535
4.6373786
4.6374086
4.6374443
4.6374872
4.6375388
4.6376011
4.6376765
4.637768
4.6378794
4.6380154
4.6381819
4.6383862
4.6386375
4.6389469
4.6393287
4.6398002
4.6403816
4.6410993
4.6419874
4.6430895
4.6444536
4.6461339
4.6482025
4.6507801
4.6540052
4.6580005
4.6629095
4.6688476
4.6758651
4.6838978
4.6928176
4.7023547
4.7122095
4.722258
4.732355
4.7422869
4.7519624
4.7614658
4.7709833
4.7806531
4.7906738
4.8011741
4.8123012
4.823989
4.8362942
4.8488236
4.8616632
4.8739422
4.8861404
4.8965679
4.9068742
4.9136615
4.921338
4.9225705
4.9282087
4.9210025
4.9277855
4.6312786
4.6312916
4.6313076
4.6313253
4.6313456
4.6313691
4.6313965
4.6314283
4.6314656
4.6315094
4.6315608
4.6316216
4.6316937
4.6317793
4.6318815
4.6320037
4.6321504
4.6323271
4.6325404
4.6327988
4.6331124
4.6334944
4.6339612
4.6345334
4.6352401
4.6361144
4.6371894
4.6385137
4.640158
4.6422157
4.6447949
4.6480184
4.6520244
4.6569525
4.6629142
4.6699644
4.6780802
4.6871525
4.6970375
4.7074769
4.7184378
4.7297518
4.7411126
4.752389
4.7635137
4.7745291
4.7854855
4.7964566
4.8075744
4.818909
4.830586
4.8425311
4.8548365
4.8671386
4.8796114
4.8914198
4.9031766
4.9131834
4.9232744
4.9299139
4.9378506
4.9393038
4.9458396
4.9391686
4.9476709
4.6235003
4.6235208
4.6235458
4.6235731
4.6236042
4.6236398
4.6236807
4.6237277
4.623782
4.6238448
4.6239177
4.6240027
4.6241019
4.6242183
4.624355
4.6245163
4.6247072
4.6249339
4.6252044
4.6255276
4.6259161
4.6263879
4.6269607
4.6276566
4.6285048
4.6295486
4.6308497
4.6324796
4.6345269
4.6371047
4.6403482
4.6444061
4.6494232
4.6555132
4.6627345
4.6710728
4.6804374
4.6907067
4.7016746
4.7133148
4.725572
4.7380539
4.7506238
4.7631797
4.7756674
4.7880287
4.8002693
4.8124047
4.8245118
4.8366167
4.8488256
4.8610542
4.8734237
4.8855918
4.8978094
4.9092666
4.9206976
4.9303903
4.9403499
4.94694
4.9551507
4.9569068
4.9643134
4.9582379
4.9683956
4.6136744
4.6137049
4.6137418
4.6137817
4.6138267
4.6138779
4.6139362
4.6140025
4.6140784
4.6141653
4.6142651
4.6143801
4.6145129
4.6146671
4.6148459
4.6150514
4.6152916
4.6155793
4.6159211
4.6163225
4.6167966
4.6173643
4.6180542
4.6188984
4.6199376
4.6212284
4.6228455
4.6248861
4.6274731
4.6307525
4.6348849
4.6400262
4.6463034
4.6537812
4.6624514
4.6722279
4.6829888
4.6945587
4.7068627
4.7199397
4.7333996
4.7470786
4.7608949
4.7747408
4.7885021
4.8021011
4.8155029
4.8286819
4.841678
4.8544839
4.867191
4.8797067
4.8921765
4.904274
4.9163177
4.9275159
4.9387128
4.9481858
4.958096
4.9646965
4.9732396
4.9753471
4.9836095
4.9780985
4.9899769
4.6015521
4.6015947
4.6016459
4.6017011
4.6017633
4.6018338
4.6019135
4.6020034
4.6021046
4.6022174
4.6023425
4.6024868
4.6026614
4.602865
4.6030912
4.6033475
4.6036465
4.6039974
4.6044113
4.6049023
4.6054869
4.6061874
4.6070367
4.6080798
4.6093757
4.6110037
4.6130677
4.6156982
4.6190516
4.6233012
4.628618
4.6351414
4.6429534
4.6520451
4.6623396
4.6736984
4.6859542
4.6990101
4.7128913
4.7272949
4.7420172
4.7569971
4.7721038
4.7871975
4.8021643
4.8169039
4.8313557
4.8454675
4.8592531
4.8726834
4.8858396
4.8986237
4.9112029
4.9232657
4.9351888
4.9462008
4.957236
4.9665612
4.976477
4.983168
4.9920795
4.9946316
5.0036756
4.9990907
5.0120281
4.5873384
4.5873952
4.5874617
4.5875302
4.5876052
4.5876951
4.5878045
4.5879246
4.5880498
4.5881878
4.5883464
4.588529
4.588739
4.5889807
4.5892598
4.5895828
4.5899567
4.5903897
4.5908946
4.5914918
4.5922072
4.5930749
4.594141
4.5954683
4.5971406
4.5992676
4.6019873
4.6054651
4.6098835
4.6154252
4.6222408
4.630422
4.6399774
4.6508262
4.6628516
4.6758547
4.6897317
4.7044865
4.7198481
4.735617
4.7517297
4.7680513
4.7844325
4.8007374
4.8168399
4.8326259
4.8480199
4.8629539
4.8774262
4.8913947
4.9049362
4.917953
4.9306289
4.9426692
4.9544996
4.9653693
4.9762878
4.985528
4.9954872
5.0023211
5.0116015
5.0146649
5.0244669
5.0205764
5.0347809
4.5712598
4.5713333
4.5714114
4.571491
4.5715834
4.5716897
4.5718105
4.5719478
4.5721041
4.5722824
4.5724864
4.5727206
4.5729866
4.5732833
4.5736148
4.5739928
4.5744304
4.5749412
4.5755435
4.5762626
4.5771324
4.5781999
4.5795288
4.5812049
4.5833411
4.5860813
4.5896
4.5940948
4.5997695
4.6068066
4.615322
4.6253603
4.6368755
4.6497069
4.6636321
4.6785642
4.6943929
4.7108702
4.7277839
4.7450863
4.7626454
4.7803156
4.7979568
4.8154259
4.8325915
4.8493329
4.8655676
4.8812198
4.8962793
4.910698
4.9245543
4.9377529
4.9504954
4.9625071
4.9742509
4.9850059
4.9958337
5.005031
5.0150646
5.0221155
5.0317684
5.0355816
5.0460088
5.0439391
5.0595877
4.5536145
4.5536978
4.5537985
4.5539071
4.5540272
4.5541606
4.5543087
4.5544735
4.5546576
4.5548636
4.5550947
4.555355
4.5556494
4.5559844
4.5563683
4.556812
4.5573302
4.5579426
4.5586758
4.5595666
4.5606647
4.5620377
4.5637758
4.5659968
4.56885
4.572516
4.5772007
4.5831187
4.590468
4.5993908
4.6099419
4.6221173
4.6357377
4.6506324
4.6666571
4.6836398
4.7013096
4.719444
4.7380086
4.7568649
4.7758718
4.7948868
4.8137599
4.832343
4.8504993
4.8681096
4.8850863
4.9013551
4.9168998
4.9316769
4.9457602
4.9590748
4.971831
4.9837839
4.995424
5.0060657
5.0168128
5.0259986
5.0361271
5.0434468
5.0534726
5.058176
5.0690054
5.0701581
5.0829293
4.5369827
4.5370784
4.5371951
4.5373157
4.5374484
4.5375961
4.5377603
4.537943
4.5381469
4.5383752
4.5386319
4.5389222
4.5392527
4.5396323
4.5400727
4.5405897
4.5412049
4.5419475
4.5428574
4.5439886
4.5454138
4.5472291
4.5495585
4.5525582
4.5564155
4.5613433
4.5675641
4.5752849
4.5846635
4.5957687
4.6086091
4.6230233
4.6388
4.6558019
4.6737785
4.6924732
4.7117246
4.7314895
4.7516036
4.7719198
4.7922822
4.8125325
4.8325115
4.8520659
4.8710584
4.8893709
4.9069191
4.9236325
4.9394969
4.9544771
4.9686515
4.981967
4.9946396
5.0064728
5.0179476
5.0284667
5.03909
5.0483042
5.0584792
5.0661649
5.0764973
5.0821283
5.0935012
5.0965394
5.1094367
4.5237727
4.5238754
4.5240005
4.5241294
4.5242711
4.5244285
4.5246033
4.5247978
4.5250151
4.5252592
4.5255352
4.5258498
4.5262121
4.5266342
4.5271326
4.5277298
4.5284563
4.5293537
4.5304779
4.5319037
4.5337293
4.536081
4.5391171
4.5430274
4.5480289
4.5543521
4.5622181
4.5718065
4.5832192
4.5964691
4.6114706
4.6280008
4.645848
4.6646454
4.6842362
4.7045453
4.7254255
4.7467004
4.768218
4.7898199
4.8113401
4.832612
4.8534721
4.8737676
4.8933652
4.9121532
4.9300531
4.9470033
4.9629934
4.9780038
4.9921149
5.0053063
5.0177904
5.0294312
5.0406795
5.0510507
5.0615126
5.0707739
5.0809514
5.0890698
5.0995931
5.1063355
5.1179545
5.1233995
5.1360943
4.5173722
4.5174766
4.5176034
4.5177341
4.5178775
4.5180368
4.5182139
4.5184114
4.5186332
4.5188841
4.5191708
4.519502
4.5198899
4.5203509
4.5209074
4.52159
4.52244
4.523513
4.5248829
4.5266464
4.5289276
4.5318813
4.5356942
4.5405814
4.5467752
4.5545054
4.5639704
4.5753044
4.5885459
4.6036402
4.620434
4.6386456
4.6579526
4.6782287
4.6993995
4.7211707
4.7433852
4.7658939
4.7885313
4.8111293
4.8335152
4.8555163
4.8769686
4.8977227
4.9176519
4.9366528
4.9546544
4.9716069
4.9875063
5.002352
5.0162292
5.0291516
5.0413266
5.0526824
5.0636264
5.073802
5.0840529
5.0933432
5.1034847
5.112023
5.122717
5.1304859
5.1424271
5.1496484
5.1628451
4.5193702
4.5194714
4.5195936
4.5197202
4.519859
4.5200135
4.5201857
4.520379
4.5205979
4.5208486
4.5211394
4.5214817
4.5218914
4.5223899
4.5230064
4.5237807
4.5247659
4.5260323
4.5276721
4.5298031
4.5325727
4.5361594
4.5407707
4.546635
4.5539849
4.5630338
4.5739441
4.5867967
4.601568
4.6181513
4.6363026
4.655748
4.6763486
4.6979402
4.7202036
4.7429979
4.7661612
4.7895243
4.8129128
4.8361465
4.8590451
4.8814322
4.9031449
4.9240398
4.9439973
4.9629234
4.9807566
4.9974596
5.0130396
5.0275165
5.0409821
5.0534851
5.0652238
5.0761898
5.0867465
5.0966615
5.106652
5.1159346
5.1260123
5.1349445
5.1458034
5.1545709
5.1668576
5.1759334
5.1897151
4.5317991
4.5318927
4.5320042
4.5321214
4.5322503
4.532394
4.5325551
4.5327377
4.5329472
4.533191
4.5334797
4.5338274
4.5342538
4.5347859
4.5354599
4.5363248
4.5374451
4.5389055
4.5408144
4.543308
4.5465522
4.5507418
4.5560955
4.5628434
4.571207
4.5813723
4.5934589
4.6074964
4.6234121
4.6410441
4.6601556
4.6805441
4.7019846
4.7242362
4.747132
4.7704981
4.7941626
4.8179457
4.8416603