/*--------------------------------*- C++ -*----------------------------------*\
  =========                 |
  \\      /  F ield         | OpenFOAM: The Open Source CFD Toolbox
   \\    /   O peration     | Website:  https://openfoam.org
    \\  /    A nd           | Version:  13
     \\/     M anipulation  |
\*---------------------------------------------------------------------------*/
FoamFile
{
    format      ascii;
    class       volVectorField;
    location    "47.098731";
    object      U;
}
// * * * * * * * * * * * * * * * * * * * * * * * * * * * * * * * * * * * * * //

dimensions      [0 1 -1 0 0 0 0];

internalField   nonuniform List<vector> 
17140
(
(3.6608912e-06 -0.00027568596 3.0552012e-23)
(1.0038062e-05 -0.00085708754 3.3834733e-24)
(1.513535e-05 -0.0015020303 -2.2328294e-22)
(1.8320681e-05 -0.0022154301 2.4535902e-22)
(1.8834959e-05 -0.0030024998 -2.8668337e-23)
(1.5684456e-05 -0.0038687393 9.3771447e-23)
(7.600722e-06 -0.0048198977 1.5774935e-22)
(-6.99913e-06 -0.0058619315 -7.6922183e-23)
(-3.0089285e-05 -0.0070009474 -2.5150571e-22)
(-6.4116834e-05 -0.0082431315 -6.1598561e-22)
(-0.00011210146 -0.00959466 9.1167934e-22)
(-0.0001777494 -0.011061588 -8.1062983e-22)
(-0.00026558663 -0.012649714 -1.2377005e-22)
(-0.00038111043 -0.014364412 6.9730652e-22)
(-0.00053096028 -0.016210421 -7.7112046e-23)
(-0.00072310652 -0.018191592 6.0767205e-22)
(-0.00096705419 -0.02031056 -2.2439049e-23)
(-0.0012740558 -0.022568345 5.0368219e-24)
(-0.0016573234 -0.024963841 3.5129941e-22)
(-0.0021322249 -0.027493179 -4.5035189e-22)
(-0.0027164426 -0.030148932 2.1412138e-22)
(-0.0034300633 -0.032919141 -4.0165981e-23)
(-0.0042955565 -0.035786143 -2.9089941e-22)
(-0.0053375874 -0.038725233 2.8432003e-22)
(-0.0065825902 -0.041703247 4.4247597e-22)
(-0.0080580165 -0.044677259 -3.4705536e-22)
(-0.0097911549 -0.047593787 -1.6635043e-21)
(-0.011807417 -0.050389188 -1.9123518e-22)
(-0.014128011 -0.052992338 1.6343619e-21)
(-0.016767026 -0.055331145 3.7237837e-22)
(-0.019728196 -0.057344482 1.2914643e-21)
(-0.023002061 -0.058999577 -1.6465358e-21)
(-0.026564918 -0.060309969 4.1432674e-22)
(-0.030381242 -0.061342488 1.896686e-22)
(-0.034410154 -0.062202879 1.7796708e-21)
(-0.038613299 -0.063006393 -7.4134665e-22)
(-0.04295967 -0.063854586 1.0654146e-21)
(-0.047425828 -0.064830919 6.8957954e-22)
(-0.051993877 -0.066010095 3.0402052e-22)
(-0.056650115 -0.067470916 -8.9416648e-22)
(-0.061385736 -0.069307443 -1.6557112e-21)
(-0.066198233 -0.071637703 -1.4865407e-21)
(-0.071095994 -0.074610764 -6.4708055e-22)
(-0.076105122 -0.078403749 3.1620487e-21)
(-0.081269793 -0.083209267 2.3280352e-21)
(-0.086661638 -0.089243264 -5.7723707e-22)
(-0.092387055 -0.096739398 3.9687579e-21)
(-0.098590132 -0.10591567 1.3632298e-21)
(-0.10546536 -0.11694644 -1.4048743e-21)
(-0.11327469 -0.12988391 -3.4782082e-21)
(-0.12236236 -0.14451131 2.1709672e-21)
(-0.13318612 -0.16001344 1.3938916e-21)
(-0.14626132 -0.17444594 -3.6985809e-21)
(-0.16224497 -0.18393047 -1.7908848e-21)
(-0.18151982 -0.18185594 -1.3384277e-21)
(-0.20480579 -0.15466035 1.0682138e-21)
(-0.22776715 -0.083027952 -3.1231686e-21)
(-0.23878289 0.06679874 -2.6949501e-21)
(-0.17780624 0.29859034 -5.6397993e-22)
(-0.055138369 0.50208292 1.1096396e-21)
(0.035749548 0.59043728 6.4889015e-22)
(0.07915411 0.55138057 2.1381604e-21)
(0.1727041 0.29842471 4.0196355e-22)
(0.40142613 -0.13560746 -3.5590601e-21)
(0.57867269 -0.4474567 1.4984164e-21)
(9.9995716e-06 -0.00024582959 -8.7049159e-24)
(2.9678336e-05 -0.00076461263 1.1724299e-21)
(4.9424553e-05 -0.0013403815 -1.0429963e-21)
(6.8674077e-05 -0.0019774344 2.8420323e-22)
(8.673434e-05 -0.0026803252 5.8683424e-22)
(0.00010267016 -0.0034538573 -1.1206401e-21)
(0.0001152603 -0.0043030495 1.1672092e-21)
(0.00012295453 -0.0052330992 -1.0262449e-22)
(0.00012379101 -0.0062493334 3.20012e-22)
(0.00011530914 -0.0073571497 5.4205062e-24)
(9.4443442e-05 -0.008561943 1.064791e-21)
(5.7401189e-05 -0.0098690152 -1.6877492e-21)
(-4.8278137e-07 -0.011283466 -1.3899307e-22)
(-8.4911549e-05 -0.012810062 1.3666535e-21)
(-0.00020280349 -0.014453072 -4.1763571e-22)
(-0.00036248755 -0.016216056 -2.6362291e-22)
(-0.00057392401 -0.018101615 1.6602497e-21)
(-0.00084893132 -0.02011106 -5.3582813e-21)
(-0.0012014096 -0.022243999 3.3174517e-21)
(-0.0016475479 -0.024497804 -3.922625e-21)
(-0.0022059913 -0.026866937 5.7061097e-21)
(-0.0028979364 -0.029342111 -1.3747488e-21)
(-0.0037471105 -0.031909266 -5.5545618e-22)
(-0.0047795782 -0.034548382 1.7790349e-21)
(-0.0060233001 -0.037232218 -6.2566759e-21)
(-0.0075073537 -0.039925143 -9.1300914e-22)
(-0.0092607068 -0.042582437 4.6179883e-21)
(-0.011310432 -0.045150679 -5.0590469e-21)
(-0.013679276 -0.047570191 6.7873882e-22)
(-0.016382593 -0.049780879 6.4896166e-21)
(-0.019424922 -0.051732693 -6.5422165e-22)
(-0.022797019 -0.053400432 -4.8778308e-21)
(-0.026474798 -0.054798312 -1.2072922e-22)
(-0.03042207 -0.055984499 3.3782515e-21)
(-0.034597578 -0.05704801 -3.6020821e-21)
(-0.038963331 -0.058084514 1.5472987e-21)
(-0.043489597 -0.059178554 -1.7321182e-21)
(-0.048155036 -0.060401463 -5.2837742e-21)
(-0.052944684 -0.061819904 -1.1440839e-21)
(-0.057848796 -0.063506834 -4.3522712e-21)
(-0.062863827 -0.065550973 5.4704801e-21)
(-0.067994211 -0.06806439 4.9971998e-21)
(-0.073257685 -0.071188868 8.5525223e-22)
(-0.078693146 -0.075093099 -6.8659424e-21)
(-0.084360559 -0.079960955 3.2820649e-21)
(-0.090351018 -0.085998675 1.1495484e-21)
(-0.096794194 -0.093429008 -6.1851308e-22)
(-0.10386071 -0.10245882 -1.963212e-21)
(-0.11177098 -0.1132484 9.7208503e-22)
(-0.12080745 -0.1258329 -1.7724504e-21)
(-0.1313225 -0.13997567 -1.0816538e-20)
(-0.14376627 -0.15484816 -5.3666058e-22)
(-0.15862768 -0.1685116 2.4370303e-21)
(-0.17648964 -0.17713279 -5.3652655e-21)
(-0.19757747 -0.17421227 4.7642472e-21)
(-0.22225655 -0.14698379 -1.3834414e-20)
(-0.2455309 -0.07776758 -3.6690696e-21)
(-0.26024503 0.058840986 1.1416988e-20)
(-0.21320766 0.26874093 -1.660288e-21)
(-0.10372777 0.46533333 -1.5137566e-21)
(0.00066167394 0.56482565 -2.0505158e-22)
(0.074446007 0.52409242 3.2344442e-21)
(0.2458811 0.24695862 -7.9108741e-21)
(0.49980384 -0.19113107 -3.1498427e-21)
(0.65289106 -0.47673345 -2.1028817e-21)
(1.4668406e-05 -0.00021377607 -4.7995581e-22)
(4.4164496e-05 -0.00066533841 3.5463176e-22)
(7.4737189e-05 -0.001166854 9.4290103e-23)
(0.00010586337 -0.0017219553 -8.9361453e-23)
(0.00013688951 -0.0023344863 4.3286705e-22)
(0.00016691248 -0.0030085004 3.2189053e-23)
(0.00019473338 -0.0037482307 4.1073409e-22)
(0.00021881233 -0.004558058 4.4214392e-22)
(0.00023718204 -0.0054424757 -3.6088072e-21)
(0.00024735407 -0.0064060714 3.2173333e-21)
(0.00024620552 -0.0074534506 -1.5367658e-21)
(0.0002298544 -0.0085891114 -2.2466513e-21)
(0.00019349071 -0.0098173446 4.4420065e-21)
(0.00013122653 -0.011142158 5.4803271e-22)
(3.5941515e-05 -0.012567536 -2.1056919e-21)
(-0.00010096157 -0.014096819 -1.4395555e-21)
(-0.00028980122 -0.015732621 1.657815e-21)
(-0.00054283393 -0.017476647 -5.9511853e-21)
(-0.00087447643 -0.019329365 3.48171e-21)
(-0.0013015234 -0.02128959 -1.7019597e-21)
(-0.0018433176 -0.023353936 5.6599961e-21)
(-0.0025218492 -0.025516105 1.4495885e-21)
(-0.0033617346 -0.02776602 -2.9723229e-21)
(-0.0043900203 -0.030088784 4.3910362e-21)
(-0.0056357333 -0.032463552 1.6960693e-21)
(-0.0071290868 -0.034862491 -1.9944242e-21)
(-0.0089002275 -0.037250137 -1.1096014e-20)
(-0.010977407 -0.039583729 -4.9186745e-21)
(-0.013384485 -0.041815373 2.4004903e-21)
(-0.016137769 -0.043897104 -2.5169389e-21)
(-0.019242493 -0.045789763 1.5324775e-21)
(-0.022689773 -0.047475095 8.4639257e-21)
(-0.026455651 -0.048966947 -2.7467e-21)
(-0.030504055 -0.050313661 -7.9036182e-21)
(-0.034794059 -0.051586556 2.5182924e-21)
(-0.03928851 -0.052861099 3.3819782e-21)
(-0.043959105 -0.054204507 -5.6128671e-21)
(-0.048786469 -0.055675723 -1.6540002e-21)
(-0.05375819 -0.057332954 2.8365834e-21)
(-0.058867824 -0.059242703 1.1085706e-21)
(-0.064116159 -0.061487561 -5.2826443e-21)
(-0.069513301 -0.064172662 1.4940811e-21)
(-0.075084572 -0.067431362 2.1649274e-21)
(-0.080879174 -0.071422955 5.8423908e-21)
(-0.086969087 -0.07632211 -1.1260259e-20)
(-0.093459318 -0.082325012 7.4099929e-21)
(-0.10049446 -0.089643885 1.903532e-21)
(-0.10825886 -0.098476329 7.6360868e-21)
(-0.11697977 -0.10897312 9.2897264e-21)
(-0.12693233 -0.1211598 4.813411e-22)
(-0.1384351 -0.13479069 -2.0005153e-21)
(-0.15186869 -0.14903947 1.5154996e-20)
(-0.16760514 -0.16199739 6.5443066e-21)
(-0.18604723 -0.16991182 6.8893958e-21)
(-0.20713044 -0.1664838 2.1517452e-21)
(-0.2307188 -0.13984893 1.8004531e-20)
(-0.25148944 -0.073867706 -6.0629418e-21)
(-0.26259087 0.051268822 8.7116674e-22)
(-0.22334185 0.24108497 1.330749e-20)
(-0.12257672 0.42676747 4.0000432e-21)
(-0.0068916142 0.53188307 -3.9542904e-21)
(0.10642002 0.48180988 -1.6685617e-20)
(0.35418778 0.18659797 6.9354777e-21)
(0.61171196 -0.23892113 1.2392877e-20)
(0.73452437 -0.49382726 3.2691405e-21)
(1.7481136e-05 -0.00017994445 1.6089544e-21)
(5.292039e-05 -0.00056056146 -2.559546e-21)
(9.0071778e-05 -0.00098371192 9.2521109e-22)
(0.00012842088 -0.001452325 -1.0053864e-22)
(0.00016732307 -0.0019694956 1.9869064e-21)
(0.0002058801 -0.0025384891 -2.0545882e-21)
(0.00024288982 -0.0031627188 3.1147023e-21)
(0.00027675918 -0.0038457249 -1.4640461e-21)
(0.00030550797 -0.0045910961 -5.5611068e-21)
(0.0003266814 -0.0054023816 1.3352868e-21)
(0.00033704337 -0.006283287 5.0780987e-21)
(0.00033258679 -0.0072376831 -1.5470254e-21)
(0.00030810993 -0.0082686072 -1.0300602e-22)
(0.0002580234 -0.0093802606 4.0262259e-21)
(0.00017535341 -0.010576287 -1.2546561e-20)
(5.052485e-05 -0.011859235 7.6655086e-21)
(-0.00012669668 -0.01323178 7.2696747e-23)
(-0.00036881602 -0.014696146 -4.1858221e-21)
(-0.00069060791 -0.016253801 1.0541457e-20)
(-0.0011092116 -0.017905173 -4.9266306e-21)
(-0.0016443694 -0.019649226 -7.2673336e-21)
(-0.0023185051 -0.021482903 -2.9076779e-21)
(-0.0031567137 -0.023400398 1.4185412e-20)
(-0.0041865592 -0.025392257 7.309208e-21)
(-0.0054376287 -0.027444392 -4.6503816e-21)
(-0.0069407363 -0.029537131 2.6742053e-21)
(-0.0087266683 -0.031644617 -9.8632097e-21)
(-0.010824344 -0.033735061 2.791026e-21)
(-0.013258299 -0.035772558 -7.4034639e-21)
(-0.016045496 -0.037721347 4.1142196e-21)
(-0.019191794 -0.03955303 -2.501099e-21)
(-0.022688913 -0.041255943 8.9593055e-21)
(-0.026513534 -0.042843004 -1.2502615e-21)
(-0.030630391 -0.044352105 6.3931206e-21)
(-0.034999693 -0.04583634 -5.8845439e-21)
(-0.039585695 -0.04735053 -1.8158737e-21)
(-0.044361683 -0.048944174 2.1625193e-20)
(-0.04931008 -0.050663367 5.4481678e-21)
(-0.054420566 -0.052557334 -4.3822387e-21)
(-0.059689297 -0.054685495 4.2209056e-21)
(-0.065120416 -0.05712357 -1.0821936e-21)
(-0.070728324 -0.05996879 -6.707335e-21)
(-0.076544025 -0.063345045 3.0997993e-22)
(-0.082624301 -0.067401481 2.2953756e-21)
(-0.08904923 -0.072303527 -1.1398497e-21)
(-0.095931971 -0.078237551 5.8821221e-22)
(-0.10342361 -0.085406431 1.6999347e-21)
(-0.11170927 -0.094001724 -2.6490242e-20)
(-0.12100382 -0.10417103 3.003628e-21)
(-0.13154673 -0.11594045 -2.8084195e-21)
(-0.14358027 -0.12907029 2.6615549e-20)
(-0.15735435 -0.14275485 -1.4737282e-20)
(-0.17303733 -0.15514111 -1.2042937e-20)
(-0.19074853 -0.16258809 -1.1437303e-20)
(-0.21006523 -0.15906189 -1.0860059e-20)
(-0.23026914 -0.13351314 -1.6942885e-20)
(-0.24626313 -0.0711276 3.2822174e-20)
(-0.25026656 0.04322138 -1.8493602e-20)
(-0.21116125 0.21437401 -2.3518412e-20)
(-0.11280094 0.38741628 1.06562e-20)
(0.015122122 0.49118209 3.6996352e-21)
(0.18472285 0.42695985 4.0905761e-21)
(0.48085388 0.12272398 -3.1166802e-20)
(0.72932571 -0.27621585 -2.2493755e-20)
(0.81872895 -0.49770504 9.5610658e-23)
(1.8299614e-05 -0.00014486665 -1.1343991e-21)
(5.5516855e-05 -0.00045192166 3.7656059e-21)
(9.4677509e-05 -0.00079380485 -3.0692161e-21)
(0.0001352374 -0.0011727043 1.159557e-21)
(0.0001765263 -0.0015909202 4.1879142e-22)
(0.00021761337 -0.0020508756 -3.6021127e-21)
(0.00025724881 -0.0025550952 9.117432e-22)
(0.00029385071 -0.0031061882 1.9349363e-21)
(0.00032537106 -0.0037068249 1.4831462e-22)
(0.00034887291 -0.004359767 1.2590256e-21)
(0.00036203894 -0.0050678907 -1.760932e-21)
(0.00035993062 -0.0058342612 1.2220122e-21)
(0.00033721483 -0.0066613082 4.4947809e-21)
(0.00028945628 -0.0075517149 1.3069502e-22)
(0.00020755677 -0.0085087694 -3.4168535e-21)
(8.3265897e-05 -0.0095351925 -2.4115368e-21)
(-9.410131e-05 -0.010633807 2.0661602e-21)
(-0.00033723761 -0.011807328 -1.967595e-22)
(-0.00066096673 -0.013058245 -3.979508e-21)
(-0.001082533 -0.014388659 -4.8121622e-21)
(-0.0016217442 -0.015799991 5.4419793e-21)
(-0.0023010825 -0.017292563 5.4188816e-21)
(-0.0031456768 -0.018865007 -7.2059954e-21)
(-0.0041831146 -0.020513512 8.8046102e-21)
(-0.0054430032 -0.022230953 1.5051735e-20)
(-0.0069561915 -0.024006032 -3.4950806e-20)
(-0.0087535368 -0.025822694 1.8948313e-20)
(-0.010864092 -0.02766027 -2.7638836e-20)
(-0.013312617 -0.029494936 3.3957542e-20)
(-0.016116428 -0.031303138 -3.7229193e-20)
(-0.019281909 -0.033067197 3.7715e-20)
(-0.022801565 -0.034782003 -6.1908751e-21)
(-0.026653249 -0.036459557 -2.0789294e-20)
(-0.030803326 -0.038127275 1.1321678e-20)
(-0.035213939 -0.039819902 -3.3990221e-21)
(-0.039851295 -0.041571381 -9.4405241e-22)
(-0.04469044 -0.043413041 -1.1240742e-20)
(-0.049715423 -0.045377559 -3.5336534e-21)
(-0.054917573 -0.047504533 -3.4738597e-21)
(-0.060294887 -0.049845537 -3.3426948e-21)
(-0.065853847 -0.052468623 1.6848163e-20)
(-0.071611617 -0.055462401 -7.3738008e-21)
(-0.077602825 -0.058940342 -1.1831626e-21)
(-0.083889018 -0.063040825 1.3738374e-20)
(-0.090554266 -0.067920161 7.0429103e-21)
(-0.097714138 -0.07375583 -3.4951961e-21)
(-0.10551782 -0.080743413 -1.2933092e-20)
(-0.11413831 -0.08907296 5.681322e-21)
(-0.12375899 -0.098897093 -1.6816395e-20)
(-0.13455544 -0.11025533 -9.1986703e-21)
(-0.14665174 -0.12293238 -1.2769452e-20)
(-0.16010492 -0.13616739 -3.4067808e-20)
(-0.17478963 -0.14818646 2.6192286e-20)
(-0.19043618 -0.15547648 -8.171191e-21)
(-0.20620106 -0.15232747 1.4038537e-20)
(-0.22072267 -0.12842782 1.3192001e-20)
(-0.22898217 -0.070423455 3.0446633e-21)
(-0.2230183 0.034016304 3.6040294e-20)
(-0.17775877 0.18815047 8.8261116e-21)
(-0.074737866 0.34732429 -1.4493972e-20)
(0.07077697 0.4414875 -4.6428854e-21)
(0.30074664 0.36397888 5.9808177e-21)
(0.61363234 0.062376614 1.6918834e-20)
(0.84566076 -0.30195014 2.5574324e-20)
(0.90057243 -0.48891135 -4.7861696e-22)
(1.7024839e-05 -0.00010901659 -3.4619154e-21)
(5.1654686e-05 -0.00034088934 -1.2217424e-21)
(8.8040647e-05 -0.00059971612 9.8887044e-22)
(0.00012557285 -0.0008869346 3.6508559e-21)
(0.00016352722 -0.0012040413 -1.9997491e-21)
(0.0002009054 -0.0015526128 2.8771255e-21)
(0.00023639331 -0.0019342874 -1.2443115e-21)
(0.00026831347 -0.0023507592 -2.9622596e-22)
(0.00029453658 -0.002803767 1.6753716e-21)
(0.00031238465 -0.0032951053 3.6077741e-21)
(0.00031850112 -0.0038266002 1.8123984e-22)
(0.00030875787 -0.0043999972 -5.917791e-21)
(0.00027809356 -0.005017776 8.1754621e-21)
(0.0002203615 -0.0056818968 -1.3177178e-20)
(0.00012807587 -0.0063946679 3.4362064e-21)
(-7.7072847e-06 -0.0071586921 -7.2832837e-21)
(-0.0001976349 -0.0079768602 8.7771622e-21)
(-0.00045427626 -0.0088523916 -5.6797624e-21)
(-0.00079233803 -0.009788831 8.9263024e-22)
(-0.0012288632 -0.010789989 3.6037864e-21)
(-0.001783391 -0.011859788 -8.7088011e-21)
(-0.0024780484 -0.013001979 1.2205812e-20)
(-0.0033375328 -0.014219695 -1.3171364e-20)
(-0.0043889312 -0.01551483 -2.2476833e-21)
(-0.0056613048 -0.016887284 2.1830703e-20)
(-0.007184945 -0.018334181 -2.1857864e-20)
(-0.0089901876 -0.019849293 1.406292e-20)
(-0.011105662 -0.021423063 -1.5620815e-20)
(-0.013555874 -0.02304371 -1.4826705e-21)
(-0.016358152 -0.024699858 -9.1329709e-22)
(-0.019519276 -0.02638459 5.9458591e-21)
(-0.023032714 -0.028099561 -3.9937228e-22)
(-0.026878009 -0.029856325 2.1445512e-20)
(-0.03102392 -0.0316725 -5.6127973e-21)
(-0.035435306 -0.033565004 -1.6239559e-20)
(-0.040080905 -0.03554691 7.2690537e-21)
(-0.044937771 -0.037630896 -5.7361713e-21)
(-0.049991462 -0.039835392 5.5907573e-21)
(-0.055234522 -0.042189537 3.0160634e-20)
(-0.060665997 -0.044736379 -1.6349286e-20)
(-0.066293311 -0.047535606 -3.9611965e-21)
(-0.072134741 -0.050666418 2.2427027e-20)
(-0.078226645 -0.054230953 -1.2704596e-21)
(-0.084632564 -0.058356429 -2.7507649e-21)
(-0.091436145 -0.063190549 -3.0482157e-20)
(-0.098749627 -0.068902837 -7.1192555e-21)
(-0.10671192 -0.075684746 1.1356115e-20)
(-0.11547133 -0.083730556 1.1702307e-20)
(-0.12516104 -0.093207878 1.677364e-20)
(-0.13586501 -0.10418527 2.0786778e-20)
(-0.14754719 -0.11649454 1.2632993e-20)
(-0.1600082 -0.12944876 1.9746051e-20)
(-0.17273267 -0.14137994 -6.649504e-21)
(-0.18493976 -0.14890114 3.9696069e-20)
(-0.19527006 -0.1466595 1.9696776e-21)
(-0.20166375 -0.12491045 1.5734262e-21)
(-0.19958083 -0.071646016 -6.0732092e-22)
(-0.18034603 0.023046352 -3.6251359e-20)
(-0.1220997 0.16137654 -9.083234e-21)
(-0.0080769044 0.30582455 1.0623363e-20)
(0.16234482 0.38517303 1.7613865e-20)
(0.43213653 0.29743938 1.3507887e-20)
(0.74394018 0.0089801477 6.4748538e-21)
(0.95523652 -0.31643348 -3.4062906e-20)
(0.9739809 -0.4667305 5.400458e-21)
(1.3666527e-05 -7.3213017e-05 6.551434e-22)
(4.1359557e-05 -0.00022997978 2.0818449e-21)
(7.0197499e-05 -0.00040579619 -5.0241309e-21)
(9.9465546e-05 -0.00060132721 1.8666998e-22)
(0.00012834615 -0.00081723836 2.4453077e-21)
(0.00015573771 -0.0010542272 1.0775944e-21)
(0.00018021951 -0.0013130111 7.9547187e-22)
(0.0002000055 -0.0015943265 -1.5669616e-21)
(0.00021285707 -0.0018989392 8.1085829e-21)
(0.0002159919 -0.0022276623 -6.1151558e-21)
(0.00020597567 -0.0025813868 2.9576251e-22)
(0.00017860418 -0.0029611249 3.6959058e-21)
(0.00012875489 -0.0033680775 -1.381263e-20)
(5.022831e-05 -0.0038037144 1.3750006e-20)
(-6.4411926e-05 -0.0042698723 -1.8283409e-21)
(-0.00022403001 -0.0047688743 -1.1295581e-20)
(-0.00043911728 -0.0053036602 1.0597429e-20)
(-0.00072199486 -0.0058779137 -3.6926595e-21)
(-0.0010870133 -0.006496171 7.1512859e-21)
(-0.0015507348 -0.0071638813 -9.1398582e-21)
(-0.0021320802 -0.007887386 -1.7077101e-20)
(-0.0028524135 -0.0086737749 1.6803154e-20)
(-0.0037355262 -0.0095305813 2.4449147e-20)
(-0.0048074734 -0.010465297 -4.6774144e-20)
(-0.0060961901 -0.011484725 3.7159356e-20)
(-0.0076307995 -0.012594274 -2.1349138e-20)
(-0.0094405018 -0.013797383 5.4386061e-21)
(-0.011552918 -0.015095429 -1.2710248e-20)
(-0.013991793 -0.016488497 1.2832203e-20)
(-0.016774093 -0.017977274 1.7077441e-20)
(-0.019906832 -0.019565677 -1.1156813e-20)
(-0.023384542 -0.021262612 -1.8167997e-20)
(-0.027188869 -0.023080217 1.5445305e-21)
(-0.031291641 -0.025027701 6.1563883e-22)
(-0.035661206 -0.027105339 1.0654385e-20)
(-0.040269447 -0.029305609 -4.4559013e-21)
(-0.04509581 -0.031621998 -1.5656881e-20)
(-0.050127285 -0.034057854 -7.6242892e-21)
(-0.055356923 -0.036631008 1.1340202e-20)
(-0.060783707 -0.039375216 -8.7522033e-21)
(-0.066414801 -0.042341051 7.3897086e-21)
(-0.072268113 -0.045597393 -2.3940027e-21)
(-0.078379726 -0.049234153 -9.3853737e-21)
(-0.08481204 -0.053367121 2.2826565e-20)
(-0.091644011 -0.058136308 1.3649358e-20)
(-0.09897862 -0.063704546 9.0762637e-21)
(-0.10693595 -0.070262682 -2.8945404e-20)
(-0.11562739 -0.078016144 -1.8977907e-20)
(-0.12511724 -0.087159219 -2.2367356e-20)
(-0.13537017 -0.097807871 -3.9091093e-20)
(-0.1461473 -0.10986837 1.3357993e-20)
(-0.15692736 -0.12276407 -2.8629946e-21)
(-0.16670346 -0.13496549 -2.1577856e-20)
(-0.17403755 -0.14320476 -6.0671945e-20)
(-0.1768419 -0.1424467 -3.7211921e-20)
(-0.17242075 -0.12331793 -1.2996944e-20)
(-0.15609974 -0.075171001 -3.288818e-20)
(-0.11818494 0.009923836 1.8825181e-20)
(-0.042370074 0.13388291 7.5138805e-22)
(0.084575695 0.26248748 -1.5518471e-20)
(0.28039611 0.3263448 -1.3120072e-20)
(0.56197254 0.23165602 -1.1626797e-21)
(0.86989229 -0.036593185 5.0253764e-20)
(1.0544659 -0.31995164 -3.4265298e-21)
(1.0324268 -0.43568123 2.7566207e-21)
(8.2536955e-06 -3.7972922e-05 2.5927366e-21)
(2.472855e-05 -0.00012080004 -1.748762e-21)
(4.1311204e-05 -0.00021487628 2.3619827e-21)
(5.7149151e-05 -0.00032010232 1.3423033e-21)
(7.1295857e-05 -0.00043632067 -3.7449298e-21)
(8.2510447e-05 -0.00056335717 -3.4952345e-21)
(8.9231584e-05 -0.00070101132 3.5854121e-21)
(8.9533528e-05 -0.00084906351 -4.3142543e-22)
(8.1043299e-05 -0.0010072963 -9.9893332e-23)
(6.085517e-05 -0.0011755288 -7.092609e-21)
(2.5429402e-05 -0.0013536682 7.767594e-22)
(-2.9520286e-05 -0.001541783 1.4281814e-20)
(-0.00010915486 -0.0017402015 -1.1408764e-20)
(-0.00021965185 -0.0019496368 3.9233113e-22)
(-0.00036836092 -0.002171343 7.6277858e-21)
(-0.00056397112 -0.0024072985 6.5515158e-22)
(-0.00081668703 -0.0026604133 -1.6634459e-21)
(-0.0011384085 -0.0029347476 -7.4782047e-21)
(-0.0015429066 -0.0032357238 1.3660747e-20)
(-0.0020459835 -0.003570305 -2.3938264e-20)
(-0.002665602 -0.0039471009 5.1394297e-21)
(-0.0034219596 -0.0043763602 -3.7610586e-21)
(-0.0043374764 -0.0048698031 3.0692993e-21)
(-0.0054366497 -0.0054402667 -1.3283682e-22)
(-0.0067457133 -0.00610117 1.7991406e-20)
(-0.008292015 -0.0068658777 1.780569e-20)
(-0.010103001 -0.0077471404 -3.499058e-20)
(-0.012204691 -0.0087568936 -5.7832339e-21)
(-0.014619539 -0.0099067353 1.9929898e-20)
(-0.017363736 -0.011209178 6.9962011e-21)
(-0.020444283 -0.012679052 1.5716031e-20)
(-0.023856743 -0.014333178 -1.7409631e-20)
(-0.027585112 -0.016185757 -7.46845e-21)
(-0.031604893 -0.018239739 1.6836901e-20)
(-0.035888603 -0.020480772 -6.8277102e-21)
(-0.040411984 -0.02288136 -3.2261095e-21)
(-0.045157119 -0.025415476 8.8359315e-21)
(-0.050112047 -0.028070559 2.2512715e-20)
(-0.055269701 -0.03085214 6.7152355e-21)
(-0.060628181 -0.033783659 -4.3678877e-21)
(-0.066193195 -0.036905577 -1.0249251e-20)
(-0.071980591 -0.040275703 -1.0617904e-20)
(-0.078024065 -0.043970955 -1.1822248e-20)
(-0.084381382 -0.048095493 -2.4983086e-20)
(-0.091122244 -0.052782398 6.8905822e-22)
(-0.09833434 -0.058189566 -1.0723204e-20)
(-0.10611009 -0.064511043 5.9659416e-20)
(-0.11451094 -0.071971078 1.6643028e-20)
(-0.12351265 -0.080803739 1.9186291e-20)
(-0.13293093 -0.091193129 5.3179479e-20)
(-0.14227829 -0.10315148 -6.1789561e-20)
(-0.15064485 -0.11625622 1.350035e-20)
(-0.1564341 -0.12916577 4.2169127e-20)
(-0.15738964 -0.13875101 4.9410325e-20)
(-0.15033393 -0.14019019 6.2186715e-21)
(-0.13258511 -0.1246483 -1.162364e-20)
(-0.0971264 -0.082121564 -1.4532966e-20)
(-0.037704483 -0.005986221 4.305125e-21)
(0.054792564 0.10519272 -3.5216223e-21)
(0.1936741 0.21824401 4.4525017e-21)
(0.40541017 0.26848113 2.1471188e-21)
(0.68779648 0.16944019 1.0991863e-20)
(0.99442486 -0.073319755 -6.0599473e-20)
(1.137846 -0.31148672 1.360384e-21)
(1.0731268 -0.39589103 -1.1054301e-20)
(9.1436594e-07 -4.0030325e-06 -2.4417088e-21)
(2.1899353e-06 -1.5511275e-05 -6.5403702e-22)
(2.1005865e-06 -3.0714943e-05 7.1844493e-22)
(-3.1605976e-07 -4.8755203e-05 3.5304883e-21)
(-6.1959368e-06 -6.8673821e-05 -4.232746e-21)
(-1.6952348e-05 -8.9439438e-05 3.5927469e-21)
(-3.4320574e-05 -0.00010994712 1.7162793e-21)
(-6.039835e-05 -0.00012903232 -9.1854254e-23)
(-9.7722239e-05 -0.00014550268 -1.4465737e-21)
(-0.00014934491 -0.00015818664 -8.2189016e-21)
(-0.00021892654 -0.00016600479 1.3782148e-20)
(-0.00031083487 -0.00016806809 -1.6533363e-20)
(-0.00043025798 -0.00016380851 4.8454751e-21)
(-0.00058332752 -0.00015314585 6.5616131e-21)
(-0.00077725258 -0.00013669361 -1.0035855e-20)
(-0.0010204621 -0.00011600408 1.9718775e-20)
(-0.0013227535 -9.3848486e-05 -2.3810987e-20)
(-0.0016954428 -7.4522103e-05 -3.745926e-22)
(-0.0021515107 -6.4155857e-05 -1.3529714e-20)
(-0.0027057354 -7.1006832e-05 5.3426905e-20)
(-0.0033747989 -0.00010568874 -1.286654e-20)
(-0.0041773487 -0.00018129537 -5.2959381e-20)
(-0.0051339877 -0.00031336848 2.4885197e-20)
(-0.0062671524 -0.00051967213 2.9523909e-20)
(-0.0076008213 -0.00081977053 -7.3753673e-21)
(-0.0091599749 -0.0012344697 -3.8409699e-20)
(-0.010969699 -0.0017852762 5.7822764e-20)
(-0.013053811 -0.0024941193 -6.3733126e-20)
(-0.015432924 -0.003383585 4.9815557e-20)
(-0.018121982 -0.0044776449 -9.45386e-21)
(-0.021127619 -0.0058020586 1.6079065e-20)
(-0.024446231 -0.0073823351 2.2596315e-20)
(-0.028064234 -0.0092366784 -8.660674e-21)
(-0.031961346 -0.011364584 -2.1416758e-21)
(-0.036114632 -0.013739142 -3.0540921e-20)
(-0.040503829 -0.016315067 5.6466479e-21)
(-0.04511411 -0.0190469 -1.4219395e-20)
(-0.049934461 -0.021905064 1.1802091e-20)
(-0.05495731 -0.024881427 -6.6453124e-21)
(-0.060178964 -0.027988071 -4.3575966e-21)
(-0.065602251 -0.031254303 -3.7586562e-21)
(-0.071239109 -0.034726038 -3.6449869e-21)
(-0.077118562 -0.038466497 2.2427421e-20)
(-0.083289714 -0.042568044 1.7968973e-20)
(-0.089807884 -0.047157479 -5.1105161e-21)
(-0.096738885 -0.052389351 3.3558363e-21)
(-0.10413717 -0.058465151 -1.3678187e-20)
(-0.1119989 -0.065635938 2.7912962e-20)
(-0.12018775 -0.074189505 3.2785933e-20)
(-0.12833357 -0.084400118 9.4933114e-21)
(-0.13564377 -0.096418119 2.4511698e-20)
(-0.14075055 -0.11002154 -7.7102083e-22)
(-0.14139191 -0.12412563 -1.1400659e-20)
(-0.1344887 -0.13586447 -5.0272715e-20)
(-0.11585561 -0.14022422 2.3528273e-20)
(-0.082777487 -0.12940221 -6.2100882e-21)
(-0.02765037 -0.093172754 1.9738826e-20)
(0.049730384 -0.02507373 -2.1160845e-20)
(0.15552784 0.074696257 9.9043428e-21)
(0.30809218 0.17365901 -1.959815e-21)
(0.52777315 0.21120875 -4.0966074e-22)
(0.82019377 0.11208384 -5.7297872e-21)
(1.1169221 -0.099410442 -1.9803263e-20)
(1.1963613 -0.29268927 3.6460846e-20)
(1.0939381 -0.35031024 -1.7569583e-20)
(-8.1237325e-06 2.8050622e-05 5.4715763e-21)
(-2.5650684e-05 8.3867476e-05 3.7642527e-21)
(-4.6335924e-05 0.00014317185 -5.9085172e-21)
(-7.1338126e-05 0.00020753915 1.5555293e-22)
(-0.0001019962 0.00027870098 5.3407099e-21)
(-0.00013992997 0.00035851456 2.7922053e-21)
(-0.00018708137 0.00044895965 -5.8831436e-21)
(-0.00024575087 0.0005521187 9.6598063e-22)
(-0.00031866584 0.00067013607 -1.3613231e-20)
(-0.00040904847 0.0008051568 2.6521757e-21)
(-0.00052069487 0.00095923826 6.7979863e-23)
(-0.00065806007 0.0011342294 -9.7470615e-21)
(-0.00082635217 0.0013316114 3.1215617e-20)
(-0.0010316334 0.0015522946 -1.4535095e-20)
(-0.001280928 0.0017963672 -2.6022764e-20)
(-0.0015823349 0.0020627951 2.7704823e-20)
(-0.0019451431 0.0023490754 -3.4085107e-21)
(-0.0023799471 0.0026508521 1.9329072e-20)
(-0.0028987574 0.0029615129 1.4337203e-20)
(-0.0035150991 0.0032717939 -4.5017102e-20)
(-0.0042440918 0.0035694318 3.373336e-20)
(-0.005102494 0.0038389146 -4.4309803e-20)
(-0.0061086934 0.0040613814 5.1903989e-21)
(-0.0072826088 0.0042147191 -2.1166825e-20)
(-0.0086454531 0.0042738684 4.5860467e-20)
(-0.010219284 0.0042112949 -1.083351e-20)
(-0.012026239 0.0039974948 -2.7254826e-20)
(-0.014087342 0.0036013211 6.55723e-20)
(-0.01642078 0.0029899318 -2.8327857e-20)
(-0.019039696 0.0021284552 -3.0338791e-20)
(-0.021949891 0.00098031769 2.4855114e-20)
(-0.025148326 -0.00048945215 3.3054066e-21)
(-0.028623492 -0.0023050453 -1.6236407e-20)
(-0.032358252 -0.0044656195 8.7819604e-21)
(-0.036335347 -0.006936097 -1.3140502e-20)
(-0.040539769 -0.009655587 4.4813085e-20)
(-0.044959108 -0.012559347 -2.2894825e-20)
(-0.049583421 -0.015599832 -1.341466e-20)
(-0.05440435 -0.018754035 -2.7044e-20)
(-0.059415427 -0.022020797 -3.6878759e-21)
(-0.064614701 -0.025417885 2.8083327e-20)
(-0.070008348 -0.028978279 -1.1352003e-20)
(-0.075618097 -0.032750807 -1.6778754e-20)
(-0.081479394 -0.036816026 -2.5259377e-21)
(-0.087627085 -0.041294512 1.6933239e-20)
(-0.094096784 -0.046339032 1.5134384e-20)
(-0.1008912 -0.052162774 -4.6494031e-20)
(-0.10792027 -0.059051463 -2.482906e-20)
(-0.11490174 -0.067360875 -5.4219997e-20)
(-0.12122247 -0.077476207 -1.9087011e-20)
(-0.12570264 -0.089711427 -7.3918717e-21)
(-0.12643034 -0.10407777 -5.267973e-20)
(-0.12040172 -0.11976466 -1.9183203e-20)
(-0.1037024 -0.13416886 6.1756482e-20)
(-0.071574533 -0.14223476 -4.3101371e-20)
(-0.021508686 -0.13651771 3.4132912e-20)
(0.050792446 -0.10658556 -1.0478697e-20)
(0.14320138 -0.045915245 3.4983235e-20)
(0.26212874 0.043203554 1.1094073e-20)
(0.42897079 0.12984866 -3.8393342e-21)
(0.65833397 0.15536168 -1.0693653e-20)
(0.97220707 0.063425373 -2.8884719e-20)
(1.2167613 -0.11261119 -2.2477683e-21)
(1.2167615 -0.26391139 -5.3833002e-21)
(1.1007727 -0.30454017 2.2324043e-20)
(-1.8601819e-05 5.7584624e-05 9.9562642e-23)
(-5.7941336e-05 0.0001754792 -7.0863835e-21)
(-0.0001025415 0.00030353677 8.3525735e-21)
(-0.00015378323 0.00044400291 4.0187556e-21)
(-0.0002132348 0.00059933496 -8.0467795e-21)
(-0.00028275207 0.00077216733 -2.605516e-21)
(-0.00036451155 0.00096530711 1.2631367e-20)
(-0.00046104378 0.0011817093 -1.3585812e-20)
(-0.00057529178 0.001424429 -2.8643056e-21)
(-0.00071066865 0.0016965499 -1.1385242e-20)
(-0.00087112235 0.0020010824 3.0203629e-20)
(-0.0010612037 0.0023408238 3.6761289e-22)
(-0.0012861391 0.0027181757 -2.70547e-20)
(-0.001551907 0.0031349094 2.8993139e-20)
(-0.0018653155 0.0035918771 -2.0713187e-20)
(-0.0022340818 0.004088664 -7.6633583e-21)
(-0.0026669105 0.0046231839 1.5967035e-20)
(-0.0031735684 0.0051912257 -1.4365463e-20)
(-0.0037649541 0.0057859682 -1.9067085e-20)
(-0.0044531587 0.0063974889 4.0048072e-22)
(-0.0052515117 0.0070123087 2.9835982e-20)
(-0.0061746048 0.0076130211 -1.8380821e-20)
(-0.0072382774 0.0081780654 1.0200423e-20)
(-0.0084595402 0.0086816924 4.9097559e-20)
(-0.0098563919 0.0090941491 1.6365001e-20)
(-0.011447463 0.0093820524 -4.4232014e-20)
(-0.013251391 0.0095088398 4.4078177e-21)
(-0.015285812 0.0094351134 -4.9595357e-20)
(-0.01756587 0.0091187077 2.9241299e-20)
(-0.020102292 0.0085146196 -1.5417194e-20)
(-0.022899396 0.0075758088 2.2256149e-20)
(-0.025953935 0.006257336 5.4102675e-21)
(-0.029255939 0.0045270333 -2.6826985e-20)
(-0.032791886 0.00238208 2.724609e-20)
(-0.036548839 -0.00013890828 3.934863e-20)
(-0.040516606 -0.002962156 -3.6132436e-21)
(-0.044686627 -0.0060050947 -4.0437778e-20)
(-0.049050169 -0.0092015374 5.0639824e-20)
(-0.053596876 -0.012511891 -1.0703547e-20)
(-0.058316903 -0.015921033 2.2738928e-20)