/*--------------------------------*- C++ -*----------------------------------*\
  =========                 |
  \\      /  F ield         | OpenFOAM: The Open Source CFD Toolbox
   \\    /   O peration     | Website:  https://openfoam.org
    \\  /    A nd           | Version:  13
     \\/     M anipulation  |
\*---------------------------------------------------------------------------*/
FoamFile
{
    format      ascii;
    class       volVectorField;
    location    "1.702628";
    object      UMean;
}
// * * * * * * * * * * * * * * * * * * * * * * * * * * * * * * * * * * * * * //

dimensions      [0 1 -1 0 0 0 0];

internalField   nonuniform List<vector> 
17140
(
(-1.5731681e-06 6.8562817e-05 -2.6615386e-21)
(-1.9068202e-05 0.00021029882 -2.1754157e-22)
(-5.6458426e-05 0.00036459635 1.4367211e-20)
(-0.00012161898 0.00053299362 -1.5799185e-20)
(-0.00022167772 0.00071717455 1.8476699e-21)
(-0.00036661047 0.00091875163 -6.0497581e-21)
(-0.00056890632 0.0011392668 -1.0190803e-20)
(-0.00084394743 0.0013800757 4.9787679e-21)
(-0.0012106163 0.0016422472 1.6309896e-20)
(-0.0016919257 0.0019264162 4.0045676e-20)
(-0.0023156677 0.0022326127 -5.9457873e-20)
(-0.0031150496 0.0025600587 5.3069574e-20)
(-0.0041292711 0.0029069364 8.1377888e-21)
(-0.0054039564 0.0032701319 -4.6129695e-20)
(-0.0069913121 0.0036449807 5.1353423e-21)
(-0.0089498602 0.0040250182 -4.080673e-20)
(-0.01134359 0.0044017921 1.5244494e-21)
(-0.014240285 0.0047647794 -3.4233406e-22)
(-0.017708829 0.0051014644 -2.4409605e-20)
(-0.021815372 0.0053976479 3.1777842e-20)
(-0.026618202 0.0056380609 -1.5360056e-20)
(-0.032161465 0.0058072796 2.9405383e-21)
(-0.038468169 0.0058909119 2.1713222e-20)
(-0.045532986 0.0058769488 -2.1671707e-20)
(-0.05331579 0.0057569281 -3.4503339e-20)
(-0.06173527 0.005526794 2.7706203e-20)
(-0.070665344 0.0051870782 1.3587908e-19)
(-0.07993201 0.0047422085 1.5980107e-20)
(-0.089309921 0.0041994442 -1.4009713e-19)
(-0.098520853 0.0035678647 -3.2718719e-20)
(-0.10722925 0.0028574992 -1.1668544e-19)
(-0.11503818 0.0020790963 1.5360847e-19)
(-0.12148771 0.0012437211 -4.0055815e-20)
(-0.12605333 0.00036334868 -1.9167784e-20)
(-0.12814643 -0.00054986215 -1.888918e-19)
(-0.12711536 -0.0014836616 8.3139451e-20)
(-0.12224916 -0.0024251372 -1.2570597e-19)
(-0.11278325 -0.0033602507 -8.5369914e-20)
(-0.097917435 -0.0042733783 -3.9219742e-20)
(-0.076833599 -0.0051432078 1.1915994e-19)
(-0.048727815 -0.0059482052 2.252836e-19)
(-0.012986255 -0.0066649582 2.0456065e-19)
(0.031126956 -0.0072336595 8.9258855e-20)
(0.083424089 -0.007597622 -4.3381655e-19)
(0.14364273 -0.0077091003 -3.1634275e-19)
(0.21056056 -0.0075070573 7.7427924e-20)
(0.28227872 -0.0069640074 -5.2365185e-19)
(0.35627453 -0.0060948472 -1.7674404e-19)
(0.42981558 -0.0049662955 1.7879172e-19)
(0.50044497 -0.003687579 4.34213e-19)
(0.56643463 -0.0023707002 -2.651332e-19)
(0.62680788 -0.0011026187 -1.6590201e-19)
(0.68124365 6.6461298e-05 4.2875576e-19)
(0.72978756 0.0011175882 2.0081617e-19)
(0.77268155 0.0020500079 1.4186373e-19)
(0.81016919 0.0028720795 -1.105332e-19)
(0.84255376 0.0035890897 2.957793e-19)
(0.8701004 0.0042095333 2.452271e-19)
(0.89323023 0.0047312335 6.102006e-20)
(0.91237234 0.005169117 -1.5640586e-19)
(0.92805886 0.0055130822 -1.2187768e-19)
(0.94095457 0.0058011102 -4.4957619e-19)
(0.95125163 0.0059984328 -6.5820781e-20)
(0.96018532 0.0061792666 5.5319827e-19)
(0.96665965 0.0062415408 -4.2767414e-19)
(-1.5028104e-05 0.00035040808 7.5728973e-22)
(-6.0122093e-05 0.0010748489 -7.5349298e-20)
(-0.00012737784 0.0018636959 6.7067892e-20)
(-0.00022484847 0.002725394 -1.8289397e-20)
(-0.00035992911 0.0036685994 -3.7795261e-20)
(-0.0005428088 0.0047019099 7.2251494e-20)
(-0.00078614597 0.00583354 -7.5358345e-20)
(-0.0011054298 0.0070708728 6.6367525e-21)
(-0.001519565 0.0084198954 -2.073726e-20)
(-0.002051462 0.0098844941 -3.5071564e-22)
(-0.0027286498 0.011465592 -6.9389654e-20)
(-0.0035838773 0.013160127 1.1041679e-19)
(-0.004655642 0.014959878 9.1350502e-21)
(-0.0059885694 0.016850174 -9.0332275e-20)
(-0.0076335337 0.018808561 2.7799915e-20)
(-0.0096473715 0.020803554 1.7690786e-20)
(-0.012092002 0.022793636 -1.1245955e-19)
(-0.015032769 0.024726769 3.6711489e-19)
(-0.018535815 0.026540728 -2.3028954e-19)
(-0.022664322 0.028164569 2.763496e-19)
(-0.027473561 0.029521554 -4.0879553e-19)
(-0.033004837 0.030533644 1.003185e-19)
(-0.039278696 0.031127401 4.1360549e-20)
(-0.046287987 0.031240525 -1.3520936e-19)
(-0.053991576 0.03082799 4.8613942e-19)
(-0.062307987 0.02986614 7.247302e-20)
(-0.071111844 0.02835318 -3.7532557e-19)
(-0.080230637 0.026305997 4.205176e-19)
(-0.089441117 0.023755097 -5.7828289e-20)
(-0.098467432 0.02073889 -5.6599407e-19)
(-0.10697643 0.0172993 5.8740296e-20)
(-0.11457409 0.013480046 4.5046409e-19)
(-0.12080289 0.009325926 1.1354494e-20)
(-0.12514047 0.0048831249 -3.3750215e-19)
(-0.1270002 0.00019880536 3.7795611e-19)
(-0.12573073 -0.0046799061 -1.7090721e-19)
(-0.12062081 -0.0097055461 2.020412e-19)
(-0.11090627 -0.014827332 6.4561263e-19)
(-0.095783634 -0.019985326 1.4528729e-19)
(-0.074428183 -0.025099147 5.7024743e-19)
(-0.046026133 -0.03006867 -7.3287343e-19)
(-0.0099410659 -0.034778916 -6.7619054e-19)
(0.034419201 -0.038964648 -1.1596057e-19)
(0.087059914 -0.042335918 9.2665391e-19)
(0.14759664 -0.044611751 -4.3803003e-19)
(0.21479772 -0.045455586 -1.5151207e-19)
(0.28668948 -0.044671135 8.0894071e-20)
(0.36068454 -0.042287216 2.5112027e-19)
(0.43400833 -0.038575141 -1.22154e-19)
(0.50421344 -0.034040015 2.1995786e-19)
(0.56963174 -0.02920237 1.3149566e-18)
(0.6293598 -0.024473841 6.2364037e-20)
(0.68315051 -0.020091777 -2.7876435e-19)
(0.73110507 -0.016142884 6.1526018e-19)
(0.77350119 -0.012624975 -5.2111433e-19)
(0.81059849 -0.0094939213 1.4665391e-18)
(0.8427043 -0.0067225337 4.1498404e-19)
(0.87007286 -0.004279631 -1.1596444e-18)
(0.89311122 -0.0021848505 1.9559144e-19)
(0.91222103 -0.00039655172 2.2191646e-19)
(0.92791946 0.0010349196 4.4334431e-20)
(0.94084062 0.0022425078 -5.8764827e-19)
(0.95117468 0.0031030725 1.1441907e-18)
(0.96012938 0.0038991983 3.4255694e-19)
(0.96656908 0.0044043614 5.6933649e-19)
(-4.4169158e-05 0.00063004338 4.1744704e-20)
(-0.00014897659 0.0019327695 -2.2767411e-20)
(-0.00028082407 0.0033514711 -6.0565181e-21)
(-0.00044811171 0.0049015038 5.7446074e-21)
(-0.00065880984 0.0065984903 -2.7848209e-20)
(-0.00092355206 0.0084580136 -2.0714293e-21)
(-0.001255341 0.010494988 -2.6486305e-20)
(-0.0016698769 0.012722878 -2.8557417e-20)
(-0.0021860768 0.015152677 2.3360893e-19)
(-0.0028265963 0.017791656 -2.0879744e-19)
(-0.0036183638 0.020641814 1.0004594e-19)
(-0.0045930885 0.023698047 1.4680665e-19)
(-0.005787703 0.026946032 -2.9162954e-19)
(-0.0072446361 0.030359905 -3.6169847e-20)
(-0.0090118506 0.033899855 1.3997303e-19)
(-0.01114249 0.037509834 9.6459022e-20)
(-0.013693977 0.041115728 -1.12151e-19)
(-0.016726374 0.044624408 4.0708645e-19)
(-0.020299888 0.047924235 -2.4128679e-19)
(-0.024471327 0.050887621 1.1964196e-19)
(-0.029289474 0.053376181 -4.0451317e-19)
(-0.034789488 0.055248744 -1.0546947e-19)
(-0.040986596 0.056371898 2.2046984e-19)
(-0.047869656 0.056631876 -3.3231166e-19)
(-0.055395207 0.055945643 -1.3097636e-19)
(-0.063481285 0.054268529 1.5747834e-19)
(-0.072003802 0.05159546 8.9462813e-19)
(-0.080793174 0.047955182 4.0494345e-19)
(-0.089630239 0.043400941 -2.0232478e-19)
(-0.098243762 0.038000248 2.1674136e-19)
(-0.1063058 0.031827043 -1.358257e-19)
(-0.11342762 0.024957691 -7.7100196e-19)
(-0.11915748 0.017470546 2.5904791e-19)
(-0.12297835 0.009445255 7.7687841e-19)
(-0.12430783 0.00096333359 -2.6069332e-19)
(-0.12249901 -0.0078935471 -3.6728183e-19)
(-0.11684383 -0.017043285 6.4072837e-19)
(-0.10657892 -0.026398822 1.9691802e-19)
(-0.090898013 -0.035858021 -3.5313507e-19)
(-0.068971009 -0.045286048 -1.4273909e-19)
(-0.039979599 -0.054498551 6.9085529e-19)
(-0.003221913 -0.063250517 -1.9689518e-19)
(0.04179422 -0.071119121 -2.8713337e-19)
(0.095182909 -0.077571103 -7.7093018e-19)
(0.15645647 -0.082028034 1.472612e-18)
(0.22431702 -0.08388241 -9.5655527e-19)
(0.29663512 -0.082755036 -2.4184664e-19)
(0.37067553 -0.078706178 -9.5856149e-19)
(0.44356602 -0.072248373 -1.1493443e-18)
(0.5128813 -0.064325374 -5.8294051e-20)
(0.57708411 -0.055888931 2.4608419e-19)
(0.63543268 -0.04767699 -1.8047391e-18)
(0.68783967 -0.040103377 -7.6582459e-19)
(0.73452351 -0.033305375 -7.8251506e-19)
(0.77583491 -0.027261778 -2.5543126e-19)
(0.81206515 -0.021880417 -1.9612531e-18)
(0.84353005 -0.01710353 7.735809e-19)
(0.8704624 -0.012872403 -2.3381052e-19)
(0.89324314 -0.0092226249 -1.9076795e-18)
(0.91221889 -0.0060875986 -7.5504641e-19)
(0.92788024 -0.0035616692 8.9665794e-19)
(0.94079633 -0.0014214934 3.0807658e-18)
(0.95117123 0.00011676336 -9.8400752e-19)
(0.9601381 0.0015386981 -1.5863298e-18)
(0.96666731 0.0024439315 -6.795417e-19)
(-8.870992e-05 0.00090120904 -1.3975046e-19)
(-0.00028481804 0.0027649847 1.6407947e-19)
(-0.00051543255 0.0047950649 -5.9344037e-20)
(-0.00078950471 0.0070136022 6.453641e-21)
(-0.0011158822 0.0094430444 -1.2763759e-19)
(-0.0015058824 0.012105881 1.3213552e-19)
(-0.0019730465 0.015023682 -2.0057047e-19)
(-0.0025334082 0.018216014 9.4447936e-20)
(-0.0032059154 0.021698983 3.594471e-19)
(-0.0040128547 0.025483453 -8.6538566e-20)
(-0.0049802591 0.029572845 -3.3007924e-19)
(-0.0061382788 0.033960511 1.0095209e-19)
(-0.007521477 0.03862671 6.7633965e-21)
(-0.0091689699 0.043535265 -2.653769e-19)
(-0.011124306 0.048630075 8.3260217e-19)
(-0.013435029 0.053831781 -5.1279652e-19)
(-0.016151704 0.059035039 -4.9040678e-21)
(-0.019326342 0.064107025 2.8578326e-19)
(-0.023010086 0.068887987 -7.2885729e-19)
(-0.027249948 0.073194705 3.4558854e-19)
(-0.032084712 0.076827667 5.17921e-19)
(-0.037539971 0.079582426 2.1075366e-19)
(-0.043622592 0.081264664 -1.0478973e-18)
(-0.050315009 0.081707426 -5.5038163e-19)
(-0.057569781 0.080787383 3.5749463e-19)
(-0.065303928 0.078436329 -2.0952095e-19)
(-0.073394879 0.074643715 7.8875949e-19)
(-0.081677047 0.06944841 -2.2761104e-19)
(-0.089937326 0.062925483 6.1660262e-19)
(-0.097911242 0.055171273 -3.5025195e-19)
(-0.10527863 0.046291381 2.1777386e-19)
(-0.1116593 0.036394844 -8.0369037e-19)
(-0.11661058 0.025592822 1.1618448e-19)
(-0.11962446 0.013998698 -6.1712458e-19)
(-0.12012737 0.0017273867 5.9549926e-19)
(-0.11748136 -0.011106045 1.9211086e-19)
(-0.11098482 -0.024386248 -2.4185755e-18)
(-0.099877896 -0.037992436 -6.3692515e-19)
(-0.083350762 -0.051784461 5.3294125e-19)
(-0.06056151 -0.065577663 -5.2844633e-19)
(-0.030677061 -0.079108566 1.3700994e-19)
(0.0070364096 -0.091990263 8.6659226e-19)
(0.053094451 -0.10362947 -4.0644338e-20)
(0.10761231 -0.11323524 -2.9520755e-19)
(0.17003143 -0.11989374 1.4448421e-19)
(0.23891924 -0.12269321 -7.2767233e-20)
(0.31191098 -0.12105519 -2.1095418e-19)
(0.38604933 -0.11509933 3.2616016e-18)
(0.4583248 -0.10564211 -3.6532442e-19)
(0.52635829 -0.094132947 3.3754535e-19)
(0.58880505 -0.08199304 -3.1657972e-18)
(0.64516821 -0.070285881 1.7275514e-18)
(0.69558888 -0.059580278 1.413349e-18)
(0.7404448 -0.050034008 1.3396504e-18)
(0.78017893 -0.041580895 1.279714e-18)
(0.81511711 -0.034062888 1.9914576e-18)
(0.84558443 -0.027380056 -3.9477837e-18)
(0.87178752 -0.021438944 2.4110659e-18)
(0.8940817 -0.01628733 3.6337542e-18)
(0.91274477 -0.011835018 -2.6528501e-18)
(0.92824066 -0.0082243998 -8.4382864e-19)
(0.94104731 -0.0051486187 -7.3485728e-19)
(0.95139197 -0.002921855 3.7407579e-18)
(0.96029271 -0.00086242604 2.74826e-18)
(0.96678871 0.00047282275 -1.2105709e-19)
(-0.00014776398 0.0011581477 9.8357891e-20)
(-0.00046499549 0.0035539682 -2.4092512e-19)
(-0.00082668645 0.0061642308 1.9648178e-19)
(-0.0012425492 0.0090176567 -7.4283404e-20)
(-0.001722602 0.012143251 -2.6850402e-20)
(-0.0022790904 0.015570224 2.3120354e-19)
(-0.0029262963 0.019326664 -5.8608917e-20)
(-0.0036807285 0.023438208 -1.2457434e-19)
(-0.0045614187 0.027926163 -9.5708419e-21)
(-0.0055902095 0.032805248 -8.1428673e-20)
(-0.0067920019 0.038080775 1.142388e-19)
(-0.0081949515 0.043745281 -7.958162e-20)
(-0.0098305513 0.049774635 -2.9403023e-19)
(-0.011733587 0.056123705 -8.5714605e-21)
(-0.013941844 0.062721804 2.2630477e-19)
(-0.016495478 0.069468287 1.6097898e-19)
(-0.019436007 0.076228852 -1.3919034e-19)
(-0.02280477 0.082833375 1.3435528e-20)
(-0.026640771 0.089076297 2.7446339e-19)
(-0.030977856 0.094720706 3.3649e-19)
(-0.035841244 0.099507239 -3.8652454e-19)
(-0.041243398 0.10316843 -3.9144218e-19)
(-0.047179523 0.10544812 5.300212e-19)
(-0.053622831 0.10612393 -6.5970002e-19)
(-0.060519842 0.1050291 -1.1490304e-18)
(-0.067785612 0.10206824 2.7199646e-18)
(-0.075299033 0.097221883 -1.5026597e-18)
(-0.082899331 0.090536944 2.2325752e-18)
(-0.090381075 0.082108942 -2.7967528e-18)
(-0.097488853 0.072062609 3.1291057e-18)
(-0.10391346 0.060535152 -3.242793e-18)
(-0.10928691 0.047668222 5.4724396e-19)
(-0.11317938 0.033605705 1.8962667e-18)
(-0.11509677 0.018493749 -1.0737672e-18)
(-0.11447957 0.0024792882 3.3734858e-19)
(-0.11070282 -0.014291377 9.9138685e-20)
(-0.10307555 -0.031673323 1.2296037e-18)
(-0.090843044 -0.049517266 4.0377439e-19)
(-0.073192443 -0.067650791 4.0975609e-19)
(-0.049267361 -0.085844797 4.0876612e-19)
(-0.018205888 -0.10376134 -2.0984281e-18)
(0.020771364 -0.12088204 9.2763251e-19)
(0.068218162 -0.13641354 1.4879686e-19)
(0.12423623 -0.14926873 -1.724566e-18)
(0.18817702 -0.15815767 -8.7846248e-19)
(0.25840476 -0.16181291 4.3355244e-19)
(0.33223339 -0.15943986 1.5779773e-18)
(0.40642806 -0.15126112 -6.8723772e-19)
(0.47784004 -0.138479 2.0055479e-18)
(0.54418384 -0.12313612 1.088204e-18)
(0.60437431 -0.10717017 1.4968682e-18)
(0.6582364 -0.091966812 4.0020664e-18)
(0.70618673 -0.078217122 -3.0768714e-18)
(0.74877939 -0.06605914 9.9685902e-19)
(0.78654871 -0.055349615 -1.7000136e-18)
(0.81984553 -0.045844566 -1.6019613e-18)
(0.84900074 -0.037390007 -6.2135795e-19)
(0.87419265 -0.029850615 -5.6132149e-18)
(0.89576039 -0.023281612 -1.4992187e-18)
(0.91390909 -0.01756923 3.4099461e-18)
(0.92908665 -0.012906474 1.2850269e-18)
(0.94165739 -0.008910478 -9.5917279e-19)
(0.95189694 -0.00599768 -1.9834787e-18)
(0.96066055 -0.0032965926 -3.088966e-18)
(0.967173 -0.0015213918 2.3555322e-19)
(-0.00021978194 0.0013950434 2.9951204e-19)
(-0.0006848547 0.0042820378 7.7974043e-20)
(-0.0012065906 0.0074284686 -6.3161066e-20)
(-0.0017956872 0.010869265 -2.3332205e-19)
(-0.0024635873 0.014639595 1.2790787e-19)
(-0.0032236979 0.018775079 -1.8423113e-19)
(-0.0040912327 0.023310095 7.9784207e-20)
(-0.0050833241 0.028276241 1.9023416e-20)
(-0.0062191595 0.033700089 -1.0782163e-19)
(-0.0075201069 0.039600506 -2.327627e-19)
(-0.0090097632 0.045985269 -1.1706393e-20)
(-0.01071393 0.052847034 3.8444852e-19)
(-0.012660468 0.060158631 -5.3351307e-19)
(-0.014878975 0.067867788 8.6473738e-19)
(-0.017400262 0.075891546 -2.2700896e-19)
(-0.020255562 0.08411076 4.8486461e-19)
(-0.023475346 0.092365364 -5.8983373e-19)
(-0.027087858 0.10045137 3.857517e-19)
(-0.031117111 0.10812079 -6.1426386e-20)
(-0.035580491 0.11508604 -2.5128069e-19)
(-0.040486078 0.12103005 6.1636416e-19)
(-0.045829539 0.1256232 -8.7822094e-19)
(-0.051590784 0.12854671 9.6417287e-19)
(-0.057730558 0.12952026 1.6722458e-19)
(-0.064186955 0.12832963 -1.6560312e-18)
(-0.070871408 0.12484741 1.6877055e-18)
(-0.077663927 0.11904054 -1.1052905e-18)
(-0.084409396 0.11096017 1.2487502e-18)
(-0.090911709 0.10072104 1.1982112e-19)
(-0.096927155 0.088476358 7.5205879e-20)
(-0.10216016 0.074395704 -5.0388629e-19)
(-0.10625859 0.058653344 3.4099679e-20)
(-0.10881016 0.041425381 -1.9216085e-18)
(-0.10933924 0.02288911 5.2304701e-19)
(-0.10730509 0.0032217592 1.5766212e-18)
(-0.1021003 -0.017402848 -7.4076746e-19)
(-0.09304836 -0.038815589 6.1355059e-19)
(-0.07940194 -0.060846111 -6.2204654e-19)
(-0.060343436 -0.083300112 -3.4905842e-18)
(-0.034996046 -0.10591431 1.9459656e-18)
(-0.0024594892 -0.12828459 4.8077024e-19)
(0.038099975 -0.14976029 -2.7462092e-18)
(0.087278356 -0.1693253 1.5743885e-19)
(0.14515347 -0.18554873 3.3772148e-19)
(0.21094193 -0.19670156 3.7014378e-18)
(0.28272615 -0.20109796 8.5839247e-19)
(0.35740502 -0.19771662 -1.3530024e-18)
(0.4314331 -0.18694868 -1.3807721e-18)
(0.50158086 -0.17048268 -1.960454e-18)
(0.56573718 -0.15104306 -2.4147405e-18)
(0.6231625 -0.13113657 -1.4673866e-18)
(0.6740715 -0.11245917 -2.2705779e-18)
(0.7191761 -0.095779981 7.6608885e-19)
(0.75919275 -0.08117086 -4.7398758e-18)
(0.79472282 -0.068378087 -3.209107e-19)
(0.82612077 -0.057053697 -2.6697832e-19)
(0.85371662 -0.046980601 -1.5099531e-19)
(0.87765932 -0.037976453 6.0666553e-18)
(0.89828554 -0.030097931 2.3665509e-18)
(0.915729 -0.023205709 -3.6312123e-18)
(0.93043788 -0.017542337 -5.1927766e-18)
(0.94264333 -0.012657228 -2.3209351e-18)
(0.9526867 -0.0090709808 -7.524104e-19)
(0.96121998 -0.0057425998 4.4021985e-18)
(0.96765993 -0.0035357277 -1.106812e-18)
(-0.00030249786 0.0016063418 -5.6533102e-20)
(-0.00093780583 0.0049322236 -1.3249605e-19)
(-0.001643678 0.0085584936 3.1993618e-19)
(-0.0024323072 0.012525725 -1.1903208e-20)
(-0.0033166495 0.016874731 -1.5596913e-19)
(-0.0043114748 0.021647103 -6.8803983e-20)
(-0.0054331088 0.026883154 -5.0856822e-20)
(-0.0066994352 0.032620242 1.0035046e-19)
(-0.008129873 0.03889021 -5.2033462e-19)
(-0.0097453102 0.045716352 3.9343612e-19)
(-0.011567929 0.053109557 -1.9073506e-20)
(-0.013620922 0.061063694 -2.393892e-19)
(-0.015928065 0.069550169 8.988215e-19)
(-0.018513102 0.078511806 -8.9967919e-19)
(-0.021398929 0.087856261 1.2047116e-19)
(-0.024606525 0.097449423 7.4977849e-19)
(-0.028153642 0.10710957 -7.099163e-19)
(-0.032053267 0.11660333 2.5007556e-19)
(-0.036311863 0.12564489 -4.9001115e-19)
(-0.040927315 0.13390016 6.3481349e-19)
(-0.04588715 0.14099757 1.203673e-18)
(-0.051166437 0.14654701 -1.203482e-18)
(-0.056725917 0.15016657 -1.7801098e-18)
(-0.062510308 0.15151533 3.4643455e-18)
(-0.068446153 0.15032677 -2.7995146e-18)
(-0.074439205 0.14643565 1.6353041e-18)
(-0.080369507 0.13979008 -4.2363932e-19)
(-0.086087995 0.13044188 1.0056523e-18)
(-0.091409837 0.118521 -1.0329113e-18)
(-0.096105389 0.10420753 -1.3974922e-18)
(-0.099896504 0.087703907 9.3192838e-19)
(-0.1024492 0.069220582 1.5508913e-18)
(-0.10337232 0.048964936 -1.3655034e-19)
(-0.10221315 0.027143476 -5.6878116e-20)
(-0.098453574 0.0039604822 -1.0127172e-18)
(-0.091507652 -0.020387032 4.421588e-19)
(-0.080715902 -0.045712747 1.6299614e-18)
(-0.065339257 -0.071834868 8.2737126e-19)
(-0.044554119 -0.098550048 -1.2751772e-18)
(-0.01745867 -0.12557597 1.0127451e-18)
(0.016893433 -0.15245269 -8.7031031e-19)
(0.059391143 -0.17839826 2.8801138e-19)
(0.11066258 -0.20214596 1.1229308e-18)
(0.1707357 -0.22186643 -2.7141799e-18)
(0.23862676 -0.23531021 -1.6191727e-18)
(0.3120458 -0.24030154 -1.0620705e-18)
(0.38738503 -0.23559094 3.3586904e-18)
(0.46078621 -0.22184434 2.1808539e-18)
(0.52906292 -0.2013478 2.5537967e-18)
(0.59040059 -0.17758396 4.4438143e-18)
(0.64451503 -0.15367199 -1.5306408e-18)
(0.69206432 -0.13158937 3.2324246e-19)
(0.73404441 -0.11212696 2.5221855e-18)
(0.7712859 -0.09524264 7.3377979e-18)
(0.80440911 -0.08054506 4.7924414e-18)
(0.83374048 -0.06757179 1.8712135e-18)
(0.85960162 -0.056038379 5.4205655e-18)
(0.88211191 -0.045712718 -3.6626116e-18)
(0.90162024 -0.036646815 3.8801588e-19)
(0.91819139 -0.028672528 5.8738472e-18)
(0.93229508 -0.022077346 3.9643469e-18)
(0.94401158 -0.016349571 1.7944717e-19)
(0.95378305 -0.012113912 -6.3292055e-18)
(0.96201547 -0.0081742561 6.7598001e-19)
(0.9683936 -0.0055217877 -9.5516979e-19)
(-0.00039303528 0.00178642 -2.2305175e-19)
(-0.0012149108 0.0054873802 1.1092878e-19)
(-0.0021226375 0.0095246405 -1.4991167e-19)
(-0.0031301164 0.013943741 -8.5249957e-20)
(-0.0042519302 0.018790472 2.3806407e-19)
(-0.0055043511 0.024111812 2.2242405e-19)
(-0.0069049288 0.029953527 -2.2848312e-19)
(-0.0084724074 0.036358424 2.7530585e-20)
(-0.010226499 0.043363543 6.3847124e-21)
(-0.012187623 0.05099686 4.5477016e-19)
(-0.014376484 0.059273052 -5.0002308e-20)
(-0.016813511 0.068188405 -9.2206424e-19)
(-0.019518108 0.077714768 7.3991172e-19)
(-0.022507701 0.087792658 -2.5620558e-20)
(-0.025796589 0.098323765 -5.0069585e-19)
(-0.029394546 0.10916329 -4.3348434e-20)
(-0.033305308 0.1201129 1.1104697e-19)
(-0.037524897 0.13091545 5.0445909e-19)
(-0.04203996 0.14125313 -9.3249871e-19)
(-0.046826271 0.15075083 1.6556051e-18)
(-0.051847516 0.15898709 -3.6080064e-19)
(-0.057054533 0.16551398 2.6785235e-19)
(-0.062385058 0.1698868 -2.2248968e-19)
(-0.067763769 0.17170127 9.5422373e-21)
(-0.073102133 0.17063316 -1.3454476e-18)
(-0.078297314 0.16647204 -1.3528199e-18)
(-0.083228311 0.15913926 2.6980101e-18)
(-0.087751343 0.14868218 4.5239269e-19)
(-0.091692768 0.13524424 -1.5831855e-18)
(-0.094840096 0.11903228 -5.65201e-19)
(-0.096934116 0.1002801 -1.2890676e-18)
(-0.097664908 0.079229517 1.4603461e-18)
(-0.09666245 0.056127148 6.4337696e-19)
(-0.093499609 0.031205956 -1.5020659e-18)
(-0.087684148 0.0046932121 6.3521422e-19)
(-0.078653448 -0.023195523 3.0873862e-19)
(-0.065766072 -0.052264308 -8.9776192e-19)
(-0.048290445 -0.082331529 -2.3785613e-18)
(-0.025394902 -0.11319945 -7.3275512e-19)
(0.0038512767 -0.14458302 4.8975443e-19)
(0.040438944 -0.17598041 1.1746946e-18)
(0.085301442 -0.20647965 1.2282912e-18)
(0.13906743 -0.23453678 1.3704397e-18)
(0.20165136 -0.25786203 2.8914697e-18)
(0.27177934 -0.27360082 -8.3635141e-20)
(0.34670567 -0.27900775 1.2256718e-18)
(0.42225458 -0.27261464 -6.7447943e-18)
(0.49430082 -0.25550615 -1.8694858e-18)
(0.55987638 -0.23069527 -2.1356575e-18)
(0.6176255 -0.20246952 -5.9071993e-18)
(0.66784391 -0.17458086 6.887157e-18)
(0.71166565 -0.14923508 -1.5285228e-18)
(0.7503227 -0.12717675 -4.8856322e-18)
(0.78468076 -0.10820542 -5.9466702e-18)
(0.81531461 -0.091777054 -7.4091767e-19)
(0.84248576 -0.077316639 1.8872963e-18)
(0.86650027 -0.064475377 3.0141377e-18)
(0.887448 -0.052971568 -1.2746919e-18)
(0.90570389 -0.04284609 2.2644758e-18)
(0.92126505 -0.033898077 -1.8414111e-18)
(0.93464429 -0.026451601 -6.2193961e-19)
(0.9457564 -0.01994173 -1.8218179e-18)
(0.95517892 -0.015091337 7.9062213e-18)
(0.96302367 -0.010574484 2.6698916e-19)
(0.9692676 -0.0074930711 3.1235906e-18)
(-0.00048772089 0.0019297607 2.0933859e-19)
(-0.0015049407 0.005930647 4.1329124e-20)
(-0.0026241358 0.010297701 -4.5430854e-20)
(-0.0038609824 0.015080619 -2.2339315e-19)
(-0.0052317334 0.020329341 2.6806472e-19)
(-0.006754225 0.0260955 -2.2778247e-19)
(-0.0084472975 0.032429685 -1.089507e-19)
(-0.010330595 0.03937971 5.8508879e-21)
(-0.012424165 0.046987624 9.2188837e-20)
(-0.014747983 0.055286269 5.2504139e-19)
(-0.017321273 0.06429477 -8.8315677e-19)
(-0.020161649 0.0740131 1.0634428e-18)
(-0.023284025 0.084415561 -3.131185e-19)
(-0.026699303 0.095443275 -4.2629764e-19)
(-0.030412832 0.10699586 6.5627892e-19)
(-0.034422666 0.11892276 -1.2994684e-18)
(-0.038717657 0.13101497 1.5833121e-18)
(-0.043275746 0.14299838 2.506918e-20)
(-0.048062116 0.15453038 9.1960295e-19)
(-0.05302825 0.16520202 -3.6796407e-18)
(-0.058111132 0.17454811 8.9896294e-19)
(-0.063234011 0.18206729 3.7549607e-18)
(-0.068307575 0.18725342 -1.7924363e-18)
(-0.073232216 0.18963666 -2.1595395e-18)
(-0.077900103 0.18882925 5.4799432e-19)
(-0.082196005 0.18456679 2.8941155e-18)
(-0.085995385 0.17673391 -4.4188541e-18)
(-0.089158384 0.16536399 4.9347731e-18)
(-0.091522945 0.15061011 -3.9092756e-18)
(-0.092893851 0.13270405 7.524902e-19)
(-0.093033903 0.11191626 -1.2999144e-18)
(-0.09165308 0.088520929 -1.8625349e-18)
(-0.088414089 0.062792324 7.3441836e-19)
(-0.082909511 0.035000339 1.8904858e-19)
(-0.074675877 0.005391637 2.7687633e-18)
(-0.063172616 -0.025805516 -5.3789591e-19)
(-0.047774323 -0.058393274 1.4027623e-18)
(-0.027753495 -0.092201202 -1.2064801e-18)
(-0.0022658014 -0.12705173 7.0942836e-19)
(0.029649278 -0.16267313 4.7411895e-19)
(0.06901717 -0.19853394 4.1330189e-19)
(0.11677863 -0.23359109 4.0840256e-19)
(0.17348772 -0.266002 -2.5232334e-18)
(0.23883248 -0.29296491 -2.0150576e-18)
(0.31113235 -0.31095445 5.6487576e-19)
(0.38713598 -0.31658059 -3.6967521e-19)
(0.46212302 -0.30816037 1.5109047e-18)
(0.53181221 -0.2873607 -3.0380534e-18)
(0.59364927 -0.2580679 -3.5426132e-18)
(0.64693338 -0.2253847 -1.0277281e-18)
(0.6926608 -0.19368177 -2.6690385e-18)
(0.7324366 -0.1653099 8.3766519e-20)
(0.76763861 -0.14089164 1.270375e-18)
(0.79906641 -0.12003413 6.1536839e-18)
(0.82718197 -0.10204192 -3.0546622e-18)
(0.85214898 -0.086243102 1.2325415e-18)
(0.87425298 -0.072235319 -3.5036785e-18)
(0.89355271 -0.059690701 5.832471e-18)
(0.91046067 -0.048632733 -3.2946767e-18)
(0.9249046 -0.038823969 1.1295467e-18)
(0.93746099 -0.030614756 -7.8865635e-21)
(0.94786885 -0.023393096 8.6607482e-19)
(0.95687939 -0.017971843 3.2262374e-18)
(0.96428059 -0.012909574 -6.0483267e-18)
(0.97036858 -0.0093960871 6.1435646e-18)
(-0.00058216072 0.0020313368 -4.6732626e-19)
(-0.0017945179 0.0062465804 -2.3688907e-19)
(-0.003125092 0.010850832 3.7206408e-19)
(-0.0045913007 0.015896992 -9.798067e-21)
(-0.0062110198 0.021438178 -3.3682858e-19)
(-0.0080036259 0.027529784 -1.7627325e-19)
(-0.0099892159 0.03422643 3.7198805e-19)
(-0.012188332 0.041580336 -6.1152267e-20)
(-0.01462136 0.049638227 8.6391334e-19)
(-0.017307858 0.058437859 -1.6874979e-19)
(-0.020265617 0.068003369 -4.3405368e-21)
(-0.023509502 0.078339654 6.243418e-19)
(-0.027050024 0.089425538 -2.0087656e-18)
(-0.030891634 0.1012058 9.405512e-19)
(-0.035030755 0.11358221 1.6948083e-18)
(-0.039453646 0.12640391 -1.8184199e-18)
(-0.044134137 0.13945799 2.2566626e-19)
(-0.049031444 0.15246124 -1.2932717e-18)
(-0.054088553 0.16505494 -9.7041644e-19)
(-0.059230917 0.1768052 3.0871943e-18)
(-0.064366904 0.18721129 -2.3458595e-18)
(-0.069388924 0.19572473 3.1270145e-18)
(-0.07417668 0.20178108 -3.7208445e-19)
(-0.078601686 0.20484388 1.5393545e-18)
(-0.082531784 0.20445599 -3.3852649e-18)
(-0.085834477 0.20028917 8.1060387e-19)
(-0.088377236 0.19217901 2.0655883e-18)
(-0.090022336 0.18013301 -5.0316176e-18)
(-0.090617417 0.16430586 2.2012665e-18)
(-0.08998455 0.14495073 2.3863369e-18)
(-0.087907441 0.12237142 -1.9835921e-18)
(-0.084124224 0.096887006 -2.6702364e-19)
(-0.078313461 0.068800786 1.3498784e-18)
(-0.07010503 0.038408218 -7.5133778e-19)
(-0.059051594 0.0059810462 1.1645853e-18)
(-0.044634823 -0.028244619 -4.1284259e-18)
(-0.02623785 -0.064075239 2.1927978e-18)
(-0.0031302589 -0.10136049 1.3360594e-18)
(0.025552253 -0.13995423 2.7778402e-18)
(0.060797152 -0.17960787 3.8437165e-19)
(0.10363474 -0.21976295 -3.0226906e-18)
(0.15493987 -0.25924039 1.2278148e-18)
(0.21506148 -0.29587917 1.8264981e-18)
(0.28329402 -0.32635212 2.7720275e-19)
(0.35742669 -0.34645445 -1.8288492e-18)
(0.43370271 -0.35211111 -1.6185393e-18)
(0.50700641 -0.3414019 4.9456761e-18)
(0.57307881 -0.31670303 2.6255647e-18)
(0.62998714 -0.28293959 5.7061555e-18)
(0.67789129 -0.24599357 2.0029194e-18)
(0.71857604 -0.21079903 7.7758973e-19)
(0.75405811 -0.17974198 5.7101401e-18)
(0.78572942 -0.15324889 2.2089483e-18)
(0.81421339 -0.13071918 -7.3986365e-18)
(0.8398042 -0.11132543 5.8605302e-18)
(0.86254773 -0.094326074 -5.2954897e-18)
(0.88270839 -0.079281572 2.5075994e-18)
(0.90030868 -0.065824801 -1.1866779e-17)
(0.91580652 -0.053956438 -5.8181268e-18)
(0.92905433 -0.043399597 2.308617e-18)
(0.94071071 -0.03451965 3.5407426e-18)
(0.95033074 -0.026664933 5.8317108e-18)
(0.95887726 -0.020725015 1.0182851e-18)
(0.96575719 -0.01516271 7.8456279e-19)
(0.97160674 -0.011246085 -8.2122095e-18)
(-0.00067140002 0.0020870717 -8.4679482e-21)
(-0.0020685319 0.0064225508 4.4397604e-19)
(-0.0035994219 0.011161954 -5.2361031e-19)
(-0.0052830965 0.016360299 -2.5210009e-19)
(-0.0071388918 0.022072762 5.0525963e-19)
(-0.0091875929 0.028357445 1.6377732e-19)
(-0.011450438 0.03527203 -7.9505671e-19)
(-0.013948788 0.042872342 8.5659733e-19)
(-0.01670333 0.051209251 1.8095815e-19)
(-0.019733227 0.060325269 7.2112553e-19)
(-0.023054928 0.070249917 -1.919093e-18)
(-0.026680737 0.080994073 -2.3415067e-20)
(-0.030617035 0.092543019 1.7334475e-18)
(-0.034862196 0.10484822 -1.8678631e-18)
(-0.039404177 0.1178179 1.3432551e-18)
(-0.044217899 0.13130671 5.0075399e-19)
(-0.049262612 0.14510509 -1.0529041e-18)
(-0.054479207 0.15892959 9.5710625e-19)
(-0.059788138 0.17241554 1.2849353e-18)
(-0.065088605 0.18511476 -2.7579762e-20)
(-0.070258517 0.19650138 -2.0654451e-18)
(-0.075157175 0.2059888 1.2906632e-18)
(-0.079629714 0.2129602 -7.2690284e-19)
(-0.083513816 0.21681351 -3.5515652e-18)
(-0.086647106 0.2170173 -1.1996813e-18)
(-0.088873696 0.21316865 3.2874769e-18)
(-0.090046926 0.20503932 -3.3140517e-19)
(-0.090026304 0.19259506 3.7731286e-18)
(-0.088666754 0.17597888 -2.2501324e-18)
(-0.085805522 0.1554616 1.1994072e-18)
(-0.081247401 0.13138027 -1.7528914e-18)
(-0.07475429 0.10408882 -4.321548e-19)
(-0.066029113 0.073937061 2.1935785e-18)
(-0.054727035 0.04125134 -2.2859492e-18)
(-0.040417449 0.006318749 -3.4016284e-18)
(-0.022594126 -0.030616518 3.3181916e-19)
(-0.00064118347 -0.069370381 3.7715758e-18)
(0.026186353 -0.10981827 -4.8974395e-18)
(0.058776491 -0.15184838 1.0692744e-18)
(0.09812685 -0.19523088 -2.3268216e-18)
(0.14521717 -0.23936677 3.6870156e-19)
(0.20074331 -0.28292134 -3.7349256e-18)
(0.26467853 -0.32341155 -1.8106906e-18)
(0.33573599 -0.35701867 -2.2952575e-18)
(0.41108438 -0.37893346 9.3596859e-18)
(0.48649573 -0.38446382 3.0969771e-18)
(0.556699 -0.37137226 -4.1406713e-18)
(0.61770528 -0.34276297 3.3911231e-18)
(0.66841919 -0.30475834 2.8470089e-18)
(0.71008328 -0.26396654 -3.2125426e-18)
(0.74527976 -0.22577103 -1.6735387e-18)
(0.77631249 -0.19246749 -3.8881771e-18)
(0.80442405 -0.16422685 -1.8578667e-18)
(0.82996152 -0.14025155 6.2990059e-18)
(0.85302121 -0.11961932 3.4909962e-18)
(0.87352842 -0.10155298 5.5757134e-19)
(0.89173033 -0.085593942 -1.1361904e-20)
(0.90760376 -0.071345525 2.9262704e-18)
(0.92165614 -0.05878208 -4.1586931e-18)
(0.93365338 -0.047586477 -5.2616505e-18)
(0.94435436 -0.038128587 -1.4453883e-18)
(0.95312513 -0.029723259 -1.0811525e-17)
(0.96116211 -0.023320623 -8.4452435e-18)
(0.96744895 -0.017299117 -2.1325493e-18)
(0.97302162 -0.013000951 -1.1270525e-18)