/*--------------------------------*- C++ -*----------------------------------*\
  =========                 |
  \\      /  F ield         | OpenFOAM: The Open Source CFD Toolbox
   \\    /   O peration     | Website:  https://openfoam.org
    \\  /    A nd           | Version:  13
     \\/     M anipulation  |
\*---------------------------------------------------------------------------*/
FoamFile
{
    format      ascii;
    class       volVectorField;
    location    "4000";
    object      U;
}
// * * * * * * * * * * * * * * * * * * * * * * * * * * * * * * * * * * * * * //

dimensions      [0 1 -1 0 0 0 0];

internalField   nonuniform List<vector> 
25000
(
(0.00072701 -1.63389e-07 0)
(0.000726778 -6.58133e-10 0)
(0.000726586 -5.7614e-10 0)
(0.000726368 -5.44938e-10 0)
(0.000726189 -4.2588e-10 0)
(0.000726039 -3.12151e-10 0)
(0.000725934 -1.89042e-10 0)
(0.000725863 -8.40083e-11 0)
(0.000725823 2.169e-11 0)
(0.000725815 1.25083e-10 0)
(0.000725838 2.20497e-10 0)
(0.000725887 3.07027e-10 0)
(0.000725961 3.84151e-10 0)
(0.000726058 4.56483e-10 0)
(0.000726176 5.1826e-10 0)
(0.000726313 5.73427e-10 0)
(0.000726465 6.15518e-10 0)
(0.000726632 6.48809e-10 0)
(0.000726808 6.68577e-10 0)
(0.000726992 6.78014e-10 0)
(0.000727179 6.74815e-10 0)
(0.000727368 6.60862e-10 0)
(0.000727553 6.35735e-10 0)
(0.000727734 6.00213e-10 0)
(0.000727906 5.55876e-10 0)
(0.000728068 5.02272e-10 0)
(0.000728216 4.43114e-10 0)
(0.000728349 3.76395e-10 0)
(0.000728464 3.08539e-10 0)
(0.000728562 2.38415e-10 0)
(0.000728642 1.67329e-10 0)
(0.000728702 8.20776e-11 0)
(0.000728737 -1.22266e-12 0)
(0.000728751 -7.84282e-11 0)
(0.000728744 -1.4873e-10 0)
(0.000728718 -2.23418e-10 0)
(0.000728669 -2.88078e-10 0)
(0.000728604 -3.5596e-10 0)
(0.000728517 -4.07742e-10 0)
(0.000728417 -4.64361e-10 0)
(0.000728299 -4.97741e-10 0)
(0.000728173 -5.40023e-10 0)
(0.000728032 -5.49706e-10 0)
(0.000727891 -5.73521e-10 0)
(0.00072774 -5.51298e-10 0)
(0.000727601 -5.50652e-10 0)
(0.000727461 -4.8977e-10 0)
(0.000727347 -4.822e-10 0)
(0.000727229 -4.01456e-10 0)
(0.000727138 -4.47637e-10 0)
(0.00525804 -7.28282e-07 0)
(0.00525638 4.12276e-09 0)
(0.00525498 4.59435e-09 0)
(0.00525343 4.43414e-09 0)
(0.00525216 3.86368e-09 0)
(0.00525111 3.02725e-09 0)
(0.0052504 2.20868e-09 0)
(0.00524994 1.5338e-09 0)
(0.00524972 8.9281e-10 0)
(0.00524974 3.03402e-10 0)
(0.00524997 -2.5665e-10 0)
(0.00525042 -7.40893e-10 0)
(0.00525104 -1.225e-09 0)
(0.00525184 -1.64e-09 0)
(0.00525279 -2.05091e-09 0)
(0.00525388 -2.39251e-09 0)
(0.00525508 -2.7153e-09 0)
(0.00525638 -2.96718e-09 0)
(0.00525774 -3.18365e-09 0)
(0.00525916 -3.33367e-09 0)
(0.0052606 -3.43662e-09 0)
(0.00526204 -3.47872e-09 0)
(0.00526345 -3.46505e-09 0)
(0.00526482 -3.39901e-09 0)
(0.00526612 -3.2719e-09 0)
(0.00526733 -3.10776e-09 0)
(0.00526843 -2.87955e-09 0)
(0.00526941 -2.63593e-09 0)
(0.00527025 -2.32414e-09 0)
(0.00527095 -2.04664e-09 0)
(0.00527151 -1.70744e-09 0)
(0.00527192 -1.33406e-09 0)
(0.00527213 -8.97851e-10 0)
(0.00527218 -5.32115e-10 0)
(0.00527207 -1.06291e-10 0)
(0.0052718 2.44451e-10 0)
(0.00527137 6.8361e-10 0)
(0.0052708 1.00149e-09 0)
(0.00527008 1.42415e-09 0)
(0.00526925 1.67211e-09 0)
(0.00526829 2.06005e-09 0)
(0.00526726 2.19564e-09 0)
(0.00526614 2.52239e-09 0)
(0.005265 2.46943e-09 0)
(0.00526381 2.66188e-09 0)
(0.0052627 2.27974e-09 0)
(0.0052616 2.2591e-09 0)
(0.0052607 1.6138e-09 0)
(0.00525977 1.90765e-09 0)
(0.00525903 1.56249e-09 0)
(0.00952933 -6.28374e-07 0)
(0.00952623 2.18835e-08 0)
(0.00952378 2.17877e-08 0)
(0.00952112 2.05311e-08 0)
(0.00951901 1.7109e-08 0)
(0.0095173 1.29646e-08 0)
(0.00951619 8.74975e-09 0)
(0.00951553 5.20656e-09 0)
(0.00951531 1.73073e-09 0)
(0.00951554 -1.57623e-09 0)
(0.00951619 -4.66892e-09 0)
(0.00951723 -7.39644e-09 0)
(0.00951859 -9.98887e-09 0)
(0.00952029 -1.22841e-08 0)
(0.00952225 -1.44197e-08 0)
(0.00952448 -1.62211e-08 0)
(0.0095269 -1.77925e-08 0)
(0.00952951 -1.89841e-08 0)
(0.00953222 -1.98856e-08 0)
(0.00953501 -2.04052e-08 0)
(0.00953781 -2.06108e-08 0)
(0.0095406 -2.04494e-08 0)
(0.00954331 -1.99701e-08 0)
(0.00954591 -1.91613e-08 0)
(0.00954835 -1.80514e-08 0)
(0.0095506 -1.66834e-08 0)
(0.00955261 -1.50484e-08 0)
(0.00955438 -1.32547e-08 0)
(0.00955587 -1.12417e-08 0)
(0.00955707 -9.29649e-09 0)
(0.00955799 -7.16634e-09 0)
(0.0095586 -4.71545e-09 0)
(0.00955883 -2.11808e-09 0)
(0.00955874 1.57631e-10 0)
(0.00955833 2.51641e-09 0)
(0.00955764 4.69592e-09 0)
(0.00955663 6.99563e-09 0)
(0.00955536 8.94301e-09 0)
(0.00955381 1.09919e-08 0)
(0.00955206 1.25278e-08 0)
(0.00955007 1.41987e-08 0)
(0.00954797 1.51413e-08 0)
(0.00954569 1.62822e-08 0)
(0.00954342 1.63517e-08 0)
(0.00954104 1.66616e-08 0)
(0.00953883 1.54e-08 0)
(0.00953661 1.46337e-08 0)
(0.00953475 1.2467e-08 0)
(0.00953282 1.24044e-08 0)
(0.00953131 1.16774e-08 0)
(0.0131109 -5.49559e-07 0)
(0.0131064 4.98524e-08 0)
(0.0131033 4.67616e-08 0)
(0.0130999 4.32318e-08 0)
(0.0130974 3.50445e-08 0)
(0.0130954 2.58841e-08 0)
(0.0130943 1.64527e-08 0)
(0.0130937 8.45075e-09 0)
(0.0130937 3.88351e-10 0)
(0.0130945 -7.38997e-09 0)
(0.0130957 -1.46285e-08 0)
(0.0130976 -2.10417e-08 0)
(0.0130999 -2.70416e-08 0)
(0.0131027 -3.23835e-08 0)
(0.0131059 -3.72532e-08 0)
(0.0131094 -4.13489e-08 0)
(0.0131132 -4.47996e-08 0)
(0.0131173 -4.73448e-08 0)
(0.0131214 -4.91236e-08 0)
(0.0131256 -4.99769e-08 0)
(0.0131299 -5.00374e-08 0)
(0.013134 -4.92056e-08 0)
(0.013138 -4.76065e-08 0)
(0.0131418 -4.52068e-08 0)
(0.0131453 -4.21186e-08 0)
(0.0131485 -3.83974e-08 0)
(0.0131513 -3.41124e-08 0)
(0.0131537 -2.94253e-08 0)
(0.0131556 -2.43471e-08 0)
(0.0131571 -1.93778e-08 0)
(0.0131582 -1.40812e-08 0)
(0.0131588 -7.91273e-09 0)
(0.0131587 -1.59513e-09 0)
(0.0131583 3.9294e-09 0)
(0.0131573 9.50187e-09 0)
(0.013156 1.47771e-08 0)
(0.0131541 2.00736e-08 0)
(0.013152 2.47183e-08 0)
(0.0131494 2.92747e-08 0)
(0.0131465 3.28907e-08 0)
(0.0131433 3.63959e-08 0)
(0.01314 3.86102e-08 0)
(0.0131365 4.07375e-08 0)
(0.013133 4.10436e-08 0)
(0.0131293 4.1253e-08 0)
(0.0131259 3.89321e-08 0)
(0.0131225 3.68931e-08 0)
(0.0131195 3.29535e-08 0)
(0.0131164 3.14666e-08 0)
(0.013114 3.00979e-08 0)
(0.0158291 -5.0942e-07 0)
(0.0158235 8.55766e-08 0)
(0.0158199 7.59655e-08 0)
(0.0158163 6.87068e-08 0)
(0.0158138 5.41116e-08 0)
(0.0158118 3.87997e-08 0)
(0.0158108 2.28967e-08 0)
(0.0158105 9.3122e-09 0)
(0.015811 -4.80381e-09 0)
(0.0158123 -1.85319e-08 0)
(0.0158143 -3.12598e-08 0)
(0.015817 -4.25787e-08 0)
(0.0158203 -5.30524e-08 0)
(0.0158242 -6.23934e-08 0)
(0.0158285 -7.07816e-08 0)
(0.0158333 -7.78013e-08 0)
(0.0158384 -8.35394e-08 0)
(0.0158437 -8.76514e-08 0)
(0.0158492 -9.0282e-08 0)
(0.0158547 -9.12438e-08 0)
(0.0158602 -9.07092e-08 0)
(0.0158655 -8.85723e-08 0)
(0.0158706 -8.5025e-08 0)
(0.0158754 -8.00524e-08 0)
(0.0158798 -7.38583e-08 0)
(0.0158837 -6.65451e-08 0)
(0.0158871 -5.82886e-08 0)
(0.0158899 -4.93301e-08 0)
(0.0158921 -3.98105e-08 0)
(0.0158937 -3.04841e-08 0)
(0.0158948 -2.06652e-08 0)
(0.0158952 -9.17632e-09 0)
(0.0158948 2.29621e-09 0)
(0.0158938 1.22587e-08 0)
(0.0158922 2.2189e-08 0)
(0.0158901 3.16573e-08 0)
(0.0158874 4.08924e-08 0)
(0.0158843 4.91023e-08 0)
(0.0158807 5.68243e-08 0)
(0.0158767 6.30978e-08 0)
(0.0158724 6.87554e-08 0)
(0.015868 7.2506e-08 0)
(0.0158632 7.55903e-08 0)
(0.0158586 7.61429e-08 0)
(0.0158538 7.59848e-08 0)
(0.0158493 7.25982e-08 0)
(0.0158447 6.90155e-08 0)
(0.0158407 6.34133e-08 0)
(0.0158364 5.9297e-08 0)
(0.0158332 5.66739e-08 0)
(0.017817 -4.675e-07 0)
(0.0178104 1.2699e-07 0)
(0.0178067 1.0726e-07 0)
(0.0178029 9.48244e-08 0)
(0.0178005 7.24943e-08 0)
(0.0177987 5.02711e-08 0)
(0.017798 2.70605e-08 0)
(0.017798 7.08501e-09 0)
(0.0177988 -1.42662e-08 0)
(0.0178007 -3.51023e-08 0)
(0.0178033 -5.43888e-08 0)
(0.0178068 -7.15882e-08 0)
(0.0178109 -8.73712e-08 0)
(0.0178157 -1.01451e-07 0)
(0.017821 -1.13948e-07 0)
(0.0178268 -1.24347e-07 0)
(0.0178329 -1.32631e-07 0)
(0.0178394 -1.38397e-07 0)
(0.0178459 -1.41755e-07 0)
(0.0178525 -1.42528e-07 0)
(0.017859 -1.40904e-07 0)
(0.0178652 -1.36812e-07 0)
(0.0178712 -1.305e-07 0)
(0.0178767 -1.22012e-07 0)
(0.0178817 -1.11649e-07 0)
(0.0178862 -9.95953e-08 0)
(0.01789 -8.61559e-08 0)
(0.0178931 -7.16815e-08 0)
(0.0178955 -5.64899e-08 0)
(0.0178971 -4.16283e-08 0)
(0.0178981 -2.60715e-08 0)
(0.0178983 -7.87333e-09 0)
(0.0178975 9.95867e-09 0)
(0.0178961 2.53671e-08 0)
(0.0178939 4.06122e-08 0)
(0.0178911 5.51652e-08 0)
(0.0178877 6.90915e-08 0)
(0.0178838 8.154e-08 0)
(0.0178792 9.29159e-08 0)
(0.0178744 1.02251e-07 0)
(0.0178691 1.10245e-07 0)
(0.0178637 1.15659e-07 0)
(0.017858 1.19592e-07 0)
(0.0178525 1.20327e-07 0)
(0.0178467 1.19556e-07 0)
(0.0178414 1.1514e-07 0)
(0.0178358 1.09908e-07 0)
(0.0178309 1.02854e-07 0)
(0.0178256 9.5014e-08 0)
(0.0178217 9.03602e-08 0)
(0.0192861 -4.17071e-07 0)
(0.019279 1.72627e-07 0)
(0.0192751 1.39804e-07 0)
(0.0192713 1.20947e-07 0)
(0.019269 8.98292e-08 0)
(0.0192674 6.01282e-08 0)
(0.0192668 2.89922e-08 0)
(0.0192671 1.96583e-09 0)
(0.0192683 -2.75474e-08 0)
(0.0192706 -5.6372e-08 0)
(0.0192737 -8.30558e-08 0)
(0.0192778 -1.06895e-07 0)
(0.0192826 -1.28632e-07 0)
(0.0192881 -1.48017e-07 0)
(0.0192941 -1.65072e-07 0)
(0.0193008 -1.79186e-07 0)
(0.0193077 -1.90192e-07 0)
(0.019315 -1.97647e-07 0)
(0.0193223 -2.01599e-07 0)
(0.0193297 -2.01907e-07 0)
(0.019337 -1.9876e-07 0)
(0.0193439 -1.92153e-07 0)
(0.0193505 -1.82384e-07 0)
(0.0193566 -1.6959e-07 0)
(0.0193621 -1.54171e-07 0)
(0.019367 -1.36425e-07 0)
(0.0193711 -1.168e-07 0)
(0.0193744 -9.5785e-08 0)
(0.0193769 -7.39088e-08 0)
(0.0193785 -5.2541e-08 0)
(0.0193794 -3.02275e-08 0)
(0.0193794 -4.21613e-09 0)
(0.0193783 2.09383e-08 0)
(0.0193765 4.26299e-08 0)
(0.0193739 6.39602e-08 0)
(0.0193706 8.43123e-08 0)
(0.0193665 1.03532e-07 0)
(0.019362 1.20749e-07 0)
(0.0193567 1.3616e-07 0)
(0.0193512 1.48862e-07 0)
(0.0193452 1.5932e-07 0)
(0.019339 1.6647e-07 0)
(0.0193326 1.71141e-07 0)
(0.0193263 1.71973e-07 0)
(0.0193198 1.70374e-07 0)
(0.0193138 1.6494e-07 0)
(0.0193075 1.57984e-07 0)
(0.0193019 1.49634e-07 0)
(0.0192959 1.37186e-07 0)
(0.0192915 1.29801e-07 0)
(0.0204121 -3.60756e-07 0)
(0.0204045 2.21637e-07 0)
(0.0204005 1.73425e-07 0)
(0.0203967 1.47108e-07 0)
(0.0203944 1.06331e-07 0)
(0.0203929 6.86653e-08 0)
(0.0203926 2.90659e-08 0)
(0.0203931 -5.60959e-09 0)
(0.0203946 -4.40384e-08 0)
(0.0203972 -8.15547e-08 0)
(0.0204007 -1.16319e-07 0)
(0.0204053 -1.47413e-07 0)
(0.0204105 -1.75623e-07 0)
(0.0204166 -2.00772e-07 0)
(0.0204233 -2.22745e-07 0)
(0.0204305 -2.40843e-07 0)
(0.0204381 -2.5471e-07 0)
(0.020446 -2.63879e-07 0)
(0.0204539 -2.6831e-07 0)
(0.0204619 -2.67926e-07 0)
(0.0204698 -2.629e-07 0)
(0.0204773 -2.53319e-07 0)
(0.0204844 -2.39528e-07 0)
(0.0204909 -2.2178e-07 0)
(0.0204968 -2.0058e-07 0)
(0.020502 -1.76362e-07 0)
(0.0205063 -1.49731e-07 0)
(0.0205097 -1.21337e-07 0)
(0.0205123 -9.19427e-08 0)
(0.020514 -6.32546e-08 0)
(0.0205147 -3.33379e-08 0)
(0.0205146 1.36862e-09 0)
(0.0205133 3.46348e-08 0)
(0.0205112 6.33218e-08 0)
(0.0205082 9.13796e-08 0)
(0.0205045 1.18126e-07 0)
(0.0205 1.43145e-07 0)
(0.0204949 1.65574e-07 0)
(0.0204891 1.85347e-07 0)
(0.020483 2.01671e-07 0)
(0.0204764 2.14712e-07 0)
(0.0204697 2.23656e-07 0)
(0.0204626 2.28979e-07 0)
(0.0204558 2.2982e-07 0)
(0.0204488 2.27208e-07 0)
(0.0204422 2.20719e-07 0)
(0.0204354 2.11946e-07 0)
(0.0204292 2.0236e-07 0)
(0.0204227 1.84605e-07 0)
(0.0204179 1.73925e-07 0)
(0.0213134 -3.0027e-07 0)
(0.0213055 2.73517e-07 0)
(0.0213014 2.08165e-07 0)
(0.0212975 1.73515e-07 0)
(0.0212953 1.22326e-07 0)
(0.0212939 7.62371e-08 0)
(0.0212937 2.76632e-08 0)
(0.0212944 -1.52256e-08 0)
(0.0212961 -6.32103e-08 0)
(0.021299 -1.10013e-07 0)
(0.0213028 -1.53438e-07 0)
(0.0213077 -1.92308e-07 0)
(0.0213134 -2.27433e-07 0)
(0.0213199 -2.58736e-07 0)
(0.021327 -2.85933e-07 0)
(0.0213347 -3.08246e-07 0)
(0.0213428 -3.25097e-07 0)
(0.0213512 -3.36006e-07 0)
(0.0213597 -3.40827e-07 0)
(0.0213681 -3.39566e-07 0)
(0.0213764 -3.3237e-07 0)
(0.0213844 -3.19439e-07 0)
(0.0213918 -3.01159e-07 0)
(0.0213987 -2.77923e-07 0)
(0.0214049 -2.5034e-07 0)
(0.0214103 -2.19003e-07 0)
(0.0214148 -1.8468e-07 0)
(0.0214184 -1.48203e-07 0)
(0.021421 -1.10588e-07 0)
(0.0214227 -7.38736e-08 0)
(0.0214234 -3.56361e-08 0)
(0.0214231 8.48229e-09 0)
(0.0214217 5.05366e-08 0)
(0.0214193 8.68445e-08 0)
(0.0214161 1.22187e-07 0)
(0.021412 1.55846e-07 0)
(0.0214072 1.8711e-07 0)
(0.0214017 2.15142e-07 0)
(0.0213955 2.39571e-07 0)
(0.021389 2.59748e-07 0)
(0.0213819 2.75488e-07 0)
(0.0213747 2.86285e-07 0)
(0.0213672 2.92199e-07 0)
(0.0213599 2.92968e-07 0)
(0.0213524 2.89176e-07 0)
(0.0213454 2.81562e-07 0)
(0.0213381 2.70848e-07 0)
(0.0213316 2.60007e-07 0)
(0.0213246 2.36383e-07 0)
(0.0213195 2.21965e-07 0)
(0.0220642 -2.3636e-07 0)
(0.0220561 3.2791e-07 0)
(0.0220518 2.4407e-07 0)
(0.0220479 2.00337e-07 0)
(0.0220458 1.38071e-07 0)
(0.0220445 8.31223e-08 0)
(0.0220443 2.50799e-08 0)
(0.0220451 -2.65537e-08 0)
(0.022047 -8.4648e-08 0)
(0.0220501 -1.41257e-07 0)
(0.0220542 -1.93847e-07 0)
(0.0220594 -2.40946e-07 0)
(0.0220654 -2.83369e-07 0)
(0.0220723 -3.21164e-07 0)
(0.0220797 -3.53856e-07 0)
(0.0220878 -3.80586e-07 0)
(0.0220963 -4.00532e-07 0)
(0.0221051 -4.1321e-07 0)
(0.022114 -4.18355e-07 0)
(0.0221228 -4.16065e-07 0)
(0.0221315 -4.0646e-07 0)
(0.0221398 -3.89864e-07 0)
(0.0221476 -3.66703e-07 0)
(0.0221547 -3.37528e-07 0)
(0.0221612 -3.03055e-07 0)
(0.0221668 -2.64047e-07 0)
(0.0221714 -2.21449e-07 0)
(0.0221751 -1.76288e-07 0)
(0.0221778 -1.29849e-07 0)
(0.0221795 -8.44848e-08 0)
(0.0221801 -3.73066e-08 0)
(0.0221798 1.68214e-08 0)
(0.0221782 6.82546e-08 0)
(0.0221757 1.12741e-07 0)
(0.0221722 1.5586e-07 0)
(0.0221679 1.9689e-07 0)
(0.0221627 2.34801e-07 0)
(0.0221569 2.68784e-07 0)
(0.0221504 2.98141e-07 0)
(0.0221435 3.22382e-07 0)
(0.022136 3.40939e-07 0)
(0.0221285 3.53646e-07 0)
(0.0221206 3.60109e-07 0)
(0.0221129 3.60733e-07 0)
(0.022105 3.55611e-07 0)
(0.0220977 3.46776e-07 0)
(0.0220901 3.33979e-07 0)
(0.0220833 3.21805e-07 0)
(0.022076 2.91853e-07 0)
(0.0220706 2.73347e-07 0)
(0.0227105 -1.6947e-07 0)
(0.0227022 3.84548e-07 0)
(0.0226979 2.81156e-07 0)
(0.0226939 2.27684e-07 0)
(0.0226918 1.53744e-07 0)
(0.0226905 8.9515e-08 0)
(0.0226904 2.15251e-08 0)
(0.0226914 -3.93548e-08 0)
(0.0226934 -1.08048e-07 0)
(0.0226967 -1.74927e-07 0)
(0.022701 -2.37131e-07 0)
(0.0227064 -2.92859e-07 0)
(0.0227127 -3.4292e-07 0)
(0.0227198 -3.87511e-07 0)
(0.0227276 -4.2594e-07 0)
(0.022736 -4.5727e-07 0)
(0.0227448 -4.80415e-07 0)
(0.022754 -4.94891e-07 0)
(0.0227632 -5.00306e-07 0)
(0.0227724 -4.96863e-07 0)
(0.0227813 -4.84643e-07 0)
(0.0227899 -4.64112e-07 0)
(0.0227979 -4.35736e-07 0)
(0.0228054 -4.00231e-07 0)
(0.022812 -3.58427e-07 0)
(0.0228177 -3.11271e-07 0)
(0.0228225 -2.59888e-07 0)
(0.0228263 -2.05516e-07 0)
(0.0228291 -1.49719e-07 0)
(0.0228308 -9.5146e-08 0)
(0.0228314 -3.84789e-08 0)
(0.022831 2.6172e-08 0)
(0.0228293 8.75104e-08 0)
(0.0228266 1.40682e-07 0)
(0.0228229 1.92023e-07 0)
(0.0228184 2.40836e-07 0)
(0.022813 2.85757e-07 0)
(0.022807 3.26012e-07 0)
(0.0228001 3.60548e-07 0)
(0.0227929 3.89049e-07 0)
(0.0227851 4.10538e-07 0)
(0.0227773 4.25214e-07 0)
(0.022769 4.32195e-07 0)
(0.0227611 4.32604e-07 0)
(0.0227529 4.26015e-07 0)
(0.0227453 4.15848e-07 0)
(0.0227374 4.00815e-07 0)
(0.0227303 3.87196e-07 0)
(0.0227227 3.50531e-07 0)
(0.0227171 3.27652e-07 0)
(0.0232816 -9.99224e-08 0)
(0.0232732 4.43246e-07 0)
(0.0232687 3.19433e-07 0)
(0.0232648 2.55628e-07 0)
(0.0232626 1.69465e-07 0)
(0.0232614 9.55454e-08 0)
(0.0232614 1.71449e-08 0)
(0.0232624 -5.34605e-08 0)
(0.0232645 -1.33195e-07 0)
(0.023268 -2.1077e-07 0)
(0.0232725 -2.82995e-07 0)
(0.0232781 -3.47719e-07 0)
(0.0232846 -4.0573e-07 0)
(0.023292 -4.57393e-07 0)
(0.0233 -5.01782e-07 0)
(0.0233087 -5.3788e-07 0)
(0.0233178 -5.64321e-07 0)
(0.0233272 -5.80628e-07 0)
(0.0233367 -5.8627e-07 0)
(0.0233462 -5.81564e-07 0)
(0.0233554 -5.66552e-07 0)
(0.0233642 -5.41847e-07 0)
(0.0233725 -5.07957e-07 0)
(0.0233801 -4.65776e-07 0)
(0.0233869 -4.16246e-07 0)
(0.0233928 -3.60514e-07 0)
(0.0233977 -2.99887e-07 0)
(0.0234016 -2.3583e-07 0)
(0.0234044 -1.70192e-07 0)
(0.0234061 -1.05895e-07 0)
(0.0234067 -3.92423e-08 0)
(0.0234062 3.63876e-08 0)
(0.0234044 1.08113e-07 0)
(0.0234017 1.70438e-07 0)
(0.0233978 2.3041e-07 0)
(0.0233932 2.8739e-07 0)
(0.0233875 3.3966e-07 0)
(0.0233812 3.86481e-07 0)
(0.0233742 4.26433e-07 0)
(0.0233667 4.59379e-07 0)
(0.0233586 4.83912e-07 0)
(0.0233505 5.00612e-07 0)
(0.023342 5.08089e-07 0)
(0.0233337 5.08219e-07 0)
(0.0233253 5.00035e-07 0)
(0.0233174 4.88417e-07 0)
(0.0233093 4.7099e-07 0)
(0.023302 4.55788e-07 0)
(0.0232942 4.1208e-07 0)
(0.0232884 3.84587e-07 0)
(0.0237969 -2.79559e-08 0)
(0.0237883 5.03873e-07 0)
(0.0237838 3.58908e-07 0)
(0.0237798 2.8422e-07 0)
(0.0237777 1.8532e-07 0)
(0.0237764 1.01307e-07 0)
(0.0237765 1.20358e-08 0)
(0.0237776 -6.87506e-08 0)
(0.0237799 -1.59938e-07 0)
(0.0237834 -2.4861e-07 0)
(0.0237881 -3.31236e-07 0)
(0.0237939 -4.05295e-07 0)
(0.0238006 -4.71546e-07 0)
(0.0238082 -5.30541e-07 0)
(0.0238165 -5.81098e-07 0)
(0.0238254 -6.22124e-07 0)
(0.0238347 -6.51955e-07 0)
(0.0238444 -6.70125e-07 0)
(0.0238541 -6.75959e-07 0)
(0.0238638 -6.69892e-07 0)
(0.0238732 -6.51927e-07 0)
(0.0238823 -6.22833e-07 0)
(0.0238908 -5.83157e-07 0)
(0.0238986 -5.33982e-07 0)
(0.0239055 -4.76366e-07 0)
(0.0239116 -4.11663e-07 0)
(0.0239166 -3.41369e-07 0)
(0.0239206 -2.67188e-07 0)
(0.0239234 -1.91262e-07 0)
(0.0239251 -1.1676e-07 0)
(0.0239257 -3.96591e-08 0)
(0.0239251 4.73682e-08 0)
(0.0239233 1.29929e-07 0)
(0.0239204 2.0185e-07 0)
(0.0239164 2.70838e-07 0)
(0.0239116 3.36344e-07 0)
(0.0239058 3.96283e-07 0)
(0.0238993 4.49951e-07 0)
(0.023892 4.95544e-07 0)
(0.0238843 5.33111e-07 0)
(0.023876 5.60798e-07 0)
(0.0238676 5.79576e-07 0)
(0.0238589 5.87532e-07 0)
(0.0238504 5.8732e-07 0)
(0.0238417 5.77421e-07 0)
(0.0238336 5.64228e-07 0)
(0.0238253 5.44244e-07 0)
(0.0238177 5.27309e-07 0)
(0.0238098 4.76263e-07 0)
(0.0238039 4.43946e-07 0)
(0.0242697 4.62578e-08 0)
(0.0242611 5.66338e-07 0)
(0.0242565 3.99588e-07 0)
(0.0242524 3.13499e-07 0)
(0.0242503 2.01368e-07 0)
(0.0242491 1.06861e-07 0)
(0.0242491 6.27142e-09 0)
(0.0242503 -8.51358e-08 0)
(0.0242527 -1.88169e-07 0)
(0.0242564 -2.88316e-07 0)
(0.0242612 -3.81705e-07 0)
(0.0242672 -4.65422e-07 0)
(0.024274 -5.40188e-07 0)
(0.0242818 -6.06761e-07 0)
(0.0242903 -6.63687e-07 0)
(0.0242994 -7.09791e-07 0)
(0.024309 -7.43103e-07 0)
(0.0243188 -7.6317e-07 0)
(0.0243288 -7.69165e-07 0)
(0.0243387 -7.6165e-07 0)
(0.0243483 -7.40584e-07 0)
(0.0243576 -7.06899e-07 0)
(0.0243662 -6.61185e-07 0)
(0.0243742 -6.0472e-07 0)
(0.0243813 -5.38681e-07 0)
(0.0243875 -4.64636e-07 0)
(0.0243926 -3.8428e-07 0)
(0.0243966 -2.99562e-07 0)
(0.0243994 -2.12923e-07 0)
(0.0244012 -1.27758e-07 0)
(0.0244018 -3.97745e-08 0)
(0.0244012 5.90439e-08 0)
(0.0243992 1.52868e-07 0)
(0.0243963 2.34803e-07 0)
(0.0243922 3.13176e-07 0)
(0.0243872 3.87552e-07 0)
(0.0243812 4.55466e-07 0)
(0.0243746 5.16249e-07 0)
(0.0243671 5.67701e-07 0)
(0.0243592 6.10056e-07 0)
(0.0243507 6.41004e-07 0)
(0.0243421 6.61915e-07 0)
(0.0243331 6.70335e-07 0)
(0.0243244 6.69721e-07 0)
(0.0243155 6.57991e-07 0)
(0.0243072 6.43097e-07 0)
(0.0242987 6.20391e-07 0)
(0.024291 6.01561e-07 0)
(0.0242829 5.42912e-07 0)
(0.0242768 5.05582e-07 0)
(0.0247096 1.22591e-07 0)
(0.0247008 6.30571e-07 0)
(0.0246962 4.41477e-07 0)
(0.0246921 3.43491e-07 0)
(0.0246899 2.17655e-07 0)
(0.0246887 1.12252e-07 0)
(0.0246888 -9.44231e-11 0)
(0.0246901 -1.02549e-07 0)
(0.0246925 -2.17805e-07 0)
(0.0246963 -3.29795e-07 0)
(0.0247012 -4.3429e-07 0)
(0.0247074 -5.27975e-07 0)
(0.0247144 -6.11521e-07 0)
(0.0247223 -6.85909e-07 0)
(0.024731 -7.49396e-07 0)
(0.0247403 -8.00727e-07 0)
(0.02475 -8.37609e-07 0)
(0.0247601 -8.59606e-07 0)
(0.0247703 -8.65736e-07 0)
(0.0247804 -8.56692e-07 0)
(0.0247902 -8.32386e-07 0)
(0.0247996 -7.93922e-07 0)
(0.0248084 -7.41931e-07 0)
(0.0248165 -6.77894e-07 0)
(0.0248237 -6.03112e-07 0)
(0.02483 -5.19375e-07 0)
(0.0248352 -4.28578e-07 0)
(0.0248393 -3.32927e-07 0)
(0.0248422 -2.35171e-07 0)
(0.0248439 -1.38905e-07 0)
(0.0248445 -3.96223e-08 0)
(0.0248439 7.13644e-08 0)
(0.0248419 1.76862e-07 0)
(0.0248388 2.69215e-07 0)
(0.0248347 3.57327e-07 0)
(0.0248295 4.40903e-07 0)
(0.0248234 5.1709e-07 0)
(0.0248166 5.85245e-07 0)
(0.0248089 6.42767e-07 0)
(0.0248008 6.90075e-07 0)
(0.0247921 7.2439e-07 0)
(0.0247833 7.47485e-07 0)
(0.0247742 7.56358e-07 0)
(0.0247653 7.55284e-07 0)
(0.0247562 7.41611e-07 0)
(0.0247477 7.24886e-07 0)
(0.0247391 6.99294e-07 0)
(0.0247312 6.78398e-07 0)
(0.024723 6.11902e-07 0)
(0.0247168 5.69385e-07 0)
(0.0251235 2.00946e-07 0)
(0.0251146 6.96523e-07 0)
(0.0251099 4.84584e-07 0)
(0.0251057 3.74222e-07 0)
(0.0251036 2.34216e-07 0)
(0.0251024 1.17516e-07 0)
(0.0251025 -7.02083e-09 0)
(0.0251038 -1.2094e-07 0)
(0.0251063 -2.48785e-07 0)
(0.0251102 -3.72973e-07 0)
(0.0251153 -4.88909e-07 0)
(0.0251215 -5.92859e-07 0)
(0.0251287 -6.85443e-07 0)
(0.0251368 -7.67875e-07 0)
(0.0251456 -8.38112e-07 0)
(0.0251551 -8.94812e-07 0)
(0.025165 -9.35352e-07 0)
(0.0251753 -9.59315e-07 0)
(0.0251856 -9.65556e-07 0)
(0.0251959 -9.54906e-07 0)
(0.0252058 -9.27229e-07 0)
(0.0252154 -8.83805e-07 0)
(0.0252244 -8.2531e-07 0)
(0.0252326 -7.53433e-07 0)
(0.0252399 -6.696e-07 0)
(0.0252463 -5.75832e-07 0)
(0.0252516 -4.7423e-07 0)
(0.0252557 -3.67268e-07 0)
(0.0252587 -2.58001e-07 0)
(0.0252604 -1.50211e-07 0)
(0.025261 -3.92282e-08 0)
(0.0252603 8.42923e-08 0)
(0.0252583 2.01861e-07 0)
(0.0252551 3.05022e-07 0)
(0.0252509 4.03219e-07 0)
(0.0252457 4.96316e-07 0)
(0.0252394 5.81063e-07 0)
(0.0252324 6.56844e-07 0)
(0.0252246 7.20641e-07 0)
(0.0252163 7.7306e-07 0)
(0.0252075 8.10844e-07 0)
(0.0251985 8.36175e-07 0)
(0.0251892 8.45491e-07 0)
(0.0251801 8.439e-07 0)
(0.0251709 8.28177e-07 0)
(0.0251622 8.09492e-07 0)
(0.0251534 7.80845e-07 0)
(0.0251454 7.57708e-07 0)
(0.025137 6.83137e-07 0)
(0.0251307 6.35273e-07 0)
(0.0255166 2.81247e-07 0)
(0.0255077 7.64153e-07 0)
(0.0255029 5.28914e-07 0)
(0.0254987 4.05712e-07 0)
(0.0254965 2.5108e-07 0)
(0.0254953 1.22681e-07 0)
(0.0254955 -1.4476e-08 0)
(0.0254969 -1.40269e-07 0)
(0.0254995 -2.81061e-07 0)
(0.0255035 -4.17792e-07 0)
(0.0255086 -5.45494e-07 0)
(0.025515 -6.60001e-07 0)
(0.0255222 -7.61872e-07 0)
(0.0255305 -8.52575e-07 0)
(0.0255394 -9.29744e-07 0)
(0.0255491 -9.91955e-07 0)
(0.0255592 -1.03624e-06 0)
(0.0255696 -1.0622e-06 0)
(0.0255801 -1.06853e-06 0)
(0.0255905 -1.05621e-06 0)
(0.0256006 -1.02503e-06 0)
(0.0256104 -9.76477e-07 0)
(0.0256194 -9.11257e-07 0)
(0.0256278 -8.31281e-07 0)
(0.0256352 -7.381e-07 0)
(0.0256417 -6.33974e-07 0)
(0.025647 -5.21214e-07 0)
(0.0256512 -4.0257e-07 0)
(0.0256542 -2.81411e-07 0)
(0.025656 -1.61685e-07 0)
(0.0256565 -3.86119e-08 0)
(0.0256558 9.77984e-08 0)
(0.0256538 2.27826e-07 0)
(0.0256505 3.42175e-07 0)
(0.0256462 4.50794e-07 0)
(0.0256409 5.53727e-07 0)
(0.0256345 6.47317e-07 0)
(0.0256274 7.30967e-07 0)
(0.0256194 8.01242e-07 0)
(0.025611 8.58927e-07 0)
(0.025602 9.00283e-07 0)
(0.0255928 9.279e-07 0)
(0.0255833 9.3765e-07 0)
(0.0255741 9.35487e-07 0)
(0.0255647 9.17608e-07 0)
(0.0255559 8.96831e-07 0)
(0.025547 8.64963e-07 0)
(0.0255389 8.39404e-07 0)
(0.0255304 7.56543e-07 0)
(0.025524 7.0318e-07 0)
(0.0258932 3.63437e-07 0)
(0.0258842 8.33434e-07 0)
(0.0258793 5.74476e-07 0)
(0.0258751 4.37977e-07 0)
(0.0258729 2.68271e-07 0)
(0.0258717 1.2777e-07 0)
(0.0258719 -2.24344e-08 0)
(0.0258733 -1.60505e-07 0)
(0.025876 -3.14594e-07 0)
(0.0258801 -4.64208e-07 0)
(0.0258853 -6.03994e-07 0)
(0.0258918 -7.29342e-07 0)
(0.0258992 -8.40747e-07 0)
(0.0259075 -9.3994e-07 0)
(0.0259166 -1.02422e-06 0)
(0.0259264 -1.09208e-06 0)
(0.0259367 -1.1402e-06 0)
(0.0259472 -1.1682e-06 0)
(0.0259578 -1.1746e-06 0)
(0.0259684 -1.16053e-06 0)
(0.0259787 -1.12574e-06 0)
(0.0259885 -1.07188e-06 0)
(0.0259977 -9.99724e-07 0)
(0.0260062 -9.11396e-07 0)
(0.0260138 -8.08577e-07 0)
(0.0260203 -6.93774e-07 0)
(0.0260257 -5.6951e-07 0)
(0.0260299 -4.38823e-07 0)
(0.0260329 -3.05399e-07 0)
(0.0260347 -1.73332e-07 0)
(0.0260352 -3.77891e-08 0)
(0.0260345 1.11859e-07 0)
(0.0260324 2.54726e-07 0)
(0.0260292 3.80635e-07 0)
(0.0260247 5.00008e-07 0)
(0.0260193 6.13085e-07 0)
(0.0260128 7.15794e-07 0)
(0.0260056 8.07556e-07 0)
(0.0259975 8.84506e-07 0)
(0.0259889 9.47611e-07 0)
(0.0259798 9.92638e-07 0)
(0.0259705 1.02259e-06 0)
(0.0259608 1.03277e-06 0)
(0.0259514 1.02998e-06 0)
(0.0259419 1.00984e-06 0)
(0.025933 9.86841e-07 0)
(0.0259239 9.51583e-07 0)
(0.0259157 9.23418e-07 0)
(0.0259071 8.32062e-07 0)
(0.0259006 7.73056e-07 0)
(0.0262564 4.47467e-07 0)
(0.0262474 9.04343e-07 0)
(0.0262424 6.21279e-07 0)
(0.0262382 4.71037e-07 0)
(0.0262359 2.8581e-07 0)
(0.0262347 1.32801e-07 0)
(0.026235 -3.08755e-08 0)
(0.0262364 -1.81621e-07 0)
(0.0262391 -3.49352e-07 0)
(0.0262433 -5.12184e-07 0)
(0.0262486 -6.64367e-07 0)
(0.0262552 -8.00836e-07 0)
(0.0262627 -9.22017e-07 0)
(0.0262712 -1.02992e-06 0)
(0.0262804 -1.12149e-06 0)
(0.0262903 -1.19514e-06 0)
(0.0263007 -1.24717e-06 0)
(0.0263114 -1.27725e-06 0)
(0.0263221 -1.2837e-06 0)
(0.0263329 -1.26781e-06 0)
(0.0263433 -1.22929e-06 0)
(0.0263532 -1.16997e-06 0)
(0.0263625 -1.09067e-06 0)
(0.0263711 -9.93743e-07 0)
(0.0263787 -8.81004e-07 0)
(0.0263854 -7.55211e-07 0)
(0.0263908 -6.19106e-07 0)
(0.0263951 -4.76021e-07 0)
(0.0263981 -3.29962e-07 0)
(0.0263999 -1.85159e-07 0)
(0.0264005 -3.67729e-08 0)
(0.0263997 1.26456e-07 0)
(0.0263976 2.82537e-07 0)
(0.0263942 4.20373e-07 0)
(0.0263897 5.50825e-07 0)
(0.0263842 6.7435e-07 0)
(0.0263777 7.86451e-07 0)
(0.0263703 8.86563e-07 0)
(0.0263621 9.70383e-07 0)
(0.0263534 1.03906e-06 0)
(0.0263441 1.08786e-06 0)
(0.0263346 1.12019e-06 0)
(0.0263249 1.13079e-06 0)
(0.0263153 1.12732e-06 0)
(0.0263057 1.10482e-06 0)
(0.0262966 1.07947e-06 0)
(0.0262875 1.04065e-06 0)
(0.0262791 1.00969e-06 0)
(0.0262705 9.09649e-07 0)
(0.0262639 8.44863e-07 0)
(0.0266088 5.33301e-07 0)
(0.0265998 9.76866e-07 0)
(0.0265948 6.69336e-07 0)
(0.0265905 5.04907e-07 0)
(0.0265882 3.03718e-07 0)
(0.026587 1.37793e-07 0)
(0.0265873 -3.97818e-08 0)
(0.0265888 -2.03596e-07 0)
(0.0265916 -3.8531e-07 0)
(0.0265958 -5.61688e-07 0)
(0.0266012 -7.26577e-07 0)
(0.0266078 -8.74443e-07 0)
(0.0266154 -1.00564e-06 0)
(0.026624 -1.12247e-06 0)
(0.0266334 -1.22151e-06 0)
(0.0266434 -1.30108e-06 0)
(0.0266539 -1.35712e-06 0)
(0.0266647 -1.3893e-06 0)
(0.0266756 -1.3958e-06 0)
(0.0266864 -1.37803e-06 0)
(0.026697 -1.33566e-06 0)
(0.026707 -1.27072e-06 0)
(0.0267165 -1.18407e-06 0)
(0.0267251 -1.0783e-06 0)
(0.0267328 -9.5536e-07 0)
(0.0267395 -8.18269e-07 0)
(0.0267451 -6.6999e-07 0)
(0.0267494 -5.14159e-07 0)
(0.0267524 -3.55101e-07 0)
(0.0267543 -1.9717e-07 0)
(0.0267548 -3.55745e-08 0)
(0.026754 1.41573e-07 0)
(0.0267518 3.11237e-07 0)
(0.0267484 4.61361e-07 0)
(0.0267439 6.03217e-07 0)
(0.0267383 7.37489e-07 0)
(0.0267316 8.59253e-07 0)
(0.0267242 9.67948e-07 0)
(0.0267158 1.05883e-06 0)
(0.026707 1.13322e-06 0)
(0.0266976 1.18589e-06 0)
(0.026688 1.22066e-06 0)
(0.0266781 1.23167e-06 0)
(0.0266684 1.22747e-06 0)
(0.0266587 1.20252e-06 0)
(0.0266495 1.17468e-06 0)
(0.0266402 1.13214e-06 0)
(0.0266318 1.09819e-06 0)
(0.0266231 9.89268e-07 0)
(0.0266164 9.18569e-07 0)
(0.0269526 6.20909e-07 0)
(0.0269436 1.05099e-06 0)
(0.0269385 7.18657e-07 0)
(0.0269342 5.39605e-07 0)
(0.0269319 3.22012e-07 0)
(0.0269307 1.4276e-07 0)
(0.026931 -4.91385e-08 0)
(0.0269325 -2.26414e-07 0)
(0.0269354 -4.22446e-07 0)
(0.0269396 -6.12698e-07 0)
(0.0269451 -7.90597e-07 0)
(0.0269519 -9.50133e-07 0)
(0.0269595 -1.09158e-06 0)
(0.0269683 -1.21755e-06 0)
(0.0269777 -1.32424e-06 0)
(0.0269879 -1.40987e-06 0)
(0.0269984 -1.46999e-06 0)
(0.0270094 -1.50432e-06 0)
(0.0270204 -1.51085e-06 0)
(0.0270313 -1.49114e-06 0)
(0.027042 -1.44481e-06 0)
(0.0270522 -1.37409e-06 0)
(0.0270617 -1.27989e-06 0)
(0.0270704 -1.16504e-06 0)
(0.0270782 -1.03163e-06 0)
(0.027085 -8.82939e-07 0)
(0.0270905 -7.22157e-07 0)
(0.0270949 -5.53232e-07 0)
(0.027098 -3.80817e-07 0)
(0.0270998 -2.09371e-07 0)
(0.0271003 -3.42036e-08 0)
(0.0270995 1.57196e-07 0)
(0.0270973 3.40809e-07 0)
(0.0270939 5.0358e-07 0)
(0.0270893 6.57159e-07 0)
(0.0270836 8.02475e-07 0)
(0.0270768 9.34168e-07 0)
(0.0270693 1.05168e-06 0)
(0.0270609 1.14982e-06 0)
(0.0270519 1.23007e-06 0)
(0.0270424 1.28671e-06 0)
(0.0270327 1.32396e-06 0)
(0.0270226 1.33538e-06 0)
(0.0270129 1.3304e-06 0)
(0.027003 1.30289e-06 0)
(0.0269937 1.27244e-06 0)
(0.0269843 1.226e-06 0)
(0.0269758 1.18887e-06 0)
(0.0269671 1.07089e-06 0)
(0.0269603 9.94149e-07 0)
(0.0272896 7.1027e-07 0)
(0.0272806 1.12671e-06 0)
(0.0272754 7.69256e-07 0)
(0.0272711 5.75147e-07 0)
(0.0272688 3.40711e-07 0)
(0.0272676 1.47717e-07 0)
(0.0272679 -5.89325e-08 0)
(0.0272694 -2.50058e-07 0)
(0.0272723 -4.60741e-07 0)
(0.0272767 -6.6519e-07 0)
(0.0272822 -8.56402e-07 0)
(0.027289 -1.02788e-06 0)
(0.0272968 -1.17982e-06 0)
(0.0273056 -1.31514e-06 0)
(0.0273151 -1.42965e-06 0)
(0.0273254 -1.52147e-06 0)
(0.0273361 -1.58577e-06 0)
(0.0273472 -1.62229e-06 0)
(0.0273583 -1.62883e-06 0)
(0.0273693 -1.60712e-06 0)
(0.02738 -1.55672e-06 0)
(0.0273903 -1.48007e-06 0)
(0.0273999 -1.37813e-06 0)
(0.0274088 -1.25396e-06 0)
(0.0274166 -1.10981e-06 0)
(0.0274235 -9.49212e-07 0)
(0.0274291 -7.75602e-07 0)
(0.0274335 -5.93241e-07 0)
(0.0274366 -4.0711e-07 0)
(0.0274384 -2.21765e-07 0)
(0.0274389 -3.26692e-08 0)
(0.0274381 1.73313e-07 0)
(0.0274359 3.71239e-07 0)
(0.0274324 5.4701e-07 0)
(0.0274277 7.12631e-07 0)
(0.027422 8.69285e-07 0)
(0.0274151 1.01117e-06 0)
(0.0274075 1.13773e-06 0)
(0.027399 1.24331e-06 0)
(0.0273899 1.32958e-06 0)
(0.0273803 1.39028e-06 0)
(0.0273705 1.43005e-06 0)
(0.0273603 1.44189e-06 0)
(0.0273504 1.43607e-06 0)
(0.0273405 1.40591e-06 0)
(0.0273311 1.37272e-06 0)
(0.0273216 1.32221e-06 0)
(0.027313 1.28171e-06 0)
(0.0273042 1.15449e-06 0)
(0.0272973 1.07159e-06 0)
(0.0276213 8.01365e-07 0)
(0.0276123 1.20402e-06 0)
(0.027607 8.21149e-07 0)
(0.0276027 6.11553e-07 0)
(0.0276003 3.59833e-07 0)
(0.0275991 1.52677e-07 0)
(0.0275994 -6.91521e-08 0)
(0.027601 -2.74516e-07 0)
(0.0276039 -5.00181e-07 0)