/*--------------------------------*- C++ -*----------------------------------*\
  =========                 |
  \\      /  F ield         | OpenFOAM: The Open Source CFD Toolbox
   \\    /   O peration     | Website:  https://openfoam.org
    \\  /    A nd           | Version:  13
     \\/     M anipulation  |
\*---------------------------------------------------------------------------*/
FoamFile
{
    format      ascii;
    class       volVectorField;
    location    "4000";
    object      wallShearStress;
}
// * * * * * * * * * * * * * * * * * * * * * * * * * * * * * * * * * * * * * //

dimensions      [0 2 -2 0 0 0 0];

internalField   uniform (0 0 0);

boundaryField
{
    movingWall
    {
        type            calculated;
        value           nonuniform List<vector> 
50
(
(0.12008 -1.33923e-07 0)
(0.120052 -1.72354e-07 0)
(0.120014 -2.05329e-07 0)
(0.119968 -2.38327e-07 0)
(0.11991 -2.76825e-07 0)
(0.119842 -3.06989e-07 0)
(0.119765 -3.36171e-07 0)
(0.119679 -3.57475e-07 0)
(0.119588 -3.76466e-07 0)
(0.11949 -3.89675e-07 0)
(0.119387 -3.99193e-07 0)
(0.119282 -4.02397e-07 0)
(0.119174 -3.99946e-07 0)
(0.119066 -3.90783e-07 0)
(0.11896 -3.73837e-07 0)
(0.118857 -3.51254e-07 0)
(0.11876 -3.18719e-07 0)
(0.118669 -2.80068e-07 0)
(0.118591 -2.28686e-07 0)
(0.118522 -1.96879e-07 0)
(0.118462 -1.41339e-07 0)
(0.118417 -8.28915e-08 0)
(0.118387 -2.25219e-08 0)
(0.118372 4.47289e-08 0)
(0.118376 9.74052e-08 0)
(0.118392 1.60633e-07 0)
(0.118427 2.2614e-07 0)
(0.118477 2.735e-07 0)
(0.11854 3.18862e-07 0)
(0.118617 3.57567e-07 0)
(0.118705 3.87619e-07 0)
(0.118802 4.06859e-07 0)
(0.118905 4.19792e-07 0)
(0.119012 4.22888e-07 0)
(0.119122 4.20823e-07 0)
(0.119233 4.08653e-07 0)
(0.119342 3.93968e-07 0)
(0.119448 3.68873e-07 0)
(0.11955 3.45941e-07 0)
(0.119646 3.11586e-07 0)
(0.119735 2.8492e-07 0)
(0.119817 2.43122e-07 0)
(0.11989 2.15174e-07 0)
(0.119955 1.58932e-07 0)
(0.120005 1.15422e-07 0)
(0.120045 7.59421e-08 0)
(0.120075 4.24314e-08 0)
(0.120095 -1.73898e-08 0)
(0.1201 -5.02187e-08 0)
(0.120095 -8.50549e-08 0)
)
;
    }
    bottomWall
    {
        type            calculated;
        value           nonuniform List<vector> 
50
(
(-0.000549558 1.64321e-07 0)
(-0.000549383 2.43311e-10 0)
(-0.000549237 1.75132e-10 0)
(-0.000549073 1.56249e-10 0)
(-0.000548937 1.02912e-10 0)
(-0.000548824 6.2675e-11 0)
(-0.000548745 1.6148e-11 0)
(-0.00054869 -2.53796e-11 0)
(-0.000548661 -6.86611e-11 0)
(-0.000548655 -1.11656e-10 0)
(-0.000548672 -1.51097e-10 0)
(-0.000548709 -1.87426e-10 0)
(-0.000548765 -2.17674e-10 0)
(-0.000548838 -2.4723e-10 0)
(-0.000548927 -2.70298e-10 0)
(-0.000549031 -2.91442e-10 0)
(-0.000549146 -3.04734e-10 0)
(-0.000549272 -3.14843e-10 0)
(-0.000549405 -3.17553e-10 0)
(-0.000549544 -3.15948e-10 0)
(-0.000549686 -3.07999e-10 0)
(-0.000549828 -2.95388e-10 0)
(-0.000549969 -2.7772e-10 0)
(-0.000550105 -2.55466e-10 0)
(-0.000550235 -2.29832e-10 0)
(-0.000550358 -1.99924e-10 0)
(-0.000550469 -1.68693e-10 0)
(-0.00055057 -1.33754e-10 0)
(-0.000550657 -1.00177e-10 0)
(-0.000550731 -6.41958e-11 0)
(-0.000550791 -2.95825e-11 0)
(-0.000550837 1.15131e-11 0)
(-0.000550863 4.98781e-11 0)
(-0.000550874 8.59802e-11 0)
(-0.000550869 1.16488e-10 0)
(-0.000550849 1.51096e-10 0)
(-0.000550812 1.77337e-10 0)
(-0.000550762 2.08308e-10 0)
(-0.000550697 2.26699e-10 0)
(-0.000550622 2.52367e-10 0)
(-0.000550532 2.60073e-10 0)
(-0.000550437 2.7995e-10 0)
(-0.000550331 2.74708e-10 0)
(-0.000550224 2.88812e-10 0)
(-0.00055011 2.68385e-10 0)
(-0.000550005 2.78342e-10 0)
(-0.000549899 2.42582e-10 0)
(-0.000549813 2.5687e-10 0)
(-0.000549724 1.97614e-10 0)
(-0.000549655 2.34053e-10 0)
)
;
    }
    cyc_half0
    {
        type            cyclic;
    }
    cyc_half1
    {
        type            cyclic;
    }
    frontAndBack
    {
        type            empty;
    }
}


// ************************************************************************* //
