/*--------------------------------*- C++ -*----------------------------------*\
  =========                 |
  \\      /  F ield         | OpenFOAM: The Open Source CFD Toolbox
   \\    /   O peration     | Website:  https://openfoam.org
    \\  /    A nd           | Version:  13
     \\/     M anipulation  |
\*---------------------------------------------------------------------------*/
FoamFile
{
    format      ascii;
    class       volScalarField;
    location    "43.000211";
    object      pMean;
}
// * * * * * * * * * * * * * * * * * * * * * * * * * * * * * * * * * * * * * //

dimensions      [0 2 -2 0 0 0 0];

internalField   nonuniform List<scalar> 
17140
(
0.92549074
0.92541824
0.92533076
0.92524169
0.9251455
0.92504082
0.92492756
0.92480553
0.92467449
0.92453425
0.92438468
0.92422558
0.92405661
0.92387714
0.92368597
0.923481
0.92325871
0.92301355
0.92273707
0.92241687
0.92203526
0.92156765
0.92098006
0.92022613
0.91925172
0.91801152
0.91647693
0.91461526
0.91236853
0.9096609
0.90640846
0.90251669
0.89788222
0.89239578
0.88594581
0.87842309
0.86972656
0.85977092
0.84849855
0.83589751
0.82202347
0.80702747
0.79119578
0.77497573
0.75900225
0.74409692
0.73109252
0.7208292
0.71414532
0.71172428
0.71403161
0.72133471
0.73376584
0.75104862
0.77288475
0.79822348
0.82661536
0.85604341
0.88740063
0.91673598
0.94895667
0.97483915
1.0065724
1.0207445
1.0477731
0.92434146
0.92427033
0.92418453
0.92409719
0.92400286
0.92390012
0.92378894
0.92366915
0.92354051
0.92340287
0.92325608
0.92309998
0.92293426
0.92275834
0.92257107
0.92237042
0.92215298
0.9219133
0.92164305
0.92132998
0.92095657
0.92049841
0.9199218
0.91918071
0.91822066
0.91699541
0.91547642
0.91363146
0.9114024
0.90871295
0.90547892
0.9016056
0.89698916
0.89151979
0.88508528
0.87757571
0.86888923
0.85893962
0.84766833
0.83506237
0.82117641
0.8061609
0.79030117
0.77404682
0.75804168
0.74308875
0.73003366
0.71974858
0.71304908
0.71060411
0.71289484
0.72019066
0.73260775
0.74988425
0.77172433
0.79707554
0.82550557
0.85499866
0.88642742
0.91578112
0.94780668
0.97338687
1.0048601
1.0189926
1.0465641
0.9215201
0.92145241
0.92137093
0.92128775
0.92119782
0.92109983
0.92099378
0.92087951
0.92075675
0.92062538
0.92048533
0.9203365
0.92017865
0.92001129
0.91983343
0.91964322
0.91943746
0.91921097
0.91895574
0.91865987
0.91830624
0.9178709
0.91732079
0.91661074
0.91568558
0.91449697
0.91301546
0.91120936
0.90902131
0.9063747
0.90318437
0.89935507
0.89478197
0.88935396
0.88295728
0.87548025
0.86681899
0.8568851
0.84561784
0.83300199
0.81909023
0.80403247
0.78811466
0.77179457
0.75572348
0.7406882
0.72754965
0.71719725
0.71045193
0.70797621
0.71023229
0.71747931
0.72984166
0.7470643
0.7688462
0.7941431
0.82253079
0.85200007
0.88341556
0.91279491
0.94480404
0.97033608
1.0019225
1.0163253
1.0447371
0.91707969
0.91701753
0.91694293
0.91686627
0.91678331
0.91669291
0.91659503
0.91648947
0.91637603
0.91625463
0.91612529
0.91598795
0.91584252
0.91568865
0.91552556
0.91535167
0.91516412
0.91495815
0.91472623
0.91445701
0.91413402
0.91373401
0.91322493
0.91256295
0.91169241
0.91056188
0.90913912
0.90739297
0.90526843
0.90268879
0.89956707
0.89580726
0.89130304
0.88594137
0.87960607
0.87218274
0.86356444
0.85365948
0.84240366
0.82977839
0.8158339
0.8007195
0.78472286
0.76831344
0.75214912
0.73700279
0.72376054
0.7133221
0.70651479
0.70399517
0.7062067
0.71338756
0.72565874
0.74277373
0.76443059
0.78957611
0.8178075
0.84716882
0.87851258
0.90790617
0.94005252
0.96593851
0.99804812
1.0131136
1.0425136
0.91116298
0.91110828
0.91104293
0.91097514
0.91090165
0.91082151
0.9107346
0.9106408
0.91053997
0.91043209
0.91031719
0.91019533
0.91006655
0.90993071
0.90978728
0.90963501
0.90947147
0.90929243
0.909091
0.90885657
0.90857351
0.90821955
0.90776392
0.90716459
0.90636638
0.90531401
0.90396972
0.90230264
0.90026205
0.89777152
0.89474167
0.89107543
0.88666469
0.88139392
0.87514399
0.86779698
0.85924193
0.84938289
0.83815127
0.82552416
0.81154882
0.79637385
0.78029137
0.76378507
0.74751156
0.73224716
0.71889919
0.70837335
0.70151174
0.69895657
0.70112726
0.70823718
0.72040433
0.73738341
0.75886495
0.78379429
0.8118284
0.84104774
0.87233388
0.90188423
0.93432012
0.96086963
0.99375955
1.0097041
1.0400871
0.90400643
0.90396089
0.90390688
0.90385002
0.90378824
0.90372075
0.90364746
0.90356823
0.90348299
0.90339175
0.90329463
0.90319178
0.90308339
0.90296949
0.90284983
0.90272354
0.90258865
0.90244155
0.90227606
0.90208248
0.90184621
0.90154621
0.90115316
0.9006272
0.89991556
0.89895869
0.89770964
0.89613736
0.8941975
0.89181442
0.88889646
0.88534502
0.88105009
0.87589337
0.86975228
0.86250482
0.85403541
0.84424298
0.8330536
0.82043925
0.80644373
0.79121525
0.77505279
0.75845476
0.74207332
0.72670362
0.71326167
0.70266161
0.6957607
0.69319056
0.69534101
0.70239738
0.71446908
0.73130108
0.75257768
0.77724967
0.80502992
0.83409837
0.86538239
0.89529072
0.92828461
0.95579227
0.9896289
1.0064547
1.0377327
0.89593044
0.89589534
0.89585376
0.8958096
0.89576142
0.89570864
0.89565116
0.89558886
0.89552173
0.89544982
0.89537329
0.89529239
0.8952074
0.89511855
0.89502583
0.8949287
0.89482569
0.89471378
0.89458761
0.89443841
0.89425277
0.89401105
0.89368563
0.89323895
0.89262134
0.89177153
0.890633
0.88916914
0.88734048
0.88507705
0.88228634
0.87886657
0.87470595
0.86968346
0.86367294
0.85654804
0.84818805
0.83848618
0.82736241
0.81478311
0.80078838
0.78552668
0.76930624
0.75263588
0.7361695
0.72072045
0.70720094
0.6965407
0.68961458
0.6870472
0.68919953
0.69622948
0.70823131
0.72494338
0.74603939
0.77048216
0.79803204
0.82700702
0.85840608
0.88888545
0.92271276
0.95140138
0.98605809
1.0036165
1.0353466
0.88732332
0.88729965
0.88727146
0.88724128
0.88720815
0.88717163
0.88713163
0.88708809
0.887041
0.88699046
0.88693665
0.88687988
0.88682051
0.88675886
0.88669512
0.88662902
0.8865595
0.88648411
0.88639824
0.88629408
0.88615943
0.88597617
0.88571854
0.88535133
0.88482809
0.88409028
0.88307354
0.88172699
0.88001381
0.87787569
0.87522085
0.87194383
0.86793114
0.86305902
0.85719797
0.85021727
0.84199092
0.83240609
0.82137625
0.80886194
0.79489944
0.77963872
0.76339868
0.74668963
0.73017618
0.71468004
0.70109956
0.69038469
0.68343641
0.68088443
0.68306227
0.69009233
0.70205749
0.71869128
0.73966148
0.76395385
0.79137995
0.82037977
0.85208678
0.88332678
0.91817919
0.94809515
0.98327381
1.0013502
1.0332456
0.87861777
0.87860609
0.87859196
0.87857653
0.87855927
0.87853994
0.87851846
0.8784948
0.87846898
0.8784411
0.87841136
0.87838006
0.87834757
0.87831428
0.87828043
0.87824594
0.87821001
0.87817062
0.87812379
0.8780626
0.87797599
0.87784732
0.87765278
0.87735957
0.87692434
0.8762922
0.8753986
0.87417896
0.87258397
0.87056669
0.86804788
0.86491796
0.86105992
0.85634884
0.85065217
0.84383509
0.83576645
0.8263274
0.81542503
0.80301415
0.78912771
0.77391777
0.75771269
0.74101925
0.72451556
0.70901497
0.69539743
0.68463885
0.67767653
0.67514529
0.67735088
0.68439821
0.6963657
0.7129696
0.73387678
0.7580992
0.78552186
0.8147396
0.84698962
0.87942542
0.91546679
0.94639831
0.98170995
0.99993451
1.031169
0.87026026
0.87026058
0.87026055
0.87025995
0.87025871
0.87025677
0.87025409
0.87025063
0.87024645
0.87024164
0.87023639
0.87023096
0.87022568
0.87022087
0.87021675
0.87021327
0.87020973
0.87020434
0.87019355
0.87017111
0.87012692
0.87004569
0.8699054
0.86967567
0.86931616
0.86877555
0.86799216
0.86689846
0.86542906
0.86352733
0.86113026
0.85814286
0.85444275
0.84989923
0.84437774
0.83774067
0.82985283
0.82059049
0.80985527
0.79759725
0.78384703
0.76875914
0.75266572
0.73607145
0.71965968
0.70422004
0.69062056
0.67986365
0.67291015
0.67039774
0.67263883
0.67973036
0.69172564
0.70833096
0.72922021
0.75348786
0.78109697
0.81091319
0.84418251
0.87784013
0.91470713
0.94608497
0.98073743
0.99877944
1.0291384
0.86267359
0.86268533
0.86269874
0.86271233
0.86272649
0.86274131
0.86275679
0.86277294
0.86278982
0.86280751
0.86282618
0.86284601
0.86286723
0.86289004
0.86291454
0.86294054
0.86296726
0.86299293
0.86301417
0.86302512
0.86301638
0.86297372
0.86287664
0.86269689
0.86239698
0.86192909
0.86123483
0.86024765
0.85889821
0.85711909
0.85483951
0.85197468
0.84841794
0.84404065
0.83870214
0.83226157
0.82458097
0.81553281
0.80501546
0.79297607
0.7794446
0.76457789
0.74870007
0.73232029
0.71611965
0.70085363
0.68738358
0.6767128
0.66980853
0.66733823
0.66960414
0.6766855
0.68867359
0.7052845
0.72622074
0.75066623
0.77870525
0.80930527
0.84353957
0.87813005
0.91529655
0.94648412
0.98045844
0.99834325
1.0271896
0.85621845
0.85624037
0.8562658
0.85629216
0.85632022
0.85635027
0.85638233
0.85641646
0.85645275
0.85649129
0.85653219
0.85657558
0.85662156
0.85667018
0.85672133
0.85677459
0.85682895
0.85688246
0.85693166
0.85697078
0.85699077
0.85697808
0.85691337
0.85677006
0.85651307
0.85609784
0.85546966
0.85456406
0.85331125
0.85163998
0.84947577
0.84673497
0.84331511
0.83909544
0.83394084
0.8277109
0.82026635
0.81147832
0.80124268
0.78950586
0.77629765
0.76177492
0.74625457
0.73024326
0.71439831
0.69945376
0.68625742
0.67578376
0.66900179
0.66652961
0.66870898
0.67568424
0.68758519
0.70416009
0.72516529
0.7498889
0.77845645
0.80985724
0.84488897
0.88003319
0.91715214
0.94813022
0.98082909
0.99848956
1.0255918
0.85115503
0.85118524
0.85122052
0.8512574
0.85129701
0.85133979
0.85138583
0.85143524
0.85148815
0.8515447
0.85160497
0.85166905
0.85173695
0.85180857
0.85188359
0.85196136
0.8520406
0.85211907
0.85219307
0.85225672
0.85230104
0.85231283
0.85227341
0.85215738
0.85193148
0.85155359
0.85097259
0.85012862
0.84895217
0.84736824
0.84530519
0.84268114
0.83939705
0.83534029
0.83038086
0.82438219
0.81720707
0.80872958
0.79885132
0.78751585
0.77475245
0.76071415
0.74571388
0.73024021
0.71491297
0.70044232
0.68765984
0.67750433
0.67082713
0.66828616
0.67029117
0.67709021
0.68883306
0.70534741
0.72645512
0.75148823
0.78069016
0.81282203
0.84850271
0.8837514
0.92031838
0.95020043
0.98174669
0.9987752
1.0239085
0.84761362
0.84764967
0.84769194
0.8477364
0.84778442
0.84783659
0.84789306
0.84795403
0.8480197
0.84809025
0.84816581
0.84824648
0.84833223
0.84842289
0.84851803
0.84861682
0.84871779
0.84881848
0.84891498
0.84900127
0.84906836
0.84910322
0.84908761
0.84899682
0.84879865
0.84845276
0.84791021
0.84711399
0.84600041
0.8445018
0.84251777
0.84000308
0.83685972
0.83297367
0.82822554
0.82248837
0.81563419
0.80754059
0.79810221
0.78727469
0.77508749
0.76168457
0.74736376
0.73258251
0.71792699
0.70407119
0.69181978
0.68198061
0.67539091
0.67275039
0.67453416
0.68108126
0.69263839
0.70910216
0.73029533
0.75570025
0.78538907
0.81824482
0.85397471
0.88888725
0.92408653
0.95314501
0.9827363
0.9990508
1.0224979
0.84557138
0.84561046
0.84565654
0.84570514
0.84575787
0.84581545
0.84587811
0.84594612
0.84601978
0.84609936
0.84618507
0.84627708
0.84637543
0.84647998
0.84659034
0.84670567
0.84682449
0.84694436
0.8470614
0.84716966
0.84726038
0.8473209
0.84733347
0.84727414
0.84711157
0.84680627
0.84631089
0.84557075
0.8445233
0.84310357
0.84126436
0.83886779
0.83582766
0.83213246
0.82762727
0.82219281
0.81570561
0.80805267
0.79914498
0.78894205
0.77746255
0.76484056
0.75134575
0.73739309
0.7235282
0.71039172
0.69866573
0.68912914
0.68262421
0.67983681
0.68136424
0.68765713
0.69903552
0.71541774
0.73666816
0.76241048
0.79273734
0.82574042
0.86107461
0.89491913
0.92878012
0.9560434
0.98394814
0.99930572
1.0212045
0.84487621
0.84491549
0.84496219
0.84501133
0.84506487
0.84512363
0.84518789
0.84525802
0.8453344
0.84541741
0.84550739
0.84560464
0.84570933
0.84582151
0.84594093
0.84606698
0.84619844
0.84633319
0.84646777
0.84659679
0.84671221
0.84680234
0.84685059
0.84683417
0.84672296
0.8464787
0.84605479
0.8453968
0.8444434
0.84313014
0.84139256
0.83913052
0.83632687
0.8328347
0.82857053
0.82347841
0.81742399
0.810303
0.80203581
0.79256838
0.7819215
0.77020816
0.75765786
0.74464013
0.73164565
0.71922015
0.70799965
0.69875904
0.69228393
0.68935533
0.69064648
0.69672194
0.7079223
0.72414809
0.745562
0.77181544
0.80225325
0.83486672
0.86924684
0.90170505
0.93350803
0.9591433
0.98517312
0.9997127
1.0202813
0.84524836
0.84528531
0.84532968
0.84537608
0.84542685
0.84548284
0.84554438
0.8456119
0.84568587
0.84576677
0.84585506
0.8459512
0.84605556
0.84616839
0.84628978
0.84641945
0.84655668
0.84669994
0.8468466
0.84699236
0.84713047
0.84725091
0.84733925
0.8473751
0.84733068
0.84716978
0.84684661
0.84630673
0.8454894
0.84432917
0.84275539
0.84072053
0.83813376
0.83491316
0.83102986
0.82632975
0.82076767
0.81426197
0.80672285
0.79809727
0.78839214
0.77768767
0.76617306
0.75415433
0.74202747
0.7302927
0.71956286
0.71054856
0.70410676
0.70105327
0.70216734
0.70804646
0.71898734
0.73526643
0.75703634
0.78332359
0.81330821
0.84535217
0.87809457
0.90866476
0.93842174
0.96218944
0.98660378
1.0003323
1.0197065
0.84637128
0.84640388
0.84644334
0.8464844
0.84652951
0.8465795
0.84663472
0.84669563
0.84676277
0.84683667
0.84691792
0.84700709
0.84710475
0.84721141
0.84732746
0.8474531
0.84758818
0.84773199
0.84788299
0.84803834
0.84819327
0.84834024
0.84846794
0.84855988
0.84859288
0.84853497
0.84834491
0.84797135
0.84735339
0.84642441
0.84511176
0.84335253
0.84107905
0.83823713
0.83473464
0.83055033
0.82562205
0.81980422
0.81307633
0.80538346
0.7967063
0.78709052
0.77666517
0.76565016
0.75438083
0.74331351
0.73300604
0.72420449
0.71779632
0.71467066
0.71560782
0.72124519
0.73219702
0.74874262
0.77043608
0.79632972
0.82590865
0.85632552
0.88720198
0.91567676
0.94319729
0.96541546
0.98828652
1.0012438
1.0195754
0.84790764
0.84793463
0.84796745
0.84800154
0.84803915
0.84808103
0.84812753
0.84817911
0.8482363
0.84829968
0.84836988
0.84844756
0.84853341
0.84862814
0.84873243
0.84884687
0.84897186
0.84910752
0.84925339
0.84940817
0.84956925
0.84973199
0.84988884
0.85002818
0.85013281
0.85017842
0.85013116
0.84994651
0.84956932
0.84893463
0.84797029
0.84660521
0.844767
0.8424045
0.83945937
0.83588482
0.83161208
0.82662648
0.8208501
0.81418521
0.80661792
0.79814538
0.78882753
0.77881642
0.76838165
0.75791849
0.74800111
0.73937504
0.73302428
0.72975989
0.73056341
0.73618937
0.74736547
0.76380392
0.78520385
0.81087575
0.83898824
0.86755873
0.89629239
0.92244214
0.94813422
0.96881416
0.99028625
1.0024805
1.0198747
0.84958379
0.84960471
0.84963003
0.84965662
0.84968607
0.84971901
0.84975577
0.84979677
0.84984252
0.84989356
0.84995051
0.85001405
0.85008493
0.85016393
0.8502519
0.8503497
0.85045814
0.85057793
0.85070953
0.85085292
0.85100736
0.85117089
0.85133969
0.85150715
0.85166273
0.85179039
0.85186695
0.85185999
0.85172625
0.85141118
0.85085005
0.8499716
0.84870329
0.84697879
0.84473869
0.84193708
0.83853872
0.83450988
0.82975401
0.82421225
0.81782265
0.81052719
0.80233063
0.79330162
0.7836424
0.77373384
0.76413387
0.75568384
0.74926797
0.74595845
0.74676982
0.7526444
0.7638009
0.78004455
0.80145049
0.8259728
0.85215948
0.87867412
0.90500983
0.92929804
0.95317511
0.97245294
0.99262523
1.0040779
1.0206398
0.8511925
0.85120767
0.85122595
0.85124539
0.85126704
0.85129136
0.85131863
0.85134922
0.85138357
0.85142215
0.85146553
0.85151432
0.85156923
0.85163105
0.85170066
0.851779
0.85186712
0.85196606
0.85207684
0.85220032
0.85233708
0.85248714
0.85264959
0.85282207
0.85299998
0.85317537
0.85333558
0.85346216
0.85352862
0.8534988
0.85332596
0.8529531
0.85231623
0.8513478
0.8499838
0.84816328
0.84582168
0.84290384
0.83933993
0.83504829
0.82991571
0.82384226
0.8167578
0.80865894
0.79970845
0.79025493
0.78091041
0.77250327
0.76610667
0.76289015
0.76400283
0.77002757
0.78109648
0.79760283
0.81823347
0.84085877
0.86520071
0.88937455
0.91373216
0.93614731
0.95839988
0.97635145
0.99532531
1.0060474
1.0218604
0.8526286
0.85263887
0.85265118
0.85266449
0.85267938
0.85269617
0.8527151
0.85273646
0.85276057
0.85278785
0.85281876
0.85285387
0.85289381
0.85293926
0.85299092
0.85304965
0.85311646
0.85319248
0.85327882
0.85337671
0.85348757
0.85361282
0.85375345
0.85390987
0.85408173
0.85426739
0.85446338
0.8546635
0.85485767
0.85503061
0.85516006
0.85521528
0.85515658
0.85493362
0.85448617
0.85374517
0.85263078
0.85104988
0.84888891
0.84601582
0.84226663
0.83746969
0.83148969
0.82426162
0.81591335
0.80679618
0.79757657
0.78926331
0.78301433
0.78018185
0.78165091
0.7877977
0.79948974
0.81560238
0.83446851
0.85556692
0.87773312
0.89990205
0.92233625
0.94308647
0.96382412
0.98052704
0.99839907
1.0084086
1.0235502
0.85385319
0.85385946
0.85386701
0.85387522
0.85388445
0.85389491
0.85390677
0.85392022
0.85393549
0.85395297
0.85397309
0.85399603
0.85402189
0.85405108
0.85408462
0.85412373
0.85416957
0.85422335
0.85428621
0.85435899
0.85444225
0.85453745
0.8546472
0.85477413
0.85492072
0.85508969
0.8552839
0.85550596
0.85575869
0.85604418
0.856363
0.85671459
0.85709271
0.85748166
0.85784945
0.85814019
0.85826487
0.85809195
0.85745276
0.85613851
0.85388325
0.85043526
0.84555068
0.83916549
0.83131581
0.82246073
0.8134326
0.80530167
0.79950174
0.79733197
0.79919213
0.80641719
0.81815749
0.8330162
0.8504013
0.8697153
0.88984347
0.91019063
0.93093233
0.95012765
0.96946645
0.98499908
1.0018481
1.0111655
1.0257034
0.85491298
0.85491576
0.85491913
0.85492282
0.85492701
0.85493182
0.85493738
0.85494383
0.85495133
0.85496007
0.85497021
0.85498187
0.85499543
0.85501157
0.85503107
0.85505458
0.85508233
0.85511467
0.85515271
0.85519837
0.85525357
0.85531918
0.85539674
0.85548906
0.8556002
0.85573668
0.85590598
0.85611553
0.85637547
0.85669983
0.857106
0.85761827
0.8582607
0.85904978
0.85999558
0.86108164
0.86223798
0.86332688
0.8641276
0.86432761
0.86356283
0.86144866
0.85768419
0.8520627
0.84472394
0.83624587
0.82748611
0.82007313
0.81545758
0.81403943
0.81740904
0.82513956
0.83598167
0.84964053
0.86586555
0.88304116
0.90159598
0.920337
0.93952049
0.95728937
0.9753359
0.98976982
1.0056766
1.0143223
1.0283136
0.85584406
0.85584298
0.85584173
0.85584041
0.85583899
0.85583765
0.85583653
0.85583566
0.85583512
0.85583497
0.85583543
0.85583716
0.8558402
0.855843
0.85584499
0.85584773
0.85585285
0.85586206
0.85587764
0.855901
0.85593247
0.85597181
0.85602
0.85608159
0.85616226
0.85626824
0.85640859
0.85659545
0.85684466
0.85717592
0.85761514
0.85819852
0.8589672
0.85996422
0.86123593
0.86279591
0.86461148
0.86655688
0.86842164
0.86983685
0.87034972
0.86943803
0.86669122
0.86189088
0.85518216
0.8473854
0.83988411
0.83429315
0.83073693
0.83117786
0.83548978
0.8427138
0.85283939
0.86557591
0.88006462
0.89599175
0.91308419
0.93035287
0.94813107
0.96458376
0.98143922
0.99484578
1.009881
1.0178778
1.0313797
0.85666812
0.85666245
0.85665578
0.85664878
0.85664121
0.85663294
0.85662402
0.85661459
0.85660472
0.85659438
0.85658362
0.85657253
0.85656113
0.85654954
0.85653807
0.8565272
0.85651787
0.85651131
0.85650828
0.8565103
0.85652037
0.85654001
0.85656938
0.8566117
0.85667273
0.8567586
0.8568778
0.85704337
0.85727423
0.85759387
0.85803047
0.85861973
0.85940815
0.86045365
0.8618175
0.86354107
0.86564424
0.86803697
0.87051028
0.87271552
0.87410652
0.87410917
0.87221998
0.86825305
0.8628558
0.85694022
0.85167313
0.84738578
0.84596609
0.8477816
0.85189094
0.85916125
0.86876844
0.88038921
0.89385659
0.90851638
0.92430966
0.94027407
0.95677466
0.97202006
0.98778054
1.0002272
1.0144583
1.0218313
1.0348942
0.85719144
0.85718132
0.85716942
0.85715688
0.85714321
0.85712798
0.85711094
0.85709262
0.85707405
0.85705526
0.8570357
0.85701525
0.85699405
0.85697214
0.85694955
0.85692655
0.85690366
0.85688151
0.85686134
0.85684541
0.85683653
0.85683743
0.85684978
0.856875
0.85691923
0.85699283
0.85710399
0.85726059
0.8574776
0.85778389
0.85820926
0.85878277
0.85955639
0.86058703
0.86194266
0.86368439
0.865813
0.86830184
0.87094925
0.87341712
0.87520054
0.87580674
0.87497168
0.87266276
0.86932358
0.865662
0.86210928
0.86007777
0.86062884
0.86264047
0.86739123
0.87445585
0.88367312
0.89452808
0.90704225
0.92066699
0.93533376
0.95012175
0.96546839
0.97960776
0.9943622
1.005914
1.0194021
1.0261765
1.0388494
0.85721912
0.85720629
0.85719121
0.85717528
0.85715805
0.85713929
0.85711894
0.85709688
0.85707315
0.85704785
0.85702109
0.856993
0.85696376
0.85693368
0.85690319
0.85687284
0.8568434
0.85681586
0.85679131
0.85677112
0.85675805
0.85675692
0.85677027
0.85679604
0.85683695
0.85690426
0.85700834
0.85715816
0.85736756
0.85765046
0.85803635
0.8585677
0.85928533
0.86023918
0.86147321
0.86304535
0.8650117
0.86734543
0.86992659
0.87248841
0.8747116
0.87625596
0.87678483
0.87626698
0.87508733
0.87331517
0.87190523
0.87229916
0.87357284
0.87663702
0.88197242
0.8889068
0.89770538
0.90802124
0.91979706
0.93251499
0.9461821
0.95992069
0.9742261
0.98735431
1.001185
1.0119053
1.0247085
1.0309175
1.0432387
0.85643786
0.8564257
0.8564114
0.85639631
0.85637997
0.8563622
0.85634297
0.85632226
0.85630007
0.85627643
0.85625142
0.85622519
0.85619793
0.85616993
0.85614163
0.85611361
0.85608659
0.85606132
0.85603906
0.85602202
0.85601221
0.85601118
0.85602148
0.8560464
0.85609062
0.85616153
0.85626472
0.85640419
0.85659449
0.8568687
0.85724304
0.85773119
0.85837701
0.85922901
0.8603566
0.86180828
0.8636238
0.86583005
0.86837748
0.87115694
0.8739312
0.8764261
0.8783572
0.87970651
0.88026815
0.88038538
0.88156358
0.88324834
0.88564041
0.88983224
0.89539191
0.90246644
0.91110248
0.92100261
0.93215043
0.94409563
0.95689325
0.96969502
0.98306209
0.99526674
1.0082513
1.0181996
1.0303708
1.0360452
1.0480443
0.85496976
0.85496069
0.85495004
0.8549388
0.85492665
0.85491347
0.85489924
0.85488396
0.85486765
0.85485037
0.85483221
0.8548133
0.85479388
0.8547743
0.854755
0.8547366
0.85471986
0.85470578
0.85469569
0.85469115
0.85469384
0.85470616
0.8547314
0.85477296
0.8548314
0.85490973
0.85501895
0.8551796
0.85539612
0.85566487
0.85601596
0.85649514
0.85713831
0.85796989
0.85903522
0.86042203
0.86219699
0.86440411
0.86707984
0.87019869
0.87363575
0.87713083
0.88045597
0.88317054
0.88520975
0.88773619
0.89051979
0.89331935
0.89716932
0.90205143
0.90814076
0.91542082
0.92395154
0.93353905
0.94418409
0.95546796
0.96750279
0.97946861
0.99199079
1.0033537
1.015563
1.0247956
1.0363822
1.0415524
1.0532629
0.85290928
0.85290391
0.85289764
0.85289107
0.85288403
0.85287649
0.85286846
0.85286
0.85285117
0.8528421
0.85283294
0.85282391
0.85281527
0.85280741
0.85280093
0.85279659
0.85279534
0.85279837
0.85280715
0.85282351
0.85284984
0.85288878
0.85294063
0.85300842
0.85309568
0.85321407
0.85338104
0.85359126
0.85385593
0.85420147
0.85463152
0.85516861
0.85585575
0.85673804
0.8578697
0.85931899
0.86117311
0.86353606
0.86651558
0.87013626
0.87428942
0.87876558
0.88306964
0.88680116
0.89084575
0.89503728
0.89885558
0.90312271
0.90802942
0.91371795
0.92030808
0.92783171
0.93636019
0.94572547
0.95595867
0.96667723
0.9780463
0.98926575
1.0010284
1.0116195
1.0231191
1.0316869
1.0427394
1.0474196
1.0589092
0.85043013
0.85042755
0.85042462
0.85042166
0.85041864
0.8504156
0.85041262
0.85040983
0.85040737
0.85040545
0.85040435
0.85040443
0.85040616
0.85041014
0.85041716
0.8504282
0.85044449
0.85046759
0.85049949
0.85054234
0.85059778
0.85066848
0.85075956
0.85088096
0.85103973
0.85123672
0.85148275
0.8517847
0.85214656
0.85258941
0.85313467
0.85380344
0.85462427
0.85563366
0.8568966
0.85850692
0.86059034
0.86330539
0.86678293
0.87102458
0.87595243
0.88116006
0.88611255
0.89141629
0.89696537
0.90202332
0.90716116
0.91264697
0.91852646
0.92495431
0.93205972
0.93986418
0.94843717
0.95764256
0.96754194
0.97777566
0.98856006
0.99911092
1.0101879
1.0200711
1.0309242
1.038869
1.0494384
1.0536404
1.0649499
0.84743284
0.84743203
0.84743125
0.8474307
0.84743044
0.84743061
0.84743135
0.84743288
0.84743547
0.84743945
0.84744526
0.84745346
0.84746475
0.84748
0.84750032
0.84752709
0.84756201
0.84760722
0.84766526
0.84773874
0.84783183
0.84794985
0.8481006
0.84828887
0.8485179
0.84879648
0.84913437
0.84954273
0.85003361
0.85061985
0.85131783
0.85214565
0.85313443
0.85434258
0.85585433
0.85779345
0.86032698
0.86362721
0.8677566
0.87271566
0.87832622
0.88396567
0.89014807
0.89673586
0.90302533
0.90920913
0.91555613
0.9220413
0.9287961
0.93592637
0.9435293
0.95162114
0.96027638
0.96937202
0.97899711
0.9888112
0.99907963
1.0090289
1.0194854
1.0287179
1.038982
1.0463373
1.0564733
1.0602106
1.071368
0.84365816
0.84365922
0.84366076
0.8436628
0.84366555
0.84366923
0.84367409
0.84368046
0.84368873
0.84369941
0.84371314
0.8437307
0.84375307
0.84378148
0.8438174
0.8438627
0.84391961
0.84399086
0.84407973
0.84419034
0.84432811
0.84449774
0.84470555
0.84495908
0.84526607
0.8456366
0.84608087
0.84661039
0.84723704
0.84797313
0.84883656
0.84986139
0.85109784
0.85261945
0.85454616
0.85703769
0.86026242
0.86433066
0.86924293
0.87500148
0.88105287
0.88774085
0.89505155
0.90229392
0.9094857
0.91674613
0.92404014
0.93143289
0.93899019
0.94676664
0.95484244
0.96322046
0.97197524
0.98099255
0.99038757
0.9998331
1.0096407
1.0190446
1.0289351
1.0375687
1.0472889
1.0540995
1.0638322
1.0671255
1.0781568
0.8387098
0.83871415
0.83871969
0.83872612
0.83873388
0.8387433
0.83875474
0.83876867
0.83878566
0.8388064
0.83883175
0.83886278
0.83890077
0.83894729
0.83900426
0.83907401
0.83915933
0.8392636
0.8393908
0.83954567
0.83973372
0.83996139
0.84023625
0.84056651
0.84096215
0.84143356
0.84199059
0.8426456
0.84341583
0.84432501
0.84540511
0.84670468
0.84830085
0.85030857
0.85287667
0.85616303
0.86028466
0.86527109
0.87112007
0.87747547
0.88446155
0.89231553
0.90027156
0.90828733
0.91637544
0.92452704
0.93271745
0.94094079
0.94922659
0.95759857
0.96611446
0.97476357
0.98362209
0.99257941
1.001774
1.0108886
1.0202784
1.0291824
1.0385527
1.0466297
1.0558498
1.0621445
1.0715077
1.0743733
1.0852926
0.83219572
0.83220553
0.83221764
0.83223123
0.832247
0.83226549
0.83228721
0.83231276
0.83234293
0.83237863
0.83242099
0.83247136
0.83253138
0.83260302
0.83268862
0.83279099
0.83291345
0.83306
0.83323537
0.83344479
0.83369465
0.83399268
0.83434663
0.83476522
0.83525844
0.83583898
0.83652342
0.83733082
0.8382863
0.83942687
0.84080825
0.8425128
0.84465529
0.84737727
0.850826
0.85511221
0.86027612
0.8663139
0.87300355
0.88027016
0.88850962
0.89705854
0.90571784
0.91462854
0.92362122
0.93265558
0.94168126
0.9506691
0.95962266
0.96853754
0.97745463
0.98635114
0.9953046
1.0042062
1.0132161
1.0220247
1.0310273
1.0394668
1.0483511
1.0559143
1.064657
1.0704792
1.0794827
1.0819527
1.092746
0.82375925
0.82377696
0.82379854
0.82382235
0.82384952
0.82388081
0.8239169
0.8239586
0.8240069
0.82406299
0.82412828
0.82420445
0.82429348
0.82439782
0.82452016
0.82466316
0.82483116
0.82502996
0.82526422
0.82553869
0.82586002
0.82623683
0.82667941
0.82719881
0.82780798
0.82852368
0.8293681
0.83037206
0.83158
0.83305597
0.83489013
0.83720114
0.8401306
0.84381765
0.84836966
0.85382445
0.86017539
0.86725607
0.8749327
0.88356601
0.89269734
0.90201737
0.91165517
0.92146325
0.93134119
0.94121734
0.95102922
0.9607254
0.97028751
0.9796914
0.98896514
0.99807605
1.0071043
1.0159423
1.0247706
1.0332857
1.04192
1.0499215
1.0583475
1.0654259
1.0737182
1.0791002
1.0877494
1.0898244
1.1005428
0.81302702
0.81305514
0.81308914
0.81312631
0.81316834
0.81321628
0.81327092
0.81333328
0.81340451
0.81348578
0.81357817
0.81368331
0.81380715
0.81395417
0.81412192
0.81431293
0.81453461
0.8147923
0.81509186
0.81544017
0.8158449
0.81631522
0.81686304
0.81750341
0.81825583
0.81914696
0.82021415
0.82151025
0.82310928
0.82511122
0.82764199
0.83084447
0.83485699
0.83977675
0.84565091
0.85244747
0.86003542
0.86825274
0.87740037
0.88713481
0.89714644
0.90752101
0.91812822
0.92886273
0.93962361
0.95031977
0.96087578
0.97122522
0.98133591
0.9911702
1.000748
1.0100301
1.0191007
1.0278547
1.0364914
1.0447149
1.0529891
1.060568
1.0685515
1.0751746
1.0830335
1.0880244
1.096307
1.0981591
1.1085658
0.7998447
0.79988652
0.79993335
0.79998101
0.80003422
0.8000989
0.80018015
0.80027477
0.80037571
0.80048533
0.80061014
0.80075326
0.80091717
0.80110503
0.80132041
0.80156717
0.80185048
0.80217652
0.80255144
0.80298349
0.80348382
0.80406609
0.80474796
0.8055532
0.80651453
0.80767736
0.80910445
0.81088054
0.81311491
0.81593965
0.81949707
0.82392132
0.82930354
0.83568466
0.84304548
0.85121243
0.86006478
0.86984173
0.88028204
0.89105124
0.90222438
0.91368166
0.92530541
0.93698792
0.9486214
0.96010556
0.97135642
0.98229863
0.99289156
1.00309
1.0129098
1.0223095
1.0313782
1.0400154
1.0484376
1.0563579
1.0642671
1.0714305
1.0789765
1.0851608
1.0925861
1.09721
1.1050977
1.1066044
1.1167104
0.78418895
0.78424624
0.78430537
0.78436532
0.78443573
0.78451735
0.7846109
0.78471939
0.78484593
0.78499273
0.78516275
0.78535822
0.78557845
0.78582266
0.78609308
0.78639606
0.78674031
0.787134
0.78758565
0.78810627
0.78871025
0.78941685
0.79025236
0.79125321
0.79247008
0.79397284
0.79585543
0.79823881
0.80126898
0.80510653
0.8099009
0.8157702
0.82275514
0.83084214
0.83982571
0.84963548
0.86034152
0.87174209
0.88346802
0.89558915
0.90800973
0.92061129
0.93328744
0.9459255
0.95841532
0.97065124
0.98254503
0.99401738
1.0050241
1.0155171
1.0255128
1.0349705
1.0439862
1.0524667
1.0606433
1.0682413
1.0757725
1.0825185
1.0896276
1.0953932
1.1023901
1.1067456
1.1142538
1.1159967
1.1264119
0.76569249
0.76576117
0.76584576
0.76593752
0.7660395
0.76615363
0.76628098
0.76642268
0.76658044
0.76675677
0.7669544
0.76717622
0.76742562
0.76770672
0.76802456
0.76838533
0.76879682
0.76926895
0.76981469
0.77045126
0.77120197
0.77209861
0.77318477
0.77451983
0.77618357
0.77828025
0.78094053
0.78431841
0.78858039
0.79388264
0.80034364
0.80802504
0.81686392
0.82677246
0.83765025
0.84948118
0.86200022
0.87483339
0.88805736
0.90158539
0.91529655
0.92908627
0.94283925
0.95643725
0.96976527
0.98271571
0.99519834
1.0071343
1.018479
1.0291871
1.0392763
1.048714
1.0576024
1.0658607
1.0737324
1.0809597
1.0880694
1.0943677
1.1010067
1.1063381
1.1128614
1.1169659
1.1238481
1.126328
1.1340203
0.74596941
0.74605466
0.74615883
0.74626659
0.74638546
0.74651803
0.74666551
0.74682963
0.74701249
0.74721655
0.74744476
0.74770065
0.74798857
0.74831395
0.74868369
0.74910678
0.74959502
0.75016415
0.7508354
0.75163756
0.75260975
0.75380484
0.75529355
0.75716854
0.75954756
0.76257386
0.76641122
0.77123111
0.77719041
0.78440227
0.79292229
0.80268253
0.81357437
0.82559661
0.83847369
0.85199705
0.86589296
0.8802362
0.89492153
0.90981176
0.92479104
0.9397341
0.95451356
0.96900326
0.98308454
0.99664877