/*--------------------------------*- C++ -*----------------------------------*\
  =========                 |
  \\      /  F ield         | OpenFOAM: The Open Source CFD Toolbox
   \\    /   O peration     | Website:  https://openfoam.org
    \\  /    A nd           | Version:  13
     \\/     M anipulation  |
\*---------------------------------------------------------------------------*/
FoamFile
{
    format      ascii;
    class       volScalarField;
    location    "6.60207";
    object      yPlus;
}
// * * * * * * * * * * * * * * * * * * * * * * * * * * * * * * * * * * * * * //

dimensions      [];

internalField   uniform 0;

boundaryField
{
    inlet
    {
        type            calculated;
        value           uniform 0;
    }
    outlet
    {
        type            calculated;
        value           uniform 0;
    }
    cylinder
    {
        type            calculated;
        value           nonuniform List<scalar> 
132
(
5.0675763e-07
5.0382642e-07
4.9680571e-07
4.8556168e-07
4.7005726e-07
4.50412e-07
4.2690541e-07
3.9984236e-07
3.6971256e-07
3.3710216e-07
3.0270202e-07
2.6729342e-07
2.3174946e-07
1.969979e-07
1.639663e-07
1.3352961e-07
1.0638665e-07
8.300053e-08
6.3528694e-08
4.7838718e-08
3.5542552e-08
2.6179505e-08
1.9377384e-08
1.5219137e-08
1.3892486e-08
1.4868869e-08
1.651094e-08
1.6784327e-08
1.5112415e-08
1.2005649e-08
8.7068607e-09
6.0521519e-09
4.5256657e-09
4.3457427e-09
5.027158e-09
6.219499e-09
7.7956005e-09
9.7991084e-09
1.2280166e-08
1.5301841e-08
1.9012638e-08
2.3529422e-08
2.8466026e-08
3.3735023e-08
3.9175656e-08
4.4652142e-08
5.0048499e-08
5.5273907e-08
6.0273814e-08
6.5007842e-08
6.9455228e-08
7.360882e-08
7.7459227e-08
8.1000415e-08
8.4281814e-08
8.7250655e-08
8.9938425e-08
9.2351579e-08
9.4496757e-08
9.6370169e-08
9.7956484e-08
9.9285264e-08
1.0035508e-07
1.0116303e-07
1.0171832e-07
1.0200754e-07
5.0559638e-07
5.0034395e-07
4.9103583e-07
4.7753192e-07
4.5991008e-07
4.3841282e-07
4.132607e-07
3.8483881e-07
3.5368741e-07
3.2041815e-07
2.8574131e-07
2.5046582e-07
2.1547237e-07
1.8167068e-07
1.4996956e-07
1.2114492e-07
9.5793288e-08
7.4239774e-08
5.6519407e-08
4.2388947e-08
3.1421229e-08
2.3171858e-08
1.7408315e-08
1.4376468e-08
1.4022066e-08
1.5456511e-08
1.6824077e-08
1.6503372e-08
1.417759e-08
1.0886782e-08
7.7392714e-09
5.4120883e-09
4.3319432e-09
4.4804977e-09
5.3416093e-09
6.6478692e-09
8.3350239e-09
1.0462138e-08
1.3075652e-08
1.6238981e-08
2.0091982e-08
2.4741759e-08
2.9774631e-08
3.5101854e-08
4.056351e-08
4.6031608e-08
5.139608e-08
5.6569775e-08
6.1507365e-08
6.617138e-08
7.0543699e-08
7.4624469e-08
7.8398174e-08
8.1855446e-08
8.5077329e-08
8.7961871e-08
9.0589152e-08
9.2926488e-08
9.5006283e-08
9.6803268e-08
9.8325382e-08
9.9585228e-08
1.0058685e-07
1.0132595e-07
1.0180666e-07
1.0203106e-07
)
;
    }
    frontAndBack
    {
        type            empty;
    }
}


// ************************************************************************* //
