/*--------------------------------*- C++ -*----------------------------------*\
  =========                 |
  \\      /  F ield         | OpenFOAM: The Open Source CFD Toolbox
   \\    /   O peration     | Website:  https://openfoam.org
    \\  /    A nd           | Version:  13
     \\/     M anipulation  |
\*---------------------------------------------------------------------------*/
FoamFile
{
    format      ascii;
    class       volVectorField;
    location    "19.497326";
    object      UMean;
}
// * * * * * * * * * * * * * * * * * * * * * * * * * * * * * * * * * * * * * //

dimensions      [0 1 -1 0 0 0 0];

internalField   nonuniform List<vector> 
17140
(
(-3.0439079e-06 0.00013695706 -1.8484568e-22)
(-3.6705421e-05 0.00042177557 -1.5367016e-23)
(-0.00010909345 0.00073357093 1.0157095e-21)
(-0.00023526461 0.0010742399 -1.117096e-21)
(-0.00042893713 0.0014457911 1.3066118e-22)
(-0.00070884595 0.0018500896 -4.2778586e-22)
(-0.0010980462 0.0022887941 -7.2066152e-22)
(-0.0016243994 0.0027632456 3.5243859e-22)
(-0.0023214695 0.0032743319 1.1543778e-21)
(-0.003229403 0.0038223235 2.8350823e-21)
(-0.0043958182 0.0044066821 -4.2124832e-21)
(-0.0058766617 0.0050258425 3.7624242e-21)
(-0.0077369781 0.0056769743 5.7683725e-22)
(-0.010051488 0.0063557295 -3.2784173e-21)
(-0.012904853 0.0070560003 3.6531672e-22)
(-0.016391486 0.0077697033 -2.9098957e-21)
(-0.020614725 0.00848664 1.0953753e-22)
(-0.025685234 0.0091944674 -2.3926892e-23)
(-0.031718495 0.0098788425 -1.7554469e-21)
(-0.038831356 0.010523797 2.2974404e-21)
(-0.047137797 0.01111239 -1.1144339e-21)
(-0.056744252 0.011627666 2.1608918e-22)
(-0.067745098 0.012053896 1.5979557e-21)
(-0.080219544 0.012378052 -1.603776e-21)
(-0.094232244 0.012591428 -2.573209e-21)
(-0.10983428 0.012691356 2.0883885e-21)
(-0.12706268 0.012682635 1.0310548e-20)
(-0.14595713 0.012577196 1.2141651e-21)
(-0.16656281 0.012393175 -1.0806063e-20)
(-0.18893919 0.012151499 -2.5313819e-21)
(-0.21315156 0.011865956 -9.101258e-21)
(-0.23925502 0.011539753 1.2071966e-20)
(-0.26730792 0.011168696 -3.1488401e-21)
(-0.29735306 0.010744509 -1.5188083e-21)
(-0.32941331 0.010256533 -1.490643e-20)
(-0.36347645 0.0096945805 6.5906831e-21)
(-0.39948499 0.0090513048 -9.9042476e-21)
(-0.43732464 0.0083173639 -6.696574e-21)
(-0.47679909 0.0074804995 -3.0534006e-21)
(-0.51760552 0.0065285292 9.2690594e-21)
(-0.55930862 0.0054522781 1.7376526e-20)
(-0.60131671 0.0042516719 1.5659927e-20)
(-0.64286263 0.0029379164 6.788678e-21)
(-0.68299148 0.0015240073 -3.2474983e-20)
(-0.72055476 1.9328324e-05 -2.3406512e-20)
(-0.75420662 -0.0015645599 5.6772372e-21)
(-0.78255532 -0.0032210178 -3.7989365e-20)
(-0.80425185 -0.0049532965 -1.270201e-20)
(-0.8177258 -0.0067557438 1.2764723e-20)
(-0.82182448 -0.0085753348 3.0879099e-20)
(-0.81547274 -0.010347658 -1.8864661e-20)
(-0.79780855 -0.012028754 -1.1862083e-20)
(-0.76792663 -0.013627641 3.0871311e-20)
(-0.72516726 -0.015127036 1.4634227e-20)
(-0.66865857 -0.016427995 1.0524126e-20)
(-0.59798651 -0.017405673 -8.2937066e-21)
(-0.51291492 -0.017936836 2.2949483e-20)
(-0.41344617 -0.017857653 1.9466787e-20)
(-0.29979275 -0.0169617 4.9896478e-21)
(-0.173232 -0.015089057 -1.2999144e-20)
(-0.0353938 -0.012270593 -1.0411418e-20)
(0.10877616 -0.0086986355 -3.9244687e-20)
(0.25545122 -0.0046739497 -5.8395625e-21)
(0.3927304 -0.00074052564 4.9503336e-20)
(0.52277264 0.0015949069 -3.85021e-20)
(-2.8963468e-05 0.00067719946 5.2437641e-23)
(-0.00011596421 0.0020854413 -5.3193764e-21)
(-0.00024600641 0.0036261656 4.7347284e-21)
(-0.00043416913 0.0053079682 -1.2915546e-21)
(-0.00069423826 0.0071392584 -2.6687146e-21)
(-0.0010448876 0.0091275585 5.1018721e-21)
(-0.001508992 0.01127911 -5.3228946e-21)
(-0.0021140897 0.013598316 4.6889318e-22)
(-0.002893244 0.016087054 -1.4654695e-21)
(-0.0038858881 0.01874387 -2.4497358e-23)
(-0.0051386788 0.021563045 -4.908377e-21)
(-0.0067063191 0.024533547 7.8183898e-21)
(-0.0086522986 0.02763792 6.473319e-22)
(-0.011049452 0.030851146 -6.409975e-21)
(-0.013980222 0.034139609 1.9770929e-21)
(-0.017536486 0.0374603 1.2605604e-21)
(-0.021818785 0.040760481 -8.0274038e-21)
(-0.026934809 0.043978073 2.6293165e-20)
(-0.032997018 0.047043088 -1.6557025e-20)
(-0.040119371 0.049880412 1.9949343e-20)
(-0.048413281 0.052414195 -2.9669491e-20)
(-0.057983155 0.054573858 7.3258439e-21)
(-0.068922079 0.056301438 3.0436743e-21)
(-0.081308766 0.057559415 -1.0001939e-20)
(-0.095208063 0.058337675 3.6279557e-20)
(-0.11067243 0.058658024 5.427093e-21)
(-0.12773998 0.058573486 -2.8512958e-20)
(-0.14645143 0.058157108 3.2180968e-20)
(-0.16685304 0.057488687 -4.5094149e-21)
(-0.18900351 0.05663678 -4.3989699e-20)
(-0.21296687 0.055650151 4.6285926e-21)
(-0.23879602 0.054553731 3.5359633e-20)
(-0.26654675 0.053352339 8.4240125e-22)
(-0.29625823 0.052037335 -2.6636034e-20)
(-0.32794868 0.050589804 2.9881205e-20)
(-0.36160166 0.048983909 -1.3470956e-20)
(-0.39715278 0.047192725 1.6003564e-20)
(-0.43447702 0.045180681 5.0748759e-20)
(-0.4733664 0.042901028 1.1299745e-20)
(-0.51350531 0.040300151 4.4179747e-20)
(-0.55444449 0.037324495 -5.6577114e-20)
(-0.5955786 0.033929814 -5.1557303e-20)
(-0.63612348 0.030086549 -8.6360482e-21)
(-0.6750963 0.025770387 6.9564608e-20)
(-0.71130593 0.020967113 -3.2222201e-20)
(-0.74336263 0.015697034 -1.0980627e-20)
(-0.7697866 0.0100196 5.9301603e-21)
(-0.78915204 0.0039967735 1.8029032e-20)
(-0.80005399 -0.0022793505 -8.7256219e-21)
(-0.80120339 -0.0086472842 1.5590812e-20)
(-0.79153921 -0.01498556 9.3359589e-20)
(-0.77019228 -0.021214462 4.4644883e-21)
(-0.73637578 -0.027294161 -2.0076847e-20)
(-0.68943469 -0.033193198 4.4804039e-20)
(-0.62875268 -0.038804827 -3.8560513e-20)
(-0.55399029 -0.043958379 1.1071694e-19)
(-0.46494704 -0.048502793 3.1966424e-20)
(-0.36188346 -0.052201578 -9.203002e-20)
(-0.24513621 -0.054747575 1.5777203e-20)
(-0.11608178 -0.055743212 1.8514096e-20)
(0.023486825 -0.054766817 3.8009627e-21)
(0.16832165 -0.051589068 -5.1135903e-20)
(0.31504655 -0.045906952 1.0135737e-19)
(0.45185058 -0.038806032 3.0567751e-20)
(0.58126097 -0.031104905 5.1234892e-20)
(-8.4421495e-05 0.0012058657 2.8886506e-21)
(-0.00028532526 0.003713874 -1.6018675e-21)
(-0.00053840752 0.0064581479 -4.2607484e-22)
(-0.00085861085 0.0094540977 4.0429675e-22)
(-0.0012598501 0.012716631 -1.9594935e-21)
(-0.0017605799 0.016259103 -1.4543917e-22)
(-0.0023831885 0.020092605 -1.863873e-21)
(-0.0031544057 0.024224974 -2.0098279e-21)
(-0.0041060907 0.028659579 1.6455254e-20)
(-0.0052759984 0.033393891 -1.4714982e-20)
(-0.0067085579 0.038417823 7.0557032e-21)
(-0.0084556226 0.043711874 1.0359738e-20)
(-0.010577151 0.049245124 -2.0604742e-20)
(-0.013141728 0.054973215 -2.5568354e-21)
(-0.016226828 0.06083647 9.9207215e-21)
(-0.019918689 0.066758443 6.8496304e-21)
(-0.024311666 0.072645277 -7.9855572e-21)
(-0.029506914 0.078386354 2.9074535e-20)
(-0.035610309 0.083856809 -1.7307457e-20)
(-0.042729547 0.088922508 8.6137662e-21)
(-0.050970555 0.093447942 -2.9297729e-20)
(-0.060433483 0.097307141 -7.6845995e-21)
(-0.071208796 0.10039708 1.6181881e-20)
(-0.083374348 0.10265204 -2.456082e-20)
(-0.096995608 0.10405628 -9.7299818e-21)
(-0.112128 0.10465192 1.1872167e-20)
(-0.12881207 0.10453725 6.78545e-20)
(-0.14709132 0.10384635 3.0892868e-20)
(-0.16701325 0.10272072 -1.5695021e-20)
(-0.18863486 0.10127872 1.6737287e-20)
(-0.21201877 0.099606222 -1.0742457e-20)
(-0.2372126 0.097751706 -6.0599492e-20)
(-0.26426615 0.095730076 2.0438978e-20)
(-0.29321061 0.093532728 6.1277678e-20)
(-0.32405323 0.091132927 -2.0788268e-20)
(-0.35676618 0.088489365 -2.903767e-20)
(-0.39127056 0.085552173 5.0459479e-20)
(-0.42741979 0.082258526 1.5326397e-20)
(-0.46498019 0.078527728 -2.7603788e-20)
(-0.50360619 0.074265233 -1.1135131e-20)
(-0.54281525 0.069372964 5.3091139e-20)
(-0.58196422 0.06376163 -1.5237559e-20)
(-0.62021958 0.057355076 -2.1816018e-20)
(-0.65653438 0.050086283 -5.752963e-20)
(-0.68963733 0.041914331 1.0894387e-19)
(-0.71806154 0.032870994 -6.9792317e-20)
(-0.74029491 0.023090944 -1.7235056e-20)
(-0.7548433 0.012734914 -6.8505041e-20)
(-0.76029961 0.0019586053 -8.1652713e-20)
(-0.75545208 -0.0089666399 -4.1031881e-21)
(-0.73937032 -0.019805236 1.7231713e-20)
(-0.71133206 -0.03043448 -1.2806902e-19)
(-0.67072217 -0.040824761 -5.4847277e-20)
(-0.61699955 -0.050942334 -5.6787794e-20)
(-0.54975623 -0.060660126 -1.8759379e-20)
(-0.46881905 -0.069761085 -1.4785417e-19)
(-0.37426701 -0.07802759 5.9318393e-20)
(-0.26663802 -0.08516923 -1.8539132e-20)
(-0.14645358 -0.090797322 -1.5457865e-19)
(-0.015418784 -0.094261103 -6.2623321e-20)
(0.12459565 -0.094725154 7.6335635e-20)
(0.2680311 -0.091657324 2.6780434e-19)
(0.41170772 -0.084089945 -8.7146347e-20)
(0.54382281 -0.073632549 -1.4156439e-19)
(0.66622351 -0.060137801 -6.0990245e-20)
(-0.00016763912 0.0017046664 -9.6319367e-21)
(-0.00053940073 0.0052511885 1.1483254e-20)
(-0.00097705576 0.0091330373 -4.1535085e-21)
(-0.0014952703 0.013372441 4.5182581e-22)
(-0.0021081618 0.017990878 -8.9342254e-21)
(-0.0028338384 0.023007773 9.2519178e-21)
(-0.003693937 0.028439481 -1.4044511e-20)
(-0.004713951 0.034297908 6.6180304e-21)
(-0.0059239052 0.040588822 2.5188826e-20)
(-0.0073590028 0.047309838 -6.069797e-21)
(-0.0090602893 0.054448079 -2.315835e-20)
(-0.011075291 0.06197754 7.0909914e-21)
(-0.013458604 0.069856223 4.7739227e-22)
(-0.016272354 0.0780232 -1.8679837e-20)
(-0.019586449 0.086395833 5.8720441e-20)
(-0.023478529 0.094867559 -3.6249979e-20)
(-0.028033483 0.10330672 -3.4708402e-22)
(-0.033342433 0.1115572 2.0324491e-20)
(-0.039501085 0.1194416 -5.2042894e-20)
(-0.046607408 0.12676802 2.4801169e-20)
(-0.054758713 0.13334092 3.7371916e-20)
(-0.064048352 0.1389766 1.5284166e-20)
(-0.074562449 0.14352247 -7.6641199e-20)
(-0.086377261 0.14687806 -4.0533108e-20)
(-0.099559005 0.14901418 2.6631238e-20)
(-0.11416696 0.14998497 -1.5674417e-20)
(-0.13024617 0.14992756 5.9727397e-20)
(-0.14784431 0.14903597 -1.7358186e-20)
(-0.1670098 0.14751227 4.7443876e-20)
(-0.18779841 0.14552857 -2.7204088e-20)
(-0.21027098 0.14321027 1.6931865e-20)
(-0.2344672 0.14063203 -6.3027202e-20)
(-0.26042754 0.13782083 9.1928124e-21)
(-0.288171 0.13476868 -4.8575791e-20)
(-0.3176892 0.13144134 4.699232e-20)
(-0.34893511 0.12778283 1.4932574e-20)
(-0.38180748 0.12371873 -1.9032047e-19)
(-0.41613094 0.11915592 -4.9745355e-20)
(-0.45163535 0.11397881 4.1596552e-20)
(-0.48793336 0.10805318 -4.0995437e-20)
(-0.52449628 0.10123756 1.0422045e-20)
(-0.56062595 0.093395219 6.6148929e-20)
(-0.59542123 0.084399223 -3.1269791e-21)
(-0.62775573 0.074139222 -2.1805344e-20)
(-0.65627303 0.062554379 1.0836335e-20)
(-0.67945683 0.049705947 -4.8123868e-21)
(-0.69580739 0.035798751 -1.4854761e-20)
(-0.70381194 0.021098307 2.3258464e-19)
(-0.70216025 0.0058891312 -2.5788951e-20)
(-0.68982292 -0.0094324429 2.3804243e-20)
(-0.66608709 -0.024546556 -2.2323292e-19)
(-0.63042933 -0.039296059 1.2260913e-19)
(-0.58241088 -0.053660627 1.0080815e-19)
(-0.52165529 -0.067613094 9.6883457e-20)
(-0.44795192 -0.081012055 9.416193e-20)
(-0.36139564 -0.093608307 1.4974706e-19)
(-0.26235601 -0.10513957 -3.0292127e-19)
(-0.15167305 -0.1152821 1.8950779e-19)
(-0.030080966 -0.12356901 2.9354459e-19)
(0.10035199 -0.12915692 -2.1908867e-19)
(0.23760861 -0.13076562 -7.1692134e-20)
(0.37569216 -0.127586 -6.4452248e-20)
(0.51172439 -0.11803928 3.2904204e-19)
(0.63400054 -0.10401591 2.4441251e-19)
(0.74270297 -0.084894397 -1.074854e-20)
(-0.00027478353 0.0021553932 6.7432898e-21)
(-0.00086659974 0.0066416205 -1.6742571e-20)
(-0.0015420149 0.011554365 1.3655324e-20)
(-0.0023153672 0.016922599 -5.1631881e-21)
(-0.0032010527 0.022774395 -1.8663081e-21)
(-0.0042167586 0.029135505 1.6074597e-20)
(-0.0053831829 0.036028062 -4.0774001e-21)
(-0.0067242604 0.043468895 -8.667141e-21)
(-0.0082676893 0.051467416 -6.6664728e-22)
(-0.010045423 0.060023112 -5.671304e-21)
(-0.012094185 0.069122596 7.9611325e-21)
(-0.014455951 0.07873625 -5.5520218e-21)
(-0.017178413 0.08881454 -2.0531346e-20)
(-0.020315347 0.099284167 -5.967936e-22)
(-0.023926834 0.11004431 1.5861706e-20)
(-0.028079277 0.12096349 1.1307448e-20)
(-0.032845109 0.13187761 -9.8013485e-21)
(-0.038302135 0.14259014 9.5559997e-22)
(-0.044532413 0.15287544 1.9489159e-20)
(-0.051620662 0.16248657 2.3997631e-20)
(-0.059652214 0.17116846 -2.7731691e-20)
(-0.068710672 0.17867724 -2.8279138e-20)
(-0.07887552 0.18480488 3.8594529e-20)
(-0.090220074 0.18940711 -4.8419537e-20)
(-0.10281095 0.19242965 -8.5005699e-20)
(-0.1167108 0.19392625 2.0332114e-19)
(-0.13197287 0.19406167 -1.1344285e-19)
(-0.14864862 0.19308436 1.6993275e-19)
(-0.1667869 0.19125716 -2.1477709e-19)
(-0.18644568 0.18881251 2.4210492e-19)
(-0.20768165 0.18591642 -2.5258155e-19)
(-0.23052594 0.18267347 4.3000869e-20)
(-0.25500623 0.1791263 1.4891865e-19)
(-0.2811263 0.17526898 -8.4540278e-20)
(-0.30885827 0.17106006 2.662641e-20)
(-0.33813051 0.16642832 7.9278625e-21)
(-0.36881216 0.16127545 9.6500262e-20)
(-0.4006933 0.15547653 3.1359488e-20)
(-0.43346334 0.14888026 3.1432557e-20)
(-0.46668886 0.14131312 3.1560866e-20)
(-0.4997878 0.13258956 -1.609734e-19)
(-0.53199871 0.12252203 7.0581361e-20)
(-0.56234929 0.11093159 1.0797607e-20)
(-0.58963872 0.097667116 -1.2816489e-19)
(-0.61245086 0.082661248 -6.4220582e-20)
(-0.62927836 0.066027561 3.166637e-20)
(-0.63868733 0.048066388 1.1291741e-19)
(-0.63927615 0.02913873 -4.9198368e-20)
(-0.62990052 0.0096785915 1.4129969e-19)
(-0.60974822 -0.009786246 7.632062e-20)
(-0.57829674 -0.028856452 1.0526793e-19)
(-0.53519264 -0.047371956 2.8113854e-19)
(-0.48012149 -0.065347055 -2.1828365e-19)
(-0.41282818 -0.082766018 7.0704307e-20)
(-0.33329652 -0.099451394 -1.2414251e-19)
(-0.24193756 -0.11509776 -1.1904427e-19)
(-0.1395089 -0.1294155 -4.6865247e-20)
(-0.027190254 -0.14209212 -4.3934754e-19)
(0.094039746 -0.15258116 -1.2087153e-19)
(0.22167538 -0.15986153 2.8188153e-19)
(0.35349537 -0.16220927 1.0832814e-19)
(0.48300642 -0.1586734 -8.3630037e-20)
(0.60756754 -0.14711537 -1.7537118e-19)
(0.71577312 -0.12932432 -2.7398139e-19)
(0.80656238 -0.1048939 2.123431e-20)
(-0.00039998825 0.0025406433 2.0403578e-20)
(-0.0012490986 0.0078318051 5.3717526e-21)
(-0.0022026195 0.013629689 -4.3535768e-21)
(-0.0032745685 0.019969816 -1.6080413e-20)
(-0.0044797123 0.026886792 8.8160434e-21)
(-0.0058353101 0.034412909 -1.27016e-20)
(-0.0073610358 0.042576638 5.502289e-21)
(-0.0090790863 0.051400699 1.3122455e-21)
(-0.011014535 0.060899642 -7.4422521e-21)
(-0.01319564 0.07107694 -1.6075664e-20)
(-0.015654165 0.08192154 -8.0637922e-22)
(-0.018425693 0.093403886 2.6601868e-20)
(-0.021549904 0.10547148 -3.6958564e-20)
(-0.025070817 0.11804412 6.000845e-20)
(-0.02903695 0.1310092 -1.5786035e-20)
(-0.033501356 0.14421738 3.3790061e-20)
(-0.038521525 0.1574796 -4.1243656e-20)
(-0.044159072 0.17056628 2.7071356e-20)
(-0.050479204 0.18321008 -4.3357861e-21)
(-0.057549941 0.19511383 -1.7819112e-20)
(-0.065441097 0.20596496 4.3961878e-20)
(-0.074223102 0.21545758 -6.3093415e-20)
(-0.083965778 0.22332193 6.9812764e-20)
(-0.094737219 0.22935881 1.2155113e-20)
(-0.10660321 0.2334738 -1.2201647e-19)
(-0.11962868 0.23570317 1.25509e-19)
(-0.13387704 0.23622206 -8.3083238e-20)
(-0.1494032 0.23532055 9.4642103e-20)
(-0.16626023 0.23332722 8.9446523e-21)
(-0.18450848 0.23053829 5.612107e-21)
(-0.20419739 0.22716339 -3.9220053e-20)
(-0.22535331 0.223342 2.5107715e-21)
(-0.24798673 0.21913777 -1.5048814e-19)
(-0.27208438 0.21454951 4.1247463e-20)
(-0.29759567 0.20952919 1.2363878e-19)
(-0.3244212 0.20399 -5.8168518e-20)
(-0.3523972 0.19781027 4.8203108e-20)
(-0.38127638 0.19083479 -4.8394257e-20)
(-0.41070661 0.1828767 -2.7081e-19)
(-0.44020731 0.17372206 1.5010613e-19)
(-0.46914216 0.16313874 3.6635072e-20)
(-0.49668865 0.15088773 -2.0743186e-19)
(-0.52181376 0.13674021 1.2453936e-20)
(-0.54326746 0.12051265 2.5501902e-20)
(-0.55962638 0.10215003 2.7019112e-19)
(-0.56948328 0.08184096 6.2009144e-20)
(-0.57151256 0.059992428 -9.6399473e-20)
(-0.56452517 0.037055133 -9.764035e-20)
(-0.54754879 0.013612523 -1.3741459e-19)
(-0.51991816 -0.0096942002 -1.6810511e-19)
(-0.48121612 -0.032399271 -1.0200587e-19)
(-0.43121021 -0.054345582 -1.593363e-19)
(-0.36967771 -0.075587833 5.4681665e-20)
(-0.2964816 -0.096104541 -3.3842954e-19)
(-0.21182706 -0.11565577 -2.275613e-20)
(-0.11649104 -0.13386863 -1.992362e-20)
(-0.011646198 -0.15043303 -1.0799106e-20)
(0.1010902 -0.16510258 4.729972e-19)
(0.22053635 -0.17725985 1.8891262e-19)
(0.34363731 -0.18575481 -2.9655285e-19)
(0.4679303 -0.18841844 -4.356924e-19)
(0.58658062 -0.18416563 -1.9911605e-19)
(0.69670058 -0.1705108 -6.6081338e-20)
(0.78772942 -0.14889791 3.8863058e-19)
(0.85828078 -0.11981047 -9.8333657e-20)
(-0.00053545959 0.0028449993 -3.8234971e-21)
(-0.0016634841 0.0087742656 -9.0412925e-21)
(-0.0029184 0.015276591 2.1834545e-20)
(-0.0043143287 0.022393615 -8.13305e-22)
(-0.0058663753 0.030166289 -1.0648802e-20)
(-0.0075914473 0.038633555 -4.6983044e-21)
(-0.0095082286 0.047830703 -3.4737617e-21)
(-0.011637169 0.057787315 6.8577668e-21)
(-0.014000646 0.068524657 -3.5576478e-20)
(-0.016623074 0.080052501 2.6922058e-20)
(-0.019531018 0.092365325 -1.3046612e-21)
(-0.022753277 0.10543784 -1.6410849e-20)
(-0.026320971 0.11921991 6.1706129e-20)
(-0.030267596 0.13363099 -6.1870868e-20)
(-0.034629056 0.14855439 8.3085716e-21)
(-0.039443689 0.16383171 5.1808592e-20)
(-0.04475227 0.17925848 -4.9217797e-20)
(-0.050598007 0.19458184 1.7418844e-20)
(-0.057026556 0.20950193 -3.4271201e-20)
(-0.064086062 0.22367883 4.4648278e-20)
(-0.071827237 0.23674694 8.5204528e-20)
(-0.080303513 0.24833838 -8.5844964e-20)
(-0.089571221 0.25811587 -1.2796541e-19)
(-0.09968977 0.26581323 2.5134318e-19)
(-0.11072162 0.27127793 -2.0507505e-19)
(-0.12273269 0.2745068 1.2095855e-19)
(-0.13579368 0.27566239 -3.1715303e-20)
(-0.14996844 0.27505733 7.5880293e-20)
(-0.16531653 0.27308505 -7.8870679e-20)
(-0.18189483 0.27010677 -1.072893e-19)
(-0.19975147 0.26638743 7.2249954e-20)
(-0.21891002 0.26210493 1.2036232e-19)
(-0.2393605 0.2573497 -1.0784474e-20)
(-0.2610714 0.25213055 -4.5411334e-21)
(-0.28396751 0.24639508 -7.9251608e-20)
(-0.3079203 0.24004205 3.4479389e-20)
(-0.33273255 0.23292755 1.2688133e-19)
(-0.35811964 0.22486737 6.3857462e-20)
(-0.38368828 0.21563935 -9.825054e-20)
(-0.40891247 0.20498838 7.7993632e-20)
(-0.43310589 0.1926351 -6.596718e-20)
(-0.45539556 0.17829056 2.2365202e-20)
(-0.47470954 0.16168253 8.380409e-20)
(-0.48979036 0.14261057 -1.9968039e-19)
(-0.49927844 0.1210566 -1.1818435e-19)
(-0.50194227 0.097295616 -7.6187047e-20)
(-0.49663211 0.071827344 2.3692045e-19)
(-0.48236985 0.045183779 1.5234326e-19)
(-0.45828147 0.018047802 1.7718707e-19)
(-0.42371913 -0.0088280773 3.0690715e-19)
(-0.37833367 -0.034890839 -1.0532361e-19)
(-0.32200343 -0.059975898 2.2196228e-20)
(-0.25459375 -0.084181337 1.7634861e-19)
(-0.17613629 -0.10746884 5.2025992e-19)
(-0.08713539 -0.12950618 3.4628845e-19)
(0.011210167 -0.14983927 1.3820644e-19)
(0.1173856 -0.16813623 4.0994408e-19)
(0.22936434 -0.18427353 -2.8277414e-19)
(0.34576118 -0.19755419 2.9678125e-20)
(0.46293619 -0.2067043 4.7819244e-19)
(0.57803045 -0.20922986 3.3180399e-19)
(0.68416027 -0.20385695 1.5837516e-20)
(0.77790896 -0.18797217 -5.4939372e-19)
(0.84959018 -0.16276105 5.8057026e-20)
(0.89886121 -0.12978466 -8.4037093e-20)
(-0.00067199077 0.0030559748 -1.4969672e-20)
(-0.0020816419 0.0094303716 7.4916688e-21)
(-0.0036408983 0.016427707 -1.0125854e-20)
(-0.0053643987 0.024095089 -5.7590552e-21)
(-0.0072675759 0.032479432 1.608677e-20)
(-0.0093671211 0.041626233 1.5033861e-20)
(-0.011680872 0.0515779 -1.5449909e-20)
(-0.014227691 0.062371695 1.8615731e-21)
(-0.017027431 0.07403706 4.3209409e-22)
(-0.020100842 0.086592347 3.0805437e-20)
(-0.023469455 0.10004082 -3.3932417e-21)
(-0.02715544 0.11436585 -6.259516e-20)
(-0.031181436 0.12952543 5.0301961e-20)
(-0.035570387 0.14544584 -1.7466958e-21)
(-0.040345393 0.16201502 -3.4179323e-20)
(-0.04552962 0.17907572 -2.9695325e-21)
(-0.051146306 0.19641945 7.6305911e-21)
(-0.057218959 0.21378225 3.4810095e-20)
(-0.063771779 0.23084384 -6.4654544e-20)
(-0.070830421 0.24723237 1.1544469e-19)
(-0.078423165 0.26253712 -2.534702e-20)
(-0.086582394 0.27633143 1.8937247e-20)
(-0.095346418 0.28820716 -1.5914928e-20)
(-0.10476129 0.29781979 6.494163e-22)
(-0.11488208 0.3049392 -9.7887907e-20)
(-0.12577324 0.30949668 -9.94657e-20)
(-0.13750809 0.31161388 2.004313e-19)
(-0.15016428 0.31159815 3.38902e-20)
(-0.16380768 0.30988625 -1.2003103e-19)
(-0.17849097 0.30691985 -4.3264647e-20)
(-0.19426572 0.3030342 -9.8858594e-20)
(-0.21115204 0.29844283 1.1299114e-19)
(-0.22912484 0.2932721 4.9868456e-20)
(-0.24812974 0.28754972 -1.1694397e-19)
(-0.26806666 0.28122277 4.9589541e-20)
(-0.28877825 0.27417846 2.3333249e-20)
(-0.31003462 0.26625255 -7.0156436e-20)
(-0.33151513 0.25723331 -1.8404451e-19)
(-0.35278729 0.24686424 -5.5972438e-20)
(-0.37328289 0.23484935 3.7574397e-20)
(-0.39227297 0.22086366 8.9199033e-20)
(-0.40884968 0.20457372 9.196834e-20)
(-0.42193049 0.18567597 1.014085e-19)
(-0.43029699 0.16397304 2.1167635e-19)
(-0.43272367 0.13950661 -5.7533844e-21)
(-0.42818423 0.11264329 8.8218858e-20)
(-0.41573946 0.083935033 -4.7271666e-19)
(-0.39453233 0.053952025 -1.2980656e-19)
(-0.36367036 0.023432001 -1.4728199e-19)
(-0.32252312 -0.0067432606 -4.055024e-19)
(-0.2708784 -0.03589644 4.7200169e-19)
(-0.20873548 -0.063852171 -1.0524815e-19)
(-0.13606524 -0.09073831 -3.393163e-19)
(-0.053128963 -0.1164729 -4.1988254e-19)
(0.039238767 -0.14061537 -5.3960435e-20)
(0.13940889 -0.16265107 1.3757205e-19)
(0.24555436 -0.18225157 2.2517934e-19)
(0.35545527 -0.19941604 -9.6621579e-20)
(0.46745323 -0.21336139 1.7705078e-19)
(0.57744446 -0.22269127 -1.5053662e-19)
(0.68203531 -0.22468245 -5.1579132e-20)
(0.7743411 -0.2177886 -1.5478313e-19)
(0.85031874 -0.19942061 6.8509414e-19)
(0.90092801 -0.17075464 2.2158456e-20)
(0.92930363 -0.13506146 2.7666053e-19)
(-0.00079950081 0.0031650755 1.3939994e-20)
(-0.002472475 0.0097736952 2.7619031e-21)
(-0.0043165723 0.017036561 -3.0367044e-21)
(-0.0063470122 0.02500541 -1.4934841e-20)
(-0.0085796623 0.033732458 1.7925885e-20)
(-0.01103116 0.043269365 -1.5237423e-20)
(-0.013718722 0.053665652 -7.2906592e-21)
(-0.01665993 0.064966743 3.9183037e-22)
(-0.019872503 0.077211392 6.1768806e-21)
(-0.023374015 0.090428479 3.5206347e-20)
(-0.027181551 0.10463299 -5.9280505e-20)
(-0.031311317 0.1198212 7.1472746e-20)
(-0.035778218 0.13596482 -2.1079255e-20)
(-0.04059542 0.15300431 -2.8752034e-20)
(-0.04577395 0.17084136 4.4372734e-20)
(-0.051322397 0.18933089 -8.8121321e-20)
(-0.057246797 0.20827329 1.0775278e-19)
(-0.063550824 0.22740776 1.7077127e-21)
(-0.070236449 0.24640868 6.3180913e-20)
(-0.077305205 0.26488685 -2.544031e-19)
(-0.084760201 0.28239893 6.260552e-20)
(-0.092608931 0.29846752 2.635189e-19)
(-0.10086674 0.31261482 -1.2697048e-19)
(-0.10956059 0.32440997 -1.5441743e-19)
(-0.11873224 0.33352672 3.9631213e-20)
(-0.12843991 0.33980239 2.1120761e-19)
(-0.13875699 0.34328277 -3.2617105e-19)
(-0.14976723 0.34423368 3.6797108e-19)
(-0.16155184 0.34309967 -2.9436016e-19)
(-0.1741685 0.34039614 5.7217387e-20)
(-0.18765578 0.33655883 -9.9326002e-20)
(-0.20203658 0.33185831 -1.4300648e-19)
(-0.21728273 0.3264429 5.7150463e-20)
(-0.23331408 0.32037074 1.4996581e-20)
(-0.25000743 0.31360173 2.1475184e-19)
(-0.26717525 0.30601656 -4.2186846e-20)
(-0.28455608 0.29743298 1.0847602e-19)
(-0.30179468 0.28761327 -9.2176927e-20)
(-0.31842131 0.276268 5.5097446e-20)
(-0.33382925 0.26306235 3.584196e-20)
(-0.34725497 0.24763046 3.0726677e-20)
(-0.35777215 0.22960412 3.0485006e-20)
(-0.36431516 0.20866527 -1.8532578e-19)
(-0.36574165 0.1846417 -1.450091e-19)
(-0.36100422 0.15764968 4.077264e-20)
(-0.34925042 0.12813948 -2.5540461e-20)
(-0.32972006 0.096660187 1.0606869e-19)
(-0.30156283 0.063764478 -2.084906e-19)
(-0.2638937 0.030233952 -2.4078456e-19)
(-0.21629063 -0.0028945461 -6.9401306e-20)
(-0.1587628 -0.034823483 -1.82122e-19)
(-0.091399071 -0.065356495 5.8165353e-21)
(-0.01426177 -0.094635319 8.8340025e-20)
(0.072127132 -0.12252425 4.3101658e-19)
(0.16660152 -0.14845509 -2.1726988e-19)
(0.26713218 -0.17187385 8.8668457e-20)
(0.37165961 -0.19248957 -2.6301132e-19)
(0.47802476 -0.21038071 4.481029e-19)
(0.58426789 -0.2246563 -2.6089989e-19)
(0.68583881 -0.23366067 9.1260607e-20)
(0.77884147 -0.23460407 -1.0349829e-22)
(0.85621609 -0.22580274 7.4177203e-20)
(0.91284934 -0.2048103 2.7727738e-19)
(0.94130376 -0.17363307 -5.2807629e-19)
(0.95088182 -0.13659481 5.4017581e-19)
(-0.00090764517 0.0031687623 -3.0887373e-20)
(-0.0028042945 0.0097928593 -1.5671756e-20)
(-0.004890636 0.017082571 2.4618927e-20)
(-0.007182481 0.025093161 -6.485244e-22)
(-0.009696204 0.033881171 -2.2299692e-20)
(-0.012448551 0.04350367 -1.1674432e-20)
(-0.015456393 0.054016849 2.4647894e-20)
(-0.018736434 0.065474283 -4.054136e-21)
(-0.02230482 0.077924598 5.7314949e-20)
(-0.026176686 0.091408512 -1.12057e-20)
(-0.030365607 0.10595504 -2.8765479e-22)
(-0.034882974 0.12157681 4.1557171e-20)
(-0.039737308 0.13826427 -1.3393809e-19)
(-0.044933536 0.15597877 6.2842476e-20)
(-0.050472287 0.17464459 1.1352692e-19)
(-0.056349276 0.19413996 -1.2218667e-19)
(-0.062554924 0.2142876 1.5208323e-20)
(-0.069074344 0.23484573 -8.7619276e-20)
(-0.075887933 0.25550099 -6.6103302e-20)
(-0.082972827 0.27586541 2.116157e-19)
(-0.090305411 0.29548068 -1.6198407e-19)
(-0.097865169 0.31383322 2.1768927e-19)
(-0.10563966 0.33038381 -2.616437e-20)
(-0.1136304 0.3446138 1.0920638e-19)
(-0.12185841 0.35608685 -2.4281502e-19)
(-0.13036822 0.36451859 5.8752939e-20)
(-0.13922789 0.36983957 1.5130572e-19)
(-0.14852336 0.37222926 -3.7271522e-19)
(-0.15834522 0.37209689 1.6486703e-19)
(-0.16876874 0.36999161 1.8008513e-19)
(-0.17983096 0.36645123 -1.5106154e-19)
(-0.19153475 0.36185821 -2.0292217e-20)
(-0.20385654 0.35641406 1.03805e-19)
(-0.2167073 0.35019033 -5.8036762e-20)
(-0.22993258 0.34315925 8.981131e-20)
(-0.24332148 0.33520822 -3.1849039e-19)
(-0.25658193 0.32614458 1.6844127e-19)
(-0.26932344 0.31570844 1.0198301e-19)
(-0.28103906 0.30358028 2.1025686e-19)
(-0.29108643 0.28939043 2.7810984e-20)
(-0.29867539 0.27273966 -2.2683591e-19)
(-0.30287539 0.25323778 9.138972e-20)
(-0.30265803 0.23057049 1.3468728e-19)
(-0.2969776 0.20461086 2.1102467e-20)
(-0.28495923 0.17554984 -1.2942677e-19)
(-0.26587038 0.14389584 -1.1305918e-19)
(-0.23905584 0.11015756 3.411884e-19)
(-0.20366662 0.074850015 1.7938505e-19)
(-0.15906627 0.038813235 3.8703405e-19)
(-0.10521883 0.003221523 1.3536355e-19)
(-0.042335965 -0.031057168 5.2403882e-20)
(0.029471261 -0.063831634 3.875342e-19)
(0.11005696 -0.095225253 1.5264338e-19)
(0.19866433 -0.12499577 -5.1567193e-19)
(0.2937907 -0.15243284 4.1634542e-19)
(0.39304673 -0.17695867 -3.8550664e-19)
(0.4944279 -0.19837267 1.8640809e-19)
(0.59595579 -0.21677403 -9.0759345e-19)
(0.69525312 -0.23108996 -4.5715388e-19)
(0.78744815 -0.23958262 1.8598441e-19)
(0.8680286 -0.23934295 2.9275256e-19)
(0.92891919 -0.22837529 4.9171501e-19)
(0.96393483 -0.20495036 8.6150039e-20)
(0.97074072 -0.1719467 6.844828e-20)
(0.96565829 -0.13513815 -7.2128144e-19)
(-0.00098682516 0.0030692783 -5.560053e-22)
(-0.0030476238 0.0094941175 2.9103069e-20)
(-0.0053120151 0.01657555 -3.4330488e-20)
(-0.0077963374 0.024371 -1.6533994e-20)
(-0.010517475 0.032940026 3.3146722e-20)
(-0.013492405 0.04234394 1.0749012e-20)
(-0.016737915 0.052644637 -5.2206698e-20)
(-0.020270264 0.063903186 5.628212e-20)
(-0.024104669 0.076177878 1.1899488e-20)
(-0.028254716 0.089521665 4.7465409e-20)
(-0.03273164 0.10397881 -1.2645894e-19)
(-0.037543508 0.11958058 -1.5490294e-21)
(-0.042694289 0.13633983 1.1460063e-19)
(-0.048182845 0.15424424 -1.2375771e-19)
(-0.054001892 0.17324823 8.9241443e-20)
(-0.060137014 0.1932634 3.3378603e-20)
(-0.066565863 0.21414784 -7.0458265e-20)
(-0.073257743 0.23569494 6.4359568e-20)
(-0.08017383 0.25762284 8.6873258e-20)
(-0.087268373 0.27956656 -1.8770415e-21)
(-0.0944913 0.30107597 -1.4162228e-19)
(-0.10179245 0.32162349 8.9221008e-20)
(-0.10912779 0.34062634 -5.0704565e-20)
(-0.116467 0.35748719 -2.503648e-19)
(-0.12380192 0.37165508 -8.5361709e-20)
(-0.13115357 0.38270229 2.3676816e-19)
(-0.13857531 0.3904045 -2.4110192e-20)
(-0.14614893 0.39480185 2.7763376e-19)
(-0.15397105 0.39621183 -1.6742428e-19)
(-0.16212968 0.39516596 8.9889477e-20)
(-0.17067728 0.3922697 -1.325801e-19)
(-0.17961873 0.38803629 -3.2782457e-20)
(-0.18890361 0.38277535 1.6767115e-19)
(-0.19842764 0.37660462 -1.7546312e-19)
(-0.20803261 0.36951868 -2.6012669e-19)
(-0.21748211 0.36140816 2.6813026e-20)
(-0.2264514 0.35206998 2.8824883e-19)
(-0.23451684 0.34122512 -3.7281963e-19)
(-0.24113505 0.32852947 8.1412652e-20)
(-0.24563166 0.31358639 -1.7508085e-19)
(-0.24719778 0.29597376 2.7101825e-20)
(-0.24491112 0.2752932 -2.7582317e-19)
(-0.23779251 0.25124946 -1.3247514e-19)
(-0.22490236 0.22376745 -1.6386717e-19)
(-0.20547958 0.19311082 6.5883227e-19)
(-0.17889385 0.15981184 2.1364427e-19)
(-0.14455888 0.12434175 -2.8370381e-19)
(-0.10178791 0.087198375 2.2979277e-19)
(-0.050425208 0.049284314 1.9128792e-19)
(0.0091800799 0.011825393 -2.1531622e-19)
(0.076704741 -0.024331658 -1.1235417e-19)
(0.15205602 -0.059023814 -2.6306007e-19)
(0.23501911 -0.092261952 -1.2767818e-19)
(0.32463424 -0.12365013 4.3736522e-19)
(0.41901194 -0.15235192 2.4689264e-19)
(0.51556365 -0.17784117 3.984428e-20)
(0.61265423 -0.20000492 -1.6842282e-21)
(0.70839405 -0.21887554 2.2499745e-19)
(0.79991479 -0.23319171 -3.2611219e-19)
(0.88202898 -0.24079301 -4.2444579e-19)
(0.94897594 -0.23868465 -1.1942766e-19)
(0.99049079 -0.22525225 -9.0861055e-19)
(1.0021559 -0.19994259 -7.2349278e-19)
(0.99060443 -0.16700831 -1.8429081e-19)
(0.97621999 -0.13178849 -9.7553643e-20)
(-0.0010292465 0.0028751202 1.8790461e-20)
(-0.0031784352 0.0089028888 1.2208849e-20)
(-0.0055389381 0.015558473 -2.5405053e-20)
(-0.0081274583 0.022899867 4.3571631e-20)
(-0.01096129 0.03098803 1.0916501e-20)
(-0.014057677 0.039886914 -4.6822036e-20)
(-0.017433507 0.049662594 2.3963722e-22)
(-0.021104977 0.060382255 -2.8098359e-20)
(-0.025086989 0.072112717 8.400511e-21)
(-0.029392483 0.08491843 -1.8919005e-22)