/*--------------------------------*- C++ -*----------------------------------*\
  =========                 |
  \\      /  F ield         | OpenFOAM: The Open Source CFD Toolbox
   \\    /   O peration     | Website:  https://openfoam.org
    \\  /    A nd           | Version:  13
     \\/     M anipulation  |
\*---------------------------------------------------------------------------*/
FoamFile
{
    format      ascii;
    class       volScalarField;
    location    "4.597081";
    object      yPlus;
}
// * * * * * * * * * * * * * * * * * * * * * * * * * * * * * * * * * * * * * //

dimensions      [];

internalField   uniform 0;

boundaryField
{
    inlet
    {
        type            calculated;
        value           uniform 0;
    }
    outlet
    {
        type            calculated;
        value           uniform 0;
    }
    cylinder
    {
        type            calculated;
        value           nonuniform List<scalar> 
132
(
3.5189077e-07
3.4966823e-07
3.4432427e-07
3.3577022e-07
3.2393161e-07
3.0888714e-07
2.9095969e-07
2.7050645e-07
2.4794399e-07
2.2380877e-07
1.9872644e-07
1.7337714e-07
1.4846616e-07
1.2467978e-07
1.0264358e-07
8.2854826e-08
6.5638612e-08
5.1123657e-08
3.9249154e-08
2.9794071e-08
2.2478405e-08
1.7044298e-08
1.3323449e-08
1.1158292e-08
1.0157195e-08
9.5845947e-09
8.6889344e-09
7.261581e-09
5.5785046e-09
4.0685717e-09
3.0752893e-09
2.791683e-09
3.0632325e-09
3.6849627e-09
4.5445259e-09
5.62664e-09
6.9722185e-09
8.6108494e-09
1.0575027e-08
1.289626e-08
1.5642186e-08
1.889009e-08
2.233795e-08
2.5939186e-08
2.959889e-08
3.324203e-08
3.6810598e-08
4.0258222e-08
4.3555216e-08
4.6682587e-08
4.9627502e-08
5.2392106e-08
5.4964913e-08
5.7332649e-08
5.9531129e-08
6.153116e-08
6.3353031e-08
6.4979544e-08
6.6429315e-08
6.7689078e-08
6.8782709e-08
6.9689407e-08
7.0423988e-08
7.0979768e-08
7.1360897e-08
7.1561233e-08
3.509713e-07
3.4692203e-07
3.3978944e-07
3.2944241e-07
3.1591043e-07
2.9940971e-07
2.8026042e-07
2.5885461e-07
2.3565107e-07
2.1121367e-07
1.8617294e-07
1.6120267e-07
1.3698492e-07
1.1416494e-07
9.3300014e-08
7.4806807e-08
5.8917139e-08
4.567741e-08
3.495619e-08
2.649812e-08
2.0032852e-08
1.5336201e-08
1.2277901e-08
1.0638611e-08
9.9046484e-09
9.312513e-09
8.2390597e-09
6.6842814e-09
5.0228486e-09
3.662712e-09
2.899202e-09
2.8315604e-09
3.2280342e-09
3.9303121e-09
4.8508121e-09
6.0030914e-09
7.4257886e-09
9.1473546e-09
1.1198876e-08
1.3605695e-08
1.6431808e-08
1.9748916e-08
2.3243031e-08
2.6865441e-08
3.0528296e-08
3.4159314e-08
3.7700492e-08
4.111347e-08
4.4367845e-08
4.7450707e-08
5.034848e-08
5.306958e-08
5.5597739e-08
5.7908931e-08
6.006094e-08
6.2018287e-08
6.3786575e-08
6.5371805e-08
6.6768002e-08
6.7989398e-08
6.9031421e-08
6.9895306e-08
7.058342e-08
7.1092525e-08
7.1423128e-08
7.1578445e-08
)
;
    }
    frontAndBack
    {
        type            empty;
    }
}


// ************************************************************************* //
