/*--------------------------------*- C++ -*----------------------------------*\
  =========                 |
  \\      /  F ield         | OpenFOAM: The Open Source CFD Toolbox
   \\    /   O peration     | Website:  https://openfoam.org
    \\  /    A nd           | Version:  13
     \\/     M anipulation  |
\*---------------------------------------------------------------------------*/
FoamFile
{
    format      ascii;
    class       surfaceScalarField;
    location    "12.99914";
    object      phi;
}
// * * * * * * * * * * * * * * * * * * * * * * * * * * * * * * * * * * * * * //

dimensions      [0 3 -1 0 0 0 0];

internalField   nonuniform List<scalar> 
34068
(
-1.7584951e-07
7.3197708e-08
1.026518e-07
-7.798653e-07
2.5180576e-07
3.5221002e-07
-1.9511015e-06
4.8841722e-07
6.8281901e-07
-3.8629556e-06
7.9657951e-07
1.1152746e-06
-6.7304277e-06
1.1924081e-06
1.675064e-06
-1.081855e-05
1.6948878e-06
2.3932341e-06
-1.6452119e-05
2.3262017e-06
3.3073673e-06
-2.402679e-05
3.1120306e-06
4.4626407e-06
-3.4021504e-05
4.0817925e-06
5.9129222e-06
-4.7012142e-05
5.2687839e-06
7.7218534e-06
-6.3686113e-05
6.7101551e-06
9.9638164e-06
-8.4857437e-05
8.4466642e-06
1.272466e-05
-0.00011148154
1.0522118e-05
1.6101983e-05
-0.00014466873
1.2982421e-05
2.0204776e-05
-0.00018569497
1.5874163e-05
2.5152072e-05
-0.00023600805
1.9242694e-05
3.1070383e-05
-0.0002972273
2.3129732e-05
3.8089526e-05
-0.00037113472
2.7570674e-05
4.6336745e-05
-0.00045965574
3.2591958e-05
5.5929054e-05
-0.0005648293
3.8209174e-05
6.6964389e-05
-0.00068876877
4.442692e-05
7.9512552e-05
-0.00083361862
5.1241787e-05
9.3608063e-05
-0.0010015166
5.8650031e-05
0.00010924794
-0.0011945761
6.6661252e-05
0.00012639825
-0.0014149077
7.5318218e-05
0.0001450134
-0.0016646998
8.4721304e-05
0.00016507077
-0.0019463752
9.5055241e-05
0.00018662016
-0.0022628016
0.00010660205
0.00020982438
-0.0026174773
0.00011972908
0.00023494662
-0.0030144284
0.00013476908
0.00026218203
-0.0034584915
0.00015223725
0.00029182586
-0.0039554581
0.00017276581
0.00032420072
-0.004512147
0.00019710326
0.00035958568
-0.0051364783
0.00022615097
0.00039818038
-0.0058375587
0.00026101227
0.00044006806
-0.0066257651
0.00030303361
0.00048517286
-0.0075128102
0.00035383633
0.00053320871
-0.0085117567
0.00041533439
0.00058361214
-0.009636943
0.00048973162
0.00063545466
-0.010903775
0.00057949081
0.00068734114
-0.012328347
0.00068729235
0.00073727999
-0.013926851
0.00081595661
0.00078254752
-0.015714747
0.0009682698
0.00081962598
-0.017705399
0.0011466787
0.00084397319
-0.019908078
0.0013529789
0.00084970003
-0.022328629
0.001589133
0.00083141805
-0.024969345
0.0018565314
0.00078418476
-0.027833501
0.0021575872
0.00070656895
-0.030910218
0.0024871217
0.00058959508
-0.034177783
0.0028383217
0.00042924336
-0.037601557
0.0031984881
0.00022528565
-0.04111932
0.0035426237
-2.4860272e-05
-0.044648086
0.003846605
-0.00031783993
-0.048146688
0.0041014307
-0.00060282782
-0.051313976
0.0041439266
-0.00097663864
-0.053740246
0.0038515616
-0.0014252919
-0.055056306
0.0031635296
-0.0018474695
-0.054371605
0.0016922314
-0.0023769323
-0.0504847
-0.0008386093
-0.0030482958
-0.042286127
-0.0045087309
-0.0036898423
-0.029500326
-0.0087280552
-0.0040577455
-0.012723398
-0.01261849
-0.0041584382
0.0062699875
-0.015176492
-0.0038168932
0.025991487
-0.016307551
-0.0034139484
-0.016729755
0.045790492
-0.0030692507
-1.7640187e-07
2.4959958e-07
-7.823192e-07
8.5772309e-07
-1.9572604e-06
1.6633584e-06
-3.8752932e-06
2.7146124e-06
-6.7523168e-06
4.0694317e-06
-1.0854566e-05
5.7971366e-06
-1.6508442e-05
7.9800784e-06
-2.4111729e-05
1.0715318e-05
-3.4146184e-05
1.4116247e-05
-4.719139e-05
1.8313989e-05
-6.3939611e-05
2.3458377e-05
-8.521117e-05
2.9718224e-05
-0.00011196965
3.7280595e-05
-0.00014533579
4.6348562e-05
-0.00018659876
5.7137134e-05
-0.00023722293
6.9866861e-05
-0.00029884808
8.4754881e-05
-0.00037328097
0.00010200356
-0.00046247649
0.00012178748
-0.00056850772
0.0001442404
-0.00069352627
0.00016944548
-0.00083971802
0.00019743353
-0.0010092634
0.00022819542
-0.0012043176
0.00026171542
-0.0014270293
0.0002980299
-0.0016796193
0.00033731138
-0.0019645369
0.00037997279
-0.0022846724
0.00042673754
-0.0026435463
0.00047860299
-0.0030452149
0.00053643768
-0.0034945579
0.00060158026
-0.0039974133
0.0006756212
-0.0045606532
0.0007603432
-0.0051922556
0.00085775334
-0.0059013852
0.0009701419
-0.0066984711
0.0011001195
-0.0075952613
0.0012506265
-0.0086048224
0.0014248955
-0.0097414437
0.0016263529
-0.011020402
0.0018584487
-0.012457529
0.0021244193
-0.01406859
0.0024270185
-0.015868356
0.0027680349
-0.017869101
0.0031474238
-0.020078611
0.0035624888
-0.022500328
0.0040108508
-0.025133745
0.0044899484
-0.02797803
0.0050018723
-0.03101693
0.0055260211
-0.034222149
0.0060435413
-0.037550899
0.0065272376
-0.040938987
0.0069307119
-0.044299749
0.0072073673
-0.047458202
0.0072598837
-0.050172755
0.0068584796
-0.052129532
0.0058083378
-0.052773608
0.0038076059
-0.051245576
0.00016419943
-0.046313742
-0.0057704431
-0.036845198
-0.013977275
-0.022624561
-0.022948691
-0.0044059883
-0.030837064
0.016069547
-0.035652027
0.03719912
-0.037437123
-0.037676166
0.058145531
-1.7195177e-07
4.2155135e-07
-7.6271786e-07
1.4484892e-06
-1.9085304e-06
2.8091709e-06
-3.7795002e-06
4.5855822e-06
-6.5867804e-06
6.8767119e-06
-1.0590984e-05
9.80134e-06
-1.6111929e-05
1.3501023e-05
-2.3539822e-05
1.8143211e-05
-3.3347833e-05
2.3924258e-05
-4.6106041e-05
3.1072197e-05
-6.2496462e-05
3.9848797e-05
-8.3328783e-05
5.0550544e-05
-0.00010955607
6.350788e-05
-0.00014228948
7.908198e-05
-0.00018281059
9.7658238e-05
-0.00023257948
0.00011963575
-0.00029323663
0.00014541204
-0.00036659627
0.00017536321
-0.00045462918
0.0002098204
-0.00055943407
0.00024904528
-0.00068319824
0.00029320965
-0.00082815197
0.00034238727
-0.00099652539
0.00039656884
-0.0011905223
0.00045571232
-0.0014123308
0.0005198384
-0.0016641921
0.00058917265
-0.0019485477
0.00066432841
-0.002268253
0.00074644288
-0.0026267678
0.0008371178
-0.0030281002
0.00093777007
-0.0034770777
0.0010505578
-0.0039794605
0.001178004
-0.0045420269
0.0013229096
-0.005172633
0.0014883594
-0.00588028
0.001677789
-0.00667517
0.0018950095
-0.0075687257
0.0021441822
-0.0085735454
0.0024297152
-0.009703259
0.0027560665
-0.010972232
0.0031274216
-0.012395019
0.0035472066
-0.013985624
0.0040176233
-0.015756429
0.0045388395
-0.017716434
0.0051074294
-0.019869452
0.0057155064
-0.022213193
0.0063545923
-0.024741476
0.0070182312
-0.027444882
0.0077052778
-0.030296744
0.0083778832
-0.033257903
0.0090047
-0.036272946
0.0095422809
-0.039263588
0.0099213536
-0.042112549
0.010056329
-0.044638972
0.0097863066
-0.046612596
0.0088321042
-0.047688828
0.0068845693
-0.047327419
0.0034461968
-0.044692353
-0.002470866
-0.038504403
-0.011958394
-0.027531156
-0.024950522
-0.011696363
-0.038783485
0.0078755989
-0.050409025
0.029444646
-0.057221075
0.051535977
-0.059528454
-0.059223304
0.073083115
-1.6222076e-07
5.8377211e-07
-7.1981423e-07
2.0060827e-06
-1.8017628e-06
3.8911194e-06
-3.5693086e-06
6.353128e-06
-6.2228629e-06
9.5302662e-06
-1.0010144e-05
1.3588622e-05
-1.5235682e-05
1.8726561e-05
-2.2271727e-05
2.5179256e-05
-3.1570681e-05
3.3223213e-05
-4.3678942e-05
4.3180458e-05
-5.9252051e-05
5.5421906e-05
-7.9070736e-05
7.036923e-05
-0.00010405733
8.8494474e-05
-0.00013529155
0.0001103162
-0.00017402445
0.00013639114
-0.00022168873
0.00016730003
-0.00027990337
0.00020362668
-0.0003504702
0.00024593003
-0.00043535995
0.00029471015
-0.00053668639
0.00035037172
-0.00065666846
0.00041319172
-0.00079758339
0.00048330219
-0.00096171841
0.00056070385
-0.0011513348
0.00064532867
-0.0013686631
0.00073716672
-0.0016159531
0.00083646267
-0.0018955996
0.00094397496
-0.0022103544
0.0010611976
-0.0025635235
0.001190287
-0.0029590731
0.0013333197
-0.0034016402
0.0014931249
-0.003896751
0.0016731148
-0.0044509255
0.0018770841
-0.0050717133
0.0021091471
-0.0057677274
0.0023738031
-0.0065486568
0.0026759389
-0.0074252302
0.0030207556
-0.008409114
0.003413599
-0.0095126821
0.0038596346
-0.010748603
0.0043633429
-0.01212918
0.0049277828
-0.013665385
0.0055538285
-0.015365612
0.0062390672
-0.017233519
0.0069753363
-0.019266929
0.007748916
-0.021456296
0.008543959
-0.023789299
0.009351235
-0.026243585
0.010159563
-0.028781734
0.010916033
-0.031354301
0.011577267
-0.033895329
0.012083308
-0.036316902
0.012342927
-0.038493061
0.012232487
-0.040244441
0.011537687
-0.041340482
0.0099281454
-0.041442282
0.0069863691
-0.040040837
0.0020447525
-0.036313865
-0.0061978385
-0.028938371
-0.019333888
-0.016578199
-0.037310694
0.00057700054
-0.055938684
0.020967971
-0.070799996
0.042808255
-0.079061359
0.064632184
-0.081352382
-0.080040743
0.085449622
-1.4719811e-07
7.3097022e-07
-6.5352517e-07
2.5124097e-06
-1.6366679e-06
4.8742622e-06
-3.2440112e-06
7.9604712e-06
-5.6591106e-06
1.1945366e-05
-9.1093815e-06
1.7038892e-05
-1.3875099e-05
2.3492278e-05
-2.0299895e-05
3.1604052e-05
-2.8802749e-05
4.1726067e-05
-3.9891628e-05
5.4269337e-05
-5.4178528e-05
6.9708806e-05
-7.2395864e-05
8.8586567e-05
-9.5413546e-05
0.00011151216
-0.00012425621
0.00013915886
-0.00016011921
0.00017225414
-0.00020438203
0.00021156285
-0.00025861676
0.00025786141
-0.00032458932
0.00031190259
-0.00040425073
0.00037437155
-0.00049971579
0.00044583678
-0.00061322818
0.00052670411
-0.00074711311
0.00061718713
-0.00090372309
0.00071731383
-0.0010853885
0.00082699406
-0.0012943914
0.00094616965
-0.0015329864
0.0010750576
-0.0018034864
0.001214475
-0.0021084459
0.0013661571
-0.0024509265
0.0015327675
-0.0028349336
0.0017173268
-0.0032647681
0.0019229594
-0.0037455204
0.0021538671
-0.0042832779
0.0024148416
-0.0048851039
0.002710973
-0.0055590045
0.0030477037
-0.006313869
0.0034308033
-0.0071593817
0.0038662683
-0.0081058717
0.0043600891
-0.0091639639
0.0049177268
-0.010343948
0.0055433268
-0.011655005
0.0062388398
-0.013104109
0.0070029326
-0.014694556
0.0078295145
-0.01642358
0.0087043605
-0.018281319
0.0096066547
-0.020251161
0.010513801
-0.02231589
0.011415964
-0.02443933
0.012283003
-0.026576227
0.01305293
-0.0286703
0.013671341
-0.030649639
0.014062648
-0.032421208
0.014114496
-0.033855458
0.013666737
-0.034773353
0.012455582
-0.034939994
0.010094786
-0.034023184
0.0060695589
-0.031541435
-0.00043699604
-0.026698942
-0.011040332
-0.018135882
-0.027896948
-0.0045097495
-0.050936826
0.01352144
-0.073969873
0.034066257
-0.091344813
0.055263795
-0.1002589
0.075675663
-0.10176425
-0.099033635
0.094668555
-1.2707496e-07
8.5804518e-07
-5.646762e-07
2.9500109e-06
-1.4152603e-06
5.7248463e-06
-2.8074775e-06
9.3526885e-06
-4.9020415e-06
1.403993e-05
-7.8987327e-06
2.0035584e-05
-1.2044725e-05
2.7638271e-05
-1.7644344e-05
3.720367e-05
-2.5070481e-05
4.9152204e-05
-3.4777668e-05
6.3976524e-05
-4.7316909e-05
8.2248047e-05
-6.3352163e-05
0.00010462182
-8.3678211e-05
0.0001318382
-0.00010923928
0.00016471993
-0.0001411476
0.00020416246
-0.00018070045
0.0002511157
-0.00022939369
0.00030655465
-0.00028892923
0.00037143813
-0.0003612132
0.00044665552
-0.00044834171
0.0005329653
-0.00055257104
0.00063093344
-0.00067627169
0.00074088778
-0.0008218686
0.00086291073
-0.00099177632
0.00099690178
-0.0011883464
0.0011427398
-0.0014138512
0.0013005624
-0.0016705252
0.001471149
-0.0019607105
0.0016563424
-0.0022871871
0.0018592442
-0.0026537044
0.0020838441
-0.003064217
0.002333472
-0.0035233056
0.0026129558
-0.0040364624
0.0029279984
-0.0046100717
0.0032845823
-0.0052512983
0.0036889303
-0.0059679849
0.0041474899
-0.0067685349
0.0046668184
-0.0076616009
0.005253155
-0.0086555654
0.0059116913
-0.0097578532
0.0066456146
-0.010974007
0.0074549934
-0.012306454
0.0083353799
-0.013752875
0.0092759356
-0.015304396
0.010255881
-0.016943577
0.011245835
-0.018648202
0.012218426
-0.020395049
0.013162811
-0.022139779
0.014027734
-0.023832679
0.01474583
-0.025413996
0.015252657
-0.026808921
0.015457572
-0.027920723
0.015226298
-0.02861391
0.014359924
-0.028700421
0.012542093
-0.027928114
0.0093224793
-0.025958498
0.0040999433
-0.022322099
-0.0040733954
-0.016255359
-0.017107072
-0.0063785297
-0.037773777
0.0083132652
-0.065628621
0.026716564
-0.092373172
0.046668451
-0.1112967
0.066289138
-0.11987958
0.084417923
-0.11989303
-0.11560387
0.10098816
-1.0231577e-07
9.6036095e-07
-4.5528651e-07
3.3029817e-06
-1.1425034e-06
6.4120632e-06
-2.2693581e-06
1.0479543e-05
-3.9681156e-06
1.5738687e-05
-6.4040537e-06
2.2471522e-05
-9.7828284e-06
3.1017046e-05
-1.4359295e-05
4.1780137e-05
-2.0447968e-05
5.5240877e-05
-2.8435323e-05
7.1963879e-05
-3.879407e-05
9.2606794e-05
-5.2099553e-05
0.0001179273
-6.9048036e-05
0.00014878669
-9.0476894e-05
0.00018614879
-0.00011738577
0.00023107134
-0.0001509578
0.00028468773
-0.00019257909
0.00034817594
-0.00024385384
0.00042271287
-0.00030661157
0.00050941326
-0.00038290254
0.00060925627
-0.00047497649
0.00072300739
-0.0005852409
0.00085115218
-0.00071619837
0.0009938682
-0.00087036735
0.0011510708
-0.0010501997
0.0013225721
-0.0012580211
0.0015083837
-0.0014960253
0.0017091532
-0.0017663724
0.0019266895
-0.0020714726
0.0021643443
-0.0024143296
0.0024267011
-0.0027988085
0.0027179509
-0.0032289232
0.0030430705
-0.003709369
0.0034084441
-0.004245634
0.0038208473
-0.0048438635
0.0042871599
-0.0055107058
0.0048143322
-0.0062530392
0.0054091517
-0.0070775326
0.0060776484
-0.0079900615
0.0068242201
-0.0089949312
0.0076504844
-0.010093832
0.0085538938
-0.011284577
0.0095261257
-0.012559402
0.01055076
-0.013904164
0.011600643
-0.015295814
0.012637486
-0.016709454
0.013632065
-0.018114107
0.014567464
-0.019462711
0.015376338
-0.020703766
0.015986885
-0.021776074
0.016324965
-0.022602082
0.01628358
-0.023079141
0.015703357
-0.023061729
0.014342512
-0.02234681
0.011827174
-0.020654854
0.0076305233
-0.017627628
0.0010727172
-0.012779937
-0.0089210858
-0.0053329837
-0.024554026
0.0059704937
-0.049077254
0.021518694
-0.081176821
0.039738803
-0.11059328
0.058259062
-0.12981696
0.075516946
-0.13713747
0.090884904
-0.13526099
-0.12969026
0.10497129
-7.3712538e-08
1.0340735e-06
-3.2880136e-07
3.5580705e-06
-8.2688684e-07
6.9101487e-06
-1.6462101e-06
1.1298866e-05
-2.8857388e-06
1.6978216e-05
-4.6702047e-06
2.4255988e-05
-7.156295e-06
3.3503136e-05
-1.0540244e-05
4.5164086e-05
-1.5067016e-05
5.9767649e-05
-2.1041467e-05
7.793833e-05
-2.8841697e-05
0.00010040702
-3.8934864e-05
0.00012802047
-5.1895778e-05
0.0001617476
-6.8428081e-05
0.00020268109
-8.9388098e-05
0.00025203135
-0.0001158103
0.00031110993
-0.00014893329
0.00038129893
-0.00019022385
0.00046400344
-0.0002413955
0.0005605849
-0.00030441627
0.00067227704
-0.00038150006
0.00080009119
-0.00047507439
0.00094472651
-0.00058771947
0.0011065133
-0.00072207769
0.001285429
-0.00088074235
0.0014812368
-0.0010661476
0.001693789
-0.0012804981
0.0019235037
-0.0015257631
0.0021719545
-0.0018038081
0.0024423894
-0.0021168617
0.0027397547
-0.002468568
0.0030696572
-0.0028625648
0.0034370672
-0.0033024676
0.003848347
-0.0037926761
0.0043110557
-0.0043381805
0.0048326643
-0.0049442673
0.0054204191
-0.0056161063
0.0060809907
-0.0063582476
0.0068197898
-0.007173975
0.0076399475
-0.0080644439
0.0085409534
-0.0090276195
0.0095170694
-0.010057101
0.010555607
-0.011140545
0.011634204
-0.012259169
0.012719267
-0.013387147
0.013765463
-0.014498566
0.014743484
-0.015554988
0.015623886
-0.016508807
0.016330157
-0.017307496
0.016785574
-0.017887331
0.0169048
-0.018164994
0.016561243
-0.018028859
0.015567221
-0.017321688
0.013635342
-0.015820614
0.010326099
-0.013214734
0.0050246432
-0.0091215908
-0.0030204257
-0.0030424707
-0.015000206
0.005872696
-0.033469193
0.018592053
-0.061796611
0.034694905
-0.097279673
0.052067551
-0.12796593
0.068456562
-0.14620597
0.082802377
-0.15148328
0.095388815
-0.14784743
-0.14168046
0.10737902
-4.2293468e-08
1.076367e-06
-1.8974789e-07
3.7055249e-06
-4.7964293e-07
7.2000437e-06
-9.6005916e-07
1.1779283e-05
-1.6928388e-06
1.7710995e-05
-2.7573466e-06
2.5320496e-05
-4.2552564e-06
3.5001046e-05
-6.3165604e-06
4.722539e-05
-9.1072055e-06
6.2558294e-05
-1.2838638e-05
8.1669762e-05
-1.7779752e-05
0.00010534814
-2.4271678e-05
0.0001345124
-3.2745932e-05
0.00017022185
-4.3746164e-05
0.00021368133
-5.7954041e-05
0.00026623923
-7.6218805e-05
0.00032937469
-9.9589868e-05
0.00040466999
-0.00012935033
0.0004937639
-0.00016704849
0.00059828306
-0.00021452141
0.00071974997
-0.00027390307
0.00085947284
-0.00034760791
0.0010184313
-0.00043827881
0.0011971842
-0.00054869261
0.0013958428
-0.00068162331
0.0016141675
-0.00083967851
0.0018518442
-0.0010251458
0.002108971
-0.0012399032
0.0023867118
-0.0014854658
0.002687952
-0.0017633051
0.003017594
-0.0020757341
0.0033820862
-0.0024262472
0.0037875804
-0.0028180139
0.0042401136
-0.0032540413
0.0047470831
-0.0037378803
0.0053165033
-0.0042733011
0.0059558399
-0.004863678
0.0066713676
-0.0055114206
0.0074675324
-0.0062172874
0.0083458143
-0.0069794839
0.0093031498
-0.0077926534
0.010330239
-0.0086468301
0.011409784
-0.0095264518
0.012513826
-0.010408898
0.013601713
-0.011267134
0.014623699
-0.012072859
0.015549209
-0.012783321
0.016334348
-0.013350038
0.016896873
-0.013717577
0.017153114
-0.013816668
0.017003891
-0.013555368
0.016299943
-0.012810782
0.014822636
-0.011412496
0.012237056
-0.0091120584
0.0080256614
-0.0055698384
0.0014824233
-0.00039383793
-0.0081964262
0.0069137267
-0.022307771
0.017288701
-0.043844167
0.031245714
-0.075753624
0.047404592
-0.11343855
0.063184783
-0.14374612
0.076861241
-0.15988243
0.088216075
-0.16283812
0.09842101
-0.15805236
-0.1522303
0.10897085
-9.3635904e-09
1.0857305e-06
-4.3866744e-08
3.7400281e-06
-1.1502144e-07
7.2711984e-06
-2.3887238e-07
1.1903134e-05
-4.3769414e-07
1.7909817e-05
-7.4229056e-07
2.5625092e-05
-1.1951314e-06
3.5453887e-05
-1.854544e-06
4.7884802e-05
-2.8003916e-06
6.3504142e-05
-4.1415585e-06
8.3010929e-05
-6.0259798e-06
0.00010723256
-8.6536074e-06
0.00013714003
-1.2293339e-05
0.00017386159
-1.7304519e-05
0.00021869251
-2.4163808e-05
0.00027309852
-3.3497917e-05
0.0003387088
-4.6122056e-05
0.00041729413
-6.3083263e-05
0.00051072511
-8.5705398e-05
0.0006209052
-0.00011563102
0.00074967559
-0.00015485145
0.00089869327
-0.00020571283
0.0010692927
-0.00027088362
0.001262355
-0.00035326777
0.0014782269
-0.00045585446
0.0017167542
-0.00058150843
0.0019774981
-0.00073273311
0.0022601957
-0.00091147099
0.0025654497
-0.0011190308
0.0028955118
-0.0013562678
0.003254831
-0.0016240643
0.0036498827
-0.0019245044
0.0040880205
-0.0022605383
0.0045761475
-0.0026345446
0.0051210894
-0.003048555
0.0057305137
-0.0035045927
0.0064118776
-0.0040041177
0.0071708926
-0.0045473643
0.0080107791
-0.0051327453
0.0089311953
-0.005755846
0.0099262505
-0.0064085144
0.010982907
-0.0070778969
0.012079167
-0.0077459764
0.013181906
-0.0083879381
0.014243675
-0.0089761885
0.015211949
-0.0094772064
0.016050227
-0.0098460263
0.016703168
-0.010031668
0.017082516
-0.0099735721
0.017095017
-0.0095944372
0.016624756
-0.0087915397
0.015497045
-0.0074284637
0.01345956
-0.0053189242
0.010127517
-0.0021897142
0.0048964513
0.0023165076
-0.0030237985
0.0085590546
-0.014438973
0.017081338
-0.030830054
0.028848621
-0.055611451
0.043629814
-0.090534817
0.059147046
-0.12895578
0.072654872
-0.15725394
0.08335045
-0.17057801
0.09202429
-0.17151196
0.10051067
-0.16653874
-0.16203455
0.11031492
2.3531458e-08
1.0621991e-06
1.0203944e-07
3.6615201e-06
2.5005648e-07
7.1231813e-06
4.8404513e-07
1.1669145e-05
8.2205677e-07
1.7571805e-05
1.2830185e-06
2.516413e-05
1.8854479e-06
3.4851457e-05
2.6453072e-06
4.7124943e-05
3.5726766e-06
6.2576772e-05
4.6667165e-06
8.1916889e-05
5.9083288e-06
0.00010599095
7.2496147e-06
0.00013579874
8.5993126e-06
0.00017251189
9.8027707e-06
0.00021748905
1.0615576e-05
0.00027228571
1.066922e-05
0.00033865516
9.4281467e-06
0.0004185352
6.1383621e-06
0.00051401489
-2.3112056e-07
0.00062727468
-1.1049587e-05
0.00076049405
-2.8080194e-05
0.00091572388
-5.351645e-05
0.001094729
-8.9981245e-05
0.0012988198
-0.0001404648
0.0015287105
-0.00020817998
0.0017844694
-0.00029632525
0.0020656434
-0.00040776903
0.0023716395
-0.0005447226
0.0027024033
-0.0007085094
0.0030592986
-0.00089957333
0.0034458949
-0.0011178615
0.0038681709
-0.0013635866
0.0043337455
-0.0016378967
0.0048504577
-0.0019425692
0.0054257618
-0.0022790349
0.0060669795
-0.0026477591
0.0067806018
-0.0030482376
0.0075713711
-0.0034786572
0.0084411987
-0.0039352121
0.0093877502
-0.0044111501
0.010402188
-0.0048960078
0.011467765
-0.0053748267
0.012557985
-0.005827397
0.013634476
-0.0062277507
0.014644029
-0.0065465678
0.015530767
-0.0067449758
0.016248635
-0.006775113
0.016733305
-0.0065816866
0.016889089
-0.0060974207
0.016610751
-0.005234767
0.015762102
-0.0038783223
0.014140601
-0.0018777576
0.011458995
0.00096858272
0.0072811763
0.0049571979
0.00090783616
0.01043004
-0.0084966411
0.017693516
-0.021702449
0.027419132
-0.040555669
0.040392579
-0.068584898
0.055365298
-0.10550754
0.069434033
-0.14302452
0.080214214
-0.16803412
0.088036362
-0.17840016
0.094629099
-0.17810469
0.10213346
-0.17404311
-0.17163308
0.11173198
5.4673514e-08
1.0075256e-06
2.4037622e-07
3.4758174e-06
5.9666143e-07
6.7668961e-06
1.1713515e-06
1.1094455e-05
2.021621e-06
1.6721536e-05
3.2149135e-06
2.3970838e-05
4.829636e-06
3.3236735e-05
6.9552865e-06
4.4999293e-05
9.6917311e-06
5.9840328e-05
1.3147123e-05
7.8461497e-05
1.7433742e-05
0.00010170433
2.266096e-05
0.00013057152
2.8923982e-05
0.00016624887
3.628703e-05
0.000210126
4.4759166e-05
0.00026381358
5.4260761e-05
0.00032915356
6.4578862e-05
0.0004082171
7.5309927e-05
0.00050328383
8.5790015e-05
0.00061679459
9.5015232e-05
0.00075126884
0.00010155855
0.00090918056
0.0001034968
0.0010927907
9.8368759e-05
0.0013039478
8.3193224e-05
0.001543886
5.4581666e-05
0.0018130809
8.9743638e-06
0.0021112507
-5.6998727e-05
0.0024376126
-0.00014606624
0.0027914708
-0.00025988392
0.0031731163
-0.00039881281
0.0035848238
-0.00056211665
0.0040314748
-0.00074863202
0.0045202609
-0.00095762848
0.0050594541
-0.0011890514
0.0056571848
-0.0014427615
0.0063206896
-0.0017179832
0.0070558234
-0.00201283
0.007866218
-0.0023239084
0.0087522771
-0.0026454472
0.009709289
-0.0029686084
0.01072535
-0.0032809081
0.011780065
-0.0035655464
0.012842624
-0.0038003474
0.013869277
-0.0039581658
0.014801847
-0.0040060289
0.01557863
-0.0039010291
0.016143636
-0.0035914038
0.01642368
-0.0030159404
0.016313626
-0.0020990963
0.015693907
-0.00074272442
0.01440573
0.001179811
0.012218065
0.0038318206
0.0088069852
0.0074371322
0.0036758647
0.012302042
-0.003957074
0.018696513
-0.014891112
0.026923181
-0.029929116
0.037791739
-0.051424228
0.051570478
-0.082363637
0.066026843
-0.1199639
0.077801477
-0.15479915
0.085778707
-0.17601135
0.091164107
-0.18378556
0.096457646
-0.18339823
0.10361499
-0.18120045
-0.18132809
0.11331
8.2228565e-08
9.2529701e-07
3.6301999e-07
3.195026e-06
9.0447996e-07
6.2254362e-06
1.7828778e-06
1.0216057e-05
3.0910736e-06
1.541334e-05
4.9411346e-06
2.2120777e-05
7.4669769e-06
3.0710892e-05
1.08269e-05
4.163937e-05
1.5205661e-05
5.5461566e-05
2.0815671e-05
7.2851488e-05
2.7896667e-05
9.462333e-05
3.6712838e-05
0.00012175535
4.7546289e-05
0.00015541541
6.0685e-05
0.00019698729
7.6403232e-05
0.00024809534
9.4931787e-05
0.00031062501
0.00011641521
0.00038673368
0.00014085297
0.00047884606
0.00016802297
0.0005896246
0.00019738672
0.00072190509
0.00022798081
0.00087858647
0.00025830484
0.0010624667
0.00028622651
0.0012760261
0.00030893666
0.0015211759
0.00032299762
0.00179902
0.00032453475
0.0021097136
0.00030960749
0.0024525399
0.00027474999
0.0028263283
0.00021759053
0.0032302758
0.00013736025
0.0036650541
3.5017408e-05
0.0041338176
-8.7243826e-05
0.0046425221
-0.00022689588
0.0051991062
-0.0003816931
0.005811982
-0.00054958562
0.0064885821
-0.00072815504
0.0072343928
-0.00091400635
0.0080520693
-0.0011020415
0.0089403122
-0.0012847302
0.0098919777
-0.0014515312
0.010892151
-0.0015881309
0.011916664
-0.0016756979
0.012930191
-0.0016901174
0.013883697
-0.0016024207
0.014714151
-0.0013764069
0.015352616
-0.00096533567
0.015732564
-0.00031213419
0.015770479
0.00065051489
0.015350977
0.0020068372
0.014337585
0.0038646456
0.012547922
0.0063607174
0.0097219935
0.0096730348
0.0054946679
0.014050366
-0.00070146671
0.019768901
-0.0096756089
0.026989389
-0.0221116
0.036109957
-0.039049684
0.047959142
-0.063273413
0.061977614
-0.096382109
0.075155807
-0.13314209
0.084220343
-0.16386369
0.089496513
-0.18128752
0.093165509
-0.18745455
0.097898717
-0.18813144
0.10511707
-0.1884188
-0.19119071
0.11497969
1.0442466e-07
8.2087235e-07
4.6209183e-07
2.8373588e-06
1.1537603e-06
5.5337676e-06
2.2794045e-06
9.0904129e-06
3.9619039e-06
1.3730841e-05
6.3511883e-06
1.9731492e-05
9.6288255e-06
2.7433255e-05
1.4012852e-05
3.7255343e-05
1.9762746e-05
4.9711672e-05
2.7184061e-05
6.5430173e-05
3.6632222e-05
8.5175169e-05
4.8514614e-05
0.00010987296
6.3289718e-05
0.00014064031
8.1461551e-05
0.00017881546
0.00010356707
0.00022598983
0.00013015352
0.00028403856
0.00016174204
0.00035514516
0.00019877314
0.00044181496
0.00024153001
0.00054686773
0.00029003633
0.00067339877
0.00034392854
0.00082469425
0.00040230862
0.0010040866
0.00046359338
0.0012147414
0.00052539157
0.0014593777
0.00058445853
0.001739953
0.00063679268
0.0020573794
0.00067794276
0.0024113898
0.00070356449
0.0028007066
0.00071018769
0.0032236526
0.00069602602
0.0036792158
0.000661528
0.0041683156
0.00060927898
0.0046947711
0.00054346001
0.0052649251
0.00046849714
0.0058869449
0.00038882264
0.0065682566
0.00030891535
0.0073143001
0.00023399551
0.0081269891
0.00017095736
0.0090033504
0.00012901352
0.0099339216
0.00012045549
0.010900709
0.00016146406
0.011875656
0.0002728894
0.012818765
0.00048064831
0.013675938
0.00081607155
0.014378727
0.0013183227
0.014850365
0.0020382575
0.01501263
0.0030384425
0.014770294
0.0043927963
0.013996623
0.0061937605
0.012536621
0.0085585399
0.010183142
0.011633065
0.0066474679
0.01561453
0.001513203
0.020755136
-0.0058420719
0.027232556
-0.016153029
0.035141095
-0.030020139
0.045075613
-0.048984202
0.057637936
-0.075835735
0.071203292
-0.10994746
0.082209544
-0.14414835
0.088491141
-0.17014529
0.091688559
-0.18448494
0.09448663
-0.19025262
0.09919755
-0.19284236
0.10664099
-0.19586224
-0.20115116
0.11660143
1.1977285e-07
7.0109949e-07
5.3092927e-07
2.4262024e-06
1.3277036e-06
4.7369933e-06
2.6274145e-06
7.7907021e-06
4.5751944e-06
1.1783061e-05
7.349499e-06
1.6957188e-05
1.1168322e-05
2.3614433e-05
1.6296218e-05
3.2127447e-05
2.3051915e-05
4.2955975e-05
3.1816349e-05
5.6665739e-05
4.3040677e-05
7.3950841e-05
5.7253644e-05
9.5659992e-05
7.5067037e-05
0.00012282692
9.717797e-05
0.00015670452
0.00012436534
0.00019880245
0.00015747759
0.00025092631
0.00019740729
0.00031521546
0.00024504773
0.00039417452
0.00030122465
0.00049069081
0.00036659758
0.00060802584
0.0004415253
0.00074976653
0.00052589508
0.00091971685
0.00061892412
0.0011217123
0.00071895684
0.001359345
0.00082330415
0.0016356057
0.00092819796
0.0019524856
0.0010289547
0.0023106331
0.0011204397
0.0027092215
0.0011978707
0.0031462215
0.0012578699
0.0036192166
0.0012994759
0.0041267096
0.0013246968
0.0046695503
0.00133824
0.0052513819
0.0013464584
0.0058787265
0.0013569369
0.0065577782
0.0013764403
0.0072947967
0.0014128728
0.0080905566
0.0014751085
0.0089411146
0.0015740794
0.0098349507
0.0017239305
0.010750858
0.0019427792
0.011656807
0.0022534886
0.012508056
0.0026840748
0.013245351
0.0032685513
0.013794251
0.0040492174
0.014069699
0.005080974
0.013980873
0.0064317241
0.013419544
0.0081821641
0.012246183
0.010432721
0.010286064
0.013307752
0.0073081108
0.016963612
0.0029916076
0.021609927
-0.0031331113
0.027439074
-0.01167122
0.03449329
-0.023207245
0.042949884
-0.038476734
0.053640625
-0.059674943
0.066539561
-0.088734671
0.078821873
-0.12222978
0.087035743
-0.15236222
0.090858997
-0.17396854
0.092822199
-0.18644814
0.095451521
-0.19288194
0.10043686
-0.1978277
0.10809179
-0.20351716
-0.21110042
0.11804104
1.2730088e-07
5.7379862e-07
5.6513835e-07
1.9883649e-06
1.415132e-06
3.8869996e-06
2.8043769e-06
6.4014572e-06
4.8909523e-06
9.6964854e-06
7.8703906e-06
1.3977749e-05
1.1983261e-05
1.9501562e-05
1.7523888e-05
2.658682e-05
2.4850248e-05
3.5629615e-05
3.4395012e-05
4.7120976e-05
4.6677452e-05
6.1668401e-05
6.2315829e-05
8.0021614e-05
8.203951e-05
0.00010310324
0.0001066994
0.00013204463
0.00013727498
0.00016822687
0.00017487477
0.00021332653
0.00022072625
0.00026936398
0.0002761494
0.00033875137
0.00034250686
0.00042433335
0.0004211213
0.0005294114
0.0005131513
0.00065773653
0.00061941734
0.00081345081
0.00074017641
0.0010009533
0.00087485572
0.0012246657
0.0010217791
0.0014886823
0.0011779521
0.0017963127
0.0013390103
0.0021495748
0.0014994655
0.0025487663
0.0016533705
0.0029923165
0.0017954348
0.0034771522
0.0019224327
0.0039997118
0.00203455
0.0045574329
0.0021355808
0.0051503511
0.0022327845
0.0057815228
0.0023357472
0.0064548154
0.0024538188
0.0071767252
0.0026004376
0.0079439378
0.0027862333
0.0087553189
0.0030243567
0.0095968273
0.0033308037
0.01044441
0.0037257531
0.011261858
0.0042343508
0.011999458
0.0048870799
0.012592622
0.0057208461
0.012960485
0.0067814199
0.013009125
0.0081274718
0.012634821
0.0098315769
0.011715438
0.011980697
0.010097063
0.014681088
0.0075856727
0.018062248
0.0039269509
0.022290856
-0.0012370006
0.027543089
-0.0083853442
0.033875197
-0.018003327
0.041277364
-0.030609412
0.050263188
-0.047462558
0.061702825
-0.07111458
0.07432541
-0.10135726
0.084411406
-0.13231577
0.089905019
-0.15785583
0.092018581
-0.1760821
0.093311133
-0.1877407
0.096233214
-0.19580403
0.10159227
-0.20318676
0.10935785
-0.21128275
-0.22095581
0.11921325
1.2679059e-07
4.4700803e-07
5.6364154e-07
1.551514e-06
1.4131097e-06
3.0375314e-06
2.8039982e-06
5.0105688e-06
4.8972581e-06
7.6032255e-06
7.8930593e-06
1.0981948e-05
1.2039173e-05
1.5355448e-05
1.7640861e-05
2.0985132e-05
2.5072433e-05
2.8198043e-05
3.4790522e-05
3.7402887e-05
4.7349185e-05
4.9109737e-05
6.3416597e-05
6.3954203e-05
8.3793036e-05
8.2726798e-05
0.00010942931
0.00010640836
0.0001414442
0.00013621198
0.00018113877
0.00017363195
0.00023000378
0.00022049898
0.00028971514
0.00027904001
0.00036210982
0.00035193866
0.00044913237
0.00044238886
0.00055273939
0.0005541295
0.00067474838