/*--------------------------------*- C++ -*----------------------------------*\
  =========                 |
  \\      /  F ield         | OpenFOAM: The Open Source CFD Toolbox
   \\    /   O peration     | Website:  https://openfoam.org
    \\  /    A nd           | Version:  13
     \\/     M anipulation  |
\*---------------------------------------------------------------------------*/
FoamFile
{
    format      ascii;
    class       volScalarField;
    location    "16.996256";
    object      k;
}
// * * * * * * * * * * * * * * * * * * * * * * * * * * * * * * * * * * * * * //

dimensions      [0 2 -2 0 0 0 0];

internalField   nonuniform List<scalar> 
17140
(
2.7783752e-10
8.7306115e-09
7.1392648e-08
3.0702829e-07
9.4478856e-07
2.3840098e-06
5.2860956e-06
1.0711588e-05
2.0321893e-05
3.6673246e-05
6.3641119e-05
0.00010702679
0.00017541395
0.00028135999
0.00044301887
0.00068628719
0.0010475152
0.0015766775
0.0023405564
0.0034247951
0.0049324302
0.0069746245
0.0096474585
0.012989665
0.016926772
0.021232721
0.025561389
0.029561514
0.032992177
0.03575189
0.037930836
0.039622871
0.040767641
0.041363177
0.041560988
0.041500424
0.04124438
0.040915738
0.040599605
0.040342866
0.040162219
0.040059607
0.040023519
0.040026657
0.040039838
0.040005771
0.039909014
0.039809228
0.039626914
0.039279303
0.038682531
0.037681205
0.036174387
0.034077206
0.031495371
0.028629828
0.025868953
0.023411605
0.021431598
0.02011681
0.019323353
0.01841624
0.016442684
0.013262621
0.0098435691
2.7541134e-10
8.6543728e-09
7.0769399e-08
3.0434935e-07
9.3655027e-07
2.3632368e-06
5.2400722e-06
1.0618414e-05
2.0145317e-05
3.6355014e-05
6.3089778e-05
0.00010610152
0.00017390155
0.00027894273
0.0004392306
0.00068045544
0.0010386887
0.0015635428
0.0023213575
0.0033972897
0.0048939491
0.0069223469
0.0095790493
0.012904351
0.016826611
0.0211232
0.025450364
0.029456932
0.032900812
0.035679558
0.037877388
0.039587757
0.04076755
0.041407821
0.041636259
0.041618783
0.041411849
0.0411372
0.040882164
0.04069823
0.040609642
0.040597905
0.040673804
0.040817633
0.04100268
0.041189122
0.041375415
0.041629152
0.041878492
0.042039888
0.042107753
0.041915309
0.041352227
0.040229854
0.038583243
0.036376734
0.03389597
0.031224238
0.02868945
0.026692478
0.025289253
0.023920162
0.021526819
0.018185244
0.013569456
2.6967204e-10
8.474024e-09
6.9294629e-08
2.9800702e-07
9.1703375e-07
2.3139913e-06
5.1308861e-06
1.0397191e-05
1.9725716e-05
3.5598107e-05
6.1777154e-05
0.00010389635
0.000170293
0.00027316806
0.00043016846
0.00066648427
0.0010175079
0.0015319646
0.0022751006
0.003330852
0.0048007167
0.0067952086
0.0094118725
0.012694535
0.016578172
0.020848377
0.025167258
0.029183939
0.032653006
0.035468838
0.03770126
0.039444154
0.040684244
0.041399551
0.041691766
0.041743226
0.041623631
0.041440899
0.041297351
0.041241331
0.041281061
0.041439583
0.0417146
0.042097673
0.042579251
0.043151398
0.043820786
0.044652192
0.045616535
0.04668794
0.047850335
0.049021672
0.050127567
0.050841299
0.051132595
0.050672951
0.049561191
0.047704071
0.045170873
0.042351129
0.039368324
0.035743283
0.0301223
0.022785549
0.015446893
2.6059549e-10
8.1888073e-09
6.6962331e-08
2.8797691e-07
8.8616984e-07
2.2361158e-06
4.9582295e-06
1.0047387e-05
1.9062269e-05
3.4401396e-05
5.9701916e-05
0.0001004101
0.00016458811
0.00026403841
0.00041584016
0.00064439075
0.0009840048
0.0014819959
0.0022018632
0.0032255781
0.0046528179
0.0065932053
0.0091456776
0.012359464
0.016179892
0.020405682
0.024708552
0.028738228
0.032243534
0.035113188
0.037390673
0.039175057
0.040487294
0.041309024
0.041715708
0.041854668
0.041853914
0.041806802
0.041799104
0.04189816
0.04213102
0.04251476
0.043054268
0.043752443
0.04461705
0.045668798
0.046934783
0.048461772
0.050248626
0.052290358
0.054593077
0.057125201
0.059814524
0.062481718
0.064841806
0.066097141
0.066447669
0.065781392
0.063645343
0.060174513
0.055112589
0.047573138
0.035726553
0.023841869
0.014173367
2.4838839e-10
7.8052187e-09
6.3825632e-08
2.7448756e-07
8.4466211e-07
2.1313866e-06
4.7260437e-06
9.576995e-06
1.8170147e-05
3.2792271e-05
5.69116e-05
9.5722672e-05
0.00015691762
0.00025176272
0.0003965727
0.0006146765
0.00093893355
0.0014147461
0.0021032366
0.0030836804
0.004453205
0.0063200581
0.008784778
0.011903532
0.01563537
0.019796932
0.02407369
0.028116912
0.031667484
0.034606318
0.036935464
0.038762188
0.040157336
0.041104685
0.041654036
0.041930249
0.042066064
0.042165546
0.042325851
0.04261596
0.043073725
0.043720628
0.044569298
0.045632856
0.046930808
0.0484964
0.050381671
0.052610036
0.055194576
0.058144137
0.061472364
0.0651604
0.06914089
0.073253769
0.077179913
0.080131814
0.08156
0.081797072
0.080081665
0.076233414
0.06934754
0.057197874
0.038009105
0.021786506
0.010764067
2.3338331e-10
7.333708e-09
5.9969977e-08
2.5790637e-07
7.9364064e-07
2.0026537e-06
4.4406427e-06
8.9987944e-06
1.7073557e-05
3.081432e-05
5.3481614e-05
8.9960351e-05
0.00014748731
0.00023666843
0.00037287603
0.00057811955
0.00088345663
0.0013319133
0.0019816377
0.0029084886
0.0042062721
0.0059812239
0.0083353585
0.011332766
0.014948953
0.019022943
0.023258461
0.027309765
0.030906654
0.033917486
0.036324573
0.038213523
0.039683692
0.040756338
0.041464523
0.041898465
0.042193504
0.042462702
0.042807866
0.043305312
0.044002848
0.044929927
0.046107746
0.047558574
0.049308624
0.051392888
0.053859385
0.056741807
0.060055998
0.063817412
0.068016265
0.072613101
0.077513448
0.082540569
0.08737741
0.091517667
0.093794994
0.09440377
0.092845388
0.088615366
0.080133685
0.061932994
0.037271048
0.017793635
0.0074124897
2.1594306e-10
6.7856766e-09
5.5488598e-08
2.3863425e-07
7.343389e-07
1.8530283e-06
4.1089214e-06
8.3267448e-06
1.5798949e-05
2.8515183e-05
4.9494408e-05
8.3261255e-05
0.00013652229
0.00021911387
0.00034530825
0.00053557139
0.00081884643
0.0012353568
0.0018397135
0.0027036533
0.0039168481
0.0055827316
0.0078043334
0.01065411
0.014126174
0.018086295
0.022261927
0.026313648
0.029958659
0.033048605
0.035556434
0.037524438
0.039057062
0.040240293
0.041103464
0.041715916
0.042174215
0.042624986
0.043161941
0.043867327
0.044799674
0.045999285
0.047496634
0.049324091
0.051513031
0.054096169
0.057103256
0.060567227
0.064501184
0.068891805
0.073710979
0.078902324
0.084360981
0.089910941
0.095245997
0.099874564
0.10254863
0.10313931
0.10129904
0.096300293
0.085641554
0.062621328
0.031744278
0.012557035
0.0044143645
1.9645197e-10
6.1732005e-09
5.0480232e-08
2.1709574e-07
6.6806275e-07
1.685803e-06
3.7381716e-06
7.5755963e-06
1.4374242e-05
2.594509e-05
4.503679e-05
7.5770575e-05
0.00012425882
0.00019947424
0.00031445235
0.00048791906
0.00074642407
0.001126999
0.0016801874
0.0024729053
0.0035898201
0.0051305855
0.0071983786
0.0098737842
0.013170847
0.016986001
0.02107661
0.025114646
0.028804396
0.031974741
0.034583179
0.036666103
0.038294722
0.039563897
0.040553235
0.041327019
0.041973383
0.04258612
0.043301504
0.044203093
0.045348228
0.04679078
0.048574118
0.050741629
0.053325378
0.056350002
0.059826287
0.06375789
0.068146629
0.072950394
0.07812197
0.083597202
0.089270941
0.094971323
0.10039114
0.1050316
0.10758358
0.10777538
0.10516995
0.09907532
0.086471832
0.055967801
0.023227872
0.0076265005
0.0025987002
1.753244e-10
5.5092993e-09
4.5051325e-08
1.9374855e-07
5.9622009e-07
1.5045278e-06
3.3362552e-06
6.761255e-06
1.2829547e-05
2.3158223e-05
4.0202418e-05
6.7644999e-05
0.00011095189
0.00017815473
0.00028093825
0.00043612158
0.00066761901
0.0010089223
0.0015060128
0.0022202964
0.0032305041
0.0046313245
0.0065247547
0.008998463
0.012086692
0.01571972
0.019691685
0.023693585
0.027419357
0.030670649
0.033381929
0.03557863
0.037328385
0.038713799
0.039820199
0.04072927
0.041529091
0.042317628
0.043181062
0.04422631
0.045555977
0.047213972
0.049248474
0.051703918
0.054610337
0.057984565
0.061818266
0.066073119
0.070735649
0.075738178
0.081011819
0.086486502
0.092055173
0.09754408
0.10263955
0.10675677
0.10887431
0.10824629
0.10479749
0.097334292
0.080703123
0.04254361
0.014194728
0.0043530403
0.0014903992
1.5303906e-10
4.8090173e-09
3.9324916e-08
1.6912177e-07
5.2043874e-07
1.313309e-06
2.9122741e-06
5.9021526e-06
1.1199798e-05
2.0217527e-05
3.5100289e-05
5.9067251e-05
9.6899638e-05
0.00015563047
0.00024550732
0.00038131292
0.00058413167
0.00088362345
0.0013207696
0.0019508128
0.0028455896
0.0040934656
0.0057934836
0.0080384819
0.010881864
0.014289709
0.018099972
0.022033055
0.025779022
0.02910976
0.031928747
0.034243655
0.036115344
0.037623836
0.038854526
0.039893669
0.04083071
0.041760864
0.042783429
0.04398859
0.045448366
0.047255297
0.04948765
0.052164028
0.055303484
0.05891345
0.062963585
0.067392971
0.072145925
0.077147928
0.082298159
0.087516651
0.092687296
0.097628227
0.10203862
0.10522781
0.10638219
0.10481549
0.10002442
0.090382461
0.066284278
0.025945649
0.0076709388
0.002356241
0.0008531099
1.3023278e-10
4.0923653e-09
3.3464624e-08
1.43919e-07
4.4288391e-07
1.1176108e-06
2.4783449e-06
5.022842e-06
9.5315712e-06
1.7207027e-05
2.9876117e-05
5.0282103e-05
8.2502494e-05
0.0001325419
0.00020916363
0.00032503869
0.00049829963
0.00075457484
0.0011295165
0.0016716607
0.0024450608
0.0035303471
0.005021498
0.0070137638
0.0095771251
0.012713435
0.01631054
0.020130887
0.023872355
0.027278466
0.030213613
0.032658463
0.034662376
0.036302279
0.037662845
0.038830787
0.039895503
0.040950855
0.042094338
0.043421802
0.045024532
0.046975326
0.049314836
0.052099372
0.055353042
0.059079763
0.063216627
0.067667998
0.07234073
0.077164628
0.082038639
0.086833934
0.091396579
0.095494581
0.098714698
0.10053983
0.10039341
0.097636713
0.09111393
0.077565952
0.043206227
0.012989552
0.0038002224
0.0012223146
0.00049739864
1.0769942e-10
3.3842886e-09
2.7674435e-08
1.1901754e-07
3.6625547e-07
9.2424653e-07
2.0495774e-06
4.1539471e-06
7.8829767e-06
1.4231611e-05
2.4711944e-05
4.1595695e-05
6.8262104e-05
0.0001096932
0.00017317205
0.00026925469
0.00041309915
0.00062623527
0.00093882535
0.0013923522
0.0020423923
0.0029605405
0.0042334589
0.0059553445
0.0082084756
0.011027608
0.014353714
0.018004296
0.021702441
0.025171618
0.02823116
0.030822673
0.032974873
0.034757672
0.036254244
0.037550883
0.038736087
0.039902168
0.041145222
0.042561653
0.04424361
0.046270174
0.048698502
0.051563895
0.054876265
0.058607322
0.062704106
0.067050702
0.071519903
0.076018978
0.080378052
0.084458716
0.088075603
0.090956204
0.092706577
0.093082156
0.09149665
0.086915422
0.078001975
0.056664659
0.019640578
0.0057979968
0.0017619588
0.00063243082
0.00030857832
8.6296725e-11
2.7117413e-09
2.2174785e-08
9.536555e-08
2.9347137e-07
7.4057997e-07
1.642302e-06
3.3285682e-06
6.3168352e-06
1.1404699e-05
1.9804716e-05
3.3339494e-05
5.4722256e-05
8.7957611e-05
0.00013890943
0.00021609717
0.00033179665
0.00050353035
0.00075602084
0.0011236187
0.0016530384
0.0024058308
0.0034592071
0.0049024465
0.0068243227
0.0092862831
0.01228083
0.015690595
0.01928532
0.022786706
0.02596995
0.028724907
0.031045955
0.032988011
0.034630056
0.036057539
0.037358004
0.038621903
0.039943289
0.041417547
0.043135885
0.045177701
0.047600761
0.050438394
0.053696982
0.057337047
0.061279407
0.065380343
0.069472091
0.073455911
0.077148872
0.080361711
0.082840604
0.08426567
0.084409255
0.083311563
0.079905761
0.073088088
0.059486638
0.027207759
0.008254464
0.0024573781
0.00081610828
0.00035539735
0.00021842486
6.681971e-11
2.0997056e-09
1.7169957e-08
7.384159e-08
2.2723536e-07
5.7343477e-07
1.2716532e-06
2.5773858e-06
4.8913882e-06
8.8314839e-06
1.5337196e-05
2.5821363e-05
4.2388658e-05
6.8148733e-05
0.00010766205
0.00016756942
0.00025747133
0.00039113673
0.00058812555
0.000875884
0.0012922758
0.0018882626
0.0027299019
0.0038977986
0.0054805392
0.0075570342
0.010163676
0.01325129
0.016656965
0.020129287
0.023413715
0.02634042
0.028852258
0.030975624
0.032778766
0.034344418
0.035759175
0.037111817
0.038493766
0.039998016
0.041713934
0.043719293
0.046071426
0.04880042
0.051903357
0.055332203
0.058991082
0.062721458
0.066316287
0.069663225
0.072540901
0.074688186
0.075795346
0.075645175
0.07445502
0.071477538
0.065964696
0.055705922
0.031815301
0.010298577
0.0031259276
0.0010091233
0.00040567373
0.0002334013
0.00017980347
4.9879476e-11
1.5673846e-09
1.2816987e-08
5.5121028e-08
1.6962599e-07
4.2805708e-07
9.4926777e-07
1.9239949e-06
3.6514411e-06
6.5929345e-06
1.1450176e-05
1.9278761e-05
3.1652099e-05
5.0896987e-05
8.0430409e-05
0.00012523814
0.00019254939
0.00029277717
0.00044080689
0.00065771536
0.00097296388
0.0014269783
0.002073707
0.0029820675
0.0042339695
0.0059148836
0.0080918228
0.010776717
0.013886143
0.017228821
0.020552631
0.023636408
0.026354582
0.028685322
0.03067302
0.032392469
0.033928003
0.035366907
0.036798
0.038310877
0.039992345
0.041917492
0.044141391
0.046690769
0.049554728
0.052676654
0.055941742
0.059182887
0.062156147
0.064717739
0.066597611
0.067465308
0.067127256
0.065783688
0.062873256
0.057954554
0.049683716
0.031451446
0.011420022
0.00356799
0.0011542796
0.00044758554
0.00024004592
0.00018272788
0.00016294641
3.5824602e-11
1.1257319e-09
9.2054491e-09
3.9589119e-08
1.2182903e-07
3.0744001e-07
6.8178663e-07
1.3818657e-06
2.62259e-06
4.7353531e-06
8.2242978e-06
1.3848025e-05
2.2737748e-05
3.6567483e-05
5.7798215e-05
9.0026672e-05
0.00013848083
0.00021071858
0.00031760194
0.00047463164
0.00070372328
0.0010354558
0.0015116635
0.0021878585
0.0031341763
0.0044321784
0.0061631312
0.0083829384
0.011084052
0.014160184
0.01740745
0.020583363
0.023499977
0.026060536
0.028264105
0.030164091
0.031837906
0.033370754
0.034849251
0.03635943
0.037984164
0.039796016
0.041846605
0.044158079
0.04671201
0.049441568
0.052213705
0.054847262
0.057068121
0.058676852
0.059356029
0.058925614
0.057410632
0.05461593
0.050091696
0.042759201
0.027839555
0.01112678
0.0036161688
0.0011996978
0.00046416222
0.00024652336
0.00017877898
0.0001629413
0.00015208747
2.4724414e-11
7.7692584e-10
6.3531523e-09
2.7322437e-08
8.4080206e-08
2.1217927e-07
4.7053367e-07
9.5369158e-07
1.8099763e-06
3.2681083e-06
5.6760594e-06
9.557507e-06
1.5693545e-05
2.5240567e-05
3.9899807e-05
6.216047e-05
9.5647194e-05
0.00014561444
0.00021964533
0.00032862896
0.00048810351
0.00072004674
0.0010551394
0.0015353481
0.0022162464
0.0031676314
0.004469557
0.0061992775
0.0084047511
0.011066888
0.014069045
0.017206744
0.020251243
0.023042522
0.025484266
0.02759788
0.029440301
0.031088746
0.032626336
0.034135941
0.035695807
0.037374418
0.039220177
0.041250283
0.043438269
0.045702562
0.047898732
0.049799087
0.051120771
0.051603005
0.051127118
0.049596269
0.046738776
0.042579007
0.036006679
0.022910638
0.0096030774
0.0034487274
0.0011799254
0.00046228357
0.00024400277
0.00017875942
0.0001579209
0.00015287824
0.00014438626
1.6391645e-11
5.1508155e-10
4.2119695e-09
1.811401e-08
5.5742707e-08
1.4066828e-07
3.1194823e-07
6.3226287e-07
1.1999403e-06
2.1666027e-06
3.7629226e-06
6.336051e-06
1.0403816e-05
1.6732973e-05
2.6451911e-05
4.1212667e-05
6.3423373e-05
9.6581057e-05
0.00014574662
0.00021821906
0.00032448355
0.00047952207
0.00070457168
0.0010293588
0.0014946554
0.0021545532
0.0030769866
0.0043395892
0.0060164551
0.0081518706
0.010723961
0.013617083
0.016632856
0.019560159
0.02224983
0.024609761
0.026661069
0.028461282
0.030085874
0.031613348
0.033117547
0.034660853
0.036286594
0.038006296
0.039783334
0.041522225
0.043059612
0.044106951
0.044386823
0.043881758
0.042388687
0.039579715
0.035428795
0.029581656
0.017697441
0.0075727435
0.0029449674
0.0011023638
0.00045054008
0.00024118543
0.0001755654
0.00015682059
0.00014881481
0.00014448541
0.00013703946
1.0448577e-11
3.2832984e-10
2.6848431e-09
1.1546426e-08
3.5532031e-08
8.9665797e-08
1.9884336e-07
4.0301652e-07
7.6485545e-07
1.380991e-06
2.3984206e-06
4.0383451e-06
6.6306822e-06
1.06639e-05
1.6856824e-05
2.6261952e-05
4.0413983e-05
6.1543207e-05
9.288186e-05
0.00013910324
0.00020694864
0.00030611506
0.00045049213
0.00065983498
0.00096190808
0.0013949678
0.0020100285
0.0028715274
0.0040535636
0.0056276141
0.0076380682
0.010068431
0.012814729
0.01569532
0.018506812
0.021099403
0.023396277
0.025396732
0.027153666
0.028735638
0.030211463
0.031637654
0.033049232
0.034448683
0.035779411
0.036939595
0.037736677
0.037838992
0.037295809
0.035787699
0.033134593
0.028986605
0.023224104
0.012731187
0.0056399892
0.002318771
0.00094274838
0.00041906465
0.00023415393
0.00017298078
0.0001531981
0.00014727148
0.00013987579
0.00013601693
0.00013090433
6.4190452e-12
2.0170818e-10
1.6494212e-09
7.0934848e-09
2.1828872e-08
5.5085463e-08
1.221573e-07
2.4758686e-07
4.6987012e-07
8.4835797e-07
1.4733238e-06
2.4805848e-06
4.0726615e-06
6.5493124e-06
1.0351511e-05
1.6124699e-05
2.4809734e-05
3.7773671e-05
5.6997988e-05
8.5349703e-05
0.00012697186
0.0001878447
0.00027658675
0.00040558136
0.00059251634
0.00086237922
0.0012497923
0.0018011919
0.0025756623
0.0036420215
0.0050684984
0.0069013834
0.0091347948
0.011684984
0.014392707
0.017069822
0.019557848
0.021782042
0.023719986
0.025408623
0.026900993
0.028245024
0.02946648
0.030551315
0.031416644
0.031949806
0.031924317
0.031340988
0.029797415
0.027242448
0.023269628
0.017206476
0.0089527724
0.0040146545
0.0017334746
0.00075720252
0.00036829612
0.0002211494
0.0001683622
0.00015048574
0.00014361236
0.00013827074
0.00013296032
0.00013070315
0.00012609456
3.8159659e-12
1.1991058e-10
9.8054003e-10
4.2168983e-09
1.297671e-08
3.2746895e-08
7.2619254e-08
1.47183e-07
2.7932048e-07
5.0430667e-07
8.7578662e-07
1.4744514e-06
2.4205839e-06
3.892146e-06
6.1507979e-06
9.5792761e-06
1.4735063e-05
2.2427485e-05
3.3828613e-05
5.063313e-05
7.5289307e-05
0.00011133327
0.00016387245
0.00024028116
0.0003511879
0.00051183863
0.00074388445
0.0010775075
0.0015534689
0.0022240021
0.0031505322
0.0043954953
0.0060055872
0.007986153
0.010277165
0.012749784
0.015235172
0.017582839
0.019689243
0.021518642
0.023076051
0.024383154
0.025447427
0.026223371
0.026602278
0.026491358
0.025871571
0.02435379
0.021709729
0.018044934
0.011804532
0.0059019481
0.0027596635
0.0012484648
0.00058749402
0.00031341569
0.00020463922
0.00016219219
0.00014689455
0.00014095741
0.00013524926
0.00013198902
0.00012760801
0.00012572606
0.00012214587
2.2093758e-12
6.9426062e-11
5.6771462e-10
2.4415073e-09
7.5132925e-09
1.8959953e-08
4.204558e-08
8.5217079e-08
1.6172232e-07
2.9198209e-07
5.0704712e-07
8.5361239e-07
1.4012618e-06
2.2529005e-06
3.5597406e-06
5.5427882e-06
8.5236282e-06
1.2968535e-05
1.9551758e-05
2.9246526e-05
4.3456338e-05
6.4205052e-05
9.4412931e-05
0.00013829782
0.00020195582
0.00029419161
0.00042767522
0.00062048089
0.00089794741
0.0012945127
0.0018546221
0.0026309544
0.0036776411
0.0050370458
0.0067204717
0.0086889144
0.010844753
0.013049692
0.015158968
0.017058016
0.018674932
0.019969381
0.020904819
0.021362014
0.021267742
0.02070085
0.019280222
0.016671724
0.01286921
0.0073375483
0.0037192041
0.0018035641
0.00087369788
0.00044852023
0.0002648132
0.00018824851
0.00015642789
0.00014323115
0.00013797455
0.00013291532
0.00012944849
0.00012668021
0.00012293065
0.00012084704
0.00011800544
1.2635646e-12
3.9705464e-11
3.2468159e-10
1.396325e-09
4.296961e-09
1.0843584e-08
2.4047061e-08
4.8738836e-08
9.2496461e-08
1.6700005e-07
2.9000868e-07
4.8822591e-07
8.01437e-07
1.2884587e-06
2.0356737e-06
3.1692428e-06
4.8725528e-06
7.4111251e-06
1.1168186e-05
1.669563e-05
2.4787279e-05
3.6584262e-05
5.3727628e-05
7.8580106e-05
0.00011454887
0.00016655381
0.00024169935
0.00035021397
0.00050669612
0.00073162772
0.0010529074
0.001506699
0.0021361316
0.0029859569
0.0040911006
0.0054616618
0.0070685284
0.0088388046
0.010660238
0.012402042
0.013937953
0.015154181
0.015948737
0.016022607
0.015616371
0.014388399
0.011937918
0.0080427212
0.0043933157
0.0022641512
0.001144415
0.00059729998
0.0003421873
0.00022595142
0.00017459782
0.00015148657
0.0001409407
0.00013536249
0.00013044836
0.00012740234
0.00012453468
0.00012175546
0.00011848472
0.00011755341
0.00011507599
7.3893439e-13
2.3219814e-11
1.8987448e-10
8.1657836e-10
2.5129185e-09
6.3416031e-09
1.406373e-08
2.8505463e-08
5.4099513e-08
9.7678604e-08
1.696312e-07
2.8557635e-07
4.6878007e-07
7.536308e-07
1.1906186e-06
1.8534518e-06
2.8491938e-06
4.3327091e-06
6.5272383e-06
9.7536132e-06
1.4471749e-05
2.1340029e-05
3.1300145e-05
4.5698689e-05
6.6464866e-05
9.6367563e-05
0.00013938333
0.00020122138
0.00029004645
0.00041742344
0.00059946332
0.00085793342
0.0012207981
0.0017212141
0.0023935746
0.0032643629
0.0043396193
0.0055911
0.006952595
0.0083222801
0.0095704317
0.010542034
0.010946175
0.010678544
0.0096760436
0.007381007
0.0044632695
0.0024917558
0.0013390668
0.00071806479
0.00041002037
0.00026536337
0.00019700849
0.00016439621
0.00014804488
0.00013955801
0.00013462834
0.00012974548
0.00012669552
0.00012297279
0.00011986958
0.00011766201
0.0001151372
0.00011393033
0.00011197729
4.7477323e-13
1.4918991e-11
1.2199697e-10
5.2466969e-10
1.6146498e-09
4.0749108e-09
9.0374555e-09
1.8319248e-08
3.477072e-08
6.2786573e-08
1.0904988e-07
1.8361032e-07
3.0143922e-07
4.8466253e-07
7.657547e-07
1.1920904e-06
1.8324259e-06
2.7860804e-06
4.1959153e-06
6.2666579e-06
9.2907373e-06
1.3684745e-05
2.0040766e-05
2.9199266e-05
4.234962e-05
6.1170847e-05
8.8033052e-05
0.00012629021
0.00018067114
0.00025781876
0.00036698438
0.00052082404
0.00073592575
0.0010333971
0.0014372071
0.0019706126
0.0026487306
0.0034672359
0.0043875719
0.0053233739
0.0061282948
0.0065474172
0.0063574359
0.0055520023
0.0037830814
0.0023027296
0.0013405608
0.00076678867
0.00045251178
0.00029034031
0.00021332833
0.00017651246
0.00015744175
0.00014619486
0.00013928709
0.00013456828
0.00012977676
0.00012614118
0.00012205386
0.00011893345
0.00011637024
0.00011433101
0.00011209917
0.00011155293
0.00010988707
3.6068604e-13
1.1333998e-11
9.2682074e-11
3.9860343e-10
1.2267327e-09
3.0961082e-09
6.8672314e-09
1.3921718e-08
2.6427859e-08
4.7730164e-08
8.2917304e-08
1.3964582e-07
2.2932904e-07
3.6884551e-07
5.8298299e-07
9.0791986e-07
1.3961614e-06
2.1235063e-06
3.1988277e-06
4.7777303e-06
7.0815054e-06
1.0423257e-05
1.5243884e-05
2.2160798e-05
3.2033418e-05
4.6052082e-05
6.58567e-05
9.3686081e-05
0.00013259247
0.00018672192
0.00026167693
0.00036495402
0.00050638553
0.00069836508
0.00095513727
0.0012902884
0.0017106269
0.0022048724
0.002727167
0.0031789355
0.0033831564
0.0032123187
0.0025715936
0.0017528164
0.001119176
0.00069171677
0.00043443761
0.00029103962
0.0002165829
0.0001790268
0.00016249914
0.00015278777
0.00014568754
0.00013979923
0.00013519185
0.00012987223
0.00012617203
0.00012193458
0.00011919479
0.0001162247
0.00011385812
0.00011155125
0.00010926132
0.00010859007
0.00010728606
3.1820103e-13
9.9989873e-12
8.1765809e-11
3.5166146e-10
1.0823001e-09
2.731717e-09
6.0594386e-09
1.2285298e-08
2.3324369e-08
4.213187e-08
7.3206516e-08
1.2332125e-07
2.0257904e-07
3.2593112e-07
5.1535025e-07
8.0292568e-07
1.2352468e-06
1.8795722e-06
2.8324434e-06
4.2316115e-06
6.2723616e-06
9.2295105e-06
1.3486503e-05
1.9573159e-05
2.821333e-05
4.0382636e-05
5.7374093e-05
8.0871013e-05
0.00011303059
0.0001565692
0.00021483895
0.00029187564
0.00039237451
0.00052142289
0.00068342125
0.0008790698
0.0011002743
0.0013211144
0.0014904521
0.0015210299
0.0013776884
0.0010576126
0.00075467198
0.00051498868
0.00034964619
0.00025132331
0.00019587829
0.00016934649
0.00015709235
0.00015133404
0.00014972578
0.00014610268
0.00014118589
0.00013563231
0.00013015375
0.00012630647
0.00012253472
0.00011947576
0.0001163916
0.00011352855
0.00011103067
0.00010878661
0.00010706983
0.000106779
0.00010588794
2.8701734e-13
9.0190951e-12
7.375314e-11
3.1720291e-10
9.7625955e-10
2.4641126e-09
5.465972e-09
1.1082424e-08
2.104155e-08
3.8010439e-08
6.604989e-08
1.1127463e-07
1.8280712e-07
2.9414853e-07
4.6513894e-07
7.2474347e-07
1.1149849e-06
1.6964474e-06
2.5559005e-06
3.8167017e-06
5.6527341e-06
8.3066339e-06
1.2112792e-05
1.7524929e-05
2.5146608e-05
3.5761096e-05
5.0351628e-05
7.0097623e-05
9.6334263e-05
0.0001304616
0.00017378789
0.00022729379
0.00029135254
0.00036530087
0.00044636429
0.0005288989
0.00060116149
0.00064077828
0.00061885833
0.00052741392
0.00041362299
0.00031083045
0.00023328324
0.00018248905
0.00014992193
0.0001407696
0.00014335532
0.00014578611
0.00014730924
0.00014845064
0.00014730679
0.00014317985
0.00013609997
0.0001304369
0.00012705632
0.00012317652
0.00012005904
0.00011659821
0.00011389443
0.00011124528
0.00010907788
0.00010727304
0.00010546542
0.00010473141
0.00010385961
2.2938998e-13
7.2082388e-12
5.8944867e-11
2.5351279e-10
7.8022808e-10
1.9692722e-09
4.3681362e-09
8.8560658e-09
1.6813325e-08
3.0369601e-08
5.2766271e-08
8.888172e-08
1.4598888e-07
2.3484135e-07
3.7122076e-07
5.7812504e-07
8.8883526e-07
1.3511649e-06
2.0332592e-06
3.0313512e-06
4.4798404e-06
6.5638568e-06
9.5339367e-06
1.3721347e-05
1.9550647e-05
2.7543082e-05
3.8300657e-05
5.2457229e-05
7.058084e-05
9.3020663e-05
0.00011973178
0.00015000956
0.00018232145
0.00021409186
0.00024192163
0.00025854949
0.00025831819
0.00023421074
0.00019560047
0.00015974515
0.00013190615
0.00011261137
0.00010122146
0.00010430464
0.00011214802
0.00012897246
0.00014235743
0.00014897059
0.00015002778
0.0001488933
0.00014486149
0.0001361283
0.00013123288
0.00012792606
0.00012399078
0.0001204232
0.00011721199
0.00011436132
0.0001119087
0.00010939575
0.00010732858
0.00010502326
0.00010350108
0.00010328697
0.00010284417
1.5282972e-13
4.8024404e-12
3.9271378e-11
1.6889728e-10
5.1979215e-10
1.3118679e-09
2.9096818e-09
5.8984988e-09
1.1196667e-08
2.0220307e-08
3.5123045e-08
5.9142813e-08
9.710035e-08
1.5611092e-07
2.4659265e-07
3.8368193e-07
5.8919739e-07
8.9432434e-07
1.3432103e-06
1.9976464e-06
2.9429142e-06
4.2946287e-06
6.2058875e-06
8.8730771e-06
1.2537133e-05
1.7474872e-05
2.3972593e-05
3.2274852e-05
4.249332e-05
5.4488443e-05
6.7734304e-05
8.121805e-05
9.3436839e-05
0.00010213995
0.00010513999
9.9872607e-05
8.8081483e-05
7.6616413e-05
6.8046821e-05
6.154654e-05
6.3366849e-05
7.0238669e-05
7.9146226e-05
9.8371547e-05
0.00013012372
0.00014868672
0.00015232804
0.00015226586
0.00015077696
0.00014582402
0.00013709699
0.00013236819
0.00012900455
0.00012463027
0.0001211824
0.00011790396
0.00011521643
0.00011237988
0.00010999278
0.00010749673
0.00010548042
0.00010386046
0.00010245414
0.00010204721
0.00010154557
8.4357746e-14
2.6508089e-12
2.1676483e-11
9.3223468e-11
2.8688853e-10
7.2400692e-10
1.6056566e-09
3.2545065e-09
6.1765539e-09
1.1151433e-08
1.9363547e-08
3.259115e-08
5.347699e-08
8.5912579e-08
1.3557868e-07
2.1069674e-07
3.2305838e-07
4.8940843e-07
7.3325317e-07
1.0871346e-06
1.5953221e-06
2.3166862e-06
3.3271601e-06
4.7206006e-06
6.6059614e-06
9.0975162e-06
1.2293866e-05
1.6242197e-05
2.0884226e-05
2.5997286e-05
3.1139813e-05
3.5628073e-05
3.8571332e-05
3.9009076e-05
3.7441531e-05
3.514294e-05
3.329514e-05
3.347267e-05
3.6951129e-05
4.2025527e-05
5.3601289e-05
6.9698205e-05
9.9689137e-05
0.00013622763
0.00015128631
0.00015560892
0.00015501999
0.00015311084
0.00014715091
0.00013852049
0.00013379097
0.00012990563
0.00012550102
0.00012203921
0.00011888086
0.0001158057
0.0001130727
0.00011046776
0.00010821885
0.00010611328
0.00010429471
0.00010235677
0.00010113134
0.00010075459
0.0001005082
3.9278668e-14
1.2342676e-12
1.0092882e-11
4.3405033e-11
1.3356919e-10
3.3705496e-10
7.4740996e-10
1.5146716e-09
2.873957e-09
5.187187e-09
9.0034927e-09
1.5145972e-08
2.4835225e-08
3.9863569e-08
6.2837862e-08
9.7513079e-08
1.4924194e-07
2.2556555e-07
3.3696136e-07
4.9773936e-07
7.2702084e-07
1.0496264e-06
1.496514e-06
2.1041255e-06
2.9116281e-06
3.9546272e-06
5.2537312e-06
6.7975692e-06
8.5218312e-06
1.0291089e-05
1.1895903e-05
1.3076699e-05
1.3772724e-05
1.4424852e-05
1.543536e-05
1.7249758e-05
1.98791e-05
2.503623e-05
3.4204471e-05
4.9790595e-05
7.1947762e-05
0.00010473529
0.00013666395
0.00015301861
0.0001581706
0.00015784274
0.00015568166
0.00014901553
0.00014031914
0.00013539973
0.00013091111
0.00012647417
0.00012326385
0.0001197841
0.00011664729
0.00011375345
0.00011136356
0.00010885177
0.00010689197
0.00010453608
0.00010279
0.00010111919
0.00010012327
9.9974322e-05
9.9775578e-05
1.6093921e-14
5.0572388e-13
4.1353717e-12
1.7783899e-11
5.4722935e-11
1.3807831e-10
3.0614492e-10
6.2030813e-10
1.1766889e-09
2.1230978e-09
3.6835016e-09
6.1930142e-09
1.0147446e-08
1.6272672e-08
2.5620385e-08
3.9697954e-08
6.0640436e-08
9.1431141e-08
1.361714e-07
2.0038685e-07
2.9133147e-07
4.1820582e-07
5.9213818e-07
8.2568542e-07
1.1315468e-06
1.520158e-06
1.9961401e-06
2.5544933e-06
3.1791862e-06
3.849672e-06
4.5821584e-06
5.4737854e-06
6.5899617e-06
8.0643661e-06
1.0751637e-05
1.5003194e-05
2.1910689e-05
3.3583345e-05
5.0985797e-05
7.4100954e-05
0.00010394446
0.00013374084
0.00015284311
0.00016050858
0.0001606992
0.00015850359
0.00015158193
0.00014252178
0.00013731934
0.00013227051
0.00012785975
0.00012463788
0.00012097192
0.00011758076
0.00011481002
0.0001121237
0.00010968431
0.00010738595
0.00010532499
0.00010342619
0.00010183219
0.00010031685
9.9217026e-05
9.8850143e-05
9.8625698e-05
6.8313099e-15
2.1466195e-13
1.7553077e-12
7.5484416e-12
2.322646e-11
5.8602016e-11
1.2992019e-10
2.6321317e-10
4.992284e-10
9.0059785e-10
1.5621751e-09
2.6258062e-09
4.3012316e-09
6.8953349e-09
1.0852534e-08
1.6809659e-08
2.5668966e-08
3.8692713e-08
5.7621417e-08
8.4814537e-08
1.2340666e-07
1.7746409e-07
2.5211967e-07
3.5366972e-07
4.8966454e-07
6.6917872e-07
9.0386414e-07
1.2115098e-06
1.6220169e-06
2.1912646e-06
3.0160111e-06
4.2542965e-06
6.1782205e-06
9.3073583e-06
1.4371205e-05
2.2444137e-05
3.4637338e-05
5.1561503e-05
7.3754571e-05
0.00010186281
0.00013149754
0.00015441363
0.00016309671
0.00016367012
0.00016152452
0.00015471071
0.00014505289
0.00013957684
0.00013397551
0.00012946766
0.00012593879
0.00012207554
0.00011875138
0.00011576142
0.00011301756
0.00011040402
0.00010825956
0.00010602234
0.00010421764
0.00010219123
0.00010061075
9.9104743e-05
9.8346358e-05
9.8254188e-05
9.7933885e-05
4.6971747e-15
1.4760085e-13
1.2069566e-12
5.1904527e-12
1.5971538e-11
4.0299747e-11
8.9352988e-11
1.8105394e-10
3.434824e-10
6.1985915e-10
1.0757737e-09
1.8095971e-09
2.9673882e-09
4.7640974e-09
7.513537e-09
1.167047e-08
1.7889357e-08
2.7105916e-08
4.0650018e-08
6.0402134e-08
8.9012216e-08
1.3021277e-07
1.8928499e-07
2.7379499e-07
3.9484721e-07
5.6938759e-07
8.2354813e-07