/*--------------------------------*- C++ -*----------------------------------*\
  =========                 |
  \\      /  F ield         | OpenFOAM: The Open Source CFD Toolbox
   \\    /   O peration     | Website:  https://openfoam.org
    \\  /    A nd           | Version:  13
     \\/     M anipulation  |
\*---------------------------------------------------------------------------*/
FoamFile
{
    format      ascii;
    class       volVectorField;
    location    "30.897837";
    object      UMean;
}
// * * * * * * * * * * * * * * * * * * * * * * * * * * * * * * * * * * * * * //

dimensions      [0 1 -1 0 0 0 0];

internalField   nonuniform List<vector> 
17140
(
(-2.2035904e-06 9.0937957e-05 -1.2685982e-22)
(-2.8939296e-05 0.00027975803 -9.7849095e-24)
(-8.6995391e-05 0.00048592445 6.4690973e-22)
(-0.00018845873 0.00071028218 -7.1152925e-22)
(-0.00034432433 0.00095369782 8.3230351e-23)
(-0.00056953918 0.0012168498 -2.7250281e-22)
(-0.00088243995 0.0015001801 -4.5910122e-22)
(-0.0013050815 0.0018038094 2.2459595e-22)
(-0.0018638941 0.0021274395 7.3567159e-22)
(-0.002590299 0.0024702403 1.8070548e-21)
(-0.0035213013 0.0028307241 -2.6857743e-21)
(-0.0047000181 0.003206612 2.3995179e-21)
(-0.0061760925 0.0035947024 3.6792292e-22)
(-0.0080059051 0.0039907496 -2.0925816e-21)
(-0.010252487 0.0043893793 2.3325739e-22)
(-0.012985026 0.0047840562 -1.8590921e-21)
(-0.016277858 0.0051671449 7.0104282e-23)
(-0.020208874 0.0055300904 -1.5200601e-23)
(-0.024857308 0.0058637539 -1.1228734e-21)
(-0.030301019 0.0061589176 1.4702897e-21)
(-0.03661348 0.0064069511 -7.1284155e-22)
(-0.043860856 0.0066005867 1.3853552e-22)
(-0.052100241 0.0067347042 1.0216672e-21)
(-0.061381021 0.006807016 -1.0237339e-21)
(-0.071742679 0.0068186341 -1.6398759e-21)
(-0.083214676 0.006774106 1.3294608e-21)
(-0.095825462 0.0066800908 6.5439211e-21)
(-0.10961659 0.0065449806 7.6718418e-22)
(-0.12462796 0.0063793684 -6.8241951e-21)
(-0.14088844 0.0061914174 -1.5927298e-21)
(-0.15843131 0.0059850109 -5.7150848e-21)
(-0.17728491 0.0057609365 7.5695998e-21)
(-0.19747039 0.005518012 -1.9694972e-21)
(-0.21899861 0.0052537593 -9.4950104e-22)
(-0.24186441 0.0049647812 -9.2923243e-21)
(-0.26603875 0.004647202 4.1044394e-21)
(-0.29145933 0.0042969371 -6.1514607e-21)
(-0.31801906 0.0039098038 -4.1495435e-21)
(-0.34555257 0.0034817982 -1.8869182e-21)
(-0.37382219 0.0030100548 5.7174623e-21)
(-0.4025052 0.0024932963 1.0688278e-20)
(-0.43118076 0.0019316677 9.6062833e-21)
(-0.45931705 0.0013251573 4.153478e-21)
(-0.48627091 0.00067110015 -1.9803777e-20)
(-0.51127699 -3.4045754e-05 -1.4234447e-20)
(-0.53349222 -0.00078818456 3.4440126e-21)
(-0.55211495 -0.0015942408 -2.2983182e-20)
(-0.56618903 -0.0024497035 -7.6691558e-21)
(-0.57478425 -0.0033390274 7.6957953e-21)
(-0.57718387 -0.0042327937 1.8600712e-20)
(-0.57278961 -0.0050937886 -1.1362016e-20)
(-0.56106833 -0.0058932125 -7.1501714e-21)
(-0.5415574 -0.0066347431 1.8616222e-20)
(-0.51388155 -0.007279417 8.8361445e-21)
(-0.47758265 -0.0077256596 6.36466e-21)
(-0.4325268 -0.0078821683 -5.0177987e-21)
(-0.37835379 -0.0076269428 1.3917798e-20)
(-0.31518975 -0.0068326155 1.181111e-20)
(-0.24257777 -0.0054226846 3.0298417e-21)
(-0.16189769 -0.0035224602 -7.8877271e-21)
(-0.072449104 -0.0014646789 -6.3225892e-21)
(0.020985395 -3.9345194e-06 -2.3817218e-20)
(0.12169334 -0.0001603298 -3.5554412e-21)
(0.21704473 -0.0024463533 3.0160616e-20)
(0.32107863 -0.006405567 -2.367796e-20)
(-2.2701531e-05 0.00052967744 3.5966909e-23)
(-9.1547325e-05 0.001629414 -3.3863684e-21)
(-0.00019505823 0.0028301942 3.0142411e-21)
(-0.00034529063 0.0041376069 -8.2232756e-22)
(-0.00055325594 0.0055568256 -1.6991661e-21)
(-0.00083381222 0.0070920345 3.248535e-21)
(-0.0012050972 0.008746065 -3.3897317e-21)
(-0.0016888524 0.010519915 2.9863973e-22)
(-0.0023110479 0.012412168 -9.3350028e-22)
(-0.0031024727 0.014418334 -1.5559731e-23)
(-0.0040993033 0.016530104 -3.1280409e-21)
(-0.0053436103 0.018734568 4.9843827e-21)
(-0.0068837574 0.021013426 4.1282426e-22)
(-0.0087746081 0.023342279 -4.0896857e-21)
(-0.01107745 0.025690112 1.2621952e-21)
(-0.013859535 0.028019129 8.0513146e-22)
(-0.017193133 0.03028513 -5.1291302e-21)
(-0.02115402 0.032438658 1.6809394e-20)
(-0.025819395 0.034427138 -1.0589373e-20)
(-0.0312653 0.036198143 1.2760149e-20)
(-0.037563761 0.037703774 -1.8977403e-20)
(-0.044780008 0.038905868 4.6845222e-21)
(-0.052970743 0.039781338 1.9453867e-21)
(-0.062185398 0.040326596 -6.3800157e-21)
(-0.072464668 0.040559909 2.3111508e-20)
(-0.083838909 0.040518919 3.4442832e-21)
(-0.096336888 0.04024882 -1.8083075e-20)
(-0.1100013 0.03979405 2.0346684e-20)
(-0.12487238 0.039192923 -2.8517029e-21)
(-0.14097861 0.038476984 -2.7666787e-20)
(-0.15835246 0.037667953 2.9084662e-21)
(-0.1770213 0.036779166 2.2129371e-20)
(-0.1970047 0.035817385 5.1942512e-22)
(-0.21831131 0.03478304 -1.6609323e-20)
(-0.24093318 0.033670123 1.8604246e-20)
(-0.26483781 0.032466586 -8.368433e-21)
(-0.28995864 0.03115495 9.9330894e-21)
(-0.31618346 0.029712998 3.141031e-20)
(-0.34334081 0.028114921 6.9722823e-21)
(-0.37118574 0.026333865 2.7201914e-20)
(-0.39938657 0.02434411 -3.4757685e-20)
(-0.42751101 0.022121885 -3.1573812e-20)
(-0.45501184 0.019644669 -5.2679333e-21)
(-0.48122134 0.016893224 4.237753e-20)
(-0.50534395 0.013863124 -1.9566477e-20)
(-0.52651916 0.010578789 -6.6500825e-21)
(-0.54384662 0.0070617885 3.5858772e-21)
(-0.55640048 0.003330221 1.0873752e-20)
(-0.56328168 -0.0005269187 -5.2561908e-21)
(-0.56370865 -0.0044047992 9.3821156e-21)
(-0.55706351 -0.00823035 5.6165467e-20)
(-0.54285482 -0.011950866 2.6859806e-21)
(-0.5206516 -0.015533343 -1.2099258e-20)
(-0.49011006 -0.018936898 2.7041301e-20)
(-0.45087735 -0.022072804 -2.3304728e-20)
(-0.40280296 -0.024836578 6.7013553e-20)
(-0.3455752 -0.027106329 1.9368747e-20)
(-0.27942959 -0.028737984 -5.5821674e-20)
(-0.20395481 -0.029570903 9.5714258e-21)
(-0.1206327 -0.029635732 1.1234828e-20)
(-0.028779454 -0.029005622 2.3085614e-21)
(0.066668598 -0.028539067 -3.0998888e-20)
(0.16923207 -0.028643124 6.165587e-20)
(0.26627454 -0.03069732 1.8564651e-20)
(0.37249117 -0.033484767 3.1495039e-20)
(-6.7217416e-05 0.00095961748 1.9806343e-21)
(-0.00022736167 0.002952381 -1.0184439e-21)
(-0.00042933863 0.0051286961 -2.7089036e-22)
(-0.00068503975 0.0074990097 2.5708268e-22)
(-0.0010054984 0.010072935 -1.2459616e-21)
(-0.0014053126 0.012858356 -9.2431131e-23)
(-0.0019021342 0.015860764 -1.1853263e-21)
(-0.0025169463 0.019082398 -1.2782835e-21)
(-0.0032746344 0.022521196 1.0469089e-20)
(-0.0042045177 0.026169592 -9.3641242e-21)
(-0.0053408654 0.030013175 4.4913804e-21)
(-0.0067233563 0.034029243 6.5965147e-21)
(-0.0083974479 0.03818535 -1.3125924e-20)
(-0.010414575 0.042437974 -1.6292876e-21)
(-0.012832105 0.046731514 6.3262318e-21)
(-0.015712952 0.050997904 4.3701098e-21)
(-0.019124768 0.055157192 -5.0979081e-21)
(-0.023138632 0.05911951 1.8569722e-20)
(-0.027827231 0.062788849 -1.1060016e-20)
(-0.033262588 0.06606894 5.5041989e-21)
(-0.039513543 0.068871254 -1.8723199e-20)
(-0.046643272 0.071124634 -4.9081083e-21)
(-0.054707606 0.072785352 1.0328751e-20)
(-0.063756033 0.073845594 -1.5651868e-20)
(-0.073831742 0.074337982 -6.1825565e-21)
(-0.084966657 0.074331569 7.5447318e-21)
(-0.097190896 0.073911054 4.2956712e-20)
(-0.1105487 0.073157795 1.9485802e-20)
(-0.12508026 0.072137851 -9.8942494e-21)
(-0.14081418 0.070907134 1.0489047e-20)
(-0.15778052 0.069506231 -6.7428155e-21)
(-0.17600439 0.067961475 -3.785251e-20)
(-0.19550168 0.066287754 1.2744877e-20)
(-0.21627599 0.064488477 3.8121139e-20)
(-0.23831271 0.062555176 -1.2935002e-20)
(-0.2615711 0.060467631 -1.8010954e-20)
(-0.28597445 0.058194689 3.1230861e-20)
(-0.31139793 0.055695797 9.4560465e-21)
(-0.33765495 0.052923034 -1.7012677e-20)
(-0.36448254 0.049824808 -6.8484369e-21)
(-0.39152673 0.046349634 3.2544322e-20)
(-0.41832673 0.042447547 -9.3293882e-21)
(-0.44429904 0.038070344 -1.3309189e-20)
(-0.46872836 0.033179743 -3.4976768e-20)
(-0.49077062 0.027769901 6.6068649e-20)
(-0.50952228 0.021887927 -4.2206064e-20)
(-0.52403159 0.015599238 -1.0392769e-20)
(-0.53334741 0.0089613456 -4.1246016e-20)
(-0.53659519 0.0021156229 -4.9105947e-20)
(-0.53305566 -0.0047511189 -2.4677678e-21)
(-0.52218489 -0.011493216 1.0360748e-20)
(-0.50357996 -0.018037415 -7.6963394e-20)
(-0.47688324 -0.024361295 -3.3008138e-20)
(-0.44181353 -0.030424284 -3.423493e-20)
(-0.39807995 -0.036133713 -1.1322597e-20)
(-0.34561293 -0.041379299 -8.9451522e-20)
(-0.28419971 -0.046027231 3.5916859e-20)
(-0.2141723 -0.049918054 -1.1238892e-20)
(-0.13516197 -0.052806375 -9.3773956e-20)
(-0.048797756 -0.054649122 -3.7971633e-20)
(0.045649176 -0.055230999 4.6308424e-20)
(0.14292854 -0.055530348 1.6230933e-19)
(0.24706729 -0.055360887 -5.299944e-20)
(0.34476244 -0.057088496 -8.6055277e-20)
(0.45131768 -0.05824251 -3.7401825e-20)
(-0.0001343738 0.0013660988 -6.5964492e-21)
(-0.00043222424 0.0042039443 7.2852197e-21)
(-0.0007827358 0.0073043735 -2.6351963e-21)
(-0.0011974928 0.010682776 2.8669827e-22)
(-0.0016875899 0.014353355 -5.6689157e-21)
(-0.0022672271 0.01832799 5.8713284e-21)
(-0.0029533154 0.022615301 -8.9135025e-21)
(-0.0037656897 0.027219422 4.2013317e-21)
(-0.0047275925 0.032138533 1.5992642e-20)
(-0.0058661163 0.037363145 -3.855175e-21)
(-0.0072126375 0.042874177 -1.4711952e-20)
(-0.0088032041 0.048640869 4.5067521e-21)
(-0.010678853 0.05461864 3.0384208e-22)
(-0.012885795 0.060747093 -1.1882873e-20)
(-0.015475402 0.066948431 3.7377089e-20)
(-0.018503936 0.073126689 -2.3089263e-20)
(-0.022031927 0.0791683 -2.2119968e-22)
(-0.026123165 0.084944599 1.2961491e-20)
(-0.030843273 0.090316912 -3.3204226e-20)
(-0.036257908 0.095144711 1.582876e-20)
(-0.042430756 0.099296974 2.3849642e-20)
(-0.049421522 0.10266615 9.745028e-21)
(-0.057284422 0.10518313 -4.8843088e-20)
(-0.066068806 0.10683029 -2.5786259e-20)
(-0.075820941 0.10764895 1.692918e-20)
(-0.08657554 0.10773569 -9.9241428e-21)
(-0.09836557 0.10721562 3.7749461e-20)
(-0.11123614 0.10620765 -1.0932143e-20)
(-0.1252277 0.10480641 2.979859e-20)
(-0.14036998 0.10309341 -1.7042555e-20)
(-0.15668887 0.10112941 1.056585e-20)
(-0.17420621 0.098954456 -3.9268584e-20)
(-0.19293227 0.096591873 5.723484e-21)
(-0.21286316 0.094048168 -3.0145417e-20)
(-0.23397441 0.091312328 2.9125571e-20)
(-0.25621282 0.088355959 9.2165452e-21)
(-0.27948639 0.085134253 -1.1754917e-19)
(-0.30365185 0.081587835 -3.0644471e-20)
(-0.32850033 0.077646137 2.5585496e-20)
(-0.3537426 0.073232172 -2.5155761e-20)
(-0.37899313 0.06826711 6.3700045e-21)
(-0.40375253 0.06267256 4.0379553e-20)
(-0.42739081 0.056373329 -1.9076275e-21)
(-0.44913746 0.049313591 -1.322584e-20)
(-0.46810938 0.041493706 6.5607017e-21)
(-0.48339314 0.032989012 -2.8863253e-21)
(-0.49400896 0.023901843 -8.9329063e-21)
(-0.49902587 0.014356706 1.3980369e-19)
(-0.49764773 0.0045844807 -1.5463973e-20)
(-0.48927009 -0.0051567325 1.4278553e-20)
(-0.47345525 -0.014669714 -1.3392703e-19)
(-0.44989144 -0.023864401 7.3644278e-20)
(-0.418289 -0.032726261 6.0610404e-20)
(-0.37842768 -0.041227429 5.8365157e-20)
(-0.33008708 -0.049278024 5.683957e-20)
(-0.27331571 -0.056766343 9.0544067e-20)
(-0.20798927 -0.063556889 -1.8336131e-19)
(-0.13454982 -0.069495908 1.1480399e-19)
(-0.052635622 -0.074238898 1.7798558e-19)
(0.035918692 -0.077685876 -1.3274534e-19)
(0.13193212 -0.079284463 -4.3478624e-20)
(0.22970626 -0.080273954 -3.9105914e-20)
(0.33397393 -0.0796903 1.9975815e-19)
(0.43068943 -0.080908318 1.4843075e-19)
(0.53469741 -0.080126481 -6.6351522e-21)
(-0.00022115241 0.001734472 4.6106629e-21)
(-0.00069700389 0.0053393272 -1.0590456e-20)
(-0.0012395802 0.0092798969 8.6381406e-21)
(-0.0018600831 0.013576574 -3.2663879e-21)
(-0.0025697179 0.018248312 -1.1807513e-21)
(-0.0033822036 0.023311365 1.0171245e-20)
(-0.0043135314 0.028778089 -2.5806504e-21)
(-0.0053820962 0.034655431 -5.4861779e-21)
(-0.0066090648 0.04094307 -4.2218203e-22)
(-0.0080187004 0.047631261 -3.591918e-21)
(-0.0096386866 0.054698368 5.04369e-21)
(-0.011500413 0.062108162 -3.519179e-21)
(-0.013639218 0.069806993 -1.3019411e-20)
(-0.016094534 0.077721072 -3.7853425e-22)
(-0.018909912 0.085754183 1.0071928e-20)
(-0.022132856 0.093786329 7.1848883e-21)
(-0.02581444 0.10167397 -6.2318851e-21)
(-0.030008653 0.10925262 6.0915967e-22)
(-0.034771473 0.11634279 1.2409663e-20)
(-0.040159684 0.12275981 1.5282561e-20)
(-0.046229544 0.12832813 -1.766173e-20)
(-0.053035454 0.13289936 -1.8004253e-20)
(-0.060628831 0.13637226 2.4552603e-20)
(-0.069058369 0.13871103 -3.0757042e-20)
(-0.078372915 0.13995691 -5.3878008e-20)
(-0.088612194 0.14022718 1.2860965e-19)
(-0.09981318 0.1396872 -7.1555192e-20)
(-0.11201985 0.13849347 1.0681951e-19)
(-0.12527518 0.13677192 -1.34619e-19)
(-0.13961107 0.13463071 1.5125554e-19)
(-0.15504771 0.13215238 -1.5735825e-19)
(-0.17160276 0.12939193 2.6751353e-20)
(-0.18927947 0.1263817 9.2375438e-20)
(-0.20806445 0.12313157 -5.236011e-20)
(-0.22792104 0.11962811 1.6471974e-20)
(-0.24878079 0.11583474 4.9066366e-21)
(-0.27053281 0.11169281 5.945963e-20)
(-0.29301125 0.10712395 1.9264623e-20)
(-0.31598125 0.1020346 1.9254382e-20)
(-0.33912337 0.096321547 1.9320795e-20)
(-0.3620166 0.089877205 -9.8316895e-20)
(-0.38412063 0.082592996 4.2998937e-20)
(-0.40475967 0.074366869 6.5400837e-21)
(-0.42311999 0.065132001 -7.7641656e-20)
(-0.43831264 0.054907944 -3.8790053e-20)
(-0.44943694 0.043809152 1.9099098e-20)
(-0.45555571 0.031973274 6.7870146e-20)
(-0.45581357 0.01960691 -2.95573e-20)
(-0.44951028 0.0070253376 8.4640468e-20)
(-0.43611844 -0.005435205 4.5702332e-20)
(-0.41527922 -0.017533983 6.3099531e-20)
(-0.38674801 -0.029182342 1.6851515e-19)
(-0.35027293 -0.040387409 -1.310749e-19)
(-0.30568139 -0.051130306 4.2451518e-20)
(-0.25283241 -0.061310134 -7.4840672e-20)
(-0.19190966 -0.070807851 -7.1852336e-20)
(-0.12291399 -0.079493606 -2.8301703e-20)
(-0.046452718 -0.087251984 -2.6594724e-19)
(0.037873137 -0.093618711 -7.3246334e-20)
(0.12795949 -0.098475458 1.7074043e-19)
(0.22477419 -0.10085208 6.5622722e-20)
(0.32221454 -0.10236779 -5.0676626e-20)
(0.42541536 -0.1012933 -1.0653319e-19)
(0.5202213 -0.10162745 -1.6624848e-19)
(0.6191387 -0.098477886 1.3132139e-20)
(-0.00032287543 0.0020506332 1.3922764e-20)
(-0.0010075318 0.0063153579 3.3852804e-21)
(-0.0017755298 0.010980605 -2.7441836e-21)
(-0.0026376907 0.016071764 -1.0135988e-20)
(-0.0036053996 0.021612671 5.5574814e-21)
(-0.0046918815 0.027624351 -8.0081059e-21)
(-0.0059121297 0.034123608 3.4697176e-21)
(-0.0072829428 0.041121285 8.2765678e-22)
(-0.0088231561 0.04862011 -4.6953888e-21)
(-0.010553824 0.056612167 -1.0145779e-20)
(-0.012498406 0.065075959 -5.0872302e-22)
(-0.014682924 0.073973142 1.6804695e-20)
(-0.017136092 0.083245026 -2.3360291e-20)
(-0.019889404 0.09280909 3.7956983e-20)
(-0.02297715 0.10255586 -9.9928199e-21)
(-0.026436353 0.11234675 2.1406152e-20)
(-0.03030661 0.12201353 -2.6152426e-20)
(-0.03462982 0.13136058 1.7180147e-20)
(-0.039449806 0.14017086 -2.7542129e-21)
(-0.04481185 0.14821679 -1.1323756e-20)
(-0.050762197 0.15527666 2.7937752e-20)
(-0.05734758 0.16115627 -4.0085417e-20)
(-0.064614818 0.16571389 4.4315009e-20)
(-0.072610959 0.16888459 7.6919679e-21)
(-0.081385335 0.17069758 -7.719024e-20)
(-0.090986147 0.17127939 7.9199585e-20)
(-0.10145374 0.17082871 -5.2287264e-20)
(-0.11282917 0.16954546 5.9349137e-20)
(-0.12516305 0.16759231 5.5610457e-21)
(-0.13848836 0.16510163 3.4696156e-21)
(-0.15281971 0.1621797 -2.4386623e-20)
(-0.16816953 0.15889908 1.5357709e-21)
(-0.18453325 0.15530233 -9.3104307e-20)
(-0.20188698 0.1514034 2.5502075e-20)
(-0.22018034 0.14718687 7.6233947e-20)
(-0.23932775 0.14260796 -3.5823831e-20)
(-0.25919771 0.13759427 2.9649939e-20)
(-0.2796005 0.13204878 -2.9686911e-20)
(-0.30027401 0.12585491 -1.6583326e-19)
(-0.32086814 0.11888271 9.1723023e-20)
(-0.34092755 0.11099489 2.2319566e-20)
(-0.35987519 0.1020527 -1.2606199e-19)
(-0.37700032 0.091930675 7.5888417e-21)
(-0.39147305 0.080561394 1.5442248e-20)
(-0.40244407 0.067996832 1.6286883e-19)
(-0.40905454 0.054394177 3.729044e-20)
(-0.41046873 0.039929234 -5.7824643e-20)
(-0.40592078 0.024884526 -5.8477214e-20)
(-0.39475814 0.0096461035 -8.2191658e-20)
(-0.37646128 -0.0053763198 -1.0049386e-19)
(-0.35071111 -0.019890843 -6.1012677e-20)
(-0.31731921 -0.033809856 -9.5411522e-20)
(-0.27607746 -0.047164276 3.2868757e-20)
(-0.2268692 -0.059939087 -2.0332023e-19)
(-0.16964959 -0.072012325 -1.3658236e-20)
(-0.10475671 -0.083260225 -1.2027076e-20)
(-0.032316363 -0.093559839 -6.4809135e-21)
(0.046926517 -0.10286949 2.8606965e-19)
(0.13339144 -0.11058789 1.1431856e-19)
(0.22466843 -0.11661439 -1.7940742e-19)
(0.32182401 -0.11955576 -2.6376644e-19)
(0.41874193 -0.12135017 -1.2043572e-19)
(0.51998568 -0.11966442 -4.009531e-20)
(0.61174147 -0.11864776 2.3585296e-19)
(0.70317945 -0.11255328 -6.0267923e-20)
(-0.00043326634 0.0023019652 -2.6029906e-21)
(-0.0013450698 0.0070932093 -5.6738765e-21)
(-0.0023582031 0.012339185 1.3703416e-20)
(-0.0034835611 0.018070093 -5.1065542e-22)
(-0.0047326559 0.024314725 -6.6849195e-21)
(-0.0061182958 0.03109922 -2.9497737e-21)
(-0.007654518 0.038445536 -2.1813863e-21)
(-0.0093565302 0.046369566 4.3076167e-21)
(-0.011240792 0.054878785 -2.2353801e-20)
(-0.013325042 0.063969455 1.6923249e-20)
(-0.015628322 0.073623317 -8.2019002e-22)
(-0.018170976 0.083803843 -1.0326561e-20)
(-0.02097464 0.09445212 3.8855318e-20)
(-0.024062216 0.10548258 -3.8989666e-20)
(-0.027457848 0.11677897 5.2415696e-21)
(-0.031186899 0.12819106 3.2709218e-20)
(-0.03527597 0.13953309 -3.1105869e-20)
(-0.039752973 0.15058487 1.1022394e-20)
(-0.044647305 0.16109712 -2.1700682e-20)
(-0.049990125 0.17080229 2.8288637e-20)
(-0.055814808 0.17943213 5.3998671e-20)
(-0.062157493 0.18674197 -5.4397172e-20)
(-0.069057702 0.1925404 -8.1011541e-20)
(-0.076558868 0.19672004 1.589126e-19)
(-0.084709401 0.19928225 -1.2941181e-19)
(-0.093563694 0.20034624 7.6140629e-20)
(-0.10316848 0.20013056 -1.9916747e-20)
(-0.11356613 0.19888723 4.7465162e-20)
(-0.12480955 0.19682112 -4.9214915e-20)
(-0.13693543 0.1940865 -6.6677752e-20)
(-0.14995705 0.19081554 4.4794467e-20)
(-0.16387842 0.18710219 7.4378644e-20)
(-0.17868769 0.18300141 -6.6699204e-21)
(-0.19434975 0.17853255 -2.8059439e-21)
(-0.21079971 0.17367877 -4.8742896e-20)
(-0.22793438 0.16838784 2.1169543e-20)
(-0.24560158 0.16257422 7.7777227e-20)
(-0.26358785 0.15612266 3.9045669e-20)
(-0.28160492 0.14889378 -6.0000201e-20)
(-0.29927416 0.14073091 4.7563224e-20)
(-0.31611036 0.13146727 -4.0095011e-20)
(-0.33150896 0.12093599 1.3609501e-20)
(-0.34474232 0.10899613 5.0709437e-20)
(-0.35500043 0.09559446 -1.204438e-19)
(-0.36151092 0.080824112 -7.1132184e-20)
(-0.36350349 0.064879306 -4.5689581e-20)
(-0.36025447 0.047971617 1.4175848e-19)
(-0.35104945 0.030420045 9.0975156e-20)
(-0.33518827 0.012663769 1.0571562e-19)
(-0.31211919 -0.004794726 1.8303131e-19)
(-0.28157702 -0.021584135 -6.2862967e-20)
(-0.2434389 -0.037611752 1.319841e-20)
(-0.1975486 -0.052939567 1.0553602e-19)
(-0.14387073 -0.067554422 3.1206605e-19)
(-0.082486384 -0.081302092 2.0821871e-19)
(-0.013898482 -0.094057256 8.3266161e-20)
(0.061722229 -0.10571093 2.4736479e-19)
(0.14358684 -0.11631283 -1.7075692e-19)
(0.23205545 -0.12509776 1.7904669e-20)
(0.32449978 -0.13199117 2.8912305e-19)
(0.42186604 -0.13528406 2.0077842e-19)
(0.51840222 -0.13699122 9.5763301e-21)
(0.61688386 -0.13444861 -3.3320136e-19)
(0.703744 -0.13154464 3.5194083e-20)
(0.78512695 -0.1219789 -5.1634089e-20)
(-0.0005449251 0.0024780702 -1.0165479e-20)
(-0.0016868833 0.0076407742 4.6795505e-21)
(-0.0029485457 0.013299691 -6.3255644e-21)
(-0.0043411412 0.019489511 -3.5980413e-21)
(-0.0058763653 0.026243904 1.005205e-20)
(-0.0075667488 0.033594335 9.3958308e-21)
(-0.0094255234 0.041568506 -9.6582841e-21)
(-0.011466477 0.050188434 1.1638552e-21)
(-0.013703875 0.05946802 2.7031055e-22)
(-0.01615233 0.069410101 1.9278672e-20)
(-0.018826646 0.080002921 -2.1251834e-21)
(-0.021741641 0.091216012 -3.9220657e-20)
(-0.024911959 0.10299556 3.1542035e-20)
(-0.028351885 0.11525942 -1.096271e-21)
(-0.032075211 0.12789206 -2.1472821e-20)
(-0.036095179 0.14074008 -1.8681951e-21)
(-0.040424579 0.15360906 4.805522e-21)
(-0.04507607 0.1662631 2.1947944e-20)
(-0.050062804 0.17842844 -4.0802614e-20)
(-0.055399424 0.1898031 7.2908862e-20)
(-0.061103466 0.20007414 -1.6017211e-20)
(-0.067197078 0.2089434 1.1960766e-20)
(-0.073708886 0.21616087 -1.0055366e-20)
(-0.080675589 0.22156185 4.0033572e-22)
(-0.088142878 0.22510045 -6.1598074e-20)
(-0.096165798 0.22686822 -6.2434683e-20)
(-0.10480323 0.22708448 1.2545112e-19)
(-0.11410224 0.22604314 2.1130767e-20)
(-0.12410811 0.22401016 -7.4667065e-20)
(-0.13486826 0.22116993 -2.6823349e-20)
(-0.14639977 0.21767238 -6.1036397e-20)
(-0.15869658 0.21363766 6.9646131e-20)
(-0.17173899 0.20913806 3.0663705e-20)
(-0.18548035 0.20419999 -7.182043e-20)
(-0.19984177 0.19880694 3.0420333e-20)
(-0.2147029 0.19290062 1.4217811e-20)
(-0.22989153 0.18638339 -4.2950676e-20)
(-0.24517179 0.17912267 -1.1237369e-19)
(-0.26023126 0.17095709 -3.4076788e-20)
(-0.27466594 0.16170396 2.2860723e-20)
(-0.28796669 0.15116885 5.4132601e-20)
(-0.29951254 0.13916182 5.5646913e-20)
(-0.30857878 0.12553707 6.1191439e-20)
(-0.31441159 0.11027083 1.2741366e-19)
(-0.31633183 0.093507506 -3.4665428e-21)
(-0.31368517 0.075461146 5.2846807e-20)
(-0.30581989 0.05635073 -2.8225972e-19)
(-0.29199121 0.036485753 -7.7407931e-20)
(-0.2714085 0.016356692 -8.7672001e-20)
(-0.24357314 -0.0034032109 -2.4134169e-19)
(-0.20832722 -0.022321515 2.8102692e-19)
(-0.16560856 -0.040307335 -6.2756835e-20)
(-0.11530144 -0.057444682 -2.0270461e-19)
(-0.057452347 -0.073712977 -2.5151118e-19)
(0.0077361559 -0.088920566 -3.2464855e-20)
(0.079648128 -0.1029694 8.2669007e-20)
(0.15817075 -0.11576562 1.3557777e-19)
(0.2424981 -0.127443 -5.8209065e-20)
(0.33294385 -0.13704892 1.0689331e-19)
(0.42683537 -0.14451061 -9.0984022e-20)
(0.52468964 -0.1479019 -3.1193088e-20)
(0.6207318 -0.14905733 -9.3658112e-20)
(0.71520576 -0.14503329 4.1547512e-19)
(0.7943094 -0.13969746 1.3623564e-20)
(0.86220729 -0.12632713 1.6974399e-19)
(-0.00064960031 0.0025716034 9.4416957e-21)
(-0.0020076398 0.0079352145 1.7168244e-21)
(-0.0035029441 0.013822004 -1.8879074e-21)
(-0.0051471707 0.020270665 -9.2861318e-21)
(-0.0069523263 0.027319441 1.1147798e-20)
(-0.0089308471 0.035005105 -9.478024e-21)
(-0.011095403 0.043361455 -4.5360286e-21)
(-0.013458678 0.052417463 2.4387108e-22)
(-0.016033136 0.062194895 3.8460794e-21)
(-0.018830738 0.072705366 2.1932309e-20)
(-0.02186261 0.083946735 -3.6952343e-20)
(-0.025138665 0.095898802 4.4584916e-20)
(-0.028667218 0.10851831 -1.316094e-20)
(-0.032454595 0.12173332 -1.7968949e-20)
(-0.036504818 0.13543728 2.7763513e-20)
(-0.040819407 0.14948316 -5.5205063e-20)
(-0.045397427 0.16367853 6.7590169e-20)
(-0.050235894 0.17778285 1.0718986e-21)
(-0.055330674 0.19150857 3.9730406e-20)
(-0.060678051 0.20452819 -1.6013304e-19)
(-0.066276965 0.21648962 3.942987e-20)
(-0.072131953 0.22704143 1.659545e-19)
(-0.078256433 0.23586825 -7.9922451e-20)
(-0.084675832 0.24273353 -9.7061632e-20)
(-0.091429603 0.24752255 2.4872224e-20)
(-0.098571062 0.25027359 1.3215393e-19)
(-0.10616376 0.25118106 -2.0352601e-19)
(-0.11426939 0.25055406 2.2888787e-19)
(-0.12293092 0.2487244 -1.8254965e-19)
(-0.13219042 0.24594472 3.5368834e-20)
(-0.14207782 0.24237943 -6.116289e-20)
(-0.15258438 0.23816186 -8.7818168e-20)
(-0.16368121 0.23338898 3.5096579e-20)
(-0.17531091 0.2281027 9.2235135e-21)
(-0.18738008 0.22228975 1.3131562e-19)
(-0.19975172 0.21588728 -2.581628e-20)
(-0.21223458 0.20878686 6.6160543e-20)
(-0.22457186 0.20083979 -5.606574e-20)
(-0.23642858 0.19186395 3.3558949e-20)
(-0.24737797 0.18165229 2.1727756e-20)
(-0.25689199 0.16998658 1.8557645e-20)
(-0.2643428 0.15666149 1.8405187e-20)
(-0.26902591 0.14153951 -1.1155446e-19)
(-0.27026769 0.12464157 -8.6986228e-20)
(-0.26747032 0.10616345 2.4393102e-20)
(-0.26007606 0.08631601 -1.5217977e-20)
(-0.24743922 0.065283276 6.3263663e-20)
(-0.22873535 0.043338227 -1.239111e-19)
(-0.20321314 0.021047275 -1.4286949e-19)
(-0.17057365 -0.00080934413 -4.1173777e-20)
(-0.13078403 -0.021678751 -1.0826807e-19)
(-0.083788634 -0.041463232 3.4795741e-21)
(-0.029463255 -0.060266549 5.2730929e-20)
(0.032083363 -0.0780471 2.5760617e-19)
(0.10057484 -0.094571289 -1.3008534e-19)
(0.17540052 -0.10977665 5.3126021e-20)
(0.25657892 -0.12357887 -1.5829056e-19)
(0.34339297 -0.13615301 2.7003878e-19)
(0.43614507 -0.14636843 -1.5748858e-19)
(0.5320819 -0.15396576 5.5140841e-20)
(0.63078686 -0.15696642 -7.0432808e-23)
(0.72555973 -0.15689809 4.4808787e-20)
(0.81323569 -0.15081863 1.684031e-19)
(0.88027512 -0.14269309 -3.2081529e-19)
(0.93047776 -0.12596421 3.316854e-19)
(-0.00073875672 0.0025791128 -2.0867614e-20)
(-0.0022812134 0.0079654709 -9.6956457e-21)
(-0.003976264 0.013886193 1.5232965e-20)
(-0.0058360543 0.020383249 -4.0133721e-22)
(-0.007873015 0.027498884 -1.380294e-20)
(-0.010099687 0.03527484 -7.2278982e-21)
(-0.012528478 0.043750994 1.5264972e-20)
(-0.015171385 0.05296369 -2.5116575e-21)
(-0.018039631 0.062943536 3.5525544e-20)
(-0.021143239 0.073712627 -6.9496457e-21)
(-0.024490535 0.085281053 -1.7826741e-22)
(-0.028087583 0.097642613 2.581058e-20)
(-0.031937583 0.11076967 -8.3268243e-20)
(-0.036040243 0.12460715 3.9111435e-20)
(-0.040391212 0.13906581 7.0744869e-20)
(-0.044981639 0.15401514 -7.6244846e-20)
(-0.049798014 0.16927659 9.5004016e-21)
(-0.054822433 0.18461817 -5.4830888e-20)
(-0.060033549 0.1997523 -4.1422384e-20)
(-0.065408373 0.21433902 1.3273747e-19)
(-0.070925179 0.22799748 -1.0167529e-19)
(-0.076567463 0.2403284 1.3664887e-19)
(-0.08232877 0.25094898 -1.6419521e-20)
(-0.08821765 0.25953922 6.8416668e-20)
(-0.094261591 0.26589377 -1.5184605e-19)
(-0.10050819 0.26996752 3.6645879e-20)
(-0.10702135 0.2718967 9.4076838e-20)
(-0.11387057 0.27197476 -2.310699e-19)
(-0.12111561 0.27057244 1.0194575e-19)
(-0.12879081 0.26802617 1.1094161e-19)
(-0.13691883 0.26456473 -9.2792372e-20)
(-0.14550687 0.26034067 -1.2411927e-20)
(-0.15451843 0.25545629 6.3455038e-20)
(-0.16388395 0.24996732 -3.5438119e-20)
(-0.1734996 0.24387318 5.4739722e-20)
(-0.18321311 0.23711178 -1.9393833e-19)
(-0.19281405 0.22956705 1.0241012e-19)
(-0.20202434 0.22107639 6.1893896e-20)
(-0.21048628 0.21143855 1.2734323e-19)
(-0.2177517 0.20042501 1.6721298e-20)
(-0.22327698 0.18779899 -1.3695871e-19)
(-0.22643405 0.17334977 5.5034812e-20)
(-0.22655034 0.15696274 8.0933106e-20)
(-0.22302765 0.13870667 1.2698586e-20)
(-0.21532692 0.1188171 -7.722927e-20)
(-0.20293523 0.097490349 -6.727667e-20)
(-0.18516904 0.07484427 2.0263449e-19)
(-0.16121683 0.051133095 1.0635861e-19)
(-0.13058882 0.027008105 2.292132e-19)
(-0.093250795 0.0033636745 8.0110525e-20)
(-0.049222796 -0.019203338 3.1002418e-20)
(0.0016151418 -0.040616613 2.2997032e-19)
(0.059440174 -0.060964763 9.1001975e-20)
(0.12414087 -0.080153535 -3.0754469e-19)
(0.19546834 -0.097893988 2.489308e-19)
(0.27295166 -0.11416001 -2.3108413e-19)
(0.35686645 -0.12885159 1.1195521e-19)
(0.44677166 -0.14210544 -5.4639729e-19)
(0.54278848 -0.15257555 -2.7580315e-19)
(0.64175368 -0.159912 1.1240939e-19)
(0.74114973 -0.1619685 1.7720076e-19)
(0.83168653 -0.15997066 2.9768547e-19)
(0.90725471 -0.1513111 5.2647064e-20)
(0.95648252 -0.14043032 4.1468541e-20)
(0.98510388 -0.1213077 -4.4309182e-19)
(-0.00080435463 0.0025017366 -3.7479331e-22)
(-0.0024829222 0.0077344488 1.7926343e-20)
(-0.0043257583 0.013496335 -2.1149304e-20)
(-0.0063454951 0.019831666 -1.0187718e-20)
(-0.0085550505 0.026785803 2.042826e-20)
(-0.010967242 0.034404732 6.6264746e-21)
(-0.013594518 0.042733918 -3.2194743e-20)
(-0.016448644 0.051816914 3.4722424e-20)
(-0.019540245 0.061693469 7.345046e-21)
(-0.022878266 0.072397076 2.931669e-20)
(-0.026469343 0.083951789 -7.8163526e-20)
(-0.03031707 0.09636819 -9.5920599e-22)
(-0.034421186 0.10963838 7.0972651e-20)
(-0.038776708 0.12372986 -7.6736258e-20)
(-0.043373063 0.1385784 5.541071e-20)
(-0.048193321 0.15407991 2.07563e-20)
(-0.053213667 0.17008197 -4.3881683e-20)
(-0.058403321 0.18637578 4.0147673e-20)
(-0.063725188 0.20269018 5.4264622e-20)
(-0.069137583 0.21869008 -1.1732159e-21)
(-0.07459729 0.23398235 -8.8622442e-20)
(-0.080064239 0.2481327 5.5829832e-20)
(-0.085507612 0.26069672 -3.170653e-20)
(-0.090912796 0.27126607 -1.5636246e-19)
(-0.096287834 0.27952659 -5.3175557e-20)
(-0.10166723 0.28531818 1.4717518e-19)
(-0.10711023 0.28867808 -1.4936165e-20)
(-0.11269055 0.28984252 1.7150062e-19)
(-0.11847839 0.2891853 -1.03163e-19)
(-0.12452205 0.28710665 5.517914e-20)
(-0.13084549 0.28393129 -8.1165511e-20)
(-0.13744015 0.27986678 -2.0003106e-20)
(-0.14426833 0.27503746 1.021582e-19)
(-0.15126546 0.26951369 -1.0676856e-19)
(-0.15831559 0.26330259 -1.5794704e-19)
(-0.16525106 0.25634272 1.6425336e-20)
(-0.17184328 0.24851234 1.7472098e-19)
(-0.17779264 0.23963722 -2.2568614e-19)
(-0.18271815 0.22950172 4.9249229e-20)
(-0.18615041 0.21786035 -1.0563611e-19)
(-0.18753336 0.20446415 1.6289173e-20)
(-0.1862432 0.1891054 -1.6566512e-19)
(-0.18164762 0.1716974 -7.9380164e-20)
(-0.17319241 0.15236425 -9.7790797e-20)
(-0.16038081 0.13136739 3.9208338e-19)
(-0.14270708 0.10887729 1.2676668e-19)
(-0.11947669 0.084962205 -1.6801744e-19)
(-0.090096441 0.059879627 1.3575438e-19)
(-0.054456173 0.034355048 1.1288284e-19)
(-0.0127053 0.0093096911 -1.2701197e-19)
(0.035170737 -0.014695477 -6.6356118e-20)
(0.089400667 -0.037584283 -1.5579082e-19)
(0.15027304 -0.05936921 -7.5888004e-20)
(0.21777359 -0.079881668 2.6018656e-19)
(0.29181311 -0.098770927 1.4723955e-19)
(0.37224901 -0.11602865 2.3781532e-20)
(0.45980493 -0.13151566 -1.0411581e-21)
(0.55441104 -0.14518854 1.3531071e-19)
(0.65540203 -0.15550811 -1.9684777e-19)
(0.75776832 -0.16168203 -2.5650989e-19)
(0.85495631 -0.16177938 -7.2235307e-20)
(0.9345261 -0.15725553 -5.5045817e-19)
(0.99018434 -0.14623046 -4.3982668e-19)
(1.0156792 -0.1336788 -1.1239945e-19)
(1.0221489 -0.11440367 -6.0169228e-20)
(-0.00083973792 0.0023457459 1.2641186e-20)
(-0.0025922469 0.0072607455 7.4919585e-21)
(-0.0045157556 0.012683597 -1.5592394e-20)
(-0.0066232971 0.018659659 2.6747435e-20)
(-0.0089282536 0.025236203 6.7032551e-21)