/*--------------------------------*- C++ -*----------------------------------*\
  =========                 |
  \\      /  F ield         | OpenFOAM: The Open Source CFD Toolbox
   \\    /   O peration     | Website:  https://openfoam.org
    \\  /    A nd           | Version:  13
     \\/     M anipulation  |
\*---------------------------------------------------------------------------*/
FoamFile
{
    format      ascii;
    class       volScalarField;
    location    "9.199159";
    object      omega;
}
// * * * * * * * * * * * * * * * * * * * * * * * * * * * * * * * * * * * * * //

dimensions      [0 0 -1 0 0 0 0];

internalField   nonuniform List<scalar> 
17140
(
4528389.9
731656.9
224625.21
95287.227
48484.503
27613.428
16955.602
10979.158
7392.5403
5127.3899
3639.1043
2630.068
1928.349
1430.0256
1069.8886
805.71771
609.4437
461.98266
350.11358
264.53683
198.63776
147.68246
108.28185
78.018946
55.166837
38.447567
26.8111
19.244046
14.72459
12.234742
10.884151
10.096208
9.5161835
9.0044657
8.526916
8.0792093
7.6607606
7.2715881
6.912393
6.5846152
6.2888652
6.0260038
5.7975636
5.6044679
5.4478056
5.3377842
5.2815556
5.260364
5.2579915
5.3043051
5.3602377
5.4496975
5.549458
5.6381585
5.70654
5.7867496
5.8444814
5.8601141
5.7101195
5.4735007
5.0509174
4.5921578
4.0782307
3.6316255
3.2103706
4528420.9
731662.53
224627.29
95288.339
48485.212
27613.945
16956.02
10979.523
7392.8795
5127.7193
3639.4343
2630.4058
1928.6991
1430.3907
1070.2698
806.11471
609.8548
462.40473
350.54192
264.96512
199.0579
148.08452
108.65417
78.348844
55.442161
38.659309
26.956523
19.329834
14.76154
12.240752
10.873299
10.079144
9.4990694
8.989448
8.5147574
8.0705006
7.6561176
7.271405
6.9169178
6.5949048
6.3065801
6.0540264
5.8383513
5.6615127
5.5248218
5.4509959
5.4241703
5.4270981
5.4925914
5.5917845
5.7225847
5.8827335
6.0626727
6.2233203
6.3897963
6.5253081
6.5984099
6.6126384
6.4272773
6.0918279
5.5535883
4.9952584
4.3865634
3.8759068
3.3422092
4528451.2
731667.54
224628.9
95289.113
48485.718
27614.36
16956.417
10979.935
7393.3239
5128.2081
3639.9748
2631.0026
1929.3546
1431.1054
1071.0421
806.94082
610.72844
463.31688
351.48049
265.9145
199.99856
148.99266
109.50197
79.105863
56.078799
39.152866
27.298604
19.534237
14.852414
12.259652
10.853565
10.045609
9.4660821
8.960464
8.4909526
8.0530925
7.6471937
7.2735447
6.9319528
6.6261401
6.3575543
6.1294543
5.9443678
5.8092759
5.7370173
5.7103787
5.7258983
5.8231317
5.9570312
6.1182314
6.3056976
6.5014982
6.6936794
6.8586213
6.9842844
7.0404171
7.0485293
6.9815884
6.7330425
6.2800185
5.6281262
4.9297945
4.1496827
3.5351886
2.8505097
4528483
731672.78
224630.6
95289.983
48486.331
27614.904
16956.971
10980.533
7393.9866
5128.9478
3640.8003
2631.9196
1930.3662
1432.212
1072.2411
808.22651
612.09137
464.74345
352.95229
267.40764
201.4829
150.43124
110.85118
80.317403
57.10492
39.955702
27.862072
19.87767
15.011987
12.300931
10.830911
9.9993027
9.4169509
8.9167455
8.4554691
8.0278263
7.634518
7.2782511
6.9571525
6.6767751
6.439129
6.2479965
6.1100179
6.0349191
6.003397
6.0005024
6.0983793
6.2310119
6.3973115
6.5769982
6.7647472
6.939817
7.0944811
7.1917827
7.2322452
7.2323714
7.1692984
7.0493615
6.7442973
6.081902
5.2077498
4.3151096
3.425976
2.7497087
2.0781008
4528516.9
731678.36
224632.42
95290.945
48487.046
27615.572
16957.676
10981.31
7394.8566
5129.9262
3641.8976
2633.1429
1931.7195
1433.696
1073.8531
809.95937
613.93337
466.67721
354.95398
269.44596
203.51794
152.41355
112.72173
82.009897
58.552329
41.102586
28.681087
20.386071
15.262445
12.377142
10.812109
9.9396324
9.3503865
8.856755
8.4071241
7.9935986
7.6174005
7.2817803
6.9872039
6.7369446
6.5343276
6.3823789
6.2967122
6.2555604
6.2434819
6.2887243
6.4193164
6.5585374
6.7260364
6.8840033
7.0395901
7.1711546
7.2628572
7.3092101
7.3225111
7.2226508
7.0886558
6.9038795
6.5401115
5.7516206
4.7292079
3.7220885
2.801491
2.1321768
1.5573874
4528552.1
731684.13
224634.31
95291.985
48487.854
27616.35
16958.514
10982.245
7395.9119
5131.1185
3643.2392
2634.6425
1933.3828
1435.5248
1075.8451
812.10741
616.22447
469.0916
357.4639
272.01423
206.09641
154.9417
115.12622
84.206749
60.454282
42.633707
29.797705
21.095989
15.633638
12.505958
10.805973
9.8696421
9.2640735
8.7780302
8.3434208
7.9485576
7.5928443
7.278645
7.0138749
6.7936018
6.6243533
6.5183253
6.464646
6.4448453
6.4452871
6.527108
6.6533361
6.7842113
6.926535
7.0478008
7.1629535
7.2547592
7.3151708
7.3404798
7.2939534
7.122104
6.9207579
6.6914655
6.2904573
5.3603825
4.1917526
3.1167139
2.2286736
1.6358447
1.1707763
4528588.7
731690.1
224636.27
95293.094
48488.74
27617.222
16959.463
10983.31
7397.1195
5132.4873
3644.7836
2636.3734
1935.3076
1437.6473
1078.1647
814.61798
618.91351
471.9388
360.43961
275.0776
209.19339
158.00297
118.0661
86.924833
62.842786
44.593502
31.263123
22.060465
16.168969
12.718652
10.829395
9.7994097
9.1679185
8.6872633
8.2681984
7.8923139
7.5590896
7.2678065
7.0315462
6.8396602
6.7055212
6.6318325
6.5977753
6.5879204
6.6057695
6.6949224
6.8046485
6.9180942
7.0285525
7.119087
7.2061021
7.279378
7.3240099
7.3402459
7.2154782
6.9774375
6.7253248
6.4584087
5.9936017
4.9074964
3.6388506
2.5687233
1.7671926
1.272327
0.90754132
4528626.6
731696.29
224638.31
95294.262
48489.685
27618.16
16960.492
10984.47
7398.4384
5133.9857
3646.4781
2638.2774
1937.4311
1439.9967
1080.742
817.41983
621.92971
475.15074
363.81833
278.58152
212.76565
161.56871
121.53042
90.173427
65.748405
47.032237
33.141993
23.349926
16.924077
13.055569
10.909594
9.7446036
9.0688178
8.5870959
8.182262
7.8250795
7.5128635
7.2476378
7.0303437
6.8702941
6.7662261
6.7134504
6.692509
6.6889038
6.7163445
6.7981501
6.8913398
6.9877682
7.0759555
7.1532855
7.2336572
7.3006683
7.3344468
7.3215063
7.1020906
6.7906663
6.5158084
6.2336676
5.6792661
4.4095803
3.0899696
2.0823566
1.3926171
0.99681795
0.71371711
4528664.7
731702.67
224640.44
95295.476
48490.666
27619.137
16961.565
10985.682
7399.8179
5135.5559
3648.2578
2640.2824
1939.6744
1442.4882
1083.4876
820.42029
625.17918
478.63484
367.51186
282.44566
216.74467
165.58641
125.487
93.944511
69.189757
49.994694
35.499962
25.039502
17.973437
13.582359
11.089315
9.7337385
8.978816
8.4828157
8.0886153
7.7491754
7.4574838
7.2151879
7.0182549
6.8803437
6.8033059
6.7649378
6.7523288
6.7535118
6.7849682
6.8547593
6.9349943
7.0202245
7.1004429
7.1809651
7.2685085
7.3368571
7.3678267
7.2573417
6.9171927
6.5676227
6.3140195
6.0203927
5.3286717
3.8716327
2.5595263
1.6636517
1.1015547
0.79714554
0.58013712
4528704.9
731709.33
224642.67
95296.731
48491.667
27620.125
16962.644
10986.897
7401.2015
5137.1324
3650.048
2642.3049
1941.9454
1445.0216
1086.294
823.5062
628.54497
482.273
371.40424
286.56023
221.03152
169.97326
129.87472
98.204277
73.165052
53.513302
38.401036
27.215222
19.411164
14.379439
11.421734
9.8000804
8.9168296
8.3835065
7.991246
7.6662279
7.3920341
7.1677327
6.9932983
6.8707074
6.8070706
6.7825841
6.777082
6.7856065
6.8103993
6.8662305
6.9410347
7.0264647
7.1138581
7.2071808
7.3017405
7.3547434
7.3714012
7.1200586
6.6564958
6.3387961
6.1422463
5.8174618
4.9274285
3.3277906
2.0737264
1.3135015
0.87378639
0.64656059
0.47879186
4528746.8
731716.33
224645.07
95298.064
48492.704
27621.116
16963.698
10988.07
7402.5303
5138.6448
3651.7677
2644.2528
1944.1413
1447.4835
1089.038
826.54522
631.88753
485.92087
375.34965
290.78214
225.49106
174.60826
134.59379
102.88175
77.63965
57.595695
41.896796
29.966569
21.348879
15.557931
11.996208
9.9949776
8.9141501
8.3006256
7.8962161
7.5797694
7.3194861
7.1101281
6.9515671
6.8481328
6.794591
6.7745478
6.7717561
6.7832607
6.8060277
6.8575029
6.9308565
7.0170444
7.1074728
7.2051177
7.2935783
7.3308839
7.2590952
6.8751744
6.3612116
6.173131
6.0139667
5.6200422
4.417596
2.7424917
1.6374452
1.0341703
0.70400771
0.53588532
0.40345118
4528789.6
731723.51
224647.51
95299.378
48493.693
27622.038
16964.663
10989.136
7403.7339
5140.0147
3653.3283
2646.0269
1946.1509
1449.7504
1091.5835
829.38937
635.04775
489.41
379.17304
294.93375
229.94834
179.32581
139.49605
107.85566
82.529584
62.205384
46.005418
33.365788
23.899121
17.242752
12.936458
10.40103
9.016963
8.2754566
7.8150044
7.4954274
7.2432695
7.0447367
6.897154
6.8065418
6.7644369
6.750776
6.7521724
6.767794
6.786822
6.8300155
6.9000907
6.9869562
7.0789425
7.1746714
7.2381503
7.2156918
7.0509345
6.4992825
6.1878574
6.098605
5.9182942
5.3903849
3.7659818
2.1740452
1.2757751
0.82169198
0.57890694
0.45210329
0.34392588
4528834.7
731730.97
224649.99
95300.654
48494.605
27622.854
16965.493
10990.039
7404.7472
5141.1661
3654.6422
2647.5265
1947.8601
1451.6937
1093.7866
831.87883
637.84999
492.54972
382.67054
298.80112
234.18412
183.90805
144.37375
112.93926
87.682177
67.238483
50.68612
37.44428
27.1618
19.580374
14.392041
11.153091
9.3105605
8.3245586
7.7814689
7.4222841
7.1701022
6.976158
6.8348182
6.7501474
6.7119503
6.7021567
6.7102022
6.7314414
6.744461
6.7763972
6.8395907
6.9220166
7.0100855
7.0922565
7.0933725
7.0183325
6.7222364
6.2257802
6.1114588
6.0779305
5.8378072
5.0316233
3.0040418
1.6616386
0.99070096
0.66590813
0.48713348
0.38793681
0.29820008
4528880.1
731738.52
224652.45
95301.865
48495.413
27623.528
16966.148
10990.732
7405.5135
5142.0325
3655.6319
2648.6622
1949.1652
1453.1942
1095.511
833.85843
640.11884
495.1434
385.62427
302.14633
237.94346
188.08833
148.95663
117.87005
92.857687
72.496823
55.804059
42.1514
31.181628
22.699963
16.537448
12.421948
9.9261307
8.5378691
7.8147086
7.3947112
7.1057206
6.9106312
6.7710637
6.6846826
6.645738
6.6383763
6.6508521
6.676023
6.6854583
6.7043906
6.7532968
6.8214077
6.8927956
6.9259071
6.8895519
6.7477672
6.3079484
6.093018
6.1563216
6.1626218
5.75349
4.2799443
2.2813365
1.2491067
0.77468457
0.54918333
0.41617925
0.3359763
0.26039079
4528926.9
731746.25
224654.9
95303.005
48496.101
27624.041
16966.6
10991.18
7405.9916
5142.5648
3656.2391
2649.3646
1949.9849
1454.1559
1096.6434
835.19509
641.69839
497.00945
387.82434
304.72956
240.95649
191.56886
152.92438
122.31464
97.724244
77.670815
61.099435
47.309887
35.894827
26.664984
19.541494
14.417964
11.063585
9.0743539
7.9935426
7.4289961
7.0935518
6.8566586
6.7070168
6.6177014
6.5731038
6.5634874
6.5754897
6.6059471
6.6154375
6.621832
6.6452161
6.6907808
6.7291308
6.7160924
6.6421384
6.3733146
6.1192852
6.1390902
6.4160379
6.2643165
5.5269875
3.2315751
1.6231961
0.92737637
0.61854872
0.46239326
0.36018739
0.29389736
0.23016173
4528977.9
731754.45
224657.4
95304.077
48496.662
27624.384
16966.839
10991.37
7406.1636
5142.7401
3656.4347
2649.5973
1950.2728
1454.5205
1097.111
835.79802
642.47606
498.00888
389.09998
306.34295
242.97361
194.0553
155.93755
125.89251
101.87024
82.3357
66.162511
52.564883
41.050568
31.375082
23.474419
17.359753
12.986499
10.145334
8.4781174
7.6025935
7.13671
6.8576359
6.6683213
6.5519537
6.4989645
6.486527
6.49465
6.5241531
6.5364673
6.5330774
6.5350872
6.5447496
6.5392144
6.4989874
6.3543435
6.1533372
6.1341358
6.4300469
6.811049
6.3379335
4.6084858
2.2227724
1.1863001
0.74169031
0.52324156
0.40093754
0.31607775
0.25936453
0.20506605
4529031.7
731762.9
224659.93
95305.088
48497.111
27624.569
16966.878
10991.316
7406.0461
5142.576
3656.2368
2649.3771
1950.0429
1454.2962
1096.9116
835.6489
642.41032
498.07001
389.3441
306.8388
243.80222
195.30638
157.69916
128.24384
104.87156
86.010085
70.47399
57.395342
46.182218
36.490673
28.191921
21.313319
15.936861
12.071469
9.5594438
8.093013
7.3317066
6.921994
6.681301
6.5313451
6.4367023
6.4035017
6.4082089
6.4319148
6.4500546
6.4441757
6.4288982
6.4088296
6.3747583
6.2892322
6.1608346
6.1619301
6.4606402
7.2453202
6.9954609
5.9879574
3.1422807
1.5443787
0.87684218
0.58731032
0.44630353
0.35433549
0.28160599
0.23212163
0.18510762
4529085.9
731771.49
224662.47
95306.05
48497.467
27624.625
16966.751
10991.06
7405.6855
5142.1253
3655.7045
2648.7701
1949.3683
1453.5633
1096.1335
834.84361
641.60255
497.29237
388.63855
306.25902
243.41584
195.19876
157.98231
129.0478
106.32473
88.210151
73.466519
61.163372
50.619834
41.380682
33.202617
26.032905
19.959228
15.117982
11.569429
9.2279595
7.8779078
7.16467
6.779833
6.5631641
6.4396921
6.3695282
6.3411944
6.3463081
6.3523994
6.3445873
6.3264307
6.2881504
6.2451738
6.1803595
6.2267642
6.5381215
7.5433128
7.7955794
7.0482857
4.4963858
2.0500341
1.0774112
0.69547153
0.51288643
0.39570641
0.31223392
0.25013774
0.20874786
0.1691491
4529139.6
731780.23
224665.04
95306.982
48497.764
27624.595
16966.513
10990.665
7405.1578
5141.4747
3654.9356
2647.8849
1948.3684
1452.4513
1094.9147
833.52735
640.20424
495.8352
387.1556
304.79522
242.02953
193.96178
156.97664
128.36888
106.0893
88.575146
74.610908
63.223743
53.610996
45.220868
37.689847
30.838374
24.656329
19.264464
14.832242
11.480992
9.1738372
7.838914
7.1170646
6.7258347
6.5127363
6.4065343
6.3563912
6.3401715
6.3356781
6.317609
6.2901337
6.2519296
6.2556875
6.3554355
6.7086908
7.7956637
8.5822406
8.0165874
6.0284417
2.6384972
1.3033973
0.79158477
0.5618246
0.4311255
0.34245762
0.27826045
0.22510819
0.18811631
0.15493813
4529196.7
731789.35
224667.7
95307.938
48498.053
27624.537
16966.23
10990.21
7404.5523
5140.7278
3654.049
2646.8567
1947.1953
1451.1299
1093.4428
831.90541
638.43675
493.93263
385.1366
302.68913
239.87896
191.82506
154.92932
126.50393
104.51402
87.398752
73.945715
63.206413
54.467046
47.11324
40.624904
34.653757
29.049036
23.816812
19.083872
15.036625
11.829717
9.4755378
8.0490987
7.2517816
6.8143382
6.591761
6.4834965
6.4401786
6.4296262
6.4072573
6.4161636
6.4681886
6.6148148
7.0467347
8.2961556
9.4393623
8.9864658
7.4012129
3.4973517
1.6534401
0.95719009
0.65631963
0.49710138
0.39211694
0.31298453
0.25140446
0.20521527
0.17309032
0.14432726
4529258.1
731798.98
224670.5
95308.954
48498.375
27624.502
16965.967
10989.771
7403.9604
5139.991
3653.1676
2645.8267
1946.0102
1449.782
1091.9243
830.20929
636.55787
491.86935
382.89258
300.2757
237.31804
189.15238
152.19797
123.78754
101.90893
85.024532
71.943137
61.695966
53.5242
46.85489
41.256658
36.36122
31.839188
27.462564
23.218273
19.21841
15.639687
12.642892
10.294752
8.662589
7.73466
7.2048507
6.9374077
6.8157666
6.8015157
6.8430444
6.9616169
7.2129993
7.7630558
9.1552257
10.456994
10.041791
8.5924066
4.6078567
2.111038
1.1314844
0.72864904
0.53259391
0.41631047
0.3336168
0.27143343
0.22396373
0.18625217
0.15982496
0.13585029
4529319.5
731808.8
224673.4
95310.039
48498.759
27624.53
16965.771
10989.407
7403.4528
5139.3479
3652.3892
2644.9084
1944.9443
1448.5589
1090.5328
828.63767
634.7945
489.90357
380.71605
297.88413
234.71356
186.34671
149.21634
120.67354
98.730332
81.880563
68.938343
58.987122
51.27946
45.17948
40.193363
35.945134
32.244354
28.893482
25.703578
22.50449
19.36489
16.427035
13.835433
11.723276
10.095665
9.0002331
8.3613975
8.0411072
8.0639022
8.200468
8.5150427
9.0827618
10.454571
11.664434
11.237116
9.7880509
5.7655655
2.5551945
1.2823147
0.79844275
0.58154365
0.4630479
0.37736655
0.30618424
0.24978272
0.20440185
0.17006012
0.14728946
0.1276963
4529381.2
731818.83
224676.41
95311.204
48499.217
27624.638
16965.665
10989.146
7403.0616
5138.8367
3651.7593
2644.1559
1944.0618
1447.5363
1089.3582
827.29726
633.27338
488.18599
378.78602
295.72643
232.31499
183.69787
146.31387
117.52252
95.345972
78.286141
65.200908
55.206515
47.617237
41.867022
37.471101
33.989055
31.00562
28.315704
25.806839
23.504916
21.294133
19.105126
16.980141
15.05469
13.429687
12.169
11.320949
10.771706
10.631049
10.726736
11.087303
12.132941
13.030895
12.547917
10.961408
6.7510237
2.9870665
1.485887
0.89383895
0.6461092
0.50919527
0.4055577
0.32372212
0.26476505
0.21904524
0.18619728
0.15996391
0.14015575
0.12248493
4529447.3
731829.46
224679.6
95312.453
48499.743
27624.811
16965.628
10988.961
7402.7572
5138.424
3651.2409
2643.5289
1943.3199
1446.6704
1088.3571
826.148
631.96117
486.69431
377.09688
293.82067
230.17306
181.30088
143.64474
114.56769
92.097903
74.745474
61.389657
51.173051
43.423114
37.607152
33.294121
30.137959
27.808744
25.985675
24.342516
22.719075
21.095889
19.587244
18.190204
16.891362
15.679231
14.616749
13.781507
13.142874
12.874916
13.065555
13.931089
14.46748
13.902003
12.073356
7.4948893
3.3952571
1.6940694
0.99628106
0.70302419
0.53963532
0.42684505
0.34859856
0.29217012
0.24530032
0.20484082
0.17100236
0.14695224
0.13083867
0.11701816
4529517.1
731840.55
224682.92
95313.761
48500.294
27624.996
16965.596
10988.779
7402.4535
5138.0119
3650.7241
2642.9058
1942.5851
1445.816
1087.3729
825.02193
630.67948
485.24185
375.45729
291.97672
228.1072
178.99604
141.08578
111.74279
88.999487
71.373366
57.747974
47.276018
39.300706
33.308938
28.890899
25.710838
23.469932
21.924158
20.880461
20.094786
19.382482
18.539733
17.65488
16.776459
15.949965
15.190466
14.475721
14.24178
14.612506
15.811635
15.92335
15.243839
13.082351
7.9744696
3.7231677
1.885002
1.1035347
0.76280572
0.57760516
0.46200629
0.38371009
0.31953898
0.26205037
0.21584722
0.1841846
0.1602627
0.14069725
0.12604362
0.11340145
4529588.1
731851.93
224686.36
95315.12
48500.857
27625.17
16965.536
10988.556
7402.1004
5137.5428
3650.1439
2642.2137
1941.7769
1444.885
1086.3104
823.81794
629.32275
483.72047
373.75901
290.08901
226.01713
176.69035
138.55158
108.96955
85.982725
68.11957
54.268225
43.584409
35.420126
29.271576
24.73877
21.494299
19.260525
17.797443
16.89249
16.342701
15.945764
15.64649
15.351603
15.092076
14.830251
14.801434
15.294268
16.309442
17.78003
17.440696
16.523744
13.93586
8.197282
3.963393
2.0530116
1.210159
0.82543101
0.61906983
0.49481488
0.40746157
0.33333138
0.27361308
0.23174995
0.19890029
0.17049156
0.14790397
0.13151381
0.11983681
0.10996457
4529661.3
731863.76
224689.92
95316.516
48501.426
27625.331
16965.45
10988.297
7401.703
5137.0227
3649.507
2641.4608
1940.9056
1443.8911
1085.1887
822.56255
627.92744
482.17873
372.06414
288.23441
223.99678
174.49951
136.18751
106.43218
83.27561
65.250185
51.248944
40.428242
32.146437
25.907845
21.319561
18.058753
15.850573
14.454367
13.658303
13.270692
13.17771
13.290341
13.585593
14.203941
15.104427
16.649288
18.778767
19.466957
19.042124
17.648587
14.296577
8.2615629
4.1534556
2.202411
1.315307
0.89487591
0.66610687
0.52826473
0.43117735
0.35169451
0.29401213
0.25245311
0.21511863
0.18431818
0.16059679
0.14182226
0.12738705
0.11631556
0.10726384
4529737.4
731876.03
224693.66
95318.011
48502.086
27625.592
16965.48
10988.173
7401.4631
5136.685
3649.0804
2640.949
1940.3092
1443.2092
1084.4192
821.70279
626.97472
481.13043
370.91809
286.98924
222.65217
173.05611
134.64651
104.7947
81.54199
63.420482
49.325196
38.427825
30.091656
23.826035
19.24277
16.022004
13.894046
12.654785
12.113041
12.042618
12.444134
13.323126
14.728356
16.656654
18.809434
20.723594
20.958167
20.364537
18.522617
14.347642
8.3871397
4.3532179
2.3570228
1.4209065
0.97205991
0.71749333
0.56335783
0.45567427
0.37251163
0.31588149
0.27038471
0.22760249
0.19416279
0.16820134
0.14797108
0.13252316
0.12076744
0.11247263
0.10529184
4529816
731888.74
224697.58
95319.682
48502.944
27626.09
16965.795
10988.388
7401.6181
5136.8035
3649.1757
2641.0291
1940.3789
1443.2712
1084.4748
821.75231
627.01748
481.16494
370.94197
286.99914
222.64373
173.02415
134.58551
104.69959
81.409434
63.249946
49.119826
38.188128
29.828178
23.562775
19.00883
15.851741
13.851727
12.864025
12.586725
12.990948
14.10341
15.880237
18.221119
20.642808
22.461392
22.366657
21.559265
19.28558
14.451772
8.648211
4.6361242
2.5290159
1.535641
1.0548809
0.77520229
0.60249647
0.48458305
0.39677619
0.33663837
0.28364082
0.23845444
0.20691101
0.18215067
0.16005325
0.14220262
0.12822494
0.11773728
0.10939048
0.10324343
4529897.8
731902.04
224701.69
95321.516
48503.977
27626.792
16966.355
10988.89
7402.1094
5137.3105
3649.716
2641.6147
1941.0188
1443.972
1085.2417
822.58906
627.92658
482.14758
371.99789
288.12647
223.83878
174.28139
135.89757
106.05728
82.801618
64.663819
50.542326
39.607011
31.231927
24.941185
20.37814
17.275698
15.441954
14.687423
14.861588
15.824672
17.527023
19.832632
22.440623
24.242406
23.934289
22.838463
20.018417
14.769665
9.042073
4.9647359
2.7187723
1.6614223
1.147852
0.84266957
0.65076159
0.51814839
0.42407848
0.35619468
0.29936362
0.25533522
0.22305127
0.19373942
0.16730211
0.14817295
0.13356793
0.12194552
0.11346505
0.1073209
0.1019099
4529983.7
731915.88
224705.99
95323.444
48505.08
27627.561
16966.989
10989.477
7402.6972
5137.9294
3650.3858
2642.3499
1941.8308
1444.8704
1086.2346
823.68363
629.12905
483.46327
373.43114
289.68053
225.51577
176.08184
137.82021
108.09899
84.957726
66.928663
52.910366
42.074951
33.803759
27.635996
23.230025
20.332052
18.751752
18.335515
18.838406
20.186795
22.009562
24.307038
26.274703
25.821905
24.346233
20.886806
15.315602
9.5365098
5.2929659
2.9202058
1.8026722
1.2534675
0.92264733
0.70689094
0.55791517
0.45346603
0.37941374
0.31817681
0.27295088
0.23599454
0.20350263
0.17778283
0.15880709
0.14275492
0.1295214
0.11925826
0.11072372
0.10481466
0.10062875
4530071.7
731930.11
224710.41
95325.391
48506.156
27628.273
16967.539
10989.959
7403.1609
5138.4046
3650.8927
2642.9034
1942.443
1445.5519
1086.9953
824.53296
630.07643
484.51822
374.60343
290.9803
226.9535
177.66842
139.56679
110.01693
87.059042
69.226195
55.418828
44.813385
36.795791
30.912709
26.83259
24.311717
23.159939
23.182853
23.859028
25.366439
27.436036
28.764494
28.003981
26.073056
21.905017
16.016091
10.086859
5.6375185
3.1504823
1.9655199
1.3773573
1.0147788
0.77325985
0.60505308
0.49005046
0.40660184
0.34114204
0.29078214
0.25014122
0.21541497
0.18941996
0.16817063
0.14963993
0.13430458
0.12267587
0.11459989
0.10842848
0.10356175
0.099514827
4530163.2
731944.95
224714.97
95327.353
48507.192
27628.908
16967.981
10990.304
7403.4605
5138.6889
3651.1815
2643.2114
1942.7824
1445.9334
1087.4296
825.03087
630.64973
485.1798
375.36764
291.86322
227.97327
178.84566
140.92507
111.58327
88.864044
71.304883
57.81075
47.563459
39.954888
34.536069
30.975344
29.017832
28.436097
28.770993
29.753611
31.414096
31.456196
30.387546
27.859453
23.045767
16.80946
10.663096
6.0223672
3.4186595
2.1613788
1.5219151
1.1194046
0.84951438
0.66325597
0.53355973
0.43938835
0.36591615
0.31148466
0.26576953
0.2303992
0.20223689
0.17836987
0.15784171
0.14144022
0.12971506
0.11971971
0.11186809
0.10584166
0.10186584
0.098742593
4530257.7
731960.22
224719.67
95329.368
48508.24
27629.533
16968.398
10990.612
7403.7123
5138.9157
3651.4038
2643.4442
1943.0379
1446.2232
1087.7648
825.42381
631.11384
485.73049
376.0228
292.64377
228.90378
179.95501
142.24718
113.15777
90.736813
73.528188
60.442741
50.66657
43.591179
38.757344
35.804807
34.423434
34.305636
34.835056
35.175371
34.376956
32.731075
29.475851
24.134098
17.595437
11.243595
6.4648717
3.7454856
2.3977426
1.6841792
1.2336049
0.93771399
0.73313747
0.58684847
0.47752437
0.39664248
0.33545162
0.2864178
0.24647927
0.21526863
0.18756164
0.16663498
0.15039686
0.13659647
0.12523336
0.1162892
0.10988592
0.10459507
0.10087157
0.097771112
4530355.2
731976
224724.55
95331.477
48509.362
27630.224
16968.882
10990.994
7404.0472
5139.2368
3651.7333
2643.7986
1943.4313
1446.6683
1088.2751
826.01331
631.79849
486.52863
376.95588
293.73722
230.18785
181.46572
144.02724
115.2573
93.213405
76.435937
63.829075
54.587107
48.080256
43.805569
41.322728
40.21638
39.852045
39.092198
37.369194
35.006899
31.088939
25.274698
18.436736
11.910721
7.012832
4.1501285
2.6656808
1.8550884
1.358877
1.0418628
0.81740357
0.64975206
0.52444945
0.43295236
0.36525684
0.30921028
0.265429
0.22904159
0.20086101
0.17787645
0.15992108
0.14269818
0.13001272
0.12052184
0.11269698
0.10722276
0.10261204
0.099829153
0.09731001
4530457.6
731992.54
224729.67
95333.72
48510.587
27631.016
16969.474
10991.498
7404.5222
5139.7187
3652.2468
2644.363
1944.0632
1447.3838
1089.0903
826.94606
632.86851
487.75869
378.37265
295.37224
232.07873
183.65686
146.56842
118.20004
96.601478
80.302414
68.19558
59.448845
53.394971
49.461194
47.019438
45.24341
43.174123
40.612615
37.496676
32.781285
26.436979
19.302231
12.642347
7.6292362
4.5904839
2.9422569
2.0372551
1.507028
1.1674716
0.91508176
0.72250925
0.58058477
0.47762561
0.39888501
0.33647155
0.28651422
0.24761115
0.21504828
0.19005659
0.16784874
0.15065062
0.13745062
0.1269642
0.1180653
0.11092856
0.10594425
0.10179031
0.098938848
0.096491436
4530563.2
732009.67
224735.02
95336.091
48511.913
27631.91
16970.179
10992.128
7405.1421
5140.3673
3652.9519
2645.1468
1944.9454
1448.3836
1090.2277
828.24262
634.34845
489.4494
380.30527
297.58172
234.60296
186.53519
149.84095
121.90499
100.77309
84.964882
73.320128
64.915922
58.952159
54.625442
51.062652
47.632481
44.166829
40.07271
34.517178
27.658274
20.278171
13.51234
8.3639886
5.1104909
3.2743835
2.266989
1.6896634
1.3103023
1.0218191
0.80612228
0.64901792
0.53148423
0.43979503
0.36865373
0.31460728
0.26942248
0.23320759
0.20277609
0.17975426
0.16020833
0.14592333
0.13232263
0.12187583
0.11428166
0.10826266
0.10391403
0.1004153
0.098407637
0.09611162
4530672.5
732027.41
224740.56
95338.582
48513.338
27632.9
16970.989
10992.879
7405.8987
5141.1728
3653.8367
2646.1358
1946.0612
1449.6481
1091.6636
829.87376
636.20052
491.54996
382.68347
300.26739
237.62485
189.91756
153.59709
126.02859
105.22714
89.671342
78.145111
69.56499
62.984702
57.587897
52.789147
48.178494
42.93109
36.50945
29.127921
21.485234
14.563384
9.2137572
5.6975089
3.6484441
2.5227794
1.8822021
1.4577162
1.1407767
0.90746227
0.73240142
0.59508285
0.48825998
0.40778526
0.34560074
0.29452916
0.25177119
0.21931778
0.19211933
0.17169988
0.15331711
0.13924833
0.12764758
0.1192985
0.11268407
0.10710494
0.10308731
0.09960671
0.097561335
0.095684003
4530784.7
732045.75
224746.32
95341.197
48514.863
27633.986
16971.9
10993.739
7406.7796
5142.1185
3654.8797
2647.3026
1947.3759
1451.134
1093.3441
831.77319
638.34383
493.96217
385.38815
303.28404
240.96449
193.57598
157.5452
130.19931
109.4985
93.844593
81.944478
72.718654
65.257501
58.823753
52.767716
46.195702
38.833198
30.874538
22.913955
15.775004
10.178475
6.3795362
4.1019487
2.8353457
2.1110515
1.6349353
1.2884893
1.0302092
0.82760331
0.66787604
0.5465931
0.45535136
0.38295485
0.32434199
0.27834075
0.24024918
0.20971095
0.18357178
0.16410008
0.14729479
0.13550088
0.12465448
0.11663479
0.11002868
0.10498692
0.10168986
0.098953978
0.097174268
0.09526984
4530901
732061.33
224749.44
95341.712
48514.84
27633.917
16971.932
10993.926
7407.1434
5142.6715
3655.632
2648.2646
1948.559
1452.5513
1095.0101
833.70313
640.55245
496.46177
388.18555
306.37601
244.33155
197.17428
161.29688
133.98261
113.14044
97.12082
84.593298
74.472433
65.908296
57.984137
49.962191
41.596666
33.012054
24.677423
17.261912
11.366088
7.2386157
4.6762763
3.211695
2.36893
1.8306439
1.4508129
1.1637794
0.934557
0.75571761
0.6196853
0.51281628
0.42725439
0.36013931
0.30756569
0.26392361
0.22652945
0.1985097
0.17511426
0.15801871
0.14243126
0.13071811
0.12066609
0.11388173
0.10835214
0.10378778
0.10086084
0.098003793
0.096695707
0.095074553
4531685.4
732195.42
224794.59
95363.127
48527.017
27641.743
16977.446
10998.113
7410.5338
5145.5783
3658.2528
2650.7321
1950.9673
1454.9703
1097.4928
836.28977
643.27204
499.33108
391.20652
309.53131
247.57853
200.43801
164.46368
136.89661
115.60676
98.920739
85.524846
74.256111
64.085006
54.377917
44.830737
35.473563
26.643365
18.86375
12.622925
8.1453558
5.2781618
3.6001753
2.6383675
2.044855
1.6332982
1.3161785
1.0605454
0.86003521
0.7027044
0.57671595
0.47779643
0.40226855
0.34152827
0.29135796
0.25104263
0.21802286
0.19171793
0.1687638
0.15217648
0.13730321
0.12768405
0.11873446
0.11233726
0.10693137
0.10277117
0.10016041
0.097569926
0.09608424
0.094807848
4531684.6
732191.75
224791.65
95360.988
48525.586
27640.828
16976.919
10997.897
7410.5855
5145.8709
3658.7717
2651.4705
1951.9229
1456.143
1098.8823
837.89308
645.07967
501.32317
393.34751
311.76399
249.81791
202.56635
166.32871
138.3185
116.38859
98.806121
84.139993
71.339718
59.673299
48.730311
38.425715
28.962548
20.721551
14.082642
9.2274917
6.0271266
4.1032954
2.9898491
2.3114925
1.8453905
1.487438
1.2026428
0.97805458
0.79792063
0.65396847
0.54204339
0.45369355
0.38190711
0.32394527
0.27802138
0.23973179
0.20652664
0.18203919
0.16161573
0.14714097
0.1336073
0.12406035
0.11527332
0.10980496
0.10496731
0.10154794
0.099032737
0.097126251
0.09577201
0.094611923
4531684.8
732191.9
224791.79
95361.19
48525.848
27641.155
16977.318
10998.377
7411.1524
5146.5328
3659.5362
2652.3445
1952.9118
1457.2492
1100.1038
839.22051
646.49358
502.78978
394.81446
313.15615
251.0349
203.48502
166.79087
138.11596
115.25333
96.515178
80.622348
66.659305
54.057817
42.580869
32.2764
23.378019
16.154252
10.747362
7.0582836
4.7620629
3.409912
2.6023038
2.0712811
1.6786016
1.3692405
1.1191674
0.91381725
0.74856843
0.61779858
0.51277404
0.42874419
0.3633382
0.30998424
0.26590269
0.22992089
0.20045927
0.17758337
0.15704146
0.14287778
0.12965806
0.12141629
0.11396062
0.10884118
0.10409792
0.10099951
0.098528729
0.096585021
0.095425345
0.094443579
4531684.9
732192
224791.88
95361.302
48525.994
27641.34
16977.545
10998.652
7411.4792
5146.9163
3659.9799
2652.8507
1953.4801
1457.875
1100.7766
839.92128
647.1918
503.44046
395.35364
313.49628
251.05836
203.03169
165.68243
136.18609
112.39353
92.683625
75.877456
61.188752
48.184918
36.732579
26.908054
18.870985
12.722168
8.3933606
5.6122335
3.9494603
2.976433
2.3648009
1.9253433
1.5765178
1.2888187
1.0523812
0.86245968
0.70988726
0.58699152
0.48970176
0.41222534
0.34917225
0.29754889
0.25636078
0.22189128
0.19181642
0.16985769
0.15150272
0.13900823
0.12724928
0.11931734
0.11178636
0.10714397
0.10267155
0.09996507
0.098076804
0.096238263
0.095220427
0.094299601
4531686.1
732192.12
224791.91
95361.321
48526.017
27641.372
16977.588
10998.708
7411.5504
5147.0037
3660.0835
2652.9682
1953.6058
1457.9983
1100.8794
839.97544
647.15536
503.25376
394.93747
312.75145
249.87039
201.28581
163.27059
133.02674
108.4568
88.019076
70.635882
55.627168
42.644678
31.5872
22.490017
15.398787
10.254412
6.8234132
4.7111764
3.4698176
2.7138967
2.1963286
1.798832
1.4765652
1.2131415
0.99796068
0.82084955
0.67673581
0.56166075
0.46907053
0.3944669
0.33568287
0.28712039
0.24730442
0.21466068
0.18767816
0.16700225