/*--------------------------------*- C++ -*----------------------------------*\
  =========                 |
  \\      /  F ield         | OpenFOAM: The Open Source CFD Toolbox
   \\    /   O peration     | Website:  https://openfoam.org
    \\  /    A nd           | Version:  13
     \\/     M anipulation  |
\*---------------------------------------------------------------------------*/
FoamFile
{
    format      ascii;
    class       surfaceScalarField;
    location    "0.03";
    object      phi;
}
// * * * * * * * * * * * * * * * * * * * * * * * * * * * * * * * * * * * * * //

dimensions      [1 0 -1 0 0 0 0];

internalField   nonuniform List<scalar> 
999
(
33.004
33.5127
34.0212
34.5294
35.0375
35.5454
36.053
36.5604
37.0676
37.5747
38.0815
38.588
39.0944
39.6006
40.1065
40.6122
41.1178
41.6231
42.1281
42.633
43.1377
43.6422
44.1464
44.6505
45.1544
45.6581
46.1616
46.665
47.1683
47.6714
48.1744
48.6773
49.1801
49.6828
50.1854
50.6879
51.1904
51.6928
52.1951
52.6973
53.1995
53.7016
54.2036
54.7055
55.2074
55.7091
56.2107
56.7123
57.2137
57.7149
58.2161
58.7171
59.218
59.7187
60.2193
60.7197
61.22
61.7201
62.22
62.7198
63.2194
63.7189
64.2182
64.7173
65.2162
65.715
66.2135
66.7119
67.2102
67.7082
68.2061
68.7038
69.2013
69.6986
70.1958
70.6928
71.1896
71.6862
72.1826
72.6788
73.1749
73.6708
74.1665
74.662
75.1573
75.6524
76.1474
76.6421
77.1367
77.6311
78.1253
78.6193
79.1131
79.6067
80.1001
80.5934
81.0864
81.5793
82.0719
82.5644
83.0567
83.5488
84.0407
84.5324
85.0239
85.5152
86.0063
86.4972
86.9879
87.4784
87.9687
88.4588
88.9487
89.4385
89.928
90.4173
90.9064
91.3953
91.884
92.3725
92.8608
93.3489
93.8368
94.3245
94.812
95.2993
95.7863
96.2732
96.7598
97.2463
97.7325
98.2186
98.7044
99.19
99.6754
100.161
100.646
101.13
101.615
102.099
102.583
103.067
103.551
104.034
104.518
105.001
105.484
105.966
106.449
106.931
107.413
107.895
108.376
108.857
109.338
109.819
110.3
110.78
111.261
111.741
112.22
112.7
113.179
113.658
114.137
114.616
115.094
115.572
116.05
116.528
117.006
117.483
117.96
118.437
118.913
119.39
119.866
120.342
120.818
121.293
121.768
122.243
122.718
123.193
123.667
124.141
124.615
125.089
125.562
126.035
126.508
126.981
127.453
127.925
128.397
128.869
129.341
129.812
130.283
130.754
131.224
131.695
132.165
132.635
133.104
133.574
134.043
134.512
134.981
135.449
135.917
136.385
136.853
137.321
137.788
138.255
138.722
139.188
139.655
140.121
140.587
141.052
141.518
141.983
142.448
142.913
143.377
143.841
144.305
144.769
145.233
145.696
146.159
146.622
147.085
147.547
148.009
148.471
148.933
149.394
149.855
150.316
150.777
151.238
151.698
152.158
152.618
153.077
153.537
153.996
154.455
154.914
155.372
155.83
156.288
156.746
157.204
157.661
158.118
158.575
159.032
159.488
159.944
160.401
160.856
161.312
161.767
162.222
162.677
163.132
163.587
164.041
164.495
164.949
165.403
165.856
166.309
166.762
167.215
167.668
168.12
168.572
169.024
169.476
169.928
170.379
170.83
171.281
171.732
172.183
172.633
173.084
173.534
173.983
174.433
174.883
175.332
175.781
176.23
176.679
177.127
177.575
178.024
178.472
178.919
179.367
179.815
180.262
180.709
181.156
181.603
182.049
182.496
182.942
183.388
183.834
184.28
184.725
185.171
185.616
186.061
186.506
186.951
187.395
187.839
188.284
188.728
189.171
189.615
190.058
190.502
190.945
191.388
191.83
192.273
192.715
193.157
193.599
194.041
194.483
194.924
195.366
195.807
196.248
196.688
197.129
197.569
198.009
198.45
198.889
199.329
199.768
200.208
200.647
201.086
201.525
201.963
202.402
202.84
203.278
203.716
204.154
204.591
205.029
205.466
205.903
206.34
206.776
207.213
207.649
208.085
208.521
208.957
209.393
209.829
210.264
210.699
211.134
211.569
212.004
212.438
212.873
213.307
213.741
214.175
214.609
215.043
215.476
215.909
216.343
216.776
217.209
217.641
218.074
218.506
218.939
219.371
219.803
220.235
220.667
221.098
221.53
221.961
222.392
222.824
223.255
223.685
224.116
224.547
224.977
225.408
225.838
226.268
226.698
227.128
227.558
227.988
228.417
228.847
229.276
229.706
230.135
230.564
230.993
231.422
231.851
232.279
232.708
233.137
233.565
233.993
234.422
234.85
235.278
235.706
236.134
236.562
236.99
237.418
237.845
238.273
238.701
239.128
239.556
239.983
240.411
240.838
241.265
241.692
242.12
242.547
242.974
243.401
243.828
244.255
244.682
245.109
245.536
245.963
246.389
246.816
247.243
247.67
248.097
248.524
248.95
249.377
249.804
250.231
250.657
251.084
251.511
251.938
252.365
252.791
253.218
253.645
254.072
254.499
254.926
255.353
255.78
256.207
256.634
257.061
257.488
257.916
258.343
258.77
259.197
259.625
260.052
260.48
260.908
261.335
261.763
262.191
262.619
263.047
263.475
263.903
264.331
264.759
265.188
265.616
266.045
266.474
266.902
267.331
267.76
268.189
268.619
269.048
269.477
269.907
270.337
270.767
271.197
271.627
272.057
272.487
272.918
273.349
273.779
274.21
274.641
275.073
275.504
275.936
276.368
276.8
277.232
277.664
278.096
278.529
278.962
279.395
279.828
280.261
280.695
281.129
281.563
281.997
282.431
282.866
283.301
283.736
284.171
284.606
285.042
285.478
285.914
286.35
286.787
287.224
287.661
288.098
288.536
288.974
289.412
289.85
290.288
290.727
291.166
291.606
292.045
292.485
292.925
293.366
293.806
294.247
294.689
295.13
295.572
296.014
296.456
296.899
297.342
297.785
298.229
298.673
299.117
299.562
300.006
300.452
300.897
301.343
301.789
302.235
302.682
303.129
303.577
304.024
304.472
304.921
305.37
305.819
306.268
306.718
307.168
307.619
308.069
308.521
308.972
309.424
309.876
310.329
310.782
311.235
311.689
312.143
312.598
313.053
313.508
313.964
314.42
314.876
315.333
315.79
316.248
316.706
317.164
317.623
318.082
318.542
319.001
319.462
319.923
320.384
320.845
321.307
321.77
322.233
322.696
323.159
323.623
324.088
324.553
325.018
325.484
325.95
326.417
326.883
327.351
327.819
328.287
328.756
329.225
329.694
330.164
330.635
331.106
331.577
332.049
332.521
332.993
333.466
333.94
334.414
334.888
335.363
335.838
336.314
336.79
337.266
337.743
338.22
338.698
339.177
339.655
340.134
340.614
341.094
341.575
342.055
342.537
343.019
343.501
343.983
344.467
344.95
345.434
345.918
346.403
346.889
347.374
347.86
348.347
348.834
349.321
349.809
350.298
350.786
351.276
351.765
352.255
352.746
353.236
353.728
354.219
354.712
355.204
355.697
356.19
356.684
357.178
357.673
358.168
358.663
359.159
359.655
360.152
360.649
361.146
361.644
362.142
362.641
363.139
363.639
364.138
364.639
365.139
365.64
366.141
366.642
367.144
367.646
368.149
368.652
369.155
369.659
370.163
370.667
371.172
371.677
372.182
372.688
373.194
373.7
374.206
374.713
375.22
375.728
376.235
376.743
377.252
377.76
378.269
378.778
379.287
379.797
380.307
380.817
381.327
381.838
382.349
382.86
383.371
383.882
384.394
384.906
385.418
385.93
386.443
386.955
387.468
387.981
388.494
389.007
389.521
390.034
390.548
391.061
391.575
392.089
392.603
393.117
393.632
394.146
394.66
395.175
395.689
396.203
396.718
397.232
397.747
398.262
398.776
399.291
399.805
400.319
400.834
401.348
401.863
402.377
402.891
403.405
403.919
404.433
404.946
405.46
405.973
406.487
407
407.513
408.025
408.538
409.05
409.562
410.074
410.585
411.097
411.608
412.118
412.629
413.139
413.649
414.158
414.667
415.176
415.684
416.192
416.7
417.207
417.713
418.219
418.725
419.23
419.735
420.239
420.743
421.246
421.749
422.251
422.752
423.253
423.753
424.253
424.752
425.25
425.747
426.244
426.74
427.235
427.73
428.224
428.717
429.209
429.7
430.191
430.681
431.169
431.657
432.144
432.63
433.115
433.599
434.082
434.565
435.046
435.526
436.005
436.482
436.959
437.435
437.909
438.382
438.855
439.325
439.795
440.264
440.731
441.197
441.661
442.124
442.586
443.047
443.506
443.964
444.42
444.875
445.329
445.781
446.231
446.68
447.127
447.573
448.017
448.46
448.901
449.341
449.778
450.214
450.649
451.082
451.512
451.942
452.369
452.795
453.219
453.641
454.061
454.479
454.896
455.31
455.723
456.134
456.543
456.95
457.354
457.757
458.158
458.557
458.954
459.349
459.742
460.133
460.521
460.908
461.292
461.675
462.055
462.433
462.809
463.183
463.554
463.924
464.291
464.656
465.019
465.38
465.738
466.094
466.448
466.8
467.15
467.497
467.842
468.185
468.526
468.864
469.2
469.534
469.866
470.196
470.523
470.848
471.171
471.492
471.81
472.127
472.441
472.753
473.063
473.371
473.677
473.98
474.282
474.581
474.879
475.174
475.467
475.759
476.048
476.336
476.622
476.905
477.187
477.467
477.746
478.023
478.298
478.571
478.843
479.113
479.381
479.648
479.914
480.178
480.441
480.703
480.963
481.222
481.48
481.737
481.992
482.247
482.501
482.754
483.006
483.258
483.508
483.758
484.008
484.257
484.505
484.754
485.002
485.249
)
;

boundaryField
{
    sides
    {
        type            calculated;
        value           nonuniform List<scalar> 2(485.497 -32.4951);
    }
    empty
    {
        type            empty;
    }
}


// ************************************************************************* //
