/*--------------------------------*- C++ -*----------------------------------*\
  =========                 |
  \\      /  F ield         | OpenFOAM: The Open Source CFD Toolbox
   \\    /   O peration     | Website:  https://openfoam.org
    \\  /    A nd           | Version:  13
     \\/     M anipulation  |
\*---------------------------------------------------------------------------*/
FoamFile
{
    format      ascii;
    class       volScalarField;
    location    "0.03";
    object      T;
}
// * * * * * * * * * * * * * * * * * * * * * * * * * * * * * * * * * * * * * //

dimensions      [0 0 0 1 0 0 0];

internalField   nonuniform List<scalar> 
1000
(
223.98
223.976
223.97
223.965
223.96
223.955
223.95
223.945
223.94
223.936
223.931
223.927
223.922
223.918
223.914
223.91
223.906
223.902
223.899
223.895
223.891
223.888
223.884
223.881
223.877
223.873
223.869
223.865
223.86
223.855
223.85
223.845
223.839
223.832
223.825
223.818
223.81
223.802
223.793
223.783
223.774
223.763
223.753
223.742
223.731
223.719
223.707
223.695
223.683
223.67
223.658
223.645
223.632
223.62
223.607
223.594
223.581
223.567
223.554
223.541
223.528
223.515
223.502
223.489
223.476
223.463
223.45
223.437
223.424
223.411
223.398
223.385
223.372
223.36
223.347
223.334
223.321
223.309
223.296
223.283
223.271
223.258
223.245
223.233
223.22
223.208
223.195
223.183
223.171
223.158
223.146
223.134
223.122
223.109
223.097
223.085
223.073
223.061
223.049
223.037
223.025
223.013
223.001
222.989
222.977
222.965
222.954
222.942
222.93
222.918
222.907
222.895
222.884
222.872
222.861
222.849
222.838
222.826
222.815
222.804
222.793
222.781
222.77
222.759
222.748
222.737
222.726
222.715
222.704
222.693
222.682
222.671
222.661
222.65
222.639
222.628
222.618
222.607
222.597
222.586
222.576
222.565
222.555
222.545
222.534
222.524
222.514
222.504
222.494
222.484
222.474
222.464
222.454
222.444
222.434
222.424
222.415
222.405
222.395
222.386
222.376
222.367
222.357
222.348
222.339
222.329
222.32
222.311
222.302
222.293
222.284
222.275
222.266
222.257
222.248
222.24
222.231
222.222
222.214
222.205
222.197
222.188
222.18
222.171
222.163
222.155
222.147
222.139
222.131
222.123
222.115
222.107
222.099
222.091
222.084
222.076
222.069
222.061
222.054
222.046
222.039
222.032
222.025
222.017
222.01
222.003
221.996
221.99
221.983
221.976
221.969
221.963
221.956
221.95
221.943
221.937
221.931
221.924
221.918
221.912
221.906
221.9
221.894
221.889
221.883
221.877
221.872
221.866
221.861
221.855
221.85
221.845
221.84
221.834
221.829
221.824
221.82
221.815
221.81
221.805
221.801
221.796
221.792
221.787
221.783
221.779
221.775
221.771
221.767
221.763
221.759
221.755
221.752
221.748
221.745
221.741
221.738
221.734
221.731
221.728
221.725
221.722
221.719
221.716
221.714
221.711
221.708
221.706
221.704
221.701
221.699
221.697
221.695
221.693
221.691
221.689
221.687
221.686
221.684
221.683
221.681
221.68
221.679
221.677
221.676
221.675
221.674
221.674
221.673
221.672
221.672
221.671
221.671
221.67
221.67
221.67
221.67
221.67
221.67
221.67
221.67
221.671
221.671
221.672
221.672
221.673
221.674
221.675
221.676
221.677
221.678
221.679
221.68
221.682
221.683
221.685
221.686
221.688
221.69
221.692
221.694
221.696
221.698
221.701
221.703
221.706
221.708
221.711
221.714
221.717
221.72
221.723
221.726
221.73
221.733
221.737
221.741
221.744
221.748
221.752
221.757
221.761
221.765
221.77
221.774
221.779
221.784
221.789
221.794
221.8
221.805
221.81
221.816
221.822
221.828
221.834
221.84
221.846
221.853
221.859
221.866
221.873
221.88
221.887
221.894
221.902
221.909
221.917
221.925
221.932
221.941
221.949
221.957
221.966
221.974
221.983
221.992
222.001
222.01
222.02
222.029
222.039
222.049
222.059
222.069
222.079
222.09
222.101
222.111
222.122
222.133
222.145
222.156
222.168
222.179
222.191
222.203
222.215
222.228
222.24
222.253
222.266
222.279
222.292
222.305
222.319
222.333
222.346
222.36
222.375
222.389
222.404
222.418
222.433
222.448
222.463
222.479
222.494
222.51
222.526
222.542
222.558
222.575
222.591
222.608
222.625
222.642
222.66
222.677
222.695
222.713
222.731
222.749
222.767
222.786
222.805
222.823
222.843
222.862
222.881
222.901
222.921
222.941
222.961
222.982
223.002
223.023
223.044
223.065
223.086
223.108
223.13
223.152
223.174
223.196
223.219
223.241
223.264
223.287
223.31
223.334
223.357
223.381
223.405
223.429
223.454
223.478
223.503
223.528
223.553
223.578
223.604
223.63
223.656
223.682
223.708
223.735
223.761
223.788
223.815
223.842
223.87
223.898
223.925
223.953
223.982
224.01
224.039
224.068
224.097
224.126
224.155
224.185
224.215
224.245
224.275
224.305
224.336
224.366
224.397
224.429
224.46
224.491
224.523
224.555
224.587
224.619
224.652
224.685
224.718
224.751
224.784
224.817
224.851
224.885
224.919
224.953
224.988
225.022
225.057
225.092
225.127
225.163
225.198
225.234
225.27
225.306
225.342
225.379
225.416
225.453
225.49
225.527
225.564
225.602
225.64
225.678
225.716
225.754
225.793
225.832
225.871
225.91
225.949
225.989
226.028
226.068
226.108
226.149
226.189
226.23
226.27
226.311
226.352
226.394
226.435
226.477
226.519
226.561
226.603
226.645
226.688
226.731
226.774
226.817
226.86
226.903
226.947
226.991
227.035
227.079
227.123
227.168
227.212
227.257
227.302
227.347
227.392
227.438
227.484
227.529
227.575
227.622
227.668
227.714
227.761
227.808
227.855
227.902
227.949
227.997
228.044
228.092
228.14
228.188
228.236
228.285
228.333
228.382
228.431
228.48
228.529
228.579
228.628
228.678
228.728
228.778
228.828
228.878
228.928
228.979
229.03
229.081
229.132
229.183
229.234
229.286
229.337
229.389
229.441
229.493
229.545
229.598
229.65
229.703
229.756
229.809
229.862
229.915
229.968
230.022
230.075
230.129
230.183
230.237
230.291
230.346
230.4
230.455
230.51
230.565
230.62
230.675
230.73
230.785
230.841
230.897
230.953
231.009
231.065
231.121
231.177
231.234
231.291
231.347
231.404
231.461
231.518
231.576
231.633
231.691
231.749
231.806
231.864
231.922
231.981
232.039
232.098
232.156
232.215
232.274
232.333
232.392
232.451
232.51
232.57
232.63
232.689
232.749
232.809
232.869
232.93
232.99
233.051
233.111
233.172
233.233
233.294
233.355
233.416
233.478
233.539
233.601
233.663
233.725
233.787
233.849
233.911
233.973
234.036
234.098
234.161
234.224
234.287
234.35
234.413
234.477
234.54
234.604
234.668
234.731
234.795
234.86
234.924
234.988
235.053
235.117
235.182
235.247
235.312
235.377
235.442
235.507
235.572
235.638
235.704
235.769
235.835
235.901
235.967
236.034
236.1
236.166
236.233
236.3
236.366
236.433
236.5
236.567
236.635
236.702
236.77
236.837
236.905
236.973
237.041
237.109
237.177
237.245
237.313
237.382
237.45
237.519
237.588
237.656
237.725
237.794
237.864
237.933
238.002
238.072
238.141
238.211
238.28
238.35
238.42
238.49
238.56
238.63
238.701
238.771
238.841
238.912
238.982
239.053
239.124
239.194
239.265
239.336
239.407
239.478
239.549
239.621
239.692
239.763
239.835
239.906
239.977
240.049
240.121
240.192
240.264
240.335
240.407
240.479
240.551
240.623
240.695
240.766
240.838
240.91
240.982
241.054
241.126
241.198
241.27
241.342
241.414
241.486
241.558
241.63
241.702
241.774
241.846
241.918
241.99
242.062
242.134
242.206
242.277
242.349
242.421
242.492
242.564
242.636
242.707
242.778
242.85
242.921
242.992
243.063
243.134
243.205
243.276
243.347
243.418
243.488
243.559
243.629
243.699
243.769
243.839
243.909
243.979
244.048
244.118
244.187
244.256
244.325
244.394
244.463
244.531
244.6
244.668
244.736
244.804
244.871
244.939
245.006
245.073
245.14
245.207
245.273
245.339
245.405
245.471
245.537
245.602
245.667
245.732
245.797
245.861
245.925
245.989
246.053
246.116
246.179
246.242
246.304
246.367
246.429
246.49
246.552
246.613
246.674
246.734
246.795
246.855
246.914
246.973
247.032
247.091
247.149
247.207
247.265
247.323
247.38
247.436
247.493
247.549
247.604
247.66
247.715
247.769
247.824
247.877
247.931
247.984
248.037
248.089
248.142
248.193
248.245
248.295
248.346
248.396
248.446
248.495
248.544
248.593
248.641
248.689
248.737
248.784
248.83
248.876
248.922
248.968
249.013
249.057
249.101
249.145
249.188
249.231
249.274
249.316
249.357
249.398
249.439
249.479
249.519
249.559
249.598
249.636
249.674
249.712
249.749
249.786
249.822
249.857
249.893
249.927
249.962
249.996
250.029
250.062
250.094
250.126
250.157
250.188
250.218
250.248
250.277
250.306
250.334
250.361
250.388
250.415
250.441
250.466
250.491
250.515
250.538
250.561
250.584
250.605
250.626
250.647
250.666
250.685
250.704
250.721
250.738
250.755
250.77
250.785
250.799
250.812
250.825
250.836
250.847
250.857
250.867
250.875
250.883
250.89
250.896
250.901
250.905
250.909
)
;

boundaryField
{
    sides
    {
        type            zeroGradient;
    }
    empty
    {
        type            empty;
    }
}


// ************************************************************************* //
