/*--------------------------------*- C++ -*----------------------------------*\
  =========                 |
  \\      /  F ield         | OpenFOAM: The Open Source CFD Toolbox
   \\    /   O peration     | Website:  https://openfoam.org
    \\  /    A nd           | Version:  13
     \\/     M anipulation  |
\*---------------------------------------------------------------------------*/
FoamFile
{
    format      ascii;
    class       volSymmTensorField;
    location    "12.403502";
    object      UPrime2Mean;
}
// * * * * * * * * * * * * * * * * * * * * * * * * * * * * * * * * * * * * * //

dimensions      [0 2 -2 0 0 0 0];

internalField   nonuniform List<symmTensor> 
17140
(
(1.2774027e-12 -5.7555588e-11 -3.466472e-27 2.8553172e-09 6.6019131e-26 1.7265292e-40)
(1.9708984e-10 -1.9140055e-09 -1.9257637e-27 2.7028033e-08 1.536882e-26 1.5340612e-42)
(1.7793635e-09 -9.7020505e-09 3.3432866e-25 8.1687438e-08 -1.6624457e-24 6.6876543e-39)
(8.3707475e-09 -3.032127e-08 -7.4204228e-25 1.749301e-07 2.5969646e-24 8.0824004e-39)
(2.7969466e-08 -7.3793275e-08 1.5230197e-25 3.1616854e-07 -4.0226493e-25 1.1045903e-40)
(7.6541237e-08 -1.5482492e-07 -8.0429678e-25 5.1617271e-07 1.6726856e-24 1.183161e-39)
(1.8366593e-07 -2.9424952e-07 -2.0676162e-24 7.8701551e-07 3.4745599e-24 3.353547e-39)
(4.0131177e-07 -5.2076654e-07 1.4818212e-24 1.1419436e-06 -2.0475757e-24 7.9930646e-40)
(8.1724592e-07 -8.7300296e-07 6.9132783e-24 1.5950836e-06 -7.9543351e-24 8.5635617e-39)
(1.5750265e-06 -1.4017774e-06 2.3618276e-23 2.1609637e-06 -2.2842029e-23 5.1519476e-38)
(2.903111e-06 -2.1724097e-06 -4.7889933e-23 2.8537856e-06 3.9211847e-23 1.1328661e-37)
(5.1562689e-06 -3.2668213e-06 5.748666e-23 3.6864106e-06 -4.0070158e-23 8.9974422e-38)
(8.8731133e-06 -4.7850517e-06 1.1703707e-23 4.6690191e-06 -6.9748193e-24 2.1079056e-39)
(1.485388e-05 -6.8456509e-06 -8.7083633e-23 5.8074679e-06 4.4520374e-23 6.7425826e-38)
(2.4262573e-05 -9.5843292e-06 1.2602764e-23 7.1014102e-06 -5.5408079e-24 8.3117345e-40)
(3.875687e-05 -1.3150218e-05 -1.2902918e-22 8.5423122e-06 4.887059e-23 5.2152134e-38)
(6.0647447e-05 -1.7699245e-05 6.157329e-24 1.0111626e-05 -2.0115239e-24 7.2230226e-41)
(9.3085951e-05 -2.3384713e-05 -1.757862e-24 1.177954e-05 4.955943e-25 3.6164522e-42)
(0.00014027743 -3.0345992e-05 -1.5741317e-22 1.3504815e-05 3.8317353e-23 1.8190338e-38)
(0.00020771217 -3.8697612e-05 2.5593704e-22 1.5236151e-05 -5.3779574e-23 3.0499063e-38)
(0.00030241386 -4.85227e-05 -1.5334574e-22 1.6915613e-05 2.7804731e-23 7.0429547e-39)
(0.00043320985 -5.9875722e-05 3.6078884e-23 1.8484168e-05 -5.6422186e-24 2.5492104e-40)
(0.00061105175 -7.2799609e-05 3.2502266e-22 1.9889028e-05 -4.3806348e-23 1.3721309e-38)
(0.00084946907 -8.7358938e-05 -3.9236109e-22 2.1091706e-05 4.5549846e-23 1.3495912e-38)
(0.001165365 -0.0001036878 -7.4894717e-22 2.207496e-05 7.4855468e-23 3.3786185e-38)
(0.0015796932 -0.00012204654 7.1472439e-22 2.2847196e-05 -6.148971e-23 2.1537193e-38)
(0.00211834 -0.00014279723 4.1312159e-21 2.3442704e-05 -3.0598677e-22 5.1283908e-37)
(0.0028167869 -0.00016640863 5.6793798e-22 2.3909064e-05 -3.6225968e-23 7.0314323e-39)
(0.0037197963 -0.00019347752 -5.7672135e-21 2.4282444e-05 3.1687808e-22 5.362347e-37)
(0.004882916 -0.00022457441 -1.5503488e-21 2.4609154e-05 7.335704e-23 2.9080173e-38)
(0.0063802798 -0.00026022437 -6.3193309e-21 2.4918409e-05 2.5721488e-22 3.68405e-37)
(0.0083041369 -0.00030087212 9.4485713e-21 2.5222852e-05 -3.3013706e-22 6.3673554e-37)
(0.01077014 -0.00034676928 -2.7837695e-21 2.5525282e-05 8.3229939e-23 4.3226295e-38)
(0.013920871 -0.00039795889 -1.4963757e-21 2.5821794e-05 3.8110943e-23 9.8915147e-39)
(0.017929512 -0.00045415833 -1.6489477e-20 2.6103231e-05 3.5568967e-22 9.5992577e-37)
(0.02300298 -0.00051468684 8.0719159e-21 2.6360845e-05 -1.4633637e-22 1.8597962e-37)
(0.02938337 -0.0005783283 -1.3514582e-20 2.6589161e-05 2.0394154e-22 4.2523258e-37)
(0.037346828 -0.00064313069 -1.0110812e-20 2.6788198e-05 1.2535411e-22 1.9616167e-37)
(0.047198244 -0.00070633319 -5.0913057e-21 2.6975964e-05 5.0943145e-23 4.1398009e-38)
(0.059259233 -0.00076392692 1.6862071e-20 2.7185501e-05 -1.3259935e-22 3.8228807e-37)
(0.07384826 -0.00081089576 3.4574391e-20 2.7496119e-05 -2.0539774e-22 1.3661939e-36)
(0.091252235 -0.00084079823 3.3854671e-20 2.8030496e-05 -1.4202332e-22 1.1261212e-36)
(0.11169063 -0.0008469162 1.5834454e-20 2.8993951e-05 -4.1042772e-23 2.1434062e-37)
(0.13528358 -0.00082282309 -8.1994389e-20 3.0656708e-05 9.1077672e-23 5.0567e-36)
(0.1620443 -0.00076429964 -6.3256426e-20 3.3331511e-05 -1.8235941e-23 2.6861062e-36)
(0.19187147 -0.0006726573 1.6256539e-20 3.722905e-05 2.6299714e-23 1.6077012e-37)
(0.22462552 -0.0005515251 -1.1454245e-19 4.2325332e-05 -3.3078041e-22 7.3466044e-36)
(0.26016075 -0.00039871449 -3.9935443e-20 4.8214691e-05 -1.6395656e-22 8.3622508e-37)
(0.29804515 -0.00020397132 4.1347494e-20 5.3972537e-05 2.187827e-22 8.5524996e-37)
(0.3379127 4.8933682e-05 1.0179821e-19 5.8551168e-05 6.5616997e-22 5.0429143e-36)
(0.37863519 0.0003801263 -6.2361328e-20 6.1231687e-05 -4.721141e-22 1.8801631e-36)
(0.41825328 0.00081621633 -3.8715885e-20 6.3276172e-05 -3.3611144e-22 7.3628932e-37)
(0.45366943 0.0013993766 9.8038444e-20 6.5503069e-05 9.6895611e-22 4.9184372e-36)
(0.48137484 0.0021603071 4.4371772e-20 6.6226243e-05 4.9831182e-22 1.0792482e-36)
(0.49644664 0.0030592283 2.9777598e-20 6.6938242e-05 3.7947187e-22 5.3876467e-37)
(0.49593418 0.0040051051 -2.1684556e-20 7.1688443e-05 -3.1298751e-22 3.271128e-37)
(0.47551416 0.0049332575 5.2790548e-20 8.163118e-05 8.6657688e-22 2.3435972e-36)
(0.43321725 0.0057027281 3.8912979e-20 9.5833953e-05 7.2836657e-22 1.6114565e-36)
(0.36996476 0.0060737852 8.3385081e-21 0.00011171354 1.7779649e-22 9.9825411e-38)
(0.29279453 0.0058531027 -1.7924855e-20 0.0001228849 -4.3147772e-22 6.5613691e-37)
(0.21376254 0.0049992888 -1.1322835e-20 0.00012049562 -3.0282313e-22 3.9866705e-37)
(0.14510015 0.0038023601 -3.3081506e-20 0.00010309921 -9.6432258e-22 5.4250451e-36)
(0.092223254 0.0025564938 -3.7573766e-21 7.4614762e-05 -1.1736409e-22 1.1625878e-37)
(0.057463996 0.0015719047 2.4198354e-20 4.6321905e-05 7.9766561e-22 8.2107441e-36)
(0.034323708 0.00092426389 -1.3864273e-20 2.7545301e-05 -5.1811824e-22 4.9071126e-36)
(1.2087135e-10 -2.8224888e-09 5.064321e-27 6.593374e-08 -1.0443712e-25 1.3982031e-41)
(1.9612166e-09 -3.4944148e-08 -1.8158634e-24 6.2358115e-07 2.947292e-23 1.8407504e-37)
(8.8950686e-09 -1.2919181e-07 3.2131999e-24 1.8823118e-06 -4.2714714e-23 1.4576751e-37)
(2.7873439e-08 -3.3404185e-07 -1.4901588e-24 4.0228716e-06 1.6464081e-23 1.0833438e-38)
(7.1532694e-08 -7.1781867e-07 -4.8203597e-24 7.2503616e-06 4.4942353e-23 4.6230821e-38)
(1.6236702e-07 -1.3781726e-06 1.3700951e-23 1.1792476e-05 -1.0900732e-22 1.6879546e-37)
(3.3881293e-07 -2.4507399e-06 -2.0507425e-23 1.7895623e-05 1.4027289e-22 1.8341779e-37)
(6.6448519e-07 -4.1196349e-06 2.5249875e-24 2.5818306e-05 -1.4926824e-23 1.4206683e-39)
(1.2420325e-06 -6.6298567e-06 -1.0809429e-23 3.5820605e-05 5.5446916e-23 1.3846871e-38)
(2.2334453e-06 -1.0300918e-05 -2.4674663e-25 4.8149113e-05 1.101647e-24 3.9558067e-42)
(3.8892226e-06 -1.5540791e-05 -6.4875734e-23 6.3016612e-05 2.5271288e-22 1.5432508e-37)
(6.5894222e-06 -2.2858719e-05 1.3582793e-22 8.0576301e-05 -4.6252909e-22 3.8955572e-37)
(1.0900166e-05 -3.2874663e-05 1.4645547e-23 0.00010089116 -4.366312e-23 2.6564086e-39)
(1.7649557e-05 -4.6322382e-05 -1.8716656e-22 0.00012390016 4.8908572e-22 2.5858287e-37)
(2.8026894e-05 -6.4042432e-05 7.3879582e-23 0.00014938509 -1.6934225e-22 2.4358358e-38)
(4.3708566e-05 -8.6961546e-05 5.9886879e-23 0.00017694355 -1.2046303e-22 9.8016759e-39)
(6.7012345e-05 -0.00011605566 -4.8175566e-22 0.00020597631 8.5054582e-22 3.9314095e-37)
(0.00010107994 -0.00015229717 1.9771934e-21 0.00023569879 -3.0635016e-21 4.1533718e-36)
(0.00015008464 -0.00019659216 -1.5493411e-21 0.00026518641 2.1060031e-21 1.6183833e-36)
(0.00021946017 -0.00024972171 2.3073474e-21 0.00029346029 -2.7499677e-21 2.3052035e-36)
(0.00031614933 -0.00031231094 -4.2067025e-21 0.00031961195 4.3929982e-21 4.9844985e-36)
(0.00044888023 -0.00038485672 1.2632274e-21 0.00034295388 -1.1550005e-21 2.9641173e-37)
(0.00062849508 -0.00046784289 6.324544e-22 0.00036316711 -5.0594576e-22 4.9727494e-38)
(0.00086841201 -0.00056196266 -2.4916564e-21 0.00038040502 1.7429464e-21 5.2457306e-37)
(0.0011854208 -0.00066844912 1.0706839e-20 0.00039531559 -6.5470083e-21 6.6967998e-36)
(0.001600428 -0.00078933449 1.8928812e-21 0.00040896289 -1.0117921e-21 1.4714638e-37)
(0.0021391458 -0.00092746926 -1.1521125e-20 0.00042261257 5.3863779e-21 3.9064493e-36)
(0.0028368182 -0.0010867494 1.5054882e-20 0.00043729389 -6.1609019e-21 4.8617826e-36)
(0.0037380536 -0.0012717476 -2.3937414e-21 0.00045380397 8.5819524e-22 9.1261067e-38)
(0.0048978692 -0.0014873504 -2.6941248e-20 0.00047281956 8.466707e-21 8.6929085e-36)
(0.0063896959 -0.0017388317 3.1907993e-21 0.00049458098 -8.7926578e-22 9.3272416e-38)
(0.0083048242 -0.0020312483 2.778682e-20 0.0005190226 -6.7126318e-21 5.4727581e-36)
(0.010757512 -0.0023693542 7.9364327e-22 0.00054588423 -1.6799735e-22 3.4750829e-39)
(0.013888491 -0.0027573538 -2.6382277e-20 0.00057474997 4.887136e-21 3.0656492e-36)
(0.017868506 -0.003198493 3.3004669e-20 0.0006050518 -5.3439024e-21 3.8439079e-36)
(0.022901209 -0.0036945154 -1.6593613e-20 0.00063606944 2.3448382e-21 7.8598873e-37)
(0.02922451 -0.0042448674 2.1694618e-20 0.00066692058 -2.6704218e-21 1.0990696e-36)
(0.037109035 -0.0048455494 7.6328987e-20 0.00069655366 -8.1686753e-21 1.122316e-35)
(0.046852469 -0.0054878256 1.8819006e-20 0.00072383909 -1.7463107e-21 5.6833498e-37)
(0.058766914 -0.0061566593 8.0477384e-20 0.00074773824 -6.4479246e-21 8.7571315e-36)
(0.073158462 -0.0068296207 -1.1207259e-19 0.00076771116 7.7066557e-21 1.4463388e-35)
(0.090298263 -0.0074768074 -1.1146397e-19 0.0007843649 6.5237214e-21 1.2306046e-35)
(0.11038504 -0.0080633825 -2.0487216e-20 0.00080035554 1.0088859e-21 3.6120299e-37)
(0.13351332 -0.0085556907 1.7416111e-19 0.00082103105 -7.0577643e-21 2.3086992e-35)
(0.15965966 -0.0089291369 -8.7062436e-20 0.0008540455 2.8327076e-21 5.1505868e-36)
(0.18868354 -0.0091772813 -3.1599799e-20 0.00090748347 7.9102136e-22 6.1533089e-37)
(0.22037171 -0.009310406 1.7530384e-20 0.00098575307 -3.1232729e-22 1.7529113e-37)
(0.25448756 -0.0093310485 5.6190148e-20 0.0010811931 -6.2270084e-22 1.6883663e-36)
(0.29073617 -0.0092242939 -2.7930114e-20 0.0011691236 1.3088985e-22 3.9925906e-37)
(0.32853123 -0.0089047368 5.0907911e-20 0.0012229378 7.2337403e-23 1.2944899e-36)
(0.36666578 -0.0082004026 3.0465209e-19 0.0012250128 2.2365322e-21 4.6252377e-35)
(0.40305652 -0.0069207025 1.428737e-20 0.0011760461 1.8998847e-22 1.0401156e-37)
(0.43468221 -0.0049277512 -6.242442e-20 0.0010956665 -1.2032332e-21 2.0790693e-36)
(0.45791281 -0.0021514403 1.3264804e-19 0.0010011539 3.4192249e-21 1.0131355e-35)
(0.46890023 0.0012834575 -1.0635331e-19 0.00092939429 -3.4976685e-21 7.2693115e-36)
(0.46396624 0.0052088682 2.7778172e-19 0.00090163758 1.1344858e-20 5.7589262e-35)
(0.43980751 0.0094330744 7.1306908e-20 0.00092274971 3.5691483e-21 4.6125515e-36)
(0.394884 0.013366538 -1.7550424e-19 0.0010117579 -1.0660411e-20 3.6031675e-35)
(0.33075368 0.01610261 2.5370442e-20 0.0011608543 1.8437926e-21 1.0252731e-36)
(0.25491887 0.016640509 2.3699162e-20 0.0013036146 2.0247231e-21 1.3207351e-36)
(0.17950838 0.014692265 3.7754533e-21 0.0013159237 3.6886811e-22 5.2744143e-38)
(0.11629316 0.011276364 -3.8981522e-20 0.001153053 -4.2361996e-21 9.266785e-36)
(0.06965902 0.0075155463 5.746785e-20 0.00085089338 6.7935582e-21 3.5124133e-35)
(0.040084519 0.0045767437 1.2791609e-20 0.00055524238 1.6297879e-21 3.1477604e-36)
(0.021509254 0.0025744788 1.511972e-20 0.00033653475 2.2053459e-21 8.694306e-36)
(1.0512915e-09 -1.5013057e-08 7.6329374e-25 2.1440475e-07 -1.0421865e-23 4.2498154e-38)
(1.200117e-08 -1.5601644e-07 -1.2903012e-24 2.0284268e-06 1.6100186e-23 1.6815696e-38)
(4.2748538e-08 -5.1162691e-07 -6.0863079e-25 6.1245864e-06 6.9654773e-24 1.1894086e-39)
(1.0869174e-07 -1.1927395e-06 8.9090195e-25 1.3093545e-05 -9.3311636e-24 1.0693905e-39)
(2.3375058e-07 -2.3483658e-06 -6.232837e-24 2.3606366e-05 5.9732114e-23 2.5113296e-38)
(4.5561051e-07 -4.1815578e-06 -6.4341802e-25 3.8409168e-05 5.6383998e-24 1.3884126e-40)
(8.3259779e-07 -6.964013e-06 -1.1117439e-23 5.8311122e-05 8.8951373e-23 2.2671388e-38)
(1.453695e-06 -1.1053526e-05 -1.5900214e-23 8.4163459e-05 1.1593038e-22 2.631942e-38)
(2.4530674e-06 -1.6914391e-05 1.7012441e-22 0.00011682591 -1.1279534e-21 1.7581827e-36)
(4.0306927e-06 -2.5139561e-05 -1.9675855e-22 0.0001571184 1.1837406e-21 1.4016088e-36)
(6.4812317e-06 -3.647307e-05 1.2095542e-22 0.00020575537 -6.5891182e-22 3.2096804e-37)
(1.0233794e-05 -5.18303e-05 2.261367e-22 0.00026326228 -1.1131423e-21 6.8897996e-37)
(1.5905752e-05 -7.2312479e-05 -5.6896708e-22 0.00032987547 2.5255588e-21 2.7084979e-36)
(2.4374103e-05 -9.9210605e-05 -8.892895e-23 0.00040543133 3.5524424e-22 4.1475425e-38)
(3.6867951e-05 -0.00013399289 4.3162401e-22 0.00048925572 -1.5485475e-21 6.1773624e-37)
(5.5085293e-05 -0.00017827 3.7145775e-22 0.00058007261 -1.1944849e-21 2.9147058e-37)
(8.1336464e-05 -0.00023373426 -5.3702779e-22 0.00067595785 1.5446318e-21 3.9103238e-37)
(0.00011871487 -0.00030207361 2.4133445e-21 0.00077437086 -6.1957693e-21 5.1071467e-36)
(0.00017129441 -0.00038487075 -1.7627189e-21 0.00087229705 4.0307396e-21 1.7763717e-36)
(0.00024435215 -0.00048351073 1.0718755e-21 0.00096652444 -2.1784378e-21 4.3193126e-37)
(0.00034461797 -0.00059913694 -4.4199001e-21 0.0010540535 7.9670732e-21 4.8781154e-36)
(0.00048056147 -0.00073270783 -1.3972475e-21 0.0011325969 2.2292924e-21 3.2734793e-37)
(0.00066273965 -0.0008852036 3.5187993e-21 0.0012010782 -4.9600746e-21 1.4117646e-36)
(0.00090427164 -0.0010580158 -6.3464237e-21 0.0012599933 7.8907964e-21 3.1654746e-36)
(0.0012216253 -0.0012535257 -2.9721794e-21 0.0013114964 3.2554197e-21 4.8564104e-37)
(0.0016355079 -0.0014756077 4.2122848e-21 0.0013591432 -4.0610611e-21 6.9405325e-37)
(0.0021711727 -0.0017295643 2.8012097e-20 0.0014071974 -2.3763314e-20 2.2175878e-35)
(0.0028631824 -0.0020227021 1.4731432e-20 0.0014592071 -1.0997035e-20 4.5054848e-36)
(0.0037556496 -0.0023635041 -8.4826978e-21 0.0015178594 5.5733713e-21 1.116545e-36)
(0.0049023037 -0.0027610502 1.0420423e-20 0.0015854296 -6.0260055e-21 1.2744906e-36)
(0.0063747258 -0.0032252212 -7.4299086e-21 0.0016627874 3.7813343e-21 4.9892459e-37)
(0.0082618771 -0.003765567 -4.7792747e-20 0.0017497879 2.1396443e-20 1.6039427e-35)
(0.010674615 -0.0043911812 1.8089498e-20 0.0018456236 -7.1192489e-21 1.8090105e-36)
(0.013749201 -0.0051102502 6.0806993e-20 0.001948915 -2.1019313e-20 1.6257841e-35)
(0.017650441 -0.0059293562 -2.2743664e-20 0.002057754 6.8974899e-21 1.8307146e-36)
(0.022574126 -0.0068524383 -3.5583755e-20 0.0021696473 9.4585268e-21 3.6346411e-36)
(0.028747903 -0.0078792626 6.8583838e-20 0.0022814181 -1.5956962e-20 1.1067622e-35)
(0.036428993 -0.009003386 2.3186116e-20 0.0023892321 -4.7148031e-21 1.0463027e-36)
(0.045897503 -0.010209554 -4.5443577e-20 0.0024887771 8.0565617e-21 3.3634368e-36)
(0.057442728 -0.011470996 -1.9978416e-20 0.0025759515 3.0782043e-21 5.4919708e-37)
(0.0713412 -0.012746945 1.0472341e-19 0.0026480501 -1.3956737e-20 1.2870157e-35)
(0.087825704 -0.013982706 -3.2117951e-20 0.00270618 3.6695766e-21 1.0477424e-36)
(0.1070465 -0.015113858 -5.0087947e-20 0.0027583101 4.8657773e-21 2.2214183e-36)
(0.12903786 -0.01607769 -1.4295454e-19 0.0028218439 1.1620089e-20 1.599021e-35)
(0.1537017 -0.016829047 2.8809181e-19 0.0029228442 -1.9127136e-20 5.830135e-35)
(0.18082051 -0.017358409 -1.9593857e-19 0.0030897073 1.0272367e-20 2.4572314e-35)
(0.2101239 -0.017697016 -5.1467597e-20 0.0033362178 2.0281881e-21 1.5683775e-36)
(0.24133252 -0.017870402 -2.0965419e-19 0.0036346734 5.6103674e-21 2.4622833e-35)
(0.27408604 -0.017838485 -2.5605499e-19 0.0039081842 3.8231572e-21 3.5375743e-35)
(0.30772269 -0.017436516 -1.3113532e-20 0.0040645986 5.4328428e-23 9.0876654e-38)
(0.34099427 -0.01636867 5.5173366e-20 0.00404139 3.9683178e-22 1.6222277e-36)
(0.37181524 -0.014305801 -3.9802119e-19 0.003842353 -7.3454828e-21 8.7177841e-35)
(0.39729299 -0.011021932 -1.6412755e-19 0.0035329925 -4.8858472e-21 1.5698833e-35)
(0.41410824 -0.0064650431 -1.6051118e-19 0.0031942778 -6.7286308e-21 1.6392409e-35)
(0.4189238 -0.00080165406 -4.9276555e-20 0.0029135501 -2.7329562e-21 1.7471057e-36)
(0.40859325 0.0056915634 -3.4812855e-19 0.0027509404 -2.4610849e-20 1.0302031e-34)
(0.38076677 0.012600492 1.2344005e-19 0.0027388896 1.0932745e-20 1.6031988e-35)
(0.33454501 0.019027738 -3.2401528e-20 0.0029269725 -3.5598189e-21 1.4654212e-36)
(0.27202709 0.023451889 -2.2311221e-19 0.0033072198 -2.9884763e-20 9.7553014e-35)
(0.20115944 0.024208857 -7.1610795e-20 0.0036929496 -1.1485739e-20 1.5289066e-35)
(0.13379098 0.02091819 6.6271665e-20 0.0037047939 1.2402765e-20 2.1572883e-35)
(0.080463309 0.015440335 1.7197395e-19 0.0032051109 3.6568289e-20 2.5467267e-34)
(0.043701314 0.009752914 -4.0152343e-20 0.0023370334 -9.5218651e-21 2.5976263e-35)
(0.02202635 0.0055106981 -4.6053894e-20 0.0015060744 -1.2156982e-20 6.7497118e-35)
(0.0099414292 0.0027520199 -1.3258087e-20 0.00087362754 -4.1477583e-21 1.238338e-35)
(4.1519024e-09 -4.2219661e-08 -5.0328697e-24 4.2932598e-07 5.0034059e-23 4.7661686e-37)
(4.2841851e-08 -4.1726549e-07 1.7446762e-23 4.0641032e-06 -1.6613492e-22 8.7417461e-37)
(1.403035e-07 -1.3124649e-06 -1.0706397e-23 1.227788e-05 9.756073e-23 1.1429711e-37)
(3.2774749e-07 -2.9338605e-06 1.7215269e-24 2.6264506e-05 -1.4969228e-23 1.3508952e-39)
(6.4922681e-07 -5.546166e-06 -4.7192162e-23 4.7384561e-05 3.9077268e-22 5.2803587e-37)
(1.1680735e-06 -9.4926193e-06 6.5240697e-23 7.7156426e-05 -5.1325569e-22 5.653849e-37)
(1.9746697e-06 -1.5213433e-05 -1.2903542e-22 0.00011723507 9.6169256e-22 1.3012306e-36)
(3.1972367e-06 -2.3267203e-05 7.7812467e-23 0.00016937284 -5.4762682e-22 2.8813031e-37)
(5.0168821e-06 -3.4355417e-05 3.7453666e-22 0.00023535588 -2.4805557e-21 4.1661915e-36)
(7.6881713e-06 -4.9348427e-05 -1.1298587e-22 0.00031691072 7.0171004e-22 2.4096846e-37)
(1.1566995e-05 -6.9311071e-05 -5.3630037e-22 0.00041557626 3.1121118e-21 3.4967955e-36)
(1.7147904e-05 -9.5524912e-05 2.0302676e-22 0.0005325383 -1.0968113e-21 3.2605482e-37)
(2.511353e-05 -0.00012950295 1.6761171e-23 0.00066842875 -8.3988675e-23 1.4574577e-39)
(3.6399001e-05 -0.00017299099 -8.0830485e-22 0.00082309908 3.743147e-21 2.2342217e-36)
(5.2274596e-05 -0.00022794937 3.1067213e-21 0.0009953886 -1.3246486e-20 2.1871152e-35)
(7.4449597e-05 -0.00029650823 -2.3379356e-21 0.0011829236 9.1444111e-21 8.2419977e-36)
(0.00010520051 -0.00038089297 -2.7250117e-23 0.0013819984 9.740924e-23 7.4783197e-40)
(0.00014752573 -0.00048332154 1.9302003e-21 0.0015876049 -6.282306e-21 2.5176656e-36)
(0.00020532883 -0.00060588719 -5.9660056e-21 0.0017936819 1.7614422e-20 1.6211098e-35)
(0.00028363254 -0.00075045543 3.4166648e-21 0.0019936388 -9.1169738e-21 3.6036925e-36)
(0.00038882997 -0.00091862688 6.1605546e-21 0.0021811644 -1.480333e-20 7.9945721e-36)
(0.00052898506 -0.0011118303 3.0029895e-21 0.0023512508 -6.4754464e-21 1.3067503e-36)
(0.0007142057 -0.0013316099 -1.7791897e-20 0.0025012517 3.431584e-20 3.1874436e-35)
(0.00095713614 -0.0015801444 -1.1074733e-20 0.0026317083 1.9049065e-20 8.6773795e-36)
(0.0012737248 -0.0018610125 8.4711392e-21 0.0027466316 -1.2961208e-20 3.6146708e-36)
(0.0016842849 -0.002179979 -5.812983e-21 0.0028530589 7.8951007e-21 1.2276371e-36)
(0.0022134308 -0.0025447464 2.5442184e-20 0.0029598192 -3.0630246e-20 1.7228632e-35)
(0.0028945608 -0.0029659823 -8.4815759e-21 0.0030748362 9.0425857e-21 1.423044e-36)
(0.0037708698 -0.0034558402 2.6362999e-20 0.0032035469 -2.4871955e-20 1.0368848e-35)
(0.0048942648 -0.004027344 -1.7086041e-20 0.0033509116 1.4254613e-20 3.3297482e-36)
(0.0063332769 -0.0046946614 1.2059946e-20 0.0035191291 -8.8905687e-21 1.2837211e-36)
(0.0081733113 -0.0054715792 -5.0214069e-20 0.0037081345 3.2683841e-20 1.7442801e-35)
(0.010519988 -0.0063711503 8.149817e-21 0.0039163919 -4.6793114e-21 3.6424066e-37)
(0.013502646 -0.0074051147 -4.8403425e-20 0.0041410612 2.4493512e-20 1.0273982e-35)
(0.017276896 -0.0085828898 5.1949091e-20 0.0043781125 -2.3144524e-20 9.5669313e-36)
(0.022026465 -0.0099100061 1.8569913e-20 0.0046221407 -7.2780851e-21 9.9570054e-37)
(0.027963143 -0.011385878 -2.574428e-19 0.0048661858 8.8619699e-20 1.5793567e-34)
(0.035323587 -0.013000782 -7.4374779e-20 0.0051017179 2.2459089e-20 1.0956419e-35)
(0.044361279 -0.01473208 6.7910281e-20 0.0053190524 -1.7947476e-20 7.675319e-36)
(0.055331339 -0.016540092 -7.3120765e-20 0.0055086863 1.6861169e-20 7.5477487e-36)
(0.068466983 -0.018364714 2.0504991e-20 0.0056640423 -4.1063719e-21 5.083198e-37)
(0.083947003 -0.020125363 1.390354e-19 0.0057864951 -2.4018285e-20 2.0272306e-35)
(0.10185683 -0.021727947 -6.9431944e-21 0.0058923596 1.0245724e-21 4.4423314e-38)
(0.12215675 -0.023082504 -5.3609333e-20 0.0060186624 6.6587848e-21 2.3475131e-36)
(0.14466978 -0.024129847 2.7600316e-20 0.0062223593 -2.8016545e-21 5.645986e-37)
(0.16911784 -0.024871866 -1.4591012e-20 0.0065657272 1.2030181e-21 1.4227194e-37)
(0.19520341 -0.02537556 -4.3552245e-20 0.0070763455 2.7077636e-21 1.1953128e-36)
(0.22264254 -0.025697424 6.8865558e-19 0.0076891191 -2.9933473e-20 2.8535031e-34)
(0.25108636 -0.025781457 -7.8219789e-20 0.0082357508 1.9921249e-21 3.5795375e-36)
(0.27987482 -0.02536769 7.249614e-20 0.0085148882 -6.4678657e-22 3.0523136e-36)
(0.30772328 -0.024014807 -6.7430195e-19 0.0083974796 -5.0430372e-21 2.6842153e-34)
(0.33254139 -0.02127064 3.6031456e-19 0.0079034915 8.6083891e-21 7.9916247e-35)
(0.35159308 -0.016876977 2.8475896e-19 0.0071833963 1.170284e-20 5.3497542e-35)
(0.36193583 -0.010838612 2.5645897e-19 0.0064190505 1.5305343e-20 4.8068892e-35)
(0.36084462 -0.0034146613 2.2847747e-19 0.0057804452 1.8379385e-20 4.386994e-35)
(0.34600907 0.0050162853 3.242248e-19 0.0053772789 3.3866198e-20 1.0625025e-34)
(0.31589547 0.013898551 -5.7127469e-19 0.0052739102 -7.5939895e-20 4.1757802e-34)
(0.27025469 0.022077923 3.0019088e-19 0.005567718 5.0196378e-20 1.5579022e-34)
(0.21164471 0.027507884 3.7421704e-19 0.0062547804 7.7838165e-20 3.5396106e-34)
(0.14845865 0.028029179 -2.1691663e-19 0.0069644706 -5.5053749e-20 1.8874345e-34)
(0.0920058 0.023419168 -5.2476023e-20 0.0069320962 -1.5831804e-20 1.9104139e-35)
(0.050562246 0.016422065 -3.3514534e-20 0.0059004695 -1.1706242e-20 1.4489849e-35)
(0.024444319 0.0096891454 1.2156358e-19 0.0042217764 4.8281353e-20 3.7537119e-34)
(0.010656854 0.0049938347 6.1659827e-20 0.0026493535 2.7757115e-20 2.025808e-34)
(0.0040703283 0.0021955622 -1.7754123e-21 0.0014748131 -9.6426452e-22 3.9328016e-37)
(1.1039105e-08 -8.6597654e-08 5.8519986e-24 6.7932903e-07 -4.5286517e-23 2.3631324e-37)
(1.0933838e-07 -8.3885959e-07 -4.139832e-23 6.4359005e-06 3.1300652e-22 1.8871537e-36)
(3.4529011e-07 -2.5920708e-06 5.6075161e-23 1.9458862e-05 -4.1357215e-22 1.2545197e-36)
(7.7576776e-07 -5.6850161e-06 -3.068241e-23 4.1662632e-05 2.2031685e-22 1.7920739e-37)
(1.4761733e-06 -1.0538451e-05 -1.5053158e-23 7.5238735e-05 1.0505432e-22 2.3396695e-38)
(2.5477117e-06 -1.7675936e-05 1.6954245e-22 0.00012264597 -1.1477038e-21 1.7331717e-36)
(4.1258442e-06 -2.7743751e-05 -5.4842583e-23 0.00018658341 3.5923676e-22 1.112434e-37)
(6.3914443e-06 -4.1532827e-05 -1.4617733e-22 0.00026993534 9.2395789e-22 5.0188612e-37)
(9.5857615e-06 -6.0002876e-05 -1.390329e-23 0.00037567916 8.4543716e-23 2.957044e-39)
(1.4030086e-05 -8.4306708e-05 -1.4509467e-22 0.00050674664 8.4604942e-22 2.1360893e-37)
(2.0151509e-05 -0.00011581276 2.4794354e-22 0.00066582954 -1.3815993e-21 4.1934726e-37)
(2.8516451e-05 -0.00015612273 -2.0929123e-22 0.00085512385 1.1104327e-21 2.0285177e-37)
(3.9874039e-05 -0.00020708023 -9.3340059e-22 0.0010760128 4.697574e-21 2.7585045e-36)
(5.521172e-05 -0.00027076512 -3.2753744e-23 0.0013286999 1.5574485e-22 2.3328436e-39)
(7.5825959e-05 -0.00034946776 1.038088e-21 0.0016118202 -4.6444371e-21 1.6173468e-36)
(0.00010341123 -0.00044563816 8.8494645e-22 0.0019220822 -3.7094089e-21 8.1296392e-37)
(0.00014017075 -0.00056180735 -9.1539757e-22 0.0022540171 3.5789732e-21 6.0307124e-37)
(0.00018895356 -0.00070048626 1.0544757e-22 0.0025999453 -3.8278554e-22 5.5645102e-39)
(0.00025342204 -0.00086405627 2.5687919e-21 0.0029502772 -8.6176831e-21 2.2997325e-36)
(0.00033825709 -0.0010546852 3.7449367e-21 0.0032942583 -1.1555285e-20 3.4174213e-36)
(0.00044941095 -0.0012743215 -5.1007802e-21 0.0036212047 1.4407111e-20 4.4535555e-36)
(0.00059442174 -0.0015248358 -6.1042825e-21 0.0039221502 1.5708639e-20 4.5071353e-36)
(0.00078281445 -0.0018083806 9.7287667e-21 0.0041916542 -2.2706843e-20 8.1514806e-36)
(0.0010266177 -0.0021280027 -1.4190371e-20 0.0044293378 2.9911755e-20 1.2461073e-35)
(0.0013411076 -0.0024885211 -2.882199e-20 0.0046406201 5.4657673e-20 3.7330043e-35)
(0.0017459208 -0.0028975336 7.9127444e-20 0.0048362483 -1.3455051e-19 2.0679543e-34)
(0.0022651675 -0.0033652591 -5.0422189e-20 0.0050306338 7.6672516e-20 6.250413e-35)
(0.0029304678 -0.0039053343 8.5921864e-20 0.0052379906 -1.1659625e-19 1.3687823e-34)
(0.0037834289 -0.0045332749 -1.2272292e-19 0.0054674206 1.483626e-19 2.1334776e-34)
(0.0048742221 -0.0052659402 1.5579578e-19 0.0057276198 -1.6753077e-19 2.6583697e-34)
(0.0062669495 -0.006121082 -1.8228734e-19 0.006023158 1.7411026e-19 2.8471638e-34)
(0.0080424718 -0.0071163925 3.4555616e-20 0.0063544608 -2.9279273e-20 8.0968218e-36)
(0.010299549 -0.0082682925 1.339363e-19 0.0067192245 -1.0055655e-19 9.7138825e-35)
(0.01315849 -0.0095914247 -8.4437922e-20 0.0071127347 5.6107357e-20 3.1150239e-35)
(0.016762932 -0.011097258 2.9405135e-20 0.0075280428 -1.7273617e-20 3.0773522e-36)
(0.021280948 -0.012792067 9.5213275e-21 0.0079556844 -4.938936e-21 2.6536354e-37)
(0.026904015 -0.01467399 1.2989591e-19 0.0083833492 -5.9440208e-20 4.0881392e-35)
(0.033842687 -0.016729042 4.6642238e-20 0.0087957869 -1.8800324e-20 4.4050211e-36)
(0.042317268 -0.018926182 5.1574631e-20 0.0091754964 -1.8265717e-20 4.54916e-36)
(0.0525414 -0.021212058 5.5629457e-20 0.009505089 -1.7256197e-20 4.5191404e-36)
(0.06469771 -0.023506833 -3.0759676e-19 0.0097720599 8.3179252e-20 1.1916465e-34)
(0.07890511 -0.025704846 1.4558515e-19 0.0099778803 -3.4089442e-20 2.3280702e-35)
(0.095182268 -0.027685185 2.4873239e-20 0.010150447 -5.0091955e-21 5.9666009e-37)
(0.11342132 -0.029338 -3.0418235e-19 0.010355235 5.1625004e-20 8.0301739e-35)
(0.13339044 -0.030605596 -1.6240739e-19 0.010694526 2.2845958e-20 2.0789806e-35)
(0.15480038 -0.031527281 8.3214781e-20 0.011278682 -9.4195862e-21 5.0524254e-36)
(0.1773964 -0.032228784 3.1213389e-19 0.012147757 -2.710734e-20 6.6923306e-35)
(0.20097091 -0.032796958 -1.3846931e-19 0.013168866 8.6136065e-21 1.2669202e-35)
(0.22521896 -0.033125817 4.0784026e-19 0.014036207 -1.5470206e-20 1.0791615e-34)
(0.24943599 -0.032816082 2.2076185e-19 0.014395958 -3.3567944e-21 3.1752591e-35)
(0.27221336 -0.031260728 2.9938094e-19 0.01404693 2.0399675e-21 6.0042387e-35)
(0.29138974 -0.0279121 7.7902192e-19 0.013059552 2.3063388e-20 4.2922351e-34)
(0.30436969 -0.022541737 -5.7425062e-19 0.011717346 -3.0589279e-20 2.5367447e-34)
(0.30863309 -0.015275061 1.755947e-19 0.010340675 1.3962144e-20 2.6628403e-35)
(0.30214935 -0.0065000027 -2.7641766e-19 0.0091979447 -3.0038064e-20 7.7442241e-35)
(0.28350284 0.0032907426 -2.3515121e-19 0.0084565967 -3.3705548e-20 6.8759918e-35)
(0.25203339 0.013437405 -7.9999664e-20 0.0082092669 -1.4842089e-20 1.0349662e-35)
(0.20820569 0.022622055 -6.1133354e-19 0.008603105 -1.4494428e-19 8.445414e-34)
(0.15504786 0.028364067 -1.3243156e-19 0.0096450325 -3.9792401e-20 6.0255378e-35)
(0.10136139 0.028230752 2.3369942e-19 0.010707059 8.7290414e-20 3.1183151e-34)
(0.057409024 0.022528453 6.5551275e-20 0.01054191 2.9593771e-20 4.430461e-35)
(0.028186848 0.014804397 -3.5142067e-20 0.0087964007 -1.8591685e-20 2.4686052e-35)
(0.01193794 0.0080554264 -5.0944653e-20 0.0061441233 -3.080204e-20 1.0553638e-34)
(0.0045663994 0.003769458 -5.4877318e-20 0.0037351893 -3.7250596e-20 2.5590881e-34)
(0.0016469921 0.0014940107 2.7851474e-21 0.0020027777 2.2170687e-21 1.488436e-36)
(2.2928777e-08 -1.4565561e-07 2.6362585e-23 9.2528254e-07 -1.6594028e-22 2.1938752e-36)
(2.2260567e-07 -1.3976367e-06 1.9561216e-23 8.7751599e-06 -1.2149876e-22 1.9799161e-37)
(6.9027138e-07 -4.2817205e-06 -2.5982998e-23 2.6559743e-05 1.5900328e-22 1.2984259e-37)
(1.5199106e-06 -9.3021031e-06 -1.372026e-22 5.6932346e-05 8.2628852e-22 1.7708357e-36)
(2.8309054e-06 -1.7070963e-05 1.008782e-22 0.0001029478 -5.9716511e-22 5.3178992e-37)
(4.7753604e-06 -2.8327647e-05 -1.878157e-22 0.00016805715 1.0912844e-21 1.1022193e-36)
(7.5467744e-06 -4.3958166e-05 1.0254893e-22 0.00025608293 -5.8381933e-22 2.0647974e-37)
(1.1390824e-05 -6.5014774e-05 3.0281234e-23 0.00037115738 -1.6856471e-22 1.1722144e-38)
(1.661928e-05 -9.2735973e-05 -2.0975279e-22 0.00051761361 1.1390423e-21 3.7591055e-37)
(2.3627575e-05 -0.00012856442 -5.4795173e-22 0.00069981387 2.8953657e-21 1.7480988e-36)
(3.2917102e-05 -0.00017416091 -3.3111705e-23 0.0009219025 1.6977043e-22 4.4110026e-39)
(4.5123472e-05 -0.00023141128 1.2984867e-21 0.0011874711 -6.4404479e-21 4.741092e-36)
(6.1052395e-05 -0.00030242294 -2.1432978e-21 0.0014991324 1.0250295e-20 9.0948746e-36)
(8.1725242e-05 -0.00038950679 4.1186121e-21 0.0018580099 -1.8925225e-20 2.3780073e-35)
(0.00010843694 -0.00049514099 -1.2786831e-21 0.0022631745 5.623841e-21 1.629548e-36)
(0.00014282976 -0.0006219143 3.2235654e-21 0.0027110866 -1.35148e-20 7.3840855e-36)
(0.00018698708 -0.00077244953 -4.620317e-21 0.0031951461 1.8384305e-20 1.084074e-35)
(0.00024355357 -0.00094931608 3.5544971e-21 0.0037054933 -1.3360862e-20 4.5942195e-36)
(0.00031588854 -0.0011549485 -6.6463941e-22 0.0042292369 2.3484725e-21 1.1528836e-37)
(0.00040826349 -0.0013916065 -3.1866427e-21 0.0047512908 1.053037e-20 1.9067019e-36)
(0.00052611735 -0.0016614268 9.1401968e-21 0.0052559362 -2.8097501e-20 1.1326884e-35)