/*--------------------------------*- C++ -*----------------------------------*\
  =========                 |
  \\      /  F ield         | OpenFOAM: The Open Source CFD Toolbox
   \\    /   O peration     | Website:  https://openfoam.org
    \\  /    A nd           | Version:  13
     \\/     M anipulation  |
\*---------------------------------------------------------------------------*/
FoamFile
{
    format      ascii;
    class       volScalarField;
    location    "13.997966";
    object      k;
}
// * * * * * * * * * * * * * * * * * * * * * * * * * * * * * * * * * * * * * //

dimensions      [0 2 -2 0 0 0 0];

internalField   nonuniform List<scalar> 
17140
(
1.2302368e-10
3.8658293e-09
3.1612165e-08
1.3595482e-07
4.1839677e-07
1.055896e-06
2.3416551e-06
4.7459288e-06
9.0053524e-06
1.6252656e-05
2.8202814e-05
4.7416496e-05
7.7666471e-05
0.00012443526
0.00019556866
0.00030209117
0.00045914007
0.0006868699
0.0010109823
0.0014622132
0.0020736635
0.0028744439
0.0038781897
0.005066618
0.0063727425
0.0076751695
0.0088180646
0.0096719507
0.010171644
0.010370193
0.010408847
0.010309615
0.010139122
0.0099547495
0.0097759686
0.0096051191
0.0094418477
0.0092858649
0.0091368847
0.0089946389
0.0088570256
0.0087234505
0.0085905644
0.0084466681
0.0082628512
0.0079967187
0.0076505238
0.0073422273
0.0070486694
0.0068047271
0.0065683835
0.0063920233
0.0062285041
0.0061410788
0.0061077163
0.0061035184
0.0061549008
0.0062500771
0.0063647137
0.0064195812
0.005939934
0.0047621213
0.0040512773
0.0030287311
0.0022528763
1.2202774e-10
3.8345338e-09
3.1356334e-08
1.3485527e-07
4.150159e-07
1.0473728e-06
2.3227774e-06
4.7077271e-06
8.932999e-06
1.6122369e-05
2.7977358e-05
4.7038763e-05
7.7050482e-05
0.00012345388
0.00019403745
0.00029974815
0.00045562254
0.00068169185
0.0010035207
0.0014517185
0.0020593194
0.0028555081
0.0038542419
0.0050379006
0.0063404851
0.0076416817
0.0087863762
0.0096447697
0.010149762
0.010352222
0.010394781
0.010300453
0.010133871
0.009953635
0.0097802658
0.009617046
0.0094641224
0.0093228032
0.0091954134
0.0090834772
0.0089818836
0.0088931716
0.0088181795
0.0087485779
0.0086551643
0.0085070049
0.0083099569
0.0081452574
0.0080155086
0.0079364515
0.0078703598
0.0078504582
0.0078355097
0.0078636331
0.0079342262
0.0080768399
0.0082653495
0.0084671905
0.0086337606
0.0086933173
0.007887072
0.0064111766
0.0049533208
0.0036498158
0.0026284638
1.1929174e-10
3.7485589e-09
3.0653293e-08
1.3183178e-07
4.0571185e-07
1.0238956e-06
2.2707245e-06
4.6022699e-06
8.7330155e-06
1.5761773e-05
2.7352475e-05
4.5990253e-05
7.5337966e-05
0.00012072127
0.00018976727
0.00029320454
0.00044578642
0.00066719911
0.0009826285
0.0014223463
0.0020192404
0.0028027861
0.0037879922
0.0049593269
0.0062538677
0.0075546703
0.0087089394
0.0095859551
0.010113133
0.010331988
0.010389219
0.01031343
0.01016374
0.010003153
0.0098548313
0.0097247846
0.0096131539
0.0095233627
0.0094666086
0.0094437354
0.0094472717
0.0095137448
0.0096333439
0.0098114123
0.010019767
0.010260394
0.010537613
0.010835241
0.011209846
0.011632403
0.012090504
0.012541832
0.012923013
0.013241122
0.013488996
0.013666355
0.013658329
0.013410926
0.012762442
0.011819076
0.0098056242
0.0071947535
0.0051041999
0.0033729893
0.0021275616
1.1480069e-10
3.6074351e-09
2.9499282e-08
1.2686882e-07
3.9043933e-07
9.8535707e-07
2.1852746e-06
4.4291432e-06
8.4046858e-06
1.5169704e-05
2.6326363e-05
4.4268283e-05
7.2525039e-05
0.00011623185
0.00018274994
0.00028244773
0.00042961049
0.00064335278
0.00094822999
0.0013739463
0.0019531306
0.0027157156
0.0036784243
0.0048291716
0.0061101624
0.0074101224
0.008580195
0.0094875894
0.01005578
0.010317513
0.0103971
0.010357065
0.010244089
0.010125152
0.010028247
0.0099741308
0.0099553274
0.0099746752
0.010067795
0.010232793
0.010490074
0.010871818
0.011378061
0.012016686
0.012787843
0.013715327
0.014820354
0.016070754
0.017426543
0.018806595
0.020218224
0.021539641
0.022615856
0.023268963
0.02359617
0.023625884
0.022349069
0.020924029
0.018276454
0.015207749
0.011005187
0.007330472
0.0044602908
0.0025981537
0.001486095
1.086597e-10
3.4144641e-09
2.7921306e-08
1.2008253e-07
3.6955579e-07
9.326591e-07
2.0684276e-06
4.1923967e-06
7.9556828e-06
1.4359974e-05
2.4922888e-05
4.1912718e-05
6.8676358e-05
0.00011008771
0.00017314259
0.00026771319
0.00040743764
0.00061063546
0.00090097634
0.0013073492
0.0018619695
0.0025953171
0.0035263828
0.004647777
0.0059088532
0.0072064764
0.008397812
0.0093469337
0.0099753309
0.010303012
0.01042021
0.010430966
0.010375528
0.010331164
0.010318466
0.010358042
0.010469057
0.010663401
0.010968088
0.011399037
0.011986072
0.012756094
0.01372464
0.01490934
0.016341901
0.018047261
0.020034087
0.022319807
0.024838304
0.027422386
0.03004498
0.032451244
0.034532337
0.035885364
0.03650733
0.036574621
0.034190602
0.030929027
0.025631851
0.019066892
0.011642373
0.0066640896
0.0035062826
0.001812517
0.00095392552
1.010734e-10
3.1760769e-09
2.5971949e-08
1.1169906e-07
3.4375705e-07
8.6755745e-07
1.9240757e-06
3.8999142e-06
7.400949e-06
1.3359502e-05
2.3188631e-05
3.9001534e-05
6.3918827e-05
0.00010249028
0.00016125751
0.00024947412
0.00037996772
0.00057005482
0.00084227336
0.0012244414
0.0017481645
0.0024444644
0.0033349921
0.004418096
0.005652132
0.0069445584
0.008160839
0.0091612892
0.0098616704
0.010269976
0.010459973
0.010528575
0.010550871
0.010584363
0.010672061
0.010840518
0.011112208
0.011508919
0.012059374
0.012790708
0.013737041
0.014930271
0.016395886
0.018168858
0.020268553
0.022709247
0.025517403
0.028700482
0.032198503
0.035944014
0.039754269
0.043312573
0.04637456
0.048598526
0.049722755
0.04996567
0.047040208
0.041794895
0.033443737
0.021962085
0.011845309
0.0056880827
0.0026104857
0.0012471271
0.00066220266
9.2248644e-11
2.8987732e-09
2.3704358e-08
1.0194692e-07
3.1374611e-07
7.9182502e-07
1.7561462e-06
3.5596407e-06
6.755518e-06
1.2195306e-05
2.1170183e-05
3.5612365e-05
5.8377984e-05
9.3637055e-05
0.00014739727
0.00022818125
0.00034785156
0.00052251585
0.00077331858
0.0011266984
0.0016133339
0.0022645537
0.0031046889
0.0041383547
0.0053341971
0.0066122581
0.0078483816
0.0089059297
0.0096922131
0.010200076
0.010484358
0.01063734
0.010739521
0.010865258
0.011065975
0.011375185
0.011820396
0.012429715
0.013235382
0.014271574
0.015575803
0.017184873
0.019132112
0.021451603
0.024149119
0.027238928
0.030766693
0.034709683
0.039003189
0.043564592
0.048243624
0.052828338
0.056806809
0.059723697
0.061245305
0.061646832
0.058428783
0.051390197
0.039265913
0.023128048
0.010667156
0.0043628462
0.0017734545
0.0008146892
0.00046267308
8.2513317e-11
2.5928561e-09
2.1202782e-08
9.1188447e-08
2.8063806e-07
7.082757e-07
1.5708781e-06
3.1842158e-06
6.0433559e-06
1.0910586e-05
1.8942364e-05
3.1870624e-05
5.2258328e-05
8.385353e-05
0.00013206855
0.0002046068
0.00031224093
0.00046969696
0.00069649473
0.0010174001
0.0014618262
0.00206109
0.0028420589
0.0038159387
0.0049628675
0.0062178551
0.0074703396
0.0085896097
0.0094705822
0.010079379
0.010472001
0.010721563
0.010916379
0.011141438
0.011458438
0.011908836
0.012525403
0.013340599
0.014389748
0.015710547
0.017343371
0.019327332
0.021698764
0.024483485
0.027677255
0.031302833
0.035409979
0.039941706
0.044831285
0.049987101
0.055263862
0.060435358
0.065128123
0.068463256
0.070086149
0.070409309
0.066782463
0.057797381
0.041700364
0.022109459
0.0085830345
0.0030587298
0.0011867951
0.0005895301
0.00036859366
7.2223231e-11
2.2695059e-09
1.855864e-08
7.9816794e-08
2.4564266e-07
6.1996184e-07
1.3750377e-06
2.7873436e-06
5.2904379e-06
9.5521455e-06
1.6586189e-05
2.7912024e-05
4.5780979e-05
7.3491299e-05
0.00011581802
0.00017958235
0.00027437271
0.00041339305
0.00061433196
0.00089998606
0.0012980966
0.0018394581
0.0025529365
0.0034559835
0.0045404988
0.0057578157
0.0070132351
0.0081838111
0.0091600725
0.0098893396
0.010392481
0.010744918
0.011049868
0.011378152
0.011807372
0.012389279
0.013162193
0.014161786
0.015425381
0.016991744
0.018902384
0.021196827
0.02391051
0.0270593
0.030630021
0.034659176
0.039181113
0.044116694
0.049393867
0.054912215
0.060522512
0.065999376
0.070978525
0.074427054
0.075844112
0.075598629
0.070981657
0.06018866
0.040825912
0.017937499
0.0059857183
0.0019424299
0.00077787465
0.00042507777
0.00030184562
6.1746617e-11
1.9402946e-09
1.5866564e-08
6.8238929e-08
2.1001222e-07
5.300432e-07
1.1756303e-06
2.3832151e-06
4.52367e-06
8.1684857e-06
1.4185674e-05
2.3877458e-05
3.9175857e-05
6.2916764e-05
9.9217151e-05
0.00015398119
0.00023555419
0.00035551843
0.00052956417
0.00077824456
0.0011271965
0.0016060554
0.0022448537
0.0030664336
0.0040740587
0.0052362723
0.0064770229
0.0076847658
0.0087477494
0.0095976901
0.010231165
0.010702361
0.011101349
0.011538964
0.012070916
0.012765053
0.013668968
0.014820534
0.016256841
0.018016337
0.020139697
0.022665396
0.025625915
0.029027407
0.032849301
0.037136269
0.041902079
0.047054461
0.052510363
0.058156448
0.063842091
0.069335079
0.074259503
0.077385459
0.07833855
0.07689553
0.071349228
0.05845845
0.034256936
0.012262783
0.003659133
0.0012255082
0.00054214931
0.00034620029
0.00026911551
5.1450688e-11
1.6167604e-09
1.3220897e-08
5.6860517e-08
1.749951e-07
4.4167034e-07
9.7964252e-07
1.985988e-06
3.7699091e-06
6.8080555e-06
1.1824831e-05
1.9908018e-05
3.2673689e-05
5.2498691e-05
8.2843446e-05
0.00012869072
0.00019712388
0.0002980535
0.0004450598
0.00065622751
0.00095467346
0.0013681704
0.0019268529
0.0026575969
0.0035738085
0.0046611386
0.0058644252
0.0070879054
0.0082207159
0.0091805211
0.0099443467
0.010547193
0.011056567
0.011568336
0.012204966
0.01300744
0.014016074
0.015276623
0.016829556
0.018713574
0.020968895
0.023633569
0.026737966
0.030280133
0.034230117
0.038624562
0.043465324
0.048652127
0.054084534
0.059620763
0.065118725
0.070328766
0.074763152
0.077388131
0.077378051
0.074672795
0.067308485
0.050858006
0.023874842
0.0070697716
0.0021301515
0.00077106413
0.00039408403
0.00028494092
0.00023604156
4.1676241e-11
1.3096129e-09
1.0709225e-08
4.6058322e-08
1.4175081e-07
3.5776929e-07
7.9356337e-07
1.6088148e-06
3.0541155e-06
5.5159122e-06
9.5818716e-06
1.6135251e-05
2.6490048e-05
4.2582673e-05
6.7240397e-05
0.00010455093
0.00016035886
0.00024290816
0.00036362533
0.00053797683
0.00078620702
0.0011335309
0.0016089905
0.0022417388
0.0030532898
0.0040450964
0.0051840954
0.0063952458
0.0075748505
0.0086285019
0.0095108434
0.0102374
0.010870039
0.011483407
0.01216563
0.013002066
0.014049574
0.015360409
0.016970416
0.018912654
0.021228144
0.02395521
0.027121714
0.030717072
0.034683993
0.03902899
0.043774798
0.048818797
0.054068959
0.05938807
0.064555212
0.069273067
0.072919174
0.074421455
0.073224287
0.06879767
0.058929439
0.037767017
0.013175951
0.0038147641
0.0012020943
0.0005003166
0.00030587381
0.00024992811
0.00021753042
3.2722654e-11
1.0282598e-09
8.4084845e-09
3.6163281e-08
1.1129792e-07
2.8091097e-07
6.230959e-07
1.2632595e-06
2.3982473e-06
4.3317284e-06
7.5257459e-06
1.2675339e-05
2.0815829e-05
3.3475843e-05
5.2893432e-05
8.2317225e-05
0.00012641824
0.00019183739
0.00028788214
0.00042734997
0.00062737262
0.00091000903
0.0013020244
0.0018328704
0.0025294605
0.0034064205
0.0044522631
0.0056168222
0.0068121581
0.007938619
0.0089274552
0.0097682754
0.010504231
0.011210076
0.011962795
0.012844896
0.013922252
0.015244697
0.016854909
0.018792928
0.021099538
0.023811903
0.026955911
0.030518136
0.034430463
0.038680179
0.0432604
0.048080821
0.052981692
0.05779377
0.062255128
0.066024597
0.068426926
0.068466255
0.066058209
0.059511389
0.046178752
0.021818996
0.0065138822
0.0019247198
0.0006796929
0.0003462667
0.00025125894
0.00022044874
0.00019492276
2.4830108e-11
7.802483e-10
6.3803915e-09
2.7440823e-08
8.4453436e-08
2.1315803e-07
4.7281726e-07
9.5860778e-07
1.8199506e-06
3.2874222e-06
5.7120204e-06
9.622139e-06
1.5805769e-05
2.5428365e-05
4.0200576e-05
6.2614595e-05
9.6272622e-05
0.00014633412
0.00022010615
0.00032778423
0.00048330382
0.00070515556
0.0010168118
0.0014460658
0.0020221222
0.0027689308
0.0036937887
0.004773101
0.0059434547
0.0071118658
0.0081910882
0.0091393934
0.0099734132
0.010751911
0.011551497
0.012455062
0.013537741
0.01484875
0.016431827
0.018329629
0.020581629
0.023222074
0.026273297
0.029718374
0.033469939
0.037485458
0.041716031
0.046079155
0.050388214
0.05444546
0.05800332
0.060605079
0.061581431
0.060356281
0.056154019
0.047196294
0.029177432
0.0096689857
0.0028957459
0.00093976489
0.00040847982
0.00026129678
0.00021461802
0.00019892657
0.00018163431
1.8157439e-11
5.7056964e-10
4.6657629e-09
2.0066509e-08
6.1757821e-08
1.5587531e-07
3.457575e-07
7.0101128e-07
1.3309285e-06
2.4041981e-06
4.1777048e-06
7.0383965e-06
1.1563871e-05
1.8609642e-05
2.943415e-05
4.5876634e-05
7.0607836e-05
0.00010747849
0.00016199358
0.00024193644
0.00035814564
0.00052538931
0.00076315381
0.0010959205
0.00155211
0.0021603828
0.0029417556
0.0038970258
0.0049929532
0.0061577544
0.0072996067
0.0083466259
0.0092797948
0.010133525
0.010975153
0.011884905
0.012939643
0.014197481
0.015705048
0.017504384
0.019632135
0.022118384
0.024982164
0.028208407
0.031695244
0.035368684
0.039152521
0.042940845
0.046555505
0.049754042
0.052209533
0.053424238
0.05294188
0.050325427
0.043989851
0.031806099
0.01286881
0.0040053676
0.0012612583
0.00049124652
0.00027969186
0.0002186588
0.00018868683
0.00017801374
0.00016452706
1.2765712e-11
4.0114279e-10
3.2802922e-09
1.4107848e-08
4.3419e-08
1.0958829e-07
2.4308488e-07
4.9284716e-07
9.3571966e-07
1.6903253e-06
2.9373501e-06
4.9490755e-06
8.1322134e-06
1.3089821e-05
2.071047e-05
3.2296133e-05
4.9744541e-05
7.5807014e-05
0.00011444818
0.00017133729
0.00025449629
0.0003751059
0.00054840482
0.00079447282
0.0011384153
0.0016090334
0.0022345565
0.0030338944
0.0040033572
0.0051036244
0.0062591499
0.0073824354
0.0084151895
0.0093548738
0.010245892
0.011160573
0.012175095
0.013355947
0.014755251
0.016413677
0.018365074
0.020635156
0.023238619
0.026163486
0.029306941
0.032551562
0.035802245
0.038918598
0.041722659
0.04393051
0.045128872
0.04492798
0.043213488
0.038701027
0.03022077
0.014698478
0.0048833817
0.0015639955
0.00057711343
0.00029946197
0.00021807361
0.000189336
0.00017440509
0.00016768014
0.0001558962
8.6151347e-12
2.7071727e-10
2.2137522e-09
9.5208539e-09
2.9301693e-08
7.3956098e-08
1.6404538e-07
3.3259377e-07
6.3145685e-07
1.1406852e-06
1.9822228e-06
3.339868e-06
5.4882671e-06
8.8349234e-06
1.3980928e-05
2.1808565e-05
3.3607335e-05
5.1254478e-05
7.7471732e-05
0.00011618611
0.00017302657
0.00025598442
0.0003762405
0.0005490933
0.0007947681
0.0011385969
0.001609599
0.0022359707
0.0030359353
0.0040041735
0.0050993747
0.0062458618
0.0073605165
0.0083904579
0.0093508153
0.010285107
0.01126595
0.012363122
0.013633813
0.015121749
0.016858004
0.018862496
0.021144864
0.023695824
0.026423709
0.029174563
0.031824502
0.034199989
0.036115498
0.037236403
0.037148097
0.035929221
0.032582986
0.026379438
0.014710172
0.005497
0.0018041619
0.00065130536
0.00031848647
0.00022233586
0.00018972809
0.00017563644
0.00016149716
0.00015450402
0.00014487595
5.5790332e-12
1.7531243e-10
1.4335904e-09
6.1655277e-09
1.8975091e-08
4.78917e-08
1.062291e-07
2.1536977e-07
4.0888693e-07
7.3860494e-07
1.2834658e-06
2.1624524e-06
3.5533714e-06
5.7201008e-06
9.0520646e-06
1.4121382e-05
2.1765554e-05
3.3206976e-05
5.0225237e-05
7.5404165e-05
0.00011248224
0.00016684025
0.00024615788
0.00036124899
0.00052701871
0.00076332576
0.0010952506
0.0015517988
0.0021615392
0.0029436075
0.0038942731
0.0049745774
0.0061118278
0.0072255403
0.0082678476
0.0092627208
0.010229115
0.011249626
0.012387809
0.013691402
0.015190914
0.016901894
0.018824903
0.020948005
0.023198115
0.025414835
0.027414383
0.029020171
0.030031336
0.02998841
0.029080288
0.026511056
0.021848567
0.013176049
0.0054761026
0.0018804834
0.00068730908
0.00032626456
0.00022427497
0.00019224345
0.00017394384
0.0001613513
0.00015252605
0.00014757242
0.00013942596
3.4705422e-12
1.0905632e-10
8.9178934e-10
3.8353553e-09
1.1803621e-08
2.9791016e-08
6.6078392e-08
1.3396401e-07
2.5432538e-07
4.5938486e-07
7.9821688e-07
1.3447727e-06
2.2095416e-06
3.5564686e-06
5.6274774e-06
8.7780239e-06
1.3528685e-05
2.0640104e-05
3.1221961e-05
4.6891331e-05
7.0001969e-05
0.00010397324
0.00015375357
0.00022645251
0.00033215696
0.00048489167
0.000703545
0.0010123129
0.0014397007
0.0020146973
0.0027585366
0.0036719821
0.0047226942
0.005844227
0.0069552441
0.0080137604
0.0090303799
0.010023662
0.011055954
0.012185212
0.013447291
0.014857194
0.016408785
0.018081508
0.019812885
0.021467881
0.022821229
0.023706398
0.023676527
0.022976858
0.020984682
0.017418372
0.010986714
0.004910718
0.0018376753
0.00068563829
0.00032617694
0.00022057759
0.00019154562
0.00017178917
0.00015840347
0.00015030957
0.00014241786
0.00013819589
0.00013204202
2.0789e-12
6.5326126e-11
5.3419221e-10
2.2974119e-09
7.0704031e-09
1.7844611e-08
3.9579535e-08
8.0238788e-08
1.5232291e-07
2.7512131e-07
4.7800384e-07
8.0521357e-07
1.3228258e-06
2.1288345e-06
3.3677626e-06
5.2518313e-06
8.0916835e-06
1.234108e-05
1.8662126e-05
2.8020726e-05
4.1826503e-05
6.2137513e-05
9.1957573e-05
0.00013566093
0.00019958047
0.00029278038
0.0004279804
0.00062247839
0.00089872757
0.0012838233
0.001806503
0.0024902024
0.0033417221
0.0043390835
0.005426195
0.0065312334
0.0075999102
0.0086219327
0.0096182745
0.010626279
0.011688662
0.012824001
0.014026041
0.015264724
0.01648039
0.017557327
0.018322855
0.018313658
0.017779849
0.016243323
0.013523526
0.0087091677
0.0040820578
0.0016468035
0.0006636715
0.00031975788
0.00021771507
0.00018784516
0.00017051712
0.00015841898
0.00015081888
0.00014429505
0.00013720277
0.00013377001
0.00012851059
1.2037564e-12
3.7826123e-11
3.0931563e-10
1.3302745e-09
4.0939469e-09
1.0332318e-08
2.2916613e-08
4.6456692e-08
8.8187493e-08
1.5927056e-07
2.7669506e-07
4.6604298e-07
7.654992e-07
1.2316549e-06
1.947898e-06
3.0365476e-06
4.6764276e-06
7.1283929e-06
1.0772556e-05
1.616284e-05
2.4107326e-05
3.5786981e-05
5.293119e-05
7.8075761e-05
0.00011493649
0.00016893444
0.00024789784
0.00036292105
0.00052925618
0.00076689727
0.0011003117
0.00155641
0.0021593718
0.0029215104
0.0038321097
0.0048513038
0.0059178109
0.0069748751
0.0079937116
0.0089642802
0.0099060348
0.010838169
0.011756055
0.012626935
0.013378525
0.01396364
0.013959357
0.013555614
0.012380897
0.010311422
0.0066173208
0.0031809007
0.0013702321
0.00059808257
0.00030662208
0.00021138764
0.00018471166
0.00017103576
0.00015930715
0.00015028181
0.00014150472
0.00013589219
0.00013110845
0.00012757551
0.0001230919
6.7683758e-13
2.1268533e-11
1.7391893e-10
7.4797027e-10
2.3018705e-09
5.8093715e-09
1.2884594e-08
2.6118763e-08
4.9577976e-08
8.9533634e-08
1.5552841e-07
2.619251e-07
4.301495e-07
6.9193021e-07
1.0939716e-06
1.7046916e-06
2.6239476e-06
3.9971072e-06
6.035491e-06
9.0462307e-06
1.3476164e-05
1.9976792e-05
2.9500925e-05
4.3446749e-05
6.3871789e-05
9.3806727e-05
0.00013770568
0.00020205848
0.00029615769
0.00043291807
0.00062946643
0.00090688303
0.0012886425
0.0017968701
0.002446214
0.0032348833
0.0041379903
0.0051099978
0.0061006946
0.0070645111
0.0079727616
0.0088009265
0.0095375148
0.010126856
0.010559372
0.010541879
0.01022686
0.0093132881
0.007665284
0.0047264226
0.0023113706
0.0010677028
0.00050730267
0.00028232981
0.00020251498
0.00017895366
0.00017086066
0.00015769174
0.00014712824
0.00013981592
0.00013499594
0.00013037291
0.00012537883
0.00012320049
0.00012023454
3.7301556e-13
1.1721409e-11
9.5849166e-11
4.1221513e-10
1.2685755e-09
3.2015306e-09
7.1005041e-09
1.4393191e-08
2.7319595e-08
4.9333967e-08
8.5691014e-08
1.442969e-07
2.3693972e-07
3.8106335e-07
6.0232011e-07
9.3823881e-07
1.4434963e-06
2.1975028e-06
3.3153481e-06
4.9637481e-06
7.3842851e-06
1.0927632e-05
1.610436e-05
2.3660871e-05
3.4693297e-05
5.0817868e-05
7.4422307e-05
0.00010902801
0.000159788
0.00023412527
0.00034245477
0.00049876134
0.00072050189
0.0010271839
0.0014371051
0.0019625936
0.002605099
0.0033490289
0.0041622648
0.0050014731
0.0058140482
0.0065569383
0.007151451
0.0076127295
0.007644954
0.0074255971
0.0067785781
0.0053188254
0.0031005032
0.001574023
0.00078371898
0.00041045445
0.00025194899
0.00019197703
0.0001723479
0.00016736506
0.00015416238
0.00014427054
0.00013857782
0.0001349111
0.00013018285
0.00012609644
0.00012234805
0.00011997689
0.00011662116
2.0657329e-13
6.491229e-12
5.3080472e-11
2.2828024e-10
7.0251565e-10
1.7729206e-09
3.9319555e-09
7.9700075e-09
1.5126936e-08
2.7314202e-08
4.7438537e-08
7.9871285e-08
1.3112653e-07
2.1083771e-07
3.3316e-07
5.1877905e-07
7.9778871e-07
1.2138198e-06
1.8299733e-06
2.7373009e-06
4.0671271e-06
6.0089665e-06
8.8367475e-06
1.29474e-05
1.8919623e-05
2.760117e-05
4.0238616e-05
5.8670314e-05
8.5604908e-05
0.00012500327
0.0001825629
0.00026626893
0.00038684627
0.00055788421
0.00079469131
0.0011117617
0.0015176806
0.0020114362
0.0025785405
0.0031916882
0.0038082934
0.0043699369
0.0048314584
0.0050354134
0.0049121189
0.0044306417
0.0032191162
0.001851191
0.0010121849
0.00054974021
0.00032248636
0.00022132181
0.00018071697
0.00016660698
0.00016261135
0.00015070399
0.00014259485
0.00013795426
0.0001340614
0.00012864027
0.00012411083
0.00012087325
0.00011756794
0.00011589764
0.00011395161
1.2362078e-13
3.8845823e-12
3.1765246e-11
1.3661079e-10
4.2040711e-10
1.0609587e-09
2.3529365e-09
4.769243e-09
9.0516179e-09
1.634338e-08
2.8382687e-08
4.7782432e-08
7.8433694e-08
1.2608486e-07
1.9916981e-07
3.0999124e-07
4.7640545e-07
7.2421493e-07
1.0905699e-06
1.6288096e-06
2.4153785e-06
3.5597613e-06
5.2188726e-06
7.6181146e-06
1.1080744e-05
1.6070902e-05
2.3256763e-05
3.3610332e-05
4.8552841e-05
7.0157597e-05
0.00010143165
0.0001466698
0.00021182985
0.00030476331
0.00043526132
0.00061423983
0.0008518671
0.0011535578
0.0015152388
0.0019193658
0.0023329571
0.0027076213
0.0029469692
0.0028819612
0.0025350612
0.0016933786
0.0010339246
0.00061319379
0.00037457129
0.00025193334
0.00019406197
0.0001704259
0.00016150796
0.00015864909
0.00014974151
0.00014193187
0.00013729228
0.00013241126
0.00012738504
0.0001236857
0.00012117922
0.00011831987
0.00011525765
0.00011383769
0.00011174227
9.0331569e-14
2.838526e-12
2.3211465e-11
9.9824789e-11
3.0720433e-10
7.752842e-10
1.7194125e-09
3.4852175e-09
6.6148692e-09
1.1944174e-08
2.0743953e-08
3.4924783e-08
5.7331985e-08
9.2168599e-08
1.4559903e-07
2.2660653e-07
3.4820544e-07
5.2914669e-07
7.9630552e-07
1.1880079e-06
1.7586429e-06
2.5850313e-06
3.7751973e-06
5.4804813e-06
7.9124576e-06
1.1367443e-05
1.6262368e-05
2.3179411e-05
3.2931837e-05
4.6674717e-05
6.6052762e-05
9.3390537e-05
0.0001319946
0.00018637137
0.00026241309
0.0003671265
0.00050760336
0.00068869586
0.00090884918
0.0011522162
0.001386116
0.0015281985
0.0014699118
0.0012000347
0.00081643985
0.00054125665
0.00036353653
0.0002546995
0.00019866972
0.00017257034
0.00016068424
0.00015745486
0.0001558453
0.00014988052
0.00014210658
0.00013710047
0.00013206166
0.00012729676
0.00012430074
0.00012100837
0.00011722902
0.00011404118
0.0001116281
0.00011043521
0.00010909717
8.3539253e-14
2.6250921e-12
2.1466294e-11
9.2320581e-11
2.8411597e-10
7.1703626e-10
1.5902943e-09
3.2236808e-09
6.118963e-09
1.1049917e-08
1.9193529e-08
3.2320131e-08
5.306753e-08
8.5334219e-08
1.3484041e-07
2.0992405e-07
3.2266313e-07
4.9044671e-07
7.3815547e-07
1.1011565e-06
1.6293653e-06
2.3926695e-06
3.488045e-06
5.0487005e-06
7.2554543e-06
1.0351072e-05
1.4658347e-05
2.060313e-05
2.8746088e-05
3.9822499e-05
5.4816399e-05
7.5073164e-05
0.00010245467
0.00013948892
0.00018941463
0.00025592273
0.00034200926
0.00044686766
0.00056044764
0.00065803054
0.00069226862
0.00063984292
0.00049406042
0.00037819112
0.00027713653
0.00021603781
0.0001811223
0.00016014162
0.00015431116
0.00015339691
0.00015454803
0.00015395732
0.00015048191
0.00014221221
0.0001370916
0.00013192711
0.00012786598
0.00012460352
0.00012070156
0.00011690102
0.00011412876
0.00011200991
0.00010993932
0.00010888832
0.00010780408
8.5633702e-14
2.690911e-12
2.2004669e-11
9.4637274e-11
2.9125151e-10
7.3506606e-10
1.6303509e-09
3.3050765e-09
6.273978e-09
1.1331094e-08
1.9684723e-08
3.3153161e-08
5.4447101e-08
8.7574878e-08
1.3842068e-07
2.1556423e-07
3.3143378e-07
5.0391298e-07
7.5855331e-07
1.1315736e-06
1.6738439e-06
2.4560342e-06
3.5750338e-06
5.1615564e-06
7.3884116e-06
1.0478293e-05
1.4710073e-05
2.0421982e-05
2.8011026e-05
3.7926084e-05
5.0660159e-05
6.6770472e-05
8.6909564e-05
0.00011181601
0.00014205356
0.00017712694
0.0002156677
0.00025214325
0.00027847165
0.00027673232
0.00024581937
0.00020670009
0.00017138724
0.0001513793
0.00013334445
0.00013288297
0.0001382116
0.00014323245
0.00014931838
0.00015328593
0.00015332276
0.000150568
0.00014266129
0.00013698107
0.00013237668
0.00012847671
0.00012511898
0.00012076094
0.00011751651
0.00011492498
0.00011237557
0.00010969353
0.00010743163
0.00010670893
0.00010606281
7.9612169e-14
2.5016942e-12
2.0457398e-11
8.7982942e-11
2.707724e-10
6.8337886e-10
1.5157039e-09
3.0726436e-09
5.8327075e-09
1.0534024e-08
1.8299732e-08
3.0819757e-08
5.0612845e-08
8.1402067e-08
1.2864942e-07
2.0031105e-07
3.0789416e-07
4.6791806e-07
7.0390189e-07
1.0490105e-06
1.5494705e-06
2.2687893e-06
3.2926229e-06
4.7337901e-06
6.736325e-06
9.4765312e-06
1.3158021e-05
1.799714e-05
2.4199378e-05
3.1920965e-05
4.1218626e-05
5.2042862e-05
6.416684e-05
7.7180626e-05
9.0400351e-05
0.0001027106
0.0001114578
0.000113499
0.00010651918
9.7427587e-05
9.1695747e-05
8.5952649e-05
8.8142128e-05
9.5355294e-05
0.00010437562
0.00012399219
0.00014239405
0.000152292
0.00015429383
0.00015407264
0.00015120632
0.00014286998
0.00013709722
0.00013280399
0.00012932018
0.00012543369
0.00012143274
0.00011834421
0.0001157375
0.00011247836
0.00010970653
0.00010756373
0.00010588654
0.0001051613
0.00010474656
6.0652244e-14
1.9059051e-12
1.5585316e-11
6.7028394e-11
2.06279e-10
5.2059056e-10
1.1545841e-09
2.3404015e-09
4.4422544e-09
8.0217199e-09
1.3932809e-08
2.345953e-08
3.8513716e-08
6.1917585e-08
9.7804274e-08
1.5218035e-07
2.3370664e-07
3.5476586e-07
5.3289239e-07
7.9263281e-07
1.1678667e-06
1.7045171e-06
2.4633723e-06
3.5223709e-06
4.9771167e-06
6.9375945e-06
9.5182632e-06
1.2818509e-05
1.6894993e-05
2.1719396e-05
2.7139871e-05
3.2871951e-05
3.8479076e-05
4.3483242e-05
4.7075912e-05
4.8506132e-05
4.7088913e-05
4.5047783e-05
4.4547223e-05
4.6870791e-05
5.2789187e-05
5.940273e-05
7.3256627e-05
9.1283014e-05
0.00012635698
0.00014887492
0.00015423452
0.00015564039
0.00015489571
0.00015165389
0.00014290458
0.00013716163
0.00013364445
0.00012985171
0.00012595441
0.00012199956
0.00011928378
0.00011615809
0.00011301961
0.00011042944
0.00010842761
0.00010631115
0.00010466482
0.00010418442
0.00010383936
3.7379604e-14
1.1745957e-12
9.6050451e-12
4.130797e-11
1.2711998e-10
3.2079614e-10
7.1141028e-10
1.4418868e-09
2.7363458e-09
4.9401179e-09
8.5778807e-09
1.4437553e-08
2.3690507e-08
3.8062491e-08
6.0074467e-08
9.3378221e-08
1.4321749e-07
2.1704976e-07
3.2536343e-07
4.8271251e-07
7.0895482e-07
1.0305992e-06
1.4820133e-06
2.1059827e-06
2.9527656e-06
4.0762603e-06
5.525561e-06
7.3304765e-06
9.4818675e-06
1.190632e-05
1.4453727e-05
1.6896118e-05
1.8946252e-05
2.0288673e-05
2.0807917e-05
2.1128607e-05
2.2328022e-05
2.5025941e-05
2.8551397e-05
3.6471911e-05
4.8506362e-05
6.7163656e-05
9.2355426e-05
0.00013247932
0.00015112596
0.00015711949
0.00015752261
0.00015645222
0.00015256764
0.00014326052
0.00013795393
0.00013446041
0.00013050454
0.00012632502
0.00012297883
0.00012000721
0.00011690252
0.00011365541
0.00011150841
0.00010898754
0.00010648044
0.00010450443
0.0001030931
0.00010276741
0.0001024528
1.9289973e-14
6.0615616e-13
4.9566858e-12
2.1316483e-11
6.559589e-11
1.6552428e-10
3.6703554e-10
7.4380039e-10
1.4112716e-09
2.5471966e-09
4.4213451e-09
7.4382668e-09
1.2198301e-08
1.9583848e-08
3.088007e-08
4.794154e-08
7.341844e-08
1.1105663e-07
1.6608314e-07
2.4567857e-07
3.595139e-07
5.2028185e-07
7.4406792e-07
1.0502706e-06
1.4606134e-06
1.9966399e-06
2.6749904e-06
3.5001526e-06
4.4559199e-06
5.4979833e-06
6.5539264e-06
7.5390855e-06
8.4068043e-06
9.3790706e-06
1.0841246e-05
1.2697801e-05
1.6101269e-05
2.1742019e-05
3.1165302e-05
4.6395578e-05
6.8070533e-05
9.5646975e-05
0.00013216583
0.00015224623
0.00015922512
0.00015979823
0.00015837328
0.00015372764
0.00014438575
0.00013925227
0.00013531047
0.00013089965
0.0001272221
0.00012386882
0.00012090622
0.00011739675
0.00011466014
0.00011218303
0.00010961343
0.00010702435
0.0001053222
0.00010363017
0.00010232848
0.00010200815
0.00010176073
8.9756416e-15
2.8204447e-13
2.3063247e-12
9.918238e-12
3.0519447e-11
7.7007225e-11
1.707393e-10
3.4595513e-10
6.5628131e-10
1.1842151e-09
2.0548359e-09
3.4554673e-09
5.6636222e-09
9.0863258e-09
1.4314784e-08
2.2199262e-08
3.3949679e-08
5.1267312e-08
7.6511095e-08
1.1289675e-07
1.6471581e-07
2.3754118e-07
3.3835372e-07
4.7548252e-07
6.5820443e-07
8.9589477e-07
1.1966844e-06
1.5660821e-06
2.0070108e-06
2.5241439e-06
3.1379723e-06
3.8702892e-06
4.9126936e-06
6.5509643e-06
9.115378e-06
1.3167541e-05
1.9902204e-05
3.0902717e-05
4.7056682e-05
6.8734539e-05
9.5642627e-05
0.00012907997
0.00015195584
0.00016122849
0.00016231687
0.00016062839
0.00015527446
0.00014601047
0.00014079224
0.00013611904
0.00013160082
0.00012822213
0.00012495581
0.00012141393
0.00011826099
0.00011544247
0.00011308718
0.00011023159
0.00010822066
0.00010608664
0.00010405122
0.00010218193
0.00010113315
0.00010086678
0.00010041351
4.6469576e-15
1.4602273e-13
1.1940468e-12
5.1348732e-12
1.5800132e-11
3.9865599e-11
8.8384651e-11
1.790745e-10
3.3967949e-10
6.1287385e-10
1.0633514e-09
1.7879976e-09
2.9303653e-09
4.7010904e-09
7.4063917e-09
1.1487379e-08
1.7573493e-08
2.6553871e-08
3.9670647e-08
5.8637729e-08
8.5787555e-08
1.2424684e-07
1.78143e-07
2.5285214e-07
3.5533555e-07
4.947059e-07
6.8332766e-07
9.3906897e-07
1.2910906e-06
1.7900816e-06
2.5272697e-06
3.6527374e-06
5.4409898e-06
8.3459205e-06
1.3007602e-05
2.0338319e-05
3.1527275e-05
4.7332848e-05
6.8439171e-05
9.5172924e-05
0.00012736206
0.00015344575
0.00016366891
0.00016510848
0.00016333501
0.00015765323
0.00014810523
0.00014266031
0.00013736869
0.00013276595
0.0001294546
0.00012588019
0.0001223864
0.00011918772
0.00011663117
0.00011376988
0.00011121812
0.00010888243
0.00010678559
0.00010447193
0.00010285322
0.00010147141