/*--------------------------------*- C++ -*----------------------------------*\
  =========                 |
  \\      /  F ield         | OpenFOAM: The Open Source CFD Toolbox
   \\    /   O peration     | Website:  https://openfoam.org
    \\  /    A nd           | Version:  13
     \\/     M anipulation  |
\*---------------------------------------------------------------------------*/
FoamFile
{
    format      ascii;
    class       volVectorField;
    location    "31.103044";
    object      U;
}
// * * * * * * * * * * * * * * * * * * * * * * * * * * * * * * * * * * * * * //

dimensions      [0 1 -1 0 0 0 0];

internalField   nonuniform List<vector> 
17140
(
(3.8043409e-07 -3.4652203e-05 2.5313209e-23)
(-3.030192e-07 -0.00010896856 2.8037403e-24)
(-3.2541883e-06 -0.00019190105 -1.8503349e-22)
(-9.2017893e-06 -0.00028295867 2.0334475e-22)
(-1.9136381e-05 -0.00038150301 -2.3761727e-23)
(-3.4207326e-05 -0.00048676496 7.7735032e-23)
(-5.5919533e-05 -0.00059783315 1.3079477e-22)
(-8.6113297e-05 -0.00071365906 -6.3786831e-23)
(-0.00012706337 -0.00083306703 -2.0862255e-22)
(-0.00018155658 -0.00095477681 -5.1113114e-22)
(-0.00025300132 -0.0010774388 7.5678067e-22)
(-0.00034554203 -0.0011996867 -6.7323217e-22)
(-0.00046419596 -0.0013202099 -1.0286089e-22)
(-0.00061500434 -0.0014378505 5.7987903e-22)
(-0.00080520074 -0.0015517261 -6.4181555e-23)
(-0.0010433921 -0.0016613818 5.0636339e-22)
(-0.0013397481 -0.0017669707 -1.8704642e-23)
(-0.0017061903 -0.0018694588 4.2298046e-24)
(-0.0021565685 -0.001970848 2.9417099e-22)
(-0.0027068043 -0.0020744001 -3.7789945e-22)
(-0.0033749784 -0.0021848393 1.8018421e-22)
(-0.004181324 -0.0023084975 -3.3882697e-23)
(-0.0051480825 -0.0024533567 -2.4611327e-22)
(-0.0062991633 -0.0026289272 2.4155609e-22)
(-0.0076595386 -0.0028458968 3.7708756e-22)
(-0.0092542926 -0.0031154815 -2.9671682e-22)
(-0.011107244 -0.00344842 -1.427648e-21)
(-0.013239076 -0.00385359 -1.6469935e-22)
(-0.015664971 -0.0043362896 1.4095345e-21)
(-0.018391901 -0.0048963824 3.2177341e-22)
(-0.021416037 -0.00552679 1.1157622e-21)
(-0.024721164 -0.0062132754 -1.4200967e-21)
(-0.028279364 -0.0069367268 3.567764e-22)
(-0.032054876 -0.0076782836 1.6279718e-22)
(-0.036010351 -0.0084252955 1.5205847e-21)
(-0.040112409 -0.0091747166 -6.3104748e-22)
(-0.044333734 -0.00993264 9.0597089e-22)
(-0.048652057 -0.010712009 5.8555351e-22)
(-0.053048326 -0.011531126 2.5767508e-22)
(-0.05750578 -0.012413646 -7.5637835e-22)
(-0.062010411 -0.013390053 -1.3979728e-21)
(-0.066552504 -0.014500161 -1.2522307e-21)
(-0.071129431 -0.015796335 -5.4356595e-22)
(-0.075747974 -0.017347115 2.6504884e-21)
(-0.080428829 -0.019241351 1.9502272e-21)
(-0.085212008 -0.021592174 -4.8319002e-22)
(-0.090149455 -0.024535601 3.3267527e-21)
(-0.095306479 -0.028233207 1.1425501e-21)
(-0.100756 -0.032877437 -1.1769834e-21)
(-0.10657166 -0.038684422 -2.9118535e-21)
(-0.11279784 -0.045880566 1.8072791e-21)
(-0.11946595 -0.054671818 1.1484168e-21)
(-0.12650915 -0.065156523 -3.0076808e-21)
(-0.13389693 -0.077169823 -1.4250083e-21)
(-0.14136133 -0.089951449 -1.0143928e-21)
(-0.14889714 -0.1017404 7.95749e-22)
(-0.15589038 -0.10895899 -2.1253904e-21)
(-0.16264083 -0.1066161 -1.7651539e-21)
(-0.16686402 -0.08486224 -4.3536199e-22)
(-0.16863894 -0.033869372 1.0977564e-21)
(-0.15550098 0.055551721 8.084774e-22)
(-0.11750119 0.17465982 2.4768169e-21)
(-0.041901264 0.2742478 2.6746023e-22)
(0.023381096 0.30590809 -2.0382958e-21)
(0.098486087 0.2381134 1.3374064e-21)
(3.6591864e-08 -2.5880178e-06 -7.2227343e-24)
(-1.4209732e-06 -9.6699228e-06 9.7275185e-22)
(-5.1836345e-06 -1.8349356e-05 -8.6542764e-22)
(-1.2072729e-05 -2.7470747e-05 2.3583419e-22)
(-2.3146727e-05 -3.5741562e-05 4.8702229e-22)
(-3.9603801e-05 -4.1676946e-05 -9.3016641e-22)
(-6.3021654e-05 -4.3626099e-05 9.6897278e-22)
(-9.5323634e-05 -3.9778399e-05 -8.5212156e-23)
(-0.00013887239 -2.8187125e-05 2.6578608e-22)
(-0.00019655095 -6.8061135e-06 4.5091701e-24)
(-0.00027187009 2.6454617e-05 8.8499729e-22)
(-0.00036908147 7.3650867e-05 -1.4034265e-21)
(-0.00049331181 0.00013669908 -1.1564198e-22)
(-0.00065071052 0.00021723912 1.1379304e-21)
(-0.00084861348 0.00031646129 -3.480302e-22)
(-0.0010957181 0.00043489415 -2.1995172e-22)
(-0.0014022657 0.00057215222 1.3869727e-21)
(-0.0017802215 0.00072664608 -4.4829875e-21)
(-0.0022434414 0.0008952628 2.7805522e-21)
(-0.0028078048 0.0010730312 -3.2949924e-21)
(-0.0034912906 0.0012527979 4.8046034e-21)
(-0.0043139602 0.0014249499 -1.1608756e-21)
(-0.0052978052 0.0015772374 -4.702812e-22)
(-0.0064664026 0.0016947585 1.5117896e-21)
(-0.0078443121 0.0017601886 -5.3337814e-21)
(-0.0094561373 0.0017543399 -7.8146436e-22)
(-0.011325172 0.00165715 3.962041e-21)
(-0.013471571 0.0014492009 -4.3536808e-21)
(-0.015910053 0.0011138771 5.8518004e-22)
(-0.018647283 0.00064022409 5.604864e-21)
(-0.021679412 2.6336544e-05 -5.6410764e-22)
(-0.024990633 -0.00071761333 -4.2100428e-21)
(-0.028553946 -0.0015688161 -1.0493189e-22)
(-0.032334964 -0.0024962171 2.901777e-21)
(-0.03629794 -0.0034695076 -3.0845858e-21)
(-0.040411021 -0.0044677934 1.3221789e-21)
(-0.044648146 -0.0054831299 -1.4759487e-21)
(-0.048988149 -0.0065191577 -4.4959335e-21)
(-0.053413069 -0.0075882455 -9.723613e-22)
(-0.057907359 -0.008709873 -3.6919844e-21)
(-0.062458573 -0.0099108208 4.6275501e-21)
(-0.06705912 -0.011226901 4.2190417e-21)
(-0.071709264 -0.012705823 7.2001302e-22)
(-0.07641976 -0.014410765 -5.7697013e-21)
(-0.081216775 -0.016424282 2.7622992e-21)
(-0.086147346 -0.018854509 9.6791452e-22)
(-0.091271933 -0.021835954 -5.1247399e-22)
(-0.096666344 -0.025530229 -1.6526532e-21)
(-0.10241528 -0.030133312 8.1568012e-22)
(-0.10860382 -0.035871166 -1.5136032e-21)
(-0.11528512 -0.042985948 -9.1285389e-21)
(-0.12248966 -0.051705443 -4.3304965e-22)
(-0.13013065 -0.062153516 1.975449e-21)
(-0.13811442 -0.074195347 -4.4233389e-21)
(-0.14605162 -0.087098739 3.7598682e-21)
(-0.1537339 -0.099128652 -1.0577653e-20)
(-0.16033376 -0.10671509 -2.9262312e-21)
(-0.16598809 -0.10517096 8.1785595e-21)
(-0.16827132 -0.084618062 -1.3334255e-21)
(-0.1668559 -0.03631423 -1.5441194e-21)
(-0.15157189 0.047264313 -2.7534109e-22)
(-0.11527821 0.15739872 2.657235e-21)
(-0.043350813 0.25256853 -4.435219e-21)
(0.024018695 0.28460976 -1.3835328e-21)
(0.11298718 0.21296733 -1.8679556e-21)
(-2.1600149e-06 3.0157211e-05 -3.9870447e-22)
(-8.1672005e-06 9.1755949e-05 2.9463164e-22)
(-1.6894076e-05 0.00015892394 7.8343317e-23)
(-2.9336585e-05 0.0002334448 -7.4252544e-23)
(-4.653565e-05 0.00031732198 3.597289e-22)
(-6.9828059e-05 0.00041275973 2.6757106e-23)
(-0.0001008835 0.00052215927 3.4144193e-22)
(-0.00014172634 0.00064810191 3.6763e-22)
(-0.00019482535 0.00079331407 -3.0012669e-21)
(-0.00026317241 0.00096061533 2.6765114e-21)
(-0.00035038443 0.0011528426 -1.2789152e-21)
(-0.00046081353 0.0013727464 -1.8706009e-21)
(-0.00059967489 0.0016228526 3.7005102e-21)
(-0.00077318786 0.0019052848 4.5689153e-22)
(-0.00098873068 0.0022215405 -1.7569004e-21)
(-0.0012550054 0.0025722192 -1.2023616e-21)
(-0.0015822078 0.0029566972 1.3863022e-21)
(-0.0019821941 0.0033727531 -4.9838143e-21)
(-0.0024686324 0.0038161506 2.9205224e-21)
(-0.0030571209 0.004280193 -1.4305963e-21)
(-0.0037652484 0.0047552765 4.7678575e-21)
(-0.0046125656 0.0052284816 1.2239089e-21)
(-0.0056204246 0.0056832565 -2.516981e-21)
(-0.0068116342 0.0060992665 3.729443e-21)
(-0.0082098666 0.0064524976 1.4455313e-21)
(-0.0098387443 0.0067157236 -1.7044054e-21)
(-0.011720532 0.0068594744 -9.51037e-21)
(-0.01387438 0.0068536856 -4.227731e-21)
(-0.016314136 0.0066702916 2.0662049e-21)
(-0.019045892 0.0062870851 -2.1706255e-21)
(-0.022065726 0.0056929943 1.3202491e-21)
(-0.025358479 0.0048939555 7.2916542e-21)
(-0.028898638 0.0039163843 -2.3635468e-21)
(-0.032653974 0.0028036034 -6.7833168e-21)
(-0.036591039 0.0016038453 2.1531808e-21)
(-0.040679984 0.00035617361 2.8900772e-21)
(-0.044896359 -0.00091713932 -4.7915469e-21)
(-0.049220075 -0.0022101089 -1.4129835e-21)
(-0.053633923 -0.0035289169 2.4138347e-21)
(-0.058123172 -0.0048885911 9.3996104e-22)
(-0.062676405 -0.0063118747 -4.4817528e-21)
(-0.067287448 -0.0078300866 1.2672958e-21)
(-0.071958488 -0.009485792 1.827355e-21)
(-0.076703046 -0.011336135 4.9241382e-21)
(-0.081551255 -0.013456658 -9.4958487e-21)
(-0.08655469 -0.015949912 6.2650695e-21)
(-0.091779128 -0.018948445 1.619519e-21)
(-0.097306863 -0.022613556 6.4838863e-21)
(-0.1032286 -0.027145197 7.9027468e-21)
(-0.10963284 -0.032780642 4.020867e-22)
(-0.1165701 -0.039781306 -1.7886831e-21)
(-0.12405419 -0.048403844 1.3005872e-20)
(-0.13195532 -0.058810938 5.5649608e-21)
(-0.14008389 -0.070918834 5.7152701e-21)
(-0.14787826 -0.084050736 1.8696583e-21)
(-0.15485354 -0.09651831 1.4268644e-20)
(-0.15982472 -0.10473642 -5.4169209e-21)
(-0.16285893 -0.10413338 1.4058962e-21)
(-0.1613107 -0.08521191 1.2366847e-20)
(-0.15467669 -0.040109204 4.5821423e-21)
(-0.13478605 0.037932194 -4.6700925e-21)
(-0.096184931 0.14024291 -1.4277805e-20)
(-0.024037781 0.23102197 3.803807e-21)
(0.048465516 0.26151077 6.219856e-21)
(0.16057608 0.18233203 2.7641336e-21)
(-6.2311827e-06 6.3055795e-05 1.3384495e-21)
(-2.0728728e-05 0.00019365503 -2.1294749e-21)
(-3.8763496e-05 0.00033704755 7.6980297e-22)
(-6.1466114e-05 0.00049565431 -8.3655962e-23)
(-8.9967309e-05 0.00067216772 1.653487e-21)
(-0.00012573362 0.00086951137 -1.7100142e-21)
(-0.0001705527 0.0010908357 2.5927689e-21)
(-0.00022657662 0.0013394914 -1.2189241e-21)
(-0.00029639689 0.001618984 -4.6312067e-21)
(-0.00038312558 0.0019329068 1.1122967e-21)
(-0.00049048836 0.002284845 4.2317487e-21)
(-0.0006229293 0.0026782471 -1.2897353e-21)
(-0.00078572927 0.0031162539 -8.5895975e-23)
(-0.00098513668 0.0036014814 3.3606986e-21)
(-0.0012285094 0.0041357477 -1.0480923e-20)
(-0.0015244644 0.0047197413 6.4095041e-21)
(-0.0018830313 0.005352625 6.0834257e-23)
(-0.0023157996 0.0060315781 -3.5086278e-21)
(-0.0028360507 0.006751282 8.849937e-21)
(-0.0034588559 0.0075033653 -4.143519e-21)
(-0.0042011192 0.0082758348 -6.1245384e-21)
(-0.0050815335 0.0090525341 -2.4565182e-21)
(-0.0061204133 0.0098126877 1.2012175e-20)
(-0.0073393521 0.010530611 6.2063815e-21)
(-0.0087606481 0.011175682 -3.9581738e-21)
(-0.010406429 0.011712712 2.2833412e-21)
(-0.01229741 0.012102879 -8.4420148e-21)
(-0.014451244 0.012305491 2.3947854e-21)
(-0.01688048 0.012280989 -6.3623021e-21)
(-0.019590342 0.011995757 3.5397537e-21)
(-0.022576752 0.011429245 -2.1541873e-21)
(-0.025825415 0.010582659 7.7024199e-21)
(-0.029312835 0.00948543 -1.0729132e-21)
(-0.033009688 0.0081927039 5.479758e-21)
(-0.036885651 0.0067705581 -5.0326986e-21)
(-0.040913468 0.0052764814 -1.5527457e-21)
(-0.045070396 0.0037475037 1.8445871e-20)
(-0.049337348 0.0021997119 4.6439607e-21)
(-0.053697693 0.00063346823 -3.7313294e-21)
(-0.058137079 -0.00096146332 3.5897584e-21)
(-0.062644448 -0.0026034064 -9.2238122e-22)
(-0.067214281 -0.0043188044 -5.6835794e-21)
(-0.071849663 -0.0061445131 2.6057094e-22)
(-0.076565503 -0.0081309987 1.9428921e-21)
(-0.081394231 -0.010346201 -9.6983372e-22)
(-0.086389168 -0.012886447 5.117731e-22)
(-0.091618005 -0.015881874 1.4603175e-21)
(-0.097165116 -0.019493239 -2.2613462e-20)
(-0.10312098 -0.023925053 2.5972829e-21)
(-0.10956907 -0.029427648 -2.4188533e-21)
(-0.11654553 -0.036285711 2.3014048e-20)
(-0.12403178 -0.044792709 -1.2667468e-20)
(-0.13183213 -0.055165192 -1.050103e-20)
(-0.13962889 -0.067394733 -9.9835956e-21)
(-0.14663763 -0.080892511 -9.4944087e-21)
(-0.15202913 -0.094054219 -1.4561566e-20)
(-0.15419676 -0.1032174 2.8172282e-20)
(-0.15286517 -0.10400332 -1.6468382e-20)
(-0.14581211 -0.087128153 -2.3216571e-20)
(-0.13216309 -0.045020727 1.4427367e-20)
(-0.10542797 0.027933371 4.4626629e-21)
(-0.06046908 0.12284488 3.9817125e-21)
(0.016955758 0.20930083 -1.2596713e-20)
(0.10060349 0.23564152 -1.1238554e-20)
(0.25023016 0.14615982 9.3813278e-22)
(-1.220665e-05 9.5547133e-05 -9.450211e-22)
(-3.9135605e-05 0.00029431256 3.1373431e-21)
(-7.0831708e-05 0.00051301113 -2.5573071e-21)
(-0.00010853908 0.00075470269 9.6623422e-22)
(-0.00015353599 0.0010227571 3.4900595e-22)
(-0.00020743301 0.0013208085 -3.002238e-21)
(-0.00027216457 0.0016527467 7.6000757e-22)
(-0.00035002901 0.0020226832 1.6132439e-21)
(-0.00044375904 0.0024348954 1.2367457e-22)
(-0.00055659654 0.002893745 1.0502141e-21)
(-0.00069237814 0.0034035637 -1.4694289e-21)
(-0.00085563033 0.0039685003 1.0201284e-21)
(-0.0010516761 0.0045923193 3.7542861e-21)
(-0.0012867516 0.0052781456 1.0920792e-22)
(-0.0015681308 0.006028145 -2.8577716e-21)
(-0.0019042564 0.0068431345 -2.0187843e-21)
(-0.0023048704 0.0077221194 1.7315549e-21)
(-0.0027811389 0.0086617537 -1.6494795e-22)
(-0.003345758 0.0096557324 -3.3436882e-21)
(-0.0040130281 0.01069413 -4.0503667e-21)
(-0.0047988739 0.011762709 4.5891643e-21)
(-0.005720785 0.012842249 4.5785936e-21)
(-0.00679764 0.013907948 -6.1016158e-21)
(-0.0080493707 0.014928992 7.4732207e-21)
(-0.0094964125 0.015868384 1.2807715e-20)
(-0.011158881 0.016683206 -2.9806341e-20)
(-0.013055417 0.017325497 1.6193757e-20)
(-0.015201664 0.017744104 -2.3669442e-20)
(-0.017608433 0.017888022 2.912207e-20)
(-0.020279748 0.017712093 -3.1956127e-20)
(-0.023211245 0.017185834 3.2375897e-20)
(-0.026389638 0.016304882 -5.3095702e-21)
(-0.029793915 0.015100561 -1.7810521e-20)
(-0.033398371 0.013638802 9.6849852e-21)
(-0.037176555 0.012003037 -2.9039959e-21)
(-0.041104381 0.010269401 -8.0314378e-22)
(-0.0451611 0.0084902814 -9.5778063e-21)
(-0.049328572 0.006692413 -3.0075885e-21)
(-0.05359044 0.0048832119 -2.962106e-21)
(-0.057932242 0.0030576437 -2.839809e-21)
(-0.062342652 0.0012021918 1.4303428e-20)
(-0.066815874 -0.00070432625 -6.253159e-21)
(-0.071354652 -0.0026924897 -1.0046922e-21)
(-0.075973863 -0.0048054502 1.1639185e-20)
(-0.08070626 -0.0071029909 5.977725e-21)
(-0.085603771 -0.0096748701 -2.9634522e-21)
(-0.09073234 -0.012648025 -1.1052153e-20)
(-0.096173363 -0.01618253 4.8429217e-21)
(-0.1020101 -0.020488133 -1.4531009e-20)
(-0.10831163 -0.025830237 -8.0142704e-21)
(-0.11508683 -0.032520904 -1.1126155e-20)
(-0.12226769 -0.04089898 -3.0288566e-20)
(-0.12956779 -0.051251318 2.3419425e-20)
(-0.13650629 -0.063671736 -7.694789e-21)
(-0.14202557 -0.077694267 1.2886634e-20)
(-0.14493109 -0.091833252 1.1980346e-20)
(-0.14319963 -0.10237688 4.2263787e-21)
(-0.1356744 -0.10477898 3.7421371e-20)
(-0.12114203 -0.090198631 9.3954673e-21)
(-0.098180571 -0.051389994 -1.9025919e-20)
(-0.060663898 0.016707411 -5.3677972e-21)
(-0.0061139306 0.10495809 4.1212525e-21)
(0.079898526 0.18695483 6.8821237e-21)
(0.18353398 0.20551879 1.2878079e-20)
(0.37699222 0.10591307 -1.1690967e-21)
(-2.0021784e-05 0.00012701929 -2.8880462e-21)
(-6.3219207e-05 0.00039183958 -1.0193429e-21)
(-0.00011279063 0.00068353451 8.2508915e-22)
(-0.00017011527 0.0010057838 3.0464543e-21)
(-0.00023664744 0.0013626135 -1.6688564e-21)
(-0.00031416688 0.0017583479 2.4013376e-21)
(-0.00040477802 0.0021975963 -1.0386896e-21)
(-0.00051094577 0.0026852127 -2.4731728e-22)
(-0.00063555988 0.0032262303 1.3990732e-21)
(-0.00078200182 0.003825767 3.0135797e-21)
(-0.00095422059 0.0044888943 1.5145383e-22)
(-0.0011568158 0.0052204623 -4.946779e-21)
(-0.0013951297 0.0060248707 6.8373555e-21)
(-0.0016753459 0.0069057777 -1.1026745e-20)
(-0.0020045937 0.0078657379 2.8774615e-21)
(-0.0023910548 0.00890576 -6.1041687e-21)
(-0.0028440681 0.010024779 7.3632513e-21)
(-0.0033742248 0.011219042 -4.7701694e-21)
(-0.0039934456 0.012481411 7.5066143e-22)
(-0.0047150248 0.013800597 3.0349426e-21)
(-0.0055536254 0.015160357 -7.3462863e-21)
(-0.0065251998 0.016538685 1.0315106e-20)
(-0.0076468056 0.017907076 -1.11523e-20)
(-0.0089362783 0.019229944 -1.9079592e-21)
(-0.010411713 0.020464311 1.8562581e-20)
(-0.012090702 0.021559929 -1.8623938e-20)
(-0.013989284 0.022460086 1.2003251e-20)
(-0.016120581 0.02310348 -1.3356127e-20)
(-0.018493191 0.023427842 -1.2728121e-21)
(-0.021109565 0.023376364 -7.840001e-22)
(-0.023964844 0.022908076 5.0933974e-21)
(-0.027046788 0.022011881 -3.4378272e-22)
(-0.030337216 0.020719318 1.8335474e-20)
(-0.033814672 0.019105442 -4.7905401e-21)
(-0.03745731 0.017270091 -1.3853049e-20)
(-0.041244812 0.015308078 6.1930704e-21)
(-0.045158733 0.013287815 -4.8832136e-21)
(-0.049181872 0.01124748 4.7629177e-21)
(-0.05329783 0.0092021784 2.564751e-20)
(-0.057491498 0.0071525487 -1.3890452e-20)
(-0.061750515 0.0050902675 -3.3607938e-21)
(-0.066067806 0.0029998696 1.90199e-20)
(-0.070444411 0.00085750325 -1.0712575e-21)
(-0.074893505 -0.001371981 -2.3254666e-21)
(-0.079446001 -0.003739808 -2.5911938e-20)
(-0.084148756 -0.0063288583 -6.0668612e-21)
(-0.0890616 -0.0092618821 9.7347257e-21)
(-0.09425717 -0.012698214 1.0081346e-20)
(-0.099803231 -0.016853615 1.4570389e-20)
(-0.1057432 -0.022010428 1.8283782e-20)
(-0.11204311 -0.028512207 1.1290886e-20)
(-0.11856486 -0.036752008 1.7512324e-20)
(-0.12490044 -0.047104121 -5.9075233e-21)
(-0.13036555 -0.059792453 3.7044326e-20)
(-0.13358176 -0.074500348 2.5164342e-21)
(-0.1329571 -0.089865213 1.9422899e-21)
(-0.12594982 -0.10230486 8.8147603e-22)
(-0.11077487 -0.10680809 -4.0477962e-20)
(-0.086196264 -0.094755218 -1.338714e-20)
(-0.050941094 -0.059529428 1.7603938e-20)
(0.0015161661 0.0044766816 2.0242437e-20)
(0.066070619 0.086785054 7.8014002e-21)
(0.16393262 0.1630792 2.4436295e-21)
(0.29580492 0.17136395 -1.9172223e-20)
(0.52425126 0.065030537 5.6427729e-21)
(-2.9549649e-05 0.00015684504 5.4729023e-22)
(-9.2589955e-05 0.00048429632 1.7393207e-21)
(-0.00016396322 0.00084523352 -4.1977738e-21)
(-0.00024520406 0.0012439274 1.559772e-22)
(-0.00033796884 0.001685028 2.0434489e-21)
(-0.00044422967 0.0021735187 9.0061642e-22)
(-0.0005662823 0.0027146977 6.6491934e-22)
(-0.00070677685 0.0033141328 -1.3100134e-21)
(-0.00086877479 0.0039775881 6.7803776e-21)
(-0.0010558062 0.0047109179 -5.1147814e-21)
(-0.0012719339 0.0055199214 2.4747062e-22)
(-0.0015218224 0.0064101485 3.0934122e-21)
(-0.0018108124 0.0073866463 -1.1566314e-20)
(-0.0021449987 0.0084536381 1.1520213e-20)
(-0.0025313104 0.0096141217 -1.5327714e-21)
(-0.0029775904 0.010869381 -9.4773225e-21)
(-0.0034926683 0.012218399 8.8994643e-21)
(-0.0040864232 0.013657177 -3.1039531e-21)
(-0.004769826 0.015177955 6.0186808e-21)
(-0.0055549501 0.016768345 -7.7027258e-21)
(-0.0064549362 0.01841042 -1.4412845e-20)
(-0.0074838909 0.020079776 1.4204224e-20)
(-0.0086566922 0.021744658 2.0703431e-20)
(-0.0099886717 0.023365216 -3.9676741e-20)
(-0.01149513 0.024893041 3.1576213e-20)
(-0.013190647 0.026271135 -1.8173119e-20)
(-0.015088143 0.027434601 4.6357236e-21)
(-0.017197697 0.028312483 -1.084794e-20)
(-0.019525197 0.028831566 1.0959559e-20)
(-0.022071092 0.028923363 1.4596179e-20)
(-0.024829714 0.028535795 -9.5322412e-21)
(-0.027789753 0.027649583 -1.5521977e-20)
(-0.030936024 0.026294264 1.3162274e-21)
(-0.034251797 0.024551663 5.2190327e-22)
(-0.037720508 0.022536512 9.071013e-21)
(-0.041326236 0.020362097 -3.7958907e-21)
(-0.045053214 0.01811357 -1.3317936e-20)
(-0.048885192 0.015841522 -6.4810162e-21)
(-0.052805424 0.01356954 9.6407352e-21)
(-0.056797564 0.011304506 -7.4323154e-21)
(-0.060847358 0.0090437116 6.2708606e-21)
(-0.064945308 0.0067777791 -2.0228512e-21)
(-0.069089195 0.0044900851 -7.9487746e-21)
(-0.073288583 0.0021541544 1.9357651e-20)
(-0.077569816 -0.00027248528 1.1594977e-20)
(-0.081970529 -0.0028653999 7.7534259e-21)
(-0.086539298 -0.0057421993 -2.4885888e-20)
(-0.091332822 -0.0090614315 -1.6445077e-20)
(-0.096392843 -0.013045606 -1.9574288e-20)
(-0.1017224 -0.017995777 -3.4634672e-20)
(-0.107224 -0.024290812 1.2186083e-20)
(-0.11266065 -0.032386474 -2.5969188e-21)
(-0.11746037 -0.042760458 -2.030703e-20)
(-0.12068675 -0.055792827 -5.8941702e-20)
(-0.12058661 -0.071344035 -3.786982e-20)
(-0.11507275 -0.088216603 -1.4277201e-20)
(-0.10099095 -0.10286326 -3.8833283e-20)
(-0.076506977 -0.11002278 2.4344312e-20)
(-0.03975704 -0.10097437 -1.4609755e-21)
(0.0098424207 -0.069538548 -2.7817905e-20)
(0.075829694 -0.0089986109 -1.538998e-20)
(0.1529213 0.068347504 -8.9423264e-22)
(0.2680253 0.13721471 1.8466891e-20)
(0.4301338 0.134886 -2.9474582e-21)
(0.68137414 0.026269085 5.1138177e-21)
(-4.0589944e-05 0.00018439731 2.1687007e-21)
(-0.00012663235 0.00056974508 -1.4629234e-21)
(-0.0002232795 0.00099472774 1.9760261e-21)
(-0.00033223957 0.0014641677 1.123042e-21)
(-0.00045539357 0.0019832953 -3.133509e-21)
(-0.00059492624 0.0025577102 -2.9248916e-21)
(-0.00075334337 0.003193358 3.0007746e-21)
(-0.00093349677 0.003896481 -3.611462e-22)
(-0.0011386327 0.0046735385 -8.3623386e-23)
(-0.001372438 0.0055310929 -5.9396879e-21)
(-0.0016390914 0.006475652 6.5071397e-22)
(-0.001943316 0.0075134598 1.1968195e-20)
(-0.0022904338 0.0086502235 -9.5647118e-21)
(-0.0026864208 0.0098907662 3.2912965e-22)
(-0.0031379599 0.011238594 6.4021236e-21)
(-0.0036524885 0.012695368 5.5021745e-22)
(-0.0042382379 0.014260266 -1.3982277e-21)
(-0.0049042582 0.015929244 -6.2917471e-21)
(-0.0056604215 0.017694177 1.1506201e-20)
(-0.006517395 0.019541914 -2.0187029e-20)
(-0.0074865714 0.021453252 4.339728e-21)
(-0.0085799412 0.023401883 -3.1800466e-21)
(-0.0098098858 0.02535337 2.5987897e-21)
(-0.011188866 0.027264255 -1.1275814e-22)
(-0.012728976 0.029081416 1.5280073e-20)
(-0.014441324 0.030741865 1.5141105e-20)
(-0.01633522 0.032173275 -2.9793381e-20)
(-0.018417183 0.03329573 -4.9284046e-21)
(-0.020689874 0.034025558 1.6995709e-20)
(-0.023151236 0.034282687 5.9652541e-21)
(-0.025794357 0.034003311 1.3409724e-20)
(-0.028608545 0.033158321 -1.4844652e-20)
(-0.031581534 0.031772546 -6.3628829e-21)
(-0.034701578 0.029931506 1.4324785e-20)
(-0.037957959 0.027762618 -5.8005305e-21)
(-0.041339795 0.025397061 -2.74763e-21)
(-0.044834431 0.022937435 7.5075058e-21)
(-0.048426652 0.020447867 1.9123222e-20)
(-0.05209906 0.017961397 5.7040253e-21)
(-0.055833431 0.015491815 -3.7074011e-21)
(-0.059612661 0.01304249 -8.686854e-21)
(-0.063423493 0.010610479 -8.9961215e-21)
(-0.067258674 0.0081868438 -1.0013265e-20)
(-0.071121899 0.0057544478 -2.1179118e-20)
(-0.07503138 0.0032796975 5.8894137e-22)
(-0.079010813 0.00069452888 -9.1463962e-21)
(-0.083091096 -0.0021123084 5.1336505e-20)
(-0.08730358 -0.0052986904 1.4433161e-20)
(-0.091650024 -0.009094681 1.6801773e-20)
(-0.096072751 -0.013821646 4.7280722e-20)
(-0.10038035 -0.019896991 -5.6114142e-20)
(-0.10419198 -0.027846176 1.2609304e-20)
(-0.10671284 -0.038262616 4.0526366e-20)
(-0.10669054 -0.051703666 4.8950621e-20)
(-0.10190468 -0.068233803 5.9096305e-21)
(-0.089648194 -0.086837607 -1.4776695e-20)
(-0.066152917 -0.1038954 -2.1600351e-20)
(-0.029752573 -0.11393535 8.1848537e-21)
(0.02121562 -0.10807663 -1.104569e-20)
(0.085486613 -0.080097924 8.2573446e-21)
(0.16384854 -0.023060994 1.7835715e-21)
(0.25705731 0.049292461 4.5079415e-21)
(0.39152276 0.10988773 -2.3133909e-20)
(0.58105113 0.097834171 -1.3647185e-21)
(0.84457837 -0.0069581182 -1.7027164e-20)
(-5.2867452e-05 0.00020907308 -2.044784e-21)
(-0.00016450797 0.00064631962 -5.4777463e-22)
(-0.00028927778 0.001128761 6.0176031e-22)
(-0.00042908292 0.0016617187 2.9572747e-21)
(-0.00058604378 0.0022509494 -3.5458264e-21)
(-0.00076257437 0.0029026147 3.0100066e-21)
(-0.00096140597 0.0036232539 1.4380852e-21)
(-0.0011856057 0.0044197332 -7.7000327e-23)
(-0.0014386154 0.0052991611 -1.2125489e-21)
(-0.0017242864 0.0062687693 -6.8907809e-21)
(-0.0020469157 0.0073357469 1.1558353e-20)
(-0.0024112812 0.0085070204 -1.3870454e-20)
(-0.0028226747 0.0097889658 4.0667541e-21)
(-0.0032869317 0.011187043 5.509785e-21)
(-0.0038104544 0.012705337 -8.4319056e-21)
(-0.0044002258 0.014346 1.6578544e-20)
(-0.0050638114 0.016108574 -2.003493e-20)
(-0.0058093426 0.017989197 -3.1543059e-22)
(-0.006645478 0.019979691 -1.140553e-20)
(-0.0075813339 0.022066526 4.5089186e-20)
(-0.0086263762 0.02422971 -1.0871963e-20)
(-0.0097902614 0.026441613 -4.4806503e-20)
(-0.011082613 0.028665809 2.1082004e-20)
(-0.012512715 0.030856019 2.5044827e-20)
(-0.014089096 0.032955283 -6.2642884e-21)
(-0.015818986 0.034895563 -3.2664698e-20)
(-0.017707627 0.036598064 4.9219688e-20)
(-0.019757478 0.037974802 -5.4294138e-20)
(-0.021967431 0.038932352 4.2456805e-20)
(-0.024332356 0.039379331 -8.0581966e-21)
(-0.026843511 0.039239684 1.3699864e-20)
(-0.029490284 0.038472735 1.9237003e-20)
(-0.032262945 0.037095517 -7.3620737e-21)
(-0.03515469 0.035193457 -1.8157211e-21)
(-0.038161019 0.032903633 -2.5917261e-20)
(-0.041276706 0.030373989 4.7853838e-21)
(-0.044492728 0.027725139 -1.2063652e-20)
(-0.047795056 0.025036003 1.0017693e-20)
(-0.051165364 0.022350222 -5.6318923e-21)
(-0.054582853 0.019689287 -3.6948187e-21)
(-0.058026485 0.017063141 -3.1855674e-21)
(-0.061477662 0.014475614 -3.0857728e-21)
(-0.064922074 0.011925798 1.8985861e-20)
(-0.068354826 0.0094064563 1.5242465e-20)
(-0.071781081 0.0068930917 -4.3441662e-21)
(-0.075205262 0.0043250582 2.8797359e-21)
(-0.078632152 0.0015986845 -1.1750116e-20)
(-0.082054808 -0.0014435284 2.4278996e-20)
(-0.085415496 -0.0050401635 2.8898434e-20)
(-0.08856576 -0.0095346227 8.5833767e-21)
(-0.091172903 -0.015385456 2.2271307e-20)
(-0.092642839 -0.023190545 -6.9226047e-22)
(-0.091875485 -0.033663783 -1.0651426e-20)
(-0.087193249 -0.047554305 -5.238409e-20)
(-0.075715842 -0.065142319 2.5594849e-20)
(-0.053901213 -0.08557319 -9.9538603e-21)
(-0.017310264 -0.10495627 2.5971594e-20)
(0.035278871 -0.11742037 -3.7295281e-20)
(0.10382763 -0.11389085 1.8551353e-20)
(0.18383077 -0.088409657 -3.9987097e-21)
(0.2758327 -0.034740699 -1.1407002e-22)
(0.38482662 0.031813267 -2.5703871e-21)
(0.537546 0.083519091 -8.9079993e-21)
(0.75055961 0.064589685 2.6538781e-20)
(1.0065883 -0.030568076 -2.9993305e-20)
(-6.6038068e-05 0.00023032068 4.5868759e-21)
(-0.00020516919 0.00071230667 3.1559427e-21)
(-0.00036013034 0.0012443421 -4.954011e-21)
(-0.00053305955 0.0018321796 1.3042319e-22)
(-0.0007263203 0.002482039 4.4785723e-21)
(-0.00094256874 0.0032005779 2.3416744e-21)
(-0.0011847727 0.0039948646 -4.934662e-21)
(-0.0014562247 0.0048723262 8.1031961e-22)
(-0.001760571 0.0058406629 -1.1422408e-20)
(-0.0021018331 0.0069077262 2.2258862e-21)
(-0.0024844302 0.0080813491 5.7104839e-23)
(-0.0029131943 0.0093691201 -8.1854188e-21)
(-0.0033933819 0.010778087 2.6225142e-20)
(-0.0039306764 0.012314378 -1.2217458e-20)
(-0.0045311799 0.013982732 -2.1885693e-20)
(-0.0052013925 0.01578591 2.331629e-20)
(-0.0059481727 0.017723999 -2.8711239e-21)
(-0.0067786783 0.019793575 1.6294486e-20)
(-0.0077002811 0.021986737 1.2098135e-20)
(-0.0087204519 0.024290017 -3.8031631e-20)
(-0.0098466086 0.026683173 2.8533128e-20)
(-0.011085922 0.029137918 -3.7529161e-20)
(-0.012445068 0.031616622 4.4020843e-21)
(-0.013929919 0.034071094 -1.7975828e-20)
(-0.015545156 0.036441561 3.8998391e-20)
(-0.017293787 0.038656044 -9.2244504e-21)
(-0.019176585 0.040630433 -2.3229192e-20)
(-0.021191473 0.042269798 5.5927493e-20)
(-0.023333023 0.043471901 -2.4170148e-20)
(-0.025592396 0.044134559 -2.5886976e-20)
(-0.027958291 0.044169155 2.1198375e-20)
(-0.030419374 0.04352179 2.8195527e-21)
(-0.032967713 0.042198383 -1.3815268e-20)
(-0.035601012 0.040279839 7.4634617e-21)
(-0.03832108 0.037908952 -1.1152823e-20)
(-0.041128873 0.035248537 3.8019341e-20)
(-0.044019577 0.032437486 -1.9418937e-20)
(-0.046980606 0.029570825 -1.1368964e-20)
(-0.049992466 0.026704122 -2.2907363e-20)
(-0.053031027 0.023867496 -3.1243998e-21)
(-0.056070071 0.021078004 2.3753206e-20)
(-0.059083756 0.018346598 -9.5932252e-21)
(-0.062048387 0.015680674 -1.4178021e-20)
(-0.064946981 0.013083064 -2.129572e-21)
(-0.067765191 0.01053853 1.4396245e-20)
(-0.070481455 0.0079942506 1.2927799e-20)
(-0.073063136 0.0053543807 -3.9996176e-20)
(-0.075446412 0.002461364 -2.1552439e-20)
(-0.077485929 -0.00093326081 -4.7639679e-20)
(-0.078895871 -0.0051974946 -1.701155e-20)
(-0.079126122 -0.010831158 -6.7552406e-21)
(-0.077269904 -0.018500862 -5.025537e-20)
(-0.071794398 -0.029036019 -1.9343431e-20)
(-0.060368813 -0.043385253 6.4787493e-20)
(-0.039050216 -0.062015203 -5.0339882e-20)
(-0.0029832853 -0.084100394 4.3333447e-20)
(0.053106921 -0.10516097 -1.8535473e-20)
(0.12892674 -0.11863934 7.4746447e-20)
(0.22111576 -0.11504904 2.8979783e-20)
(0.32025322 -0.08992303 -7.4847548e-21)
(0.42654302 -0.038598805 -8.4220182e-21)
(0.54907863 0.022241088 -1.3473935e-20)
(0.71490155 0.063542976 -2.4843922e-21)
(0.93921482 0.040466433 -3.4774487e-21)
(1.1408891 -0.040608292 3.8689512e-20)
(-7.9708305e-05 0.00024766752 8.3533017e-23)
(-0.00024738475 0.00076624463 -5.9464137e-21)
(-0.00043370439 0.001338912 7.0093009e-21)
(-0.00064104343 0.0019717815 3.3726446e-21)
(-0.00087201481 0.0026714608 -6.7537219e-21)
(-0.001129523 0.0034450269 -2.1870385e-21)
(-0.0014167783 0.0043000009 1.0603968e-20)
(-0.0017373046 0.0052442964 -1.1407058e-20)
(-0.0020949574 0.0062861359 -2.405376e-21)
(-0.0024939341 0.0074339291 -9.5632931e-21)
(-0.0029387793 0.0086961038 2.5377799e-20)
(-0.0034343829 0.010080879 3.0879717e-22)
(-0.0039859676 0.011595965 -2.2749089e-20)
(-0.0045990648 0.013248187 2.4391083e-20)
(-0.0052794744 0.015042998 -1.7435634e-20)
(-0.0060332075 0.016983891 -6.4550218e-21)
(-0.0068664061 0.019071676 1.3460581e-20)
(-0.0077852378 0.021303626 -1.2121268e-20)
(-0.0087957633 0.023672472 -1.6105194e-20)
(-0.0099037711 0.026165265 3.394359e-22)
(-0.011114578 0.028762098 2.5263971e-20)
(-0.012432794 0.031434739 -1.5585067e-20)
(-0.013862043 0.034145214 8.6627385e-21)
(-0.015404643 0.036844425 4.174972e-20)
(-0.01706123 0.03947093 1.3935457e-20)
(-0.018830337 0.041950072 -3.7717597e-20)
(-0.02070793 0.044193766 3.7627274e-21)
(-0.022686968 0.046101479 -4.23744e-20)
(-0.024757156 0.047563365 2.499884e-20)
(-0.026905253 0.048467258 -1.3181892e-20)
(-0.029116526 0.04871199 1.9026559e-20)
(-0.03137786 0.048229045 4.6225355e-21)
(-0.033681981 0.04700993 -2.2886681e-20)
(-0.036030183 0.045126103 2.3217685e-20)
(-0.038430261 0.042721174 3.3492293e-20)
(-0.040889697 0.039969941 -3.0721001e-21)
(-0.043408491 0.03702928 -3.4347049e-20)
(-0.045975856 0.034011577 4.2965156e-20)
(-0.048570947 0.030985792 -9.0706095e-21)
(-0.051165492 0.027991743 1.9243886e-20)
(-0.053726633 0.025054183 -2.9954142e-21)
(-0.056219043 0.02219153 3.0008512e-20)
(-0.058606677 0.019419712 1.4497127e-20)