/*--------------------------------*- C++ -*----------------------------------*\
  =========                 |
  \\      /  F ield         | OpenFOAM: The Open Source CFD Toolbox
   \\    /   O peration     | Website:  https://openfoam.org
    \\  /    A nd           | Version:  13
     \\/     M anipulation  |
\*---------------------------------------------------------------------------*/
FoamFile
{
    format      ascii;
    class       volSymmTensorField;
    location    "31.103044";
    object      UPrime2Mean;
}
// * * * * * * * * * * * * * * * * * * * * * * * * * * * * * * * * * * * * * //

dimensions      [0 2 -2 0 0 0 0];

internalField   nonuniform List<symmTensor> 
17140
(
(5.9294921e-12 -3.7907786e-10 -1.219378e-27 2.578209e-08 1.9690233e-26 6.8876032e-41)
(3.8687639e-10 -5.4974779e-09 -5.6859717e-28 2.4619309e-07 4.3876691e-27 6.1194154e-43)
(3.3417402e-09 -2.2136369e-08 9.3642554e-26 7.4912957e-07 -4.6362795e-25 2.6677261e-39)
(1.5605455e-08 -6.0765964e-08 -2.0111992e-25 1.6164048e-06 7.1601964e-25 3.2240953e-39)
(5.212485e-08 -1.3640594e-07 4.0453735e-26 2.9468109e-06 -1.1036633e-25 4.406247e-41)
(1.4287512e-07 -2.7079554e-07 -2.1080961e-25 4.8583895e-06 4.5859865e-25 4.7196694e-40)
(3.4368413e-07 -4.9446545e-07 -5.374149e-25 7.4906391e-06 9.5421701e-25 1.3377417e-39)
(7.532145e-07 -8.492285e-07 3.8322252e-25 1.1006404e-05 -5.6402496e-25 3.1884638e-40)
(1.5391879e-06 -1.3910823e-06 1.7846902e-24 1.5593117e-05 -2.2009352e-24 3.4160389e-39)
(2.9779159e-06 -2.193331e-06 6.0988405e-24 2.1462986e-05 -6.3546937e-24 2.0551338e-38)
(5.5125496e-06 -3.3496199e-06 -1.239044e-23 2.8851553e-05 1.0978034e-23 4.5190553e-38)
(9.8369855e-06 -4.9763796e-06 1.49264e-23 3.8013952e-05 -1.1301144e-23 3.5891253e-38)
(1.7013856e-05 -7.2139293e-06 3.0548465e-24 4.9218044e-05 -1.9840525e-24 8.4085514e-40)
(2.8636078e-05 -1.0225171e-05 -2.2854722e-23 6.2733563e-05 1.2780876e-23 2.6896589e-38)
(4.7041511e-05 -1.4190563e-05 3.3313478e-24 7.8816415e-05 -1.6075116e-24 3.3156099e-40)
(7.5588513e-05 -1.9297921e-05 -3.4370177e-23 9.7687456e-05 1.4343404e-23 2.0803912e-38)
(0.00011899551 -2.5725817e-05 1.6514229e-24 0.00011950546 -5.9723843e-25 2.8813358e-41)
(0.00018373945 -3.3620158e-05 -4.8054742e-25 0.00014433467 1.5012226e-25 1.4426311e-42)
(0.00027849546 -4.3065115e-05 -4.3101529e-23 0.00017210844 1.1718973e-23 7.2563522e-39)
(0.0004145861 -5.4052197e-05 7.0751686e-23 0.00020259145 -1.6703546e-23 1.216652e-38)
(0.00060639608 -6.6454491e-05 -4.2835117e-23 0.00023534508 8.7801284e-24 2.8095516e-39)
(0.00087170705 -8.0015966e-05 1.0156587e-23 0.00026970212 -1.8105571e-24 1.0169311e-40)
(0.001231924 -9.4365743e-05 9.2525407e-23 0.00030475954 -1.4301384e-23 5.473734e-39)
(0.0017122391 -0.00010906372 -1.1278865e-22 0.0003394019 1.5129866e-23 5.3838549e-39)
(0.0023419705 -0.00012367491 -2.1719309e-22 0.00037237232 2.5265447e-23 1.3478252e-38)
(0.0031548324 -0.00013783352 2.088426e-22 0.00040241166 -2.1065298e-23 8.5918602e-39)
(0.0041890242 -0.00015119233 1.2170332e-21 0.00042847298 -1.0631328e-22 2.0458892e-37)
(0.0054904328 -0.00016350819 1.6879503e-22 0.0004499555 -1.2753464e-23 2.8050891e-39)
(0.0071141665 -0.00017460641 -1.7220757e-21 0.00046685035 1.1271524e-22 2.1392498e-37)
(0.0091251657 -0.00018366253 -4.6621236e-22 0.00047971298 2.6393906e-23 1.160126e-38)
(0.011601804 -0.0001899761 -1.9104073e-21 0.00048938469 9.3559451e-23 1.4697241e-37)
(0.014636564 -0.00019325668 2.870302e-21 0.00049654806 -1.2150819e-22 2.5402194e-37)
(0.018338766 -0.00019271686 -8.5080569e-22 0.00050162972 3.1035444e-23 1.7244892e-38)
(0.02283458 -0.00018750265 -4.5905866e-22 0.00050484665 1.4411326e-23 3.9461798e-39)
(0.028267086 -0.00017655857 -5.0894526e-21 0.00050624038 1.3628727e-22 3.8295792e-37)
(0.034794769 -0.0001585465 2.5003106e-21 0.00050571469 -5.6906301e-23 7.4195847e-38)
(0.042587909 -0.00013171046 -4.2094982e-21 0.00050310788 8.0466903e-23 1.6964443e-37)
(0.0518214 -9.3771791e-05 -3.1640375e-21 0.00049827226 5.0219614e-23 7.8257582e-38)
(0.062662146 -4.1907695e-05 -1.601146e-21 0.0004911973 2.0737131e-23 1.6515451e-38)
(0.07524882 2.7326353e-05 5.3196726e-21 0.0004822189 -5.5144207e-23 1.5251118e-37)
(0.089662702 0.00011776241 1.0958634e-20 0.0004722572 -8.7819208e-23 5.4503194e-37)
(0.10589038 0.00023325103 1.0778696e-20 0.00046287371 -6.3650593e-23 4.4925577e-37)
(0.12378149 0.00037649521 5.0642504e-21 0.00045595815 -2.031059e-23 8.5509079e-38)
(0.14301625 0.00054785701 -2.6407172e-20 0.00045317637 6.0144737e-23 2.017311e-36)
(0.16309665 0.00074363309 -2.0513441e-20 0.0004556127 1.4503334e-23 1.0715875e-36)
(0.18335195 0.00095351044 5.3118505e-21 0.00046378224 3.9071529e-24 6.4137082e-38)
(0.20306119 0.00116519 -3.7782267e-20 0.00047815201 -7.8664632e-23 2.9308241e-36)
(0.2215677 0.0013719039 -1.3321375e-20 0.00050000073 -4.4611161e-23 3.336002e-37)
(0.23816684 0.0015707637 1.3976165e-20 0.00053193757 6.3657519e-23 3.4119049e-37)
(0.25255419 0.0017615564 3.4955048e-20 0.00057674261 1.9905749e-22 2.0118099e-36)
(0.26444137 0.0019507347 -2.1814209e-20 0.00063802017 -1.4752008e-22 7.5007282e-37)
(0.27363429 0.0021578408 -1.3846841e-20 0.00072119553 -1.0735447e-22 2.9373811e-37)
(0.27989625 0.0024189159 3.6022233e-20 0.00083260347 3.1373558e-22 1.9621968e-36)
(0.28325276 0.002758154 1.6847098e-20 0.00097812992 1.6162394e-22 4.3056817e-37)
(0.28379195 0.0031622752 1.1776209e-20 0.0011640456 1.21946e-22 2.1494438e-37)
(0.28203008 0.0035865394 -9.0210908e-21 0.0014004804 -9.8523055e-23 1.3050549e-37)
(0.27870458 0.0039541528 2.3408435e-20 0.0017007204 2.6047779e-22 9.3502653e-37)
(0.2741478 0.0041359938 1.8684202e-20 0.0020929669 2.0363225e-22 6.4293247e-37)
(0.26857479 0.00396681 4.4180607e-21 0.0026300531 4.4454027e-23 3.9828445e-38)
(0.26145313 0.0033077957 -1.0676685e-20 0.0034141416 -9.3635203e-23 2.6178755e-37)
(0.25187879 0.0022825622 -7.687138e-21 0.0045341813 -5.6514735e-23 1.5906106e-37)
(0.23934053 0.0012986197 -2.5877398e-20 0.0058512331 -1.8270388e-22 2.1644829e-36)
(0.22161045 0.00092924466 -3.3844304e-21 0.0068319879 -3.2644276e-23 4.6384303e-38)
(0.2019124 0.0014422277 2.5156206e-20 0.007065774 4.1161368e-22 3.2758431e-36)
(0.17307361 0.0025630806 -1.6535806e-20 0.0070731153 -4.6421488e-22 1.9577643e-36)
(2.4615316e-10 -5.7811211e-09 1.5061363e-27 1.3582732e-07 -2.9659904e-26 5.5778132e-42)
(3.8267213e-09 -6.9724481e-08 -5.0645439e-25 1.28687e-06 7.8983507e-24 7.3428059e-38)
(1.7010874e-08 -2.533443e-07 8.6806511e-25 3.8883476e-06 -1.1077992e-23 5.8147084e-38)
(5.2737468e-08 -6.4662685e-07 -3.9440758e-25 8.3255135e-06 4.1919655e-24 4.3214912e-39)
(1.3465846e-07 -1.376626e-06 -1.2598804e-24 1.504794e-05 1.1337748e-23 1.8441617e-38)
(3.0510966e-07 -2.6255353e-06 3.5534161e-24 2.4570971e-05 -2.7410047e-23 6.733305e-38)
(6.3689611e-07 -4.647857e-06 -5.2952961e-24 3.7473735e-05 3.5282245e-23 7.3165973e-38)
(1.251311e-06 -7.7913711e-06 6.5078527e-25 5.4391635e-05 -3.7645691e-24 5.6670963e-40)
(2.3455055e-06 -1.2522701e-05 -2.7864221e-24 7.6001184e-05 1.4045359e-23 5.5235689e-39)
(4.2329721e-06 -1.9455853e-05 -6.400815e-26 0.00010299456 2.8196034e-25 1.5779819e-42)
(7.4023827e-06 -2.9382465e-05 -1.680564e-23 0.00013604157 6.4833255e-23 6.1560955e-38)
(1.2601334e-05 -4.33007e-05 3.5335936e-23 0.00017573662 -1.1961589e-22 1.5539569e-37)
(2.0952944e-05 -6.2438045e-05 3.8311825e-24 0.00022252992 -1.1397026e-23 1.0596558e-39)
(3.4114194e-05 -8.8260955e-05 -4.9275496e-23 0.00027664336 1.2897644e-22 1.0315029e-37)
(5.4484888e-05 -0.00012246196 1.9588641e-23 0.00033797577 -4.5155321e-23 9.7167208e-39)
(8.5474498e-05 -0.00016691328 1.600788e-23 0.00040600607 -3.2519713e-23 3.9099675e-39)
(0.00013182966 -0.00022357578 -1.2992941e-22 0.00047970926 2.3269112e-22 1.5682755e-37)
(0.00020001748 -0.00029435603 5.3812628e-22 0.00055750609 -8.497444e-22 1.6568246e-36)
(0.0002986484 -0.00038091274 -4.2571449e-22 0.00063727141 5.9266624e-22 6.4559329e-37)
(0.00043890892 -0.00048443031 6.4028853e-22 0.00071642518 -7.8562473e-22 9.19579e-37)
(0.00063496405 -0.00060540003 -1.1787803e-21 0.00079212162 1.2741589e-21 1.9884001e-36)
(0.00090428777 -0.00074347394 3.5739735e-22 0.00086153039 -3.4012978e-22 1.1824439e-37)
(0.0012678957 -0.00089747156 1.8057403e-22 0.00092217513 -1.5120721e-22 1.983741e-38)
(0.0017505223 -0.0010656168 -7.1829729e-22 0.00097226347 5.2880264e-22 2.0926535e-37)
(0.0023809714 -0.0012460522 3.1122739e-21 0.001010932 -2.0134719e-21 2.6715431e-36)
(0.0031924675 -0.0014374441 5.553734e-22 0.0010383562 -3.1547879e-22 5.8701207e-38)
(0.0042226114 -0.001639314 -3.4003302e-21 0.0010556705 1.6968123e-21 1.5584175e-36)
(0.0055166034 -0.0018524965 4.4753272e-21 0.0010645429 -1.9609522e-21 1.9395453e-36)
(0.0071288622 -0.0020788881 -7.1420861e-22 0.0010670102 2.7502365e-22 3.6407785e-38)
(0.0091233304 -0.0023200672 -8.1066421e-21 0.0010654906 2.7395648e-21 3.4679632e-36)
(0.011577208 -0.0025778828 9.6379401e-22 0.0010619285 -2.8603197e-22 3.7210523e-38)
(0.014581479 -0.0028541664 8.4564723e-21 0.0010572447 -2.1999533e-21 2.1833259e-36)
(0.018243582 -0.003149544 2.4616349e-22 0.0010515459 -5.5860312e-23 1.3863331e-39)
(0.022687321 -0.0034634852 -8.1124198e-21 0.0010444203 1.6172604e-21 1.2230272e-36)
(0.028052796 -0.003793954 1.0195956e-20 0.0010351633 -1.7751144e-21 1.5335113e-36)
(0.034494695 -0.004136979 -5.1531346e-21 0.0010229276 7.8189181e-22 3.1356657e-37)
(0.042178438 -0.0044859008 6.7571317e-21 0.0010068373 -8.9239969e-22 4.3846961e-37)
(0.051272653 -0.0048302721 2.3901198e-20 0.00098609806 -2.7400922e-21 4.4774222e-36)
(0.061936189 -0.0051545741 5.9258909e-21 0.00096020777 -5.8832759e-22 2.2673334e-37)
(0.074297479 -0.0054369154 2.5437778e-20 0.00092933107 -2.1813121e-21 3.4935927e-36)
(0.088425083 -0.0056483998 -3.5551814e-20 0.00089479341 2.6223454e-21 5.7700558e-36)
(0.10429035 -0.0057541858 -3.5555694e-20 0.00085940269 2.2426503e-21 4.9093796e-36)
(0.12172559 -0.0057173555 -6.5878894e-21 0.00082749223 3.5268092e-22 1.4409739e-37)
(0.14039182 -0.0055058243 5.612734e-20 0.00080474774 -2.521178e-21 9.2102961e-36)
(0.15976724 -0.0051016433 -2.8304999e-20 0.00079788066 1.0512442e-21 2.0547568e-36)
(0.17916279 -0.0045131411 -1.0364702e-20 0.00081387798 3.1161408e-22 2.4547718e-37)
(0.19781794 -0.0037790877 5.781836e-21 0.00085850402 -1.3617709e-22 6.9930276e-38)
(0.21504423 -0.0029531395 1.8788851e-20 0.00093337216 -3.299887e-22 6.735499e-37)
(0.2302838 -0.0020976228 -9.4649266e-21 0.001032943 1.1469232e-22 1.5927917e-37)
(0.2431366 -0.0012595279 1.7544787e-20 0.0011491033 -1.241057e-22 5.1642052e-37)
(0.25335041 -0.00044203605 1.0701426e-19 0.0012767929 -2.6267899e-22 1.8451916e-35)
(0.26075002 0.00037178262 5.132696e-21 0.001418803 9.7793904e-24 4.1494699e-38)
(0.26522992 0.0011905373 -2.3073556e-20 0.0015873697 -1.3501814e-22 8.2943923e-37)
(0.26686835 0.0019994027 5.0750835e-20 0.0017965813 4.9228003e-22 4.0419241e-36)
(0.26603332 0.002742614 -4.2456315e-20 0.0020612779 -5.6725074e-22 2.9001448e-36)
(0.2633485 0.0033462612 1.1695069e-19 0.0023954012 1.957963e-21 2.2976011e-35)
(0.25960018 0.0037640526 3.2096402e-20 0.002811516 6.3954364e-22 1.8402654e-36)
(0.25529166 0.0039163759 -8.5968017e-20 0.0033316011 -1.9458343e-21 1.4375776e-35)
(0.25061398 0.0037442439 1.378089e-20 0.0039916371 3.499527e-22 4.090627e-37)
(0.24496504 0.003192391 1.4609076e-20 0.0048531135 4.0229595e-22 5.2695086e-37)
(0.23714209 0.0024731626 2.6856626e-21 0.0059477906 8.0996752e-23 2.1043998e-38)
(0.2265617 0.0019693697 -3.2352402e-20 0.0071120468 -1.1214094e-21 3.6972612e-36)
(0.21026368 0.0022200157 5.580662e-20 0.0078830873 2.3561043e-21 1.4013645e-35)
(0.19180928 0.0035381376 1.4650446e-20 0.0079277811 8.0610419e-22 1.2558654e-36)
(0.1630561 0.0049581986 2.0362644e-20 0.0078338775 1.5408301e-21 3.4687224e-36)
(2.0005922e-09 -2.8582411e-08 2.2010555e-25 4.0836492e-07 -2.9526676e-24 1.6953663e-38)
(2.2774738e-08 -2.9663135e-07 -3.5127575e-25 3.8660865e-06 4.3013342e-24 6.7078211e-39)
(8.0910709e-08 -9.7092065e-07 -1.6072507e-25 1.167351e-05 1.7990047e-24 4.7445796e-40)
(2.0543842e-07 -2.2608987e-06 2.3117021e-25 2.4976435e-05 -2.3639039e-24 4.2658257e-40)
(4.4173407e-07 -4.4500732e-06 -1.602528e-24 4.5106452e-05 1.4985382e-23 1.0017759e-38)
(8.6176728e-07 -7.9278148e-06 -1.6488398e-25 7.3582107e-05 1.4107259e-24 5.5384119e-41)
(1.5777093e-06 -1.3219568e-05 -2.8437861e-24 0.00011209905 2.2240752e-23 9.043681e-39)
(2.7618712e-06 -2.1023295e-05 -4.071768e-24 0.00016250223 2.9063762e-23 1.0498896e-38)
(4.6760653e-06 -3.2253622e-05 4.3671069e-23 0.00022673253 -2.8395189e-22 7.0134488e-37)
(7.7134691e-06 -4.8090087e-05 -5.0702388e-23 0.00030674145 2.997119e-22 5.5910682e-37)
(1.2457889e-05 -7.0027917e-05 3.1321597e-23 0.00040436544 -1.6799725e-22 1.2803543e-37)
(1.9766085e-05 -9.9925618e-05 5.8907984e-23 0.00052115343 -2.8615911e-22 2.7483715e-37)
(3.0880078e-05 -0.0001400413 -1.4920586e-22 0.00065814482 6.5526096e-22 1.0804334e-36)
(4.7577084e-05 -0.0001930458 -2.3503148e-23 0.0008156018 9.3153181e-23 1.654478e-38)
(7.2364581e-05 -0.0002619966 1.149783e-22 0.00099271061 -4.1057073e-22 2.4641905e-37)
(0.00010872665 -0.00035025405 9.9833038e-23 0.0011872829 -3.2063436e-22 1.1626983e-37)
(0.00016142392 -0.00046132124 -1.4567352e-22 0.0013955079 4.2008391e-22 1.5598629e-37)
(0.00023684294 -0.00059859488 6.6102621e-22 0.0016118259 -1.7085869e-21 2.0372938e-36)
(0.00034338163 -0.00076502979 -4.8753979e-22 0.0018290106 1.1275156e-21 7.0861636e-37)
(0.00049184632 -0.00096274693 2.9950703e-22 0.0020385437 -6.1861114e-22 1.723035e-37)
(0.00069582745 -0.0011926544 -1.2470389e-21 0.0022313372 2.296207e-21 1.9459612e-36)
(0.00097202084 -0.0014541945 -3.9804781e-22 0.0023987818 6.522176e-22 1.3058539e-37)
(0.0013404747 -0.0017453585 1.0116635e-21 0.0025339957 -1.4725786e-21 5.6318423e-37)
(0.0018247954 -0.0020631044 -1.8410671e-21 0.0026330165 2.3766257e-21 1.2627875e-36)
(0.0024525184 -0.0024042744 -8.7008531e-22 0.0026956079 9.9449608e-22 1.9373577e-37)
(0.0032556251 -0.0027667612 1.2405939e-21 0.0027253998 -1.2544874e-21 2.7688001e-37)
(0.0042702492 -0.0031501065 8.3148021e-21 0.0027291427 -7.4277533e-21 8.8467251e-36)
(0.0055398912 -0.0035564064 4.4045907e-21 0.0027146568 -3.4733919e-21 1.7974044e-36)
(0.0071171429 -0.0039897707 -2.5462853e-21 0.0026893293 1.7725758e-21 4.4543517e-37)
(0.009063492 -0.0044542591 3.1544591e-21 0.002659801 -1.9350364e-21 5.0844657e-37)
(0.011453179 -0.004954283 -2.2521985e-21 0.0026307131 1.2180685e-21 1.9904366e-37)
(0.014373343 -0.005493779 -1.4600962e-20 0.0026038812 6.9434199e-21 6.3988462e-36)
(0.017926643 -0.0060747328 5.5542696e-21 0.0025789325 -2.3208337e-21 7.2169681e-37)
(0.022230873 -0.0066968253 1.8771776e-20 0.0025541521 -6.8815708e-21 6.4859957e-36)
(0.027418608 -0.0073568827 -7.0378274e-21 0.0025271274 2.2618485e-21 7.3035916e-37)
(0.033635053 -0.0080480884 -1.108173e-20 0.0024951258 3.1152248e-21 1.4500256e-36)
(0.041033618 -0.0087586196 2.146253e-20 0.0024552357 -5.2721757e-21 4.4153751e-36)
(0.04976766 -0.0094696031 7.30096e-21 0.0024044851 -1.5646628e-21 4.174152e-37)
(0.059976632 -0.010152598 -1.4339785e-20 0.00234015 2.6786434e-21 1.3418229e-36)
(0.071764623 -0.010767149 -6.3250341e-21 0.0022604928 1.027409e-21 2.1909885e-37)
(0.085170322 -0.011259386 3.3360697e-20 0.0021658881 -4.6958672e-21 5.1344388e-36)
(0.10012956 -0.011563825 -1.0248914e-20 0.0020603221 1.244133e-21 4.1798872e-37)
(0.11643457 -0.011610124 -1.6096643e-20 0.0019529384 1.6775191e-21 8.8621311e-37)
(0.13370368 -0.011335863 -4.6297918e-20 0.0018593419 4.105218e-21 6.3791021e-36)
(0.15137104 -0.010704485 9.3943588e-20 0.0018015896 -6.9989991e-21 2.3258574e-35)
(0.16871841 -0.0097293466 -6.448325e-20 0.0018056275 3.9708182e-21 9.802775e-36)
(0.18500027 -0.0084902826 -1.7152833e-20 0.001893348 8.5580459e-22 6.2567853e-37)
(0.1995573 -0.007103277 -7.0580123e-20 0.0020684738 2.7531635e-21 9.8229099e-36)
(0.2118908 -0.0056794203 -8.7449047e-20 0.0023091527 2.5540149e-21 1.4112653e-35)
(0.22169825 -0.0043100096 -4.5620237e-21 0.0025812023 9.4928653e-23 3.6254141e-38)
(0.22886631 -0.0030255409 1.9601838e-20 0.0028566883 -2.3637051e-22 6.4716898e-37)
(0.23336504 -0.0018136498 -1.4472461e-19 0.0031328175 5.8598335e-22 3.4778873e-35)
(0.23525756 -0.00067587734 -6.1481964e-20 0.0034343046 -1.9496168e-22 6.2629857e-36)
(0.23477602 0.00033487614 -6.2365422e-20 0.0037928859 -6.2888318e-22 6.5397682e-36)
(0.23249004 0.0011250226 -2.0035055e-20 0.0042322829 -3.4077582e-22 6.9701727e-37)
(0.22914212 0.0016070621 -1.4983532e-19 0.0047620887 -3.4753525e-21 4.1101313e-35)
(0.22561565 0.0017678859 5.7067933e-20 0.0053785236 1.6967662e-21 6.396253e-36)
(0.2224117 0.0016137992 -1.6419223e-20 0.0060784768 -5.845713e-22 5.8466745e-37)
(0.21949797 0.0012342002 -1.2658056e-19 0.006863068 -5.3128536e-21 3.8921711e-35)
(0.2161349 0.00068926674 -4.6609785e-20 0.0077379544 -2.2690389e-21 6.1000704e-36)
(0.21056733 0.00029880518 5.0531489e-20 0.0086831882 2.8332383e-21 8.6071993e-36)
(0.20215276 0.00046759526 1.5606852e-19 0.0095139183 1.0289513e-20 1.016093e-34)
(0.18698606 0.0015904079 -4.3559978e-20 0.0098662726 -3.4855486e-21 1.0363877e-35)
(0.17011496 0.0039752545 -6.0601903e-20 0.0095338071 -6.1744519e-21 2.6929403e-35)
(0.14188038 0.0058493373 -2.1234921e-20 0.0091352729 -2.866803e-21 4.9405473e-36)
(7.8556308e-09 -7.9880211e-08 -1.444815e-24 8.1226735e-07 1.4236803e-23 1.9013502e-37)
(8.1139721e-08 -7.8998858e-07 4.7311097e-24 7.692099e-06 -4.4589956e-23 3.4870965e-37)
(2.6577831e-07 -2.4845328e-06 -2.8123426e-24 2.3231879e-05 2.5298385e-23 4.5593307e-38)
(6.2144871e-07 -5.5571229e-06 4.4416644e-25 4.9720769e-05 -3.8054501e-24 5.3887447e-40)
(1.2331919e-06 -1.0519505e-05 -1.2068231e-23 8.9822356e-05 9.8341381e-23 2.1063447e-37)
(2.2243365e-06 -1.8042853e-05 1.6627906e-23 0.00014657934 -1.2866043e-22 2.2553315e-37)
(3.7724346e-06 -2.8997932e-05 -3.2894605e-23 0.00022339556 2.4109674e-22 5.1906364e-37)
(6.1314929e-06 -4.4502132e-05 1.9880713e-23 0.00032398265 -1.376162e-22 1.1493585e-37)
(9.6632028e-06 -6.5974147e-05 9.6081888e-23 0.00045225687 -6.2611898e-22 1.6619044e-36)
(1.4879905e-05 -9.5192997e-05 -2.9130744e-23 0.00061217073 1.781092e-22 9.6123017e-38)
(2.2503146e-05 -0.00013435751 -1.3915268e-22 0.0008074634 7.9557786e-22 1.394883e-36)
(3.3542448e-05 -0.00018613917 5.3048876e-23 0.0010413153 -2.8265135e-22 1.3006449e-37)
(4.9399821e-05 -0.00025371787 4.4082614e-24 0.0013158998 -2.1814649e-23 5.8138678e-40)
(7.2005858e-05 -0.00034078506 -2.1474496e-22 0.0016318365 9.8378749e-22 8.9124215e-37)
(0.00010399329 -0.00045149492 8.3296042e-22 0.0019875745 -3.5207627e-21 8.7245311e-36)
(0.00014891252 -0.00059034039 -6.3292121e-22 0.002378765 2.4601444e-21 3.2877902e-36)
(0.00021149111 -0.00076193196 -7.4543309e-24 0.0027977222 2.6557162e-23 2.9831627e-40)
(0.00029793416 -0.00097066473 5.3329784e-22 0.0032331215 -1.7357236e-21 1.0043214e-36)
(0.00041625633 -0.0012202797 -1.6655846e-21 0.0036701169 4.9360655e-21 6.4667947e-36)
(0.00057662805 -0.0015133583 9.6368184e-22 0.004091063 -2.5919641e-21 1.4375624e-36)
(0.00079171372 -0.0018508433 1.7552695e-21 0.0044769795 -4.27082e-21 3.1891639e-36)
(0.00107698 -0.0022317319 8.6431328e-22 0.0048097477 -1.8963715e-21 5.2128711e-37)
(0.001450963 -0.002653129 -5.1664223e-21 0.0050747948 1.0191198e-20 1.2715408e-35)
(0.0019355173 -0.003110836 -3.2447144e-21 0.0052637517 5.7374108e-21 3.4616223e-36)
(0.0025562139 -0.0036006023 2.4999061e-21 0.0053763348 -3.9524799e-21 1.4419954e-36)
(0.0033430492 -0.0041198463 -1.7302356e-21 0.0054207591 2.4394532e-21 4.8974261e-37)
(0.0043299649 -0.0046684301 7.6185769e-21 0.0054122591 -9.5619965e-21 6.8730974e-36)
(0.0055578039 -0.0052500571 -2.5567813e-21 0.0053688445 2.8511168e-21 5.6770507e-37)
(0.0070761533 -0.0058711301 7.9909303e-21 0.005306452 -7.9061896e-21 4.1365455e-36)
(0.0089428265 -0.0065383431 -5.2047789e-21 0.0052385006 4.5622142e-21 1.3283766e-36)
(0.011227405 -0.0072586769 3.6973616e-21 0.0051742786 -2.865581e-21 5.121312e-37)
(0.014011026 -0.0080380601 -1.545703e-20 0.0051174285 1.0580341e-20 6.9587117e-36)
(0.01738889 -0.0088797016 2.5177615e-21 0.0050670965 -1.5198042e-21 1.4531245e-37)
(0.021469453 -0.0097832531 -1.5047947e-20 0.005019635 7.9943262e-21 4.0987577e-36)
(0.026373635 -0.010744096 1.6216066e-20 0.0049699214 -7.5749708e-21 3.8166869e-36)
(0.032232105 -0.011752193 5.8402114e-21 0.0049120972 -2.3946773e-21 3.972279e-37)
(0.039180028 -0.012790146 -8.1053031e-20 0.0048397815 2.9163561e-20 6.3007668e-35)
(0.047347889 -0.013830264 -2.3533871e-20 0.0047461602 7.4175976e-21 4.3709956e-36)
(0.056846631 -0.014830955 2.1558649e-20 0.0046244361 -5.9440434e-21 3.0620198e-36)
(0.067745375 -0.015733279 -2.3311842e-20 0.0044690905 5.6107448e-21 3.0111191e-36)
(0.08004132 -0.016459231 6.5853292e-21 0.0042781794 -1.3789259e-21 2.0278859e-37)
(0.093623516 -0.016914542 4.4748643e-20 0.0040568176 -8.1309486e-21 8.0874456e-36)
(0.10823552 -0.016998953 -2.2384153e-21 0.0038216022 3.5129814e-22 1.7722388e-38)
(0.12345034 -0.016625642 -1.7510984e-20 0.0036044972 2.3480493e-21 9.3650808e-37)
(0.13866904 -0.015749631 9.044522e-21 0.0034535739 -1.0189997e-21 2.2523938e-37)
(0.15318184 -0.014405586 -4.9223387e-21 0.0034269461 4.6640404e-22 5.6755385e-38)
(0.16631485 -0.012726028 -1.4670577e-20 0.0035722646 1.1329483e-21 4.7684752e-37)
(0.17750383 -0.010895512 2.3418003e-19 0.0038947316 -1.4399509e-20 1.1383605e-34)
(0.18641348 -0.0090875324 -2.7033413e-20 0.0043426269 1.2582825e-21 1.427997e-36)
(0.19293418 -0.0074247114 2.5517704e-20 0.0048363687 -8.6473939e-22 1.2176777e-36)
(0.19711872 -0.0059366418 -2.4267955e-19 0.0053120586 5.3044366e-21 1.070836e-34)
(0.19906737 -0.0046017934 1.3313668e-19 0.0057611406 -1.4319871e-21 3.1881939e-35)
(0.19896699 -0.0034342533 1.0867903e-19 0.006231198 6.837863e-24 2.1342583e-35)
(0.19718323 -0.0025223075 1.0179105e-19 0.0067811652 1.0446506e-21 1.9177101e-35)
(0.19440651 -0.0019858263 9.5214961e-20 0.0074462888 1.9213177e-21 1.7502185e-35)
(0.19145219 -0.0019003613 1.4364335e-19 0.0082242761 4.2987108e-21 4.2389885e-35)
(0.18912785 -0.0022107108 -2.7336417e-19 0.0090810899 -1.0906515e-20 1.6660043e-34)
(0.18774766 -0.0027993523 1.5845335e-19 0.0099719444 7.910185e-21 6.2156314e-35)
(0.18688269 -0.0034199053 2.2353816e-19 0.010848445 1.3492232e-20 1.4122326e-34)
(0.18550448 -0.0038618457 -1.505914e-19 0.011649994 -1.0871244e-20 7.5305284e-35)
(0.18123696 -0.003725474 -4.3310365e-20 0.012320206 -3.6913682e-21 7.6222179e-36)
(0.17355188 -0.0026081966 -3.3415932e-20 0.012645972 -3.3907516e-21 5.7811531e-36)
(0.15771621 -0.00049637282 1.4652309e-19 0.012417331 1.8418073e-20 1.4976388e-34)
(0.14050082 0.0028221178 9.0933369e-20 0.011528603 1.4547089e-20 8.0823938e-35)
(0.11282654 0.0048986788 -3.1313652e-21 0.010682182 -6.5892831e-22 1.5690342e-37)
(2.1043248e-08 -1.6505804e-07 1.6871071e-24 1.2946759e-06 -1.2988296e-23 9.427135e-38)
(2.0874544e-07 -1.6002793e-06 -1.1281083e-23 1.2268247e-05 8.4749212e-23 7.5278674e-37)
(6.596863e-07 -4.9453111e-06 1.4785838e-23 3.7074485e-05 -1.0814563e-22 5.0042874e-37)
(1.4843266e-06 -1.0855311e-05 -7.9405432e-24 7.9398224e-05 5.6457136e-23 7.1485958e-38)
(2.8309959e-06 -2.0156044e-05 -3.8594302e-24 0.00014353979 2.6638135e-23 9.3329609e-39)
(4.9011838e-06 -3.3890292e-05 4.3325365e-23 0.0002344301 -2.8982617e-22 6.9136385e-37)
(7.9676753e-06 -5.3363933e-05 -1.4018924e-23 0.00035761132 9.0693974e-23 4.4375119e-38)
(1.2398522e-05 -8.0197198e-05 -3.7475989e-23 0.00051916248 2.3385948e-22 2.0020304e-37)
(1.8689288e-05 -0.00011638156 -3.5795007e-24 0.00072554744 2.148287e-23 1.1795698e-39)
(2.7505503e-05 -0.0001643377 -3.7583317e-23 0.00098335979 2.1626468e-22 8.5209007e-38)
(3.9738238e-05 -0.00022696952 6.4673276e-23 0.0012989366 -3.556357e-22 1.6727856e-37)
(5.6576125e-05 -0.00030770547 -5.5018559e-23 0.0016778158 2.8813078e-22 8.0918131e-38)
(7.9597763e-05 -0.00041051556 -2.4754447e-22 0.0021240191 1.2302511e-21 1.1003766e-36)
(0.00011088849 -0.00053988695 -8.779326e-24 0.0026391646 4.1255498e-23 9.3057995e-40)
(0.00015318556 -0.00070073782 2.8068115e-22 0.0032214406 -1.2423108e-21 6.4516766e-37)
(0.00021005493 -0.00089824679 2.4181474e-22 0.0038645317 -1.0041951e-21 3.242962e-37)
(0.00028610106 -0.0011375762 -2.5288958e-22 0.0045566463 9.8137726e-22 2.4056951e-37)
(0.00038720878 -0.001423479 2.9392411e-23 0.0052798859 -1.0614459e-22 2.2197372e-39)
(0.00052081223 -0.0017598001 7.2528681e-22 0.006010254 -2.427301e-21 9.1738816e-37)
(0.00069618229 -0.0021489227 1.0690806e-21 0.0067186502 -3.3013972e-21 1.3632534e-36)
(0.00092472177 -0.002591264 -1.4714216e-21 0.0073731075 4.1746806e-21 1.7765917e-36)
(0.0012202592 -0.0030849892 -1.7784111e-21 0.0079423484 4.6158899e-21 1.7979783e-36)
(0.0015993414 -0.003626155 2.8606785e-21 0.0084003314 -6.7640825e-21 3.2517992e-36)
(0.0020815402 -0.0042094736 -4.2092389e-21 0.0087309812 9.0302858e-21 4.9710271e-36)
(0.0026898859 -0.0048298298 -8.6193109e-21 0.0089318416 1.6713436e-20 1.4891987e-35)
(0.0034516609 -0.0054844337 2.3826712e-20 0.0090153061 -4.161464e-20 8.2497142e-35)
(0.0043982524 -0.0061740262 -1.5280014e-20 0.0090066867 2.3961981e-20 2.4935047e-35)
(0.0055668832 -0.0069041055 2.6198149e-20 0.0089377768 -3.6784621e-20 5.4605802e-35)
(0.0070028728 -0.007683447 -3.7616469e-20 0.008836458 4.7176981e-20 8.511288e-35)
(0.0087598107 -0.0085219547 4.799686e-20 0.0087258046 -5.364101e-20 1.0605345e-34)
(0.010900934 -0.0094290049 -5.6427098e-20 0.0086219329 5.6068376e-20 1.1358569e-34)
(0.013499641 -0.010412347 1.0737794e-20 0.0085316705 -9.4678502e-21 3.2301868e-36)
(0.016641388 -0.011476226 4.1842232e-20 0.0084540029 -3.2670413e-20 3.8753058e-35)
(0.020422563 -0.012619956 -2.6491528e-20 0.0083828489 1.8289511e-20 1.2427247e-35)
(0.024949115 -0.013837083 9.2614522e-21 0.0083093561 -5.645611e-21 1.2276964e-36)
(0.030333223 -0.015113919 3.0014843e-21 0.0082232025 -1.614131e-21 1.0586634e-37)
(0.036687247 -0.016427078 4.1265261e-20 0.0081129701 -1.9537183e-20 1.6309414e-35)
(0.044113655 -0.017739789 1.4896519e-20 0.0079662109 -6.2042745e-21 1.7573525e-36)
(0.052689473 -0.018997438 1.6568738e-20 0.0077700859 -6.0582681e-21 1.8148437e-36)
(0.062443918 -0.020123496 1.7897516e-20 0.0075133831 -5.7372617e-21 1.8028749e-36)
(0.073329413 -0.021017936 -9.9410276e-20 0.0071904406 2.7845586e-20 4.7539653e-35)
(0.085188465 -0.021561718 4.7293442e-20 0.0068076651 -1.1531085e-20 9.2875977e-36)
(0.09772282 -0.021631292 8.1853462e-21 0.0063921009 -1.7316014e-21 2.3802756e-37)
(0.11047778 -0.021125963 -1.0018773e-19 0.0059992833 1.816757e-20 3.2035319e-35)
(0.12285878 -0.020008928 -5.3997784e-20 0.0057150643 8.3310567e-21 8.2937841e-36)
(0.13422791 -0.018358389 2.7898204e-20 0.0056430351 -3.6170807e-21 2.0155963e-36)
(0.14405362 -0.01637795 1.0612116e-19 0.0058628088 -1.1295305e-20 2.6697948e-35)
(0.15196605 -0.014317418 -4.7692899e-20 0.006371566 4.1039339e-21 5.0541954e-36)
(0.1578374 -0.012393868 1.4310138e-19 0.0070703909 -9.4595751e-21 4.3051357e-35)
(0.16173364 -0.010728093 7.9056236e-20 0.007813388 -3.8568306e-21 1.2667212e-35)
(0.16380143 -0.009318588 1.0980215e-19 0.0084924856 -3.6478937e-21 2.3953186e-35)
(0.16419183 -0.0081214193 2.9415408e-19 0.0091023621 -5.2181038e-21 1.7123423e-34)
(0.16314409 -0.0071671031 -2.2445651e-19 0.0097296787 8.0212354e-22 1.0120188e-34)
(0.16110061 -0.0065841535 7.1606524e-20 0.010470396 8.1147863e-22 1.0623278e-35)
(0.15881049 -0.0065093352 -1.1883477e-19 0.011369577 -2.829691e-21 3.0895928e-35)
(0.15706598 -0.0069819851 -1.079638e-19 0.012404162 -4.0722814e-21 2.7432444e-35)
(0.15646281 -0.0078489087 -3.9909726e-20 0.013496484 -2.0838434e-21 4.1291502e-36)
(0.15698696 -0.0088536658 -3.397716e-19 0.014544824 -2.2228376e-20 3.3694988e-34)
(0.15769586 -0.0095892405 -8.424753e-20 0.015443736 -6.8017872e-21 2.4040657e-35)
(0.15721667 -0.009701608 1.7506139e-19 0.016055137 1.7249234e-20 1.2441529e-34)
(0.15261326 -0.0087955107 5.8892276e-20 0.016319804 7.0642187e-21 1.7676737e-35)
(0.14376317 -0.0065141063 -3.8365303e-20 0.015974107 -5.5765184e-21 9.8492197e-36)
(0.12594615 -0.0033810098 -6.6744007e-20 0.01504653 -1.2131024e-20 4.2106354e-35)
(0.10728058 0.00044142403 -8.5591976e-20 0.01349401 -2.0177311e-20 1.0210036e-34)
(0.081730263 0.0023234521 4.9584368e-21 0.012139244 1.548214e-21 5.9382812e-37)
(4.4309308e-08 -2.814409e-07 7.6676572e-24 1.7876384e-06 -4.8102351e-23 8.7519001e-37)
(4.3088349e-07 -2.7028553e-06 5.3830305e-24 1.6954633e-05 -3.3286083e-23 7.8978727e-38)
(1.3370872e-06 -8.2802772e-06 -6.9126544e-24 5.1278885e-05 4.2049481e-23 5.179414e-38)
(2.9486749e-06 -1.8002767e-05 -3.5803883e-23 0.00010991846 2.1405499e-22 7.0638554e-37)
(5.5052375e-06 -3.3090853e-05 2.6067754e-23 0.00019891837 -1.5301919e-22 2.121308e-37)
(9.3167698e-06 -5.5044024e-05 -4.8366109e-23 0.00032524663 2.7842496e-22 4.3967501e-37)
(1.4783338e-05 -8.5689276e-05 2.6421108e-23 0.00049678601 -1.4891307e-22 8.2364752e-38)
(2.2419544e-05 -0.00012723108 7.8256167e-24 0.00072225365 -4.3097317e-23 4.6759644e-39)
(3.2885933e-05 -0.00018230257 -5.4463717e-23 0.0010110178 2.9241615e-22 1.4995086e-37)
(4.7028323e-05 -0.00025401169 -1.4315936e-22 0.0013727743 7.474625e-22 6.973178e-37)
(6.592705e-05 -0.00034597612 -8.7244977e-24 0.0018170415 4.4179996e-23 1.7595522e-39)
(9.0958087e-05 -0.0004623368 3.4459558e-22 0.0023524335 -1.687347e-21 1.891229e-36)
(0.00012386836 -0.00060773739 -5.7409545e-22 0.0029856779 2.7098794e-21 3.627965e-36)
(0.00016686768 -0.00078725288 1.1142329e-21 0.0037203684 -5.0531276e-21 9.4859402e-36)
(0.00022273973 -0.0010062489 -3.4962416e-22 0.0045554874 1.5179519e-21 6.5003293e-37)
(0.00029497424 -0.0012701513 8.9134936e-22 0.0054837919 -3.6909108e-21 2.9455478e-36)
(0.00038792214 -0.0015841135 -1.2921528e-21 0.0064902694 5.0825112e-21 4.324439e-36)
(0.00050697475 -0.0019525757 1.0056728e-21 0.0075509714 -3.7415606e-21 1.8326703e-36)
(0.00065876739 -0.0023787422 -1.9016652e-22 0.0086326706 6.662092e-22 4.5989667e-38)
(0.00085140738 -0.0028640357 -9.2223629e-22 0.0096938589 3.0281255e-21 7.6060638e-37)
(0.0010947277 -0.0034076469 2.6743486e-21 0.010687557 -8.1903819e-21 4.5184591e-36)
(0.001400569 -0.0040063511 -4.4892094e-21 0.011566175 1.2760463e-20 9.051396e-36)