/*--------------------------------*- C++ -*----------------------------------*\
  =========                 |
  \\      /  F ield         | OpenFOAM: The Open Source CFD Toolbox
   \\    /   O peration     | Website:  https://openfoam.org
    \\  /    A nd           | Version:  13
     \\/     M anipulation  |
\*---------------------------------------------------------------------------*/
FoamFile
{
    format      ascii;
    class       volScalarField;
    location    "33.697876";
    object      nut;
}
// * * * * * * * * * * * * * * * * * * * * * * * * * * * * * * * * * * * * * //

dimensions      [0 2 -1 0 0 0 0];

internalField   nonuniform List<scalar> 
17140
(
2.4504538e-18
4.7658075e-16
1.2693864e-14
1.2868765e-13
7.782367e-13
3.4478119e-12
1.24491e-11
3.8953132e-11
1.0973457e-10
2.8543387e-10
6.976307e-10
1.622442e-09
3.6240141e-09
7.830156e-09
1.6455245e-08
3.3781779e-08
6.7986101e-08
1.3450721e-07
2.6221858e-07
5.0466151e-07
9.6036573e-07
1.8093859e-06
3.3785793e-06
6.2573959e-06
1.1501412e-05
2.0985557e-05
3.8005039e-05
6.8263889e-05
0.00012140608
0.00021313097
0.00036748535
0.0006179588
0.0010049721
0.0015679089
0.0023333509
0.0033051296
0.0044612314
0.0057577471
0.0071366555
0.0085343251
0.0098892908
0.011148907
0.012274477
0.013232708
0.014011684
0.01467314
0.015223448
0.015676626
0.016066329
0.016422081
0.016766808
0.017116399
0.017480454
0.017868926
0.018294417
0.018752839
0.019210833
0.019608723
0.019866551
0.019957969
0.020058996
0.021050449
0.023033725
0.025295424
0.023524312
2.4232041e-18
4.7128066e-16
1.2552705e-14
1.2725686e-13
7.6958576e-13
3.4094913e-12
1.2310746e-11
3.8520232e-11
1.0851498e-10
2.8226109e-10
6.8987427e-10
1.6043971e-09
3.5836884e-09
7.7429716e-09
1.627187e-08
3.3404901e-08
6.7226536e-08
1.3300164e-07
2.592764e-07
4.9898152e-07
9.4951417e-07
1.7888391e-06
3.3399745e-06
6.1853486e-06
1.1367758e-05
2.0739037e-05
3.7553132e-05
6.7441834e-05
0.0001199272
0.00021051589
0.00036298349
0.00061051008
0.00099329231
0.0015507576
0.0023099176
0.0032753464
0.0044258585
0.0057182534
0.0070949575
0.0084924917
0.0098492956
0.011112392
0.012242582
0.013206351
0.01399069
0.014656213
0.015209394
0.015663665
0.016051772
0.016402086
0.016735542
0.017064723
0.017395501
0.017731667
0.018077138
0.018412007
0.018677486
0.018786506
0.018675021
0.018395288
0.018200979
0.019077855
0.021510799
0.025669391
0.026704012
2.3796681e-18
4.628134e-16
1.2327173e-14
1.2497037e-13
7.5575692e-13
3.3482158e-12
1.2089447e-11
3.7827589e-11
1.0656304e-10
2.7718164e-10
6.774531e-10
1.575492e-09
3.5190763e-09
7.6032458e-09
1.5977921e-08
3.2800661e-08
6.6008574e-08
1.3058725e-07
2.5455824e-07
4.898738e-07
9.3211782e-07
1.755913e-06
3.2781476e-06
6.070062e-06
1.1154148e-05
2.0345665e-05
3.6833482e-05
6.6135965e-05
0.0001175846
0.0002063859
0.00035589334
0.00059880146
0.00097493926
0.0015237511
0.0022728207
0.0032277448
0.0043684889
0.0056528152
0.0070237471
0.0084179962
0.0097738214
0.011037785
0.01217005
0.013136583
0.01392325
0.014589918
0.01514138
0.015591305
0.015971332
0.01630818
0.016620733
0.016918495
0.017202561
0.017472383
0.017725902
0.017926707
0.01799287
0.017829389
0.017383909
0.016732077
0.016144015
0.016559724
0.019109617
0.024120786
0.028377082
2.3194892e-18
4.5110936e-16
1.2015427e-14
1.2180987e-13
7.3664249e-13
3.2635235e-12
1.1783596e-11
3.6870374e-11
1.0386575e-10
2.7016332e-10
6.6029275e-10
1.5355639e-09
3.4298382e-09
7.4102997e-09
1.5572093e-08
3.1966637e-08
6.4327902e-08
1.2725671e-07
2.4805224e-07
4.7732065e-07
9.0815365e-07
1.7105856e-06
3.1931012e-06
5.9116272e-06
1.0860914e-05
1.9806362e-05
3.5848319e-05
6.4351205e-05
0.00011438828
0.00020075951
0.00034624486
0.00058287228
0.00094994605
0.0014868791
0.0022219493
0.0031620497
0.004288625
0.0055606793
0.0069220076
0.0083095691
0.0096613956
0.010923451
0.012055089
0.013021552
0.013806949
0.01447085
0.015015484
0.015454831
0.015819122
0.016133468
0.016414544
0.016668984
0.016894762
0.017090689
0.017253359
0.0173316
0.017225286
0.016822035
0.016073269
0.015054611
0.013981963
0.013515314
0.015610351
0.021282602
0.027481615
2.2431015e-18
4.3625296e-16
1.1619721e-14
1.1779819e-13
7.1238076e-13
3.1560277e-12
1.1395409e-11
3.5655539e-11
1.0044273e-10
2.6125733e-10
6.3851876e-10
1.4849061e-09
3.3166322e-09
7.1655637e-09
1.5057412e-08
3.0909094e-08
6.2197247e-08
1.2303549e-07
2.3980877e-07
4.614207e-07
8.7781324e-07
1.6532273e-06
3.0855477e-06
5.7114113e-06
1.0490673e-05
1.9126116e-05
3.4607085e-05
6.2105199e-05
0.00011037046
0.00019369312
0.00033413059
0.00056285979
0.00091848836
0.0014403218
0.0021574249
0.0030782449
0.0041860406
0.0054413607
0.0067889735
0.008166164
0.0095106944
0.010767772
0.011895648
0.012858591
0.013640527
0.014297311
0.014829509
0.015251985
0.015593459
0.015877457
0.016118691
0.016321294
0.016481763
0.016603868
0.016685159
0.016659992
0.016412895
0.015812893
0.01480821
0.013458089
0.011859603
0.010189571
0.011124116
0.016578528
0.024676797
2.1514058e-18
4.1841939e-16
1.1144717e-14
1.1298263e-13
6.8325748e-13
3.0269944e-12
1.092946e-11
3.4197403e-11
9.6334359e-11
2.5056877e-10
6.123883e-10
1.4241173e-09
3.1807984e-09
6.8719394e-09
1.4439992e-08
2.964063e-08
5.9642081e-08
1.1797427e-07
2.2992732e-07
4.4236716e-07
8.4146837e-07
1.5845479e-06
2.9568347e-06
5.4719583e-06
1.0048206e-05
1.8313862e-05
3.3126361e-05
5.9428365e-05
0.00010558584
0.00018528203
0.0003197079
0.00053900406
0.00088089402
0.0013844661
0.002079624
0.0029766004
0.0040608042
0.0052946553
0.0066241277
0.007986938
0.0093205546
0.01056927
0.011689834
0.012644781
0.013423226
0.014066743
0.014580783
0.014979979
0.015291317
0.015536778
0.015729356
0.015871447
0.015961423
0.016014436
0.016027653
0.01591742
0.015556156
0.014808115
0.013619257
0.012003634
0.0099306289
0.0072547297
0.0063316169
0.010007646
0.019510787
2.045727e-18
3.9786633e-16
1.0597281e-14
1.0743275e-13
6.4969354e-13
2.8782887e-12
1.0392485e-11
3.2517048e-11
9.1600047e-11
2.3825227e-10
5.8227956e-10
1.354078e-09
3.0243053e-09
6.5336865e-09
1.3728804e-08
2.8179704e-08
5.6699667e-08
1.1214707e-07
2.1855297e-07
4.2044104e-07
7.9965823e-07
1.5055737e-06
2.8089021e-06
5.1969146e-06
9.5403287e-06
1.7382268e-05
3.1429518e-05
5.6363351e-05
0.0001001109
0.00017565937
0.00030319813
0.00051164856
0.00083764772
0.0013199184
0.0019892024
0.0028577097
0.0039133273
0.0051206936
0.0064272567
0.0077713058
0.0090900272
0.010326718
0.011436629
0.012380744
0.013147834
0.013775378
0.014265448
0.014634304
0.014907352
0.01510511
0.015239103
0.015311027
0.015326494
0.01531835
0.015277977
0.015097156
0.014657838
0.013813616
0.012503998
0.01061432
0.0083389887
0.0051917302
0.0025532703
0.0036843775
0.010077389
1.9277873e-18
3.749287e-16
9.9863309e-15
1.0123899e-13
6.1223591e-13
2.7123341e-12
9.7932359e-12
3.0641863e-11
8.6316979e-11
2.2450867e-10
5.4868366e-10
1.2759309e-09
2.8497082e-09
6.1563318e-09
1.2935477e-08
2.6550237e-08
5.3418265e-08
1.0564967e-07
2.0587317e-07
3.9600501e-07
7.5307747e-07
1.4176242e-06
2.6442386e-06
4.890944e-06
8.9757319e-06
1.6347433e-05
2.9546162e-05
5.2964038e-05
9.4042113e-05
0.00016499341
0.0002848829
0.00048123637
0.00078939005
0.001247511
0.0018871153
0.0027225254
0.0037444134
0.0049200003
0.0061985122
0.0075189898
0.0088183777
0.010038906
0.011134203
0.012063266
0.012813315
0.013419485
0.013878794
0.01420912
0.014434278
0.014573316
0.01463638
0.01462613
0.014564491
0.014504178
0.013949701
0.013324712
0.013674714
0.01277042
0.011360806
0.0091544109
0.0072350713
0.0035461101
0.0015068586
0.0018284429
0.0043212939
1.799667e-18
3.5001094e-16
9.322636e-15
9.4510541e-14
5.71545e-13
2.5320568e-12
9.142278e-12
2.8604914e-11
8.0578317e-11
2.0958037e-10
5.1219328e-10
1.1910552e-09
2.6600888e-09
5.7465394e-09
1.2074032e-08
2.4781052e-08
4.9855987e-08
9.8597323e-08
1.9211331e-07
3.694946e-07
7.0255922e-07
1.3222793e-06
2.4658178e-06
4.5596079e-06
8.3647529e-06
1.5228455e-05
2.7511323e-05
4.9294058e-05
8.7493353e-05
0.00015348322
0.0002650975
0.00044830193
0.00073691013
0.0011683018
0.0017746301
0.0025723914
0.0035553109
0.0046935617
0.0059384858
0.0072300935
0.0085051512
0.0097047382
0.010780647
0.011689579
0.012416879
0.012994658
0.01341503
0.013696934
0.013862374
0.013928697
0.013904525
0.013797465
0.013658792
0.013303468
0.012176273
0.012104963
0.012526444
0.0115622
0.009885145
0.0076885068
0.0054918728
0.0020270693
0.0011966695
0.0012181908
0.0029763311
1.6637444e-18
3.2357581e-16
8.618527e-15
8.7372393e-14
5.2837671e-13
2.3408055e-12
8.451705e-12
2.6444046e-11
7.4490689e-11
1.9374477e-10
4.7348656e-10
1.1010285e-09
2.458973e-09
5.3119316e-09
1.1160499e-08
2.2905091e-08
4.6079223e-08
9.1121614e-08
1.7753054e-07
3.4140625e-07
6.4905193e-07
1.2213349e-06
2.2770143e-06
4.2092036e-06
7.7190709e-06
1.4046858e-05
2.5364393e-05
4.5424837e-05
8.0592408e-05
0.00014135267
0.00024422151
0.00041345791
0.00068113101
0.0010835638
0.00165333
0.0024090688
0.0033477637
0.0044428992
0.0056482998
0.0069052007
0.0081502794
0.0093233678
0.010374127
0.0112567
0.011955556
0.012495547
0.012867059
0.013088268
0.013179004
0.01315437
0.01302152
0.012804015
0.012591304
0.011505483
0.010859187
0.011508302
0.011116676
0.010020792
0.0080724397
0.006347772
0.0029480857
0.0012956905
0.00088625781
0.00074587415
0.001566087
1.5226265e-18
2.9613028e-16
7.887507e-15
7.9961438e-14
4.835588e-13
2.1422478e-12
7.7347602e-12
2.4200698e-11
6.8170842e-11
1.7730557e-10
4.3330586e-10
1.0075776e-09
2.2502187e-09
4.8608469e-09
1.0212411e-08
2.0958375e-08
4.2160527e-08
8.3366265e-08
1.624055e-07
3.1228124e-07
5.9358859e-07
1.1167444e-06
2.0814921e-06
3.8465557e-06
7.0513144e-06
1.2825863e-05
2.3147774e-05
4.1433138e-05
7.3476577e-05
0.00012884287
0.00022266649
0.00037737711
0.00062308684
0.00099476334
0.0015251041
0.0022347495
0.0031240569
0.0041701475
0.0053297096
0.0065454962
0.0077542154
0.0088943635
0.0099131352
0.010762033
0.011424999
0.011916036
0.012226324
0.012371405
0.012368326
0.012229164
0.011963132
0.011632264
0.011033419
0.01001195
0.01011734
0.010111943
0.0093538357
0.0079276633
0.0062802093
0.0039064362
0.0014256113
0.00090725303
0.00066663927
0.00051763216
0.00086161156
1.3790595e-18
2.6820844e-16
7.1437991e-15
7.2421872e-14
4.3796333e-13
1.9402469e-12
7.0053923e-12
2.1918516e-11
6.1741734e-11
1.6058261e-10
3.9243295e-10
9.1252056e-10
2.0378876e-09
4.4020628e-09
9.2482191e-09
1.8978795e-08
3.8176199e-08
7.5482341e-08
1.4703297e-07
2.8268764e-07
5.3725209e-07
1.0105524e-06
1.8830805e-06
3.4787819e-06
6.3746244e-06
1.1589574e-05
2.0905373e-05
3.7398307e-05
6.6287709e-05
0.00011620346
0.00020086132
0.00034076962
0.00056389147
0.0009035249
0.0013921193
0.0020520514
0.0028870485
0.0038781264
0.0049852127
0.0061528992
0.007318077
0.0084178585
0.0093964425
0.010203028
0.010819966
0.011249181
0.011482727
0.011532359
0.011411517
0.011129544
0.010716611
0.010285211
0.0093663989
0.0090125516
0.0088233184
0.0081704971
0.007134563
0.0056150422
0.0041915057
0.0015509759
0.00083528781
0.00062048227
0.00050867866
0.00044975287
0.00060416088
1.2358157e-18
2.4034945e-16
6.4017667e-15
6.4899313e-14
3.9247095e-13
1.7387044e-12
6.2776873e-12
1.9641573e-11
5.532751e-11
1.4389878e-10
3.5165699e-10
8.1769277e-10
1.8260789e-09
3.944436e-09
8.2865344e-09
1.7004562e-08
3.4203141e-08
6.7622009e-08
1.3170966e-07
2.5319673e-07
4.8113021e-07
9.0481031e-07
1.6856141e-06
3.1129961e-06
5.7021056e-06
1.0361969e-05
1.8680773e-05
3.3398962e-05
5.9166308e-05
0.00010368232
0.00017923481
0.000304355
0.00050469781
0.00081157939
0.0012567686
0.0018639863
0.0026401761
0.0035703984
0.0046181548
0.0057302006
0.0068437771
0.0078945758
0.008823228
0.0095770895
0.01013498
0.010486999
0.010624775
0.010555414
0.010288375
0.0098404112
0.0093028047
0.0087298343
0.008063492
0.0075295381
0.0068163198
0.0059325735
0.0046276049
0.0035998286
0.0014958834
0.00070547721
0.00055210494
0.00046805822
0.00043631722
0.00047195195
0.00055117405
1.095586e-18
2.1307661e-16
5.6753459e-15
5.7535023e-14
3.4793583e-13
1.5414043e-12
5.5653085e-12
1.7412618e-11
4.904859e-11
1.2756728e-10
3.1174332e-10
7.2487384e-10
1.6187672e-09
3.4965523e-09
7.3453971e-09
1.5072699e-08
3.0315844e-08
5.9932595e-08
1.1672268e-07
2.2436077e-07
4.2627333e-07
8.0149581e-07
1.4927836e-06
2.7560303e-06
5.046311e-06
9.1659541e-06
1.6515487e-05
2.950981e-05
5.2245758e-05
9.1515163e-05
0.00015819735
0.00026883091
0.00044664795
0.00072069453
0.0011215903
0.001673889
0.0023874239
0.003251294
0.0042328185
0.0052812059
0.0063341858
0.0073258965
0.0081933155
0.0088817876
0.009364193
0.0096208789
0.0096403415
0.0094249724
0.0089842388
0.0083877368
0.0077668777
0.0071161938
0.0063676462
0.0055468269
0.0046559776
0.0035672481
0.0026589817
0.0011808345
0.00056720329
0.00045606917
0.00039374843
0.00038319704
0.00041705843
0.00049503271
0.00060229525
9.6084107e-19
1.868705e-16
4.9773379e-15
5.0458786e-14
3.0514288e-13
1.3518237e-12
4.8808091e-12
1.5270925e-11
4.3015596e-11
1.1187579e-10
2.7339492e-10
6.3569813e-10
1.4196016e-09
3.0662925e-09
6.4413587e-09
1.3217163e-08
2.6582579e-08
5.254901e-08
1.0233462e-07
1.9668428e-07
3.7363936e-07
7.0240888e-07
1.3079397e-06
2.4140674e-06
4.4185608e-06
8.0221029e-06
1.4446649e-05
2.5797449e-05
4.5644742e-05
7.9912121e-05
0.00013811786
0.00023483566
0.00039081586
0.00063259211
0.00098916326
0.0014853093
0.0021332426
0.0029258892
0.003834476
0.0048108642
0.0057933491
0.0067142947
0.0075071239
0.0081147956
0.0085014454
0.0086425423
0.0085186864
0.0081309325
0.0075213041
0.0068452394
0.0061424626
0.0053573233
0.0044700924
0.0035210456
0.0026295696
0.0017402342
0.00082030989
0.00043084062
0.00036875354
0.00032706594
0.00032891834
0.00037422395
0.00044800237
0.00053834877
0.00067136363
8.3379009e-19
1.6216083e-16
4.3191905e-15
4.3786673e-14
2.6479406e-13
1.1730722e-12
4.2354155e-12
1.3251613e-11
3.7327433e-11
9.7081505e-11
2.3724017e-10
5.5162638e-10
1.2318433e-09
2.6606976e-09
5.5892033e-09
1.146827e-08
2.3064275e-08
4.5591587e-08
8.8779565e-08
1.7061645e-07
3.2408016e-07
6.0914746e-07
1.1340502e-06
2.0925706e-06
3.8288266e-06
6.948475e-06
1.2506737e-05
2.2319917e-05
3.9466441e-05
6.9055846e-05
0.00011931829
0.00020293277
0.00033816972
0.00054887979
0.00086200635
0.0013018844
0.0018824173
0.0025999082
0.0034293558
0.0043253118
0.005226609
0.0060635597
0.0067661976
0.0072732643
0.0075423959
0.0075448661
0.0072549965
0.006688091
0.0059906082
0.0052679525
0.0044682315
0.0035874576
0.0026054016
0.0018824852
0.001058694
0.00052313881
0.00029946236
0.00027932982
0.00026724139
0.00028200484
0.00033077776
0.00040544785
0.00050047311
0.00059537852
0.00069223593
7.1631718e-19
1.39314e-16
3.7106614e-15
3.7617582e-14
2.2748732e-13
1.0077987e-12
3.63869e-12
1.1384597e-11
3.2068352e-11
8.3403483e-11
2.0381421e-10
4.7390246e-10
1.0582686e-09
2.2857619e-09
4.8015158e-09
9.8518253e-09
1.9812781e-08
3.9162703e-08
7.6256582e-08
1.4653918e-07
2.7831942e-07
5.2306797e-07
9.7363177e-07
1.7961645e-06
3.285532e-06
5.9602884e-06
1.0723043e-05
1.9125872e-05
3.3797285e-05
5.9099765e-05
0.00010207143
0.00017360652
0.00028956159
0.00047101423
0.00074248176
0.0011271752
0.0016398622
0.0022795122
0.0030244625
0.0038317315
0.0046404843
0.0053787648
0.0059724486
0.006355347
0.0064865317
0.0063255864
0.0058598414
0.005177363
0.0044702445
0.0036921388
0.0028356447
0.0019244986
0.0013271111
0.00065542275
0.00032194529
0.00019725885
0.00019761838
0.00020861677
0.00023748173
0.00029211092
0.00036365108
0.00045092652
0.00053407006
0.00062021932
0.00073709195
6.0981092e-19
1.1859999e-16
3.1589388e-15
3.2024383e-14
1.936633e-13
8.5795466e-13
3.0976772e-12
9.6919086e-12
2.7300383e-11
7.1002962e-11
1.7351081e-10
4.0344116e-10
9.0091848e-10
1.9458875e-09
4.087528e-09
8.3867311e-09
1.6866015e-08
3.3337058e-08
6.4910504e-08
1.2472928e-07
2.3687929e-07
4.4514319e-07
8.2847542e-07
1.5281094e-06
2.7945449e-06
5.0679893e-06
9.1139739e-06
1.6247472e-05
2.8693182e-05
5.0141318e-05
8.6549684e-05
0.0001471718
0.00024558555
0.00040010646
0.00063254168
0.00096434317
0.0014102281
0.0019708681
0.0026271401
0.0033379172
0.0040421591
0.0046651872
0.0051286805
0.0053641524
0.005337409
0.0049984118
0.0043845304
0.0037078935
0.0030017782
0.0022021456
0.0013987221
0.00086556148
0.00040838169
0.00020206608
0.00012838872
0.00013659906
0.0001584025
0.00019803381
0.00025524207
0.00032457535
0.00038587123
0.00040787714
0.00046743309
0.00062251638
0.00079730232
5.15176e-19
1.0019473e-16
2.6687091e-15
2.7054591e-14
1.6360931e-13
7.2481283e-13
2.6169709e-12
8.1879181e-12
2.3063991e-11
5.998515e-11
1.4658694e-10
3.4083965e-10
7.6112528e-10
1.6439496e-09
3.4532719e-09
7.0853427e-09
1.4248764e-08
2.8163498e-08
5.4836052e-08
1.0536777e-07
2.0010107e-07
3.7600846e-07
6.997493e-07
1.2905271e-06
2.3596745e-06
4.278339e-06
7.691414e-06
1.3705479e-05
2.4190461e-05
4.2244954e-05
7.2870425e-05
0.00012384762
0.00020665074
0.00033691833
0.00053360797
0.00081588589
0.0011974784
0.0016795703
0.002244368
0.0028514996
0.0034388168
0.0039285568
0.0042392755
0.0043139375
0.0041103422
0.0036143873
0.0029773595
0.0023582699
0.0016689368
0.00099244292
0.00052813976
0.00025632547
0.00012823467
8.5457165e-05
9.6291783e-05
0.00012197343
0.0001656802
0.0002247669
0.00029051567
0.00031763846
0.00030770063
0.00034081561
0.00040691549
0.00056473356
0.00081310083
4.3275868e-19
8.4165671e-17
2.2417715e-15
2.2726438e-14
1.374356e-13
6.0886153e-13
2.1983335e-12
6.8781346e-12
1.937468e-11
5.0390312e-11
1.2314081e-10
2.8632577e-10
6.3939631e-10
1.3810396e-09
2.9010286e-09
5.9523101e-09
1.1970303e-08
2.3660147e-08
4.6068003e-08
8.8520211e-08
1.6810629e-07
3.1588515e-07
5.8784931e-07
1.0841104e-06
1.982102e-06
3.5932881e-06
6.4584523e-06
1.150453e-05
2.0295737e-05
3.5420361e-05
6.1050427e-05
0.00010367382
0.00017287555
0.00028178974
0.00044649532
0.00068345098
0.0010044833
0.001409939
0.0018817457
0.0023787082
0.0028365449
0.0031751741
0.0033170149
0.0032249836
0.0028620346
0.0023163578
0.0017695861
0.0012157668
0.00067839644
0.00031821005
0.00015677843
8.2003007e-05
5.8028126e-05
7.0607884e-05
9.7484316e-05
0.00014149495
0.00019959717
0.00026267834
0.00026725056
0.00024845363
0.00025651453
0.00030009018
0.00037631713
0.00054517652
0.00081309454
3.6237065e-19
7.0476183e-17
1.8771499e-15
1.9030031e-14
1.1508231e-13
5.0983536e-13
1.8408055e-12
5.7595512e-12
1.6223961e-11
4.2196308e-11
1.0311814e-10
2.3977275e-10
5.35447e-10
1.1565388e-09
2.4294871e-09
4.9849138e-09
1.0025082e-08
1.9815831e-08
3.858406e-08
7.4142363e-08
1.4080726e-07
2.6459924e-07
4.9242896e-07
9.0816923e-07
1.6604587e-06
3.0101538e-06
5.4099606e-06
9.6351951e-06
1.6992277e-05
2.9637605e-05
5.1037041e-05
8.6564239e-05
0.00014414781
0.00023463399
0.0003712828
0.00056753781
0.00083246034
0.0011640802
0.0015421267
0.0019227986
0.0022394536
0.0024139113
0.0023946451
0.0021509001
0.0017213502
0.0012794376
0.00084321177
0.0004234203
0.00019562073
9.6530149e-05
5.2504539e-05
4.0370679e-05
5.3775072e-05
8.0625244e-05
0.00012392061
0.00017893241
0.0002387711
0.00023467968
0.00021319749
0.00021427774
0.00023135541
0.00027440864
0.00035149417
0.00051082853
0.00079710518
3.032926e-19
5.8986301e-17
1.5711145e-15
1.5927551e-14
9.6320708e-14
4.267207e-13
1.540726e-12
4.82071e-12
1.3579543e-11
3.5319104e-11
8.6313431e-11
2.0070233e-10
4.482081e-10
9.6813431e-10
2.0337804e-09
4.1731442e-09
8.3929112e-09
1.659049e-08
3.230583e-08
6.2082595e-08
1.1791355e-07
2.2159867e-07
4.1244471e-07
7.6073536e-07
1.3910268e-06
2.5218752e-06
4.5324077e-06
8.0713617e-06
1.4230287e-05
2.480696e-05
4.2680426e-05
7.2288038e-05
0.00012010527
0.00019489453
0.00030721039
0.00046722975
0.00068040529
0.00094090638
0.0012243455
0.0014833548
0.0016520641
0.0016730798
0.0015195705
0.0012117809
0.00087704835
0.00055331584
0.00024940751
0.00011652016
6.0203374e-05
3.4602306e-05
2.8978018e-05
4.2419275e-05
6.8527622e-05
0.00010969701
0.00016258186
0.00021839144
0.00021118285
0.00019127025
0.00018627944
0.0001913371
0.0002106315
0.00025609157
0.00033325576
0.00049894194
0.00081150555
2.5425531e-19
4.9449196e-17
1.3170914e-15
1.3352355e-14
8.0747745e-14
3.5773186e-13
1.2916471e-12
4.0414327e-12
1.1384575e-11
2.9610799e-11
7.2365115e-11
1.6827342e-10
3.7580034e-10
8.1176414e-10
1.7053676e-09
3.4994557e-09
7.0384504e-09
1.3914123e-08
2.7096642e-08
5.2077341e-08
9.8922238e-08
1.8593253e-07
3.4611256e-07
6.3848467e-07
1.1676494e-06
2.1171079e-06
3.8049817e-06
6.7749274e-06
1.1939591e-05
2.0796348e-05
3.5728554e-05
6.0375197e-05
9.9971353e-05
0.00016140231
0.00025248707
0.00037990021
0.00054464026
0.0007356529
0.00092355118
0.0010599955
0.0010940755
0.0010018882
0.0007969033
0.00056258288
0.00033736253
0.00014279488
6.9198003e-05
3.7303506e-05
2.3455918e-05
2.1753021e-05
3.4486024e-05
5.9289016e-05
9.798257e-05
0.00014785029
0.00020049835
0.00019296974
0.00017684069
0.00017085184
0.00017010146
0.00017986612
0.000202621
0.0002483127
0.00033089047
0.0005025675
0.00082124542
2.1343514e-19
4.151023e-17
1.1056358e-15
1.1208695e-14
6.7784396e-14
3.0030357e-13
1.0843059e-12
3.392735e-12
9.5573996e-12
2.4858977e-11
6.0753967e-11
1.4127832e-10
3.1552551e-10
6.8159696e-10
1.4319899e-09
2.9386704e-09
5.9109978e-09
1.1686341e-08
2.2760578e-08
4.3749e-08
8.3113368e-08
1.5624085e-07
2.9088422e-07
5.3667534e-07
9.8155597e-07
1.779715e-06
3.1981335e-06
5.692036e-06
1.002259e-05
1.7430374e-05
2.9868672e-05
5.0267621e-05
8.2720211e-05
0.00013233049
0.00020425981
0.00030125662
0.00041921527
0.00054162762
0.00063685157
0.00066704495
0.00061319221
0.00048491948
0.00033454933
0.00018642019
8.0297795e-05
4.0563642e-05
2.3341445e-05
1.6303357e-05
1.688878e-05
2.8905208e-05
5.1550588e-05
8.7783806e-05
0.00013386249
0.00018434735
0.00017726956
0.00016778801
0.00016323391
0.00016097096
0.00016411462
0.00017536401
0.00019845767
0.0002457257
0.0003280664
0.00049540228
0.00082410997
1.7851568e-19
3.4718883e-17
9.2474731e-16
9.3749095e-15
5.6694894e-14
2.5117607e-13
9.0693185e-13
2.8377848e-12
7.9942488e-12
2.0793688e-11
5.0820085e-11
1.1818196e-10
2.639537e-10
5.7021889e-10
1.1980582e-09
2.458762e-09
4.9460416e-09
9.7793594e-09
1.9048154e-08
3.66165e-08
6.9569225e-08
1.3078922e-07
2.4350825e-07
4.4925487e-07
8.2154946e-07
1.4890959e-06
2.6741541e-06
4.7540109e-06
8.35492e-06
1.4485472e-05
2.4703014e-05
4.1268896e-05
6.7165979e-05
0.00010571351
0.0001592999
0.00022660958
0.00029888124
0.0003572773
0.0003775234
0.00034659056
0.0002714931
0.0001806727
9.46958e-05
4.3304025e-05
2.3414801e-05
1.4872547e-05
1.1583564e-05
1.3566526e-05
2.441966e-05
4.515227e-05
7.8536573e-05
0.00012106535
0.00016937431
0.00016530366
0.00016122918
0.00015976391
0.00015719684
0.00015788633
0.00016248086
0.00017528577
0.00020003801
0.00024661606
0.00032949796
0.00050511624
0.00084730581
1.4697909e-19
2.858545e-17
7.6138205e-16
7.7187585e-15
4.6679494e-14
2.0680611e-13
7.4673045e-13
2.3365441e-12
6.5823174e-12
1.7121455e-11
4.1845997e-11
9.7315152e-11
2.1735473e-10
4.6956532e-10
9.8661099e-10
2.0248729e-09
4.0733377e-09
8.0539741e-09
1.5687436e-08
3.015516e-08
5.7288273e-08
1.0768366e-07
2.0043233e-07
3.6960928e-07
6.7539745e-07
1.2227699e-06
2.1919912e-06
3.8864143e-06
6.802771e-06
1.1723922e-05
1.9816484e-05
3.2673672e-05
5.2167306e-05
7.9804787e-05
0.00011521748
0.00015393629
0.00018566996
0.00019680086
0.00017964704
0.00013906197
8.8752565e-05
4.6444877e-05
2.273019e-05
1.3476667e-05
9.4696895e-06
8.6123972e-06
1.0893457e-05
2.0769815e-05
3.9417476e-05
7.0114668e-05
0.00010965368
0.00015563312
0.00015611071
0.00015546
0.00015619452
0.00015541067
0.00015554457
0.0001582669
0.00016488685
0.00017889052
0.00020283679
0.0002504156
0.00033642978
0.0005119458
0.000853275
1.1674109e-19
2.2704564e-17
6.0474307e-16
6.1307854e-15
3.7076233e-14
1.6426087e-13
5.9311129e-13
1.8558723e-12
5.2282295e-12
1.3599338e-11
3.3237731e-11
7.7295919e-11
1.7263984e-10
3.7295746e-10
7.8359884e-10
1.6081257e-09
3.2346856e-09
6.3948392e-09
1.2453112e-08
2.3930379e-08
4.5441497e-08
8.5358471e-08
1.5872649e-07
2.9230328e-07
5.3310533e-07
9.6253119e-07
1.7188455e-06
3.030974e-06
5.2646046e-06
8.9739987e-06
1.4933192e-05
2.4071819e-05
3.7169257e-05
5.4123348e-05
7.2784111e-05
8.8070006e-05
9.3234866e-05
8.470462e-05
6.453462e-05
3.9406352e-05
2.1218885e-05
1.174072e-05
7.7045967e-06
6.3210221e-06
6.2875674e-06
9.0889911e-06
1.7527265e-05
3.5009076e-05
6.468383e-05
0.00010179758
0.0001445163
0.00014803243
0.00014889155
0.00015178762
0.00015264511
0.00015406704
0.00015593088
0.00016071526
0.00016840974
0.00018318173
0.00020863016
0.00025739594
0.00034157851
0.00051793686
0.00086714089
8.7059695e-20
1.6931931e-17
4.5098689e-16
4.5720249e-15
2.7649487e-14
1.2249652e-13
4.4230593e-13
1.3839798e-12
3.8987791e-12
1.0140985e-11
2.4784294e-11
5.7633735e-11
1.2871388e-10
2.7803077e-10
5.8405786e-10
1.198346e-09
2.4096597e-09
4.7616961e-09
9.2671508e-09
1.7793288e-08
3.3749285e-08
6.3297094e-08
1.17454e-07
2.1567664e-07
3.9181924e-07
7.0369315e-07
1.2475861e-06
2.1783735e-06
3.7326449e-06
6.2431296e-06
1.0112137e-05
1.568251e-05
2.2915667e-05
3.0874419e-05
3.7338508e-05
3.9371887e-05
3.5545727e-05
2.6555159e-05
1.6364597e-05
9.5299599e-06
5.8982302e-06
4.5964704e-06
4.1934659e-06
4.8614906e-06
7.4140393e-06
1.5327227e-05
3.2663494e-05
5.9494072e-05
9.3507657e-05
0.00013098612
0.00014069904
0.00014247399
0.00014622557
0.00014848779
0.00015047511
0.00015311258
0.00015700671
0.00016338443
0.00017281274
0.00018953535
0.00021528623
0.00026370304
0.00034958408
0.00053147083
0.00088379109
5.9112799e-20
1.1496633e-17
3.0621548e-16
3.1043426e-15
1.8773454e-14
8.3171453e-14
3.0030539e-13
9.3962557e-13
2.6468627e-12
6.8841626e-12
1.6822976e-11
3.9114779e-11
8.733814e-11
1.8860553e-10
3.9605763e-10
8.1221226e-10
1.6321229e-09
3.2223214e-09
6.2636961e-09
1.2007192e-08
2.2725651e-08
4.2500186e-08
7.8562733e-08
1.4352985e-07
2.5898611e-07
4.6092045e-07
8.0723752e-07
1.3863404e-06
2.3223407e-06
3.7650371e-06
5.8406093e-06
8.5305288e-06
1.1478771e-05
1.3852459e-05
1.4545087e-05
1.3077518e-05
9.77384e-06
6.4053593e-06
4.1773287e-06
3.0954365e-06
2.7524579e-06
2.9771473e-06
3.7028872e-06
6.318899e-06
1.4479756e-05
3.0000198e-05
5.4847974e-05
8.5670183e-05
0.00011938874
0.00013443677
0.00013596375
0.00013966329
0.00014211778
0.0001449853
0.00014814798
0.00015279963
0.00015818714
0.00016650217
0.00017761048
0.00019550631
0.00022190365
0.00027268514
0.00035851278
0.00053932628
0.00089116467
3.5437923e-20
6.8921859e-18
1.835742e-16
1.8610144e-15
1.1254241e-14
4.9857808e-14
1.8001216e-13
5.632015e-13
1.5863453e-12
4.1253173e-12
1.0079194e-11
2.3428785e-11
5.2294719e-11
1.1287537e-10
2.3687685e-10
4.8535447e-10
9.7418967e-10
1.9204252e-09
3.7254813e-09
7.1225254e-09
1.3433166e-08
2.5005389e-08
4.5940462e-08
8.3253768e-08
1.4862325e-07
2.6077557e-07
4.4814493e-07
7.5032929e-07
1.2145016e-06
1.8792672e-06
2.7363996e-06
3.6708661e-06
4.4181205e-06
4.6222501e-06
4.1895395e-06
3.3170573e-06
2.4791279e-06
1.890513e-06
1.6416648e-06
1.8020913e-06
2.1117124e-06
3.016496e-06
5.9853628e-06
1.3602103e-05
2.7553652e-05
5.0484263e-05
7.866856e-05
0.00010946187
0.00012833696
0.00012890272
0.00013226969
0.00013483391
0.00013810156
0.00014215685
0.00014672767
0.00015236374
0.0001593431
0.00016933662
0.00018193424
0.00020177323
0.00022973121
0.00028085168
0.00036509373
0.00055196632
0.00090323584
1.8282228e-20
3.555636e-18
9.4704148e-17
9.6006312e-16
5.8056788e-15
2.571867e-14
9.2850533e-14
2.9046806e-13
8.1801996e-13
2.1268064e-12
5.1947516e-12
1.2070066e-11
2.6926262e-11
5.80756e-11
1.2175473e-10
2.4914385e-10
4.9920457e-10
9.8182908e-10
1.898936e-09
3.6161077e-09
6.7846786e-09
1.2543735e-08
2.2840797e-08
4.0910169e-08
7.1915278e-08
1.2364314e-07
2.0683404e-07
3.3411858e-07
5.1564571e-07
7.491013e-07
1.004619e-06
1.2143206e-06
1.2973494e-06
1.251501e-06
1.1323386e-06
9.9061055e-07
9.2315492e-07
9.7688296e-07
1.1948513e-06
1.6749123e-06
2.782513e-06
5.7952639e-06
1.2449652e-05
2.5181614e-05
4.6549841e-05
7.2368628e-05
0.00010036044
0.00012198813
0.00012137228
0.00012466083
0.00012719367
0.0001305386
0.00013462288
0.00013942216
0.00014471091
0.0001519105
0.00016032377
0.00017193125
0.00018637667
0.00020804773
0.00023644609
0.00028924403
0.00037465028
0.00056349841
0.00090675723
8.0390607e-21
1.563481e-18
4.1642795e-17
4.2214354e-16
2.5526685e-15
1.130731e-14
4.081773e-14
1.2767188e-13
3.5947197e-13
9.343209e-13
2.2811341e-12
5.2972359e-12
1.1808245e-11
2.5442691e-11
5.3268773e-11
1.0881013e-10
2.1751519e-10
4.2650788e-10
8.216324e-10
1.5565426e-09
2.9008326e-09
5.3163481e-09
9.5707717e-09
1.6889938e-08
2.9123366e-08
4.8831808e-08
7.9077371e-08
1.2252585e-07
1.7943927e-07
2.4475533e-07
3.0673082e-07
3.5602193e-07
3.9444275e-07
4.3064211e-07
4.6445136e-07
5.0727471e-07
6.5788163e-07
9.5267072e-07
1.5367843e-06
2.718342e-06
5.434178e-06
1.1273777e-05
2.2965643e-05
4.2775981e-05
6.6314994e-05
9.1789657e-05
0.00011614803
0.00011445917
0.0001172636
0.00011950776
0.00012255085
0.00012641712
0.00013113502
0.00013673857
0.00014331196
0.00015148091
0.00016111546
0.00017438588
0.00019022066
0.00021347165
0.00024353109
0.00029778354
0.00038140473
0.00057395253
0.00090984544
3.1877297e-21
6.1996587e-19
1.651241e-17
1.6738627e-16
1.0121255e-15
4.4829904e-15
1.6181178e-14
5.0604439e-14
1.4245025e-13
3.7013791e-13
9.0332005e-13
2.0965446e-12
4.670118e-12
1.0052999e-11
2.1021846e-11
4.2872096e-11
8.5526706e-11
1.6726045e-10
3.2113007e-10
6.0576939e-10
1.122861e-09
2.0440147e-09
3.6491052e-09
6.3745118e-09
1.0860016e-08
1.7964626e-08
2.869868e-08
4.402359e-08
6.4441167e-08
8.9896054e-08
1.2029093e-07
1.5614513e-07
2.0637805e-07
2.7418318e-07
3.7063931e-07
5.5979888e-07
8.9375594e-07
1.4728533e-06
2.5828166e-06
4.9590436e-06
1.0145681e-05
2.1128889e-05
3.9354408e-05
6.0785806e-05
8.424386e-05
0.00011031351
0.00010777869
0.00011002123
0.00011180052
0.00011448566
0.00011794267
0.0001224927
0.0001279343
0.00013425774
0.00014138383
0.00015074315
0.00016174237
0.00017635042
0.00019375465
0.00021900329
0.00024997924
0.00030516752
0.00038945003
0.0005862017
0.00090906195
1.5158525e-21
2.9481076e-19
7.852109e-18
7.9596985e-17
4.8129746e-16
2.1318273e-15
7.6949125e-15
2.4065688e-14
6.7748439e-14
1.7605215e-13
4.2971783e-13
9.9756674e-13
2.2228385e-12
4.7872204e-12
1.0017492e-11
2.0450024e-11
4.085408e-11
8.0057013e-11
1.541422e-10
2.9193835e-10
5.4421396e-10
9.9861973e-10