/*--------------------------------*- C++ -*----------------------------------*\
  =========                 |
  \\      /  F ield         | OpenFOAM: The Open Source CFD Toolbox
   \\    /   O peration     | Website:  https://openfoam.org
    \\  /    A nd           | Version:  13
     \\/     M anipulation  |
\*---------------------------------------------------------------------------*/
FoamFile
{
    format      ascii;
    class       volScalarField;
    location    "4.899308";
    object      yPlus;
}
// * * * * * * * * * * * * * * * * * * * * * * * * * * * * * * * * * * * * * //

dimensions      [];

internalField   uniform 0;

boundaryField
{
    inlet
    {
        type            calculated;
        value           uniform 0;
    }
    outlet
    {
        type            calculated;
        value           uniform 0;
    }
    cylinder
    {
        type            calculated;
        value           nonuniform List<scalar> 
132
(
5.9422891e-07
5.905371e-07
5.8163979e-07
5.6736551e-07
5.4777342e-07
5.2283745e-07
4.9292342e-07
4.5863357e-07
4.2068342e-07
3.7991486e-07
3.3733043e-07
2.9405256e-07
2.5127695e-07
2.102363e-07
1.7207105e-07
1.3774892e-07
1.079574e-07
8.2989117e-08
6.276589e-08
4.685818e-08
3.4680071e-08
2.5662289e-08
1.9544533e-08
1.6466419e-08
1.6056089e-08
1.7013512e-08
1.7280914e-08
1.5699521e-08
1.2580192e-08
9.144785e-09
6.3098468e-09
4.580386e-09
4.1952573e-09
4.7212709e-09
5.7770704e-09
7.2023399e-09
9.0151181e-09
1.1280111e-08
1.4040574e-08
1.7356697e-08
2.1358267e-08
2.6142819e-08
3.1269614e-08
3.6650236e-08
4.2134055e-08
4.759018e-08
5.2915824e-08
5.8043963e-08
6.2924484e-08
6.7532585e-08
7.1849656e-08
7.5881597e-08
7.9616462e-08
8.3053895e-08
8.6236831e-08
8.9104183e-08
9.1729722e-08
9.4060081e-08
9.6148643e-08
9.7939261e-08
9.9490615e-08
1.0078327e-07
1.0182288e-07
1.0260827e-07
1.0314805e-07
1.0342977e-07
5.9265661e-07
5.8586344e-07
5.7395879e-07
5.5675264e-07
5.3433679e-07
5.068704e-07
4.7485141e-07
4.3894842e-07
3.9988333e-07
3.5854484e-07
3.1595224e-07
2.7322879e-07
2.3155526e-07
1.9210731e-07
1.5593371e-07
1.2387062e-07
9.6423671e-08
7.3720039e-08
5.5536439e-08
4.1361182e-08
3.0615418e-08
2.2812111e-08
1.7913082e-08
1.5968296e-08
1.630462e-08
1.7310889e-08
1.6995275e-08
1.4725167e-08
1.1379443e-08
8.0899828e-09
5.5987917e-09
4.3154295e-09
4.2901183e-09
5.0027909e-09
6.1752638e-09
7.7013434e-09
9.6335038e-09
1.202527e-08
1.4921752e-08
1.837793e-08
2.2511274e-08
2.7411058e-08
3.261573e-08
3.8039033e-08
4.3527968e-08
4.8959726e-08
5.4242349e-08
5.93117e-08
6.4126058e-08
6.8663939e-08
7.2907998e-08
7.6871185e-08
8.0533773e-08
8.3885982e-08
8.7010952e-08
8.979943e-08
9.2360095e-08
9.4616251e-08
9.6643282e-08
9.8358586e-08
9.9851254e-08
1.0107324e-07
1.0204824e-07
1.0276715e-07
1.0323372e-07
1.0345224e-07
)
;
    }
    frontAndBack
    {
        type            empty;
    }
}


// ************************************************************************* //
