/*--------------------------------*- C++ -*----------------------------------*\
  =========                 |
  \\      /  F ield         | OpenFOAM: The Open Source CFD Toolbox
   \\    /   O peration     | Website:  https://openfoam.org
    \\  /    A nd           | Version:  13
     \\/     M anipulation  |
\*---------------------------------------------------------------------------*/
FoamFile
{
    format      ascii;
    class       volScalarField;
    location    "43.603753";
    object      pPrime2Mean;
}
// * * * * * * * * * * * * * * * * * * * * * * * * * * * * * * * * * * * * * //

dimensions      [0 4 -4 0 0 0 0];

internalField   nonuniform List<scalar> 
17140
(
7114.2939
7114.294
7114.294
7114.2938
7114.2934
7114.2927
7114.2918
7114.2905
7114.2887
7114.2864
7114.2834
7114.2796
7114.2746
7114.2683
7114.2603
7114.2501
7114.2371
7114.2205
7114.1994
7114.1725
7114.138
7114.0939
7114.0372
7113.9646
7113.8714
7113.7521
7113.5995
7113.4048
7113.1576
7112.8447
7112.4502
7111.9543
7111.3333
7110.5581
7109.5934
7108.3973
7106.92
7105.1036
7102.8809
7100.1753
7096.8993
7092.9542
7088.2288
7082.5983
7075.9238
7068.0509
7058.81
7048.0148
7035.462
7020.9302
7004.1793
6984.9494
6962.9597
6937.9074
6909.4654
6877.2818
6840.9745
6800.1334
6754.3076
6703.0211
6645.7375
6581.9058
6510.8796
6432.0402
6344.6318
7114.4711
7114.4712
7114.4712
7114.471
7114.4706
7114.4699
7114.469
7114.4677
7114.4659
7114.4635
7114.4605
7114.4566
7114.4515
7114.4451
7114.437
7114.4266
7114.4133
7114.3965
7114.3751
7114.3477
7114.3128
7114.2681
7114.2109
7114.1377
7114.044
7113.9242
7113.7713
7113.5766
7113.3295
7113.0171
7112.6232
7112.1282
7111.5082
7110.734
7109.7705
7108.5755
7107.0995
7105.2844
7103.0633
7100.3594
7097.0855
7093.1428
7088.4203
7082.7931
7076.1223
7068.2537
7059.0176
7048.2277
7035.6807
7021.1554
7004.4121
6985.1909
6963.2111
6938.1701
6909.7409
6877.5718
6841.2809
6800.458
6754.6528
6703.3893
6646.132
6582.3306
6511.3387
6432.5379
6345.1671
7114.9099
7114.91
7114.9099
7114.9097
7114.9093
7114.9086
7114.9075
7114.9061
7114.9042
7114.9018
7114.8986
7114.8944
7114.8891
7114.8824
7114.8739
7114.863
7114.8493
7114.8318
7114.8097
7114.7815
7114.7456
7114.7
7114.6418
7114.5676
7114.4731
7114.3526
7114.1993
7114.0046
7113.7581
7113.4466
7113.0541
7112.5608
7111.9428
7111.1707
7110.2093
7109.0166
7107.5431
7105.7309
7103.5131
7100.8132
7097.5441
7093.6072
7088.8914
7083.2722
7076.6106
7068.7525
7059.5281
7048.7511
7036.2184
7021.7094
7004.9847
6985.7849
6963.8296
6938.8165
6910.4192
6878.2863
6842.0361
6801.259
6755.505
6704.2989
6647.1057
6583.3765
6512.4654
6433.7559
6346.4757
7115.6198
7115.6198
7115.6198
7115.6195
7115.619
7115.6182
7115.6171
7115.6156
7115.6135
7115.6109
7115.6074
7115.603
7115.5973
7115.5902
7115.5811
7115.5697
7115.5553
7115.537
7115.514
7115.4849
7115.448
7115.4013
7115.3421
7115.2671
7115.1718
7115.051
7114.8977
7114.7035
7114.458
7114.148
7113.7573
7113.2664
7112.6508
7111.8814
7110.923
7109.7336
7108.2638
7106.4559
7104.2434
7101.5499
7098.2884
7094.3606
7089.6558
7084.0494
7077.4026
7069.5613
7060.3555
7049.5992
7037.0898
7022.6073
7005.913
6986.7482
6964.833
6939.8657
6911.5205
6879.4467
6843.2633
6802.561
6756.8908
6705.7781
6648.6891
6585.0761
6514.295
6435.7325
6348.5986
7116.6109
7116.6109
7116.6108
7116.6105
7116.61
7116.6091
7116.6079
7116.6062
7116.6041
7116.6012
7116.5975
7116.5928
7116.5869
7116.5794
7116.5699
7116.5579
7116.5429
7116.524
7116.5002
7116.4704
7116.4327
7116.3853
7116.3254
7116.2498
7116.1543
7116.0335
7115.8807
7115.6875
7115.4433
7115.1351
7114.7466
7114.2581
7113.6453
7112.8791
7111.9242
7110.7389
7109.2741
7107.4723
7105.2671
7102.5823
7099.3314
7095.4164
7090.7266
7085.138
7078.5117
7070.6934
7061.5134
7050.786
7038.3093
7023.8641
7007.2127
6988.0973
6966.2388
6941.3363
6913.0648
6881.0744
6844.9849
6804.3881
6758.8356
6707.8542
6650.9115
6587.4614
6516.8625
6438.5061
6351.578
7117.8935
7117.8935
7117.8934
7117.8931
7117.8925
7117.8916
7117.8903
7117.8885
7117.8863
7117.8833
7117.8795
7117.8746
7117.8685
7117.8608
7117.851
7117.8388
7117.8235
7117.8043
7117.7803
7117.7501
7117.7122
7117.6646
7117.6047
7117.5292
7117.4341
7117.3139
7117.1622
7116.9703
7116.7278
7116.4215
7116.0353
7115.5494
7114.9395
7114.1767
7113.2259
7112.0456
7110.587
7108.7929
7106.597
7103.9236
7100.6864
7096.7878
7092.1176
7086.5518
7079.9515
7072.1627
7063.0158
7052.3259
7039.8917
7025.4954
7008.9002
6989.8495
6968.0653
6943.2475
6915.0723
6883.191
6847.2243
6806.7648
6761.366
6710.5554
6653.8033
6590.565
6520.2036
6442.1161
6355.4577
7119.4814
7119.4814
7119.4812
7119.4808
7119.4802
7119.4793
7119.478
7119.4762
7119.4739
7119.4709
7119.4671
7119.4622
7119.4561
7119.4483
7119.4386
7119.4264
7119.4112
7119.3921
7119.3682
7119.3382
7119.3007
7119.2535
7119.1943
7119.1196
7119.0254
7118.9065
7118.7561
7118.5659
7118.3253
7118.0211
7117.6372
7117.1539
7116.547
7115.7879
7114.8417
7113.6673
7112.2161
7110.4312
7108.2467
7105.5872
7102.3669
7098.4886
7093.8424
7088.3044
7081.7361
7073.9834
7064.8774
7054.2338
7041.8528
7027.5175
7010.9926
6992.0228
6970.3312
6945.6192
6917.5642
6885.8187
6850.0047
6809.7163
6764.5084
6713.9104
6657.3951
6594.4205
6524.3554
6446.603
6360.2826
7121.3901
7121.3901
7121.3899
7121.3896
7121.3889
7121.388
7121.3867
7121.3849
7121.3827
7121.3797
7121.376
7121.3713
7121.3653
7121.3577
7121.3483
7121.3364
7121.3215
7121.3029
7121.2796
7121.2504
7121.2137
7121.1676
7121.1095
7121.0361
7120.9434
7120.8261
7120.6774
7120.4891
7120.2504
7119.9483
7119.5666
7119.0858
7118.4821
7117.7269
7116.7859
7115.6182
7114.1755
7112.4013
7110.2301
7107.5871
7104.3869
7100.5326
7095.9149
7090.41
7083.8794
7076.1697
7067.1127
7056.5252
7044.2085
7029.9472
7013.5075
6994.6355
6973.0561
6948.472
6920.5621
6888.9803
6853.3504
6813.2681
6768.2904
6717.9487
6661.719
6599.0629
6529.3558
6452.0083
6366.0977
7123.6382
7123.6382
7123.638
7123.6376
7123.6369
7123.636
7123.6348
7123.6331
7123.6309
7123.6281
7123.6245
7123.6199
7123.6142
7123.607
7123.5979
7123.5866
7123.5723
7123.5544
7123.532
7123.5038
7123.4682
7123.4234
7123.3667
7123.2949
7123.2039
7123.0882
7122.9414
7122.7548
7122.518
7122.2178
7121.8383
7121.36
7120.7596
7120.0086
7119.0732
7117.9129
7116.4797
7114.7177
7112.5619
7109.9378
7106.7608
7102.9344
7098.3494
7092.8826
7086.3957
7078.7361
7069.7367
7059.2155
7046.975
7032.8014
7016.4625
6997.7065
6976.2596
6951.8266
6924.0878
6892.6991
6857.2861
6817.4465
6772.74
6722.6999
6666.8071
6604.5273
6535.2432
6458.3738
6372.9502
7126.2453
7126.2453
7126.2451
7126.2447
7126.244
7126.2432
7126.2419
7126.2403
7126.2382
7126.2355
7126.2321
7126.2278
7126.2223
7126.2154
7126.2068
7126.1959
7126.1822
7126.1651
7126.1435
7126.1162
7126.0818
7126.0382
7125.9829
7125.9125
7125.823
7125.7088
7125.5635
7125.3784
7125.1432
7124.8447
7124.4672
7123.9915
7123.3944
7122.648
7121.7187
7120.5665
7119.1439
7117.3955
7115.2568
7112.6542
7109.5032
7105.7082
7101.1603
7095.7365
7089.2994
7081.6973
7072.7646
7062.3203
7050.1685
7036.097
7019.8755
7001.2542
6979.9616
6955.7038
6928.1635
6896.9985
6861.8365
6822.2777
6777.8847
6728.1948
6672.6938
6610.8513
6542.0588
6465.7444
6380.887
7129.229
7129.229
7129.2287
7129.2283
7129.2277
7129.2269
7129.2257
7129.2241
7129.2221
7129.2195
7129.2162
7129.212
7129.2068
7129.2002
7129.1918
7129.1814
7129.1682
7129.1517
7129.1308
7129.1043
7129.0707
7129.0281
7128.9738
7128.9044
7128.8159
7128.7029
7128.5586
7128.3746
7128.1406
7127.8436
7127.4681
7126.995
7126.4015
7125.66
7124.7374
7123.594
7122.1831
7120.4496
7118.33
7115.751
7112.6291
7108.8689
7104.362
7098.9862
7092.605
7085.0682
7076.2114
7065.8552
7053.8052
7039.8509
7023.7643
7005.2979
6984.1819
6960.125
6932.8117
6901.9022
6867.027
6827.7892
6783.7552
6734.4668
6679.415
6618.0741
6549.8435
6474.1632
6389.956
7132.6053
7132.6052
7132.605
7132.6046
7132.604
7132.6031
7132.6019
7132.6004
7132.5984
7132.5958
7132.5926
7132.5885
7132.5833
7132.5768
7132.5687
7132.5584
7132.5455
7132.5292
7132.5086
7132.4825
7132.4493
7132.4071
7132.3532
7132.2844
7132.1964
7132.0839
7131.9402
7131.757
7131.5239
7131.2282
7130.8547
7130.3845
7129.795
7129.059
7128.1438
7127.0102
7125.6121
7123.8951
7121.7963
7119.2434
7116.1532
7112.431
7107.9692
7102.6464
7096.3276
7088.864
7080.0928
7069.8363
7057.9017
7044.0807
7028.1477
7009.8571
6988.9416
6965.1121
6938.0556
6907.4351
6872.8843
6834.0098
6790.3825
6741.549
6687.006
6626.2324
6558.6382
6483.6754
6400.2046
7136.3855
7136.3854
7136.3851
7136.3847
7136.3841
7136.3832
7136.382
7136.3804
7136.3784
7136.3758
7136.3726
7136.3684
7136.3633
7136.3568
7136.3486
7136.3383
7136.3254
7136.3091
7136.2885
7136.2624
7136.2292
7136.187
7136.1331
7136.0643
7135.9764
7135.864
7135.7206
7135.5379
7135.3057
7135.0116
7134.6404
7134.1735
7133.5887
7132.8589
7131.952
7130.8294
7129.4453
7127.7465
7125.6707
7123.1462
7120.0905
7116.4097
7111.997
7106.7325
7100.4828
7093.1007
7084.4252
7074.2805
7062.4758
7048.8051
7033.045
7014.9521
6994.2617
6970.6872
6943.9187
6913.6223
6879.4351
6840.968
6797.797
6749.4743
6695.5025
6635.3663
6568.4844
6494.3265
6411.6816
7140.5791
7140.579
7140.5787
7140.5783
7140.5776
7140.5767
7140.5755
7140.5739
7140.5718
7140.5692
7140.5658
7140.5616
7140.5564
7140.5498
7140.5415
7140.5311
7140.518
7140.5015
7140.4806
7140.4543
7140.4208
7140.3783
7140.3241
7140.255
7140.1669
7140.0545
7139.9114
7139.7294
7139.4984
7139.2063
7138.838
7138.3752
7137.7959
7137.0734
7136.176
7135.0656
7133.6973
7132.0186
7129.9678
7127.4742
7124.4559
7120.8199
7116.4607
7111.2602
7105.0867
7097.7951
7089.2261
7079.206
7067.5465
7054.0436
7038.4763
7020.6038
7000.164
6976.8733
6950.4251
6920.4892
6886.7069
6848.6935
6806.0312
6758.2773
6704.9422
6645.5136
6579.4248
6506.1613
6424.4341
7145.196
7145.1959
7145.1957
7145.1952
7145.1945
7145.1936
7145.1923
7145.1906
7145.1885
7145.1858
7145.1824
7145.1781
7145.1727
7145.1659
7145.1574
7145.1468
7145.1334
7145.1166
7145.0955
7145.0688
7145.0349
7144.992
7144.9375
7144.8682
7144.7801
7144.6679
7144.5253
7144.3444
7144.1152
7143.8257
7143.4609
7143.0031
7142.4304
7141.7164
7140.8298
7139.7332
7138.3826
7136.726
7134.7027
7132.2426
7129.2648
7125.6774
7121.3767
7116.2463
7110.1567
7102.965
7094.5139
7084.632
7073.1332
7059.8164
7044.4627
7026.8339
7006.671
6983.6939
6957.6
6928.0626
6894.7276
6857.2166
6815.1174
6767.9931
6715.3605
6656.7151
6591.5003
6519.2246
6438.5097
7150.2481
7150.2479
7150.2477
7150.2472
7150.2465
7150.2455
7150.2442
7150.2425
7150.2404
7150.2376
7150.2341
7150.2297
7150.2242
7150.2174
7150.2087
7150.1979
7150.1844
7150.1674
7150.146
7150.119
7150.0849
7150.0418
7149.9872
7149.9179
7149.8299
7149.7183
7149.5767
7149.3974
7149.1706
7148.8844
7148.5242
7148.0723
7147.507
7146.8027
7145.9285
7144.8475
7143.5164
7141.8841
7139.8907
7137.4669
7134.5331
7130.9986
7126.7617
7121.7081
7115.7108
7108.6289
7100.3075
7090.5777
7079.2562
7066.144
7051.0251
7033.6641
7013.8054
6991.1732
6965.4682
6936.3685
6903.5263
6866.5684
6825.0886
6778.6561
6726.7957
6669.0086
6604.7525
6533.5599
6453.9547
7155.7507
7155.7506
7155.7503
7155.7499
7155.7492
7155.7482
7155.7469
7155.7452
7155.743
7155.7402
7155.7367
7155.7323
7155.7267
7155.7198
7155.7111
7155.7002
7155.6865
7155.6694
7155.6479
7155.6208
7155.5867
7155.5436
7155.4891
7155.4202
7155.3328
7155.2222
7155.0821
7154.9049
7154.6811
7154.3988
7154.0439
7153.5986
7153.0419
7152.3484
7151.4877
7150.424
7149.1144
7147.5086
7145.5477
7143.1633
7140.2771
7136.8003
7132.6331
7127.6637
7121.7673
7114.8057
7106.6263
7097.0632
7085.9355
7073.0472
7058.1849
7041.1165
7021.5906
6999.3349
6974.0551
6945.435
6913.1324
6876.7794
6835.9774
6790.3012
6739.2835
6682.4333
6619.2221
6549.2111
6470.8153
7161.7216
7161.7215
7161.7212
7161.7207
7161.72
7161.7191
7161.7178
7161.7161
7161.7139
7161.7111
7161.7076
7161.7032
7161.6976
7161.6907
7161.682
7161.6711
7161.6575
7161.6404
7161.619
7161.592
7161.5581
7161.5153
7161.4613
7161.393
7161.3066
7161.1974
7161.0592
7160.8845
7160.664
7160.3862
7160.037
7159.599
7159.0516
7158.3699
7157.5243
7156.4793
7155.1929
7153.6158
7151.69
7149.3482
7146.5138
7143.0998
7139.0088
7134.1312
7128.345
7121.5142
7113.4896
7104.1078
7093.1911
7080.5463
7065.9633
7049.2135
7030.0493
7008.2031
6983.3869
6955.2897
6923.5743
6887.881
6847.8163
6802.9623
6752.8601
6697.0264
6634.9493
6566.221
6489.1365
7168.1779
7168.1778
7168.1776
7168.1771
7168.1765
7168.1755
7168.1743
7168.1726
7168.1705
7168.1677
7168.1643
7168.1599
7168.1544
7168.1476
7168.139
7168.1282
7168.1147
7168.0978
7168.0766
7168.05
7168.0165
7167.9743
7167.9211
7167.8538
7167.7688
7167.6612
7167.5253
7167.3536
7167.1369
7166.8639
7166.5208
7166.0907
7165.5534
7164.8845
7164.055
7163.0301
7161.7688
7160.2225
7158.3342
7156.0385
7153.2602
7149.9147
7145.9066
7141.129
7135.4622
7128.7734
7120.9164
7111.7312
7101.043
7088.6621
7074.3815
7057.9766
7039.2042
7017.803
6993.4898
6965.9588
6934.8817
6899.9034
6860.6372
6816.673
6767.56
6712.8255
6651.974
6584.632
6508.9625
7175.1351
7175.135
7175.1348
7175.1344
7175.1337
7175.1328
7175.1316
7175.13
7175.1279
7175.1253
7175.1219
7175.1176
7175.1123
7175.1056
7175.0972
7175.0866
7175.0734
7175.0569
7175.0361
7175.01
7174.9772
7174.9359
7174.8837
7174.8178
7174.7345
7174.6292
7174.496
7174.3277
7174.1153
7173.8478
7173.5115
7173.0901
7172.5637
7171.9086
7171.0963
7170.093
7168.8583
7167.3448
7165.497
7163.2509
7160.5335
7157.2622
7153.3441
7148.6747
7143.1371
7136.6016
7128.9256
7119.9524
7109.511
7097.4146
7083.4601
7067.4272
7049.0787
7028.1583
7004.3878
6977.4704
6947.083
6912.8762
6874.4715
6831.4654
6783.418
6729.867
6670.3349
6604.4851
6530.336
7182.6046
7182.6046
7182.6044
7182.604
7182.6034
7182.6025
7182.6014
7182.5998
7182.5978
7182.5953
7182.5921
7182.588
7182.5828
7182.5763
7182.5682
7182.5581
7182.5453
7182.5293
7182.5092
7182.4839
7182.4521
7182.412
7182.3613
7182.2973
7182.2163
7182.1137
7181.984
7181.82
7181.6128
7181.3517
7181.0234
7180.6118
7180.0976
7179.4576
7178.664
7177.6837
7176.4775
7174.9991
7173.1946
7171.0019
7168.3502
7165.1593
7161.3385
7156.7858
7151.3873
7145.017
7137.5357
7128.7906
7118.6142
7106.8233
7093.2192
7077.5871
7059.6951
7039.2915
7016.107
6989.8513
6960.2055
6926.8287
6889.3486
6847.3716
6800.468
6748.1868
6690.0697
6625.8202
6553.298
7190.5967
7190.5966
7190.5965
7190.5961
7190.5956
7190.5948
7190.5937
7190.5922
7190.5904
7190.588
7190.5849
7190.5811
7190.5762
7190.5701
7190.5624
7190.5527
7190.5406
7190.5253
7190.5062
7190.482
7190.4515
7190.413
7190.3644
7190.3027
7190.2246
7190.1257
7190.0003
7189.8415
7189.6408
7189.3875
7189.0687
7188.6688
7188.1686
7187.5455
7186.7725
7185.8173
7184.6417
7183.2009
7181.4429
7179.3077
7176.7268
7173.6223
7169.906
7165.4788
7160.23
7154.037
7146.7648
7138.2641
7128.3712
7116.9074
7103.679
7088.477
7071.0737
7051.2263
7028.6728
7003.126
6974.2761
6941.788
6905.2982
6864.4228
6818.7431
6767.8199
6711.215
6648.6757
6577.887
7199.1213
7199.1213
7199.1211
7199.1208
7199.1203
7199.1196
7199.1186
7199.1173
7199.1155
7199.1133
7199.1105
7199.1069
7199.1024
7199.0967
7199.0896
7199.0806
7199.0693
7199.055
7199.037
7199.0143
7198.9855
7198.9491
7198.9029
7198.8443
7198.7699
7198.6752
7198.5551
7198.4027
7198.2097
7197.9658
7197.6582
7197.2717
7196.7877
7196.1841
7195.4343
7194.5068
7193.3646
7191.9647
7190.2569
7188.1836
7185.6788
7182.667
7179.0628
7174.77
7169.6816
7163.6788
7156.63
7148.3903
7138.8
7127.6852
7114.8587
7100.1151
7083.2362
7063.9862
7042.1072
7017.3192
6989.32
6957.7812
6922.3489
6882.6494
6838.2757
6788.8001
6733.806
6673.0885
6604.1399
7208.1926
7208.1926
7208.1925
7208.1922
7208.1917
7208.1911
7208.1902
7208.189
7208.1874
7208.1854
7208.1828
7208.1796
7208.1754
7208.1702
7208.1636
7208.1553
7208.1449
7208.1316
7208.1149
7208.0938
7208.0669
7208.0328
7207.9894
7207.9341
7207.8636
7207.7739
7207.6596
7207.5143
7207.33
7207.0965
7206.8017
7206.4306
7205.9651
7205.3834
7204.6595
7203.763
7202.658
7201.303
7199.65
7197.6436
7195.2206
7192.3081
7188.8237
7184.6749
7179.758
7173.9581
7167.1477
7159.1853
7149.9161
7139.1735
7126.7736
7112.5208
7096.204
7077.5915
7056.4317
7032.4543
7005.3612
6974.8341
6940.5285
6902.0813
6859.097
6811.1599
6757.8764
6699.0943
6632.0912
7217.8263
7217.8263
7217.8262
7217.8259
7217.8255
7217.825
7217.8242
7217.8231
7217.8217
7217.8198
7217.8175
7217.8145
7217.8107
7217.8059
7217.7999
7217.7923
7217.7826
7217.7704
7217.7549
7217.7352
7217.7101
7217.6782
7217.6375
7217.5854
7217.519
7217.4341
7217.3258
7217.1879
7217.0127
7216.7904
7216.5092
7216.1547
7215.7091
7215.1514
7214.4564
7213.5944
7212.5307
7211.2255
7209.6326
7207.6991
7205.3641
7202.5581
7199.202
7195.2068
7190.4729
7184.8888
7178.3303
7170.661
7161.7342
7151.3858
7139.4417
7125.7137
7109.995
7092.0609
7071.6683
7048.5517
7022.4228
6992.9719
6959.864
6922.7469
6881.2372
6834.9308
6783.4583
6726.7273
6661.7739
7228.0393
7228.0393
7228.0392
7228.039
7228.0386
7228.0381
7228.0374
7228.0364
7228.0351
7228.0334
7228.0312
7228.0284
7228.0248
7228.0204
7228.0147
7228.0075
7227.9984
7227.9868
7227.9722
7227.9536
7227.9299
7227.8996
7227.861
7227.8116
7227.7485
7227.668
7227.5652
7227.4343
7227.2678
7227.0567
7226.7894
7226.4521
7226.0279
7225.4962
7224.8326
7224.0085
7222.9904
7221.7399
7220.2127
7218.3582
7216.1182
7213.4264
7210.2075
7206.3762
7201.8359
7196.4792
7190.187
7182.8307
7174.2658
7164.3378
7152.8806
7139.709
7124.6254
7107.4127
7087.8339
7065.6319
7040.5269
7012.2184
6980.3812
6944.6738
6904.7251
6860.1431
6810.5823
6756.0205
6693.2199
7238.844
7238.844
7238.844
7238.8438
7238.8434
7238.8429
7238.8422
7238.8413
7238.84
7238.8383
7238.8362
7238.8335
7238.83
7238.8256
7238.8201
7238.813
7238.8041
7238.7929
7238.7787
7238.7606
7238.7376
7238.7084
7238.6711
7238.6237
7238.5632
7238.4861
7238.388
7238.2634
7238.1052
7237.9047
7237.6513
7237.3316
7236.9294
7236.425
7235.7949
7235.0116
7234.0429
7232.8518
7231.3959
7229.6268
7227.4891
7224.9196
7221.8464
7218.188
7213.8523
7208.7368
7202.729
7195.7034
7187.5232
7178.0437
7167.1009
7154.5201
7140.1099
7123.6617
7104.9459
7083.7136
7059.6939
7032.5961
7002.1046
6967.8884
6929.5889
6886.8258
6839.2782
6787.0051
6726.4613
7250.246
7250.246
7250.246
7250.2458
7250.2454
7250.2449
7250.2442
7250.2432
7250.2419
7250.2402
7250.2381
7250.2353
7250.2318
7250.2273
7250.2217
7250.2146
7250.2056
7250.1943
7250.1801
7250.162
7250.1393
7250.1105
7250.0739
7250.0277
7249.9691
7249.8948
7249.8007
7249.6817
7249.5313
7249.3413
7249.1017
7248.7999
7248.4205
7247.9446
7247.3501
7246.6103
7245.6944
7244.5669
7243.1873
7241.5093
7239.4802
7237.0402
7234.1214
7230.6465
7226.528
7221.6695
7215.9625
7209.2872
7201.5175
7192.5111
7182.1133
7170.1577
7156.4606
7140.8215
7123.0193
7102.8137
7079.9431
7054.1262
7025.0575
6992.4162
6955.8558
6915.0073
6869.5746
6819.7103
6761.5326
7262.2438
7262.2438
7262.2438
7262.2436
7262.2432
7262.2427
7262.2419
7262.2409
7262.2395
7262.2378
7262.2355
7262.2326
7262.229
7262.2244
7262.2186
7262.2113
7262.2022
7262.1907
7262.1763
7262.1582
7262.1354
7262.1068
7262.0709
7262.0256
7261.9687
7261.897
7261.8069
7261.6935
7261.551
7261.3717
7261.1462
7260.8628
7260.507
7260.061
7259.5035
7258.8092
7257.9488
7256.8883
7255.5891
7254.0073
7252.0931
7249.7904
7247.0353
7243.7549
7239.8675
7235.2811
7229.8916
7223.5896
7216.2533
7207.747
7197.9262
7186.6314
7173.6877
7158.9036
7142.0672
7122.9473
7101.2916
7076.8284
7049.2619
7018.282
6983.5527
6944.7159
6901.5011
6854.166
6798.4709
7274.8302
7274.8302
7274.8301
7274.8299
7274.8295
7274.8289
7274.8281
7274.8271
7274.8257
7274.8239
7274.8216
7274.8186
7274.8149
7274.8103
7274.8044
7274.7971
7274.7879
7274.7764
7274.762
7274.744
7274.7216
7274.6936
7274.6585
7274.6147
7274.56
7274.4916
7274.4061
7274.2991
7274.1652
7273.9975
7273.7872
7273.5232
7273.192
7272.7769
7272.2578
7271.6107
7270.8079
7269.8172
7268.6022
7267.1215
7265.3287
7263.1712
7260.5892
7257.5154
7253.8726
7249.5724
7244.5205
7238.6132
7231.7336
7223.7565
7214.5445
7203.9472
7191.7989
7177.9174
7162.1007
7144.1274
7123.7547
7100.7207
7074.7391
7045.5097
7012.7068
6975.9808
6935.0902
6890.4098
6837.3147
7287.9968
7287.9968
7287.9967
7287.9964
7287.996
7287.9955
7287.9947
7287.9937
7287.9923
7287.9905
7287.9883
7287.9854
7287.9818
7287.9773
7287.9716
7287.9645
7287.9556
7287.9445
7287.9307
7287.9135
7287.8921
7287.8655
7287.8324
7287.7911
7287.7399
7287.676
7287.5965
7287.4974
7287.3736
7287.2188
7287.0248
7286.7815
7286.4761
7286.0929
7285.6132
7285.0147
7284.2714
7283.3532
7282.2261
7280.8515
7279.1864
7277.1821
7274.7836
7271.928
7268.5415
7264.5444
7259.8493
7254.3571
7247.96
7240.5408
7231.9708
7222.1091
7210.7994
7197.8694
7183.1279
7166.3643
7147.3455
7125.8194
7101.509
7074.1235
7043.3458
7008.8329
6970.3776
6928.4915
6878.1047
7301.738
7301.738
7301.7379
7301.7377
7301.7373
7301.7368
7301.7361
7301.7351
7301.7339
7301.7323
7301.7302
7301.7276
7301.7243
7301.7201
7301.7149
7301.7085
7301.7004
7301.6903
7301.6777
7301.6621
7301.6426
7301.6185
7301.5884
7301.5511
7301.5047
7301.4469
7301.375
7301.2854
7301.1734
7301.033
7300.8568
7300.6352
7300.3565
7300.0063
7299.5672
7299.0188
7298.3369
7297.494
7296.4585
7295.1952
7293.6643
7291.8215
7289.6163
7286.9886
7283.8722
7280.1953
7275.8746
7270.8196
7264.9307
7258.0988
7250.205
7241.1178
7230.691
7218.7631
7205.1544
7189.6657
7172.0746
7152.1387
7129.5905
7104.1474
7075.4999
7043.3073
7007.392
6968.4136
6920.9514
7316.0526
7316.0526
7316.0525
7316.0524
7316.0521
7316.0516
7316.051
7316.0502
7316.0491
7316.0477
7316.0459
7316.0437
7316.0409
7316.0374
7316.0329
7316.0274
7316.0204
7316.0118
7316.001
7315.9876
7315.9709
7315.95
7315.924
7315.8916
7315.8512
7315.8008
7315.7378
7315.6588
7315.5596
7315.4347
7315.2771
7315.0782
7314.8272
7314.511
7314.1138
7313.6171
7312.9991
7312.2345
7311.2948
7310.148
7308.7582
7307.0855
7305.0815
7302.6929
7299.8613
7296.5191
7292.5915
7287.9959
7282.6409
7276.4266
7269.2435
7260.9705
7251.4723
7240.5987
7228.1822
7214.0361
7197.9496
7179.6908
7159.0013
7135.6064
7109.204
7079.4445
7046.1509
7010.278
6965.8898
7330.9424
7330.9424
7330.9423
7330.9421
7330.9419
7330.9415
7330.941
7330.9404
7330.9395
7330.9384
7330.9369
7330.9351
7330.9328
7330.9299
7330.9263
7330.9218
7330.9161
7330.909
7330.9001
7330.889
7330.8752
7330.8579
7330.8362
7330.809
7330.7749
7330.732
7330.6781
7330.6099
7330.5238
7330.4145
7330.276
7330.1003
7329.8779
7329.5969
7329.2434
7328.8007
7328.2491
7327.5664
7326.7271
7325.7025
7324.4611
7322.9649
7321.1713
7319.0342
7316.4996
7313.5079
7309.9922
7305.878
7301.0829
7295.5164
7289.079
7281.6605
7273.1375
7263.3722
7252.2096
7239.4764
7224.9749
7208.485
7189.7576
7168.5262
7144.4917
7117.2644
7086.7157
7054.1355
7012.963
7346.4063
7346.4063
7346.4063
7346.4061
7346.4059
7346.4056
7346.4052
7346.4047
7346.4039
7346.403
7346.4018
7346.4003
7346.3984
7346.396
7346.393
7346.3893
7346.3846
7346.3788
7346.3715
7346.3624
7346.3509
7346.3366
7346.3185
7346.2959
7346.2673
7346.2312
7346.1855
7346.1276
7346.0539
7345.96
7345.8406
7345.6886
7345.4957
7345.2515
7344.9435
7344.5571
7344.0752
7343.4783
7342.7441
7341.848
7340.7607
7339.4485
7337.8755
7336.0003
7333.776
7331.1506
7328.0653
7324.4544
7320.2449
7315.3564
7309.6999
7303.1768
7295.6766
7287.075
7277.2301
7265.9829
7253.151
7238.5275
7221.8744
7202.9313
7181.3868
7156.858
7129.1376
7100.0306
7062.32
7362.437
7362.437
7362.437
7362.4368
7362.4366
7362.4363
7362.4359
7362.4354
7362.4347
7362.4339
7362.4328
7362.4314
7362.4297
7362.4275
7362.4248
7362.4214
7362.4172
7362.412
7362.4055
7362.3975
7362.3875
7362.375
7362.3595
7362.34
7362.3156
7362.285
7362.2464
7362.1975
7362.1355
7362.0566
7361.9563
7361.8285
7361.666
7361.4597
7361.1991
7360.8715
7360.4625
7359.9554
7359.3314
7358.5687
7357.6412
7356.5215
7355.1782
7353.5758
7351.675
7349.4315
7346.795
7343.7089
7340.1106
7335.93
7331.0896
7325.5034
7319.0745
7311.6928
7303.2316
7293.547
7282.4735
7269.8197
7255.3607
7238.8343
7219.9557
7198.2776
7173.5142
7148.0465
7114.1122
7379.0155
7379.0154
7379.0154
7379.0152
7379.015
7379.0146
7379.0142
7379.0136
7379.0129
7379.0119
7379.0108
7379.0093
7379.0075
7379.0053
7379.0025
7378.9991
7378.9949
7378.9897
7378.9834
7378.9756
7378.9662
7378.9546
7378.9405
7378.9232
7378.9019
7378.8756
7378.8431
7378.8026
7378.7518
7378.6876
7378.6063
7378.5028
7378.3711
7378.2036
7377.9917
7377.7249
7377.3914
7376.9777
7376.4678
7375.8425
7375.0816
7374.162
7373.0573
7371.7391
7370.1753
7368.3294
7366.1599
7363.6202
7360.6582
7357.2153
7353.2266
7348.6192
7343.3105
7337.2059
7330.1954
7322.1525
7312.9293
7302.3518
7290.2138
7276.2723
7260.2311
7241.6195
7220.0316
7198.3522
7168.4593
7396.1127
7396.1126
7396.1125
7396.1123
7396.112
7396.1116
7396.111
7396.1104
7396.1095
7396.1084
7396.1071
7396.1055
7396.1035
7396.101
7396.0979
7396.0943
7396.0898
7396.0844
7396.0778
7396.07
7396.0607
7396.0495
7396.0363
7396.0206
7396.0019
7395.9796
7395.9527
7395.9201
7395.88
7395.83
7395.7672
7395.6876
7395.5863
7395.4577
7395.295
7395.0902
7394.8342
7394.5165
7394.1233
7393.6406
7393.0525
7392.3402
7391.4839
7390.4617
7389.2486
7387.8161
7386.1322
7384.1604
7381.8598
7379.1844
7376.0827
7372.4962
7368.3569
7363.5864
7358.0936
7351.77
7344.4909
7336.108
7326.4367
7315.2493
7302.2668
7287.0005
7268.9584
7251.2175
7225.3542
7413.6893
7413.6892
7413.689
7413.6888
7413.6885
7413.688
7413.6874
7413.6866
7413.6857
7413.6845
7413.6831
7413.6814
7413.6793
7413.6767
7413.6735
7413.6698
7413.6652
7413.6598
7413.6534
7413.6459
7413.637
7413.6267
7413.6148
7413.601
7413.5852
7413.567
7413.5459
7413.5211
7413.4913
7413.455
7413.41
7413.3538
7413.2828
7413.1932
7413.0803
7412.9388
7412.7622
7412.5419
7412.2689
7411.9332
7411.5231
7411.0258
7410.4275
7409.7127
7408.8637
7407.8602
7406.68
7405.2972
7403.6829
7401.8043
7399.6242
7397.0983
7394.1754
7390.7957
7386.8882
7382.3675
7377.1319
7371.06
7364.0049
7355.7751
7346.1161
7334.5507
7320.5825
7306.7061
7285.1723
7431.704
7431.7038
7431.7036
7431.7033
7431.703
7431.7025
7431.7019
7431.7012
7431.7003
7431.6992
7431.6978
7431.6961
7431.6942
7431.6918
7431.689
7431.6856
7431.6816
7431.677
7431.6715
7431.6651
7431.6578
7431.6494
7431.6399
7431.6292
7431.6172
7431.6036
7431.5883
7431.5708
7431.5506
7431.527
7431.499
7431.4658
7431.4255
7431.3753
7431.3131
7431.2355
7431.1386
7431.0179
7430.8683
7430.6837
7430.4575
7430.183
7429.852
7429.4558
7428.9838
7428.4246
7427.7657
7426.9927
7426.0894
7425.0375
7423.8135
7422.3902
7420.733
7418.8013
7416.5469
7413.909
7410.8166
7407.1791
7402.8884
7397.8098
7391.7459
7384.3211
7375.1157
7365.6912
7349.4959
7450.9336
7450.9334
7450.9331
7450.9328
7450.9324
7450.9319
7450.9314
7450.9307
7450.9299
7450.9289
7450.9278
7450.9264
7450.9248
7450.923
7450.9207
7450.9181
7450.915
7450.9114
7450.9073
7450.9025
7450.8971
7450.891
7450.8842
7450.8768
7450.8686
7450.8598
7450.8503
7450.8403
7450.8299
7450.8192
7450.8085
7450.7985
7450.7895
7450.7813
7450.7734
7450.7644
7450.7545
7450.7429
7450.7276
7450.7077
7450.6826
7450.6515
7450.6127
7450.564
7450.5025
7450.4265
7450.3344
7450.224
7450.0926
7449.9362
7449.7489
7449.5209
7449.2374
7448.88
7448.4247
7447.8408
7447.0884
7446.118
7444.8659
7443.2595
7441.1939
7438.4597
7435.0628
7431.9673
7426.0694
7471.1664
7471.1662
7471.1659
7471.1656
7471.1652
7471.1648
7471.1643
7471.1638
7471.1632
7471.1624
7471.1616
7471.1606
7471.1595
7471.1582
7471.1567
7471.1549
7471.1529
7471.1506
7471.148
7471.1451
7471.1418
7471.1382
7471.1344
7471.1305
7471.1265
7471.1229
7471.1201
7471.1186
7471.1193
7471.1236
7471.133
7471.1492
7471.175
7471.2116
7471.2613
7471.3269
7471.4114
7471.5166
7471.6445
7471.8002
7471.9893
7472.2171
7472.4885
7472.8092
7473.1853
7473.625
7474.1379
7474.7347
7475.4268
7476.2261
7477.1442
7478.191
7479.3741
7480.699
7482.1687
7483.7849
7485.5437
7487.4398
7489.4616
7491.606
7493.8688
7496.2241
7498.8942
7502.3396
7504.954
7491.3669
7491.3667
7491.3664
7491.3661
7491.3658
7491.3655
7491.3652
7491.3648
7491.3645
7491.3641
7491.3637
7491.3633
7491.3628
7491.3624
7491.362
7491.3615
7491.3611
7491.3607
7491.3604
7491.3601
7491.36
7491.36
7491.3603
7491.361
7491.3625
7491.3652
7491.3699
7491.3777
7491.3903
7491.4098
7491.4394
7491.4826
7491.5425
7491.6236
7491.7304
7491.8673
7492.0403
7492.2567
7492.5245
7492.8535
7493.2548
7493.7398
7494.3203
7495.0097
7495.8235
7496.7798
7497.8997
7499.2066
7500.7262
7502.4862
7504.5155
7506.8445
7509.5039
7512.5245
7515.9372
7519.7755
7524.0732
7528.8699
7534.2084
7540.1507
7546.7696
7554.1729
7562.6185
7572.3832
7583.2974
7511.4464
7511.4461
7511.4459
7511.4456
7511.4454
7511.4452
7511.4451
7511.445
7511.4449
7511.445
7511.4451
7511.4453
7511.4457
7511.4463
7511.447
7511.4481
7511.4494
7511.4511
7511.4532
7511.4558
7511.4591
7511.4629
7511.4677
7511.4735
7511.4808
7511.4903
7511.5031
7511.5209
7511.5461
7511.5816
7511.6316
7511.7006
7511.7947
7511.92
7512.082
7512.2889
7512.5503
7512.8774
7513.2833
7513.783
7514.3935
7515.1325
7516.0189
7517.0742
7518.3234
7519.7944
7521.5197
7523.5355
7525.8816
7528.6012
7531.741
7535.3517
7539.4876
7544.2052
7549.5637
7555.6286
7562.4709
7570.1739
7578.8323
7588.5668
7599.5176
7611.8834
7625.9657
7642.1203
7660.8558
7531.317
7531.3167
7531.3165
7531.3163
7531.3162
7531.3162
7531.3162
7531.3164
7531.3167
7531.3171
7531.3178
7531.3187
7531.3199
7531.3214
7531.3234
7531.3259
7531.329
7531.3328
7531.3373
7531.3428
7531.3493
7531.357
7531.3661
7531.377
7531.3903
7531.407
7531.4283
7531.4564
7531.4944
7531.5465
7531.6178
7531.7148
7531.8445
7532.0138
7532.2322
7532.51
7532.8601
7533.2977
7533.8407
7534.5095
7535.3265
7536.316
7537.5045
7538.9218
7540.6024
7542.5842
7544.9107
7547.6308
7550.7982
7554.472
7558.7167
7563.6032
7569.2082
7575.6142
7582.909
7591.1894
7600.5635
7611.1565
7623.1118
7636.6057
7651.8446
7669.1034
7688.7507
7711.2575
7737.3218
7550.9057
7550.9055
7550.9053
7550.9052
7550.9052
7550.9053
7550.9056
7550.906
7550.9066
7550.9074
7550.9085
7550.91
7550.9119
7550.9144
7550.9174
7550.9211
7550.9257
7550.9312
7550.9378
7550.9457
7550.955
7550.966
7550.979
7550.9946
7551.0133
7551.0365
7551.066
7551.1044
7551.1557
7551.2249
7551.3185
7551.444
7551.6094
7551.8246
7552.1003
7552.4496
7552.8887
7553.4367
7554.116
7554.9518
7555.9724
7557.2086
7558.6946
7560.469
7562.5754
7565.0619