/*--------------------------------*- C++ -*----------------------------------*\
  =========                 |
  \\      /  F ield         | OpenFOAM: The Open Source CFD Toolbox
   \\    /   O peration     | Website:  https://openfoam.org
    \\  /    A nd           | Version:  13
     \\/     M anipulation  |
\*---------------------------------------------------------------------------*/
FoamFile
{
    format      ascii;
    class       volVectorField;
    location    "22.203708";
    object      U;
}
// * * * * * * * * * * * * * * * * * * * * * * * * * * * * * * * * * * * * * //

dimensions      [0 1 -1 0 0 0 0];

internalField   nonuniform List<vector> 
17140
(
(4.7869905e-07 -4.8998352e-05 2.7872626e-23)
(-1.9774816e-06 -0.00015074589 3.0867905e-24)
(-9.499551e-06 -0.00026277442 -2.0358217e-22)
(-2.3905952e-05 -0.00038704139 2.2364876e-22)
(-4.7110716e-05 -0.00052570748 -2.6123106e-23)
(-8.1649783e-05 -0.00068112278 8.5419873e-23)
(-0.00013067805 -0.00085580548 1.4363804e-22)
(-0.00019805784 -0.0010524069 -6.997623e-23)
(-0.00028850705 -0.0012736613 -2.2867237e-22)
(-0.00040775949 -0.0015223148 -5.5958698e-22)
(-0.00056274516 -0.0018010296 8.2719875e-22)
(-0.00076178902 -0.0021122577 -7.3451289e-22)
(-0.0010148278 -0.0024580793 -1.1203154e-22)
(-0.001333638 -0.0028399996 6.2934878e-22)
(-0.0017320667 -0.0032586985 -6.9459866e-23)
(-0.0022262494 -0.0037137298 5.454219e-22)
(-0.0028347947 -0.0042031657 -2.0031411e-23)
(-0.0035789025 -0.0047231894 4.5202802e-24)
(-0.0044823751 -0.0052676419 3.112269e-22)
(-0.005571462 -0.0058275414 -3.9637183e-22)
(-0.0068744634 -0.0063906078 1.8717403e-22)
(-0.008420999 -0.006940857 -3.4677392e-23)
(-0.010240831 -0.0074583816 -2.4961552e-22)
(-0.012362127 -0.0079195329 2.4078839e-22)
(-0.014809087 -0.0082978882 3.6937713e-22)
(-0.017598974 -0.0085666106 -2.8381481e-22)
(-0.020738873 -0.0087029093 -1.3266694e-21)
(-0.024222972 -0.0086946746 -1.4841719e-22)
(-0.028031731 -0.0085471757 1.2118738e-21)
(-0.03213448 -0.0082848312 2.6419626e-22)
(-0.036495603 -0.0079440912 8.6857053e-22)
(-0.041081355 -0.0075608513 -1.0503153e-21)
(-0.045863306 -0.0071610437 2.5397207e-22)
(-0.050817597 -0.0067586029 1.1214207e-22)
(-0.055922387 -0.0063581998 1.0499584e-21)
(-0.061155734 -0.0059588115 -4.381341e-22)
(-0.066494577 -0.0055562709 6.4011289e-22)
(-0.071914632 -0.0051445964 4.2406448e-22)
(-0.077391051 -0.0047164738 1.9241887e-22)
(-0.082899657 -0.0042630809 -5.8053867e-22)
(-0.088418613 -0.0037735193 -1.1015941e-21)
(-0.093930729 -0.0032338924 -1.0105085e-21)
(-0.099425584 -0.002625993 -4.479307e-22)
(-0.10490207 -0.0019254996 2.2214144e-21)
(-0.11037132 -0.0011002403 1.6567787e-21)
(-0.1158564 -0.00010866335 -4.1564863e-22)
(-0.12138843 0.0011023651 2.873823e-21)
(-0.12700699 0.002600888 9.927441e-22)
(-0.13275572 0.0044740318 -1.0266598e-21)
(-0.13867895 0.0068289453 -2.5439928e-21)
(-0.14480521 0.0097930026 1.5839248e-21)
(-0.15116331 0.013507298 1.0076785e-21)
(-0.15773327 0.018113302 -2.6461439e-21)
(-0.16456188 0.02371998 -1.2554176e-21)
(-0.17158588 0.030356957 -8.9743273e-22)
(-0.17911054 0.037884577 7.0709782e-22)
(-0.18704276 0.045864168 -1.9000818e-21)
(-0.19652131 0.053404536 -1.5969081e-21)
(-0.20686446 0.059003699 -4.0036958e-22)
(-0.22066648 0.060934407 1.0552006e-21)
(-0.23447991 0.056908951 8.2788541e-22)
(-0.2524374 0.044378193 3.2247881e-21)
(-0.25952962 0.021427514 4.5799218e-22)
(-0.26324376 -0.014497981 -4.0211085e-21)
(-0.21985222 -0.055091313 2.4521831e-21)
(-1.0836415e-06 2.1875127e-05 -7.9340684e-24)
(-6.7719644e-06 6.85039e-05 1.067092e-21)
(-1.7777859e-05 0.00011989341 -9.4911886e-22)
(-3.5876035e-05 0.00017516353 2.5853324e-22)
(-6.2937755e-05 0.00023327193 5.3370879e-22)
(-0.00010144009 0.00029298329 -1.0188393e-21)
(-0.00015446502 0.00035286974 1.0606087e-21)
(-0.00022578687 0.0004113163 -9.3197769e-23)
(-0.00032001886 0.00046653173 2.9041048e-22)
(-0.00044277197 0.00051657007 4.9372247e-24)
(-0.00060083413 0.00055936516 9.6432157e-22)
(-0.00080236823 0.00059278074 -1.5261307e-21)
(-0.0010571288 0.00061468043 -1.2549769e-22)
(-0.0013766908 0.00062301983 1.2311423e-21)
(-0.0017746819 0.00061596545 -3.7513696e-22)
(-0.0022670042 0.00059204233 -2.3599699e-22)
(-0.0028720233 0.00055031194 1.4818182e-21)
(-0.0036106948 0.00049057914 -4.7611718e-21)
(-0.0045065854 0.00041362245 2.9324277e-21)
(-0.0055857301 0.00032143341 -3.4466079e-21)
(-0.0068762531 0.00021744116 4.9777122e-21)
(-0.0084076545 0.00010667762 -1.1885726e-21)
(-0.010209654 -4.187959e-06 -4.7554648e-22)
(-0.012310476 -0.00010706169 1.5049339e-21)
(-0.014734487 -0.00019305531 -5.2116629e-21)
(-0.017499229 -0.00025374653 -7.4721486e-22)
(-0.020612165 -0.00028319556 3.6783672e-21)
(-0.024067905 -0.00028040262 -3.9035032e-21)
(-0.027847294 -0.00025096891 4.9711474e-22)
(-0.031919919 -0.00020608892 4.5849464e-21)
(-0.036250219 -0.00015838571 -4.3686459e-22)
(-0.040804323 -0.00011711972 -3.1202327e-21)
(-0.045553581 -8.5941132e-05 -7.7719807e-23)
(-0.050473895 -6.3528749e-05 2.0166455e-21)
(-0.055543172 -4.5311434e-05 -2.1247999e-21)
(-0.060739173 -2.4844696e-05 9.1742624e-22)
(-0.066038432 5.5103918e-06 -1.0408147e-21)
(-0.071416146 5.4462585e-05 -3.2558436e-21)
(-0.076846701 0.0001319859 -7.2414657e-22)
(-0.082304791 0.00024984123 -2.8245433e-21)
(-0.08776707 0.0004222757 3.6433926e-21)
(-0.093214286 0.00066691816 3.396077e-21)
(-0.098633236 0.0010059125 5.9258858e-22)
(-0.10401914 0.0014675528 -4.8154315e-21)
(-0.1093784 0.0020876262 2.3196466e-21)
(-0.11472797 0.0029093077 8.2083368e-22)
(-0.12009167 0.0039850529 -4.5759601e-22)
(-0.12550043 0.0053820453 -1.4263009e-21)
(-0.13098797 0.007184149 7.1055441e-22)
(-0.13658753 0.0094928685 -1.2885177e-21)
(-0.14231568 0.012428569 -7.9024543e-21)
(-0.14818847 0.016125303 -3.8748122e-22)
(-0.15417154 0.020721874 1.7395059e-21)
(-0.16029384 0.026332305 -3.8474169e-21)
(-0.16646367 0.033010525 3.3052679e-21)
(-0.17293856 0.040648182 -9.3829448e-21)
(-0.17951502 0.04886903 -2.6644518e-21)
(-0.18714145 0.056777388 7.5837783e-21)
(-0.19463581 0.062880109 -1.2933108e-21)
(-0.20387658 0.065325204 -1.4986299e-21)
(-0.2106809 0.061666085 -3.0212084e-22)
(-0.21902965 0.04831413 4.4250722e-21)
(-0.21220975 0.022636088 -8.27512e-21)
(-0.20026261 -0.019960827 -2.8543677e-21)
(-0.14170805 -0.06934748 -3.3244543e-21)
(-6.4913932e-06 9.1948936e-05 -4.3634006e-22)
(-2.3562652e-05 0.0002852626 3.2226705e-22)
(-4.6814622e-05 0.00049822977 8.5674324e-23)
(-7.8192456e-05 0.00073105699 -8.1166074e-23)
(-0.00011948827 0.00098383637 3.9308351e-22)
(-0.00017314387 0.0012564638 2.9249948e-23)
(-0.00024218068 0.0015486233 3.7268866e-22)
(-0.00033028115 0.0018597648 4.0097589e-22)
(-0.00044193173 0.0021890751 -3.2695631e-21)
(-0.0005825768 0.0025354521 2.9120926e-21)
(-0.00075879138 0.0028974783 -1.3892936e-21)
(-0.00097847233 0.0032733965 -2.0282679e-21)
(-0.0012510484 0.0036610883 4.0029182e-21)
(-0.0015877024 0.0040580565 4.9301379e-22)
(-0.0020015986 0.0044614132 -1.8882968e-21)
(-0.0025080994 0.0048678736 -1.2869602e-21)
(-0.0031249537 0.0052737564 1.4765648e-21)
(-0.0038724249 0.0056749885 -5.2769972e-21)
(-0.0047733183 0.0060671091 3.0705363e-21)
(-0.0058528529 0.0064452636 -1.4921419e-21)
(-0.0071383014 0.00680417 4.9248892e-21)
(-0.0086583085 0.0071380346 1.2513572e-21)
(-0.010441776 0.0074403856 -2.537467e-21)
(-0.0125162 0.0077038082 3.7032918e-21)
(-0.014905382 0.0079196131 1.4096925e-21)
(-0.017626551 0.0080776166 -1.6205463e-21)
(-0.020687213 0.0081664832 -8.8098982e-21)
(-0.024082486 0.0081753737 -3.7893022e-21)
(-0.027794227 0.0080973617 1.7645e-21)
(-0.031793373 0.0079334901 -1.7882383e-21)
(-0.0360457 0.0076943869 1.0147786e-21)
(-0.040518305 0.0073974538 5.4132976e-21)
(-0.045183013 0.0070617657 -1.6821481e-21)
(-0.050015776 0.0067044313 -4.73469e-21)
(-0.054994243 0.0063396838 1.4839236e-21)
(-0.060095669 0.00597965 2.0075765e-21)
(-0.065295837 0.0056355667 -3.3803756e-21)
(-0.07056888 0.0053188868 -1.0141115e-21)
(-0.07588774 0.0050422344 1.7946696e-21)
(-0.081225147 0.0048202252 7.2512244e-22)
(-0.086555053 0.0046703268 -3.5067645e-21)
(-0.091854564 0.0046137591 1.0009074e-21)
(-0.097105616 0.00467645 1.4932032e-21)
(-0.10229705 0.0048905259 4.0859554e-21)
(-0.10742718 0.005295198 -7.9627481e-21)
(-0.11250202 0.0059351524 5.2739037e-21)
(-0.1175322 0.0068622595 1.3536226e-21)
(-0.12253256 0.0081426005 5.5102502e-21)
(-0.12751701 0.0098569844 6.7406345e-21)
(-0.13249456 0.012101342 3.5272098e-22)
(-0.13745211 0.014989211 -1.4544121e-21)
(-0.14236874 0.018647568 1.1104841e-20)
(-0.14716183 0.023212274 4.7796241e-21)
(-0.15179687 0.028801216 4.9545958e-21)
(-0.15609134 0.03548991 1.6166088e-21)
(-0.1601748 0.043192248 1.2623346e-20)
(-0.1636252 0.051580866 -4.9779969e-21)
(-0.16709862 0.059707154 1.5290226e-21)
(-0.16878952 0.06602834 1.2707032e-20)
(-0.16984086 0.068543721 5.2091507e-21)
(-0.16555681 0.064779197 -6.3510942e-21)
(-0.15981753 0.049918547 -2.3180305e-20)
(-0.13492084 0.021709626 7.1504879e-21)
(-0.10636566 -0.026640126 1.2515765e-20)
(-0.029358691 -0.083316704 4.4515228e-21)
(-1.5736739e-05 0.0001596807 1.461011e-21)
(-5.1988359e-05 0.00049479485 -2.3231885e-21)
(-9.6143901e-05 0.00086398991 8.3960329e-22)
(-0.00015014326 0.0012685715 -9.1209217e-23)
(-0.0002158053 0.0017097603 1.802085e-21)
(-0.00029555356 0.0021885885 -1.8626145e-21)
(-0.00039235674 0.0027058663 2.8224209e-21)
(-0.00050980345 0.0032621324 -1.3256235e-21)
(-0.00065223578 0.0038575892 -5.0319482e-21)
(-0.00082489237 0.0044920316 1.2068955e-21)
(-0.0010340699 0.0051647625 4.5848877e-21)
(-0.0012873016 0.0058744979 -1.3945042e-21)
(-0.0015935544 0.0066192575 -9.2560306e-23)
(-0.0019634374 0.0073962414 3.615422e-21)
(-0.0024094159 0.0082016907 -1.1234978e-20)
(-0.0029460168 0.0090307318 6.8416702e-21)
(-0.0035900081 0.0098772014 6.4777437e-23)
(-0.0043605225 0.010733451 -3.7045208e-21)
(-0.0052790878 0.011590123 9.2783271e-21)
(-0.00636951 0.012435898 -4.3076858e-21)
(-0.0076575384 0.013257195 -6.3075754e-21)
(-0.009170224 0.01403782 -2.5018387e-21)
(-0.010934865 0.014758581 1.2073519e-20)
(-0.012977432 0.015396919 6.1439659e-21)
(-0.0153204 0.015926808 -3.8452767e-21)
(-0.017980045 0.016319432 2.1719036e-21)
(-0.020963517 0.016545687 -7.8009222e-21)
(-0.024266448 0.016581717 2.1403665e-21)
(-0.027872231 0.016417396 -5.4628255e-21)
(-0.031754197 0.01606391 2.8925015e-21)
(-0.035880741 0.015553662 -1.6792261e-21)
(-0.040221079 0.014930352 5.7388965e-21)
(-0.04474828 0.014236284 -7.649348e-22)
(-0.049438704 0.013505151 3.8333938e-21)
(-0.054269778 0.012761527 -3.4866021e-21)
(-0.059218061 0.012023663 -1.0860883e-21)
(-0.064258225 0.011306615 1.3053932e-20)
(-0.069362832 0.010624662 3.3647322e-21)
(-0.074502683 0.009992998 -2.7681147e-21)
(-0.079647622 0.0094289834 2.731141e-21)
(-0.084767722 0.0089531469 -7.0568285e-22)
(-0.089834886 0.0085900727 -4.5400721e-21)
(-0.094824118 0.0083692282 2.182194e-22)
(-0.099715208 0.0083263727 1.5921267e-21)
(-0.10449494 0.0085038341 -7.8817831e-22)
(-0.10915377 0.0089475164 3.9380393e-22)
(-0.11368329 0.00970874 1.193849e-21)
(-0.118075 0.010852242 -1.9050152e-20)
(-0.12231335 0.012455413 2.1592521e-21)
(-0.12637063 0.014608202 -2.0416229e-21)
(-0.13018744 0.017416619 1.9436685e-20)
(-0.13368365 0.020999192 -1.0781357e-20)
(-0.13669811 0.025486913 -8.8800761e-21)
(-0.13909373 0.03099819 -8.4925621e-21)
(-0.14054792 0.037625671 -8.1689402e-21)
(-0.14100455 0.045293546 -1.2842584e-20)
(-0.13975705 0.053714853 2.5671246e-20)
(-0.13714096 0.061848228 -1.5933197e-20)
(-0.13076474 0.068054441 -2.438093e-20)
(-0.12133105 0.070343122 1.85968e-20)
(-0.1036156 0.066223613 5.9799411e-21)
(-0.082420841 0.049659291 5.3206059e-21)
(-0.03877596 0.019479691 -2.9180916e-20)
(0.0069195419 -0.034249495 -2.2644192e-20)
(0.10323532 -0.097167098 7.4032297e-22)
(-2.85094e-05 0.0002234462 -1.0292031e-21)
(-9.126536e-05 0.00069211532 3.4149378e-21)
(-0.0001643269 0.0012085252 -2.7827952e-21)
(-0.00024964884 0.0017750567 1.0510693e-21)
(-0.00034911184 0.0023940414 3.7950475e-22)
(-0.0004651437 0.0030676409 -3.262732e-21)
(-0.00060067397 0.003797796 8.2529709e-22)
(-0.00075919981 0.0045861542 1.7505019e-21)
(-0.00094490619 0.0054339724 1.3405857e-22)
(-0.0011627942 0.006342004 1.1370276e-21)
(-0.0014188262 0.0073103631 -1.5882932e-21)
(-0.0017200865 0.0083383636 1.1005319e-21)
(-0.0020749591 0.0094243286 4.0405409e-21)
(-0.0024933153 0.010565369 1.1760069e-22)
(-0.0029867078 0.011757122 -3.0556209e-21)
(-0.0035685571 0.012993456 -2.1494694e-21)
(-0.0042543138 0.014266124 1.8344527e-21)
(-0.0050615722 0.015564372 -1.7372655e-22)
(-0.006010098 0.016874498 -3.4964923e-21)
(-0.0071217208 0.018179337 -4.2003032e-21)
(-0.0084200253 0.019457699 4.7120489e-21)
(-0.0099297572 0.020683734 4.6502776e-21)
(-0.011675845 0.021826284 -6.117592e-21)
(-0.013681941 0.022848367 7.3783255e-21)
(-0.015968418 0.023707175 1.2418488e-20)
(-0.018549911 0.024355458 -2.8272002e-20)
(-0.02143273 0.024745854 1.4954693e-20)
(-0.024612872 0.024839934 -2.115745e-20)
(-0.028075622 0.024621646 2.5022068e-20)
(-0.031797582 0.024109047 -2.6249568e-20)
(-0.035750984 0.023353758 2.534808e-20)
(-0.039908353 0.022424858 -3.9551136e-21)
(-0.04424487 0.021388383 -1.283664e-20)
(-0.048737759 0.020295669 6.7985979e-21)
(-0.05336433 0.01918261 -2.0114069e-21)
(-0.058100293 0.018074226 -5.6312369e-22)
(-0.062918863 0.016989738 -6.808662e-21)
(-0.067790528 0.015946364 -2.1965265e-21)
(-0.072683265 0.014961838 -2.1833082e-21)
(-0.077563136 0.014056098 -2.1702892e-21)
(-0.082395163 0.013252495 1.1138726e-20)
(-0.087144523 0.012578684 -4.961899e-21)
(-0.091777316 0.012067337 -8.0613971e-22)
(-0.096261783 0.011757514 9.4962979e-21)
(-0.10056959 0.011694393 4.9324595e-21)
(-0.10467157 0.011924542 -2.4948863e-21)
(-0.10853477 0.012498717 -9.1951154e-21)
(-0.11212042 0.013479902 4.1081978e-21)
(-0.11537475 0.014941395 -1.2097345e-20)
(-0.11822216 0.016966278 -6.6580156e-21)
(-0.12054258 0.019651608 -9.3149391e-21)
(-0.12217813 0.023104981 -2.5069989e-20)
(-0.12286516 0.027449309 1.9483217e-20)
(-0.12233606 0.032799133 -6.3183741e-21)
(-0.12009918 0.039259432 1.0906855e-20)
(-0.11588763 0.046752438 1.0393692e-20)
(-0.10869614 0.055034433 3.9989204e-21)
(-0.098588138 0.06295989 3.7276784e-20)
(-0.082599304 0.068833427 1.014375e-20)
(-0.061661839 0.070445497 -2.3997259e-20)
(-0.029423881 0.065964134 -9.422169e-21)
(0.0073862631 0.04760501 7.3726795e-21)
(0.069052611 0.01577055 1.5226521e-20)
(0.13422205 -0.042378506 2.6091606e-20)
(0.25001277 -0.11025687 -1.255487e-21)
(-4.4360132e-05 0.000281655 -3.1389954e-21)
(-0.00014001407 0.00087230452 -1.1073682e-21)
(-0.00024896978 0.0015232628 8.9596626e-22)
(-0.00037321852 0.0022379482 3.3072302e-21)
(-0.0005147365 0.0030197685 -1.8109572e-21)
(-0.00067597946 0.0038719925 2.6043364e-21)
(-0.00085985431 0.0047976852 -1.125738e-21)
(-0.0010697739 0.0057996145 -2.6784457e-22)
(-0.0013097608 0.006880128 1.5134754e-21)
(-0.001584557 0.0080410045 3.2559324e-21)
(-0.0018997488 0.0092832732 1.6357439e-22)
(-0.0022619043 0.010606995 -5.3252641e-21)
(-0.0026787257 0.012011002 7.3431719e-21)
(-0.0031592112 0.013492584 -1.1807682e-20)
(-0.0037138206 0.015047121 3.0701751e-21)
(-0.0043546358 0.016667654 -6.4858864e-21)
(-0.0050954991 0.018344382 7.7834329e-21)
(-0.0059521092 0.020064084 -5.012655e-21)
(-0.0069420399 0.021809455 7.8269659e-22)
(-0.0080846385 0.023558354 3.1402385e-21)
(-0.0094007417 0.025282951 -7.5298742e-21)
(-0.010912133 0.026948803 1.0453766e-20)
(-0.012640651 0.028513909 -1.1159101e-20)
(-0.014606865 0.029927958 -1.8810264e-21)
(-0.016828276 0.031132294 1.7966948e-20)
(-0.01931715 0.032061732 -1.7645461e-20)
(-0.02207836 0.032650277 1.1080671e-20)
(-0.025107932 0.032843135 -1.1949334e-20)
(-0.028393122 0.03261485 -1.1038478e-21)
(-0.031914423 0.031985846 -6.6204183e-22)
(-0.035648972 0.03102314 3.993351e-21)
(-0.039573808 0.029819469 -2.6865458e-22)
(-0.0436672 0.028464932 1.3304714e-20)
(-0.047907827 0.027029813 -3.3796913e-21)
(-0.052273082 0.025562618 -9.6907749e-21)
(-0.056737735 0.024096056 4.3479815e-21)
(-0.061273239 0.022654015 -3.4748274e-21)
(-0.06584752 0.021256842 3.4381439e-21)
(-0.070425077 0.019924786 1.9067679e-20)
(-0.07496733 0.018680194 -1.0561152e-20)
(-0.079433137 0.017548955 -2.6205473e-21)
(-0.083779519 0.016561436 1.5041644e-20)
(-0.087961844 0.015753108 -8.7476958e-22)
(-0.091934533 0.015165865 -1.9068421e-21)
(-0.095650834 0.01484716 -2.1177028e-20)
(-0.099058061 0.014843984 -5.0104587e-21)
(-0.10209412 0.01520619 8.0239483e-21)
(-0.10468363 0.015994348 8.3399176e-21)
(-0.10672704 0.017276854 1.2016993e-20)
(-0.10809153 0.019128767 1.4970011e-20)
(-0.10858514 0.021636155 9.1811559e-21)
(-0.10795831 0.024892342 1.4480889e-20)
(-0.10582834 0.029008572 -4.9324631e-21)
(-0.10178162 0.034091381 3.0485131e-20)
(-0.09515039 0.040255066 1.9977744e-21)
(-0.085461637 0.047409436 1.7065535e-21)
(-0.071430593 0.055365431 9.0441108e-22)
(-0.0529087 0.062803902 -4.0564281e-20)
(-0.026125984 0.068221433 -1.616673e-20)
(0.0068220507 0.069013879 2.5861907e-20)
(0.053299609 0.064047309 3.8409707e-20)
(0.10610911 0.044166757 1.8612505e-20)
(0.18504413 0.010539988 5.9706915e-21)
(0.27190078 -0.051370002 -3.7721268e-20)
(0.40795172 -0.1223932 7.9705269e-21)
(-6.265637e-05 0.00033277402 5.9379578e-22)
(-0.00019629115 0.0010306284 1.8860959e-21)
(-0.00034670002 0.0017999544 -4.5506872e-21)
(-0.00051593254 0.0026451524 1.6897847e-22)
(-0.00070609169 0.0035706527 2.2134361e-21)
(-0.00091968548 0.0045807935 9.7499069e-22)
(-0.0011596174 0.0056797426 7.1935538e-22)
(-0.0014292288 0.0068713893 -1.4160404e-21)
(-0.0017323835 0.008159201 7.3215287e-21)
(-0.002073556 0.0095460476 -5.5156103e-21)
(-0.0024579324 0.011033984 2.6649408e-22)
(-0.0028915207 0.012623986 3.3241923e-21)
(-0.0033812737 0.014315626 -1.2398586e-20)
(-0.0039352177 0.016106689 1.2312932e-20)
(-0.0045625853 0.017992707 -1.6322999e-21)
(-0.0052739417 0.019966413 -1.0050475e-20)
(-0.0060812933 0.022017097 9.3897639e-21)
(-0.006998157 0.024129851 -3.2555157e-21)
(-0.0080395644 0.026284706 6.2678246e-21)
(-0.0092219587 0.02845563 -7.9546435e-21)
(-0.010562932 0.030609402 -1.4743336e-20)
(-0.012080734 0.032704368 1.4368584e-20)
(-0.01379347 0.034689169 2.067734e-20)
(-0.015717922 0.03650167 -3.9041957e-20)
(-0.017867972 0.038068725 3.0533368e-20)
(-0.020252766 0.039308113 -1.7210337e-20)
(-0.022875026 0.040135104 4.2805746e-21)
(-0.025730238 0.040476716 -9.7295198e-21)
(-0.028807361 0.040294044 9.4695528e-21)
(-0.032091014 0.039604203 1.2108683e-20)
(-0.035564048 0.038484296 -7.5531381e-21)
(-0.039209166 0.037047867 -1.1784106e-20)
(-0.043008829 0.035409001 9.59229e-22)
(-0.046943917 0.033658373 3.7955095e-22)
(-0.050992252 0.031858759 6.4023844e-21)
(-0.055127666 0.030051788 -2.6648112e-21)
(-0.059319601 0.028266737 -9.5283226e-21)
(-0.063532981 0.026527394 -4.7391079e-21)
(-0.067728216 0.024856548 7.1523997e-21)
(-0.071861284 0.023278779 -5.634124e-21)
(-0.075883862 0.021822204 4.8546616e-21)
(-0.079743519 0.020519486 -1.623068e-21)
(-0.083383274 0.019408418 -6.3776283e-21)
(-0.086741519 0.018533101 1.5603807e-20)
(-0.089750614 0.017942554 9.4876225e-21)
(-0.092330793 0.017683999 6.3034308e-21)
(-0.094386716 0.01780579 -2.0254837e-20)
(-0.095801228 0.018365348 -1.3350975e-20)
(-0.096422795 0.019425232 -1.5864015e-20)
(-0.09605403 0.021051112 -2.7946388e-20)
(-0.094422716 0.023316003 9.6558335e-21)
(-0.09117869 0.026295037 -2.0800771e-21)
(-0.085809585 0.030084301 -1.6248668e-20)
(-0.077750934 0.034780297 -4.7506257e-20)
(-0.066169908 0.040506762 -3.1128685e-20)
(-0.05041426 0.047143192 -1.2204157e-20)
(-0.028981934 0.054582063 -3.571533e-20)
(-0.0013974603 0.061273578 2.4565566e-20)
(0.036697132 0.066110859 -2.5603573e-21)
(0.082385994 0.066164052 -4.1973655e-20)
(0.14260436 0.060587462 -2.9463431e-20)
(0.21173711 0.039370305 -1.4009847e-21)
(0.3083296 0.0038391203 5.225051e-20)
(0.41840829 -0.061328226 -6.2266557e-21)
(0.57529166 -0.13331197 6.6822815e-21)
(-8.2595132e-05 0.00037541198 2.3493116e-21)
(-0.00025762901 0.0011627879 -1.5838737e-21)
(-0.00045323437 0.0020311031 2.1387795e-21)
(-0.00067154017 0.0029856646 1.2151257e-21)
(-0.0009148035 0.0040318527 -3.388816e-21)
(-0.0011856086 0.0051750176 -3.1614818e-21)
(-0.0014868772 0.0064203907 3.2411712e-21)
(-0.0018218975 0.0077729678 -3.8975019e-22)
(-0.002194388 0.0092373529 -9.0189932e-23)
(-0.0026085624 0.010817564 -6.3949847e-21)
(-0.0030692032 0.01251679 6.992662e-22)
(-0.0035817431 0.014337092 1.2839029e-20)
(-0.0041523529 0.016279033 -1.0235894e-20)
(-0.0047880347 0.018341236 3.5098607e-22)
(-0.0054967153 0.020519838 6.8067651e-21)
(-0.0062873332 0.022807849 5.8257951e-22)
(-0.0071699094 0.025194384 -1.472873e-21)
(-0.0081555844 0.027663754 -6.5879144e-21)
(-0.0092565979 0.030194415 1.196166e-20)
(-0.010486178 0.032757735 -2.0813395e-20)
(-0.011858293 0.035316595 4.4312124e-21)
(-0.013387203 0.037823819 -3.2129405e-21)
(-0.015086745 0.040220536 2.5914653e-21)
(-0.016969303 0.042434718 -1.1189132e-22)
(-0.019044453 0.044380561 1.476526e-20)
(-0.021317461 0.045960206 1.4346696e-20)
(-0.023788091 0.047070551 -2.7551107e-20)
(-0.026450471 0.047618853 -4.4348125e-21)
(-0.029294586 0.047548467 1.4749991e-20)
(-0.032308912 0.046866493 4.9846265e-21)
(-0.035482412 0.045653171 1.0725187e-20)
(-0.038804451 0.044038456 -1.1346879e-20)
(-0.042262866 0.042159553 -4.697499e-21)
(-0.045841691 0.040128945 1.0317817e-20)
(-0.049519707 0.038025683 -4.1420018e-21)
(-0.053269943 0.035901937 -1.9495654e-21)
(-0.057059671 0.033793386 5.376396e-21)
(-0.060850445 0.03172775 1.3951281e-20)
(-0.064598034 0.029730475 4.2354748e-21)
(-0.068252266 0.027828231 -2.7955763e-21)
(-0.071756741 0.02605103 -6.7317503e-21)
(-0.075048446 0.024433371 -7.0758289e-21)
(-0.078056654 0.023014794 -7.9679389e-21)
(-0.080701925 0.021840924 -1.703432e-20)
(-0.082893514 0.020961635 5.1001485e-22)
(-0.084521959 0.020423736 -7.4558188e-21)
(-0.085455106 0.020273642 4.1498869e-20)
(-0.085529849 0.020564729 1.1681969e-20)
(-0.084537731 0.021352746 1.3513506e-20)
(-0.082211295 0.0226927 3.7777045e-20)
(-0.078191898 0.024642382 -4.4364668e-20)
(-0.072021909 0.027254937 9.901239e-21)
(-0.063053009 0.030609146 3.1815383e-20)
(-0.050570226 0.034793097 3.8977593e-20)
(-0.033601008 0.039941972 4.9502025e-21)
(-0.011354957 0.045922276 -1.2260141e-20)
(0.017802091 0.052604973 -1.9733228e-20)
(0.055449778 0.058360378 8.4227599e-21)
(0.10541405 0.062526909 -1.527295e-20)
(0.16406075 0.061996756 1.3368544e-20)
(0.23793491 0.055821806 4.7498634e-21)
(0.32405072 0.033352816 1.5027769e-20)
(0.43972715 -0.0042061749 -6.539623e-20)
(0.57431335 -0.072065689 -2.1097399e-21)
(0.75133805 -0.14241489 -2.183233e-20)
(-0.00010322082 0.0004083909 -2.2119168e-21)
(-0.00032111272 0.0012651305 -5.9221974e-22)
(-0.00056350044 0.002210333 6.5038057e-22)
(-0.0008326391 0.0032501097 3.1950699e-21)
(-0.0011309508 0.0043907004 -3.8291837e-21)
(-0.0014611201 0.0056383891 3.2487062e-21)
(-0.0018261102 0.006999411 1.551043e-21)
(-0.0022291801 0.0084798333 -8.2942591e-23)
(-0.0026739264 0.010085394 -1.3052183e-21)
(-0.0031643237 0.0118213 -7.4077809e-21)
(-0.0037047708 0.013691967 1.2405387e-20)
(-0.0043001396 0.015700704 -1.4857312e-20)
(-0.004955828 0.017849314 4.3454985e-21)
(-0.0056778123 0.020137601 5.8701265e-21)
(-0.0064726988 0.022562785 -8.9515367e-21)
(-0.0073477665 0.025118769 1.7525118e-20)
(-0.0083109941 0.027795283 -2.1070939e-20)
(-0.0093710568 0.030576845 -3.2978115e-22)
(-0.010537275 0.033441538 -1.1839682e-20)
(-0.011819486 0.036359579 4.6422623e-20)
(-0.013227795 0.039291648 -1.1087598e-20)
(-0.014772165 0.042187006 -4.5202421e-20)
(-0.016461779 0.044981457 2.1005548e-20)
(-0.018304139 0.047595421 2.460189e-20)
(-0.020303922 0.049932783 -6.0523533e-21)
(-0.022461799 0.051882052 -3.0958654e-20)
(-0.0247737 0.053322772 4.5599343e-20)
(-0.027231354 0.054141468 -4.893821e-20)
(-0.029824655 0.054259656 3.7037938e-20)
(-0.032545057 0.053667041 -6.7642337e-21)
(-0.035387444 0.052438359 1.1062559e-20)
(-0.038348519 0.050713579 1.4927822e-20)
(-0.041422691 0.04865083 -5.4878895e-21)
(-0.044598305 0.046385496 -1.3194949e-21)
(-0.047855871 0.04401518 -1.8634644e-20)
(-0.051167945 0.041604668 3.449188e-21)
(-0.054499603 0.039197436 -8.7184633e-21)
(-0.057808749 0.036825887 7.3143349e-21)
(-0.061046063 0.034518388 -4.2143222e-21)
(-0.064154614 0.032303627 -2.7975372e-21)
(-0.067069169 0.030213195 -2.4314097e-21)
(-0.0697152 0.028282939 -2.414282e-21)
(-0.072007102 0.026553505 1.5056462e-20)
(-0.073846187 0.02507126 1.2149702e-20)
(-0.075116782 0.023886116 -3.438734e-21)
(-0.075677738 0.023043757 2.2758175e-21)
(-0.07535723 0.022587971 -9.5356245e-21)
(-0.073942746 0.022567186 1.9285721e-20)
(-0.071164788 0.023029447 2.2702253e-20)
(-0.066680932 0.024017954 6.6122241e-21)
(-0.060040808 0.025573603 1.7532211e-20)
(-0.050671405 0.027723823 -5.6277883e-22)
(-0.03777969 0.030529808 -8.5224657e-21)
(-0.020499507 0.034079512 -4.0560576e-20)
(0.0022633921 0.03854285 2.0211637e-20)
(0.031367603 0.043704882 -7.8752651e-21)
(0.069187962 0.049409418 2.3497191e-20)
(0.11861225 0.054174085 -3.94993e-20)
(0.18056449 0.057706898 2.2984185e-20)
(0.25190661 0.056855039 -8.128717e-21)
(0.34015605 0.050057518 -5.8210183e-23)
(0.44486456 0.026391295 -7.2576711e-21)
(0.58170228 -0.012978456 -2.6410272e-20)
(0.7421286 -0.082459659 5.1821865e-20)
(0.93066303 -0.14823747 -4.1977925e-20)
(-0.00012347645 0.00043083235 4.9551035e-21)
(-0.000383498 0.0013349208 3.4073578e-21)
(-0.00067185928 0.002332854 -5.3470683e-21)
(-0.00099099315 0.0034314203 1.407137e-22)
(-0.0013434885 0.0046376096 4.8298295e-21)
(-0.0017321505 0.0059585384 2.5238576e-21)
(-0.002160008 0.007401362 -5.3148993e-21)
(-0.0026303186 0.0089731585 8.7195835e-22)
(-0.0031465891 0.010680772 -1.2278377e-20)
(-0.0037125921 0.012530608 2.3895316e-21)
(-0.0043323848 0.014528382 6.1179806e-23)
(-0.0050103249 0.016678785 -8.7552069e-21)
(-0.0057510875 0.018985078 2.7982848e-20)
(-0.0065596763 0.021448585 -1.2997953e-20)
(-0.0074414305 0.024068058 -2.3201075e-20)
(-0.0084020201 0.026838916 2.4612507e-20)
(-0.0094474251 0.029752302 -3.0149631e-21)
(-0.010583886 0.032793956 1.7010743e-20)
(-0.011817811 0.035942859 1.2541765e-20)
(-0.013155621 0.039169615 -3.9106079e-20)
(-0.014603491 0.042434552 2.9066268e-20)
(-0.016166954 0.045685528 -3.7822025e-20)
(-0.017850327 0.048855495 4.3829596e-21)
(-0.019655915 0.051860057 -1.7650626e-20)
(-0.021583051 0.054595649 3.7688228e-20)
(-0.02362718 0.056939825 -8.749655e-21)
(-0.025779521 0.058756662 -2.1565391e-20)
(-0.028028195 0.059911942 5.0602111e-20)
(-0.03036148 0.060302016 -2.1207331e-20)
(-0.032772248 0.059891701 -2.193951e-20)
(-0.035260336 0.058740092 1.7272095e-20)
(-0.037829901 0.056988349 2.203474e-21)
(-0.040482983 0.054811314 -1.0477416e-20)
(-0.043213574 0.05236751 5.4984064e-21)
(-0.04600497 0.04977549 -8.1232982e-21)
(-0.048829841 0.047115208 2.7518318e-20)
(-0.05165123 0.044439816 -1.4109888e-20)
(-0.054423256 0.041787512 -8.39029e-21)
(-0.05709117 0.039190077 -1.7125598e-20)
(-0.059590805 0.036678266 -2.3562397e-21)
(-0.06184749 0.034284988 1.8372364e-20)
(-0.063774448 0.032046945 -7.4653969e-21)
(-0.065270322 0.030005216 -1.1195293e-20)
(-0.066216089 0.028206026 -1.7290884e-21)
(-0.066469734 0.026698421 1.1446014e-20)
(-0.065856825 0.025526119 1.0241535e-20)
(-0.064163448 0.024729392 -3.172284e-20)
(-0.061124433 0.024350765 -1.7057586e-20)
(-0.056404888 0.024429814 -3.7475833e-20)
(-0.04958143 0.024997211 -1.3281609e-20)
(-0.040103591 0.026075629 -5.1715463e-21)
(-0.027269633 0.027664114 -3.8050101e-20)
(-0.010123877 0.029808819 -1.4758003e-20)
(0.01237036 0.032610199 4.9455907e-20)
(0.041387244 0.036310089 -3.8857224e-20)
(0.078111379 0.040471879 3.5405412e-20)
(0.12683371 0.04498728 -1.654254e-20)
(0.18877271 0.048906117 7.9837446e-20)
(0.26205655 0.052202714 3.9901811e-20)
(0.34745513 0.051187397 -1.6462209e-20)
(0.45222244 0.043876706 -2.6633293e-20)
(0.57843215 0.019371919 -4.71084e-20)
(0.73893135 -0.021530219 -7.3292515e-21)
(0.92251621 -0.089275495 -7.1695295e-21)
(1.0923745 -0.14770547 5.5189794e-20)
(-0.00014226315 0.00044221874 9.011569e-23)
(-0.00044136653 0.0013705473 -6.4115564e-21)
(-0.00077238818 0.0023958205 7.5552646e-21)
(-0.0011379431 0.0035253677 3.6339063e-21)
(-0.001540796 0.0047667961 -7.2736035e-21)
(-0.0019838876 0.0061279315 -2.3539999e-21)
(-0.0024703339 0.0076167395 1.1405265e-20)
(-0.003003421 0.0092412201 -1.2258311e-20)
(-0.0035866053 0.011009261 -2.5820086e-21)
(-0.0042235078 0.012928449 -1.0251895e-20)
(-0.004917906 0.01500582 2.7160992e-20)
(-0.0056737198 0.017247543 3.2971828e-22)
(-0.0064949916 0.019658516 -2.4239987e-20)
(-0.0073858583 0.022241856 2.5913036e-20)
(-0.0083505125 0.024998266 -1.8458168e-20)
(-0.00939315 0.027925242 -6.804353e-21)
(-0.010517898 0.031016102 1.4118006e-20)
(-0.011728713 0.034258795 -1.2637869e-20)
(-0.013029244 0.037634447 -1.6674123e-20)
(-0.014422634 0.041115612 3.4927732e-22)
(-0.015911239 0.044664169 2.5709365e-20)
(-0.017496232 0.048228853 -1.5692603e-20)
(-0.019177057 0.051742443 8.618011e-21)
(-0.020950718 0.05511878 4.0986518e-20)
(-0.022810944 0.058250186 1.3470967e-20)
(-0.024747481 0.061006647 -3.5823999e-20)
(-0.026746039 0.063239661 3.5016325e-21)
(-0.028789865 0.064795598 -3.8503675e-20)
(-0.030863771 0.065543733 2.2073715e-20)
(-0.032959821 0.065417251 -1.1274764e-20)
(-0.035080886 0.064448527 1.5674708e-20)
(-0.037237854 0.062768479 3.6703898e-21)
(-0.039441059 0.060561602 -1.7602367e-20)
(-0.041691524 0.058008156 1.7352069e-20)
(-0.043976693 0.055249768 2.462233e-20)
(-0.046270278 0.052384545 -2.2373036e-21)
(-0.048533726 0.049477773 -2.5186681e-20)
(-0.050717436 0.046575026 3.1828827e-20)
(-0.052761048 0.04371232 -6.8042394e-21)
(-0.054592813 0.040922729 1.46688e-20)
(-0.056128172 0.038240322 -2.3174451e-21)
(-0.057267541 0.035702202 2.3455741e-20)
(-0.057893127 0.0333492 1.1430437e-20)
(-0.057864712 0.031226447 1.4584893e-20)
(-0.057012772 0.029381114 -6.0094244e-20)
(-0.055128069 0.027853966 -2.0085188e-20)
(-0.051952007 0.026680674 2.7200475e-20)
(-0.047162741 0.0258968 -2.2455371e-20)
(-0.040353562 0.025532807 -1.9006123e-20)
(-0.031009707 0.025606651 2.1644505e-20)