/*--------------------------------*- C++ -*----------------------------------*\
  =========                 |
  \\      /  F ield         | OpenFOAM: The Open Source CFD Toolbox
   \\    /   O peration     | Website:  https://openfoam.org
    \\  /    A nd           | Version:  13
     \\/     M anipulation  |
\*---------------------------------------------------------------------------*/
FoamFile
{
    format      ascii;
    class       surfaceScalarField;
    location    "17.79954";
    object      phi;
}
// * * * * * * * * * * * * * * * * * * * * * * * * * * * * * * * * * * * * * //

dimensions      [0 3 -1 0 0 0 0];

internalField   nonuniform List<scalar> 
34068
(
-9.7171496e-08
1.8909909e-07
-9.1927593e-08
-4.3164659e-07
6.5023562e-07
-3.1576052e-07
-1.0812079e-06
1.2627793e-06
-6.1321796e-07
-2.1428319e-06
2.0658702e-06
-1.0042462e-06
-3.7367301e-06
3.107626e-06
-1.5137278e-06
-6.0110776e-06
4.4468885e-06
-2.172541e-06
-9.1475201e-06
6.1552474e-06
-3.0188049e-06
-1.3367509e-05
8.3192952e-06
-4.0993065e-06
-1.8939516e-05
1.10431e-05
-5.4710927e-06
-2.6187132e-05
1.4450827e-05
-7.2032104e-06
-3.5497985e-05
1.8689378e-05
-9.3785251e-06
-4.7333354e-05
2.3930899e-05
-1.209553e-05
-6.223823e-05
3.0374848e-05
-1.5469972e-05
-8.0851403e-05
3.8249273e-05
-1.96361e-05
-0.00010391503
4.7810776e-05
-2.4747152e-05
-0.00013228278
5.9342508e-05
-3.0974751e-05
-0.00016692563
7.3149408e-05
-3.850656e-05
-0.00020893376
8.9549789e-05
-4.7541665e-05
-0.0002595132
0.00010886231
-5.8282867e-05
-0.00031997555
0.00013138769
-7.0925339e-05
-0.0003917193
0.00015738486
-8.564111e-05
-0.00047620231
0.00018704273
-0.00010255973
-0.00057490653
0.00022045114
-0.00012174691
-0.00068930023
0.00025757991
-0.00014318622
-0.00082080902
0.0002982833
-0.00016677451
-0.00097081772
0.00034235837
-0.00019234967
-0.0011407331
0.00038968601
-0.00021977063
-0.0013321299
0.00044044146
-0.00024904468
-0.0015469678
0.00049528209
-0.00028044417
-0.0017878543
0.00055542667
-0.00031454022
-0.0020582225
0.00062242171
-0.0003520535
-0.0023623292
0.00069753903
-0.00039343225
-0.002703278
0.00077844968
-0.00043750093
-0.0030843103
0.00086469305
-0.00048366077
-0.0035092668
0.00095617813
-0.00053122163
-0.0039823779
0.0010519924
-0.00057888121
-0.0045081234
0.001150463
-0.00062471753
-0.0050911757
0.001249144
-0.00066609175
-0.0057363318
0.0013443756
-0.00069921959
-0.006448609
0.0014314134
-0.00071913623
-0.0072337404
0.0015048504
-0.00071971894
-0.0080988764
0.0015590264
-0.00069389048
-0.0090536326
0.0015881788
-0.00063342261
-0.010111038
0.0015861528
-0.00052874715
-0.01128881
0.0015462627
-0.00036849107
-0.012610092
0.001460837
-0.00013955498
-0.014102206
0.0013227098
0.00016940473
-0.015785769
0.0011138098
0.00056975238
-0.017685768
0.00081569145
0.0010843076
-0.019833162
0.00041640152
0.0017309925
-0.022261025
-9.8083552e-05
0.0025259466
-0.025000411
-0.00074303247
0.003482419
-0.028073816
-0.0015339968
0.0046074017
-0.031486569
-0.0024799966
0.0058927493
-0.035222274
-0.0035656468
0.0073013524
-0.03923895
-0.0047383094
0.0087549853
-0.043453305
-0.0059000106
0.010114365
-0.04774182
-0.0068856007
0.011174116
-0.051571453
-0.0075448961
0.01137453
-0.054102696
-0.0076903531
0.010221596
-0.054062732
-0.0069498286
0.0069098642
-0.049238678
-0.0052781124
0.0004540589
-0.037268424
-0.0029616795
-0.0090085748
-0.017740204
-0.001430447
-0.018097773
-0.0020605469
0.0072455028
-0.02292516
-9.5529676e-08
2.8462876e-07
-4.2440254e-07
9.7910848e-07
-1.0631694e-06
1.9015461e-06
-2.1073226e-06
3.1100234e-06
-3.6752718e-06
4.6755751e-06
-5.91303e-06
6.6846467e-06
-8.9996724e-06
9.2418898e-06
-1.3153633e-05
1.2473256e-05
-1.8639898e-05
1.6529364e-05
-2.5778085e-05
2.1589014e-05
-3.4951409e-05
2.7862702e-05
-4.661635e-05
3.559584e-05
-6.1312876e-05
4.5071375e-05
-7.967476e-05
5.6611156e-05
-0.00010243948
7.05755e-05
-0.00013045693
8.7359953e-05
-0.00016469572
0.0001073882
-0.00020624593
0.0001311
-0.00025631663
0.00015893301
-0.00031622639
0.00019129745
-0.00038738529
0.00022854376
-0.00047126754
0.00027092498
-0.00056937551
0.00031855911
-0.00068319958
0.00037140399
-0.0008141848
0.00042926852
-0.00096372547
0.00049189903
-0.0011332189
0.0005591794
-0.0013242037
0.00063142629
-0.0015385762
0.00070965458
-0.0017788648
0.00079571529
-0.0020484448
0.00089200172
-0.0023514715
0.0010005658
-0.0026910127
0.0011179909
-0.0030702662
0.0012439465
-0.0034929324
0.0013788444
-0.0039630496
0.0015221096
-0.0044848093
0.0016722227
-0.0050624579
0.0018267927
-0.0057003765
0.0019822942
-0.0064032441
0.0021342811
-0.007176541
0.0022781472
-0.0080273124
0.0024097979
-0.0089650456
0.002525912
-0.010002221
0.0026233282
-0.011154637
0.0026986784
-0.012441572
0.0027477722
-0.013884429
0.0027655672
-0.015500076
0.0027294563
-0.017309003
0.002624619
-0.019336783
0.0024441813
-0.021611104
0.0021762377
-0.024159619
0.0018054821
-0.027006905
0.0013132896
-0.03016789
0.00068098758
-0.033638075
-9.5461816e-05
-0.037395372
-0.00098101157
-0.041406784
-0.0018885988
-0.045512545
-0.0027798396
-0.049259035
-0.0037984066
-0.051842693
-0.0051066955
-0.05175211
-0.0070404109
-0.046699079
-0.010331144
-0.034171197
-0.015489561
-0.013423275
-0.02217837
-0.028637097
0.013153276
-9.1426519e-08
3.7605528e-07
-4.062803e-07
1.2939623e-06
-1.0180028e-06
2.5132686e-06
-2.0182633e-06
4.110284e-06
-3.5208128e-06
6.1781246e-06
-5.6660372e-06
8.8298711e-06
-8.6262656e-06
1.2202118e-05
-1.2611944e-05
1.6458934e-05
-1.7878675e-05
2.1796095e-05
-2.4735221e-05
2.844556e-05
-3.3552387e-05
3.6679868e-05
-4.4772747e-05
4.68162e-05
-5.8920971e-05
5.9219599e-05
-7.6614484e-05
7.4304668e-05
-9.857384e-05
9.2534857e-05
-0.00012563218
0.0001144183
-0.00015874266
0.00014049867
-0.0001989825
0.00017133984
-0.00024755214
0.00020750266
-0.00030576752
0.00024951283
-0.00037504367
0.00029781991
-0.00045686838
0.00035274969
-0.00055276591
0.00041445664
-0.00066425401
0.00048289209
-0.00079280385
0.00055781837
-0.0009398219
0.00063891708
-0.0011066846
0.00072604214
-0.0012948563
0.00081959793
-0.0015060874
0.00092088572
-0.0017426742
0.0010323021
-0.0020077336
0.0011570612
-0.0023050906
0.0012979227
-0.0026384532
0.0014513534
-0.0030108316
0.0016163249
-0.0034254716
0.0017934844
-0.003885958
0.001982596
-0.0043959934
0.002182258
-0.0049592753
0.0023900747
-0.0055795985
0.0026026174
-0.0062611699
0.0028158525
-0.0070091764
0.0030261537
-0.0078304467
0.0032310682
-0.0087338912
0.0034293564
-0.0097305404
0.0036199775
-0.010832853
0.0038009905
-0.012054351
0.0039692705
-0.013408807
0.0041200235
-0.014908217
0.0042288661
-0.016566337
0.0042827392
-0.018399746
0.0042775904
-0.020424499
0.0042009904
-0.022655552
0.0040365355
-0.025106679
0.0037644159
-0.027785778
0.0033600868
-0.030681249
0.0028000088
-0.033758403
0.0020961433
-0.03696621
0.0013192083
-0.040156999
0.00041094918
-0.042929726
-0.0010256794
-0.044468013
-0.0035684092
-0.043210119
-0.0082983046
-0.03670325
-0.016838013
-0.022399166
-0.029793645
0.00034474551
-0.044922281
-0.056878935
0.028586583
-8.4850359e-08
4.6090564e-07
-3.7720742e-07
1.5863193e-06
-9.4548144e-07
3.0815426e-06
-1.8751496e-06
5.0399522e-06
-3.2724054e-06
7.5753804e-06
-5.2684776e-06
1.0825943e-05
-8.024718e-06
1.4958359e-05
-1.1738497e-05
2.0172713e-05
-1.6650039e-05
2.6707637e-05
-2.3050189e-05
3.4845711e-05
-3.1289179e-05
4.4918857e-05
-4.1786286e-05
5.7313308e-05
-5.5040321e-05
7.2473633e-05
-7.1640587e-05
9.0904934e-05
-9.2277958e-05
0.00011317223
-0.00011775535
0.00013989569
-0.00014899666
0.00017173997
-0.00018705285
0.00020939603
-0.00023310357
0.00025355338
-0.00028845226
0.00030486151
-0.00035451268
0.00036388033
-0.00043278482
0.00043102183
-0.00052481919
0.00050649101
-0.00063217113
0.00059024403
-0.0007563516
0.00068199883
-0.00089879024
0.00078135572
-0.0010608384
0.00088809031
-0.0012438479
0.0010026074
-0.0014493315
0.0011263693
-0.001679134
0.0012621046
-0.0019356614
0.0014135886
-0.0022220756
0.0015843369
-0.0025439055
0.0017731834
-0.0029040622
0.0019764816
-0.0033048085
0.0021942307
-0.0037489334
0.0024267209
-0.0042394526
0.0026727772
-0.0047793614
0.0029299835
-0.0053717615
0.0031950175
-0.0060203738
0.0034644648
-0.0067301711
0.003735951
-0.0075076206
0.0040085177
-0.0083605198
0.0042822556
-0.0092978366
0.0045572943
-0.010328258
0.0048314117
-0.011459224
0.0051002368
-0.012696583
0.0053573822
-0.014047003
0.0055792859
-0.015518506
0.0057542425
-0.017118831
0.0058779152
-0.018849551
0.0059317105
-0.020707054
0.0058940384
-0.022684902
0.0057422646
-0.024776177
0.0054513617
-0.026960804
0.0049846359
-0.029179425
0.0043147639
-0.031340328
0.003480111
-0.033277245
0.002347866
-0.034612011
0.00030908691
-0.034583124
-0.0035972961
-0.03169993
-0.011181499
-0.023337556
-0.025200387
-0.00682333
-0.04630787
0.017589479
-0.06933509
-0.08578226
0.046492803
-7.5867153e-08
5.3677279e-07
-3.3746165e-07
1.8479138e-06
-8.4627404e-07
3.590355e-06
-1.6792563e-06
5.8729345e-06
-2.9321783e-06
8.8283024e-06
-4.7236357e-06
1.2617401e-05
-7.1997668e-06
1.743449e-05
-1.0539822e-05
2.3512768e-05
-1.4962598e-05
3.1130413e-05
-2.0733926e-05
4.0617039e-05
-2.8175134e-05
5.2360065e-05
-3.7672629e-05
6.6810803e-05
-4.9688388e-05
8.4489392e-05
-6.477135e-05
0.0001059879
-8.3569215e-05
0.00013197009
-0.00010684023
0.0001631667
-0.00013546402
0.00020036377
-0.00017045037
0.00024438238
-0.00021294421
0.00029604722
-0.00026422486
0.00035614217
-0.0003256968
0.00042535228
-0.0003988695
0.00050419453
-0.00048532369
0.0005929452
-0.0005866635
0.00069158384
-0.00070445686
0.00079979219
-0.00084017466
0.00091707351
-0.00099515144
0.0010430671
-0.0011706081
0.0011780641
-0.0013677646
0.0013235257
-0.0015879294
0.0014822694
-0.0018325909
0.0016582501
-0.00210412
0.0018558659
-0.0024084166
0.00207748
-0.002749899
0.002317964
-0.0031302241
0.0025745557
-0.0035510978
0.0028475947
-0.0040144236
0.003136103
-0.0045222995
0.0034378594
-0.00507708
0.0037497979
-0.0056819948
0.0040693796
-0.0063418588
0.004395815
-0.0070625598
0.0047292187
-0.0078501666
0.0050698625
-0.0087110392
0.0054181669
-0.0096501774
0.0057705499
-0.01066981
0.0061198696
-0.011768379
0.0064559511
-0.012945644
0.0067565512
-0.014203413
0.0070120113
-0.015541573
0.0072160748
-0.016949817
0.0073399549
-0.018409063
0.0073532841
-0.019892819
0.0072260205
-0.021366993
0.0069255363
-0.022787862
0.0064055047
-0.024080358
0.0056072597
-0.025118342
0.0045180947
-0.025690868
0.0029203922
-0.025404502
2.2720845e-05
-0.023524489
-0.0054773091
-0.018701289
-0.016004699
-0.0081840806
-0.035717595
0.010597491
-0.065089442
0.036189963
-0.094927562
-0.11415987
0.064567574
-6.4559574e-08
6.0133237e-07
-2.8740564e-07
2.0707599e-06
-7.2127503e-07
4.0242244e-06
-1.4323139e-06
6.5839733e-06
-2.5030635e-06
9.899052e-06
-4.0360323e-06
1.415037e-05
-6.1579703e-06
1.9556428e-05
-9.0249127e-06
2.637971e-05
-1.2828171e-05
3.4933671e-05
-1.7801296e-05
4.5590164e-05
-2.4228173e-05
5.8786943e-05
-3.2452315e-05
7.5034945e-05
-4.2887375e-05
9.4924451e-05
-5.602878e-05
0.0001191293
-7.2466366e-05
0.00014840768
-9.2897586e-05
0.00018359792
-0.00011814065
0.00022560683
-0.00014914652
0.00027538824
-0.00018700821
0.00033390892
-0.00023296535
0.0004020993
-0.00028840086
0.00048078779
-0.00035482676
0.00057062042
-0.00043385463
0.00067197307
-0.00052714757
0.00078487679
-0.00063635195
0.00090899657
-0.00076301265
0.0010437342
-0.00090848974
0.0011885442
-0.0010739163
0.0013434907
-0.0012602514
0.0015098608
-0.0014684092
0.0016904272
-0.0016993545
0.0018891954
-0.0019542423
0.0021107538
-0.0022359936
0.0023592313
-0.0025510916
0.0026330619
-0.0029033089
0.0029267731
-0.0032934116
0.0032376974
-0.0037218338
0.0035645252
-0.0041896959
0.0039057215
-0.0046984921
0.0042585942
-0.0052508244
0.0046217118
-0.0058510776
0.0049960682
-0.0065042636
0.0053824046
-0.0072147176
0.0057803165
-0.0079849666
0.0061884159
-0.0088153111
0.0066008944
-0.0097032672
0.0070078258
-0.010641768
0.0073944516
-0.011623253
0.0077380367
-0.012641485
0.0080302436
-0.01368877
0.0082633593
-0.014747558
0.0083987427
-0.015789299
0.0083950254
-0.016773016
0.0082097372
-0.017637024
0.007789545
-0.018297793
0.0070662732
-0.018656636
0.0059661028
-0.018563761
0.0044252194
-0.017761523
0.0021181545
-0.015822433
-0.0019163687
-0.011967334
-0.0093324089
-0.0048888449
-0.023083188
0.0080911753
-0.048697615
0.028990398
-0.085988664
0.054899975
-0.12083714
-0.14054822
0.08128832
-5.1067963e-08
6.5240033e-07
-2.2765193e-07
2.2473439e-06
-5.7198998e-07
4.3685624e-06
-1.1372484e-06
7.1492317e-06
-1.9900361e-06
1.075184e-05
-3.2134555e-06
1.5373789e-05
-4.9107754e-06
2.1253748e-05
-7.2098635e-06
2.8678799e-05
-1.0268499e-05
3.7992307e-05
-1.4280707e-05
4.9602372e-05
-1.9484268e-05
6.3990504e-05
-2.6169578e-05
8.1720255e-05
-3.468988e-05
0.00010344475
-4.5473153e-05
0.00012991257
-5.9035414e-05
0.00016196994
-7.5995422e-05
0.00020055793
-9.7090302e-05
0.00024670171
-0.00012319125
0.00030148919
-0.00015531792
0.00036603559
-0.00019464957
0.00044143095
-0.00024252971
0.00052866794
-0.00030046005
0.00062855076
-0.00037007869
0.00074159171
-0.00045311604
0.00086791414
-0.00055132206
0.0010072026
-0.00066636272
0.0011587749
-0.00079969457
0.001321876
-0.00095245757
0.0014962537
-0.0011254596
0.0016828628
-0.001319293
0.0018842607
-0.0015344402
0.0021043426
-0.001771271
0.0023475845
-0.0020300882
0.0026180485
-0.002314549
0.0029175228
-0.0026305357
0.0032427598
-0.00298084
0.0035880017
-0.0033657624
0.0039494476
-0.0037856368
0.004325596
-0.0042414898
0.0047144471
-0.0047352953
0.0051155174
-0.0052696107
0.0055303837
-0.0058470357
0.0059598296
-0.0064697062
0.0064029871
-0.0071363438
0.0068550534
-0.0078422754
0.007306826
-0.0085798156
0.007745366
-0.0093376492
0.0081522851
-0.010102666
0.0085030531
-0.010861922
0.0087895001
-0.011600578
0.0090020152
-0.012293561
0.0090917255
-0.012901792
0.0090032565
-0.013369812
0.0086777573
-0.013619211
0.0080389436
-0.013541208
0.0069882709
-0.012996341
0.0054212357
-0.011799359
0.0032282368
-0.0096575487
-2.3655431e-05
-0.0060858001
-0.0054881173
-0.00023378112
-0.015184428
0.009389102
-0.032706071
0.025149445
-0.064457958
0.047752871
-0.10859209
0.072595586
-0.14567985
-0.16339627
0.095443637
-3.5573918e-08
6.8797425e-07
-1.5898616e-07
2.3707561e-06
-4.0035054e-07
4.6099268e-06
-7.9781353e-07
7.5466947e-06
-1.3995106e-06
1.1353537e-05
-2.2659665e-06
1.6240245e-05
-3.4730574e-06
2.2460839e-05
-5.1156704e-06
3.0321412e-05
-7.3121616e-06
4.0188798e-05
-1.0209859e-05
5.250007e-05
-1.399176e-05
6.7772404e-05
-1.8884646e-05
8.6613141e-05
-2.5168947e-05
0.00010972906
-3.3190427e-05
0.00013793405
-4.3374082e-05
0.0001721536
-5.6240118e-05
0.00021342397
-7.2422038e-05
0.00026288363
-9.2686321e-05
0.00032175348
-0.00011795258
0.00039130184
-0.0001493122
0.00047279057
-0.00018804269
0.00056739842
-0.00023561267
0.00067612074
-0.00029367124
0.00079965028
-0.00036401243
0.00093825532
-0.00044850422
0.0010916944
-0.00054897098
0.0012592416
-0.00066702917
0.0014399342
-0.00080390836
0.0016331329
-0.00096034503
0.0018392994
-0.0011366426
0.0020605582
-0.0013328437
0.0023005438
-0.0015488424
0.0025635832
-0.001784392
0.0028535981
-0.0020397825
0.0031729133
-0.0023175451
0.0035205223
-0.0026215956
0.0038920521
-0.0029552302
0.0042830821
-0.0033194156
0.0046897814
-0.0037152179
0.0051102494
-0.0041442693
0.0055445688
-0.0046069105
0.0059930248
-0.0051020535
0.0064549725
-0.0056271091
0.0069280427
-0.0061772087
0.007405153
-0.006744679
0.0078742964
-0.0073179002
0.0083185872
-0.0078812125
0.0087155974
-0.0084161337
0.0090379743
-0.0089033763
0.0092767428
-0.0093211868
0.0094198257
-0.0096365317
0.0094070704
-0.0097991503
0.009165875
-0.009739155
0.008617762
-0.0093626436
0.0076624321
-0.0085457752
0.0061714026
-0.0071221611
0.0039976216
-0.0048721849
0.00097826059
-0.0014405385
-0.0034553018
0.003739448
-0.010668104
0.011631069
-0.023076049
0.024021339
-0.045096341
0.042703438
-0.083140057
0.066076632
-0.13196528
0.088121651
-0.16772487
-0.18147319
0.10619857
-1.8344585e-08
7.0631883e-07
-8.2590119e-08
2.4350016e-06
-2.0929048e-07
4.7366272e-06
-4.1975968e-07
7.7571639e-06
-7.413662e-07
1.1675143e-05
-1.2091862e-06
1.6708065e-05
-1.8681269e-06
2.3119779e-05
-2.7756087e-06
3.1228893e-05
-4.0050298e-06
4.1418219e-05
-5.6501578e-06
5.4145198e-05
-7.8307466e-06
6.9952993e-05
-1.0699658e-05
8.9482052e-05
-1.4451879e-05
0.00011348128
-1.9335717e-05
0.00014281789
-2.5666796e-05
0.00017848467
-3.3845005e-05
0.00022160218
-4.4374776e-05
0.0002734134
-5.7888416e-05
0.00033526712
-7.5172227e-05
0.00040858566
-9.7193475e-05
0.00049481182
-0.00012512546
0.0005953304
-0.00016036607
0.00071136136
-0.00020454166
0.00084382587
-0.00025948528
0.00099319895
-0.00032717358
0.0011593827
-0.0004096032
0.0013416713
-0.00050859318
0.0015389242
-0.00062553162
0.0017500713
-0.00076115954
0.0019749273
-0.00091553985
0.0022149386
-0.0010882511
0.002473255
-0.0012786177
0.0027539498
-0.0014858819
0.0030608623
-0.0017094577
0.0033964891
-0.0019498987
0.0037609633
-0.0022096576
0.0041518111
-0.0024916355
0.00456506
-0.0027980728
0.0049962187
-0.0031302949
0.0054424715
-0.0034883487
0.0059026226
-0.0038706409
0.0063753171
-0.0042737128
0.0068580444
-0.0046915294
0.0073458593
-0.0051156988
0.0078293224
-0.0055350155
0.0082936131
-0.005934417
0.0087179887
-0.0062943848
0.0090755651
-0.0065908395
0.009334429
-0.0067973356
0.009483239
-0.0068855158
0.0095080059
-0.0068141289
0.0093356835
-0.0065216238
0.0088733699
-0.0059236498
0.008019788
-0.0049089341
0.0066477164
-0.0033410642
0.0046035326
-0.0010570062
0.0017135636
0.0021994445
-0.0022781901
0.0068858667
-0.008141724
0.013673368
-0.017455605
0.023742597
-0.033145278
0.03917843
-0.060532174
0.060417271
-0.1043789
0.082718413
-0.15426643
0.10037329
-0.18537975
-0.19443971
0.11333981
6.1819713e-11
7.0625701e-07
-9.1827698e-10
2.4359817e-06
-4.9027516e-09
4.7406117e-06
-1.5045651e-08
7.7673068e-06
-3.6256103e-08
1.1696354e-05
-7.5996459e-08
1.6747805e-05
-1.4542566e-07
2.3189208e-05
-2.6097881e-07
3.1344447e-05
-4.4660668e-07
4.1603847e-05
-7.3681646e-07
5.4435407e-05
-1.1809326e-06
7.0397109e-05
-1.8487735e-06
9.0149893e-05
-2.8383892e-06
0.00011447089
-4.286296e-06
0.0001442658
-6.3808779e-06
0.00018057926
-9.3796459e-06
0.00022460095
-1.3630909e-05
0.00027766467
-1.9600473e-05
0.00034123668
-2.7903002e-05
0.00041688818
-3.933747e-05
0.00050624629
-5.4924118e-05
0.00061091705
-7.5938232e-05
0.00073237547
-0.00010393284
0.00087182048
-0.00014073705
0.0010300032
-0.00018841015
0.0012070558
-0.00024912459
0.0014023857
-0.00032495034
0.0016147499
-0.0004175384
0.0018426594
-0.000527785
0.0020851739
-0.00065566662
0.0023428202
-0.00080039701
0.0026179854
-0.0009607941
0.0029143469
-0.0011356093
0.0032356775
-0.0013238143
0.0035846941
-0.001525106
0.0039622551
-0.0017403319
0.004367037
-0.0019710675
0.0047957955
-0.0022190606
0.0052442118
-0.0024849865
0.0057083975
-0.0027676334
0.0061852695
-0.0030637377
0.0066714214
-0.0033675972
0.0071619039
-0.0036705812
0.0076488433
-0.0039612083
0.0081199495
-0.0042249045
0.0085573092
-0.004443307
0.0089363912
-0.0045931114
0.0092253695
-0.0046450505
0.0093863681
-0.004565464
0.0094036524
-0.0043178603
0.0092604022
-0.0038523699
0.0088701931
-0.003096841
0.008117841
-0.0019525974
0.0068755445
-0.00029088225
0.0049860012
0.002027921
0.0022847294
0.005153743
-0.0014122584
0.0094114071
-0.0065358542
0.015357306
-0.014087623
0.023827457
-0.025925756
0.036385285
-0.045703106
0.055018842
-0.079165732
0.077435029
-0.12679509
0.096372176
-0.17320357
0.10890659
-0.19791417
-0.20305452
0.11752141
1.8829115e-08
6.874279e-07
8.2432797e-08
2.3723781e-06
2.0385681e-07
4.6191876e-06
3.9868179e-07
7.5724818e-06
6.8524518e-07
1.140979e-05
1.0847684e-06
1.6348282e-05
1.6213056e-06
2.2652671e-05
2.3213849e-06
3.0644367e-05
3.2132062e-06
4.0712026e-05
4.3251385e-06
5.3323475e-05
5.683232e-06
6.9039016e-05
7.3072673e-06
8.8525857e-05
9.2049085e-06
0.00011257325
1.1363084e-05
0.00014210762
1.3736e-05
0.00017820634
1.6228527e-05
0.00022210842
1.8674045e-05
0.00027521915
2.0805829e-05
0.0003391049
2.2221098e-05
0.00041547292
2.2337901e-05
0.00050612949
2.0346196e-05
0.00061290876
1.5157318e-05
0.00073756435
5.3589892e-06
0.00088161881
-1.0810177e-05
0.0010461723
-3.5444333e-05
0.0012316899
-7.0878927e-05
0.0014378203
-0.00011948247
0.0016633535
-0.00018330402
0.0019064809
-0.00026362506
0.002165495
-0.00036061595
0.0024398111
-0.0004733552
0.0027307246
-0.00060023611
0.0030412278
-0.00073947122
0.0033749127
-0.00088948051
0.0037347034
-0.0010491781
0.0041219526
-0.0012181435
0.0045360024
-0.0013965481
0.0049742001
-0.0015847023
0.005432366
-0.0017819702
0.0059056654
-0.0019857896
0.0063890889
-0.002191218
0.0068768498
-0.0023905178
0.0073612037
-0.0025727944
0.0078311198
-0.0027238337
0.0082709888
-0.0028258929
0.0086593684
-0.0028572428
0.0089677412
-0.0027909877
0.0091591144
-0.0025934343
0.0091888147
-0.0022244015
0.0090346196
-0.0016370561
0.0086730569
-0.00077165084
0.0080047878
0.00045463444
0.0068915557
0.0021549785
0.0051752004
0.0044676341
0.0026733457
0.007516731
-0.00076436751
0.011477405
-0.0053729325
0.016771736
-0.011830185
0.024047479
-0.021363367
0.034456939
-0.036335216
0.049989128
-0.061235294
0.071199036
-0.10037564
0.092270896
-0.14786695
0.10615495
-0.18708762
0.1139315
-0.20569073
-0.20890362
0.1197806
3.6902817e-08
6.5052508e-07
1.627991e-07
2.2464818e-06
4.0535789e-07
4.3766289e-06
7.9847039e-07
7.1793693e-06
1.3832972e-06
1.0824964e-05
2.2093386e-06
1.5522241e-05
3.3355389e-06
2.1526471e-05
4.8312637e-06
2.9148642e-05
6.7770463e-06
3.8766243e-05
9.2648771e-06
5.0835644e-05
1.2397697e-05
6.5906196e-05
1.6287724e-05
8.463583e-05
2.1052918e-05
0.00010780806
2.6810862e-05
0.00013634968
3.3669027e-05
0.00017134818
4.1710108e-05
0.00021406734
5.0971027e-05
0.00026595823
6.1413872e-05
0.00032866205
7.2887291e-05
0.0004039995
8.507736e-05
0.00049393942
9.7447844e-05
0.00060053827
0.00010917235
0.00072583984
0.00011906482
0.00087172634
0.00012552104
0.0010397161
0.00012649373
0.0012307172
0.00011953806
0.0014447759
0.00010198114
0.0016809104
7.1270849e-05
0.0019371912
2.5505934e-05
0.0022112599
-3.602243e-05
0.0025013394
-0.00011263559
0.0028073378
-0.0002024752
0.0031310674
-0.00030315372
0.0034755912
-0.00041235525
0.0038439049
-0.00052806926
0.0042376667
-0.00064869571
0.0046566289
-0.00077294668
0.0050984511
-0.00089945085
0.0055588702
-0.0010259387
0.0060321532
-0.0011482848
0.0065114351
-0.0012598188
0.0069883838
-0.0013508209
0.0074522057
-0.0014081426
0.0078884415
-0.0014149361
0.0082777824
-0.001350438
0.0085948703
-0.0011896257
0.0088069288
-0.00090224308
0.0088717318
-0.00045087585
0.0087374475
0.00021074166
0.0083730021
0.0011416297
0.0077421689
0.0024136777
0.0067327398
0.004121612
0.0051836213
0.0063896313
0.0029071811
0.0093470197
-0.00028404271
0.013101555
-0.0045189028
0.017920896
-0.010192274
0.024316753
-0.018226042
0.033129932
-0.030176546
0.046015809
-0.049221092
0.064709271
-0.079928756
0.086412234
-0.1220786
0.10330858
-0.16476329
0.11193795
-0.195717
0.11638672
-0.2101395
-0.21372157
0.12120467
5.3117835e-08
5.9740725e-07
2.3502046e-07
2.0645792e-06
5.8669661e-07
4.0249527e-06
1.1588011e-06
6.6072648e-06
2.013472e-06
9.9702926e-06
3.2263794e-06
1.4309333e-05
4.8889444e-06
1.9863906e-05
7.1107023e-06
2.6926885e-05
1.0021667e-05
3.5855278e-05
1.3774532e-05
4.708278e-05
1.8546438e-05
6.113429e-05
2.4539822e-05
7.8642446e-05
3.1981857e-05
0.00010036602
4.1121525e-05
0.00012721001
5.222327e-05
0.00016024643
6.555575e-05
0.00020073486
8.1373809e-05
0.00025014017
9.9891414e-05
0.00031014445
0.00012124333
0.00038264758
0.0001454329
0.00046974985
0.00017226445
0.00057370672
0.00020126047
0.00069684382
0.00023156718
0.00084141963
0.000261859
0.0010094243
0.00029026234
0.0012023139
0.00031433695
0.0014207013
0.00033117438
0.001664073
0.00033769136
0.0019306742
0.00033117292
0.0022177783
0.00031001863
0.0025224937
0.00027424376
0.0028431127
0.00022571396
0.0031795972
0.00016715405
0.0035341511
0.00010168799
0.003909371
3.2424643e-05
0.00430693
-3.7757635e-05
0.0047268112
-0.00010602922
0.0051667226
-0.00016926962
0.0056221106
-0.00022339314
0.0060862767
-0.00026247172
0.0065505137
-0.00027795392
0.007003866
-0.00025807278
0.0074323246
-0.00018740088
0.0078177696
-4.6490728e-05
0.0081368723
0.00018838308
0.0083599965
0.00054561598
0.008449696
0.0010588437
0.0083585041
0.0017684339
0.0080278572
0.0027273044
0.0074141316
0.0040080424
0.0064614309
0.0056965264
0.0050442558
0.0078988797
0.002981268
0.01073612
6.9941196e-05
0.014305125
-0.0038530481
0.018758964
-0.0089727413
0.024499808
-0.015933118
0.032158111
-0.025884345
0.042999968
-0.041018403
0.058990363
-0.065211487
0.079594082
-0.10053248
0.098487574
-0.14097209
0.10974184
-0.17601756
0.11444899
-0.20042414
0.11748818
-0.21317868
-0.21868628
0.12245289
6.6358942e-08
5.3104831e-07
2.9413299e-07
1.8368051e-06
7.3542452e-07
3.5836612e-06
1.4549564e-06
5.8877329e-06
2.5326064e-06
8.8926426e-06
4.066318e-06
1.2775622e-05
6.1754177e-06
1.7754806e-05
9.0042648e-06
2.4098038e-05
1.2726246e-05
3.2133297e-05
1.7547908e-05
4.2261118e-05
2.3713056e-05
5.4969142e-05
3.1506452e-05
7.084905e-05
4.1256555e-05
9.0615918e-05
5.3336501e-05
0.00011513007
6.8162185e-05
0.00014542075
8.6185873e-05
0.00018271117
0.00010788332
0.00022844272
0.00013373162
0.00028429615
0.00016417464
0.00035220456
0.00019957248
0.00043435201
0.0002401312
0.000533148
0.00028581036
0.00065116466
0.00033620845
0.00079102153
0.00039043191
0.00095520082
0.00044696445
0.0011457814
0.00050357015
0.0013640956
0.00055729216
0.001610351
0.00060464105
0.0018833253
0.00064207595
0.0021803434
0.00066678422
0.0024977855
0.00067761978
0.0028322771
0.00067556978
0.0031816472
0.00066347188
0.003546249
0.00064531367
0.0039275292
0.00062531926
0.0043269244
0.00060778884
0.0047443416
0.00059720309
0.0051773084
0.00059852351
0.0056207902
0.00061778464
0.0060670156
0.00066291994
0.0065053784
0.00074456439
0.0069222216
0.00087669314
0.0073001958
0.0010771567
0.007617306
0.0013680749
0.007845954
0.0017762327
0.0079518387
0.0023334318
0.0078924969
0.0030768863
0.0076150496
0.0040491723
0.0070555712
0.0053122898
0.0061510141
0.0069519963
0.0048217244
0.0090681242
0.0029281279
0.011768681
0.00028071084
0.015143771
-0.0033051488
0.019288613
-0.00799789
0.024487284
-0.014171412
0.031288865
-0.022734699
0.040639063
-0.035234543
0.054290752
-0.054670092
0.072940325
-0.08386106
0.092300159
-0.11989231
0.10570661
-0.15437854
0.11220034
-0.18251129
0.11512294
-0.20334674
0.11814279
-0.21619853
-0.2242965
0.12375302
7.5682765e-08
4.5536554e-07
3.3592424e-07
1.5765636e-06
8.4093694e-07
3.0786485e-06
1.6658123e-06
5.0628575e-06
2.9036356e-06
7.6548193e-06
4.6691566e-06
1.1010101e-05
7.1029956e-06
1.5320967e-05
1.0376498e-05
2.0824536e-05
1.4697154e-05
2.781264e-05
2.0314583e-05
3.6643689e-05
2.7526915e-05
4.775681e-05
3.6687357e-05
6.1688608e-05
4.8210395e-05
7.9092881e-05
6.2577155e-05
0.0001007633
8.0338657e-05
0.00012765925
0.00010211564
0.00016093418
0.00012859269
0.00020196567
0.00016050409
0.00025238476
0.00019860709
0.00031410155
0.00024363868
0.00038932042
0.00029624987
0.00048053682
0.00035691231
0.00059050222
0.00042579323
0.00072214062
0.00050259837
0.00087839568
0.000586392
0.0010619877
0.00067541985
0.0012750678
0.00076698898
0.0015187818
0.0008575005
0.0017928138
0.00094277524
0.0020950687
0.0010187987
0.002421762
0.0010829122
0.0027681636
0.0011342531
0.0031303063
0.0011749228
0.0035055793
0.0012085226
0.0038939294
0.0012412717
0.0042941753
0.0012788665
0.0047067468
0.0013277797
0.0051283952
0.001394827
0.0055537429
0.0014880343
0.0059738083
0.0016175229
0.0063758898
0.0017962694
0.006743475
0.0020407187
0.0070557466
0.0023713563
0.0072866685
0.0028131708
0.0074041395
0.0033960318
0.0073689777
0.0041551541
0.0071333746
0.0051313967
0.006638807
0.0063711587
0.0058158092
0.0079481755
0.0045739973
0.0099579628
0.0028119372
0.012504844
0.00038124616
0.015674732
-0.0028891763
0.019536242
-0.0071666591
0.024277426
-0.012739074
0.030360597
-0.020254583
0.038605036
-0.030979137
0.050432715
-0.047062222
0.066952507
-0.071189884
0.085626457
-0.10253501
0.10032394
-0.1345898
0.10857778
-0.16263238
0.11268138
-0.18661488
0.1150632
-0.20572857
0.11873585
-0.21987118
-0.23059902
0.12503837
8.0475597e-08
3.7488994e-07
3.5762185e-07
1.2994174e-06
8.9619324e-07
2.5400771e-06
1.777214e-06
4.1818368e-06
3.1015187e-06
6.3305146e-06
4.9939345e-06
9.1176849e-06
7.6082215e-06
1.270668e-05
1.1132815e-05
1.7299942e-05
1.5797445e-05
2.3148011e-05
2.1880674e-05
3.0560459e-05
2.9718304e-05
3.991918e-05
3.9712528e-05
5.1694384e-05
5.2341605e-05
6.6463803e-05
6.8169464e-05
8.4935445e-05
8.7854574e-05
0.00010797414
0.00011215666
0.00013663209
0.0001419395
0.00017218283
0.0001781668
0.00021615746
0.0002218877
0.00027038066
0.00027420616
0.00033700196
0.0003362282
0.00041851478
0.0004089786
0.00051775181
0.00049327934
0.00063783987
0.00058958281
0.00078209222
0.00069775954
0.000953811
0.00081685326
0.0011559741
0.00094484234
0.0013907928
0.0010784902
0.0016591659
0.0012134257
0.0019601332
0.0013446381
0.0022905497
0.0014674941
0.0026453076
0.0015793838
0.0030184165
0.0016803967
0.0034045664
0.0017736711
0.003800655
0.0018651369
0.0042027095
0.0019622601
0.0046096236
0.0020735309
0.0050171244
0.0022077042
0.0054195696
0.0023752162
0.0058062962
0.0025886105
0.0061624955
0.0028634183
0.0064686672
0.0032188742
0.0067002907
0.0036784186
0.006827124
0.0042701607
0.0068123974
0.0050271712
0.0066119673
0.0059879052
0.0061726406
0.0071973964
0.0054293157
0.0087110926
0.0043021131
0.01061052
0.0026745699
0.012991582
0.00043087484
0.015939109
-0.0025662802
0.019516215
-0.0064662826
0.023854777
-0.011505222
0.02932946
-0.018213757
0.036683604
-0.027608728
0.047140192
-0.041435725
0.061732062
-0.061654092
0.079083903
-0.088541725
0.094176283
-0.11762739
0.10358818
-0.1440017
0.10887648
-0.16792068
0.1120408
-0.1897792
0.1148715
-0.20855927
0.11931523
-0.22431492
-0.2374233
0.12613952
8.0506247e-08
2.943837e-07
3.581554e-07
1.0217682e-06
8.9841015e-07
1.9998223e-06
1.7834367e-06
3.2968102e-06
3.1158451e-06
4.9981063e-06
5.023178e-06
7.2103519e-06
7.6632477e-06
1.006661e-05
1.1230457e-05
1.3732732e-05
1.5963243e-05
1.8415225e-05
2.2152706e-05