/*--------------------------------*- C++ -*----------------------------------*\
  =========                 |
  \\      /  F ield         | OpenFOAM: The Open Source CFD Toolbox
   \\    /   O peration     | Website:  https://openfoam.org
    \\  /    A nd           | Version:  13
     \\/     M anipulation  |
\*---------------------------------------------------------------------------*/
FoamFile
{
    format      ascii;
    class       volVectorField;
    location    "35.796991";
    object      UMean;
}
// * * * * * * * * * * * * * * * * * * * * * * * * * * * * * * * * * * * * * //

dimensions      [0 1 -1 0 0 0 0];

internalField   nonuniform List<vector> 
17140
(
(-1.9551604e-06 8.144236e-05 -1.0531148e-22)
(-2.5367657e-05 0.00025065068 -7.982328e-24)
(-7.6168898e-05 0.00043550664 5.2780095e-22)
(-0.0001649101 0.00063677142 -5.8056439e-22)
(-0.00030121464 0.00085522613 6.7916799e-23)
(-0.00049815705 0.0010914894 -2.2238342e-22)
(-0.00077178184 0.0013459741 -3.747064e-22)
(-0.001141393 0.0016188139 1.8335134e-22)
(-0.0016301333 0.0019097793 6.0066498e-22)
(-0.0022655278 0.0022181794 1.4757679e-21)
(-0.0030800102 0.0025427527 -2.1940787e-21)
(-0.0041113955 0.0028815511 1.9609307e-21)
(-0.0054032567 0.0032318257 3.0077546e-22)
(-0.0070051278 0.0035899215 -1.7118057e-21)
(-0.0089724526 0.0039512029 1.909237e-22)
(-0.011366182 0.0043100253 -1.5228963e-21)
(-0.014251929 0.0046597855 5.7502528e-23)
(-0.017698619 0.0049930755 -1.2447879e-23)
(-0.021776597 0.0053019692 -9.2255861e-22)
(-0.026555301 0.0055784525 1.209626e-21)
(-0.032100662 0.0058149925 -5.8720305e-22)
(-0.038472571 0.0060051966 1.1434927e-22)
(-0.045723323 0.0061444762 8.4424906e-22)
(-0.05389872 0.0062306215 -8.4719688e-22)
(-0.063036063 0.0062642696 -1.3592267e-21)
(-0.073163889 0.0062489148 1.1038285e-21)
(-0.084309507 0.0061897516 5.4410271e-21)
(-0.096510891 0.0060933549 6.3859799e-22)
(-0.10980359 0.0059681373 -5.6911398e-21)
(-0.12421232 0.0058204774 -1.3299882e-21)
(-0.13976402 0.0056533192 -4.7801073e-21)
(-0.15647993 0.0054673844 6.3421745e-21)
(-0.17437414 0.005262185 -1.652611e-21)
(-0.19345164 0.0050364398 -7.9825611e-22)
(-0.21370412 0.0047881484 -7.8225177e-21)
(-0.2351034 0.0045148101 3.4607338e-21)
(-0.2575932 0.004213624 -5.1919987e-21)
(-0.28107896 0.0038816323 -3.5054129e-21)
(-0.30541605 0.0035160363 -1.5949219e-21)
(-0.33039766 0.0031151076 4.8353509e-21)
(-0.35574405 0.0026786569 9.0404491e-21)
(-0.38109147 0.0022079706 8.1250573e-21)
(-0.40598151 0.0017045282 3.5124465e-21)
(-0.42986127 0.0011679481 -1.6738364e-20)
(-0.45207491 0.00059763034 -1.2024336e-20)
(-0.47190215 -1.7347445e-06 2.9075577e-21)
(-0.48866109 -0.00062950907 -1.9389767e-20)
(-0.50153991 -0.0012797657 -6.4655031e-21)
(-0.50975181 -0.0019350154 6.4837015e-21)
(-0.51269676 -0.0025658006 1.5661958e-20)
(-0.50987588 -0.0031364843 -9.5626808e-21)
(-0.50084756 -0.0036200225 -6.0161648e-21)
(-0.48521886 -0.0040209763 1.566073e-20)
(-0.46267312 -0.004313712 7.4333634e-21)
(-0.43277574 -0.0044331896 5.3556388e-21)
(-0.39537921 -0.0043478601 -4.2224345e-21)
(-0.35000581 -0.0040477989 1.1723087e-20)
(-0.29664669 -0.0035854802 9.9547444e-21)
(-0.2344476 -0.0031529918 2.5568272e-21)
(-0.16447459 -0.0031446688 -6.6589103e-21)
(-0.085156218 -0.0040385197 -5.3491239e-21)
(-0.00098152555 -0.0062426615 -2.0179732e-20)
(0.093334588 -0.0096376944 -3.0224094e-21)
(0.18485628 -0.012597005 2.5704868e-20)
(0.28874028 -0.012829008 -2.0281026e-20)
(-1.9917827e-05 0.00046479432 2.9852299e-23)
(-8.0250235e-05 0.0014300144 -2.7624282e-21)
(-0.00017090683 0.0024841391 2.4589828e-21)
(-0.00030242514 0.0036321164 -6.7090425e-22)
(-0.00048444532 0.0048785401 -1.3863688e-21)
(-0.00072996596 0.0062271528 2.6507653e-21)
(-0.0010548606 0.0076805318 -2.7663663e-21)
(-0.0014781667 0.0092396742 2.4375887e-22)
(-0.0020226319 0.010903493 -7.6209578e-22)
(-0.0027152343 0.012668241 -1.2691574e-23)
(-0.0035876916 0.014526868 -2.5550604e-21)
(-0.0046769129 0.016468337 4.0729533e-21)
(-0.0060253622 0.018476941 3.3747979e-22)
(-0.0076812568 0.020531681 -3.3451119e-21)
(-0.0096985258 0.022605813 1.0331189e-21)
(-0.012136436 0.024666695 6.5950295e-22)
(-0.015058799 0.026676096 -4.2048176e-21)
(-0.018532694 0.028591176 1.3794517e-20)
(-0.022626682 0.030366312 -8.7001384e-21)
(-0.0274086 0.031955889 1.0496624e-20)
(-0.032943092 0.033318066 -1.5632785e-20)
(-0.039289199 0.034419235 3.8646613e-21)
(-0.046498826 0.035238595 1.6074791e-21)
(-0.054617758 0.035771937 -5.2792712e-21)
(-0.063684285 0.036033642 1.9155213e-20)
(-0.073727649 0.036054505 2.8582264e-21)
(-0.084775371 0.035871539 -1.5034047e-20)
(-0.096866352 0.035520861 1.6939861e-20)
(-0.11003638 0.035033244 -2.379075e-21)
(-0.1243098 0.034433956 -2.3102542e-20)
(-0.13971288 0.033740702 2.4332043e-21)
(-0.15626609 0.032965476 1.8534537e-20)
(-0.17398222 0.032116263 4.3448989e-22)
(-0.19286444 0.031196673 -1.3956377e-20)
(-0.21290208 0.030204865 1.5657557e-20)
(-0.23406402 0.029133176 -7.0520905e-21)
(-0.25629028 0.027968502 8.3824749e-21)
(-0.27948185 0.02669309 2.6527041e-20)
(-0.30348878 0.025285839 5.8910989e-21)
(-0.32809793 0.023724742 2.2994541e-20)
(-0.35302168 0.021988966 -2.9389297e-20)
(-0.37788629 0.020059703 -2.6693179e-20)
(-0.40221987 0.017919676 -4.4510367e-21)
(-0.42544805 0.015555033 3.5807493e-20)
(-0.44688861 0.012965358 -1.6520432e-20)
(-0.46580572 0.010175392 -5.610732e-21)
(-0.4814317 0.0072075771 3.0247982e-21)
(-0.49298012 0.004081914 9.1637654e-21)
(-0.49969005 0.00087950166 -4.4268995e-21)
(-0.50090432 -0.0023055112 7.896745e-21)
(-0.4961056 -0.0054076074 4.7253517e-20)
(-0.48488654 -0.0083812084 2.2593267e-21)
(-0.46687924 -0.011202667 -1.0175688e-20)
(-0.44179177 -0.013850805 2.2741916e-20)
(-0.40927711 -0.016280912 -1.9603505e-20)
(-0.36917151 -0.018464609 5.6390045e-20)
(-0.32103612 -0.02041289 1.6304009e-20)
(-0.26495314 -0.022195229 -4.703265e-20)
(-0.20010923 -0.023945464 8.0680837e-21)
(-0.12757044 -0.026020609 9.4865416e-21)
(-0.04574796 -0.028655018 1.9529929e-21)
(0.040758675 -0.032479305 -2.6242119e-20)
(0.13755719 -0.036675741 5.2401731e-20)
(0.23115925 -0.040269569 1.5832963e-20)
(0.33645168 -0.039853616 2.697817e-20)
(-5.8874201e-05 0.00084052405 1.6438726e-21)
(-0.00019912162 0.0025862587 -8.3054393e-22)
(-0.00037598904 0.0044931209 -2.2092009e-22)
(-0.00059987657 0.0065703403 2.0968007e-22)
(-0.00088045148 0.0088264393 -1.0162771e-21)
(-0.0012304946 0.011268458 -7.5383448e-23)
(-0.0016654633 0.013901379 -9.6702526e-22)
(-0.00220375 0.016727371 -1.0430156e-21)
(-0.002867165 0.019744896 8.5443783e-21)
(-0.0036814211 0.022947658 -7.6444787e-21)
(-0.0046765882 0.026323437 3.6677229e-21)
(-0.005887507 0.029852837 5.3887143e-21)
(-0.0073541241 0.033508014 -1.0727651e-20)
(-0.0091216848 0.037251519 -1.3322227e-21)
(-0.011240714 0.041035417 5.1765981e-21)
(-0.013766709 0.044800924 3.5786306e-21)
(-0.016759462 0.048478893 -4.1783772e-21)
(-0.02028195 0.05199148 1.5235607e-20)
(-0.024398787 0.055255372 -9.0850475e-21)
(-0.029174274 0.058186823 4.5267541e-21)
(-0.034670225 0.060708514 -1.5420354e-20)
(-0.040943814 0.06275782 -4.0481376e-21)
(-0.04804609 0.064295432 8.5323363e-21)
(-0.05602277 0.065312625 -1.2949068e-20)
(-0.064914165 0.065835113 -5.1218337e-21)
(-0.074750741 0.065919548 6.2623415e-21)
(-0.085561051 0.065635595 3.5701714e-20)
(-0.097385206 0.065049655 1.6215693e-20)
(-0.11025887 0.064214863 -8.2494471e-21)
(-0.12420644 0.063176176 8.7524303e-21)
(-0.13925215 0.061966882 -5.6398294e-21)
(-0.15541463 0.060610548 -3.1691418e-20)
(-0.17270368 0.059123723 1.0687785e-20)
(-0.1911183 0.057514949 3.2015589e-20)
(-0.21064223 0.055782701 -1.0884688e-20)
(-0.23123727 0.053914213 -1.5172015e-20)
(-0.25283471 0.051885878 2.6337125e-20)
(-0.27532458 0.049664927 7.9795392e-21)
(-0.29854377 0.047211701 -1.4369556e-20)
(-0.32226345 0.044483274 -5.7872749e-21)
(-0.3461766 0.041437028 2.7500968e-20)
(-0.3698846 0.038032081 -7.8864525e-21)
(-0.39288394 0.034229653 -1.1245368e-20)
(-0.41455871 0.030000283 -2.9535369e-20)
(-0.43418427 0.02534326 5.5762987e-20)
(-0.45098676 0.020303662 -3.5597754e-20)
(-0.46415299 0.014942449 -8.7567951e-21)
(-0.47287327 0.0093142446 -3.4739348e-20)
(-0.4764059 0.0035455477 -4.1333739e-20)
(-0.4741449 -0.0021991445 -2.0757079e-21)
(-0.46563338 -0.0077927262 8.7100087e-21)
(-0.45053614 -0.013173985 -6.4696675e-20)
(-0.42854275 -0.018331853 -2.774488e-20)
(-0.39940803 -0.023251475 -2.8778307e-20)
(-0.3628282 -0.027893579 -9.5181651e-21)
(-0.31869943 -0.032239023 -7.5242122e-20)
(-0.2666508 -0.036307872 3.0215838e-20)
(-0.20683694 -0.040181755 -9.4588133e-21)
(-0.13840783 -0.043965901 -7.9024961e-20)
(-0.062525222 -0.04799048 -3.2025213e-20)
(0.022527734 -0.052192216 3.9126165e-20)
(0.11189484 -0.057476583 1.3738166e-19)
(0.21180886 -0.062255259 -4.5038933e-20)
(0.30710367 -0.066145182 -7.3348009e-20)
(0.41234871 -0.064341349 -3.2055674e-20)
(-0.00011763147 0.0011958977 -5.4735582e-21)
(-0.00037839093 0.0036805395 5.9381922e-21)
(-0.00068527775 0.0063955123 -2.1480696e-21)
(-0.0010484389 0.0093544026 2.3372164e-22)
(-0.0014776009 0.01256979 -4.6216566e-21)
(-0.0019852134 0.01605226 4.7872569e-21)
(-0.0025861076 0.019809595 -7.2685917e-21)
(-0.0032976856 0.023845712 3.4267099e-21)
(-0.0041403489 0.028159385 1.3046302e-20)
(-0.0051378903 0.032742765 -3.1458493e-21)
(-0.0063178822 0.037579702 -1.200838e-20)
(-0.0077120253 0.042643935 3.6800673e-21)
(-0.0093564391 0.047897227 2.4830926e-22)
(-0.01129184 0.053287626 -9.7127188e-21)
(-0.013563552 0.058748067 3.0571726e-20)
(-0.016221288 0.064195686 -1.8900289e-20)
(-0.019318644 0.069532271 -1.8120507e-22)
(-0.022912238 0.074646384 1.0630571e-20)
(-0.027060503 0.079417702 -2.726471e-20)
(-0.031822146 0.083724004 1.301439e-20)
(-0.03725441 0.087450909 1.9636198e-20)
(-0.043411332 0.090503868 8.0343868e-21)
(-0.050342405 0.09282099 -4.0334596e-20)
(-0.058093048 0.094384254 -2.1325752e-20)
(-0.066706036 0.095225852 1.4025187e-20)
(-0.076214035 0.095424957 -8.2316957e-21)
(-0.086647855 0.095084694 3.1363386e-20)
(-0.09804817 0.094302305 -9.0947104e-21)
(-0.11045072 0.093153966 2.4825994e-20)
(-0.12388081 0.091705322 -1.4219952e-20)
(-0.13835913 0.090006277 8.8262572e-21)
(-0.15390163 0.088092431 -3.2858614e-20)
(-0.17051358 0.085989018 4.7980129e-21)
(-0.18818781 0.083709547 -2.530233e-20)
(-0.20689976 0.081252754 2.448565e-20)
(-0.22660061 0.078600832 7.7544657e-21)
(-0.24720847 0.075719756 -9.9074219e-20)
(-0.26859734 0.072561367 -2.5848115e-20)
(-0.2905848 0.069067012 2.1598231e-20)
(-0.31291911 0.065172285 -2.1243982e-20)
(-0.33526574 0.060811407 5.3786115e-21)
(-0.35719242 0.055919486 3.4104134e-20)
(-0.378155 0.050435085 -1.6114978e-21)
(-0.3974893 0.044314409 -1.1159674e-20)
(-0.4144361 0.037562997 5.5362798e-21)
(-0.42821175 0.030250988 -2.4268286e-21)
(-0.4379772 0.022471873 -7.5203854e-21)
(-0.44293803 0.014338655 1.17683e-19)
(-0.44241717 0.006055203 -1.3007502e-20)
(-0.43590375 -0.0021529286 1.2004896e-20)
(-0.42302717 -0.010115272 -1.1255428e-19)
(-0.4035239 -0.017758317 6.1880328e-20)
(-0.37713234 -0.025081362 5.0917927e-20)
(-0.34364722 -0.032086676 4.9036512e-20)
(-0.30280819 -0.038745761 4.7766654e-20)
(-0.25459562 -0.045052436 7.6122045e-20)
(-0.19868534 -0.051043643 -1.5422039e-19)
(-0.13528224 -0.056848416 9.6603961e-20)
(-0.063428007 -0.062503731 1.4991144e-19)
(0.015570523 -0.068344037 -1.1185509e-19)
(0.10364762 -0.073962405 -3.6720453e-20)
(0.19558031 -0.080681237 -3.3129476e-20)
(0.29807047 -0.085773283 1.6972082e-19)
(0.39371645 -0.089419147 1.2660569e-19)
(0.49635652 -0.085654854 -5.7412573e-21)
(-0.00019357499 0.0015181913 3.8245524e-21)
(-0.00061014716 0.0046739623 -8.626459e-21)
(-0.0010851973 0.0081241359 7.0366108e-21)
(-0.0016285554 0.011886704 -2.660983e-21)
(-0.0022500586 0.015978439 -9.6197998e-22)
(-0.002961755 0.0204138 8.2876846e-21)
(-0.003777694 0.025203896 -2.1031242e-21)
(-0.0047140456 0.030355174 -4.4716624e-21)
(-0.0057894274 0.03586781 -3.4420847e-22)
(-0.0070251948 0.041733835 -2.9291049e-21)
(-0.0084457318 0.047934999 4.114259e-21)
(-0.010078712 0.054440413 -2.871856e-21)
(-0.011955321 0.061204098 -1.0629383e-20)
(-0.014110401 0.068162606 -3.0909074e-22)
(-0.016582487 0.075233017 8.2336063e-21)
(-0.019413685 0.082311735 5.8781231e-21)
(-0.022649358 0.089274638 -5.1030123e-21)
(-0.02633758 0.095979294 4.9962067e-22)
(-0.030528349 0.10226997 1.0185166e-20)
(-0.035272576 0.10798613 1.2558834e-20)
(-0.040620936 0.11297459 -1.453471e-20)
(-0.046622701 0.11710508 -1.4838854e-20)
(-0.05332473 0.12028735 2.0267589e-20)
(-0.060771637 0.12248691 -2.5428093e-20)
(-0.06900816 0.1237349 -4.460901e-20)
(-0.078071021 0.12412718 1.0665185e-19)
(-0.08799421 0.12380023 -5.9425662e-20)
(-0.09881717 0.12288217 8.8830979e-20)
(-0.11057762 0.12147459 -1.121061e-19)
(-0.12330264 0.11966467 1.2613147e-19)
(-0.13700802 0.11752013 -1.3140616e-19)
(-0.15170637 0.11508945 2.2376704e-20)
(-0.16739721 0.11240686 7.7371921e-20)
(-0.18406565 0.10949093 -4.3925607e-20)
(-0.20167689 0.10634076 1.3840709e-20)
(-0.22016914 0.10293356 4.1305859e-21)
(-0.2394442 0.099224823 5.0081277e-20)
(-0.25935655 0.095150916 1.6236932e-20)
(-0.27970109 0.090633924 1.623596e-20)
(-0.30019979 0.085587248 1.6304962e-20)
(-0.32048712 0.079920731 -8.2987613e-20)
(-0.34009502 0.07354392 3.629354e-20)
(-0.35843917 0.066372804 5.5134771e-21)
(-0.37481725 0.058354858 -6.548617e-20)
(-0.38846377 0.049513027 -3.2694777e-20)
(-0.39860441 0.039951862 1.609226e-20)
(-0.40443474 0.029795949 5.7130807e-20)
(-0.40522259 0.019229598 -2.4870342e-20)
(-0.40036953 0.0085295186 7.1154439e-20)
(-0.38942562 -0.002011904 3.8399153e-20)
(-0.37208071 -0.012187928 5.3000055e-20)
(-0.3481191 -0.021928719 1.4148234e-19)
(-0.31729741 -0.031256074 -1.1004429e-19)
(-0.27943266 -0.040186257 3.562596e-20)
(-0.23430829 -0.048688834 -6.2851371e-20)
(-0.18199599 -0.056765702 -6.0358374e-20)
(-0.12222415 -0.064481159 -2.376545e-20)
(-0.055242844 -0.072042399 -2.236155e-19)
(0.020079106 -0.079399576 -6.165851e-20)
(0.10219737 -0.086924508 1.4384802e-19)
(0.1933747 -0.093785701 5.5365982e-20)
(0.28809825 -0.1017403 -4.2912312e-20)
(0.39231027 -0.10677871 -9.0551409e-20)
(0.48716463 -0.10943798 -1.4183545e-19)
(0.58476165 -0.10300728 1.1321972e-20)
(-0.00028264827 0.0017951494 1.1544276e-20)
(-0.00088210283 0.0055290108 2.7551207e-21)
(-0.0015546365 0.0096141076 -2.2335982e-21)
(-0.0023097678 0.014072828 -8.2504737e-21)
(-0.0031575076 0.018926248 4.5240512e-21)
(-0.0041094944 0.024193038 -6.5197716e-21)
(-0.0051789323 0.029888242 2.8252721e-21)
(-0.0063806268 0.036021773 6.7404348e-22)
(-0.0077311933 0.042596543 -3.8248322e-21)
(-0.0092492237 0.049606265 -8.2669213e-21)
(-0.010955456 0.057032909 -4.1450971e-22)
(-0.012872923 0.06484386 1.3703015e-20)
(-0.015027078 0.072988875 -1.9057802e-20)
(-0.017445879 0.081397042 3.0984886e-20)
(-0.020159826 0.089974057 -8.1631051e-21)
(-0.023201917 0.098600289 1.7500551e-20)
(-0.026607528 0.10713031 -2.1401942e-20)
(-0.03041419 0.11539473 1.4074651e-20)
(-0.034661278 0.12320531 -2.2593895e-21)
(-0.039389612 0.13036424 -9.301171e-21)
(-0.044641027 0.1366782 2.2979922e-20)
(-0.050457944 0.14197697 -3.302233e-20)
(-0.056882992 0.1461348 3.656319e-20)
(-0.063959062 0.14909133 6.3542001e-21)
(-0.071730989 0.1508664 -6.3884211e-20)
(-0.080242464 0.15156274 6.5644e-20)
(-0.089530041 0.15134429 -4.3402652e-20)
(-0.099630321 0.15037514 4.9328849e-20)
(-0.11058734 0.14878697 4.6222544e-21)
(-0.12242895 0.14668629 2.8865067e-21)
(-0.13516618 0.14416018 -2.0355352e-20)
(-0.14880735 0.14127197 1.2795808e-21)
(-0.1633457 0.13806559 -7.7931678e-20)
(-0.17875774 0.13456507 2.1383921e-20)
(-0.1949973 0.1307702 6.400068e-20)
(-0.21198803 0.12665331 -3.0118956e-20)
(-0.22961399 0.12215958 2.4959807e-20)
(-0.24770897 0.11721028 -2.5008659e-20)
(-0.26604411 0.11170827 -1.3980273e-19)
(-0.2843146 0.10554432 7.7358952e-20)
(-0.30212485 0.098603056 1.8824882e-20)
(-0.31897447 0.09076845 -1.0632032e-19)
(-0.33424816 0.08193686 6.408314e-21)
(-0.34722864 0.072055926 1.3022421e-20)
(-0.35718309 0.061177317 1.3719009e-19)
(-0.36337119 0.049443098 3.1392015e-20)
(-0.36507333 0.037011297 -4.8640829e-20)
(-0.36163077 0.024132046 -4.9158879e-20)
(-0.35248093 0.011142946 -6.9047357e-20)
(-0.33717327 -0.0016010305 -8.4370206e-20)
(-0.31542183 -0.013850514 -5.1201004e-20)
(-0.28704571 -0.025539471 -8.0063406e-20)
(-0.25181934 -0.036714392 2.758802e-20)
(-0.20958236 -0.047401224 -1.7059085e-19)
(-0.16016877 -0.057556971 -1.1448691e-20)
(-0.10374338 -0.067200058 -1.0095465e-20)
(-0.040021667 -0.076425547 -5.4181455e-21)
(0.030756785 -0.08555564 2.4037796e-19)
(0.10982609 -0.094405545 9.6115127e-20)
(0.19538073 -0.1034393 -1.5096236e-19)
(0.29002105 -0.11140014 -2.2244601e-19)
(0.38799248 -0.12016075 -1.0184199e-19)
(0.49276613 -0.12461192 -3.4069876e-20)
(0.58522122 -0.12541648 2.0147273e-19)
(0.67527442 -0.11569813 -5.1819023e-20)
(-0.0003794064 0.0020158006 -2.1572938e-21)
(-0.0011779972 0.0062119222 -4.613239e-21)
(-0.0020654955 0.010806892 1.1142501e-20)
(-0.0030515006 0.01582733 -4.1530362e-22)
(-0.0041461557 0.021298671 -5.4366372e-21)
(-0.0053607601 0.02724409 -2.399227e-21)
(-0.0067077109 0.033683173 -1.7745126e-21)
(-0.008200457 0.040630288 3.5048434e-21)
(-0.009853576 0.048092545 -1.8192073e-20)
(-0.011682806 0.056067365 1.3776692e-20)
(-0.013705072 0.064539615 -6.6783687e-22)
(-0.015938501 0.073478345 -8.41293e-21)
(-0.018402415 0.082833211 3.1671518e-20)
(-0.021117329 0.092530759 -3.1800591e-20)
(-0.024104933 0.10247088 4.2785376e-21)
(-0.027388093 0.11252397 2.672048e-20)
(-0.030990874 0.12252944 -2.5436047e-20)
(-0.034938616 0.13229669 9.0240354e-21)
(-0.039258085 0.14160956 -1.7787656e-20)
(-0.043977726 0.15023559 2.3219669e-20)
(-0.049128034 0.15794103 4.4387853e-20)
(-0.054742022 0.16451177 -4.4785362e-20)
(-0.060855706 0.16977868 -6.6799787e-20)
(-0.067508509 0.17364414 1.3124393e-19)
(-0.074744086 0.17610313 -1.0704573e-19)
(-0.082611061 0.17725108 6.3074606e-20)
(-0.09115109 0.17726782 -1.6524497e-20)
(-0.1004015 0.17636096 3.9429829e-20)
(-0.11040798 0.174697 -4.0944323e-20)
(-0.12120136 0.17239977 -5.5536498e-20)
(-0.13279151 0.16957729 3.7365199e-20)
(-0.14517974 0.16631075 6.2115872e-20)
(-0.15835347 0.16265522 -5.5822686e-21)
(-0.17228015 0.15864107 -2.3526435e-21)
(-0.1869016 0.15426923 -4.089202e-20)
(-0.20212659 0.14950779 1.7782335e-20)
(-0.21782144 0.14429233 6.5409702e-20)
(-0.23379932 0.13852948 3.2861607e-20)
(-0.24980857 0.13210311 -5.05391e-20)
(-0.26551936 0.12488142 4.0087683e-20)
(-0.28050974 0.11672398 -3.3790947e-20)
(-0.2942549 0.10749092 1.147999e-20)
(-0.30612396 0.097065742 4.2729501e-20)
(-0.31541552 0.085408957 -1.0143726e-19)
(-0.32146134 0.072608369 -5.9880546e-20)
(-0.32359496 0.058838545 -3.8430712e-20)
(-0.32119011 0.044288791 1.1913614e-19)
(-0.3136277 0.029240781 7.6403255e-20)
(-0.30029734 0.014077509 8.872773e-20)
(-0.28071136 -0.00076713243 1.5353438e-19)
(-0.25461728 -0.014977163 -5.2704888e-20)
(-0.22187271 -0.028485723 1.1060297e-20)
(-0.18227025 -0.041370706 8.8466041e-20)
(-0.13568618 -0.053664955 2.6162518e-19)
(-0.082023252 -0.065306613 1.7461471e-19)
(-0.021493853 -0.076340021 6.9846335e-20)
(0.046320693 -0.08689834 2.0758608e-19)
(0.12121176 -0.097416015 -1.4334889e-19)
(0.20440457 -0.10753885 1.5005509e-20)
(0.29407041 -0.11784474 2.4318045e-19)
(0.39277535 -0.126668 1.6927345e-19)
(0.49416712 -0.13557368 8.0837148e-21)
(0.59797626 -0.13866187 -2.8353715e-19)
(0.68548453 -0.13686449 3.0136272e-20)
(0.76508471 -0.12330273 -4.4484932e-20)
(-0.00047742426 0.0021710937 -8.4205218e-21)
(-0.0014780934 0.0066947471 3.8006516e-21)
(-0.0025838658 0.011653787 -5.1378615e-21)
(-0.0038046494 0.017078782 -2.9226931e-21)
(-0.0051507715 0.022999453 8.1661911e-21)
(-0.0066333148 0.029443655 7.63404e-21)
(-0.0082640026 0.036436019 -7.8485905e-21)
(-0.010055077 0.04399629 9.4591616e-22)
(-0.012019238 0.052137219 2.1974958e-22)
(-0.014169533 0.060862004 1.5677886e-20)
(-0.016519235 0.070161221 -1.7290642e-21)
(-0.019081694 0.080009255 -3.1921233e-20)
(-0.021870177 0.090360262 2.5685346e-20)
(-0.024897729 0.10114382 -8.9339401e-22)
(-0.028177053 0.11226054 -1.7510261e-20)
(-0.031720478 0.12357811 -1.524896e-21)
(-0.035540048 0.13492856 3.926345e-21)
(-0.039647803 0.14610769 1.7953455e-20)
(-0.044056322 0.15687817 -3.3419267e-20)
(-0.048779585 0.16697773 5.979926e-20)
(-0.053834165 0.1761339 -1.3157812e-20)
(-0.059240696 0.1840861 9.8397934e-21)
(-0.065025443 0.19061427 -8.2876061e-21)
(-0.071221624 0.19557076 3.2891301e-22)
(-0.077870105 0.19890911 -5.0920026e-20)
(-0.085019608 0.20069994 -5.168967e-20)
(-0.092721783 0.20112266 1.0400804e-19)
(-0.10101755 0.20041971 1.7540804e-20)
(-0.10994559 0.19880876 -6.2072466e-20)
(-0.11954573 0.19643792 -2.232881e-20)
(-0.12983101 0.193429 -5.0860123e-20)
(-0.14079424 0.18988474 5.8123964e-20)
(-0.1524166 0.18587519 2.5624795e-20)
(-0.16465622 0.18143807 -6.0113597e-20)
(-0.17744346 0.17657677 2.5501107e-20)
(-0.19067273 0.17125646 1.1918622e-20)
(-0.20419317 0.16540412 -3.6102151e-20)
(-0.21779855 0.15891269 -9.4521336e-20)
(-0.23121606 0.15164782 -2.8675434e-20)
(-0.24409352 0.14345575 1.925238e-20)
(-0.25598771 0.13417257 4.5593564e-20)
(-0.26635878 0.12363888 4.6860474e-20)
(-0.27457725 0.11173442 5.1514826e-20)
(-0.27998868 0.098445672 1.0722209e-19)
(-0.28200317 0.083905155 -2.9123615e-21)
(-0.28005128 0.068304942 4.4426597e-20)
(-0.27356476 0.05184099 -2.3701455e-19)
(-0.26189253 0.034786534 -6.4955936e-20)
(-0.24433781 0.017568004 -7.3521515e-20)
(-0.2204471 0.00073055855 -2.0227765e-19)
(-0.19004396 -0.015325033 2.3543495e-19)
(-0.15301462 -0.030538015 -5.2564315e-20)
(-0.10915166 -0.045009837 -1.6977594e-19)
(-0.05836242 -0.058773114 -2.1070576e-19)
(-0.00058373984 -0.071747835 -2.7220953e-20)
(0.064040444 -0.084040807 6.9265019e-20)
(0.13610165 -0.095802069 1.1364862e-19)
(0.21538534 -0.10755407 -4.8800947e-20)
(0.30322646 -0.11877467 8.9725646e-20)
(0.39811266 -0.13005923 -7.6525142e-20)
(0.5016042 -0.13935402 -2.6320422e-20)
(0.60574162 -0.14746205 -7.9392001e-20)
(0.70609607 -0.14815379 3.5358548e-19)
(0.78483434 -0.14305996 1.1781073e-20)
(0.85040931 -0.12553841 1.4602613e-19)
(-0.00056953385 0.0022546207 7.8167259e-21)
(-0.0017603857 0.0069575601 1.3927669e-21)
(-0.0030718586 0.012119794 -1.5316837e-21)
(-0.0045142546 0.017775409 -7.5345877e-21)
(-0.0060981971 0.023958143 9.0460963e-21)
(-0.0078347123 0.030700506 -7.6921883e-21)
(-0.0097350632 0.03803247 -3.6819376e-21)
(-0.011810559 0.045979871 1.9801086e-22)
(-0.014072364 0.054562336 3.123399e-21)
(-0.016531249 0.063790733 1.7816656e-20)
(-0.019197317 0.073664037 -3.0029653e-20)
(-0.022079677 0.084165593 3.6249139e-20)
(-0.025186119 0.095258765 -1.0706402e-20)
(-0.028522782 0.10688205 -1.4627287e-20)
(-0.032093886 0.1189439 2.2618295e-20)
(-0.035901566 0.13131758 -4.5015724e-20)
(-0.039945911 0.14383689 5.5173052e-20)
(-0.044225323 0.1562937 8.757088e-22)
(-0.048737285 0.16843877 3.2513479e-20)
(-0.053479706 0.17998776 -1.3123784e-19)
(-0.05845284 0.19063434 3.2365443e-20)
(-0.0636618 0.20007175 1.3643565e-19)
(-0.069119347 0.20802325 -6.5815585e-20)
(-0.074848539 0.21427879 -8.0056546e-20)
(-0.080884381 0.21873192 2.0548368e-20)
(-0.087273577 0.22140659 1.0933153e-19)
(-0.094071267 0.22245971 -1.6862378e-19)
(-0.10133045 0.22214562 1.8988772e-19)
(-0.10908732 0.22073735 -1.5164195e-19)
(-0.11737668 0.21844021 2.9418693e-20)
(-0.1262225 0.21538675 -5.0930526e-20)
(-0.13561542 0.2116896 -7.3219449e-20)
(-0.1455291 0.20743954 2.9317225e-20)
(-0.15591311 0.20268846 7.7219718e-21)
(-0.16668603 0.19744444 1.0997174e-19)
(-0.17772838 0.19167108 -2.166059e-20)
(-0.18887314 0.18528805 5.5547029e-20)
(-0.19989591 0.17817578 -4.7101869e-20)
(-0.21050411 0.17018287 2.8235283e-20)
(-0.22032539 0.16113509 1.8276493e-20)
(-0.22889951 0.15084835 1.5607992e-20)
(-0.23567968 0.13915031 1.5486549e-20)
(-0.24005255 0.12592822 -9.3826931e-20)
(-0.24143112 0.11120752 -7.3112468e-20)
(-0.23929308 0.095165403 2.0498548e-20)
(-0.23314889 0.077991421 -1.2768241e-20)
(-0.22243055 0.059851376 5.3088993e-20)
(-0.20641124 0.040986388 -1.0386324e-19)
(-0.18441793 0.021887098 -1.1966567e-19)
(-0.15615482 0.0032233502 -3.4464728e-20)
(-0.12153224 -0.014538008 -9.0628464e-20)
(-0.080410589 -0.031335912 2.9137831e-21)
(-0.032531393 -0.047292553 4.4140542e-20)
(0.022194916 -0.062434115 2.1560256e-19)
(0.083908445 -0.076668316 -1.0889798e-19)
(0.15262069 -0.090160912 4.4464147e-20)
(0.22906427 -0.10304912 -1.3267656e-19)
(0.31324776 -0.11591539 2.2646968e-19)
(0.4069017 -0.12807667 -1.3223133e-19)
(0.5084291 -0.13985697 4.6392718e-20)
(0.61696444 -0.14875753 -5.12985e-23)
(0.7216116 -0.15492133 3.7907597e-20)
(0.81388429 -0.15228274 1.4356764e-19)
(0.8787293 -0.14374153 -2.7446333e-19)
(0.92634581 -0.12297972 2.8528905e-19)
(-0.0006483156 0.0022633439 -1.7266808e-20)
(-0.0020021611 0.0069906362 -7.8565167e-21)
(-0.0034902342 0.012187395 1.2344437e-20)
(-0.0051232846 0.017890589 -3.2526115e-22)
(-0.0069123306 0.024137471 -1.1187924e-20)
(-0.0088685161 0.030964904 -5.8593628e-21)
(-0.011002904 0.038408179 1.2377001e-20)
(-0.013326234 0.04649957 -2.0368794e-21)
(-0.015848618 0.055266419 2.8818358e-20)
(-0.018579169 0.064728727 -5.6394433e-21)
(-0.021525581 0.07489612 -1.4467555e-22)
(-0.024693638 0.085764126 2.0962758e-20)
(-0.0280867 0.097309695 -6.7668328e-20)
(-0.031705163 0.10948598 3.1806142e-20)
(-0.035545967 0.12221647 5.7577964e-20)
(-0.039602221 0.13538882 -6.2113508e-20)
(-0.043863056 0.14884889 7.7474218e-21)
(-0.048313856 0.162396 -4.4772247e-20)
(-0.052937066 0.17578097 -3.3869888e-20)
(-0.057713737 0.18870873 1.0869674e-19)
(-0.062626006 0.20084811 -8.3391936e-20)
(-0.06766049 0.21185099 1.1225831e-19)
(-0.072812405 0.22138228 -1.3511996e-20)
(-0.078089788 0.22915962 5.6388083e-20)
(-0.083516805 0.23499798 -1.2535062e-19)
(-0.089134661 0.23884872 3.0295853e-20)
(-0.094998204 0.24081779 7.7882447e-20)
(-0.10116655 0.24114494 -1.9155421e-19)
(-0.10768982 0.24013545 8.4625492e-20)
(-0.11459565 0.23806528 9.2197663e-20)
(-0.12190143 0.23512056 -7.7214579e-20)
(-0.12961153 0.23142864 -1.0336514e-20)
(-0.13769344 0.22708372 5.2939538e-20)
(-0.1460869 0.22214971 -2.9609726e-20)
(-0.15470229 0.21664722 4.5796094e-20)
(-0.16340759 0.21054282 -1.6247534e-19)
(-0.17201951 0.20375175 8.5889665e-20)
(-0.1802953 0.19614404 5.1955207e-20)
(-0.18792245 0.18755278 1.0695999e-19)
(-0.19450956 0.17778578 1.4032215e-20)
(-0.19958209 0.16664332 -1.1514072e-19)
(-0.20259195 0.15394868 4.6266434e-20)
(-0.20295179 0.13960913 6.8026688e-20)
(-0.20013765 0.12369166 1.068278e-20)
(-0.19367491 0.10640793 -6.48143e-20)
(-0.18310861 0.087934921 -5.6421545e-20)
(-0.16783223 0.068381071 1.6981384e-19)
(-0.14712158 0.047970244 8.9068495e-20)
(-0.12051671 0.027264373 1.9182571e-19)
(-0.087931686 0.0070288333 6.7007575e-20)
(-0.049294751 -0.012235955 2.5918437e-20)
(-0.0043690636 -0.03049357 1.9224331e-19)
(0.047200153 -0.047857891 7.6100461e-20)
(0.10559334 -0.064330566 -2.5718377e-19)
(0.17114946 -0.079792537 2.0824659e-19)
(0.2440569 -0.094445438 -1.9343538e-19)
(0.32540366 -0.10840343 9.3779108e-20)
(0.41594412 -0.12222419 -4.5813378e-19)
(0.51742987 -0.13497852 -2.315862e-19)
(0.62687566 -0.14656837 9.4659936e-20)
(0.73898001 -0.1540487 1.4969139e-19)
(0.83849365 -0.15709302 2.5241391e-19)
(0.91535252 -0.15075359 4.5014281e-20)
(0.96036932 -0.13920433 3.5443063e-20)
(0.98612553 -0.11679816 -3.8110098e-19)
(-0.00070677221 0.0021982023 -3.0996411e-22)
(-0.0021819373 0.0067963478 1.4510001e-20)
(-0.0038017854 0.011859871 -1.7120114e-20)
(-0.0055775137 0.017427772 -8.2476746e-21)
(-0.0075205908 0.023540044 1.6540103e-20)
(-0.0096424284 0.030237265 5.3660633e-21)
(-0.01195415 0.037559611 -2.6075847e-20)
(-0.014466323 0.045545644 2.8129567e-20)
(-0.017188563 0.054230671 5.9520996e-21)
(-0.020129072 0.06364461 2.3765117e-20)
(-0.023294092 0.073809227 -6.3388216e-20)
(-0.026687277 0.084734632 -7.784256e-22)
(-0.030308988 0.09641491 5.7620636e-20)
(-0.034155544 0.10882282 -6.2344676e-20)
(-0.038218469 0.12190356 4.5056965e-20)
(-0.042483827 0.13556769 1.6894495e-20)
(-0.046931757 0.14968376 -3.5757581e-20)
(-0.051536392 0.16407122 3.27568e-20)
(-0.056266411 0.17849519 4.433611e-20)
(-0.061086504 0.19266492 -9.6017136e-22)
(-0.065959985 0.20623867 -7.2634041e-20)
(-0.070852797 0.21883818 4.5831662e-20)
(-0.075738728 0.23007515 -2.607092e-20)
(-0.080605358 0.23959087 -1.2878497e-19)
(-0.085459538 0.24710615 -4.3861106e-20)
(-0.090330587 0.25247276 1.215857e-19)
(-0.095268684 0.25571058 -1.235545e-20)
(-0.10033592 0.25700916 1.4206012e-19)
(-0.10559076 0.25667522 -8.5566144e-20)
(-0.11107229 0.25503813 4.581645e-20)
(-0.11679856 0.25236482 -6.7477062e-20)
(-0.12276015 0.24882783 -1.6646868e-20)
(-0.12892373 0.24453848 8.5144389e-20)
(-0.13523395 0.23957274 -8.9113311e-20)
(-0.14159154 0.23395891 -1.3197998e-19)
(-0.14785196 0.22766629 1.3776951e-20)
(-0.15381668 0.22060751 1.4638021e-19)
(-0.1592244 0.21264436 -1.8926296e-19)
(-0.16374221 0.20359871 4.1339913e-20)
(-0.16695975 0.19326435 -8.8697107e-20)
(-0.16839084 0.18143142 1.3673601e-20)
(-0.16748973 0.16792601 -1.3912525e-19)
(-0.16370207 0.15267962 -6.6650736e-20)
(-0.15653942 0.13580709 -8.2040072e-20)
(-0.14556013 0.11754236 3.2872275e-19)
(-0.13031058 0.098039894 1.0618267e-19)
(-0.11016767 0.077364641 -1.4065271e-19)
(-0.084585113 0.055741623 1.1355368e-19)
(-0.053414473 0.033794068 9.4355572e-20)
(-0.016703782 0.012306533 -1.0611281e-19)
(0.025686126 -0.0082570377 -5.5420809e-20)
(0.074138348 -0.027865535 -1.3011593e-19)
(0.12917279 -0.046578413 -6.3401617e-20)
(0.19120668 -0.064356579 2.1741129e-19)
(0.26083245 -0.081028424 1.2310797e-19)
(0.33867754 -0.096811571 1.9891483e-20)
(0.42669021 -0.11178903 -8.5817621e-22)
(0.52645586 -0.12629459 1.1337808e-19)
(0.63814024 -0.1390298 -1.6547864e-19)
(0.75473059 -0.14916718 -2.1604871e-19)
(0.86407865 -0.15381275 -6.0958507e-20)
(0.94830861 -0.15320563 -4.6696316e-19)
(1.0006138 -0.143836 -3.7504383e-19)
(1.0206076 -0.13085458 -9.6179312e-20)
(1.0237573 -0.1093221 -5.1654069e-20)
(-0.00073909796 0.0020645825 1.0449682e-20)
(-0.0022818164 0.0063906651 6.0581824e-21)
(-0.0039753978 0.011163981 -1.2609474e-20)