/*--------------------------------*- C++ -*----------------------------------*\
  =========                 |
  \\      /  F ield         | OpenFOAM: The Open Source CFD Toolbox
   \\    /   O peration     | Website:  https://openfoam.org
    \\  /    A nd           | Version:  13
     \\/     M anipulation  |
\*---------------------------------------------------------------------------*/
FoamFile
{
    format      ascii;
    class       volScalarField;
    location    "41.997131";
    object      pMean;
}
// * * * * * * * * * * * * * * * * * * * * * * * * * * * * * * * * * * * * * //

dimensions      [0 2 -2 0 0 0 0];

internalField   nonuniform List<scalar> 
17140
(
0.9548117
0.95473764
0.95464826
0.95455727
0.95445902
0.95435209
0.95423641
0.95411176
0.95397793
0.95383471
0.95368197
0.9535195
0.95334698
0.95316373
0.95296855
0.95275928
0.95253233
0.95228199
0.95199963
0.95167255
0.95128264
0.95080472
0.95020399
0.949433
0.94843634
0.94716762
0.94559764
0.94369297
0.94139442
0.93862455
0.93529774
0.93131768
0.92657894
0.92097005
0.91437687
0.9066873
0.89779725
0.88761848
0.87609109
0.86320202
0.8490077
0.83366238
0.81745899
0.80085561
0.78450275
0.76924179
0.75592541
0.74541398
0.73856579
0.7360806
0.73843456
0.74590258
0.75861971
0.77631067
0.79866977
0.82464592
0.85375833
0.88401327
0.91620824
0.94636993
0.97866362
1.0033934
1.0341092
1.0481215
1.0757518
0.95365129
0.95357863
0.95349099
0.95340177
0.95330542
0.95320049
0.95308694
0.95296459
0.95283323
0.95269268
0.95254279
0.95238341
0.95221422
0.95203462
0.95184344
0.95163861
0.95141663
0.95117192
0.95089597
0.95057621
0.95019471
0.94972649
0.94913703
0.94837922
0.94739729
0.94614394
0.94458998
0.9427025
0.94042214
0.937671
0.93436322
0.93040224
0.92568225
0.92009119
0.91351429
0.90583873
0.8969596
0.88678773
0.87526227
0.86236912
0.84816368
0.83279967
0.81656903
0.7999323
0.78354914
0.76824192
0.75487656
0.74434624
0.73748583
0.73498011
0.73732068
0.74478332
0.75748432
0.77515852
0.79749514
0.82342881
0.85248134
0.88263917
0.91466851
0.94453047
0.97651529
1.0011952
1.0321112
1.0466164
1.0751915
0.95078078
0.95071165
0.95062843
0.95054348
0.95045163
0.95035156
0.95024327
0.95012659
0.95000124
0.94986711
0.94972413
0.94957219
0.94941106
0.94924024
0.9490587
0.94886456
0.94865455
0.94842336
0.94816278
0.94786064
0.94749942
0.94705457
0.94649227
0.94576626
0.94482008
0.94360427
0.94208873
0.9402411
0.9380028
0.93529562
0.93203271
0.92811698
0.92344158
0.91789313
0.91135531
0.9037135
0.8948607
0.88470555
0.87318496
0.86028256
0.84605176
0.83064573
0.81435713
0.79765491
0.7812064
0.7658175
0.75236982
0.74177425
0.73487111
0.7323384
0.7346478
0.74206338
0.75470751
0.7723172
0.79456839
0.82039045
0.84929967
0.87926355
0.91104888
0.94065356
0.9724785
0.99731966
1.0287933
1.0441043
1.0739368
0.94625452
0.94619105
0.94611487
0.94603659
0.94595189
0.94585959
0.94575966
0.94565189
0.94553608
0.94541216
0.94528014
0.94513998
0.94499156
0.94483454
0.94466813
0.9444907
0.94429933
0.94408914
0.94385243
0.94357759
0.94324772
0.94283906
0.94231877
0.94164199
0.94075175
0.93959543
0.93814006
0.93635386
0.93418064
0.93154209
0.92834952
0.92450504
0.91990031
0.91441997
0.90794523
0.90035871
0.89155029
0.88142527
0.86991704
0.85700579
0.84274248
0.82727968
0.81091187
0.79412005
0.77757838
0.76207855
0.74852805
0.73784839
0.73088642
0.72831387
0.7305828
0.73793468
0.75048607
0.76797777
0.79007658
0.81568849
0.8443365
0.87402222
0.90550765
0.93486605
0.96670097
0.99208424
1.0244884
1.040976
1.072134
0.94021866
0.94016282
0.94009611
0.94002691
0.9399519
0.93987009
0.93978139
0.93968566
0.93958276
0.93947267
0.93935543
0.9392311
0.93909973
0.93896116
0.93881487
0.93865956
0.93849277
0.93831015
0.93810465
0.93786541
0.93757642
0.9372149
0.93674933
0.93613669
0.93532051
0.93424422
0.93286922
0.93116399
0.92907674
0.92652948
0.92343101
0.91968239
0.91517343
0.90978625
0.90339904
0.89589083
0.88714745
0.87706983
0.8655869
0.85267449
0.83838051
0.8228569
0.80640272
0.7895136
0.7728625
0.75724471
0.74358956
0.73282473
0.72581228
0.72320918
0.72544243
0.73272711
0.74517442
0.76252147
0.78441899
0.80975706
0.83809894
0.86746582
0.89867512
0.92796066
0.96000665
0.98624322
1.0197911
1.0375939
1.0699195
0.93291526
0.93286879
0.93281368
0.93275567
0.93269263
0.93262378
0.932549
0.93246818
0.93238123
0.93228817
0.93218912
0.93208425
0.93197372
0.93185761
0.93173564
0.93160691
0.93146944
0.93131949
0.93115078
0.93095334
0.93071225
0.93040594
0.93000443
0.9294669
0.92873934
0.92776083
0.92648333
0.92487516
0.92289106
0.92045381
0.9174699
0.91383883
0.90944842
0.904178
0.89790222
0.89049599
0.88184041
0.87183125
0.86039199
0.84749327
0.83317949
0.81760224
0.80106768
0.78408657
0.76732741
0.75160486
0.73785729
0.72702115
0.7199741
0.71736225
0.71958206
0.72681896
0.73917313
0.75636674
0.77803546
0.80305777
0.83103817
0.86008206
0.89108243
0.92052905
0.95309132
0.98049802
1.0153407
1.0343261
1.0675541
0.92467225
0.92463646
0.92459407
0.92454905
0.92449993
0.92444613
0.92438752
0.92432403
0.9242556
0.92418231
0.92410432
0.9240219
0.92393532
0.92384483
0.92375041
0.92365152
0.92354665
0.92343272
0.92330422
0.9231522
0.92296291
0.92271625
0.92238394
0.92192756
0.92129626
0.92042732
0.91926297
0.91776579
0.91589552
0.91358076
0.9107271
0.90723076
0.90297779
0.89784468
0.89170246
0.88442163
0.87587807
0.86596175
0.85458996
0.84172764
0.82741545
0.81180528
0.79521284
0.77815964
0.76131601
0.74551539
0.73169241
0.72079966
0.71373294
0.7111313
0.71336149
0.7205801
0.73286967
0.74994077
0.7714092
0.79614798
0.82379022
0.85257228
0.88349642
0.91336431
0.94676074
0.97556917
1.0115437
1.0314009
1.0649491
0.91588707
0.91586297
0.91583427
0.91580356
0.91576983
0.91573265
0.91569194
0.91564762
0.9155997
0.91554826
0.91549352
0.91543577
0.91537539
0.91531272
0.91524794
0.91518079
0.91511018
0.91503359
0.91494631
0.91484036
0.91470324
0.91451639
0.91425346
0.9138784
0.91334368
0.91258938
0.91154968
0.91017257
0.9084205
0.90623398
0.90351935
0.90016906
0.89606738
0.89108801
0.88509859
0.87796516
0.86955828
0.85976177
0.84848632
0.83569094
0.82141244
0.8058043
0.78919323
0.77210237
0.75521309
0.73936753
0.72548629
0.71454291
0.70746013
0.70488239
0.70714831
0.71437743
0.72663871
0.74363316
0.76496089
0.7894984
0.8169105
0.845548
0.87660114
0.90712076
0.94159082
0.97184119
1.0085914
1.0289528
1.062442
0.90700252
0.90699068
0.90697636
0.90696072
0.90694323
0.90692363
0.90690186
0.90687788
0.9068517
0.90682344
0.90679331
0.90676161
0.90672872
0.90669504
0.90666083
0.90662599
0.90658972
0.90654995
0.9065026
0.90644059
0.9063526
0.90622159
0.9060232
0.90572386
0.90527918
0.90463303
0.90371935
0.90247213
0.900841
0.89877812
0.89620266
0.89300281
0.88905923
0.88424443
0.87842296
0.8714567
0.863211
0.85356358
0.84241867
0.82972946
0.81552942
0.79997421
0.78340033
0.76632738
0.74945061
0.73360382
0.71968894
0.70870634
0.70161619
0.69906847
0.70137336
0.70863189
0.72090689
0.73787711
0.75913115
0.78354986
0.81085002
0.83954115
0.87097659
0.90262096
0.93836705
0.96984507
1.0068765
1.0272389
1.0598528
0.89847543
0.89847587
0.89847597
0.89847549
0.89847438
0.89847257
0.89847001
0.89846669
0.89846264
0.89845797
0.89845288
0.89844763
0.89844255
0.89843799
0.89843418
0.89843104
0.89842788
0.89842286
0.89841235
0.89838995
0.89834534
0.89826284
0.89811992
0.89788549
0.8975183
0.89696579
0.89616488
0.89504652
0.8935439
0.89159922
0.88914825
0.88609411
0.88231193
0.87766831
0.87202572
0.86524329
0.85718227
0.84771546
0.83674158
0.82420901
0.8101489
0.7947195
0.77826125
0.76129168
0.74451154
0.72873047
0.71483843
0.7038632
0.69678933
0.69427006
0.6966223
0.70393866
0.71625495
0.73323486
0.75446128
0.77887461
0.80625257
0.83540053
0.86772812
0.90056161
0.93723257
0.96933684
1.0057642
1.025705
1.057205
0.89073838
0.89075049
0.89076433
0.89077837
0.890793
0.89080833
0.89082434
0.89084105
0.89085853
0.89087687
0.89089622
0.89091679
0.8909388
0.89096247
0.8909879
0.89101489
0.89104265
0.89106938
0.8910916
0.89110332
0.89109492
0.89105183
0.89095308
0.89076975
0.8904635
0.88998536
0.88927563
0.88826624
0.88688634
0.88506707
0.88273621
0.87980731
0.87617157
0.87169768
0.8662419
0.85966005
0.85181064
0.84256267
0.83181158
0.81950288
0.80566705
0.79046482
0.77422851
0.75748031
0.74091874
0.72531868
0.71156344
0.70068204
0.6936658
0.69119873
0.69358723
0.70090586
0.71322804
0.73022081
0.75148168
0.77601442
0.80372616
0.83354884
0.86679413
0.9006117
0.93770768
0.96973877
1.0053602
1.0249004
1.0546456
0.88416027
0.88418279
0.88420892
0.88423601
0.88426484
0.88429573
0.88432869
0.88436378
0.8844011
0.88444074
0.88448281
0.88452746
0.88457478
0.88462482
0.88467747
0.88473231
0.8847883
0.88484346
0.88489423
0.88493471
0.88495565
0.88494318
0.88487748
0.88473138
0.88446897
0.88404466
0.88340249
0.88247653
0.88119543
0.87948642
0.87727349
0.8744713
0.87097532
0.86666229
0.86139417
0.85502728
0.84741886
0.83843662
0.82797356
0.81597447
0.80246979
0.7876203
0.77175103
0.7553817
0.73918655
0.72391872
0.71044781
0.69977364
0.69288946
0.69042872
0.69273855
0.69996038
0.71220436
0.72916258
0.75046544
0.77521427
0.80336816
0.83396288
0.8680864
0.90261907
0.93981232
0.97157035
1.0057099
1.0247339
1.0525208
0.8790071
0.87903808
0.87907426
0.8791121
0.87915274
0.87919663
0.87924387
0.87929457
0.87934888
0.87940691
0.87946877
0.87953455
0.87960426
0.87967779
0.87975483
0.8798347
0.87991609
0.87999673
0.88007282
0.88013833
0.8801841
0.88019659
0.88015669
0.88003844
0.87980776
0.87942158
0.8788276
0.87796462
0.87676157
0.87514182
0.87303223
0.87034926
0.86699187
0.86284508
0.85777609
0.85164519
0.84431182
0.8356468
0.82554905
0.81396058
0.80091129
0.78655817
0.77122224
0.75540476
0.7397417
0.72496187
0.71191841
0.70157489
0.69480369
0.69227925
0.69441878
0.70146922
0.71355679
0.73044104
0.75180311
0.77678625
0.80552465
0.83689576
0.87182868
0.90665846
0.94336998
0.97394509
1.0067109
1.0247757
1.0504965
0.8754118
0.87544874
0.87549207
0.87553764
0.87558686
0.87564033
0.87569823
0.87576073
0.87582806
0.87590038
0.87597786
0.87606057
0.8761485
0.87624147
0.87633904
0.87644037
0.87654394
0.87664725
0.8767463
0.87683491
0.87690389
0.87693991
0.87692431
0.87683178
0.87662939
0.87627586
0.87572114
0.87490691
0.87376806
0.87223548
0.87020655
0.86763523
0.86442147
0.86044887
0.85559548
0.84973146
0.84272578
0.83445293
0.82480482
0.81373589
0.80127634
0.78757392
0.77293425
0.75782681
0.74285317
0.72870523
0.71620861
0.70619289
0.69951518
0.69689333
0.69881161
0.70560742
0.71749888
0.73429871
0.75568166
0.78096239
0.81017515
0.84238071
0.87755112
0.91219349
0.9475565
0.97720423
1.0077695
1.0248771
1.0488302
0.87335058
0.87339061
0.87343781
0.87348759
0.87354161
0.8736006
0.87366479
0.87373447
0.87380994
0.87389147
0.87397929
0.87407357
0.87417434
0.87428149
0.87439458
0.87451277
0.87463455
0.87475743
0.87487741
0.87498844
0.87508153
0.87514372
0.87515687
0.87509644
0.87493038
0.8746183
0.87411173
0.87335478
0.87228348
0.87083145
0.86895052
0.8664998
0.86339125
0.85961344
0.855008
0.84945299
0.84282204
0.83499936
0.82589371
0.81546355
0.80372814
0.79082518
0.7770315
0.76277316
0.74861021
0.73520047
0.723244
0.71354022
0.70695081
0.70418022
0.70583618
0.71236648
0.72404997
0.7407137
0.76206872
0.7876251
0.81752431
0.85001388
0.88494427
0.91861531
0.95263706
0.98037901
1.0090597
1.0250368
1.047355
0.87266726
0.87270748
0.87275529
0.87280561
0.87286044
0.87292061
0.87298641
0.87305822
0.87313644
0.87322145
0.87331361
0.8734132
0.87352042
0.8736353
0.87375762
0.87388673
0.87402138
0.87415941
0.87429729
0.87442949
0.87454777
0.87464019
0.87468977
0.87467317
0.87455958
0.87430986
0.87387634
0.87320334
0.87222814
0.87088489
0.86910771
0.8667944
0.86392752
0.86035687
0.85599741
0.85079193
0.84460299
0.83732384
0.82887288
0.81919484
0.8083112
0.79633814
0.78351141
0.77021054
0.75693933
0.74425837
0.73282019
0.72341918
0.7168589
0.71394096
0.71534906
0.72163622
0.73309654
0.74952123
0.7709515
0.79700933
0.82709258
0.85932232
0.89341529
0.92575999
0.95771055
0.98372433
1.0103718
1.0253775
1.0462972
0.87307507
0.8731129
0.8731583
0.8732058
0.87325777
0.87331508
0.87337807
0.87344719
0.8735229
0.87360571
0.8736961
0.87379452
0.87390135
0.87401687
0.87414114
0.87427391
0.8744144
0.87456108
0.87471125
0.8748605
0.87500194
0.87512531
0.87521583
0.87525265
0.87520733
0.87504283
0.8747123
0.87416006
0.87332397
0.87213714
0.87052738
0.86844622
0.86580081
0.86250757
0.85853728
0.85373213
0.84804612
0.84139569
0.83368892
0.82487165
0.81495121
0.80401028
0.79224334
0.77996494
0.76758172
0.75560761
0.74467032
0.73549809
0.72896692
0.72591408
0.72712421
0.73317823
0.74430637
0.76069005
0.78242291
0.80854318
0.83824013
0.87001561
0.90254875
0.93304364
0.9629266
0.98698629
1.0118903
1.025969
1.0456342
0.8742496
0.87428295
0.87432332
0.87436534
0.87441149
0.87446264
0.87451914
0.87458147
0.87465016
0.87472579
0.87480893
0.87490018
0.87500012
0.87510927
0.87522804
0.87535662
0.87549487
0.87564206
0.87579661
0.87595561
0.87611419
0.87626465
0.87639537
0.87648952
0.87652335
0.87646417
0.87626977
0.87588763
0.87525546
0.87430513
0.8729624
0.87116291
0.86883769
0.86593154
0.86235019
0.8580721
0.85303378
0.84708625
0.84020864
0.83234489
0.82347557
0.81364801
0.80299511
0.79174316
0.78023648
0.76894361
0.75843468
0.74947477
0.74296853
0.73982975
0.74083362
0.74658573
0.75763618
0.77421107
0.79585914
0.82159149
0.85099479
0.88119537
0.91192468
0.94034275
0.96796369
0.9904069
1.0136631
1.0268745
1.0454464
0.87584527
0.87587287
0.87590643
0.8759413
0.87597976
0.87602259
0.87607015
0.8761229
0.8761814
0.87624623
0.87631803
0.8763975
0.87648532
0.87658223
0.87668892
0.876806
0.87693388
0.87707268
0.87722192
0.87738029
0.87754511
0.87771163
0.87787212
0.87801471
0.87812178
0.87816846
0.87812011
0.87793118
0.87754529
0.87689596
0.87590947
0.87451305
0.87263289
0.8702168
0.86720508
0.8635502
0.85918171
0.85408477
0.84817971
0.84136672
0.83363194
0.82497302
0.81545201
0.80522566
0.79457053
0.7838919
0.77377647
0.76498736
0.75853043
0.75522988
0.75605308
0.76171493
0.77291153
0.78934258
0.81067574
0.83625092
0.86422715
0.89264127
0.92126079
0.94735953
0.97313113
0.99398102
1.0157539
1.0281271
1.0457183
0.87758177
0.87760314
0.87762903
0.8776562
0.87768631
0.87771998
0.87775756
0.87779948
0.87784625
0.87789843
0.87795667
0.87802164
0.87809411
0.8781749
0.87826487
0.87836489
0.8784758
0.87859832
0.87873291
0.87887958
0.87903756
0.87920483
0.87937749
0.87954878
0.87970791
0.87983847
0.87991672
0.87990952
0.87977261
0.87945019
0.87887606
0.87797741
0.87668009
0.87491635
0.87262548
0.86976069
0.86628599
0.86216695
0.85730486
0.85163967
0.84510831
0.83765192
0.8292759
0.82005151
0.81018598
0.80006898
0.79027157
0.78165545
0.77511579
0.77173321
0.77250013
0.77833381
0.7894698
0.80567063
0.82702059
0.85149058
0.87756606
0.90395679
0.93019536
0.95443996
0.9783791
0.99777864
1.0181844
1.0297557
1.0464776
0.87924698
0.87926248
0.87928115
0.87930102
0.87932313
0.87934798
0.87937584
0.87940711
0.8794422
0.87948163
0.87952597
0.87957584
0.87963197
0.87969516
0.87976632
0.87984641
0.8799365
0.88003766
0.88015093
0.8802772
0.88041705
0.88057048
0.88073659
0.88091295
0.88109485
0.88127415
0.8814379
0.8815672
0.88163497
0.88160423
0.88142718
0.88104555
0.88039392
0.87940333
0.87800838
0.87614672
0.87375239
0.87076896
0.86712506
0.86273721
0.85748984
0.85128104
0.84403956
0.83576298
0.82661692
0.81696047
0.80741889
0.79883229
0.79228208
0.7889485
0.78993863
0.79588885
0.80689529
0.82334168
0.84395724
0.86652024
0.89077488
0.9148417
0.93911844
0.96148995
0.98378916
1.0018244
1.0209773
1.0317692
1.0477115
0.8807334
0.88074388
0.88075645
0.88077004
0.88078525
0.8808024
0.88082173
0.88084355
0.88086819
0.88089605
0.88092764
0.88096351
0.88100433
0.88105078
0.88110357
0.88116359
0.88123189
0.88130958
0.88139784
0.8814979
0.88161122
0.88173925
0.88188298
0.88204284
0.88221846
0.88240816
0.88260836
0.88281272
0.88301094
0.88318738
0.8833193
0.88337527
0.88331478
0.88308637
0.88262854
0.88187064
0.880731
0.87911425
0.87690418
0.87396555
0.8701308
0.86522481
0.8591091
0.8517187
0.84318504
0.83386873
0.8244416
0.81592476
0.80948187
0.80646264
0.80779014
0.81382264
0.82542196
0.84151402
0.8603353
0.88138428
0.90346897
0.92554278
0.94790491
0.96861308
0.98938126
1.0061374
1.0241447
1.0341854
1.0494301
0.88200153
0.88200794
0.88201565
0.88202404
0.88203346
0.88204416
0.88205627
0.88207001
0.88208561
0.88210347
0.88212404
0.88214748
0.8821739
0.88220374
0.88223802
0.88227798
0.88232484
0.8823798
0.88244404
0.88251842
0.88260349
0.88270075
0.88281284
0.88294247
0.88309214
0.88326463
0.88346284
0.88368943
0.88394727
0.8842385
0.88456371
0.88492238
0.88530818
0.88570512
0.88608055
0.88637731
0.88650424
0.88632658
0.8856715
0.8843252
0.88201605
0.8784861
0.87348888
0.86695745
0.85893045
0.84987065
0.84061609
0.83224607
0.82619988
0.82381992
0.82551639
0.83259178
0.84428032
0.85909055
0.87642808
0.89568636
0.9157324
0.93599329
0.95667012
0.97582203
0.99517857
1.0107386
1.0276876
1.0370066
1.0516259
0.88309978
0.88310263
0.88310608
0.88310987
0.88311416
0.88311908
0.88312478
0.88313139
0.88313907
0.88314802
0.88315841
0.88317035
0.88318423
0.88320074
0.8832207
0.88324474
0.88327312
0.88330618
0.88334506
0.8833917
0.88344807
0.88351505
0.88359418
0.88368835
0.88380165
0.88394076
0.88411328
0.88432681
0.88459167
0.88492222
0.88533624
0.88585862
0.886514
0.88731936
0.88828504
0.88939421
0.8905751
0.89168657
0.89250257
0.89270281
0.8919158
0.88974927
0.88589568
0.8801424
0.87262839
0.86393193
0.85491559
0.84722423
0.84235275
0.84071933
0.84390571
0.85150845
0.862285
0.87587945
0.89205134
0.90915376
0.92763148
0.94629264
0.96541542
0.98313945
1.0011919
1.0156329
1.0316109
1.0402349
1.0542897
0.88406589
0.88406481
0.88406357
0.88406224
0.88406082
0.88405949
0.88405839
0.88405755
0.88405704
0.88405694
0.88405746
0.88405929
0.88406246
0.88406538
0.88406746
0.88407031
0.88407558
0.88408502
0.88410096
0.88412482
0.88415694
0.88419704
0.88424611
0.88430877
0.88439081
0.88449856
0.88464125
0.88483127
0.88508477
0.88542188
0.88586915
0.88646338
0.88724686
0.88826387
0.88956161
0.89115404
0.89300744
0.89499329
0.89689513
0.89833739
0.89885638
0.89791877
0.89510338
0.89018127
0.88329061
0.87525723
0.86747877
0.86161589
0.85781156
0.8580255
0.86216454
0.86927359
0.87930938
0.8919732
0.90638997
0.92224365
0.93926048
0.95645311
0.97417338
0.99057894
1.0074307
1.0208276
1.0359114
1.0438685
1.0574193
0.88492322
0.88491747
0.88491071
0.88490361
0.88489593
0.88488755
0.8848785
0.88486894
0.88485893
0.88484845
0.88483755
0.88482631
0.88481476
0.88480302
0.8847914
0.88478037
0.88477092
0.88476428
0.88476122
0.88476328
0.88477352
0.88479346
0.88482325
0.88486614
0.88492798
0.885015
0.88513581
0.88530372
0.88553802
0.88586281
0.88630649
0.88690582
0.88770863
0.88877386
0.89016433
0.89192239
0.8940679
0.89650925
0.89903314
0.90128251
0.90269879
0.90269373
0.90074606
0.89665669
0.89107639
0.8849228
0.879395
0.87485329
0.87318299
0.87478722
0.87873844
0.88588416
0.89539478
0.90692956
0.92031957
0.93490183
0.95062049
0.96651173
0.9829559
0.99815196
1.0139005
1.0263242
1.0405861
1.0479055
1.0610058
0.88547492
0.88546464
0.88545256
0.88543982
0.88542594
0.88541047
0.88539315
0.88537454
0.88535567
0.8853366
0.88531674
0.88529598
0.88527446
0.88525222
0.88522927
0.8852059
0.88518262
0.88516007
0.88513951
0.88512322
0.88511407
0.88511482
0.88512713
0.88515242
0.88519693
0.88527118
0.88538351
0.88554188
0.88576147
0.88607176
0.88650354
0.88708617
0.88787263
0.88892145
0.890302
0.89207684
0.89424712
0.89678519
0.89948608
0.902003
0.90381703
0.90441925
0.90353127
0.90110932
0.89759401
0.89371068
0.88992802
0.88764683
0.88797086
0.88979067
0.89438604
0.90132491
0.9104409
0.92120276
0.9336345
0.94718042
0.96177366
0.97649033
0.99178147
1.0058694
1.0206052
1.0321237
1.0456287
1.0523389
1.0650404
0.88552336
0.88551033
0.88549502
0.88547885
0.88546135
0.8854423
0.88542163
0.88539923
0.88537512
0.88534943
0.88532225
0.88529371
0.88526401
0.88523344
0.88520245
0.8851716
0.88514165
0.88511359
0.88508856
0.8850679
0.88505442
0.88505303
0.88506626
0.88509196
0.88513286
0.8852004
0.88530512
0.88545601
0.88566754
0.88595378
0.88634419
0.88688237
0.8876106
0.88857954
0.88983443
0.89143449
0.89343735
0.89581564
0.89844669
0.90105499
0.90330925
0.90485266
0.90533343
0.9047075
0.90336398
0.90140802
0.89977545
0.89994816
0.90102253
0.90390979
0.90910241
0.91590874
0.92460065
0.93482135
0.94651291
0.9591512
0.97274568
0.98641444
1.000665
1.01374
1.0275468
1.0382258
1.0510354
1.0571726
1.0695159
0.88474987
0.88473754
0.88472305
0.88470775
0.88469118
0.88467317
0.88465367
0.88463268
0.88461018
0.8845862
0.88456084
0.88453422
0.88450656
0.88447815
0.88444941
0.88442093
0.88439344
0.88436769
0.88434495
0.88432744
0.8843172
0.88431575
0.88432567
0.88435025
0.88439419
0.88446512
0.88456877
0.88470919
0.88490029
0.88517593
0.8855537
0.88604704
0.88670079
0.88756455
0.88870893
0.8901844
0.89203167
0.89427718
0.89686864
0.8996895
0.9024894
0.90497925
0.90686412
0.90810924
0.90854444
0.90848384
0.90946485
0.91096575
0.91317763
0.91721462
0.92263403
0.92958521
0.93811561
0.94792041
0.95898336
0.97084924
0.98357553
0.99630883
1.0096217
1.0217718
1.0347285
1.0446297
1.0567994
1.0623969
1.0744135
0.88328192
0.88327276
0.883262
0.88325065
0.88323839
0.88322507
0.88321069
0.88319525
0.88317877
0.8831613
0.88314294
0.88312382
0.88310416
0.88308432
0.88306476
0.88304607
0.88302902
0.88301463
0.88300422
0.88299934
0.88300169
0.88301366
0.88303855
0.88307978
0.88313788
0.88321618
0.88332544
0.8834858
0.88370264
0.88397249
0.88432547
0.88480849
0.88545795
0.88629935
0.88737908
0.88878639
0.89058927
0.89283046
0.89554269
0.89869269
0.90214483
0.90562764
0.90890007
0.911539
0.91345357
0.91582019
0.91844944
0.92108742
0.92478437
0.92952337
0.93548312
0.94264602
0.95107326
0.96056705
0.97112832
0.98233402
0.99429912
1.0061979
1.0186667
1.0299745
1.0421532
1.0513345
1.0629141
1.0680042
1.0797294
0.88121837
0.88121299
0.88120671
0.88120013
0.88119308
0.88118552
0.88117748
0.88116899
0.88116014
0.88115104
0.88114185
0.88113277
0.88112408
0.88111617
0.88110961
0.88110519
0.88110385
0.88110678
0.88111544
0.88113167
0.88115786
0.88119669
0.88124839
0.88131616
0.88140329
0.88152101
0.88168779
0.8818984
0.88216369
0.88251066
0.88294293
0.8834836
0.88417674
0.88506839
0.88621386
0.88768222
0.88956053
0.8919506
0.89495595
0.89859471
0.90275035
0.90720341
0.91146402
0.91512036
0.9190449
0.92311705
0.92680477
0.93093577
0.93570833
0.94126872
0.94773929
0.95515285
0.96358234
0.972857
0.98300862
0.99365098
1.0049524
1.0161065
1.0278169
1.0383528
1.0498202
1.0583342
1.0693761
1.0739746
1.0854784
0.87873996
0.87873742
0.87873453
0.87873161
0.87872865
0.87872566
0.87872275
0.87872001
0.87871761
0.87871576
0.87871473
0.87871488
0.87871668
0.87872074
0.87872782
0.87873892
0.87875527
0.87877843
0.87881039
0.87885334
0.87890885
0.87897961
0.87907075
0.87919218
0.87935115
0.87954853
0.87979525
0.88009819
0.8804613
0.88090612
0.88145459
0.88212826
0.88295624
0.88397566
0.8852521
0.88687922
0.88898135
0.89171428
0.89520555
0.89945218
0.90436991
0.90955499
0.91446438
0.91968604
0.92514469
0.93010566
0.93513023
0.94049987
0.94626183
0.9525747
0.95957105
0.96727336
0.97575277
0.98487159
0.99469257
1.0048527
1.015572
1.0260596
1.037086
1.0469143
1.0577348
1.0656244
1.0761817
1.0803012
1.0916264
0.87574903
0.87574826
0.87574754
0.87574704
0.87574685
0.87574708
0.87574789
0.8757495
0.87575216
0.87575623
0.87576213
0.87577043
0.87578181
0.87579716
0.87581759
0.87584447
0.8758795
0.87592484
0.87598303
0.87605668
0.87614992
0.87626811
0.87641918
0.87660795
0.87683764
0.87711706
0.87745611
0.87786611
0.8783594
0.87894903
0.87965171
0.8804859
0.88148306
0.88270192
0.8842263
0.88617867
0.88872402
0.89203252
0.8961646
0.90111604
0.90671286
0.91232664
0.91845278
0.92497805
0.93119817
0.9372932
0.94354563
0.94993024
0.9565818
0.96360964
0.97111367
0.97911144
0.98767929
0.9966932
1.0062438
1.0159876
1.0261939
1.0360823
1.0464902
1.0556689
1.065901
1.0732009
1.0833248
1.0869799
1.0981556
0.87198579
0.87198688
0.87198846
0.87199053
0.87199333
0.87199705
0.87200196
0.87200837
0.87201669
0.87202743
0.87204122
0.87205884
0.87208128
0.87210975
0.87214575
0.87219112
0.87224812
0.87231948
0.87240847
0.87251918
0.87265712
0.87282706
0.8730353
0.87328942
0.87359722
0.87396894
0.87441494
0.87494693
0.87557698
0.87631765
0.87718709
0.87821968
0.87946565
0.88099785
0.88293497
0.88543505
0.88866451
0.89273315
0.89763852
0.90338445
0.90941924
0.91606662
0.92333226
0.93052607
0.93765203
0.94483877
0.95205082
0.95935588
0.96682254
0.97450777
0.98249434
0.99078638
0.99946029
1.0084012
1.0177262
1.0271052
1.0368541
1.0461999
1.0560444
1.0646259
1.0743156
1.0810715
1.0907934
1.0940059
1.1050593
0.86705205
0.86705641
0.86706197
0.86706842
0.86707619
0.86708562
0.86709708
0.86711103
0.86712803
0.86714878
0.86717415
0.86720519
0.86724318
0.86728971
0.8673467
0.86741645
0.86750179
0.86760608
0.86773334
0.86788829
0.86807649
0.8683044
0.86857966
0.86891057
0.86930723
0.86978017
0.87033939
0.87099746
0.87177191
0.87268677
0.87377417
0.87508245
0.87668811
0.87870489
0.88128003
0.88456989
0.88869055
0.89367151
0.89950814
0.90585142
0.91280527
0.92062543
0.92854585
0.93651335
0.94454429
0.95263112
0.96075009
0.96889685
0.97710286
0.98539377
0.99382953
1.0024005
1.0111849
1.0200714
1.0292008
1.038253
1.0475879
1.0564372
1.0657645
1.0737916
1.0829836
1.0892251
1.0985801
1.101367
1.1123132
0.86055575
0.86056556
0.86057767
0.86059124
0.86060701
0.86062549
0.86064719
0.86067273
0.86070288
0.86073855
0.86078088
0.86083121
0.86089118
0.86096277
0.86104831
0.86115061
0.86127301
0.86141951
0.86159484
0.86180427
0.86205422
0.86235249
0.86270689
0.86312623
0.86362062
0.86420293
0.86489002
0.8657012
0.86666177
0.86780886
0.86919802
0.87091099
0.87306147
0.87578951
0.87924096
0.88352567
0.88868346
0.89471038
0.90138945
0.90863101
0.91684177
0.9253636
0.93398577
0.94285376
0.95179627
0.960774
0.96973724
0.9786579
0.98754116
0.99638409
1.0052295
1.0140554
1.0229414
1.0317779
1.0407278
1.0494785
1.0584304
1.0668187
1.0756635
1.0831798
1.0918973
1.0976688
1.1066673
1.1090619
1.1198873
0.85214072
0.85215842
0.85217998
0.85220376
0.8522309
0.85226215
0.8522982
0.85233985
0.8523881
0.85244412
0.85250933
0.85258541
0.85267435
0.85277858
0.8529008
0.85304366
0.85321151
0.85341021
0.85364441
0.85391886
0.85424027
0.8546173
0.85506038
0.8555807
0.85619134
0.85690927
0.85775687
0.85876518
0.85997869
0.8614613
0.86330264
0.86562042
0.86855496
0.87224414
0.8767944
0.88224307
0.88858368
0.89565273
0.9033101
0.91191788
0.92102769
0.93031949
0.93992428
0.94969365
0.95952698
0.96935306
0.97910994
0.98874702
0.99824714
1.0075873
1.0167971
1.0258447
1.0348119
1.0435908
1.0523643
1.0608263
1.0694144
1.0773687
1.0857592
1.0927941
1.1010647
1.1063993
1.1150474
1.1170508
1.1278076
0.84143423
0.84146232
0.84149628
0.84153339
0.84157537
0.84162324
0.84167782
0.84174009
0.84181122
0.84189237
0.84198469
0.84208978
0.84221343
0.84236021
0.84252778
0.84271859
0.84294009
0.84319763
0.84349709
0.8438454
0.84425029
0.84472098
0.84526949
0.84591102
0.84666523
0.84755895
0.84862967
0.84993027
0.85153462
0.85354226
0.85607832
0.85928463
0.86329848
0.86821624
0.87408441
0.88087147
0.8884488
0.89664943
0.90577442
0.91549088
0.92547972
0.93582728
0.94640351
0.95710261
0.96782347
0.97847515
0.98898261
0.99927996
1.009336
1.0191139
1.0286349
1.0378605
1.0468764
1.0555772
1.0641645
1.0723398
1.0805725
1.0881087
1.0960609
1.1026446
1.1104859
1.1154338
1.1237194
1.1255058
1.135954
0.82828176
0.82832339
0.82837005
0.82841768
0.82847093
0.82853557
0.82861671
0.82871123
0.82881206
0.82892151
0.82904612
0.82918904
0.82935274
0.82954039
0.82975565
0.8300025
0.83028575
0.83061139
0.83098608
0.83141821
0.83191878
0.83250155
0.83318428
0.83399086
0.83495413
0.8361196
0.83755001
0.83932997
0.8415684
0.84439677
0.84795655
0.85238108
0.85776082
0.86413604
0.87148795
0.87964583
0.88848298
0.89823911
0.90866427
0.91941429
0.93056403
0.94199571
0.95359063
0.9652408
0.97683828
0.9882828
0.99949068
1.0103869
1.0209318
1.0310805
1.0408502
1.0501998
1.05922
1.0678096
1.0761879
1.0840651
1.0919377
1.099063
1.1065823
1.1127318
1.120144
1.12473
1.1326252
1.1340716
1.1442254
0.81265927
0.81271637
0.81277543
0.81283544
0.81290587
0.81298741
0.81308078
0.81318902
0.81331526
0.8134617
0.81363132
0.81382655
0.81404677
0.81429102
0.81456135
0.81486414
0.8152082
0.81560179
0.81605343
0.81657417
0.81717849
0.8178857
0.81872217
0.8197244
0.82094314
0.8224482
0.82433336
0.82671927
0.82975141
0.83358968
0.83838275
0.84424846
0.85122682
0.85930496
0.86827965
0.8780745
0.88876202
0.90014878
0.91185861
0.9239593
0.93635816
0.94893563
0.9615851
0.97419368
0.98665111
0.99885174
1.0107075
1.0221395
1.033104
1.0435535
1.0535053
1.0629189
1.071892
1.0803305
1.0884687
1.0960289
1.1035285
1.1102414
1.1173286
1.1230646
1.1300533
1.1343774
1.1418972
1.1435921
1.1540584
0.79419883
0.79426736
0.79435186
0.79444353
0.79454541
0.79465944
0.79478667
0.79492824
0.79508583
0.79526198
0.79545943
0.79568105
0.79593025
0.79621116
0.7965288
0.79688941
0.79730077
0.79777283
0.79831859
0.79895531
0.79970634
0.8006035
0.80169041
0.80302645
0.80469134
0.80678917
0.80945032
0.81282838
0.81708932
0.82238873
0.82884471
0.83651922
0.84534789
0.85524782
0.86610975
0.87792365
0.89043058
0.90325023
0.91645616
0.92996557
0.94365626
0.95742359
0.97115215
0.98472352
0.99802265
1.0109419
1.0233913
1.0352921
1.0466003
1.0572707
1.067322
1.0767216
1.0855734
1.0937955
1.1016344
1.1088294
1.1159128
1.1221835
1.128806
1.1341137
1.1406341
1.1447149
1.1516129
1.1540627
1.1617947
0.77451016
0.77459533
0.7746994
0.77480705
0.77492581
0.77505825
0.7752056
0.77536958
0.77555228
0.77575618
0.77598422
0.77623993
0.77652767
0.77685287
0.77722245
0.77764539
0.7781335
0.77870254
0.77937376
0.78017594
0.7811482
0.78234342
0.78383224
0.78570724
0.78808602
0.79111158
0.79494737
0.7997645
0.80571944
0.81292494
0.8214372
0.83118672
0.84206541
0.85407407
0.86693737
0.88045174
0.89433552
0.90866277
0.92333184
0.93820437
0.95316456
0.96808703
0.98284433
0.99731019
1.0113659
1.0249029
1.0378328
1.0500803
1.0616054
1.0723696
1.0823975
1.091668
1.1002915
1.1082061