/*--------------------------------*- C++ -*----------------------------------*\
  =========                 |
  \\      /  F ield         | OpenFOAM: The Open Source CFD Toolbox
   \\    /   O peration     | Website:  https://openfoam.org
    \\  /    A nd           | Version:  13
     \\/     M anipulation  |
\*---------------------------------------------------------------------------*/
FoamFile
{
    format      ascii;
    class       volScalarField;
    location    "7.702618";
    object      pPrime2Mean;
}
// * * * * * * * * * * * * * * * * * * * * * * * * * * * * * * * * * * * * * //

dimensions      [0 4 -4 0 0 0 0];

internalField   nonuniform List<scalar> 
17140
(
40239.465
40239.467
40239.468
40239.469
40239.469
40239.467
40239.464
40239.459
40239.451
40239.441
40239.427
40239.408
40239.384
40239.351
40239.309
40239.255
40239.186
40239.097
40238.983
40238.837
40238.65
40238.41
40238.103
40237.708
40237.202
40236.552
40235.717
40234.653
40233.299
40231.585
40229.42
40226.697
40223.282
40219.013
40213.693
40207.086
40198.912
40188.846
40176.505
40161.453
40143.191
40121.149
40094.68
40063.057
40025.465
39980.999
39928.667
39867.389
39795.996
39713.231
39617.764
39508.162
39382.884
39240.287
39078.589
38895.872
38690.057
38458.89
38199.853
37910.171
37586.775
37226.359
36825.348
36379.92
35886.131
40240.499
40240.501
40240.503
40240.503
40240.503
40240.501
40240.498
40240.493
40240.485
40240.475
40240.46
40240.441
40240.416
40240.382
40240.34
40240.285
40240.214
40240.123
40240.007
40239.859
40239.669
40239.426
40239.115
40238.717
40238.207
40237.554
40236.718
40235.652
40234.299
40232.587
40230.426
40227.707
40224.298
40220.034
40214.72
40208.119
40199.953
40189.894
40177.563
40162.522
40144.272
40122.245
40095.794
40064.192
40026.622
39982.183
39929.879
39868.631
39797.269
39714.542
39619.116
39509.56
39384.338
39241.804
39080.178
38897.54
38691.814
38460.746
38201.822
37912.268
37589.017
37228.765
36827.939
36382.722
35889.145
40243.058
40243.06
40243.061
40243.061
40243.061
40243.059
40243.055
40243.049
40243.041
40243.029
40243.014
40242.993
40242.966
40242.931
40242.886
40242.828
40242.754
40242.66
40242.539
40242.386
40242.19
40241.941
40241.624
40241.219
40240.704
40240.046
40239.207
40238.141
40236.79
40235.082
40232.928
40230.218
40226.819
40222.567
40217.264
40210.676
40202.524
40192.482
40180.17
40165.154
40146.934
40124.942
40098.533
40066.979
40029.466
39985.089
39932.855
39871.681
39800.401
39717.765
39622.442
39513.003
39387.916
39245.538
39084.088
38901.648
38696.141
38465.321
38206.675
37917.436
37594.539
37234.685
36834.306
36389.598
35896.535
40247.193
40247.195
40247.196
40247.196
40247.195
40247.192
40247.188
40247.181
40247.171
40247.159
40247.141
40247.119
40247.09
40247.052
40247.004
40246.942
40246.864
40246.764
40246.638
40246.479
40246.277
40246.021
40245.697
40245.286
40244.766
40244.105
40243.265
40242.2
40240.853
40239.152
40237.008
40234.309
40230.923
40226.685
40221.398
40214.828
40206.697
40196.68
40184.4
40169.422
40151.249
40129.313
40102.971
40071.496
40034.073
39989.796
39937.672
39876.618
39805.47
39722.982
39627.827
39518.581
39393.716
39251.593
39090.432
38908.315
38703.168
38472.753
38214.562
37925.836
37603.513
37244.305
36844.65
36400.765
35908.529
40252.958
40252.959
40252.96
40252.96
40252.958
40252.955
40252.949
40252.942
40252.931
40252.917
40252.898
40252.874
40252.842
40252.802
40252.751
40252.686
40252.603
40252.5
40252.369
40252.204
40251.997
40251.735
40251.406
40250.991
40250.468
40249.806
40248.967
40247.906
40246.565
40244.872
40242.738
40240.052
40236.679
40232.457
40227.19
40220.643
40212.54
40202.558
40190.321
40175.396
40157.287
40135.428
40109.178
40077.811
40040.512
39996.373
39944.4
39883.514
39812.551
39730.271
39635.353
39526.379
39401.828
39260.064
39099.312
38917.653
38713.018
38483.175
38225.629
37937.625
37616.112
37257.81
36859.173
36416.446
35925.371
40260.403
40260.404
40260.404
40260.404
40260.401
40260.397
40260.391
40260.383
40260.371
40260.356
40260.336
40260.311
40260.278
40260.236
40260.183
40260.115
40260.031
40259.925
40259.791
40259.624
40259.414
40259.15
40258.82
40258.404
40257.88
40257.22
40256.386
40255.331
40253.997
40252.313
40250.19
40247.516
40244.158
40239.953
40234.708
40228.188
40220.121
40210.183
40198.001
40183.143
40165.116
40143.357
40117.226
40085.996
40048.853
40004.889
39953.111
39892.44
39821.718
39739.711
39645.102
39536.485
39412.344
39271.051
39110.836
38929.779
38725.816
38496.727
38240.025
37952.966
37632.509
37275.39
36878.081
36436.864
35947.307
40269.597
40269.597
40269.597
40269.596
40269.593
40269.588
40269.582
40269.573
40269.561
40269.545
40269.525
40269.498
40269.465
40269.422
40269.369
40269.301
40269.216
40269.11
40268.976
40268.809
40268.6
40268.338
40268.009
40267.596
40267.076
40266.421
40265.593
40264.546
40263.221
40261.546
40259.433
40256.771
40253.428
40249.243
40244.022
40237.535
40229.509
40219.624
40207.508
40192.733
40174.806
40153.169
40127.182
40096.119
40059.165
40015.414
39963.874
39903.471
39833.051
39751.384
39657.163
39548.99
39425.362
39284.658
39125.113
38944.81
38741.69
38513.544
38257.898
37972.021
37652.882
37297.238
36901.585
36462.251
35974.593
40280.616
40280.617
40280.616
40280.614
40280.611
40280.606
40280.599
40280.59
40280.578
40280.562
40280.542
40280.515
40280.482
40280.44
40280.387
40280.321
40280.238
40280.133
40280.002
40279.838
40279.633
40279.375
40279.052
40278.644
40278.131
40277.483
40276.663
40275.624
40274.308
40272.643
40270.54
40267.891
40264.563
40260.398
40255.204
40248.754
40240.775
40230.952
40218.914
40204.235
40186.427
40164.933
40139.114
40108.247
40071.515
40028.016
39976.762
39916.683
39846.627
39765.374
39671.624
39563.991
39440.983
39300.992
39142.256
38962.866
38760.77
38533.769
38279.405
37994.958
37677.414
37323.554
36929.902
36492.843
36007.486
40293.554
40293.554
40293.553
40293.551
40293.548
40293.543
40293.536
40293.526
40293.514
40293.498
40293.478
40293.453
40293.42
40293.38
40293.328
40293.264
40293.184
40293.082
40292.956
40292.797
40292.597
40292.345
40292.029
40291.629
40291.123
40290.483
40289.671
40288.641
40287.334
40285.678
40283.585
40280.948
40277.636
40273.493
40268.33
40261.919
40253.995
40244.24
40232.29
40217.721
40200.048
40178.717
40153.09
40122.446
40085.969
40042.761
39991.842
39932.146
39862.524
39781.762
39688.574
39581.583
39459.311
39320.162
39162.385
38984.076
38783.195
38557.554
38304.705
38021.951
37706.293
37354.541
36963.253
36528.879
36046.25
40308.511
40308.51
40308.509
40308.507
40308.503
40308.498
40308.49
40308.481
40308.469
40308.453
40308.434
40308.409
40308.377
40308.338
40308.289
40308.227
40308.149
40308.051
40307.929
40307.774
40307.58
40307.335
40307.025
40306.632
40306.134
40305.5
40304.695
40303.673
40302.373
40300.726
40298.643
40296.018
40292.723
40288.604
40283.473
40277.107
40269.241
40259.563
40247.71
40233.263
40215.741
40194.59
40169.177
40138.781
40102.591
40059.716
40009.182
39949.927
39880.81
39800.625
39708.094
39601.854
39480.443
39342.276
39185.614
39008.563
38809.096
38585.037
38333.96
38053.174
37739.71
37390.407
37001.864
36570.606
36091.15
40325.575
40325.574
40325.572
40325.57
40325.566
40325.56
40325.553
40325.543
40325.531
40325.516
40325.496
40325.472
40325.441
40325.403
40325.355
40325.295
40325.219
40325.124
40325.005
40324.855
40324.665
40324.424
40324.119
40323.732
40323.238
40322.61
40321.811
40320.793
40319.499
40317.859
40315.786
40313.175
40309.899
40305.806
40300.71
40294.393
40286.59
40276.995
40265.248
40250.934
40233.575
40212.621
40187.441
40157.316
40121.444
40078.941
40028.841
39970.089
39901.552
39822.031
39730.262
39624.895
39504.481
39367.446
39212.064
39036.456
38838.614
38616.378
38367.34
38088.81
37777.86
37431.363
37045.962
36618.272
36142.455
40344.829
40344.828
40344.826
40344.823
40344.818
40344.812
40344.805
40344.795
40344.783
40344.767
40344.748
40344.723
40344.693
40344.655
40344.607
40344.548
40344.473
40344.379
40344.261
40344.113
40343.924
40343.686
40343.383
40342.998
40342.507
40341.881
40341.084
40340.07
40338.781
40337.148
40335.086
40332.49
40329.235
40325.171
40320.115
40313.85
40306.116
40296.61
40284.978
40270.807
40253.623
40232.88
40207.949
40178.12
40142.596
40100.504
40050.887
39992.7
39924.819
39846.061
39755.17
39650.81
39531.538
39395.796
39241.871
39067.906
38871.917
38651.749
38405.015
38129.043
37820.942
37477.623
37095.78
36672.126
36200.435
40366.332
40366.33
40366.328
40366.325
40366.32
40366.314
40366.306
40366.296
40366.283
40366.267
40366.247
40366.223
40366.192
40366.153
40366.105
40366.045
40365.97
40365.876
40365.758
40365.608
40365.42
40365.181
40364.878
40364.492
40364.001
40363.376
40362.581
40361.569
40360.285
40358.66
40356.61
40354.032
40350.802
40346.771
40341.759
40335.552
40327.893
40318.485
40306.974
40292.956
40275.958
40255.438
40230.774
40201.262
40166.119
40124.479
40075.398
40017.841
39950.704
39872.813
39782.923
39679.704
39561.727
39427.446
39275.165
39103.052
38909.146
38691.304
38447.156
38174.059
37869.157
37529.404
37151.55
36732.421
36265.359
40390.137
40390.136
40390.133
40390.13
40390.125
40390.118
40390.11
40390.1
40390.087
40390.07
40390.05
40390.024
40389.992
40389.953
40389.904
40389.843
40389.766
40389.671
40389.551
40389.4
40389.209
40388.968
40388.663
40388.275
40387.783
40387.158
40386.363
40385.355
40384.078
40382.463
40380.429
40377.873
40374.672
40370.679
40365.717
40359.574
40351.997
40342.693
40331.314
40317.458
40300.656
40280.373
40255.994
40226.827
40192.098
40150.957
40102.468
40045.618
39979.315
39902.397
39813.631
39711.695
39595.17
39462.523
39312.078
39142.035
38950.455
38735.214
38493.945
38224.048
37922.706
37586.921
37213.504
36799.409
36337.498
40416.303
40416.302
40416.299
40416.296
40416.291
40416.284
40416.276
40416.265
40416.251
40416.234
40416.213
40416.187
40416.154
40416.114
40416.064
40416.001
40415.923
40415.825
40415.703
40415.55
40415.357
40415.113
40414.806
40414.416
40413.923
40413.297
40412.504
40411.501
40410.232
40408.632
40406.615
40404.085
40400.92
40396.971
40392.065
40385.992
40378.507
40369.316
40358.078
40344.394
40327.801
40307.771
40283.699
40254.905
40220.631
40180.039
40132.21
40076.147
40010.772
39934.94
39847.424
39746.913
39631.999
39501.163
39352.758
39185.013
38996.014
38783.644
38545.559
38279.2
37981.794
37650.394
37281.877
36873.341
36417.119
40444.904
40444.902
40444.9
40444.896
40444.891
40444.885
40444.876
40444.865
40444.851
40444.834
40444.813
40444.786
40444.753
40444.712
40444.66
40444.597
40444.517
40444.418
40444.295
40444.139
40443.944
40443.699
40443.389
40442.999
40442.505
40441.88
40441.091
40440.095
40438.837
40437.252
40435.259
40432.76
40429.632
40425.732
40420.889
40414.896
40407.509
40398.441
40387.354
40373.853
40357.484
40337.726
40313.987
40285.602
40251.829
40211.844
40164.747
40109.553
40045.207
39970.571
39884.432
39785.488
39672.346
39543.506
39397.35
39232.14
39045.977
38836.764
38602.178
38339.705
38046.624
37720.04
37356.901
36954.467
36504.488
40476.034
40476.033
40476.03
40476.027
40476.022
40476.016
40476.007
40475.996
40475.983
40475.965
40475.944
40475.917
40475.884
40475.842
40475.791
40475.727
40475.647
40475.547
40475.423
40475.267
40475.071
40474.825
40474.515
40474.125
40473.632
40473.011
40472.227
40471.239
40469.994
40468.427
40466.458
40463.99
40460.904
40457.059
40452.283
40446.375
40439.095
40430.159
40419.233
40405.93
40389.803
40370.341
40346.967
40319.032
40285.81
40246.497
40200.204
40145.969
40082.749
40009.423
39924.787
39827.555
39716.348
39589.693
39446.005
39283.572
39100.511
38894.743
38663.979
38405.755
38117.399
37796.075
37438.808
37043.034
36599.864
40509.802
40509.801
40509.799
40509.796
40509.791
40509.785
40509.777
40509.766
40509.753
40509.736
40509.714
40509.688
40509.655
40509.614
40509.562
40509.499
40509.419
40509.32
40509.195
40509.04
40508.845
40508.6
40508.292
40507.904
40507.415
40506.798
40506.021
40505.042
40503.81
40502.261
40500.316
40497.881
40494.839
40491.049
40486.346
40480.529
40473.362
40464.568
40453.816
40440.726
40424.862
40405.724
40382.752
40355.313
40322.699
40284.12
40238.711
40185.523
40123.53
40051.625
39968.621
39873.246
39764.143
39639.871
39498.875
39339.462
39159.774
38957.75
38731.142
38477.539
38194.321
37878.714
37527.826
37139.286
36703.503
40546.314
40546.313
40546.311
40546.308
40546.304
40546.298
40546.29
40546.28
40546.267
40546.251
40546.23
40546.204
40546.172
40546.131
40546.081
40546.018
40545.94
40545.842
40545.719
40545.566
40545.373
40545.131
40544.827
40544.443
40543.96
40543.35
40542.582
40541.614
40540.396
40538.865
40536.945
40534.542
40531.543
40527.811
40523.182
40517.46
40510.415
40501.771
40491.205
40478.347
40462.769
40443.988
40421.459
40394.565
40362.616
40324.842
40280.394
40228.343
40167.678
40097.308
40016.065
39922.694
39815.869
39694.184
39556.105
39399.969
39223.923
39025.951
38803.843
38555.243
38277.589
37968.168
37624.18
37243.462
36815.655
40585.661
40585.66
40585.659
40585.656
40585.652
40585.647
40585.639
40585.63
40585.617
40585.601
40585.582
40585.557
40585.525
40585.486
40585.437
40585.376
40585.3
40585.204
40585.084
40584.934
40584.746
40584.509
40584.21
40583.834
40583.359
40582.76
40582.004
40581.051
40579.851
40578.342
40576.449
40574.081
40571.126
40567.452
40562.9
40557.277
40550.357
40541.871
40531.505
40518.897
40503.633
40485.245
40463.202
40436.905
40405.682
40368.782
40325.376
40274.551
40215.315
40146.595
40067.241
39976.027
39871.663
39752.772
39617.844
39465.233
39293.115
39099.51
38882.256
38639.054
38367.398
38064.645
37728.091
37355.794
36936.561
40627.912
40627.912
40627.91
40627.908
40627.904
40627.899
40627.892
40627.883
40627.871
40627.857
40627.838
40627.814
40627.784
40627.747
40627.7
40627.641
40627.568
40627.476
40627.36
40627.215
40627.033
40626.803
40626.513
40626.147
40625.685
40625.101
40624.363
40623.431
40622.256
40620.776
40618.918
40616.592
40613.69
40610.08
40605.608
40600.088
40593.299
40584.979
40574.825
40562.487
40547.565
40529.606
40508.094
40482.448
40452.015
40416.061
40373.776
40324.268
40266.56
40199.6
40122.265
40033.366
39931.653
39815.767
39684.231
39535.401
39367.501
39178.589
38966.554
38729.153
38463.941
38168.348
37839.77
37476.508
37066.452
40673.125
40673.125
40673.124
40673.122
40673.118
40673.114
40673.107
40673.099
40673.088
40673.074
40673.057
40673.034
40673.006
40672.971
40672.927
40672.871
40672.802
40672.714
40672.605
40672.466
40672.292
40672.072
40671.794
40671.442
40670.997
40670.433
40669.719
40668.815
40667.674
40666.234
40664.424
40662.153
40659.316
40655.784
40651.405
40645.998
40639.349
40631.206
40621.279
40609.232
40594.681
40577.187
40556.253
40531.314
40501.733
40466.796
40425.712
40377.605
40321.52
40256.432
40181.253
40094.841
39995.971
39883.311
39755.394
39610.615
39447.231
39263.347
39056.903
38825.717
38567.407
38279.474
37959.425
37605.822
37205.547
40721.356
40721.356
40721.355
40721.353
40721.35
40721.346
40721.34
40721.332
40721.323
40721.31
40721.294
40721.273
40721.247
40721.215
40721.174
40721.123
40721.058
40720.976
40720.874
40720.744
40720.58
40720.372
40720.109
40719.775
40719.351
40718.812
40718.128
40717.26
40716.161
40714.773
40713.022
40710.821
40708.066
40704.632
40700.366
40695.092
40688.604
40680.66
40670.983
40659.252
40645.102
40628.113
40607.802
40583.621
40554.952
40521.099
40481.288
40434.663
40380.295
40317.197
40244.325
40160.579
40064.743
39955.523
39831.464
39691.008
39532.447
39353.936
39153.467
38928.92
38677.978
38398.215
38087.255
37743.943
37354.054
40772.683
40772.683
40772.682
40772.68
40772.678
40772.674
40772.669
40772.662
40772.653
40772.642
40772.627
40772.609
40772.585
40772.555
40772.518
40772.471
40772.411
40772.336
40772.241
40772.121
40771.968
40771.773
40771.526
40771.211
40770.81
40770.3
40769.649
40768.822
40767.772
40766.442
40764.762
40762.646
40759.991
40756.673
40752.544
40747.432
40741.135
40733.422
40724.029
40712.653
40698.944
40682.498
40662.852
40639.478
40611.777
40579.068
40540.592
40495.522
40442.972
40381.996
40311.595
40230.68
40138.083
40032.512
39912.562
39776.71
39623.291
39450.507
39256.405
39038.931
38795.831
38524.756
38223.451
37891.073
37512.167
40827.192
40827.192
40827.192
40827.191
40827.189
40827.185
40827.181
40827.175
40827.167
40827.157
40827.143
40827.127
40827.105
40827.078
40827.044
40827.001
40826.946
40826.877
40826.789
40826.677
40826.535
40826.354
40826.122
40825.826
40825.448
40824.965
40824.349
40823.564
40822.565
40821.298
40819.694
40817.671
40815.128
40811.944
40807.975
40803.052
40796.983
40789.543
40780.48
40769.5
40756.272
40740.411
40721.476
40698.956
40672.268
40640.749
40603.674
40560.255
40509.643
40450.931
40383.156
40305.25
40216.082
40114.388
39998.804
39867.846
39719.893
39553.201
39365.87
39155.912
38921.138
38659.273
38368.193
38047.405
37680.073
40884.983
40884.983
40884.983
40884.982
40884.98
40884.978
40884.974
40884.968
40884.961
40884.952
40884.94
40884.924
40884.904
40884.879
40884.847
40884.807
40884.755
40884.69
40884.607
40884.502
40884.367
40884.196
40883.976
40883.696
40883.337
40882.878
40882.293
40881.547
40880.598
40879.394
40877.869
40875.945
40873.523
40870.487
40866.697
40861.991
40856.18
40849.05
40840.354
40829.814
40817.113
40801.883
40783.7
40762.073
40736.446
40706.188
40670.603
40628.943
40580.392
40524.088
40459.085
40384.375
40298.833
40201.248
40090.294
39964.53
39822.381
39662.156
39482.01
39280.019
39054.063
38801.939
38521.655
38213.127
37857.952
40946.133
40946.134
40946.134
40946.133
40946.131
40946.128
40946.125
40946.119
40946.113
40946.103
40946.092
40946.077
40946.057
40946.033
40946.002
40945.962
40945.912
40945.849
40945.768
40945.666
40945.535
40945.369
40945.158
40944.888
40944.544
40944.105
40943.546
40942.836
40941.935
40940.792
40939.347
40937.523
40935.228
40932.349
40928.753
40924.283
40918.756
40911.965
40903.672
40893.61
40881.473
40866.912
40849.525
40828.852
40804.356
40775.435
40741.436
40701.649
40655.283
40601.523
40539.465
40468.12
40386.415
40293.181
40187.131
40066.87
39930.872
39777.5
39604.964
39411.402
39194.764
38952.918
38684.006
38388.414
38045.985
41010.68
41010.68
41010.68
41010.679
41010.677
41010.675
41010.671
41010.665
41010.658
41010.649
41010.637
41010.621
41010.602
41010.577
41010.545
41010.505
41010.454
41010.39
41010.31
41010.207
41010.078
41009.915
41009.707
41009.444
41009.111
41008.688
41008.153
41007.475
41006.619
41005.536
41004.171
41002.45
41000.287
40997.573
40994.18
40989.958
40984.732
40978.3
40970.434
40960.879
40949.344
40935.5
40918.968
40899.309
40876.015
40848.521
40816.213
40778.403
40734.359
40683.292
40624.336
40556.549
40478.899
40390.264
40289.401
40174.964
40045.475
39899.354
39734.865
39550.207
39343.396
39112.371
38855.407
38573.432
38244.367
41078.61
41078.61
41078.609
41078.608
41078.606
41078.603
41078.599
41078.593
41078.585
41078.575
41078.563
41078.546
41078.526
41078.5
41078.467
41078.426
41078.374
41078.308
41078.227
41078.124
41077.994
41077.832
41077.627
41077.37
41077.046
41076.638
41076.125
41075.48
41074.668
41073.647
41072.362
41070.746
41068.717
41066.171
41062.989
41059.025
41054.11
41048.054
41040.64
41031.623
41020.73
41007.651
40992.031
40973.453
40951.442
40925.467
40894.948
40859.238
40817.649
40769.425
40713.745
40649.711
40576.343
40492.563
40397.18
40288.897
40166.289
40027.83
39871.838
39696.573
39500.113
39280.457
39036.026
38768.349
38453.308
41149.874
41149.874
41149.873
41149.872
41149.87
41149.866
41149.862
41149.856
41149.848
41149.837
41149.824
41149.807
41149.786
41149.759
41149.726
41149.684
41149.631
41149.566
41149.484
41149.382
41149.254
41149.094
41148.894
41148.645
41148.333
41147.943
41147.456
41146.846
41146.082
41145.125
41143.924
41142.417
41140.525
41138.153
41135.186
41131.485
41126.894
41121.23
41114.288
41105.84
41095.629
41083.366
41068.716
41051.288
41030.639
41006.278
40977.655
40944.169
40905.169
40859.943
40807.717
40747.643
40678.789
40600.13
40510.529
40408.744
40293.401
40163.031
40016.003
39850.638
39665.066
39457.343
39226.046
38973.377
38673.026
41224.419
41224.419
41224.418
41224.417
41224.414
41224.411
41224.406
41224.4
41224.392
41224.382
41224.369
41224.353
41224.332
41224.306
41224.273
41224.232
41224.181
41224.118
41224.039
41223.941
41223.819
41223.666
41223.477
41223.241
41222.948
41222.583
41222.128
41221.561
41220.852
41219.967
41218.857
41217.464
41215.715
41213.521
41210.773
41207.344
41203.086
41197.828
41191.381
41183.532
41174.043
41162.643
41149.019
41132.81
41113.607
41090.949
41064.329
41033.188
40996.919
40954.853
40906.268
40850.366
40786.267
40713.003
40629.497
40534.564
40426.887
40305.049
40167.475
40012.537
39838.415
39643.203
39425.67
39188.801
38903.75
41302.215
41302.215
41302.214
41302.213
41302.211
41302.207
41302.203
41302.198
41302.19
41302.181
41302.169
41302.154
41302.135
41302.111
41302.081
41302.043
41301.997
41301.939
41301.867
41301.777
41301.665
41301.527
41301.354
41301.14
41300.873
41300.542
41300.129
41299.615
41298.971
41298.165
41297.153
41295.881
41294.279
41292.267
41289.745
41286.593
41282.678
41277.842
41271.912
41264.692
41255.962
41245.471
41232.93
41218.007
41200.323
41179.46
41154.952
41126.282
41092.887
41054.148
41009.393
40957.881
40898.787
40831.203
40754.114
40666.402
40566.806
40453.967
40326.361
40182.408
40020.329
39838.237
39635.06
39414.633
39146.106
41383.258
41383.258
41383.257
41383.256
41383.254
41383.251
41383.248
41383.243
41383.236
41383.228
41383.218
41383.205
41383.189
41383.168
41383.142
41383.11
41383.07
41383.02
41382.958
41382.881
41382.784
41382.664
41382.514
41382.327
41382.095
41381.804
41381.441
41380.985
41380.413
41379.692
41378.783
41377.635
41376.186
41374.36
41372.068
41369.203
41365.643
41361.247
41355.857
41349.296
41341.362
41331.826
41320.42
41306.845
41290.759
41271.784
41249.494
41223.421
41193.045
41157.803
41117.073
41070.174
41016.341
40954.73
40884.393
40804.283
40713.203
40609.854
40492.761
40360.393
40211.007
40042.673
39854.315
39651.451
39400.294
41467.56
41467.56
41467.56
41467.559
41467.557
41467.555
41467.552
41467.548
41467.543
41467.536
41467.527
41467.517
41467.503
41467.486
41467.465
41467.439
41467.405
41467.364
41467.313
41467.248
41467.168
41467.068
41466.942
41466.784
41466.587
41466.338
41466.025
41465.63
41465.129
41464.495
41463.69
41462.669
41461.375
41459.742
41457.689
41455.122
41451.933
41447.998
41443.174
41437.303
41430.202
41421.662
41411.445
41399.282
41384.871
41367.874
41347.91
41324.557
41297.348
41265.772
41229.265
41187.205
41138.896
41083.561
41020.324
40948.212
40866.102
40772.762
40666.768
40546.637
40410.64
40256.625
40083.782
39899.541
39666.555
41555.118
41555.118
41555.117
41555.116
41555.115
41555.113
41555.11
41555.107
41555.102
41555.097
41555.089
41555.08
41555.069
41555.055
41555.037
41555.015
41554.988
41554.953
41554.911
41554.857
41554.79
41554.706
41554.601
41554.469
41554.302
41554.091
41553.823
41553.484
41553.052
41552.501
41551.799
41550.906
41549.772
41548.339
41546.536
41544.282
41541.482
41538.03
41533.799
41528.649
41522.416
41514.917
41505.941
41495.255
41482.594
41467.664
41450.131
41429.624
41405.728
41377.988
41345.901
41308.912
41266.394
41217.648
41161.871
41098.17
41025.508
40942.728
40848.467
40741.279
40619.362
40480.608
40323.753
40159.156
39945.736
41645.887
41645.887
41645.886
41645.885
41645.884
41645.882
41645.879
41645.876
41645.872
41645.866
41645.86
41645.851
41645.841
41645.828
41645.811
41645.791
41645.766
41645.735
41645.697
41645.65
41645.591
41645.517
41645.426
41645.311
41645.167
41644.986
41644.757
41644.466
41644.096
41643.625
41643.025
41642.261
41641.291
41640.065
41638.523
41636.596
41634.205
41631.257
41627.645
41623.245
41617.917
41611.501
41603.819
41594.672
41583.838
41571.065
41556.068
41538.529
41518.089
41494.356
41466.889
41435.203
41398.75
41356.91
41308.964
41254.107
41191.395
41119.76
41037.91
40944.391
40837.55
40714.919
40574.779
40430.767
40238.693
41739.758
41739.758
41739.757
41739.756
41739.754
41739.752
41739.749
41739.746
41739.741
41739.735
41739.728
41739.719
41739.708
41739.694
41739.678
41739.657
41739.632
41739.602
41739.564
41739.518
41739.462
41739.393
41739.309
41739.206
41739.078
41738.92
41738.723
41738.475
41738.164
41737.77
41737.27
41736.635
41735.831
41734.816
41733.544
41731.956
41729.988
41727.564
41724.593
41720.97
41716.581
41711.292
41704.956
41697.413
41688.482
41677.956
41665.599
41651.149
41634.31
41614.751
41592.104
41565.959
41535.846
41501.235
41461.5
41415.933
41363.69
41303.802
41235.081
41156.184
41065.389
40960.101
40837.916
40715.331
40546.103
41836.566
41836.565
41836.564
41836.562
41836.56
41836.558
41836.554
41836.55
41836.545
41836.538
41836.53
41836.52
41836.508
41836.493
41836.475
41836.453
41836.426
41836.394
41836.355
41836.308
41836.252
41836.185
41836.105
41836.01
41835.895
41835.756
41835.587
41835.379
41835.122
41834.801
41834.397
41833.888
41833.249
41832.447
41831.447
41830.206
41828.674
41826.787
41824.474
41821.656
41818.239
41814.119
41809.186
41803.315
41796.365
41788.176
41778.565
41767.327
41754.231
41739.015
41721.388
41701.02
41677.526
41650.465
41619.319
41583.482
41542.239
41494.766
41439.998
41376.68
41303.184
41216.817
41114.684
41014.374
40867.933
41936.079
41936.078
41936.077
41936.075
41936.073
41936.07
41936.066
41936.062
41936.056
41936.049
41936.04
41936.03
41936.017
41936.001
41935.983
41935.96
41935.933
41935.901
41935.862
41935.816
41935.763
41935.7
41935.626
41935.539
41935.437
41935.318
41935.177
41935.007
41934.801
41934.548
41934.237
41933.853
41933.378
41932.792
41932.071
41931.184
41930.094
41928.756
41927.122
41925.131
41922.718
41919.812
41916.336
41912.202
41907.31
41901.547
41894.785
41886.88
41877.666
41866.959
41854.547
41840.182
41823.573
41804.383
41782.208
41756.572
41726.89
41692.492
41652.523
41605.936
41551.238
41485.805
41406.712
41328.259
41206.298
42038.061
42038.06
42038.058
42038.056
42038.054
42038.051
42038.047
42038.043
42038.037
42038.03
42038.022
42038.012
42038
42037.986
42037.969
42037.949
42037.925
42037.896
42037.863
42037.823
42037.777
42037.724
42037.662
42037.59
42037.506
42037.408
42037.293
42037.158
42036.998
42036.809
42036.586
42036.326
42036.018
42035.651
42035.212
42034.682
42034.041
42033.267
42032.328
42031.188
42029.815
42028.167
42026.202
42023.869
42021.11
42017.859
42014.046
42009.591
42004.4
41998.372
41991.371
41983.246
41973.799
41962.803
41949.983
41935
41917.444
41896.818
41872.488
41843.726
41809.364
41767.351
41715.201
41661.922
41570.162
42146.897
42146.895
42146.894
42146.892
42146.889
42146.886
42146.883
42146.879
42146.874
42146.868
42146.861
42146.852
42146.843
42146.831
42146.817
42146.801
42146.782
42146.759
42146.733
42146.702
42146.665
42146.623
42146.573
42146.516
42146.449
42146.373
42146.284
42146.184
42146.072
42145.949
42145.818
42145.683
42145.549
42145.415
42145.28
42145.138
42144.991
42144.831
42144.649
42144.441
42144.204
42143.933
42143.62
42143.253
42142.815
42142.298
42141.693
42140.988
42140.165
42139.204
42138.071
42136.71
42135.037
42132.95
42130.309
42126.949
42122.631
42117.095
42109.954
42100.834
42089.089
42073.608
42054.319
42036.824
42003.358
42261.372
42261.371
42261.369
42261.367
42261.365
42261.362
42261.359
42261.356
42261.352
42261.347
42261.342
42261.336
42261.329
42261.321
42261.311
42261.3
42261.286
42261.27
42261.252
42261.229
42261.203
42261.172
42261.137
42261.095
42261.048
42260.995
42260.938
42260.88
42260.826
42260.783
42260.762
42260.774
42260.835
42260.955
42261.147
42261.428
42261.812
42262.312
42262.94
42263.725
42264.699
42265.893
42267.336
42269.059
42271.099
42273.501
42276.32
42279.617
42283.455
42287.903
42293.026
42298.88
42305.506
42312.938
42321.19
42330.277
42340.169
42350.848
42362.229
42374.326
42387.068
42400.375
42415.412
42434.908
42449.616
42375.625
42375.624
42375.622
42375.62
42375.619
42375.617
42375.615
42375.613
42375.61
42375.608
42375.605
42375.602
42375.599
42375.596
42375.592
42375.588
42375.583
42375.577
42375.571
42375.562
42375.552
42375.539
42375.523
42375.505
42375.484
42375.462
42375.444
42375.434
42375.444
42375.486
42375.577
42375.742
42376
42376.374
42376.889
42377.572
42378.458
42379.588
42381.008
42382.775
42384.951
42387.602
42390.795
42394.607
42399.125
42404.452
42410.707
42418.023
42426.546
42436.432
42447.843
42460.953
42475.934
42492.962
42512.208
42533.867
42558.123
42585.212
42615.357
42648.937
42686.324
42728.183
42775.897
42831.131
42892.805
42489.15
42489.149
42489.147
42489.146
42489.144
42489.143
42489.142
42489.142
42489.141
42489.141
42489.142
42489.143
42489.144
42489.146
42489.149
42489.153
42489.158
42489.163
42489.169
42489.176
42489.183
42489.19
42489.197
42489.205
42489.215
42489.229
42489.254
42489.3
42489.38
42489.513
42489.722
42490.038
42490.491
42491.113
42491.943
42493.025
42494.414
42496.173
42498.377
42501.113
42504.476
42508.567
42513.493
42519.378
42526.362
42534.605
42544.288
42555.618
42568.819
42584.136
42601.833
42622.197
42645.533
42672.163
42702.42
42736.677
42775.33
42818.86
42867.788
42922.819
42984.714
43054.641
43134.246
43225.62
43331.549
42601.454
42601.453
42601.452
42601.451
42601.45
42601.45
42601.45
42601.451
42601.453
42601.455
42601.459
42601.463
42601.469
42601.477
42601.487
42601.499
42601.513
42601.529
42601.548
42601.57
42601.595
42601.622
42601.653
42601.687
42601.729
42601.783
42601.857
42601.962
42602.117
42602.346
42602.68
42603.156
42603.81
42604.689
42605.842
42607.329
42609.223
42611.612
42614.596
42618.292
42622.827
42628.34
42634.979
42642.917
42652.345
42663.481
42676.569
42691.887
42709.738
42730.457
42754.408
42781.992
42813.642
42849.827
42891.039
42937.832
42990.809
43050.688
43118.269
43194.565
43280.72
43378.323
43489.414
43616.715
43764.11
42712.131
42712.13
42712.129
42712.128
42712.128
42712.129
42712.131
42712.133
42712.136
42712.141
42712.147
42712.155
42712.165
42712.178
42712.193
42712.212
42712.234
42712.26
42712.291
42712.325
42712.365
42712.41
42712.462
42712.523
42712.596
42712.688
42712.809
42712.975
42713.208
42713.538
42714.002
42714.642
42715.506
42716.649
42718.131
42720.027
42722.43
42725.448
42729.208