/*--------------------------------*- C++ -*----------------------------------*\
  =========                 |
  \\      /  F ield         | OpenFOAM: The Open Source CFD Toolbox
   \\    /   O peration     | Website:  https://openfoam.org
    \\  /    A nd           | Version:  13
     \\/     M anipulation  |
\*---------------------------------------------------------------------------*/
FoamFile
{
    format      ascii;
    class       volVectorField;
    location    "1.49785";
    object      UMean;
}
// * * * * * * * * * * * * * * * * * * * * * * * * * * * * * * * * * * * * * //

dimensions      [0 1 -1 0 0 0 0];

internalField   nonuniform List<vector> 
17140
(
(-9.3443464e-07 4.0642904e-05 -2.5781303e-21)
(-1.1285305e-05 0.00012474643 -2.192574e-22)
(-3.3402492e-05 0.00021640746 1.4481432e-20)
(-7.1973685e-05 0.00031675046 -1.5926219e-20)
(-0.00013129858 0.00042705536 1.8627338e-21)
(-0.0002174304 0.0005485856 -6.0999496e-21)
(-0.00033801607 0.0006826275 -1.0277136e-20)
(-0.00050257695 0.00083041114 5.0219622e-21)
(-0.00072293837 0.00099305972 1.6455859e-20)
(-0.0010136883 0.0011715024 4.0417397e-20)
(-0.0013926806 0.0013663719 -6.0034016e-20)
(-0.0018815666 0.0015778745 5.3610811e-20)
(-0.0025063124 0.0018056388 8.2260157e-21)
(-0.0032976828 0.0020485286 -4.6665019e-20)
(-0.0042916005 0.0023044347 5.1999226e-21)
(-0.0055292755 0.002570053 -4.1368492e-20)
(-0.0070569741 0.0028406767 1.5475789e-21)
(-0.0089252395 0.0031099963 -3.4828183e-22)
(-0.011187415 0.003369953 -2.4879925e-20)
(-0.013897161 0.0036107152 3.2474947e-20)
(-0.017104823 0.0038207987 -1.5746721e-20)
(-0.020852535 0.0039874054 3.0254826e-21)
(-0.025167859 0.004097002 2.2438013e-20)
(-0.030056459 0.0041361679 -2.250551e-20)
(-0.035493947 0.0040926887 -3.6026403e-20)
(-0.041417583 0.003956615 2.9100093e-20)
(-0.047718562 0.0037213751 1.4362116e-19)
(-0.054234568 0.0033843815 1.7000181e-20)
(-0.060745285 0.002947207 -1.4993911e-19)
(-0.06696992 0.0024150369 -3.5241269e-20)
(-0.072564303 0.0017962131 -1.2644091e-19)
(-0.077119088 0.0011014965 1.6737323e-19)
(-0.080159394 0.00034355643 -4.3870222e-20)
(-0.081148686 -0.00046377277 -2.1089064e-20)
(-0.079493425 -0.0013046113 -2.0868517e-19)
(-0.074550524 -0.0021619068 9.2180326e-20)
(-0.065642114 -0.0030173325 -1.3982187e-19)
(-0.052076784 -0.0038502079 -9.5218482e-20)
(-0.033170498 -0.0046384376 -4.3848325e-20)
(-0.0082753767 -0.0053550492 1.3349886e-19)
(0.02308294 -0.0059817317 2.5284499e-19)
(0.061422854 -0.00647452 2.2994347e-19)
(0.10667714 -0.0067939739 1.0047092e-19)
(0.15868101 -0.0069072403 -4.8883306e-19)
(0.21667948 -0.0067771643 -3.5679959e-19)
(0.27945598 -0.0063836584 8.7403963e-20)
(0.34532425 -0.0057297037 -5.9156225e-19)
(0.41231392 -0.0048475619 -1.9979861e-19)
(0.47842596 -0.0037995574 2.0224574e-19)
(0.54193201 -0.0026597965 4.9148889e-19)
(0.60153788 -0.0015012352 -3.0029847e-19)
(0.65642162 -0.00037994368 -1.8802184e-19)
(0.70617882 0.00066745867 4.8620511e-19)
(0.75067192 0.0016226043 2.2784684e-19)
(0.78997021 0.0024775808 1.6103895e-19)
(0.82421038 0.0032324117 -1.255287e-19)
(0.85368284 0.0038863185 3.3604556e-19)
(0.87868113 0.0044464137 2.7871081e-19)
(0.89968626 0.0049111983 6.9374215e-20)
(0.91713839 0.0052998694 -1.778683e-19)
(0.93155824 0.0056026548 -1.386285e-19)
(0.94355064 0.0058615941 -5.1146942e-19)
(0.95319866 0.0060351135 -7.489213e-20)
(0.96174899 0.0062037698 6.2952847e-19)
(0.96784369 0.0062503347 -4.867353e-19)
(-8.8896017e-06 0.0002072899 7.3359801e-22)
(-3.557957e-05 0.00063627611 -7.5945809e-20)
(-7.538803e-05 0.0011038684 6.7603851e-20)
(-0.00013315774 0.0016161794 -1.8437158e-20)
(-0.00021339132 0.0021797039 -3.8105012e-20)
(-0.00032232254 0.0028010963 7.2853856e-20)
(-0.00046776354 0.0034870807 -7.599956e-20)
(-0.00065937408 0.0042441753 6.6946529e-21)
(-0.0009090701 0.0050783942 -2.0923732e-20)
(-0.0012314649 0.005994832 -3.5404896e-22)
(-0.0016443472 0.0069971478 -7.0065087e-20)
(-0.0021691799 0.008086914 1.1154743e-19)
(-0.0028315957 0.0092628329 9.2343668e-21)
(-0.0036618321 0.010519814 -9.1385034e-20)
(-0.0046950566 0.011847933 2.8150688e-20)
(-0.0059714475 0.013231306 1.793536e-20)
(-0.007535941 0.014646963 -1.1418159e-19)
(-0.0094374239 0.016063824 3.7340517e-19)
(-0.011727245 0.017441972 -2.347497e-19)
(-0.014456774 0.0187324 2.8245318e-19)
(-0.017673831 0.019877573 -4.191553e-19)
(-0.021417858 0.020812975 1.0324825e-19)
(-0.025713811 0.021469929 4.2753748e-20)
(-0.030564952 0.021779736 -1.4046402e-19)
(-0.035944896 0.021678759 5.0782619e-19)
(-0.041789564 0.021114023 7.616845e-20)
(-0.047989539 0.020048262 -3.9696092e-19)
(-0.05438274 0.018463262 4.4764717e-19)
(-0.060749837 0.016360526 -6.1932518e-20)
(-0.066811665 0.01375913 -6.1012274e-19)
(-0.072226066 0.010692459 6.3700178e-20)
(-0.07658608 0.0072047149 4.9128806e-19)
(-0.079419487 0.0033479099 1.2455645e-20)
(-0.080192143 -0.00081975934 -3.7167043e-19)
(-0.078312345 -0.0052333202 4.1791126e-19)
(-0.073138956 -0.0098216218 -1.8965217e-19)
(-0.06399438 -0.014507557 2.2489192e-19)
(-0.050187263 -0.019205642 7.2058182e-19)
(-0.031032838 -0.023817417 1.6253867e-19)
(-0.0058842729 -0.028229702 6.3924179e-19)
(0.025754333 -0.032331348 -8.2296357e-19)
(0.064300844 -0.035935663 -7.6044165e-19)
(0.10979435 -0.038849771 -1.3055297e-19)
(0.16200113 -0.040893875 1.0446227e-18)
(0.22016286 -0.041860557 -4.9419758e-19)
(0.28302441 -0.041611063 -1.7106013e-19)
(0.34886835 -0.040122179 9.140737e-20)
(0.4156994 -0.037506229 2.8394017e-19)
(0.4815137 -0.03402998 -1.3820523e-19)
(0.54460842 -0.030029267 2.4902083e-19)
(0.60373133 -0.02583578 1.4895971e-18)
(0.65811092 -0.021706309 7.068781e-20)
(0.70738903 -0.017806147 -3.161516e-19)
(0.75146198 -0.014214907 6.9815072e-19)
(0.79041984 -0.010964451 -5.9160214e-19)
(0.82440551 -0.008054503 1.6656361e-18)
(0.85370754 -0.0054930685 4.7150753e-19)
(0.87860597 -0.0032624302 -1.3180567e-18)
(0.89957008 -0.0013817238 2.2237765e-19)
(0.91701683 0.00020904131 2.5237876e-19)
(0.93145919 0.001466429 5.0429614e-20)
(0.94347599 0.0025446621 -6.6856885e-19)
(0.95315475 0.0032986995 1.3019137e-18)
(0.96171549 0.0040389511 3.898316e-19)
(0.96776109 0.004494231 6.4797415e-19)
(-2.611682e-05 0.00037255472 4.0440323e-20)
(-8.8138088e-05 0.0011436149 -2.2949941e-20)
(-0.00016619049 0.0019841164 -6.1055352e-21)
(-0.00026541369 0.002905158 5.7915912e-21)
(-0.00039075421 0.0039184299 -2.8079272e-20)
(-0.00054882751 0.0050359619 -2.088973e-21)
(-0.00074778776 0.006269913 -2.6714454e-20)
(-0.00099757303 0.0076320963 -2.8809595e-20)
(-0.0013102752 0.0091334372 2.3573235e-19)
(-0.0017005391 0.010783237 -2.1076416e-19)
(-0.0021859848 0.012588247 1.0102916e-19)
(-0.0027876449 0.014551502 1.4832452e-19)
(-0.0035303873 0.016670913 -2.9482803e-19)
(-0.0044432723 0.018937611 -3.6595211e-20)
(-0.0055597858 0.021334068 1.4175421e-19)
(-0.0069178518 0.023832068 9.7803266e-20)
(-0.0085594866 0.026390668 -1.1388132e-19)
(-0.010529975 0.028954331 4.1411953e-19)
(-0.012876347 0.031451569 -2.4600023e-19)
(-0.01564501 0.033794468 1.2231003e-19)
(-0.018878317 0.035879583 -4.1487331e-19)
(-0.022609961 0.037590688 -1.0858535e-19)
(-0.026859206 0.03880377 2.2799718e-19)
(-0.031624075 0.039394342 -3.4540804e-19)
(-0.036873847 0.039246677 -1.3691594e-19)
(-0.042541363 0.038263841 1.6561947e-19)
(-0.048515655 0.036376848 9.4705693e-19)
(-0.054634859 0.033550757 4.3151506e-19)
(-0.060681511 0.029785961 -2.1693529e-19)
(-0.066379637 0.02511458 2.3392843e-19)
(-0.071391156 0.01959471 -1.4746445e-19)
(-0.075313802 0.013303503 -8.4186414e-19)
(-0.07768091 0.0063318142 2.8429848e-19)
(-0.077963345 -0.0012179188 8.5649437e-19)
(-0.075574259 -0.0092322287 -2.8853509e-19)
(-0.069877338 -0.017586493 -4.0796236e-19)
(-0.060199075 -0.026143434 7.1388185e-19)
(-0.045850564 -0.034751379 2.1999957e-19)
(-0.02615129 -0.043235922 -3.9537324e-19)
(-0.0004642945 -0.051396897 -1.6011068e-19)
(0.031735941 -0.059007035 7.7629187e-19)
(0.070800222 -0.065761012 -2.216249e-19)
(0.11681692 -0.071309523 -3.2350189e-19)
(0.16949227 -0.075292472 -8.6940759e-19)
(0.22803476 -0.07733634 1.6622384e-18)
(0.2911124 -0.077176884 -1.080528e-18)
(0.35693279 -0.074769272 -2.7333265e-19)
(0.42344118 -0.070321321 -1.0841319e-18)
(0.48862458 -0.064326641 -1.3006711e-18)
(0.55083626 -0.057400168 -6.5993431e-20)
(0.60891766 -0.050140103 2.7882715e-19)
(0.66220766 -0.043002493 -2.0459679e-18)
(0.71044722 -0.036272854 -8.686546e-19)
(0.75360368 -0.030081259 -8.8802998e-19)
(0.7918104 -0.024473478 -2.9001106e-19)
(0.82522294 -0.01944126 -2.22769e-18)
(0.85412624 -0.014995221 8.7901167e-19)
(0.87877183 -0.011105343 -2.6577186e-19)
(0.89960485 -0.0078092221 -2.1690583e-18)
(0.91699369 -0.0050083801 -8.5872756e-19)
(0.93143895 -0.0027831036 1.0199669e-18)
(0.94346276 -0.00087001089 3.5050958e-18)
(0.95318348 0.00047882986 -1.119678e-18)
(0.96174623 0.0017995815 -1.8052878e-18)
(0.96788082 0.0026141177 -7.7342059e-19)
(-5.2435414e-05 0.00053270582 -1.3539817e-19)
(-0.00016844915 0.0016353349 1.6542101e-19)
(-0.00030495474 0.0028374098 -5.9833588e-20)
(-0.00046756041 0.0041549394 6.5074358e-21)
(-0.0006618913 0.0056046633 -1.2871668e-19)
(-0.00089515492 0.0072039014 1.3327072e-19)
(-0.0011760365 0.0089701569 -2.0232871e-19)
(-0.0015149088 0.010920481 9.529553e-20)
(-0.0019241454 0.013070686 3.627699e-19)
(-0.002418452 0.015434305 -8.7366481e-20)
(-0.0030152064 0.018021267 -3.333741e-19)
(-0.0037348011 0.020836239 1.0201071e-19)
(-0.0046009518 0.02387661 6.8381805e-21)
(-0.0056409406 0.02713012 -2.6853666e-19)
(-0.0068857042 0.03057216 8.4332782e-19)
(-0.0083697369 0.034162856 -5.2002416e-19)
(-0.010130624 0.037844099 -4.9804731e-21)
(-0.012208141 0.041536839 2.9077427e-19)
(-0.014642719 0.045139045 -7.4325833e-19)
(-0.017473179 0.048524935 3.5338335e-19)
(-0.02073347 0.05154613 5.313495e-19)
(-0.024448421 0.054035436 2.1706877e-19)
(-0.028628452 0.055813883 -1.0841909e-18)
(-0.033263361 0.056701106 -5.7240822e-19)
(-0.038315496 0.056528583 3.7393355e-19)
(-0.043712593 0.055154117 -2.2054585e-19)
(-0.049340917 0.052475207 8.3574943e-19)
(-0.055038511 0.048438167 -2.4279006e-19)
(-0.060590304 0.043040425 6.6191636e-19)
(-0.065724858 0.036325447 -3.7843152e-19)
(-0.070110039 0.028374652 2.3676524e-19)
(-0.073350812 0.019297312 -8.7860274e-19)
(-0.074988707 0.0092225718 1.276498e-19)
(-0.07450323 -0.0017035567 -6.8113686e-19)
(-0.071316221 -0.01331953 6.5985112e-19)
(-0.064799706 -0.025446828 2.1362503e-19)
(-0.054288776 -0.03788872 -2.6971388e-18)
(-0.039100887 -0.050426939 -7.121167e-19)
(-0.018560483 -0.06281292 5.9716198e-19)
(0.0079627078 -0.074757141 -5.9324962e-19)
(0.040993885 -0.085914254 1.5410428e-19)
(0.080882829 -0.095852434 9.7570522e-19)
(0.12770553 -0.10406142 -4.5792692e-20)
(0.18112764 -0.10998155 -3.3306317e-19)
(0.24028925 -0.1130592 1.6328376e-19)
(0.30373963 -0.11289303 -8.2193347e-20)
(0.36956718 -0.10942905 -2.3851055e-19)
(0.43562522 -0.10299444 3.6899179e-18)
(0.49989543 -0.094347244 -4.1357548e-19)
(0.56081781 -0.084409204 3.8229707e-19)
(0.61737828 -0.074055338 -3.5875112e-18)
(0.66907832 -0.063935732 1.958727e-18)
(0.71579924 -0.054440151 1.6033342e-18)
(0.75760395 -0.045730788 1.5204707e-18)
(0.79468174 -0.037851317 1.4530967e-18)
(0.82720308 -0.030774063 2.2621857e-18)
(0.85544986 -0.024504608 -4.4860968e-18)
(0.8796369 -0.018997593 2.7407368e-18)
(0.9001822 -0.014308884 4.1318177e-18)
(0.91738878 -0.010304926 -3.0172628e-18)
(0.93174731 -0.0071067834 -9.5990298e-19)
(0.94369845 -0.0043473072 -8.3609469e-19)
(0.95340702 -0.0023888205 4.2566256e-18)
(0.96190147 -0.00047530376 3.1276648e-18)
(0.96800088 0.00072858458 -1.3778689e-19)
(-8.7345034e-05 0.00068460783 9.5308445e-20)
(-0.00027501885 0.0021018691 -2.4294688e-19)
(-0.00048913347 0.0036471946 1.9814484e-19)
(-0.00073594727 0.0053413299 -7.4918832e-20)
(-0.0010219914 0.007205817 -2.7083125e-20)
(-0.0013552741 0.0092630785 2.3323925e-19)
(-0.0017452056 0.011535773 -5.9134649e-20)
(-0.0022027618 0.014046046 -1.2571887e-19)
(-0.0027407175 0.016814495 -9.6611417e-21)
(-0.0033738917 0.019858862 -8.2224685e-20)
(-0.0041193812 0.023192329 1.154026e-19)
(-0.004996772 0.026821399 -8.0432284e-20)
(-0.0060283022 0.030743307 -2.9736036e-19)
(-0.0072389356 0.034942969 -8.6752273e-21)
(-0.0086562889 0.039389491 2.2926565e-19)
(-0.010310338 0.044032386 1.6328184e-19)
(-0.012232829 0.048797695 -1.4139324e-19)
(-0.014456235 0.053584407 1.3671739e-20)
(-0.017012234 0.058261699 2.799549e-19)
(-0.019929482 0.062667754 3.4418058e-19)
(-0.023230605 0.066611011 -3.9668469e-19)
(-0.026928421 0.06987481 -4.0332518e-19)
(-0.031021231 0.072226196 5.4863751e-19)
(-0.035487438 0.073429162 -6.8648714e-19)
(-0.040279543 0.073261689 -1.2027471e-18)
(-0.045317814 0.071534749 2.8652577e-18)
(-0.050484172 0.068110101 -1.5936142e-18)
(-0.055615824 0.062912506 2.3838056e-18)
(-0.060500275 0.055933689 -3.0055127e-18)
(-0.06487166 0.047226191 3.3847244e-18)
(-0.068406002 0.036893146 -3.5293854e-18)
(-0.070718387 0.025074647 5.9891606e-19)
(-0.071361983 0.011937486 2.0858529e-18)
(-0.069828757 -0.0023296762 -1.1863978e-18)
(-0.065553757 -0.017517607 3.741952e-19)
(-0.057922033 -0.033395184 1.1030859e-19)
(-0.046281132 -0.049707739 1.3724178e-18)
(-0.02995887 -0.066171958 4.5177065e-19)
(-0.0082874046 -0.082465488 4.5955877e-19)
(0.019359532 -0.098211742 4.5916399e-19)
(0.053511017 -0.11295178 -2.3609829e-18)
(0.094518158 -0.12611449 1.0451061e-18)
(0.14243938 -0.13701027 1.6775943e-19)
(0.19689133 -0.14486321 -1.9468676e-18)
(0.25691298 -0.14891024 -9.923061e-19)
(0.32088493 -0.14860171 4.8998397e-19)
(0.3867285 -0.14389015 1.7846869e-18)
(0.4521848 -0.13526171 -7.7759882e-19)
(0.51524909 -0.12378937 2.2707697e-18)
(0.57448652 -0.11073766 1.2327468e-18)
(0.62908191 -0.097269567 1.6965211e-18)
(0.678746 -0.084217834 4.5383746e-18)
(0.72353019 -0.072052596 -3.4909195e-18)
(0.76360408 -0.060943708 1.1315503e-18)
(0.79921452 -0.050913565 -1.9305178e-18)
(0.83054327 -0.041902108 -1.8198672e-18)
(0.85787049 -0.033901402 -7.061523e-19)
(0.88137142 -0.026846826 -6.3811003e-18)
(0.90144182 -0.020811757 -1.7047866e-18)
(0.91830904 -0.015631507 3.8784893e-18)
(0.93246323 -0.011471678 1.4618671e-18)
(0.9442391 -0.0078685759 -1.0913485e-18)
(0.95387977 -0.0052962193 -2.2570628e-18)
(0.96224542 -0.0027826997 -3.5154781e-18)
(0.96837648 -0.0011781901 2.6811212e-19)
(-0.00012998335 0.00082507117 2.9027766e-19)
(-0.00040525393 0.0025335149 7.8649317e-20)
(-0.00071426934 0.0043967099 -6.3712094e-20)
(-0.0010641253 0.0064398607 -2.3537957e-19)
(-0.0014624582 0.0086889691 1.2905018e-19)
(-0.0019182762 0.011171269 -1.8590156e-19)
(-0.0024418965 0.01391429 8.0521154e-20)
(-0.0030450592 0.016945033 1.9203168e-20)
(-0.0037410641 0.020288709 -1.0886858e-19)
(-0.0045449092 0.023967188 -2.3509852e-19)
(-0.0054733918 0.027996958 -1.1829173e-20)
(-0.0065451639 0.032386583 3.8865609e-19)
(-0.0077807131 0.037133597 -5.3968826e-19)
(-0.0092022291 0.042220809 8.7542179e-19)
(-0.010833318 0.047612088 -2.3003611e-19)
(-0.012698476 0.053247737 4.9192442e-19)
(-0.014822319 0.05903973 -5.9931793e-19)
(-0.017228391 0.064867235 3.9268372e-19)
(-0.019937575 0.070573087 -6.267393e-20)
(-0.02296594 0.075962055 -2.5710315e-19)
(-0.026321966 0.080801989 6.3278869e-19)
(-0.030003304 0.084829085 -9.0526882e-19)
(-0.033992806 0.0877581 9.9855126e-19)
(-0.038254097 0.089298129 1.7413287e-19)
(-0.042726618 0.08917322 -1.7346673e-18)
(-0.047320606 0.087145648 1.7793333e-18)
(-0.051911689 0.083038185 -1.1732703e-18)
(-0.056335195 0.076750599 1.334687e-18)
(-0.060381285 0.068265587 1.2895536e-19)
(-0.063790432 0.057642893 8.1474651e-20)
(-0.066248921 0.04500511 -5.4903028e-19)
(-0.067384991 0.030521469 3.7389337e-20)
(-0.066767149 0.014395362 -2.1160408e-18)
(-0.063904264 -0.0031429399 5.7848852e-19)
(-0.058248894 -0.02183805 1.7505689e-18)
(-0.049204123 -0.04140857 -8.2518391e-19)
(-0.036134256 -0.061544606 6.8539898e-19)
(-0.018379999 -0.081901777 -6.966957e-19)
(0.004717513 -0.10208784 -3.9169739e-18)
(0.033782514 -0.12164103 2.1875542e-18)
(0.069349373 -0.13999137 5.4121792e-19)
(0.11177299 -0.15641938 -3.0957278e-18)
(0.16109236 -0.17003353 1.7768632e-19)
(0.21685583 -0.17981142 3.8146374e-19)
(0.27795972 -0.1847428 4.1835206e-18)
(0.3425513 -0.18411371 9.7062453e-19)
(0.40834171 -0.17791277 -1.5307795e-18)
(0.47296501 -0.1668418 -1.5629234e-18)
(0.53446828 -0.15234664 -2.2201463e-18)
(0.5915954 -0.13607546 -2.7359725e-18)
(0.64379002 -0.11948798 -1.6634381e-18)
(0.69101123 -0.10358057 -2.5751421e-18)
(0.73349648 -0.088872133 8.6925826e-19)
(0.77151922 -0.075510891 -5.3808014e-18)
(0.80537486 -0.063477387 -3.6448606e-19)
(0.83524651 -0.052667568 -3.0333269e-19)
(0.86141256 -0.043052575 -1.7163419e-19)
(0.88400801 -0.034544643 6.8969289e-18)
(0.90341646 -0.027231963 2.6911869e-18)
(0.91978312 -0.020921528 -4.1303298e-18)
(0.9336101 -0.015825531 -5.9077438e-18)
(0.94510199 -0.011392794 -2.6408537e-18)
(0.95460076 -0.0082089063 -8.5621073e-19)
(0.9627548 -0.005105678 5.0101468e-18)
(0.96883457 -0.0031080252 -1.259839e-18)
(-0.00017917571 0.00095142555 -5.4801455e-20)
(-0.00055571605 0.0029221388 -1.336843e-19)
(-0.00097437694 0.0050718933 3.2282826e-19)
(-0.0014433989 0.0074299303 -1.2011604e-20)
(-0.0019716289 0.010026282 -1.5740965e-19)
(-0.0025692461 0.012892583 -6.9449024e-20)
(-0.0032476331 0.016060839 -5.1342212e-20)
(-0.0040194312 0.019562557 1.0132909e-19)
(-0.0048985684 0.023427281 -5.2554467e-19)
(-0.0059002798 0.027680845 3.9750178e-19)
(-0.0070410525 0.032343032 -1.9278786e-20)
(-0.0083385014 0.037424674 -2.4207954e-19)
(-0.0098111354 0.042924075 9.0948521e-19)
(-0.011477989 0.048822763 -9.1105654e-19)
(-0.013358064 0.055080589 1.2211078e-19)
(-0.015469567 0.061630339 7.6091058e-19)
(-0.017828847 0.068372111 -7.2153983e-19)
(-0.020449059 0.075167947 2.5464135e-19)
(-0.023338435 0.081837447 -5.0012108e-19)
(-0.02649824 0.088155367 6.4975501e-19)
(-0.029920159 0.09385249 1.2362391e-18)
(-0.033583702 0.098621051 -1.2411106e-18)
(-0.037452896 0.10212605 -1.8445739e-18)
(-0.041473118 0.10402318 3.6094361e-18)
(-0.045567404 0.10398263 -2.9345308e-18)
(-0.049632748 0.10171654 1.7254828e-18)
(-0.053536174 0.09700583 -4.5009544e-19)
(-0.057109885 0.089720883 1.0759144e-18)
(-0.060146635 0.079830403 -1.1123399e-18)
(-0.062394897 0.067396276 -1.515e-18)
(-0.063552631 0.052559924 1.0165163e-18)
(-0.063263646 0.035519907 1.7012257e-18)
(-0.06111522 0.016513966 -1.5049649e-19)
(-0.056637543 -0.0041882343 -6.2937435e-20)
(-0.049305049 -0.026287538 -1.1254897e-18)
(-0.038542617 -0.049455652 4.9306705e-19)
(-0.023735033 -0.073331861 1.8224101e-18)
(-0.0042393278 -0.097515866 9.2721846e-19)
(0.020594439 -0.1215526 -1.4320941e-18)
(0.051389156 -0.14490041 1.1393339e-18)
(0.08868568 -0.16688003 -9.8048709e-19)
(0.13284075 -0.18661179 3.2475583e-19)
(0.18386343 -0.20297766 1.2677078e-18)
(0.24120351 -0.21466485 -3.0672116e-18)
(0.30356274 -0.22036871 -1.8305566e-18)
(0.36878094 -0.2191946 -1.2016977e-18)
(0.43432358 -0.21122084 3.8013034e-18)
(0.49776164 -0.19743502 2.4693906e-18)
(0.55725302 -0.17971733 2.8928294e-18)
(0.61179643 -0.16013992 5.0360087e-18)
(0.66115674 -0.14045952 -1.7354817e-18)
(0.7055686 -0.12180681 3.666834e-19)
(0.74545265 -0.10471117 2.8623277e-18)
(0.78116703 -0.089268034 8.3309448e-18)
(0.81303751 -0.075396792 5.4432521e-18)
(0.84123451 -0.062940589 2.1261047e-18)
(0.8660334 -0.051844678 6.1609479e-18)
(0.88752819 -0.041995451 -4.1640989e-18)
(0.90610239 -0.033492197 4.4128275e-19)
(0.9218148 -0.026115646 6.681439e-18)
(0.93519596 -0.020124372 4.5103399e-18)
(0.946296 -0.014889133 2.0418463e-19)
(0.9555936 -0.01110542 -7.2025549e-18)
(0.96347498 -0.0074218827 7.6935576e-19)
(0.96952692 -0.0050124133 -1.087269e-18)
(-0.0002333931 0.0010607546 -2.1626929e-19)
(-0.0007216988 0.0032588489 1.1196202e-19)
(-0.0012613572 0.005657355 -1.5131858e-19)
(-0.0018619407 0.0082890356 -8.6057539e-20)
(-0.0025335922 0.011187423 2.4034489e-19)
(-0.0032877817 0.014388034 2.2458509e-19)
(-0.0041370651 0.017926848 -2.3074098e-19)
(-0.0050950775 0.021839423 2.7808751e-20)
(-0.0061764452 0.026159263 6.4507455e-21)
(-0.0073966706 0.030915915 4.5962206e-19)
(-0.0087719104 0.03613239 -5.0554945e-20)
(-0.010318649 0.041821962 -9.3272875e-19)
(-0.012053232 0.047984205 7.4893061e-19)
(-0.013991218 0.054600262 -2.5952839e-20)
(-0.016146543 0.061627363 -5.0767844e-19)
(-0.018530439 0.068992728 -4.4005013e-20)
(-0.021150087 0.076587154 1.1290015e-19)
(-0.024007042 0.08425877 5.1384244e-19)
(-0.027095343 0.091807719 -9.5207111e-19)
(-0.030399349 0.098982984 1.6952124e-18)
(-0.033891871 0.10548267 -3.7071796e-19)
(-0.037531317 0.11095926 2.7635853e-19)
(-0.041259784 0.11503152 -2.3066568e-19)
(-0.04500104 0.11730391 9.95456e-21)
(-0.048658218 0.11739312 -1.411363e-18)
(-0.052111891 0.11495971 -1.4285651e-18)
(-0.055217621 0.10973977 2.8691945e-18)
(-0.057802531 0.10157034 4.8448996e-19)
(-0.059660947 0.090402518 -1.7067799e-18)
(-0.060549637 0.076295768 -6.1335455e-19)
(-0.06018132 0.059403013 -1.4077584e-18)
(-0.05821814 0.039948467 1.6036209e-18)
(-0.054267746 0.018208502 7.100063e-19)
(-0.047885002 -0.0055113596 -1.6647035e-18)
(-0.038569559 -0.030871681 7.0654356e-19)
(-0.025771774 -0.057501151 3.4468507e-19)
(-0.008899592 -0.084994091 -1.0045846e-18)
(0.012670785 -0.11290158 -2.6678198e-18)
(0.039578567 -0.14071375 -8.2355051e-19)
(0.07244581 -0.1678172 5.5144676e-19)
(0.11181615 -0.19342473 1.3241512e-18)
(0.15803743 -0.21648602 1.3862388e-18)
(0.21106591 -0.2356264 1.5482423e-18)
(0.27020986 -0.24919064 3.2688063e-18)
(0.3339131 -0.25552181 -9.4127081e-20)
(0.39962842 -0.25353103 1.3872031e-18)
(0.46456912 -0.24347077 -7.6357419e-18)
(0.52632177 -0.22669998 -2.1170458e-18)
(0.58324109 -0.20558761 -2.4197101e-18)
(0.63467809 -0.18266375 -6.6956444e-18)
(0.68077856 -0.15996671 7.8099658e-18)
(0.72206252 -0.13871981 -1.7341232e-18)
(0.7591085 -0.11942021 -5.5451959e-18)
(0.7923228 -0.10208202 -6.752178e-18)
(0.8220355 -0.086549028 -8.4156451e-19)
(0.84838898 -0.072607064 2.1445796e-18)
(0.87165505 -0.060173177 3.4261089e-18)
(0.89188525 -0.049106824 -1.4493288e-18)
(0.90947523 -0.039513915 2.5753753e-18)
(0.92439392 -0.031150032 -2.0946549e-18)
(0.9372182 -0.024316823 -7.0762121e-19)
(0.94782162 -0.018319339 -2.0730979e-18)
(0.95685407 -0.013956039 8.9974008e-18)
(0.96438387 -0.0097186411 3.0388539e-19)
(0.9703432 -0.0069095224 3.5556495e-18)
(-0.00029077784 0.0011504396 2.0302291e-19)
(-0.00089749328 0.0035356683 4.1729488e-20)
(-0.0015653692 0.0061392562 -4.5873989e-20)
(-0.0023053699 0.0089968849 -2.2559167e-19)
(-0.0031289821 0.012144951 2.7073167e-19)
(-0.0040490218 0.015622226 -2.3007884e-19)
(-0.0050792578 0.019468043 -1.1006741e-19)
(-0.0062343567 0.023721442 5.912004e-21)
(-0.0075296572 0.028419399 9.3175908e-20)
(-0.0089809222 0.033594818 5.3083056e-19)
(-0.010603934 0.039273779 -8.9324424e-19)
(-0.012413959 0.045472111 1.0761157e-18)
(-0.014425018 0.052191134 -3.1704309e-19)
(-0.016648962 0.05941254 -4.3197258e-19)
(-0.019094302 0.067092432 6.6565327e-19)
(-0.021764791 0.075154636 -1.31962e-18)
(-0.024657793 0.083483549 1.610302e-18)
(-0.027762288 0.091917063 2.5545833e-20)
(-0.031056924 0.10024035 9.3925081e-19)
(-0.034507801 0.10818166 -3.7691434e-18)
(-0.038066504 0.11541176 9.2407476e-19)
(-0.041668198 0.12154873 3.8761203e-18)
(-0.045230238 0.12616979 -1.8593903e-18)
(-0.048651397 0.12883153 -2.2528528e-18)
(-0.051811542 0.12909862 5.7525327e-19)
(-0.054571472 0.12657889 3.0587448e-18)
(-0.056772167 0.12095983 -4.7034587e-18)
(-0.058233218 0.11203972 5.2900008e-18)
(-0.058749469 0.099745316 -4.2189107e-18)
(-0.058084727 0.084131336 8.1751704e-19)
(-0.055966398 0.065361052 -1.42107e-18)
(-0.052075903 0.043676507 -2.0474313e-18)
(-0.046049158 0.019385692 8.111739e-19)
(-0.037461215 -0.0071664492 2.0963234e-19)
(-0.025843226 -0.035603636 3.0827179e-18)
(-0.010672191 -0.065515844 -6.0058771e-19)
(0.0086174924 -0.096458459 1.5709204e-18)
(0.032629149 -0.12794296 -1.3544151e-18)
(0.061989504 -0.15941342 7.9768085e-19)
(0.097315275 -0.19019307 5.3411511e-19)
(0.13914298 -0.21938938 4.6646977e-19)
(0.18778677 -0.24577195 4.6125801e-19)
(0.2431075 -0.26767837 -2.8519868e-18)
(0.30421097 -0.28305803 -2.2790241e-18)
(0.36921812 -0.28983407 6.3984477e-19)
(0.43512443 -0.28671704 -4.1849314e-19)
(0.49892589 -0.27424615 1.7108215e-18)
(0.558334 -0.25425342 -3.4416889e-18)
(0.61201891 -0.22963686 -4.0148076e-18)
(0.65979231 -0.20340263 -1.1652032e-18)
(0.70223069 -0.17783407 -3.0270029e-18)
(0.74012493 -0.15419209 9.5023317e-20)
(0.77416291 -0.13289721 1.4419389e-18)
(0.8047483 -0.11386066 6.9880799e-18)
(0.83218469 -0.096845 -3.4700889e-18)
(0.85657187 -0.08158007 1.4007268e-18)
(0.87817943 -0.067954693 -3.9826939e-18)
(0.89701426 -0.055801686 6.6317879e-18)
(0.91349582 -0.045228942 -3.7470701e-18)
(0.92749912 -0.035967736 1.2849496e-18)
(0.93966691 -0.02835721 -8.975817e-21)
(0.94967816 -0.021648213 9.8557401e-19)
(0.95839208 -0.01673418 3.6716576e-18)
(0.9655218 -0.011965288 -6.8840492e-18)
(0.97137696 -0.0087461006 6.9935133e-18)
(-0.00034903696 0.0012177972 -4.5334107e-19)
(-0.001076104 0.0037443566 -2.392745e-19)
(-0.0018743155 0.0065032894 3.7583596e-19)
(-0.0027560267 0.0095325091 -9.8982923e-21)
(-0.0037340319 0.012870546 -3.4030772e-19)
(-0.0048224725 0.016558697 -1.7811752e-19)
(-0.0060363044 0.020638927 3.7593935e-19)
(-0.0073911895 0.025153078 -6.1814769e-20)
(-0.0089031362 0.030140997 8.7348563e-19)
(-0.010588114 0.03563849 -1.7067236e-19)
(-0.012461462 0.041674449 -4.392165e-21)
(-0.01453714 0.048267296 6.3200968e-19)
(-0.016826737 0.055420517 -2.0346674e-18)
(-0.019338243 0.063117284 9.5340558e-19)
(-0.022074544 0.071314127 1.7196164e-18)
(-0.025031645 0.079933771 -1.8472615e-18)
(-0.028196635 0.088857368 2.2959974e-19)
(-0.031545466 0.097916644 -1.3182756e-18)
(-0.035040546 0.10688682 -9.9151496e-19)
(-0.038628657 0.1154813 3.1635583e-18)
(-0.042238638 0.12334981 -2.4124373e-18)
(-0.04578058 0.13008249 3.2294965e-18)
(-0.04914458 0.13522106 -3.86196e-19)
(-0.052201507 0.13827902 1.6069021e-18)
(-0.054804511 0.1387717 -3.5562876e-18)
(-0.05679083 0.1362541 8.5741485e-19)
(-0.057983315 0.13036203 2.2006415e-18)
(-0.058190854 0.12084898 -5.3990377e-18)
(-0.057205861 0.10760958 2.3779949e-18)
(-0.05479822 0.090683916 2.5952933e-18)
(-0.050709422 0.070240965 -2.170665e-18)
(-0.044639731 0.046546392 -2.9388537e-19)
(-0.036252932 0.019928471 1.4925405e-18)
(-0.025149162 -0.0092311667 -8.3425575e-19)
(-0.010890989 -0.040518806 1.2977533e-18)
(0.0070151837 -0.073490331 -4.6148383e-18)
(0.029107368 -0.10766872 2.4577468e-18)
(0.055967465 -0.14253385 1.5006873e-18)
(0.088207154 -0.17749337 3.1263076e-18)
(0.12642897 -0.21181359 4.3344979e-19)
(0.17113998 -0.24449831 -3.4115495e-18)
(0.22257841 -0.27412691 1.3879698e-18)
(0.28044283 -0.29872603 2.0661517e-18)
(0.34355604 -0.31580844 3.1379525e-19)
(0.40964844 -0.32281056 -2.0706854e-18)
(0.47522595 -0.31824236 -1.8334621e-18)
(0.53716051 -0.30305776 5.6028802e-18)
(0.59341593 -0.27967337 2.9750979e-18)
(0.64312874 -0.25154074 6.4677725e-18)
(0.68667877 -0.2221351 2.2711468e-18)
(0.72510038 -0.19392257 8.821199e-19)
(0.75940891 -0.16813546 6.4800877e-18)
(0.79033192 -0.14507633 2.5076943e-18)
(0.81821311 -0.12454269 -8.4026079e-18)
(0.84330009 -0.10622078 6.6581965e-18)
(0.86563809 -0.089792757 -6.0181055e-18)
(0.88549752 -0.075121294 2.8506939e-18)
(0.90283787 -0.062013885 -1.3493832e-17)
(0.91811342 -0.050575537 -6.6173912e-18)
(0.9310994 -0.040514361 2.6263341e-18)
(0.94252427 -0.032199426 4.0287603e-18)
(0.9518579 -0.02484051 6.6366612e-18)
(0.96020822 -0.019412942 1.1589339e-18)
(0.96686432 -0.014148561 8.9298142e-19)
(0.97253856 -0.010540739 -9.3485554e-18)
(-0.00040560612 0.0012607267 -8.2165403e-21)
(-0.0012497134 0.0038784136 4.4861543e-19)
(-0.0021746914 0.0067381051 -5.2911729e-19)
(-0.0031942029 0.0098791914 -2.5477273e-19)
(-0.0043222397 0.013341516 5.1066867e-19)
(-0.0055741751 0.017168083 1.6555191e-19)
(-0.0069660405 0.021402658 -8.0380041e-19)
(-0.0085143879 0.026089094 8.6618963e-19)
(-0.010235787 0.031269394 1.8302994e-19)
(-0.012146312 0.036981678 7.2960636e-19)
(-0.014260763 0.043257271 -1.942412e-18)
(-0.016591709 0.050117094 -2.3709814e-20)
(-0.019148232 0.057567116 1.7564161e-18)
(-0.021934404 0.065592821 -1.8940522e-18)
(-0.024947436 0.074152668 1.3633905e-18)
(-0.028175523 0.083170587 5.0887364e-19)
(-0.031595404 0.092527757 -1.0716049e-18)
(-0.035169787 0.10205409 9.7596193e-19)
(-0.0388447 0.11152019 1.3133844e-18)
(-0.042546752 0.1206311 -2.8278292e-20)
(-0.046181655 0.12902297 -2.1250403e-18)
(-0.049632499 0.13626566 1.3336467e-18)
(-0.052760564 0.14187279 -7.5493812e-19)
(-0.055406187 0.14532116 -3.7098446e-18)
(-0.05739218 0.1460809 -1.2612645e-18)
(-0.058528245 0.14365539 3.4801919e-18)
(-0.058614709 0.13762615 -3.5339758e-19)
(-0.057445091 0.12769574 4.0525883e-18)
(-0.054805359 0.11371841 -2.4332606e-18)
(-0.050468803 0.095710216 1.3057859e-18)
(-0.044189213 0.073835779 -1.9202173e-18)
(-0.035688162 0.04837945 -4.760459e-19)
(-0.024650613 0.019692989 2.4277721e-18)
(-0.010710334 -0.011811294 -2.5406008e-18)
(0.0065418836 -0.045682451 -3.7943902e-18)
(0.027567815 -0.081446362 3.709344e-19)
(0.052878892 -0.11859912 4.2303944e-18)
(0.083034204 -0.15659622 -5.5051304e-18)
(0.11862481 -0.19481544 1.2041586e-18)
(0.1602238 -0.23246945 -2.6244485e-18)
(0.20827441 -0.26845429 4.1636631e-19)
(0.26287602 -0.30114959 -4.2231449e-18)
(0.32347565 -0.32825929 -2.0492204e-18)
(0.38851504 -0.34684653 -2.5991944e-18)
(0.45525482 -0.35382349 1.0602842e-17)
(0.51976127 -0.34749327 3.5085235e-18)
(0.57891679 -0.32934769 -4.6921955e-18)
(0.63109872 -0.30251503 3.8440794e-18)
(0.67607496 -0.27098633 3.2279556e-18)
(0.71488509 -0.23867064 -3.6436143e-18)
(0.74901199 -0.20812943 -1.8987274e-18)
(0.77961206 -0.18049488 -4.4128733e-18)
(0.80736793 -0.15592043 -2.1094468e-18)
(0.83250941 -0.13409249 7.1545695e-18)
(0.85520742 -0.11463574 3.966622e-18)
(0.8754449 -0.097199061 6.3371781e-19)
(0.89349704 -0.081622969 -1.2851609e-20)
(0.90927193 -0.067692042 3.3275339e-18)
(0.92326954 -0.055503125 -4.7302503e-18)
(0.93515636 -0.044743138 -5.9859407e-18)
(0.94576778 -0.03580309 -1.6446338e-18)