/*--------------------------------*- C++ -*----------------------------------*\
  =========                 |
  \\      /  F ield         | OpenFOAM: The Open Source CFD Toolbox
   \\    /   O peration     | Website:  https://openfoam.org
    \\  /    A nd           | Version:  13
     \\/     M anipulation  |
\*---------------------------------------------------------------------------*/
FoamFile
{
    format      ascii;
    class       volSymmTensorField;
    location    "48.596789";
    object      UPrime2Mean;
}
// * * * * * * * * * * * * * * * * * * * * * * * * * * * * * * * * * * * * * //

dimensions      [0 2 -2 0 0 0 0];

internalField   nonuniform List<symmTensor> 
17140
(
(5.5520257e-12 -3.1407304e-10 -9.701877e-28 1.9356765e-08 1.1788738e-26 6.1806221e-41)
(5.6181329e-10 -6.7097085e-09 -3.8953981e-28 1.8447328e-07 2.2638988e-27 5.3000574e-43)
(4.9400651e-09 -3.0841504e-08 6.1642995e-26 5.6033745e-07 -2.235143e-25 2.3096073e-39)
(2.3050589e-08 -9.1726215e-08 -1.2902554e-25 1.2066565e-06 3.3175895e-25 2.7899072e-39)
(7.6732752e-08 -2.166834e-07 2.549359e-26 2.194969e-06 -5.0044869e-26 3.8105258e-41)
(2.0952729e-07 -4.4554603e-07 -1.3127852e-25 3.6099936e-06 2.059844e-25 4.0784891e-40)
(5.0206613e-07 -8.343865e-07 -3.3212633e-25 5.5508615e-06 4.2722932e-25 1.1549279e-39)
(1.0959953e-06 -1.45999e-06 2.3565702e-25 8.1320285e-06 -2.5243963e-25 2.7495701e-40)
(2.2305601e-06 -2.4250085e-06 1.0952821e-24 1.1483627e-05 -9.8810804e-25 2.9416581e-39)
(4.2970956e-06 -3.8633681e-06 3.7411384e-24 1.5751001e-05 -2.8656823e-24 1.766672e-38)
(7.9182217e-06 -5.9453264e-06 -7.6053049e-24 2.1093077e-05 4.9778142e-24 3.8765101e-38)
(1.4060051e-05 -8.8812401e-06 9.1776641e-24 2.7679215e-05 -5.1589676e-24 3.0708332e-38)
(2.4186895e-05 -1.2922669e-05 1.8840202e-24 3.5684169e-05 -9.1328192e-25 7.1716834e-40)
(4.0468084e-05 -1.8358989e-05 -1.4128147e-23 4.5280829e-05 5.9251411e-24 2.2852915e-38)
(6.6044885e-05 -2.5507392e-05 2.0668131e-24 5.6630597e-05 -7.5184683e-25 2.8042603e-40)
(0.00010536093 -3.469419e-05 -2.139189e-23 6.9871406e-05 6.7647443e-24 1.7499427e-38)
(0.00016455118 -4.6226135e-05 1.0284974e-24 8.5103744e-05 -2.830745e-25 2.4080031e-41)
(0.00025187194 -6.0352225e-05 -3.0441297e-25 0.00010237529 7.3116088e-26 1.1965883e-42)
(0.0003781392 -7.7219739e-05 -2.7034355e-23 0.00012166506 5.6592214e-24 5.9658945e-39)
(0.00055712931 -9.6832477e-05 4.4378036e-23 0.00014286782 -8.1094624e-24 9.9030093e-39)
(0.00080589146 -0.00011902357 -2.686003e-23 0.00016577955 4.2861675e-24 2.2612242e-39)
(0.0011449344 -0.00014345681 6.3292511e-24 0.00019008439 -8.830876e-25 8.0832872e-41)
(0.001598347 -0.00016967085 5.755142e-23 0.000215344 -7.0065366e-24 4.2926654e-39)
(0.0021941213 -0.00019717327 -6.9780709e-23 0.0002409924 7.4198296e-24 4.1621439e-39)
(0.0029639683 -0.00022550962 -1.3337123e-22 0.00026634462 1.2372988e-23 1.0265593e-38)
(0.0039435093 -0.00025424353 1.2702123e-22 0.00029062354 -1.0278096e-23 6.4452107e-39)
(0.0051749021 -0.0002832212 7.3413242e-22 0.00031298501 -5.1701502e-23 1.5115622e-37)
(0.0067086525 -0.00031229306 1.0119013e-22 0.00033257922 -6.1843661e-24 2.0420107e-39)
(0.0086032339 -0.00034106407 -1.0219952e-21 0.00034864356 5.4119146e-23 1.5358105e-37)
(0.010927037 -0.00036936273 -2.752948e-22 0.00036063359 1.2570429e-23 8.2199216e-39)
(0.013761336 -0.00039694573 -1.1214584e-21 0.00036837981 4.3981486e-23 1.0286578e-37)
(0.017200859 -0.0004232669 1.6768222e-21 0.00037222386 -5.620805e-23 1.7580979e-37)
(0.021354513 -0.00044757782 -4.9607329e-22 0.00037301761 1.4121298e-23 1.1815618e-38)
(0.026345143 -0.00046889802 -2.6656159e-22 0.00037189897 6.4078222e-24 2.6797032e-39)
(0.032307947 -0.00048597351 -2.9541939e-21 0.00036995745 5.9283954e-23 2.5801133e-37)
(0.039387188 -0.00049720423 1.4468465e-21 0.00036802415 -2.4018021e-23 4.9645417e-38)
(0.047730357 -0.00050055768 -2.4355256e-21 0.00036667351 3.2908273e-23 1.1283326e-37)
(0.057478445 -0.00049348925 -1.829193e-21 0.00036635398 1.9720886e-23 5.1780291e-38)
(0.06875058 -0.00047286839 -9.2561482e-22 0.00036755572 7.7358467e-24 1.0878353e-38)
(0.081621685 -0.00043497838 3.069767e-21 0.00037094961 -1.9083453e-23 1.0006022e-37)
(0.096092946 -0.00037571742 6.3246618e-21 0.00037748847 -2.7262385e-23 3.5635023e-37)
(0.11205527 -0.00029096961 6.219832e-21 0.00038845538 -1.6248988e-23 2.9283288e-37)
(0.12925023 -0.00017739171 2.9210727e-21 0.00040547686 -3.1800616e-24 5.5584753e-38)
(0.14724791 -3.3132191e-05 -1.5256759e-20 0.0004305903 -4.2899627e-24 1.3081348e-36)
(0.16542722 0.00014046109 -1.1860047e-20 0.00046638878 -1.8172743e-23 6.9334021e-37)
(0.18301562 0.00033536356 3.0721907e-21 0.00051632315 8.2449523e-24 4.1414634e-38)
(0.19923359 0.00054299287 -2.1876435e-20 0.00058526359 -8.2211925e-23 1.8890114e-36)
(0.21318938 0.00075338731 -7.7209451e-21 0.00068015988 -3.6840788e-23 2.1465283e-37)
(0.22408076 0.00095547838 8.1077126e-21 0.00081101486 4.6600519e-23 2.1919573e-37)
(0.23139191 0.0011374844 2.0297017e-20 0.00099274239 1.3586415e-22 1.2906289e-36)
(0.23478261 0.0012905445 -1.2677543e-20 0.0012481447 -9.6573935e-23 4.8056029e-37)
(0.23406365 0.0014165129 -8.0546566e-21 0.0016126579 -6.8659537e-23 1.8796727e-37)
(0.22933989 0.0015410025 2.0997063e-20 0.0021379286 1.9888576e-22 1.2542638e-36)
(0.22105726 0.0016780997 9.8466197e-21 0.0028974479 1.0255695e-22 2.7495126e-37)
(0.21008193 0.0018239986 6.9102901e-21 0.0039848251 7.8014692e-23 1.3713529e-37)
(0.19772463 0.0019741972 -5.3330914e-21 0.0055078821 -6.3844903e-23 8.3195925e-38)
(0.18549891 0.0020998614 1.3945484e-20 0.0075501081 1.6986389e-22 5.9563915e-37)
(0.17463121 0.0021331744 1.1265923e-20 0.010198383 1.3073221e-22 4.0930523e-37)
(0.16600289 0.0020572538 2.7018557e-21 0.013680002 2.6413782e-23 2.5341364e-38)
(0.15947839 0.0019989522 -6.6302051e-21 0.018672784 -4.3854214e-23 1.6648325e-37)
(0.15427398 0.0022230739 -4.8320942e-21 0.026234289 -1.648637e-23 1.0111487e-37)
(0.14955747 0.0022645901 -1.6428355e-20 0.035130405 -6.0975747e-23 1.3754252e-36)
(0.14163338 0.0013671084 -2.1602576e-21 0.041151824 -1.7142718e-23 2.9464915e-38)
(0.13226508 -0.00020806455 1.6145881e-20 0.042400772 2.3956074e-22 2.0803107e-36)
(0.11541096 -0.001266307 -1.0644395e-20 0.041244657 -2.697705e-22 1.2429512e-36)
(3.5120949e-10 -8.2195312e-09 1.1152882e-27 1.92403e-07 -2.0925866e-26 5.005281e-42)
(5.5730643e-09 -1.0036797e-07 -3.3438362e-25 1.8177431e-06 4.999001e-24 6.359642e-38)
(2.4970737e-08 -3.6742627e-07 5.5570605e-25 5.4771053e-06 -6.713423e-24 5.0341327e-38)
(7.7632181e-08 -9.4273276e-07 -2.4732494e-25 1.1690519e-05 2.4720988e-24 3.7395137e-39)
(1.9820916e-07 -2.0138149e-06 -7.8043781e-25 2.105467e-05 6.5864132e-24 1.59483e-38)
(4.4833227e-07 -3.848338e-06 2.1856202e-24 3.4239211e-05 -1.5813843e-23 5.8185515e-38)
(9.3329836e-07 -6.8178603e-06 -3.2443943e-24 5.197686e-05 2.0308568e-23 6.316695e-38)
(1.8273649e-06 -1.1426234e-05 3.9811914e-25 7.504381e-05 -2.1683052e-24 4.8869869e-40)
(3.4117134e-06 -1.8342924e-05 -1.7047756e-24 0.0001042276 8.110382e-24 4.7564714e-39)
(6.1299821e-06 -2.8438646e-05 -3.9484223e-26 0.00014027949 1.6476171e-25 1.356483e-42)
(1.0667775e-05 -4.2820091e-05 -1.0317263e-23 0.00018384859 3.7759037e-23 5.2806676e-38)
(1.8063926e-05 -6.2858447e-05 2.1751992e-23 0.00023539659 -7.003508e-23 1.3295107e-37)
(2.9862331e-05 -9.0203813e-05 2.3664644e-24 0.0002950948 -6.7133671e-24 9.0373827e-40)
(4.8313155e-05 -0.00012677469 -3.0546251e-23 0.00036270902 7.6440426e-23 8.7636176e-38)
(7.6630658e-05 -0.00017470959 1.2185055e-23 0.00043748456 -2.6919688e-23 8.2172869e-39)
(0.00011931056 -0.00023626743 9.99453e-24 0.00051805097 -1.9503969e-23 3.2884167e-39)
(0.00018250204 -0.00031366688 -8.1403901e-23 0.00060237388 1.4035097e-22 1.3103846e-37)
(0.00027441806 -0.00040886441 3.3793434e-22 0.00068778744 -5.1479403e-22 1.3738018e-36)
(0.00040575361 -0.0005232888 -2.6771092e-22 0.00077113857 3.602876e-22 5.3057776e-37)
(0.00059006996 -0.00065757572 4.0275797e-22 0.00084906175 -4.787575e-22 7.4812045e-37)
(0.00084409906 -0.00081137478 -7.4030675e-22 0.00091837364 7.7712943e-22 1.5992999e-36)
(0.0011879347 -0.00098332027 2.2370518e-22 0.00097653281 -2.0734959e-22 9.3914446e-38)
(0.0016451662 -0.0011712674 1.1241111e-22 0.0010220617 -9.1990826e-23 1.5542019e-38)
(0.0022432154 -0.001372867 -4.4467282e-22 0.0010548017 3.2112718e-22 1.6159483e-37)
(0.0030132746 -0.0015861467 1.9107815e-21 0.0010759046 -1.21795e-21 2.0321236e-36)
(0.0039903255 -0.001809947 3.3868135e-22 0.0010874238 -1.9033942e-22 4.3971692e-38)
(0.0052157641 -0.0020444395 -2.0501503e-21 0.0010913401 1.0169509e-21 1.1496121e-36)
(0.0067394432 -0.0022908358 2.6762332e-21 0.0010892896 -1.1694423e-21 1.409602e-36)
(0.0086189073 -0.0025503537 -4.223488e-22 0.0010826819 1.626031e-22 2.6093435e-38)
(0.010921401 -0.0028246221 -4.7814328e-21 0.0010724163 1.6134409e-21 2.4529286e-36)
(0.013726782 -0.0031151721 5.6413391e-22 0.0010589575 -1.6688124e-22 2.5998629e-38)
(0.017128028 -0.0034226118 4.9447152e-21 0.001042667 -1.27658e-21 1.508515e-36)
(0.021231851 -0.0037463606 1.4608818e-22 0.0010239913 -3.2648116e-23 9.4827003e-40)
(0.026158364 -0.004084287 -4.7183597e-21 0.0010034192 9.2442034e-22 8.2920152e-37)
(0.032039363 -0.0044323697 5.9169906e-21 0.0009812941 -1.0074578e-21 1.0316407e-36)
(0.039014884 -0.0047842479 -2.9877452e-21 0.00095769025 4.4126346e-22 2.0951896e-37)
(0.047227122 -0.0051305151 3.9049471e-21 0.00093243829 -4.9979449e-22 2.9125805e-37)
(0.056810421 -0.0054577387 1.38147e-20 0.00090526651 -1.5277412e-21 2.9590351e-36)
(0.067875683 -0.0057473553 3.4279851e-21 0.00087602283 -3.2670512e-22 1.4918125e-37)
(0.080487733 -0.0059748301 1.4700972e-20 0.00084496401 -1.2038354e-21 2.2898065e-36)
(0.094635478 -0.0061095837 -2.0524987e-20 0.00081311801 1.4376495e-21 3.7691451e-36)
(0.11019536 -0.0061164373 -2.0549628e-20 0.00078272074 1.2236303e-21 3.1973991e-36)
(0.12689267 -0.0059593138 -3.8202405e-21 0.00075769214 1.9194242e-22 9.3599686e-38)
(0.14427637 -0.0056075765 3.2435019e-20 0.0007440621 -1.3562939e-21 5.9685374e-36)
(0.1617015 -0.0050456701 -1.6398817e-20 0.00075019702 5.6292808e-22 1.3286867e-36)
(0.17838877 -0.0042861446 -6.0140571e-21 0.00078631858 1.6606447e-22 1.5842583e-37)
(0.19348814 -0.0033597761 3.3446924e-21 0.00086218197 -7.1985055e-23 4.5051554e-38)
(0.20615826 -0.0023096943 1.0906523e-20 0.00098440474 -1.7441707e-22 4.3321455e-37)
(0.21567047 -0.0012083036 -5.498626e-21 0.0011582013 6.0849801e-23 1.0229139e-37)
(0.22148534 -0.00012176938 1.0211592e-20 0.0013917793 -6.6468585e-23 3.3119428e-37)
(0.22330647 0.00090815048 6.2355124e-20 0.0017022034 -1.4895828e-22 1.1818686e-35)
(0.22106779 0.001847019 2.9942512e-21 0.0021234615 4.4166384e-24 2.6547022e-38)
(0.21500547 0.0026614673 -1.3491912e-20 0.0027092554 -6.618434e-23 5.3008376e-37)
(0.20571405 0.0033107523 2.9778083e-20 0.0035359314 2.4504206e-22 2.5806434e-36)
(0.19427125 0.0037500172 -2.5039514e-20 0.0046994502 -2.8344343e-22 1.8500377e-36)
(0.18204542 0.0039563214 6.9477608e-20 0.0063074494 9.7825133e-22 1.4645177e-35)
(0.17062946 0.0039258286 1.9264227e-20 0.0084379011 3.1879055e-22 1.1721847e-36)
(0.16127989 0.0036284123 -5.2258107e-20 0.011147674 -9.5361104e-22 9.1511724e-36)
(0.1547405 0.0030915987 8.5108731e-21 0.014614607 1.6960741e-22 2.6025389e-37)
(0.1506434 0.0022790979 9.1726941e-21 0.019442275 1.8953833e-22 3.350943e-37)
(0.14774816 0.0011421611 1.7087798e-21 0.026659146 3.9069393e-23 1.3377012e-38)
(0.14525211 -0.00017544658 -2.0790359e-20 0.035272343 -6.1609185e-22 2.3493449e-36)
(0.1390508 -0.0018016178 3.6112497e-20 0.041169002 1.4121415e-21 8.901702e-36)
(0.13113841 -0.003374396 9.5428456e-21 0.042136188 5.0004362e-22 7.9751331e-37)
(0.11460599 -0.0041633913 1.3404007e-20 0.04047493 9.5447039e-22 2.2022038e-36)
(2.9586646e-09 -4.2252239e-08 1.6062966e-25 6.0340435e-07 -2.1189399e-24 1.5213492e-38)
(3.3662901e-08 -4.3794408e-07 -2.307897e-25 5.6990924e-06 2.7836056e-24 5.8096809e-39)
(1.1950406e-07 -1.4317663e-06 -1.0210953e-25 1.7167578e-05 1.1179432e-24 4.1076596e-40)
(3.0302019e-07 -3.329172e-06 1.4385071e-25 3.6633973e-05 -1.4318736e-24 3.6913427e-40)
(6.5035193e-07 -6.541253e-06 -9.8628802e-25 6.5959911e-05 8.9502766e-24 8.6633393e-39)
(1.2657573e-06 -1.1628696e-05 -1.0109034e-25 0.00010723039 8.3835953e-25 4.7859791e-41)
(2.3107274e-06 -1.9342317e-05 -1.7383192e-24 0.00016272023 1.3170794e-23 7.8077155e-39)
(4.0316375e-06 -3.0670201e-05 -2.4901046e-24 0.0002348298 1.7223193e-23 9.0535924e-39)
(6.8000503e-06 -4.6893023e-05 2.6745818e-23 0.00032597897 -1.6860526e-22 6.0393677e-37)
(1.1169437e-05 -6.9640986e-05 -3.1135226e-23 0.00043845074 1.785914e-22 4.8061349e-37)
(1.7954173e-05 -0.00010094811 1.9297987e-23 0.00057417505 -1.0054589e-22 1.0982502e-37)
(2.8337454e-05 -0.00014329469 3.6438613e-23 0.00073444936 -1.7216154e-22 2.3513104e-37)
(4.4015441e-05 -0.00019962436 -9.2666073e-23 0.00091960045 3.9636232e-22 9.2140051e-37)
(6.7384841e-05 -0.00027331757 -1.4663979e-23 0.0011286055 5.6693253e-23 1.4055113e-38)
(0.00010177977 -0.00036810046 7.2001861e-23 0.001358711 -2.5118693e-22 2.0836539e-37)
(0.00015175991 -0.00048786746 6.2758357e-23 0.0016051146 -1.9724001e-22 9.7768525e-38)
(0.00022344554 -0.00063640178 -9.1856791e-23 0.0018608024 2.5964131e-22 1.3030094e-37)
(0.00032488551 -0.00081699491 4.1778837e-22 0.0021166545 -1.0602983e-21 1.6886626e-36)
(0.00046643327 -0.0010319958 -3.0840185e-22 0.0023619292 7.0158635e-22 5.820868e-37)
(0.00066109697 -0.0012823649 1.8945855e-22 0.0025852014 -3.8570641e-22 1.400864e-37)
(0.00092482785 -0.0015673578 -7.8700249e-22 0.0027757324 1.431744e-21 1.5638683e-36)
(0.0012767221 -0.0018844958 -2.50272e-22 0.0029251034 4.0626827e-22 1.0360912e-37)
(0.0017391803 -0.0022299924 6.3242803e-22 0.0030287716 -9.1491976e-22 4.40686e-37)
(0.002338268 -0.0025997735 -1.1431605e-21 0.0030870894 1.4717776e-21 9.7369004e-37)
(0.00310392 -0.0029906409 -5.3651774e-22 0.0031053835 6.1376088e-22 1.4711866e-37)
(0.0040695537 -0.0034009308 7.5617579e-22 0.0030926391 -7.6856998e-22 2.0701837e-37)
(0.0052747852 -0.0038314136 5.0276804e-21 0.0030582188 -4.5284757e-21 6.5129651e-36)
(0.0067677767 -0.004284965 2.6429943e-21 0.0030101366 -2.1061364e-21 1.3035389e-36)
(0.0086037186 -0.0047644947 -1.5122328e-21 0.0029547974 1.0655407e-21 3.1854264e-37)
(0.010847135 -0.0052735017 1.8689184e-21 0.0028966075 -1.1584773e-21 3.5882821e-37)
(0.013574314 -0.00581531 -1.3196688e-21 0.0028377435 7.2067382e-22 1.3876213e-37)
(0.016873923 -0.006391657 -8.5512079e-21 0.002778753 4.0898431e-21 4.4115496e-36)
(0.020847253 -0.0070020481 3.2420099e-21 0.0027191779 -1.3573994e-21 4.9263676e-37)
(0.025607695 -0.0076430817 1.0936791e-20 0.0026579313 -4.0011651e-21 4.3887194e-36)
(0.031278719 -0.0083078226 -4.0797351e-21 0.0025934557 1.3040227e-21 4.9042202e-37)
(0.037990034 -0.0089849722 -6.4281281e-21 0.0025237898 1.78983e-21 9.6720066e-37)
(0.045871042 -0.0096575497 1.2439973e-20 0.0024466275 -3.0152196e-21 2.9282599e-36)
(0.05504019 -0.01030106 4.2371163e-21 0.0023594663 -8.9234435e-22 2.7545525e-37)
(0.06558875 -0.010881404 -8.2968639e-21 0.0022599488 1.5170574e-21 8.8169042e-37)
(0.077557672 -0.011353199 -3.654784e-21 0.0021465381 5.7860325e-22 1.4343125e-37)
(0.090907206 -0.011659519 1.9314234e-20 0.0020196143 -2.6372723e-21 3.3502844e-36)
(0.10548038 -0.011734456 -5.9147465e-21 0.0018830732 6.928625e-22 2.719663e-37)
(0.12096548 -0.011509798 -9.3115766e-21 0.0017461528 9.3190042e-22 5.7515173e-37)
(0.13686992 -0.010927522 -2.6843931e-20 0.0016250491 2.2739082e-21 4.1306074e-36)
(0.15251478 -0.0099592863 5.448981e-20 0.0015434642 -3.8592478e-21 1.5029549e-35)
(0.16710596 -0.0086296622 -3.7463884e-20 0.0015294979 2.186669e-21 6.3226623e-36)
(0.17980419 -0.00700759 -1.0000886e-20 0.0016052056 4.7333252e-22 4.028629e-37)
(0.18982526 -0.0051849558 -4.112659e-20 0.0017772243 1.5290413e-21 6.3149156e-36)
(0.19654449 -0.0032881887 -5.1024739e-20 0.0020414752 1.4394391e-21 9.0596038e-36)
(0.19958622 -0.0014418994 -2.6686067e-21 0.0023896488 5.5510334e-23 2.3242189e-38)
(0.19884703 0.00026419055 1.1492384e-20 0.0028252741 -1.4636738e-22 4.1438867e-37)
(0.19446981 0.0017652421 -8.4992723e-20 0.003380092 4.8181944e-22 2.2244479e-35)
(0.18689264 0.0029946011 -3.6216237e-20 0.0041136288 -1.7512224e-23 4.0016835e-36)
(0.17690582 0.0038648314 -3.6900093e-20 0.0051066738 -2.2837824e-22 4.1746367e-36)
(0.16574352 0.0043020398 -1.1935851e-20 0.0064511007 -1.4170717e-22 4.445631e-37)
(0.15486195 0.0042811407 -9.0009602e-20 0.0082411024 -1.484079e-21 2.619485e-35)
(0.14581971 0.0038508698 3.4701636e-20 0.010529493 7.4860877e-22 4.0737174e-36)
(0.1396613 0.0030746556 -1.0127647e-20 0.013316176 -2.5757459e-22 3.7214352e-37)
(0.13671622 0.0020575113 -7.9447207e-20 0.016708066 -2.4251987e-21 2.4760775e-35)
(0.13622576 0.00061692838 -2.976855e-20 0.021222666 -1.0958987e-21 3.8788503e-36)
(0.1365416 -0.0015817508 3.2714365e-20 0.027850953 1.4774314e-21 5.4710328e-36)
(0.1364043 -0.0039000473 1.0216942e-19 0.035545417 5.9033853e-21 6.4562752e-35)
(0.13137991 -0.0058601578 -2.8776619e-20 0.040716894 -2.1337706e-21 6.5831009e-36)
(0.12446796 -0.006971355 -4.0481114e-20 0.040980081 -3.8619082e-21 1.7100635e-35)
(0.10784069 -0.0070778229 -1.4411709e-20 0.038560744 -1.8135762e-21 3.1365828e-36)
(1.1674449e-08 -1.186929e-07 -1.0556387e-24 1.2067407e-06 1.0318288e-23 1.7061933e-37)
(1.2032032e-07 -1.1712735e-06 3.1286149e-24 1.140231e-05 -2.9252445e-23 3.0201942e-37)
(3.9337804e-07 -3.6763113e-06 -1.7955708e-24 3.4360688e-05 1.5962083e-23 3.9472781e-38)
(9.1780303e-07 -8.2042281e-06 2.7749134e-25 7.3354511e-05 -2.3427234e-24 4.6630334e-40)
(1.8168227e-06 -1.5491248e-05 -7.452986e-24 0.00013214077 5.9722573e-23 1.82156e-37)
(3.2680144e-06 -2.6494878e-05 1.0214896e-23 0.00021493961 -7.7627614e-23 1.9489219e-37)
(5.5253497e-06 -4.2445802e-05 -2.0181066e-23 0.00032637189 1.4517587e-22 4.4812292e-37)
(8.9494351e-06 -6.4905808e-05 1.2204427e-23 0.00047133501 -8.2886659e-23 9.9112696e-38)
(1.4049708e-05 -9.5832889e-05 5.9128579e-23 0.00065479611 -3.7801271e-22 1.4310687e-36)
(2.1541567e-05 -0.00013764613 -1.7981119e-23 0.00088148301 1.078651e-22 8.2626674e-38)
(3.2422555e-05 -0.00019328187 -8.6247816e-23 0.0011554555 4.8394918e-22 1.1964553e-36)
(4.8073623e-05 -0.00026623223 3.3017811e-23 0.0014795414 -1.7273483e-22 1.112691e-37)
(7.0390132e-05 -0.00036054618 2.7507522e-24 0.0018546448 -1.3372308e-23 4.957783e-40)
(0.00010194761 -0.00048077061 -1.3489565e-22 0.0022789609 6.0764408e-22 7.5705716e-37)
(0.00014620699 -0.0006318086 5.2545124e-22 0.0027471686 -2.1857873e-21 7.376252e-36)
(0.00020776027 -0.00081866874 -4.0076537e-22 0.0032497311 1.5346179e-21 2.7641023e-36)
(0.00029261222 -0.0010460871 -4.7357816e-24 0.003772488 1.6639532e-23 2.4912923e-40)
(0.00040848877 -0.0013180297 3.3943474e-22 0.0042967758 -1.0908468e-21 8.3215649e-37)
(0.0005651544 -0.0016371177 -1.0610071e-21 0.0048003238 3.1089183e-21 5.3095203e-36)
(0.00077471543 -0.0020040758 6.1340244e-22 0.0052591051 -1.6337471e-21 1.1680254e-36)
(0.0010518876 -0.0024173676 1.1146836e-21 0.0056501435 -2.6905729e-21 2.5608886e-36)
(0.0014142146 -0.0028732219 5.4696838e-22 0.0059549757 -1.1930102e-21 4.1318342e-37)
(0.0018822665 -0.003366256 -3.248827e-21 0.0061630921 6.3868473e-21 9.9376103e-36)
(0.0024800291 -0.0038908794 -2.0265119e-21 0.0062743814 3.5809055e-21 2.665341e-36)
(0.0032354455 -0.0044431075 1.5464041e-21 0.006299614 -2.4509255e-21 1.0932518e-36)
(0.0041796028 -0.0050211931 -1.0626237e-21 0.0062581393 1.5058242e-21 3.6551779e-37)
(0.0053494495 -0.0056270502 4.6308208e-21 0.006171492 -5.8583059e-21 5.050234e-36)
(0.0067903376 -0.0062655751 -1.5415773e-21 0.0060579773 1.7358035e-21 4.1088375e-37)
(0.008553904 -0.0069415603 4.7808064e-21 0.0059318798 -4.779929e-21 2.951935e-36)
(0.010700508 -0.007660519 -3.0914414e-21 0.0058034835 2.7370837e-21 9.3548991e-37)
(0.013300856 -0.0084275196 2.1873323e-21 0.0056780451 -1.7090026e-21 3.5627081e-37)
(0.016436977 -0.0092453621 -9.0923777e-21 0.0055566387 6.2604926e-21 4.7876112e-36)
(0.020201807 -0.010113474 1.4733124e-21 0.0054374892 -8.9221211e-22 9.8994302e-38)
(0.024698439 -0.011026963 -8.7992961e-21 0.0053170019 4.6728807e-21 2.7681576e-36)
(0.030037667 -0.011975713 9.4561938e-21 0.0051905029 -4.4011109e-21 2.5582661e-36)
(0.036333606 -0.012943219 3.4128758e-21 0.0050526263 -1.3888951e-21 2.6452049e-37)
(0.043696556 -0.013904698 -4.7122888e-20 0.0048974339 1.6775826e-20 4.1722889e-35)
(0.052221634 -0.014824429 -1.3683955e-20 0.0047185633 4.2513963e-21 2.8804441e-36)
(0.061971822 -0.015652815 1.2515384e-20 0.0045097841 -3.3884749e-21 2.0094537e-36)
(0.072954438 -0.016324059 -1.3530597e-20 0.0042662991 3.1849558e-21 1.9689374e-36)
(0.085091024 -0.016755944 3.834375e-21 0.0039870927 -7.8174913e-22 1.3218472e-37)
(0.098182224 -0.016853811 2.5987087e-20 0.0036784904 -4.5782778e-21 5.2572036e-36)
(0.11187349 -0.016520962 -1.2951543e-21 0.0033584256 1.9629633e-22 1.1492307e-38)
(0.12563272 -0.015678584 -1.0210045e-20 0.0030602964 1.3154454e-21 6.0595836e-37)
(0.13877122 -0.014298426 5.2556937e-21 0.0028340506 -5.6561574e-22 1.4545519e-37)
(0.15053724 -0.012432767 -2.9191722e-21 0.0027366264 2.6406475e-22 3.6583951e-38)
(0.16016399 -0.010196861 -8.608628e-21 0.0028081834 6.3655551e-22 3.0687586e-37)
(0.16700758 -0.0077477509 1.3716828e-19 0.0030544976 -8.1433193e-21 7.3149656e-35)
(0.1706522 -0.0052764433 -1.5881423e-20 0.0034521089 7.2129986e-22 9.163471e-37)
(0.17095363 -0.0029481358 1.5019328e-20 0.0039630892 -5.1264286e-22 7.80385e-37)
(0.16801584 -0.00087342066 -1.432506e-19 0.0045702329 3.3540142e-21 6.8547022e-35)
(0.16216232 0.00086537143 7.8837764e-20 0.0053046889 -1.0886426e-21 2.0386423e-35)
(0.15399159 0.0021725331 6.4670121e-20 0.0062375309 -2.9510755e-22 1.3633704e-35)
(0.14443932 0.0029310828 6.0923383e-20 0.0074558081 2.2570442e-22 1.2239357e-35)
(0.13482083 0.0030633558 5.7445924e-20 0.0090425513 6.5797169e-22 1.1161271e-35)
(0.12656677 0.0025832385 8.7594502e-20 0.011064668 1.6491887e-21 2.7012508e-35)
(0.12098086 0.0016396232 -1.6901331e-19 0.013527676 -4.4682573e-21 1.0609475e-34)
(0.11868516 0.00039811484 9.9571472e-20 0.016355573 3.392891e-21 3.9559363e-35)
(0.11934863 -0.00092456078 1.429842e-19 0.019564616 6.0978745e-21 8.9835042e-35)
(0.12193185 -0.0027236189 -9.7888017e-20 0.023600605 -5.3710012e-21 4.7881308e-35)
(0.12432334 -0.0055160134 -2.8527355e-20 0.029339535 -1.9938999e-21 4.844703e-36)
(0.12504953 -0.0082742652 -2.2296908e-20 0.035642171 -1.9706833e-21 3.6732241e-36)
(0.11931253 -0.010119181 9.8249973e-20 0.039527769 1.145395e-20 9.5126234e-35)
(0.11154999 -0.010454417 6.1936028e-20 0.038805275 9.1254521e-21 5.1323302e-35)
(0.094001352 -0.0097147124 -2.1812304e-21 0.035606996 -3.960696e-22 9.9609618e-38)
(3.1301041e-08 -2.4549448e-07 1.2384551e-24 1.9254177e-06 -9.4938243e-24 8.4595306e-38)
(3.0980959e-07 -2.3749528e-06 -7.528812e-24 1.820617e-05 5.6274866e-23 6.5199246e-37)
(9.7713505e-07 -7.3241991e-06 9.528197e-24 5.4900558e-05 -6.9165111e-23 4.3324985e-37)
(2.1936612e-06 -1.6040035e-05 -5.0075865e-24 0.00011729118 3.5262405e-23 6.1858721e-38)
(4.1734214e-06 -2.9705933e-05 -2.405454e-24 0.00021146481 1.6416221e-23 8.0710935e-39)
(7.205057e-06 -4.9801912e-05 2.6864106e-23 0.00034429121 -1.7748063e-22 5.9743285e-37)
(1.1676377e-05 -7.8161187e-05 -8.679687e-24 0.00052333764 5.5407514e-23 3.831013e-38)
(1.8106247e-05 -0.00011702942 -2.3232156e-23 0.00075668747 1.4295522e-22 1.7263973e-37)
(2.7186931e-05 -0.00016912609 -2.2236582e-24 0.0010526293 1.3151993e-23 1.0157166e-39)
(3.9838912e-05 -0.00023769963 -2.3440773e-23 0.0014191807 1.3287208e-22 7.3243677e-38)
(5.7281038e-05 -0.00032656594 4.0512899e-23 0.0018634143 -2.1938446e-22 1.4347843e-37)
(8.1119718e-05 -0.00044011769 -3.4621767e-23 0.0023905581 1.7851445e-22 6.9221893e-38)
(0.00011346067 -0.00058328594 -1.5655357e-22 0.0030028767 7.6600062e-22 9.3829102e-37)
(0.00015704517 -0.00076142789 -5.5846051e-24 0.0036983721 2.5840859e-23 7.904028e-40)
(0.00021541492 -0.00098012058 1.791189e-22 0.0044694034 -7.8077788e-22 5.4539399e-37)
(0.00029310457 -0.0012448347 1.5492391e-22 0.0053014262 -6.3386431e-22 2.7259174e-37)
(0.00039586001 -0.0015604781 -1.6252935e-22 0.0061721476 6.2175917e-22 2.0085227e-37)
(0.00053087725 -0.0019308259 1.8869661e-23 0.0070514856 -6.7219289e-23 1.8385802e-39)
(0.00070705294 -0.0023578936 4.6707235e-22 0.0079027693 -1.5434479e-21 7.5286374e-37)
(0.00093523647 -0.0028413732 6.8789397e-22 0.0086855391 -2.0999043e-21 1.1069714e-36)
(0.0012284767 -0.0033783196 -9.4403976e-22 0.0093600455 2.6514183e-21 1.4254834e-36)
(0.0016022645 -0.0039633165 -1.1356466e-21 0.0098930586 2.9228434e-21 1.4237354e-36)
(0.0020747868 -0.0045893321 1.8151139e-21 0.010263955 -4.2642793e-21 2.5384469e-36)
(0.0026673481 -0.0052494436 -2.6507767e-21 0.010469445 5.6627493e-21 3.8223072e-36)
(0.0034051941 -0.0059392745 -5.3829227e-21 0.010525138 1.0417472e-20 1.1272854e-35)
(0.0043166525 -0.0066577077 1.4736108e-20 0.010462764 -2.5748939e-20 6.1465784e-35)
(0.0054352471 -0.0074085432 -9.3600151e-21 0.010320829 1.4716971e-20 1.8287862e-35)
(0.0068022525 -0.0081988847 1.5909829e-20 0.01013163 -2.2433762e-20 3.9444495e-35)
(0.0084651082 -0.0090360134 -2.2662015e-20 0.0099204435 2.8564977e-20 6.0616125e-35)
(0.010478775 -0.0099276674 2.8713202e-20 0.0097061393 -3.2243191e-20 7.4534146e-35)
(0.012906673 -0.010880546 -3.3547596e-20 0.0094988237 3.3459438e-20 7.8857404e-35)
(0.015822251 -0.011898443 6.3451191e-21 0.0093007463 -5.6068182e-21 2.217982e-36)
(0.019307701 -0.0129805 2.465501e-20 0.0091085772 -1.9243694e-20 2.6350233e-35)
(0.023452931 -0.014120075 -1.5559241e-20 0.0089153432 1.0708699e-20 8.3777856e-36)
(0.028352692 -0.015303605 5.4241347e-21 0.0087120029 -3.2862996e-21 8.2151378e-37)
(0.034101709 -0.016509142 1.748259e-21 0.0084883244 -9.3174597e-22 7.038878e-38)
(0.040786877 -0.017703968 2.4110086e-20 0.008233129 -1.1269836e-20 1.0784279e-35)
(0.048475389 -0.018841261 8.7098387e-21 0.007934469 -3.5688619e-21 1.1565473e-36)
(0.057197597 -0.019856513 9.7005139e-21 0.0075804864 -3.4765195e-21 1.1895517e-36)
(0.066923795 -0.020664855 1.0444684e-20 0.0071616056 -3.269766e-21 1.1775988e-36)
(0.077535554 -0.021161281 -5.8018128e-20 0.0066746835 1.5805978e-20 3.0957898e-35)
(0.08879421 -0.021226647 2.7614747e-20 0.0061294763 -6.5203061e-21 6.0320614e-36)
(0.10031287 -0.020743007 4.8172063e-21 0.0055566324 -9.8328638e-22 1.5422706e-37)
(0.11154675 -0.019623757 -5.8642786e-20 0.005015248 1.0213509e-20 2.0713728e-35)
(0.12184927 -0.01786087 -3.1673822e-20 0.0045935633 4.6833569e-21 5.3525118e-36)
(0.1305675 -0.01555329 1.6359539e-20 0.004387094 -2.03543e-21 1.2985574e-36)
(0.13709983 -0.012872402 6.2478135e-20 0.0044540539 -6.3930235e-21 1.7173237e-35)
(0.14101604 -0.010039424 -2.8103411e-20 0.0047933879 2.3488606e-21 3.2463747e-36)
(0.14212414 -0.007287074 8.4721171e-20 0.0053490002 -5.4964606e-21 2.7615744e-35)
(0.14045944 -0.0047956644 4.6966103e-20 0.0060409987 -2.3117121e-21 8.1155327e-36)
(0.13626725 -0.0026739653 6.5462345e-20 0.0068282921 -2.3286708e-21 1.5328746e-35)
(0.1299839 -0.0010082983 1.7631095e-19 0.0077485279 -3.862248e-21 1.0946668e-34)
(0.12230637 8.2963813e-05 -1.3528936e-19 0.0088927684 1.3644e-21 6.4634668e-35)
(0.11425587 0.00046228882 4.3534389e-20 0.010354522 1.131836e-22 6.7788856e-36)
(0.10714617 7.4333822e-05 -7.2871296e-20 0.012198595 -8.4505318e-22 1.9699613e-35)
(0.10224427 -0.00098314807 -6.7044368e-20 0.014449332 -1.4982144e-21 1.7478861e-35)
(0.10041982 -0.002429125 -2.5154146e-20 0.017054424 -8.4577931e-22 2.6292417e-36)
(0.10170675 -0.0039472245 -2.1779088e-19 0.01983339 -9.42293e-21 2.1443255e-34)
(0.10503958 -0.0053034741 -5.49348e-20 0.022697383 -3.1016673e-21 1.5291655e-35)
(0.10933434 -0.0071774041 1.1574343e-19 0.026083131 8.7063751e-21 7.9102383e-35)
(0.11196836 -0.010096221 3.9252017e-20 0.030642814 3.9329313e-21 1.1234665e-35)
(0.11161409 -0.012675287 -2.5838805e-20 0.035155175 -3.3064785e-21 6.2577138e-36)
(0.10365185 -0.013968835 -4.5358873e-20 0.03742778 -7.5296985e-21 2.6744137e-35)
(0.093618229 -0.01333256 -5.914944e-20 0.035650299 -1.2643334e-20 6.4832356e-35)
(0.075507014 -0.011791023 3.5480491e-21 0.031816929 9.518573e-22 3.7699177e-37)
(6.5946375e-08 -4.1884441e-07 5.670057e-24 2.6602021e-06 -3.5478179e-23 7.8536021e-37)
(6.3994516e-07 -4.0141131e-06 3.6322041e-24 2.517896e-05 -2.2381783e-23 6.8403753e-38)
(1.982027e-06 -1.2272913e-05 -4.5050981e-24 7.5995878e-05 2.7263915e-23 4.4841058e-38)
(4.3614656e-06 -2.6623772e-05 -2.2839761e-23 0.00016252353 1.3565335e-22 6.112527e-37)
(8.1231975e-06 -4.8813968e-05 1.6431926e-23 0.00029334501 -9.5710479e-23 1.8344889e-37)
(1.3709859e-05 -8.0967517e-05 -3.0326231e-23 0.00047820864 1.7306673e-22 3.7993744e-37)
(2.168769e-05 -0.00012564109 1.654338e-23 0.0007279376 -9.2364314e-23 7.110703e-38)
(3.2777925e-05 -0.0001858757 4.9050634e-24 0.0010542119 -2.6741298e-23 4.0321541e-39)
(4.7896388e-05 -0.00026524257 -3.4220774e-23 0.0014691756 1.8176742e-22 1.2911952e-37)
(6.8201867e-05 -0.00036787212 -9.026525e-23 0.0019848158 4.6597911e-22 5.9938615e-37)
(9.5155171e-05 -0.0004984552 -5.5324975e-24 0.0026120608 2.7687524e-23 1.5091613e-39)
(0.00013059025 -0.00066220037 2.1918878e-22 0.0033595539 -1.0600957e-21 1.6177944e-36)
(0.00017679914 -0.00086472879 -3.6693846e-22 0.0042320848 1.7100806e-21 3.0933748e-36)
(0.000236632 -0.0011118851 7.1548443e-22 0.0052287173 -3.2025898e-21 8.0563021e-36)
(0.00031361336 -0.0014094437 -2.2548754e-22 0.0063407338 9.6604276e-22 5.4943696e-37)
(0.00041207508 -0.0017626972 5.7710848e-22 0.0075496412 -2.3577819e-21 2.4754766e-36)
(0.0005373064 -0.0021759284 -8.389434e-22 0.0088256409 3.2556371e-21 3.6095856e-36)
(0.00069572073 -0.0026517974 6.5409005e-22 0.01012712 -2.4010297e-21 1.5174588e-36)
(0.00089504031 -0.0031907239 -1.2368516e-22 0.011401831 4.2759486e-22 3.772466e-38)
(0.0011445014 -0.0037903989 -5.9917031e-22 0.012590384 1.9420955e-21 6.1724928e-37)
(0.0014550877 -0.0044456296 1.7326505e-21 0.013632369 -5.2410484e-21 3.6227204e-36)
(0.0018398063 -0.0051487504 -2.8948254e-21 0.014474763 8.133374e-21 7.1606401e-36)
(0.0023140227 -0.0058907974 3.7063064e-21 0.015081325 -9.626869e-21 8.3905983e-36)