/*--------------------------------*- C++ -*----------------------------------*\
  =========                 |
  \\      /  F ield         | OpenFOAM: The Open Source CFD Toolbox
   \\    /   O peration     | Website:  https://openfoam.org
    \\  /    A nd           | Version:  13
     \\/     M anipulation  |
\*---------------------------------------------------------------------------*/
FoamFile
{
    format      ascii;
    class       volScalarField;
    location    "48.596789";
    object      yPlus;
}
// * * * * * * * * * * * * * * * * * * * * * * * * * * * * * * * * * * * * * //

dimensions      [];

internalField   uniform 0;

boundaryField
{
    inlet
    {
        type            calculated;
        value           uniform 0;
    }
    outlet
    {
        type            calculated;
        value           uniform 0;
    }
    cylinder
    {
        type            calculated;
        value           nonuniform List<scalar> 
132
(
1.8069909e-07
1.8156567e-07
1.8179137e-07
1.8128641e-07
1.7998024e-07
1.7783806e-07
1.7483815e-07
1.7097215e-07
1.6624736e-07
1.6068888e-07
1.5434165e-07
1.4727165e-07
1.395664e-07
1.313346e-07
1.2270325e-07
1.1381739e-07
1.0483667e-07
9.5929022e-08
8.7262702e-08
7.89986e-08
7.1276254e-08
6.4192873e-08
5.7775728e-08
5.1952249e-08
4.6530067e-08
4.1216327e-08
3.5704407e-08
2.9815238e-08
2.3628824e-08
1.7514024e-08
1.2030308e-08
7.74476e-09
5.103363e-09
4.3255176e-09
4.8222319e-09
5.8958703e-09
7.3278513e-09
9.1169282e-09
1.12979e-08
1.3922542e-08
1.7101063e-08
2.0929073e-08
2.5070984e-08
2.9458992e-08
3.3967181e-08
3.8496331e-08
4.295483e-08
4.7270178e-08
5.140457e-08
5.5323464e-08
5.9011799e-08
6.2460466e-08
6.5661423e-08
6.8605895e-08
7.1336746e-08
7.3820676e-08
7.6056132e-08
7.8075379e-08
7.986468e-08
8.1436959e-08
8.2770393e-08
8.3883026e-08
8.476898e-08
8.5440839e-08
8.5898998e-08
8.6133499e-08
1.7913607e-07
1.7686133e-07
1.7392229e-07
1.7031701e-07
1.6606955e-07
1.6121084e-07
1.557967e-07
1.4988193e-07
1.4352373e-07
1.3679318e-07
1.2977007e-07
1.2254038e-07
1.151943e-07
1.0782451e-07
1.0052401e-07
9.3384059e-08
8.6492265e-08
7.992983e-08
7.3767338e-08
6.8055764e-08
6.2815582e-08
5.8020221e-08
5.35776e-08
4.9314842e-08
4.4984489e-08
4.0309946e-08
3.507342e-08
2.9241474e-08
2.3047296e-08
1.6961502e-08
1.1570932e-08
7.4251825e-09
4.9469403e-09
4.3163356e-09
4.885022e-09
6.000091e-09
7.4721679e-09
9.3071073e-09
1.1541414e-08
1.4226497e-08
1.7468776e-08
2.1361324e-08
2.5556329e-08
2.9983127e-08
3.4518951e-08
3.9059227e-08
4.3514054e-08
4.7821257e-08
5.1937211e-08
5.5835911e-08
5.9496968e-08
6.2921266e-08
6.609075e-08
6.8996186e-08
7.171578e-08
7.4156518e-08
7.6371752e-08
7.8350118e-08
8.0114734e-08
8.1652847e-08
8.2950982e-08
8.4031271e-08
8.4883595e-08
8.5521422e-08
8.5936225e-08
8.6138659e-08
)
;
    }
    frontAndBack
    {
        type            empty;
    }
}


// ************************************************************************* //
