/*--------------------------------*- C++ -*----------------------------------*\
  =========                 |
  \\      /  F ield         | OpenFOAM: The Open Source CFD Toolbox
   \\    /   O peration     | Website:  https://openfoam.org
    \\  /    A nd           | Version:  13
     \\/     M anipulation  |
\*---------------------------------------------------------------------------*/
FoamFile
{
    format      ascii;
    class       volVectorField;
    location    "39.39836";
    object      wallShearStress;
}
// * * * * * * * * * * * * * * * * * * * * * * * * * * * * * * * * * * * * * //

dimensions      [0 2 -2 0 0 0 0];

internalField   uniform (0 0 0);

boundaryField
{
    inlet
    {
        type            calculated;
        value           uniform (0 0 0);
    }
    outlet
    {
        type            calculated;
        value           uniform (0 0 0);
    }
    cylinder
    {
        type            calculated;
        value           nonuniform List<vector> 
132
(
(1.5250703e-05 -0.00087846152 -2.7310562e-22)
(4.9375567e-05 -0.0011329947 7.7637567e-23)
(9.7944757e-05 -0.0013786202 4.2771393e-21)
(0.00015994065 -0.0016109566 -1.4314776e-20)
(0.00023423245 -0.0018257507 1.0075192e-20)
(0.00031920991 -0.0020188747 3.0690009e-20)
(0.00041280879 -0.0021865107 -5.7961446e-21)
(0.00051255752 -0.0023253249 -2.2887345e-20)
(0.00061561806 -0.00243257 2.15018e-20)
(0.00071892833 -0.0025063723 -4.8055436e-20)
(0.00081934719 -0.0025456291 -8.7182535e-22)
(0.0009138049 -0.0025505048 2.9676582e-20)
(0.00099936005 -0.0025219917 4.8268465e-20)
(0.0010736489 -0.0024626603 -3.9110978e-20)
(0.0011347466 -0.0023757592 4.1092299e-20)
(0.0011817524 -0.002266063 6.6011248e-20)
(0.0012147204 -0.0021391308 -4.3183517e-20)
(0.0012349242 -0.0020013286 6.9172986e-20)
(0.0012452705 -0.0018600099 9.1352305e-20)
(0.0012498106 -0.0017222494 -5.9200568e-20)
(0.0012547148 -0.0015958906 -7.5397778e-20)
(0.0012675775 -0.0014880841 2.6535227e-23)
(0.001298638 -0.0014063931 1.0926811e-20)
(0.001359719 -0.0013570204 -1.3079046e-20)
(0.0014650827 -0.0013453947 -2.224652e-20)
(0.0016283598 -0.0013730738 4.7573592e-21)
(0.0018595913 -0.0014360134 -4.2947293e-20)
(0.0021615419 -0.0015234136 1.1471815e-20)
(0.002524792 -0.0016169211 9.0046052e-21)
(0.0029251944 -0.001692703 -6.1980433e-20)
(0.0033289976 -0.0017280231 8.0814003e-20)
(0.0037023343 -0.0017078387 2.4434748e-21)
(0.0040193441 -0.001627686 1.7592799e-20)
(0.0042380501 -0.0014827864 -2.0818679e-20)
(0.0042725861 -0.0012639562 6.6057974e-20)
(0.003984128 -0.00096693499 -4.1721629e-21)
(0.0032016165 -0.00061042288 1.6809001e-20)
(0.0017055761 -0.00024281729 -2.3057667e-21)
(-0.00071164045 3.6697355e-05 3.3061403e-21)
(-0.0042810274 8.6464526e-05 -2.0615936e-21)
(-0.0093553008 -0.00031711596 3.8507086e-21)
(-0.01588452 -0.0014802594 -1.1883515e-22)
(-0.023321796 -0.0035916301 4.3611398e-20)
(-0.031212602 -0.0067454188 -1.6820922e-20)
(-0.038967103 -0.01090933 1.5191782e-20)
(-0.046099444 -0.01595562 -9.7686321e-20)
(-0.052171557 -0.021657292 -1.5772926e-20)
(-0.056914242 -0.02775382 1.3869757e-19)
(-0.060142384 -0.033956335 -1.1854302e-19)
(-0.061816923 -0.039996285 -2.2705128e-21)
(-0.061942345 -0.045598649 3.6391417e-20)
(-0.060657967 -0.050564061 -3.3432706e-20)
(-0.058058045 -0.054654458 -6.6559064e-21)
(-0.054344918 -0.057723701 -4.3765514e-21)
(-0.049756186 -0.059683937 -7.5435292e-21)
(-0.044464024 -0.060397 -1.5869514e-21)
(-0.038722874 -0.059846574 5.3913658e-22)
(-0.03275027 -0.058006653 4.6167433e-20)
(-0.02677167 -0.054903942 -7.2064589e-20)
(-0.020999259 -0.050593941 -7.777115e-20)
(-0.015630812 -0.045164061 -3.1786695e-20)
(-0.010845122 -0.038730536 -7.3206307e-20)
(-0.006798156 -0.031435439 1.6385842e-20)
(-0.0036174965 -0.023441745 2.3897724e-20)
(-0.0014068907 -0.014946669 -3.720509e-20)
(-0.00022201893 -0.0061010653 -4.9763207e-21)
(-4.9440552e-06 -0.00061697432 -1.2578298e-21)
(-1.0436219e-05 -0.00034762209 -7.4984166e-23)
(-1.5011698e-06 -7.2083948e-05 -4.3061117e-21)
(2.3537562e-05 0.00020587533 1.4438664e-20)
(6.4228619e-05 0.0004813985 -1.0189072e-20)
(0.00012074849 0.00074964993 -3.1120485e-20)
(0.00019184633 0.0010053938 5.8937849e-21)
(0.00027598586 0.0012435345 2.3339569e-20)
(0.00037101331 0.0014591179 -2.1991346e-20)
(0.00047421371 0.0016476375 4.9298207e-20)
(0.00058249888 0.001805184 8.9708833e-22)
(0.00069238475 0.0019287242 -3.0633698e-20)
(0.00080022798 0.0020163329 -4.9981896e-20)
(0.00090243697 0.0020673579 4.0626351e-20)
(0.00099576531 0.0020826449 -4.2816145e-20)
(0.0010775502 0.0020645021 -6.8987052e-20)
(0.001146132 0.0020169294 4.5260153e-20)
(0.0012010075 0.0019452418 -7.2697157e-20)
(0.0012432615 0.0018561449 -9.6249256e-20)
(0.0012757748 0.0017573938 6.2518787e-20)
(0.0013036962 0.0016577555 7.9788906e-20)
(0.0013343299 0.0015661917 7.1539968e-20)
(0.0013777235 0.001491942 5.883036e-20)
(0.0014457667 0.0014429437 1.3906358e-20)
(0.0015523158 0.0014256781 2.3679827e-20)
(0.0017101554 0.0014423343 -5.0684593e-21)
(0.0019278733 0.0014891147 4.578927e-20)
(0.002206773 0.0015557033 -1.2238103e-20)
(0.0025385058 0.0016260986 -9.6106776e-21)
(0.0029028728 0.0016801285 6.61784e-20)
(0.0032684214 0.0016968616 -8.6320472e-20)
(0.0036043854 0.0016629183 -2.5957722e-21)
(0.0038768711 0.0015703831 4.279066e-20)
(0.0040208283 0.0014074815 2.2271684e-20)
(0.0039350757 0.0011652745 -7.0710868e-20)
(0.0034692751 0.00084395253 4.4682904e-21)
(0.0024441121 0.00046972622 1.3131233e-20)
(0.00063232618 0.0001003958 2.4690996e-21)
(-0.0021597438 -0.00015419054 -3.5357885e-21)
(-0.0061089101 -0.00013265103 2.1997601e-21)
(-0.011584284 0.00038682539 -4.0925883e-21)
(-0.018445042 0.0017145063 3.3112395e-20)
(-0.026065039 0.0040099652 -4.5744553e-20)
(-0.033971637 0.007337673 1.7497038e-20)
(-0.041572527 0.011635545 -1.5663824e-20)
(-0.048455116 0.016768058 9.9812243e-20)
(-0.054181124 0.022487483 1.5961474e-20)
(-0.058523892 0.028534971 -1.3899389e-19)
(-0.06133908 0.034628375 1.1753135e-19)
(-0.062605555 0.040503093 2.2244561e-21)
(-0.062343848 0.04589088 -3.5130614e-20)
(-0.060721312 0.050613616 3.1652305e-20)
(-0.057808072 0.05441567 -4.9183154e-20)
(-0.053833846 0.057177537 3.7662284e-21)
(-0.049057757 0.058842597 -6.991495e-21)
(-0.043610625 0.059233821 3.884573e-21)
(-0.037770994 0.058370984 -6.6457762e-22)
(-0.031748327 0.056226806 -5.1903212e-20)
(-0.025766014 0.052835169 7.8002123e-20)
(-0.020033407 0.04825881 8.2380832e-20)
(-0.014743391 0.042589052 3.3185781e-20)
(-0.01007048 0.035948393 7.5605365e-20)
(-0.0061646975 0.028481112 -1.6776075e-20)
(-0.0031479864 0.020356102 4.8163782e-20)
(-0.0011173978 0.011760858 3.7555315e-20)
(-0.00012749075 0.0028953371 4.9946941e-21)
)
;
    }
    frontAndBack
    {
        type            empty;
    }
}


// ************************************************************************* //
