/*--------------------------------*- C++ -*----------------------------------*\
  =========                 |
  \\      /  F ield         | OpenFOAM: The Open Source CFD Toolbox
   \\    /   O peration     | Website:  https://openfoam.org
    \\  /    A nd           | Version:  13
     \\/     M anipulation  |
\*---------------------------------------------------------------------------*/
FoamFile
{
    format      ascii;
    class       volScalarField;
    location    "40.996029";
    object      pPrime2Mean;
}
// * * * * * * * * * * * * * * * * * * * * * * * * * * * * * * * * * * * * * //

dimensions      [0 4 -4 0 0 0 0];

internalField   nonuniform List<scalar> 
17140
(
7566.7293
7566.7294
7566.7294
7566.7292
7566.7287
7566.7281
7566.7271
7566.7257
7566.7239
7566.7214
7566.7183
7566.7142
7566.709
7566.7023
7566.6938
7566.683
7566.6692
7566.6516
7566.6292
7566.6006
7566.564
7566.5171
7566.4569
7566.3798
7566.2809
7566.1541
7565.992
7565.7853
7565.5227
7565.1903
7564.7711
7564.2444
7563.5846
7562.7608
7561.7357
7560.4646
7558.8946
7556.9641
7554.6017
7551.7257
7548.2433
7544.0495
7539.0258
7533.0395
7525.9426
7517.571
7507.744
7496.2636
7482.9132
7467.4573
7449.6406
7429.1866
7405.7964
7379.1481
7348.8938
7314.6594
7276.0386
7232.5953
7183.8505
7129.2984
7068.3697
7000.4798
6924.9385
6841.0865
6748.1204
7566.9179
7566.918
7566.918
7566.9178
7566.9174
7566.9167
7566.9157
7566.9143
7566.9124
7566.91
7566.9067
7566.9026
7566.8973
7566.8905
7566.8818
7566.8708
7566.8567
7566.8389
7566.8161
7566.7871
7566.75
7566.7025
7566.6418
7566.564
7566.4645
7566.3373
7566.1749
7565.9681
7565.7056
7565.3737
7564.9553
7564.4294
7563.7706
7562.948
7561.9241
7560.6542
7559.0856
7557.1565
7554.7957
7551.9216
7548.4414
7544.2502
7539.2295
7533.2467
7526.1538
7517.7868
7507.9649
7496.49
7483.1458
7467.6969
7449.8883
7429.4435
7406.0639
7379.4276
7349.1871
7314.9684
7276.3655
7232.9424
7184.2206
7129.6942
7068.7937
7000.9345
6925.4271
6841.6135
6748.6864
7567.3849
7567.385
7567.385
7567.3848
7567.3843
7567.3836
7567.3825
7567.381
7567.379
7567.3764
7567.373
7567.3687
7567.3631
7567.3559
7567.3469
7567.3354
7567.3208
7567.3022
7567.2787
7567.2488
7567.2107
7567.1622
7567.1004
7567.0216
7566.9212
7566.7932
7566.6304
7566.4237
7566.1617
7565.8308
7565.4138
7564.8898
7564.2331
7563.4127
7562.3911
7561.1237
7559.5576
7557.6316
7555.2743
7552.4045
7548.9295
7544.7443
7539.7308
7533.7565
7526.6734
7518.3175
7508.508
7497.0469
7483.7179
7468.2864
7450.4975
7430.0754
7406.7219
7380.1155
7349.9091
7315.729
7277.17
7233.7964
7185.1301
7130.6657
7069.834
7002.0503
6926.6263
6842.9075
6750.0759
7568.1406
7568.1407
7568.1406
7568.1404
7568.1398
7568.139
7568.1378
7568.1362
7568.1341
7568.1312
7568.1276
7568.1229
7568.1169
7568.1093
7568.0997
7568.0876
7568.0723
7568.0529
7568.0284
7567.9975
7567.9583
7567.9087
7567.8458
7567.7661
7567.6649
7567.5366
7567.3738
7567.1675
7566.9067
7566.5773
7566.1623
7565.6407
7564.9866
7564.1691
7563.1506
7561.8866
7560.3246
7558.4031
7556.0515
7553.1885
7549.7215
7545.546
7540.5441
7534.5835
7527.5161
7519.1781
7509.3885
7497.9494
7484.6452
7469.2418
7451.4852
7431.1004
7407.7896
7381.2319
7351.0811
7316.9642
7278.4766
7235.1834
7186.6073
7132.2433
7071.5227
7003.8615
6928.5734
6845.009
6752.3323
7569.1956
7569.1957
7569.1956
7569.1953
7569.1947
7569.1938
7569.1925
7569.1907
7569.1884
7569.1854
7569.1815
7569.1766
7569.1702
7569.1623
7569.1522
7569.1395
7569.1235
7569.1035
7569.0782
7569.0465
7569.0065
7568.956
7568.8924
7568.8121
7568.7107
7568.5824
7568.4201
7568.2148
7567.9554
7567.6279
7567.2152
7566.6962
7566.0451
7565.2308
7564.2161
7562.9565
7561.3997
7559.4847
7557.1408
7554.2871
7550.8314
7546.6695
7541.6837
7535.7419
7528.6962
7520.3827
7510.6205
7499.2122
7485.9427
7470.579
7452.8681
7432.5358
7409.2853
7382.7966
7352.7242
7318.6964
7280.3091
7237.1289
7188.6791
7134.4556
7073.8908
7006.4018
6931.3058
6847.9592
6755.5008
7570.5608
7570.5609
7570.5608
7570.5604
7570.5598
7570.5588
7570.5575
7570.5556
7570.5532
7570.5501
7570.546
7570.5409
7570.5344
7570.5262
7570.5158
7570.5029
7570.4866
7570.4662
7570.4406
7570.4085
7570.3683
7570.3177
7570.254
7570.1739
7570.0727
7569.9451
7569.7839
7569.58
7569.3224
7568.997
7568.5867
7568.0704
7567.4224
7566.6117
7565.6013
7564.347
7562.7969
7560.8899
7558.556
7555.7143
7552.2732
7548.1288
7543.1638
7537.2462
7530.2283
7521.9462
7512.2192
7500.8506
7487.6264
7472.3146
7454.6635
7434.4
7411.2285
7384.83
7354.8602
7320.9486
7282.6923
7239.659
7191.3735
7137.3326
7076.9705
7009.7058
6934.8611
6851.7998
6759.6278
7572.2509
7572.2509
7572.2507
7572.2503
7572.2497
7572.2487
7572.2473
7572.2454
7572.243
7572.2398
7572.2357
7572.2306
7572.224
7572.2158
7572.2055
7572.1926
7572.1764
7572.1561
7572.1307
7572.0988
7572.0589
7572.0088
7571.9458
7571.8664
7571.7663
7571.64
7571.4802
7571.2782
7571.0225
7570.6993
7570.2914
7569.7778
7569.133
7568.3262
7567.3208
7566.0727
7564.5304
7562.6332
7560.3114
7557.4845
7554.0613
7549.9384
7544.999
7539.111
7532.1271
7523.8833
7514.1998
7502.8806
7489.7129
7474.466
7456.8896
7436.7121
7413.6392
7387.3532
7357.5113
7323.7443
7285.6509
7242.8002
7194.7188
7140.9046
7080.7942
7013.8093
6939.2788
6856.5736
6764.7611
7574.2823
7574.2823
7574.2821
7574.2817
7574.281
7574.28
7574.2786
7574.2768
7574.2744
7574.2713
7574.2673
7574.2622
7574.2559
7574.2479
7574.2378
7574.2252
7574.2094
7574.1896
7574.1648
7574.1338
7574.0948
7574.0457
7573.9839
7573.906
7573.8074
7573.6827
7573.5248
7573.3247
7573.0711
7572.7501
7572.3445
7571.8336
7571.1921
7570.3895
7569.3895
7568.1485
7566.6152
7564.7295
7562.4218
7559.6124
7556.2105
7552.1133
7547.2041
7541.3512
7534.4075
7526.2094
7516.578
7505.3184
7492.2191
7477.0508
7459.565
7439.4916
7416.538
7390.388
7360.7004
7327.1077
7289.2105
7246.5797
7198.7439
7145.2028
7085.3961
7018.7492
6944.5992
6862.3248
6770.9483
7576.6745
7576.6745
7576.6743
7576.6739
7576.6732
7576.6722
7576.6709
7576.6691
7576.6668
7576.6638
7576.66
7576.6552
7576.6491
7576.6414
7576.6318
7576.6197
7576.6045
7576.5855
7576.5616
7576.5316
7576.4938
7576.4461
7576.3859
7576.3096
7576.2128
7576.0899
7575.9338
7575.7356
7575.4839
7575.165
7574.7617
7574.2534
7573.6153
7572.8173
7571.8232
7570.59
7569.0668
7567.1941
7564.9026
7562.1134
7558.7362
7554.6685
7549.7941
7543.9818
7537.0845
7528.9397
7519.3696
7508.1805
7495.1622
7480.0871
7462.7085
7442.7584
7419.9457
7393.9564
7364.4509
7331.0637
7293.3975
7251.0256
7203.4789
7150.2589
7090.8102
7024.5631
6950.8632
6869.0977
6778.2393
7579.4487
7579.4486
7579.4484
7579.448
7579.4473
7579.4464
7579.4451
7579.4433
7579.4411
7579.4382
7579.4346
7579.43
7579.4242
7579.4168
7579.4076
7579.3961
7579.3816
7579.3633
7579.3403
7579.3114
7579.2747
7579.2284
7579.1695
7579.0947
7578.9995
7578.8782
7578.7237
7578.5271
7578.277
7577.9599
7577.5588
7577.0532
7576.4187
7575.6254
7574.6378
7573.4132
7571.9013
7570.0429
7567.7697
7565.0032
7561.6537
7557.6194
7552.7844
7547.0178
7540.1734
7532.0898
7522.5905
7511.4832
7498.5592
7483.5928
7466.339
7446.5322
7423.8834
7398.0806
7368.7862
7335.6371
7298.2384
7256.1657
7208.9529
7156.1052
7097.0728
7031.2908
6958.1144
6876.94
6786.6839
7582.6232
7582.6231
7582.6229
7582.6224
7582.6218
7582.6209
7582.6196
7582.6179
7582.6158
7582.613
7582.6095
7582.605
7582.5995
7582.5924
7582.5836
7582.5725
7582.5585
7582.5408
7582.5186
7582.4904
7582.4547
7582.4094
7582.3516
7582.2779
7582.1838
7582.0636
7581.9103
7581.7147
7581.466
7581.1504
7580.7513
7580.2486
7579.6178
7578.8298
7577.8492
7576.6341
7575.1344
7573.292
7571.039
7568.2976
7564.979
7560.9816
7556.1902
7550.4746
7543.6897
7535.6754
7526.2569
7515.2432
7502.4274
7487.5856
7470.4754
7450.8332
7428.3724
7402.7831
7373.7302
7340.8531
7303.76
7262.0291
7215.1982
7162.777
7104.2219
7038.9737
6966.3959
6885.897
6796.3324
7586.2151
7586.215
7586.2147
7586.2143
7586.2136
7586.2127
7586.2114
7586.2098
7586.2076
7586.2049
7586.2014
7586.1971
7586.1916
7586.1847
7586.176
7586.1651
7586.1513
7586.134
7586.1121
7586.0843
7586.049
7586.0041
7585.9468
7585.8736
7585.7801
7585.6605
7585.5077
7585.3129
7585.0652
7584.751
7584.354
7583.8543
7583.2278
7582.4456
7581.4729
7580.2681
7578.782
7576.9571
7574.7263
7572.0125
7568.7276
7564.7707
7560.0271
7554.3679
7547.6492
7539.7128
7530.3852
7519.4775
7506.7844
7492.0845
7475.1375
7455.6823
7433.4347
7408.0873
7379.3077
7346.7384
7309.9907
7268.6464
7222.2476
7170.3094
7112.2951
7047.6508
6975.7512
6896.0162
6807.235
7590.2363
7590.2362
7590.2359
7590.2355
7590.2348
7590.2338
7590.2325
7590.2309
7590.2287
7590.226
7590.2225
7590.2181
7590.2126
7590.2057
7590.197
7590.186
7590.1723
7590.1549
7590.133
7590.1052
7590.0699
7590.025
7589.9677
7589.8945
7589.801
7589.6815
7589.5291
7589.3349
7589.0881
7588.7755
7588.381
7587.8848
7587.2632
7586.4877
7585.5238
7584.3305
7582.8595
7581.0538
7578.8473
7576.1637
7572.9155
7569.0024
7564.311
7558.7137
7552.0685
7544.2187
7534.9929
7524.204
7511.6492
7497.109
7480.3459
7461.101
7439.0928
7414.0168
7385.5437
7353.3195
7316.9588
7276.0477
7230.1335
7178.7378
7121.3309
7057.3653
6986.2246
6907.3462
6819.4436
7594.6971
7594.6969
7594.6967
7594.6962
7594.6955
7594.6945
7594.6932
7594.6914
7594.6892
7594.6864
7594.6829
7594.6784
7594.6728
7594.6657
7594.6569
7594.6458
7594.6319
7594.6143
7594.5921
7594.564
7594.5284
7594.4832
7594.4256
7594.3521
7594.2584
7594.139
7593.9868
7593.7933
7593.5479
7593.2373
7592.8459
7592.354
7591.7383
7590.9704
7590.0166
7588.8364
7587.3821
7585.5976
7583.4178
7580.767
7577.5584
7573.6929
7569.0584
7563.529
7556.9648
7549.2111
7540.0985
7529.4422
7517.0416
7502.68
7486.122
7467.1116
7445.37
7420.5959
7392.464
7360.6235
7324.6937
7284.2645
7238.8906
7188.0992
7131.3696
7068.1575
6997.8612
6919.935
6833.0083
7599.6078
7599.6077
7599.6074
7599.6069
7599.6062
7599.6052
7599.6038
7599.602
7599.5997
7599.5969
7599.5932
7599.5886
7599.5829
7599.5756
7599.5666
7599.5553
7599.5411
7599.5232
7599.5007
7599.4722
7599.4362
7599.3906
7599.3326
7599.2589
7599.1652
7599.0459
7598.8943
7598.702
7598.4584
7598.1506
7597.763
7597.2764
7596.6677
7595.9088
7594.9664
7593.8009
7592.3653
7590.6043
7588.4536
7585.8384
7582.6728
7578.8589
7574.2865
7568.8315
7562.3565
7554.7089
7545.7216
7535.2122
7522.9827
7508.8189
7492.4881
7473.737
7452.2901
7427.8499
7400.0951
7368.6789
7333.2247
7293.3294
7248.5534
7198.4315
7142.4493
7080.0709
7010.7049
6933.8298
6847.98
7604.9812
7604.981
7604.9807
7604.9802
7604.9795
7604.9784
7604.977
7604.9752
7604.9729
7604.97
7604.9662
7604.9616
7604.9557
7604.9484
7604.9392
7604.9277
7604.9132
7604.8951
7604.8723
7604.8436
7604.8073
7604.7615
7604.7034
7604.6297
7604.5361
7604.4174
7604.2669
7604.0763
7603.8352
7603.531
7603.1482
7602.6678
7602.067
7601.3184
7600.3891
7599.2401
7597.8252
7596.0901
7593.9711
7591.3945
7588.2754
7584.5178
7580.013
7574.6397
7568.2626
7560.7318
7551.8825
7541.5348
7529.4938
7515.5477
7499.4668
7481.0006
7459.8775
7435.8044
7408.4638
7377.5132
7342.5828
7303.2752
7259.1575
7209.7712
7154.6107
7093.1457
7024.8
6949.0774
6864.408
7610.8337
7610.8335
7610.8332
7610.8327
7610.832
7610.8309
7610.8295
7610.8277
7610.8254
7610.8224
7610.8186
7610.8139
7610.808
7610.8006
7610.7913
7610.7797
7610.7652
7610.7469
7610.724
7610.6952
7610.6589
7610.6131
7610.5551
7610.4818
7610.3889
7610.2712
7610.1223
7609.9339
7609.6959
7609.3959
7609.0186
7608.5453
7607.9535
7607.2164
7606.3015
7605.1708
7603.7787
7602.0717
7599.9871
7597.4523
7594.3838
7590.6874
7586.2566
7580.9727
7574.7029
7567.2999
7558.6016
7548.4312
7536.5963
7522.8885
7507.0806
7488.9258
7468.157
7444.4848
7417.5966
7387.1562
7352.7996
7314.1347
7270.7376
7222.1558
7167.8917
7107.4236
7040.1898
6965.7244
6882.3414
7617.184
7617.1839
7617.1836
7617.1831
7617.1824
7617.1813
7617.1799
7617.1781
7617.1758
7617.1728
7617.1691
7617.1644
7617.1584
7617.151
7617.1418
7617.1302
7617.1157
7617.0975
7617.0746
7617.0459
7617.0098
7616.9643
7616.9068
7616.8342
7616.7423
7616.6261
7616.4792
7616.2935
7616.0591
7615.7637
7615.3924
7614.9269
7614.345
7613.6204
7612.7215
7611.6106
7610.2431
7608.5665
7606.5191
7604.0295
7601.016
7597.3862
7593.0363
7587.85
7581.6972
7574.4334
7565.8996
7555.9221
7544.3117
7530.863
7515.3521
7497.5365
7477.1528
7453.9166
7427.5216
7397.6373
7363.9047
7325.9415
7283.3284
7235.6209
7182.3309
7122.9444
7056.9172
6983.8164
6901.8282
7624.0507
7624.0506
7624.0503
7624.0498
7624.0491
7624.0481
7624.0468
7624.045
7624.0427
7624.0398
7624.0361
7624.0314
7624.0256
7624.0183
7624.0091
7623.9977
7623.9833
7623.9653
7623.9428
7623.9144
7623.8788
7623.8339
7623.7772
7623.7056
7623.6152
7623.5008
7623.3562
7623.1736
7622.9432
7622.653
7622.2882
7621.8309
7621.2597
7620.5486
7619.6667
7618.5772
7617.2363
7615.5923
7613.5848
7611.1439
7608.19
7604.6329
7600.3711
7595.291
7589.2652
7582.1523
7573.7968
7564.0283
7552.6611
7539.4931
7524.3042
7506.8557
7486.8891
7464.1264
7438.2666
7408.9844
7375.9305
7338.7275
7296.9636
7250.2027
7197.9649
7139.7478
7075.0245
7003.3985
6922.9154
7631.45
7631.45
7631.4497
7631.4493
7631.4486
7631.4476
7631.4463
7631.4446
7631.4424
7631.4395
7631.4359
7631.4314
7631.4257
7631.4186
7631.4096
7631.3984
7631.3843
7631.3667
7631.3446
7631.3168
7631.2819
7631.2379
7631.1824
7631.1123
7631.0236
7630.9116
7630.7699
7630.591
7630.3651
7630.0806
7629.723
7629.2749
7628.7152
7628.0187
7627.1551
7626.0883
7624.7756
7623.1664
7621.2018
7618.8136
7615.9242
7612.446
7608.2798
7603.3146
7597.4261
7590.4763
7582.3132
7572.7704
7561.6657
7548.8005
7533.9588
7516.9064
7497.3908
7475.1397
7449.8571
7421.2273
7388.907
7352.5245
7311.6769
7265.935
7214.8308
7157.8727
7094.553
7024.5143
6945.6484
7639.3944
7639.3943
7639.3941
7639.3937
7639.393
7639.3921
7639.3909
7639.3892
7639.3871
7639.3844
7639.3809
7639.3766
7639.3711
7639.3642
7639.3556
7639.3447
7639.3312
7639.3141
7639.2927
7639.2658
7639.232
7639.1893
7639.1354
7639.0672
7638.981
7638.872
7638.7339
7638.5595
7638.3391
7638.0614
7637.7123
7637.2746
7636.7278
7636.0472
7635.2033
7634.1609
7632.8783
7631.3063
7629.3875
7627.056
7624.2364
7620.8434
7616.7805
7611.9394
7606.1989
7599.4246
7591.4687
7582.1686
7571.3459
7558.8059
7544.3373
7527.7113
7508.6815
7486.9802
7462.3207
7434.3948
7402.8632
7367.3635
7327.4994
7282.8521
7232.9645
7177.3573
7115.5428
7047.2062
6970.0708
7647.8945
7647.8944
7647.8942
7647.8939
7647.8933
7647.8924
7647.8913
7647.8897
7647.8877
7647.8852
7647.8819
7647.8778
7647.8726
7647.8661
7647.8579
7647.8477
7647.8347
7647.8185
7647.7981
7647.7724
7647.74
7647.699
7647.6472
7647.5816
7647.4985
7647.3932
7647.2598
7647.091
7646.8774
7646.608
7646.269
7645.8436
7645.3116
7644.649
7643.8269
7642.811
7641.5607
7640.0285
7638.159
7635.8884
7633.144
7629.8428
7625.891
7621.1832
7615.6017
7609.0162
7601.2827
7592.2426
7581.7218
7569.5299
7555.4611
7539.2928
7520.7829
7499.673
7475.6848
7448.5129
7417.828
7383.2734
7344.4626
7300.987
7252.4014
7198.2387
7138.0327
7071.5153
6996.2237
7656.9611
7656.961
7656.9609
7656.9605
7656.96
7656.9592
7656.9582
7656.9567
7656.9549
7656.9526
7656.9496
7656.9458
7656.941
7656.9349
7656.9273
7656.9177
7656.9057
7656.8905
7656.8713
7656.8471
7656.8166
7656.7778
7656.7287
7656.6663
7656.5871
7656.4865
7656.3587
7656.1965
7655.9912
7655.7317
7655.4046
7654.9934
7654.4785
7653.8366
7653.039
7652.0524
7650.8377
7649.3487
7647.5324
7645.3275
7642.6637
7639.4609
7635.6282
7631.0633
7625.6524
7619.2691
7611.7734
7603.0111
7592.8124
7580.9919
7567.3506
7551.67
7533.7178
7513.2433
7489.9727
7463.608
7433.8278
7400.283
7362.597
7320.3723
7273.1757
7220.5528
7162.0602
7097.4807
7024.1463
7666.6091
7666.6091
7666.609
7666.6087
7666.6082
7666.6075
7666.6066
7666.6053
7666.6036
7666.6015
7666.5987
7666.5953
7666.5909
7666.5853
7666.5783
7666.5695
7666.5583
7666.5443
7666.5265
7666.504
7666.4754
7666.4391
7666.3929
7666.3341
7666.2591
7666.1636
7666.0421
7665.8876
7665.6915
7665.4431
7665.1295
7664.7348
7664.2395
7663.6207
7662.8507
7661.897
7660.7215
7659.2802
7657.5219
7655.388
7652.8109
7649.7136
7646.0082
7641.5963
7636.3679
7630.2005
7622.9586
7614.4914
7604.6343
7593.2098
7580.0223
7564.8636
7547.5092
7527.713
7505.2073
7479.7049
7450.8886
7418.4198
7381.9322
7341.0394
7295.3208
7244.3343
7187.6613
7125.1403
7053.8752
7676.8554
7676.8554
7676.8553
7676.855
7676.8546
7676.854
7676.8531
7676.852
7676.8505
7676.8485
7676.846
7676.8429
7676.8388
7676.8338
7676.8273
7676.8192
7676.8089
7676.7959
7676.7795
7676.7585
7676.7318
7676.6979
7676.6545
7676.5992
7676.5285
7676.4382
7676.323
7676.1764
7675.9899
7675.7534
7675.4543
7675.0772
7674.6032
7674.0099
7673.2705
7672.3534
7671.2219
7669.8334
7668.1389
7666.0823
7663.5987
7660.6144
7657.0453
7652.7968
7647.763
7641.8252
7634.8514
7626.6959
7617.2029
7606.1977
7593.4949
7578.8944
7562.1763
7543.1017
7521.4122
7496.8254
7469.0346
7437.7106
7402.4968
7363.0188
7318.8686
7269.6167
7214.87
7154.5307
7085.4456
7687.7178
7687.7178
7687.7177
7687.7175
7687.7171
7687.7166
7687.7158
7687.7147
7687.7133
7687.7115
7687.7092
7687.7062
7687.7025
7687.6977
7687.6917
7687.684
7687.6743
7687.6621
7687.6465
7687.6267
7687.6014
7687.5693
7687.5282
7687.4757
7687.4086
7687.3229
7687.2136
7687.0743
7686.8973
7686.6726
7686.3883
7686.0295
7685.5782
7685.0125
7684.3066
7683.4298
7682.3467
7681.0163
7679.3917
7677.4189
7675.0363
7672.1733
7668.75
7664.6759
7659.848
7654.1521
7647.4614
7639.6389
7630.5307
7619.9725
7607.7875
7593.7788
7577.7363
7559.4291
7538.6052
7514.9912
7488.2895
7458.1805
7424.3183
7386.3397
7343.8499
7296.4322
7243.7188
7185.6867
7118.8914
7699.2097
7699.2097
7699.2096
7699.2094
7699.209
7699.2085
7699.2078
7699.2067
7699.2054
7699.2036
7699.2014
7699.1985
7699.1948
7699.1901
7699.1842
7699.1767
7699.1673
7699.1553
7699.1402
7699.1209
7699.0965
7699.0654
7699.0258
7698.9753
7698.911
7698.829
7698.7247
7698.5921
7698.4238
7698.2106
7697.941
7697.6009
7697.173
7696.6364
7695.9661
7695.1327
7694.1021
7692.8349
7691.2861
7689.4042
7687.1303
7684.3974
7681.1291
7677.2387
7672.6284
7667.189
7660.8006
7653.3296
7644.6305
7634.5493
7622.9114
7609.531
7594.2047
7576.7107
7556.8048
7534.2223
7508.675
7479.8537
7447.4228
7411.0303
7370.2946
7324.8116
7274.2394
7218.6417
7154.2469
7711.3368
7711.3368
7711.3367
7711.3365
7711.3362
7711.3356
7711.3349
7711.3338
7711.3325
7711.3307
7711.3284
7711.3254
7711.3217
7711.3169
7711.3109
7711.3034
7711.2939
7711.2819
7711.2667
7711.2475
7711.2233
7711.1927
7711.1538
7711.1046
7711.0423
7710.9633
7710.8632
7710.7366
7710.5766
7710.3746
7710.1197
7709.7986
7709.395
7708.8888
7708.2563
7707.4692
7706.4948
7705.2954
7703.8277
7702.0426
7699.8843
7697.2891
7694.1849
7690.4897
7686.1103
7680.944
7674.8754
7667.7769
7659.5143
7649.9361
7638.8777
7626.1625
7611.5947
7594.9612
7576.027
7554.5365
7530.2114
7502.7526
7471.835
7437.1176
7398.2317
7354.785
7306.4625
7253.4268
7191.5485
7724.0977
7724.0978
7724.0977
7724.0975
7724.0971
7724.0965
7724.0957
7724.0946
7724.0932
7724.0913
7724.0889
7724.0859
7724.082
7724.0771
7724.0709
7724.0632
7724.0535
7724.0413
7724.0259
7724.0067
7723.9825
7723.9521
7723.9138
7723.8657
7723.8051
7723.7289
7723.633
7723.5125
7723.3608
7723.1701
7722.9303
7722.6288
7722.2503
7721.7759
7721.1828
7720.4442
7719.5288
7718.4007
7717.0185
7715.3358
7713.2997
7710.8506
7707.9206
7704.4321
7700.2983
7695.4213
7689.6903
7682.9887
7675.1868
7666.1404
7655.6958
7643.6832
7629.9168
7614.1928
7596.2859
7575.9501
7552.9171
7526.8982
7497.5784
7464.628
7427.6898
7386.3828
7340.4193
7290.0737
7230.8359
7737.4847
7737.4847
7737.4846
7737.4844
7737.484
7737.4834
7737.4825
7737.4814
7737.4799
7737.478
7737.4756
7737.4724
7737.4685
7737.4635
7737.4573
7737.4495
7737.4397
7737.4275
7737.4122
7737.3931
7737.3692
7737.3394
7737.3021
7737.2556
7737.1974
7737.1246
7737.0337
7736.9199
7736.7775
7736.5991
7736.3753
7736.0946
7735.7423
7735.3007
7734.7484
7734.0601
7733.206
7732.1521
7730.8596
7729.2845
7727.3775
7725.0829
7722.337
7719.0682
7715.1945
7710.6218
7705.2495
7698.9674
7691.6512
7683.1676
7673.3704
7662.0997
7649.1793
7634.4153
7617.5929
7598.4767
7576.8084
7552.3095
7524.6754
7493.5871
7458.6977
7419.6358
7376.1443
7328.6222
7272.1498
7751.4888
7751.4888
7751.4887
7751.4885
7751.4881
7751.4875
7751.4866
7751.4855
7751.4841
7751.4822
7751.4798
7751.4767
7751.4729
7751.4681
7751.462
7751.4545
7751.445
7751.4333
7751.4186
7751.4003
7751.3776
7751.3492
7751.314
7751.2701
7751.2156
7751.1477
7751.0631
7750.9577
7750.826
7750.6614
7750.4551
7750.1962
7749.8713
7749.4637
7748.9534
7748.3167
7747.526
7746.5492
7745.3502
7743.8881
7742.1171
7739.9853
7737.4345
7734.3978
7730.7966
7726.5461
7721.5532
7715.7125
7708.9094
7701.019
7691.9046
7681.4163
7669.3877
7655.6357
7639.9569
7622.1274
7601.8991
7579.004
7553.1475
7524.0203
7491.285
7454.577
7413.6757
7369.1257
7315.5339
7766.1041
7766.1041
7766.104
7766.1038
7766.1034
7766.1029
7766.1021
7766.1011
7766.0998
7766.098
7766.0958
7766.093
7766.0895
7766.0851
7766.0796
7766.0727
7766.0641
7766.0534
7766.04
7766.0234
7766.0027
7765.977
7765.945
7765.9053
7765.8559
7765.7945
7765.7181
7765.6227
7765.5036
7765.3543
7765.1668
7764.9311
7764.6346
7764.2621
7763.795
7763.2115
7762.4862
7761.5895
7760.488
7759.1443
7757.5161
7755.5562
7753.2111
7750.4167
7747.1027
7743.1925
7738.5977
7733.2219
7726.9591
7719.6934
7711.2981
7701.6335
7690.544
7677.8578
7663.3838
7646.9103
7628.2005
7606.9969
7583.0146
7555.9534
7525.4838
7491.2437
7453.0439
7411.5866
7361.1053
7781.3293
7781.3293
7781.3292
7781.329
7781.3287
7781.3282
7781.3275
7781.3267
7781.3255
7781.324
7781.3222
7781.3198
7781.3168
7781.313
7781.3083
7781.3024
7781.295
7781.2858
7781.2744
7781.2601
7781.2423
7781.2201
7781.1925
7781.158
7781.115
7781.0614
7780.9944
7780.9104
7780.8048
7780.6719
7780.5043
7780.2927
7780.0256
7779.6892
7779.2668
7778.7384
7778.081
7777.2676
7776.2681
7775.0484
7773.5703
7771.7914
7769.6602
7767.1202
7764.1088
7760.5546
7756.3777
7751.4904
7745.7955
7739.1865
7731.5471
7722.7484
7712.6465
7701.0817
7687.8759
7672.8303
7655.7208
7636.3009
7614.2955
7589.4128
7561.3311
7529.6789
7494.2676
7456.1133
7408.9016
7797.1661
7797.1661
7797.166
7797.1658
7797.1656
7797.1652
7797.1647
7797.1639
7797.163
7797.1618
7797.1603
7797.1584
7797.1559
7797.1528
7797.149
7797.1442
7797.1381
7797.1306
7797.1211
7797.1093
7797.0946
7797.0762
7797.0531
7797.0242
7796.9879
7796.9423
7796.8849
7796.8124
7796.7208
7796.6046
7796.4572
7796.2703
7796.0336
7795.7347
7795.3587
7794.8877
7794.301
7793.5748
7792.6821
7791.5924
7790.2722
7788.681
7786.7737
7784.5009
7781.8056
7778.6239
7774.8852
7770.5098
7765.4102
7759.4902
7752.6439
7744.754
7735.6894
7725.3033
7713.4311
7699.8882
7684.4646
7666.9261
7647.0077
7624.426
7598.8628
7569.9039
7537.4121
7502.7599
7458.9683
7813.6136
7813.6136
7813.6135
7813.6134
7813.6132
7813.6129
7813.6124
7813.6118
7813.6111
7813.6101
7813.6088
7813.6072
7813.6052
7813.6027
7813.5995
7813.5955
7813.5905
7813.5843
7813.5765
7813.5668
7813.5547
7813.5394
7813.5202
7813.4961
7813.4657
7813.4273
7813.3787
7813.317
7813.2386
7813.1388
7813.0117
7812.85
7812.6448
7812.3849
7812.0573
7811.6463
7811.1337
7810.4989
7809.7181
7808.7651
7807.6088
7806.2132
7804.5405
7802.5462
7800.1808
7797.3888
7794.1077
7790.2676
7785.7908
7780.5918
7774.576
7767.6384
7759.6616
7750.5132
7740.0425
7728.0802
7714.4323
7698.8789
7681.1667
7661.0189
7638.1041
7612.0154
7582.5317
7551.5737
7511.4642
7830.6639
7830.6639
7830.6638
7830.6637
7830.6635
7830.6632
7830.6627
7830.6622
7830.6615
7830.6606
7830.6594
7830.6579
7830.6561
7830.6538
7830.6509
7830.6473
7830.6428
7830.6373
7830.6304
7830.6218
7830.6112
7830.5979
7830.5814
7830.5607
7830.5348
7830.5022
7830.4611
7830.4091
7830.3431
7830.2592
7830.1524
7830.0164
7829.8435
7829.6241
7829.3468
7828.9984
7828.5634
7828.0241
7827.3605
7826.5494
7825.563
7824.3723
7822.9438
7821.2397
7819.2183
7816.8324
7814.0286
7810.7467
7806.9198
7802.4737
7797.3259
7791.3848
7784.5473
7776.6965
7767.6974
7757.397
7745.6194
7732.161
7716.7824
7699.205
7679.1257
7656.069
7629.7304
7602.6432
7566.5502
7848.2968
7848.2967
7848.2966
7848.2965
7848.2962
7848.2959
7848.2954
7848.2948
7848.294
7848.293
7848.2918
7848.2902
7848.2883
7848.2859
7848.2829
7848.2793
7848.2748
7848.2694
7848.2626
7848.2544
7848.2444
7848.2321
7848.217
7848.1986
7848.1759
7848.148
7848.1134
7848.0703
7848.0162
7847.9479
7847.8613
7847.7512
7847.6111
7847.433
7847.2075
7846.9237
7846.5691
7846.1291
7845.587
7844.922
7844.1129
7843.1349
7841.9601
7840.5583
7838.8953
7836.9323
7834.6251
7831.9243
7828.7742
7825.1127
7820.8706
7815.9705
7810.3245
7803.8319
7796.3758
7787.8215
7778.0119
7766.7618
7753.8519
7739.0238
7721.9623
7702.1672
7679.2061
7656.1481
7624.3535
7866.4814
7866.4813
7866.4811
7866.4809
7866.4806
7866.4802
7866.4796
7866.4789
7866.478
7866.4769
7866.4755
7866.4737
7866.4716
7866.4689
7866.4657
7866.4618
7866.457
7866.4512
7866.4443
7866.436
7866.4261
7866.4142
7866.4001
7866.3834
7866.3635
7866.3397
7866.3112
7866.2764
7866.2337
7866.1806
7866.1137
7866.0289
7865.9212
7865.7844
7865.6114
7865.3936
7865.1214
7864.7836
7864.3655
7863.8522
7863.2268
7862.4693
7861.5587
7860.4717
7859.1817
7857.6584
7855.8676
7853.7707
7851.3241
7848.4789
7845.1802
7841.3659
7836.9636
7831.8899
7826.048
7819.3225
7811.5806
7802.6646
7792.3783
7780.4795
7766.6712
7750.4341
7731.2444
7712.3753
7684.8667
7885.1758
7885.1757
7885.1756
7885.1753
7885.1749
7885.1745
7885.1738
7885.173
7885.172
7885.1708
7885.1693
7885.1674
7885.1652
7885.1624
7885.1591
7885.1551
7885.1503
7885.1445
7885.1377
7885.1296
7885.1202
7885.1093
7885.0966
7885.0819
7885.0651
7885.0457
7885.0233
7884.9968
7884.9651
7884.9265
7884.8786
7884.8188
7884.7433
7884.648
7884.5279
7884.3775
7884.1898
7883.9555
7883.6652
7883.3083
7882.8722
7882.3434
7881.7072
7880.9472
7880.0443
7878.9773
7877.7223
7876.2518
7874.535
7872.5373
7870.2188
7867.5325
7864.424
7860.8296
7856.6737
7851.8657
7846.2973
7839.8393
7832.3355
7823.5825
7813.3091
7801.0083
7786.1515
7771.3928
7748.4889
7904.3362
7904.336
7904.3358
7904.3355
7904.3351
7904.3346
7904.334
7904.3332
7904.3323
7904.3311
7904.3296
7904.3279
7904.3258
7904.3233
7904.3203
7904.3167
7904.3125
7904.3075
7904.3017
7904.2949
7904.2871
7904.2782
7904.2681
7904.2567
7904.2438
7904.2294
7904.2131
7904.1945
7904.173
7904.1478
7904.1181
7904.0828
7904.0399
7903.9866
7903.9205
7903.838
7903.735
7903.6067
7903.4477
7903.2514
7903.011
7902.7191
7902.3672
7901.946
7901.4442
7900.8496
7900.149
7899.3271
7898.3666
7897.248
7895.9464
7894.4328
7892.6704
7890.6161
7888.2185
7885.413
7882.124
7878.2553
7873.6919
7868.2903
7861.8408
7853.9438
7844.1528
7834.129
7816.9032
7924.7887
7924.7885
7924.7882
7924.7879
7924.7875
7924.787
7924.7864
7924.7857
7924.7848
7924.7838
7924.7826
7924.7812
7924.7795
7924.7775
7924.7751
7924.7723
7924.769
7924.7652
7924.7608
7924.7557
7924.75
7924.7435
7924.7363
7924.7283
7924.7196
7924.7102
7924.7002
7924.6895
7924.6784
7924.667
7924.6557
7924.645
7924.6355
7924.6268
7924.6185
7924.6091
7924.5986
7924.5863
7924.5701
7924.549
7924.5225
7924.4895
7924.4483
7924.3968
7924.3315
7924.2508
7924.153
7924.0359
7923.8963
7923.7301
7923.5312
7923.2888
7922.9876
7922.6076
7922.1235
7921.5027
7920.7025
7919.6706
7918.3388
7916.6304
7914.4334
7911.5254
7907.9123
7904.62
7898.3468
7946.3084
7946.3081
7946.3078
7946.3075
7946.3071
7946.3067
7946.3062
7946.3056
7946.3049
7946.3041
7946.3032
7946.3022
7946.301
7946.2996
7946.298
7946.2961
7946.294
7946.2916
7946.2888
7946.2857
7946.2822
7946.2784
7946.2743
7946.2701
7946.2659
7946.2621
7946.2591
7946.2575
7946.2582
7946.2629
7946.2729
7946.2902
7946.3177
7946.3566
7946.4096
7946.4794
7946.5694
7946.6813
7946.8174
7946.9832
7947.1844
7947.4268
7947.7156
7948.0568
7948.457
7948.9247
7949.4704
7950.1054
7950.8417
7951.692
7952.6687
7953.7823
7955.0408
7956.4501
7958.0135
7959.7326
7961.6034
7963.6202
7965.7706
7968.0515
7970.4581
7972.9634
7975.8032
7979.4677
7982.2483
7967.7936
7967.7933
7967.793
7967.7927
7967.7924
7967.7921
7967.7917
7967.7914
7967.791
7967.7906
7967.7902
7967.7897
7967.7893
7967.7888
7967.7884
7967.7879
7967.7875
7967.787
7967.7867
7967.7864
7967.7862
7967.7862
7967.7866
7967.7874
7967.7889
7967.7918
7967.7968
7967.8051
7967.8185
7967.8393
7967.8708
7967.9168
7967.9806
7968.067
7968.1805
7968.3262
7968.5104
7968.7405
7969.0255
7969.3755
7969.8024
7970.3184
7970.9359
7971.6693
7972.535
7973.5522
7974.7434
7976.1337
7977.7501
7979.6222
7981.7807
7984.258
7987.0867
7990.2996
7993.9294
7998.012
8002.5832
8007.685
8013.3631
8019.6834
8026.7233
8034.5974
8043.5801
8053.966
8065.5741
7989.1501
7989.1499
7989.1496
7989.1494
7989.1491
7989.1489
7989.1488
7989.1487
7989.1486
7989.1486
7989.1488
7989.149
7989.1494
7989.15
7989.1508
7989.1519
7989.1534
7989.1552
7989.1574
7989.1602
7989.1636
7989.1678
7989.1728
7989.179
7989.1868
7989.197
7989.2106
7989.2295
7989.2563
7989.2942
7989.3474
7989.4207
7989.5209
7989.6543
7989.8266
7990.0468
7990.3249
7990.6728
7991.1046
7991.6362
7992.2856
7993.0717
7994.0146
7995.1371
7996.4658
7998.0306
7999.8657
8002.0098
8004.5053
8007.398
8010.7376
8014.5782
8018.9772
8023.995
8029.6944
8036.1451
8043.4227
8051.6158
8060.8248
8071.1786
8082.8259
8095.9782
8110.956
8128.1381
8148.065
8010.2846
8010.2843
8010.2841
8010.2839
8010.2838
8010.2837
8010.2838
8010.2839
8010.2842
8010.2847
8010.2854
8010.2864
8010.2877
8010.2893
8010.2914
8010.2941
8010.2974
8010.3014
8010.3062
8010.312
8010.319
8010.3271
8010.3369
8010.3485
8010.3626
8010.3804
8010.4031
8010.4331
8010.4735
8010.5289
8010.6048
8010.708
8010.8461
8011.0262
8011.2585
8011.5541
8011.9264
8012.392
8012.9696
8013.6809
8014.55
8015.6026
8016.8667
8018.3743
8020.1618
8022.2698
8024.7444
8027.6375
8031.0065
8034.9141
8039.429
8044.6263
8050.588
8057.4015
8065.1603
8073.9675
8083.9379
8095.2047
8107.9204
8122.2726
8138.4807
8156.8372
8177.734
8201.6722
8229.3941
8031.1193
8031.119
8031.1188
8031.1187
8031.1187
8031.1188
8031.1191
8031.1195
8031.1201
8031.121
8031.1223
8031.1238
8031.1259
8031.1285
8031.1317
8031.1357
8031.1405
8031.1464
8031.1534
8031.1618
8031.1717
8031.1834
8031.1973
8031.2138
8031.2338
8031.2585
8031.2898
8031.3307
8031.3853
8031.459
8031.5586
8031.6921
8031.8681
8032.097
8032.3903
8032.7619
8033.2289
8033.8119
8034.5344
8035.4235