/*--------------------------------*- C++ -*----------------------------------*\
  =========                 |
  \\      /  F ield         | OpenFOAM: The Open Source CFD Toolbox
   \\    /   O peration     | Website:  https://openfoam.org
    \\  /    A nd           | Version:  13
     \\/     M anipulation  |
\*---------------------------------------------------------------------------*/
FoamFile
{
    format      ascii;
    class       volScalarField;
    location    "3600";
    object      epsilon;
}
// * * * * * * * * * * * * * * * * * * * * * * * * * * * * * * * * * * * * * //

dimensions      [0 2 -3 0 0 0 0];

internalField   nonuniform List<scalar> 
25000
(
0.00194548
0.00194393
0.00194155
0.00193908
0.00193701
0.00193549
0.00193446
0.00193384
0.00193353
0.00193348
0.00193365
0.00193403
0.00193458
0.00193531
0.00193619
0.0019372
0.00193834
0.00193958
0.00194091
0.0019423
0.00194373
0.00194519
0.00194665
0.00194809
0.00194948
0.00195081
0.00195206
0.0019532
0.00195423
0.00195512
0.00195586
0.00195644
0.00195684
0.00195707
0.00195711
0.00195697
0.00195665
0.00195615
0.00195548
0.00195464
0.00195367
0.00195256
0.00195137
0.00195012
0.00194888
0.00194777
0.0019469
0.00194642
0.00194631
0.00194618
0.0106006
0.0105907
0.0105755
0.0105597
0.0105465
0.0105368
0.0105302
0.0105262
0.0105242
0.0105239
0.0105249
0.0105273
0.0105308
0.0105353
0.0105409
0.0105473
0.0105545
0.0105623
0.0105707
0.0105795
0.0105886
0.0105978
0.0106071
0.0106162
0.0106251
0.0106336
0.0106415
0.0106488
0.0106553
0.010661
0.0106657
0.0106694
0.0106721
0.0106736
0.0106739
0.010673
0.010671
0.0106679
0.0106636
0.0106584
0.0106522
0.0106452
0.0106377
0.0106298
0.0106219
0.0106149
0.0106094
0.0106064
0.0106058
0.0106051
0.0187946
0.0187767
0.0187497
0.0187218
0.0186984
0.0186813
0.0186698
0.018663
0.0186597
0.0186594
0.0186618
0.0186664
0.0186731
0.0186818
0.0186923
0.0187044
0.0187178
0.0187324
0.018748
0.0187643
0.0187811
0.0187981
0.018815
0.0188317
0.0188478
0.0188631
0.0188774
0.0188905
0.0189021
0.0189121
0.0189204
0.0189268
0.0189311
0.0189334
0.0189335
0.0189315
0.0189274
0.0189212
0.0189131
0.0189032
0.0188916
0.0188786
0.0188645
0.0188499
0.0188354
0.0188223
0.0188121
0.0188063
0.0188046
0.0188029
0.0252467
0.0252223
0.0251875
0.0251521
0.0251228
0.0251015
0.0250876
0.0250798
0.0250769
0.0250782
0.025083
0.0250912
0.0251021
0.0251159
0.025132
0.0251504
0.0251705
0.0251921
0.0252149
0.0252386
0.0252627
0.0252869
0.0253108
0.025334
0.0253562
0.025377
0.0253961
0.0254133
0.0254283
0.025441
0.025451
0.025458
0.0254623
0.0254636
0.0254619
0.0254573
0.0254498
0.0254394
0.0254265
0.0254111
0.0253936
0.0253743
0.0253537
0.0253325
0.0253116
0.0252926
0.0252773
0.0252676
0.0252631
0.0252588
0.0286172
0.0285895
0.0285527
0.0285163
0.0284865
0.0284653
0.0284519
0.0284454
0.0284445
0.0284485
0.0284566
0.0284686
0.028484
0.0285026
0.0285238
0.0285476
0.0285733
0.0286007
0.0286292
0.0286584
0.0286878
0.028717
0.0287454
0.0287726
0.0287983
0.0288219
0.0288433
0.0288619
0.0288778
0.0288906
0.0289001
0.0289058
0.0289081
0.028907
0.0289022
0.0288941
0.0288825
0.0288678
0.0288501
0.0288298
0.0288072
0.0287828
0.028757
0.0287309
0.0287052
0.0286818
0.0286621
0.0286484
0.02864
0.0286323
0.0292199
0.0291915
0.0291561
0.0291218
0.0290941
0.0290749
0.0290632
0.0290584
0.0290596
0.0290657
0.0290762
0.0290907
0.0291087
0.0291301
0.0291542
0.0291809
0.0292095
0.0292397
0.0292708
0.0293025
0.0293341
0.0293653
0.0293953
0.0294238
0.0294503
0.0294745
0.0294959
0.0295143
0.0295295
0.0295414
0.0295495
0.0295535
0.0295539
0.0295505
0.0295434
0.0295327
0.0295185
0.0295011
0.0294806
0.0294576
0.0294323
0.0294054
0.0293772
0.0293488
0.029321
0.0292955
0.0292737
0.0292576
0.0292465
0.0292364
0.0283484
0.0283206
0.0282872
0.028255
0.0282295
0.028212
0.0282016
0.0281981
0.0282003
0.0282074
0.0282188
0.0282342
0.028253
0.0282752
0.0283
0.0283273
0.0283564
0.0283869
0.0284183
0.0284502
0.0284818
0.0285128
0.0285426
0.0285707
0.0285967
0.0286202
0.0286409
0.0286584
0.0286727
0.0286836
0.0286907
0.0286937
0.028693
0.0286886
0.0286804
0.0286688
0.0286536
0.0286354
0.0286142
0.0285906
0.0285647
0.0285374
0.0285089
0.0284804
0.0284524
0.0284268
0.0284046
0.0283878
0.0283758
0.028365
0.0269713
0.0269447
0.0269128
0.0268823
0.0268583
0.0268419
0.0268324
0.0268295
0.0268321
0.0268394
0.0268508
0.026866
0.0268846
0.0269063
0.0269306
0.0269573
0.0269856
0.0270154
0.0270459
0.0270768
0.0271074
0.0271373
0.027166
0.0271931
0.027218
0.0272406
0.0272603
0.027277
0.0272906
0.0273008
0.0273072
0.0273098
0.0273087
0.0273041
0.0272958
0.0272842
0.0272692
0.0272512
0.0272304
0.0272073
0.0271821
0.0271554
0.0271277
0.0271
0.0270728
0.0270479
0.0270263
0.0270099
0.026998
0.0269875
0.0255347
0.0255092
0.0254786
0.0254493
0.0254263
0.0254106
0.0254017
0.025399
0.0254016
0.0254087
0.0254198
0.0254345
0.0254523
0.0254732
0.0254966
0.0255221
0.0255493
0.0255778
0.025607
0.0256365
0.0256658
0.0256945
0.0257219
0.0257477
0.0257716
0.0257931
0.025812
0.0258279
0.0258408
0.0258505
0.0258567
0.0258591
0.025858
0.0258536
0.0258456
0.0258344
0.02582
0.0258027
0.0257827
0.0257605
0.0257363
0.0257108
0.0256842
0.0256576
0.0256316
0.0256076
0.0255869
0.0255713
0.02556
0.0255501
0.0241921
0.0241676
0.0241381
0.0241098
0.0240875
0.0240725
0.0240639
0.0240613
0.0240638
0.0240706
0.0240811
0.0240951
0.0241122
0.0241321
0.0241544
0.0241788
0.0242047
0.0242319
0.0242597
0.0242879
0.0243158
0.0243431
0.0243693
0.024394
0.0244168
0.0244374
0.0244554
0.0244707
0.0244831
0.0244925
0.0244984
0.0245008
0.0244999
0.0244957
0.0244882
0.0244775
0.0244638
0.0244474
0.0244283
0.0244072
0.0243841
0.0243597
0.0243343
0.0243089
0.0242839
0.0242611
0.0242413
0.0242265
0.024216
0.0242068
0.0229802
0.0229568
0.0229281
0.0229006
0.0228791
0.0228644
0.0228561
0.0228537
0.022856
0.0228624
0.0228724
0.0228857
0.022902
0.022921
0.0229422
0.0229654
0.0229902
0.0230161
0.0230426
0.0230695
0.0230962
0.0231223
0.0231473
0.0231709
0.0231927
0.0232125
0.0232298
0.0232445
0.0232565
0.0232655
0.0232713
0.0232737
0.023273
0.0232691
0.023262
0.023252
0.023239
0.0232233
0.0232052
0.023185
0.023163
0.0231397
0.0231154
0.0230911
0.0230673
0.0230454
0.0230266
0.0230126
0.0230028
0.0229943
0.0218966
0.0218741
0.0218462
0.0218194
0.0217985
0.0217842
0.0217762
0.0217737
0.0217758
0.0217819
0.0217914
0.0218042
0.0218196
0.0218377
0.021858
0.0218802
0.0219038
0.0219285
0.0219539
0.0219796
0.0220051
0.0220301
0.022054
0.0220767
0.0220976
0.0221166
0.0221333
0.0221475
0.0221591
0.0221678
0.0221735
0.022176
0.0221754
0.0221718
0.0221652
0.0221557
0.0221433
0.0221284
0.0221112
0.0220919
0.0220708
0.0220486
0.0220254
0.0220021
0.0219792
0.0219583
0.0219403
0.021927
0.0219179
0.02191
0.0209277
0.020906
0.0208789
0.0208528
0.0208323
0.0208185
0.0208106
0.0208082
0.0208101
0.0208159
0.020825
0.0208371
0.0208519
0.0208692
0.0208885
0.0209097
0.0209323
0.020956
0.0209803
0.0210049
0.0210294
0.0210533
0.0210763
0.0210981
0.0211182
0.0211365
0.0211526
0.0211663
0.0211775
0.0211861
0.0211916
0.0211942
0.0211937
0.0211905
0.0211842
0.0211752
0.0211635
0.0211493
0.0211328
0.0211144
0.0210942
0.0210729
0.0210506
0.0210282
0.0210063
0.0209862
0.020969
0.0209564
0.0209479
0.0209406
0.0200587
0.0200377
0.0200113
0.0199858
0.0199658
0.0199523
0.0199446
0.0199422
0.019944
0.0199495
0.0199581
0.0199697
0.0199839
0.0200004
0.020019
0.0200393
0.0200609
0.0200836
0.020107
0.0201306
0.0201541
0.0201771
0.0201992
0.0202202
0.0202396
0.0202572
0.0202728
0.0202861
0.020297
0.0203053
0.0203108
0.0203134
0.0203131
0.02031
0.0203042
0.0202956
0.0202844
0.0202709
0.0202551
0.0202374
0.0202181
0.0201976
0.0201762
0.0201547
0.0201336
0.0201143
0.0200978
0.0200858
0.0200778
0.020071
0.019276
0.0192557
0.0192299
0.019205
0.0191855
0.0191723
0.0191648
0.0191624
0.0191641
0.0191693
0.0191775
0.0191886
0.0192022
0.019218
0.0192358
0.0192553
0.0192761
0.0192979
0.0193204
0.0193431
0.0193657
0.0193878
0.0194092
0.0194294
0.0194482
0.0194652
0.0194803
0.0194932
0.0195038
0.0195119
0.0195173
0.0195199
0.0195198
0.0195169
0.0195114
0.0195033
0.0194926
0.0194796
0.0194645
0.0194475
0.019429
0.0194092
0.0193887
0.019368
0.0193476
0.019329
0.0193131
0.0193017
0.0192942
0.0192878
0.0185681
0.0185484
0.0185233
0.0184989
0.0184799
0.018467
0.0184596
0.0184572
0.0184588
0.0184637
0.0184716
0.0184822
0.0184952
0.0185105
0.0185276
0.0185463
0.0185663
0.0185874
0.018609
0.0186308
0.0186526
0.018674
0.0186946
0.0187141
0.0187323
0.0187488
0.0187635
0.018776
0.0187863
0.0187942
0.0187995
0.0188022
0.0188022
0.0187995
0.0187943
0.0187865
0.0187763
0.0187639
0.0187494
0.0187331
0.0187152
0.0186962
0.0186764
0.0186564
0.0186368
0.0186188
0.0186035
0.0185925
0.0185855
0.0185795
0.0179255
0.0179064
0.0178818
0.017858
0.0178393
0.0178267
0.0178195
0.0178171
0.0178186
0.0178233
0.0178308
0.017841
0.0178535
0.0178682
0.0178847
0.0179027
0.017922
0.0179423
0.0179631
0.0179842
0.0180053
0.0180259
0.0180458
0.0180647
0.0180823
0.0180984
0.0181126
0.0181248
0.0181348
0.0181426
0.0181478
0.0181505
0.0181506
0.0181482
0.0181432
0.0181358
0.018126
0.0181141
0.0181001
0.0180844
0.0180672
0.0180488
0.0180297
0.0180104
0.0179914
0.017974
0.0179593
0.0179488
0.0179421
0.0179364
0.0173402
0.0173216
0.0172975
0.0172742
0.017256
0.0172436
0.0172366
0.0172342
0.0172355
0.01724
0.0172473
0.0172571
0.0172691
0.0172832
0.0172991
0.0173165
0.0173351
0.0173547
0.0173748
0.0173952
0.0174156
0.0174355
0.0174548
0.0174732
0.0174902
0.0175058
0.0175196
0.0175315
0.0175413
0.0175489
0.0175541
0.0175568
0.0175569
0.0175547
0.01755
0.0175429
0.0175335
0.017522
0.0175086
0.0174934
0.0174768
0.0174591
0.0174406
0.0174219
0.0174035
0.0173867
0.0173725
0.0173624
0.0173561
0.0173507
0.0168055
0.0167874
0.0167639
0.0167411
0.0167232
0.0167111
0.0167042
0.0167018
0.016703
0.0167073
0.0167143
0.0167237
0.0167353
0.0167489
0.0167643
0.0167811
0.016799
0.0168179
0.0168374
0.0168572
0.0168769
0.0168962
0.0169149
0.0169327
0.0169493
0.0169644
0.0169779
0.0169895
0.0169991
0.0170065
0.0170116
0.0170143
0.0170146
0.0170125
0.017008
0.0170012
0.0169922
0.0169812
0.0169682
0.0169536
0.0169375
0.0169204
0.0169024
0.0168843
0.0168665
0.0168502
0.0168365
0.0168268
0.0168208
0.0168157
0.0163159
0.0162983
0.0162753
0.0162529
0.0162354
0.0162235
0.0162168
0.0162144
0.0162155
0.0162196
0.0162263
0.0162354
0.0162466
0.0162598
0.0162746
0.0162908
0.0163082
0.0163265
0.0163453
0.0163645
0.0163835
0.0164023
0.0164205
0.0164378
0.0164539
0.0164686
0.0164817
0.0164931
0.0165024
0.0165097
0.0165147
0.0165175
0.0165178
0.0165159
0.0165116
0.0165051
0.0164965
0.0164858
0.0164733
0.0164592
0.0164436
0.016427
0.0164097
0.0163921
0.0163748
0.016359
0.0163457
0.0163363
0.0163307
0.0163258
0.0158668
0.0158496
0.0158271
0.0158051
0.015788
0.0157763
0.0157697
0.0157673
0.0157684
0.0157723
0.0157787
0.0157875
0.0157983
0.015811
0.0158253
0.015841
0.0158579
0.0158756
0.0158938
0.0159124
0.0159309
0.0159492
0.0159668
0.0159836
0.0159993
0.0160137
0.0160265
0.0160375
0.0160467
0.0160538
0.0160588
0.0160615
0.016062
0.0160602
0.0160561
0.0160499
0.0160416
0.0160313
0.0160192
0.0160055
0.0159905
0.0159744
0.0159575
0.0159405
0.0159237
0.0159084
0.0158954
0.0158864
0.015881
0.0158764
0.0154541
0.0154374
0.0154153
0.0153938
0.0153769
0.0153655
0.015359
0.0153566
0.0153576
0.0153614
0.0153676
0.015376
0.0153865
0.0153987
0.0154126
0.0154278
0.0154441
0.0154613
0.015479
0.015497
0.015515
0.0155327
0.0155499
0.0155662
0.0155815
0.0155955
0.015608
0.0156188
0.0156278
0.0156348
0.0156397
0.0156425
0.015643
0.0156413
0.0156375
0.0156315
0.0156235
0.0156135
0.0156018
0.0155886
0.015574
0.0155584
0.015542
0.0155255
0.0155092
0.0154943
0.0154817
0.015473
0.0154678
0.0154634
0.0150745
0.0150582
0.0150365
0.0150154
0.0149989
0.0149877
0.0149813
0.0149789
0.0149798
0.0149834
0.0149894
0.0149975
0.0150076
0.0150195
0.0150329
0.0150477
0.0150635
0.0150802
0.0150973
0.0151148
0.0151323
0.0151496
0.0151663
0.0151822
0.0151971
0.0152108
0.015223
0.0152335
0.0152424
0.0152493
0.0152541
0.0152569
0.0152574
0.0152559
0.0152522
0.0152465
0.0152388
0.0152292
0.0152178
0.015205
0.0151909
0.0151757
0.0151598
0.0151437
0.0151279
0.0151133
0.0151011
0.0150927
0.0150878
0.0150835
0.014725
0.0147091
0.0146878
0.0146671
0.0146509
0.0146399
0.0146336
0.0146312
0.014632
0.0146355
0.0146412
0.0146491
0.0146589
0.0146704
0.0146834
0.0146977
0.0147131
0.0147292
0.014746
0.014763
0.01478
0.0147968
0.014813
0.0148285
0.0148431
0.0148564
0.0148684
0.0148787
0.0148874
0.0148942
0.014899
0.0149017
0.0149024
0.014901
0.0148974
0.0148919
0.0148845
0.0148752
0.0148642
0.0148518
0.014838
0.0148233
0.0148079
0.0147922
0.0147768
0.0147626
0.0147508
0.0147426
0.0147379
0.0147338
0.0144031
0.0143875
0.0143667
0.0143464
0.0143304
0.0143196
0.0143135
0.0143111
0.0143118
0.0143151
0.0143207
0.0143283
0.0143377
0.0143489
0.0143615
0.0143754
0.0143903
0.014406
0.0144223
0.0144388
0.0144554
0.0144717
0.0144876
0.0145027
0.0145169
0.0145299
0.0145416
0.0145518
0.0145603
0.0145669
0.0145717
0.0145744
0.0145752
0.0145739
0.0145705
0.0145652
0.014558
0.0145491
0.0145384
0.0145264
0.014513
0.0144987
0.0144837
0.0144684
0.0144534
0.0144396
0.0144281
0.0144201
0.0144156
0.0144117
0.0141066
0.0140914
0.0140709
0.014051
0.0140353
0.0140247
0.0140186
0.0140162
0.0140169
0.0140201
0.0140254
0.0140328
0.0140419
0.0140528
0.014065
0.0140785
0.014093
0.0141082
0.014124
0.0141401
0.0141563
0.0141722
0.0141877
0.0142025
0.0142163
0.0142291
0.0142405
0.0142505
0.0142588
0.0142654
0.0142701
0.0142728
0.0142736
0.0142724
0.0142693
0.0142642
0.0142572
0.0142485
0.0142382
0.0142265
0.0142135
0.0141996
0.014185
0.0141701
0.0141555
0.014142
0.0141308
0.0141231
0.0141187
0.0141149
0.0138335
0.0138186
0.0137985
0.0137789
0.0137635
0.0137531
0.0137471
0.0137448
0.0137453
0.0137484
0.0137535
0.0137607
0.0137695
0.01378
0.0137919
0.013805
0.0138191
0.0138339
0.0138493
0.013865
0.0138807
0.0138963
0.0139114
0.0139258
0.0139394
0.0139518
0.013963
0.0139728
0.013981
0.0139875
0.0139921
0.0139949
0.0139957
0.0139947
0.0139916
0.0139868
0.01398
0.0139716
0.0139616
0.0139502
0.0139376
0.0139241
0.0139098
0.0138953
0.0138811
0.013868
0.013857
0.0138495
0.0138453
0.0138416
0.0135821
0.0135675
0.0135478
0.0135286
0.0135134
0.0135032
0.0134973
0.0134949
0.0134954
0.0134983
0.0135033
0.0135102
0.0135188
0.013529
0.0135405
0.0135533
0.013567
0.0135814
0.0135964
0.0136117
0.013627
0.0136422
0.0136569
0.013671
0.0136843
0.0136965
0.0137075
0.0137171
0.0137251
0.0137315
0.0137362
0.0137389
0.0137398
0.0137388
0.013736
0.0137313
0.0137248
0.0137166
0.0137069
0.0136958
0.0136836
0.0136704
0.0136565
0.0136424
0.0136284
0.0136156
0.0136049
0.0135976
0.0135936
0.0135901
0.0133509
0.0133367
0.0133173
0.0132984
0.0132835
0.0132734
0.0132676
0.0132652
0.0132657
0.0132684
0.0132732
0.0132799
0.0132883
0.0132981
0.0133093
0.0133217
0.0133351
0.0133492
0.0133638
0.0133787
0.0133936
0.0134084
0.0134228
0.0134366
0.0134496
0.0134616
0.0134723
0.0134817
0.0134897
0.013496
0.0135006
0.0135033
0.0135043
0.0135034
0.0135007
0.0134961
0.0134899
0.013482
0.0134725
0.0134618
0.0134498
0.013437
0.0134235
0.0134097
0.0133961
0.0133836
0.0133731
0.013366
0.0133621
0.0133587
0.0131385
0.0131246
0.0131056
0.0130869
0.0130723
0.0130624
0.0130566
0.0130543
0.0130547
0.0130573
0.013062
0.0130684
0.0130765
0.0130861
0.013097
0.0131091
0.013122
0.0131358
0.01315
0.0131645
0.0131791
0.0131936
0.0132077
0.0132212
0.0132339
0.0132456
0.0132562
0.0132654
0.0132732
0.0132795
0.013284
0.0132868
0.0132878
0.013287
0.0132844
0.01328
0.013274
0.0132663
0.0132571
0.0132467
0.0132351
0.0132225
0.0132093
0.0131959
0.0131826
0.0131704
0.0131602
0.0131533
0.0131495
0.0131461
0.0129438
0.0129301
0.0129114
0.0128931
0.0128787
0.012869
0.0128633
0.0128609
0.0128613
0.0128638
0.0128683
0.0128745
0.0128824
0.0128917
0.0129023
0.012914
0.0129267
0.01294
0.0129539
0.0129681
0.0129824
0.0129965
0.0130103
0.0130235
0.0130359
0.0130474
0.0130578
0.0130669
0.0130746
0.0130807
0.0130852
0.013088
0.0130891
0.0130884
0.0130859
0.0130817
0.0130758
0.0130684
0.0130595
0.0130494
0.013038
0.0130258
0.0130129
0.0129998
0.0129868
0.0129749
0.0129649
0.0129582
0.0129545
0.0129512
0.0127655
0.0127522
0.0127338
0.0127158
0.0127017
0.012692
0.0126864
0.0126841
0.0126843
0.0126868
0.0126911
0.0126971
0.0127048
0.0127138
0.0127241
0.0127355
0.0127478
0.0127609
0.0127744
0.0127883
0.0128022
0.012816
0.0128295
0.0128424
0.0128546
0.0128659
0.0128761
0.012885
0.0128926
0.0128987
0.0129032
0.012906
0.0129071
0.0129064
0.0129041
0.0129001
0.0128944
0.0128872
0.0128786
0.0128687
0.0128576
0.0128457
0.0128332
0.0128203
0.0128077
0.012796
0.0127862
0.0127796
0.012776
0.0127729
0.0126029
0.0125898
0.0125717
0.012554
0.0125401
0.0125306
0.0125251
0.0125227
0.0125229
0.0125252
0.0125294
0.0125353
0.0125427
0.0125515
0.0125615
0.0125726
0.0125846
0.0125973
0.0126105
0.0126241
0.0126377
0.0126512
0.0126644
0.0126771
0.012689
0.0127001
0.0127101
0.0127189
0.0127264
0.0127324
0.0127368
0.0127396
0.0127408
0.0127402
0.012738
0.0127341
0.0127287
0.0127217
0.0127133
0.0127037
0.0126929
0.0126813
0.012669
0.0126565
0.0126441
0.0126327
0.0126231
0.0126167
0.0126132
0.0126101
0.0124549
0.0124421
0.0124243
0.0124069
0.0123932
0.0123839
0.0123784
0.012376
0.0123762
0.0123784
0.0123824
0.0123881
0.0123952
0.0124038
0.0124135
0.0124244
0.0124361
0.0124485
0.0124614
0.0124746
0.0124879
0.0125011
0.012514
0.0125265
0.0125382
0.0125491
0.0125589
0.0125676
0.0125749
0.0125809
0.0125853
0.0125881
0.0125893
0.0125889
0.0125867
0.012583
0.0125777
0.012571
0.0125628
0.0125534
0.0125429
0.0125316
0.0125196
0.0125074
0.0124952
0.0124841
0.0124747
0.0124684
0.012465
0.012462
0.0123208
0.0123082
0.0122908
0.0122737
0.0122601
0.0122509
0.0122455
0.0122432
0.0122432
0.0122453
0.0122492
0.0122547
0.0122617
0.01227
0.0122795
0.01229
0.0123014
0.0123135
0.0123261
0.0123391
0.0123521
0.012365
0.0123777
0.0123898
0.0124014
0.012412
0.0124217
0.0124302
0.0124375
0.0124434
0.0124478
0.0124506
0.0124518
0.0124515
0.0124495
0.0124459
0.0124408
0.0124342
0.0124263
0.0124172
0.0124069
0.0123959
0.0123842
0.0123722
0.0123603
0.0123494
0.0123402
0.0123341
0.0123308
0.0123278
0.0121999
0.0121875
0.0121704
0.0121535
0.0121402
0.0121311
0.0121258
0.0121234
0.0121234
0.0121254
0.0121292
0.0121345
0.0121413
0.0121493
0.0121586
0.0121688
0.01218
0.0121918
0.0122041
0.0122167
0.0122295
0.0122421
0.0122545
0.0122665
0.0122778
0.0122883
0.0122978
0.0123062
0.0123134
0.0123192
0.0123235
0.0123264
0.0123277
0.0123274
0.0123255
0.0123221
0.0123171
0.0123107
0.012303
0.0122941
0.0122842
0.0122734
0.0122619
0.0122502
0.0122386
0.0122279
0.0122189
0.0122129
0.0122097
0.0122067
0.0120915
0.0120793
0.0120625
0.0120459
0.0120328
0.0120238
0.0120185
0.0120161
0.0120161
0.012018
0.0120216
0.0120268
0.0120333
0.0120412
0.0120502
0.0120602
0.012071
0.0120826
0.0120946
0.0121069
0.0121194
0.0121318
0.012144
0.0121557
0.0121668
0.0121771
0.0121864
0.0121947
0.0122018
0.0122076
0.0122119
0.0122148
0.0122161
0.0122159
0.0122141
0.0122108
0.012206
0.0121999
0.0121924
0.0121837
0.012174
0.0121635
0.0121523
0.0121408
0.0121294
0.0121189
0.0121102
0.0121042
0.0121011
0.0120982
0.0119949
0.011983
0.0119664
0.0119501
0.0119372
0.0119283
0.0119231
0.0119207
0.0119206
0.0119224
0.0119259
0.0119309
0.0119372
0.0119449
0.0119536
0.0119634
0.011974
0.0119853
0.011997
0.0120091
0.0120213
0.0120335
0.0120454
0.0120569
0.0120677
0.0120779
0.0120871
0.0120953
0.0121023
0.012108
0.0121123
0.0121151
0.0121165
0.0121164
0.0121147
0.0121116
0.012107
0.012101
0.0120937
0.0120852
0.0120758
0.0120655
0.0120545
0.0120433
0.0120322
0.0120219
0.0120133
0.0120075
0.0120044
0.0120015
0.0119097
0.0118981
0.0118817
0.0118657
0.0118529
0.0118442
0.011839
0.0118366
0.0118365
0.0118382
0.0118415
0.0118464
0.0118525
0.0118599
0.0118685
0.011878
0.0118883
0.0118993
0.0119108
0.0119226
0.0119346
0.0119465
0.0119582
0.0119694
0.0119802
0.0119901
0.0119992
0.0120073
0.0120142
0.0120198
0.0120241
0.012027
0.0120284
0.0120284
0.0120268
0.0120238
0.0120193
0.0120135
0.0120064
0.0119982
0.011989
0.0119789
0.0119682
0.0119572
0.0119464
0.0119363
0.0119278
0.0119221
0.0119191
0.0119162
0.0118354
0.0118239
0.0118079
0.0117921
0.0117795
0.0117709
0.0117658
0.0117634
0.0117632
0.0117648
0.011768
0.0117726
0.0117786
0.0117859
0.0117942
0.0118034
0.0118135
0.0118243
0.0118355
0.0118471
0.0118588
0.0118704
0.0118819
0.011893
0.0119035
0.0119133
0.0119222
0.0119302
0.011937
0.0119426
0.0119469
0.0119498
0.0119512
0.0119513
0.0119498
0.0119469
0.0119426
0.011937
0.0119301
0.0119221
0.0119131
0.0119033
0.0118928
0.0118821
0.0118714
0.0118615
0.0118532
0.0118476
0.0118446
0.0118418
0.0117715
0.0117602
0.0117444
0.0117288
0.0117165
0.011708
0.0117029
0.0117005
0.0117002
0.0117017
0.0117048
0.0117093
0.0117151
0.0117221
0.0117302
0.0117393
0.0117491
0.0117596
0.0117706
0.0117819
0.0117934
0.0118048
0.0118161
0.0118269
0.0118373
0.0118469
0.0118557
0.0118636
0.0118703
0.0118759
0.0118801
0.0118831
0.0118846
0.0118847
0.0118833
0.0118805
0.0118764
0.0118709
0.0118642
0.0118564
0.0118476
0.011838
0.0118278
0.0118173
0.0118069
0.0117972
0.011789
0.0117835
0.0117806
0.0117778
0.0117175
0.0117064
0.0116909
0.0116756
0.0116634
0.011655
0.0116499
0.0116475
0.0116472
0.0116486
0.0116516
0.0116559
0.0116616
0.0116684
0.0116763
0.0116851
0.0116947
0.0117049
0.0117157
0.0117268
0.011738
0.0117492
0.0117602
0.0117709
0.0117811
0.0117906
0.0117993
0.011807
0.0118137
0.0118192
0.0118234
0.0118264
0.0118279
0.0118281
0.0118268
0.0118242
0.0118202
0.0118149
0.0118084
0.0118008
0.0117922
0.0117829
0.0117729
0.0117626
0.0117523
0.0117428
0.0117348
0.0117294
0.0117265
0.0117237
0.0116731
0.0116623
0.011647
0.0116319
0.0116198
0.0116116
0.0116065
0.0116041
0.0116037
0.0116051
0.0116079
0.0116121
0.0116176
0.0116242
0.0116319
0.0116405
0.0116499
0.0116599
0.0116704
0.0116812
0.0116922
0.0117032
0.0117141
0.0117245
0.0117345
0.0117439
0.0117525
0.0117601
0.0117667
0.0117722
0.0117764
0.0117794
0.011781
0.0117812
0.01178
0.0117775
0.0117737
0.0117685
0.0117622
0.0117548
0.0117464
0.0117373
0.0117275
0.0117174
0.0117074
0.0116981
0.0116902
0.0116849
0.011682
0.0116793
0.011638
0.0116273
0.0116123
0.0115974
0.0115855
0.0115773
0.0115724
0.0115699
0.0115695
0.0115708
0.0115735
0.0115775
0.0115828
0.0115893
0.0115967
0.0116051
0.0116143
0.0116241
0.0116343
0.011645
0.0116557
0.0116665
0.0116771
0.0116875
0.0116973
0.0117065
0.011715
0.0117225
0.011729
0.0117345
0.0117387
0.0117417
0.0117433
0.0117436
0.0117425
0.0117401
0.0117364
0.0117315
0.0117253
0.0117181
0.0117099
0.011701
0.0116915
0.0116816
0.0116717
0.0116626
0.0116549
0.0116497
0.0116468
0.0116441
0.0116118
0.0116013
0.0115865
0.0115718
0.0115601
0.011552
0.0115471
0.0115446
0.0115442
0.0115453
0.0115479
0.0115519
0.011557
0.0115632
0.0115705
0.0115787
0.0115876
0.0115972
0.0116072
0.0116176
0.0116282
0.0116388
0.0116492
0.0116593
0.011669
0.0116781
0.0116864
0.0116939
0.0117003
0.0117057
0.0117099
0.0117129
0.0117146
0.011715
0.011714
0.0117117
0.0117081
0.0117033
0.0116974
0.0116904
0.0116824
0.0116737
0.0116643
0.0116547
0.011645
0.011636
0.0116285
0.0116233
0.0116205
0.0116178
0.0115941
0.0115838
0.0115693
0.0115548
0.0115433
0.0115353
0.0115304
0.0115279
0.0115274
0.0115285
0.011531
0.0115347
0.0115397
0.0115458
0.0115529
0.0115608
0.0115695
0.0115789
0.0115887
0.0115989
0.0116092
0.0116196
0.0116299
0.0116398
0.0116494
0.0116583
0.0116665
0.0116739
0.0116803
0.0116857
0.0116899
0.0116928
0.0116946
0.011695
0.0116941
0.011692
0.0116885
0.0116839
0.0116781
0.0116713
0.0116635
0.011655
0.0116458
0.0116364
0.0116269
0.0116181
0.0116107
0.0116056
0.0116028
0.0116001
0.0115848
0.0115747
0.0115604
0.0115461
0.0115348
0.0115269
0.011522
0.0115195
0.0115189
0.0115199
0.0115223
0.0115259
0.0115308
0.0115367
0.0115435
0.0115513
0.0115598
0.0115689
0.0115786
0.0115885
0.0115987
0.0116088
0.0116189
0.0116287
0.0116381
0.0116469
0.011655
0.0116623
0.0116686
0.011674
0.0116781
0.0116812
0.0116829
0.0116834
0.0116827
0.0116806
0.0116773
0.0116728
0.0116672
0.0116605
0.011653
0.0116446
0.0116357
0.0116264
0.0116171
0.0116085
0.0116012
0.0115962
0.0115934
0.0115907
0.0115836
0.0115736
0.0115595
0.0115455
0.0115343
0.0115265
0.0115216
0.0115192
0.0115185
0.0115194
0.0115217
0.0115252
0.0115299
0.0115356
0.0115423
0.0115498
0.0115581
0.0115671
0.0115765
0.0115862
0.0115962
0.0116062
0.0116161
0.0116257
0.0116349
0.0116436
0.0116516
0.0116588
0.0116651
0.0116704
0.0116746
0.0116776
0.0116794
0.01168
0.0116793
0.0116774
0.0116742
0.0116698
0.0116644
0.0116579
0.0116505
0.0116424
0.0116337
0.0116246
0.0116155
0.011607
0.0115998
0.0115949
0.0115922
0.0115894
0.0115902
0.0115804
0.0115665
0.0115527
0.0115417
0.0115339
0.0115291
0.0115266
0.0115259
0.0115268
0.0115289
0.0115323
0.0115368
0.0115423
0.0115489
0.0115562
0.0115643
0.011573
0.0115822
0.0115918
0.0116015
0.0116114
0.0116211
0.0116305
0.0116396
0.0116482
0.0116561
0.0116632
0.0116694
0.0116747
0.0116789
0.0116819
0.0116838
0.0116844
0.0116838
0.011682
0.011679
0.0116748
0.0116695
0.0116632
0.011656
0.011648
0.0116395
0.0116306
0.0116217
0.0116133
0.0116063
0.0116014
0.0115987
0.011596
0.0116044
0.0115948
0.0115812
0.0115676
0.0115566
0.011549
0.0115442
0.0115417
0.0115409
0.0115417
0.0115437
0.011547
0.0115513
0.0115567
0.011563
0.0115702
0.0115781
0.0115866
0.0115956
0.011605
0.0116145
0.0116242
0.0116337
0.011643
0.011652
0.0116604
0.0116682
0.0116753
0.0116814
0.0116867
0.0116908
0.0116939
0.0116958
0.0116965
0.011696
0.0116943
0.0116914
0.0116873
0.0116822
0.0116761
0.0116691
0.0116613
0.011653
0.0116442
0.0116355
0.0116273
0.0116204
0.0116156
0.0116129
0.0116101
0.0116261
0.0116166
0.0116032
0.0115898
0.011579
0.0115714
0.0115667
0.0115641
0.0115633
0.011564
0.0115659
0.0115691
0.0115733
0.0115785
0.0115846
0.0115916
0.0115993
0.0116077
0.0116165
0.0116256
0.011635
0.0116444
0.0116538
0.011663
0.0116718
0.0116801
0.0116878
0.0116948
0.0117009
0.0117061
0.0117103
0.0117134
0.0117153
0.0117161
0.0117157
0.0117141
0.0117113
0.0117074
0.0117024
0.0116964
0.0116896
0.011682
0.0116739
0.0116653
0.0116568
0.0116487
0.0116419
0.0116372
0.0116345
0.0116317
0.0116549
0.0116456
0.0116324
0.0116192
0.0116086
0.0116011
0.0115964
0.0115938
0.011593
0.0115935
0.0115954
0.0115984
0.0116024
0.0116075
0.0116135
0.0116203
0.0116278
0.0116359
0.0116445
0.0116535
0.0116627
0.0116719
0.0116811
0.0116901
0.0116988
0.011707
0.0117146
0.0117215
0.0117276
0.0117328
0.011737
0.0117401
0.0117421
0.0117429
0.0117426
0.0117411
0.0117384
0.0117347
0.0117298
0.0117241
0.0117174
0.01171
0.011702
0.0116937
0.0116853
0.0116774
0.0116707
0.011666
0.0116633
0.0116605
0.0116909
0.0116817
0.0116687
0.0116557
0.0116452
0.0116378
0.0116331
0.0116305
0.0116296
0.0116301
0.0116319
0.0116347
0.0116386
0.0116435
0.0116493
0.0116559
0.0116633
0.0116712
0.0116796
0.0116884
0.0116974
0.0117065
0.0117155
0.0117244
0.011733
0.011741
0.0117486
0.0117554
0.0117614
0.0117666
0.0117707
0.0117739
0.0117759
0.0117768
0.0117766
0.0117752
0.0117726
0.011769
0.0117644
0.0117587
0.0117523
0.0117451
0.0117372
0.0117291
0.0117208
0.0117131
0.0117065
0.0117019
0.0116992
0.0116964
0.0117337
0.0117247
0.0117119
0.0116991
0.0116887
0.0116814
0.0116767
0.0116741
0.0116732
0.0116736
0.0116752
0.0116779
0.0116817
0.0116864
0.0116921
0.0116985
0.0117057
0.0117134
0.0117216
0.0117302
0.0117391
0.011748
0.0117569
0.0117656
0.011774
0.011782
0.0117894
0.0117962
0.0118022
0.0118073
0.0118114
0.0118146
0.0118167
0.0118177
0.0118175
0.0118162
0.0118138
0.0118103
0.0118058
0.0118004
0.011794
0.011787
0.0117794
0.0117714
0.0117633
0.0117557
0.0117492
0.0117447
0.011742
0.0117392
0.0117832
0.0117744
0.0117618
0.0117492
0.011739
0.0117317
0.011727
0.0117244
0.0117234
0.0117238
0.0117253
0.0117279
0.0117315
0.0117361
0.0117416
0.0117478
0.0117548
0.0117624
0.0117704
0.0117788
0.0117875
0.0117962
0.011805
0.0118135
0.0118218
0.0118297
0.011837
0.0118437
0.0118497
0.0118548
0.0118589
0.0118621
0.0118642
0.0118653
0.0118652
0.011864
0.0118617
0.0118584
0.011854
0.0118487
0.0118426
0.0118357
0.0118283
0.0118204
0.0118125
0.011805
0.0117987
0.0117942
0.0117915
0.0117887
0.0118394
0.0118307
0.0118183
0.0118059
0.0117958
0.0117886
0.011784
0.0117813
0.0117803
0.0117805
0.011782
0.0117844
0.0117879
0.0117924
0.0117977
0.0118038
0.0118105
0.0118179
0.0118258
0.011834
0.0118425
0.0118511
0.0118597
0.0118681
0.0118763
0.011884
0.0118913
0.0118979
0.0119038
0.0119089
0.0119131
0.0119163
0.0119184
0.0119195
0.0119195
0.0119185
0.0119163
0.0119131
0.0119089
0.0119037
0.0118978
0.0118911
0.0118838
0.0118761
0.0118684
0.011861
0.0118548
0.0118503
0.0118476
0.0118448
0.011902
0.0118935
0.0118813
0.0118691
0.0118591
0.011852
0.0118474
0.0118447
0.0118436
0.0118438
0.0118451
0.0118475
0.0118508
0.0118551
0.0118602
0.0118661
0.0118728
0.01188
0.0118876
0.0118957
0.011904
0.0119124
0.0119209
0.0119292
0.0119372
0.0119449
0.011952
0.0119586
0.0119645
0.0119695
0.0119737
0.0119769
0.0119791
0.0119803
0.0119804
0.0119794
0.0119774
0.0119743
0.0119702
0.0119652
0.0119594
0.0119529
0.0119458
0.0119383
0.0119307
0.0119235
0.0119173
0.0119129
0.0119103
0.0119074
0.011971
0.0119626
0.0119506
0.0119386
0.0119288
0.0119217
0.0119171
0.0119144
0.0119133
0.0119134
0.0119146
0.0119168
0.01192
0.0119242
0.0119291
0.0119349
0.0119413
0.0119483
0.0119559
0.0119637
0.0119719
0.0119801
0.0119884
0.0119966
0.0120045
0.0120121
0.0120192
0.0120257
0.0120315
0.0120365
0.0120407
0.0120439
0.0120462
0.0120474
0.0120476
0.0120467
0.0120448
0.0120419
0.0120379
0.0120331
0.0120275
0.0120211
0.0120142
0.0120068
0.0119994
0.0119923
0.0119862
0.0119819
0.0119792
0.0119763
0.0120462
0.012038
0.0120262
0.0120144
0.0120046
0.0119977
0.0119931
0.0119904
0.0119892
0.0119892
0.0119903
0.0119924
0.0119955
0.0119995
0.0120043
0.0120099
0.0120161
0.012023
0.0120303
0.012038
0.012046
0.0120541
0.0120623
0.0120703
0.0120781
0.0120856
0.0120926
0.012099
0.0121048
0.0121098
0.012114
0.0121172
0.0121195
0.0121208
0.0121211
0.0121203
0.0121185
0.0121157
0.0121119
0.0121073
0.0121018
0.0120956
0.0120888
0.0120816
0.0120743
0.0120674
0.0120614
0.0120571
0.0120545
0.0120515
0.0121276
0.0121195
0.0121079
0.0120963
0.0120867
0.0120797
0.0120752
0.0120725