/*--------------------------------*- C++ -*----------------------------------*\
  =========                 |
  \\      /  F ield         | OpenFOAM: The Open Source CFD Toolbox
   \\    /   O peration     | Website:  https://openfoam.org
    \\  /    A nd           | Version:  13
     \\/     M anipulation  |
\*---------------------------------------------------------------------------*/
FoamFile
{
    format      ascii;
    class       volScalarField;
    location    "3600";
    object      k;
}
// * * * * * * * * * * * * * * * * * * * * * * * * * * * * * * * * * * * * * //

dimensions      [0 2 -2 0 0 0 0];

internalField   nonuniform List<scalar> 
25000
(
0.000132929
0.000132918
0.000132891
0.000132861
0.000132834
0.000132813
0.000132798
0.000132787
0.000132777
0.000132769
0.000132763
0.000132757
0.000132753
0.000132749
0.000132747
0.000132745
0.000132745
0.000132746
0.000132748
0.000132751
0.000132755
0.000132761
0.000132767
0.000132775
0.000132784
0.000132794
0.000132805
0.000132816
0.000132827
0.000132838
0.00013285
0.000132861
0.000132872
0.000132882
0.000132891
0.000132899
0.000132906
0.000132911
0.000132915
0.000132918
0.000132919
0.000132918
0.000132916
0.000132913
0.00013291
0.000132907
0.000132908
0.000132913
0.000132922
0.00013293
0.000398662
0.000398533
0.000398247
0.000397923
0.000397639
0.000397421
0.000397264
0.000397143
0.000397048
0.000396971
0.00039691
0.000396861
0.000396826
0.000396801
0.000396789
0.000396788
0.0003968
0.000396823
0.00039686
0.000396907
0.000396967
0.000397039
0.000397122
0.000397216
0.000397319
0.00039743
0.000397547
0.000397668
0.00039779
0.000397909
0.000398029
0.000398146
0.000398256
0.000398354
0.000398442
0.000398516
0.000398578
0.000398623
0.000398654
0.000398667
0.000398665
0.000398645
0.000398612
0.000398567
0.000398519
0.00039848
0.000398472
0.000398513
0.000398605
0.000398682
0.000760985
0.000760664
0.000760005
0.000759269
0.00075863
0.000758142
0.000757794
0.000757534
0.000757338
0.00075719
0.000757083
0.000757009
0.000756969
0.000756957
0.000756978
0.000757026
0.000757104
0.000757208
0.000757341
0.0007575
0.000757683
0.00075789
0.000758119
0.000758366
0.00075863
0.000758906
0.000759188
0.000759473
0.000759754
0.000760025
0.000760287
0.000760538
0.000760766
0.000760964
0.000761134
0.000761268
0.000761369
0.000761431
0.000761457
0.000761441
0.000761389
0.000761298
0.000761177
0.00076103
0.00076088
0.000760751
0.000760694
0.000760749
0.000760917
0.000761057
0.00112829
0.00112777
0.00112678
0.0011257
0.00112477
0.00112407
0.00112358
0.00112323
0.00112298
0.00112281
0.00112272
0.00112268
0.00112271
0.00112278
0.00112291
0.00112308
0.00112329
0.00112355
0.00112385
0.00112418
0.00112455
0.00112494
0.00112535
0.00112579
0.00112623
0.00112668
0.00112713
0.00112757
0.00112799
0.00112839
0.00112876
0.00112909
0.00112939
0.00112963
0.00112981
0.00112994
0.00113001
0.00113002
0.00112997
0.00112986
0.00112969
0.00112946
0.00112919
0.00112889
0.00112858
0.00112831
0.00112815
0.00112815
0.00112832
0.00112845
0.00143556
0.00143486
0.00143366
0.00143237
0.00143127
0.00143045
0.00142988
0.00142949
0.00142924
0.00142911
0.00142907
0.00142912
0.00142924
0.00142943
0.0014297
0.00143002
0.0014304
0.00143083
0.00143131
0.00143183
0.00143238
0.00143295
0.00143354
0.00143415
0.00143475
0.00143535
0.00143592
0.00143647
0.00143699
0.00143746
0.00143788
0.00143825
0.00143855
0.00143877
0.00143892
0.00143899
0.00143899
0.0014389
0.00143873
0.00143849
0.00143817
0.00143779
0.00143736
0.00143689
0.00143642
0.001436
0.00143572
0.00143563
0.00143573
0.00143581
0.00167253
0.0016717
0.00167036
0.00166894
0.00166774
0.00166686
0.00166625
0.00166586
0.00166564
0.00166555
0.00166558
0.00166571
0.00166593
0.00166624
0.00166663
0.00166709
0.00166762
0.00166821
0.00166884
0.00166952
0.00167022
0.00167095
0.00167168
0.00167242
0.00167314
0.00167384
0.00167451
0.00167514
0.00167571
0.00167622
0.00167667
0.00167704
0.00167732
0.00167751
0.00167761
0.00167761
0.00167752
0.00167734
0.00167706
0.00167669
0.00167624
0.00167573
0.00167515
0.00167454
0.00167394
0.00167339
0.00167299
0.00167281
0.00167285
0.00167286
0.00185353
0.00185261
0.00185117
0.00184967
0.00184841
0.00184748
0.00184686
0.00184647
0.00184627
0.00184622
0.00184631
0.00184651
0.00184681
0.00184722
0.00184771
0.00184829
0.00184894
0.00184965
0.00185041
0.0018512
0.00185203
0.00185287
0.00185372
0.00185455
0.00185537
0.00185615
0.00185689
0.00185757
0.00185818
0.00185872
0.00185918
0.00185954
0.0018598
0.00185996
0.00186002
0.00185996
0.0018598
0.00185953
0.00185916
0.00185869
0.00185814
0.00185751
0.00185683
0.00185611
0.0018554
0.00185475
0.00185426
0.00185401
0.00185398
0.00185393
0.00199545
0.00199445
0.00199294
0.00199137
0.00199006
0.0019891
0.00198846
0.00198807
0.00198789
0.00198787
0.001988
0.00198825
0.00198863
0.00198911
0.00198968
0.00199035
0.00199109
0.00199189
0.00199275
0.00199364
0.00199456
0.00199549
0.00199642
0.00199734
0.00199823
0.00199907
0.00199986
0.00200059
0.00200123
0.00200179
0.00200226
0.00200262
0.00200287
0.002003
0.00200302
0.00200292
0.0020027
0.00200237
0.00200193
0.00200139
0.00200075
0.00200004
0.00199926
0.00199846
0.00199766
0.00199694
0.00199638
0.00199606
0.00199599
0.0019959
0.00211092
0.00210986
0.00210828
0.00210665
0.00210529
0.0021043
0.00210365
0.00210326
0.00210309
0.0021031
0.00210326
0.00210356
0.00210398
0.00210452
0.00210516
0.00210589
0.0021067
0.00210758
0.00210851
0.00210948
0.00211048
0.00211148
0.00211248
0.00211346
0.00211441
0.0021153
0.00211614
0.0021169
0.00211757
0.00211815
0.00211863
0.00211899
0.00211923
0.00211934
0.00211934
0.0021192
0.00211894
0.00211856
0.00211807
0.00211746
0.00211676
0.00211598
0.00211514
0.00211427
0.0021134
0.00211262
0.002112
0.00211164
0.00211153
0.00211142
0.00220826
0.00220715
0.00220551
0.00220382
0.00220242
0.0022014
0.00220073
0.00220034
0.00220018
0.00220021
0.00220039
0.00220072
0.00220118
0.00220177
0.00220246
0.00220325
0.00220412
0.00220506
0.00220605
0.00220708
0.00220814
0.00220921
0.00221026
0.00221129
0.00221229
0.00221323
0.0022141
0.00221489
0.00221559
0.00221619
0.00221667
0.00221703
0.00221727
0.00221738
0.00221735
0.00221719
0.0022169
0.00221648
0.00221594
0.00221529
0.00221454
0.0022137
0.0022128
0.00221187
0.00221095
0.00221012
0.00220946
0.00220906
0.00220892
0.00220879
0.00229279
0.00229163
0.00228994
0.0022882
0.00228675
0.0022857
0.00228502
0.00228463
0.00228447
0.00228451
0.00228472
0.00228507
0.00228557
0.00228619
0.00228692
0.00228775
0.00228867
0.00228966
0.00229071
0.0022918
0.0022929
0.00229402
0.00229512
0.0022962
0.00229724
0.00229821
0.00229912
0.00229994
0.00230066
0.00230128
0.00230177
0.00230214
0.00230237
0.00230247
0.00230243
0.00230225
0.00230193
0.00230148
0.00230091
0.00230022
0.00229942
0.00229854
0.0022976
0.00229662
0.00229565
0.00229477
0.00229407
0.00229365
0.0022935
0.00229334
0.00236797
0.00236677
0.00236502
0.00236323
0.00236175
0.00236068
0.00235998
0.00235958
0.00235943
0.00235948
0.0023597
0.00236008
0.0023606
0.00236125
0.00236202
0.00236289
0.00236385
0.00236488
0.00236597
0.00236711
0.00236826
0.00236942
0.00237056
0.00237168
0.00237275
0.00237377
0.0023747
0.00237555
0.00237629
0.00237692
0.00237743
0.0023778
0.00237803
0.00237813
0.00237808
0.00237788
0.00237754
0.00237707
0.00237646
0.00237574
0.00237491
0.00237399
0.002373
0.00237198
0.00237098
0.00237006
0.00236933
0.00236889
0.00236871
0.00236855
0.00243613
0.0024349
0.0024331
0.00243127
0.00242975
0.00242865
0.00242793
0.00242753
0.00242738
0.00242744
0.00242767
0.00242807
0.00242861
0.00242929
0.00243009
0.002431
0.00243199
0.00243306
0.00243419
0.00243536
0.00243655
0.00243775
0.00243893
0.00244009
0.00244119
0.00244224
0.0024432
0.00244407
0.00244483
0.00244548
0.00244599
0.00244637
0.00244661
0.0024467
0.00244664
0.00244643
0.00244608
0.00244558
0.00244495
0.0024442
0.00244334
0.00244238
0.00244136
0.00244031
0.00243926
0.00243832
0.00243756
0.0024371
0.00243691
0.00243673
0.00249891
0.00249764
0.0024958
0.00249392
0.00249236
0.00249124
0.00249051
0.0024901
0.00248995
0.00249002
0.00249026
0.00249067
0.00249124
0.00249194
0.00249276
0.0024937
0.00249473
0.00249583
0.00249699
0.0024982
0.00249942
0.00250066
0.00250187
0.00250306
0.0025042
0.00250527
0.00250625
0.00250715
0.00250793
0.00250859
0.00250912
0.0025095
0.00250974
0.00250983
0.00250976
0.00250954
0.00250918
0.00250866
0.00250801
0.00250723
0.00250634
0.00250536
0.00250431
0.00250322
0.00250214
0.00250117
0.00250039
0.00249991
0.00249971
0.00249952
0.00255746
0.00255616
0.00255428
0.00255236
0.00255077
0.00254962
0.00254888
0.00254847
0.00254831
0.00254838
0.00254864
0.00254906
0.00254964
0.00255036
0.00255121
0.00255217
0.00255323
0.00255436
0.00255555
0.00255679
0.00255805
0.00255931
0.00256056
0.00256178
0.00256294
0.00256404
0.00256505
0.00256596
0.00256676
0.00256743
0.00256797
0.00256837
0.00256861
0.0025687
0.00256863
0.0025684
0.00256802
0.00256749
0.00256682
0.00256602
0.0025651
0.00256409
0.00256301
0.00256189
0.00256079
0.00255979
0.00255899
0.00255849
0.00255829
0.00255809
0.00261265
0.00261133
0.00260941
0.00260745
0.00260583
0.00260466
0.0026039
0.00260348
0.00260333
0.0026034
0.00260366
0.0026041
0.0026047
0.00260544
0.00260631
0.00260729
0.00260837
0.00260953
0.00261075
0.00261201
0.0026133
0.00261459
0.00261587
0.00261711
0.0026183
0.00261942
0.00262046
0.00262139
0.0026222
0.00262289
0.00262344
0.00262384
0.00262409
0.00262418
0.0026241
0.00262387
0.00262347
0.00262293
0.00262224
0.00262143
0.00262049
0.00261946
0.00261835
0.0026172
0.00261608
0.00261505
0.00261423
0.00261372
0.00261351
0.0026133
0.00266516
0.00266381
0.00266185
0.00265985
0.00265821
0.00265702
0.00265625
0.00265582
0.00265566
0.00265574
0.00265601
0.00265646
0.00265706
0.00265782
0.00265871
0.00265971
0.00266081
0.002662
0.00266324
0.00266453
0.00266585
0.00266717
0.00266847
0.00266974
0.00267095
0.00267209
0.00267315
0.0026741
0.00267493
0.00267563
0.00267619
0.0026766
0.00267685
0.00267694
0.00267686
0.00267662
0.00267622
0.00267566
0.00267496
0.00267412
0.00267317
0.00267211
0.00267098
0.00266981
0.00266866
0.00266761
0.00266677
0.00266625
0.00266603
0.00266583
0.00271549
0.00271411
0.00271212
0.00271009
0.00270841
0.0027072
0.00270642
0.00270599
0.00270583
0.00270591
0.00270618
0.00270664
0.00270726
0.00270803
0.00270893
0.00270995
0.00271108
0.00271228
0.00271355
0.00271487
0.00271621
0.00271755
0.00271887
0.00272017
0.0027214
0.00272257
0.00272364
0.00272461
0.00272545
0.00272617
0.00272674
0.00272715
0.00272741
0.0027275
0.00272742
0.00272718
0.00272677
0.0027262
0.00272548
0.00272463
0.00272366
0.00272258
0.00272143
0.00272024
0.00271907
0.002718
0.00271714
0.00271661
0.00271639
0.00271617
0.00276406
0.00276266
0.00276064
0.00275857
0.00275687
0.00275564
0.00275484
0.0027544
0.00275424
0.00275432
0.0027546
0.00275506
0.00275569
0.00275648
0.0027574
0.00275843
0.00275958
0.0027608
0.00276209
0.00276343
0.00276479
0.00276616
0.0027675
0.00276882
0.00277007
0.00277126
0.00277235
0.00277333
0.0027742
0.00277492
0.0027755
0.00277593
0.00277618
0.00277628
0.0027762
0.00277595
0.00277553
0.00277496
0.00277423
0.00277336
0.00277237
0.00277128
0.00277011
0.0027689
0.0027677
0.00276662
0.00276574
0.0027652
0.00276497
0.00276475
0.0028112
0.00280977
0.00280772
0.00280562
0.00280389
0.00280265
0.00280184
0.00280139
0.00280123
0.00280131
0.00280159
0.00280206
0.0028027
0.0028035
0.00280443
0.00280548
0.00280664
0.00280789
0.0028092
0.00281055
0.00281193
0.00281332
0.00281469
0.00281602
0.0028173
0.0028185
0.00281961
0.00282061
0.00282149
0.00282223
0.00282282
0.00282325
0.00282351
0.00282361
0.00282353
0.00282327
0.00282285
0.00282227
0.00282153
0.00282065
0.00281964
0.00281853
0.00281734
0.00281612
0.0028149
0.0028138
0.00281291
0.00281236
0.00281213
0.0028119
0.00285718
0.00285573
0.00285365
0.00285153
0.00284977
0.0028485
0.00284769
0.00284723
0.00284707
0.00284715
0.00284743
0.00284791
0.00284856
0.00284936
0.00285031
0.00285137
0.00285255
0.00285381
0.00285514
0.00285651
0.00285791
0.00285932
0.00286071
0.00286206
0.00286336
0.00286458
0.00286571
0.00286672
0.00286761
0.00286836
0.00286896
0.0028694
0.00286967
0.00286976
0.00286968
0.00286943
0.002869
0.00286841
0.00286766
0.00286677
0.00286575
0.00286463
0.00286342
0.00286217
0.00286094
0.00285982
0.00285892
0.00285836
0.00285812
0.00285789
0.00290223
0.00290077
0.00289866
0.0028965
0.00289472
0.00289344
0.00289261
0.00289215
0.00289198
0.00289206
0.00289235
0.00289283
0.00289349
0.0028943
0.00289526
0.00289634
0.00289753
0.0028988
0.00290015
0.00290154
0.00290296
0.00290438
0.00290579
0.00290716
0.00290848
0.00290971
0.00291086
0.00291189
0.00291279
0.00291355
0.00291416
0.0029146
0.00291488
0.00291498
0.0029149
0.00291464
0.00291421
0.00291361
0.00291286
0.00291195
0.00291092
0.00290978
0.00290856
0.0029073
0.00290605
0.00290492
0.002904
0.00290343
0.00290319
0.00290296
0.00294655
0.00294507
0.00294293
0.00294075
0.00293895
0.00293765
0.00293681
0.00293634
0.00293617
0.00293625
0.00293654
0.00293703
0.00293769
0.00293851
0.00293947
0.00294057
0.00294177
0.00294306
0.00294442
0.00294583
0.00294727
0.00294871
0.00295013
0.00295152
0.00295285
0.0029541
0.00295526
0.00295631
0.00295722
0.00295799
0.00295861
0.00295906
0.00295934
0.00295944
0.00295937
0.00295911
0.00295867
0.00295807
0.00295731
0.0029564
0.00295535
0.0029542
0.00295296
0.00295169
0.00295043
0.00294927
0.00294835
0.00294777
0.00294753
0.00294729
0.0029903
0.0029888
0.00298664
0.00298444
0.00298261
0.0029813
0.00298045
0.00297997
0.0029798
0.00297987
0.00298017
0.00298066
0.00298132
0.00298215
0.00298313
0.00298423
0.00298544
0.00298675
0.00298812
0.00298955
0.002991
0.00299246
0.0029939
0.0029953
0.00299665
0.00299792
0.00299909
0.00300015
0.00300107
0.00300186
0.00300248
0.00300294
0.00300323
0.00300333
0.00300325
0.003003
0.00300256
0.00300195
0.00300118
0.00300026
0.00299921
0.00299804
0.00299679
0.0029955
0.00299423
0.00299306
0.00299213
0.00299154
0.00299129
0.00299105
0.00303363
0.00303212
0.00302993
0.0030277
0.00302586
0.00302453
0.00302366
0.00302318
0.003023
0.00302308
0.00302337
0.00302387
0.00302454
0.00302537
0.00302635
0.00302747
0.00302869
0.00303001
0.0030314
0.00303284
0.0030343
0.00303578
0.00303723
0.00303865
0.00304001
0.0030413
0.00304248
0.00304355
0.00304449
0.00304528
0.00304592
0.00304638
0.00304668
0.00304678
0.00304671
0.00304645
0.00304601
0.0030454
0.00304462
0.0030437
0.00304263
0.00304146
0.0030402
0.00303889
0.0030376
0.00303643
0.00303548
0.00303489
0.00303463
0.00303438
0.00307666
0.00307513
0.00307292
0.00307067
0.00306881
0.00306746
0.00306659
0.0030661
0.00306592
0.00306599
0.00306629
0.00306678
0.00306745
0.0030683
0.00306929
0.00307041
0.00307164
0.00307297
0.00307437
0.00307582
0.0030773
0.00307879
0.00308026
0.00308169
0.00308307
0.00308437
0.00308556
0.00308665
0.0030876
0.0030884
0.00308904
0.00308952
0.00308981
0.00308993
0.00308985
0.0030896
0.00308916
0.00308854
0.00308776
0.00308682
0.00308575
0.00308457
0.00308329
0.00308198
0.00308068
0.00307949
0.00307853
0.00307794
0.00307768
0.00307742
0.0031195
0.00311796
0.00311573
0.00311345
0.00311157
0.00311021
0.00310933
0.00310884
0.00310865
0.00310872
0.00310901
0.00310951
0.00311019
0.00311103
0.00311203
0.00311316
0.0031144
0.00311574
0.00311715
0.00311862
0.00312011
0.00312161
0.00312309
0.00312454
0.00312593
0.00312724
0.00312845
0.00312954
0.00313051
0.00313132
0.00313197
0.00313245
0.00313276
0.00313287
0.0031328
0.00313255
0.0031321
0.00313148
0.0031307
0.00312976
0.00312868
0.00312748
0.0031262
0.00312488
0.00312356
0.00312236
0.0031214
0.00312079
0.00312053
0.00312027
0.00316225
0.00316069
0.00315845
0.00315615
0.00315425
0.00315288
0.00315199
0.00315149
0.0031513
0.00315136
0.00315166
0.00315215
0.00315283
0.00315368
0.00315469
0.00315582
0.00315708
0.00315842
0.00315984
0.00316132
0.00316282
0.00316433
0.00316583
0.00316729
0.00316869
0.00317002
0.00317124
0.00317234
0.00317332
0.00317414
0.0031748
0.00317529
0.0031756
0.00317572
0.00317565
0.0031754
0.00317495
0.00317433
0.00317354
0.0031726
0.00317151
0.00317031
0.00316902
0.00316768
0.00316636
0.00316515
0.00316417
0.00316356
0.00316329
0.00316303
0.00320499
0.00320343
0.00320117
0.00319885
0.00319694
0.00319555
0.00319465
0.00319414
0.00319394
0.00319401
0.0031943
0.0031948
0.00319548
0.00319634
0.00319734
0.00319849
0.00319974
0.0032011
0.00320253
0.00320402
0.00320553
0.00320705
0.00320856
0.00321003
0.00321145
0.00321278
0.00321402
0.00321513
0.00321612
0.00321695
0.00321762
0.00321811
0.00321843
0.00321855
0.00321849
0.00321824
0.00321779
0.00321717
0.00321638
0.00321543
0.00321434
0.00321313
0.00321183
0.00321048
0.00320915
0.00320793
0.00320695
0.00320633
0.00320606
0.00320579
0.00324782
0.00324625
0.00324397
0.00324163
0.0032397
0.0032383
0.00323739
0.00323688
0.00323668
0.00323674
0.00323703
0.00323753
0.00323821
0.00323907
0.00324008
0.00324123
0.00324249
0.00324385
0.00324529
0.00324679
0.00324831
0.00324985
0.00325137
0.00325285
0.00325427
0.00325562
0.00325687
0.00325799
0.00325898
0.00325983
0.0032605
0.00326101
0.00326133
0.00326146
0.0032614
0.00326115
0.0032607
0.00326008
0.00325928
0.00325833
0.00325723
0.00325602
0.00325471
0.00325335
0.00325201
0.00325079
0.0032498
0.00324917
0.0032489
0.00324862
0.0032908
0.00328921
0.00328692
0.00328457
0.00328262
0.00328121
0.00328029
0.00327977
0.00327956
0.00327962
0.00327991
0.00328041
0.00328109
0.00328195
0.00328296
0.00328412
0.00328539
0.00328676
0.0032882
0.00328971
0.00329124
0.00329278
0.00329431
0.00329581
0.00329724
0.0032986
0.00329986
0.00330099
0.003302
0.00330285
0.00330353
0.00330404
0.00330437
0.00330451
0.00330445
0.0033042
0.00330376
0.00330313
0.00330234
0.00330138
0.00330028
0.00329906
0.00329774
0.00329638
0.00329503
0.00329379
0.0032928
0.00329217
0.00329189
0.00329161
0.00333399
0.0033324
0.00333009
0.00332772
0.00332576
0.00332434
0.00332341
0.00332288
0.00332267
0.00332272
0.00332301
0.00332351
0.00332419
0.00332505
0.00332607
0.00332722
0.0033285
0.00332987
0.00333133
0.00333284
0.00333438
0.00333593
0.00333747
0.00333898
0.00334042
0.00334179
0.00334305
0.0033442
0.00334521
0.00334607
0.00334677
0.00334729
0.00334762
0.00334776
0.00334771
0.00334746
0.00334702
0.0033464
0.0033456
0.00334464
0.00334353
0.00334231
0.00334099
0.00333962
0.00333826
0.00333702
0.00333601
0.00333538
0.00333509
0.00333481
0.00337746
0.00337586
0.00337353
0.00337115
0.00336918
0.00336775
0.00336681
0.00336627
0.00336606
0.00336611
0.00336639
0.00336688
0.00336757
0.00336843
0.00336945
0.00337061
0.00337189
0.00337327
0.00337473
0.00337624
0.00337779
0.00337935
0.0033809
0.00338242
0.00338387
0.00338525
0.00338652
0.00338768
0.0033887
0.00338957
0.00339027
0.0033908
0.00339114
0.00339128
0.00339123
0.00339099
0.00339055
0.00338993
0.00338913
0.00338817
0.00338706
0.00338583
0.0033845
0.00338313
0.00338177
0.00338052
0.00337951
0.00337887
0.00337858
0.00337828
0.00342126
0.00341965
0.00341732
0.00341492
0.00341294
0.00341149
0.00341055
0.00341
0.00340978
0.00340983
0.00341011
0.0034106
0.00341128
0.00341214
0.00341316
0.00341432
0.00341561
0.00341699
0.00341846
0.00341998
0.00342154
0.00342311
0.00342466
0.00342618
0.00342765
0.00342903
0.00343032
0.00343149
0.00343251
0.00343339
0.0034341
0.00343463
0.00343498
0.00343513
0.00343509
0.00343485
0.00343441
0.00343379
0.00343299
0.00343203
0.00343092
0.00342969
0.00342835
0.00342697
0.0034256
0.00342435
0.00342333
0.00342269
0.0034224
0.00342209
0.00346545
0.00346383
0.00346149
0.00345908
0.00345708
0.00345563
0.00345467
0.00345412
0.0034539
0.00345394
0.00345422
0.00345471
0.00345539
0.00345625
0.00345727
0.00345843
0.00345971
0.0034611
0.00346257
0.0034641
0.00346566
0.00346724
0.0034688
0.00347033
0.0034718
0.0034732
0.00347449
0.00347567
0.00347671
0.00347759
0.00347831
0.00347885
0.0034792
0.00347936
0.00347932
0.00347908
0.00347865
0.00347803
0.00347723
0.00347627
0.00347516
0.00347392
0.00347259
0.0034712
0.00346983
0.00346857
0.00346754
0.0034669
0.0034666
0.00346629
0.00351008
0.00350845
0.00350609
0.00350368
0.00350167
0.0035002
0.00349924
0.00349868
0.00349845
0.00349849
0.00349876
0.00349925
0.00349993
0.00350078
0.0035018
0.00350297
0.00350425
0.00350565
0.00350712
0.00350865
0.00351022
0.0035118
0.00351337
0.00351491
0.00351639
0.00351779
0.00351909
0.00352028
0.00352132
0.00352222
0.00352294
0.00352349
0.00352385
0.00352401
0.00352398
0.00352375
0.00352332
0.0035227
0.0035219
0.00352094
0.00351983
0.00351859
0.00351725
0.00351586
0.00351448
0.00351322
0.00351219
0.00351154
0.00351123
0.00351092
0.00355518
0.00355355
0.00355118
0.00354875
0.00354673
0.00354526
0.00354429
0.00354373
0.00354349
0.00354352
0.00354379
0.00354427
0.00354495
0.00354581
0.00354682
0.00354799
0.00354927
0.00355067
0.00355214
0.00355368
0.00355525
0.00355684
0.00355842
0.00355996
0.00356145
0.00356286
0.00356417
0.00356536
0.00356641
0.00356731
0.00356805
0.0035686
0.00356897
0.00356914
0.00356911
0.00356888
0.00356846
0.00356785
0.00356705
0.00356609
0.00356498
0.00356374
0.0035624
0.003561
0.00355962
0.00355835
0.00355732
0.00355666
0.00355635
0.00355603
0.00360081
0.00359917
0.0035968
0.00359436
0.00359233
0.00359085
0.00358987
0.0035893
0.00358905
0.00358908
0.00358934
0.00358982
0.0035905
0.00359135
0.00359237
0.00359353
0.00359482
0.00359621
0.00359769
0.00359923
0.0036008
0.0036024
0.00360398
0.00360553
0.00360702
0.00360844
0.00360976
0.00361096
0.00361202
0.00361293
0.00361367
0.00361423
0.00361461
0.00361478
0.00361476
0.00361454
0.00361412
0.00361351
0.00361271
0.00361175
0.00361064
0.0036094
0.00360806
0.00360666
0.00360528
0.003604
0.00360297
0.00360231
0.00360199
0.00360167
0.003647
0.00364536
0.00364298
0.00364053
0.00363849
0.003637
0.00363602
0.00363544
0.00363519
0.00363521
0.00363547
0.00363594
0.00363661
0.00363746
0.00363848
0.00363964
0.00364092
0.00364232
0.0036438
0.00364534
0.00364692
0.00364851
0.0036501
0.00365166
0.00365316
0.00365458
0.00365591
0.00365711
0.00365818
0.0036591
0.00365985
0.00366042
0.0036608
0.00366098
0.00366097
0.00366075
0.00366033
0.00365973
0.00365894
0.00365798
0.00365687
0.00365563
0.00365429
0.00365289
0.0036515
0.00365022
0.00364918
0.00364852
0.0036482
0.00364786
0.00369379
0.00369215
0.00368976
0.00368731
0.00368526
0.00368376
0.00368277
0.00368219
0.00368193
0.00368194
0.0036822
0.00368266
0.00368333
0.00368418
0.00368519
0.00368635
0.00368763
0.00368903
0.00369051
0.00369205
0.00369363
0.00369523
0.00369682
0.00369838
0.00369989
0.00370132
0.00370265
0.00370387
0.00370494
0.00370587
0.00370662
0.0037072
0.00370759
0.00370778
0.00370777
0.00370756
0.00370715
0.00370655
0.00370576
0.0037048
0.00370369
0.00370245
0.00370111
0.00369971
0.00369832
0.00369704
0.003696
0.00369533
0.00369501
0.00369466
0.00374123
0.00373958
0.00373719
0.00373473
0.00373268
0.00373117
0.00373017
0.00372958
0.00372931
0.00372932
0.00372957
0.00373003
0.00373069
0.00373153
0.00373254
0.0037337
0.00373498
0.00373638
0.00373785
0.0037394
0.00374098
0.00374258
0.00374418
0.00374574
0.00374725
0.00374869
0.00375003
0.00375125
0.00375233
0.00375327
0.00375403
0.00375461
0.00375501
0.00375521
0.0037552
0.003755
0.00375459
0.003754
0.00375322
0.00375226
0.00375116
0.00374992
0.00374858
0.00374718
0.00374578
0.0037445
0.00374345
0.00374278
0.00374245
0.0037421
0.00378933
0.00378768
0.00378529
0.00378283
0.00378077
0.00377925
0.00377825
0.00377765
0.00377737
0.00377738
0.00377762
0.00377807
0.00377873
0.00377957
0.00378057
0.00378172
0.00378301
0.0037844
0.00378588
0.00378742
0.003789
0.00379061
0.00379221
0.00379377
0.00379529
0.00379673
0.00379807
0.0037993
0.00380039
0.00380133
0.0038021
0.0038027
0.0038031
0.0038033
0.00380331
0.00380311
0.00380271
0.00380212
0.00380134
0.00380039
0.00379929
0.00379805
0.00379671
0.00379531
0.00379392
0.00379264
0.00379159
0.00379091
0.00379058
0.00379022
0.00383815
0.0038365
0.0038341
0.00383164
0.00382957
0.00382805
0.00382703
0.00382643
0.00382615
0.00382614
0.00382638
0.00382683
0.00382748
0.00382831
0.00382931
0.00383046
0.00383174
0.00383313
0.0038346
0.00383615
0.00383773
0.00383934
0.00384094
0.00384251
0.00384403
0.00384547
0.00384682
0.00384806
0.00384915
0.0038501
0.00385088
0.00385148
0.00385189
0.0038521
0.00385211
0.00385192
0.00385153
0.00385094
0.00385017
0.00384923
0.00384813
0.00384689
0.00384556
0.00384416
0.00384276
0.00384148
0.00384043
0.00383975
0.00383941
0.00383904
0.00388771
0.00388606
0.00388366
0.00388119
0.00387912
0.00387759
0.00387657
0.00387596
0.00387567
0.00387566
0.00387588
0.00387633
0.00387697
0.0038778
0.00387879
0.00387993
0.00388121
0.00388259
0.00388407
0.00388561
0.0038872
0.0038888
0.0038904
0.00389198
0.0038935
0.00389495
0.00389631
0.00389755
0.00389865
0.0038996
0.00390039
0.003901
0.00390141
0.00390164
0.00390165
0.00390147
0.00390108
0.0039005
0.00389974
0.0038988
0.0038977
0.00389647
0.00389514
0.00389374
0.00389235
0.00389106
0.00389001
0.00388932
0.00388898
0.00388861
0.00393804
0.00393639
0.00393399
0.00393152
0.00392944
0.00392791
0.00392688
0.00392626
0.00392597
0.00392595
0.00392617
0.0039266
0.00392724
0.00392806
0.00392905
0.00393018
0.00393145
0.00393283
0.00393431
0.00393585
0.00393743
0.00393904
0.00394064
0.00394221
0.00394374
0.0039452
0.00394655
0.0039478
0.00394891
0.00394987
0.00395066
0.00395128
0.0039517
0.00395193
0.00395196
0.00395178
0.0039514
0.00395083
0.00395007
0.00394914
0.00394805
0.00394682
0.00394549
0.0039441
0.0039427
0.00394142
0.00394036
0.00393968
0.00393932
0.00393894
0.00398917
0.00398752
0.00398513
0.00398265
0.00398057
0.00397903
0.003978
0.00397737
0.00397707
0.00397704
0.00397725
0.00397768
0.00397831
0.00397912
0.0039801
0.00398123
0.0039825
0.00398388
0.00398534
0.00398688
0.00398846
0.00399007
0.00399167
0.00399325
0.00399478
0.00399624
0.0039976
0.00399885
0.00399997
0.00400093
0.00400173
0.00400236
0.00400279
0.00400303
0.00400306
0.00400289
0.00400252
0.00400196
0.0040012
0.00400028
0.00399919
0.00399797
0.00399664
0.00399525
0.00399386
0.00399257
0.00399152
0.00399083
0.00399047
0.00399008
0.00404114
0.00403949
0.00403709
0.00403462
0.00403253
0.00403099
0.00402995
0.00402931
0.004029
0.00402897
0.00402917
0.00402959
0.00403021
0.00403102
0.00403199
0.00403312
0.00403438
0.00403575
0.00403721
0.00403874
0.00404032
0.00404193
0.00404353
0.00404511
0.00404664
0.0040481
0.00404947
0.00405072
0.00405185
0.00405282
0.00405363
0.00405426
0.0040547
0.00405494
0.00405499
0.00405483
0.00405446
0.00405391
0.00405316
0.00405224
0.00405116
0.00404995
0.00404862
0.00404724
0.00404585
0.00404456
0.00404351
0.00404281
0.00404245
0.00404205
0.00409396
0.00409231
0.00408992
0.00408745
0.00408536
0.00408381
0.00408276
0.00408212
0.0040818
0.00408176
0.00408196
0.00408237
0.00408298
0.00408378
0.00408474
0.00408586
0.00408711
0.00408848
0.00408994
0.00409146
0.00409304
0.00409464
0.00409624
0.00409782
0.00409936
0.00410082
0.00410219
0.00410345
0.00410458
0.00410556
0.00410637
0.00410701
0.00410746
0.00410771
0.00410776
0.00410761
0.00410726
0.00410671
0.00410597
0.00410506
0.00410399
0.00410278
0.00410146
0.00410008
0.00409869
0.00409741
0.00409635
0.00409566
0.00409529
0.00409488
0.00414767
0.00414602
0.00414364
0.00414116
0.00413908
0.00413752
0.00413647
0.00413582
0.00413549
0.00413544
0.00413563
0.00413603
0.00413663
0.00413742
0.00413838
0.00413949
0.00414073
0.00414209
0.00414354
0.00414507
0.00414664
0.00414824
0.00414984
0.00415142
0.00415295
0.00415442
0.00415579
0.00415706
0.00415819
0.00415917
0.00415999
0.00416064
0.0041611
0.00416136
0.00416142
0.00416128
0.00416094
0.00416039
0.00415967
0.00415876
0.0041577
0.0041565
0.00415518
0.0041538
0.00415242
0.00415114
0.00415009
0.00414939
0.00414901
0.00414859
0.00420229
0.00420065
0.00419827
0.0041958
0.00419371
0.00419215
0.00419109
0.00419043
0.0041901
0.00419004
0.00419022
0.00419061
0.0041912
0.00419198
0.00419293
0.00419403
0.00419527
0.00419662
0.00419806
0.00419958
0.00420115
0.00420275
0.00420434
0.00420592
0.00420746
0.00420892
0.0042103
0.00421157
0.00421271
0.0042137
0.00421453
0.00421518
0.00421565
0.00421592
0.00421599
0.00421585
0.00421552
0.00421499
0.00421427
0.00421337
0.00421232
0.00421112
0.00420981
0.00420844
0.00420707
0.00420579
0.00420473
0.00420403
0.00420365
0.00420322
0.00425785
0.00425621
0.00425384
0.00425137
0.00424928
0.00424772
0.00424665
0.00424599
0.00424565
0.00424558
0.00424574
0.00424613
0.00424671
0.00424748
0.00424842
0.00424951
0.00425074
0.00425208
0.00425352
0.00425503
0.0042566
0.00425819
0.00425978
0.00426136
0.00426289
0.00426436
0.00426574
0.00426701
0.00426815
0.00426915
0.00426999
0.00427065
0.00427112
0.0042714
0.00427148
0.00427136
0.00427103
0.00427051
0.0042698
0.00426892
0.00426787
0.00426668
0.00426538
0.00426402
0.00426265
0.00426137
0.00426031
0.00425961
0.00425922
0.00425879
0.00431438
0.00431274
0.00431037
0.00430791
0.00430582
0.00430426
0.00430318
0.00430251
0.00430216
0.00430208
0.00430224
0.00430261
0.00430318
0.00430394
0.00430487
0.00430595
0.00430717
0.00430851
0.00430994
0.00431144
0.004313
0.00431459
0.00431618
0.00431775
0.00431929
0.00432076
0.00432214
0.00432341
0.00432456
0.00432556
0.0043264
0.00432707
0.00432756
0.00432785
0.00432793
0.00432782
0.00432751
0.00432699
0.00432629
0.00432542
0.00432438
0.0043232
0.00432191
0.00432055
0.00431919
0.00431791
0.00431686
0.00431615
0.00431576
0.00431531
0.00437189
0.00437025
0.00436789
0.00436544
0.00436335
0.00436178
0.0043607
0.00436002
0.00435967
0.00435958
0.00435972
0.00436009
0.00436065
0.00436139
0.00436231
0.00436338
0.00436459
0.00436592
0.00436734
0.00436884
0.00437039
0.00437197
0.00437356
0.00437513
0.00437666
0.00437813
0.00437952
0.00438079
0.00438194
0.00438295
0.0043838
0.00438448
0.00438497
0.00438527
0.00438537
0.00438526
0.00438496
0.00438446
0.00438377
0.0043829
0.00438188
0.00438071
0.00437942
0.00437807
0.00437671
0.00437545
0.00437439
0.00437368
0.00437328
0.00437283
0.00443041
0.00442878
0.00442643
0.00442398
0.00442189
0.00442032
0.00441924
0.00441855
0.00441818
0.00441809
0.00441822
0.00441857
0.00441912
0.00441986
0.00442076
0.00442182
0.00442302
0.00442434
0.00442575
0.00442724
0.00442878
0.00443036
0.00443194
0.00443351
0.00443504
0.00443651
0.0044379
0.00443918
0.00444033
0.00444135
0.0044422
0.00444289