/*--------------------------------*- C++ -*----------------------------------*\
  =========                 |
  \\      /  F ield         | OpenFOAM: The Open Source CFD Toolbox
   \\    /   O peration     | Website:  https://openfoam.org
    \\  /    A nd           | Version:  13
     \\/     M anipulation  |
\*---------------------------------------------------------------------------*/
FoamFile
{
    format      ascii;
    class       surfaceScalarField;
    location    "3600";
    object      phi;
}
// * * * * * * * * * * * * * * * * * * * * * * * * * * * * * * * * * * * * * //

dimensions      [0 3 -1 0 0 0 0];

internalField   nonuniform List<scalar> 
49450
(
8.58233e-11
6.75991e-12
8.57811e-11
4.22042e-14
8.57393e-11
4.17427e-14
8.57007e-11
3.86299e-14
8.56725e-11
2.81698e-14
8.56522e-11
2.03438e-14
8.56414e-11
1.0795e-14
8.56378e-11
3.6246e-15
8.56421e-11
-4.27975e-15
8.56514e-11
-9.32069e-15
8.56672e-11
-1.57819e-14
8.56868e-11
-1.96699e-14
8.5712e-11
-2.51151e-14
8.57405e-11
-2.85607e-14
8.57733e-11
-3.27493e-14
8.58087e-11
-3.54102e-14
8.58468e-11
-3.81732e-14
8.58867e-11
-3.98314e-14
8.59278e-11
-4.1129e-14
8.59695e-11
-4.1675e-14
8.60109e-11
-4.1436e-14
8.60516e-11
-4.06854e-14
8.60905e-11
-3.88927e-14
8.6127e-11
-3.65227e-14
8.61602e-11
-3.32295e-14
8.61901e-11
-2.98358e-14
8.62159e-11
-2.58131e-14
8.62375e-11
-2.16278e-14
8.62549e-11
-1.73885e-14
8.62675e-11
-1.26692e-14
8.62746e-11
-7.099e-15
8.62767e-11
-2.02501e-15
8.6274e-11
2.63406e-15
8.62667e-11
7.32367e-15
8.62547e-11
1.20404e-14
8.62382e-11
1.64771e-14
8.62174e-11
2.07357e-14
8.61929e-11
2.45416e-14
8.61648e-11
2.80503e-14
8.61339e-11
3.09485e-14
8.61003e-11
3.3614e-14
8.60651e-11
3.52135e-14
8.60289e-11
3.61465e-14
8.59932e-11
3.57049e-14
8.59592e-11
3.40517e-14
8.59288e-11
3.03346e-14
8.59037e-11
2.51338e-14
8.58845e-11
1.91593e-14
8.58688e-11
1.5769e-14
1.89402e-14
6.22791e-10
6.9721e-12
6.22487e-10
3.47173e-13
6.22179e-10
3.48853e-13
6.21903e-10
3.15579e-13
6.21697e-10
2.33461e-13
6.21556e-10
1.62008e-13
6.21483e-10
8.39767e-14
6.21467e-10
1.87669e-14
6.21508e-10
-4.52328e-14
6.21592e-10
-9.2859e-14
6.21721e-10
-1.4465e-13
6.21884e-10
-1.82226e-13
6.22084e-10
-2.25381e-13
6.22313e-10
-2.57503e-13
6.22571e-10
-2.90466e-13
6.22849e-10
-3.14359e-13
6.23147e-10
-3.35669e-13
6.23457e-10
-3.49747e-13
6.23774e-10
-3.58804e-13
6.24095e-10
-3.6224e-13
6.24412e-10
-3.58564e-13
6.24721e-10
-3.50139e-13
6.25016e-10
-3.33597e-13
6.25291e-10
-3.1187e-13
6.25541e-10
-2.83345e-13
6.25764e-10
-2.52891e-13
6.25956e-10
-2.17746e-13
6.26116e-10
-1.80988e-13
6.26242e-10
-1.43404e-13
6.26331e-10
-1.02115e-13
6.26379e-10
-5.49719e-14
6.26387e-10
-1.06948e-14
6.2636e-10
3.03562e-14
6.26296e-10
7.09814e-14
6.26196e-10
1.11904e-13
6.26062e-10
1.50245e-13
6.25896e-10
1.86934e-13
6.25701e-10
2.1975e-13
6.25479e-10
2.4971e-13
6.25235e-10
2.74624e-13
6.24972e-10
2.96352e-13
6.24698e-10
3.10124e-13
6.24417e-10
3.1707e-13
6.24139e-10
3.13484e-13
6.23874e-10
2.98639e-13
6.23637e-10
2.67764e-13
6.23438e-10
2.23747e-13
6.23283e-10
1.74717e-13
6.23153e-10
1.45233e-13
1.6876e-13
1.13839e-09
7.37874e-12
1.13786e-09
8.77611e-13
1.13734e-09
8.67113e-13
1.13689e-09
7.66392e-13
1.13656e-09
5.64863e-13
1.13634e-09
3.80249e-13
1.13624e-09
1.83463e-13
1.13625e-09
8.87316e-15
1.13636e-09
-1.55766e-13
1.13656e-09
-2.86665e-13
1.13683e-09
-4.20146e-13
1.13717e-09
-5.24451e-13
1.13758e-09
-6.35102e-13
1.13805e-09
-7.22621e-13
1.13856e-09
-8.06213e-13
1.13912e-09
-8.69231e-13
1.13971e-09
-9.21777e-13
1.14031e-09
-9.56299e-13
1.14093e-09
-9.75912e-13
1.14155e-09
-9.80016e-13
1.14215e-09
-9.65324e-13
1.14274e-09
-9.36707e-13
1.14329e-09
-8.87433e-13
1.14381e-09
-8.23995e-13
1.14427e-09
-7.43842e-13
1.14467e-09
-6.57674e-13
1.14501e-09
-5.59856e-13
1.14529e-09
-4.58096e-13
1.1455e-09
-3.54226e-13
1.14564e-09
-2.40884e-13
1.1457e-09
-1.13541e-13
1.14568e-09
7.16222e-15
1.14559e-09
1.17759e-13
1.14544e-09
2.26845e-13
1.14521e-09
3.35733e-13
1.14492e-09
4.37793e-13
1.14458e-09
5.3419e-13
1.14418e-09
6.20488e-13
1.14373e-09
6.97718e-13
1.14324e-09
7.62172e-13
1.14272e-09
8.15832e-13
1.14218e-09
8.49575e-13
1.14163e-09
8.64237e-13
1.1411e-09
8.52742e-13
1.14058e-09
8.12278e-13
1.14012e-09
7.34034e-13
1.13971e-09
6.24513e-13
1.13939e-09
5.04552e-13
1.1391e-09
4.30265e-13
4.72592e-13
1.58077e-09
7.96407e-12
1.58008e-09
1.56498e-12
1.57946e-09
1.49137e-12
1.57894e-09
1.28453e-12
1.57857e-09
9.33152e-13
1.57834e-09
6.05737e-13
1.57827e-09
2.54677e-13
1.57835e-09
-7.22317e-14
1.57858e-09
-3.76117e-13
1.57892e-09
-6.26854e-13
1.57937e-09
-8.74902e-13
1.57992e-09
-1.07625e-12
1.58057e-09
-1.28084e-12
1.58129e-09
-1.44739e-12
1.58209e-09
-1.59954e-12
1.58293e-09
-1.71568e-12
1.58382e-09
-1.80758e-12
1.58473e-09
-1.8659e-12
1.58565e-09
-1.89369e-12
1.58656e-09
-1.89081e-12
1.58744e-09
-1.85199e-12
1.58829e-09
-1.78482e-12
1.58908e-09
-1.67938e-12
1.58981e-09
-1.54665e-12
1.59045e-09
-1.38415e-12
1.591e-09
-1.20928e-12
1.59145e-09
-1.01391e-12
1.5918e-09
-8.11825e-13
1.59206e-09
-6.07098e-13
1.5922e-09
-3.8468e-13
1.59222e-09
-1.3748e-13
1.59214e-09
9.69487e-14
1.59194e-09
3.08657e-13
1.59165e-09
5.16814e-13
1.59127e-09
7.22684e-13
1.59079e-09
9.15002e-13
1.59023e-09
1.09452e-12
1.5896e-09
1.25437e-12
1.5889e-09
1.39488e-12
1.58815e-09
1.51118e-12
1.58736e-09
1.60395e-12
1.58655e-09
1.66006e-12
1.58574e-09
1.67935e-12
1.58494e-09
1.65227e-12
1.58417e-09
1.57414e-12
1.58347e-09
1.43462e-12
1.58285e-09
1.24609e-12
1.58231e-09
1.04408e-12
1.58183e-09
9.11326e-13
9.50889e-13
1.93202e-09
8.69493e-12
1.93124e-09
2.34431e-12
1.93059e-09
2.13943e-12
1.93008e-09
1.79201e-12
1.92974e-09
1.27518e-12
1.92955e-09
7.9212e-13
1.92954e-09
2.64981e-13
1.92972e-09
-2.46475e-13
1.93006e-09
-7.19399e-13
1.93055e-09
-1.11902e-12
1.93119e-09
-1.50817e-12
1.93194e-09
-1.83116e-12
1.93281e-09
-2.15066e-12
1.93378e-09
-2.4147e-12
1.93483e-09
-2.64849e-12
1.93594e-09
-2.8273e-12
1.93709e-09
-2.96261e-12
1.93827e-09
-3.04445e-12
1.93945e-09
-3.07483e-12
1.94062e-09
-3.05463e-12
1.94174e-09
-2.97646e-12
1.94281e-09
-2.85082e-12
1.94379e-09
-2.66512e-12
1.94468e-09
-2.43567e-12
1.94546e-09
-2.16109e-12
1.94612e-09
-1.86601e-12
1.94664e-09
-1.54036e-12
1.94704e-09
-1.20531e-12
1.9473e-09
-8.68328e-13
1.94742e-09
-5.03428e-13
1.94738e-09
-1.01345e-13
1.9472e-09
2.7915e-13
1.94689e-09
6.18804e-13
1.94645e-09
9.51464e-13
1.9459e-09
1.27788e-12
1.94523e-09
1.58148e-12
1.94446e-09
1.86203e-12
1.94361e-09
2.11007e-12
1.94268e-09
2.32468e-12
1.94169e-09
2.50012e-12
1.94066e-09
2.63454e-12
1.93961e-09
2.71157e-12
1.93856e-09
2.7297e-12
1.93753e-09
2.67846e-12
1.93655e-09
2.55243e-12
1.93564e-09
2.3436e-12
1.93482e-09
2.07281e-12
1.93407e-09
1.78985e-12
1.93339e-09
1.58983e-12
1.59511e-12
2.20626e-09
9.53916e-12
2.20542e-09
3.17868e-12
2.20478e-09
2.7779e-12
2.20431e-09
2.26188e-12
2.20402e-09
1.57115e-12
2.20388e-09
9.27198e-13
2.20394e-09
2.09419e-13
2.2042e-09
-5.10467e-13
2.20466e-09
-1.17472e-12
2.20529e-09
-1.74556e-12
2.20607e-09
-2.2964e-12
2.207e-09
-2.76014e-12
2.20806e-09
-3.21053e-12
2.20923e-09
-3.58592e-12
2.2105e-09
-3.91072e-12
2.21183e-09
-4.15853e-12
2.2132e-09
-4.33908e-12
2.2146e-09
-4.44261e-12
2.216e-09
-4.46938e-12
2.21736e-09
-4.4217e-12
2.21868e-09
-4.29006e-12
2.21991e-09
-4.08806e-12
2.22105e-09
-3.80101e-12
2.22207e-09
-3.45134e-12
2.22294e-09
-3.03947e-12
2.22368e-09
-2.59761e-12
2.22425e-09
-2.11429e-12
2.22466e-09
-1.61915e-12
2.22492e-09
-1.12389e-12
2.225e-09
-5.8899e-13
2.22491e-09
-3.97483e-15
2.22464e-09
5.48525e-13
2.22422e-09
1.03785e-12
2.22365e-09
1.51505e-12
2.22295e-09
1.98037e-12
2.22212e-09
2.41142e-12
2.22118e-09
2.80647e-12
2.22013e-09
3.1534e-12
2.21901e-09
3.44958e-12
2.21782e-09
3.68862e-12
2.21659e-09
3.86516e-12
2.21534e-09
3.9605e-12
2.2141e-09
3.97153e-12
2.21289e-09
3.88843e-12
2.21174e-09
3.70638e-12
2.21066e-09
3.42339e-12
2.20966e-09
3.07104e-12
2.20874e-09
2.71222e-12
2.20789e-09
2.43888e-12
2.37969e-12
2.42566e-09
1.04728e-11
2.42478e-09
4.05261e-12
2.42416e-09
3.40322e-12
2.42372e-09
2.69641e-12
2.42347e-09
1.82534e-12
2.42338e-09
1.01691e-12
2.42349e-09
9.66837e-14
2.42383e-09
-8.50278e-13
2.42438e-09
-1.72306e-12
2.42512e-09
-2.48271e-12
2.42603e-09
-3.21146e-12
2.4271e-09
-3.83094e-12
2.42832e-09
-4.42465e-12
2.42965e-09
-4.92197e-12
2.43109e-09
-5.34484e-12
2.43259e-09
-5.66617e-12
2.43415e-09
-5.8929e-12
2.43572e-09
-6.01612e-12
2.43729e-09
-6.03372e-12
2.43881e-09
-5.94988e-12
2.44028e-09
-5.75297e-12
2.44165e-09
-5.45985e-12
2.4429e-09
-5.05434e-12
2.44402e-09
-4.56555e-12
2.44497e-09
-3.99622e-12
2.44576e-09
-3.38629e-12
2.44637e-09
-2.72339e-12
2.4468e-09
-2.04647e-12
2.44705e-09
-1.37184e-12
2.4471e-09
-6.45104e-13
2.44695e-09
1.44526e-13
2.44661e-09
8.8965e-13
2.4461e-09
1.54622e-12
2.44543e-09
2.18385e-12
2.44461e-09
2.80263e-12
2.44365e-09
3.37387e-12
2.44256e-09
3.89401e-12
2.44137e-09
4.3482e-12
2.44008e-09
4.7317e-12
2.43874e-09
5.03757e-12
2.43734e-09
5.25632e-12
2.43594e-09
5.36762e-12
2.43454e-09
5.36665e-12
2.43319e-09
5.24551e-12
2.43189e-09
5.00098e-12
2.43067e-09
4.64024e-12
2.42954e-09
4.20724e-12
2.42847e-09
3.77704e-12
2.42749e-09
3.42541e-12
3.27747e-12
2.60886e-09
1.14796e-11
2.60796e-09
4.96089e-12
2.60734e-09
4.02224e-12
2.60693e-09
3.10676e-12
2.6067e-09
2.04887e-12
2.60665e-09
1.07176e-12
2.60681e-09
-6.18976e-14
2.60721e-09
-1.25145e-12
2.60783e-09
-2.34677e-12
2.60866e-09
-3.30966e-12
2.60968e-09
-4.22959e-12
2.61086e-09
-5.01705e-12
2.6122e-09
-5.76419e-12
2.61367e-09
-6.39194e-12
2.61525e-09
-6.91856e-12
2.6169e-09
-7.31696e-12
2.6186e-09
-7.59062e-12
2.62031e-09
-7.73178e-12
2.62201e-09
-7.73566e-12
2.62367e-09
-7.60859e-12
2.62526e-09
-7.33682e-12
2.62674e-09
-6.9407e-12
2.62808e-09
-6.40306e-12
2.62928e-09
-5.76013e-12
2.6303e-09
-5.01725e-12
2.63114e-09
-4.22223e-12
2.63177e-09
-3.36218e-12
2.63221e-09
-2.486e-12
2.63246e-09
-1.61469e-12
2.63249e-09
-6.78592e-13
2.6323e-09
3.32649e-13
2.6319e-09
1.28709e-12
2.63133e-09
2.12552e-12
2.63057e-09
2.93665e-12
2.62965e-09
3.72087e-12
2.62859e-09
4.44286e-12
2.62738e-09
5.09691e-12
2.62607e-09
5.66539e-12
2.62466e-09
6.14114e-12
2.62318e-09
6.51669e-12
2.62166e-09
6.77793e-12
2.62012e-09
6.90357e-12
2.6186e-09
6.88686e-12
2.61712e-09
6.72284e-12
2.61571e-09
6.41063e-12
2.61438e-09
5.9689e-12
2.61314e-09
5.45515e-12
2.61196e-09
4.95606e-12
2.61086e-09
4.52156e-12
4.26667e-12
2.76872e-09
1.25489e-11
2.76777e-09
5.90194e-12
2.76715e-09
4.64263e-12
2.76676e-09
3.50357e-12
2.76655e-09
2.25196e-12
2.76653e-09
1.10089e-12
2.76672e-09
-2.56993e-13
2.76717e-09
-1.7026e-12
2.76786e-09
-3.03252e-12
2.76876e-09
-4.21104e-12
2.76986e-09
-5.33351e-12
2.77115e-09
-6.29935e-12
2.77259e-09
-7.20852e-12
2.77417e-09
-7.97385e-12
2.77586e-09
-8.6091e-12
2.77763e-09
-9.08761e-12
2.77945e-09
-9.4089e-12
2.78129e-09
-9.56665e-12
2.7831e-09
-9.55311e-12
2.78487e-09
-9.37702e-12
2.78656e-09
-9.02255e-12
2.78813e-09
-8.5137e-12
2.78956e-09
-7.83282e-12
2.79082e-09
-7.0235e-12
2.7919e-09
-6.09389e-12
2.79278e-09
-5.09979e-12
2.79344e-09
-4.0281e-12
2.7939e-09
-2.93815e-12
2.79414e-09
-1.85553e-12
2.79415e-09
-6.955e-13
2.79393e-09
5.512e-13
2.79349e-09
1.72899e-12
2.79286e-09
2.76187e-12
2.79204e-09
3.7577e-12
2.79104e-09
4.71767e-12
2.78988e-09
5.59957e-12
2.78858e-09
6.39525e-12
2.78716e-09
7.08427e-12
2.78565e-09
7.65677e-12
2.78406e-09
8.1047e-12
2.78243e-09
8.40905e-12
2.78079e-09
8.54802e-12
2.77916e-09
8.5128e-12
2.77758e-09
8.30207e-12
2.77607e-09
7.91779e-12
2.77465e-09
7.39191e-12
2.77331e-09
6.79627e-12
2.77204e-09
6.22901e-12
2.77085e-09
5.70721e-12
5.33176e-12
2.91339e-09
1.36736e-11
2.91241e-09
6.87519e-12
2.91179e-09
5.27038e-12
2.9114e-09
3.89476e-12
2.9112e-09
2.44212e-12
2.91119e-09
1.11091e-12
2.91142e-09
-4.81839e-13
2.91191e-09
-2.19565e-12
2.91265e-09
-3.77093e-12
2.91362e-09
-5.17611e-12
2.91479e-09
-6.51119e-12
2.91616e-09
-7.6646e-12
2.91769e-09
-8.74342e-12
2.91937e-09
-9.65263e-12
2.92116e-09
-1.04009e-11
2.92304e-09
-1.09622e-11
2.92496e-09
-1.13319e-11
2.9269e-09
-1.15052e-11
2.92882e-09
-1.14712e-11
2.93068e-09
-1.12412e-11
2.93246e-09
-1.07974e-11
2.93411e-09
-1.01676e-11
2.93561e-09
-9.33415e-12
2.93694e-09
-8.34813e-12
2.93806e-09
-7.22062e-12
2.93898e-09
-6.0155e-12
2.93967e-09
-4.71974e-12
2.94014e-09
-3.40354e-12
2.94038e-09
-2.09684e-12
2.94038e-09
-7.003e-13
2.94014e-09
7.93643e-13
2.93966e-09
2.20698e-12
2.93898e-09
3.44555e-12
2.9381e-09
4.63603e-12
2.93704e-09
5.78096e-12
2.93581e-09
6.831e-12
2.93443e-09
7.77532e-12
2.93292e-09
8.59062e-12
2.93131e-09
9.2641e-12
2.92963e-09
9.78709e-12
2.9279e-09
1.01354e-11
2.92616e-09
1.02872e-11
2.92445e-09
1.02314e-11
2.92278e-09
9.97083e-12
2.92118e-09
9.51066e-12
2.91968e-09
8.89749e-12
2.91826e-09
8.21801e-12
2.9169e-09
7.58198e-12
2.91564e-09
6.96854e-12
6.46213e-12
3.04805e-09
1.48488e-11
3.04704e-09
7.88035e-12
3.0464e-09
5.90968e-12
3.04601e-09
4.28584e-12
3.04583e-09
2.62451e-12
3.04584e-09
1.10638e-12
3.04609e-09
-7.31708e-13
3.04661e-09
-2.72495e-12
3.0474e-09
-4.55551e-12
3.04842e-09
-6.19744e-12
3.04966e-09
-7.75432e-12
3.0511e-09
-9.10367e-12
3.05272e-09
-1.03591e-11
3.05448e-09
-1.14178e-11
3.05637e-09
-1.22831e-11
3.05833e-09
-1.29297e-11
3.06035e-09
-1.33487e-11
3.06238e-09
-1.35366e-11
3.06439e-09
-1.34795e-11
3.06634e-09
-1.31915e-11
3.0682e-09
-1.26526e-11
3.06992e-09
-1.18949e-11
3.07149e-09
-1.09007e-11
3.07287e-09
-9.72893e-12
3.07404e-09
-8.39372e-12
3.07499e-09
-6.96707e-12
3.07571e-09
-5.43625e-12
3.07619e-09
-3.88267e-12
3.07643e-09
-2.3404e-12
3.07643e-09
-6.9614e-13
3.07617e-09
1.05547e-12
3.07566e-09
2.71531e-12
3.07494e-09
4.16982e-12
3.07401e-09
5.56408e-12
3.07289e-09
6.90244e-12
3.07159e-09
8.12821e-12
3.07014e-09
9.22769e-12
3.06855e-09
1.01747e-11
3.06686e-09
1.09532e-11
3.0651e-09
1.15539e-11
3.06328e-09
1.19473e-11
3.06146e-09
1.21117e-11
3.05966e-09
1.20336e-11
3.05791e-09
1.17206e-11
3.05624e-09
1.11811e-11
3.05466e-09
1.04776e-11
3.05316e-09
9.71177e-12
3.05174e-09
9.00546e-12
3.05041e-09
8.29608e-12
7.65051e-12
3.17605e-09
1.6071e-11
3.17502e-09
8.91716e-12
3.17436e-09
6.56341e-12
3.17397e-09
4.68058e-12
3.17379e-09
2.80266e-12
3.17381e-09
1.0904e-12
3.17408e-09
-1.0033e-12
3.17464e-09
-3.28653e-12
3.17547e-09
-5.38172e-12
3.17654e-09
-7.2698e-12
3.17784e-09
-9.05703e-12
3.17935e-09
-1.06101e-11
3.18104e-09
-1.20485e-11
3.18288e-09
-1.32621e-11
3.18485e-09
-1.42481e-11
3.1869e-09
-1.49825e-11
3.189e-09
-1.54515e-11
3.19112e-09
-1.56535e-11
3.19321e-09
-1.55711e-11
3.19524e-09
-1.52212e-11
3.19717e-09
-1.45822e-11
3.19896e-09
-1.36901e-11
3.20059e-09
-1.25279e-11
3.20202e-09
-1.11624e-11
3.20324e-09
-9.61061e-12
3.20423e-09
-7.95289e-12
3.20497e-09
-6.17702e-12
3.20546e-09
-4.37592e-12
3.20571e-09
-2.5875e-12
3.2057e-09
-6.85249e-13
3.20542e-09
1.33355e-12
3.20488e-09
3.24999e-12
3.20412e-09
4.93e-12
3.20315e-09
6.53656e-12
3.20198e-09
8.07627e-12
3.20062e-09
9.48492e-12
3.1991e-09
1.07457e-11
3.19745e-09
1.18296e-11
3.19568e-09
1.27171e-11
3.19384e-09
1.33981e-11
3.19195e-09
1.38377e-11
3.19005e-09
1.40148e-11
3.18817e-09
1.39132e-11
3.18634e-09
1.35455e-11
3.1846e-09
1.29236e-11
3.18295e-09
1.21265e-11
3.18139e-09
1.12716e-11
3.1799e-09
1.04928e-11
3.17852e-09
9.68325e-12
8.8918e-12
3.29966e-09
1.73378e-11
3.29859e-09
9.9854e-12
3.29792e-09
7.23362e-12
3.29752e-09
5.08164e-12
3.29734e-09
2.97903e-12
3.29737e-09
1.06511e-12
3.29766e-09
-1.29428e-12
3.29825e-09
-3.87755e-12
3.29912e-09
-6.24627e-12
3.30024e-09
-8.38941e-12
3.30159e-09
-1.04151e-11
3.30316e-09
-1.21791e-11
3.30492e-09
-1.38066e-11
3.30684e-09
-1.51802e-11
3.30888e-09
-1.62905e-11
3.31101e-09
-1.7115e-11
3.3132e-09
-1.76349e-11
3.31539e-09
-1.78503e-11
3.31756e-09
-1.77406e-11
3.31967e-09
-1.73256e-11
3.32167e-09
-1.65818e-11
3.32353e-09
-1.55496e-11
3.32521e-09
-1.42127e-11
3.3267e-09
-1.26459e-11
3.32795e-09
-1.08694e-11
3.32897e-09
-8.97182e-12
3.32974e-09
-6.94161e-12
3.33025e-09
-4.88351e-12
3.3305e-09
-2.83905e-12
3.33048e-09
-6.69216e-13
3.33019e-09
1.62565e-12
3.32963e-09
3.80814e-12
3.32884e-09
5.72271e-12
3.32782e-09
7.54967e-12
3.3266e-09
9.29827e-12
3.32519e-09
1.08966e-11
3.32361e-09
1.23247e-11
3.32189e-09
1.35504e-11
3.32006e-09
1.45506e-11
3.31814e-09
1.53146e-11
3.31618e-09
1.58019e-11
3.3142e-09
1.59919e-11
3.31225e-09
1.58656e-11
3.31035e-09
1.54412e-11
3.30854e-09
1.47339e-11
3.30683e-09
1.38402e-11
3.30521e-09
1.28931e-11
3.30366e-09
1.20393e-11
3.30222e-09
1.11254e-11
1.01824e-11
3.42046e-09
1.86472e-11
3.41936e-09
1.10849e-11
3.41867e-09
7.92179e-12
3.41826e-09
5.4909e-12
3.41808e-09
3.15537e-12
3.41812e-09
1.03202e-12
3.41842e-09
-1.60299e-12
3.41904e-09
-4.49595e-12
3.41994e-09
-7.14676e-12
3.42111e-09
-9.5535e-12
3.42252e-09
-1.18253e-11
3.42415e-09
-1.38074e-11
3.42597e-09
-1.56298e-11
3.42796e-09
-1.7168e-11
3.43007e-09
-1.84061e-11
3.43228e-09
-1.93229e-11
3.43454e-09
-1.98946e-11
3.43681e-09
-2.01231e-11
3.43906e-09
-1.99842e-11
3.44123e-09
-1.95009e-11
3.4433e-09
-1.8648e-11
3.44522e-09
-1.74704e-11
3.44696e-09
-1.59527e-11
3.44849e-09
-1.41777e-11
3.44979e-09
-1.21688e-11
3.45084e-09
-1.0023e-11
3.45163e-09
-7.7297e-12
3.45215e-09
-5.40564e-12
3.45241e-09
-3.09573e-12
3.45239e-09
-6.49204e-13
3.45208e-09
1.93014e-12
3.4515e-09
4.38766e-12
3.45068e-09
6.54546e-12
3.44963e-09
8.60063e-12
3.44836e-09
1.05654e-11
3.4469e-09
1.236e-11
3.44526e-09
1.39611e-11
3.44348e-09
1.53335e-11
3.44158e-09
1.64502e-11
3.4396e-09
1.72997e-11
3.43756e-09
1.7836e-11
3.43551e-09
1.80392e-11
3.43349e-09
1.78874e-11
3.43153e-09
1.74045e-11
3.42965e-09
1.66091e-11
3.42788e-09
1.56158e-11
3.4262e-09
1.45732e-11
3.4246e-09
1.36415e-11
3.4231e-09
1.2619e-11
1.15195e-11
3.53959e-09
1.99977e-11
3.53846e-09
1.22155e-11
3.53776e-09
8.62901e-12
3.53734e-09
5.90974e-12
3.53716e-09
3.33291e-12
3.5372e-09
9.92212e-13
3.53753e-09
-1.92819e-12
3.53817e-09
-5.14019e-12
3.5391e-09
-8.08139e-12
3.54031e-09
-1.076e-11
3.54177e-09
-1.32854e-11
3.54346e-09
-1.54922e-11
3.54534e-09
-1.75151e-11
3.5474e-09
-1.92225e-11
3.54958e-09
-2.05919e-11
3.55186e-09
-2.16031e-11
3.55419e-09
-2.22276e-11
3.55654e-09
-2.24687e-11
3.55885e-09
-2.22989e-11
3.5611e-09
-2.17446e-11
3.56323e-09
-2.07786e-11
3.56521e-09
-1.94505e-11
3.567e-09
-1.77462e-11
3.56858e-09
-1.57564e-11
3.56992e-09
-1.35077e-11
3.571e-09
-1.11058e-11
3.57181e-09
-8.54105e-12
3.57235e-09
-5.94245e-12
3.57261e-09
-3.35803e-12
3.57259e-09
-6.26088e-13
3.57227e-09
2.24577e-12
3.57167e-09
4.98698e-12
3.57082e-09
7.39642e-12
3.56974e-09
9.68734e-12
3.56843e-09
1.18753e-11
3.56691e-09
1.38727e-11
3.56522e-09
1.56523e-11
3.56338e-09
1.71761e-11
3.56142e-09
1.8413e-11
3.55937e-09
1.93507e-11
3.55727e-09
1.99373e-11
3.55515e-09
2.01542e-11
3.55306e-09
1.99762e-11
3.55103e-09
1.94331e-11
3.5491e-09
1.85469e-11
3.54726e-09
1.7451e-11
3.54552e-09
1.63096e-11
3.54387e-09
1.52967e-11
3.54233e-09
1.41615e-11
1.29012e-11
3.65795e-09
2.13882e-11
3.65679e-09
1.33771e-11
3.65606e-09
9.35614e-12
3.65563e-09
6.33922e-12
3.65545e-09
3.51259e-12
3.6555e-09
9.46456e-13
3.65584e-09
-2.269e-12
3.65651e-09
-5.80912e-12
3.65748e-09
-9.04879e-12
3.65872e-09
-1.20072e-11
3.66023e-09
-1.47935e-11
3.66197e-09
-1.72315e-11
3.66392e-09
-1.94604e-11
3.66604e-09
-2.13416e-11
3.66829e-09
-2.28454e-11
3.67064e-09
-2.39532e-11
3.67304e-09
-2.46314e-11
3.67546e-09
-2.48849e-11
3.67784e-09
-2.46827e-11
3.68015e-09
-2.40546e-11
3.68235e-09
-2.29716e-11
3.68438e-09
-2.14883e-11
3.68623e-09
-1.95918e-11
3.68785e-09
-1.73809e-11
3.68923e-09
-1.48855e-11
3.69035e-09
-1.22198e-11
3.69118e-09
-9.3755e-12
3.69173e-09
-6.49404e-12
3.692e-09
-3.62635e-12
3.69197e-09
-6.00542e-13
3.69165e-09
2.57163e-12
3.69103e-09
5.60487e-12
3.69015e-09
8.27414e-12
3.68903e-09
1.08082e-11
3.68768e-09
1.32262e-11
3.68612e-09
1.54326e-11
3.68438e-09
1.73963e-11
3.68248e-09
1.90761e-11
3.68045e-09
2.04368e-11
3.67834e-09
2.14652e-11
3.67617e-09
2.21038e-11
3.67399e-09
2.23348e-11
3.67184e-09
2.21299e-11
3.66975e-09
2.15251e-11
3.66775e-09
2.05457e-11
3.66585e-09
1.93442e-11
3.66406e-09
1.81006e-11
3.66236e-09
1.70032e-11
3.66077e-09
1.57511e-11
1.43259e-11
3.77621e-09
2.28177e-11
3.77502e-09
1.45695e-11
3.77427e-09
1.01039e-11
3.77383e-09
6.78012e-12
3.77365e-09
3.69508e-12
3.7737e-09
8.95308e-13
3.77405e-09
-2.62473e-12
3.77475e-09
-6.50184e-12
3.77575e-09
-1.00479e-11
3.77703e-09
-1.32939e-11
3.77859e-09
-1.63481e-11
3.78038e-09
-1.90237e-11
3.78238e-09
-2.14639e-11
3.78457e-09
-2.35232e-11
3.78688e-09
-2.51648e-11
3.7893e-09
-2.63712e-11
3.79178e-09
-2.71041e-11
3.79426e-09
-2.73697e-11
3.79671e-09
-2.71337e-11
3.79909e-09
-2.64292e-11
3.80134e-09
-2.52257e-11
3.80343e-09
-2.35825e-11
3.80533e-09
-2.14886e-11
3.807e-09
-1.90504e-11
3.80842e-09
-1.63014e-11
3.80956e-09
-1.33646e-11
3.81042e-09
-1.02329e-11
3.81099e-09
-7.06052e-12
3.81126e-09
-3.90101e-12
3.81123e-09
-5.73094e-13
3.8109e-09
2.90696e-12
3.81026e-09
6.24041e-12
3.80936e-09
9.17752e-12
3.8082e-09
1.19619e-11
3.80681e-09
1.46168e-11
3.80521e-09
1.70383e-11
3.80341e-09
1.91914e-11
3.80146e-09
2.10319e-11
3.79937e-09
2.252e-11
3.7972e-09
2.36418e-11
3.79497e-09
2.43337e-11
3.79272e-09
2.45795e-11
3.79051e-09
2.43472e-11
3.78835e-09
2.36792e-11
3.78629e-09
2.26041e-11
3.78434e-09
2.12941e-11
3.7825e-09
1.99448e-11
3.78074e-09
1.87592e-11
3.77911e-09
1.73863e-11
1.57925e-11
3.89492e-09
2.42856e-11
3.8937e-09
1.57929e-11
3.89293e-09
1.08728e-11
3.89248e-09
7.23309e-12
3.89229e-09
3.88092e-12
3.89235e-09
8.3917e-13
3.89272e-09
-2.99488e-12
3.89344e-09
-7.21768e-12
3.89447e-09
-1.10779e-11
3.89579e-09
-1.46192e-11
3.89739e-09
-1.79481e-11
3.89923e-09
-2.08675e-11
3.90129e-09
-2.35243e-11
3.90354e-09
-2.5766e-11
3.90592e-09
-2.75486e-11
3.90841e-09
-2.88558e-11
3.91095e-09
-2.96443e-11
3.9135e-09
-2.99219e-11
3.91602e-09
-2.96507e-11
3.91845e-09
-2.88673e-11
3.92077e-09
-2.75397e-11
3.92292e-09
-2.57324e-11
3.92486e-09
-2.34357e-11
3.92658e-09
-2.07644e-11
3.92803e-09
-1.77552e-11
3.92921e-09
-1.454e-11
3.93009e-09
-1.11132e-11
3.93067e-09
-7.64198e-12
3.93095e-09
-4.18227e-12
3.93092e-09
-5.44172e-13
3.93058e-09
3.25118e-12
3.92992e-09
6.89282e-12
3.929e-09
1.01057e-11
3.92781e-09
1.31476e-11
3.92638e-09
1.6046e-11
3.92473e-09
1.86886e-11
3.92289e-09
2.10365e-11
3.92088e-09
2.30422e-11
3.91873e-09
2.46613e-11
3.9165e-09
2.5879e-11
3.91421e-09
2.66259e-11
3.9119e-09
2.6887e-11
3.90962e-09
2.66269e-11
3.9074e-09
2.58942e-11
3.90529e-09
2.47213e-11
3.90328e-09
2.32998e-11
3.90138e-09
2.18412e-11
3.89958e-09
2.05639e-11
3.8979e-09
1.90658e-11
1.73e-11
4.01455e-09
2.57913e-11
4.01329e-09
1.70471e-11
4.0125e-09
1.16633e-11
4.01204e-09
7.69862e-12
4.01185e-09
4.07048e-12
4.01191e-09
7.78322e-13
4.01229e-09
-3.37908e-12
4.01303e-09
-7.95609e-12
4.01409e-09
-1.21381e-11
4.01545e-09
-1.59821e-11
4.0171e-09
-1.95927e-11
4.01899e-09
-2.2762e-11
4.02111e-09
-2.56405e-11
4.02341e-09
-2.80688e-11
4.02586e-09
-2.99955e-11
4.02841e-09
-3.14056e-11
4.03101e-09
-3.22508e-11
4.03363e-09
-3.25401e-11
4.03621e-09
-3.22324e-11
4.03872e-09
-3.13679e-11
4.04109e-09
-2.99129e-11
4.04329e-09
-2.79371e-11
4.04529e-09
-2.54326e-11
4.04705e-09
-2.25223e-11
4.04854e-09
-1.92464e-11
4.04974e-09
-1.57458e-11
4.05065e-09
-1.20164e-11
4.05124e-09
-8.23852e-12
4.05153e-09
-4.47034e-12
4.0515e-09
-5.14127e-13
4.05115e-09
3.60382e-12
4.05048e-09
7.56152e-12
4.04953e-09
1.10579e-11
4.04831e-09
1.43644e-11
4.04685e-09
1.75129e-11
4.04515e-09
2.03827e-11
4.04326e-09
2.29307e-11
4.04119e-09
2.51059e-11
4.03899e-09
2.68596e-11
4.0367e-09
2.81758e-11
4.03434e-09
2.89792e-11
4.03198e-09
2.92563e-11
4.02963e-09
2.8968e-11
4.02736e-09
2.81695e-11
4.02518e-09
2.68963e-11
4.02312e-09
2.53605e-11
4.02118e-09
2.37891e-11
4.01932e-09
2.24162e-11
4.0176e-09
2.07889e-11
1.88478e-11
4.13547e-09
2.73342e-11
4.13418e-09
1.83322e-11
4.13337e-09
1.2476e-11
4.13289e-09
8.17715e-12
4.1327e-09
4.26407e-12
4.13276e-09
7.12957e-13
4.13316e-09
-3.77705e-12
4.13392e-09
-8.71667e-12
4.13501e-09
-1.32279e-11
4.13641e-09
-1.73822e-11
4.1381e-09
-2.12811e-11
4.14004e-09
-2.47063e-11
4.14221e-09
-2.78115e-11
4.14458e-09
-3.04307e-11
4.14708e-09
-3.25046e-11
4.1497e-09
-3.40197e-11
4.15237e-09
-3.49225e-11
4.15505e-09
-3.52236e-11
4.1577e-09
-3.48782e-11
4.16026e-09
-3.39302e-11
4.16269e-09
-3.23446e-11
4.16495e-09
-3.01962e-11
4.167e-09
-2.74789e-11
4.1688e-09
-2.43239e-11
4.17033e-09
-2.07749e-11
4.17156e-09
-1.69818e-11
4.17249e-09
-1.29424e-11
4.1731e-09
-8.85022e-12
4.1734e-09
-4.76542e-12
4.17337e-09
-4.83251e-13
4.17301e-09
3.96449e-12
4.17232e-09
8.24601e-12
4.17135e-09
1.20336e-11
4.1701e-09
1.56118e-11
4.16859e-09
1.90168e-11
4.16686e-09
2.21198e-11
4.16492e-09
2.4873e-11
4.1628e-09
2.72224e-11
4.16054e-09
2.91141e-11
4.15819e-09
3.05314e-11
4.15577e-09
3.1393e-11
4.15334e-09
3.16868e-11
4.15094e-09
3.13699e-11
4.14861e-09
3.05043e-11
4.14638e-09
2.91287e-11
4.14426e-09
2.74758e-11
4.14226e-09
2.5788e-11
4.14036e-09
2.43155e-11
4.1386e-09
2.25549e-11
2.04353e-11
4.25802e-09
2.89141e-11
4.2567e-09
1.96482e-11
4.25587e-09
1.33112e-11
4.25538e-09
8.66901e-12
4.25518e-09
4.46189e-12
4.25525e-09
6.43198e-13
4.25566e-09
-4.18858e-12
4.25644e-09
-9.49909e-12
4.25756e-09
-1.43471e-11
4.259e-09
-1.88188e-11
4.26073e-09
-2.30126e-11
4.26272e-09
-2.66997e-11
4.26495e-09
-3.00367e-11
4.26737e-09
-3.28508e-11
4.26994e-09
-3.50752e-11
4.27262e-09
-3.66974e-11
4.27535e-09
-3.76589e-11
4.2781e-09
-3.79715e-11
4.28081e-09
-3.75874e-11
4.28343e-09
-3.65537e-11
4.28592e-09
-3.48342e-11
4.28824e-09
-3.25092e-11
4.29033e-09
-2.95743e-11
4.29218e-09
-2.61689e-11
4.29374e-09
-2.23405e-11
4.29501e-09
-1.82481e-11
4.29596e-09
-1.38913e-11
4.29658e-09
-9.47717e-12
4.29689e-09
-5.06767e-12
4.29685e-09
-4.51794e-13
4.29649e-09
4.33285e-12
4.29579e-09
8.94587e-12
4.29479e-09
1.30324e-11
4.29351e-09
1.68891e-11
4.29197e-09
2.05572e-11
4.29019e-09
2.38993e-11
4.2882e-09
2.68629e-11
4.28603e-09
2.93908e-11
4.28372e-09
3.14241e-11
4.28131e-09
3.29451e-11
4.27883e-09
3.38666e-11
4.27634e-09
3.41777e-11
4.27388e-09
3.3832e-11
4.27149e-09
3.28981e-11
4.2692e-09
3.14181e-11
4.26703e-09
2.96451e-11
4.26498e-09
2.78373e-11
4.26303e-09
2.62612e-11
4.26123e-09
2.43632e-11
2.2062e-11
4.38251e-09
3.05305e-11
4.38116e-09
2.09952e-11
4.3803e-09
1.41691e-11
4.37979e-09
9.17448e-12
4.37959e-09
4.66412e-12
4.37967e-09
5.69111e-13
4.38009e-09
-4.61355e-12
4.3809e-09
-1.03031e-11
4.38204e-09
-1.54952e-11
4.38352e-09
-2.02916e-11
4.38529e-09
-2.47868e-11
4.38733e-09
-2.87416e-11
4.38961e-09
-3.23155e-11
4.39209e-09
-3.53286e-11
4.39472e-09
-3.77065e-11
4.39746e-09
-3.94379e-11
4.40026e-09
-4.04592e-11
4.40307e-09
-4.07834e-11
4.40585e-09
-4.03594e-11
4.40853e-09
-3.92379e-11
4.41108e-09
-3.73814e-11
4.41344e-09
-3.48757e-11
4.41559e-09
-3.17184e-11
4.41748e-09
-2.80572e-11
4.41908e-09
-2.3943e-11
4.42037e-09
-1.95445e-11
4.42135e-09
-1.48631e-11
4.42199e-09
-1.01195e-11
4.4223e-09
-5.37726e-12
4.42227e-09
-4.19971e-13
4.42189e-09
4.70863e-12
4.42118e-09
9.66078e-12
4.42015e-09
1.40538e-11
4.41885e-09
1.8196e-11
4.41727e-09
2.21336e-11
4.41545e-09
2.57206e-11
4.41341e-09
2.88999e-11
4.41119e-09
3.16107e-11
4.40883e-09
3.37891e-11
4.40636e-09
3.54165e-11
4.40382e-09
3.63994e-11
4.40127e-09
3.67287e-11
4.39875e-09
3.63539e-11
4.3963e-09
3.53506e-11
4.39395e-09
3.3764e-11
4.39173e-09
3.18683e-11
4.38963e-09
2.99368e-11
4.38764e-09
2.82531e-11
4.38579e-09
2.62134e-11
2.37276e-11
4.5092e-09
3.21833e-11
4.50782e-09
2.23733e-11
4.50694e-09
1.50503e-11
4.50642e-09
9.69383e-12
4.50621e-09
4.87087e-12
4.50629e-09
4.90718e-13
4.50673e-09
-5.05186e-12
4.50755e-09
-1.11285e-11
4.50873e-09
-1.6672e-11
4.51024e-09
-2.18002e-11
4.51205e-09
-2.66032e-11
4.51414e-09
-3.08316e-11
4.51648e-09
-3.46472e-11
4.51901e-09
-3.78636e-11
4.5217e-09
-4.03981e-11
4.52451e-09
-4.22408e-11
4.52737e-09
-4.3323e-11
4.53024e-09
-4.36588e-11
4.53308e-09
-4.31938e-11
4.53582e-09
-4.19824e-11
4.53843e-09
-3.9986e-11
4.54085e-09
-3.72957e-11
4.54304e-09
-3.39112e-11
4.54497e-09
-2.99885e-11
4.54661e-09
-2.55825e-11
4.54794e-09
-2.08711e-11
4.54893e-09
-1.58578e-11
4.54959e-09
-1.07772e-11
4.54991e-09
-5.69432e-12
4.54988e-09
-3.87971e-13
4.54949e-09
5.0916e-12
4.54876e-09
1.03904e-11
4.54772e-09
1.50976e-11
4.54638e-09
1.95321e-11
4.54477e-09
2.37457e-11
4.54291e-09
2.75835e-11
4.54082e-09
3.09835e-11
4.53855e-09
3.38817e-11
4.53613e-09
3.62086e-11
4.53361e-09
3.7945e-11
4.53101e-09
3.89911e-11
4.5284e-09
3.93394e-11
4.52582e-09
3.89353e-11
4.52331e-09
3.78615e-11
4.52091e-09
3.61664e-11
4.51863e-09
3.41451e-11
4.51648e-09
3.20864e-11
4.51444e-09
3.02908e-11
4.51255e-09
2.81053e-11
2.54319e-11
4.63834e-09
3.38722e-11
4.63693e-09
2.37825e-11
4.63603e-09
1.59549e-11
4.63549e-09
1.02272e-11
4.63528e-09
5.08222e-12
4.63536e-09
4.08003e-13
4.63582e-09
-5.50346e-12
4.63666e-09
-1.19751e-11
4.63787e-09
-1.78772e-11
4.63941e-09
-2.33443e-11
4.64127e-09
-2.84616e-11
4.64341e-09
-3.29693e-11
4.64579e-09
-3.70316e-11
4.64838e-09
-4.04552e-11
4.65113e-09
-4.31494e-11
4.654e-09
-4.51057e-11
4.65693e-09
-4.62498e-11
4.65986e-09
-4.65973e-11
4.66276e-09
-4.60903e-11
4.66557e-09
-4.4787e-11
4.66823e-09
-4.26476e-11
4.6707e-09
-3.97689e-11
4.67294e-09
-3.61526e-11
4.67492e-09
-3.1963e-11
4.67659e-09
-2.72589e-11
4.67795e-09
-2.22278e-11
4.67897e-09
-1.68756e-11
4.67964e-09
-1.14505e-11
4.67997e-09
-6.01898e-12
4.67993e-09
-3.55961e-13
4.67954e-09
5.48154e-12
4.6788e-09
1.11346e-11
4.67773e-09
1.61634e-11
4.67637e-09
2.08971e-11
4.67472e-09
2.5393e-11
4.67282e-09
2.94875e-11
4.67069e-09
3.31134e-11
4.66837e-09
3.62033e-11
4.66589e-09
3.86824e-11
4.66331e-09
4.05304e-11
4.66066e-09
4.16414e-11
4.65799e-09
4.20094e-11
4.65535e-09
4.15759e-11
4.65278e-09
4.04306e-11
4.65032e-09
3.8625e-11
4.64799e-09
3.64754e-11
4.64579e-09
3.42858e-11
4.6437e-09
3.23741e-11
4.64177e-09
3.00386e-11
2.71747e-11
4.77017e-09
3.55972e-11
4.76873e-09
2.52231e-11
4.7678e-09
1.68832e-11
4.76725e-09
1.07749e-11
4.76704e-09
5.2982e-12
4.76712e-09
3.20921e-13
4.76759e-09
-5.96833e-12
4.76846e-09
-1.28429e-11
4.76969e-09
-1.91108e-11
4.77127e-09
-2.49236e-11
4.77317e-09
-3.03616e-11
4.77535e-09
-3.51543e-11
4.77779e-09
-3.94682e-11
4.78044e-09
-4.31032e-11
4.78325e-09
-4.59603e-11
4.78618e-09
-4.80321e-11
4.78917e-09
-4.92393e-11
4.79217e-09
-4.95985e-11
4.79513e-09
-4.90486e-11
4.79799e-09
-4.76515e-11