/*--------------------------------*- C++ -*----------------------------------*\
  =========                 |
  \\      /  F ield         | OpenFOAM: The Open Source CFD Toolbox
   \\    /   O peration     | Website:  https://openfoam.org
    \\  /    A nd           | Version:  13
     \\/     M anipulation  |
\*---------------------------------------------------------------------------*/
FoamFile
{
    format      ascii;
    class       volVectorField;
    location    "45.098624";
    object      UMean;
}
// * * * * * * * * * * * * * * * * * * * * * * * * * * * * * * * * * * * * * //

dimensions      [0 1 -1 0 0 0 0];

internalField   nonuniform List<vector> 
17140
(
(-1.6367082e-06 7.768388e-05 -6.5389987e-23)
(-1.8018594e-05 0.00023959795 -5.0346887e-24)
(-5.3003488e-05 0.00041719353 3.3295431e-22)
(-0.00011370456 0.00061155611 -3.6628154e-22)
(-0.00020674649 0.00082382921 4.2855164e-23)
(-0.00034112308 0.0010550958 -1.4034304e-22)
(-0.00052792082 0.0013063458 -2.3651806e-22)
(-0.00078055696 0.0015784226 1.1577471e-22)
(-0.0011152268 0.0018719582 3.7938111e-22)
(-0.0015513433 0.002187294 9.3245213e-22)
(-0.0021119928 0.0025243872 -1.3870475e-21)
(-0.0028243856 0.0028827049 1.2404269e-21)
(-0.0037202791 0.0032611058 1.9037379e-22)
(-0.0048363272 0.0036577152 -1.0848183e-21)
(-0.0062143031 0.0040698006 1.2112935e-22)
(-0.0079011275 0.0044936582 -9.6777643e-22)
(-0.0099486263 0.0049245295 3.6639115e-23)
(-0.012412941 0.0053565642 -7.920841e-24)
(-0.01535353 0.0057828592 -5.9052075e-22)
(-0.018831731 0.0061955956 7.7707648e-22)
(-0.022908922 0.0065862993 -3.7882099e-22)
(-0.027644422 0.0069462354 7.4102001e-23)
(-0.033093339 0.00726693 5.5045045e-22)
(-0.039304882 0.0075407998 -5.5589828e-22)
(-0.046322082 0.0077618552 -8.9817652e-22)
(-0.054181462 0.0079264707 7.3469364e-22)
(-0.062911845 0.0080340701 3.651163e-21)
(-0.072540391 0.0080871023 4.3215407e-22)
(-0.083092606 0.0080907996 -3.8823254e-21)
(-0.094595032 0.0080518845 -9.150514e-22)
(-0.10707092 0.0079746146 -3.3164148e-21)
(-0.12053334 0.0078599797 4.4360382e-21)
(-0.13499195 0.0077079169 -1.165257e-21)
(-0.15044678 0.0075190322 -5.6743337e-22)
(-0.16688824 0.0072944686 -5.6064717e-21)
(-0.18429447 0.0070346508 2.5001736e-21)
(-0.20262657 0.0067385094 -3.7784981e-21)
(-0.22182113 0.0064034737 -2.5679927e-21)
(-0.24178089 0.0060260622 -1.1750735e-21)
(-0.26236456 0.0056034745 3.5792896e-21)
(-0.28337753 0.0051350208 6.7167055e-21)
(-0.3045635 0.0046232975 6.0533477e-21)
(-0.32559485 0.0040729022 2.6219898e-21)
(-0.34606904 0.0034881916 -1.2505612e-20)
(-0.36550923 0.0028717469 -8.9855599e-21)
(-0.38336296 0.0022264462 2.1723165e-21)
(-0.39906838 0.0015520246 -1.4479483e-20)
(-0.41209397 0.00084242785 -4.8216988e-21)
(-0.42182234 9.3088988e-05 4.8268491e-21)
(-0.4278261 -0.00068398832 1.1634782e-20)
(-0.42970814 -0.0014790172 -7.0870567e-21)
(-0.42716759 -0.0023043243 -4.4459469e-21)
(-0.41983966 -0.0032168165 1.1550779e-20)
(-0.40745812 -0.0042951749 5.469956e-21)
(-0.38946976 -0.0056170911 3.9344481e-21)
(-0.36549042 -0.0072897807 -3.0977974e-21)
(-0.33455733 -0.0094170614 8.5998073e-21)
(-0.29579335 -0.012044671 7.3095331e-21)
(-0.24643105 -0.014927719 1.8852281e-21)
(-0.18483496 -0.01643259 -4.9267213e-21)
(-0.10742605 -0.014021574 -4.0019364e-21)
(-0.019142175 -0.0080910964 -1.5272609e-20)
(0.084095859 -0.00093585452 -2.3156364e-21)
(0.18524021 0.00562328 1.9851261e-20)
(0.29642233 0.0084086766 -1.5797083e-20)
(-1.4331746e-05 0.00033543574 1.8531148e-23)
(-5.6917159e-05 0.0010337296 -1.7424231e-21)
(-0.00012022798 0.0017985497 1.551149e-21)
(-0.00021145618 0.0026343112 -4.2326876e-22)
(-0.00033725048 0.0035453715 -8.7474839e-22)
(-0.00050658989 0.0045357185 1.6727958e-21)
(-0.000730489 0.0056087934 -1.7461348e-21)
(-0.001022235 0.0067672395 1.5390025e-22)
(-0.0013978036 0.0080125834 -4.8130681e-22)
(-0.0018762917 0.0093448646 -8.005616e-24)
(-0.0024803538 0.010762205 -1.6151083e-21)
(-0.0032366353 0.012260326 2.5763413e-21)
(-0.0041761821 0.013832021 2.136294e-22)
(-0.0053347785 0.015466622 -2.1196601e-21)
(-0.0067531668 0.017149494 6.5553855e-22)
(-0.0084770805 0.01886162 4.1913289e-22)
(-0.010557023 0.020579386 -2.6769845e-21)
(-0.013047713 0.02227466 8.8036594e-21)
(-0.016007142 0.023915319 -5.5688826e-21)
(-0.019495209 0.025466355 6.7427723e-21)
(-0.023571975 0.026891668 -1.0085177e-20)
(-0.028295648 0.028156561 2.5055814e-21)
(-0.033720531 0.029230825 1.0480996e-21)
(-0.039895359 0.030092054 -3.4648849e-21)
(-0.046862991 0.030728648 1.2658985e-20)
(-0.054660308 0.031141854 1.9040446e-21)
(-0.063316374 0.031345761 -1.0091889e-20)
(-0.072858637 0.031363032 1.1466503e-20)
(-0.083312965 0.031220012 -1.6232959e-21)
(-0.094705512 0.030939942 -1.5900919e-20)
(-0.10705902 0.03054035 1.6889343e-21)
(-0.12038573 0.030032627 1.2968329e-20)
(-0.13469434 0.02942488 3.0631783e-22)
(-0.14998353 0.02872492 -9.9233917e-21)
(-0.16624183 0.027939637 1.1223128e-20)
(-0.18344496 0.027072066 -5.0944286e-21)
(-0.20155092 0.026119004 6.100515e-21)
(-0.22049245 0.02507071 1.9431957e-20)
(-0.24016768 0.023912343 4.3395471e-21)
(-0.26043015 0.022626852 1.7016908e-20)
(-0.28107921 0.021198186 -2.1829895e-20)
(-0.30185104 0.019613001 -1.9879342e-20)
(-0.32240862 0.017860631 -3.3192013e-21)
(-0.34233585 0.015932316 2.6745906e-20)
(-0.36113577 0.013823585 -1.2334956e-20)
(-0.37823487 0.011543727 -4.1860334e-21)
(-0.39303059 0.0091175091 2.2596422e-21)
(-0.40495492 0.0065689317 6.8295439e-21)
(-0.41345764 0.0039313844 -3.293575e-21)
(-0.4180468 0.0012623246 5.8592474e-21)
(-0.41832435 -0.0014076653 3.4997792e-20)
(-0.41397708 -0.0040835575 1.6720567e-21)
(-0.404678 -0.0068164952 -7.5014395e-21)
(-0.39014409 -0.009707923 1.6713793e-20)
(-0.36990725 -0.012883489 -1.4386792e-20)
(-0.34356904 -0.016520977 4.1325705e-20)
(-0.31010701 -0.020847238 1.1936987e-20)
(-0.26864329 -0.026129256 -3.45021e-20)
(-0.21623689 -0.032339267 5.9299797e-21)
(-0.15147641 -0.037706997 7.0291032e-21)
(-0.071705592 -0.039011167 1.4638826e-21)
(0.01836413 -0.036362025 -1.9913522e-20)
(0.12276435 -0.030837656 4.0197614e-20)
(0.22463769 -0.024771236 1.2266486e-20)
(0.3371998 -0.02078325 2.1012317e-20)
(-4.1150818e-05 0.00058787949 1.0207467e-21)
(-0.00013890125 0.0018116974 -5.2397773e-22)
(-0.00026188375 0.00315208 -1.393843e-22)
(-0.00041725936 0.0046168103 1.3231048e-22)
(-0.00061176989 0.006213508 -6.4134981e-22)
(-0.0008543147 0.0079491615 -4.7565993e-23)
(-0.0011557181 0.0098297905 -6.1047409e-22)
(-0.0015289396 0.011859988 -6.5859355e-22)
(-0.0019894232 0.014042395 5.3972783e-21)
(-0.0025555357 0.016377038 -4.8307552e-21)
(-0.0032489396 0.01886057 2.3189011e-21)
(-0.0040950018 0.02148541 3.4089969e-21)
(-0.0051231706 0.024238816 -6.791915e-21)
(-0.0063672923 0.02710193 -8.4413141e-22)
(-0.007865826 0.030048867 3.2847367e-21)
(-0.0096618942 0.033045987 2.2741699e-21)
(-0.011803107 0.036051479 -2.6603702e-21)
(-0.014341091 0.039015503 9.7235854e-21)
(-0.01733067 0.041881112 -5.8155039e-21)
(-0.020828663 0.04458623 2.9078783e-21)
(-0.02489233 0.047066878 -9.9485536e-21)
(-0.029577561 0.049261708 -2.625023e-21)
(-0.034937003 0.051117622 5.5642979e-21)
(-0.041018474 0.052595838 -8.5000719e-21)
(-0.047864541 0.053677359 -3.3870573e-21)
(-0.055512824 0.054366492 4.1693818e-21)
(-0.063992966 0.054690642 2.3973326e-20)
(-0.073333231 0.0546925 1.098043e-20)
(-0.083559768 0.054419298 -5.6314198e-21)
(-0.094697942 0.053911438 6.0265575e-21)
(-0.10676999 0.053200351 -3.9154286e-21)
(-0.1197862 0.052308332 -2.2179963e-20)
(-0.13375316 0.051251886 7.5391573e-21)
(-0.14866658 0.050045969 2.2765463e-20)
(-0.16451097 0.048703143 -7.8026325e-21)
(-0.18125668 0.047229153 -1.0958851e-20)
(-0.19885482 0.045618848 1.9160843e-20)
(-0.21722951 0.043855352 5.8421565e-21)
(-0.23626834 0.041912455 -1.0581211e-20)
(-0.25581223 0.039758669 -4.2816902e-21)
(-0.27564533 0.037361822 2.0415208e-20)
(-0.29548474 0.034691543 -5.8718881e-21)
(-0.31496908 0.031720091 -8.3857626e-21)
(-0.33365188 0.028423701 -2.2040089e-20)
(-0.35099803 0.024789598 4.1625779e-20)
(-0.3663962 0.020834648 -2.6560863e-20)
(-0.37922431 0.01661836 -6.5198368e-21)
(-0.38887763 0.012209206 -2.5862266e-20)
(-0.39479531 0.0076684976 -3.0711061e-20)
(-0.3965062 0.0030996694 -1.536655e-21)
(-0.39365233 -0.0014214145 6.4212145e-21)
(-0.3859619 -0.0058899295 -4.7745767e-20)
(-0.37314997 -0.010377213 -2.042036e-20)
(-0.35494106 -0.015014525 -2.1132218e-20)
(-0.33089039 -0.019972015 -6.9706064e-21)
(-0.30057157 -0.025504495 -5.5060383e-20)
(-0.26294048 -0.03196323 2.2075099e-20)
(-0.21703209 -0.039868044 -6.9186875e-21)
(-0.15948614 -0.049327549 -5.8088709e-20)
(-0.08969834 -0.058332464 -2.3719881e-20)
(-0.0054425647 -0.062923511 2.9353e-20)
(0.087419093 -0.063178906 1.0424075e-19)
(0.19332878 -0.058958702 -3.4553986e-20)
(0.29477262 -0.053237119 -5.6723439e-20)
(0.40663011 -0.047761111 -2.497429e-20)
(-8.1286106e-05 0.00082661708 -3.3994779e-21)
(-0.00026156285 0.0025478277 3.7479562e-21)
(-0.00047381905 0.0044334516 -1.3558889e-21)
(-0.00072514131 0.0064946431 1.4754425e-22)
(-0.0010223926 0.008742306 -2.9178884e-21)
(-0.0013743721 0.0111865 3.0229677e-21)
(-0.0017916097 0.013835988 -4.5906524e-21)
(-0.0022865399 0.016697609 2.1648614e-21)
(-0.0028738272 0.019775526 8.2443389e-21)
(-0.0035707128 0.023070298 -1.9888066e-21)
(-0.0043973726 0.02657779 -7.5949779e-21)
(-0.0053772244 0.030287989 2.3290718e-21)
(-0.0065372987 0.034183676 1.5735047e-22)
(-0.0079085085 0.03823904 -6.1569264e-21)
(-0.0095258448 0.042418348 1.94034e-20)
(-0.011428459 0.046674828 -1.2013863e-20)
(-0.013659548 0.050949995 -1.1531143e-22)
(-0.016266008 0.055173707 6.7857047e-21)
(-0.01929779 0.05926533 -1.745445e-20)
(-0.022806951 0.063136384 8.3616018e-21)
(-0.02684638 0.066695007 1.2669867e-20)
(-0.031468307 0.06985234 5.2104709e-21)
(-0.03672271 0.072530605 -2.630865e-20)
(-0.042655869 0.074671987 -1.4001795e-20)
(-0.049309808 0.07624681 9.2711436e-21)
(-0.056722971 0.077258962 -5.485648e-21)
(-0.064926162 0.077746362 2.1064279e-20)
(-0.073948833 0.077771109 -6.1595864e-21)
(-0.083817128 0.077400536 1.6952605e-20)
(-0.094555748 0.076693499 -9.7922994e-21)
(-0.10618635 0.075695875 6.1279474e-21)
(-0.11871629 0.074441524 -2.2998472e-20)
(-0.13214891 0.072955738 3.3846574e-21)
(-0.14647555 0.071260526 -1.7988343e-20)
(-0.16167488 0.069374025 1.7544956e-20)
(-0.17770947 0.06730473 5.597755e-21)
(-0.19452026 0.065045672 -7.2048276e-20)
(-0.21201868 0.062572976 -1.8917693e-20)
(-0.23007687 0.059848901 1.5894949e-20)
(-0.24851744 0.056827285 -1.5705215e-20)
(-0.26710269 0.053459116 3.9897329e-21)
(-0.28552278 0.049695843 2.5367292e-20)
(-0.30338379 0.045491435 -1.2007995e-21)
(-0.32020082 0.040807047 -8.3172657e-21)
(-0.3353966 0.035624554 4.1369276e-21)
(-0.34833174 0.029976181 -1.7967154e-21)
(-0.35838098 0.023953955 -5.5923357e-21)
(-0.36492055 0.017673165 8.7531461e-20)
(-0.36741664 0.011250895 -9.6636719e-21)
(-0.36545751 0.0048428791 8.8934016e-21)
(-0.35875422 -0.0014434699 -8.3158344e-20)
(-0.34708437 -0.0075980682 4.5595697e-20)
(-0.33019066 -0.013713802 3.7405244e-20)
(-0.30779886 -0.019958698 3.592487e-20)
(-0.27944109 -0.026556003 3.4915905e-20)
(-0.24466605 -0.033852317 5.5582148e-20)
(-0.20231457 -0.042333205 -1.1258036e-19)
(-0.15116419 -0.052839566 7.0582168e-20)
(-0.087450816 -0.06542795 1.1007769e-19)
(-0.011847421 -0.077784128 -8.2906309e-20)
(0.07742473 -0.085208897 -2.7515332e-20)
(0.17309188 -0.087778815 -2.5064769e-20)
(0.27941139 -0.084290023 1.3076011e-19)
(0.37881831 -0.078623409 9.8153045e-20)
(0.48688119 -0.071369371 -4.5243947e-21)
(-0.00013299869 0.0010432714 2.3761207e-21)
(-0.00041963836 0.0032164503 -5.4482773e-21)
(-0.00074697358 0.0055982297 4.4445245e-21)
(-0.0011220031 0.0082030873 -1.6809172e-21)
(-0.0015517727 0.011045212 -6.0773591e-22)
(-0.0020449501 0.014137849 5.23665e-21)
(-0.0026117004 0.017492724 -1.3291925e-21)
(-0.0032638054 0.021119276 -2.8267135e-21)
(-0.0040149369 0.025023707 -2.1765519e-22)
(-0.004880919 0.029207846 -1.8527642e-21)
(-0.0058800067 0.033667792 2.6036617e-21)
(-0.0070331443 0.038392394 -1.8184558e-21)
(-0.0083642417 0.043361531 -6.7352768e-21)
(-0.0099004223 0.048544292 -1.9567464e-22)
(-0.011672178 0.05389723 5.228301e-21)
(-0.013713473 0.059362788 3.7379303e-21)
(-0.016061707 0.064868234 -3.2507958e-21)
(-0.018757505 0.070325469 3.1913332e-22)
(-0.0218443 0.075632187 6.5219589e-21)
(-0.025367686 0.080674893 8.0701637e-21)
(-0.02937453 0.085334268 -9.3799432e-21)
(-0.033911884 0.089493128 -9.6243978e-21)
(-0.039025801 0.093046756 1.3221927e-20)
(-0.044760153 0.09591463 -1.669664e-20)
(-0.051155964 0.098051629 -2.9501733e-20)
(-0.058251972 0.099456004 7.1065509e-20)
(-0.066081457 0.10017143 -3.992065e-20)
(-0.074674608 0.10027691 6.0174659e-20)
(-0.084057162 0.099859646 -7.6564683e-20)
(-0.094254545 0.098999208 8.6873799e-20)
(-0.10528685 0.097755729 -9.125182e-20)
(-0.11715837 0.096175503 1.5661339e-20)
(-0.129868 0.09429346 5.4571445e-20)
(-0.14340179 0.092138723 -3.1220191e-20)
(-0.1577312 0.089734934 9.9131563e-21)
(-0.17280916 0.087093241 2.9817968e-21)
(-0.18856411 0.084204969 3.6397608e-20)
(-0.20489196 0.081039477 1.1875e-20)
(-0.22164643 0.077547706 1.1937252e-20)
(-0.23862868 0.073668612 1.2044004e-20)
(-0.25557556 0.069335566 -6.151521e-20)
(-0.27214686 0.064480545 2.6972001e-20)
(-0.28791386 0.059038537 4.0974562e-21)
(-0.30235408 0.052956707 -4.8782307e-20)
(-0.31485741 0.046217354 -2.4350004e-20)
(-0.32477939 0.03887796 1.1983365e-20)
(-0.33151191 0.031073899 4.2498097e-20)
(-0.33446448 0.022962855 -1.8473208e-20)
(-0.3331551 0.014726139 5.2777171e-20)
(-0.32724033 0.0065740321 2.8402855e-20)
(-0.31647844 -0.0013578743 3.9082248e-20)
(-0.30066992 -0.0090695889 1.0404156e-19)
(-0.27954388 -0.016689326 -8.0684604e-20)
(-0.25277172 -0.024428242 2.6048852e-20)
(-0.21982276 -0.032556257 -4.5843624e-20)
(-0.1801663 -0.041514732 -4.3984378e-20)
(-0.13243084 -0.051964766 -1.7266505e-20)
(-0.075082318 -0.065079413 -1.6307252e-19)
(-0.0042615879 -0.080614133 -4.5238193e-20)
(0.07805248 -0.095865897 1.0656875e-19)
(0.17245276 -0.10543468 4.1691691e-20)
(0.27049978 -0.10953927 -3.2671807e-20)
(0.37591236 -0.1061783 -6.9753703e-20)
(0.47189561 -0.099996527 -1.1010347e-19)
(0.57313159 -0.090620147 8.8773036e-21)
(-0.0001936121 0.0012298058 7.1753672e-21)
(-0.00060498588 0.0037929107 1.7415244e-21)
(-0.0010673359 0.0066036916 -1.4120395e-21)
(-0.0015875825 0.0096798464 -5.2161572e-21)
(-0.0021730093 0.013038798 2.8605281e-21)
(-0.0028321613 0.016697051 -4.1230357e-21)
(-0.0035748108 0.020669522 1.7869881e-21)
(-0.0044120241 0.024968662 4.2640959e-22)
(-0.0053563537 0.029603372 -2.420414e-21)
(-0.0064220107 0.034577674 -5.2331347e-21)
(-0.0076250527 0.039889139 -2.6232681e-22)
(-0.0089835674 0.045527069 8.6830828e-21)
(-0.010517856 0.051470445 -1.2084143e-20)
(-0.012250599 0.057685721 1.9664171e-20)
(-0.014206996 0.064124575 -5.1865061e-21)
(-0.016414853 0.070721837 1.1133847e-20)
(-0.018904614 0.077393906 -1.3640752e-20)
(-0.021709289 0.084038094 8.9901002e-21)
(-0.024864279 0.090533466 -1.4476929e-21)
(-0.028407073 0.096743852 -5.9787913e-21)
(-0.032376795 0.10252365 1.4833109e-20)
(-0.036813629 0.10772691 -2.1422642e-20)
(-0.041758147 0.11221958 2.385796e-20)
(-0.047250556 0.11589402 4.1746528e-21)
(-0.053330046 0.1186835 -4.2254597e-20)
(-0.060034866 0.12057356 4.374988e-20)
(-0.067401307 0.12160634 -2.916032e-20)
(-0.075459876 0.12187216 3.3418551e-20)
(-0.084237279 0.12147988 3.1555834e-21)
(-0.09375962 0.12053063 1.9878737e-21)
(-0.10404405 0.1190992 -1.4133871e-20)
(-0.11509358 0.11724551 8.9469618e-22)
(-0.12690096 0.11501541 -5.4951334e-20)
(-0.13944652 0.1124455 1.5193693e-20)
(-0.15269353 0.10956478 4.5811844e-20)
(-0.16658417 0.10638707 -2.1720108e-20)
(-0.18103315 0.10290236 1.8126353e-20)
(-0.19591964 0.099073846 -1.8274003e-20)
(-0.21107779 0.09484159 -1.0271397e-19)
(-0.22628604 0.090129563 5.708869e-20)
(-0.24125489 0.084852751 1.3939091e-20)
(-0.25561421 0.078923094 -7.8922642e-20)
(-0.26890425 0.0722572 4.7729075e-21)
(-0.28057467 0.064791671 9.6993689e-21)
(-0.29000367 0.056517336 1.0209387e-19)
(-0.29657907 0.047526708 2.3350575e-20)
(-0.29972548 0.038003057 -3.6140969e-20)
(-0.2989258 0.028143448 -3.6472804e-20)
(-0.29374743 0.018192856 -5.1117895e-20)
(-0.28387885 0.0084070501 -6.2279049e-20)
(-0.26907567 -0.0010574809 -3.766337e-20)
(-0.24912893 -0.010216438 -5.8791902e-20)
(-0.22370979 -0.019239831 2.0172287e-20)
(-0.19240357 -0.028380694 -1.2446261e-19)
(-0.15456962 -0.03795434 -8.3033385e-21)
(-0.10949695 -0.0485119 -7.3212805e-21)
(-0.05555067 -0.06089198 -3.8917909e-21)
(0.0092900262 -0.076531338 1.750418e-19)
(0.088223365 -0.094720533 7.0550477e-20)
(0.17781975 -0.11224474 -1.1204863e-19)
(0.27697852 -0.12314388 -1.6777743e-19)
(0.37656835 -0.12782526 -7.78657e-20)
(0.47952199 -0.12387815 -2.6296453e-20)
(0.57023045 -0.11659592 1.5687614e-19)
(0.66200001 -0.10460446 -4.0621635e-20)
(-0.00025955607 0.001379061 -1.3415495e-21)
(-0.00080687058 0.0042551582 -2.9190044e-21)
(-0.0014163439 0.0074115461 7.050876e-21)
(-0.0020950113 0.01086893 -2.6285534e-22)
(-0.0028503937 0.01464786 -3.4409546e-21)
(-0.0036909578 0.018768123 -1.5187313e-21)
(-0.0046261084 0.02324801 -1.1234548e-21)
(-0.0056662003 0.028103392 2.2194116e-21)
(-0.0068226404 0.033346532 -1.1522869e-20)
(-0.0081079671 0.038984651 8.7291655e-21)
(-0.0095359373 0.045018186 -4.2326222e-22)
(-0.011121607 0.05143875 -5.3351795e-21)
(-0.012881412 0.05822679 2.0098617e-20)
(-0.014833244 0.065349007 -2.0197024e-20)
(-0.016996521 0.072755645 2.7204695e-21)
(-0.019392252 0.080377857 1.7010797e-20)
(-0.022043096 0.088125472 -1.6220541e-20)
(-0.024973409 0.095885653 5.7670461e-21)
(-0.028209292 0.10352308 -1.1398308e-20)
(-0.031778624 0.11088245 1.4930473e-20)
(-0.035711083 0.1177942 2.8659907e-20)
(-0.040038146 0.12408401 -2.9060963e-20)
(-0.044793031 0.12958651 -4.3597206e-20)
(-0.050010531 0.13416217 8.6215128e-20)
(-0.055726655 0.13771542 -7.0819661e-20)
(-0.061978298 0.14021001 4.2044786e-20)
(-0.068803203 0.14167692 -1.1102481e-20)
(-0.076234248 0.14220961 2.6715338e-20)
(-0.084299827 0.14193785 -2.7966267e-20)
(-0.093023966 0.14098416 -3.8249584e-20)
(-0.10242333 0.13944194 2.59442e-20)
(-0.11250053 0.13738496 4.3453725e-20)
(-0.12324094 0.13487124 -3.9356634e-21)
(-0.13461891 0.13194595 -1.6723031e-21)
(-0.14658902 0.12864372 -2.9250879e-20)
(-0.15908235 0.12498141 1.2810285e-20)
(-0.17199973 0.12094837 4.7449936e-20)
(-0.18520353 0.11650247 2.3985857e-20)
(-0.19850829 0.11157337 -3.7087186e-20)
(-0.21167005 0.10607011 2.9551115e-20)
(-0.22437424 0.099889212 -2.4990779e-20)
(-0.23622463 0.092923181 8.5176375e-21)
(-0.24673898 0.085072694 3.1726983e-20)
(-0.25535608 0.076270248 -7.5381307e-20)
(-0.26147173 0.066525646 -4.450645e-20)
(-0.26453664 0.055971187 -2.855953e-20)
(-0.26403467 0.044831649 8.837058e-20)
(-0.25951747 0.033339188 5.6591906e-20)
(-0.25056505 0.021780028 6.5568031e-20)
(-0.23683386 0.010452534 1.1315863e-19)
(-0.21804769 -0.00045911823 -3.8670362e-20)
(-0.19396699 -0.010986036 8.1366549e-21)
(-0.16416955 -0.021346674 6.4576859e-20)
(-0.1281382 -0.031841184 1.9039087e-19)
(-0.085048484 -0.042829736 1.2675546e-19)
(-0.033962668 -0.05497907 5.0624099e-20)
(0.0272139 -0.069325443 1.5055962e-19)
(0.10077505 -0.087358811 -1.0421651e-19)
(0.1886015 -0.1077118 1.1072054e-20)
(0.28538369 -0.12664766 1.8059268e-19)
(0.38830087 -0.13788153 1.2764182e-19)
(0.48839461 -0.14214373 6.0937524e-21)
(0.58699644 -0.13691501 -2.2030724e-19)
(0.67011789 -0.1279518 2.3688229e-20)
(0.74999114 -0.11306439 -3.5049389e-20)
(-0.00032659419 0.0014851857 -5.2392442e-21)
(-0.0010123539 0.0045850877 2.4074402e-21)
(-0.0017716844 0.0079902201 -3.254677e-21)
(-0.0026119277 0.011723979 -1.8515655e-21)
(-0.0035408464 0.015809841 5.1739957e-21)
(-0.0045668981 0.020270803 4.8373934e-21)
(-0.0056991919 0.025128636 -4.974192e-21)
(-0.0069474491 0.030402953 5.9960128e-22)
(-0.0083220128 0.036110006 1.3928779e-22)
(-0.0098338321 0.04226119 9.9432406e-21)
(-0.011494441 0.048861224 -1.0972812e-21)
(-0.013315927 0.055905962 -2.0262704e-20)
(-0.01531089 0.063379845 1.6314045e-20)
(-0.017492413 0.071253008 -5.6821863e-22)
(-0.019874029 0.079478134 -1.1141374e-20)
(-0.022469726 0.087987249 -9.7141862e-22)
(-0.025293985 0.096688745 2.5053018e-21)
(-0.028361893 0.10546514 1.147937e-20)
(-0.031689353 0.11417226 -2.1425999e-20)
(-0.035293414 0.12264072 3.8466102e-20)
(-0.039192749 0.13068084 -8.4993264e-21)
(-0.04340823 0.13809186 6.3865852e-21)
(-0.047963584 0.14467616 -5.4099865e-21)
(-0.05288596 0.15025807 2.1718571e-22)
(-0.058206178 0.15470535 -3.3695366e-20)
(-0.063958441 0.1579493 -3.4467762e-20)
(-0.070179616 0.15999796 6.9896064e-20)
(-0.076906709 0.16093608 1.1885752e-20)
(-0.084169381 0.16090486 -4.2386879e-20)
(-0.091988955 0.16005406 -1.5377032e-20)
(-0.10038345 0.15850093 -3.5295833e-20)
(-0.10935467 0.15633037 4.0641507e-20)
(-0.11888296 0.15361483 1.8048228e-20)
(-0.12893486 0.15041038 -4.2650996e-20)
(-0.13945643 0.14675793 1.8226415e-20)
(-0.15036799 0.14267825 8.5709652e-21)
(-0.16155696 0.13816116 -2.6160698e-20)
(-0.17286953 0.13316021 -6.8906924e-20)
(-0.18410135 0.12759551 -2.1012666e-20)
(-0.19498715 0.12136172 1.4173482e-20)
(-0.20518995 0.11433785 3.3676492e-20)
(-0.21429339 0.10639929 3.4692756e-20)
(-0.22180411 0.097435689 3.8196802e-20)
(-0.22716904 0.087383769 7.9556203e-20)
(-0.22983056 0.076281912 -2.1376525e-21)
(-0.22931295 0.064304134 3.2970972e-20)
(-0.22517143 0.05169872 -1.7548121e-19)
(-0.21698327 0.038713508 -4.7990128e-20)
(-0.20428547 0.025655394 -5.424755e-20)
(-0.18669107 0.012870631 -1.4879394e-19)
(-0.16390943 0.00058385397 1.7261016e-19)
(-0.13564619 -0.011255521 -3.839879e-20)
(-0.10135923 -0.022916642 -1.2362035e-19)
(-0.060373987 -0.034748732 -1.5297263e-19)
(-0.011602062 -0.047160351 -1.9728029e-20)
(0.046202179 -0.060959265 5.0083955e-20)
(0.11566316 -0.077305823 8.2309267e-20)
(0.19873766 -0.097525416 -3.5490793e-20)
(0.29557377 -0.11934356 6.6156077e-20)
(0.39893117 -0.13865322 -5.6999709e-20)
(0.50453699 -0.14928819 -2.0052598e-20)
(0.60345121 -0.15210333 -6.1414404e-20)
(0.69525323 -0.14478948 2.7485527e-19)
(0.76807927 -0.13373691 9.4605342e-21)
(0.83344475 -0.11582104 1.1459422e-19)
(-0.00039006579 0.0015441236 4.8660822e-21)
(-0.0012070632 0.0047700841 8.8315702e-22)
(-0.0021085953 0.0083175403 -9.7132047e-22)
(-0.0031023521 0.012212174 -4.7783829e-21)
(-0.0041963901 0.016480061 5.7375177e-21)
(-0.0053992363 0.0211472 -4.8793558e-21)
(-0.0067198111 0.026238802 -2.3358698e-21)
(-0.0081673436 0.031778405 1.256968e-22)
(-0.0097512918 0.037786711 1.9823862e-21)
(-0.011481235 0.044280121 1.1310871e-20)
(-0.013366746 0.051268916 -1.9070934e-20)
(-0.01541724 0.058755025 2.3030954e-20)
(-0.017641812 0.066729365 -6.8063118e-21)
(-0.02004907 0.075168735 -9.3054275e-21)
(-0.022646982 0.084032321 1.4402221e-20)
(-0.025442763 0.093257942 -2.8698346e-20)
(-0.028442848 0.10275831 3.5229019e-20)
(-0.031652976 0.11241775 5.5970238e-22)
(-0.035078484 0.12209005 2.085486e-20)
(-0.03872483 0.13159849 -8.4457621e-20)
(-0.042598429 0.14073913 2.0913815e-20)
(-0.046707788 0.14928883 8.8588659e-20)
(-0.05106488 0.1570189 -4.2979498e-20)
(-0.055686565 0.16371481 -5.2619869e-20)
(-0.060595711 0.16920039 1.3600996e-20)
(-0.06582152 0.17336296 7.2919537e-20)
(-0.071398578 0.17617318 -1.1334727e-19)
(-0.077364331 0.17769184 1.2863801e-19)
(-0.08375322 0.17805612 -1.0351915e-19)
(-0.090587425 0.17743944 2.0246294e-20)
(-0.097878839 0.17599457 -3.5330272e-20)
(-0.10563091 0.17382489 -5.1169564e-20)
(-0.11382401 0.17100925 2.0638699e-20)
(-0.12241564 0.16761768 5.477622e-21)
(-0.13134426 0.16370169 7.8501086e-20)
(-0.14051914 0.15928754 -1.5574812e-20)
(-0.14981496 0.15436665 4.0188587e-20)
(-0.15906246 0.14888951 -3.4277511e-20)
(-0.16803919 0.14276785 2.0666016e-20)
(-0.17645997 0.1358833 1.3429291e-20)
(-0.18396839 0.12809966 1.1508752e-20)
(-0.19013436 0.11927934 1.1447947e-20)
(-0.19446433 0.10930801 -6.944411e-20)
(-0.19642837 0.098135799 -5.4127928e-20)
(-0.19553281 0.08583572 1.5209289e-20)
(-0.19135982 0.072619627 -9.4376027e-21)
(-0.18351917 0.058734796 3.923589e-20)
(-0.17155941 0.044419787 -7.6604933e-20)
(-0.15497904 0.029995318 -8.8069939e-20)
(-0.13341537 0.015863637 -2.5267448e-20)
(-0.10658223 0.0022836878 -6.6280616e-20)
(-0.074078996 -0.010817414 2.1178798e-21)
(-0.035180037 -0.02376321 3.2086317e-20)
(0.011037751 -0.036962818 1.5610677e-19)
(0.065984965 -0.050863053 -7.8741116e-20)
(0.13129292 -0.066423199 3.2123146e-20)
(0.20989033 -0.084767561 -9.5995579e-20)
(0.30296153 -0.10676132 1.6498593e-19)
(0.40871448 -0.12922382 -9.7016371e-20)
(0.51795121 -0.14774531 3.4877829e-20)
(0.62467721 -0.15661417 -3.6491227e-23)
(0.71960052 -0.15702424 2.9149853e-20)
(0.80131377 -0.14707664 1.1210469e-19)
(0.86064914 -0.13381487 -2.1473747e-19)
(0.90886481 -0.11337435 2.2458983e-19)
(-0.00044516351 0.0015540559 -1.075376e-20)
(-0.0013762629 0.0048043304 -4.9867064e-21)
(-0.0024015935 0.0083830342 7.8357744e-21)
(-0.0035292044 0.012317608 -2.0646769e-22)
(-0.0047674819 0.016636259 -7.1027118e-21)
(-0.0061250996 0.021367611 -3.7202016e-21)
(-0.007610915 0.026540082 7.8595511e-21)
(-0.0092338483 0.032181088 -1.2935907e-21)
(-0.011002725 0.038315993 1.8306664e-20)
(-0.012926086 0.044966751 -3.5833586e-21)
(-0.015011959 0.05215018 -9.2010757e-23)
(-0.017267601 0.059875803 1.3329521e-20)
(-0.0196992 0.068143196 -4.3050854e-20)
(-0.022311573 0.076938805 2.0249284e-20)
(-0.025107864 0.086232223 3.6688377e-20)
(-0.028089273 0.095972012 -3.9624699e-20)
(-0.031254887 0.10608124 4.9501645e-21)
(-0.034601663 0.11645312 -2.866069e-20)
(-0.038124658 0.12694741 -2.1735566e-20)
(-0.04181762 0.13738845 6.998459e-20)
(-0.045674011 0.14756623 -5.3905655e-20)
(-0.049688586 0.15724211 7.2917573e-20)
(-0.053859412 0.16616065 -8.8267479e-21)
(-0.058190206 0.17406864 3.7076711e-20)
(-0.062692527 0.18074085 -8.3006703e-20)
(-0.06738714 0.18600961 2.021167e-20)
(-0.072303734 0.18979202 5.2367691e-20)
(-0.07747817 0.19210625 -1.2978644e-19)
(-0.082946628 0.19306702 5.7761089e-20)
(-0.088737077 0.19285359 6.3422423e-20)
(-0.094859711 0.19165355 -5.3526997e-20)
(-0.10130929 0.1896104 -7.2143012e-21)
(-0.10806921 0.18682043 3.7230434e-20)
(-0.1150951 0.18335789 -2.0964999e-20)
(-0.12231433 0.17928273 3.2647595e-20)
(-0.1296283 0.17463155 -1.1660027e-19)
(-0.1368997 0.16940068 6.2032133e-20)
(-0.14394373 0.16353978 3.7746809e-20)
(-0.15051994 0.15695419 7.8109875e-20)
(-0.15632426 0.14951473 1.0283368e-20)
(-0.16098387 0.14107349 -8.4750691e-20)
(-0.16406039 0.13148544 3.4151297e-20)
(-0.16506798 0.12063992 5.0287442e-20)
(-0.16350752 0.10850871 7.9201659e-21)
(-0.1589451 0.095199054 -4.7913265e-20)
(-0.15099493 0.080949045 -4.1687708e-20)
(-0.1392853 0.065987903 1.2525836e-19)
(-0.12332806 0.050534848 6.5578578e-20)
(-0.10267651 0.034927998 1.4091103e-19)
(-0.077051034 0.019614301 4.9110228e-20)
(-0.046132368 0.0048590792 1.8943209e-20)
(-0.0093296758 -0.0094528671 1.3977672e-19)
(0.034362318 -0.023697664 5.5053273e-20)
(0.086201304 -0.038322555 -1.8590931e-19)
(0.1479544 -0.05380668 1.5032348e-19)
(0.22162041 -0.071185377 -1.3965758e-19)
(0.31032177 -0.091351588 6.8045036e-20)
(0.41444219 -0.11443775 -3.3473449e-19)
(0.52919117 -0.13643377 -1.7126062e-19)
(0.64293042 -0.15294301 7.1498892e-20)
(0.74772903 -0.15903857 1.1463453e-19)
(0.83426867 -0.15632682 1.9536505e-19)
(0.90137306 -0.1436552 3.5362072e-20)
(0.94326674 -0.12859613 2.7696462e-20)
(0.97188978 -0.10650905 -3.0022418e-19)
(-0.00048738522 0.0015157815 -1.9310488e-22)
(-0.0015061234 0.004689996 9.2169533e-21)
(-0.0026267101 0.0081900012 -1.087549e-20)
(-0.0038575286 0.012044352 -5.2396145e-21)
(-0.0052072974 0.016282765 1.0508526e-20)
(-0.0066848934 0.020935933 3.4095726e-21)
(-0.0082992303 0.026035007 -1.6570468e-20)
(-0.010059115 0.031610952 1.7878224e-20)
(-0.011973029 0.037693657 3.7836342e-21)
(-0.014048872 0.044310767 1.5110515e-20)
(-0.016293654 0.051486142 -4.0316077e-20)
(-0.018713136 0.059237882 -4.9510511e-22)
(-0.021311419 0.067575827 3.6679212e-20)
(-0.024090502 0.076498451 -3.971148e-20)
(-0.027049814 0.085989103 2.872379e-20)
(-0.030185765 0.096011572 1.0781867e-20)
(-0.033491376 0.10650509 -2.2854132e-20)
(-0.036956054 0.11737898 2.0976313e-20)
(-0.040565647 0.1285076 2.8462505e-20)
(-0.044302886 0.13972618 -6.1933491e-22)
(-0.048148441 0.15082918 -4.6970681e-20)
(-0.05208263 0.1615727 2.9783626e-20)
(-0.056087958 0.171683 -1.7039102e-20)
(-0.06015223 0.18087305 -8.4725682e-20)
(-0.064271934 0.18886764 -2.906471e-20)
(-0.068455034 0.19543581 8.1163357e-20)
(-0.07272204 0.20042515 -8.312015e-21)
(-0.077104137 0.20378926 9.6286216e-20)
(-0.081637316 0.20559663 -5.8405095e-20)
(-0.086352628 0.20600998 3.150954e-20)
(-0.091265199 0.20523559 -4.6740623e-20)
(-0.09636995 0.20346304 -1.1610918e-20)
(-0.10163921 0.20082696 5.9809256e-20)
(-0.10702346 0.19741708 -6.301195e-20)
(-0.11245074 0.19330364 -9.3924098e-20)
(-0.1178139 0.18853065 9.8821148e-21)
(-0.12296317 0.18309922 1.0552212e-19)
(-0.12769941 0.17696011 -1.3723811e-19)
(-0.13176461 0.17001545 3.0135616e-20)
(-0.13483728 0.16212934 -6.493508e-20)
(-0.13653119 0.15314698 1.0039538e-20)
(-0.13640436 0.14292187 -1.0246008e-19)
(-0.13398286 0.13135333 -4.9167653e-20)
(-0.12880106 0.11843724 -6.0538227e-20)
(-0.12045711 0.10431358 2.4253628e-19)
(-0.10858664 0.089231171 7.8227969e-20)
(-0.092815214 0.073401475 -1.0353589e-19)
(-0.072679987 0.057031198 8.3476758e-20)
(-0.047872324 0.040474232 6.9174242e-20)
(-0.018170134 0.024179871 -7.7604403e-20)
(0.01686994 0.0083737828 -4.0383955e-20)
(0.058130221 -0.0071219594 -9.4395346e-20)
(0.1069956 -0.022697139 -4.580885e-20)
(0.16510191 -0.038812641 1.5703295e-19)
(0.23457573 -0.055934723 8.8937261e-20)
(0.31810994 -0.075069901 1.4383895e-20)
(0.41922641 -0.09664664 -4.2542097e-22)
(0.53597405 -0.1197964 8.2376338e-20)
(0.65881168 -0.13994612 -1.2348513e-19)
(0.77343807 -0.1530623 -1.6323614e-19)
(0.87050437 -0.15553446 -4.6575892e-20)
(0.9417084 -0.14976787 -3.6161064e-19)
(0.98753967 -0.13521752 -2.9302995e-19)
(1.0076225 -0.11960608 -7.5469699e-20)
(1.0156898 -0.098100818 -4.085407e-20)