/*--------------------------------*- C++ -*----------------------------------*\
  =========                 |
  \\      /  F ield         | OpenFOAM: The Open Source CFD Toolbox
   \\    /   O peration     | Website:  https://openfoam.org
    \\  /    A nd           | Version:  13
     \\/     M anipulation  |
\*---------------------------------------------------------------------------*/
FoamFile
{
    format      ascii;
    class       volScalarField;
    location    "41.399559";
    object      omega;
}
// * * * * * * * * * * * * * * * * * * * * * * * * * * * * * * * * * * * * * //

dimensions      [0 0 -1 0 0 0 0];

internalField   nonuniform List<scalar> 
17140
(
3736295.3
603677.93
185335.27
78621.665
40006.338
22786.784
13994.067
9063.888
6105.5572
4237.6042
3010.6943
2179.2738
1601.4863
1191.5877
895.77321
679.2028
518.7082
398.5279
307.72675
238.58793
185.58437
144.70573
113.00893
88.312606
68.986148
53.802057
41.831555
32.370167
24.884254
18.971864
14.332274
10.739112
8.0136891
6.0004626
4.5524697
3.5320217
2.8203996
2.3250544
1.9794983
1.7383853
1.5715676
1.459138
1.3886838
1.352215
1.3403388
1.3476827
1.3737227
1.4159118
1.4725707
1.5429813
1.6274328
1.7271716
1.8434328
1.9759875
2.1261769
2.3001724
2.5033764
2.7287175
2.9488424
3.0829935
3.124762
3.0797278
3.1301902
3.2166005
2.767968
3736320.9
603682.56
185336.97
78622.536
40006.858
22787.126
13994.305
9064.0611
6105.6861
4237.7018
3010.7683
2179.3295
1601.5271
1191.6163
895.79132
679.21179
518.70912
398.52157
307.7139
238.56922
185.56048
144.67736
112.97686
88.277721
68.949445
53.764643
41.794621
32.334936
24.851899
18.943392
14.308406
10.720162
7.9994686
5.9903786
4.5457149
3.5277542
2.8178722
2.3236755
1.9788276
1.7381122
1.5714666
1.4590471
1.3884611
1.3517468
1.3396655
1.3466334
1.3722139
1.4137927
1.4696166
1.5388127
1.6214535
1.7184445
1.8306709
1.9575798
2.0994072
2.2599648
2.4412383
2.6341562
2.8133307
2.9199077
2.9568678
2.9816237
3.277763
3.3028889
2.6851302
3736345.9
603686.66
185338.24
78623.075
40007.133
22787.282
13994.4
9064.1209
6105.7251
4237.7273
3010.7847
2179.3394
1601.5323
1191.6177
895.78968
679.20754
518.70257
398.51296
307.70345
238.55714
185.54702
144.66285
112.9617
88.26243
68.934627
53.750987
41.782847
32.325708
24.8457
18.940376
14.308276
10.722188
8.0027738
5.9941601
4.5494195
3.5311131
2.8208102
2.3262099
1.9809811
1.7399282
1.5729931
1.460297
1.3894026
1.3523853
1.3401195
1.3468456
1.3721993
1.4135237
1.4690041
1.5376852
1.619504
1.7151593
1.8252863
1.9489903
2.0856185
2.2371002
2.4040073
2.5767066
2.7322871
2.8298093
2.881153
3.0105525
3.4868504
3.3684437
2.6343599
3736372.1
603690.93
185339.56
78623.639
40007.42
22787.446
13994.501
9064.1873
6105.7704
4237.7594
3010.8083
2179.3572
1601.5461
1191.6287
895.79873
679.21519
518.70925
398.51902
307.70916
238.56278
185.55288
144.66924
112.96898
88.270995
68.944914
53.76343
41.797813
32.343398
24.866013
18.962771
14.331707
10.745214
8.0238591
6.0121835
4.5639837
3.5424722
2.829524
2.3329305
1.9862705
1.7441481
1.5763691
1.463022
1.3916487
1.354324
1.3419278
1.3485984
1.3740411
1.4155641
1.4713211
1.5403101
1.6224014
1.7181991
1.8281925
1.9512441
2.0862577
2.2344107
2.395477
2.5616495
2.7142354
2.8228359
2.9060661
3.182106
3.6190247
3.4252579
2.5899202
3736400.1
603695.47
185340.96
78624.23
40007.721
22787.62
13994.611
9064.2612
6105.8233
4237.7994
3010.8402
2179.3841
1601.57
1191.6509
895.82015
679.23653
518.73102
398.54161
307.73292
238.58801
185.57986
144.69826
113.00034
88.305
68.981845
53.803509
41.841118
32.389734
24.914748
19.012669
14.380864
10.791247
8.0644667
6.0458798
4.59051
3.5626944
2.8448264
2.3445148
1.9951016
1.7509602
1.5817461
1.4673998
1.3953917
1.3577867
1.3453328
1.3522039
1.3781457
1.420462
1.4773155
1.5477264
1.631613
1.729645
1.8422765
1.9681059
2.1058294
2.2562575
2.4192671
2.5913899
2.7535977
2.8749124
3.0126199
3.491388
3.7274764
3.4800787
2.4933203
3736429.1
603700.15
185342.4
78624.841
40008.035
22787.802
13994.728
9064.3418
6105.8831
4237.8469
3010.8804
2179.4202
1601.6042
1191.6846
895.85433
679.27199
518.76834
398.58128
307.77532
238.63348
185.6287
144.75075
113.05671
88.365464
69.046542
53.872452
41.914092
32.466143
24.993413
19.091636
14.457337
10.861877
8.1261214
6.0966503
4.6303762
3.5929581
2.8673724
2.361278
2.0076878
1.7606174
1.5893783
1.4736759
1.400894
1.3630841
1.3506882
1.3581094
1.3850971
1.4289938
1.4880374
1.5613752
1.649139
1.7522776
1.8712886
2.0044087
2.1505308
2.3108276
2.4881356
2.684216
2.8695377
3.0112896
3.2114315
3.7583012
3.8450668
3.5195119
2.2901404
3736459.3
603704.98
185343.87
78625.473
40008.363
22787.995
13994.852
9064.4294
6105.9499
4237.9017
3010.9286
2179.4653
1601.6482
1191.7292
895.90075
679.32107
518.82077
398.63761
307.83601
238.69893
185.69923
144.82663
113.13817
88.452617
69.139405
53.970842
42.017512
32.5736
25.103181
19.201023
14.562626
10.958687
8.2103968
6.1659717
4.6845476
3.6337793
2.8975855
2.383629
2.0244454
1.7734845
1.5996017
1.4821831
1.408511
1.3706318
1.3584799
1.3669419
1.3957263
1.4422863
1.5050438
1.5834422
1.678087
1.7904891
1.9210867
2.0675832
2.2299513
2.4112998
2.6224167
2.8541633
3.0563006
3.2030177
3.4781156
3.9987122
3.9770354
3.5098256
1.9451599
3736490.6
603709.98
185345.4
78626.129
40008.705
22788.197
13994.984
9064.524
6106.0236
4237.9638
3010.9847
2179.5189
1601.7018
1191.7845
895.95896
679.38322
518.88765
398.70985
307.91416
238.78342
185.79042
144.92479
113.24348
88.565131
69.259016
54.097187
42.149839
32.710569
25.2426
19.339588
14.695839
11.08125
8.3173117
6.2540527
4.7534791
3.6857876
2.9361327
2.4121888
2.0458995
1.7900246
1.6128528
1.4933727
1.4187414
1.3809571
1.3693659
1.3795728
1.4112098
1.4619674
1.5306366
1.6172382
1.723277
1.851104
2.000437
2.1686077
2.3585167
2.5778111
2.8360976
3.0957587
3.2962199
3.450208
3.8238029
4.280198
4.1040285
3.2585326
1.5382307
3736522
603715.13
185346.99
78626.811
40009.059
22788.407
13995.123
9064.6252
6106.1037
4238.0325
3011.0479
2179.5803
1601.7641
1191.8494
896.02796
679.45735
518.9678
398.79676
308.00841
238.88551
185.90074
145.04361
113.37095
88.701258
69.403576
54.249657
42.309249
32.87528
25.410026
19.505905
14.855879
11.228902
8.446711
6.3613264
4.8379976
3.7499362
2.9838976
2.4477115
2.0726966
1.8108149
1.6296851
1.507848
1.432406
1.394615
1.3842394
1.3972144
1.4332154
1.4903986
1.56824
1.6678228
1.7922247
1.9444314
2.1220362
2.3241599
2.5597611
2.8417827
3.151552
3.4372601
3.6416786
3.8482404
4.3533354
4.6275885
4.2062935
2.636697
1.1153153
3736555.2
603720.5
185348.65
78627.519
40009.426
22788.627
13995.27
9064.7327
6106.1898
4238.1073
3011.1175
2179.6488
1601.834
1191.9229
896.10646
679.54207
519.0597
398.89665
308.11698
239.0033
186.02819
145.18102
113.51847
88.858845
69.570946
54.426177
42.493784
33.065969
25.603977
19.69888
15.042148
11.401612
8.5991207
6.4887216
4.9392201
3.8273464
3.0419018
2.4910903
2.1056184
1.8365626
1.6507675
1.5262323
1.4500116
1.4129305
1.4043883
1.4215678
1.464128
1.5310417
1.6230249
1.7430648
1.8965778
2.0851921
2.3048977
2.5627826
2.8747926
3.2501183
3.634698
3.9873739
4.2321677
4.5535201
5.0724468
4.8710883
3.9988153
1.7341879
0.69994019
3736589.7
603726.07
185350.36
78628.255
40009.81
22788.856
13995.423
9064.8457
6106.281
4238.1873
3011.1925
2179.723
1601.9104
1192.0034
896.19276
679.63547
519.16128
399.00729
308.23744
239.13421
186.17003
145.33415
113.68305
89.034851
69.75806
54.623709
42.700509
33.279889
25.822006
19.916497
15.253203
11.598632
8.7745214
6.6368431
5.0581503
3.9191725
3.1112764
2.5433591
2.1456003
1.8681418
1.6769681
1.5494641
1.4727364
1.4371743
1.4315536
1.4550427
1.5074089
1.5890693
1.702994
1.8554038
2.0532947
2.2941121
2.5820088
2.9394925
3.3890805
3.9253141
4.4620661
4.967115
5.2995406
5.7197625
5.5847585
4.9073291
2.6952152
1.0259469
0.46252737
3736625.1
603731.8
185352.13
78629.015
40010.208
22789.094
13995.582
9064.9636
6106.3765
4238.2712
3011.2716
2179.8015
1601.9913
1192.0891
896.28479
679.73526
519.26999
399.12591
308.3668
239.27502
186.32284
145.49937
113.86092
89.225362
69.960927
54.83825
42.925486
33.513269
26.060634
20.155727
15.48664
11.818356
8.972201
6.8058231
5.1955497
4.0265139
3.1932177
2.6056829
2.1937464
1.9066271
1.7094003
1.5787997
1.5020849
1.4691198
1.4682115
1.5011296
1.5681999
1.6724177
1.820919
2.0238394
2.2847197
2.6061491
3.0183455
3.565443
4.2787129
5.1182943
5.9134969
6.5930558
6.7063406
6.454413
5.663927
3.3712806
1.3116418
0.57602248
0.32659445
3736662.3
603737.8
185353.98
78629.805
40010.62
22789.341
13995.748
9065.0857
6106.4754
4238.3581
3011.3534
2179.8827
1602.0751
1192.1777
896.38009
679.83873
519.38285
399.24923
308.5015
239.42187
186.4825
145.67231
114.04746
89.425575
70.174607
55.064788
43.163718
33.761237
26.315255
20.412402
15.738942
12.058129
9.1905401
6.9951032
5.3517489
4.1502804
3.2889119
2.6793314
2.2513392
1.9533301
1.749485
1.6159701
1.5402772
1.5109745
1.5180632
1.5650393
1.6543802
1.7936687
1.9973209
2.2732619
2.625761
3.0922429
3.7425701
4.647568
5.8271214
7.1119906
7.7837125
7.6122372
7.1825486
6.0734798
3.4989928
1.5036694
0.68141417
0.38020863
0.2567145
3736699.8
603743.92
185355.87
78630.619
40011.046
22789.595
13995.918
9065.2107
6106.5761
4238.4462
3011.436
2179.9645
1602.1593
1192.2668
896.4759
679.94278
519.49645
399.3735
308.63743
239.57032
186.6442
145.84786
114.23725
89.629816
70.39321
55.297289
43.409116
34.017764
26.580046
20.681092
16.005301
12.314032
9.4267508
7.2031534
5.5263876
4.2909913
3.3994086
2.7656228
2.3198395
2.0098362
1.7989539
1.6633081
1.5901288
1.5665969
1.58649
1.6548287
1.7785175
1.973469
2.2609939
2.6385174
3.150835
3.8958891
4.9887702
6.492241
8.2364871
8.7140737
8.4635093
7.6262069
5.8181564
2.9847852
1.4469115
0.73498172
0.41617156
0.2902495
0.2200985
3736738.4
603750.23
185357.82
78631.462
40011.485
22789.857
13996.092
9065.3378
6106.6776
4238.5342
3011.5178
2180.045
1602.2418
1192.3537
896.56921
680.04406
519.60704
399.49459
308.77007
239.71544
186.80262
146.02026
114.42417
89.831602
70.609953
55.528732
43.654509
34.275641
26.847911
20.955004
16.27947
12.580665
9.6765962
7.4271449
5.7180842
4.448497
3.5254323
2.8658344
2.4008966
2.0781395
1.8602665
1.7238891
1.6557493
1.6418989
1.6819813
1.7836033
1.9617328
2.2461748
2.6494957
3.1963172
4.0187534
5.2831393
7.1021239
9.1330188
9.5347005
9.1513455
7.8799741
5.1671313
2.5929761
1.3293049
0.72560473
0.44641146
0.30641731
0.24331639
0.19337437
3736780.4
603756.99
185359.88
78632.34
40011.939
22790.126
13996.269
9065.4661
6106.7787
4238.6206
3011.597
2180.122
1602.32
1192.4356
896.65681
680.13896
519.71062
399.60805
308.89451
239.85185
186.95189
146.18319
114.60144
90.023719
70.817222
55.751163
43.891682
34.526502
27.110468
21.225929
16.553659
12.850971
9.9341328
7.6626123
5.9240574
4.6216276
3.6671219
2.9810695
2.4963597
2.1608089
1.9368982
1.8022995
1.7432339
1.7462664
1.8187122
1.9739878
2.2417997
2.6648797
3.2430462
4.122087
5.5349405
7.6629884
9.8974327
10.293545
9.7995062
8.1805653
4.7166498
2.362642
1.246594
0.71407913
0.45515113
0.3282441
0.25578634
0.21487905
0.17085336
3736824.8
603764.02
185362.02
78633.251
40012.41
22790.403
13996.45
9065.5945
6106.8779
4238.7036
3011.6716
2180.1932
1602.3913
1192.5096
896.73543
680.2238
519.80305
399.7093
309.00567
239.97396
187.08592
146.33001
114.76186
90.198438
71.006787
55.955894
44.111558
34.760969
27.358169
21.484317
16.818548
13.116177
10.191551
7.9031831
6.1397647
4.8078087
3.8237155
3.1120858
2.6082893
2.2612229
2.0339759
1.9060119
1.8618147
1.8956959
2.0217113
2.267555
2.689325
3.3175972
4.2344841
5.7644598
8.1848625
10.619497
10.997327
10.428715
8.5635287
4.5988783
2.2906257
1.2241212
0.72056505
0.47207522
0.34161684
0.27314481
0.22347641
0.18792115
0.15387047
3736869.6
603771.19
185364.22
78634.192
40012.894
22790.686
13996.631
9065.7215
6106.9738
4238.7816
3011.7397
2180.2564
1602.4532
1192.5727
896.80171
680.2948
519.88011
399.79361
309.09832
240.07599
187.19832
146.45375
114.89787
90.347605
71.169908
56.133632
44.304334
34.968809
27.580451
21.719419
17.063408
13.365872
10.439175
8.1404609
6.3586623
5.0027465
3.9932692
3.259166
2.7390611
2.3838425
2.1591725
2.0459455
2.0298687
2.1182025
2.3377604
2.7451142
3.4199394
4.4024077
6.0214902
8.687934
11.328295
11.699227
11.08305
9.0563077
4.7251361
2.3497637
1.2589438
0.74966661
0.49865629
0.36428127
0.28691764
0.23357511
0.19201927
0.16840119
0.14075918
3736913.9
603778.51
185366.48
78635.153
40013.389
22790.974
13996.814
9065.846
6107.065
4238.8529
3011.7992
2180.3094
1602.5032
1192.6221
896.8524
680.3483
519.93767
399.85636
309.16731
240.15223
187.2828
146.5475
115.00192
90.463008
71.297721
56.274871
44.459902
35.139361
27.766179
21.919742
17.27655
13.588424
10.665838
8.3643105
6.5723173
5.2003986
4.1726374
3.4223337
2.8921597
2.5364033
2.3251377
2.2410245
2.2803229
2.4676105
2.8591637
3.5610049
4.6345428
6.3575646
9.2338474
12.053434
12.429257
11.784208
9.6607154
5.0428813
2.4979644
1.3373728
0.79983453
0.53539691
0.39431345
0.30715531
0.24166604
0.20020079
0.17167054
0.15093907
0.12841331
3736961
603786.15
185368.84
78636.153
40013.9
22791.267
13996.997
9065.9677
6107.1504
4238.9161
3011.8486
2180.3502
1602.5388
1192.655
896.88437
680.38074
519.97174
399.89308
309.20765
240.19713
187.33324
146.6045
115.0666
90.536564
71.381458
56.370169
44.568166
35.261918
27.904099
22.073565
17.445914
13.771629
10.859484
8.5632573
6.7708556
5.393518
4.3581173
3.6022718
3.073607
2.7321017
2.5538502
2.5295877
2.6763504
3.0518351
3.7718499
4.9441153
6.7921633
9.8623392
12.818424
13.201628
12.538071
10.347981
5.5117711
2.7168475
1.450014
0.86810511
0.58423559
0.43069825
0.32944294
0.25477367
0.20839052
0.17777579
0.15467575
0.1389827
0.11863101
3737011.6
603794.22
185371.3
78637.191
40014.427
22791.566
13997.18
9066.0853
6107.2288
4238.9697
3011.8859
2180.3764
1602.5575
1192.6685
896.89429
680.38836
519.97807
399.899
309.21398
240.2047
187.34295
146.61736
115.08376
90.559381
71.411508
56.409265
44.618334
35.325296
27.982687
22.169035
17.559402
13.903305
11.008181
8.7265002
6.9451188
5.5757577
4.547721
3.8032465
3.2964898
2.995932
2.8892165
2.9874089
3.3445022
4.0905114
5.3711963
7.3477864
10.595332
13.641415
14.024381
13.347346
11.108192
6.0926726
2.9937601
1.5932321
0.9526519
0.64314611
0.47203929
0.35481165
0.27302939
0.22173059
0.18624749
0.16069609
0.14073888
0.127321
0.11167082
3737062.3
603802.42
185373.81
78638.257
40014.967
22791.869
13997.361
9066.1975
6107.2988
4239.0122
3011.9095
2180.3866
1602.5574
1192.6605
896.87987
680.36864
519.95394
399.87118
309.18317
240.17162
187.30842
146.58232
115.04933
90.526931
71.382668
56.385981
44.602911
35.320476
27.991821
22.195839
17.607329
13.974838
11.104264
8.8472925
7.0903067
5.7459118
4.7463988
4.0398632
3.5901376
3.3810561
3.4236725
3.7632523
4.5465923
5.950805
8.0683275
11.433206
14.536643
14.907226
14.216763
11.93313
6.7565909
3.3220906
1.7655632
1.0537703
0.71169723
0.51689682
0.38384123
0.29567793
0.23935582
0.19766373
0.16681446
0.14614228
0.12934321
0.11791549
0.10452236
3737113.2
603810.77
185376.4
78639.351
40015.517
22792.175
13997.54
9066.3038
6107.3596
4239.0427
3011.9184
2180.3791
1602.537
1192.6292
896.83917
680.31948
519.89704
399.80717
309.11263
240.09523
187.22697
146.49682
114.96107
90.437514
71.294106
56.30072
44.523861
35.250993
27.935602
22.156956
17.590387
13.985275
11.147912
8.9278959
7.2124327
5.9163844
4.9770982
4.3523658
4.0231474
4.0028045
4.3315121
5.1645002
6.7071082
8.9799198
12.405259
15.507967
15.862322
15.154224
12.818525
7.4844712
3.7001639
1.9674054
1.1734923
0.79087334
0.56726869
0.41865419
0.3244839
0.26104651
0.2119108
0.17617845
0.15253583
0.13448762
0.12109281
0.1113513
0.099151753
3737167.7
603819.6
185379.1
78640.485
40016.085
22792.487
13997.718
9066.4048
6107.4118
4239.0614
3011.9128
2180.3545
1602.4966
1192.5751
896.77265
680.24145
519.80812
399.70787
309.0035
239.97689
187.10025
146.36282
114.82126
90.293803
71.148932
56.157125
44.385552
35.122383
27.821822
22.063838
17.52442
13.953445
11.158008
8.9905165
7.3406289
6.1283736
5.3011198
4.8350782
4.7437561
5.0709483
5.9666987
7.6514063
10.098885
13.537068
16.568074
16.910549
16.174394
13.765375
8.2578771
4.1259683
2.1988181
1.3123387
0.87970865
0.6236466
0.45935411
0.35726749
0.28483842
0.22806594
0.18866229
0.16103102
0.14058166
0.12586016
0.11342526
0.10446517
0.095431494
3737225.4
603828.82
185381.92
78641.667
40016.673
22792.807
13997.897
9066.502
6107.4568
4239.0703
3011.8948
2180.3151
1602.4391
1192.5015
896.68433
680.13918
519.69249
399.57939
308.86272
239.8245
186.93719
146.1904
114.64122
90.108454
70.961262
55.970903
44.205439
34.954033
27.671978
21.940417
17.436622
13.911952
11.175593
9.087401
7.543451
6.4752676
5.8504209
5.6798117
6.0081916
6.9766387
8.8027433
11.436214
14.853199
17.74312
18.052772
17.276421
14.767329
9.0640115
4.5994001
2.4691612
1.4705252
0.97673245
0.68613765
0.50643989
0.3940378
0.31113034
0.24785795
0.2044524
0.17242091
0.14845995
0.13093413
0.11777312
0.10764684
0.10046585
0.091442937
3737283.9
603838.25
185384.81
78642.887
40017.278
22793.134
13998.079
9066.5988
6107.4989
4239.0744
3011.8704
2180.2678
1602.3723
1192.4175
896.58426
680.024
519.56288
399.43596
308.70615
239.6557
186.75736
146.00117
114.4448
89.907734
70.759964
55.773739
44.01828
34.78409
27.528025
21.833046
17.378352
13.920636
11.279166
9.3199065
7.9534291
7.1340386
6.8654312
7.1874566
8.2195686
10.172849
12.977316
16.387265
19.063712
19.286405
18.458434
15.82261
9.8997233
5.1299034
2.7761053
1.6417021
1.0782926
0.75763098
0.56217482
0.43601843
0.340692
0.2714352
0.22343708
0.1861021
0.15819967
0.1375876
0.12311562
0.11176249
0.10280622
0.096057453
0.088717077
3737344.3
603848.04
185387.81
78644.15
40017.906
22793.474
13998.269
9066.7004
6107.5445
4239.0811
3011.8482
2180.2226
1602.3078
1192.3359
896.48726
679.91269
519.4382
399.29882
308.5576
239.49705
186.59031
145.82795
114.2683
89.731713
70.589199
55.614255
43.877574
34.671322
27.454902
21.815966
17.441836
14.097099
11.609547
9.86257
8.7919577
8.388028
8.6782904
9.7479
11.802184
14.719519
18.101607
20.595947
20.623715
19.722658
16.928115
10.760858
5.716931
3.1164115
1.8243665
1.1922225
0.8439775
0.62905985
0.48220288
0.37341965
0.29804186
0.24476051
0.20164608
0.16967137
0.14634523
0.12950462
0.11632724
0.10650492
0.09870935
0.092592921
0.086701663
3737407.1
603858.19
185390.93
78645.459
40018.56
22793.833
13998.473
9066.8152
6107.6029
4239.1014
3011.8408
2180.1939
1602.262
1192.2757
896.41459
679.82917
519.34523
399.19785
308.45027
239.3853
186.47657
145.71525
114.16043
89.633493
70.506857
55.555961
43.854315
34.698453
27.553345
22.012865
17.772713
14.610675
12.372569
10.967915
10.366902
10.581159
11.633104
13.73907
16.724607
20.024622
22.330741
22.130829
21.071958
18.024216
11.666491
6.3725426
3.4909482
2.0249541
1.3222961
0.94479557
0.70128769
0.53103075
0.40918426
0.32873231
0.26871666
0.22010404
0.18417165
0.15766543
0.13760679
0.12214619
0.11095613
0.10208799
0.095307015
0.090431622
0.084720596
3737471.9
603868.67
185394.16
78646.823
40019.246
22794.216
13998.699
9066.9525
6107.6854
4239.1481
3011.863
2180.1988
1602.2541
1192.2585
896.3907
679.80078
519.31445
399.1669
308.42162
239.36189
186.46203
145.71416
114.17876
89.678954
70.589416
55.68859
44.05393
34.987159
27.960717
22.57985
18.554379
15.68069
13.830793
12.944804
13.020681
13.971717
16.056758
19.025639
22.246244
24.303991
23.886167
22.55916
19.10053
12.614817
7.0845435
3.8850749
2.2366149
1.467485
1.0541364
0.77875449
0.58521645
0.45360172
0.36479354
0.2963672
0.24126606
0.20145425
0.17047116
0.14679716
0.12902503
0.11611065
0.10617068
0.098715032
0.092518389
0.08760081
0.083152403
3737539.4
603879.61
185397.5
78648.246
40019.97
22794.628
13998.952
9067.1166
6107.7969
4239.2272
3011.922
2180.2455
1602.2942
1192.2961
896.42934
679.84376
519.36508
399.22875
308.49879
239.45921
186.58537
145.87077
114.37767
89.931588
70.910485
56.097261
44.575558
35.655729
28.82161
23.692509
19.997384
17.556514
16.270783
16.103221
16.901242
18.836174
21.691183
24.787317
26.470553
25.908216
24.209158
20.196039
13.600122
7.8438218
4.2952919
2.4757285
1.6352408
1.178866
0.86558795
0.6523593
0.50720046
0.40565935
0.32478421
0.26468266
0.22041347
0.1853828
0.15801305
0.13806094
0.12283602
0.11134181
0.10236704
0.09520247
0.090111768
0.086029678
0.082088947
3737610.3
603891
185400.99
78649.733
40020.732
22795.07
13999.233
9067.3094
6107.9397
4239.3417
3012.0214
2180.3387
1602.3878
1192.3954
896.53912
679.96867
519.51003
399.39918
308.70095
239.70057
186.87492
146.21961
114.79965
90.444324
71.536597
56.86624
45.525682
36.83652
30.296954
25.544425
22.328811
20.491382
19.944062
20.50737
22.161199
24.782901
27.655173
28.847762
28.054345
25.991687
21.35819
14.629529
8.6220703
4.7215485
2.7379788
1.8186352
1.3094714
0.96077649
0.72667096
0.56635686
0.44631048
0.35591094
0.29135998
0.24386421
0.20329013
0.17242282
0.14875174
0.13083699
0.11709418
0.1066408
0.098824
0.093119342
0.088171866
0.084534648
0.081066334
3737682.9
603902.72
185404.61
78651.277
40021.531
22795.541
13999.542
9067.5321
6108.1157
4239.4938
3012.1642
2180.4822
1602.54
1192.563
896.72851
680.18639
519.76317
399.69579
309.05046
240.11422
187.36639
146.80579
115.50163
91.288779
72.557191
58.105587
47.037752
38.689086
32.573912
28.346432
25.769129
24.681378
24.899757
26.081089
28.329153
30.844001
31.398985
30.351463
27.792459
22.548394
15.652724
9.386436
5.1687801
3.0258681
2.0202382
1.4544222
1.0706127
0.81575863
0.63278681
0.49629439
0.39539994
0.32628863
0.27005436
0.22378875
0.18790351
0.16108119
0.13984131
0.12432042
0.11215293
0.10340295
0.096196156
0.09056413
0.086233147
0.083006822
0.080165827
3737758.4
603914.96
185408.37
78652.887
40022.373
22796.048
13999.886
9067.7922
6108.3336
4239.6941
3012.3628
2180.6911
1602.7685
1192.8198
897.02224
680.52608
520.15893
400.15928
309.59541
240.75714
188.12758
147.70997
116.57942
92.578039
74.104968
59.969795
49.288974
41.411222
35.861838
32.297445
30.463347
30.146582
30.816339
32.240888
34.214985
34.05885
32.711642
29.51896
23.760794
16.671048
10.150374
5.662822
3.3550295
2.2483192
1.6151571
1.1943941
0.9130068
0.70615878
0.55144242
0.4419536
0.36044669
0.29579134
0.24389541
0.20664392
0.17567581
0.15186446
0.1331577
0.11923391
0.10835948
0.099895041
0.093476527
0.088796446
0.085078716
0.082214043
0.079573699
3737836.4
603927.56
185412.25
78654.569
40023.268
22796.604
14000.282
9068.1096
6108.6169
4239.9701
3012.6494
2181.002
1603.1155
1193.214
897.47504
681.04989
520.7678
400.86951
310.42636
241.73207
189.27449
149.06314
118.18053
94.477577
76.363261
62.65737
52.485434
45.19954
40.315296
37.455164
36.293302
36.437786
37.314361
37.844879
37.046404
35.089943
31.184085
24.983732
17.666103
10.910531
6.2023184
3.7283172
2.4970124
1.786166
1.3284052
1.0209165
0.78963218
0.61892966
0.49497575
0.40140889
0.32630499
0.27318003
0.2306156
0.19505858
0.16549926
0.14396263
0.12689928
0.11445179
0.10443905
0.097424738
0.091643938
0.087334632
0.083588994
0.08103401
0.078789719
3737916.9
603940.6
185416.3
78656.342
40024.239
22797.233
14000.754
9068.5126
6108.9985
4240.3594
3013.0671
2181.4644
1603.6371
1193.8091
898.15865
681.83858
521.68054
401.92853
311.65808
243.16825
190.95351
151.03145
120.49421
97.19992
79.554734
66.36832
56.78468
50.132885
45.878257
43.546766
42.685337
42.507984
41.827627
40.061971
37.4418
32.863749
26.215628
18.619353
11.680935
6.8044012
4.150081
2.767209
1.9733092
1.4803787
1.1450776
0.88779777
0.69654418
0.55544902
0.44615986
0.36430256
0.30296344
0.25464711
0.21170506
0.18049628
0.15541661
0.13686682
0.12171245
0.11063509
0.10177104
0.0950217
0.089533746
0.085672368
0.082675665
0.080539584
0.078457485
3738001.3
603954.26
185420.55
78658.231
40025.3
22797.95
14001.322
9069.0248
6109.506
4240.8946
3013.6534
2182.1211
1604.3822
1194.6606
899.13593
682.96333
522.97776
403.42764
313.39421
245.18363
193.29752
153.75968
123.66405
100.86605
83.763033
71.150447
62.129189
55.997213
52.141536
49.840201
48.140759
46.028614
43.348098
39.917738
34.544152
27.400901
19.552748
12.507594
7.4971316
4.6300357
3.0669779
2.1844412
1.6533948
1.2837333
0.99702849
0.78357687
0.6231125
0.50027372
0.40790601
0.33846593
0.28015089
0.23650878
0.20135216
0.17352789
0.1491937
0.13156194
0.11733562
0.10717216
0.098766797
0.092913525
0.088248699
0.084846106
0.081737238
0.079752886
0.077844174
3738088.5
603968.43
185425
78660.236
40026.458
22798.768
14002.003
9069.666
6110.1626
4241.6022
3014.4386
2183.0067
1605.3896
1195.8119
900.45508
684.47714
524.71681
405.42693
315.69328
247.82568
196.32955
157.23063
127.62217
105.35348
88.810268
76.7292
68.115703
62.090233
57.75922
54.156972
50.627048
46.984384
42.484236
36.27584
28.658703
20.616639
13.485419
8.3065257
5.170381
3.3996868
2.4212132
1.843559
1.4346629
1.1187106
0.88419173
0.70396572
0.56476785
0.45969313
0.37724466
0.31268365
0.26278009
0.22454225
0.18857754
0.1620664
0.14072515
0.12583059
0.11323583
0.10419283
0.096737387
0.091380333
0.086620693
0.08352142
0.080927059
0.079165758
0.077472268
3738178.6
603983.1
185429.62
78662.355
40027.716
22799.69
14002.8
9070.441
6110.9734
4242.4876
3015.4283
2184.1262
1606.6636
1197.2657
902.11518
686.37258
526.8792
407.89036
318.49348
250.99821
199.90511
161.22802
132.03759
110.146
93.885814
81.945709
73.135456
66.412867
60.883441
55.93798
51.077147
45.354403
38.273139
30.164121
21.898456
14.61803
9.1993947
5.7589613
3.7752645
2.6947876
2.0585269
1.6061167
1.2620033
1.0030592
0.79905959
0.63946744
0.51783539
0.42329081
0.34982486
0.29447642
0.24728269
0.21036083
0.17965501
0.15714454
0.1368482
0.12231363
0.11009079
0.10172119
0.094500157
0.089601874
0.085636944
0.082840012
0.080311062
0.078840116
0.077214407
3738271.2
603998.27
185434.43
78664.589
40029.074
22800.713
14003.706
9071.3384
6111.9232
4243.5311
3016.5971
2185.4483
1608.1653
1198.9737
904.0574
688.57802
529.37762
410.71085
321.66131
254.52996
203.80093
165.46041
136.53609
114.77794
98.432681
86.085304
76.554489
68.842289
62.150713
55.729675
48.627542
40.602149
31.947369
23.399684
15.907912
10.212792
6.4611361
4.2494346
3.0312713
2.3052975
1.7983842
1.4228368
1.1352378
0.90427692
0.72480756
0.58635496
0.47862469
0.39534624
0.32941941
0.27644286
0.23382557
0.20190035
0.17121757
0.1486906
0.13008359
0.11758255
0.10682663
0.099288326
0.092907263
0.088506003
0.084499803
0.08196381
0.079702584
0.078285628
0.076805711
3738367.1
604011.18
185437.07
78665.103
40029.172
22800.802
14003.913
9071.71
6112.4817
4244.2912
3017.5723
2186.6528
1609.6151
1200.6863
906.05169
690.87295
531.99003
413.652
324.93196
258.11296
207.6516
169.49497
140.61979
118.71614
101.9707
88.925047
78.396777
69.44227
61.044175
52.439082
43.406969
34.152421
25.256736
17.48551
11.458598
7.345987
4.837121
3.4151551
2.5695851
2.0072809
1.6031702
1.2873801
1.0303559
0.82921096
0.67122882
0.54529372
0.44759328
0.37052522
0.3092168
0.26267747
0.22290372
0.19114649
0.16358588
0.14475306
0.12729856
0.1152808
0.10455686
0.097568119
0.091236216
0.087150909
0.083659401
0.081351064
0.079203251
0.077966034
0.076640721
3739014.3
604121.87
185474.39
78682.861
40039.334
22807.404
14008.639
9075.3763
6115.531
4246.9854
3020.0791
2189.0866
1612.0586
1203.2017
908.68637
693.66166
534.95431
416.79714
328.24185
261.54287
211.11976
172.87466
143.73501
121.34533
103.86571
89.849377
78.016827
67.262084
56.919356
46.699165
36.691139
27.318804
19.178723
12.777572
8.2840816
5.4540726
3.814361
2.8555452
2.2459203
1.8099244
1.4596115
1.1724543
0.94517389
0.76312789
0.61870473
0.50594054
0.41812367
0.34905122
0.29406786
0.24924397
0.21189604
0.18443861
0.15762882
0.13839583
0.12183095
0.11123918
0.1017924
0.095482319
0.089888799
0.086244974
0.082862548
0.080700663
0.078826892
0.077631429
0.076468232
3739013.7
604118.89
185472.01
78681.167
40038.246
22806.765
14008.348
9075.3727
6115.7814
4247.4724
3020.795
2190.0299
1613.231
1204.6057
910.32183
695.52209
537.02199
419.037
330.59427
263.9163
213.38455
174.86069
145.23947
122.1432
103.6627
88.236638
74.72777
62.35994
50.722278
39.769316
29.767742
21.154924
14.324215
9.4186563
6.2313656
4.3352852
3.2250338
2.5310023
2.0366846
1.6439163
1.3282169
1.0765523
0.87201325
0.70904027
0.58044945
0.47705131
0.39581165
0.33068293
0.27801346
0.23783065
0.20341658
0.17586832
0.15088341
0.13491793
0.11961219
0.10955679
0.10008736
0.09414052
0.088644957
0.085123951
0.082086008
0.080248403
0.078372806
0.077262211
0.076320859
3739013.8
604119.03
185472.16
78681.382
40038.527
22807.118
14008.781
9075.8942
6116.4007
4248.1988
3021.6373
2190.9959
1614.326
1205.8301
911.66856
696.97303
538.5431
420.57314
332.06414
265.20912
214.36228
175.34578
144.99849
120.88067
101.1391
84.381947
69.628019
56.287759
44.141515
33.279069
23.975555
16.513395
11.006384
7.2943928
5.0090732
3.6578568
2.8368321
2.2803599
1.8569063
1.5179112
1.2382321
1.0052128
0.81664905
0.66527961
0.54402167
0.44806269
0.37340556
0.31401203
0.26661341
0.2279656
0.19475181
0.17068701
0.14675796
0.13034824
0.11535083
0.10631599
0.097806774
0.092509817
0.087484269
0.084486203
0.081480301
0.079666393
0.078039377
0.07711921
0.0761854
3739014
604119.13
185472.25
78681.493
40038.673
22807.304
14009.012
9076.1777
6116.7419
4248.6031
3022.109
2191.5368
1614.9337
1206.4958
912.37435
697.68817
539.22042
421.14395
332.43291
265.24661
213.8927
174.17189
142.93714
117.81359
97.025206
79.295079
63.787734
50.062204
38.004711
27.71948
19.379364
13.070171
8.6779416
5.8836781
4.216355
3.2316233
2.5968195
2.1269511
1.7452871
1.4240246
1.157451
0.94224481
0.7681987
0.62879871
0.51816701
0.42892084
0.35856838
0.30148586
0.25499762
0.21945734
0.18868516
0.16457521
0.14159629
0.12763104
0.11383376
0.10514094
0.096661294
0.091528213
0.086642505
0.083666587
0.080993758
0.079416807
0.077826534
0.076848428
0.07605861
3739014.9
604119.22
185472.27
78681.496
40038.678
22807.317
14009.036
9076.2144
6116.7951
4248.6744
3022.1981
2191.64
1615.0419
1206.5922
912.43095
697.66185
539.04817
420.74056
331.69022
264.03849
212.09141
171.65767
139.62037
113.66346
92.100794
73.768693
57.947978
44.285387
32.692021
23.213128
15.885892
10.619661
7.138013
5.0042543
3.7453737
2.9651529
2.4171878
1.986849
1.6320168
1.3389389
1.0968442
0.89569802
0.73136904
0.59890402
0.49237292
0.40731632