/*--------------------------------*- C++ -*----------------------------------*\
  =========                 |
  \\      /  F ield         | OpenFOAM: The Open Source CFD Toolbox
   \\    /   O peration     | Website:  https://openfoam.org
    \\  /    A nd           | Version:  13
     \\/     M anipulation  |
\*---------------------------------------------------------------------------*/
FoamFile
{
    format      ascii;
    class       volScalarField;
    location    "41.399559";
    object      p;
}
// * * * * * * * * * * * * * * * * * * * * * * * * * * * * * * * * * * * * * //

dimensions      [0 2 -2 0 0 0 0];

internalField   nonuniform List<scalar> 
17140
(
-0.29839538
-0.29840228
-0.29841045
-0.29841917
-0.29842873
-0.29843927
-0.29845087
-0.2984636
-0.29847755
-0.29849282
-0.29850948
-0.2985276
-0.29854725
-0.2985685
-0.29859139
-0.29861595
-0.29864216
-0.29867002
-0.29869948
-0.29873047
-0.29876293
-0.2987968
-0.29883211
-0.29886907
-0.29890818
-0.2989505
-0.29899802
-0.29905423
-0.29912495
-0.2992193
-0.29935055
-0.29953602
-0.29979463
-0.30014153
-0.30058119
-0.30110275
-0.30168071
-0.3022806
-0.30286643
-0.30340696
-0.30387997
-0.30427398
-0.30458634
-0.30482654
-0.305018
-0.30518392
-0.30534585
-0.30553718
-0.3057903
-0.30615791
-0.30667264
-0.30742358
-0.30839089
-0.30964807
-0.31078317
-0.31137267
-0.30988154
-0.30358752
-0.28752278
-0.25699014
-0.22482096
-0.21229274
-0.22365992
-0.20656169
-0.10910776
-0.29810727
-0.29811431
-0.29812266
-0.29813155
-0.2981413
-0.29815206
-0.29816391
-0.29817693
-0.29819122
-0.29820681
-0.2982238
-0.29824229
-0.29826235
-0.29828405
-0.29830743
-0.29833253
-0.29835935
-0.29838788
-0.29841807
-0.29844987
-0.29848322
-0.29851807
-0.29855447
-0.2985926
-0.29863298
-0.29867666
-0.29872563
-0.29878336
-0.29885567
-0.2989517
-0.29908478
-0.29927235
-0.29953351
-0.29988352
-0.30032677
-0.30085192
-0.30143261
-0.30203323
-0.30261636
-0.30314916
-0.3036075
-0.30397755
-0.30425363
-0.30444098
-0.30455788
-0.30461978
-0.30463646
-0.30462427
-0.30459077
-0.30455163
-0.30448417
-0.30440027
-0.3041646
-0.30371007
-0.30244724
-0.29976944
-0.29419312
-0.28378722
-0.26689431
-0.24105426
-0.22094826
-0.22810524
-0.25798819
-0.24962473
-0.13249885
-0.29788219
-0.29788931
-0.29789769
-0.29790663
-0.29791701
-0.29792885
-0.29794016
-0.29795095
-0.2979646
-0.29798176
-0.29799978
-0.29801834
-0.29803854
-0.29806046
-0.2980841
-0.29810948
-0.29813662
-0.29816551
-0.29819612
-0.2982284
-0.29826228
-0.29829774
-0.29833482
-0.2983737
-0.2984149
-0.29845945
-0.2985093
-0.29856788
-0.29864094
-0.29873752
-0.2988709
-0.2990585
-0.29931945
-0.29966911
-0.30011184
-0.3006361
-0.30121501
-0.30181208
-0.30238874
-0.30291064
-0.30335176
-0.30369592
-0.30393434
-0.30406796
-0.30410977
-0.30406734
-0.30393864
-0.30372296
-0.30340288
-0.30295737
-0.30230896
-0.30139523
-0.29996946
-0.29783644
-0.29423934
-0.28842191
-0.27897344
-0.26503917
-0.24738744
-0.22640136
-0.21689461
-0.24283232
-0.29021473
-0.28491943
-0.15250711
-0.29772768
-0.29773477
-0.29774315
-0.29775205
-0.29776187
-0.29777335
-0.29778525
-0.29779664
-0.29781049
-0.29782717
-0.29784462
-0.29786315
-0.29788333
-0.29790519
-0.29792879
-0.29795414
-0.29798127
-0.29801018
-0.29804083
-0.29807319
-0.2981072
-0.29814283
-0.29818013
-0.29821928
-0.29826077
-0.29830562
-0.29835571
-0.2984144
-0.29848728
-0.29858323
-0.29871533
-0.29890079
-0.29915866
-0.2995043
-0.29994222
-0.30046096
-0.30103346
-0.3016227
-0.30218917
-0.30269718
-0.30311891
-0.30343581
-0.30363599
-0.30371623
-0.30368409
-0.30353918
-0.3032679
-0.30285277
-0.30225154
-0.30140726
-0.30018882
-0.29846328
-0.29587784
-0.29212432
-0.28629287
-0.27751355
-0.26432665
-0.24759771
-0.22902515
-0.21236985
-0.2136836
-0.25453695
-0.31897098
-0.30842852
-0.1638379
-0.29764952
-0.29765646
-0.29766468
-0.29767345
-0.29768305
-0.29769365
-0.29770533
-0.29771816
-0.2977322
-0.29774757
-0.29776435
-0.29778263
-0.2978025
-0.29782402
-0.29784726
-0.29787225
-0.29789902
-0.29792757
-0.29795788
-0.2979899
-0.2980236
-0.29805896
-0.298096
-0.29813492
-0.29817618
-0.29822075
-0.29827045
-0.29832849
-0.29840028
-0.29849443
-0.29862366
-0.29880482
-0.2990567
-0.29939466
-0.29982347
-0.300332
-0.30089343
-0.30147056
-0.30202323
-0.30251457
-0.30291507
-0.30320391
-0.30336613
-0.30339457
-0.30329134
-0.30304814
-0.30264026
-0.30203402
-0.30116294
-0.29993531
-0.29816796
-0.29566161
-0.29196295
-0.28666633
-0.27871922
-0.26703621
-0.25078146
-0.23167562
-0.21195456
-0.19807986
-0.21022712
-0.26409428
-0.33646303
-0.31858861
-0.16901071
-0.29765192
-0.29765865
-0.29766661
-0.29767509
-0.29768439
-0.29769465
-0.29770594
-0.29771834
-0.29773194
-0.29774684
-0.29776311
-0.29778086
-0.29780015
-0.29782107
-0.29784367
-0.29786799
-0.29789408
-0.29792193
-0.29795152
-0.29798283
-0.29801582
-0.29805045
-0.29808679
-0.29812499
-0.2981655
-0.29820923
-0.2982579
-0.29831456
-0.29838438
-0.29847559
-0.29860043
-0.2987752
-0.2990183
-0.299345
-0.29976042
-0.30025411
-0.30079986
-0.3013607
-0.30189607
-0.30236821
-0.3027461
-0.30300674
-0.30313221
-0.30311178
-0.30294209
-0.30260723
-0.30207198
-0.30128732
-0.30016356
-0.29857571
-0.29629042
-0.29304666
-0.28829628
-0.28155843
-0.27163899
-0.25738497
-0.23885791
-0.21764588
-0.19670502
-0.18487921
-0.20593705
-0.27095367
-0.34208114
-0.31587466
-0.16932015
-0.29773787
-0.29774428
-0.29775187
-0.29775996
-0.29776883
-0.29777861
-0.29778938
-0.29780121
-0.29781419
-0.29782841
-0.29784396
-0.29786093
-0.29787939
-0.29789942
-0.29792108
-0.29794442
-0.29796948
-0.29799626
-0.29802475
-0.29805493
-0.29808676
-0.29812023
-0.29815537
-0.29819235
-0.29823158
-0.29827389
-0.29832092
-0.29837551
-0.29844253
-0.29852974
-0.29864876
-0.29881522
-0.29904691
-0.29935896
-0.29975695
-0.30023136
-0.300757
-0.30129759
-0.30181234
-0.30226309
-0.30261744
-0.30285042
-0.3029413
-0.30287629
-0.30264661
-0.30222924
-0.30157921
-0.30063314
-0.29927998
-0.29736238
-0.29459903
-0.29067118
-0.28494081
-0.27687774
-0.2650897
-0.24914923
-0.22825841
-0.20518204
-0.18376037
-0.17543118
-0.20158516
-0.27281172
-0.3355214
-0.30418433
-0.15967366
-0.2979077
-0.29791375
-0.29792106
-0.29792864
-0.29793694
-0.29794611
-0.29795621
-0.29796732
-0.29797951
-0.29799288
-0.2980075
-0.29802347
-0.29804086
-0.29805975
-0.2980802
-0.29810226
-0.29812597
-0.29815134
-0.29817837
-0.29820704
-0.29823732
-0.2982692
-0.29830271
-0.298338
-0.29837544
-0.29841582
-0.29846062
-0.2985125
-0.29857596
-0.29865823
-0.29877019
-0.29892663
-0.29914458
-0.29943891
-0.29981572
-0.30026667
-0.30076796
-0.30128425
-0.30177576
-0.3022034
-0.30253387
-0.30274044
-0.30279999
-0.30269602
-0.30241459
-0.3019264
-0.30117758
-0.30009138
-0.29853795
-0.29632796
-0.29313407
-0.2885814
-0.28194623
-0.27264174
-0.25923472
-0.24197085
-0.2193276
-0.19493078
-0.17336756
-0.16888512
-0.19796303
-0.26882205
-0.32086803
-0.28106233
-0.14578921
-0.29816079
-0.29816634
-0.29817302
-0.29818
-0.29818764
-0.29819608
-0.29820539
-0.29821563
-0.29822688
-0.29823921
-0.29825273
-0.2982675
-0.2982836
-0.29830112
-0.2983201
-0.29834061
-0.29836267
-0.29838632
-0.29841155
-0.29843835
-0.2984667
-0.29849658
-0.29852803
-0.29856119
-0.29859639
-0.29863434
-0.2986764
-0.29872499
-0.29878422
-0.29886076
-0.29896464
-0.29910964
-0.2993119
-0.29958591
-0.29993827
-0.30036207
-0.30083528
-0.30132415
-0.3017895
-0.30219254
-0.30249922
-0.30268123
-0.30271359
-0.30257739
-0.30225453
-0.30170978
-0.3008824
-0.29968449
-0.29796213
-0.29550277
-0.29193145
-0.28681483
-0.27935128
-0.26889119
-0.25420691
-0.23546122
-0.21147143
-0.18591378
-0.16530389
-0.1625958
-0.19399924
-0.26010927
-0.29869194
-0.25471465
-0.12881918
-0.29849319
-0.29849818
-0.29850415
-0.29851044
-0.29851733
-0.29852495
-0.29853335
-0.29854259
-0.29855276
-0.29856393
-0.29857617
-0.29858957
-0.2986042
-0.29862012
-0.29863742
-0.29865612
-0.29867629
-0.29869793
-0.29872106
-0.29874567
-0.29877175
-0.29879928
-0.2988283
-0.29885894
-0.29889149
-0.29892659
-0.29896547
-0.2990103
-0.2990648
-0.29913499
-0.29923002
-0.29936255
-0.29954767
-0.29979934
-0.30012461
-0.30051812
-0.30095993
-0.3014183
-0.30185533
-0.30223273
-0.30251616
-0.30267614
-0.30268624
-0.30252604
-0.3021733
-0.30158835
-0.30070523
-0.29942292
-0.29757307
-0.29491504
-0.29101832
-0.2853937
-0.27715199
-0.26561301
-0.24954226
-0.22909155
-0.20356347
-0.17651193
-0.1565028
-0.15564092
-0.18865175
-0.24504389
-0.27135143
-0.23026076
-0.11538123
-0.29889916
-0.29890353
-0.29890873
-0.29891426
-0.29892033
-0.29892704
-0.29893444
-0.2989426
-0.29895158
-0.29896145
-0.2989723
-0.29898418
-0.29899717
-0.29901135
-0.29902676
-0.29904347
-0.29906151
-0.29908091
-0.29910169
-0.29912384
-0.29914735
-0.29917223
-0.29919851
-0.29922628
-0.29925584
-0.29928774
-0.29932308
-0.29936378
-0.29941316
-0.2994766
-0.2995623
-0.29968173
-0.29984878
-0.30007673
-0.300373
-0.30073379
-0.30114154
-0.3015669
-0.30197378
-0.30232485
-0.30258593
-0.30272686
-0.30272044
-0.30254543
-0.30217596
-0.30156947
-0.30065514
-0.2993238
-0.29738502
-0.29456521
-0.29040779
-0.28432128
-0.27534729
-0.26272943
-0.24518116
-0.2230921
-0.19549827
-0.16708449
-0.14770778
-0.14921828
-0.18364784
-0.22836425
-0.2434956
-0.20287888
-0.10232111
-0.29937068
-0.29937441
-0.29937883
-0.29938356
-0.29938875
-0.29939449
-0.29940084
-0.29940784
-0.29941556
-0.29942406
-0.29943341
-0.29944368
-0.29945492
-0.29946722
-0.29948061
-0.29949517
-0.29951092
-0.2995279
-0.29954613
-0.29956561
-0.29958634
-0.29960833
-0.2996316
-0.29965625
-0.29968254
-0.29971097
-0.29974249
-0.2997788
-0.29982282
-0.29987928
-0.29995544
-0.30006153
-0.30021013
-0.3004137
-0.30067983
-0.30100626
-0.30137797
-0.30176838
-0.30214371
-0.3024681
-0.30270805
-0.30283327
-0.30281677
-0.30263662
-0.30226448
-0.30165643
-0.30073698
-0.29938961
-0.29740899
-0.29448792
-0.290099
-0.28360448
-0.27393629
-0.26031796
-0.24138702
-0.21741536
-0.18837991
-0.15940914
-0.14184798
-0.1465966
-0.17461361
-0.20866619
-0.2119229
-0.18050545
-0.093952639
-0.29989786
-0.29990094
-0.29990458
-0.29990848
-0.29991277
-0.29991752
-0.29992278
-0.29992859
-0.29993501
-0.29994209
-0.2999499
-0.29995849
-0.29996793
-0.29997827
-0.29998958
-0.30000189
-0.30001525
-0.3000297
-0.30004526
-0.30006193
-0.30007972
-0.30009865
-0.30011874
-0.30014009
-0.30016292
-0.30018768
-0.30021519
-0.30024695
-0.30028549
-0.30033493
-0.30040158
-0.30049442
-0.30062471
-0.30080388
-0.30103955
-0.30133082
-0.30166527
-0.30201938
-0.30236214
-0.30265974
-0.30287989
-0.30299285
-0.30297292
-0.30279743
-0.30243736
-0.30184844
-0.30095151
-0.29962439
-0.29764103
-0.29464972
-0.29007627
-0.28320486
-0.27292889
-0.25822512
-0.23813369
-0.21276811
-0.18344775
-0.15669437
-0.14152479
-0.14548641
-0.16876112
-0.19228483
-0.18199068
-0.16091784
-0.086773142
-0.30046931
-0.30047173
-0.3004746
-0.30047768
-0.30048107
-0.30048483
-0.30048901
-0.30049363
-0.30049876
-0.30050443
-0.30051069
-0.30051761
-0.30052523
-0.30053362
-0.30054281
-0.30055286
-0.3005638
-0.30057568
-0.30058851
-0.30060231
-0.3006171
-0.30063288
-0.3006497
-0.30066764
-0.3006869
-0.30070787
-0.30073127
-0.30075839
-0.30079141
-0.30083386
-0.3008912
-0.30097117
-0.30108367
-0.301239
-0.3014446
-0.30170072
-0.30199744
-0.30231449
-0.30262399
-0.3028948
-0.30309637
-0.30320037
-0.30318311
-0.30302179
-0.30268813
-0.30213806
-0.3012898
-0.30001561
-0.2980519
-0.29501662
-0.29028526
-0.2830974
-0.27210936
-0.25665749
-0.23553324
-0.21007984
-0.18155858
-0.15706068
-0.143865
-0.14637694
-0.16243482
-0.17375267
-0.16551124
-0.14578976
-0.082208465
-0.30107222
-0.30107401
-0.30107614
-0.30107844
-0.30108097
-0.30108378
-0.30108692
-0.30109041
-0.30109428
-0.30109859
-0.30110337
-0.30110867
-0.30111453
-0.30112101
-0.30112815
-0.30113599
-0.30114457
-0.30115393
-0.30116408
-0.30117505
-0.30118686
-0.30119952
-0.30121306
-0.30122758
-0.30124325
-0.30126039
-0.30127965
-0.30130211
-0.30132965
-0.30136526
-0.30141357
-0.30148122
-0.30157673
-0.30170923
-0.30188573
-0.3021074
-0.30236657
-0.30264625
-0.30292203
-0.30316589
-0.30334966
-0.30344737
-0.3034376
-0.30329868
-0.30300381
-0.30250922
-0.30173143
-0.30052728
-0.29859399
-0.29551904
-0.29065375
-0.28302458
-0.2714285
-0.25509613
-0.23337448
-0.20808795
-0.18093199
-0.15938515
-0.14656463
-0.14848218
-0.15680604
-0.16102847
-0.14933944
-0.13229136
-0.078400223
-0.30169367
-0.30169488
-0.30169634
-0.30169791
-0.30169965
-0.30170159
-0.30170377
-0.30170621
-0.30170893
-0.30171198
-0.30171538
-0.30171918
-0.30172341
-0.30172811
-0.30173333
-0.3017391
-0.30174545
-0.30175242
-0.30176003
-0.3017683
-0.30177724
-0.30178688
-0.30179725
-0.30180841
-0.30182052
-0.30183386
-0.30184897
-0.30186676
-0.30188881
-0.30191765
-0.30195716
-0.30201293
-0.30209226
-0.30220299
-0.3023517
-0.30254014
-0.30276249
-0.30300494
-0.3032466
-0.30346297
-0.30362887
-0.30372158
-0.30372181
-0.30361053
-0.30336231
-0.30293244
-0.3022348
-0.3010874
-0.2991707
-0.29604775
-0.2909323
-0.28280283
-0.27047111
-0.25311778
-0.23108202
-0.20649178
-0.18225881
-0.16255729
-0.14917613
-0.14946928
-0.14959544
-0.15152259
-0.13848835
-0.12284714
-0.075656399
-0.30232
-0.30232072
-0.30232158
-0.30232252
-0.30232358
-0.30232477
-0.30232611
-0.30232764
-0.30232936
-0.3023313
-0.3023335
-0.30233597
-0.30233876
-0.3023419
-0.30234541
-0.30234933
-0.30235369
-0.30235851
-0.30236382
-0.30236963
-0.30237595
-0.3023828
-0.30239019
-0.30239818
-0.30240689
-0.30241654
-0.30242756
-0.30244071
-0.3024573
-0.30247943
-0.30251034
-0.30255468
-0.30261885
-0.30270901
-0.30283108
-0.30298757
-0.30317384
-0.30337912
-0.30358589
-0.30377331
-0.30391971
-0.30400604
-0.30401531
-0.30393178
-0.30372968
-0.30336385
-0.30272249
-0.30159636
-0.29965194
-0.29639571
-0.29089923
-0.28218051
-0.26869747
-0.25052891
-0.22810386
-0.20530426
-0.18312841
-0.16451455
-0.15167574
-0.14794234
-0.14518141
-0.14328806
-0.12846735
-0.11441228
-0.073410892
-0.30293976
-0.30294008
-0.30294047
-0.30294091
-0.30294141
-0.302942
-0.30294268
-0.30294346
-0.30294437
-0.30294543
-0.30294664
-0.30294804
-0.30294965
-0.30295149
-0.30295359
-0.30295598
-0.30295866
-0.30296167
-0.30296501
-0.3029687
-0.30297272
-0.30297709
-0.3029818
-0.30298687
-0.30299237
-0.30299844
-0.30300541
-0.30301387
-0.30302484
-0.30304002
-0.30306208
-0.30309468
-0.30314386
-0.30321191
-0.30330909
-0.3034354
-0.3035865
-0.30375475
-0.30392535
-0.30408106
-0.30420402
-0.30427844
-0.30429045
-0.30422646
-0.30405746
-0.30372699
-0.30308922
-0.30191247
-0.29985342
-0.29628878
-0.29028743
-0.28036883
-0.26573888
-0.24659878
-0.22528843
-0.2037641
-0.18270772
-0.16535836
-0.15204143
-0.14638387
-0.14030696
-0.13636075
-0.12107093
-0.10811169
-0.071684022
-0.30354077
-0.30354082
-0.30354088
-0.30354098
-0.3035411
-0.30354127
-0.30354149
-0.30354176
-0.3035421
-0.30354253
-0.30354305
-0.30354369
-0.30354445
-0.30354536
-0.30354643
-0.30354768
-0.30354911
-0.30355074
-0.30355257
-0.30355458
-0.30355676
-0.30355908
-0.30356149
-0.30356398
-0.30356654
-0.30356921
-0.30357217
-0.30357581
-0.30358088
-0.3035887
-0.30360138
-0.30362072
-0.30365969
-0.30371126
-0.30377656
-0.3038733
-0.303988
-0.30411769
-0.30424896
-0.30436764
-0.30445923
-0.30451051
-0.30451017
-0.30444389
-0.30427744
-0.30392539
-0.30321414
-0.30190373
-0.2996005
-0.29552206
-0.28837231
-0.27708869
-0.26110865
-0.24236252
-0.22198866
-0.2012214
-0.18159272
-0.16524679
-0.15199015
-0.14429991
-0.13638463
-0.13042842
-0.11453977
-0.10261914
-0.070224143
-0.30411676
-0.30411668
-0.3041166
-0.30411653
-0.30411648
-0.30411645
-0.30411644
-0.30411647
-0.30411654
-0.30411665
-0.30411682
-0.30411706
-0.30411737
-0.30411777
-0.30411827
-0.30411886
-0.30411955
-0.30412033
-0.30412118
-0.30412208
-0.30412296
-0.30412376
-0.30412439
-0.30412476
-0.30412475
-0.30412429
-0.3041234
-0.30412223
-0.30412125
-0.30412139
-0.30412383
-0.30413428
-0.30414968
-0.30416937
-0.30421448
-0.30428648
-0.30436236
-0.30445133
-0.3045382
-0.30461108
-0.30465792
-0.30466648
-0.30462781
-0.30452599
-0.3043091
-0.30386537
-0.3030153
-0.30152593
-0.29873197
-0.29359143
-0.2849123
-0.27198279
-0.25582425
-0.23795353
-0.21759509
-0.1983595
-0.18014352
-0.16436731
-0.15090443
-0.14206972
-0.13242137
-0.12520137
-0.10930107
-0.098185044
-0.068984838
-0.30465987
-0.30465983
-0.3046598
-0.30465979
-0.3046598
-0.30465983
-0.30465989
-0.30465998
-0.30466011
-0.30466028
-0.3046605
-0.30466077
-0.30466111
-0.3046615
-0.30466195
-0.30466245
-0.30466298
-0.30466352
-0.30466402
-0.30466441
-0.30466459
-0.30466444
-0.30466378
-0.30466241
-0.30466009
-0.30465655
-0.30465158
-0.30464504
-0.30463701
-0.30462797
-0.3046185
-0.30461325
-0.30460815
-0.3046155
-0.30463544
-0.30466007
-0.30469908
-0.30473998
-0.30477379
-0.30478648
-0.30476818
-0.30470621
-0.30459162
-0.30441094
-0.30408639
-0.3035106
-0.30253087
-0.30057927
-0.29681187
-0.29012425
-0.27958031
-0.26600424
-0.25041296
-0.23187797
-0.21342312
-0.19530701
-0.17797944
-0.16277285
-0.14932243
-0.13950061
-0.12879829
-0.12059683
-0.10471302
-0.094303692
-0.067859638
-0.30517214
-0.30517234
-0.30517259
-0.30517287
-0.3051732
-0.30517358
-0.30517401
-0.30517451
-0.30517508
-0.30517571
-0.30517643
-0.30517721
-0.30517808
-0.30517901
-0.30518
-0.30518102
-0.30518204
-0.305183
-0.30518383
-0.3051844
-0.30518456
-0.30518409
-0.30518273
-0.30518013
-0.30517587
-0.30516948
-0.30516047
-0.30514837
-0.30513287
-0.30511396
-0.30509202
-0.3050688
-0.30504453
-0.30502233
-0.30500761
-0.3049957
-0.30498676
-0.3049711
-0.30493801
-0.3048695
-0.30475945
-0.30459354
-0.304376
-0.3040818
-0.30364382
-0.30295582
-0.30154673
-0.29868859
-0.29345598
-0.28472522
-0.27327083
-0.25986083
-0.24336561
-0.22616841
-0.20896107
-0.19176317
-0.17532734
-0.1606236
-0.14715592
-0.13674002
-0.12524977
-0.11639773
-0.10076929
-0.090955273
-0.066797672
-0.30565609
-0.30565673
-0.30565751
-0.30565835
-0.30565928
-0.30566032
-0.30566147
-0.30566275
-0.30566416
-0.3056657
-0.30566738
-0.30566919
-0.30567113
-0.30567318
-0.30567531
-0.3056775
-0.30567966
-0.30568171
-0.30568352
-0.30568491
-0.30568564
-0.30568539
-0.30568374
-0.30568018
-0.30567406
-0.30566463
-0.30565106
-0.30563247
-0.30560805
-0.30557721
-0.30553974
-0.30549603
-0.30544721
-0.30539481
-0.30534155
-0.30528406
-0.30521855
-0.30513278
-0.30501363
-0.30484377
-0.30462403
-0.30434039
-0.30402212
-0.30364085
-0.30308678
-0.30198289
-0.29971883
-0.29549986
-0.28817701
-0.27839693
-0.26689973
-0.25229487
-0.23640344
-0.2207859
-0.20420598
-0.18795574
-0.17223958
-0.15798703
-0.14461154
-0.13378218
-0.12181883
-0.11254592
-0.097230427
-0.087934892
-0.065748013
-0.30612583
-0.30612713
-0.30612867
-0.30613033
-0.30613215
-0.30613416
-0.30613638
-0.3061388
-0.30614145
-0.30614432
-0.30614742
-0.30615075
-0.30615428
-0.306158
-0.30616185
-0.30616577
-0.30616967
-0.3061734
-0.30617676
-0.30617951
-0.30618128
-0.30618161
-0.30617993
-0.30617549
-0.3061674
-0.30615457
-0.30613579
-0.30610973
-0.30607505
-0.30603054
-0.30597526
-0.30590873
-0.30583145
-0.30574432
-0.30564617
-0.30553419
-0.30540004
-0.3052298
-0.30501776
-0.30472905
-0.30439968
-0.30403658
-0.30365677
-0.30313906
-0.30218643
-0.30028335
-0.29671788
-0.29044733
-0.28195847
-0.27206087
-0.25907219
-0.24466445
-0.23031289
-0.21493605
-0.19927911
-0.18382904
-0.16875917
-0.15493909
-0.14168919
-0.13064175
-0.11841929
-0.1089098
-0.094003496
-0.085169142
-0.06466879
-0.30660405
-0.30660619
-0.30660873
-0.30661143
-0.30661439
-0.30661765
-0.30662122
-0.30662511
-0.30662933
-0.3066339
-0.3066388
-0.30664404
-0.30664958
-0.30665539
-0.30666139
-0.30666748
-0.30667351
-0.30667929
-0.30668453
-0.30668888
-0.30669183
-0.30669278
-0.30669093
-0.30668529
-0.30667467
-0.30665764
-0.30663259
-0.30659772
-0.30655114
-0.30649118
-0.30641782
-0.30632143
-0.30620618
-0.30608111
-0.30593187
-0.30575732
-0.30554654
-0.30528628
-0.30495805
-0.30461848
-0.30420867
-0.30378324
-0.30326375
-0.3023553
-0.30065172
-0.29749624
-0.29198535
-0.28442271
-0.27587544
-0.26422911
-0.25100097
-0.23795285
-0.22373177
-0.20914667
-0.19420075
-0.1794335
-0.16494438
-0.15153192
-0.13847136
-0.12734364
-0.11503719
-0.10543862
-0.090982058
-0.082563523
-0.063532887
-0.30712522
-0.30712832
-0.30713198
-0.30713588
-0.30714013
-0.30714478
-0.30714987
-0.3071554
-0.30716139
-0.30716783
-0.30717474
-0.30718208
-0.30718982
-0.30719788
-0.30720617
-0.30721454
-0.30722278
-0.3072306
-0.30723763
-0.30724337
-0.30724717
-0.30724821
-0.30724547
-0.30723768
-0.30722331
-0.30720059
-0.30716745
-0.30712157
-0.30706057
-0.30698651
-0.3068795
-0.30674698
-0.30661003
-0.3064401
-0.30623325
-0.30599625
-0.30569423
-0.30535561
-0.30497611
-0.30455539
-0.30409293
-0.3035419
-0.30262065
-0.30098574
-0.29808595
-0.29315625
-0.2861844
-0.2786168
-0.26815366
-0.25590291
-0.24389918
-0.23091373
-0.21729954
-0.20326137
-0.18893435
-0.17478668
-0.16082576
-0.14781044
-0.13498109
-0.12388721
-0.11163078
-0.10205499
-0.088085256
-0.080054708
-0.062311265
-0.3077412
-0.30774526
-0.30775006
-0.30775514
-0.30776068
-0.30776673
-0.30777332
-0.30778046
-0.30778817
-0.30779643
-0.30780525
-0.30781457
-0.30782434
-0.30783445
-0.30784476
-0.30785504
-0.30786502
-0.30787431
-0.30788239
-0.30788861
-0.30789213
-0.3078919
-0.30788662
-0.30787472
-0.3078543
-0.30782318
-0.30777883
-0.30771837
-0.3076414
-0.30753577
-0.30740397
-0.30725348
-0.30707168
-0.30685328
-0.30658547
-0.30627889
-0.30594122
-0.30552832
-0.30508426
-0.3045992
-0.30399133
-0.30305653
-0.30139453
-0.29864168
-0.2941957
-0.28757464
-0.28066067
-0.27118779
-0.25972356
-0.24862672
-0.23659677
-0.22401988
-0.210819
-0.19728497
-0.18351147
-0.16991098
-0.15643874
-0.14381176
-0.13125484
-0.1202821
-0.10817878
-0.098716838
-0.085253691
-0.077590592
-0.060986359
-0.30851298
-0.30851787
-0.30852362
-0.30852971
-0.30853632
-0.30854352
-0.30855134
-0.30855978
-0.30856885
-0.30857853
-0.30858879
-0.30859957
-0.30861076
-0.30862221
-0.30863372
-0.30864498
-0.30865561
-0.3086651
-0.30867277
-0.30867779
-0.30867908
-0.30867535
-0.30866497
-0.30864605
-0.30861635
-0.30857325
-0.30851327
-0.30843226
-0.30833572
-0.30822795
-0.30807252
-0.30786091
-0.3076254
-0.30736014
-0.30705411
-0.30668216
-0.30627552
-0.30582994
-0.30529564
-0.30464133
-0.30364721
-0.30199141
-0.29920051
-0.29515839
-0.28882328
-0.28225103
-0.27365223
-0.26279793
-0.25240851
-0.24130858
-0.2294868
-0.21714126
-0.20430702
-0.1912117
-0.17792286
-0.16481863
-0.1518033
-0.13956097
-0.12730791
-0.11652651
-0.10465563
-0.095376976
-0.082432348
-0.075126327
-0.059539908
-0.30952478
-0.30953016
-0.30953647
-0.30954313
-0.30955033
-0.30955815
-0.3095666
-0.30957568
-0.30958537
-0.30959563
-0.30960641
-0.30961761
-0.30962906
-0.30964056
-0.30965181
-0.30966242
-0.30967187
-0.30967951
-0.30968446
-0.30968569
-0.30968186
-0.30967138
-0.30965234
-0.30962244
-0.30957889
-0.309518
-0.30943864
-0.30935581
-0.30923926
-0.30905927
-0.30885197
-0.30861978
-0.30834458
-0.30802152
-0.30764639
-0.30722421
-0.30674319
-0.30619669
-0.30548967
-0.30443813
-0.30272067
-0.29995498
-0.29581379
-0.28999903
-0.28358366
-0.27577017
-0.26545329
-0.25557084
-0.24521665
-0.23405303
-0.2223624
-0.21024348
-0.1977287
-0.18502188
-0.17216968
-0.15951869
-0.14693625
-0.13507649
-0.12315454
-0.11261955
-0.10104154
-0.092003075
-0.079582907
-0.072629916
-0.057960062
-0.31085244
-0.31085789
-0.31086428
-0.31087099
-0.3108782
-0.31088598
-0.31089433
-0.31090321
-0.31091259
-0.31092239
-0.31093252
-0.3109428
-0.31095301
-0.31096285
-0.31097191
-0.31097967
-0.31098545
-0.31098837
-0.31098736
-0.31098108
-0.31096789
-0.31094582
-0.31091231
-0.31086394
-0.31080259
-0.31073789
-0.31065206
-0.31049688
-0.31030575
-0.31010733
-0.3098661
-0.30957775
-0.3092322
-0.30883878
-0.30840228
-0.30790169
-0.30731784
-0.30656848
-0.30546324
-0.30370457
-0.30095558
-0.29691429
-0.29132164
-0.2849366
-0.27781894
-0.26803228
-0.25838098
-0.24861215
-0.23794501
-0.22682096
-0.2152421
-0.20330565
-0.19106505
-0.17870283
-0.16624508
-0.1540144
-0.14184648
-0.13037007
-0.11880117
-0.10855692
-0.097318149
-0.088564399
-0.076669891
-0.07007154
-0.056233172
-0.31259742
-0.31260252
-0.31260845
-0.31261463
-0.31262121
-0.31262823
-0.31263565
-0.31264341
-0.31265142
-0.31265957
-0.31266766
-0.31267547
-0.31268265
-0.31268879
-0.31269332
-0.31269554
-0.31269454
-0.31268919
-0.31267811
-0.31265964
-0.31263159
-0.31259104
-0.31253895
-0.3124795
-0.31239917
-0.31227221
-0.3121097
-0.31192601
-0.31170718
-0.31144194
-0.31112766
-0.31076241
-0.31034968
-0.30988299
-0.30935318
-0.30873145
-0.30793126
-0.3067737
-0.30497759
-0.30223443
-0.29829706
-0.29289427
-0.28670565
-0.27985483
-0.27089254
-0.2611421
-0.25173528
-0.24144406
-0.23071749
-0.21958082
-0.20806582
-0.1962858
-0.18428548
-0.17223442
-0.16014013
-0.14830473
-0.13653832
-0.12544742
-0.11425038
-0.10433271
-0.093468887
-0.085036885
-0.073667366
-0.067429869
-0.054351726
-0.31487793
-0.31488223
-0.31488718
-0.31489225
-0.31489753
-0.31490303
-0.31490864
-0.31491427
-0.31491976
-0.3149249
-0.31492941
-0.31493293
-0.31493499
-0.31493499
-0.31493215
-0.31492554
-0.31491391
-0.31489565
-0.31486913
-0.31483531
-0.31478846
-0.31472729
-0.31464771
-0.31453435
-0.31439053
-0.31422054
-0.31401722
-0.31377137
-0.31347844
-0.31313494
-0.31274207
-0.31229725
-0.31179427
-0.31122571
-0.3105568
-0.30969847
-0.30848081
-0.30663819
-0.30389381
-0.30003708
-0.29483126
-0.28873521
-0.28209619
-0.273458
-0.2641046
-0.25476652
-0.24474406
-0.23430533
-0.22345755
-0.21227063
-0.20080249
-0.18915206
-0.17736395
-0.16559747
-0.15384241
-0.14238437
-0.1310112
-0.12031018
-0.10950142
-0.099939971
-0.089479178
-0.081399264
-0.070552446
-0.064686241
-0.052306306
-0.31786059
-0.31786354
-0.31786683
-0.31787004
-0.31787317
-0.31787616
-0.31787884
-0.31788103
-0.31788249
-0.31788287
-0.31788178
-0.31787868
-0.31787289
-0.31786358
-0.3178497
-0.31782996
-0.31780277
-0.31776623
-0.31771812
-0.31765558
-0.3175753
-0.31747411
-0.31734475
-0.31718512
-0.31699419
-0.3167638
-0.31648815
-0.31616314
-0.31578736
-0.31535871
-0.31487369
-0.31432903
-0.31371135
-0.31298201
-0.31205146
-0.31075486
-0.30885399
-0.30607574
-0.30227422
-0.29721637
-0.2911662
-0.28465378
-0.27631828
-0.26713672
-0.25794388
-0.24805151
-0.23777182
-0.22710235
-0.21610029
-0.2048504
-0.19340464
-0.1818642
-0.17026846
-0.15876788
-0.14733593
-0.13624413
-0.12526058
-0.11495567
-0.10455032
-0.095370368
-0.085335373
-0.077633522
-0.067307473
-0.061825879
-0.050093577
-0.32178863
-0.32178926
-0.32178974
-0.32178982
-0.32178938
-0.32178824
-0.32178616
-0.32178285
-0.32177792
-0.32177089
-0.32176115
-0.32174796
-0.32173039
-0.32170729
-0.32167726
-0.3216386
-0.32158928
-0.32152704
-0.32144881
-0.32134801
-0.32122402
-0.32107597
-0.32089553
-0.32067779
-0.3204173
-0.32010954
-0.31975143
-0.31933953
-0.31887028
-0.31834101
-0.31774595
-0.31706784
-0.31626334
-0.31524175
-0.31384492
-0.31185355
-0.30902289
-0.30519598
-0.30028268
-0.29419922
-0.28773441
-0.27959926
-0.2704815
-0.26130598
-0.25153139
-0.24130001
-0.2306918
-0.21976831
-0.20859928
-0.19726571
-0.18582722
-0.17438297
-0.16296622
-0.15171997
-0.14060192
-0.1298715
-0.11927854
-0.10937834
-0.09939132
-0.090615174
-0.08102545
-0.073723951
-0.063917611
-0.058837076
-0.047708438
-0.32696151
-0.32695832
-0.32695417
-0.32694917
-0.32694298
-0.32693528
-0.32692573
-0.32691386
-0.32689913
-0.32688086
-0.32685822
-0.32683018
-0.3267955
-0.32675269
-0.32669994
-0.32663508
-0.32655555
-0.32645837
-0.32634007
-0.32619667
-0.32602382
-0.32581655
-0.32556978
-0.32527876
-0.32493913
-0.3245462
-0.32409564
-0.32358409
-0.32300705
-0.32235494
-0.32160534
-0.3207094
-0.31957353
-0.31804536
-0.31591871
-0.3129752
-0.30905039
-0.30409734
-0.2980196
-0.29144117
-0.28344293
-0.27433229
-0.26508226
-0.25531624
-0.24506025
-0.23440775
-0.22344315
-0.21224572
-0.2008886
-0.18945947
-0.17801856
-0.1666635
-0.15542018
-0.14442439
-0.13361846
-0.1232509
-0.11305422
-0.10356995
-0.094016741
-0.085664881
-0.076538213
-0.069656432
-0.060371318
-0.055708739
-0.04514968
-0.33376924
-0.3337602
-0.33374902
-0.33373636
-0.33372158
-0.33370416
-0.33368359
-0.33365926
-0.33363041
-0.3335961
-0.33355525
-0.33350651
-0.33344829
-0.33337868
-0.33329544
-0.33319595
-0.33307711
-0.33293539
-0.33276674
-0.33256681
-0.33233094
-0.33205424
-0.33173159
-0.33135774
-0.33092774
-0.33043701
-0.32988028
-0.32924982
-0.32853123
-0.32769562
-0.32668728
-0.32540897
-0.32371116
-0.32140012
-0.31827099
-0.31417034
-0.30902677
-0.30282161
-0.29595686
-0.28805766
-0.27883811
-0.2694571
-0.25958756
-0.24920724
-0.23841454
-0.22729863
-0.21595014
-0.20445731
-0.19290027
-0.18136906
-0.16992343
-0.15865817
-0.1475906
-0.13684919
-0.12636091
-0.11636402
-0.10657433
-0.097520277
-0.088417861
-0.08050994
-0.071863742
-0.065417582
-0.056658364
-0.052423489
-0.042426031
-0.34258211
-0.3425648
-0.34254372
-0.34252033
-0.34249358
-0.34246271
-0.34242704
-0.34238574
-0.34233782
-0.34228208
-0.34221714
-0.34214134
-0.34205274
-0.34194898
-0.34182741
-0.34168502
-0.34151831
-0.34132333
-0.34109581
-0.34083101
-0.34052382
-0.34016898
-0.33976114
-0.33929471
-0.33876353
-0.33815978
-0.33747163
-0.33667871
-0.33574449
-0.33460546
-0.33315917
-0.33125768
-0.32871483
-0.32534168
-0.32098774
-0.31558764
-0.30912901
-0.30188603
-0.29380572
-0.2844288
-0.27474651
-0.26465168
-0.25397724
-0.24290285
-0.23150811
-0.2198837
-0.20812307
-0.19632024
-0.18455782
-0.17292642
-0.16148237
-0.1503162
-0.13943542
-0.1289605
-0.11880299
-0.109191
-0.099824117
-0.091217924
-0.082585409
-0.075141079
-0.066994048
-0.060998959
-0.052776147
-0.048997007
-0.039511904
-0.35380775
-0.35377956
-0.35374548
-0.35370809
-0.35366585
-0.35361773
-0.35356282
-0.35350003
-0.35342801
-0.3533453
-0.3532519
-0.35314703
-0.35302284
-0.35287408
-0.35270467
-0.35251272
-0.35229143
-0.35203627
-0.35174252
-0.35140535
-0.35101916
-0.3505779
-0.35007464
-0.34950092
-0.34884515
-0.34808986
-0.34720685
-0.3461501
-0.34484641
-0.34318646
-0.34102151
-0.3381728
-0.33446137
-0.32975301
-0.32396683
-0.31713854
-0.30946846
-0.30100447
-0.29129555
-0.28120414
-0.27067404
-0.25954437
-0.2480376
-0.23622273
-0.22418734
-0.21202944
-0.19984474
-0.18773092
-0.17577068
-0.16405267
-0.15262789
-0.14158087
-0.13090814
-0.12072115
-0.11091595