/*--------------------------------*- C++ -*----------------------------------*\
  =========                 |
  \\      /  F ield         | OpenFOAM: The Open Source CFD Toolbox
   \\    /   O peration     | Website:  https://openfoam.org
    \\  /    A nd           | Version:  13
     \\/     M anipulation  |
\*---------------------------------------------------------------------------*/
FoamFile
{
    format      ascii;
    class       volScalarField;
    location    "41.399559";
    object      pMean;
}
// * * * * * * * * * * * * * * * * * * * * * * * * * * * * * * * * * * * * * //

dimensions      [0 2 -2 0 0 0 0];

internalField   nonuniform List<scalar> 
17140
(
0.97291457
0.97283953
0.97274899
0.9726568
0.97255727
0.97244895
0.97233176
0.9722055
0.97206994
0.97192488
0.97177017
0.97160561
0.97143088
0.9712453
0.97104763
0.97083569
0.97060584
0.97035229
0.97006629
0.96973493
0.96933986
0.96885553
0.96824665
0.96746507
0.96645459
0.96516819
0.96357624
0.96164491
0.95931421
0.95650573
0.95313281
0.94909798
0.94429458
0.93860974
0.93192773
0.92413469
0.91512462
0.90480753
0.89312211
0.88005465
0.86566205
0.85010062
0.83366743
0.81682732
0.80024046
0.78476069
0.77125326
0.7605914
0.75364628
0.75112852
0.75352198
0.76110721
0.77402259
0.79199155
0.81470354
0.8410897
0.87065049
0.90132611
0.93385055
0.96405775
0.99607705
1.02068
1.0517119
1.0660851
1.0932548
0.97173723
0.97166362
0.97157484
0.97148446
0.97138685
0.97128057
0.97116555
0.97104163
0.97090858
0.97076622
0.97061442
0.970453
0.97028166
0.97009978
0.96990618
0.96969876
0.96947397
0.96922614
0.96894663
0.96862272
0.96823621
0.96776174
0.9671643
0.96639612
0.96540062
0.96412982
0.96255415
0.9606403
0.9583281
0.95553867
0.95218511
0.94816971
0.94338543
0.93771879
0.93105344
0.92327477
0.91427595
0.90396603
0.89228272
0.87921123
0.86480741
0.84922699
0.83276604
0.81589181
0.79927374
0.78374629
0.770188
0.75950519
0.75254494
0.75000218
0.75237568
0.75994563
0.77282962
0.79075868
0.81341374
0.83970705
0.86913723
0.89962911
0.9319083
0.96181447
0.99366781
1.018479
1.0500353
1.0651282
1.0931449
0.9688261
0.96875607
0.96867178
0.96858573
0.96849271
0.96839135
0.96828166
0.96816347
0.96803652
0.96790069
0.9677559
0.96760204
0.96743888
0.96726591
0.9670821
0.96688553
0.96667288
0.96643877
0.96617488
0.96586886
0.96550291
0.96505217
0.9644823
0.96374639
0.96278717
0.96155448
0.96001781
0.95814439
0.95587489
0.9531301
0.94982209
0.94585264
0.94111364
0.93549031
0.92886468
0.92112035
0.91214836
0.90185551
0.89017723
0.87709642
0.8626669
0.84704381
0.83052392
0.81358297
0.79689816
0.78128711
0.76764418
0.75689341
0.74988713
0.74731284
0.74964834
0.75716075
0.76997203
0.78781284
0.8103474
0.83647873
0.86569647
0.89591228
0.92787686
0.95753015
0.98934396
1.0145665
1.0469789
1.0631004
1.092228
0.96423641
0.96417212
0.96409496
0.96401569
0.96392991
0.96383644
0.96373522
0.96362608
0.96350881
0.96338335
0.96324967
0.96310775
0.96295748
0.96279852
0.96263005
0.96245043
0.9622567
0.9620439
0.96180423
0.96152589
0.96119177
0.96077773
0.96025049
0.95956452
0.95866206
0.95748973
0.95601413
0.95420304
0.95199957
0.94932441
0.94608777
0.94219061
0.93752332
0.93196909
0.92540748
0.91771927
0.90879235
0.8985301
0.8868644
0.87377465
0.85931214
0.8436314
0.82703103
0.80999892
0.79321917
0.77749492
0.7637466
0.75290885
0.7458403
0.7432216
0.74550984
0.75294803
0.7656505
0.7833493
0.80569624
0.83156724
0.86045553
0.89031543
0.92191574
0.9513322
0.98327918
1.0092625
1.0428738
1.0603059
1.0906249
0.95811647
0.95805992
0.95799238
0.9579223
0.95784635
0.95776352
0.95767371
0.95757678
0.95747261
0.95736116
0.95724246
0.95711661
0.95698363
0.95684339
0.95669532
0.95653814
0.95636934
0.9561845
0.95597648
0.95573426
0.9554416
0.95507539
0.95460366
0.95398276
0.95315543
0.95206429
0.95067021
0.94894127
0.94682501
0.94424245
0.94110126
0.93730134
0.93273116
0.9272714
0.92079855
0.91318974
0.90432876
0.89411459
0.88247455
0.8693836
0.85488995
0.83914747
0.82245933
0.8053283
0.78843717
0.77259263
0.75873718
0.74781153
0.74068938
0.73803593
0.7402821
0.74764296
0.76022568
0.77775623
0.79986722
0.82541525
0.85393195
0.88340309
0.91467046
0.94401146
0.97630182
1.0033319
1.0383076
1.0570631
1.0884631
0.9507119
0.95066485
0.95060907
0.95055035
0.95048653
0.95041684
0.95034115
0.95025934
0.95017134
0.95007716
0.94997692
0.94987079
0.94975896
0.94964148
0.94951808
0.94938786
0.94924879
0.94909709
0.94892638
0.94872656
0.94848248
0.94817227
0.94776551
0.9472208
0.94648337
0.94549141
0.94419624
0.94256575
0.94055411
0.93808314
0.93505814
0.9313774
0.92692742
0.921586
0.91522609
0.90772062
0.89894862
0.88880382
0.87720801
0.8641309
0.84961711
0.83382014
0.81705035
0.79982583
0.78282477
0.76687346
0.75292343
0.74192412
0.73476476
0.73209907
0.7343262
0.74163007
0.75410497
0.77145949
0.7933083
0.81849297
0.84659096
0.87568075
0.90669253
0.93618703
0.96911477
0.99749434
1.0338951
1.0537513
1.0860363
0.94235538
0.94231918
0.94227629
0.94223073
0.94218103
0.9421266
0.94206731
0.94200307
0.94193385
0.94185972
0.94178084
0.94169747
0.94160992
0.94151842
0.94142296
0.94132299
0.94121698
0.9411018
0.94097187
0.94081811
0.94062656
0.94037685
0.94004029
0.93957788
0.93893808
0.93805726
0.93687685
0.93535894
0.93346276
0.931116
0.92822307
0.92467893
0.92036825
0.91516598
0.90894139
0.90156295
0.89290443
0.88285365
0.87132618
0.85828591
0.84377367
0.82794323
0.81111465
0.79381687
0.77672991
0.76069903
0.7466719
0.73561411
0.72843306
0.72577483
0.72800773
0.73528536
0.74768238
0.76489356
0.78651084
0.81136962
0.8390815
0.86786185
0.89876709
0.92869931
0.9625581
0.99248183
1.030033
1.0506307
1.0832555
0.93345009
0.93342573
0.93339673
0.93336568
0.93333159
0.93329401
0.93325286
0.93320807
0.93315964
0.93310766
0.93305234
0.932994
0.93293301
0.93286971
0.9328043
0.93273651
0.93266524
0.93258793
0.93249979
0.93239275
0.9322541
0.93206504
0.93179883
0.9314189
0.93087705
0.93011251
0.92905852
0.92766239
0.92588607
0.92366935
0.92091738
0.91752129
0.91336393
0.90831743
0.90224761
0.89501846
0.88649836
0.87656892
0.86513901
0.85216652
0.83768837
0.82185994
0.80501242
0.78767639
0.77054303
0.75446636
0.74037974
0.72926989
0.72207123
0.71943496
0.72170013
0.72898166
0.74133874
0.75845448
0.7799026
0.80452504
0.83196537
0.86056399
0.89157934
0.92220667
0.95721388
0.98866857
1.0269197
1.0478729
1.0804869
0.92444517
0.92443324
0.92441882
0.92440305
0.92438542
0.92436567
0.92434373
0.92431955
0.92429316
0.92426468
0.92423431
0.92420238
0.92416926
0.92413535
0.92410093
0.9240659
0.92402944
0.92398945
0.9239418
0.9238793
0.92379046
0.92365803
0.92345726
0.92315411
0.92270358
0.92204872
0.92112254
0.91985812
0.91820445
0.91611309
0.9135022
0.91025858
0.90626143
0.90138164
0.8954819
0.88842203
0.88006513
0.87028667
0.85898897
0.84612403
0.83172538
0.81595061
0.79914081
0.78182299
0.76470237
0.74862445
0.7345036
0.72335363
0.71614673
0.71353929
0.71584087
0.72314649
0.73550735
0.75258199
0.77393063
0.79839982
0.82568831
0.85430852
0.88570175
0.91750177
0.95385553
0.98657047
1.0249537
1.0457683
1.0775782
0.91580397
0.91580449
0.91580468
0.91580429
0.91580327
0.91580155
0.91579908
0.91579584
0.91579189
0.91578732
0.91578234
0.91577722
0.91577229
0.9157679
0.91576429
0.91576139
0.91575849
0.91575373
0.91574342
0.91572107
0.91567621
0.91559294
0.91544841
0.91521109
0.91483912
0.91427921
0.91346739
0.91233366
0.91081028
0.90883876
0.90635405
0.90325809
0.89942445
0.89471802
0.88899943
0.88212568
0.87395576
0.8643602
0.85323574
0.84052953
0.82627273
0.81062555
0.79393311
0.77672031
0.75969789
0.74368686
0.72958938
0.71844699
0.7112564
0.70867695
0.71102436
0.71838385
0.7307775
0.74784646
0.76914281
0.79357128
0.82090025
0.849944
0.88223199
0.91527182
0.95261864
0.98594588
1.0235361
1.0438144
1.0745768
0.9079652
0.90797756
0.90799167
0.908006
0.90802093
0.90803658
0.90805293
0.90807001
0.90808787
0.90810663
0.90812642
0.90814747
0.90816999
0.90819422
0.90822025
0.90824788
0.90827632
0.90830372
0.90832658
0.90833881
0.90833065
0.90828733
0.90818757
0.90800204
0.90769184
0.90720734
0.90648797
0.90546473
0.90406578
0.90222138
0.8998584
0.89688933
0.893204
0.88866946
0.88313999
0.87646931
0.86851365
0.85913972
0.84824096
0.83576163
0.82173225
0.80631552
0.78984834
0.77286035
0.75606001
0.74023305
0.72627488
0.71522821
0.70809648
0.70556992
0.70795267
0.71531059
0.72770221
0.74476955
0.76607735
0.79059327
0.81822066
0.84791567
0.88112939
0.91520304
0.95304258
0.98619778
1.022796
1.0425545
1.0717507
0.90130294
0.90132584
0.90135242
0.90137996
0.9014093
0.90144071
0.90147425
0.90150995
0.90154792
0.90158826
0.90163109
0.90167653
0.9017247
0.90177565
0.90182927
0.90188512
0.90194216
0.90199838
0.90205016
0.90209152
0.90211308
0.90210077
0.90203451
0.90188669
0.90162093
0.90119098
0.90054009
0.89960142
0.89830264
0.89657
0.89432653
0.89148581
0.88794203
0.88357033
0.87823084
0.87177777
0.86406612
0.85496134
0.84435443
0.83218895
0.81849537
0.8034365
0.78734184
0.77073853
0.7543104
0.73882116
0.72515229
0.71431686
0.70732008
0.7048004
0.70710266
0.71435944
0.72666452
0.74368324
0.765009
0.78971418
0.81775753
0.84822163
0.88235398
0.91721328
0.95513389
0.98790141
1.0228418
1.0419598
1.0693803
0.89608685
0.89611833
0.89615509
0.89619353
0.89623481
0.89627941
0.89632741
0.89637894
0.89643412
0.8964931
0.89655597
0.89662283
0.89669369
0.89676843
0.89684676
0.89692797
0.89701074
0.89709277
0.89717019
0.89723691
0.89728361
0.89729658
0.89725643
0.89713682
0.8969032
0.89651188
0.89590982
0.89503497
0.89381529
0.89217311
0.89003433
0.88731438
0.88391093
0.87970755
0.87456964
0.8683555
0.86092238
0.85213894
0.84190223
0.83015303
0.8169213
0.802366
0.78681261
0.77076956
0.75488185
0.73988858
0.7266545
0.71615592
0.70927519
0.70669179
0.7088211
0.71590164
0.72804155
0.74497012
0.76633625
0.7912532
0.81988086
0.85115939
0.88615947
0.92135227
0.95874008
0.99017236
1.0235347
1.0417369
1.0671505
0.89245158
0.8924891
0.89253309
0.89257936
0.89262934
0.89268365
0.89274244
0.89280592
0.89287429
0.89294775
0.89302643
0.89311044
0.89319975
0.89329419
0.89339331
0.89349625
0.89360149
0.89370647
0.89380715
0.89389725
0.89396746
0.89400426
0.8939887
0.89389514
0.89369016
0.8933319
0.89276961
0.89194415
0.89078952
0.88923567
0.88717859
0.88457171
0.88131372
0.8772867
0.87236708
0.86642318
0.85932196
0.85093586
0.84115487
0.82993242
0.8172988
0.80340363
0.78855683
0.77323457
0.75804702
0.74369586
0.73101795
0.72085362
0.71406926
0.71138807
0.71329307
0.72011291
0.73204536
0.74887397
0.77024028
0.79544792
0.82456741
0.85673061
0.89203223
0.92703475
0.96301747
0.99335858
1.0243887
1.0416104
1.0653259
0.89037278
0.89041341
0.89046132
0.89051186
0.8905667
0.89062658
0.89069174
0.89076248
0.8908391
0.89092187
0.89101103
0.89110675
0.89120906
0.89131785
0.89143268
0.89155269
0.89167637
0.89180115
0.89192303
0.89203583
0.89213045
0.89219374
0.8922073
0.89214625
0.89197808
0.89166181
0.8911483
0.89038088
0.88929469
0.88782245
0.88591538
0.88343066
0.88027914
0.8764494
0.87178089
0.86614996
0.85942835
0.8514984
0.84226725
0.83169245
0.81979325
0.80670911
0.79272079
0.77826043
0.76389615
0.75029505
0.73816667
0.72832048
0.72162705
0.71879578
0.72043423
0.72698003
0.7386906
0.75536353
0.77668327
0.8021687
0.83201137
0.86452085
0.89962221
0.93362908
0.96818994
0.99646182
1.0255318
1.0416085
1.0637295
0.88969179
0.8897326
0.88978113
0.88983219
0.88988784
0.8899489
0.89001569
0.89008858
0.89016796
0.89025424
0.89034778
0.89044886
0.89055769
0.89067431
0.89079846
0.89092952
0.89106621
0.89120634
0.89134632
0.89148056
0.89160069
0.8916946
0.89174507
0.89172842
0.89161342
0.89136036
0.89092089
0.89023855
0.88924977
0.88788778
0.88608581
0.88374032
0.88083372
0.87721379
0.87279439
0.86751755
0.86124379
0.85386466
0.84529717
0.83548496
0.82444961
0.81230879
0.7993016
0.78581308
0.77235427
0.75949365
0.74789251
0.73835458
0.73169147
0.7287107
0.73009517
0.73638589
0.74785583
0.76426392
0.78564707
0.8116471
0.84172245
0.87401249
0.90828902
0.94094379
0.97332686
0.99978468
1.0267348
1.0418186
1.0625777
0.89011748
0.89015586
0.89020193
0.89025013
0.89030286
0.89036101
0.89042493
0.89049507
0.8905719
0.89065593
0.89074766
0.89084753
0.89095594
0.89107317
0.89119928
0.89133402
0.8914766
0.89162547
0.89177789
0.89192939
0.89207296
0.89219823
0.89229018
0.89232767
0.89228187
0.8921152
0.89178014
0.89122023
0.89037248
0.88916905
0.88753679
0.88542662
0.88274445
0.87940562
0.87538059
0.87050936
0.86474523
0.85800333
0.85019024
0.84125078
0.83119224
0.82009835
0.8081664
0.79571554
0.78315824
0.77101565
0.75992338
0.75061783
0.74398375
0.74086422
0.74204105
0.74808333
0.75919312
0.77553884
0.79721973
0.82331378
0.85302905
0.88489488
0.91760664
0.94837102
0.97861289
1.0030247
1.0281694
1.0423149
1.0618461
0.89132056
0.89135439
0.89139535
0.89143798
0.8914848
0.89153669
0.89159401
0.89165725
0.89172695
0.89180368
0.89188803
0.89198062
0.89208202
0.89219277
0.89231328
0.89244375
0.89258402
0.89273338
0.8928902
0.89305156
0.89321249
0.89336518
0.89349788
0.89359348
0.89362792
0.89356802
0.893371
0.89298357
0.89234258
0.89137895
0.89001744
0.88819281
0.88583522
0.88288871
0.87925783
0.87492079
0.86981312
0.86378367
0.85681111
0.84883842
0.83984575
0.82988108
0.81907921
0.80766981
0.79600206
0.78455084
0.77389282
0.76480146
0.75819044
0.75497807
0.75593502
0.76164875
0.7726548
0.78917482
0.81078528
0.83650757
0.86595817
0.89625241
0.92715172
0.95580659
0.98370939
1.0064402
1.0298857
1.0431496
1.0616088
0.89295028
0.89297828
0.89301232
0.89304769
0.89308671
0.89313016
0.8931784
0.89323191
0.89329125
0.89335702
0.89342987
0.89351048
0.89359957
0.89369789
0.89380613
0.89392491
0.89405465
0.89419547
0.89434689
0.89450757
0.8946748
0.89484376
0.89500661
0.8951513
0.89525999
0.89530742
0.89525848
0.89506698
0.89467572
0.89401731
0.89301702
0.89160104
0.88969471
0.88724504
0.88419154
0.8804862
0.87605744
0.87089022
0.86490358
0.85799616
0.85015384
0.84137419
0.8317202
0.82135096
0.8105468
0.79971791
0.78945745
0.78053667
0.77397118
0.77058494
0.77133829
0.77693302
0.78806034
0.80443792
0.82574288
0.85132929
0.87936126
0.90787218
0.93663858
0.96293641
0.98893817
1.010016
1.0319373
1.0443529
1.0618484
0.89472218
0.89474386
0.89477011
0.89479767
0.89482821
0.89486236
0.89490048
0.894943
0.89499043
0.89504337
0.89510244
0.89516834
0.89524186
0.89532381
0.89541507
0.89551653
0.89562905
0.89575334
0.89588988
0.89603867
0.89619893
0.89636863
0.8965438
0.89671757
0.89687901
0.89701148
0.8970909
0.89708366
0.89694486
0.89661795
0.89603577
0.89512461
0.8938092
0.89202082
0.88969816
0.88679385
0.88327113
0.8790952
0.8741658
0.86842193
0.86179957
0.85423897
0.84574569
0.83639201
0.82638765
0.8161266
0.80618607
0.79743734
0.79077904
0.78729149
0.78796006
0.79369808
0.80475803
0.82090982
0.84224029
0.86673759
0.89286721
0.91934548
0.94570766
0.9701188
0.99424387
1.0138245
1.0343466
1.0459497
1.0625894
0.89642099
0.8964367
0.89645564
0.89647579
0.89649822
0.89652342
0.89655168
0.89658339
0.89661899
0.89665898
0.89670395
0.89675453
0.89681147
0.89687557
0.89694775
0.897029
0.89712038
0.897223
0.8973379
0.89746598
0.89760784
0.89776348
0.89793198
0.89811086
0.89829537
0.89847722
0.8986433
0.89877443
0.89884315
0.89881197
0.89863241
0.89824545
0.89758464
0.89658029
0.89516608
0.89327862
0.89085119
0.88782644
0.88413187
0.87968271
0.87436169
0.86806539
0.86072156
0.8523278
0.84305119
0.83325486
0.8235712
0.81484459
0.80815946
0.80469532
0.80555724
0.81140092
0.82233461
0.83872679
0.85934459
0.88192781
0.90623258
0.93037232
0.95475337
0.97726075
0.99971048
1.0178888
1.037131
1.0479457
1.0638169
0.89793765
0.89794828
0.89796103
0.89797482
0.89799025
0.89800765
0.89802726
0.89804939
0.89807438
0.89810265
0.89813469
0.89817109
0.89821249
0.89825961
0.89831318
0.89837406
0.89844334
0.89852216
0.89861169
0.89871319
0.89882813
0.89895798
0.89910376
0.89926588
0.89944398
0.89963633
0.89983931
0.90004649
0.90024741
0.90042622
0.90055986
0.9006165
0.90055505
0.90032338
0.8998592
0.89909079
0.89793534
0.89629601
0.8940548
0.89107437
0.88718474
0.88220826
0.87600448
0.86850761
0.85985012
0.85039653
0.84082188
0.83215144
0.82555127
0.82237199
0.82355998
0.82948688
0.84100368
0.85706654
0.87587794
0.89694742
0.91907035
0.94120358
0.96365096
0.98446978
1.0053578
1.0222264
1.0403019
1.0503568
1.0655395
0.89923222
0.89923873
0.89924656
0.89925507
0.89926464
0.89927549
0.8992878
0.89930174
0.89931758
0.89933571
0.89935659
0.89938039
0.89940721
0.89943749
0.89947228
0.89951284
0.89956039
0.89961615
0.89968133
0.89975679
0.89984308
0.89994172
0.90005539
0.90018683
0.90033856
0.9005134
0.90071428
0.90094388
0.90120514
0.90150018
0.90182964
0.90219298
0.90258384
0.90298602
0.90336646
0.90366715
0.90379558
0.90361491
0.90294969
0.90158286
0.89923899
0.89565624
0.89058536
0.88395821
0.87581238
0.86661237
0.85719928
0.848656
0.84242486
0.83987663
0.84143488
0.84839812
0.86002089
0.87480019
0.89212373
0.91139394
0.9314652
0.95177312
0.97251894
0.99175931
1.0112106
1.0268577
1.0438574
1.0531831
1.0677482
0.90035398
0.90035689
0.90036041
0.90036427
0.90036864
0.90037366
0.90037946
0.90038619
0.90039402
0.90040313
0.9004137
0.90042585
0.90043997
0.90045676
0.90047705
0.90050148
0.9005303
0.90056388
0.90060335
0.90065069
0.90070788
0.90077581
0.90085604
0.90095148
0.90106628
0.9012072
0.90138193
0.90159816
0.90186635
0.90220106
0.90262031
0.90314935
0.90381319
0.90462908
0.90560753
0.90673144
0.90792789
0.90905355
0.90987908
0.91007911
0.90927744
0.90707647
0.90316444
0.89732418
0.88969252
0.88084866
0.87165686
0.86377014
0.85871219
0.85691662
0.85996137
0.86746404
0.87818182
0.89173525
0.90789161
0.9249905
0.94348554
0.96218271
0.98135971
0.9991533
1.0172796
1.0317867
1.0478018
1.0564255
1.0704328
0.90134163
0.90134056
0.90133933
0.90133802
0.90133662
0.90133531
0.90133423
0.90133343
0.90133297
0.90133292
0.90133351
0.90133544
0.90133872
0.90134175
0.90134394
0.9013469
0.90135232
0.90136196
0.90137819
0.90140243
0.90143504
0.90147571
0.90152543
0.90158889
0.90167194
0.90178098
0.90192534
0.90211758
0.90237405
0.90271516
0.90316786
0.90376925
0.90456237
0.90559237
0.90690682
0.90851995
0.91039733
0.91240857
0.91433373
0.91579278
0.91631453
0.91535901
0.91249785
0.90749478
0.90048373
0.89229324
0.88432763
0.87827601
0.8742967
0.87434737
0.87835621
0.88537694
0.89534444
0.90796622
0.92235579
0.93820133
0.95522725
0.97244557
0.9902073
1.0066662
1.0235744
1.0370202
1.0521302
1.0600808
1.0735901
0.90221938
0.90221359
0.90220678
0.90219963
0.90219189
0.90218345
0.90217434
0.90216471
0.90215464
0.90214409
0.90213312
0.90212182
0.9021102
0.90209839
0.90208671
0.90207564
0.90206615
0.90205952
0.90205649
0.90205864
0.90206906
0.90208929
0.90211943
0.9021628
0.90222529
0.90231321
0.90243525
0.90260488
0.90284163
0.90317001
0.90361851
0.90422455
0.90503695
0.90611509
0.90752271
0.90930284
0.91147514
0.91394707
0.91650244
0.91877902
0.92021005
0.92019844
0.91821131
0.91404178
0.90834159
0.90203146
0.89632711
0.89161315
0.88976961
0.89122264
0.89505755
0.90211465
0.91155838
0.92304448
0.93640368
0.95097142
0.96669198
0.98260002
0.99907449
1.0143101
1.0301009
1.0425594
1.0568388
1.0641463
1.0772105
0.90278835
0.90277798
0.90276578
0.90275293
0.90273892
0.90272331
0.90270584
0.90268705
0.90266802
0.90264878
0.90262876
0.90260783
0.90258613
0.90256369
0.90254055
0.90251698
0.90249349
0.90247074
0.90244998
0.90243353
0.90242428
0.90242501
0.90243739
0.90246284
0.90250766
0.90258249
0.90269575
0.90285549
0.90307704
0.9033902
0.90382632
0.90441515
0.90521024
0.90627098
0.90766759
0.90946366
0.91166047
0.91422939
0.91696326
0.91951019
0.92134241
0.92194087
0.92101743
0.91852235
0.91489291
0.91086153
0.90692614
0.90447738
0.90464346
0.90633007
0.91081668
0.91766959
0.92671917
0.93742957
0.94982684
0.96335385
0.97794309
0.99266872
1.0079807
1.0220965
1.0368631
1.0484045
1.0619205
1.0686139
1.0812846
0.90284904
0.90283589
0.90282044
0.90280412
0.90278646
0.90276724
0.90274638
0.90272377
0.90269944
0.90267351
0.90264608
0.90261728
0.9025873
0.90255645
0.90252517
0.90249402
0.90246378
0.90243544
0.90241014
0.90238924
0.90237557
0.90237407
0.90238731
0.90241309
0.9024541
0.90252196
0.90262728
0.90277908
0.90299219
0.90328096
0.90367466
0.90421749
0.90495277
0.90593172
0.90720021
0.90881799
0.91084399
0.91325029
0.91591193
0.91854887
0.92082182
0.92236413
0.92281267
0.92211975
0.9206672
0.91859037
0.91681116
0.91683187
0.91777227
0.92053981
0.92563478
0.93235659
0.9409816
0.95115054
0.96280572
0.97542145
0.98900691
1.002678
1.0169414
1.0300347
1.0438628
1.0545552
1.0673707
1.0734872
1.0858046
0.90207941
0.90206698
0.90205237
0.90203694
0.90202024
0.90200207
0.90198241
0.90196124
0.90193855
0.90191438
0.9018888
0.90186195
0.90183405
0.90180539
0.90177639
0.90174764
0.90171988
0.90169386
0.90167084
0.90165309
0.90164262
0.90164098
0.90165074
0.90167521
0.90171911
0.90179016
0.90189415
0.90203537
0.90222734
0.90250423
0.90288446
0.90338146
0.90404056
0.90491205
0.90606741
0.90755805
0.90942514
0.91169521
0.91431399
0.91716052
0.91997619
0.92246227
0.92431576
0.92549491
0.92584628
0.92567106
0.92652024
0.92789931
0.9299926
0.93392565
0.93925205
0.94612405
0.95459018
0.96434377
0.97536913
0.98720983
0.99992315
1.0126533
1.0259724
1.0381329
1.0511034
1.0610103
1.0731822
1.0787557
1.0907511
0.90060998
0.90060077
0.90058995
0.90057853
0.90056618
0.90055278
0.90053832
0.90052278
0.90050619
0.90048861
0.90047013
0.90045087
0.90043108
0.90041109
0.90039137
0.90037251
0.9003553
0.90034073
0.90033014
0.90032509
0.90032726
0.90033906
0.90036381
0.9004049
0.9004629
0.90054133
0.90065084
0.90081121
0.9010284
0.90129921
0.90165369
0.90213943
0.90279315
0.90364094
0.90472989
0.90615023
0.90797066
0.91023329
0.91296854
0.91613834
0.91960027
0.92307481
0.92631356
0.92889967
0.93073793
0.93299812
0.93552694
0.93806006
0.94165667
0.94630194
0.95217776
0.95926726
0.96763311
0.97707705
0.98760052
0.99877926
1.0107284
1.0226196
1.0350894
1.0464011
1.0585877
1.0677686
1.0793479
1.0844114
1.0961201
0.89854251
0.89853713
0.89853084
0.89852425
0.8985172
0.89850963
0.89850157
0.89849307
0.89848421
0.89847509
0.89846588
0.89845678
0.89844807
0.89844012
0.89843354
0.89842907
0.89842769
0.89843057
0.89843919
0.89845537
0.89848152
0.89852031
0.89857197
0.89863981
0.89872699
0.89884449
0.89901131
0.89922228
0.89948815
0.89983622
0.90027011
0.90081323
0.90151034
0.90240802
0.90356228
0.90504274
0.90693642
0.90934393
0.91236622
0.91601724
0.92017534
0.92461423
0.92884667
0.93245627
0.93630625
0.94029743
0.94390228
0.94794397
0.95262955
0.95810738
0.96450208
0.97184817
0.98022014
0.98944704
0.99956133
1.0101758
1.0214591
1.0326022
1.0443096
1.0548442
1.0663151
1.0748239
1.085864
1.0904339
1.1019264
0.89606203
0.89605951
0.89605665
0.89605377
0.89605084
0.89604789
0.89604501
0.89604231
0.89603996
0.89603815
0.89603717
0.89603737
0.89603922
0.89604333
0.89605047
0.89606163
0.89607804
0.89610126
0.89613327
0.89617635
0.89623197
0.89630285
0.89639412
0.89651563
0.8966748
0.89687255
0.89711984
0.89742355
0.89778761
0.89823381
0.89878445
0.89946135
0.90029394
0.90131975
0.90260479
0.90424274
0.90635719
0.90910229
0.9126035
0.91685473
0.92176738
0.92693865
0.93182211
0.93699337
0.94239517
0.94729275
0.95224426
0.95753932
0.96322636
0.96946659
0.9763952
0.98403619
0.99246224
1.0015358
1.0113206
1.0214526
1.0321524
1.0426265
1.0536468
1.0634699
1.0742907
1.0821715
1.0927265
1.0968158
1.1081349
0.89307201
0.89307127
0.89307059
0.89307013
0.89306998
0.89307025
0.89307111
0.89307277
0.89307549
0.89307962
0.89308559
0.89309396
0.89310542
0.89312085
0.89314136
0.89316833
0.89320347
0.89324892
0.89330724
0.89338104
0.89347444
0.89359285
0.89374421
0.89393338
0.89416358
0.89444367
0.89478357
0.89519475
0.89568967
0.89628156
0.89698731
0.89782559
0.8988281
0.90005384
0.90158647
0.9035478
0.90610169
0.90941684
0.91355252
0.91850103
0.92409037
0.92968986
0.93578261
0.94226873
0.9484452
0.95448432
0.96067736
0.9669986
0.97358547
0.98054983
0.98799367
0.99593608
1.0044549
1.0134265
1.0229425
1.0326585
1.0428448
1.052718
1.0631178
1.0722884
1.0825187
1.089807
1.099929
1.1035529
1.1147279
0.88931235
0.88931347
0.88931507
0.88931717
0.88932
0.88932376
0.8893287
0.88933516
0.88934352
0.88935431
0.88936815
0.88938583
0.88940833
0.88943687
0.88947294
0.8895184
0.88957549
0.88964696
0.88973609
0.88984692
0.88998502
0.89015525
0.89036385
0.89061846
0.8909269
0.89129949
0.89174672
0.89228038
0.89291269
0.89365633
0.89452964
0.89556722
0.89681935
0.89835858
0.90030296
0.90280959
0.90604373
0.91011461
0.9150183
0.92075792
0.92678481
0.93340927
0.94064731
0.94781147
0.95489769
0.96203904
0.96920046
0.97645139
0.98386241
0.99149228
0.9994257
1.0076681
1.0162975
1.0251992
1.0344916
1.0438436
1.0535726
1.0629022
1.0727375
1.0813089
1.0909957
1.0977382
1.1074593
1.11064
1.1216982
0.88438341
0.88438779
0.88439336
0.88439983
0.88440762
0.88441707
0.88442855
0.88444252
0.88445955
0.88448033
0.88450573
0.8845368
0.88457483
0.88462141
0.88467843
0.88474825
0.88483365
0.88493802
0.88506538
0.88522047
0.88540885
0.88563703
0.88591266
0.8862441
0.88664154
0.88711558
0.88767631
0.88833643
0.88911365
0.8900322
0.89112432
0.89243832
0.8940504
0.89607367
0.89865449
0.90194829
0.9060705
0.9110505
0.9168821
0.92322048
0.93015719
0.93795756
0.94585729
0.95379696
0.96179405
0.96984207
0.97791807
0.98601868
0.99417681
1.0024196
1.0108087
1.0193355
1.0280797
1.0369303
1.0460295
1.055056
1.0643715
1.0732044
1.082522
1.0905378
1.0997266
1.1059537
1.1153096
1.1180648
1.1290211
0.87789314
0.87790296
0.87791507
0.87792866
0.87794444
0.87796293
0.87798464
0.87801019
0.87804034
0.87807603
0.87811836
0.87816871
0.87822869
0.87830029
0.87838584
0.87848817
0.87861059
0.87875713
0.87893253
0.87914206
0.87939218
0.87969072
0.88004554
0.88046548
0.88096074
0.88154431
0.88223321
0.8830469
0.88401085
0.88516226
0.88655665
0.88827549
0.8904319
0.89316511
0.89662011
0.90090613
0.90606261
0.91208539
0.91876026
0.9259903
0.93418504
0.94269268
0.95129481
0.96013896
0.9690528
0.97799765
0.98692434
0.99580556
1.0046477
1.0134489
1.0222535
1.0310404
1.0398905
1.0486945
1.0576167
1.0663433
1.0752769
1.0836492
1.0924844
1.0999891
1.1087038
1.1144606
1.123462
1.1258256
1.1366664
0.86948555
0.86950325
0.86952481
0.86954859
0.86957573
0.86960698
0.86964303
0.86968467
0.86973291
0.86978893
0.86985413
0.8699302
0.87001912
0.87012334
0.87024555
0.8703884
0.87055624
0.87075496
0.87098923
0.87126378
0.87158535
0.87196266
0.8724062
0.87292723
0.87353895
0.87425844
0.87510825
0.87611951
0.87733685
0.87882411
0.8806707
0.88299383
0.88593312
0.8896257
0.89417738
0.89962514
0.90596231
0.91302707
0.9206762
0.92927104
0.93837063
0.94764865
0.95723616
0.96698465
0.97679334
0.98659129
0.99631698
1.0059204
1.0153852
1.0246893
1.0338637
1.042877
1.0518125
1.0605622
1.0693108
1.0777506
1.0863219
1.0942609
1.1026427
1.1096662
1.117935
1.1232555
1.1319089
1.1338823
1.1446601
0.85878835
0.85881644
0.85885038
0.85888748
0.85892945
0.85897731
0.85903187
0.85909413
0.85916523
0.85924634
0.85933864
0.85944373
0.85956734
0.85971406
0.85988157
0.86007235
0.86029383
0.86055137
0.86085087
0.86119931
0.86160441
0.86207548
0.86262459
0.86326702
0.86402256
0.86491815
0.8659914
0.86729527
0.86890361
0.87091576
0.87345646
0.87666697
0.88068396
0.88560327
0.89147094
0.89825556
0.90582969
0.91402429
0.92313879
0.93284779
0.94282658
0.95316084
0.96372149
0.97440228
0.98510191
0.99572954
1.0062104
1.016479
1.0265048
1.0362518
1.0457422
1.0549379
1.0639261
1.072601
1.0811662
1.0893216
1.0975393
1.1050615
1.1130062
1.1195795
1.1274205
1.1323555
1.1406487
1.1424078
1.1528802
0.84564717
0.84568869
0.84573531
0.84578296
0.84583626
0.84590088
0.84598196
0.84607645
0.84617725
0.84628665
0.84641118
0.84655403
0.84671767
0.84690525
0.84712049
0.84736742
0.84765073
0.84797629
0.84835098
0.84878328
0.84928415
0.84986739
0.85055086
0.85135854
0.85232335
0.85349088
0.85492397
0.85670716
0.85894925
0.86178144
0.86534474
0.86977199
0.87515322
0.88152828
0.88887843
0.89703442
0.90586662
0.9156143
0.92603396
0.93677663
0.94791598
0.959336
0.97091725
0.98255153
0.99413077
1.0055547
1.01674
1.0276118
1.0381309
1.0482533
1.0579967
1.0673206
1.0763167
1.0848839
1.0932429
1.1011026
1.1089623
1.1160753
1.1235888
1.1297293
1.137143
1.141718
1.1496237
1.1510451
1.1612282
0.83003779
0.8300948
0.83015385
0.83021393
0.83028441
0.83036594
0.83045924
0.83056736
0.83069346
0.83083974
0.83100915
0.83120424
0.83142451
0.83166885
0.8319392
0.83224196
0.83258601
0.83297964
0.8334314
0.83395237
0.83455708
0.83526489
0.83610224
0.83710572
0.83832612
0.8398333
0.84172103
0.84410983
0.84714494
0.85098594
0.85578102
0.86164781
0.86862592
0.8767027
0.88567602
0.89546636
0.90614739
0.91752969
0.92923457
0.94132727
0.9537174
0.96628465
0.97892222
0.99151712
1.003959
1.0161422
1.0279789
1.0393902
1.0503331
1.0607602
1.0706898
1.0800816
1.0890342
1.0974535
1.1055753
1.1131206
1.1206095
1.1273122
1.1343956
1.1401245
1.1471169
1.151433
1.1589656
1.1606419
1.1711394
0.8115923
0.81166076
0.81174523
0.81183686
0.81193871
0.81205271
0.8121799
0.81232142
0.81247896
0.81265504
0.81285242
0.81307398
0.81332311
0.81360397
0.81392157
0.81428217
0.81469355
0.8151657
0.81571163
0.81634865
0.81710012
0.81799794
0.81908576
0.82042301
0.82208943
0.82418908
0.82685225
0.83023236
0.83449512
0.8397958
0.84625223
0.85392641
0.86275335
0.87265229
0.88350958
0.89531826
0.90782237
0.92063865
0.93383863
0.9473417
0.96102487
0.97478347
0.98850197
1.0020618
1.015348
1.0282528
1.0406863
1.0525701
1.0638603
1.0745123
1.0845452
1.0939267
1.1027615
1.1109678
1.1187934
1.1259763
1.1330517
1.1393145
1.1459356
1.1512387
1.1577653
1.1618419
1.1687551
1.1711962
1.178955
0.79191913
0.79200427
0.7921083
0.79221591
0.79233462
0.79246701
0.79261431
0.79277823
0.79296087
0.79316471
0.79339269
0.79364834
0.79393603
0.79426119
0.79463075
0.79505369
0.79554185
0.79611101
0.79678241
0.79758488
0.79855756
0.79975335
0.80124292
0.80311884
0.8054987
0.80852541
0.81236231
0.81718032
0.82313573
0.83034104
0.83885261
0.84860023
0.85947638
0.87148149
0.88434156
0.89785516
0.91173659
0.92605941
0.94072392
0.95559102
0.97054491
0.98546013
1.0002091
1.0146655
1.0287106
1.0422358
1.0551528
1.0673865
1.0788972
1.0896465
1.0996596
1.1089155
1.1175256