/*--------------------------------*- C++ -*----------------------------------*\
  =========                 |
  \\      /  F ield         | OpenFOAM: The Open Source CFD Toolbox
   \\    /   O peration     | Website:  https://openfoam.org
    \\  /    A nd           | Version:  13
     \\/     M anipulation  |
\*---------------------------------------------------------------------------*/
FoamFile
{
    format      ascii;
    class       volScalarField;
    location    "15.896076";
    object      nut;
}
// * * * * * * * * * * * * * * * * * * * * * * * * * * * * * * * * * * * * * //

dimensions      [0 2 -1 0 0 0 0];

internalField   nonuniform List<scalar> 
17140
(
6.5743459e-17
1.2786239e-14
3.4056674e-13
3.4526989e-12
2.0881651e-11
9.2522791e-11
3.3413042e-10
1.0457092e-09
2.9465754e-09
7.6664977e-09
1.8743121e-08
4.3602503e-08
9.7420493e-08
2.1053726e-07
4.4251087e-07
9.0845452e-07
1.8278953e-06
3.6145583e-06
7.0397956e-06
1.3526841e-05
2.5672522e-05
4.8147607e-05
8.9166907e-05
0.00016260373
0.00029011634
0.00050061783
0.00082160962
0.0012593195
0.0015823401
0.0017133008
0.0018267125
0.0019183525
0.0019965602
0.0020709579
0.0021450693
0.0022287046
0.0023296711
0.0024546345
0.0026106801
0.0028059735
0.0030489266
0.0033486263
0.0037118216
0.0041407342
0.0046315152
0.0051636733
0.0055644951
0.0054726554
0.0053452559
0.0051726108
0.0049499432
0.0046758098
0.004373984
0.0040578972
0.0037452475
0.0034617269
0.0032240369
0.0030418831
0.0029104701
0.0028304602
0.0027286288
0.0025605755
0.0023207656
0.0018316067
0.0014934664
6.5254109e-17
1.2691057e-14
3.3803187e-13
3.4270092e-12
2.0726364e-11
9.1835137e-11
3.3164857e-10
1.0379467e-09
2.9247153e-09
7.6096509e-09
1.8604196e-08
4.3279386e-08
9.6698499e-08
2.089762e-07
4.3922645e-07
9.0170025e-07
1.8142706e-06
3.5875219e-06
6.9869027e-06
1.342467e-05
2.5477544e-05
4.7780387e-05
8.8487028e-05
0.00016137784
0.00028800303
0.00049724394
0.00081685485
0.0012537916
0.0015930933
0.0017260647
0.0018420979
0.0019369936
0.0020173113
0.0020949514
0.002173009
0.0022613993
0.0023683384
0.0025008688
0.0026658089
0.0028711324
0.0031260723
0.0034363251
0.0038062205
0.0042374235
0.0047183354
0.0052328724
0.0057472801
0.005742647
0.005685134
0.0055960021
0.005469059
0.0052873821
0.0050663868
0.0048156071
0.0045365594
0.0042653583
0.0040014078
0.0037747916
0.0035957403
0.003464325
0.0033371269
0.0031603245
0.0028817195
0.0023294905
0.001841772
6.3895016e-17
1.2426729e-14
3.3099134e-13
3.3556309e-12
2.0294664e-11
8.9922266e-11
3.2473995e-10
1.0163218e-09
2.863766e-09
7.4510067e-09
1.8216101e-08
4.237572e-08
9.4676774e-08
2.0459891e-07
4.3000299e-07
8.8270156e-07
1.7758786e-06
3.5111949e-06
6.8372819e-06
1.3135045e-05
2.49236e-05
4.6734518e-05
8.6544971e-05
0.0001578622
0.00028190549
0.00048740853
0.00080273183
0.0012367474
0.001620181
0.0017570231
0.0018783217
0.0019803984
0.002066468
0.0021509483
0.0022383333
0.0023378302
0.0024583307
0.002609022
0.0027955157
0.0030253449
0.0033068324
0.0036418473
0.0040296824
0.0044645202
0.0049306924
0.0054059195
0.0058724868
0.0062912706
0.0064470985
0.0065506492
0.0066512438
0.0067036086
0.0066980799
0.0066554042
0.0065192895
0.0063430018
0.0060936161
0.0057899216
0.005467588
0.0051097736
0.0046708381
0.0040953655
0.0033854791
0.0025787217
0.0020033794
6.1667757e-17
1.1993555e-14
3.1945354e-13
3.2386585e-12
1.9587214e-11
8.6787574e-11
3.1341868e-10
9.8088552e-10
2.7638915e-09
7.1910536e-09
1.7580199e-08
4.0895133e-08
9.1364589e-08
1.9742834e-07
4.1489571e-07
8.5158842e-07
1.7130191e-06
3.386255e-06
6.5924377e-06
1.2661238e-05
2.4017633e-05
4.5024216e-05
8.3368222e-05
0.00015210464
0.00027189039
0.0004711592
0.00077915957
0.0012078392
0.0016678129
0.0018089904
0.001936373
0.0020500662
0.0021472291
0.0022419559
0.0023442704
0.0024622008
0.0026047883
0.0027821007
0.0030019054
0.0032707906
0.0035922321
0.0039636831
0.0043779266
0.0048222332
0.0052762498
0.0057159223
0.0061310318
0.0065244655
0.0069032532
0.0073158527
0.0078296069
0.0084306779
0.0087512608
0.0089830965
0.0090668608
0.0090675562
0.0089408749
0.0085895236
0.0080700281
0.0073166082
0.0062828239
0.0049126951
0.0035664638
0.0026059327
0.0018446896
5.8618408e-17
1.1400498e-14
3.0365723e-13
3.0785131e-12
1.8618657e-11
8.2495944e-11
2.9791914e-10
9.3237162e-10
2.627162e-09
6.8351875e-09
1.6709722e-08
3.8868544e-08
8.6831479e-08
1.8761611e-07
3.9422702e-07
8.0903263e-07
1.6270685e-06
3.2154824e-06
6.2579132e-06
1.2014157e-05
2.2780758e-05
4.2689391e-05
7.9029058e-05
0.00014422535
0.00025812256
0.00044861486
0.00074589296
0.0011657418
0.0016885064
0.0018842257
0.0020204493
0.002149474
0.0022631218
0.0023751694
0.0024968025
0.0026385457
0.0028115024
0.0030260633
0.0032902438
0.0036080618
0.0039773302
0.0043898254
0.0048334637
0.0052924668
0.0057455071
0.0061731797
0.0065698291
0.0069580629
0.0073765215
0.0078611216
0.0084648168
0.0092386135
0.010224333
0.01126262
0.011638781
0.011800344
0.011831419
0.01153094
0.01090866
0.0098011473
0.0080482946
0.0055598578
0.0035447094
0.0023317687
0.0015482397
5.4811073e-17
1.0660022e-14
2.8393439e-13
2.8785595e-12
1.7409332e-11
7.7137456e-11
2.785665e-10
8.7179745e-10
2.4564434e-09
6.390865e-09
1.5622909e-08
3.6338438e-08
8.1172583e-08
1.7536857e-07
3.6843305e-07
7.5593616e-07
1.5198586e-06
3.0025394e-06
5.8409245e-06
1.1207811e-05
2.1239697e-05
3.9779675e-05
7.3615464e-05
0.00013436612
0.00024078302
0.00041985561
0.00070245409
0.0011084862
0.0016256268
0.0019944873
0.0021424235
0.0022836627
0.0024193324
0.0025543475
0.0027020548
0.0028754095
0.0030872665
0.0033485277
0.0036656145
0.0040372868
0.0044544042
0.0049044712
0.0053748616
0.0058515101
0.0063159532
0.0067528833
0.007160476
0.0075682541
0.0080220401
0.0085605417
0.0092266934
0.010067083
0.011122408
0.012412641
0.013906577
0.014265615
0.014432078
0.01421373
0.013542571
0.012121822
0.0094321124
0.0059226888
0.0032975027
0.0019956539
0.0012359143
5.036827e-17
9.795958e-15
2.6091976e-13
2.6452332e-12
1.5998173e-11
7.0884709e-11
2.5598461e-10
8.0111781e-10
2.2572535e-09
5.8724792e-09
1.4355072e-08
3.3387359e-08
7.4573545e-08
1.6109047e-07
3.3837428e-07
6.9409171e-07
1.3950641e-06
2.7548603e-06
5.3563547e-06
1.0271729e-05
1.9452541e-05
3.6408212e-05
6.7344465e-05
0.00012293219
0.00022059317
0.00038606966
0.00065061979
0.0010386352
0.0015471198
0.0021338069
0.0023150763
0.0024655056
0.0026247761
0.0027886908
0.0029712598
0.0031858435
0.0034459393
0.0037623568
0.0041375862
0.004561539
0.0050177131
0.0054937466
0.0059817271
0.0064732899
0.0069548988
0.0074119809
0.0078413685
0.0082769627
0.0087686142
0.0093521861
0.010061634
0.010934831
0.012009724
0.013328063
0.014923835
0.01627943
0.016550358
0.016365457
0.015598914
0.013809793
0.010104668
0.00562889
0.0027872963
0.0015658381
0.00095984954
4.5434104e-17
8.8363297e-15
2.3535972e-13
2.3861016e-12
1.443095e-11
6.3940503e-11
2.3090587e-10
7.226253e-10
2.0360553e-09
5.2968568e-09
1.2947398e-08
3.0111295e-08
6.7249407e-08
1.4524831e-07
3.0503638e-07
6.2553697e-07
1.2568215e-06
2.4807145e-06
4.820514e-06
9.2376834e-06
1.7480372e-05
3.2690518e-05
6.0429151e-05
0.00011029972
0.00019816143
0.00034806448
0.00059092942
0.00095485768
0.0014459427
0.0020323995
0.0025520508
0.002733442
0.0029087615
0.0031000473
0.0033228715
0.0035878087
0.0039048767
0.0042818427
0.0047157737
0.0051878067
0.0056755519
0.0061693842
0.0066659831
0.0071611254
0.007646684
0.0081164512
0.0085602508
0.0090116361
0.0095278034
0.010141116
0.010875781
0.011764856
0.012842695
0.014159002
0.015698995
0.017589793
0.018034455
0.017793893
0.016807924
0.014560323
0.0099067499
0.004686987
0.0021657944
0.0011967355
0.00077791989
4.0169326e-17
7.8123989e-15
2.0808686e-13
2.1096055e-12
1.2758713e-11
5.6531045e-11
2.0414726e-10
6.3887712e-10
1.8000562e-09
4.6827612e-09
1.14458e-08
2.6617201e-08
5.9439629e-08
1.2836114e-07
2.6951487e-07
5.5253385e-07
1.1097166e-06
2.1892578e-06
4.2514499e-06
8.1408515e-06
1.5391053e-05
2.8756103e-05
5.3113314e-05
9.6918085e-05
0.00017428641
0.00030716786
0.00052535318
0.00085966384
0.0013252087
0.0019030648
0.0025396678
0.0030955801
0.0033174026
0.0035475178
0.0038123281
0.0041277835
0.0045059671
0.0049465006
0.0054340941
0.0059439524
0.0064577355
0.0069677027
0.0074672114
0.0079487398
0.0084112163
0.0088532269
0.0092792808
0.0097147026
0.010227276
0.010844012
0.011579711
0.012463196
0.013520082
0.014792438
0.01626699
0.018148426
0.018786267
0.018383791
0.017108777
0.014321844
0.0084082948
0.0033444577
0.0015608929
0.00090769107
0.00064597631
3.4741475e-17
6.7567542e-15
1.799693e-13
1.8245461e-12
1.103469e-11
4.8892171e-11
1.765605e-10
5.5253919e-10
1.5567696e-09
4.0497466e-09
9.8981081e-09
2.3016437e-08
5.1393324e-08
1.1096829e-07
2.3294622e-07
4.7742381e-07
9.5848319e-07
1.8899108e-06
3.6676583e-06
7.0171235e-06
1.3253489e-05
2.4735854e-05
4.5642566e-05
8.3240319e-05
0.00014977942
0.0002647512
0.00045594541
0.00075541332
0.0011860037
0.0017421064
0.0023813066
0.0030398213
0.0036600363
0.0041722476
0.0044990626
0.0048652304
0.005300268
0.0057958235
0.0062407632
0.0066325878
0.0070503523
0.0075135472
0.0080299071
0.0085966909
0.0091998545
0.009576439
0.0099356487
0.010322939
0.010797519
0.011387905
0.012095038
0.012940055
0.013945595
0.015131543
0.016539439
0.018437479
0.018769184
0.018102367
0.016421996
0.012614045
0.0059396719
0.0021254976
0.0011408641
0.00071059065
0.00056976893
2.9310627e-17
5.7005254e-15
1.5183608e-13
1.5393268e-12
9.3096985e-12
4.1249037e-11
1.4895866e-10
4.6615569e-10
1.3133629e-09
3.4164563e-09
8.3498873e-09
1.9414962e-08
4.3347152e-08
9.3581056e-08
1.9640498e-07
4.0241313e-07
8.0756311e-07
1.591467e-06
3.0862975e-06
5.89956e-06
1.1130661e-05
2.0748492e-05
3.823834e-05
6.9674583e-05
0.00012538042
0.00022211319
0.00038482263
0.00064503679
0.0010312477
0.0015508297
0.0021754567
0.0028468028
0.0035014413
0.0040955622
0.0046151378
0.0050722608
0.0054862814
0.0058792221
0.0062718594
0.0066745819
0.0071070726
0.0075917065
0.008128272
0.0087172652
0.0093650269
0.010073575
0.010438156
0.010758416
0.011173487
0.01171334
0.012364527
0.01314712
0.014070667
0.015124016
0.016515506
0.018228354
0.018000335
0.016891887
0.014617413
0.0094027169
0.0033150348
0.0013774483
0.00082090313
0.00058098267
0.00053245225
2.4042087e-17
4.6758626e-15
1.2454355e-13
1.2626298e-12
7.6362486e-12
3.3834288e-11
1.2218181e-10
3.823555e-10
1.0772426e-09
2.8021565e-09
6.848225e-09
1.5922271e-08
3.5545622e-08
7.6727511e-08
1.6100021e-07
3.2977706e-07
6.6153178e-07
1.3029722e-06
2.5249946e-06
4.8220876e-06
9.0871886e-06
1.6916039e-05
3.1129537e-05
5.6648458e-05
0.00010188592
0.00018072656
0.00031462137
0.00053284057
0.00086680342
0.0013352877
0.0019265154
0.0025936692
0.0032725996
0.0039089245
0.0044753828
0.0049707798
0.0054185753
0.0058375858
0.0062498588
0.006670597
0.0071177819
0.0076109966
0.0081538531
0.0087491664
0.0094017438
0.0101134
0.010739132
0.010988277
0.01134282
0.01182142
0.012398818
0.013073049
0.01383955
0.014767288
0.016210285
0.017075376
0.016436148
0.014819233
0.011620653
0.0052580618
0.0017766219
0.00092593918
0.00062239303
0.00050983115
0.00053285167
1.9106806e-17
3.7160154e-15
9.897749e-14
1.0034371e-12
6.0686647e-12
2.6888626e-11
9.7099145e-11
3.0385862e-10
8.5607199e-10
2.2267812e-09
5.4418372e-09
1.2651624e-08
2.8241574e-08
6.0953411e-08
1.2787719e-07
2.618623e-07
5.2510078e-07
1.0337231e-06
2.0018233e-06
3.8194099e-06
7.1890373e-06
1.3362945e-05
2.4549964e-05
4.4601355e-05
8.0126563e-05
0.00014217344
0.00024833425
0.0004241847
0.00070105181
0.0011059133
0.0016438973
0.0022853246
0.0029723621
0.0036433889
0.0042566601
0.0047992144
0.0052798189
0.0057261985
0.0061564911
0.0065904736
0.0070486577
0.0075484773
0.0080946057
0.0086904913
0.0093391234
0.010039756
0.010781902
0.010992014
0.01126391
0.011643787
0.012103312
0.012625134
0.013228905
0.014175782
0.015659324
0.015323282
0.014128256
0.011883396
0.0071507886
0.0024226467
0.00098557928
0.00061987179
0.00049087074
0.00047896371
0.00055534114
1.4663928e-17
2.8519339e-15
7.5962232e-14
7.7010549e-13
4.6574899e-12
2.0636004e-11
7.4519421e-11
2.3319599e-10
6.5698119e-10
1.7088739e-09
4.1760261e-09
9.7082854e-09
2.1669773e-08
4.6764813e-08
9.8095826e-08
2.0083461e-07
4.026022e-07
7.9222581e-07
1.533219e-06
2.9228488e-06
5.4952319e-06
1.0199534e-05
1.8705031e-05
3.3916774e-05
6.0827198e-05
0.00010785381
0.00018871406
0.00032437989
0.00054330548
0.00087623146
0.0013425041
0.0019330406
0.002604752
0.0032959035
0.0039520549
0.0045440645
0.0050677596
0.0055421812
0.0059941602
0.0064403499
0.0069024118
0.0073975517
0.0079335529
0.0085140118
0.0091402106
0.0098093336
0.010507869
0.010729551
0.01089967
0.011159534
0.01147729
0.011832705
0.012388333
0.013476713
0.013854791
0.012950183
0.011247851
0.0078954304
0.0030294294
0.0010564612
0.00059070105
0.00046136841
0.00044617235
0.00048466447
0.00057066148
1.0836864e-17
2.1076209e-15
5.613711e-14
5.6911663e-13
3.4419257e-12
1.5250117e-11
5.5069876e-11
1.7233025e-10
4.8549815e-10
1.2628063e-09
3.085881e-09
7.1737128e-09
1.6011643e-08
3.4551979e-08
7.2471017e-08
1.4835213e-07
2.9733347e-07
5.849042e-07
1.1314678e-06
2.1555233e-06
4.0486876e-06
7.5046936e-06
1.3739231e-05
2.4861215e-05
4.449104e-05
7.8759787e-05
0.00013781803
0.00023777655
0.00040224757
0.00066104758
0.0010422046
0.0015563547
0.0021822653
0.0028686546
0.0035547915
0.004194804
0.0047698123
0.005280376
0.0057539635
0.0062152756
0.0066791963
0.0071642246
0.0076820282
0.008236037
0.0088255903
0.009446783
0.010083286
0.010229645
0.010281161
0.010399326
0.010556456
0.010830586
0.011548635
0.012290227
0.011533954
0.010105665
0.007591836
0.0033447116
0.0011553558
0.00052408131
0.00040406422
0.00038263086
0.00042890906
0.00051067429
0.00061474048
7.6928866e-18
1.4961602e-15
3.9850626e-14
4.0400359e-13
2.4433397e-12
1.0825634e-11
3.9092305e-11
1.2233054e-10
3.4463252e-10
8.9639595e-10
2.1904638e-09
5.0920653e-09
1.1365229e-08
2.4524845e-08
5.143821e-08
1.0529238e-07
2.1101589e-07
4.1504836e-07
8.0270048e-07
1.5285767e-06
2.8691889e-06
5.3128824e-06
9.7120813e-06
1.7539133e-05
3.1312857e-05
5.529884e-05
9.661747e-05
0.00016685088
0.00028392521
0.0004730953
0.00076418178
0.0011815898
0.0017283127
0.0023742837
0.0030643767
0.0037411323
0.0043661717
0.0049274741
0.0054295153
0.0059034296
0.0063731074
0.0068471653
0.0073386631
0.0078594883
0.0083997371
0.0089579752
0.0095162417
0.0095051305
0.0094355959
0.0094066811
0.0094734164
0.0099064891
0.010767299
0.010073311
0.0088238656
0.006810974
0.0032423678
0.0011447482
0.00044809859
0.00033232504
0.00033304895
0.00038160736
0.0004593381
0.00054115026
0.00064988677
5.2378741e-18
1.0186943e-15
2.7133171e-14
2.7507396e-13
1.6635902e-12
7.3707814e-12
2.6616358e-11
8.3289254e-11
2.3464266e-10
6.1030613e-10
1.4913598e-09
3.4669015e-09
7.7380445e-09
1.6698246e-08
3.5024314e-08
7.1698163e-08
1.437009e-07
2.8266694e-07
5.4669534e-07
1.0410029e-06
1.9535128e-06
3.6153017e-06
6.6021317e-06
1.1903608e-05
2.1203573e-05
3.7342144e-05
6.5064918e-05
0.00011218663
0.00019122031
0.00032112903
0.0005278
0.00084022697
0.0012794007
0.0018426938
0.0024949834
0.0031806475
0.0038458723
0.0044581648
0.0050065063
0.0055003152
0.0059686371
0.0064369097
0.0069031765
0.0073798535
0.007864554
0.0083461679
0.008726053
0.0085779403
0.0084107563
0.00831688
0.0085314219
0.0092082739
0.0086621024
0.0075152444
0.005780918
0.0028050685
0.0010703871
0.00040491359
0.0002641899
0.00027028341
0.0003215582
0.00039896045
0.00048985881
0.00057847953
0.00068161342
3.4189699e-18
6.6494245e-16
1.7710882e-14
1.7955106e-13
1.085883e-12
4.8111377e-12
1.7373211e-11
5.4364776e-11
1.5315574e-10
3.9835774e-10
9.7344258e-10
2.2629619e-09
5.0510702e-09
1.0900646e-08
2.2866411e-08
4.6817334e-08
9.3854857e-08
1.846724e-07
3.5729745e-07
6.8062232e-07
1.2776491e-06
2.3647726e-06
4.3171342e-06
7.7762445e-06
1.3827257e-05
2.4287171e-05
4.2175956e-05
7.2471916e-05
0.00012326826
0.00020735193
0.00034380561
0.00055818273
0.00087830314
0.0013228084
0.0018862522
0.0025316761
0.0032049991
0.0038558385
0.0044551392
0.0049877742
0.005467443
0.005915813
0.0063558767
0.0067883029
0.007207057
0.0076057604
0.0077033637
0.007512865
0.0073508718
0.0074106515
0.0078913984
0.0073198326
0.006236072
0.004681181
0.0021941686
0.0008861277
0.00035281179
0.00020130185
0.00021273844
0.00027250501
0.00035826657
0.0004459986
0.00052737549
0.00060526943
0.00071669196
2.1415166e-18
4.1649511e-16
1.1093417e-14
1.1246363e-13
6.8015093e-13
3.0134752e-12
1.0881714e-11
3.4051196e-11
9.5928266e-11
2.4950972e-10
6.0971919e-10
1.4174559e-09
3.1640284e-09
6.8289127e-09
1.4327319e-08
2.9341049e-08
5.8839958e-08
1.1582941e-07
2.2423848e-07
4.2747805e-07
8.0316391e-07
1.4879798e-06
2.7188776e-06
4.9001033e-06
8.7101328e-06
1.5273383e-05
2.6436301e-05
4.5228002e-05
7.656557e-05
0.00012834134
0.00021288128
0.00034840671
0.00055915922
0.00087138205
0.00130266
0.0018477867
0.0024715409
0.0031217739
0.0037506467
0.004329295
0.004838372
0.0052892257
0.005693023
0.0060684308
0.0064119499
0.0067085392
0.0066113157
0.006467323
0.0064878236
0.0066350838
0.0060260304
0.0050203579
0.0035910713
0.0015941922
0.00066759064
0.00028209227
0.00015882371
0.00017586887
0.00023192054
0.00031665633
0.00039544079
0.00046545836
0.00054810296
0.00063829417
0.00075757147
1.2901503e-18
2.5091618e-16
6.6831868e-15
6.775314e-14
4.0975178e-13
1.8154358e-12
6.5555359e-12
2.0513569e-11
5.7790258e-11
1.5031329e-10
3.6732181e-10
8.5396862e-10
1.9063467e-09
4.1149356e-09
8.6348888e-09
1.7688479e-08
3.5486905e-08
6.9898922e-08
1.3542842e-07
2.5844439e-07
4.8620639e-07
9.0213714e-07
1.6511312e-06
2.9806267e-06
5.3060302e-06
9.3135147e-06
1.6119222e-05
2.7508147e-05
4.6325743e-05
7.7124376e-05
0.00012713829
0.00020750933
0.00033456233
0.00052998164
0.00081760888
0.0012146644
0.0017185042
0.0022995527
0.0029085925
0.0034998716
0.0040391331
0.0045046382
0.0049012414
0.0052232789
0.005482797
0.0056625796
0.0055771144
0.0056324861
0.0053645317
0.0048007729
0.0038779198
0.0025803
0.001084055
0.00047112211
0.0002101753
0.00012403029
0.00014493515
0.00019807652
0.00027945981
0.0003580236
0.00042502408
0.0005066458
0.00059340997
0.00067606138
0.00078880045
7.5039064e-19
1.4594051e-16
3.8871432e-15
3.9407206e-14
2.3832281e-13
1.0559024e-12
3.812845e-12
1.1931105e-11
3.3611959e-11
8.742569e-11
2.1364658e-10
4.9671506e-10
1.1089129e-09
2.3939232e-09
5.02444e-09
1.0295598e-08
2.0664479e-08
4.0729612e-08
7.8985615e-08
1.5091989e-07
2.8438542e-07
5.2874053e-07
9.7005218e-07
1.7557783e-06
3.1338879e-06
5.5136202e-06
9.5586086e-06
1.6328679e-05
2.7495093e-05
4.5642049e-05
7.4721903e-05
0.00012081265
0.0001933464
0.00030584786
0.00047614653
0.00072415068
0.001065317
0.001500444
0.0020062144
0.002541618
0.0030618115
0.0035252092
0.0039035936
0.0041832641
0.0043671537
0.0044194573
0.0043425295
0.0041101613
0.0036056256
0.0028043692
0.0016653544
0.00067667647
0.00031124422
0.00014815145
9.5036114e-05
0.00011892205
0.00017058735
0.00024786885
0.00030124522
0.00032408684
0.00036830091
0.0004559366
0.00057649813
0.00070252331
0.00082156782
4.2353353e-19
8.2371345e-17
2.193969e-15
2.2242057e-14
1.3451283e-13
5.9596451e-13
2.15201e-12
6.7340234e-12
1.8970884e-11
4.9344055e-11
1.205863e-10
2.8036456e-10
6.2594946e-10
1.3514425e-09
2.8369409e-09
5.8147862e-09
1.1675897e-08
2.3027671e-08
4.4697708e-08
8.5515393e-08
1.6142518e-07
3.0082665e-07
5.5353065e-07
1.0053832e-06
1.8014135e-06
3.1812086e-06
5.5318921e-06
9.4692523e-06
1.5960272e-05
2.6509321e-05
4.3430666e-05
7.0104577e-05
0.00011137713
0.0001742063
0.00026890858
0.00040854947
0.00060738374
0.00087643792
0.0012157602
0.0016086227
0.0020203404
0.0024082123
0.002729201
0.0029483647
0.0030509897
0.0030161755
0.0028471429
0.0024507397
0.0018094437
0.00092346119
0.000387938
0.00019046861
9.9640939e-05
7.270653e-05
9.809581e-05
0.00014863651
0.00022162359
0.00021825196
0.00023573379
0.00026735657
0.00031395628
0.00037942348
0.0004743765
0.00069563315
0.00084287855
2.3449985e-19
4.5606917e-17
1.2147435e-15
1.2314838e-14
7.4476096e-14
3.2996907e-13
1.1915089e-12
3.7284549e-12
1.0503767e-11
2.7321138e-11
6.676882e-11
1.5524555e-10
3.4663188e-10
7.4847731e-10
1.5714869e-09
3.2219151e-09
6.4721576e-09
1.2772349e-08
2.4813292e-08
4.7531584e-08
8.9881127e-08
1.6790352e-07
3.0994533e-07
5.6530227e-07
1.0180962e-06
1.8087149e-06
3.165768e-06
5.4512327e-06
9.2234172e-06
1.5325916e-05
2.5035057e-05
4.0316557e-05
6.4051517e-05
0.00010032684
0.00015399737
0.00023146604
0.00034051439
0.00048949046
0.00068271688
0.00091623583
0.0011734545
0.0014254708
0.0016427853
0.001779336
0.0018232138
0.0017279217
0.0014747149
0.00099528453
0.00046066832
0.00021693382
0.00011131106
6.4745714e-05
5.628304e-05
8.2576574e-05
0.00013168813
0.00020101967
0.00015717518
0.00017027163
0.00019183071
0.00022027533
0.00026231078
0.00033983873
0.00044816311
0.00063839069
0.0007907802
1.310117e-19
2.5479929e-17
6.7865972e-16
6.880128e-15
4.1608826e-14
1.8434998e-13
6.656855e-13
2.0830658e-12
5.8684282e-12
1.5264366e-11
3.7304247e-11
8.6738343e-11
1.936755e-10
4.1822888e-10
8.7821545e-10
1.8009329e-09
3.618952e-09
7.1456302e-09
1.3893668e-08
2.6647503e-08
5.0479575e-08
9.4532732e-08
1.7509361e-07
3.2078067e-07
5.8107992e-07
1.0399832e-06
1.8365312e-06
3.194026e-06
5.4584013e-06
9.1464913e-06
1.4999588e-05
2.4072727e-05
3.7863576e-05
5.8600542e-05
8.9511994e-05
0.0001345712
0.00019754452
0.00028130637
0.00038730853
0.00051466912
0.00065642594
0.00079712899
0.00091811103
0.00096465667
0.0009344499
0.00077123696
0.00045714064
0.00021636314
0.00011532322
6.4288281e-05
4.2031629e-05
4.521726e-05
7.2152984e-05
0.00011957078
0.00014037771
0.00011728705
0.00012891676
0.00014252988
0.00016037146
0.00018997397
0.00023579529
0.00030226256
0.00040200593
0.00059874852
0.00078775107
7.9260936e-20
1.5415148e-17
4.1058469e-16
4.162463e-15
2.5173611e-14
1.115355e-13
4.0276666e-13
1.2603952e-12
3.5509985e-12
9.237172e-12
2.257657e-11
5.2500051e-11
1.1724196e-10
2.5321747e-10
5.3182102e-10
1.0908665e-09
2.1928357e-09
4.3318256e-09
8.428247e-09
1.6180312e-08
3.0693024e-08
5.7592349e-08
1.0697423e-07
1.9676399e-07
3.5836781e-07
6.4584196e-07
1.1501769e-06
2.0199149e-06
3.4890925e-06
5.9096654e-06
9.7844995e-06
1.5798109e-05
2.4846104e-05
3.8044954e-05
5.6897394e-05
8.3390752e-05
0.00012042626
0.0001703773
0.00023400817
0.0003072491
0.00038467365
0.00045698288
0.00048560428
0.00046103878
0.00034517346
0.00019175422
0.00010081257
5.9032391e-05
3.6810414e-05
2.8203756e-05
3.8021818e-05
6.5278121e-05
0.00011114993
0.00010220194
9.5124499e-05
0.00010563214
0.00011444569
0.00012508372
0.00014304589
0.00016887049
0.00020966611
0.00027563039
0.00036915548
0.000547559
0.00075206511
5.7158455e-20
1.1116539e-17
2.960925e-16
3.0018024e-15
1.815476e-14
8.044135e-14
2.9050305e-13
9.0917345e-13
2.5618155e-12
6.6651745e-12
1.6293992e-11
3.7901224e-11
8.4670833e-11
1.8295437e-10
3.844712e-10
7.891817e-10
1.5877625e-09
3.1398112e-09
6.1167074e-09
1.1760614e-08
2.2350454e-08
4.2033669e-08
7.8297284e-08
1.4453314e-07
2.6443128e-07
4.7930284e-07
8.5978267e-07
1.5231767e-06
2.656382e-06
4.5415206e-06
7.5752306e-06
1.2271951e-05
1.9251914e-05
2.9234281e-05
4.3074536e-05
6.181525e-05
8.6576439e-05
0.00011794939
0.00015489445
0.00019355421
0.00022730659
0.00023139783
0.00020223257
0.0001333799
7.6594576e-05
4.5736384e-05
2.9734924e-05
2.1586554e-05
2.0519901e-05
3.3805392e-05
6.0061967e-05
0.00010473809
8.4673818e-05
8.4824169e-05
9.3803518e-05
9.793705e-05
0.00010362332
0.00011359847
0.0001293777
0.00015578552
0.00019476094
0.00025637199
0.00035514377
0.00053612909
0.00076177052
4.9877637e-20
9.7005346e-18
2.5837882e-16
2.6195096e-15
1.5843223e-14
7.0203122e-14
2.5354982e-13
7.9361436e-13
2.236554e-12
5.8201651e-12
1.4232233e-11
3.3117488e-11
7.4018837e-11
1.6003383e-10
3.3655995e-10
6.9149579e-10
1.3928829e-09
2.7585061e-09
5.3837027e-09
1.0374585e-08
1.9770765e-08
3.7306759e-08
6.9772945e-08
1.2942053e-07
2.381442e-07
4.3456815e-07
7.8555831e-07
1.4036413e-06
2.4697268e-06
4.2549804e-06
7.1265025e-06
1.151582e-05
1.7848052e-05
2.6468666e-05
3.7635752e-05
5.1506144e-05
6.7885764e-05
8.4939049e-05
9.9634375e-05
0.00010641384
9.7047875e-05
7.4089759e-05
4.7323768e-05
2.9453152e-05
2.0585124e-05
1.5344744e-05
1.3483375e-05
1.6107111e-05
2.9715001e-05
5.545524e-05
9.8208622e-05
7.8701149e-05
8.1460916e-05
8.7665661e-05
9.0082405e-05
9.3262523e-05
9.9684922e-05
0.00010961141
0.00012609244
0.00014946437
0.00018614891
0.00024444387
0.00033064166
0.00050122171
0.00074770131
4.6590092e-20
9.061163e-18
2.4135029e-16
2.4469046e-15
1.4799625e-14
6.5581179e-14
2.3686972e-13
7.4146322e-13
2.0898117e-12
5.4391199e-12
1.3303157e-11
3.0963925e-11
6.922983e-11
1.4974716e-10
3.1510666e-10
6.4788196e-10
1.3061905e-09
2.5896342e-09
5.0607955e-09
9.7678055e-09
1.8649988e-08
3.5272407e-08
6.6145591e-08
1.2307345e-07
2.2725957e-07
4.1628531e-07
7.5539484e-07
1.354171e-06
2.3866908e-06
4.1047043e-06
6.8179679e-06
1.0808178e-05
1.6182087e-05
2.2610847e-05
2.9628343e-05
3.6543825e-05
4.2087636e-05
4.434948e-05
4.1631929e-05
3.3662953e-05
2.4043312e-05
1.627789e-05
1.1730289e-05
9.566687e-06
8.3528627e-06
9.0208845e-06
1.3717981e-05
2.7458786e-05
5.2816348e-05
9.2992966e-05
8.1030351e-05
8.2880438e-05
8.662802e-05
8.8187537e-05
9.0754674e-05
9.4464972e-05
0.00010022835
0.00010964235
0.00012328561
0.00014564728
0.00017884785
0.00023676573
0.00032994447
0.00050337974
0.0007625017
3.921058e-20
7.6259444e-18
2.0312218e-16
2.0593273e-15
1.2455344e-14
5.5192274e-14
1.9934257e-13
6.2397742e-13
1.7586211e-12
4.5769525e-12
1.1193891e-11
2.6052873e-11
5.8245021e-11
1.2597365e-10
2.6504492e-10
5.4485061e-10
1.0981904e-09
2.1764884e-09
4.2513133e-09
8.1997844e-09
1.5640854e-08
2.9540474e-08
5.5289846e-08
1.0259975e-07
1.8875804e-07
3.4403566e-07
6.200972e-07
1.1012979e-06
1.9152823e-06
3.2318488e-06
5.2218085e-06
7.9475992e-06
1.117671e-05
1.4292966e-05
1.680392e-05
1.7937775e-05
1.7132707e-05
1.431929e-05
1.0782938e-05
8.0367681e-06
6.0827276e-06
5.0483554e-06
4.7599769e-06
5.2943294e-06
6.9089889e-06
1.2293985e-05
2.6471984e-05
5.1921676e-05
8.955698e-05
8.8596749e-05
8.9226618e-05
8.9500939e-05
9.0742522e-05
9.2033171e-05
9.381077e-05
9.6998794e-05
0.00010299294
0.00011170803
0.000125316
0.00014615221
0.00017941332
0.00023433126
0.00031846378
0.00048823479
0.00076769919
2.744543e-20
5.3377701e-18
1.4217431e-16
1.4413922e-15
8.7176332e-15
3.8627651e-14
1.3950379e-13
4.3662334e-13
1.2303964e-12
3.2015592e-12
7.8279839e-12
1.8212567e-11
4.0697991e-11
8.7969076e-11
1.8493742e-10
3.7978026e-10
7.6444379e-10
1.5123784e-09
2.9473748e-09
5.6679996e-09
1.0770306e-08
2.0241754e-08
3.7647462e-08
6.9300683e-08
1.2619627e-07
2.2703953e-07
4.025457e-07
7.003295e-07
1.1871203e-06
1.9380363e-06
2.9981431e-06
4.306456e-06
5.6072376e-06
6.5242379e-06
6.7341572e-06
6.0952674e-06
4.9116865e-06
3.7656652e-06
3.0332316e-06
2.5789335e-06
2.6292648e-06
3.0205055e-06
3.7445667e-06
5.8657494e-06
1.2219563e-05
2.698746e-05
5.1135673e-05
8.5903268e-05
0.00010435843
0.00010073512
9.7495897e-05
9.6100113e-05
9.5601809e-05
9.5343663e-05
9.7183644e-05
0.00010107546
0.00010687765
0.0001156414
0.00012818497
0.00014816805
0.00017809445
0.00023193648
0.00032126745
0.00049826739
0.00078091848
1.5797093e-20
3.0723191e-18
8.1832109e-17
8.2961061e-16
5.0173065e-15
2.2229901e-14
8.0274231e-14
2.5120445e-13
7.0773242e-13
1.8410049e-12
4.499542e-12
1.0463019e-11
2.3364243e-11
5.0455099e-11
1.0594272e-10
2.1721434e-10
4.363181e-10
8.6089824e-10
1.6719246e-09
3.2008197e-09
6.0471153e-09
1.1280887e-08
2.0782637e-08
3.7794465e-08
6.7766984e-08
1.1954468e-07
2.0672774e-07
3.4845582e-07
5.6752204e-07
8.8166117e-07
1.2836322e-06
1.7131683e-06
2.0472168e-06
2.1518894e-06
2.0177339e-06
1.7603848e-06
1.5138996e-06
1.3705583e-06
1.4040613e-06
1.6047966e-06
2.1687054e-06
3.1360634e-06
5.7194028e-06
1.2569878e-05
2.6166911e-05
4.9648809e-05
8.1998126e-05
0.00011990748
0.0001201977
0.00011136452
0.00010572225
0.00010142787
9.9168907e-05
9.9309281e-05
0.00010147861
0.00010530089
0.00011132
0.00012008902
0.00013249604
0.0001522556
0.00018260622
0.00023751328
0.00031984397
0.00049337481
0.00078398143
7.6554862e-21
1.4888845e-18
3.9656451e-17
4.0202447e-16
2.4312311e-15
1.0771009e-14
3.8890188e-14
1.2167826e-13
3.4272566e-13
8.9122155e-13
2.1772193e-12
5.0597516e-12
1.1289591e-11
2.4354381e-11
5.1067898e-11
1.0451734e-10
2.0945537e-10
4.1202751e-10
7.9705537e-10
1.5182084e-09
2.8495567e-09
5.2712445e-09
9.6065415e-09
1.7228975e-08
3.0347202e-08
5.2330194e-08
8.7911845e-08
1.4286009e-07
2.2230215e-07
3.2669371e-07
4.4569643e-07
5.5431129e-07
6.2432939e-07
6.6003993e-07
6.843385e-07
7.0988264e-07
7.3105282e-07
8.7804531e-07
1.220974e-06
1.8890733e-06
3.0768058e-06
5.8140914e-06
1.2174292e-05
2.5178329e-05
4.7728356e-05
7.788887e-05
0.00011200079
0.00014473652
0.00013259345
0.00011962376
0.00011052619
0.00010493889
0.00010310986
0.00010322601
0.00010532578
0.00010945499
0.00011586206
0.00012511012
0.0001378812
0.00015751177
0.00018564307
0.0002383209
0.0003259967
0.00050780999
0.00079587335
3.3008932e-21
6.4197595e-19
1.7098856e-17
1.7333804e-16
1.0482021e-15
4.643427e-15
1.6763631e-14
5.2440247e-14
1.4767055e-13
3.838775e-13
9.3739576e-13
2.1772335e-12
4.8543768e-12
1.0462004e-11
2.1910067e-11
4.4769489e-11
8.9531994e-11
1.7564805e-10
3.3861023e-10
6.421092e-10
1.1983274e-09
2.2006001e-09
3.9733291e-09
7.0424001e-09
1.2221495e-08
2.068878e-08
3.3985422e-08
5.3806995e-08
8.1438434e-08
1.1687839e-07
1.5859168e-07
2.0461441e-07
2.5155921e-07
3.0965746e-07
3.9179591e-07
5.1177401e-07
7.0830752e-07
1.1125365e-06
1.7965277e-06
3.0067323e-06
5.5751382e-06
1.142293e-05
2.3920787e-05
4.5584477e-05
7.3666201e-05
0.00010428623
0.00013411965
0.00016158488
0.0001386566
0.00012325878
0.00011376169
0.00010898903
0.00010677986
0.00010681612
0.00010917687
0.00011380614
0.00012055165
0.00013038056
0.00014322858
0.00016281507
0.00019198156
0.00024668836
0.00033027478
0.00051623674
0.00080723197
1.5190375e-21
2.954305e-19
7.8686658e-18
7.9766548e-17
4.8234529e-16
2.1366318e-15
7.7130897e-15
2.4125963e-14
6.7930241e-14
1.7656313e-13
4.3107854e-13
1.0010405e-12
2.2314145e-12
4.8078271e-12
1.0065917e-11
2.056171e-11
4.1107493e-11
8.0623428e-11
1.5538966e-10
2.9464295e-10
5.4997327e-10
1.0106165e-09
1.8273479e-09