/*--------------------------------*- C++ -*----------------------------------*\
  =========                 |
  \\      /  F ield         | OpenFOAM: The Open Source CFD Toolbox
   \\    /   O peration     | Website:  https://openfoam.org
    \\  /    A nd           | Version:  13
     \\/     M anipulation  |
\*---------------------------------------------------------------------------*/
FoamFile
{
    format      ascii;
    class       volScalarField;
    location    "15.896076";
    object      p;
}
// * * * * * * * * * * * * * * * * * * * * * * * * * * * * * * * * * * * * * //

dimensions      [0 2 -2 0 0 0 0];

internalField   nonuniform List<scalar> 
17140
(
-0.14823063
-0.14833376
-0.14845863
-0.14858606
-0.14872424
-0.14887535
-0.14903956
-0.14921728
-0.14940895
-0.14961492
-0.1498355
-0.15007093
-0.1503216
-0.15058811
-0.15087164
-0.15117438
-0.15150024
-0.15185593
-0.15225266
-0.15270862
-0.15325291
-0.15393156
-0.15481652
-0.15601645
-0.15768517
-0.16003127
-0.16329208
-0.16730592
-0.17131822
-0.17507384
-0.1791932
-0.1840364
-0.18969748
-0.19636222
-0.2042035
-0.21339993
-0.22411951
-0.23649741
-0.25062759
-0.26654816
-0.28422684
-0.30356113
-0.32438895
-0.3465056
-0.36969477
-0.39376022
-0.41837225
-0.44351892
-0.46889112
-0.49423724
-0.51877776
-0.54157471
-0.56147365
-0.57687349
-0.58668055
-0.58753434
-0.57905779
-0.55889449
-0.51784634
-0.44793154
-0.33836922
-0.17843752
-0.015274492
0.094298575
0.1475798
-0.14927662
-0.1493784
-0.14950153
-0.14962732
-0.14976377
-0.14991298
-0.15007516
-0.1502507
-0.15044005
-0.15064356
-0.15086151
-0.15109416
-0.15134188
-0.15160527
-0.15188547
-0.15218465
-0.15250666
-0.15285814
-0.15325014
-0.15370068
-0.15423854
-0.15490926
-0.15578401
-0.15697039
-0.15862088
-0.16094148
-0.16416839
-0.16816946
-0.17220429
-0.17596612
-0.18007123
-0.18490545
-0.19055555
-0.19720765
-0.2050362
-0.21421697
-0.22491632
-0.23726736
-0.25136092
-0.2672325
-0.2848475
-0.30410164
-0.32483777
-0.34685512
-0.36994116
-0.39391908
-0.41847943
-0.44345396
-0.46867686
-0.49389979
-0.51833971
-0.5410379
-0.56080488
-0.57603849
-0.58538795
-0.58642613
-0.57796861
-0.55746816
-0.51716723
-0.44851257
-0.34116528
-0.18332796
-0.02069616
0.089195676
0.14360593
-0.15211065
-0.15220829
-0.15232634
-0.15244715
-0.15257826
-0.15272168
-0.15287763
-0.15304648
-0.15322866
-0.15342452
-0.1536343
-0.15385825
-0.15409668
-0.15435012
-0.15461963
-0.15490723
-0.15521657
-0.15555399
-0.15593014
-0.15636241
-0.15687869
-0.15752311
-0.1583647
-0.15950813
-0.16110212
-0.1633453
-0.16646978
-0.17042124
-0.17449797
-0.17826688
-0.18232122
-0.18711792
-0.19272527
-0.19933018
-0.20710979
-0.21623591
-0.22687279
-0.23915022
-0.25315265
-0.26890736
-0.28637642
-0.30545998
-0.32601064
-0.3478426
-0.3707475
-0.39454148
-0.41901588
-0.4438436
-0.46896623
-0.49405626
-0.51841078
-0.54101483
-0.56076211
-0.57614826
-0.58557011
-0.58663653
-0.57868336
-0.55915852
-0.52067526
-0.45508849
-0.3514979
-0.19571197
-0.0323095
0.078763527
0.13503879
-0.15669882
-0.15678955
-0.15689896
-0.1570115
-0.15713372
-0.15726749
-0.15741302
-0.15757068
-0.15774088
-0.15792391
-0.15811999
-0.15832931
-0.15855209
-0.15878875
-0.15904019
-0.15930815
-0.15959595
-0.15990943
-0.16025852
-0.16065958
-0.161139
-0.16173863
-0.16252397
-0.16359481
-0.1650936
-0.16720673
-0.17015664
-0.17401013
-0.17813614
-0.18192323
-0.18589324
-0.19062387
-0.19615978
-0.20268159
-0.21037319
-0.21940408
-0.22993185
-0.24208216
-0.25593163
-0.27149745
-0.28873975
-0.30756819
-0.32785417
-0.349433
-0.37210761
-0.39568197
-0.41995077
-0.44463892
-0.4696458
-0.49453271
-0.51874604
-0.54146716
-0.56147937
-0.5770559
-0.58668465
-0.58834495
-0.58127255
-0.5634245
-0.52795594
-0.46685654
-0.36848078
-0.21472954
-0.049890505
0.063237201
0.12168663
-0.16290806
-0.16298931
-0.16308691
-0.16318806
-0.16329805
-0.16341852
-0.1635497
-0.16369194
-0.16384561
-0.16401095
-0.16418813
-0.16437726
-0.16457846
-0.16479199
-0.16501853
-0.16525949
-0.16551773
-0.16579843
-0.16611057
-0.16646917
-0.16689863
-0.16743778
-0.16814751
-0.169121
-0.17049235
-0.17243434
-0.1751532
-0.17882357
-0.18296505
-0.18681593
-0.19070298
-0.19531402
-0.20074124
-0.20714164
-0.21470116
-0.2235887
-0.23395617
-0.24592128
-0.25954955
-0.27485035
-0.2917881
-0.31029057
-0.33025315
-0.35152972
-0.37393015
-0.39724497
-0.4212661
-0.44576226
-0.47051388
-0.4951269
-0.51909268
-0.54179381
-0.56207426
-0.57839549
-0.58865908
-0.5907147
-0.58487419
-0.56927442
-0.5371145
-0.48152424
-0.38923818
-0.23755227
-0.071442083
0.043604447
0.10395993
-0.17053063
-0.17060005
-0.17068296
-0.17076986
-0.17086454
-0.17096833
-0.17108151
-0.17120441
-0.17133731
-0.17148042
-0.17163386
-0.17179763
-0.17197175
-0.17215632
-0.17235173
-0.17255906
-0.17278062
-0.1730208
-0.1732875
-0.17359411
-0.17396264
-0.17442835
-0.17504661
-0.17590228
-0.17711894
-0.17885825
-0.18130834
-0.18464793
-0.18866962
-0.19266635
-0.19656781
-0.20099094
-0.20627033
-0.21251223
-0.21989557
-0.22858943
-0.23873901
-0.25045331
-0.26378815
-0.27875066
-0.29531921
-0.31344582
-0.33304746
-0.35398867
-0.37607407
-0.39907608
-0.42277769
-0.44698908
-0.47149575
-0.49586618
-0.51956448
-0.54192941
-0.56204938
-0.57891161
-0.59053677
-0.59358284
-0.58889466
-0.57570511
-0.54771896
-0.49746043
-0.4108289
-0.26262608
-0.095444009
0.020472797
0.083152343
-0.17923937
-0.17929507
-0.17936104
-0.1794313
-0.17950806
-0.17959235
-0.17968445
-0.17978465
-0.17989319
-0.18001021
-0.18013576
-0.18026977
-0.18041213
-0.18056276
-0.18072179
-0.18088991
-0.18106883
-0.18126209
-0.18147632
-0.18172307
-0.18202161
-0.18240306
-0.18291648
-0.18363721
-0.18467614
-0.18618178
-0.18832247
-0.19126178
-0.19507383
-0.19921518
-0.20314782
-0.20736375
-0.21245831
-0.21851081
-0.22567615
-0.23412363
-0.24399481
-0.25539244
-0.26836691
-0.2829332
-0.2990929
-0.31681901
-0.33603977
-0.35662163
-0.37835849
-0.40100535
-0.42433675
-0.44820328
-0.47240282
-0.49649343
-0.51995573
-0.54213993
-0.56209166
-0.57879353
-0.59125821
-0.59599472
-0.59271502
-0.58190226
-0.55724253
-0.51261004
-0.43070711
-0.28539199
-0.11836062
-0.0028657377
0.06063692
-0.18867766
-0.18871838
-0.18876674
-0.18881846
-0.18887519
-0.18893773
-0.1890063
-0.18908115
-0.18916246
-0.18925032
-0.18934472
-0.18944552
-0.18955252
-0.1896655
-0.18978438
-0.18990948
-0.190042
-0.19018468
-0.19034291
-0.19052641
-0.19075169
-0.19104566
-0.19145095
-0.19203308
-0.19288906
-0.19415205
-0.19597892
-0.19851537
-0.20185769
-0.20586371
-0.21002704
-0.21421877
-0.21901688
-0.22483104
-0.23173512
-0.23988607
-0.24942185
-0.26044007
-0.2729881
-0.28710331
-0.30282472
-0.32013889
-0.33897537
-0.35919742
-0.38057431
-0.40283612
-0.42575443
-0.44923212
-0.47309805
-0.49689771
-0.52011853
-0.54212069
-0.56196652
-0.57870081
-0.59109358
-0.59715743
-0.59593874
-0.58740056
-0.56584924
-0.5256294
-0.44712707
-0.30370362
-0.14157634
-0.025545388
0.038174939
-0.19840843
-0.19843315
-0.1984627
-0.1984946
-0.19852988
-0.19856908
-0.1986124
-0.19866001
-0.19871204
-0.19876855
-0.19882946
-0.19889463
-0.19896378
-0.19903663
-0.19911297
-0.19919288
-0.19927716
-0.19936789
-0.19946941
-0.19958979
-0.19974294
-0.19995177
-0.20025265
-0.20070159
-0.20138168
-0.20240886
-0.20392658
-0.20607588
-0.20894786
-0.21254143
-0.21666709
-0.22102821
-0.22566607
-0.23106892
-0.23760179
-0.24538422
-0.25452712
-0.2651071
-0.27719132
-0.29087522
-0.30621782
-0.3231888
-0.34170051
-0.36158993
-0.38256649
-0.40439117
-0.42685536
-0.44989939
-0.47339843
-0.49688466
-0.51985307
-0.54166985
-0.56138006
-0.57815776
-0.59040032
-0.59722416
-0.59800842
-0.5915074
-0.57240217
-0.53548358
-0.45705134
-0.31792201
-0.15713746
-0.046628415
0.017524868
-0.20797288
-0.20798108
-0.20799121
-0.20800258
-0.20801563
-0.20803062
-0.20804768
-0.20806694
-0.20808848
-0.2081123
-0.20813834
-0.20816643
-0.20819633
-0.20822776
-0.20826049
-0.20829455
-0.20833054
-0.20837014
-0.20841699
-0.20847787
-0.20856458
-0.20869658
-0.20890472
-0.20923642
-0.20976196
-0.21058037
-0.21181861
-0.21361299
-0.21606612
-0.21920049
-0.22294214
-0.22718343
-0.23189137
-0.23716433
-0.24329081
-0.25059243
-0.25929294
-0.26946743
-0.28117455
-0.29448181
-0.30943732
-0.32601601
-0.34412128
-0.36361142
-0.38425512
-0.40565381
-0.42750948
-0.45003429
-0.47311662
-0.49624853
-0.51893395
-0.54054149
-0.56010187
-0.57684675
-0.58893284
-0.59634034
-0.5986377
-0.59371942
-0.57638947
-0.54046174
-0.45959616
-0.32126796
-0.16662315
-0.066646872
-0.0012233469
-0.21690841
-0.21690009
-0.21689074
-0.21688151
-0.21687221
-0.21686279
-0.21685336
-0.21684397
-0.21683465
-0.21682539
-0.21681613
-0.21680676
-0.21679711
-0.21678701
-0.21677638
-0.21676538
-0.21675468
-0.21674592
-0.21674247
-0.21675041
-0.21678016
-0.21684866
-0.2169825
-0.21722209
-0.21762701
-0.2182814
-0.21929594
-0.22079834
-0.22290433
-0.2256748
-0.22909051
-0.23308078
-0.23761557
-0.24279767
-0.24878985
-0.2558179
-0.26412436
-0.27388056
-0.28518398
-0.29804746
-0.31248131
-0.32848404
-0.34599092
-0.3649017
-0.38508321
-0.40615551
-0.42749468
-0.44941214
-0.47204092
-0.49477656
-0.51713786
-0.53847834
-0.55784409
-0.5743757
-0.5861145
-0.59420919
-0.59780093
-0.59363307
-0.57723588
-0.53849265
-0.45457766
-0.32537261
-0.17349407
-0.082879378
-0.017542408
-0.22475277
-0.22472869
-0.22470074
-0.22467178
-0.22464099
-0.22460807
-0.22457304
-0.22453589
-0.22449659
-0.22445511
-0.22441139
-0.22436538
-0.22431704
-0.22426638
-0.22421354
-0.22415894
-0.22410353
-0.22404921
-0.22399941
-0.22396003
-0.22394073
-0.22395676
-0.22403149
-0.22419977
-0.22451215
-0.22503949
-0.22587633
-0.22713719
-0.22894022
-0.23137524
-0.23447636
-0.2382263
-0.24260445
-0.24765103
-0.25348411
-0.26030277
-0.26830896
-0.27765957
-0.28845504
-0.30075355
-0.31459849
-0.32999331
-0.34688539
-0.36517
-0.38468885
-0.40531094
-0.42631998
-0.44773097
-0.46990174
-0.49222022
-0.5142254
-0.53525176
-0.55434995
-0.57044101
-0.58209146
-0.59041404
-0.59491515
-0.59075233
-0.57344343
-0.52905426
-0.44336291
-0.32192852
-0.17619554
-0.096154186
-0.03189866
-0.23110407
-0.23106598
-0.23102144
-0.23097481
-0.23092472
-0.23087057
-0.23081232
-0.23074986
-0.23068308
-0.23061191
-0.23053628
-0.23045618
-0.23037168
-0.23028295
-0.23019038
-0.23009471
-0.22999727
-0.22990035
-0.22980772
-0.22972544
-0.22966293
-0.2296345
-0.22966137
-0.22977425
-0.23001663
-0.23044841
-0.23114903
-0.2322172
-0.23377032
-0.23590226
-0.23868027
-0.24214022
-0.24628316
-0.25113554
-0.25678289
-0.26336723
-0.27105523
-0.28000302
-0.29032984
-0.30211474
-0.31540497
-0.33020969
-0.34648891
-0.36415148
-0.38304572
-0.40301629
-0.42363642
-0.4447316
-0.4664381
-0.4883353
-0.50996039
-0.53062315
-0.54928178
-0.5646606
-0.57654461
-0.58517771
-0.58945067
-0.58474654
-0.56231377
-0.51374214
-0.42429505
-0.30752312
-0.18183479
-0.10733459
-0.044387057
-0.23568696
-0.23563761
-0.23557969
-0.23551871
-0.23545282
-0.2353812
-0.23530368
-0.23522005
-0.23513012
-0.2350337
-0.23493068
-0.23482105
-0.2347049
-0.23458252
-0.23445446
-0.23432173
-0.23418598
-0.23404988
-0.23391761
-0.2337955
-0.23369308
-0.23362427
-0.23360904
-0.23367548
-0.23386222
-0.2342212
-0.23482046
-0.23574236
-0.23708191
-0.23895542
-0.24144652
-0.24461305
-0.24849407
-0.25311898
-0.25854821
-0.26488876
-0.27227489
-0.28084965
-0.29073572
-0.30201854
-0.3147509
-0.32895382
-0.34460091
-0.36161665
-0.37987848
-0.39918449
-0.41933792
-0.44015005
-0.46143468
-0.48290571
-0.50411133
-0.52430286
-0.54219564
-0.55720604
-0.56906194
-0.57786903
-0.58129523
-0.57334966
-0.54510429
-0.49130972
-0.40420775
-0.29530372
-0.18309738
-0.11596932
-0.055177167
-0.23836477
-0.23830777
-0.23824068
-0.23816976
-0.23809281
-0.23800879
-0.23791743
-0.23781839
-0.23771134
-0.23759599
-0.23747211
-0.23733959
-0.23719849
-0.23704907
-0.23689193
-0.23672815
-0.23655957
-0.23638904
-0.23622096
-0.23606188
-0.23592138
-0.23581318
-0.23575653
-0.23577791
-0.2359129
-0.23620815
-0.23672337
-0.23753219
-0.23871859
-0.240385
-0.24261024
-0.24558791
-0.24921946
-0.25353937
-0.25870605
-0.2647822
-0.27186111
-0.28006417
-0.28950739
-0.300283
-0.31244878
-0.32603348
-0.34103086
-0.35737948
-0.37499126
-0.3936577
-0.41329986
-0.4337852
-0.45470682
-0.47574008
-0.49647728
-0.51600357
-0.53326878
-0.54805334
-0.55976713
-0.56793091
-0.56916874
-0.55564622
-0.52230842
-0.46409908
-0.37850654
-0.28579759
-0.18351591
-0.1230041
-0.064479662
-0.23921656
-0.23915611
-0.23908469
-0.23900892
-0.2389264
-0.23883594
-0.23873716
-0.23862959
-0.23851275
-0.2383862
-0.23824955
-0.23810254
-0.23794506
-0.23777722
-0.23759949
-0.23741282
-0.23721892
-0.23702055
-0.23682198
-0.2366296
-0.23645274
-0.23630469
-0.236204
-0.23617599
-0.23625433
-0.23648272
-0.23691611
-0.23762143
-0.23867735
-0.24017575
-0.24217498
-0.2446472
-0.24803294
-0.25228459
-0.25715889
-0.26294773
-0.26970158
-0.27752252
-0.28650955
-0.29675658
-0.30833243
-0.32127552
-0.33559327
-0.35125133
-0.3681944
-0.38620793
-0.40539191
-0.42554174
-0.446095
-0.46666528
-0.48682762
-0.50561739
-0.52249883
-0.53709715
-0.54837108
-0.55492327
-0.55177379
-0.53278468
-0.49449567
-0.43629019
-0.35394387
-0.27326389
-0.18396282
-0.12829189
-0.07236729
-0.23844942
-0.2383896
-0.23831813
-0.23824288
-0.23816064
-0.23807011
-0.23797083
-0.2378622
-0.23774362
-0.23761448
-0.23747422
-0.23732235
-0.23715851
-0.23698255
-0.2367946
-0.23659527
-0.23638581
-0.23616847
-0.2359469
-0.23572671
-0.23551627
-0.23532767
-0.23517796
-0.23509057
-0.23509692
-0.23523792
-0.23556511
-0.23614101
-0.23703811
-0.23833802
-0.24012691
-0.24247248
-0.24552239
-0.24923137
-0.25388644
-0.25942909
-0.26580678
-0.27319845
-0.2816898
-0.29136432
-0.30229784
-0.31455016
-0.32814719
-0.34308148
-0.35932406
-0.3766902
-0.39542876
-0.41525645
-0.43540621
-0.45552149
-0.47504241
-0.49329307
-0.50991287
-0.52415598
-0.53405927
-0.5375922
-0.52986678
-0.50569365
-0.46483488
-0.40563491
-0.3347688
-0.26127061
-0.18272234
-0.13209201
-0.078951313
-0.2364573
-0.23640183
-0.23633497
-0.23626504
-0.23618837
-0.23610359
-0.2360102
-0.23590754
-0.2357949
-0.23567151
-0.23553665
-0.23538962
-0.23522978
-0.23505665
-0.23486994
-0.23466973
-0.23445663
-0.23423207
-0.23399865
-0.2337607
-0.23352493
-0.23330143
-0.23310478
-0.23295552
-0.2328818
-0.23292109
-0.23312169
-0.2335435
-0.23425753
-0.23534385
-0.23688679
-0.2389913
-0.24163702
-0.24504397
-0.24925468
-0.25422491
-0.26019203
-0.26709742
-0.27502239
-0.28405634
-0.29427643
-0.30576523
-0.31857464
-0.33273984
-0.34824248
-0.36502501
-0.38326305
-0.40271085
-0.42254226
-0.4421079
-0.46126218
-0.47925899
-0.4953851
-0.5086531
-0.51641207
-0.51674853
-0.50322659
-0.47568333
-0.43277726
-0.38041369
-0.3146171
-0.25069024
-0.18098852
-0.13469975
-0.084338138
-0.23365777
-0.23360963
-0.23355112
-0.23349029
-0.23342336
-0.23334903
-0.23326677
-0.23317591
-0.23307564
-0.23296516
-0.23284359
-0.23271007
-0.23256372
-0.23240373
-0.2322294
-0.23204023
-0.2318361
-0.23161746
-0.2313856
-0.23114318
-0.23089471
-0.23064745
-0.23041241
-0.23020575
-0.23005035
-0.22997777
-0.23003003
-0.23026117
-0.23073776
-0.23153782
-0.23274514
-0.23445546
-0.23673987
-0.23967618
-0.24340503
-0.24801447
-0.25322255
-0.25935407
-0.26658448
-0.27485791
-0.28424795
-0.29487496
-0.30681262
-0.32014774
-0.33488098
-0.35113373
-0.36888736
-0.38794537
-0.40727534
-0.42659621
-0.44567178
-0.46322966
-0.47864445
-0.49049177
-0.49554265
-0.49043304
-0.47360703
-0.44462738
-0.40225905
-0.35636238
-0.29743543
-0.24051028
-0.17824249
-0.13615814
-0.08860659
-0.23049483
-0.23045578
-0.230408
-0.23035849
-0.23030381
-0.2302428
-0.23017496
-0.23009964
-0.23001605
-0.22992336
-0.22982065
-0.22970697
-0.2295813
-0.22944261
-0.22928988
-0.22912216
-0.22893868
-0.22873897
-0.22852314
-0.22829213
-0.22804821
-0.2277956
-0.2275413
-0.22729627
-0.22707684
-0.2269065
-0.2268179
-0.22685501
-0.2270747
-0.22754737
-0.22835469
-0.22958722
-0.23133483
-0.23369243
-0.23669982
-0.24044133
-0.24501561
-0.25036965
-0.25651891
-0.26383241
-0.2722302
-0.28186284
-0.29282874
-0.30526454
-0.31922327
-0.33491396
-0.35216506
-0.3708314
-0.38994395
-0.40930214
-0.42817153
-0.44523585
-0.45994099
-0.46988872
-0.47124043
-0.46182098
-0.44429594
-0.41263043
-0.37698351
-0.333779
-0.28109215
-0.23071525
-0.17496907
-0.13669529
-0.091873504
-0.22733481
-0.22730515
-0.22726898
-0.22723138
-0.22718967
-0.22714291
-0.22709065
-0.22703231
-0.22696716
-0.22689443
-0.22681324
-0.22672266
-0.22662164
-0.22650906
-0.22638374
-0.22624446
-0.22609003
-0.22591936
-0.2257316
-0.22552635
-0.22530399
-0.22506603
-0.2248158
-0.22455919
-0.22430578
-0.22407015
-0.22387367
-0.22374635
-0.22372896
-0.22387483
-0.22425069
-0.224935
-0.22601161
-0.22757315
-0.22969043
-0.23245812
-0.23595585
-0.24012218
-0.24530392
-0.25136202
-0.25841274
-0.26682682
-0.27665171
-0.28807879
-0.30122563
-0.31626907
-0.33310947
-0.351586
-0.37080988
-0.38970703
-0.40925441
-0.42615213
-0.43956918
-0.44690433
-0.44410907
-0.43344301
-0.41299325
-0.3862748
-0.35200059
-0.31333332
-0.26625443
-0.22128351
-0.17111546
-0.13637688
-0.094214525
-0.22441339
-0.22439271
-0.22436809
-0.22434139
-0.2243116
-0.22427812
-0.22424051
-0.22419826
-0.2241508
-0.22409745
-0.22403746
-0.22396999
-0.22389408
-0.2238087
-0.22371268
-0.22360479
-0.22348371
-0.2233481
-0.22319666
-0.22302825
-0.22284205
-0.22263778
-0.22241604
-0.2221788
-0.22193
-0.22167642
-0.22142875
-0.22120278
-0.22102091
-0.2209137
-0.22092178
-0.22109561
-0.22149741
-0.2222056
-0.22330002
-0.22486259
-0.22698501
-0.22978268
-0.23337361
-0.23776986
-0.24330307
-0.25017752
-0.25862435
-0.26891752
-0.28123893
-0.29581117
-0.31245267
-0.33101862
-0.35015685
-0.37056715
-0.39040089
-0.40595711
-0.41719191
-0.4216277
-0.41660723
-0.4039273
-0.38399522
-0.36019433
-0.32958285
-0.29450713
-0.25216922
-0.21207627
-0.16683723
-0.13533302
-0.095728011
-0.22190014
-0.22188659
-0.22187031
-0.22185259
-0.22183274
-0.22181033
-0.22178504
-0.2217565
-0.22172424
-0.22168777
-0.22164649
-0.22159973
-0.22154672
-0.22148665
-0.22141862
-0.22134152
-0.22125406
-0.22115477
-0.22104214
-0.22091468
-0.22077108
-0.22061033
-0.22043176
-0.22023506
-0.2200203
-0.21978822
-0.21954113
-0.21928272
-0.2190184
-0.21875682
-0.21851972
-0.21831372
-0.21814878
-0.2180753
-0.21814422
-0.21842829
-0.21903116
-0.22008651
-0.22175267
-0.22427579
-0.2279007
-0.23295241
-0.23980993
-0.24888239
-0.2604157
-0.27461576
-0.29124245
-0.31046785
-0.33124225
-0.35299456
-0.37075636
-0.38417944
-0.39243643
-0.39019155
-0.38974938
-0.37474112
-0.35875048
-0.33701766
-0.30871827
-0.27699805
-0.23895829
-0.20310555
-0.16216487
-0.1336419
-0.096481658
-0.21972933
-0.21972125
-0.21971152
-0.21970089
-0.21968895
-0.21967542
-0.21966008
-0.2196427
-0.21962297
-0.21960053
-0.21957508
-0.2195462
-0.21951241
-0.21947154
-0.21942429
-0.21937156
-0.21931138
-0.21924246
-0.21916451
-0.21907818
-0.21898426
-0.21888104
-0.21876494
-0.21863135
-0.21847486
-0.21829583
-0.21809549
-0.21786896
-0.21760977
-0.21731888
-0.2169749
-0.21652632
-0.21597317
-0.21532881
-0.21458434
-0.21374593
-0.21289946
-0.21219509
-0.21187074
-0.21225096
-0.21372903
-0.21680368
-0.2220456
-0.22989019
-0.2406037
-0.25516215
-0.2725816
-0.29363439
-0.31487625
-0.33500784
-0.35028333
-0.3611741
-0.36483831
-0.36646283
-0.35882778
-0.35091187
-0.33502018
-0.31493906
-0.28929168
-0.26064095
-0.2263639
-0.19428939
-0.15716975
-0.13138688
-0.096549944
-0.2178693
-0.21786629
-0.21786264
-0.2178586
-0.21785401
-0.21784874
-0.21784269
-0.2178357
-0.21782765
-0.2178186
-0.21780847
-0.21779336
-0.21776901
-0.21774489
-0.21773489
-0.21773483
-0.21772886
-0.21770692
-0.21766897
-0.21761565
-0.21754694
-0.2174699
-0.21739162
-0.21731202
-0.21722431
-0.21711809
-0.21698403
-0.21681361
-0.2165931
-0.21630161
-0.21590856
-0.21535878
-0.21461913
-0.21366029
-0.21238446
-0.21074798
-0.20881161
-0.20668729
-0.20466
-0.20314537
-0.20273012
-0.20394769
-0.20744398
-0.2143111
-0.22533136
-0.24068917
-0.25897522
-0.2795097
-0.29939527
-0.3155847
-0.32866954
-0.3368201
-0.34143454
-0.3421339
-0.33648321
-0.32718906
-0.31280497
-0.29460558
-0.2711622
-0.24527907
-0.21437137
-0.18564356
-0.15190739
-0.12863017
-0.095998292
-0.21615671
-0.21615915
-0.216162
-0.21616502
-0.21616826
-0.21617125
-0.216174
-0.21617707
-0.21618049
-0.21618423
-0.21618824
-0.21619239
-0.21619705
-0.21620331
-0.2162122
-0.21622279
-0.21622702
-0.21621461
-0.21619425
-0.21618214
-0.21616479
-0.21612389
-0.21607294
-0.2160306
-0.21599273
-0.21594108
-0.21586385
-0.21575878
-0.21561019
-0.21537464
-0.21500997
-0.21447454
-0.21369892
-0.21260867
-0.21112944
-0.20915377
-0.20665072
-0.20369534
-0.20055627
-0.19770065
-0.19563846
-0.19526428
-0.19844113
-0.20532251
-0.21612499
-0.23055369
-0.24819761
-0.26684767
-0.28258848
-0.29675842
-0.31101455
-0.31528447
-0.32024192
-0.31843114
-0.31339445
-0.3053354
-0.29216768
-0.27544579
-0.25412564
-0.23077861
-0.20286121
-0.17711912
-0.14640938
-0.12543502
-0.094889543
-0.21459307
-0.2146033
-0.2146151
-0.21462757
-0.214645
-0.2146669
-0.2146848
-0.21469923
-0.21471562
-0.21473445
-0.21475549
-0.21477666
-0.21479544
-0.21481274
-0.21482981
-0.21484702
-0.21486761
-0.21489786
-0.21494089
-0.21499156
-0.21503947
-0.21507156
-0.21508094
-0.21508508
-0.21509599
-0.21508024
-0.21500855
-0.21489555
-0.21475319
-0.21453397
-0.21417379
-0.21363281
-0.21286034
-0.21176464
-0.21017014
-0.20795356
-0.20531432
-0.20206854
-0.19860858
-0.19530125
-0.19314566
-0.19287453
-0.19528613
-0.2009234
-0.21080621
-0.22364231
-0.2391778
-0.25381162
-0.26671547
-0.28218884
-0.2910538
-0.29810035
-0.29765749
-0.2976071
-0.29299663
-0.28498827
-0.27279184
-0.25753455
-0.23811144
-0.21703966
-0.19179384
-0.1687196
-0.14071995
-0.12185373
-0.093280145
-0.21322177
-0.21324059
-0.21326272
-0.21328608
-0.21331141
-0.21333957
-0.2133706
-0.213404
-0.21343977
-0.21347798
-0.21351855
-0.21356137
-0.2136065
-0.213654
-0.21370362
-0.21375494
-0.21380734
-0.21385982
-0.21391087
-0.21395961
-0.21400533
-0.21403888
-0.21404268
-0.21403282
-0.21405054
-0.2140751
-0.21404976
-0.21396118
-0.21382101
-0.21363114
-0.21336919
-0.21295281
-0.21221622
-0.21113099
-0.20986333
-0.20820323
-0.20584071
-0.20295377
-0.19980297
-0.19684242
-0.19452157
-0.19358902
-0.19511824
-0.19972175
-0.20773527
-0.21854305
-0.23092953
-0.24235902
-0.25583095
-0.26679776
-0.27285034
-0.27762508
-0.27911575
-0.27804043
-0.27331554
-0.26584441
-0.25461764
-0.24065249
-0.22296472
-0.20395874
-0.18110166
-0.16041956
-0.13486186
-0.11793258
-0.091218626
-0.21313083
-0.21315241
-0.21317781
-0.21320468
-0.21323383
-0.21326564
-0.21330019
-0.21333756
-0.21337784
-0.21342108
-0.21346724
-0.21351628
-0.21356802
-0.21362225
-0.21367863
-0.21373674
-0.21379603
-0.21385584
-0.21391532
-0.21397336
-0.21402862
-0.21407933
-0.2141234
-0.21415912
-0.2141844
-0.21419419
-0.21418107
-0.21414371
-0.21405679
-0.21388005
-0.21361472
-0.21326273
-0.21278865
-0.21212686
-0.2111427
-0.20970261
-0.20784671
-0.2056031
-0.2028966
-0.20002464
-0.19760413
-0.19627383
-0.19690878
-0.20015727
-0.20628638
-0.21471264
-0.22436021
-0.23409781
-0.24390586
-0.25122187
-0.25690105
-0.26081984
-0.26115201
-0.25967166
-0.25513217
-0.24796119
-0.23752032
-0.22473687
-0.20861195
-0.19146377
-0.17074762
-0.15221555
-0.12886308
-0.11371181
-0.088750366
-0.21401461
-0.21403303
-0.21405473
-0.21407772
-0.21410271
-0.21413002
-0.21415975
-0.21419198
-0.2142268
-0.21426426
-0.21430437
-0.2143471
-0.21439235
-0.21443995
-0.21448964
-0.21454108
-0.21459382
-0.2146473
-0.21470088
-0.21475381
-0.21480528
-0.21485437
-0.21490004
-0.21494121
-0.21497806
-0.21501022
-0.21501365
-0.21498861
-0.21496724
-0.21497709
-0.21497337
-0.21477868
-0.21436379
-0.21386136
-0.2132138
-0.21218041
-0.21071408
-0.20873821
-0.20629658
-0.20360498
-0.20105903
-0.19927922
-0.1990973
-0.20108258
-0.20535489
-0.21156821
-0.21810533
-0.22514504
-0.23236997
-0.23811819
-0.24204568
-0.24441276
-0.24444019
-0.24251648
-0.23791661
-0.23107303
-0.22137088
-0.20965467
-0.19494517
-0.17947757
-0.16068628
-0.1440925
-0.12274176
-0.10922743
-0.085914647
-0.2159714
-0.21598284
-0.21599635
-0.21601069
-0.2160263
-0.21604341
-0.21606206
-0.21608232
-0.21610425
-0.21612789
-0.21615326
-0.21618032
-0.21620903
-0.21623926
-0.21627086
-0.21630361
-0.2163372
-0.21637129
-0.21640548
-0.2164393
-0.2164721
-0.21650371
-0.2165361
-0.21657137
-0.21661423
-0.21664855
-0.21668878
-0.21675554
-0.21675599
-0.2166558
-0.21657142
-0.21648642
-0.21627162
-0.21589164
-0.21527778
-0.21434115
-0.21303115
-0.21127889
-0.20904899
-0.20644629
-0.20381749
-0.20173788
-0.20088483
-0.20169301
-0.20428511
-0.20750834
-0.21213929
-0.21747099
-0.22190654
-0.22559717
-0.22816062
-0.22946077
-0.22873988
-0.22634552
-0.22172681
-0.21514962
-0.20608094
-0.19532669
-0.18189399
-0.16794232
-0.15088574
-0.13604374
-0.11651474
-0.1045103
-0.08274735
-0.21826832
-0.21827337
-0.21827932
-0.21828564
-0.21829251
-0.21830001
-0.21830816
-0.21831698
-0.21832646
-0.2183366
-0.21834734
-0.21835861
-0.21837032
-0.2183823
-0.21839433
-0.21840613
-0.21841737
-0.21842761
-0.21843627
-0.21844249
-0.2184468
-0.21845245
-0.2184578
-0.21845059
-0.21844676
-0.21843676
-0.21837863
-0.21831545
-0.21827532
-0.21820042
-0.21807127
-0.2178803
-0.21759189
-0.21717991
-0.21659385
-0.2157606
-0.21459185
-0.21298053
-0.21085067
-0.20827515
-0.20556751
-0.20319609
-0.20172816
-0.20159959
-0.20225164
-0.20411413
-0.2070126
-0.20929574
-0.21180326
-0.21390872
-0.21509788
-0.21524184
-0.21387119
-0.21106243
-0.20636689
-0.20002734
-0.19153457
-0.1816526
-0.16937684
-0.15679846
-0.1413114
-0.12805821
-0.11019518
-0.099588157
-0.079279062
-0.22080433
-0.2208062
-0.22080836
-0.22081055
-0.22081282
-0.22081514
-0.22081748
-0.22081975
-0.22082186
-0.22082368
-0.22082504
-0.22082571
-0.22082539
-0.2208237
-0.22082015
-0.22081414
-0.22080491
-0.22079155
-0.22077294
-0.22074761
-0.22071428
-0.22067486
-0.2206228
-0.22054701
-0.22044711
-0.22033567
-0.22021205
-0.22006188
-0.21988148
-0.21966213
-0.21940126
-0.21909661
-0.21872591
-0.21826122
-0.21765817
-0.21683597
-0.21567298
-0.21402913
-0.21181676
-0.20914286
-0.20623324
-0.20348714
-0.20170445
-0.20046097
-0.20000046
-0.19999934
-0.20034061
-0.20122965
-0.20211123
-0.20268088
-0.20263349
-0.20179242
-0.19975103
-0.19653069
-0.19175693
-0.18562685
-0.17764695
-0.1685556
-0.15732978
-0.14599689
-0.13193549
-0.1201273
-0.10379299
-0.094483457
-0.075541646
-0.22359364
-0.22359475
-0.2235959
-0.22359689
-0.22359767
-0.22359816
-0.22359821
-0.22359767
-0.22359632
-0.22359387
-0.22358997
-0.22358416
-0.22357589
-0.22356443
-0.2235489
-0.22352821
-0.22350104
-0.22346576
-0.22342047
-0.22336291
-0.22329063
-0.22320071
-0.22308671
-0.22294734
-0.22278201
-0.22258465
-0.22235191
-0.22208033
-0.22177115
-0.22142782
-0.22104672
-0.22062238
-0.22014646
-0.21959094
-0.21889297
-0.21794059
-0.21658311
-0.21468491
-0.21221927
-0.20930709
-0.20607286
-0.20333607
-0.20080185
-0.19818632
-0.19597638
-0.19477681
-0.19387741
-0.19318343
-0.19256307
-0.19181094
-0.19063619
-0.18887431
-0.18621277
-0.18262449
-0.17776906
-0.17183105
-0.16432115
-0.15595347
-0.1456868
-0.13548912
-0.12272954
-0.11224066
-0.097317134
-0.089218543
-0.071560505
-0.22717966
-0.22717981
-0.22717973
-0.22717925
-0.22717823
-0.2271765
-0.22717383
-0.22716995
-0.22716448
-0.22715698
-0.2271469
-0.22713351
-0.22711597
-0.22709319
-0.22706387
-0.22702643
-0.22697895
-0.22691916
-0.22684436
-0.22675145
-0.22663691
-0.22649678
-0.22632677
-0.22612262
-0.22587968
-0.22559424
-0.22526467
-0.22489105
-0.22447251
-0.22400952
-0.22350443
-0.22295295
-0.22233481
-0.22159821
-0.22064666
-0.2193429
-0.21754575
-0.21518328
-0.21228142
-0.20890185
-0.20562797
-0.20228025
-0.1983964
-0.19497566
-0.19186385
-0.18930232
-0.18698778
-0.18496139
-0.18306507
-0.18113237
-0.17895004
-0.17637855
-0.17315007
-0.16922984
-0.1643054
-0.15855114
-0.15147619
-0.1437756
-0.1343908
-0.12523223
-0.11366851
-0.10438717
-0.090772609
-0.083805027
-0.067359258
-0.23197499
-0.23197206
-0.23196823
-0.23196361
-0.23195786
-0.23195069
-0.23194176
-0.23193066
-0.23191684
-0.23189968
-0.23187838
-0.23185198
-0.23181929
-0.2317789
-0.23172908
-0.23166778
-0.23159258
-0.2315006
-0.23138856
-0.23125269
-0.23108876
-0.23089214
-0.23065798
-0.23038184
-0.23005992
-0.22968881
-0.22926575
-0.2287898
-0.22826165
-0.22768068
-0.22704043
-0.22631936
-0.22546823
-0.22439902
-0.22298926
-0.22110834
-0.21867326
-0.21567277
-0.21211969
-0.20841756
-0.20451816
-0.19978608
-0.1952642
-0.19100364
-0.18692637
-0.18319233
-0.1797382
-0.17653373
-0.17349739
-0.17052602
-0.16745196
-0.16416305
-0.16043381
-0.15623199
-0.15126045
-0.14569136
-0.13902962
-0.13195237
-0.1233865
-0.11518538
-0.1047282
-0.096555317
-0.084165085
-0.078251721
-0.062975098
-0.23839517
-0.23838655
-0.2383759
-0.23836383
-0.23834974
-0.23833313
-0.23831352
-0.2382903
-0.23826276
-0.23823003
-0.23819105
-0.23814455
-0.23808902
-0.23802264
-0.23794328
-0.23784841
-0.2377351
-0.23759995
-0.23743911
-0.23724839
-0.23702333
-0.23675928
-0.23645153
-0.23609536
-0.23568665
-0.23522227
-0.23469982
-0.2341167
-0.23346781
-0.23274059
-0.23190681
-0.23091217
-0.22966908
-0.22806044
-0.22596772
-0.22330363
-0.22004802
-0.21620234
-0.21205897
-0.20760728
-0.20227318
-0.19687879
-0.19167101
-0.18646496
-0.18140381
-0.17660623
-0.17206813
-0.16780085
-0.16375877
-0.15987435
-0.15602061
-0.15211377
-0.1479569
-0.14352748
-0.13854021
-0.13316694
-0.12690684
-0.12042021
-0.1126234
-0.10531092
-0.095886936
-0.088734562
-0.077499559
-0.072583943
-0.058379868
-0.24681077
-0.24679383
-0.24677321
-0.24675034
-0.24672422
-0.24669413
-0.24665942
-0.24661926
-0.24657266
-0.2465185
-0.24645542
-0.24638182
-0.24629579
-0.24619511
-0.2460773
-0.24593947
-0.24577832
-0.24559011
-0.24537078
-0.24511584
-0.24482052
-0.24448003
-0.24408965
-0.24364487
-0.24314122
-0.24257382
-0.24193599
-0.24121628
-0.24039337
-0.23942873
-0.23825867
-0.23679017
-0.23490788
-0.23249694
-0.22947981
-0.22581338
-0.22153828
-0.21685805
-0.21180249
-0.20586757
-0.19974048
-0.19364011
-0.18741524
-0.18123641
-0.17520515
-0.16940864
-0.16388961
-0.15867388
-0.1537437
-0.14906566
-0.14454296
-0.14011604
-0.13561071
-0.13101576
-0.12605323
-0.12089553
-0.11503642