/*--------------------------------*- C++ -*----------------------------------*\
  =========                 |
  \\      /  F ield         | OpenFOAM: The Open Source CFD Toolbox
   \\    /   O peration     | Website:  https://openfoam.org
    \\  /    A nd           | Version:  13
     \\/     M anipulation  |
\*---------------------------------------------------------------------------*/
FoamFile
{
    format      ascii;
    class       surfaceScalarField;
    location    "15.896076";
    object      phi;
}
// * * * * * * * * * * * * * * * * * * * * * * * * * * * * * * * * * * * * * //

dimensions      [0 3 -1 0 0 0 0];

internalField   nonuniform List<scalar> 
34068
(
-1.6355196e-07
5.3838456e-08
1.097135e-07
-7.2543557e-07
1.84349e-07
3.7753461e-07
-1.8148222e-06
3.5690385e-07
7.324828e-07
-3.592218e-06
5.8234283e-07
1.195053e-06
-6.2558521e-06
8.740111e-07
1.7896229e-06
-1.004902e-05
1.2482009e-06
2.5449666e-06
-1.5268465e-05
1.7246776e-06
3.4947678e-06
-2.2273813e-05
2.3272427e-06
4.6781049e-06
-3.1497972e-05
3.0843175e-06
6.1398422e-06
-4.3458363e-05
4.0295134e-06
7.9308779e-06
-5.8768638e-05
5.2021257e-06
1.0108149e-05
-7.8150423e-05
6.6474828e-06
1.2734302e-05
-0.00010244433
8.4170304e-06
1.5876878e-05
-0.00013261927
1.0568014e-05
1.9606925e-05
-0.00016977869
1.3162581e-05
2.3996841e-05
-0.00021516224
1.626609e-05
2.9117455e-05
-0.00027014094
1.9944426e-05
3.5034274e-05
-0.00033620424
2.4260131e-05
4.1803172e-05
-0.00041493745
2.9267284e-05
4.946592e-05
-0.00050798942
3.500535e-05
5.8046623e-05
-0.0006170327
4.1492765e-05
6.7550514e-05
-0.00074372245
4.8722144e-05
7.7967613e-05
-0.00088966784
5.6660905e-05
8.9284478e-05
-0.0010564387
6.5263634e-05
0.0001015072
-0.001245637
7.4502821e-05
0.00011469551
-0.001459057
8.4419278e-05
0.00012900071
-0.001698932
9.5181493e-05
0.00014469349
-0.0019681442
0.00010707564
0.00016213662
-0.0022702276
0.00012038174
0.00018170164
-0.0026084016
0.00013474322
0.00020343077
-0.0029863261
0.00015016483
0.00022775966
-0.0034082084
0.0001666129
0.00025526945
-0.0038787767
0.00018396399
0.00028660432
-0.004403335
0.00020208456
0.00032247374
-0.0049876852
0.00022072417
0.00036362594
-0.0056379672
0.00023945117
0.00041083084
-0.0063605078
0.00025768151
0.00046485909
-0.0071616487
0.00027467005
0.00052647091
-0.0080475866
0.000289502
0.00059643585
-0.0090244021
0.00030132564
0.00067548987
-0.010098317
0.00030951352
0.00076440109
-0.011276269
0.00031375676
0.00086419509
-0.012566771
0.00031432742
0.00097617505
-0.013981055
0.00031221566
0.0011020687
-0.015534693
0.00030941657
0.0012442209
-0.017251281
0.00031041031
0.0014061781
-0.019162745
0.00031994469
0.0015915187
-0.021301009
0.00033766299
0.0018006018
-0.023680516
0.00035461744
0.0020248889
-0.026318692
0.00037638603
0.00226179
-0.029225508
0.00040631395
0.0025005019
-0.032394042
0.00044373998
0.0027247943
-0.035798332
0.00049464344
0.0029096468
-0.039383241
0.00056678515
0.0030181236
-0.04307765
0.00068477062
0.0030096386
-0.046836184
0.00091318489
0.002845349
-0.050391494
0.0012164418
0.0023388682
-0.053311893
0.0016107374
0.0013096613
-0.054961274
0.0020900909
-0.00044071
-0.053994963
0.002302506
-0.0032688163
-0.048419509
0.0016273698
-0.0072028247
-0.036435321
-0.00068211025
-0.011302077
-0.01826722
-0.0043398983
-0.013828202
0.0046002535
-0.0088066354
-0.014060838
-0.012957919
0.029298091
-0.011739919
-1.6429975e-07
2.181382e-07
-7.2876828e-07
7.4881753e-07
-1.823187e-06
1.4513225e-06
-3.6088869e-06
2.3680427e-06
-6.2851429e-06
3.5502672e-06
-1.0096574e-05
5.0596324e-06
-1.53416e-05
6.9697034e-06
-2.2381953e-05
9.3675955e-06
-3.1653202e-05
1.2355567e-05
-4.3676111e-05
1.6052422e-05
-5.9068542e-05
2.0594557e-05
-7.8557392e-05
2.6136333e-05
-0.00010298988
3.2849521e-05
-0.00013334314
4.0921267e-05
-0.00017073078
5.0550226e-05
-0.00021640496
6.1940273e-05
-0.0002717519
7.5291362e-05
-0.00033827919
9.078742e-05
-0.00041759345
0.00010858155
-0.00051136794
0.00012877983
-0.00062130211
0.00015142694
-0.00074907955
0.00017649958
-0.00089633726
0.00020391862
-0.0010646696
0.00023359598
-0.0012556965
0.00026552976
-0.0014712212
0.0002999439
-0.0017134785
0.00033743888
-0.0019853584
0.00037895547
-0.0022903999
0.00042542329
-0.002631849
0.00047619229
-0.0030134032
0.00053171899
-0.0034393009
0.00059251062
-0.0039142868
0.00065894996
-0.0044436132
0.0007314109
-0.0050330319
0.00081014288
-0.0056886075
0.00089502678
-0.0064165528
0.00098562681
-0.007223082
0.0010811993
-0.0081142677
0.0011806877
-0.0090960511
0.0012831091
-0.010174536
0.0013879983
-0.011356634
0.0014958549
-0.012650846
0.0016085396
-0.014068089
0.0017294587
-0.015622604
0.0018639313
-0.017332971
0.0020207778
-0.019223578
0.0022105513
-0.021322406
0.0024364909
-0.023646736
0.0026789478
-0.02621031
0.0029399597
-0.02902211
0.0032181137
-0.032077595
0.0034992249
-0.035353007
0.0037700555
-0.038800983
0.0040147613
-0.04235252
0.004236308
-0.045882403
0.0044430673
-0.049174169
0.0045082084
-0.051832602
0.0042691696
-0.053061801
0.0033192907
-0.051473774
0.00071447875
-0.044960542
-0.0048858619
-0.031566584
-0.014076069
-0.011547484
-0.024358998
0.013342644
-0.033696763
-0.039501994
0.039886719
-1.6045089e-07
3.7858909e-07
-7.1182755e-07
1.3001942e-06
-1.781096e-06
2.520591e-06
-3.5261957e-06
4.1131424e-06
-6.1423384e-06
6.1664098e-06
-9.8693374e-06
8.7866314e-06
-1.4999993e-05
1.2100359e-05
-2.1889587e-05
1.625719e-05
-3.0966399e-05
2.1432378e-05
-4.2743154e-05
2.7829178e-05
-5.7829086e-05
3.5680489e-05
-7.69422e-05
4.5249446e-05
-0.000100921
5.682832e-05
-0.00013073477
7.0735042e-05
-0.00016749108
8.7306535e-05
-0.0002124389
0.00010688809
-0.00026696548
0.00012981795
-0.00033258513
0.00015640707
-0.00041091799
0.0001869144
-0.00050365844
0.00022152029
-0.00061253437
0.00026030286
-0.00073926272
0.00030322793
-0.00088551379
0.00035016969
-0.0010529059
0.00040098809
-0.001243061
0.00045568485
-0.0014577469
0.00051462981
-0.0016991154
0.00057880742
-0.0019699583
0.00064979833
-0.0022736998
0.0007291648
-0.0026138177
0.00081631021
-0.0029939312
0.0009118325
-0.0034181534
0.0010167328
-0.0038910905
0.001131887
-0.0044177578
0.0012580783
-0.0050035923
0.0013959774
-0.0056543095
0.0015457439
-0.0063756813
0.0017069987
-0.0071733554
0.0018788734
-0.0080528064
0.0020601387
-0.0090193581
0.0022496607
-0.010078537
0.0024471768
-0.011236744
0.002654062
-0.012501733
0.0028735291
-0.013882831
0.0031105569
-0.015390895
0.0033719948
-0.017037236
0.0036671186
-0.018832469
0.0040057846
-0.020788236
0.0043922582
-0.022919093
0.0048098041
-0.025230145
0.0052510126
-0.02772222
0.0057101882
-0.030392159
0.0061691641
-0.033218944
0.0065968409
-0.036148715
0.0069445319
-0.039086987
0.0071745802
-0.041897409
0.0072534892
-0.044389417
0.0070002161
-0.046154934
0.0060346867
-0.046384398
0.0035487547
-0.043712194
-0.0019577251
-0.035918035
-0.01268002
-0.020773762
-0.029220342
0.0011913042
-0.046324064
0.027562977
-0.060068437
-0.066947917
0.055008901
-1.5183912e-07
5.3042821e-07
-6.738704e-07
1.8222255e-06
-1.6866765e-06
3.5333971e-06
-3.3404184e-06
5.7668842e-06
-5.82093e-06
8.6469215e-06
-9.3568274e-06
1.2322529e-05
-1.4227713e-05
1.6971245e-05
-2.0773475e-05
2.2802952e-05
-2.9404728e-05
3.0063631e-05
-4.0614235e-05
3.9038685e-05
-5.4989155e-05
5.0055409e-05
-7.3223652e-05
6.3483944e-05
-9.6131338e-05
7.9736006e-05
-0.00012465656
9.926026e-05
-0.00015988336
0.00012253334
-0.00020304057
0.0001500453
-0.000255501
0.00018227838
-0.00031877274
0.0002196788
-0.00039448047
0.00026262213
-0.00048433551
0.00031137533
-0.00059009508
0.00036606243
-0.00071351446
0.00042664731
-0.00085630235
0.00049295757
-0.0010200989
0.0005647846
-0.0012065065
0.00064209247
-0.0014172016
0.00072532493
-0.0016541258
0.00081573163
-0.001919758
0.00091543054
-0.0022172801
0.0010266869
-0.0025510756
0.0011501057
-0.0029244866
0.0012852435
-0.0033411209
0.0014333672
-0.0038052281
0.0015959942
-0.0043214709
0.001774321
-0.0048947436
0.0019692501
-0.0055301282
0.0021811284
-0.006232685
0.0024095555
-0.0070071887
0.0026533771
-0.0078580848
0.0029110348
-0.0087896799
0.0031812558
-0.0098066076
0.0034641046
-0.010914286
0.0037617399
-0.012118956
0.0040781993
-0.013427267
0.0044188677
-0.01484549
0.0047902183
-0.016378219
0.0051998473
-0.01802749
0.0056550557
-0.019791595
0.0061563633
-0.021671717
0.0066899262
-0.02366268
0.0072419752
-0.025751065
0.0077985737
-0.027917447
0.0083355455
-0.030134579
0.0088139732
-0.032354593
0.0091645456
-0.034469357
0.0092893439
-0.036313884
0.0090980162
-0.037701092
0.0083874241
-0.038260908
0.006594503
-0.037237736
0.0025255824
-0.03331695
-0.005878511
-0.02420663
-0.02179034
-0.0074287785
-0.045998194
0.015924481
-0.069677324
0.042744998
-0.086888954
-0.093895955
0.069693036
-1.3851379e-07
6.68942e-07
-6.1507406e-07
2.2987857e-06
-1.5402815e-06
4.4586045e-06
-3.0521082e-06
7.2787109e-06
-5.321639e-06
1.0916452e-05
-8.5598272e-06
1.5560717e-05
-1.3025314e-05
2.1436731e-05
-1.9033441e-05
2.8811079e-05
-2.6966391e-05
3.7996582e-05
-3.7284557e-05
4.9356851e-05
-5.053882e-05
6.3309672e-05
-6.7383624e-05
8.0328748e-05
-8.8590152e-05
0.00010094253
-0.00011505904
0.00012572914
-0.00014783126
0.00015530557
-0.00018809596
0.00019030999
-0.00023719289
0.00023137531
-0.00029660761
0.00027909352
-0.00036795659
0.00033397111
-0.00045296023
0.00039637897
-0.00055340263
0.00046650484
-0.00067108003
0.00054432471
-0.00080774453
0.00062962207
-0.00096505973
0.00072209979
-0.0011445985
0.00082163128
-0.00134792
0.00092864642
-0.0015767135
0.0010445251
-0.0018330516
0.0011717687
-0.0021199087
0.001313544
-0.0024422554
0.0014724524
-0.0028032772
0.0016462653
-0.0032060214
0.0018361114
-0.0036542171
0.0020441898
-0.0041520068
0.0022721108
-0.0047036335
0.0025208768
-0.0053133378
0.0027908327
-0.0059851528
0.0030813706
-0.0067227158
0.00339094
-0.0075292616
0.0037175806
-0.0084079543
0.0040599485
-0.0093623675
0.0044185178
-0.010396585
0.0047959579
-0.011514698
0.005196312
-0.012719856
0.0056240253
-0.014013249
0.0060836118
-0.015393252
0.0065798504
-0.016855214
0.007117018
-0.018391815
0.0076929633
-0.019994483
0.0082925943
-0.021647733
0.0088952257
-0.023324037
0.0094748773
-0.024982116
0.0099936251
-0.02656924
0.010401097
-0.028019746
0.010615052
-0.029230377
0.010499975
-0.030025063
0.0098927024
-0.030189705
0.0085520658
-0.029376458
0.0057812566
-0.026890213
3.9336834e-05
-0.021506309
-0.011262415
-0.010824967
-0.032471682
0.0074869823
-0.064310143
0.031518471
-0.093708812
0.057667189
-0.11303767
-0.11891102
0.082682251
-1.2061609e-07
7.8955809e-07
-5.3606379e-07
2.7142334e-06
-1.3434515e-06
5.2659922e-06
-2.6642277e-06
8.5994871e-06
-4.6494356e-06
1.290166e-05
-7.4859236e-06
1.8397205e-05
-1.1403651e-05
2.5354459e-05
-1.6684147e-05
3.4091575e-05
-2.3670286e-05
4.4982721e-05
-3.2777311e-05
5.8463876e-05
-4.4505125e-05
7.5037486e-05
-5.9451677e-05
9.5275299e-05
-7.8327074e-05
0.00011981793
-0.00010196777
0.00014936984
-0.00013134992
0.00018468772
-0.00016760051
0.00022656059
-0.00021200433
0.00027577913
-0.00026600421
0.00033309341
-0.00033119177
0.00039915867
-0.00040928531
0.00047447251
-0.00050209219
0.00055931171
-0.00061145493
0.00065368745
-0.00073918421
0.00075735135
-0.00088699075
0.00086990633
-0.0010564437
0.00099108419
-0.001248998
0.0011212007
-0.0014661259
0.001261653
-0.0017096134
0.0014152562
-0.0019820692
0.0015859998
-0.002287172
0.0017775552
-0.0026293528
0.0019884461
-0.0030116077
0.0022183663
-0.0034368512
0.0024694334
-0.0039083322
0.0027435917
-0.0044294587
0.0030420034
-0.0050034654
0.0033648394
-0.0056332182
0.0037111234
-0.0063211142
0.0040788359
-0.0070691905
0.0044656569
-0.007879578
0.0048703361
-0.0087548298
0.0052937696
-0.0096974926
0.0057386206
-0.010709053
0.006207872
-0.011788739
0.0067037122
-0.012932603
0.0072274754
-0.014133258
0.0077805058
-0.015380667
0.0083644265
-0.016662879
0.0089751756
-0.017964309
0.0095940237
-0.019260678
0.010191595
-0.020515459
0.010729659
-0.021676239
0.011154405
-0.022666037
0.011390895
-0.023379492
0.011328507
-0.023690589
0.010811071
-0.023421696
0.0096238093
-0.022351996
0.0074823661
-0.020106839
0.0035360997
-0.01606066
-0.0040068423
-0.0089589935
-0.018364081
0.003608687
-0.045039363
0.023333042
-0.084034498
0.047272426
-0.1176482
0.07146548
-0.13723073
-0.14073732
0.093291782
-9.8645949e-08
8.8820404e-07
-4.3898373e-07
3.0545712e-06
-1.101422e-06
5.9284305e-06
-2.1869231e-06
9.6849882e-06
-3.8216106e-06
1.4536348e-05
-6.1622982e-06
2.0737893e-05
-9.4030522e-06
2.8595213e-05
-1.3782966e-05
3.8471489e-05
-1.9595272e-05
5.0795026e-05
-2.7197902e-05
6.6066506e-05
-3.7025571e-05
8.4865154e-05
-4.9603395e-05
0.00010785312
-6.5561748e-05
0.00013577628
-8.565221e-05
0.0001694603
-0.00011076362
0.00020979912
-0.0001419372
0.00025773417
-0.00018037898
0.00031422092
-0.0002274669
0.00038018132
-0.00028474912
0.0004564409
-0.00035392989
0.00054365327
-0.00043683796
0.00064221979
-0.00053537394
0.00075222344
-0.00065143567
0.00087341308
-0.00078682684
0.0010052975
-0.00094316894
0.0011474263
-0.0011218655
0.0012998973
-0.0013241751
0.0014639626
-0.0015513167
0.0016423978
-0.00180463
0.0018393131
-0.0020863791
0.0020593043
-0.0024027973
0.0023048642
-0.0027579583
0.0025735274
-0.0031533707
0.0028648457
-0.0035910844
0.0031813055
-0.004073335
0.003524254
-0.0046022348
0.0038937392
-0.00517953
0.0042884185
-0.0058064701
0.0047057761
-0.0064840221
0.0051432089
-0.0072134732
0.0055997872
-0.0079965116
0.006076808
-0.0088340659
0.0065761749
-0.0097248609
0.007098667
-0.010664212
0.0076430637
-0.011643163
0.0082064264
-0.012648749
0.0087860915
-0.013665802
0.0093814798
-0.014677834
0.0099872074
-0.015663676
0.010579865
-0.016591532
0.011119452
-0.017415765
0.011553891
-0.018071453
0.011810094
-0.018467344
0.011786785
-0.018477969
0.011339133
-0.017936823
0.010269924
-0.016653516
0.0083405026
-0.014395203
0.0052240529
-0.010752211
-0.00010689211
-0.005072591
-0.0096864623
0.0039992718
-0.027435944
0.018695193
-0.059735284
0.039549125
-0.10488843
0.062356073
-0.14045514
0.083406209
-0.15828086
-0.15859265
0.10126154
-7.3179273e-08
9.6138331e-07
-3.2637057e-07
3.3077625e-06
-8.2048181e-07
6.4225418e-06
-1.6324899e-06
1.0496996e-05
-2.8592637e-06
1.5763121e-05
-4.6222102e-06
2.2500839e-05
-7.0729278e-06
3.1045931e-05
-1.0400063e-05
4.1798624e-05
-1.4837506e-05
5.523247e-05
-2.0674238e-05
7.1903237e-05
-2.8265929e-05
9.2456845e-05
-3.8048477e-05
0.00011763567
-5.0553624e-05
0.00014828143
-6.6426345e-05
0.00018533302
-8.6443875e-05
0.00022981665
-0.00011153521
0.0002828255
-0.00014279977
0.00034548548
-0.00018152284
0.00041890439
-0.00022918393
0.00050410199
-0.00028745332
0.00060192266
-0.00035817056
0.00071293703
-0.00044329772
0.0008373506
-0.00054484093
0.00097495628
-0.00066473726
0.0011251938
-0.00080471746
0.0012874065
-0.00096618223
0.0014613621
-0.00115017
0.0016479504
-0.0013574647
0.0018496924
-0.0015888292
0.0020706776
-0.001845366
0.0023158411
-0.0021304005
0.0025898988
-0.0024497443
0.0028928712
-0.0028070226
0.003222124
-0.0032032154
0.0035774982
-0.0036385898
0.0039596284
-0.0041138627
0.0043690121
-0.0046297093
0.0048042652
-0.00518644
0.0052625067
-0.0057840619
0.0057408309
-0.0064230533
0.0062387786
-0.0071041804
0.006757935
-0.0078265995
0.007298594
-0.0085864265
0.0078584941
-0.009375643
0.0084322802
-0.010180708
0.0090114909
-0.010982875
0.0095882587
-0.011761334
0.010159939
-0.012494933
0.010720806
-0.013157306
0.011242239
-0.013709265
0.01167141
-0.014095863
0.011940489
-0.014240935
0.011955166
-0.014039391
0.01158524
-0.013350138
0.01064988
-0.011992079
0.0089118648
-0.0097641987
0.0061126224
-0.0063782842
0.0018381383
-0.0013840306
-0.0051011457
0.0059567962
-0.017027289
0.017214834
-0.038693982
0.034157068
-0.076677517
0.055483813
-0.12621518
0.075939235
-0.16091057
0.092965052
-0.17530668
-0.17234682
0.10671922
-4.4940451e-08
1.0063238e-06
-2.0139597e-07
3.464218e-06
-5.0846956e-07
6.7296154e-06
-1.0162446e-06
1.1004771e-05
-1.78866e-06
1.6535537e-05
-2.907122e-06
2.3619301e-05
-4.4750461e-06
3.2613855e-05
-6.6234942e-06
4.3947072e-05
-9.5182471e-06
5.8127223e-05
-1.3368533e-05
7.5753523e-05
-1.8437807e-05
9.7526119e-05
-2.5056888e-05
0.00012425475
-3.3639829e-05
0.00015686437
-4.4702567e-05
0.00019639576
-5.8884633e-05
0.00024399872
-7.6973246e-05
0.00030091411
-9.9928868e-05
0.00036844111
-0.00012890992
0.00044788544
-0.00016529358
0.00054048565
-0.00021068661
0.0006473157
-0.00026691885
0.00076916927
-0.00033600932
0.00090644107
-0.00042009229
0.0010590392
-0.00052129258
0.0012263941
-0.00064154749
0.0014076614
-0.00078240349
0.0016022181
-0.00094487598
0.0018104229
-0.0011294922
0.0020343086
-0.0013364947
0.0022776801
-0.0015660764
0.0025454228
-0.001818543
0.0028423655
-0.0020972373
0.0031715654
-0.0024078757
0.0035327623
-0.0027532563
0.0039228789
-0.0031332019
0.004339574
-0.0035470352
0.0047828454
-0.0039941389
0.0052513689
-0.0044739673
0.005742335
-0.0049861056
0.0062529692
-0.0055301254
0.0067827983
-0.006104625
0.0073324346
-0.0067058348
0.0078998038
-0.0073267533
0.0084794126
-0.0079566916
0.0090622185
-0.0085799149
0.0096347141
-0.0091731411
0.010181485
-0.0097079374
0.010694735
-0.010157797
0.011170667
-0.010491546
0.011575988
-0.010662723
0.011842587
-0.010607097
0.011884862
-0.010237551
0.01158562
-0.0094354469
0.010783136
-0.0080462424
0.0092606757
-0.0058832879
0.0067489104
-0.002747212
0.0029765465
0.0017059259
-0.0026149996
0.0080115346
-0.011406754
0.017070374
-0.026086129
0.030712263
-0.05233587
0.049711004
-0.095676258
0.070299636
-0.14680381
0.087320789
-0.17793172
0.099898316
-0.18788421
-0.18262483
0.11017632
-1.4743256e-08
1.021067e-06
-6.7639499e-08
3.5171143e-06
-1.7425839e-07
6.8362343e-06
-3.5555766e-07
1.1186071e-05
-6.3968912e-07
1.6819668e-05
-1.0643925e-06
2.4044005e-05
-1.6801937e-06
3.3229656e-05
-2.5545996e-06
4.4821478e-05
-3.7776779e-06
5.9350301e-05
-5.4692862e-06
7.7445132e-05
-7.7885963e-06
9.9845429e-05
-1.0946202e-05
0.00012741236
-1.5219658e-05
0.00016113783
-2.0972866e-05
0.00020214897
-2.8679818e-05
0.00025170567
-3.89529e-05
0.00031118719
-5.257522e-05
0.00038206343
-7.0535746e-05
0.00046584597
-9.4063739e-05
0.00056401364
-0.00012465749
0.00067790945
-0.00016409843
0.0008086102
-0.00021443779
0.00095678043
-0.00027793891
0.0011225404
-0.00035695431
0.0013054095
-0.00045372111
0.0015044282
-0.00057008368
0.0017185806
-0.00070722395
0.0019475632
-0.00086556135
0.002192646
-0.0010449218
0.0024570406
-0.0012448622
0.0027453631
-0.0014649352
0.0030624385
-0.0017053779
0.0034120081
-0.0019680779
0.0037954624
-0.0022562507
0.0042110516
-0.0025731534
0.0046564768
-0.002918962
0.0051286539
-0.003291957
0.0056243639
-0.0036905438
0.0061409218
-0.0041139904
0.0066764158
-0.0045607958
0.0072296037
-0.0050264971
0.0077981359
-0.0055035486
0.0083768554
-0.0059812779
0.0089571418
-0.0064454422
0.0095263829
-0.0068777523
0.010067024
-0.0072533243
0.010557057
-0.007538249
0.01097966
-0.0076990207
0.011331438
-0.0076989891
0.011575956
-0.0074845195
0.011628118
-0.006982113
0.011382456
-0.0060936027
0.01069711
-0.0046869837
0.0093765175
-0.0025933522
0.0071670443
0.00037044232
0.0037851159
0.0043907054
-0.0010437165
0.0098815996
-0.0081058939
0.017492473
-0.019017628
0.02841803
-0.037011686
0.044630385
-0.068548225
0.064909242
-0.11595511
0.083084213
-0.16497878
0.095853079
-0.19070059
0.10442054
-0.19645167
-0.19058286
0.11237858
1.6531129e-08
1.0045359e-06
7.1025257e-08
3.4626202e-06
1.7252651e-07
6.734733e-06
3.306587e-07
1.1027938e-05
5.5501114e-07
1.6595316e-05
8.5411754e-07
2.3744898e-05
1.2338311e-06
3.2849942e-05
1.6948212e-06
4.4360488e-05
2.2288908e-06
5.8816232e-05
2.8136249e-06
7.6860398e-05
3.4048391e-06
9.9254215e-05
3.9260284e-06
0.00012689117
4.254131e-06
0.00016080973
4.2003852e-06
0.00020220271
3.4856573e-06
0.0002524204
1.7090203e-06
0.00031296383
-1.6906276e-06
0.00038546307
-7.4792394e-06
0.00047163458
-1.6676717e-05
0.00057321112
-3.06054e-05
0.00069183814
-5.0929382e-05
0.00082893418
-7.9669878e-05
0.00098552093
-0.00011917598
0.0011620465
-0.00017202092
0.0013582545
-0.00024079125
0.0015731985
-0.00032775137
0.0018055408
-0.00043444009
0.0020542519
-0.00056137979
0.0023195857
-0.00070811961
0.0026037804
-0.00087360454
0.002910848
-0.0010566343
0.0032454683
-0.0012562825
0.0036116562
-0.0014724534
0.0040116334
-0.0017066651
0.0044452633
-0.0019607772
0.0049105889
-0.0022358651
0.0054037418
-0.0025319376
0.0059204365
-0.0028477682
0.0064567524
-0.0031809014
0.007009549
-0.0035270477
0.00757575
-0.003879261
0.0081503492
-0.004227518
0.0087251124
-0.0045582969
0.0092879207
-0.0048539769
0.0098220629
-0.0050922649
0.010305312
-0.0052449862
0.010709778
-0.005274021
0.011008694
-0.0051402388
0.011197656
-0.0048008293
0.011236547
-0.004195037
0.011022326
-0.0032403839
0.010427802
-0.0018272336
0.0092839597
0.00019126607
0.0073580178
0.0029923115
0.0043659988
0.0067363807
4.1046656e-05
0.011629018
-0.0059363537
0.018170652
-0.014647528
0.027174062
-0.028021038
0.040276896
-0.050114521
0.058892948
-0.087164276
0.078857587
-0.13591975
0.093109298
-0.17923049
0.10162587
-0.19921716
0.10724277
-0.20206857
-0.19738949
0.11404939
4.7380588e-08
9.571553e-07
2.0798459e-07
3.3020162e-06
5.1546061e-07
6.427257e-06
1.0101319e-06
1.0533267e-05
1.739692e-06
1.5865756e-05
2.759659e-06
2.2724931e-05
4.1335166e-06
3.1476085e-05
5.9321969e-06
4.2561808e-05
8.2326159e-06
5.6515813e-05
1.1114767e-05
7.3978246e-05
1.4656683e-05
9.5712299e-05
1.8926513e-05
0.00012262134
2.3970498e-05
0.00015576574
2.9795637e-05
0.00019637757
3.6345535e-05
0.0002458705
4.3467781e-05
0.00030584159
5.0871636e-05
0.00037805922
5.8075134e-05
0.00046443108
6.4342401e-05
0.00056694385
6.8614719e-05
0.00068756582
6.9442874e-05
0.00082810603
6.4935399e-05
0.0009900284
5.2746717e-05
0.0011742352
3.0140835e-05
0.0013808604
-5.8219661e-06
0.0016091613
-5.7933458e-05
0.0018576522
-0.00012832327
0.0021246417
-0.0002179448
0.0024092072
-0.0003263941
0.0027122297
-0.00045220645
0.0030366604
-0.00059349761
0.0033867594
-0.00074853253
0.0037666911
-0.00091616674
0.0041792676
-0.0010961909
0.0046252875
-0.0012889171
0.0051033151
-0.0014949234
0.005609748
-0.0017141894
0.0061397025
-0.0019453356
0.0066878986
-0.0021848479
0.0072490614
-0.0024265196
0.0078174217
-0.0026612264
0.008385056
-0.0028765511
0.0089404371
-0.0030563505
0.0094677201
-0.0031803427
0.0099460551
-0.0032231769
0.010348146
-0.0031525112
0.010639113
-0.0029253555
0.010781539
-0.0024952683
0.010767569
-0.0018127478
0.010554026
-0.00081076814
0.010020346
0.0006021901
0.0090148442
0.002549422
0.0073367278
0.0051934503
0.0047139894
0.0087021762
0.00085727288
0.01319588
-0.0044526567
0.018971938
-0.011712412
0.026614986
-0.022290576
0.03726224
-0.038668291
0.052898289
-0.06575057
0.072873108
-0.1071391
0.090441538
-0.15348818
0.10013798
-0.18892693
0.10497887
-0.20405804
0.10902818
-0.20611788
-0.20398764
0.11562633
7.5808929e-08
8.8134637e-07
3.3443121e-07
3.0433939e-06
8.3259598e-07
5.9290922e-06
1.63961e-06
9.726253e-06
2.8393472e-06
1.4666018e-05
4.5323197e-06
2.1031959e-05
6.8376434e-06
2.9170761e-05
9.8947416e-06
3.950471e-05
1.3864412e-05
5.2546142e-05
1.8928816e-05
6.8913843e-05
2.5289735e-05
8.9351379e-05
3.3164079e-05
0.000114747
4.2775566e-05
0.00014615425
5.4340824e-05
0.00018481231
6.804804e-05
0.00023216329
8.4025847e-05
0.00028986378
0.00010229999
0.00035978508
0.00012273544
0.00044399563
0.00014496317
0.00054471612
0.00016829209
0.0006642369
0.0001916119
0.00080478622
0.00021329926
0.00096834104
0.00023115084
0.0011563836
0.0002423831
0.0013696281
0.00024375631
0.0016077881
0.00023189443
0.0018695141
0.00020384016
0.002152696
0.00015777052
0.0024552769
9.3490865e-05
0.0027765093
1.2563774e-05
0.0031175875
-8.2656806e-05
0.00348198
-0.00018962747
0.0038736618
-0.00030614727
0.0042957874
-0.00043057655
0.0047497168
-0.00056186488
0.0052346034
-0.0006993741
0.0057472572
-0.00084212775
0.0062824562
-0.00098781738
0.0068335882
-0.0011318073
0.0073930514
-0.001266426
0.0079520403
-0.0013806861
0.0084993161
-0.001460018
0.009019769
-0.0014857817
0.0094934838
-0.0014348357
0.0098951092
-0.0012787452
0.010192056
-0.00098249318
0.010342861
-0.00049998824
0.010299034
0.00022557275
0.010042008
0.0012529828
0.0095266162
0.0026562433
0.0086170855
0.0045374733
0.0071336141
0.0070355416
0.0048386595
0.010315973
0.0014335578
0.014496655
-0.0033234087
0.019720209
-0.0096762112
0.026415251
-0.018407453
0.03532038
-0.031195705
0.048091426
-0.051439337
0.066083398
-0.083742541
0.085294228
-0.12634993
0.09850185
-0.16669581
0.10412873
-0.19455381
0.10673116
-0.20666047
0.11041726
-0.20980398
-0.21087613
0.11730575
9.9634949e-08
7.8171142e-07
4.4068391e-07
2.7023449e-06
1.0997136e-06
5.2700625e-06
2.171135e-06
8.6548317e-06
3.7704604e-06
1.3066693e-05
6.0378972e-06
1.8764522e-05
9.1422284e-06
2.606643e-05
1.3284748e-05
3.536219e-05
1.8703105e-05
4.7127785e-05
2.5674523e-05
6.1942424e-05
3.4517865e-05
8.0508037e-05
4.5593602e-05
0.00010367126
5.9300425e-05
0.00013244743
7.6066747e-05
0.00016804599
9.6334803e-05
0.00021189523
0.00012053446
0.00026566412
0.00014904336
0.00033127619
0.0001821294
0.00041090959
0.00021987237
0.00050697314
0.00026206242
0.00062204686
0.00030807678
0.00075877186
0.00035674299
0.00091967483
0.00040620822
0.0011069183
0.0004538525
0.0013219838
0.00049630978
0.0015653308
0.0005296859
0.001836138
0.00055006871
0.0021323132
0.00055433824
0.0024510073
0.00054107848
0.0027897691
0.0005109902
0.0031476758
0.000466743
0.0035262272
0.00041148386
0.0039289209
0.00034871094
0.0043585603
0.00028157536
0.0048168523
0.00021249294
0.0053036858
0.00014365613
0.0058160941
7.7533403e-05
0.0063485789
1.7793562e-05
0.006893328
-2.9682324e-05
0.0074405273
-5.5841043e-05
0.007978199
-4.7927402e-05
0.0084914025
1.0811353e-05
0.0089610303
0.00014140157
0.0093628935
0.00037001803
0.0096664927
0.0007280587
0.0098340151
0.0012535913
0.009817328
0.0019951042
0.0095575209
0.0030167184
0.0090203936
0.0043911562
0.0081521784
0.0062033638
0.0068048778
0.0085682077
0.0047687703
0.011633904
0.0017729627
0.015529655
-0.0024621931
0.020330209
-0.0081239626
0.026298186
-0.015644188
0.033998143
-0.02610741
0.044561055
-0.041758617
0.059857137
-0.066735419
0.078727922
-0.10261333
0.094616586
-0.14223859
0.1029905
-0.17506972
0.10583018
-0.19739349
0.10762068
-0.20845098
0.1116885
-0.21387181
-0.21823052
0.11904289
1.1685579e-07
6.6485563e-07
5.1783961e-07
2.3013611e-06
1.2944698e-06
4.4934323e-06
2.5603064e-06
7.388995e-06
4.4553057e-06
1.1171694e-05
7.1508313e-06
1.6068996e-05
1.0855218e-05
2.2362043e-05
1.5819942e-05
3.0397466e-05
2.2346125e-05
4.0601602e-05
3.079115e-05
5.3497399e-05
4.1574855e-05
6.9724332e-05
5.5184592e-05
9.0061522e-05
7.2177807e-05
0.00011545422
9.3180759e-05
0.00014704304
0.00011888065
0.00018619534
0.00015000823
0.00023453654
0.00018730649
0.00029397792
0.00023148071
0.00036673537
0.00028312338
0.00045533047
0.00034260932
0.00056256093
0.00040995645
0.00069142472
0.00048465407
0.0008449772
0.00056547013
0.0010261023
0.00065026753
0.0012371864
0.00073588838
0.00147971
0.00081820413
0.0017538223
0.00089246487
0.0020580524
0.00095406749
0.0023894047
0.00099974261
0.002744094
0.0010283283
0.0031190901
0.0010417121
0.0035128434
0.0010426588
0.0039279742
0.0010377042
0.004363515
0.001030583
0.0048239736
0.0010252375
0.0053090313
0.0010256778
0.0058156537
0.0010361843
0.0063380724
0.0010621952
0.0068673171
0.0011112087
0.0073915137
0.0011938464
0.0078955614
0.0013246581
0.0083605907
0.0015225894
0.008763099
0.0018114389
0.0090740441
0.0022202717
0.0092576599
0.0027840112
0.0092702756
0.003543968
0.0090573712
0.0045494775
0.0085520114
0.0058710575
0.0076988136
0.0075976362
0.0064255997
0.0098300047
0.0045725093
0.012695173
0.0019036018
0.016321342
-0.0018532061
0.020766395
-0.0069072458
0.026161586
-0.013519154
0.032937383
-0.022419985
0.041913287
-0.035083314
0.054737276
-0.054582607
0.071948393
-0.083946536
0.089042351
-0.11970729
0.099927415
-0.15312365
0.10453837
-0.17968068
0.10622985
-0.19908496
0.10824177
-0.2104629
0.11293107
-0.21856111
-0.2259657
0.12066625
1.2604994e-07
5.3880569e-07
5.5947334e-07
1.8679377e-06
1.4005543e-06
3.6523514e-06
2.7743701e-06
6.0151792e-06
4.8360019e-06
9.1100621e-06
7.7766016e-06
1.3128397e-05
1.1830434e-05
1.830821e-05
1.7282872e-05
2.4945029e-05
2.4479327e-05
3.3405147e-05
3.3835023e-05
4.4141703e-05
4.5845237e-05
5.7714119e-05
6.1095512e-05
7.4811247e-05
8.0270952e-05
9.6278775e-05
0.00010416305
0.00012315094
0.00013367208
0.00015668631
0.00016980175
0.00019840687
0.00021364187
0.0002501378
0.00026633299
0.00031404425
0.00032900598
0.00039265748
0.00040268715
0.00048887976
0.00048816071
0.00060595116
0.00058578121
0.00074735671
0.00069523685
0.00091664664
0.00081527918
0.0011171441
0.00094346357
0.0013515256
0.0010759887
0.0016212971
0.0012077817
0.0019262594
0.0013330182
0.0022641683
0.0014462086
0.0026309036
0.0015438336
0.0030214651
0.0016251247
0.0034315523
0.0016925301
0.0038605688
0.0017501855
0.0043058596
0.0018062649
0.0047678942
0.0018662822
0.0052490141
0.0019363742
0.0057455617
0.0020231609
0.0062512857
0.0021340571
0.006756421
0.0022785239
0.0072470469
0.0024690889
0.0077049964
0.0027223108
0.0081073688
0.0030595163
0.0084258935
0.0035073025
0.0086262578
0.0040979536
0.0086670088
0.0048700522
0.008498177
0.0058684144
0.0080590089
0.0071433399
0.007277086
0.0087739803
0.0060681731
0.010863911
0.0043356686
0.013529826
0.0019065945
0.016890131
-0.0014567031
0.020999503
-0.0059625783
0.02591878
-0.011826522
0.031952618
-0.019552992
0.039750619
-0.030217986
0.050615486
-0.045948181
0.065724715
-0.069691837
0.082626055
-0.10084788
0.095379016
-0.13246025
0.1019707
-0.15971534
0.10474275
-0.18245273
0.10598063
-0.20032284
0.10874838
-0.21323065
0.11408362
-0.22389635
-0.23391291
0.12203083
1.2649983e-07
4.1230586e-07
5.6231857e-07
1.432119e-06
1.4095748e-06
2.8050951e-06
2.796225e-06
4.628529e-06
4.8817486e-06
7.0245385e-06
7.8639178e-06
1.0146227e-05
1.1986769e-05
1.4185359e-05
1.7549928e-05
1.938187e-05
2.4919409e-05
2.6035665e-05
3.4539875e-05
3.4521238e-05
4.6948367e-05
4.5305626e-05
6.2789194e-05
5.897042e-05
8.2829516e-05
7.6238453e-05
0.00010797459
9.800587e-05
0.00013928102
0.00012537988
0.00017796556
0.00015972233
0.00022540524
0.00020269811