/*--------------------------------*- C++ -*----------------------------------*\
  =========                 |
  \\      /  F ield         | OpenFOAM: The Open Source CFD Toolbox
   \\    /   O peration     | Website:  https://openfoam.org
    \\  /    A nd           | Version:  13
     \\/     M anipulation  |
\*---------------------------------------------------------------------------*/
FoamFile
{
    format      ascii;
    class       volScalarField;
    location    "17.296868";
    object      p;
}
// * * * * * * * * * * * * * * * * * * * * * * * * * * * * * * * * * * * * * //

dimensions      [0 2 -2 0 0 0 0];

internalField   nonuniform List<scalar> 
17140
(
-0.18768381
-0.18775258
-0.18783608
-0.18792147
-0.18801438
-0.18811628
-0.18822738
-0.18834802
-0.18847859
-0.18861939
-0.18877072
-0.18893279
-0.18910586
-0.18929027
-0.18948662
-0.18969598
-0.18992032
-0.19016318
-0.19043073
-0.19073353
-0.19108933
-0.19152749
-0.19209578
-0.19286964
-0.19396194
-0.19552475
-0.19772896
-0.20072961
-0.20463994
-0.20918829
-0.21346539
-0.21707373
-0.22082362
-0.22515223
-0.23001629
-0.23554571
-0.24184549
-0.24898769
-0.25703321
-0.26599799
-0.27585301
-0.28654828
-0.29804985
-0.31040648
-0.32331948
-0.33679896
-0.35131975
-0.36698739
-0.38357839
-0.40103785
-0.41910427
-0.43744498
-0.45555803
-0.47250902
-0.48714948
-0.49791833
-0.50285914
-0.49953791
-0.48543415
-0.4568245
-0.39522233
-0.30446079
-0.15413784
-0.017304394
0.10211083
-0.18919185
-0.18925928
-0.18934107
-0.18942484
-0.18951598
-0.18961597
-0.18972499
-0.18984339
-0.18997152
-0.19010971
-0.1902582
-0.19041722
-0.19058698
-0.1907678
-0.19096023
-0.19116526
-0.1913848
-0.19162226
-0.19188366
-0.1921793
-0.19252659
-0.19295439
-0.19350965
-0.19426658
-0.19533623
-0.19686869
-0.19903329
-0.20198185
-0.20582454
-0.21035476
-0.2146919
-0.21833377
-0.22205937
-0.2263833
-0.23124718
-0.23677331
-0.24306862
-0.25020429
-0.25823596
-0.26717619
-0.27699569
-0.2876537
-0.2991273
-0.31147164
-0.3244196
-0.33794441
-0.35251002
-0.36816849
-0.38470433
-0.40208519
-0.42004967
-0.43827009
-0.45623452
-0.47302996
-0.48751386
-0.4978385
-0.50195938
-0.49860188
-0.4840889
-0.45467471
-0.3934285
-0.30365427
-0.15548225
-0.020672982
0.098226654
-0.19163706
-0.19170158
-0.19177971
-0.19185998
-0.19194735
-0.19204321
-0.19214775
-0.19226132
-0.19238424
-0.19251682
-0.19265927
-0.19281179
-0.19297456
-0.19314781
-0.19333201
-0.19352804
-0.19373763
-0.19396395
-0.19421266
-0.19449358
-0.19482338
-0.19522978
-0.19575801
-0.1964796
-0.19750181
-0.1989703
-0.20105088
-0.2038887
-0.20758556
-0.21205731
-0.21648869
-0.22020138
-0.22387243
-0.2281663
-0.2330093
-0.23850352
-0.24475919
-0.25184591
-0.25981158
-0.26866471
-0.27838203
-0.28894039
-0.30033671
-0.3126362
-0.32562223
-0.33923668
-0.35384562
-0.36947867
-0.38593598
-0.40323275
-0.42109672
-0.43921072
-0.45707694
-0.47379395
-0.48816336
-0.49848827
-0.50247942
-0.49903314
-0.48513369
-0.45677413
-0.39752527
-0.31060516
-0.16518461
-0.03036893
0.088954291
-0.19499093
-0.19505105
-0.19512367
-0.19519861
-0.19528024
-0.19536984
-0.19546759
-0.19557381
-0.19568883
-0.1958129
-0.19594622
-0.19608892
-0.19624112
-0.19640298
-0.19657484
-0.19675741
-0.19695217
-0.19716195
-0.19739193
-0.1976512
-0.19795535
-0.19833045
-0.1988192
-0.19948924
-0.20044225
-0.20181728
-0.20377494
-0.20645452
-0.20994518
-0.21426789
-0.21877277
-0.22262816
-0.22626898
-0.23047439
-0.23525814
-0.24068434
-0.2468588
-0.25384832
-0.26169248
-0.27039815
-0.27995564
-0.29037015
-0.3016584
-0.31388264
-0.32691011
-0.34063678
-0.35528747
-0.37086981
-0.38720948
-0.40436923
-0.42209232
-0.44013704
-0.45802039
-0.47483674
-0.48928089
-0.49965352
-0.50361923
-0.50082115
-0.48808072
-0.46187282
-0.40629006
-0.32373489
-0.18101429
-0.045656546
0.074899944
-0.19920318
-0.19925747
-0.19932277
-0.19939064
-0.19946464
-0.19954589
-0.1996346
-0.19973106
-0.19983555
-0.1999483
-0.20006945
-0.20019909
-0.20033727
-0.20048403
-0.20063957
-0.2008044
-0.2009797
-0.20116788
-0.20137349
-0.20160474
-0.20187581
-0.20221071
-0.20264884
-0.20325292
-0.20411748
-0.20537271
-0.2071719
-0.2096523
-0.21289436
-0.21691727
-0.22136716
-0.22545306
-0.22918065
-0.23322071
-0.23790041
-0.24322341
-0.24927137
-0.25611187
-0.26378123
-0.2722877
-0.28164602
-0.291895
-0.30305518
-0.31516927
-0.32825365
-0.34210072
-0.35678165
-0.37225811
-0.38837406
-0.40541768
-0.42317958
-0.44125651
-0.45905664
-0.47577324
-0.49035858
-0.50121184
-0.50536798
-0.50322231
-0.49216067
-0.46870291
-0.41754285
-0.34025498
-0.20044272
-0.064413665
0.056863862
-0.20415628
-0.20420339
-0.20425974
-0.20431891
-0.20438352
-0.20445449
-0.20453206
-0.20461648
-0.20470799
-0.20480679
-0.20491296
-0.20502655
-0.2051475
-0.20527577
-0.2054114
-0.20555467
-0.20570643
-0.20586863
-0.20604511
-0.206243
-0.20647492
-0.20676235
-0.20714086
-0.20766727
-0.20842767
-0.20954157
-0.21115251
-0.21339424
-0.21634068
-0.21998971
-0.22425129
-0.22852905
-0.23237082
-0.23626207
-0.24079791
-0.24598161
-0.25186669
-0.25851706
-0.26596314
-0.27421645
-0.28333596
-0.29339594
-0.30442151
-0.31649459
-0.32966548
-0.34358004
-0.35825339
-0.37352881
-0.38952362
-0.40666312
-0.42448286
-0.44248122
-0.45999677
-0.47635881
-0.49079271
-0.50221544
-0.50714947
-0.50592118
-0.49664967
-0.47613934
-0.42981438
-0.35755505
-0.22175587
-0.084700006
0.036107323
-0.20972489
-0.20976357
-0.20980943
-0.20985833
-0.20991183
-0.20997068
-0.21003508
-0.21010528
-0.21018148
-0.21026382
-0.21035236
-0.21044706
-0.21054784
-0.21065455
-0.21076708
-0.21088555
-0.2110105
-0.21114344
-0.21128753
-0.21144886
-0.2116384
-0.21187505
-0.21219031
-0.21263471
-0.2132853
-0.21425006
-0.21566111
-0.21764706
-0.22028569
-0.22356444
-0.22739316
-0.23157821
-0.23567493
-0.23956796
-0.24377017
-0.24868918
-0.25433851
-0.26074972
-0.26793656
-0.27594756
-0.28490284
-0.29489494
-0.30593136
-0.3180393
-0.33116291
-0.34502029
-0.35962217
-0.37474644
-0.39078473
-0.4079695
-0.42559704
-0.44333454
-0.46059828
-0.47670946
-0.49084609
-0.50214955
-0.50812372
-0.50845502
-0.50095854
-0.48316056
-0.44123799
-0.37356141
-0.2403098
-0.1050836
0.014119855
-0.21571255
-0.21574173
-0.21577639
-0.21581349
-0.21585421
-0.21589913
-0.21594845
-0.21600235
-0.21606101
-0.21612453
-0.21619292
-0.21626615
-0.21634408
-0.21642652
-0.2165133
-0.2166044
-0.21670019
-0.21680182
-0.21691192
-0.21703566
-0.21718252
-0.21736894
-0.21762241
-0.21798719
-0.21853108
-0.21935019
-0.22056464
-0.22229662
-0.22463013
-0.22756919
-0.23102533
-0.23484161
-0.2388141
-0.24285173
-0.24702123
-0.25161052
-0.25689504
-0.26303359
-0.27003554
-0.27793591
-0.28681097
-0.29674154
-0.30774124
-0.31972619
-0.33261996
-0.34631704
-0.36080635
-0.37588271
-0.39184353
-0.40881655
-0.42622774
-0.44373571
-0.4607771
-0.47666411
-0.49064559
-0.50160425
-0.50811218
-0.51028293
-0.5045845
-0.48907201
-0.45072981
-0.3857811
-0.25542332
-0.12279953
-0.0065337004
-0.22189617
-0.22191469
-0.22193681
-0.22196066
-0.22198703
-0.22201632
-0.22204869
-0.22208429
-0.22212326
-0.22216566
-0.22221152
-0.22226078
-0.22231332
-0.22236897
-0.22242755
-0.22248905
-0.22255376
-0.22262266
-0.22269803
-0.22278438
-0.22288991
-0.22302889
-0.22322509
-0.22351671
-0.22396241
-0.22464619
-0.22567555
-0.22716542
-0.22920553
-0.23182302
-0.23496379
-0.23850734
-0.24230403
-0.24624715
-0.25042121
-0.25496843
-0.26008178
-0.26596445
-0.27274395
-0.28047387
-0.28915924
-0.29883571
-0.3095213
-0.32117911
-0.33380096
-0.34730074
-0.36165704
-0.37663041
-0.39240448
-0.40913519
-0.4263148
-0.44359337
-0.46042722
-0.47610735
-0.48994157
-0.50065836
-0.50752126
-0.51102759
-0.50702233
-0.49303646
-0.45726364
-0.39181821
-0.26414464
-0.13564016
-0.026476287
-0.22798813
-0.22799512
-0.22800366
-0.22801316
-0.22802396
-0.22803628
-0.22805023
-0.22806592
-0.22808345
-0.22810289
-0.22812423
-0.22814746
-0.22817249
-0.22819922
-0.22822757
-0.22825759
-0.22828963
-0.22832468
-0.22836484
-0.22841415
-0.22847983
-0.22857425
-0.22871773
-0.22894269
-0.2292988
-0.22985762
-0.23071285
-0.23196972
-0.23372037
-0.23601206
-0.23882657
-0.24208759
-0.24569419
-0.24956836
-0.25370963
-0.25820462
-0.2632254
-0.26893844
-0.27546205
-0.28285934
-0.29118672
-0.30050895
-0.3108533
-0.32220479
-0.33454297
-0.34779773
-0.36194767
-0.37677439
-0.39235453
-0.40881968
-0.42575354
-0.44279515
-0.45940685
-0.47487058
-0.48846061
-0.49868638
-0.50623217
-0.51089502
-0.50775833
-0.49441807
-0.45934506
-0.39055351
-0.26788069
-0.14343959
-0.043829632
-0.23368593
-0.23368103
-0.23367555
-0.2336702
-0.23366486
-0.23365955
-0.23365433
-0.23364927
-0.23364442
-0.23363983
-0.23363551
-0.23363147
-0.23362768
-0.23362416
-0.23362094
-0.23361824
-0.23361656
-0.233617
-0.23362165
-0.2336343
-0.23366143
-0.23371382
-0.23380879
-0.23397353
-0.23424924
-0.23469545
-0.23539147
-0.23643051
-0.23790255
-0.23986921
-0.24234269
-0.24528443
-0.24862805
-0.25231742
-0.25634183
-0.26075076
-0.26565204
-0.27117719
-0.27744918
-0.28456315
-0.29259512
-0.30160558
-0.31162758
-0.32265931
-0.33468262
-0.34764984
-0.36150774
-0.37615489
-0.39155986
-0.4077368
-0.42441045
-0.44119913
-0.45756526
-0.47278205
-0.48593861
-0.49591346
-0.50375573
-0.5093929
-0.50624909
-0.49288598
-0.45393536
-0.38385709
-0.26765569
-0.14739141
-0.057534677
-0.2386862
-0.23866972
-0.23865058
-0.23863071
-0.23860955
-0.2385869
-0.23856278
-0.2385372
-0.23851016
-0.23848166
-0.23845174
-0.23842041
-0.23838773
-0.23835382
-0.23831888
-0.23828332
-0.23824786
-0.23821382
-0.23818342
-0.23816041
-0.23815082
-0.23816426
-0.23821565
-0.23832774
-0.2385344
-0.23888421
-0.23944275
-0.24029005
-0.24151003
-0.24317217
-0.24531306
-0.24792772
-0.25098062
-0.25443301
-0.2582727
-0.26253038
-0.26728134
-0.27262974
-0.27868603
-0.28554817
-0.29329637
-0.30199472
-0.31168561
-0.32237816
-0.33405908
-0.34670486
-0.36022598
-0.374626
-0.38985385
-0.40575777
-0.4221568
-0.43866878
-0.45475301
-0.46959576
-0.48208956
-0.49224803
-0.50029154
-0.5059153
-0.50189155
-0.48641058
-0.4422211
-0.37005447
-0.26025079
-0.15193206
-0.069550725
-0.24272735
-0.24270041
-0.24266887
-0.24263578
-0.24260016
-0.24256161
-0.24252007
-0.24247548
-0.24242777
-0.24237692
-0.2423229
-0.24226577
-0.24220561
-0.24214264
-0.24207719
-0.24200987
-0.24194163
-0.24187404
-0.24180955
-0.24175201
-0.24170729
-0.24168425
-0.24169609
-0.24176222
-0.24191066
-0.24218091
-0.24262639
-0.24331403
-0.24431857
-0.24571027
-0.24754257
-0.24984207
-0.25259877
-0.25579172
-0.259415
-0.26348864
-0.26806605
-0.27322872
-0.2790704
-0.28568334
-0.29314771
-0.30152924
-0.31087652
-0.32121038
-0.33252421
-0.34481795
-0.35797621
-0.37208088
-0.38711178
-0.40276934
-0.41887237
-0.43506867
-0.45077771
-0.46500218
-0.47712218
-0.48723763
-0.49552083
-0.49996525
-0.49411781
-0.47290255
-0.42570744
-0.35322229
-0.2486336
-0.15501141
-0.07885351
-0.24562177
-0.24558624
-0.24554448
-0.24550045
-0.24545278
-0.24540089
-0.24534465
-0.24528392
-0.24521854
-0.2451484
-0.24507344
-0.24499366
-0.24490917
-0.2448202
-0.24472718
-0.24463082
-0.24453226
-0.24443327
-0.24433651
-0.24424597
-0.2441675
-0.24410957
-0.2440843
-0.24410882
-0.24420701
-0.24441163
-0.24476636
-0.24532665
-0.24615696
-0.24732207
-0.24890179
-0.25091573
-0.25337474
-0.25629363
-0.25967687
-0.26353958
-0.26791911
-0.27287897
-0.27849657
-0.28485297
-0.29202517
-0.30008043
-0.30907015
-0.31902626
-0.32995028
-0.34186403
-0.35462701
-0.36845431
-0.38327044
-0.39866375
-0.41443605
-0.43025435
-0.44545633
-0.45908766
-0.47104181
-0.48098858
-0.48867414
-0.4910969
-0.48088754
-0.45428361
-0.40400103
-0.33155046
-0.24070656
-0.15664254
-0.086731953
-0.24729165
-0.24725006
-0.24720104
-0.24714915
-0.24709275
-0.2470311
-0.246964
-0.24689119
-0.24681243
-0.2467275
-0.24663626
-0.24653863
-0.24643465
-0.2463245
-0.2462086
-0.24608767
-0.2459629
-0.24583613
-0.24571011
-0.24558886
-0.2454782
-0.24538632
-0.24532464
-0.24530884
-0.24536007
-0.24550648
-0.24578466
-0.2462412
-0.24693385
-0.24790393
-0.24918788
-0.25098788
-0.25324115
-0.25585401
-0.25897926
-0.26261136
-0.2667687
-0.27150303
-0.27687661
-0.28295872
-0.28981917
-0.29752723
-0.30613961
-0.31569711
-0.32621318
-0.33772146
-0.35007015
-0.3636445
-0.37825467
-0.39334203
-0.40874583
-0.42409419
-0.4386564
-0.45197001
-0.46364743
-0.47315942
-0.47916869
-0.47806857
-0.46206982
-0.43195174
-0.38037359
-0.31067317
-0.2301645
-0.15766575
-0.092858149
-0.24776292
-0.24771826
-0.24766545
-0.24760935
-0.24754818
-0.24748108
-0.24740775
-0.24732785
-0.24724103
-0.24714695
-0.24704536
-0.24693605
-0.24681893
-0.24669406
-0.24656172
-0.24642251
-0.24627748
-0.24612835
-0.24597769
-0.24582935
-0.24568885
-0.24556397
-0.24546546
-0.24540784
-0.24541041
-0.2454983
-0.24570351
-0.24606566
-0.24663311
-0.24746145
-0.24858488
-0.25003586
-0.25201949
-0.25448356
-0.2573149
-0.26068655
-0.26458022
-0.26904948
-0.27414212
-0.27991666
-0.28643534
-0.29376352
-0.30196754
-0.31110158
-0.32119955
-0.33228438
-0.34426278
-0.35755588
-0.37194112
-0.38668302
-0.40168476
-0.41650161
-0.43059115
-0.44357518
-0.45476798
-0.46268508
-0.46618026
-0.46017042
-0.43993482
-0.40693034
-0.3540448
-0.29407302
-0.22065699
-0.15759995
-0.097687755
-0.24718983
-0.24714505
-0.2470916
-0.24703517
-0.24697346
-0.24690549
-0.24683093
-0.24674936
-0.24666031
-0.24656336
-0.2464581
-0.24634416
-0.2462213
-0.24608936
-0.2459484
-0.24579876
-0.24564117
-0.24547699
-0.24530835
-0.24513859
-0.24497257
-0.24481727
-0.24468243
-0.24458128
-0.24453146
-0.24455584
-0.24468343
-0.24494989
-0.24539754
-0.2460756
-0.24703717
-0.24832407
-0.25000377
-0.25204266
-0.2546207
-0.25776129
-0.2613548
-0.26550779
-0.27026433
-0.27567561
-0.28180328
-0.28871028
-0.2964659
-0.30513789
-0.31479863
-0.32546002
-0.3371519
-0.35012351
-0.36420129
-0.37865105
-0.39325397
-0.4076113
-0.42136375
-0.43368531
-0.4435206
-0.44948009
-0.45002354
-0.43866418
-0.41501842
-0.37999333
-0.33231051
-0.2768271
-0.21231527
-0.15689801
-0.10133031
-0.24579049
-0.24574839
-0.24569771
-0.24564455
-0.24558625
-0.24552179
-0.24545081
-0.24537282
-0.24528729
-0.2451937
-0.2450915
-0.2449802
-0.24485935
-0.24472855
-0.2445876
-0.24443645
-0.24427542
-0.24410528
-0.24392752
-0.24374458
-0.24356028
-0.24338028
-0.2432127
-0.24306886
-0.24296408
-0.24291862
-0.24295844
-0.24311586
-0.24342965
-0.24394444
-0.24470761
-0.24578438
-0.24718328
-0.24905317
-0.25135104
-0.25394342
-0.25713561
-0.260908
-0.26525018
-0.27021578
-0.27587436
-0.28229517
-0.28955477
-0.29773032
-0.30692662
-0.3171743
-0.32863918
-0.34136416
-0.35509749
-0.36910982
-0.38347764
-0.39750459
-0.41046702
-0.4217103
-0.42992458
-0.4332735
-0.42855276
-0.41450332
-0.3888518
-0.3544865
-0.31184088
-0.26214387
-0.20427735
-0.15539228
-0.10392839
-0.24385588
-0.24381872
-0.24377365
-0.24372666
-0.24367496
-0.24361758
-0.24355414
-0.24348414
-0.24340701
-0.24332215
-0.24322894
-0.24312677
-0.24301502
-0.2428931
-0.24276048
-0.24261679
-0.24246184
-0.2422958
-0.24211932
-0.24193382
-0.24174175
-0.2415471
-0.24135583
-0.24117666
-0.24102177
-0.24090777
-0.24085658
-0.24089626
-0.2410615
-0.24139363
-0.2419381
-0.24274999
-0.2438673
-0.24530426
-0.24718217
-0.24959205
-0.25226006
-0.25539141
-0.2591941
-0.26358467
-0.26865208
-0.27448105
-0.28116589
-0.2887984
-0.29750174
-0.30734079
-0.31852515
-0.33103418
-0.34440573
-0.3582445
-0.37235916
-0.3855934
-0.39777111
-0.40796877
-0.41390373
-0.41337449
-0.40525308
-0.39008938
-0.36208485
-0.33308772
-0.29277457
-0.24830101
-0.19657926
-0.15337218
-0.10563265
-0.24165219
-0.24162146
-0.24158388
-0.24154494
-0.24150196
-0.24145407
-0.2414009
-0.24134196
-0.2412767
-0.2412045
-0.24112472
-0.24103666
-0.24093962
-0.24083285
-0.24071563
-0.24058726
-0.24044716
-0.2402949
-0.24013038
-0.23995398
-0.23976676
-0.23957085
-0.23936985
-0.23916937
-0.23897768
-0.23880656
-0.23867213
-0.23859579
-0.23860509
-0.23873406
-0.23902248
-0.23951548
-0.24025968
-0.24129739
-0.2426757
-0.24445417
-0.24660467
-0.24917618
-0.25223821
-0.25589884
-0.26021934
-0.26531104
-0.27129854
-0.2782971
-0.28646085
-0.29587693
-0.30669854
-0.31899911
-0.33215173
-0.34563932
-0.35933436
-0.37226094
-0.38403752
-0.39227163
-0.39479781
-0.39112214
-0.38224142
-0.36486036
-0.34089447
-0.31231449
-0.27560278
-0.23581564
-0.18915657
-0.15081532
-0.10653056
-0.23943378
-0.23940992
-0.23938082
-0.2393506
-0.23931713
-0.23927968
-0.23923793
-0.23919144
-0.23913969
-0.2390821
-0.23901807
-0.2389469
-0.23886787
-0.23878019
-0.23868301
-0.23857549
-0.23845676
-0.23832602
-0.23818259
-0.23802601
-0.23785623
-0.23767379
-0.2374801
-0.23727785
-0.23707142
-0.23686748
-0.2366756
-0.23650889
-0.23638481
-0.23632617
-0.23636162
-0.23652556
-0.23685621
-0.23739467
-0.23817766
-0.23925209
-0.24068852
-0.24245839
-0.24467547
-0.24742114
-0.25080885
-0.25498759
-0.26012931
-0.26638019
-0.2739662
-0.28294487
-0.29350023
-0.30566284
-0.318237
-0.33191789
-0.34572417
-0.35863383
-0.36862172
-0.37439961
-0.37374921
-0.36970411
-0.35842597
-0.34220929
-0.31956381
-0.29355436
-0.25981433
-0.22403189
-0.18191933
-0.14784922
-0.10674034
-0.23735753
-0.23734047
-0.23732018
-0.23729822
-0.23727379
-0.23724641
-0.23721575
-0.23718145
-0.23714307
-0.23710013
-0.23705208
-0.23699832
-0.23693819
-0.23687093
-0.23679575
-0.23671176
-0.23661804
-0.23651364
-0.23639758
-0.23626896
-0.23612697
-0.23597105
-0.235801
-0.23561716
-0.23542062
-0.23521354
-0.23499954
-0.23478363
-0.23457198
-0.23437397
-0.23420159
-0.23407082
-0.23400297
-0.23402632
-0.23417514
-0.2344899
-0.23501654
-0.23582243
-0.23698354
-0.23861835
-0.24088253
-0.24397527
-0.24813623
-0.25355228
-0.26055591
-0.26916038
-0.27955107
-0.29143939
-0.30405295
-0.31880682
-0.33224846
-0.34386683
-0.35158957
-0.35474652
-0.35346933
-0.34696021
-0.33597371
-0.3212855
-0.30051973
-0.27614749
-0.24519769
-0.21306499
-0.17487293
-0.14451376
-0.10633031
-0.23552475
-0.2355134
-0.23549979
-0.23548503
-0.23546855
-0.23545001
-0.23542918
-0.23540578
-0.23537948
-0.23534991
-0.23531664
-0.23527919
-0.23523703
-0.23518956
-0.23513616
-0.23507611
-0.23500853
-0.23493243
-0.23484665
-0.23475021
-0.23464221
-0.23452144
-0.23438671
-0.23423674
-0.23407062
-0.23388967
-0.23369478
-0.23347562
-0.2332259
-0.23294852
-0.23263786
-0.23228846
-0.23189485
-0.23145709
-0.23098742
-0.23051773
-0.23010295
-0.22982585
-0.22979859
-0.23018466
-0.23118225
-0.23306422
-0.23614582
-0.24070333
-0.24710177
-0.25509974
-0.26534636
-0.2773884
-0.29165796
-0.30611678
-0.31862978
-0.32760028
-0.33331428
-0.33519305
-0.33306379
-0.32490065
-0.31586428
-0.30179668
-0.2823469
-0.25991601
-0.23155801
-0.20262883
-0.16793327
-0.14086659
-0.10537701
-0.2339218
-0.23391527
-0.23390743
-0.23389891
-0.23388937
-0.23387862
-0.23386651
-0.23385287
-0.23383749
-0.23382014
-0.23380057
-0.23377853
-0.23375334
-0.2337232
-0.23368701
-0.23364634
-0.23360228
-0.23355303
-0.23349832
-0.23343864
-0.23337032
-0.2332908
-0.23319973
-0.23309515
-0.23297533
-0.23283742
-0.23267389
-0.23247493
-0.2322355
-0.23194306
-0.23157558
-0.23110681
-0.23050787
-0.22974816
-0.22880456
-0.22767392
-0.22639554
-0.22506907
-0.22384389
-0.22294628
-0.22264247
-0.22333234
-0.22532087
-0.22882265
-0.23463971
-0.24251179
-0.25391889
-0.26675552
-0.28071501
-0.29380327
-0.30329282
-0.31084053
-0.31545523
-0.3162
-0.31194236
-0.30635707
-0.29686722
-0.28353523
-0.26552239
-0.24477973
-0.21877017
-0.19272379
-0.16111487
-0.13694115
-0.1039347
-0.23249794
-0.23249645
-0.23249462
-0.23249258
-0.23249023
-0.2324875
-0.23248433
-0.23248065
-0.23247641
-0.23247164
-0.23246548
-0.23245565
-0.2324387
-0.23241842
-0.23240626
-0.23240271
-0.2324012
-0.23239201
-0.23235938
-0.23231282
-0.23227416
-0.23223769
-0.23219252
-0.23213739
-0.2320679
-0.23197747
-0.2318565
-0.23170088
-0.23149927
-0.2312208
-0.23084156
-0.2303302
-0.22962994
-0.22868203
-0.22744112
-0.22587735
-0.22400751
-0.22191143
-0.21974605
-0.21780149
-0.21631394
-0.21573369
-0.21661273
-0.21969318
-0.22569676
-0.2343968
-0.24563367
-0.25752523
-0.27010477
-0.27981068
-0.28831115
-0.29507475
-0.29796879
-0.29693891
-0.29440344
-0.28815108
-0.27896812
-0.26643323
-0.24962205
-0.23053686
-0.20669838
-0.18321967
-0.15436802
-0.13277104
-0.10206066
-0.23113128
-0.23113558
-0.23114061
-0.2311459
-0.2311516
-0.23115779
-0.23116445
-0.23117137
-0.23117862
-0.23118975
-0.23120651
-0.23122147
-0.23122865
-0.23123152
-0.23123577
-0.23124197
-0.23124816
-0.2312545
-0.23126011
-0.23126968
-0.23128902
-0.23130503
-0.2312984
-0.23126419
-0.23121377
-0.2311552
-0.23107303
-0.23095287
-0.23078534
-0.23054798
-0.23020397
-0.22970728
-0.22900683
-0.2280418
-0.22673681
-0.22498603
-0.22279134
-0.22028231
-0.21752349
-0.21473829
-0.21224594
-0.21131455
-0.21203487
-0.21499534
-0.22058239
-0.22873539
-0.23854814
-0.24938147
-0.25839781
-0.26680753
-0.27519459
-0.27943245
-0.28086695
-0.28048798
-0.27707974
-0.27112019
-0.26218637
-0.25032595
-0.2346907
-0.21712991
-0.19525676
-0.17408346
-0.14769784
-0.12839166
-0.099802023
-0.23005687
-0.23006823
-0.23008162
-0.23009577
-0.23011114
-0.23012792
-0.23014616
-0.23016593
-0.2301872
-0.23021001
-0.23023527
-0.2302638
-0.23029513
-0.230328
-0.2303614
-0.23039528
-0.23042943
-0.23045957
-0.23047976
-0.2304927
-0.23050519
-0.230524
-0.23055035
-0.23057037
-0.23057794
-0.23058234
-0.23056292
-0.23047614
-0.23031184
-0.23007793
-0.22975617
-0.22928647
-0.22860032
-0.22760999
-0.22621524
-0.22445517
-0.22235311
-0.21977924
-0.21695098
-0.21420706
-0.2119345
-0.21068263
-0.21088807
-0.21340651
-0.21791951
-0.22462905
-0.23306434
-0.2404942
-0.24770438
-0.25675436
-0.26162419
-0.26447319
-0.26564263
-0.26439574
-0.26093937
-0.25497684
-0.24629483
-0.23512756
-0.22055747
-0.20442076
-0.18434843
-0.16524438
-0.14107624
-0.1238251
-0.097199719
-0.22939673
-0.22941454
-0.22943551
-0.22945769
-0.22948178
-0.22950807
-0.22953665
-0.2295676
-0.22960098
-0.22963685
-0.22967518
-0.22971591
-0.22975889
-0.22980389
-0.22985061
-0.22989864
-0.22994745
-0.22999634
-0.23004444
-0.23009052
-0.230133
-0.23017029
-0.23020145
-0.23021728
-0.23019923
-0.23016177
-0.23013954
-0.23010167
-0.22999063
-0.22980828
-0.22952984
-0.2290889
-0.2284943
-0.22777599
-0.2267635
-0.22530656
-0.22347103
-0.22122142
-0.21873936
-0.21621484
-0.21390979
-0.21225862
-0.21188204
-0.21322882
-0.21645834
-0.22173274
-0.2270459
-0.23240614
-0.24036952
-0.24572939
-0.24844538
-0.25076342
-0.25098996
-0.24936817
-0.2455909
-0.23967172
-0.23127499
-0.22074055
-0.20716631
-0.19234405
-0.1739082
-0.15666809
-0.13450123
-0.11909495
-0.094289191
-0.22971943
-0.2297385
-0.22976096
-0.22978474
-0.22981056
-0.22983876
-0.22986941
-0.2299026
-0.22993841
-0.22997686
-0.23001797
-0.23006166
-0.2301078
-0.23015618
-0.23020649
-0.23025829
-0.23031104
-0.23036404
-0.23041638
-0.23046718
-0.23051542
-0.23055996
-0.23059938
-0.23063167
-0.23065388
-0.23066285
-0.23065932
-0.23063504
-0.23055999
-0.23042346
-0.23024585
-0.230019
-0.22967636
-0.22909469
-0.22820305
-0.22709756
-0.22569865
-0.22384533
-0.22160963
-0.21916418
-0.21669847
-0.21464632
-0.21349721
-0.21368216
-0.21562273
-0.21841626
-0.22157238
-0.2271719
-0.23189719
-0.23438801
-0.23675372
-0.2377769
-0.23723742
-0.23506351
-0.23103342
-0.2251336
-0.21700297
-0.20707264
-0.19441602
-0.18080704
-0.16386731
-0.14831034
-0.12795722
-0.11421862
-0.091101241
-0.23097745
-0.23099271
-0.23101072
-0.2310298
-0.23105056
-0.23107327
-0.23109799
-0.2311248
-0.23115378
-0.23118496
-0.23121835
-0.23125391
-0.23129157
-0.23133116
-0.23137246
-0.23141514
-0.23145885
-0.23150374
-0.23154867
-0.23159221
-0.23163425
-0.23167404
-0.2317107
-0.23174372
-0.2317723
-0.23178207
-0.23178084
-0.23178024
-0.23180085
-0.23183102
-0.23173409
-0.23149179
-0.23122813
-0.2308905
-0.23030689
-0.22940268
-0.22811802
-0.22646207
-0.22439649
-0.22195386
-0.21929006
-0.21675394
-0.21478725
-0.21385995
-0.21425786
-0.21535757
-0.21802308
-0.22091715
-0.22288815
-0.22461311
-0.22546521
-0.22542642
-0.22412754
-0.22145926
-0.21716263
-0.21127686
-0.2034114
-0.19404373
-0.18223805
-0.16974747
-0.15417371
-0.14014131
-0.12143762
-0.1092118
-0.087661272
-0.23297758
-0.23298668
-0.23299742
-0.23300882
-0.23302125
-0.23303485
-0.23304967
-0.23306577
-0.23308317
-0.23310189
-0.23312192
-0.23314324
-0.23316577
-0.23318935
-0.2332137
-0.23323875
-0.23326654
-0.23329463
-0.23331759
-0.23333898
-0.23336151
-0.23338223
-0.23339991
-0.23341304
-0.23342766
-0.23345362
-0.23350103
-0.23351746
-0.23344212
-0.23336235
-0.23330676
-0.23317425
-0.23294309
-0.23257517
-0.23200595
-0.23119015
-0.23005214
-0.22850464
-0.22647113
-0.22392217
-0.2209941
-0.21798404
-0.21526826
-0.21362898
-0.21286549
-0.21301421
-0.21347188
-0.21407059
-0.21469076
-0.21489766
-0.21463233
-0.21363523
-0.21160497
-0.20844456
-0.2038996
-0.19802554
-0.19041187
-0.18157349
-0.17055665
-0.15909741
-0.1447761
-0.13212926
-0.11493298
-0.10408775
-0.083991897
-0.23527614
-0.23528023
-0.23528505
-0.23529013
-0.23529562
-0.23530158
-0.235308
-0.23531488
-0.23532218
-0.23532986
-0.23533785
-0.23534602
-0.23535421
-0.23536222
-0.23536973
-0.23537642
-0.23538179
-0.23538479
-0.23538508
-0.23538227
-0.23537508
-0.23536602
-0.23534958
-0.23533656
-0.2353223
-0.23526142
-0.23516613
-0.2350881
-0.23500614
-0.23488205
-0.23471276
-0.23448112
-0.23417473
-0.23376376
-0.23319873
-0.23241704
-0.23132
-0.22977549
-0.2276438
-0.22488558
-0.22165946
-0.21813098
-0.2151947
-0.21301192
-0.21114683
-0.20943934
-0.20798039
-0.20726314
-0.20646846
-0.20550933
-0.204164
-0.20225792
-0.19954669
-0.19593366
-0.19115831
-0.18529899
-0.17793077
-0.16959026
-0.15930802
-0.1488018
-0.13563186
-0.12424929
-0.10843552
-0.09885667
-0.080112899
-0.23780001
-0.23780188
-0.237804
-0.23780613
-0.23780828
-0.23781043
-0.23781251
-0.23781443
-0.23781607
-0.23781727
-0.2378178
-0.2378174
-0.2378157
-0.23781225
-0.23780646
-0.23779761
-0.2377848
-0.23776693
-0.23774257
-0.23771026
-0.23766924
-0.23761634
-0.23754699
-0.2374617
-0.23735365
-0.23721962
-0.23706203
-0.23687617
-0.23665858
-0.23640293
-0.23610943
-0.23577093
-0.23537043
-0.23488564
-0.23426884
-0.23343088
-0.23222755
-0.23047937
-0.22804944
-0.22497023
-0.2213002
-0.21756363
-0.21440593
-0.21089586
-0.20771134
-0.20461877
-0.20238377
-0.20033286
-0.19832849
-0.19624622
-0.19392062
-0.19120125
-0.18786635
-0.18383679
-0.17885656
-0.17302079
-0.16589254
-0.15802418
-0.14842944
-0.13880678
-0.12670051
-0.11647611
-0.10193743
-0.093528172
-0.076043554
-0.24073345
-0.24073468
-0.24073595
-0.24073704
-0.24073788
-0.2407384
-0.24073843
-0.24073779
-0.24073625
-0.24073348
-0.2407291
-0.24072261
-0.24071339
-0.24070065
-0.24068344
-0.24066056
-0.24063056
-0.24059169
-0.24054188
-0.2404789
-0.2403998
-0.2402972
-0.24017149
-0.24002336
-0.23984407
-0.23962993
-0.23937628
-0.23908112
-0.23874662
-0.23837339
-0.2379583
-0.23749816
-0.23698182
-0.23637543
-0.23560337
-0.23453402
-0.23299094
-0.23080565
-0.22793397
-0.22438899
-0.22038934
-0.21667155
-0.21227312
-0.20756334
-0.20339104
-0.19983115
-0.19639142
-0.19318673
-0.19010181
-0.1870268
-0.18382033
-0.18036388
-0.17646636
-0.1720672
-0.16691314
-0.16111534
-0.1542273
-0.1468108
-0.13786435
-0.12906472
-0.11794653
-0.10878807
-0.095431712
-0.088109488
-0.071799598
-0.24453008
-0.24452997
-0.24452957
-0.24452873
-0.24452728
-0.24452505
-0.24452178
-0.24451719
-0.24451088
-0.24450237
-0.24449108
-0.24447626
-0.244457
-0.24443217
-0.24440041
-0.24436005
-0.24430909
-0.24424517
-0.24416549
-0.24406684
-0.24394553
-0.24379745
-0.24361839
-0.24340358
-0.24314818
-0.24284873
-0.24250358
-0.24211099
-0.2416697
-0.24118036
-0.24064245
-0.24004688
-0.23936437
-0.23852876
-0.23742349
-0.23588938
-0.23376223
-0.23096051
-0.2274814
-0.22336371
-0.21926443
-0.21443562
-0.20886955
-0.20396762
-0.19912502
-0.1944291
-0.18999355
-0.18578631
-0.18172997
-0.17775971
-0.1737631
-0.16965304
-0.16525956
-0.1605413
-0.15524984
-0.14951015
-0.14286723
-0.13588845
-0.1275589
-0.11953048
-0.10933657
-0.10116266
-0.088910677
-0.08260202
-0.067395469
-0.24960883
-0.24960522
-0.24960058
-0.24959505
-0.2495883
-0.24958
-0.24956978
-0.2495572
-0.24954171
-0.24952265
-0.24949916
-0.24947026
-0.24943472
-0.24939105
-0.24933748
-0.24927189
-0.24919176
-0.24909417
-0.24897572
-0.24883256
-0.24866035
-0.24845434
-0.24820981
-0.24792235
-0.24758792
-0.24720248
-0.24676292
-0.24626788
-0.24571604
-0.24510338
-0.24441717
-0.24362552
-0.24266348
-0.24142324
-0.23976062
-0.23752764
-0.23462797
-0.23105105
-0.22677785
-0.22231069
-0.21717756
-0.21109703
-0.20538441
-0.19974204
-0.19401513
-0.18849118
-0.18316205
-0.17804567
-0.17312246
-0.16835586
-0.16366159
-0.15897958
-0.1541593
-0.14917792
-0.14379092
-0.13813525
-0.13174846
-0.12519983
-0.11746385
-0.11016332
-0.10084097
-0.093579806
-0.082368332
-0.07700429
-0.062859124
-0.25633709
-0.25632748
-0.25631563
-0.25630226
-0.25628672
-0.25626848
-0.25624703
-0.25622175
-0.25619188
-0.25615652
-0.25611458
-0.25606473
-0.25600542
-0.25593477
-0.25585058
-0.25575026
-0.25563081
-0.25548876
-0.25532024
-0.25512104
-0.25488662
-0.25461229
-0.25429311
-0.25392423
-0.25350143
-0.25302109
-0.25247959
-0.25187217
-0.25118977
-0.25041296
-0.24950267
-0.24838928
-0.24696559
-0.24509583
-0.24264281
-0.23951121
-0.23567379
-0.23114119
-0.22624219
-0.22077079
-0.21430395
-0.20792475
-0.20154054
-0.19496339
-0.18843968
-0.18205361
-0.17586497
-0.16991677
-0.16421009
-0.15873548
-0.15343093
-0.14825897
-0.14308409
-0.13789939
-0.13246367
-0.12692352
-0.12080975
-0.11469027
-0.10753255
-0.10092484
-0.09243261
-0.086020895
-0.075800136
-0.07133105
-0.058152799
-0.26510152
-0.26508332
-0.26506119
-0.2650367
-0.26500879
-0.26497669
-0.26493972
-0.26489701
-0.26484756
-0.2647902
-0.26472353
-0.26464589
-0.26455532
-0.2644496
-0.26432622
-0.26418219
-0.26401415
-0.26381833
-0.26359055
-0.26332624
-0.26302059
-0.26266868
-0.26226559
-0.26180633
-0.26128562
-0.26069711
-0.26003145
-0.25927268
-0.25839233
-0.25734116
-0.25604128
-0.25438226
-0.25223137
-0.24946197
-0.24597944
-0.24175235
-0.2368202
-0.23141389
-0.22547107
-0.21855813
-0.21152778
-0.20441022
-0.1970094
-0.18958845
-0.18222162
-0.1750074
-0.16801799
-0.16130921
-0.15490306
-0.14880967
-0.14298406
-0.1374066
-0.13195331
-0.12663036
-0.12119848
-0.11581124
-0.10999372
-0.1043089