/*--------------------------------*- C++ -*----------------------------------*\
  =========                 |
  \\      /  F ield         | OpenFOAM: The Open Source CFD Toolbox
   \\    /   O peration     | Website:  https://openfoam.org
    \\  /    A nd           | Version:  13
     \\/     M anipulation  |
\*---------------------------------------------------------------------------*/
FoamFile
{
    format      ascii;
    class       volScalarField;
    location    "0.0045";
    object      CrankNicolson:ddt0(rho,K);
}
// * * * * * * * * * * * * * * * * * * * * * * * * * * * * * * * * * * * * * //

dimensions      [1 -1 -3 0 0 0 0];

internalField   nonuniform List<scalar> 
1000
(
1.55034e-28
8.22116e-21
6.90652e-21
6.66643e-21
4.04147e-24
-3.10936e-21
3.61166e-21
1.95187e-23
-1.44445e-20
-9.33949e-21
6.69657e-24
5.44239e-21
1.13015e-23
-1.53874e-20
-1.62359e-20
-2.729e-21
1.52834e-20
2.04028e-20
5.66343e-21
-4.37394e-24
2.942e-21
-5.45268e-21
1.53276e-24
-8.597e-21
1.7452e-24
1.13028e-20
6.66008e-24
-7.74797e-21
-4.55503e-21
2.38464e-24
-5.43425e-21
5.95547e-21
-2.73251e-21
-2.57898e-21
8.45175e-21
1.69704e-24
-2.13312e-21
-2.68677e-21
-2.61316e-21
-4.91943e-21
-4.9377e-21
1.06219e-20
7.45758e-21
-7.40253e-21
4.31732e-24
8.25482e-21
1.31474e-20
2.99197e-21
-6.10847e-21
5.09588e-23
2.26679e-23
7.46717e-21
2.08477e-24
-1.05523e-20
2.72934e-21
-7.48271e-21
-5.25952e-21
5.29639e-21
5.45187e-21
2.41787e-21
5.40714e-21
5.67068e-21
3.48656e-21
3.09106e-21
6.62835e-21
9.49936e-21
1.37447e-20
-1.6913e-24
1.10428e-20
1.11058e-20
-3.46946e-21
-1.19119e-20
4.58613e-21
6.13272e-21
-5.06701e-21
-3.14906e-21
4.60446e-21
6.98555e-21
-3.34897e-21
-5.84952e-21
-3.80016e-21
-2.96527e-23
5.49012e-24
2.15446e-24
3.8545e-24
3.81439e-24
2.42105e-21
7.15387e-21
4.61854e-21
2.69855e-21
-4.68978e-21
-7.0014e-21
2.57551e-23
5.77564e-24
1.06161e-23
1.92981e-21
6.67969e-21
-4.62918e-21
-8.883e-21
3.87708e-21
3.91523e-21
-5.87914e-21
-9.91079e-24
1.94288e-21
-4.42878e-21
-2.46999e-21
2.23589e-21
-4.04288e-21
2.14991e-21
4.44831e-21
2.00851e-21
2.24977e-21
7.74066e-21
5.82026e-21
1.1266e-20
1.59326e-20
1.54306e-20
1.23796e-20
6.35702e-21
6.30974e-21
5.16851e-24
-7.84175e-24
-1.1977e-21
-6.05635e-21
2.00951e-23
-8.35501e-21
2.19366e-21
4.31514e-21
3.05239e-23
1.83975e-21
3.59859e-21
3.09091e-21
3.39676e-21
-7.99311e-24
4.28657e-21
7.88121e-21
3.45047e-21
-1.89753e-21
-4.87502e-22
1.12055e-21
4.43119e-22
3.45336e-22
4.25677e-23
4.7584e-22
-3.59674e-22
-6.2604e-22
-2.26183e-21
-9.01311e-22
5.73569e-22
4.32097e-22
2.71101e-23
2.42295e-22
1.62291e-22
1.38993e-23
1.06703e-24
7.44087e-23
-2.20058e-22
7.12378e-23
-5.18072e-23
-1.19781e-21
-3.74722e-21
-2.82784e-21
-7.71154e-22
5.93931e-22
9.44886e-22
-9.10036e-22
-1.2164e-21
-1.93089e-21
1.29355e-21
1.07969e-21
1.31293e-21
3.07281e-21
4.01602e-21
1.56026e-24
-1.60069e-22
-9.63384e-23
2.33242e-21
1.66181e-21
-1.01651e-23
-4.81412e-22
-1.57999e-21
-1.94709e-21
-2.11619e-22
3.40902e-22
4.22602e-22
-3.52675e-22
3.57873e-24
5.0906e-24
1.51192e-22
-3.0185e-22
8.72117e-24
-7.47267e-23
6.38849e-22
4.56578e-22
-3.45997e-22
-6.13763e-22
9.17911e-22
-5.10131e-21
-4.90686e-21
-4.53748e-21
-1.18397e-21
-7.36467e-22
-2.72703e-21
-1.34285e-21
4.62661e-23
1.15079e-21
3.48212e-21
2.2659e-21
-2.11032e-21
-8.34679e-22
8.72851e-22
2.31343e-21
1.50483e-21
4.03242e-22
1.57576e-21
6.54242e-22
-5.82135e-22
-1.34073e-21
-2.21921e-21
-7.74311e-22
-5.08421e-22
-9.62245e-23
1.44692e-22
1.51479e-21
5.48439e-24
-3.49745e-21
-1.32364e-21
-1.49213e-21
-3.19233e-23
-9.94772e-22
-1.37151e-21
-2.5172e-24
-4.324e-22
1.10235e-21
-9.28156e-23
1.11841e-22
3.53845e-21
4.05221e-21
1.00512e-21
9.23928e-22
1.8152e-21
7.2183e-22
4.01213e-22
-2.61705e-21
-3.8412e-21
-2.63356e-21
-4.90102e-21
-7.51813e-21
-6.21157e-21
-2.1742e-21
-9.91623e-21
-2.39215e-21
5.44591e-21
-4.45242e-21
-2.32211e-21
-4.83526e-24
2.0374e-21
4.15495e-21
-4.73534e-21
-2.3588e-21
-4.65647e-21
6.13733e-21
1.0833e-20
7.42248e-21
1.10141e-20
5.66165e-21
3.58901e-24
-9.74832e-22
4.748e-24
-1.04716e-21
-2.51376e-21
1.26433e-21
6.92464e-21
1.38319e-20
3.13197e-20
9.88305e-20
4.11071e-19
1.65936e-18
7.1858e-18
3.27143e-17
1.48789e-16
6.66073e-16
2.96536e-15
1.29915e-14
5.60903e-14
2.38261e-13
9.95927e-13
4.09423e-12
1.65489e-11
6.57462e-11
2.56662e-10
9.84267e-10
3.70679e-09
1.3705e-08
4.97292e-08
1.7703e-07
6.1806e-07
2.11543e-06
7.09545e-06
2.33128e-05
7.49984e-05
0.000236131
0.000727253
0.00218992
0.00644377
0.018517
0.051934
0.142068
0.378791
0.98363
2.48568
6.10756
14.5781
33.7694
75.8394
164.95
347.076
705.725
1385.22
2622.03
4781.91
8396.42
14187.3
23063.6
36077.6
54333.1
78853
110430
149496
196036
249597
309408
374530
443975
516780
592068
669073
747149
825762
904478
982952
1.06091e+06
1.13812e+06
1.21443e+06
1.28968e+06
1.36378e+06
1.43662e+06
1.50814e+06
1.57828e+06
1.64698e+06
1.7142e+06
1.77989e+06
1.84403e+06
1.90658e+06
1.96751e+06
2.02679e+06
2.0844e+06
2.14032e+06
2.19452e+06
2.24699e+06
2.29772e+06
2.34668e+06
2.39387e+06
2.43929e+06
2.48291e+06
2.52475e+06
2.5648e+06
2.60307e+06
2.63955e+06
2.67426e+06
2.70721e+06
2.73841e+06
2.76786e+06
2.7956e+06
2.82163e+06
2.84597e+06
2.86865e+06
2.88969e+06
2.9091e+06
2.92692e+06
2.94317e+06
2.95787e+06
2.97105e+06
2.98273e+06
2.99295e+06
3.00172e+06
3.00908e+06
3.01506e+06
3.01967e+06
3.02294e+06
3.02491e+06
3.02561e+06
3.02504e+06
3.02325e+06
3.02026e+06
3.0161e+06
3.01079e+06
3.00436e+06
2.99683e+06
2.98822e+06
2.97858e+06
2.96791e+06
2.95624e+06
2.94361e+06
2.93002e+06
2.91551e+06
2.90011e+06
2.88382e+06
2.86668e+06
2.84871e+06
2.82994e+06
2.81037e+06
2.79005e+06
2.76898e+06
2.7472e+06
2.72472e+06
2.70156e+06
2.67775e+06
2.6533e+06
2.62824e+06
2.60258e+06
2.57636e+06
2.54958e+06
2.52226e+06
2.49444e+06
2.46611e+06
2.43731e+06
2.40806e+06
2.37836e+06
2.34825e+06
2.31773e+06
2.28683e+06
2.25556e+06
2.22394e+06
2.19199e+06
2.15973e+06
2.12716e+06
2.09432e+06
2.0612e+06
2.02784e+06
1.99424e+06
1.96043e+06
1.92641e+06
1.8922e+06
1.85782e+06
1.82329e+06
1.78861e+06
1.7538e+06
1.71887e+06
1.68385e+06
1.64873e+06
1.61354e+06
1.5783e+06
1.543e+06
1.50767e+06
1.47232e+06
1.43696e+06
1.40161e+06
1.36626e+06
1.33095e+06
1.29568e+06
1.26045e+06
1.22529e+06
1.1902e+06
1.1552e+06
1.12029e+06
1.08549e+06
1.0508e+06
1.01624e+06
981823
947549
913432
879481
845706
812117
778722
745531
712552
679793
647264
614971
582925
551131
519600
488337
457350
426647
396235
366122
336316
306826
277660
248829
220346
192225
164485
137153
110262
83857.4
58002.6
32783.4
8318.24
-15230.7
-37641.6
-58614.9
-77750.5
-94525.4
-108274
-118180
-123304
-122651
-115325
-100771
-79097
-51406.1
-20006.7
11558.7
38922.8
57709.2
64586.2
58182.7
39493.7
11632
-20936
-53329.4
-81096.2
-100583
-109187
-105377
-88660.2
-59580.7
-19798
27748.2
78689.7
127262
166731
190265
192060
169090
122348
57288.8
-17001.4
-89639.6
-150135
-190252
-204992
-192736
-155274
-97349.2
-26173.8
49197.1
118698
172368
201881
201872
171504
115218
42340.9
-34620.8
-102545
-150293
-170704
-161333
-124790
-68040
-1233.58
63946.5
116188
146527
149954
126523
81569.5
24692.2
-32298.2
-77979.5
-103763
-105491
-84079
-45125.1
2407.19
48142
82509.8
98794.7
94493.9
71862.3
37290.3
-326.926
-31831.2
-50045.4
-51397
-36600.1
-10271.4
20411.6
47635.2
64974.8
68983.1
59961.4
41717.8
20354.5
2455.42
-6792.26
-4973.49
7037.47
25541.4
45292.6
61184.8
69820.3
70477.9
65197.4
57948.4
53187.9
54339.5
62817
78116.4
99292.6
127815
171450
248505
391462
648780
1.08342e+06
1.76663e+06
2.76599e+06
4.12813e+06
5.85876e+06
7.90535e+06
1.0149e+07
1.24109e+07
1.44754e+07
1.61242e+07
1.71753e+07
1.75151e+07
1.71145e+07
1.60276e+07
1.43731e+07
1.23092e+07
1.00107e+07
7.65066e+06
5.38933e+06
3.36445e+06
1.68209e+06
407619
-440934
-893722
-1.02174e+06
-921552
-695506
-433165
-198771
-27123.2
73098.1
111474
106794
79333.3
45756.3
16832.8
-2572.31
-12116.5
-14081
-11628
-7589.43
-3875.05
-1392.13
-271.897
-203.113
-730.191
-1448.54
-2090.79
-2532.31
-2754.29
-2796.16
-2716.76
-2570.82
-2399.72
-2231.07
-2082.01
-1962.46
-1876.96
-1825.38
-1803.25
-1802.7
-1814.23
-1828.84
-1839.94
-1844.42
-1842.5
-1836.56
-1829.64
-1824.1
-1821.15
-1821.14
-1824.43
-1832.23
-1846.91
-1871.49
-1908.56
-1959.07
-2021.51
-2092.08
-2165.79
-2238.26
-2307.2
-2372.92
-2438.1
-2506.17
-2579.48
-2659.18
-2744.28
-2828.99
-2909.52
-2996.66
-3096.92
-3190.11
-3289.65
-3452.88
-3591.19
-3562.55
-3647.13
-3974.22
-3591.58
-2735.41
-3873.68
-4584.38
456.521
960.456
-10052.8
2363.71
34023.6
-9727.57
-46426.1
136881
157935
-309913
69447.6
1.2913e+06
-408766
-2.3116e+06
4.47583e+06
5.9092e+06
-1.31393e+07
-1.31319e+06
4.95031e+07
-1.39142e+07
-1.03348e+08
2.49456e+08
3.77772e+08
7.10203e+07
3.30175e+06
99629.7
2779.15
75.3229
2.05733
0.0562935
0.00154068
4.21673e-05
1.15409e-06
3.15866e-08
8.64498e-10
2.36598e-11
6.474e-13
1.76948e-14
4.79685e-16
1.23737e-17
2.14761e-19
-1.8197e-20
-3.68177e-21
4.79263e-22
-3.67889e-25
2.42786e-24
7.70265e-25
8.51697e-22
-8.80164e-22
2.88474e-24
2.27736e-21
-9.69853e-22
-9.21896e-22
4.42096e-25
-4.43899e-22
-1.45881e-21
4.08709e-22
8.17941e-22
3.44307e-22
-6.91859e-22
-1.39464e-21
-1.71147e-21
1.91931e-25
7.51412e-22
1.15501e-21
3.82479e-22
-3.32831e-22
-2.99298e-22
-6.86265e-22
1.38533e-21
1.1842e-21
5.91449e-22
-6.62575e-22
-3.14411e-22
1.98475e-21
2.17877e-21
1.07997e-21
3.6488e-22
-8.24752e-22
-7.85858e-22
4.04943e-22
3.69436e-22
3.83142e-22
1.26166e-21
-1.53739e-24
-2.3722e-21
7.98986e-25
3.53847e-21
3.88211e-21
2.7481e-21
1.77345e-21
1.50715e-21
1.92199e-21
1.34152e-21
5.48445e-22
9.07447e-22
8.29841e-22
1.63443e-22
-2.27013e-25
-3.00048e-25
7.74981e-23
-1.92412e-22
-7.12672e-26
1.78204e-22
1.36413e-22
-3.12654e-22
-4.28403e-22
-3.4647e-22
-7.34873e-23
-2.81877e-22
-4.86807e-22
-2.08338e-25
4.0823e-25
4.95162e-25
3.05583e-22
1.05211e-21
3.95143e-22
-2.69093e-22
-3.10593e-25
6.8355e-22
1.45024e-22
-1.34136e-22
4.34493e-25
1.21247e-22
1.0889e-23
-5.71888e-23
8.98584e-26
1.6045e-23
8.83298e-23
2.49175e-22
-5.48286e-23
-8.42828e-23
-2.57124e-23
5.32696e-23
1.34664e-22
-3.12137e-22
-3.63416e-22
-3.35584e-22
-4.10451e-22
-8.77381e-22
-6.3077e-22
1.37386e-24
1.37498e-21
1.79288e-21
-1.72164e-24
-5.51446e-22
-6.11014e-22
-4.16408e-22
6.86276e-22
1.03172e-21
1.14776e-21
4.54872e-22
4.90653e-22
-5.77077e-23
-6.1774e-22
-4.43242e-22
-1.81538e-22
1.23363e-22
-3.01274e-22
-1.57737e-22
2.41946e-22
3.35676e-26
-1.15884e-22
1.22417e-22
-3.90327e-22
-7.91779e-22
5.84867e-25
7.6312e-22
9.7716e-22
3.40617e-22
-2.77604e-22
-1.24124e-22
1.31048e-22
-2.74698e-22
3.48271e-25
1.91614e-22
3.03146e-22
1.99366e-22
-5.95949e-22
2.42515e-22
2.99024e-22
9.40954e-23
1.28352e-22
-1.3221e-22
-8.01022e-22
-3.87839e-22
2.61009e-22
-2.23635e-24
2.99519e-22
6.06518e-22
-3.15761e-22
-2.74917e-21
-1.20209e-21
-1.26029e-21
-8.28544e-22
1.63902e-21
1.94689e-21
8.66484e-22
1.85901e-21
4.17155e-22
1.99489e-22
-4.63669e-24
-1.46353e-24
-3.98802e-25
-3.63937e-23
2.13973e-22
9.75829e-23
-2.39804e-22
-1.75463e-22
3.60727e-22
2.58412e-22
1.40677e-24
-1.52943e-22
-4.77721e-22
-9.11706e-22
-2.11813e-22
-6.17922e-22
-7.74973e-22
5.2403e-22
-1.2347e-24
4.94815e-22
1.19096e-21
8.1906e-22
6.5781e-22
1.70195e-22
-5.9235e-22
-5.70276e-25
6.13986e-22
4.08498e-22
6.59914e-22
3.10349e-25
1.34209e-22
-1.16232e-22
-5.12604e-22
-1.0023e-21
-1.58553e-21
-4.33656e-22
-2.98335e-22
-1.64355e-21
-1.57284e-21
-1.06389e-21
-3.10964e-21
-8.60934e-22
4.79071e-22
-9.46278e-22
-2.32357e-21
-4.76709e-21
-4.15923e-21
2.65231e-21
2.79564e-21
-1.90117e-21
-1.61607e-21
5.94335e-22
1.41634e-21
3.65427e-21
4.95766e-21
2.86525e-21
1.05431e-21
1.63649e-21
1.01689e-21
1.03477e-25
-4.769e-22
-2.11985e-24
-2.09952e-22
-2.94535e-22
4.38244e-22
8.82552e-22
1.14317e-21
6.86862e-22
5.28466e-22
8.39314e-22
-3.38763e-22
-4.25601e-22
6.00518e-24
-5.60551e-22
-9.01096e-22
-2.97796e-22
)
;

boundaryField
{
    sides
    {
        type            calculated;
        value           nonuniform List<scalar> 2(-2.97796e-22 1.55034e-28);
    }
    empty
    {
        type            empty;
    }
}


// ************************************************************************* //
