/*--------------------------------*- C++ -*----------------------------------*\
  =========                 |
  \\      /  F ield         | OpenFOAM: The Open Source CFD Toolbox
   \\    /   O peration     | Website:  https://openfoam.org
    \\  /    A nd           | Version:  13
     \\/     M anipulation  |
\*---------------------------------------------------------------------------*/
FoamFile
{
    format      ascii;
    class       volVectorField;
    location    "0.0045";
    object      CrankNicolson:ddtCorrDdt0(rho,U);
}
// * * * * * * * * * * * * * * * * * * * * * * * * * * * * * * * * * * * * * //

dimensions      [1 -2 -2 0 0 0 0];

internalField   nonuniform List<vector> 
1000
(
(1.24061e-22 0 0)
(-4.36557e-09 0 0)
(-2.91038e-09 0 0)
(-2.91038e-09 0 0)
(-5.68687e-23 0 0)
(1.45519e-09 0 0)
(-1.45519e-09 0 0)
(-1.10842e-22 0 0)
(5.82077e-09 0 0)
(4.36557e-09 0 0)
(4.16692e-23 0 0)
(-2.91038e-09 0 0)
(-1.35244e-22 0 0)
(7.27596e-09 0 0)
(7.27596e-09 0 0)
(1.45519e-09 0 0)
(-7.27596e-09 0 0)
(-1.01863e-08 0 0)
(-2.91038e-09 0 0)
(-1.03604e-22 0 0)
(-1.45519e-09 0 0)
(2.91038e-09 0 0)
(8.24014e-23 0 0)
(4.36557e-09 0 0)
(1.35826e-22 0 0)
(-5.82077e-09 0 0)
(5.32401e-23 0 0)
(4.36557e-09 0 0)
(2.91038e-09 0 0)
(-5.58347e-23 0 0)
(2.91038e-09 0 0)
(-2.91038e-09 0 0)
(1.45519e-09 0 0)
(1.45519e-09 0 0)
(-4.36557e-09 0 0)
(-2.53324e-23 0 0)
(1.45519e-09 0 0)
(1.45519e-09 0 0)
(1.45519e-09 0 0)
(2.91038e-09 0 0)
(2.91038e-09 0 0)
(-5.82077e-09 0 0)
(-4.36557e-09 0 0)
(4.36557e-09 0 0)
(-1.18274e-22 0 0)
(-4.36557e-09 0 0)
(-5.82077e-09 0 0)
(-1.45519e-09 0 0)
(2.91038e-09 0 0)
(-1.87356e-22 0 0)
(-1.15805e-23 0 0)
(-4.36557e-09 0 0)
(6.31565e-23 0 0)
(5.82077e-09 0 0)
(-1.45519e-09 0 0)
(4.36557e-09 0 0)
(2.91038e-09 0 0)
(-2.91038e-09 0 0)
(-2.91038e-09 0 0)
(-1.45519e-09 0 0)
(-2.91038e-09 0 0)
(-2.91038e-09 0 0)
(-1.45519e-09 0 0)
(-1.45519e-09 0 0)
(-2.91038e-09 0 0)
(-4.36557e-09 0 0)
(-5.82077e-09 0 0)
(-4.10488e-23 0 0)
(-4.36557e-09 0 0)
(-4.36557e-09 0 0)
(1.45519e-09 0 0)
(5.82077e-09 0 0)
(-2.91038e-09 0 0)
(-4.36557e-09 0 0)
(4.36557e-09 0 0)
(2.91038e-09 0 0)
(-4.36557e-09 0 0)
(-5.82077e-09 0 0)
(2.91038e-09 0 0)
(4.36557e-09 0 0)
(2.91038e-09 0 0)
(-2.5229e-23 0 0)
(-5.97638e-23 0 0)
(-1.06086e-22 0 0)
(3.62925e-23 0 0)
(-1.03398e-23 0 0)
(-1.45519e-09 0 0)
(-4.36557e-09 0 0)
(-2.91038e-09 0 0)
(-1.45519e-09 0 0)
(2.91038e-09 0 0)
(4.36557e-09 0 0)
(6.53473e-23 0 0)
(-5.66037e-23 0 0)
(7.30924e-23 0 0)
(-1.45519e-09 0 0)
(-4.36557e-09 0 0)
(2.91038e-09 0 0)
(5.82077e-09 0 0)
(-2.91038e-09 0 0)
(-2.91038e-09 0 0)
(4.36557e-09 0 0)
(3.38078e-23 0 0)
(-1.45519e-09 0 0)
(2.91038e-09 0 0)
(1.45519e-09 0 0)
(-1.45519e-09 0 0)
(2.91038e-09 0 0)
(-1.45519e-09 0 0)
(-2.91038e-09 0 0)
(-1.45519e-09 0 0)
(-1.45519e-09 0 0)
(-5.82077e-09 0 0)
(-4.36557e-09 0 0)
(-8.73115e-09 0 0)
(-1.45519e-08 0 0)
(-1.45519e-08 0 0)
(-1.30967e-08 0 0)
(-5.82077e-09 0 0)
(-5.82077e-09 0 0)
(-7.81686e-23 0 0)
(9.7281e-23 0 0)
(1.45519e-09 0 0)
(4.36557e-09 0 0)
(1.00709e-22 0 0)
(5.82077e-09 0 0)
(-1.45519e-09 0 0)
(-2.91038e-09 0 0)
(-2.06795e-24 0 0)
(-1.45519e-09 0 0)
(-2.91038e-09 0 0)
(-2.91038e-09 0 0)
(-2.91038e-09 0 0)
(3.62893e-23 0 0)
(-4.36557e-09 0 0)
(-1.01863e-08 0 0)
(-7.27596e-09 0 0)
(5.82077e-09 0 0)
(4.36557e-09 0 0)
(-7.27596e-09 0 0)
(-4.36557e-09 0 0)
(-1.45519e-09 0 0)
(-1.45519e-09 0 0)
(-2.91038e-09 0 0)
(1.45519e-09 0 0)
(1.45519e-09 0 0)
(5.82077e-09 0 0)
(2.91038e-09 0 0)
(-2.91038e-09 0 0)
(-1.45519e-09 0 0)
(7.85822e-24 0 0)
(-1.45519e-09 0 0)
(1.45519e-09 0 0)
(1.24077e-24 0 0)
(-5.16988e-25 0 0)
(1.45519e-09 0 0)
(1.45519e-09 0 0)
(4.36557e-09 0 0)
(2.91038e-09 0 0)
(4.36557e-09 0 0)
(5.82077e-09 0 0)
(5.82077e-09 0 0)
(1.45519e-09 0 0)
(-1.45519e-09 0 0)
(-1.45519e-09 0 0)
(1.45519e-09 0 0)
(1.45519e-09 0 0)
(2.91038e-09 0 0)
(-1.45519e-09 0 0)
(-2.91038e-09 0 0)
(-2.91038e-09 0 0)
(-8.73115e-09 0 0)
(-1.45519e-08 0 0)
(-1.30967e-08 0 0)
(-8.73115e-09 0 0)
(-8.73115e-09 0 0)
(-7.27596e-09 0 0)
(-4.36557e-09 0 0)
(5.16988e-25 0 0)
(1.45519e-09 0 0)
(4.36557e-09 0 0)
(5.82077e-09 0 0)
(1.45519e-09 0 0)
(-2.91038e-09 0 0)
(-1.45519e-09 0 0)
(1.45519e-09 0 0)
(-3.10193e-25 0 0)
(6.20385e-25 0 0)
(2.91038e-09 0 0)
(1.45519e-09 0 0)
(1.45519e-09 0 0)
(1.45519e-09 0 0)
(-4.36557e-09 0 0)
(-1.45519e-09 0 0)
(7.27596e-09 0 0)
(1.45519e-09 0 0)
(-2.91038e-09 0 0)
(8.73115e-09 0 0)
(8.73115e-09 0 0)
(5.82077e-09 0 0)
(2.91038e-09 0 0)
(1.45519e-09 0 0)
(5.82077e-09 0 0)
(5.82077e-09 0 0)
(1.45519e-09 0 0)
(7.27596e-09 0 0)
(7.27596e-09 0 0)
(4.36557e-09 0 0)
(-5.82077e-09 0 0)
(-5.82077e-09 0 0)
(-7.27596e-09 0 0)
(-8.73115e-09 0 0)
(-4.36557e-09 0 0)
(-1.45519e-09 0 0)
(-4.36557e-09 0 0)
(-2.91038e-09 0 0)
(1.45519e-09 0 0)
(5.82077e-09 0 0)
(5.82077e-09 0 0)
(5.82077e-09 0 0)
(4.36557e-09 0 0)
(8.73115e-09 0 0)
(7.27596e-09 0 0)
(4.36557e-09 0 0)
(1.55096e-23 0 0)
(-7.27596e-09 0 0)
(-8.73115e-09 0 0)
(-5.82077e-09 0 0)
(-4.36557e-09 0 0)
(-5.82077e-09 0 0)
(-5.82077e-09 0 0)
(-2.45287e-23 0 0)
(-1.45519e-09 0 0)
(4.36557e-09 0 0)
(8.73115e-09 0 0)
(8.73115e-09 0 0)
(1.16415e-08 0 0)
(1.30967e-08 0 0)
(7.27596e-09 0 0)
(7.27596e-09 0 0)
(7.27596e-09 0 0)
(4.36557e-09 0 0)
(1.45519e-09 0 0)
(-4.36557e-09 0 0)
(-4.36557e-09 0 0)
(-4.36557e-09 0 0)
(-5.82077e-09 0 0)
(-8.73115e-09 0 0)
(-4.36557e-09 0 0)
(-1.45519e-09 0 0)
(-5.82077e-09 0 0)
(-1.45519e-09 0 0)
(2.91038e-09 0 0)
(-2.91038e-09 0 0)
(-1.45519e-09 0 0)
(2.40916e-23 0 0)
(1.45519e-09 0 0)
(2.91038e-09 0 0)
(-2.91038e-09 0 0)
(-1.45519e-09 0 0)
(-2.91038e-09 0 0)
(4.36557e-09 0 0)
(7.27596e-09 0 0)
(5.82077e-09 0 0)
(1.16415e-08 0 0)
(7.27596e-09 0 0)
(2.4712e-23 0 0)
(-1.45519e-09 0 0)
(-1.38553e-23 0 0)
(-1.45519e-09 0 0)
(-2.91038e-09 0 0)
(1.45519e-09 0 0)
(8.73115e-09 0 0)
(1.45519e-08 0 0)
(2.18279e-08 0 0)
(4.36557e-08 0 0)
(1.04774e-07 0 0)
(2.18279e-07 0 0)
(4.68572e-07 0 0)
(1.01572e-06 0 0)
(2.16824e-06 0 0)
(4.58094e-06 0 0)
(9.61882e-06 0 0)
(2.00205e-05 0 0)
(4.1342e-05 0 0)
(8.4666e-05 0 0)
(0.000171957 0 0)
(0.000346293 0 0)
(0.000691367 0 0)
(0.00136821 0 0)
(0.00268356 0 0)
(0.00521575 0 0)
(0.0100439 0 0)
(0.01916 0 0)
(0.0362008 0 0)
(0.0677315 0 0)
(0.125467 0 0)
(0.230061 0 0)
(0.417487 0 0)
(0.749597 0 0)
(1.33136 0 0)
(2.33847 0 0)
(4.06093 0 0)
(6.97025 0 0)
(11.8214 0 0)
(19.8037 0 0)
(32.7588 0 0)
(53.4871 0 0)
(86.166 0 0)
(136.899 0 0)
(214.405 0 0)
(330.847 0 0)
(502.732 0 0)
(751.819 0 0)
(1105.84 0 0)
(1598.78 0 0)
(2270.47 0 0)
(3165.02 0 0)
(4327.9 0 0)
(5801.48 0 0)
(7619.21 0 0)
(9799 0 0)
(12336.9 0 0)
(15202.5 0 0)
(18337.2 0 0)
(21657 0 0)
(25059 0 0)
(28431.2 0 0)
(31664 0 0)
(34661 0 0)
(37349.3 0 0)
(39689.2 0 0)
(41672.7 0 0)
(43313.3 0 0)
(44637.8 0 0)
(45679.2 0 0)
(46472.8 0 0)
(47052.7 0 0)
(47450.4 0 0)
(47693.9 0 0)
(47807.7 0 0)
(47812.5 0 0)
(47726 0 0)
(47562.9 0 0)
(47335.6 0 0)
(47054.2 0 0)
(46727.4 0 0)
(46362.1 0 0)
(45964.3 0 0)
(45538.8 0 0)
(45089.7 0 0)
(44620.4 0 0)
(44133.8 0 0)
(43632.2 0 0)
(43117.8 0 0)
(42592.3 0 0)
(42057.2 0 0)
(41513.8 0 0)
(40963.3 0 0)
(40406.8 0 0)
(39845.1 0 0)
(39279 0 0)
(38709.5 0 0)
(38137 0 0)
(37562.4 0 0)
(36986.1 0 0)
(36408.9 0 0)
(35831.1 0 0)
(35253.4 0 0)
(34676.1 0 0)
(34099.8 0 0)
(33524.8 0 0)
(32951.6 0 0)
(32380.5 0 0)
(31811.9 0 0)
(31246.1 0 0)
(30683.5 0 0)
(30124.3 0 0)
(29568.8 0 0)
(29017.2 0 0)
(28469.8 0 0)
(27926.7 0 0)
(27388.3 0 0)
(26854.6 0 0)
(26325.8 0 0)
(25802.1 0 0)
(25283.6 0 0)
(24770.4 0 0)
(24262.6 0 0)
(23760.3 0 0)
(23263.6 0 0)
(22772.6 0 0)
(22287.4 0 0)
(21807.9 0 0)
(21334.3 0 0)
(20866.5 0 0)
(20404.7 0 0)
(19948.8 0 0)
(19498.9 0 0)
(19054.9 0 0)
(18616.9 0 0)
(18185 0 0)
(17759 0 0)
(17339 0 0)
(16925.1 0 0)
(16517.1 0 0)
(16115.1 0 0)
(15719 0 0)
(15328.9 0 0)
(14944.7 0 0)
(14566.4 0 0)
(14194 0 0)
(13827.5 0 0)
(13466.7 0 0)
(13111.8 0 0)
(12762.7 0 0)
(12419.3 0 0)
(12081.6 0 0)
(11749.6 0 0)
(11423.3 0 0)
(11102.6 0 0)
(10787.4 0 0)
(10477.8 0 0)
(10173.7 0 0)
(9875.03 0 0)
(9581.82 0 0)
(9293.99 0 0)
(9011.53 0 0)
(8734.37 0 0)
(8462.49 0 0)
(8195.83 0 0)
(7934.38 0 0)
(7678.07 0 0)
(7426.87 0 0)
(7180.74 0 0)
(6939.63 0 0)
(6703.51 0 0)
(6472.33 0 0)
(6246.05 0 0)
(6024.63 0 0)
(5808.03 0 0)
(5596.19 0 0)
(5389.09 0 0)
(5186.67 0 0)
(4988.89 0 0)
(4795.72 0 0)
(4607.11 0 0)
(4423.01 0 0)
(4243.38 0 0)
(4068.18 0 0)
(3897.37 0 0)
(3730.91 0 0)
(3568.74 0 0)
(3410.84 0 0)
(3257.15 0 0)
(3107.63 0 0)
(2962.25 0 0)
(2820.95 0 0)
(2683.7 0 0)
(2550.45 0 0)
(2421.17 0 0)
(2295.81 0 0)
(2174.33 0 0)
(2056.68 0 0)
(1942.83 0 0)
(1832.73 0 0)
(1726.34 0 0)
(1623.62 0 0)
(1524.54 0 0)
(1429.04 0 0)
(1337.09 0 0)
(1248.64 0 0)
(1163.66 0 0)
(1082.1 0 0)
(1003.92 0 0)
(929.091 0 0)
(857.561 0 0)
(789.29 0 0)
(724.239 0 0)
(662.365 0 0)
(603.628 0 0)
(547.986 0 0)
(495.398 0 0)
(445.822 0 0)
(399.214 0 0)
(355.53 0 0)
(314.724 0 0)
(276.75 0 0)
(241.561 0 0)
(209.106 0 0)
(179.334 0 0)
(152.185 0 0)
(127.599 0 0)
(105.504 0 0)
(85.8223 0 0)
(68.4637 0 0)
(53.3237 0 0)
(40.2786 0 0)
(29.1804 0 0)
(19.8494 0 0)
(12.0674 0 0)
(5.57115 0 0)
(0.047187 0 0)
(-4.86776 0 0)
(-9.57735 0 0)
(-14.4993 0 0)
(-20.0127 0 0)
(-26.3688 0 0)
(-33.5579 0 0)
(-41.1407 0 0)
(-48.0785 0 0)
(-52.6396 0 0)
(-52.5062 0 0)
(-45.2055 0 0)
(-28.9371 0 0)
(-3.5945 0 0)
(28.0806 0 0)
(60.6181 0 0)
(86.8991 0 0)
(100.293 0 0)
(97.0189 0 0)
(77.5341 0 0)
(46.2481 0 0)
(9.78238 0 0)
(-25.2 0 0)
(-53.8005 0 0)
(-73.0231 0 0)
(-82.2404 0 0)
(-82.0797 0 0)
(-73.3838 0 0)
(-56.5301 0 0)
(-31.2476 0 0)
(2.93274 0 0)
(45.6566 0 0)
(94.4303 0 0)
(143.657 0 0)
(184.541 0 0)
(206.192 0 0)
(200.338 0 0)
(163.742 0 0)
(100.52 0 0)
(21.632 0 0)
(-58.326 0 0)
(-125.396 0 0)
(-169.77 0 0)
(-186.816 0 0)
(-176.341 0 0)
(-142.171 0 0)
(-89.2928 0 0)
(-23.1897 0 0)
(49.9907 0 0)
(122.764 0 0)
(185.803 0 0)
(228.878 0 0)
(241.948 0 0)
(219.918 0 0)
(164.597 0 0)
(85.3609 0 0)
(-2.67126 0 0)
(-82.5846 0 0)
(-139.929 0 0)
(-165.814 0 0)
(-157.013 0 0)
(-117.136 0 0)
(-53.9269 0 0)
(22.0772 0 0)
(98.7649 0 0)
(163.641 0 0)
(205.537 0 0)
(216.391 0 0)
(193.921 0 0)
(142.99 0 0)
(74.7596 0 0)
(4.25734 0 0)
(-53.3087 0 0)
(-86.2466 0 0)
(-88.5632 0 0)
(-61.0356 0 0)
(-10.5019 0 0)
(52.065 0 0)
(113.747 0 0)
(162.153 0 0)
(187.93 0 0)
(186.643 0 0)
(160.376 0 0)
(117.148 0 0)
(68.9258 0 0)
(28.5318 0 0)
(6.31921 0 0)
(7.74913 0 0)
(32.2083 0 0)
(73.5001 0 0)
(121.744 0 0)
(165.957 0 0)
(196.849 0 0)
(209.123 0 0)
(202.848 0 0)
(183.379 0 0)
(159.701 0 0)
(141.782 0 0)
(137.694 0 0)
(151.436 0 0)
(182.004 0 0)
(224.041 0 0)
(269.757 0 0)
(311.51 0 0)
(344.277 0 0)
(367.255 0 0)
(384.061 0 0)
(401.317 0 0)
(426.196 0 0)
(464.033 0 0)
(517.589 0 0)
(589.715 0 0)
(691.086 0 0)
(853.93 0 0)
(1151.5 0 0)
(1720.99 0 0)
(2785.15 0 0)
(4664.4 0 0)
(7769.29 0 0)
(12562.1 0 0)
(19480 0 0)
(28821.2 0 0)
(40611.7 0 0)
(54487.7 0 0)
(69639 0 0)
(84854.7 0 0)
(98679.7 0 0)
(109656 0 0)
(116583 0 0)
(118724 0 0)
(115905 0 0)
(108496 0 0)
(97294.4 0 0)
(83364.3 0 0)
(67882.6 0 0)
(52017.8 0 0)
(36842.8 0 0)
(23268.2 0 0)
(11984.8 0 0)
(3409.7 0 0)
(-2349.17 0 0)
(-5494.48 0 0)
(-6490.12 0 0)
(-5962.98 0 0)
(-4577.56 0 0)
(-2917.7 0 0)
(-1406.68 0 0)
(-279.639 0 0)
(396.76 0 0)
(675.417 0 0)
(671.512 0 0)
(512.881 0 0)
(306.639 0 0)
(123.609 0 0)
(-2.65638 0 0)
(-67.698 0 0)
(-84.3947 0 0)
(-71.9577 0 0)
(-48.1229 0 0)
(-25.1944 0 0)
(-9.31199 0 0)
(-1.70902 0 0)
(-0.717879 0 0)
(-3.62266 0 0)
(-7.91329 0 0)
(-11.8732 0 0)
(-14.6577 0 0)
(-16.0918 0 0)
(-16.3865 0 0)
(-15.8962 0 0)
(-14.9661 0 0)
(-13.8648 0 0)
(-12.7734 0 0)
(-11.8015 0 0)
(-11.0064 0 0)
(-10.408 0 0)
(-9.9974 0 0)
(-9.74315 0 0)
(-9.5992 0 0)
(-9.51465 0 0)
(-9.4445 0 0)
(-9.35812 0 0)
(-9.24301 0 0)
(-9.10293 0 0)
(-8.95162 0 0)
(-8.8051 0 0)
(-8.67555 0 0)
(-8.56905 0 0)
(-8.4875 0 0)
(-8.43282 0 0)
(-8.41103 0 0)
(-8.43352 0 0)
(-8.51459 0 0)
(-8.66611 0 0)
(-8.89149 0 0)
(-9.18186 0 0)
(-9.5164 0 0)
(-9.86773 0 0)
(-10.2102 0 0)
(-10.5269 0 0)
(-10.8141 0 0)
(-11.0806 0 0)
(-11.342 0 0)
(-11.612 0 0)
(-11.9029 0 0)
(-12.2222 0 0)
(-12.5554 0 0)
(-12.8924 0 0)
(-13.2825 0 0)
(-13.7471 0 0)
(-14.1809 0 0)
(-14.6397 0 0)
(-15.3909 0 0)
(-16.0257 0 0)
(-15.911 0 0)
(-16.3879 0 0)
(-17.9987 0 0)
(-16.2217 0 0)
(-12.3133 0 0)
(-17.7921 0 0)
(-20.7568 0 0)
(3.23723 0 0)
(4.10411 0 0)
(-49.4616 0 0)
(9.49702 0 0)
(155.112 0 0)
(-61.0545 0 0)
(-232.286 0 0)
(638.626 0 0)
(704.819 0 0)
(-1529.09 0 0)
(313.923 0 0)
(6008.59 0 0)
(-2284.72 0 0)
(-11121.4 0 0)
(21174.5 0 0)
(26905.5 0 0)
(-64033.2 0 0)
(-5694.02 0 0)
(233741 0 0)
(-78200.1 0 0)
(-510375 0 0)
(1.13241e+06 0 0)
(2.27181e+06 0 0)
(1.0185e+06 0 0)
(211703 0 0)
(35966 0 0)
(6016.51 0 0)
(988.172 0 0)
(163.229 0 0)
(26.9988 0 0)
(4.46651 0 0)
(0.738922 0 0)
(0.122245 0 0)
(0.0202238 0 0)
(0.00334576 0 0)
(0.00055351 0 0)
(9.15701e-05 0 0)
(1.51485e-05 0 0)
(2.50602e-06 0 0)
(4.14548e-07 0 0)
(6.91216e-08 0 0)
(1.20053e-08 0 0)
(1.45519e-09 0 0)
(-1.81899e-10 0 0)
(1.04472e-23 0 0)
(1.32349e-23 0 0)
(1.70606e-24 0 0)
(-3.63798e-10 0 0)
(3.63798e-10 0 0)
(-2.84343e-24 0 0)
(-9.09495e-10 0 0)
(3.63798e-10 0 0)
(3.63798e-10 0 0)
(1.52511e-23 0 0)
(1.81899e-10 0 0)
(5.45697e-10 0 0)
(-1.81899e-10 0 0)
(-3.63798e-10 0 0)
(-1.81899e-10 0 0)
(3.63798e-10 0 0)
(7.27596e-10 0 0)
(9.09495e-10 0 0)
(1.48e-23 0 0)
(-3.63798e-10 0 0)
(-5.45697e-10 0 0)
(-1.81899e-10 0 0)
(1.81899e-10 0 0)
(1.81899e-10 0 0)
(3.63798e-10 0 0)
(-9.09495e-10 0 0)
(-7.27596e-10 0 0)
(-3.63798e-10 0 0)
(3.63798e-10 0 0)
(1.81899e-10 0 0)
(-1.09139e-09 0 0)
(-1.09139e-09 0 0)
(-5.45697e-10 0 0)
(-1.81899e-10 0 0)
(3.63798e-10 0 0)
(3.63798e-10 0 0)
(-1.81899e-10 0 0)
(-1.81899e-10 0 0)
(-1.81899e-10 0 0)
(-5.45697e-10 0 0)
(-1.08438e-23 0 0)
(9.09495e-10 0 0)
(-1.74613e-23 0 0)
(-1.27329e-09 0 0)
(-1.63709e-09 0 0)
(-1.27329e-09 0 0)
(-9.09495e-10 0 0)
(-9.09495e-10 0 0)
(-1.09139e-09 0 0)
(-9.09495e-10 0 0)
(-7.27596e-10 0 0)
(-9.09495e-10 0 0)
(-1.09139e-09 0 0)
(-3.63798e-10 0 0)
(-1.69334e-24 0 0)
(3.82571e-24 0 0)
(-1.81899e-10 0 0)
(3.63798e-10 0 0)
(-7.93576e-24 0 0)
(-3.63798e-10 0 0)
(-3.63798e-10 0 0)
(7.27596e-10 0 0)
(9.09495e-10 0 0)
(5.45697e-10 0 0)
(1.81899e-10 0 0)
(3.63798e-10 0 0)
(7.27596e-10 0 0)
(-5.41464e-24 0 0)
(-7.03104e-24 0 0)
(5.51885e-24 0 0)
(-3.63798e-10 0 0)
(-7.27596e-10 0 0)
(-5.45697e-10 0 0)
(1.81899e-10 0 0)
(7.42423e-24 0 0)
(-7.27596e-10 0 0)
(-1.81899e-10 0 0)
(1.81899e-10 0 0)
(5.29913e-25 0 0)
(-3.63798e-10 0 0)
(1.81899e-10 0 0)
(1.81899e-10 0 0)
(8.00839e-25 0 0)
(-7.27596e-10 0 0)
(3.63798e-10 0 0)
(9.09495e-10 0 0)
(-1.81899e-10 0 0)
(-3.63798e-10 0 0)
(-7.27596e-10 0 0)
(-5.45697e-10 0 0)
(-1.81899e-10 0 0)
(3.63798e-10 0 0)
(3.63798e-10 0 0)
(3.63798e-10 0 0)
(3.63798e-10 0 0)
(1.09139e-09 0 0)
(5.45697e-10 0 0)
(4.57534e-24 0 0)
(-9.09495e-10 0 0)
(-1.09139e-09 0 0)
(4.91138e-24 0 0)
(3.63798e-10 0 0)
(3.63798e-10 0 0)
(3.63798e-10 0 0)
(-5.45697e-10 0 0)
(-1.45519e-09 0 0)
(-1.09139e-09 0 0)
(-9.09495e-10 0 0)
(-7.27596e-10 0 0)
(1.81899e-10 0 0)
(1.27329e-09 0 0)
(1.27329e-09 0 0)
(3.63798e-10 0 0)
(-1.81899e-10 0 0)
(7.27596e-10 0 0)
(3.63798e-10 0 0)
(-3.63798e-10 0 0)
(-6.72084e-25 0 0)
(1.81899e-10 0 0)
(-1.81899e-10 0 0)
(7.27596e-10 0 0)
(1.09139e-09 0 0)
(2.45569e-25 0 0)
(-1.09139e-09 0 0)
(-1.27329e-09 0 0)
(-5.45697e-10 0 0)
(3.63798e-10 0 0)
(1.81899e-10 0 0)
(-1.81899e-10 0 0)
(3.63798e-10 0 0)
(-2.40399e-24 0 0)
(-3.63798e-10 0 0)
(-5.45697e-10 0 0)
(-1.81899e-10 0 0)
(7.27596e-10 0 0)
(-3.63798e-10 0 0)
(-3.63798e-10 0 0)
(-1.81899e-10 0 0)
(-5.45697e-10 0 0)
(5.45697e-10 0 0)
(1.09139e-09 0 0)
(3.63798e-10 0 0)
(-1.81899e-10 0 0)
(-1.15805e-23 0 0)
(-1.81899e-10 0 0)
(-3.63798e-10 0 0)
(1.81899e-10 0 0)
(1.27329e-09 0 0)
(5.45697e-10 0 0)
(5.45697e-10 0 0)
(3.63798e-10 0 0)
(-7.27596e-10 0 0)
(-9.09495e-10 0 0)
(-5.45697e-10 0 0)
(-1.27329e-09 0 0)
(-5.45697e-10 0 0)
(-5.45697e-10 0 0)
(-3.63798e-10 0 0)
(-1.20336e-25 0 0)
(4.62399e-26 0 0)
(-7.27596e-10 0 0)
(-7.27596e-10 0 0)
(-1.81899e-10 0 0)
(3.63798e-10 0 0)
(3.63798e-10 0 0)
(-5.45697e-10 0 0)
(-3.63798e-10 0 0)
(-3.63184e-24 0 0)
(1.81899e-10 0 0)
(5.45697e-10 0 0)
(7.27596e-10 0 0)
(1.81899e-10 0 0)
(3.63798e-10 0 0)
(5.45697e-10 0 0)
(-3.63798e-10 0 0)
(4.36814e-24 0 0)
(-3.63798e-10 0 0)
(-9.09495e-10 0 0)
(-7.27596e-10 0 0)
(-5.45697e-10 0 0)
(-1.81899e-10 0 0)
(5.45697e-10 0 0)
(1.11152e-24 0 0)
(-7.27596e-10 0 0)
(-9.09495e-10 0 0)
(-9.09495e-10 0 0)
(-3.33457e-24 0 0)
(-1.81899e-10 0 0)
(1.81899e-10 0 0)
(5.45697e-10 0 0)
(1.09139e-09 0 0)
(1.27329e-09 0 0)
(3.63798e-10 0 0)
(1.81899e-10 0 0)
(9.09495e-10 0 0)
(7.27596e-10 0 0)
(5.45697e-10 0 0)
(1.27329e-09 0 0)
(3.63798e-10 0 0)
(-1.81899e-10 0 0)
(3.63798e-10 0 0)
(9.09495e-10 0 0)
(1.45519e-09 0 0)
(1.45519e-09 0 0)
(-7.27596e-10 0 0)
(-9.09495e-10 0 0)
(5.45697e-10 0 0)
(5.45697e-10 0 0)
(-1.81899e-10 0 0)
(-5.45697e-10 0 0)
(-1.27329e-09 0 0)
(-2.00089e-09 0 0)
(-1.27329e-09 0 0)
(-5.45697e-10 0 0)
(-9.09495e-10 0 0)
(-7.27596e-10 0 0)
(6.73013e-24 0 0)
(3.63798e-10 0 0)
(1.00405e-23 0 0)
(1.81899e-10 0 0)
(1.81899e-10 0 0)
(-3.63798e-10 0 0)
(-5.45697e-10 0 0)
(-1.09139e-09 0 0)
(-5.45697e-10 0 0)
(-5.45697e-10 0 0)
(-7.27596e-10 0 0)
(3.63798e-10 0 0)
(5.45697e-10 0 0)
(-8.3752e-24 0 0)
(5.45697e-10 0 0)
(9.09495e-10 0 0)
(3.63798e-10 0 0)
)
;

boundaryField
{
    sides
    {
        type            calculated;
        value           nonuniform List<vector> 2((3.63798e-10 0 0) (1.24061e-22 0 0));
    }
    empty
    {
        type            empty;
    }
}


// ************************************************************************* //
