/*--------------------------------*- C++ -*----------------------------------*\
  =========                 |
  \\      /  F ield         | OpenFOAM: The Open Source CFD Toolbox
   \\    /   O peration     | Website:  https://openfoam.org
    \\  /    A nd           | Version:  13
     \\/     M anipulation  |
\*---------------------------------------------------------------------------*/
FoamFile
{
    format      ascii;
    class       surfaceScalarField;
    location    "0.0045";
    object      CrankNicolson:ddtCorrDdt0(phi);
}
// * * * * * * * * * * * * * * * * * * * * * * * * * * * * * * * * * * * * * //

dimensions      [1 0 -2 0 0 0 0];

internalField   nonuniform List<scalar> 
999
(
-8.38499e-09
-2.47272e-08
1.04242e-08
-1.71118e-08
1.15239e-08
3.44808e-09
-1.69502e-08
1.96025e-08
3.18207e-08
-1.0386e-08
5.33068e-09
-2.00548e-08
4.67176e-09
6.07246e-08
8.18052e-09
-4.56442e-09
-4.97419e-08
-2.54965e-08
1.78183e-08
-1.10161e-08
5.96607e-09
1.13927e-08
-9.72108e-09
5.10179e-08
-5.16272e-08
-1.11068e-09
5.58763e-09
1.60648e-08
3.53121e-09
2.0516e-09
8.1942e-09
-2.53687e-08
3.40418e-08
-2.90578e-08
9.55094e-09
-7.47125e-09
-8.08147e-09
1.47731e-08
1.12551e-08
1.10085e-08
-1.15905e-09
-4.49009e-08
1.25437e-08
1.59201e-08
-7.48318e-09
-2.12613e-08
-2.3338e-08
1.91661e-08
-1.68846e-08
1.31511e-08
-2.70372e-08
-1.59222e-08
2.5196e-08
1.60694e-08
-1.31081e-08
4.92529e-08
-2.1799e-08
1.11567e-08
-3.38715e-08
1.65651e-08
-3.47684e-08
9.0403e-09
-6.70988e-09
-1.81825e-08
8.69747e-09
-5.50765e-08
1.61584e-08
-1.25334e-08
-2.52868e-08
-4.61458e-09
2.13198e-08
1.0976e-08
-3.2486e-08
-1.15688e-10
3.48973e-08
-6.77757e-09
-3.44166e-08
-7.90868e-09
2.93681e-08
6.17244e-09
1.54978e-08
-7.57286e-09
7.34332e-09
-2.32131e-09
-4.97039e-09
2.17476e-09
-1.80696e-08
-1.35047e-08
-1.30399e-08
-6.44798e-09
3.59705e-08
7.05442e-10
1.64415e-09
-7.3053e-09
1.82752e-08
-2.48905e-08
-1.06305e-08
3.67077e-08
7.96576e-09
-3.07392e-08
8.15282e-09
1.72671e-08
-9.49598e-09
-5.84621e-09
2.38702e-08
-1.99216e-08
1.89693e-08
-4.37774e-09
-1.58769e-08
-9.2644e-09
2.87727e-09
-1.98275e-08
-2.58865e-08
-5.34964e-09
-6.16152e-08
-5.2428e-08
-5.91322e-08
-3.41674e-08
-8.88167e-09
-3.30193e-08
2.4859e-08
-2.3467e-08
2.99198e-08
-5.75157e-09
1.64625e-08
2.48516e-08
-4.51133e-08
1.6956e-08
-1.57364e-08
-3.15644e-09
-2.13888e-08
-1.42436e-09
-6.37612e-09
8.06649e-09
-2.51965e-08
-4.74485e-08
-2.6782e-09
2.4176e-08
-6.01847e-09
-3.7012e-08
-8.16454e-09
-5.73792e-09
-1.46042e-08
-1.81509e-10
1.31243e-09
1.08961e-08
3.82841e-08
-1.63556e-08
-1.64832e-08
5.48963e-09
-2.06009e-09
-2.19101e-08
9.00164e-09
-7.46204e-09
2.7381e-09
1.41045e-09
2.13836e-08
8.58954e-09
2.39942e-08
1.40301e-08
3.76084e-08
4.29107e-09
9.89535e-09
-2.33918e-08
1.24726e-08
-7.77567e-09
1.99132e-08
1.27158e-08
-2.11318e-08
-1.5671e-08
-1.3491e-08
-4.97539e-08
-7.42741e-08
-4.10437e-08
-3.13406e-08
-4.11467e-08
-1.9811e-08
-1.45587e-08
1.15848e-08
1.39431e-09
2.68982e-08
3.97335e-09
8.07366e-09
-1.66058e-08
1.64281e-08
1.10015e-08
-8.46574e-09
1.47307e-08
1.166e-08
3.74023e-09
-2.81223e-10
-5.07953e-10
-1.3164e-08
-3.20101e-08
3.55324e-08
-2.09289e-08
2.27038e-09
6.65106e-08
8.99373e-09
3.90045e-08
-2.00064e-08
2.31426e-08
4.68967e-08
-3.30633e-08
2.27367e-08
3.76188e-08
2.67878e-08
-4.46775e-09
-4.25035e-08
-1.46253e-08
-4.02088e-08
-3.61798e-08
1.25586e-09
-1.58103e-08
-3.06928e-08
3.84294e-09
8.78837e-09
3.06363e-08
2.0137e-08
-2.45259e-08
6.89936e-08
-1.62865e-08
1.50698e-08
3.01678e-09
-8.05209e-09
-3.14588e-08
-2.25986e-08
-3.37621e-08
1.90311e-09
-3.98237e-08
-4.78089e-09
2.95134e-10
-9.75579e-09
2.10599e-08
4.98617e-08
3.92694e-08
6.21289e-08
4.41631e-08
1.46112e-08
2.90562e-08
1.78959e-08
2.90857e-08
-2.7415e-09
-2.93874e-08
-2.00386e-08
-1.99469e-09
-3.09864e-08
-3.03814e-08
-1.14288e-08
1.00069e-08
-5.99087e-08
4.04643e-08
-9.02713e-09
-2.40466e-08
1.68241e-08
-2.81305e-08
4.13859e-08
-1.65963e-08
-6.43764e-09
7.13374e-09
-2.02853e-08
4.93357e-08
6.87233e-09
3.94834e-08
5.14343e-08
7.48528e-09
8.44862e-09
-2.03623e-08
1.88468e-09
-3.74649e-09
-2.14493e-08
3.556e-08
3.62766e-08
7.6063e-08
9.65923e-08
2.78593e-07
5.9457e-07
1.23141e-06
2.68594e-06
5.80688e-06
1.229e-05
2.58969e-05
5.42329e-05
0.00011238
0.000231294
0.000471819
0.000954699
0.00191505
0.00380829
0.00750625
0.0146622
0.028379
0.0544178
0.103361
0.194433
0.362154
0.667795
1.21879
2.20118
3.93297
6.95056
12.1462
20.9825
35.8218
60.4188
100.644
165.513
268.621
430.061
678.903
1056.24
1618.69
2442.16
3625.23
5291.41
7589.24
10688.6
14772.2
20020.8
26592.7
34597.9
44071.6
54950.6
67059.2
80110.1
93722.3
107455
120850
133482
144992
155129
163805
171041
176928
181596
185186
187845
189707
190895
191515
191661
191409
190826
189966
188874
187590
186142
184559
182861
181066
179188
177242
175235
173179
171079
168942
166773
164577
162358
160120
157866
155598
153319
151032
148739
146442
144142
141843
139544
137249
134959
132675
130399
128132
125875
123630
121397
119178
116974
114786
112614
110460
108324
106207
104110
102032
99975.7
97939.9
95925.7
93933.4
91963.2
90015.6
88090.8
86189
84310.3
82455.1
80623.3
78815.1
77030.6
75269.9
73533
71819.9
70130.7
68465.4
66823.8
65206.1
63612.1
62041.9
60495.2
58972.2
57472.6
55996.5
54543.6
53114
51707.4
50323.8
48963.1
47625.1
46309.7
45016.8
43746.3
42497.9
41271.6
40067.1
38884.5
37723.4
36583.8
35465.5
34368.3
33292.2
32236.8
31202.1
30187.9
29194
28220.3
27266.5
26332.6
25418.4
24523.7
23648.3
22792
21954.7
21136.3
20336.4
19555.1
18792.1
18047.2
17320.2
16611.1
15919.5
15245.5
14588.7
13949
13326.2
12720.2
12130.8
11557.9
11001.2
10460.6
9935.89
9426.97
8933.64
8455.73
7993.07
7545.5
7112.86
6694.97
6291.69
5902.83
5528.23
5167.73
4821.17
4488.37
4169.19
3863.46
3571.02
3291.69
3025.32
2771.75
2530.79
2302.31
2086.13
1882.08
1690
1509.71
1341.05
1183.83
1037.87
903.005
779.036
665.773
563.012
470.536
388.116
315.507
252.449
198.658
153.819
117.579
89.5336
69.2162
56.0817
49.4907
48.687
52.7719
60.6732
71.1163
82.6007
93.3975
101.581
105.119
102.05
90.7516
70.3119
40.9385
4.30203
-36.2843
-75.9752
-108.96
-129.45
-132.854
-116.784
-81.5711
-30.1943
32.2587
99.3448
164.061
219.235
258.224
275.535
267.463
232.777
173.392
94.8402
6.28891
-80.1329
-150.962
-193.065
-196.612
-157.713
-79.8901
26.2273
144.91
258.317
349.48
404.813
414.843
376.194
292.35
173.755
37.06
-96.6742
-204.93
-267.624
-271.18
-210.911
-94.1531
60.4676
226.503
375.111
480.77
525.908
503.032
416.373
281.773
124.116
-26.8454
-141.857
-197.815
-182.717
-97.8748
40.8466
205.982
364.556
485.583
546.748
538.918
467.219
350.49
217.206
99.2146
24.6812
11.7632
64.3458
171.403
309.182
447.362
556.831
616.913
620.211
573.832
497.564
418.593
364.333
355.26
399.651
491.858
614.179
742.367
852.939
930.102
970.251
982.721
986.898
1006.39
1062.17
1166.77
1321.26
1515.42
1731.25
1949.14
2156.48
2360.48
2608.78
3023.53
3853.76
5546.24
8825.93
14763
24789.8
40622.1
64043
96532.2
138772
190130
248286
309183
367434
417149
452972
471037
469559
448960
411584
361160
302190
239396
177285
119827
70207
30611.9
2066.08
-15639.1
-23848.7
-24749.7
-20923.5
-14858.6
-8557.36
-3324.2
246.471
2131.89
2668.93
2341.54
1616.23
845.293
234.537
-141.914
-301.677
-308.801
-236.51
-144.07
-67.7001
-21.7411
-5.17047
-9.24218
-23.6131
-39.9587
-53.2629
-61.5506
-64.9149
-64.477
-61.6137
-57.5332
-53.1274
-48.9818
-45.4412
-42.6703
-40.6945
-39.4271
-38.6992
-38.2997
-38.023
-37.7125
-37.287
-36.7416
-36.1256
-35.5085
-34.9488
-34.4776
-34.1018
-33.8221
-33.6531
-33.6351
-33.8287
-34.2944
-35.0646
-36.1226
-37.3981
-38.7845
-40.1707
-41.4734
-42.658
-43.7465
-44.7976
-45.8577
-46.9524
-48.1253
-49.3837
-50.6611
-52.0869
-53.9708
-56.0357
-57.882
-60.6223
-64.1942
-64.575
-63.6353
-70.5232
-73.0971
-54.3238
-61.2837
-108.606
-49.8848
57.7368
-154.365
-254.545
502.135
368.168
-1526.22
431.707
4759.48
-3292.52
-8980.97
19461.9
17477.7
-58593.1
5505.28
184390
-116063
-399959
706629
823020
-2.48918e+06
-296918
9.64488e+06
6.80516e+06
1.90964e+06
346024
55057
9063.35
1500.08
248.252
41.0733
6.79513
1.12417
0.185979
0.0307677
0.00509011
0.000842095
0.000139305
2.30485e-05
3.83348e-06
5.89977e-07
1.0932e-07
1.43659e-08
-1.8498e-09
2.10297e-09
-1.99375e-09
3.57828e-10
1.29951e-10
-2.19601e-09
4.37323e-09
-4.92901e-09
-1.00498e-09
2.41263e-09
1.72434e-09
-8.60827e-10
2.1979e-09
4.22932e-10
-1.09856e-09
-2.79185e-09
9.33269e-10
1.79783e-09
4.16152e-09
2.96299e-09
-2.43997e-09
-9.40422e-10
-3.79301e-09
2.86813e-09
-2.26415e-09
3.98305e-09
-1.82766e-09
-3.24367e-09
-3.1931e-09
-1.10248e-09
4.53581e-09
-2.55609e-09
-6.2459e-09
-2.62621e-09
-2.35768e-09
2.71945e-10
2.6828e-09
1.05262e-09
-2.49293e-09
-4.58645e-10
-9.19194e-10
-2.56906e-09
2.57406e-09
4.18305e-09
-3.3096e-09
-6.54676e-09
-6.83718e-09
-3.04025e-09
-4.91698e-09
-3.37277e-09
-3.96243e-09
-3.18246e-09
-3.97965e-09
-2.63967e-09
-4.32203e-09
-1.29483e-09
2.31021e-09
-2.87438e-09
1.45018e-09
1.66056e-09
3.60382e-10
-3.02414e-09
4.86953e-10
5.11977e-09
3.72985e-09
9.33637e-10
4.50451e-10
2.84074e-09
2.26773e-09
-1.24283e-09
1.25877e-09
-5.11799e-10
-2.08654e-09
-4.26552e-09
1.48412e-10
1.71801e-09
-2.03818e-09
-3.1234e-09
1.30767e-09
1.81264e-10
-1.14931e-09
-5.76732e-10
9.52527e-10
9.09058e-10
-1.79534e-09
-5.79698e-10
3.27832e-09
1.78016e-09
-7.92933e-10
-2.95188e-09
-3.5034e-09
-3.40439e-09
3.51689e-09
1.89332e-09
2.42751e-10
3.18784e-09
1.79984e-09
3.91426e-09
3.47908e-10
-7.17088e-10
-6.65201e-09
-4.89058e-10
-3.29972e-10
2.20236e-09
1.21255e-09
2.69632e-09
-7.84071e-09
-3.72327e-09
-4.45759e-09
-2.7022e-09
-4.177e-09
4.62897e-09
2.07945e-09
5.37436e-09
-2.12874e-09
2.49796e-09
3.18608e-09
-1.49644e-09
-6.34591e-10
-1.00099e-09
1.0479e-09
-1.43243e-09
4.59574e-09
3.22733e-09
-3.13402e-09
-4.77739e-09
-4.37867e-09
-2.22039e-10
2.62979e-09
-3.77295e-10
-1.49398e-09
3.70146e-09
-4.62086e-09
5.45731e-10
-4.76831e-09
5.11077e-09
9.72675e-10
-3.34863e-09
1.94264e-09
-3.64574e-09
-1.94088e-09
3.95047e-09
4.86063e-09
-1.22866e-09
2.5811e-10
-5.32137e-10
-7.89895e-10
-2.64457e-09
5.53192e-09
4.0303e-09
1.59958e-09
3.05496e-09
9.88554e-10
-5.72489e-09
-7.11909e-10
-4.70868e-09
-3.10882e-09
-2.75388e-09
-2.29683e-09
-4.17017e-10
8.38836e-10
-2.25802e-09
-3.23437e-09
-2.7661e-09
3.58335e-09
6.70559e-10
3.50949e-10
-3.48402e-09
3.5112e-10
-1.06513e-10
4.27992e-10
3.87132e-09
2.64877e-09
-1.44938e-09
4.28299e-09
3.17317e-10
-2.87834e-09
1.59745e-09
-4.2899e-09
-2.72734e-09
-2.65819e-09
-1.1433e-09
-1.46253e-09
4.68347e-09
-4.22859e-09
-2.05363e-09
-6.83296e-09
-7.77148e-10
1.07063e-09
-1.66802e-09
2.98396e-09
1.94507e-09
5.97235e-09
4.14519e-09
-7.16318e-10
1.06345e-09
6.74073e-09
-1.19366e-09
7.2157e-09
1.4219e-09
2.19183e-09
-2.87688e-09
6.50609e-09
1.30898e-10
1.09469e-08
1.81415e-09
-8.96553e-09
1.55946e-09
4.25926e-09
-1.53157e-10
-2.02808e-09
-1.67283e-09
-8.66922e-09
-6.77017e-09
-2.9978e-09
-1.65357e-09
-5.07419e-09
-1.34985e-09
3.75548e-10
3.0394e-09
-3.09088e-09
2.85032e-09
-1.57216e-09
-8.12387e-10
-3.08708e-09
-4.96752e-09
-1.08898e-10
-4.71849e-09
1.40646e-10
2.96944e-09
3.46844e-10
-5.87892e-10
4.78351e-09
3.36777e-09
)
;

boundaryField
{
    sides
    {
        type            calculated;
        value           nonuniform List<scalar> 2(6.73653e-10 2.9082e-13);
    }
    empty
    {
        type            empty;
    }
}


// ************************************************************************* //
