/*--------------------------------*- C++ -*----------------------------------*\
  =========                 |
  \\      /  F ield         | OpenFOAM: The Open Source CFD Toolbox
   \\    /   O peration     | Website:  https://openfoam.org
    \\  /    A nd           | Version:  13
     \\/     M anipulation  |
\*---------------------------------------------------------------------------*/
FoamFile
{
    format      ascii;
    class       volScalarField;
    location    "0.0045";
    object      CrankNicolson:ddt0(p);
}
// * * * * * * * * * * * * * * * * * * * * * * * * * * * * * * * * * * * * * //

dimensions      [1 -1 -3 0 0 0 0];

internalField   nonuniform List<scalar> 
1000
(
1.35077e-10
4.36707e-06
3.20808e-06
1.70604e-08
-3.82474e-06
2.96089e-06
3.26219e-08
-2.08073e-06
6.96105e-06
-5.48712e-06
2.22999e-06
-1.04349e-06
3.15202e-06
2.19355e-06
-1.16066e-06
-3.67041e-06
-1.62889e-06
3.32443e-06
-8.39126e-06
1.62e-07
-1.08678e-06
-1.12535e-06
-6.27536e-06
-1.6311e-06
-1.73263e-06
-2.63323e-06
8.18794e-07
2.44748e-07
5.04563e-06
4.96916e-06
2.81306e-07
-7.27339e-06
-1.15247e-09
-4.3674e-06
2.00373e-06
1.59147e-06
2.72599e-07
5.35329e-06
2.32847e-06
-5.53764e-06
3.93806e-06
-6.53117e-06
1.77133e-06
1.37459e-06
5.31525e-06
-1.1567e-06
-2.78417e-08
1.11753e-06
-1.28369e-05
4.3917e-06
-2.00585e-06
-9.34275e-08
2.07156e-06
-2.11484e-06
1.43115e-06
2.516e-06
5.49718e-07
-1.21455e-06
1.64348e-06
-6.61046e-07
6.06234e-06
5.50722e-06
1.73891e-06
-1.83434e-06
-6.01241e-06
4.48151e-06
6.02159e-06
1.7014e-06
1.94109e-06
-2.05224e-06
-7.60026e-06
-1.33197e-05
-8.51371e-06
4.75304e-07
-1.81995e-06
3.78184e-07
5.54578e-08
1.14213e-06
-6.73816e-06
1.07234e-06
1.34547e-06
8.39116e-06
7.10965e-07
2.27697e-06
-3.47884e-06
-1.05729e-06
5.1164e-07
-1.50022e-06
-2.21483e-06
3.59739e-06
-1.09547e-06
-5.1992e-06
-2.21797e-06
4.54453e-06
-3.22302e-06
3.58754e-06
1.57548e-06
-5.19294e-07
1.13232e-06
4.1394e-06
-1.22139e-06
-4.47284e-07
-4.36815e-07
-3.13914e-08
1.14241e-06
-1.56626e-06
-5.25775e-06
1.3282e-06
1.71531e-06
2.29891e-06
-9.6563e-07
-5.25116e-08
3.68812e-06
-5.92878e-07
-3.15502e-06
-4.27362e-06
-1.63716e-06
5.55463e-06
-1.32549e-07
-2.08693e-07
2.49617e-06
-3.53524e-06
-7.70257e-07
8.28752e-06
-1.24684e-06
1.35074e-06
-2.47333e-06
4.34613e-06
1.02983e-07
-7.67194e-06
-2.00221e-07
-7.36944e-07
1.99853e-06
3.9226e-07
4.34572e-06
-7.57954e-06
4.28427e-09
2.94682e-06
2.40928e-06
1.4666e-06
-3.42047e-07
3.1548e-07
-1.84546e-06
7.54578e-07
2.09912e-06
4.49673e-06
-3.85185e-06
-2.51544e-06
-5.45739e-07
5.18414e-06
-6.71416e-08
-4.91899e-06
-7.18501e-07
4.13286e-08
3.32678e-06
-6.27101e-07
-1.70104e-06
-1.12229e-06
1.60268e-06
-1.33214e-07
-2.33444e-06
-8.61088e-07
2.18323e-06
-1.75981e-08
4.43412e-07
2.45555e-06
1.08749e-06
2.9848e-06
-1.97853e-06
-4.37036e-06
5.169e-07
-1.77464e-06
-1.85945e-06
-2.79994e-09
-1.89643e-07
3.28747e-07
8.51522e-07
-2.14628e-06
4.5468e-06
-4.70147e-08
-2.59178e-06
-3.56008e-06
5.85007e-06
-1.37045e-07
4.6243e-06
-1.09359e-06
-1.09009e-06
-5.93443e-09
5.1139e-07
1.18527e-06
3.73224e-07
4.3724e-06
7.10321e-08
-3.09419e-06
-9.82687e-07
-1.42652e-06
2.42581e-06
3.78583e-06
6.86589e-07
2.91808e-07
-3.54706e-06
-2.72824e-07
2.85651e-07
-6.37794e-06
7.81379e-07
-6.03612e-06
-3.10344e-06
2.03419e-06
6.33292e-06
9.26732e-06
3.9498e-06
-3.72591e-06
4.78104e-06
-3.75453e-08
-3.96697e-07
4.36556e-06
-1.09113e-06
1.39011e-06
-3.34147e-07
-8.14249e-07
3.47088e-06
-3.25467e-06
-2.16032e-06
5.97788e-07
-4.47642e-07
1.87854e-06
-3.34617e-06
-3.54167e-07
-1.08473e-06
-5.08875e-06
-4.25888e-06
4.67197e-08
1.23038e-06
4.42436e-06
1.07718e-06
-2.28511e-06
-4.61924e-06
-9.54638e-07
1.53542e-06
-1.66301e-08
1.76854e-06
-4.68078e-06
2.68013e-06
-2.20315e-06
4.24473e-06
6.71197e-06
-5.21873e-06
-1.39784e-06
-6.54567e-06
1.43244e-06
-1.434e-06
1.40315e-06
7.5661e-06
-1.49473e-08
-3.38981e-06
-2.85677e-06
-1.2171e-06
-6.10522e-06
-6.57318e-06
3.24692e-06
-1.41106e-06
4.591e-06
-2.39675e-07
4.30627e-06
3.68535e-06
6.66084e-11
-2.30206e-07
-5.41174e-06
-3.7304e-06
9.52212e-07
-5.45897e-07
1.55841e-06
6.13983e-07
-6.0027e-06
-9.41107e-06
-2.00141e-05
-3.97884e-05
-7.45631e-05
-0.000165018
-0.000363279
-0.000769805
-0.00164127
-0.00343881
-0.00717961
-0.0148228
-0.030397
-0.0617939
-0.124568
-0.248923
-0.493071
-0.968032
-1.8833
-3.63024
-6.932
-13.1104
-24.5543
-45.531
-83.5737
-151.817
-272.873
-485.162
-853.081
-1483.04
-2548.31
-4326.68
-7256.36
-12016.9
-19643.3
-31681.8
-50395.2
-79022.4
-122088
-185750
-278140
-409649
-593057
-843389
-1.17737e+06
-1.61236e+06
-2.1647e+06
-2.84756e+06
-3.66843e+06
-4.62672e+06
-5.71197e+06
-6.90311e+06
-8.16935e+06
-9.47253e+06
-1.07708e+07
-1.20228e+07
-1.31916e+07
-1.42483e+07
-1.51771e+07
-1.59748e+07
-1.66462e+07
-1.72009e+07
-1.76511e+07
-1.80096e+07
-1.8289e+07
-1.85008e+07
-1.86553e+07
-1.87615e+07
-1.88269e+07
-1.88581e+07
-1.88605e+07
-1.88387e+07
-1.87963e+07
-1.87365e+07
-1.86619e+07
-1.85746e+07
-1.84765e+07
-1.83689e+07
-1.82533e+07
-1.81304e+07
-1.80013e+07
-1.78667e+07
-1.77271e+07
-1.75831e+07
-1.74352e+07
-1.72836e+07
-1.71289e+07
-1.69713e+07
-1.6811e+07
-1.66483e+07
-1.64834e+07
-1.63166e+07
-1.6148e+07
-1.59778e+07
-1.58063e+07
-1.56335e+07
-1.54596e+07
-1.52849e+07
-1.51093e+07
-1.49332e+07
-1.47565e+07
-1.45795e+07
-1.44022e+07
-1.42248e+07
-1.40474e+07
-1.387e+07
-1.36929e+07
-1.3516e+07
-1.33395e+07
-1.31634e+07
-1.29878e+07
-1.28129e+07
-1.26385e+07
-1.24649e+07
-1.22921e+07
-1.21201e+07
-1.1949e+07
-1.17788e+07
-1.16095e+07
-1.14412e+07
-1.12739e+07
-1.11077e+07
-1.09426e+07
-1.07786e+07
-1.06157e+07
-1.04539e+07
-1.02933e+07
-1.01339e+07
-9.9757e+06
-9.81869e+06
-9.6629e+06
-9.50833e+06
-9.355e+06
-9.20291e+06
-9.05207e+06
-8.90248e+06
-8.75416e+06
-8.60709e+06
-8.46129e+06
-8.31676e+06
-8.1735e+06
-8.03151e+06
-7.89078e+06
-7.75133e+06
-7.61314e+06
-7.47622e+06
-7.34056e+06
-7.20617e+06
-7.07303e+06
-6.94116e+06
-6.81054e+06
-6.68117e+06
-6.55304e+06
-6.42616e+06
-6.30052e+06
-6.17611e+06
-6.05293e+06
-5.93097e+06
-5.81023e+06
-5.69071e+06
-5.57239e+06
-5.45528e+06
-5.33937e+06
-5.22465e+06
-5.11111e+06
-4.99875e+06
-4.88756e+06
-4.77755e+06
-4.66869e+06
-4.56099e+06
-4.45443e+06
-4.34902e+06
-4.24474e+06
-4.14159e+06
-4.03956e+06
-3.93864e+06
-3.83883e+06
-3.74013e+06
-3.64252e+06
-3.54599e+06
-3.45055e+06
-3.35618e+06
-3.26288e+06
-3.17063e+06
-3.07944e+06
-2.9893e+06
-2.90019e+06
-2.81212e+06
-2.72507e+06
-2.63905e+06
-2.55403e+06
-2.47002e+06
-2.387e+06
-2.30498e+06
-2.22394e+06
-2.14387e+06
-2.06478e+06
-1.98665e+06
-1.90948e+06
-1.83326e+06
-1.75798e+06
-1.68364e+06
-1.61023e+06
-1.53774e+06
-1.46617e+06
-1.39551e+06
-1.32575e+06
-1.25689e+06
-1.18892e+06
-1.12183e+06
-1.05562e+06
-990281
-925809
-862197
-799440
-737535
-676478
-616267
-556906
-498399
-440758
-384001
-328159
-273275
-219416
-166678
-115198
-65166
-16847.3
29395.8
73075.6
113546
149970
181290
206219
223265
230818
227335
211640
183350
143356
94256.8
40518.5
-11775.7
-55555.6
-84065.2
-92469
-79184.2
-46398.1
428.034
53814.3
105753
148953
177590
187349
175702
142049
87803
16546.8
-65810
-151025
-228914
-288352
-318923
-312828
-266602
-183296
-72793.8
49715.4
166695
261660
321957
340319
315021
249387
151780
34674.5
-86602.6
-195523
-276463
-317107
-310760
-257564
-165646
-50280.7
68936
172014
242455
270080
252346
193848
105842
4258.16
-92988.3
-169051
-211124
-212804
-175206
-106948
-22606.4
60448.2
125862
161725
162791
131037
74962.5
7670.18
-56038.5
-102862
-123810
-116031
-83153.5
-34366.2
17946.5
61341.5
86333.6
88505.2
69211
34913
-4672.97
-39199.6
-60351.7
-63868.5
-50402.5
-25063.5
4217.18
29065.1
43039.5
43310.2
31183.9
11430
-9367.76
-24908.6
-31059.1
-26955
-15013
82.7377
13079.5
19935
19070.9
11700.6
1180.17
-8354.55
-13538.5
-12942.3
-7443.18
283.651
6939.66
9979.19
8656.99
4304.62
-365.851
-2728.34
-1782.25
1215.74
3632.55
3388.56
466.323
-3256.81
-5718.4
-6296.65
-5904.88
-5730.2
-6056.2
-6235.07
-5532.36
-3825.65
-1600.57
498.554
2047.88
2899.48
3067.17
2650.42
1829.04
848.078
-49.8656
-703.525
-1067.12
-1186.44
-1146.3
-1027.03
-886.111
-758.785
-664.428
-610.688
-595.369
-609.035
-639.377
-675.575
-710.578
-740.97
-765.699
-785.062
-800.293
-813.305
-826.102
-839.942
-854.766
-869.328
-882.063
-892.296
-901.191
-911.948
-929.064
-956.858
-997.818
-1051.46
-1114.25
-1180.67
-1245.03
-1303.27
-1353.97
-1398.28
-1438.78
-1478
-1517.3
-1556.56
-1594.77
-1631.19
-1666.24
-1701.8
-1740.58
-1784.92
-1835.65
-1891.53
-1949.57
-2006.2
-2058.62
-2105.68
-2148.5
-2190.58
-2236.34
-2289.37
-2354.11
-2435.93
-2533.53
-2640.4
-2761.02
-2892.48
-2995.04
-3075.49
-3225.13
-3366.79
-3327.08
-3480.21
-4043.61
-3707.69
-2609.71
-4133.48
-5264.41
1555.07
2169.14
-15128.4
-1828.95
41987.1
-19483.1
-85975.3
161104
215968
-464332
-52469.5
1.70083e+06
-553044
-3.69671e+06
5.35793e+06
8.53734e+06
-1.86118e+07
-6.60244e+06
6.67431e+07
-1.36269e+07
-1.72921e+08
2.72346e+08
6.33246e+08
2.75922e+08
5.77213e+07
9.87148e+06
1.61108e+06
265683
43934.2
7267.98
1202.38
198.917
32.9081
5.44421
0.900672
0.149004
0.0246507
0.0040781
0.000674391
0.000111851
1.91708e-05
3.86831e-06
4.07437e-07
-6.37297e-08
-1.47935e-06
9.91019e-10
5.58482e-08
1.01629e-07
5.52175e-07
5.67585e-07
-6.14041e-07
6.58902e-08
8.18688e-07
3.779e-08
-3.08575e-10
1.6181e-07
2.37231e-07
-3.40919e-07
2.14086e-08
-1.58325e-07
6.44961e-07
1.1115e-07
-1.04347e-08
3.32542e-07
8.88415e-08
-2.51317e-09
-8.10127e-07
7.67884e-10
-2.49415e-07
3.29601e-07
-4.80609e-07
6.56658e-07
6.26163e-09
5.08914e-07
-1.88446e-07
-3.75332e-07
1.3489e-07
-4.38306e-07
4.07098e-07
4.25583e-07
-5.3037e-07
9.46898e-09
5.79754e-07
2.65363e-07
1.7035e-08
1.79237e-07
8.32129e-09
6.6529e-07
-9.29113e-07
-5.92257e-07
-6.85437e-07
-2.10827e-07
5.08934e-08
-1.42135e-06
-6.80512e-07
6.92298e-08
-6.63494e-07
7.66423e-09
-1.09464e-08
1.70117e-08
1.01784e-07
3.76047e-07
1.16703e-08
-6.88582e-07
7.35735e-08
3.07082e-07
-6.06424e-08
-2.47012e-07
1.05629e-08
7.7386e-08
-2.51843e-10
-2.31838e-10
1.12689e-07
-5.39651e-07
8.79275e-07
-4.03958e-07
5.81912e-07
-4.05488e-08
-2.12533e-07
1.08364e-07
4.98896e-08
-4.87061e-07
-2.99527e-07
-1.98681e-09
5.3906e-07
-1.31977e-07
-5.45909e-07
1.1347e-10
-1.79435e-07
-9.76364e-08
1.70534e-10
2.77145e-07
3.15493e-07
7.40895e-07
7.69018e-07
-4.9425e-08
1.8805e-07
7.77311e-07
7.22422e-08
-1.49199e-07
4.07951e-07
4.86452e-07
-2.08935e-07
3.83214e-07
-2.42419e-07
2.84234e-07
1.83287e-07
-6.2402e-07
-2.08177e-07
2.23049e-07
7.57741e-08
2.85042e-07
1.94815e-07
-2.94762e-08
8.80906e-08
4.77486e-07
-5.45696e-07
2.14008e-08
-5.46071e-07
6.77013e-08
8.5355e-09
1.60396e-08
5.24771e-07
-9.4611e-08
-4.82583e-07
-1.36094e-07
7.04104e-08
3.57439e-07
4.16467e-07
1.0418e-07
-7.88955e-08
-1.40283e-07
-2.2369e-07
5.19523e-07
-6.12853e-07
-1.85264e-08
-4.34198e-08
1.01798e-06
-6.48701e-07
2.06012e-07
-2.68679e-07
-2.73098e-07
-2.38996e-07
6.22102e-07
7.5909e-07
1.11854e-06
9.5256e-07
4.44697e-09
1.48652e-07
3.81866e-08
4.734e-07
6.28141e-07
-1.70416e-08
4.09423e-07
3.13789e-07
-7.19191e-07
-1.59883e-07
-4.54673e-07
-4.71262e-07
-9.88672e-07
1.70403e-07
2.37143e-07
1.01092e-08
-2.76618e-07
2.42983e-08
3.86325e-07
1.10468e-06
-6.59138e-07
3.39736e-07
6.29173e-08
2.06927e-07
6.65107e-07
1.50517e-07
8.97616e-08
4.60971e-07
-3.69216e-09
4.7133e-07
-7.35245e-08
-5.44295e-07
-3.26869e-07
-2.97446e-07
5.05614e-07
1.86307e-09
2.00494e-07
-3.36798e-07
-1.6767e-07
-3.14526e-08
-6.8739e-08
2.15975e-11
1.94366e-07
4.45716e-07
-3.17777e-07
-3.29432e-07
8.3035e-08
1.53971e-08
9.48343e-07
7.04406e-07
6.39466e-07
9.13948e-08
-3.63335e-07
3.77266e-08
1.09662e-07
2.21567e-07
4.61079e-08
2.88608e-08
-4.62742e-07
2.04886e-07
-6.83257e-08
2.70619e-07
2.87648e-07
-4.04346e-07
-7.18313e-07
-2.80041e-08
-1.53004e-07
-5.635e-07
-6.1464e-07
2.54023e-07
-4.26407e-07
-1.7173e-07
2.11034e-09
-3.37941e-08
1.02378e-07
-1.21334e-07
7.36077e-10
2.45323e-07
-1.48689e-07
-2.67519e-07
8.11101e-07
5.12107e-07
1.48782e-07
-1.69008e-08
-5.25163e-07
-2.63787e-07
9.46769e-07
1.11884e-06
-1.27336e-07
-2.14195e-07
)
;

boundaryField
{
    sides
    {
        type            calculated;
        value           nonuniform List<scalar> 2(-2.14195e-07 1.35077e-10);
    }
    empty
    {
        type            empty;
    }
}


// ************************************************************************* //
