/*--------------------------------*- C++ -*----------------------------------*\
  =========                 |
  \\      /  F ield         | OpenFOAM: The Open Source CFD Toolbox
   \\    /   O peration     | Website:  https://openfoam.org
    \\  /    A nd           | Version:  13
     \\/     M anipulation  |
\*---------------------------------------------------------------------------*/
FoamFile
{
    format      ascii;
    class       volScalarField;
    location    "0.0045";
    object      p_0;
}
// * * * * * * * * * * * * * * * * * * * * * * * * * * * * * * * * * * * * * //

dimensions      [1 -1 -2 0 0 0 0];

internalField   nonuniform List<scalar> 
1000
(
100000
100000
100000
100000
100000
100000
100000
100000
100000
100000
100000
100000
100000
100000
100000
100000
100000
100000
100000
100000
100000
100000
100000
100000
100000
100000
100000
100000
100000
100000
100000
100000
100000
100000
100000
100000
100000
100000
100000
100000
100000
100000
100000
100000
100000
100000
100000
100000
100000
100000
100000
100000
100000
100000
100000
100000
100000
100000
100000
100000
100000
100000
100000
100000
100000
100000
100000
100000
100000
100000
100000
100000
100000
100000
100000
100000
100000
100000
100000
100000
100000
100000
100000
100000
100000
100000
100000
100000
100000
100000
100000
100000
100000
100000
100000
100000
100000
100000
100000
100000
100000
100000
100000
100000
100000
100000
100000
100000
100000
100000
100000
100000
100000
100000
100000
100000
100000
100000
100000
100000
100000
100000
100000
100000
100000
100000
100000
100000
100000
100000
100000
100000
100000
100000
100000
100000
100000
100000
100000
100000
100000
100000
100000
100000
100000
100000
100000
100000
100000
100000
100000
100000
100000
100000
100000
100000
100000
100000
100000
100000
100000
100000
100000
100000
100000
100000
100000
100000
100000
100000
100000
100000
100000
100000
100000
100000
100000
100000
100000
100000
100000
100000
100000
100000
100000
100000
100000
100000
100000
100000
100000
100000
100000
100000
100000
100000
100000
100000
100000
100000
100000
100000
100000
100000
100000
100000
100000
100000
100000
100000
100000
100000
100000
100000
100000
100000
100000
100000
100000
100000
100000
100000
100000
100000
100000
100000
100000
100000
100000
100000
100000
100000
100000
100000
100000
100000
100000
100000
100000
100000
100000
100000
100000
100000
100000
100000
100000
100000
100000
100000
100000
100000
100000
100000
100000
100000
100000
100000
100000
100000
100000
100000
100000
100000
100000
100000
100000
100000
100000
100000
100000
100000
100000
100000
100000
100000
100000
100000
100000
100000
100000
100000
100000
100000
100000
100000
100000
100000
100000
100000
100000
100000
100000
100000
100000
100000
100000
100000
100000
100000
100000
100000
99999.9
99999.9
99999.8
99999.6
99999.4
99999
99998.3
99997.3
99995.6
99993
99989
99982.9
99973.9
99960.8
99941.9
99915.3
99878.6
99828.6
99762.2
99675.7
99565.3
99427.4
99258.8
99056.8
98819.7
98546.9
98238.9
97897.2
97524.1
97122.6
96696
96247.6
95780.3
95297
94800.2
94292
93774.5
93249.1
92717.2
92180
91638.5
91093.5
90545.7
89995.6
89443.9
88890.9
88336.9
87782.5
87227.7
86672.9
86118.3
85564.1
85010.4
84457.4
83905.3
83354.3
82804.3
82255.6
81708.2
81162.3
80617.9
80075.1
79534
78994.8
78457.4
77921.9
77388.5
76857
76327.8
75800.6
75275.7
74753.1
74232.8
73714.8
73199.2
72686.1
72175.3
71667.1
71161.4
70658.2
70157.6
69659.5
69164
68671.1
68180.8
67693.2
67208.2
66725.8
66246.1
65769
65294.7
64822.9
64353.9
63887.5
63423.7
62962.7
62504.3
62048.6
61595.5
61145.1
60697.4
60252.3
59809.9
59370.1
58933
58498.5
58066.6
57637.3
57210.7
56786.7
56365.2
55946.4
55530.2
55116.5
54705.4
54296.8
53890.9
53487.4
53086.5
52688.1
52292.3
51899
51508.1
51119.8
50733.9
50350.5
49969.6
49591.1
49215.1
48841.5
48470.4
48101.6
47735.3
47371.4
47009.9
46650.7
46294
45939.6
45587.5
45237.8
44890.5
44545.4
44202.7
43862.4
43524.3
43188.5
42855
42523.8
42194.9
41868.2
41543.8
41221.7
40901.8
40584.2
40268.8
39955.6
39644.7
39336
39029.5
38725.3
38423.3
38123.5
37825.9
37530.6
37237.5
36946.7
36658
36371.7
36087.6
35805.8
35526.2
35249
34974.2
34701.6
34431.5
34163.9
33898.6
33636
33375.9
33118.5
32863.8
32612
32363.1
32117.3
31874.8
31635.7
31400.2
31168.7
30941.5
30718.8
30501.3
30289.3
30083.6
29884.8
29694.1
29512.3
29341
29181.6
29036.2
28906.9
28796.5
28708.1
28645.3
28612.3
28613.4
28653.3
28736.6
28867.1
29047.4
29277.7
29554.6
29870.4
30211.9
30560.6
30893.7
31185.8
31412.6
31554.3
31599.4
31546.9
31405.9
31193.8
30933.6
30650.2
30368.1
30109.2
29892
29730.8
29635.5
29610.8
29656.6
29767.1
29931.2
30132.4
30350.2
30561.5
30743.6
30876.5
30947
30950.2
30890.1
30779.1
30634.8
30477.7
30327.9
30203
30116.6
30076.6
30084.7
30136.6
30222.6
30328.5
30438.4
30536
30608
30645.2
30645
30610.6
30550.6
30477
30402.7
30339.7
30297.2
30280.3
30289.4
30320.6
30366.4
30417.4
30464
30498.2
30514.7
30512.4
30493.6
30463.8
30430
30399.3
30377.4
30367.9
30371.3
30385.4
30406.1
30428.2
30446.8
30458.1
30460.5
30454.5
30442.6
30428.2
30415.1
30406.1
30403.1
30405.8
30413
30422.2
30430.8
30436.7
30438.6
30436.7
30432
30426.2
30421
30417.9
30417.4
30419.3
30422.6
30426.2
30428.9
30430
30429.5
30427.7
30425.5
30423.7
30422.9
30423
30424
30425.3
30426.4
30426.8
30426.6
30425.9
30425.2
30424.7
30424.6
30424.8
30425.1
30425.2
30425.1
30424.9
30424.8
30424.8
30425
30425.2
30425.5
30425.7
30425.8
30426
30426.2
30426.4
30426.5
30426.5
30426.4
30426.3
30426.2
30426.1
30426
30426
30425.9
30426
30426
30426
30426
30426.1
30426.1
30426.1
30426.1
30426.1
30426.1
30426.1
30426.1
30426.1
30426.1
30426.2
30426.2
30426.2
30426.2
30426.2
30426.2
30426.3
30426.3
30426.3
30426.3
30426.3
30426.4
30426.4
30426.4
30426.4
30426.4
30426.4
30426.4
30426.5
30426.5
30426.5
30426.5
30426.5
30426.5
30426.6
30426.6
30426.6
30426.6
30426.7
30426.7
30426.7
30426.7
30426.8
30426.8
30426.8
30426.8
30426.9
30426.9
30426.9
30426.9
30427
30427
30427
30427.1
30427.1
30427.2
30427.2
30427.3
30427.3
30427.4
30427.4
30427.5
30427.5
30427.6
30427.6
30427.7
30427.7
30427.7
30427.8
30427.8
30427.9
30427.8
30427.9
30428.2
30427.8
30427.2
30428.2
30428.2
30424
30425
30433.2
30420.3
30399.5
30439.8
30452.7
30300
30329.8
30680.6
30238
29346.3
31022.5
31678.9
22973.8
13856.1
10740.5
10124.1
10020.3
10003.4
10000.6
10000.1
10000
10000
10000
10000
10000
10000
10000
10000
10000
10000
10000
10000
10000
10000
10000
10000
10000
10000
10000
10000
10000
10000
10000
10000
10000
10000
10000
10000
10000
10000
10000
10000
10000
10000
10000
10000
10000
10000
10000
10000
10000
10000
10000
10000
10000
10000
10000
10000
10000
10000
10000
10000
10000
10000
10000
10000
10000
10000
10000
10000
10000
10000
10000
10000
10000
10000
10000
10000
10000
10000
10000
10000
10000
10000
10000
10000
10000
10000
10000
10000
10000
10000
10000
10000
10000
10000
10000
10000
10000
10000
10000
10000
10000
10000
10000
10000
10000
10000
10000
10000
10000
10000
10000
10000
10000
10000
10000
10000
10000
10000
10000
10000
10000
10000
10000
10000
10000
10000
10000
10000
10000
10000
10000
10000
10000
10000
10000
10000
10000
10000
10000
10000
10000
10000
10000
10000
10000
10000
10000
10000
10000
10000
10000
10000
10000
10000
10000
10000
10000
10000
10000
10000
10000
10000
10000
10000
10000
10000
10000
10000
10000
10000
10000
10000
10000
10000
10000
10000
10000
10000
10000
10000
10000
10000
10000
10000
10000
10000
10000
10000
10000
10000
10000
10000
10000
10000
10000
10000
10000
10000
10000
10000
10000
10000
10000
10000
10000
10000
10000
10000
10000
10000
10000
10000
10000
10000
10000
10000
10000
10000
10000
10000
10000
10000
10000
10000
10000
10000
10000
10000
10000
10000
10000
10000
10000
10000
10000
10000
10000
10000
10000
10000
10000
10000
10000
10000
10000
10000
10000
10000
10000
10000
10000
10000
10000
10000
10000
)
;

boundaryField
{
    sides
    {
        type            calculated;
        value           nonuniform List<scalar> 2(10000 100000);
    }
    empty
    {
        type            empty;
    }
}


// ************************************************************************* //
