/*--------------------------------*- C++ -*----------------------------------*\
  =========                 |
  \\      /  F ield         | OpenFOAM: The Open Source CFD Toolbox
   \\    /   O peration     | Website:  https://openfoam.org
    \\  /    A nd           | Version:  13
     \\/     M anipulation  |
\*---------------------------------------------------------------------------*/
FoamFile
{
    format      ascii;
    class       surfaceScalarField;
    location    "0.0045";
    object      phi;
}
// * * * * * * * * * * * * * * * * * * * * * * * * * * * * * * * * * * * * * //

dimensions      [1 0 -1 0 0 0 0];

internalField   nonuniform List<scalar> 
999
(
-8.42739e-12
-9.03961e-12
-9.48818e-12
-9.45091e-12
-8.7412e-12
-9.17944e-12
-9.25189e-12
-8.93505e-12
-9.1223e-12
-8.67374e-12
-8.38445e-12
-8.245e-12
-8.35506e-12
-7.89618e-12
-8.0355e-12
-8.30219e-12
-8.67523e-12
-8.4731e-12
-7.16374e-12
-7.4651e-12
-7.88296e-12
-7.98795e-12
-8.20164e-12
-7.29133e-12
-8.57097e-12
-7.76633e-12
-7.36195e-12
-6.41088e-12
-6.9762e-12
-7.75469e-12
-7.96424e-12
-7.99332e-12
-6.84814e-12
-7.69713e-12
-7.35943e-12
-6.33702e-12
-6.16628e-12
-7.7091e-12
-7.00145e-12
-6.31353e-12
-7.20127e-12
-7.31138e-12
-6.74771e-12
-7.40046e-12
-8.17592e-12
-8.50521e-12
-8.75924e-12
-8.41272e-12
-7.15168e-12
-6.68964e-12
-7.65265e-12
-7.65478e-12
-7.49325e-12
-7.17065e-12
-7.21167e-12
-6.25344e-12
-7.30694e-12
-7.55367e-12
-7.4741e-12
-6.4809e-12
-8.34905e-12
-8.47024e-12
-9.12016e-12
-9.17304e-12
-8.50449e-12
-9.72344e-12
-1.00015e-11
-9.96855e-12
-1.02202e-11
-1.01016e-11
-8.41724e-12
-6.89185e-12
-6.25297e-12
-5.27465e-12
-4.1774e-12
-4.13544e-12
-4.89994e-12
-5.05679e-12
-4.25279e-12
-5.63549e-12
-5.26301e-12
-5.65545e-12
-6.13949e-12
-6.30546e-12
-6.18661e-12
-6.33313e-12
-6.82426e-12
-6.35194e-12
-6.83428e-12
-7.27465e-12
-5.94141e-12
-5.92466e-12
-4.80429e-12
-6.0331e-12
-5.57327e-12
-5.88696e-12
-6.25185e-12
-6.24994e-12
-5.26757e-12
-5.94321e-12
-5.07186e-12
-5.11051e-12
-5.55488e-12
-5.50554e-12
-6.33395e-12
-6.54526e-12
-5.63453e-12
-5.81752e-12
-6.09156e-12
-5.78753e-12
-5.82481e-12
-5.62159e-12
-6.1649e-12
-5.11554e-12
-5.58634e-12
-4.87393e-12
-4.47589e-12
-4.84249e-12
-4.27768e-12
-4.43525e-12
-4.34734e-12
-4.40175e-12
-4.02984e-12
-5.70742e-12
-5.62195e-12
-5.60352e-12
-6.42238e-12
-5.86808e-12
-6.18057e-12
-5.25873e-12
-4.43488e-12
-4.90575e-12
-4.64614e-12
-3.80174e-12
-4.1916e-12
-3.0422e-12
-1.66045e-12
-6.22176e-13
-8.02218e-13
-9.14432e-13
-6.18599e-13
-5.95398e-13
-5.58722e-13
-9.72235e-13
-1.24349e-12
-1.70772e-12
-8.32686e-13
-1.36813e-12
-9.60381e-13
-1.141e-12
-7.98016e-13
-3.23335e-13
3.98552e-13
7.09663e-14
1.34354e-13
-2.41523e-13
3.92391e-14
-1.52618e-14
-5.60262e-13
-1.46802e-12
-2.00678e-12
-1.93256e-12
-1.67176e-12
-2.51417e-12
-2.53257e-12
-3.14453e-12
-2.75383e-12
-2.94018e-12
-2.66871e-12
-1.83316e-12
-1.5969e-12
-1.94414e-12
-1.43802e-12
-5.04779e-13
-4.08043e-13
-1.23071e-12
-1.31841e-12
-1.71799e-12
-1.33224e-12
-1.41427e-12
-1.1218e-12
-9.00036e-13
-5.09936e-13
-9.13511e-13
-1.0137e-12
-2.76531e-13
1.56823e-15
4.93139e-13
-2.69748e-13
-3.38299e-13
-1.82651e-13
-2.15339e-13
-1.5993e-12
-4.45802e-13
-6.52769e-13
-1.78469e-12
-1.56806e-12
-1.61768e-12
-2.39939e-12
-1.99672e-12
-2.18558e-12
-1.38734e-12
-1.22904e-12
-4.24701e-13
5.71231e-13
1.86848e-12
2.27308e-12
1.56106e-12
6.59588e-13
-9.59414e-14
-1.292e-12
-1.44523e-12
-1.37071e-12
-1.51246e-12
-1.47419e-12
-1.18289e-12
-9.88292e-13
-1.01978e-12
-8.93731e-13
-4.8007e-13
1.25035e-13
3.17439e-13
9.02438e-13
1.39599e-12
1.7478e-12
6.62316e-13
5.96052e-13
2.95032e-13
3.17633e-13
4.58484e-13
9.03811e-13
1.2576e-12
9.88987e-13
9.71696e-13
5.45754e-13
1.00596e-12
2.06007e-12
1.4248e-12
7.27365e-13
1.30288e-12
9.92004e-13
1.22925e-12
1.57289e-12
3.01127e-12
2.88594e-12
2.60851e-12
2.89396e-12
4.15349e-12
5.91291e-12
6.73603e-12
5.90745e-12
7.57866e-12
6.76223e-12
5.95959e-12
6.34813e-12
5.6546e-12
5.84185e-12
6.15139e-12
6.67829e-12
6.09602e-12
5.9408e-12
6.49245e-12
5.98779e-12
4.93561e-12
3.75825e-12
2.9905e-12
2.53377e-12
2.71541e-12
2.88756e-12
3.08342e-12
3.21302e-12
3.6023e-12
3.94501e-12
5.79862e-12
8.61637e-12
1.54419e-11
2.96939e-11
5.96661e-11
1.2603e-10
2.68008e-10
5.68768e-10
1.2034e-09
2.53306e-09
5.29231e-09
1.09734e-08
2.25715e-08
4.60577e-08
9.32058e-08
1.87038e-07
3.72132e-07
7.33987e-07
1.43497e-06
2.78033e-06
5.33807e-06
1.0154e-05
1.91331e-05
3.57068e-05
6.59873e-05
0.000120734
0.000218663
0.000391928
0.000695074
0.00121941
0.00211572
0.00362949
0.00615457
0.0103131
0.0170724
0.0279109
0.0450485
0.0717564
0.112759
0.174737
0.266918
0.401746
0.595544
0.86912
1.24814
1.76318
2.44919
3.34438
4.48832
5.91951
7.67241
9.77456
12.244
15.0875
18.3
21.8652
25.7569
29.9419
34.384
39.0469
43.8962
48.9004
54.0315
59.265
64.5798
69.958
75.3844
80.846
86.332
91.8332
97.3419
102.852
108.356
113.852
119.334
124.799
130.244
135.666
141.063
146.433
151.774
157.085
162.363
167.607
172.817
177.991
183.129
188.228
193.288
198.309
203.29
208.229
213.127
217.982
222.794
227.563
232.288
236.968
241.604
246.195
250.74
255.24
259.694
264.101
268.462
272.777
277.045
281.267
285.442
289.569
293.651
297.685
301.672
305.613
309.507
313.355
317.156
320.91
324.618
328.28
331.896
335.466
338.99
342.469
345.902
349.29
352.632
355.93
359.184
362.392
365.557
368.677
371.754
374.787
377.777
380.723
383.626
386.487
389.305
392.082
394.816
397.508
400.159
402.768
405.337
407.865
410.352
412.799
415.206
417.573
419.9
422.189
424.438
426.648
428.82
430.954
433.05
435.108
437.129
439.112
441.058
442.968
444.841
446.677
448.478
450.243
451.973
453.667
455.327
456.952
458.542
460.098
461.62
463.109
464.564
465.985
467.374
468.73
470.054
471.345
472.605
473.832
475.029
476.194
477.328
478.431
479.504
480.546
481.558
482.541
483.494
484.418
485.313
486.179
487.016
487.825
488.606
489.359
490.084
490.782
491.452
492.096
492.713
493.304
493.868
494.406
494.918
495.405
495.867
496.303
496.714
497.101
497.463
497.801
498.116
498.406
498.672
498.916
499.136
499.334
499.508
499.661
499.791
499.9
499.987
500.053
500.098
500.123
500.129
500.116
500.085
500.037
499.975
499.9
499.815
499.723
499.627
499.533
499.446
499.37
499.31
499.27
499.252
499.255
499.276
499.308
499.344
499.374
499.392
499.39
499.368
499.324
499.263
499.19
499.112
499.039
498.98
498.941
498.932
498.955
499.013
499.102
499.216
499.342
499.465
499.571
499.643
499.671
499.65
499.581
499.474
499.342
499.201
499.071
498.966
498.9
498.881
498.911
498.985
499.093
499.217
499.34
499.442
499.506
499.524
499.494
499.421
499.319
499.205
499.098
499.013
498.963
498.954
498.985
499.047
499.127
499.208
499.274
499.313
499.317
499.287
499.23
499.157
499.083
499.02
498.98
498.967
498.979
499.011
499.052
499.089
499.114
499.118
499.1
499.064
499.016
498.966
498.922
498.892
498.877
498.876
498.882
498.89
498.891
498.881
498.858
498.823
498.78
498.734
498.691
498.653
498.622
498.595
498.567
498.534
498.492
498.438
498.373
498.299
498.219
498.133
498.04
497.934
497.794
497.585
497.243
496.665
495.699
494.134
491.699
488.08
482.947
476.007
467.057
456.044
443.107
428.581
412.971
396.901
381.034
366.003
352.352
340.486
330.657
322.959
317.336
313.605
311.483
310.624
310.657
311.224
312.022
312.821
313.481
313.937
314.191
314.281
314.263
314.191
314.105
314.032
313.983
313.959
313.953
313.958
313.968
313.977
313.984
313.988
313.99
313.99
313.99
313.99
313.991
313.992
313.994
313.996
313.997
313.999
314.001
314.003
314.004
314.005
314.007
314.008
314.009
314.01
314.011
314.012
314.012
314.013
314.014
314.015
314.016
314.016
314.017
314.018
314.018
314.019
314.019
314.02
314.021
314.021
314.022
314.022
314.023
314.024
314.024
314.025
314.026
314.027
314.027
314.028
314.029
314.03
314.03
314.031
314.032
314.033
314.034
314.035
314.036
314.037
314.038
314.039
314.04
314.041
314.042
314.043
314.044
314.045
314.044
314.046
314.05
314.044
314.037
314.057
314.054
313.983
314.012
314.15
313.9
313.59
314.371
314.474
311.809
312.861
318.869
310.033
296.147
329.369
340.248
195.945
58.8719
11.6091
1.87369
0.306551
0.0507038
0.00839127
0.0013884
0.000229698
3.80007e-05
6.28671e-06
1.04005e-06
1.72062e-07
2.84648e-08
4.70847e-09
7.78311e-10
1.28072e-10
2.04017e-11
2.80954e-12
-7.7904e-13
-1.33575e-12
-1.1914e-12
-1.16047e-12
-1.1066e-12
-1.14271e-12
-1.20168e-12
-1.20651e-12
-1.32138e-12
-1.28882e-12
-1.25464e-12
-1.35428e-12
-1.37099e-12
-1.234e-12
-1.21961e-12
-1.16725e-12
-1.01044e-12
-9.53726e-13
-9.51914e-13
-8.85763e-13
-9.43918e-13
-1.04603e-12
-1.08875e-12
-1.04556e-12
-9.96168e-13
-8.66745e-13
-8.54892e-13
-8.64469e-13
-8.48247e-13
-7.96165e-13
-9.1675e-13
-7.95102e-13
-9.19739e-13
-1.03559e-12
-9.99299e-13
-1.08998e-12
-1.02021e-12
-1.05876e-12
-1.13483e-12
-1.04573e-12
-1.04585e-12
-1.12179e-12
-1.24631e-12
-1.24097e-12
-1.2263e-12
-1.39044e-12
-1.38629e-12
-1.24857e-12
-9.99494e-13
-9.8686e-13
-9.23247e-13
-8.81191e-13
-5.42477e-13
-4.43031e-13
-5.59204e-13
-3.12688e-13
-2.82011e-13
-2.35825e-13
-2.49545e-13
-2.06225e-13
-3.71322e-13
-3.83255e-13
-2.55866e-13
-2.03589e-13
-1.41927e-13
-2.40534e-13
-2.46564e-13
-2.95115e-13
-3.66355e-13
-3.44844e-13
-4.47089e-13
-4.88534e-13
-4.91276e-13
-6.08849e-13
-6.09004e-13
-5.68328e-13
-5.4987e-13
-4.88344e-13
-4.36532e-13
-4.17068e-13
-2.47662e-13
-2.2779e-13
-6.05144e-14
-6.26016e-14
-1.1932e-13
-5.71622e-14
2.49232e-14
2.34772e-13
1.17622e-13
1.37613e-13
1.25025e-14
-4.00048e-14
-2.52468e-13
-3.93492e-13
-4.02241e-13
-4.66926e-13
-5.08398e-13
-4.4168e-13
-4.04771e-13
-6.16504e-13
-6.81945e-13
-8.81913e-13
-8.34159e-13
-7.64145e-13
-7.59162e-13
-7.02172e-13
-5.70256e-13
-5.87545e-13
-4.96814e-13
-4.5616e-13
-3.29535e-13
-3.09538e-13
-1.43322e-13
-1.32579e-13
-1.74265e-13
-3.21848e-13
-2.52194e-13
-1.59615e-13
-3.03354e-13
-2.94924e-13
-2.41682e-13
-3.31616e-13
-3.39749e-13
-2.03661e-13
-2.87988e-13
-3.37596e-13
-4.58841e-13
-3.93687e-13
-3.50846e-13
-3.36405e-13
-3.50616e-13
-3.60858e-13
-3.22832e-13
-3.32728e-13
-2.63972e-13
-4.78718e-13
-4.36299e-13
-3.39195e-13
-4.11402e-13
-3.29051e-13
-2.4131e-13
-1.48296e-13
-2.14797e-13
-3.72079e-13
-6.36597e-13
-7.8275e-13
-8.62089e-13
-7.75353e-13
-9.28413e-13
-9.16213e-13
-1.05637e-12
-1.10001e-12
-1.11148e-12
-1.15957e-12
-1.1312e-12
-9.54367e-13
-8.48613e-13
-6.1261e-13
-2.85727e-13
-1.49692e-13
-1.15519e-14
-7.48535e-15
-1.66461e-14
-1.35866e-13
-2.14394e-13
-3.01892e-13
-2.42085e-13
-2.46616e-13
-4.46354e-13
-3.57162e-13
-4.48068e-13
-4.21755e-13
-4.56643e-13
-5.92511e-13
-7.30651e-13
-7.03337e-13
-7.66918e-13
-6.40167e-13
-6.1221e-13
-7.20923e-13
-6.45798e-13
-6.29062e-13
-5.06945e-13
-5.34728e-13
-3.31687e-13
-4.63723e-13
-2.99119e-13
-4.20421e-13
-3.31111e-13
-3.42137e-13
-3.42601e-13
-3.96704e-13
-4.5399e-13
-4.41893e-13
-5.38848e-13
-7.33318e-13
-8.27236e-13
-9.25833e-13
-1.0187e-12
-1.02684e-12
-1.12987e-12
-1.2747e-12
-1.30163e-12
-1.24604e-12
-1.38241e-12
-1.47671e-12
-1.57577e-12
-1.79412e-12
-1.62408e-12
-1.59556e-12
-1.56734e-12
-1.44598e-12
-1.38641e-12
-1.45227e-12
-1.29925e-12
-1.0692e-12
-9.47399e-13
-8.46004e-13
-7.48291e-13
-6.67703e-13
-6.76625e-13
-6.64864e-13
-6.40605e-13
-7.79557e-13
-7.34177e-13
-6.59002e-13
-6.75686e-13
-5.24606e-13
-6.14744e-13
-5.31734e-13
-4.09546e-13
-3.42655e-13
-4.32528e-13
-4.72223e-13
-4.18521e-13
)
;

boundaryField
{
    sides
    {
        type            calculated;
        value           nonuniform List<scalar> 2(-4.00178e-13 8.90577e-12);
    }
    empty
    {
        type            empty;
    }
}


// ************************************************************************* //
