/*--------------------------------*- C++ -*----------------------------------*\
  =========                 |
  \\      /  F ield         | OpenFOAM: The Open Source CFD Toolbox
   \\    /   O peration     | Website:  https://openfoam.org
    \\  /    A nd           | Version:  13
     \\/     M anipulation  |
\*---------------------------------------------------------------------------*/
FoamFile
{
    format      ascii;
    class       surfaceScalarField;
    location    "0.0045";
    object      phi_0;
}
// * * * * * * * * * * * * * * * * * * * * * * * * * * * * * * * * * * * * * //

dimensions      [1 0 -1 0 0 0 0];

internalField   nonuniform List<scalar> 
999
(
-8.21532e-12
-8.92755e-12
-9.57654e-12
-9.41189e-12
-8.76218e-12
-9.22281e-12
-9.07842e-12
-9.10852e-12
-9.42588e-12
-8.60047e-12
-8.4801e-12
-7.98936e-12
-8.45527e-12
-8.61975e-12
-8.11149e-12
-8.13166e-12
-8.17123e-12
-8.32039e-12
-7.22353e-12
-7.41261e-12
-7.85601e-12
-8.22099e-12
-8.02654e-12
-7.65926e-12
-8.13729e-12
-7.76633e-12
-7.40531e-12
-6.50674e-12
-6.95999e-12
-7.82066e-12
-8.05554e-12
-7.81529e-12
-7.19508e-12
-7.39355e-12
-7.52378e-12
-6.23681e-12
-5.97225e-12
-7.91865e-12
-7.27948e-12
-6.27928e-12
-7.29692e-12
-6.92541e-12
-6.78652e-12
-7.46937e-12
-8.13255e-12
-8.24957e-12
-8.5812e-12
-8.75489e-12
-6.78234e-12
-6.79897e-12
-7.54493e-12
-7.52902e-12
-7.61444e-12
-7.40096e-12
-7.17266e-12
-6.57506e-12
-7.18575e-12
-7.58356e-12
-7.28694e-12
-6.25992e-12
-8.13839e-12
-8.53621e-12
-9.13364e-12
-9.03838e-12
-8.4522e-12
-9.21649e-12
-1.01197e-11
-9.85648e-12
-1.00034e-11
-1.02e-11
-8.67105e-12
-6.89023e-12
-5.99549e-12
-5.16096e-12
-4.54967e-12
-4.03522e-12
-4.51419e-12
-5.0657e-12
-4.50843e-12
-5.79984e-12
-5.22876e-12
-5.56598e-12
-6.29949e-12
-6.23514e-12
-6.14324e-12
-6.33313e-12
-6.74187e-12
-6.04402e-12
-6.83134e-12
-7.25823e-12
-6.41663e-12
-5.77946e-12
-4.5669e-12
-6.20798e-12
-5.57784e-12
-5.66718e-12
-6.16512e-12
-6.61036e-12
-5.29908e-12
-5.72342e-12
-5.1974e-12
-5.19725e-12
-5.40238e-12
-5.53249e-12
-6.53437e-12
-6.50168e-12
-5.69432e-12
-5.69654e-12
-6.03178e-12
-5.6709e-12
-5.84123e-12
-5.39584e-12
-5.98687e-12
-4.93316e-12
-5.0568e-12
-4.30558e-12
-3.7432e-12
-4.50902e-12
-4.14758e-12
-4.25265e-12
-4.48201e-12
-4.22534e-12
-4.16634e-12
-5.95262e-12
-5.69521e-12
-5.7996e-12
-6.16652e-12
-5.98471e-12
-6.08471e-12
-5.11515e-12
-4.16576e-12
-4.83705e-12
-4.57288e-12
-3.88848e-12
-4.12542e-12
-2.493e-12
-1.48536e-12
-4.05549e-13
-7.94927e-13
-6.94649e-13
-4.88495e-13
-5.38555e-13
-4.67423e-13
-1.00191e-12
-1.09556e-12
-2.06793e-12
-9.83557e-13
-1.15129e-12
-7.91472e-13
-1.24121e-12
-8.75626e-13
-1.79755e-13
2.9834e-13
6.2054e-14
1.98489e-13
-3.28259e-13
-1.73038e-13
-1.09124e-14
-7.81665e-13
-1.65497e-12
-2.3672e-12
-1.98941e-12
-1.68979e-12
-2.31081e-12
-2.5805e-12
-3.17148e-12
-2.96611e-12
-3.02691e-12
-2.63861e-12
-1.61632e-12
-1.38462e-12
-1.64035e-12
-7.12621e-13
-1.03933e-13
2.63331e-13
-8.76474e-13
-1.18992e-12
-1.65364e-12
-1.36214e-12
-1.49644e-12
-1.29984e-12
-8.88395e-13
-7.10359e-13
-7.01234e-13
-1.27369e-12
-3.36103e-13
1.19818e-13
3.9749e-13
-3.26591e-13
-4.60898e-13
-1.27428e-13
-2.28814e-13
-1.49908e-12
-5.46013e-13
-8.14601e-13
-1.70414e-12
-1.71164e-12
-2.13831e-12
-2.75504e-12
-2.27769e-12
-1.95232e-12
-1.57429e-12
-1.71043e-12
-3.97536e-13
3.97972e-13
1.64111e-12
2.20092e-12
1.53684e-12
1.04674e-12
2.73177e-13
-1.07221e-12
-1.08938e-12
-1.33191e-12
-1.30931e-12
-1.12016e-12
-1.44907e-12
-1.06155e-12
-1.32336e-12
-1.11057e-12
-4.71158e-13
-3.90819e-13
1.17016e-13
7.31908e-13
1.33915e-12
1.9391e-12
8.76214e-13
8.09951e-13
5.65774e-13
4.13282e-13
6.53237e-13
1.08782e-12
1.41282e-12
7.61614e-13
7.65089e-13
-4.20401e-14
6.51422e-13
1.49164e-12
9.78961e-13
4.43148e-13
1.06932e-12
6.30176e-13
1.12904e-12
1.55212e-12
3.33885e-12
3.11331e-12
2.65644e-12
3.1873e-12
4.43498e-12
6.10148e-12
6.69266e-12
6.26382e-12
7.45879e-12
6.76223e-12
6.18696e-12
6.25521e-12
5.86394e-12
5.43938e-12
6.17561e-12
6.87577e-12
6.09602e-12
6.16361e-12
5.98977e-12
5.91291e-12
4.51967e-12
3.3496e-12
2.7766e-12
2.44704e-12
2.89942e-12
2.93822e-12
3.02658e-12
3.40159e-12
3.31809e-12
3.37841e-12
4.99279e-12
7.23554e-12
1.19162e-11
2.25061e-11
4.41563e-11
9.22871e-11
1.95919e-10
4.16078e-10
8.82715e-10
1.86377e-09
3.90865e-09
8.13425e-09
1.67963e-08
3.44064e-08
6.9903e-08
1.40837e-07
2.81344e-07
5.57188e-07
1.09383e-06
2.12823e-06
4.10339e-06
7.8389e-06
1.48349e-05
2.78074e-05
5.16182e-05
9.48711e-05
0.000172612
0.000310829
0.000553859
0.000976345
0.00170229
0.00293482
0.00500188
0.00842498
0.0140204
0.0230449
0.0373996
0.0599083
0.0946836
0.147592
0.226816
0.3435
0.512429
0.752674
1.08808
1.54744
2.16424
2.97577
4.02148
5.34078
6.97019
8.94034
11.2733
13.9802
17.0607
20.5024
24.2825
28.37
32.7291
37.3233
42.1169
47.0773
52.1749
57.3839
62.6818
68.0496
73.471
78.9322
84.4215
89.9292
95.4471
100.968
106.486
111.997
117.495
122.977
128.44
133.881
139.298
144.688
150.049
155.381
160.68
165.947
171.179
176.375
181.534
186.656
191.739
196.783
201.786
206.748
211.669
216.547
221.382
226.174
230.922
235.625
240.284
244.897
249.465
253.987
258.463
262.893
267.276
271.613
275.903
280.146
284.342
288.491
292.594
296.649
300.657
304.618
308.533
312.4
316.221
319.995
323.722
327.404
331.038
334.627
338.17
341.666
345.117
348.523
351.883
355.199
358.469
361.695
364.876
368.012
371.105
374.154
377.159
380.121
383.04
385.915
388.748
391.539
394.287
396.993
399.658
402.281
404.863
407.404
409.904
412.363
414.783
417.162
419.502
421.802
424.063
426.284
428.468
430.612
432.719
434.787
436.818
438.811
440.767
442.687
444.569
446.415
448.225
449.999
451.738
453.441
455.108
456.741
458.34
459.903
461.433
462.929
464.391
465.82
467.216
468.578
469.909
471.206
472.472
473.706
474.908
476.079
477.218
478.327
479.405
480.452
481.47
482.457
483.415
484.343
485.242
486.112
486.953
487.766
488.551
489.307
490.036
490.737
491.411
492.058
492.678
493.271
493.838
494.379
494.893
495.382
495.846
496.284
496.698
497.086
497.45
497.79
498.105
498.397
498.665
498.909
499.131
499.329
499.505
499.658
499.789
499.898
499.985
500.052
500.097
500.123
500.128
500.115
500.084
500.037
499.975
499.899
499.814
499.722
499.626
499.532
499.445
499.369
499.31
499.27
499.252
499.255
499.276
499.309
499.345
499.375
499.393
499.391
499.368
499.324
499.262
499.188
499.11
499.037
498.977
498.939
498.929
498.953
499.012
499.102
499.216
499.343
499.467
499.573
499.645
499.672
499.65
499.58
499.471
499.338
499.197
499.066
498.962
498.897
498.879
498.911
498.986
499.095
499.22
499.343
499.444
499.507
499.524
499.492
499.418
499.315
499.2
499.092
499.008
498.96
498.953
498.985
499.049
499.129
499.21
499.275
499.312
499.315
499.284
499.225
499.152
499.077
499.016
498.976
498.964
498.978
499.011
499.052
499.089
499.112
499.115
499.096
499.058
499.01
498.96
498.917
498.887
498.873
498.872
498.879
498.886
498.887
498.875
498.851
498.814
498.77
498.724
498.681
498.644
498.612
498.584
498.555
498.521
498.477
498.421
498.354
498.278
498.195
498.107
498.011
497.897
497.742
497.504
497.108
496.439
495.327
493.544
490.802
486.78
481.151
473.64
464.084
452.481
439.027
424.112
408.285
392.191
376.494
361.806
348.635
337.345
328.139
321.066
316.029
312.811
311.106
310.554
310.784
311.451
312.271
313.04
313.642
314.035
314.234
314.285
314.245
314.164
314.081
314.014
313.973
313.955
313.954
313.961
313.971
313.98
313.986
313.989
313.99
313.99
313.99
313.991
313.991
313.993
313.994
313.996
313.998
314
314.002
314.003
314.005
314.006
314.007
314.008
314.009
314.01
314.011
314.012
314.013
314.014
314.014
314.015
314.016
314.017
314.017
314.018
314.019
314.019
314.02
314.02
314.021
314.022
314.022
314.023
314.023
314.024
314.025
314.025
314.026
314.027
314.028
314.028
314.029
314.03
314.031
314.032
314.032
314.033
314.034
314.035
314.036
314.037
314.038
314.039
314.04
314.042
314.042
314.044
314.045
314.045
314.044
314.048
314.048
314.037
314.045
314.065
314.018
313.973
314.102
314.081
313.645
313.887
314.769
313.161
311.341
316.549
316.883
299.487
307.655
351.295
274.957
108.747
25.1743
4.30506
0.694273
0.114553
0.0189589
0.00313723
0.000519042
8.58696e-05
1.4206e-05
2.3502e-06
3.88809e-07
6.43226e-08
1.06407e-08
1.75975e-09
2.90437e-10
4.74022e-11
7.17012e-12
1.34093e-13
-1.15808e-12
-1.3502e-12
-1.21212e-12
-1.12813e-12
-1.11094e-12
-1.13509e-12
-1.1871e-12
-1.24018e-12
-1.28157e-12
-1.28578e-12
-1.25545e-12
-1.38584e-12
-1.36232e-12
-1.25568e-12
-1.22238e-12
-1.17156e-12
-9.69429e-13
-9.61615e-13
-9.69261e-13
-9.307e-13
-9.60508e-13
-1.04262e-12
-1.0798e-12
-1.01415e-12
-1.02478e-12
-8.3874e-13
-8.93923e-13
-8.37934e-13
-8.21172e-13
-7.62254e-13
-9.06091e-13
-8.32419e-13
-9.0369e-13
-9.81443e-13
-9.56103e-13
-1.08787e-12
-1.01311e-12
-1.09032e-12
-1.1527e-12
-1.01616e-12
-1.03181e-12
-1.10359e-12
-1.2332e-12
-1.2741e-12
-1.24186e-12
-1.36737e-12
-1.3488e-12
-1.17911e-12
-9.51643e-13
-9.43492e-13
-8.84486e-13
-8.63401e-13
-5.12558e-13
-3.84252e-13
-5.42614e-13
-2.62214e-13
-2.73851e-13
-2.54741e-13
-2.23524e-13
-2.11616e-13
-3.81736e-13
-4.10818e-13
-2.1338e-13
-2.02388e-13
-1.97251e-13
-2.70892e-13
-2.55237e-13
-3.04302e-13
-3.88824e-13
-3.61678e-13
-4.37631e-13
-5.03627e-13
-4.7447e-13
-5.99121e-13
-5.62083e-13
-5.69112e-13
-5.62881e-13
-4.6666e-13
-4.10511e-13
-4.37011e-13
-2.33722e-13
-2.21469e-13
-5.15972e-14
-9.16346e-14
-1.15351e-13
-4.21673e-14
2.71779e-14
2.10687e-13
1.13897e-13
1.47314e-13
4.04812e-14
-1.36429e-14
-2.24268e-13
-4.28603e-13
-4.1802e-13
-4.71263e-13
-5.47673e-13
-4.52706e-13
-4.22831e-13
-6.23268e-13
-6.78565e-13
-8.20683e-13
-8.33375e-13
-7.64659e-13
-7.80576e-13
-7.13442e-13
-5.88388e-13
-5.08969e-13
-4.61335e-13
-4.19628e-13
-2.89476e-13
-2.86015e-13
-1.84608e-13
-1.53408e-13
-2.32801e-13
-3.14105e-13
-2.80027e-13
-1.70127e-13
-2.96665e-13
-2.85737e-13
-2.34479e-13
-3.46611e-13
-3.29508e-13
-2.37842e-13
-3.21898e-13
-2.96753e-13
-4.16674e-13
-3.50319e-13
-3.56481e-13
-3.58089e-13
-3.50346e-13
-3.53212e-13
-3.50421e-13
-2.93427e-13
-2.39449e-13
-4.54682e-13
-4.82803e-13
-3.451e-13
-3.95596e-13
-3.4032e-13
-2.1656e-13
-9.94177e-14
-2.48637e-13
-4.22898e-13
-6.28782e-13
-7.92381e-13
-8.69195e-13
-7.71016e-13
-9.02392e-13
-9.48852e-13
-1.12078e-12
-1.10461e-12
-1.13924e-12
-1.19189e-12
-1.07359e-12
-9.41184e-13
-8.04802e-13
-5.78256e-13
-2.45495e-13
-1.28008e-13
-2.87827e-15
-1.6159e-14
1.6356e-14
-9.07129e-14
-2.00772e-13
-3.42637e-13
-2.47206e-13
-2.36915e-13
-4.27438e-13
-3.31709e-13
-4.69654e-13
-4.25578e-13
-4.79824e-13
-6.26595e-13
-7.19896e-13
-7.59175e-13
-7.62582e-13
-6.03661e-13
-6.22895e-13
-6.86915e-13
-6.1206e-13
-6.14483e-13
-4.94718e-13
-5.29434e-13
-3.6006e-13
-4.29028e-13
-2.73368e-13
-3.66811e-13
-3.17587e-13
-3.44662e-13
-3.42331e-13
-4.14321e-13
-4.81211e-13
-4.86488e-13
-5.86726e-13
-7.23103e-13
-8.35152e-13
-1.00181e-12
-1.01149e-12
-1.10385e-12
-1.14001e-12
-1.30401e-12
-1.2757e-12
-1.30408e-12
-1.37548e-12
-1.58988e-12
-1.58133e-12
-1.73615e-12
-1.62089e-12
-1.63945e-12
-1.55866e-12
-1.41866e-12
-1.38102e-12
-1.37731e-12
-1.22665e-12
-1.03996e-12
-9.30393e-13
-7.87884e-13
-7.24623e-13
-6.72824e-13
-7.01348e-13
-6.45165e-13
-6.61775e-13
-7.78502e-13
-7.159e-13
-6.3455e-13
-6.35697e-13
-5.04247e-13
-5.84116e-13
-5.33816e-13
-4.3515e-13
-3.33224e-13
-4.29564e-13
-5.20101e-13
-4.60321e-13
)
;

boundaryField
{
    sides
    {
        type            calculated;
        value           nonuniform List<scalar> 2(-4.1473e-13 8.90577e-12);
    }
    empty
    {
        type            empty;
    }
}


// ************************************************************************* //
