/*--------------------------------*- C++ -*----------------------------------*\
  =========                 |
  \\      /  F ield         | OpenFOAM: The Open Source CFD Toolbox
   \\    /   O peration     | Website:  https://openfoam.org
    \\  /    A nd           | Version:  13
     \\/     M anipulation  |
\*---------------------------------------------------------------------------*/
FoamFile
{
    format      ascii;
    class       volScalarField;
    location    "0.0045";
    object      rho;
}
// * * * * * * * * * * * * * * * * * * * * * * * * * * * * * * * * * * * * * //

dimensions      [1 -3 0 0 0 0 0];

internalField   nonuniform List<scalar> 
1000
(
0.997575
0.997575
0.997575
0.997575
0.997575
0.997575
0.997575
0.997575
0.997575
0.997575
0.997575
0.997575
0.997575
0.997575
0.997575
0.997575
0.997575
0.997575
0.997575
0.997575
0.997575
0.997575
0.997575
0.997575
0.997575
0.997575
0.997575
0.997575
0.997575
0.997575
0.997575
0.997575
0.997575
0.997575
0.997575
0.997575
0.997575
0.997575
0.997575
0.997575
0.997575
0.997575
0.997575
0.997575
0.997575
0.997575
0.997575
0.997575
0.997575
0.997575
0.997575
0.997575
0.997575
0.997575
0.997575
0.997575
0.997575
0.997575
0.997575
0.997575
0.997575
0.997575
0.997575
0.997575
0.997575
0.997575
0.997575
0.997575
0.997575
0.997575
0.997575
0.997575
0.997575
0.997575
0.997575
0.997575
0.997575
0.997575
0.997575
0.997575
0.997575
0.997575
0.997575
0.997575
0.997575
0.997575
0.997575
0.997575
0.997575
0.997575
0.997575
0.997575
0.997575
0.997575
0.997575
0.997575
0.997575
0.997575
0.997575
0.997575
0.997575
0.997575
0.997575
0.997575
0.997575
0.997575
0.997575
0.997575
0.997575
0.997575
0.997575
0.997575
0.997575
0.997575
0.997575
0.997575
0.997575
0.997575
0.997575
0.997575
0.997575
0.997575
0.997575
0.997575
0.997575
0.997575
0.997575
0.997575
0.997575
0.997575
0.997575
0.997575
0.997575
0.997575
0.997575
0.997575
0.997575
0.997575
0.997575
0.997575
0.997575
0.997575
0.997575
0.997575
0.997575
0.997575
0.997575
0.997575
0.997575
0.997575
0.997575
0.997575
0.997575
0.997575
0.997575
0.997575
0.997575
0.997575
0.997575
0.997575
0.997575
0.997575
0.997575
0.997575
0.997575
0.997575
0.997575
0.997575
0.997575
0.997575
0.997575
0.997575
0.997575
0.997575
0.997575
0.997575
0.997575
0.997575
0.997575
0.997575
0.997575
0.997575
0.997575
0.997575
0.997575
0.997575
0.997575
0.997575
0.997575
0.997575
0.997575
0.997575
0.997575
0.997575
0.997575
0.997575
0.997575
0.997575
0.997575
0.997575
0.997575
0.997575
0.997575
0.997575
0.997575
0.997575
0.997575
0.997575
0.997575
0.997575
0.997575
0.997575
0.997575
0.997575
0.997575
0.997575
0.997575
0.997575
0.997575
0.997575
0.997575
0.997575
0.997575
0.997575
0.997575
0.997575
0.997575
0.997575
0.997575
0.997575
0.997575
0.997575
0.997575
0.997575
0.997575
0.997575
0.997575
0.997575
0.997575
0.997575
0.997575
0.997575
0.997575
0.997575
0.997575
0.997575
0.997575
0.997575
0.997575
0.997575
0.997575
0.997575
0.997575
0.997575
0.997575
0.997575
0.997575
0.997575
0.997575
0.997575
0.997575
0.997575
0.997575
0.997575
0.997575
0.997575
0.997575
0.997575
0.997575
0.997575
0.997575
0.997575
0.997575
0.997575
0.997575
0.997575
0.997575
0.997575
0.997575
0.997575
0.997575
0.997575
0.997575
0.997575
0.997575
0.997575
0.997575
0.997575
0.997575
0.997575
0.997575
0.997575
0.997575
0.997575
0.997575
0.997575
0.997575
0.997575
0.997574
0.997574
0.997574
0.997574
0.997574
0.997573
0.997573
0.997571
0.997569
0.997566
0.99756
0.997551
0.997537
0.997515
0.997481
0.997431
0.997357
0.997249
0.997095
0.996881
0.996586
0.996188
0.995664
0.994987
0.994129
0.993067
0.991777
0.990243
0.988457
0.986415
0.984123
0.981593
0.978844
0.975897
0.972775
0.969501
0.966094
0.962574
0.958958
0.95526
0.951492
0.947665
0.943788
0.939869
0.935914
0.931928
0.927917
0.923884
0.919833
0.915766
0.911686
0.907596
0.903496
0.89939
0.895278
0.891161
0.887042
0.88292
0.878798
0.874676
0.870554
0.866435
0.862318
0.858204
0.854094
0.849989
0.845888
0.841794
0.837706
0.833625
0.829552
0.825486
0.821428
0.81738
0.81334
0.80931
0.80529
0.801281
0.797281
0.793293
0.789316
0.78535
0.781396
0.777453
0.773523
0.769605
0.765699
0.761806
0.757926
0.754058
0.750204
0.746363
0.742535
0.73872
0.734919
0.731131
0.727357
0.723597
0.71985
0.716117
0.712398
0.708693
0.705002
0.701324
0.697661
0.694012
0.690377
0.686756
0.683149
0.679556
0.675977
0.672413
0.668863
0.665326
0.661804
0.658297
0.654803
0.651324
0.647859
0.644408
0.640971
0.637548
0.63414
0.630746
0.627365
0.624
0.620648
0.61731
0.613987
0.610677
0.607382
0.604101
0.600834
0.597581
0.594342
0.591117
0.587906
0.58471
0.581527
0.578358
0.575203
0.572063
0.568936
0.565823
0.562725
0.55964
0.556569
0.553512
0.550469
0.54744
0.544426
0.541425
0.538438
0.535465
0.532506
0.529561
0.52663
0.523713
0.52081
0.517922
0.515047
0.512187
0.509341
0.506509
0.503692
0.500889
0.498101
0.495327
0.492568
0.489825
0.487096
0.484382
0.481684
0.479001
0.476334
0.473683
0.471049
0.468431
0.465831
0.463248
0.460684
0.458138
0.455611
0.453105
0.450621
0.448158
0.445719
0.443305
0.440918
0.438559
0.436232
0.433939
0.431683
0.429468
0.427299
0.425181
0.423122
0.421129
0.419212
0.417383
0.415655
0.414045
0.412574
0.411264
0.410143
0.409245
0.408606
0.408268
0.408277
0.40868
0.409523
0.410844
0.412669
0.414998
0.417794
0.420978
0.424416
0.42792
0.431262
0.434191
0.436462
0.437882
0.438337
0.437813
0.436403
0.434278
0.431667
0.428818
0.425975
0.42336
0.42116
0.419522
0.418548
0.418288
0.418742
0.419851
0.421504
0.423535
0.425734
0.42787
0.429713
0.431064
0.431785
0.431827
0.431229
0.430113
0.428656
0.427064
0.425541
0.424265
0.423375
0.422954
0.423022
0.423536
0.424398
0.425468
0.426581
0.427576
0.428312
0.428699
0.428705
0.428362
0.427755
0.427005
0.426243
0.425592
0.425146
0.424959
0.425037
0.425343
0.425801
0.426317
0.426791
0.427141
0.427313
0.427291
0.4271
0.426793
0.426441
0.426117
0.425881
0.425769
0.42579
0.425922
0.426124
0.426343
0.426527
0.426639
0.426659
0.426592
0.426461
0.426303
0.426154
0.426046
0.425997
0.426008
0.426065
0.426144
0.426217
0.426263
0.426267
0.42623
0.426162
0.426079
0.426
0.42594
0.425904
0.425891
0.425892
0.425893
0.425882
0.425851
0.425798
0.425727
0.425645
0.42556
0.425477
0.425393
0.425295
0.425157
0.424933
0.424549
0.423895
0.422816
0.421108
0.418522
0.41478
0.409614
0.402809
0.394254
0.383987
0.372214
0.359303
0.345741
0.332083
0.318886
0.306652
0.295782
0.286554
0.279108
0.273456
0.269492
0.267015
0.265754
0.265406
0.265659
0.266235
0.266909
0.267523
0.267992
0.26829
0.268434
0.268464
0.268426
0.26836
0.268294
0.268243
0.268212
0.2682
0.268199
0.268205
0.268213
0.26822
0.268224
0.268227
0.268228
0.268228
0.268228
0.268228
0.268229
0.26823
0.268231
0.268233
0.268234
0.268236
0.268237
0.268238
0.26824
0.26824
0.268241
0.268242
0.268243
0.268244
0.268244
0.268245
0.268245
0.268246
0.268246
0.268247
0.268247
0.268248
0.268248
0.268248
0.268249
0.268249
0.268249
0.26825
0.26825
0.26825
0.26825
0.268251
0.268251
0.268251
0.268252
0.268252
0.268252
0.268253
0.268253
0.268254
0.268254
0.268254
0.268255
0.268255
0.268256
0.268256
0.268257
0.268257
0.268257
0.268258
0.268258
0.268259
0.268259
0.26826
0.26826
0.26826
0.268261
0.268261
0.268261
0.268263
0.268262
0.268258
0.268259
0.268267
0.268251
0.268232
0.268276
0.268279
0.26812
0.268168
0.268496
0.267984
0.267202
0.26891
0.269451
0.263247
0.264847
0.280657
0.256333
0.186035
0.141055
0.127747
0.125189
0.124777
0.12471
0.124699
0.124697
0.124697
0.124697
0.124697
0.124697
0.124697
0.124697
0.124697
0.124697
0.124697
0.124697
0.124697
0.124697
0.124697
0.124697
0.124697
0.124697
0.124697
0.124697
0.124697
0.124697
0.124697
0.124697
0.124697
0.124697
0.124697
0.124697
0.124697
0.124697
0.124697
0.124697
0.124697
0.124697
0.124697
0.124697
0.124697
0.124697
0.124697
0.124697
0.124697
0.124697
0.124697
0.124697
0.124697
0.124697
0.124697
0.124697
0.124697
0.124697
0.124697
0.124697
0.124697
0.124697
0.124697
0.124697
0.124697
0.124697
0.124697
0.124697
0.124697
0.124697
0.124697
0.124697
0.124697
0.124697
0.124697
0.124697
0.124697
0.124697
0.124697
0.124697
0.124697
0.124697
0.124697
0.124697
0.124697
0.124697
0.124697
0.124697
0.124697
0.124697
0.124697
0.124697
0.124697
0.124697
0.124697
0.124697
0.124697
0.124697
0.124697
0.124697
0.124697
0.124697
0.124697
0.124697
0.124697
0.124697
0.124697
0.124697
0.124697
0.124697
0.124697
0.124697
0.124697
0.124697
0.124697
0.124697
0.124697
0.124697
0.124697
0.124697
0.124697
0.124697
0.124697
0.124697
0.124697
0.124697
0.124697
0.124697
0.124697
0.124697
0.124697
0.124697
0.124697
0.124697
0.124697
0.124697
0.124697
0.124697
0.124697
0.124697
0.124697
0.124697
0.124697
0.124697
0.124697
0.124697
0.124697
0.124697
0.124697
0.124697
0.124697
0.124697
0.124697
0.124697
0.124697
0.124697
0.124697
0.124697
0.124697
0.124697
0.124697
0.124697
0.124697
0.124697
0.124697
0.124697
0.124697
0.124697
0.124697
0.124697
0.124697
0.124697
0.124697
0.124697
0.124697
0.124697
0.124697
0.124697
0.124697
0.124697
0.124697
0.124697
0.124697
0.124697
0.124697
0.124697
0.124697
0.124697
0.124697
0.124697
0.124697
0.124697
0.124697
0.124697
0.124697
0.124697
0.124697
0.124697
0.124697
0.124697
0.124697
0.124697
0.124697
0.124697
0.124697
0.124697
0.124697
0.124697
0.124697
0.124697
0.124697
0.124697
0.124697
0.124697
0.124697
0.124697
0.124697
0.124697
0.124697
0.124697
0.124697
0.124697
0.124697
0.124697
0.124697
0.124697
0.124697
0.124697
0.124697
0.124697
0.124697
0.124697
0.124697
0.124697
0.124697
0.124697
0.124697
0.124697
0.124697
0.124697
0.124697
0.124697
0.124697
0.124697
0.124697
0.124697
0.124697
0.124697
0.124697
0.124697
0.124697
0.124697
0.124697
0.124697
0.124697
0.124697
)
;

boundaryField
{
    sides
    {
        type            calculated;
        value           nonuniform List<scalar> 2(0.124697 0.997575);
    }
    empty
    {
        type            empty;
    }
}


// ************************************************************************* //
