/*--------------------------------*- C++ -*----------------------------------*\
  =========                 |
  \\      /  F ield         | OpenFOAM: The Open Source CFD Toolbox
   \\    /   O peration     | Website:  https://openfoam.org
    \\  /    A nd           | Version:  13
     \\/     M anipulation  |
\*---------------------------------------------------------------------------*/
FoamFile
{
    format      ascii;
    class       volScalarField;
    location    "0.0045";
    object      rho_0;
}
// * * * * * * * * * * * * * * * * * * * * * * * * * * * * * * * * * * * * * //

dimensions      [1 -3 0 0 0 0 0];

internalField   nonuniform List<scalar> 
1000
(
0.997575
0.997575
0.997575
0.997575
0.997575
0.997575
0.997575
0.997575
0.997575
0.997575
0.997575
0.997575
0.997575
0.997575
0.997575
0.997575
0.997575
0.997575
0.997575
0.997575
0.997575
0.997575
0.997575
0.997575
0.997575
0.997575
0.997575
0.997575
0.997575
0.997575
0.997575
0.997575
0.997575
0.997575
0.997575
0.997575
0.997575
0.997575
0.997575
0.997575
0.997575
0.997575
0.997575
0.997575
0.997575
0.997575
0.997575
0.997575
0.997575
0.997575
0.997575
0.997575
0.997575
0.997575
0.997575
0.997575
0.997575
0.997575
0.997575
0.997575
0.997575
0.997575
0.997575
0.997575
0.997575
0.997575
0.997575
0.997575
0.997575
0.997575
0.997575
0.997575
0.997575
0.997575
0.997575
0.997575
0.997575
0.997575
0.997575
0.997575
0.997575
0.997575
0.997575
0.997575
0.997575
0.997575
0.997575
0.997575
0.997575
0.997575
0.997575
0.997575
0.997575
0.997575
0.997575
0.997575
0.997575
0.997575
0.997575
0.997575
0.997575
0.997575
0.997575
0.997575
0.997575
0.997575
0.997575
0.997575
0.997575
0.997575
0.997575
0.997575
0.997575
0.997575
0.997575
0.997575
0.997575
0.997575
0.997575
0.997575
0.997575
0.997575
0.997575
0.997575
0.997575
0.997575
0.997575
0.997575
0.997575
0.997575
0.997575
0.997575
0.997575
0.997575
0.997575
0.997575
0.997575
0.997575
0.997575
0.997575
0.997575
0.997575
0.997575
0.997575
0.997575
0.997575
0.997575
0.997575
0.997575
0.997575
0.997575
0.997575
0.997575
0.997575
0.997575
0.997575
0.997575
0.997575
0.997575
0.997575
0.997575
0.997575
0.997575
0.997575
0.997575
0.997575
0.997575
0.997575
0.997575
0.997575
0.997575
0.997575
0.997575
0.997575
0.997575
0.997575
0.997575
0.997575
0.997575
0.997575
0.997575
0.997575
0.997575
0.997575
0.997575
0.997575
0.997575
0.997575
0.997575
0.997575
0.997575
0.997575
0.997575
0.997575
0.997575
0.997575
0.997575
0.997575
0.997575
0.997575
0.997575
0.997575
0.997575
0.997575
0.997575
0.997575
0.997575
0.997575
0.997575
0.997575
0.997575
0.997575
0.997575
0.997575
0.997575
0.997575
0.997575
0.997575
0.997575
0.997575
0.997575
0.997575
0.997575
0.997575
0.997575
0.997575
0.997575
0.997575
0.997575
0.997575
0.997575
0.997575
0.997575
0.997575
0.997575
0.997575
0.997575
0.997575
0.997575
0.997575
0.997575
0.997575
0.997575
0.997575
0.997575
0.997575
0.997575
0.997575
0.997575
0.997575
0.997575
0.997575
0.997575
0.997575
0.997575
0.997575
0.997575
0.997575
0.997575
0.997575
0.997575
0.997575
0.997575
0.997575
0.997575
0.997575
0.997575
0.997575
0.997575
0.997575
0.997575
0.997575
0.997575
0.997575
0.997575
0.997575
0.997575
0.997575
0.997575
0.997575
0.997575
0.997575
0.997575
0.997575
0.997575
0.997575
0.997575
0.997575
0.997575
0.997575
0.997575
0.997575
0.997575
0.997575
0.997575
0.997575
0.997575
0.997575
0.997575
0.997574
0.997574
0.997574
0.997574
0.997574
0.997573
0.997572
0.99757
0.997567
0.997563
0.997555
0.997543
0.997525
0.997496
0.997453
0.997389
0.997295
0.997161
0.996972
0.99671
0.996354
0.995881
0.995265
0.994478
0.993495
0.992291
0.990849
0.989156
0.987207
0.985004
0.982556
0.979882
0.977001
0.973935
0.970708
0.967342
0.963854
0.960264
0.956587
0.952836
0.949021
0.945153
0.941241
0.93729
0.933306
0.929295
0.925262
0.921208
0.917138
0.913054
0.908959
0.904854
0.900741
0.896622
0.892498
0.888371
0.884242
0.880111
0.87598
0.87185
0.867721
0.863594
0.859471
0.855351
0.851236
0.847125
0.84302
0.838922
0.83483
0.830746
0.826669
0.8226
0.818541
0.81449
0.810449
0.806417
0.802396
0.798385
0.794385
0.790396
0.786419
0.782453
0.778499
0.774557
0.770627
0.766709
0.762805
0.758913
0.755034
0.751168
0.747315
0.743475
0.739649
0.735836
0.732037
0.728251
0.724479
0.720721
0.716977
0.713246
0.70953
0.705827
0.702139
0.698465
0.694804
0.691158
0.687526
0.683908
0.680305
0.676715
0.67314
0.669579
0.666032
0.6625
0.658981
0.655477
0.651988
0.648512
0.645051
0.641604
0.638171
0.634753
0.631348
0.627958
0.624582
0.621221
0.617873
0.61454
0.611221
0.607916
0.604626
0.601349
0.598087
0.594839
0.591605
0.588385
0.585179
0.581987
0.578809
0.575646
0.572496
0.56936
0.566239
0.563132
0.560038
0.556959
0.553893
0.550842
0.547805
0.544782
0.541772
0.538777
0.535796
0.532829
0.529876
0.526937
0.524013
0.521102
0.518206
0.515323
0.512456
0.509602
0.506763
0.503938
0.501128
0.498332
0.495551
0.492785
0.490034
0.487298
0.484577
0.481872
0.479182
0.476509
0.473851
0.47121
0.468586
0.465979
0.463389
0.460818
0.458266
0.455733
0.453221
0.45073
0.448261
0.445816
0.443396
0.441002
0.438638
0.436305
0.434005
0.431743
0.429523
0.427348
0.425225
0.42316
0.421162
0.419239
0.417405
0.415671
0.414057
0.41258
0.411265
0.41014
0.409237
0.408594
0.408252
0.408258
0.408658
0.409499
0.41082
0.412646
0.414976
0.417775
0.420963
0.424406
0.427915
0.431263
0.434196
0.436471
0.437891
0.438344
0.437818
0.436403
0.434273
0.431656
0.428802
0.425957
0.42334
0.421142
0.419507
0.418538
0.418286
0.418747
0.419866
0.421527
0.423563
0.425765
0.427901
0.42974
0.431082
0.431792
0.431821
0.431212
0.430086
0.428623
0.427029
0.425508
0.424239
0.423359
0.42295
0.423029
0.423555
0.424425
0.425499
0.426612
0.427601
0.428329
0.428704
0.428698
0.428344
0.42773
0.426976
0.426216
0.42557
0.425133
0.424957
0.425045
0.425359
0.425821
0.426337
0.426807
0.42715
0.427314
0.427284
0.427086
0.426775
0.426423
0.426101
0.425871
0.425766
0.425793
0.42593
0.426134
0.426352
0.426533
0.42664
0.426655
0.426583
0.426449
0.42629
0.426143
0.426038
0.425993
0.426008
0.426067
0.426145
0.426217
0.42626
0.426261
0.426222
0.426151
0.426068
0.42599
0.42593
0.425896
0.425884
0.425885
0.425885
0.425871
0.425838
0.425782
0.425709
0.425625
0.425539
0.425454
0.425365
0.425259
0.425102
0.424843
0.424397
0.423641
0.422407
0.420474
0.417583
0.413456
0.407832
0.400521
0.391452
0.38071
0.36855
0.355382
0.341721
0.32813
0.315157
0.303279
0.292864
0.284148
0.277236
0.272099
0.268602
0.266519
0.265565
0.26543
0.265809
0.266437
0.267106
0.267683
0.268101
0.268349
0.268454
0.268458
0.268407
0.268339
0.268276
0.268231
0.268207
0.268199
0.268201
0.268208
0.268216
0.268222
0.268225
0.268227
0.268228
0.268228
0.268228
0.268228
0.268229
0.26823
0.268232
0.268233
0.268235
0.268236
0.268238
0.268239
0.26824
0.268241
0.268242
0.268242
0.268243
0.268244
0.268244
0.268245
0.268246
0.268246
0.268247
0.268247
0.268248
0.268248
0.268248
0.268249
0.268249
0.268249
0.26825
0.26825
0.26825
0.26825
0.268251
0.268251
0.268251
0.268252
0.268252
0.268252
0.268253
0.268253
0.268253
0.268254
0.268254
0.268255
0.268255
0.268255
0.268256
0.268256
0.268257
0.268257
0.268258
0.268258
0.268259
0.268259
0.26826
0.26826
0.26826
0.268261
0.268261
0.268261
0.268262
0.268263
0.26826
0.268258
0.268264
0.268262
0.268236
0.268248
0.268297
0.268201
0.268089
0.268371
0.268379
0.267388
0.267812
0.26994
0.266528
0.261613
0.27402
0.276109
0.218432
0.156226
0.131439
0.125824
0.12488
0.124727
0.124702
0.124697
0.124697
0.124697
0.124697
0.124697
0.124697
0.124697
0.124697
0.124697
0.124697
0.124697
0.124697
0.124697
0.124697
0.124697
0.124697
0.124697
0.124697
0.124697
0.124697
0.124697
0.124697
0.124697
0.124697
0.124697
0.124697
0.124697
0.124697
0.124697
0.124697
0.124697
0.124697
0.124697
0.124697
0.124697
0.124697
0.124697
0.124697
0.124697
0.124697
0.124697
0.124697
0.124697
0.124697
0.124697
0.124697
0.124697
0.124697
0.124697
0.124697
0.124697
0.124697
0.124697
0.124697
0.124697
0.124697
0.124697
0.124697
0.124697
0.124697
0.124697
0.124697
0.124697
0.124697
0.124697
0.124697
0.124697
0.124697
0.124697
0.124697
0.124697
0.124697
0.124697
0.124697
0.124697
0.124697
0.124697
0.124697
0.124697
0.124697
0.124697
0.124697
0.124697
0.124697
0.124697
0.124697
0.124697
0.124697
0.124697
0.124697
0.124697
0.124697
0.124697
0.124697
0.124697
0.124697
0.124697
0.124697
0.124697
0.124697
0.124697
0.124697
0.124697
0.124697
0.124697
0.124697
0.124697
0.124697
0.124697
0.124697
0.124697
0.124697
0.124697
0.124697
0.124697
0.124697
0.124697
0.124697
0.124697
0.124697
0.124697
0.124697
0.124697
0.124697
0.124697
0.124697
0.124697
0.124697
0.124697
0.124697
0.124697
0.124697
0.124697
0.124697
0.124697
0.124697
0.124697
0.124697
0.124697
0.124697
0.124697
0.124697
0.124697
0.124697
0.124697
0.124697
0.124697
0.124697
0.124697
0.124697
0.124697
0.124697
0.124697
0.124697
0.124697
0.124697
0.124697
0.124697
0.124697
0.124697
0.124697
0.124697
0.124697
0.124697
0.124697
0.124697
0.124697
0.124697
0.124697
0.124697
0.124697
0.124697
0.124697
0.124697
0.124697
0.124697
0.124697
0.124697
0.124697
0.124697
0.124697
0.124697
0.124697
0.124697
0.124697
0.124697
0.124697
0.124697
0.124697
0.124697
0.124697
0.124697
0.124697
0.124697
0.124697
0.124697
0.124697
0.124697
0.124697
0.124697
0.124697
0.124697
0.124697
0.124697
0.124697
0.124697
0.124697
0.124697
0.124697
0.124697
0.124697
0.124697
0.124697
0.124697
0.124697
0.124697
0.124697
0.124697
0.124697
0.124697
0.124697
0.124697
0.124697
0.124697
0.124697
0.124697
0.124697
0.124697
0.124697
0.124697
0.124697
0.124697
0.124697
0.124697
0.124697
0.124697
0.124697
0.124697
0.124697
0.124697
0.124697
0.124697
0.124697
0.124697
0.124697
0.124697
0.124697
0.124697
)
;

boundaryField
{
    sides
    {
        type            calculated;
        value           nonuniform List<scalar> 2(0.124697 0.997575);
    }
    empty
    {
        type            empty;
    }
}


// ************************************************************************* //
