/*--------------------------------*- C++ -*----------------------------------*\
  =========                 |
  \\      /  F ield         | OpenFOAM: The Open Source CFD Toolbox
   \\    /   O peration     | Website:  https://openfoam.org
    \\  /    A nd           | Version:  13
     \\/     M anipulation  |
\*---------------------------------------------------------------------------*/
FoamFile
{
    format      ascii;
    class       volVectorField;
    location    "13.403412";
    object      wallShearStress;
}
// * * * * * * * * * * * * * * * * * * * * * * * * * * * * * * * * * * * * * //

dimensions      [0 2 -2 0 0 0 0];

internalField   uniform (0 0 0);

boundaryField
{
    inlet
    {
        type            calculated;
        value           uniform (0 0 0);
    }
    outlet
    {
        type            calculated;
        value           uniform (0 0 0);
    }
    cylinder
    {
        type            calculated;
        value           nonuniform List<vector> 
132
(
(4.4733361e-05 0.00090391498 -1.0204466e-22)
(0.00022113187 -0.0040103135 2.9058101e-23)
(0.00066686493 -0.008866873 1.6495102e-21)
(0.0013712715 -0.013510955 -5.7889701e-21)
(0.00230544 -0.017784025 4.3431321e-21)
(0.003422936 -0.021532849 1.4260321e-20)
(0.0046601503 -0.024615403 -2.919693e-21)
(0.0059381418 -0.026913929 -1.2507111e-20)
(0.007171001 -0.028340711 1.2702884e-20)
(0.0082667207 -0.028846336 -3.0486122e-20)
(0.0091359791 -0.028426853 -5.882769e-22)
(0.0097002115 -0.027127756 2.1104717e-20)
(0.0099005803 -0.025046214 3.5754083e-20)
(0.0097068735 -0.022329712 -2.9836961e-20)
(0.0091239886 -0.019167549 3.1936797e-20)
(0.0081950014 -0.015776715 5.1752577e-20)
(0.0069987196 -0.012380646 -3.3862374e-20)
(0.005639234 -0.0091865991 5.3890314e-20)
(0.0042325214 -0.0063608582 7.0375494e-20)
(0.0028892873 -0.0040118107 -4.4974021e-20)
(0.0016950088 -0.0021791999 -5.6430533e-20)
(0.00070534864 -0.00084708894 1.9496547e-23)
(-6.8300462e-05 6.1432482e-05 7.9516323e-21)
(-0.00062294533 0.00061465055 -9.4003835e-21)
(-0.0009701806 0.00088928209 -1.5808752e-20)
(-0.0010023479 0.00084857639 3.3435785e-21)
(-0.00073092521 0.00057283803 -2.9878198e-20)
(9.8993537e-05 -5.7561306e-05 7.9066334e-21)
(0.001316749 -0.00083177398 6.1811646e-21)
(0.0025657488 -0.001476604 -4.2559721e-20)
(0.0035612568 -0.001845003 5.5741904e-20)
(0.0041315075 -0.001905552 1.6943012e-21)
(0.0043971765 -0.0017816951 1.225765e-20)
(0.0045078999 -0.001577848 -1.4557113e-20)
(0.0045291999 -0.0013396185 4.6356034e-20)
(0.0043278363 -0.0010491838 -2.9404862e-21)
(0.0037130925 -0.00070536029 1.1911319e-20)
(0.0024644158 -0.00034332388 -1.6447424e-21)
(0.0003694965 -4.7051683e-05 2.3770447e-21)
(-0.0028176489 5.0354491e-05 -1.4959516e-21)
(-0.0074510374 -0.00025313875 2.8251378e-21)
(-0.013601473 -0.0012710976 -8.836133e-23)
(-0.020844407 -0.0032138106 3.2863918e-20)
(-0.028756698 -0.0062185936 -1.2846708e-20)
(-0.036766334 -0.010297439 1.1750049e-20)
(-0.044400272 -0.015371288 -7.6400789e-20)
(-0.051118176 -0.021224462 -1.2439004e-20)
(-0.05657575 -0.027593994 1.0996352e-19)
(-0.060525413 -0.034177636 -9.4039958e-20)
(-0.062849707 -0.040669285 -1.7917923e-21)
(-0.063524721 -0.046767921 2.8299483e-20)
(-0.062649772 -0.052228382 -2.5218631e-20)
(-0.060320038 -0.056787464 -4.7069644e-21)
(-0.056742495 -0.060273521 -2.6228279e-21)
(-0.052157245 -0.062566799 -1.5565935e-21)
(-0.046756955 -0.063513871 -6.3873411e-21)
(-0.0408191 -0.063088181 7.7276174e-22)
(-0.034583521 -0.061255092 5.5932136e-20)
(-0.028300713 -0.058040657 -8.1570948e-20)
(-0.022206445 -0.053502764 -8.4928165e-20)
(-0.016521047 -0.047735865 -3.3972941e-20)
(-0.011443853 -0.040867086 -7.7163361e-20)
(-0.0071485431 -0.033051856 1.7111589e-20)
(-0.0037771592 -0.024470533 2.4798141e-20)
(-0.0014456302 -0.01533701 -3.8444289e-20)
(-0.00021689475 -0.0058298885 -5.1286767e-21)
(0.00013483555 0.0057756031 -4.7824553e-22)
(0.00048714307 0.010548118 -2.963505e-23)
(0.0010949865 0.015117329 -1.798233e-21)
(0.0019351439 0.019333072 6.4632096e-21)
(0.0029678823 0.023048471 -4.9306404e-21)
(0.0041372069 0.026126543 -1.6337751e-20)
(0.0053717033 0.028451251 3.3542105e-21)
(0.0065918502 0.029933675 1.4333877e-20)
(0.0077111411 0.030518801 -1.4470733e-20)
(0.0086429972 0.030193342 3.4438956e-20)
(0.0093081574 0.028989784 6.5824686e-22)
(0.0096426787 0.026988886 -2.3368461e-20)
(0.009606578 0.024320422 -3.918748e-20)
(0.0091905294 0.0211566 3.2389319e-20)
(0.0084207306 0.017702056 -3.4371093e-20)
(0.0073582556 0.014174566 -5.5290558e-20)
(0.0060929529 0.010784937 3.5967477e-20)
(0.0047321712 0.0077143749 -5.7000738e-20)
(0.003384446 0.0050909812 -7.4239267e-20)
(0.0021452516 0.0029834774 4.7380693e-20)
(0.0010813445 0.0013957512 5.9431867e-20)
(0.00022448469 0.00027963656 5.2439749e-20)
(-0.00042130566 -0.00044625629 4.2504635e-20)
(-0.00086406285 -0.00085758208 9.9178615e-21)
(-0.001082071 -0.00099422138 1.668869e-20)
(-0.00097896023 -0.00083152329 -3.5307833e-21)
(-0.0004596059 -0.00036564317 3.1583031e-20)
(0.00054245288 0.00036953869 -8.3799792e-21)
(0.0018145326 0.0011513724 -6.5670904e-21)
(0.0029860447 0.001721733 4.5324542e-20)
(0.0038076261 0.001974719 -5.9414303e-20)
(0.0042352153 0.0019544833 -1.7956575e-21)
(0.0044256982 0.0017936627 2.97212e-20)
(0.0045111258 0.0015792684 1.5520746e-20)
(0.0044761753 0.0013245759 -4.9465427e-20)
(0.004155473 0.0010085941 3.1408821e-21)
(0.0033534129 0.00063916392 9.2872619e-21)
(0.0018459822 0.00026185229 1.7596781e-21)
(-0.00057171747 -2.5161848e-05 -2.5436744e-21)
(-0.004135931 -8.2633362e-05 1.5998443e-21)
(-0.0091910612 0.00031206101 -3.0162852e-21)
(-0.015752283 0.0014685916 2.4787205e-20)
(-0.023305257 0.0035898954 -3.4802417e-20)
(-0.031409489 0.0067890533 1.3528375e-20)
(-0.039490241 0.01105713 -1.2294302e-20)
(-0.047030803 0.016279217 7.9372282e-20)
(-0.053553313 0.022232796 1.2832571e-20)
(-0.058742356 0.028647238 -1.1257488e-19)
(-0.062363298 0.035212135 9.5526077e-20)
(-0.064348911 0.041636196 1.8041391e-21)
(-0.064670932 0.047608703 -2.819638e-20)
(-0.063475398 0.052913709 2.4778843e-20)
(-0.060831242 0.057265643 -3.6371198e-20)
(-0.056977387 0.060520141 2.3692999e-21)
(-0.052173739 0.062583588 -5.5655104e-22)
(-0.046580774 0.063271322 7.533617e-21)
(-0.040498597 0.06258935 -8.3895006e-22)
(-0.034160319 0.060501573 -5.9083942e-20)
(-0.027816129 0.057042235 8.4936401e-20)
(-0.021699597 0.052275922 8.7604911e-20)
(-0.01602723 0.046301618 3.4800752e-20)
(-0.010994637 0.039252433 7.8603553e-20)
(-0.0067703513 0.031286812 -1.7348396e-20)
(-0.0034912315 0.022590248 4.9651707e-20)
(-0.0012671159 0.013371378 3.8659527e-20)
(-0.00015823127 0.0038404516 5.1411681e-21)
)
;
    }
    frontAndBack
    {
        type            empty;
    }
}


// ************************************************************************* //
