/*--------------------------------*- C++ -*----------------------------------*\
  =========                 |
  \\      /  F ield         | OpenFOAM: The Open Source CFD Toolbox
   \\    /   O peration     | Website:  https://openfoam.org
    \\  /    A nd           | Version:  13
     \\/     M anipulation  |
\*---------------------------------------------------------------------------*/
FoamFile
{
    format      ascii;
    class       volScalarField;
    location    "0.1";
    object      mag(U);
}
// * * * * * * * * * * * * * * * * * * * * * * * * * * * * * * * * * * * * * //

dimensions      [0 1 -1 0 0 0 0];

internalField   nonuniform List<scalar> 
1000
(
28.1814
28.2337
28.3447
28.4864
28.6286
28.7533
28.8571
28.9481
29.0357
29.1259
29.2214
29.3219
29.4253
29.5292
29.632
29.733
29.8323
29.9307
30.0289
30.1274
30.2264
30.3257
30.4253
30.5247
30.624
30.7231
30.8219
30.9206
31.0193
31.118
31.2167
31.3155
31.4143
31.513
31.6118
31.7104
31.8091
31.9076
32.0061
32.1044
32.2027
32.3009
32.399
32.4969
32.5947
32.6924
32.7901
32.8876
32.9851
33.0826
33.1801
33.2777
33.3753
33.473
33.5707
33.6686
33.7665
33.8645
33.9625
34.0605
34.1585
34.2562
34.3539
34.4513
34.5472
34.6416
34.7352
34.8258
34.9118
34.9948
35.0774
35.1591
35.2419
35.3358
35.4432
35.5463
35.6391
35.7406
35.8518
35.9502
36.0436
36.1536
36.2607
36.3504
36.4488
36.5667
36.6679
36.7475
36.8475
36.9752
37.0796
37.1493
37.2424
37.3787
37.4953
37.5584
37.6353
37.7738
37.9107
37.9773
38.0346
38.1618
38.3147
38.409
38.4711
38.5835
38.7282
38.8202
38.8787
39.0001
39.1505
39.2168
39.2563
39.4015
39.5705
39.6095
39.6225
39.7862
39.9823
40.0075
39.9858
40.1479
40.3824
40.4304
40.3733
40.491
40.7526
40.8692
40.7982
40.8247
41.0758
41.303
41.2788
41.1974
41.3448
41.6432
41.7908
41.7085
41.6718
41.8919
42.1834
42.2464
42.1443
42.1867
42.4529
42.6701
42.6337
42.5739
42.7587
43.0332
43.0897
42.9981
43.0788
43.3571
43.5286
43.461
43.4331
43.6563
43.9097
43.9195
43.8453
43.9902
44.2638
44.3495
44.2677
44.3392
44.6118
44.7776
44.7087
44.6933
44.9331
45.1906
45.1857
45.0883
45.2193
45.5259
45.6855
45.5924
45.525
45.7266
46.054
46.1963
46.0906
46.0099
46.1951
46.5219
46.6795
46.5807
46.4943
46.6641
46.9944
47.1967
47.1212
47.0114
47.1559
47.4708
47.6448
47.5632
47.5163
47.7374
48.0143
48.0429
47.9508
48.0665
48.3529
48.4807
48.3944
48.4143
48.6779
48.8998
48.8552
48.7858
48.9788
49.2733
49.336
49.2232
49.2728
49.5617
49.7917
49.7374
49.6378
49.7992
50.1172
50.2603
50.1532
50.0956
50.3195
50.6365
50.7152
50.5883
50.5764
50.8375
51.1356
51.1575
51.0258
51.0729
51.3652
51.6206
51.5823
51.462
51.5841
51.8991
52.0858
51.9957
51.9083
52.0997
52.4214
52.5371
52.4167
52.3755
52.6169
52.9228
52.9664
52.8361
52.871
53.1568
53.4048
53.3623
53.2536
53.4011
53.711
53.8426
53.7343
53.7095
53.9612
54.2382
54.2353
54.1148
54.2195
54.5265
54.705
54.6116
54.5401
54.7542
55.0665
55.1352
55.0033
55.0047
55.279
55.5697
55.5691
55.4281
55.4738
55.7704
56.0517
56.032
55.8869
55.9247
56.2142
56.5202
56.536
56.3867
56.3803
56.6424
56.9666
57.0256
56.8827
56.857
57.1121
57.4289
57.4762
57.3349
57.3398
57.6166
57.905
57.8987
57.7601
57.8321
58.1382
58.3707
58.3031
58.1845
58.3335
58.6569
58.8175
58.7054
58.622
58.829
59.1554
59.2578
59.1227
59.0668
59.2994
59.6269
59.7116
59.5696
59.5095
59.7312
60.0674
60.1907
60.0589
59.9612
60.1333
60.4699
60.6666
60.5682
60.4354
60.5583
60.8825
61.1132
61.0372
60.8983
61.0124
61.3329
61.5508
61.466
61.3394
61.4843
61.8085
61.9803
61.8693
61.7728
61.9677
62.2914
62.3977
62.2621
62.2122
62.4546
62.7661
62.8082
62.6589
62.6587
62.9344
63.2259
63.2197
63.0693
63.1213
63.4138
63.7034
63.7995
63.6665
63.526
63.5642
63.817
64.1574
64.3484
64.2792
64.1092
64.0947
64.3166
64.6621
64.8455
64.7438
64.5915
64.6502
64.9427
65.2564
65.2857
65.1234
65.0665
65.2794
65.6196
65.7735
65.6493
65.5192
65.6343
65.9548
66.2209
66.1775
66.0112
66.0196
66.2859
66.6111
66.6712
66.5132
66.4428
66.6531
66.9884
67.1213
66.9852
66.8755
67.0464
67.3781
67.5507
67.4319
67.3032
67.4466
67.7731
67.9726
67.8686
67.7264
67.844
68.1639
68.3888
68.3027
68.1493
68.2398
68.5511
68.7969
68.728
68.5682
68.6397
68.9437
69.1987
69.1391
68.9768
69.0393
69.3398
69.5982
69.5429
69.3783
69.4297
69.7249
69.9956
69.9552
69.7855
69.8036
70.0792
70.38
70.393
70.2213
70.1726
70.3998
70.7302
70.8316
70.6782
70.5685
70.7285
71.0524
71.2422
71.127
70.9712
71.0746
71.3879
71.6255
71.5468
71.3779
71.4325
71.7266
71.9921
71.9563
71.7852
71.7864
72.053
72.3584
72.3647
72.1843
72.1456
72.3697
72.6775
72.787
72.6342
72.4941
72.65
72.9851
73.1829
73.0944
72.9345
72.9399
73.2011
73.5181
73.584
73.417
73.3008
73.4092
73.7093
73.9979
73.9739
73.7723
73.7059
73.8515
74.1592
74.4109
74.3401
74.1317
74.108
74.332
74.661
74.7668
74.6187
74.4815
74.5669
74.8586
75.1243
75.0614
74.8593
74.8514
75.1054
75.4234
75.4361
75.2429
75.1771
75.3747
75.6759
75.7976
75.642
75.4845
75.6214
75.9377
76.1412
76.0141
75.8217
75.888
76.1787
76.4288
76.3885
76.2017
76.1505
76.3787
76.6975
76.7769
76.5972
76.4499
76.5674
76.8745
77.1035
77.0374
76.8364
76.7916
77.0065
77.3086
77.4186
77.2612
77.0871
77.1696
77.4509
77.6965
77.6895
77.4897
77.3976
77.5924
77.8823
78.0587
77.9994
77.7973
77.782
77.9878
78.1865
78.3303
78.3629
78.1885
78.101
78.2822
78.4888
78.6157
78.6783
78.5389
78.3531
78.4901
78.783
78.9564
78.9932
78.814
78.6273
78.7519
79.0511
79.2636
79.2665
79.0709
78.9265
79.0473
79.3393
79.5738
79.5048
79.2806
79.2114
79.3857
79.6793
79.8306
79.7006
79.5021
79.5025
79.7424
80.0316
80.0528
79.8495
79.7224
79.8574
80.1528
80.3217
80.1906
79.9964
80.0216
80.2775
80.5356
80.4919
80.281
80.2222
80.4311
80.7191
80.7576
80.5627
80.4448
80.6007
80.8874
81.0056
80.8395
80.6699
80.7734
81.0582
81.2356
81.1057
80.9129
80.9515
81.2128
81.4486
81.382
81.1727
81.1365
81.3595
81.6363
81.6738
81.4771
81.3341
81.4517
81.7302
81.9361
81.8549
81.6332
81.5683
81.7545
82.0433
82.1606
82.002
81.8085
81.8411
82.0914
82.3432
82.3221
82.1116
82.0046
82.1703
82.4656
82.5738
82.4022
82.227
82.2923
82.5589
82.7754
82.6783
82.4616
82.4416
82.6659
82.9264
82.9312
82.7274
82.6097
82.7671
83.0498
83.164
82.9939
82.81
82.8988
83.1686
83.3537
83.2476
83.0492
83.074
83.3046
83.5229
83.5651
83.3814
83.2027
83.3179
83.5637
83.7335
83.7774
83.5977
83.3953
83.4529
83.7001
83.9247
83.978
83.7949
83.5931
83.6267
83.8674
84.1167
84.1479
83.9472
83.7703
83.8415
84.1028
84.3265
84.2733
84.0518
83.9488
84.101
84.3797
84.5151
84.3586
84.1496
84.1632
84.4008
84.6569
84.6343
84.4143
84.2967
84.4358
84.7123
84.8587
84.7098
84.4966
84.5077
84.7428
84.9916
84.9874
84.7751
84.6403
84.7727
85.0464
85.2099
85.0877
84.8664
84.8361
85.0499
85.3182
85.3758
85.1858
85.0019
85.0592
85.3143
85.5482
85.519
85.2994
85.1708
85.2967
85.5749
85.7517
85.6392
85.4187
85.3671
85.5608
85.8418
85.9219
85.7378
85.5517
85.599
85.8551
86.0939
86.041
85.8206
85.7204
85.8741
86.1593
86.2864
86.1244
85.9226
85.9361
86.1747
86.4307
86.4087
86.1895
86.0656
86.2026
86.4832
86.6248
86.4736
86.2618
86.2632
86.4934
86.745
86.7522
86.5382
86.3732
86.4506
86.7118
86.924
86.8535
86.622
86.5073
86.6367
86.9113
87.0587
86.9107
86.6877
86.6549
86.8596
87.1224
87.1351
86.9175
86.7573
86.851
87.1167
87.2777
87.132
86.9092
86.8882
87.105
87.3505
87.3149
87.086
86.9619
87.1016
87.3716
87.4628
87.2719
87.0728
87.1187
87.3684
87.5559
87.4303
87.2034
87.2008
87.4345
87.6193
87.4928
87.2778
87.3129
87.5562
87.6807
87.5082
87.3232
87.4253
87.6761
87.7303
87.525
87.3867
87.5439
87.771
87.7308
87.5189
87.4929
87.7029
87.8255
87.6716
87.5264
87.6555
87.8469
87.7835
87.5998
87.6374
87.8399
87.8649
87.6839
87.6363
87.8222
87.9262
87.7721
87.6498
87.7957
87.9663
87.8667
87.6846
87.755
87.9716
87.9769
87.7635
87.646
87.8103
88.066
88.11
87.8964
87.6874
87.7251
87.9684
88.1387
87.9928
87.7597
87.7669
88.003
88.1603
88.0052
87.7813
87.8146
88.0576
88.1847
88.0074
87.7953
87.8587
88.1074
88.2059
88.0117
87.8119
87.8989
88.1504
88.2234
88.0166
87.8316
87.9425
88.1926
88.2317
88.0125
87.8434
87.9674
88.2199
88.2565
88.0376
87.8535
87.9327
88.1884
88.3089
88.1262
87.903
87.9381
88.182
88.3232
88.1542
87.9288
87.9648
88.2089
88.3362
88.1588
87.9407
87.9892
88.2355
88.3539
88.1699
87.9578
88.03
88.2763
88.3462
88.1479
87.9552
87.9568
88.1804
88.4137
88.368
88.1227
87.9637
88.0817
88.3351
88.3896
88.1765
88.0099
88.1492
88.3783
88.3404
88.1134
88.0636
88.2682
88.396
88.2361
88.0638
88.1713
88.3737
88.3336
88.1213
88.0871
88.2915
88.4133
88.2382
88.0191
88.0645
88.3151
88.4448
88.2798
88.058
87.992
88.1798
88.4375
88.4143
88.1697
87.9981
88.0688
88.3141
88.4387
88.2515
88.0162
88.0971
88.3588
88.3851
88.1545
88.0542
88.2045
88.332
88.2547
88.1278
88.1069
88.1554
)
;

boundaryField
{
    sides
    {
        type            calculated;
        value           nonuniform List<scalar> 2(88.1554 28.1814);
    }
    empty
    {
        type            empty;
    }
}


// ************************************************************************* //
