/*--------------------------------*- C++ -*----------------------------------*\
  =========                 |
  \\      /  F ield         | OpenFOAM: The Open Source CFD Toolbox
   \\    /   O peration     | Website:  https://openfoam.org
    \\  /    A nd           | Version:  13
     \\/     M anipulation  |
\*---------------------------------------------------------------------------*/
FoamFile
{
    format      ascii;
    class       volScalarField;
    location    "0.1";
    object      p;
}
// * * * * * * * * * * * * * * * * * * * * * * * * * * * * * * * * * * * * * //

dimensions      [1 -1 -2 0 0 0 0];

internalField   nonuniform List<scalar> 
1000
(
6963.33
6963.18
6962.73
6962.08
6961.37
6960.7
6960.14
6959.65
6959.19
6958.73
6958.25
6957.74
6957.21
6956.67
6956.14
6955.61
6955.09
6954.57
6954.05
6953.53
6953.01
6952.49
6951.96
6951.43
6950.9
6950.37
6949.83
6949.3
6948.76
6948.23
6947.68
6947.14
6946.6
6946.05
6945.51
6944.96
6944.42
6943.87
6943.33
6942.8
6942.26
6941.73
6941.21
6940.69
6940.17
6939.65
6939.14
6938.62
6938.11
6937.6
6937.09
6936.57
6936.05
6935.52
6935
6934.47
6933.94
6933.42
6932.89
6932.36
6931.84
6931.3
6930.78
6930.29
6929.74
6929.18
6928.74
6928.26
6927.55
6927
6926.51
6926.09
6924.9
6924.45
6924.61
6924.48
6922.85
6922.58
6923.22
6922.2
6920.89
6921.33
6921.6
6919.47
6918.89
6920.15
6919.67
6916.69
6916.3
6918.53
6918.31
6914.12
6913.3
6916.32
6917.23
6912.04
6910.04
6913.17
6916.01
6911.02
6907.16
6909.16
6913.43
6911.36
6906.71
6907.53
6911.57
6909.51
6904.27
6906.11
6911.22
6906.4
6899.76
6904.36
6911.25
6903.39
6894.77
6901.48
6910.89
6901.69
6889.93
6896.31
6909.39
6903.09
6886.9
6888.89
6905.61
6906.25
6886.7
6881.5
6897.29
6907.27
6893.37
6878.1
6881.44
6901.29
6904.29
6883.37
6874.04
6885.01
6901.55
6897.87
6876.14
6872.51
6890.25
6899.16
6883.36
6869.92
6878.29
6895.04
6889.94
6869.4
6868.47
6887.81
6893.04
6873.22
6863.56
6876.46
6890.04
6879.4
6862.34
6867.15
6885.23
6882.64
6861.9
6860.24
6879.36
6884.25
6863.84
6854.9
6869.77
6883.39
6871.39
6852.72
6855.18
6877.02
6881.12
6858.38
6847.16
6854.85
6876.64
6879.65
6855.74
6844.21
6849.73
6872.59
6876.39
6853.05
6841.11
6844.56
6868.49
6874.98
6855.37
6839.24
6841.73
6864.72
6869.53
6847.66
6836.64
6849.19
6865.6
6856.93
6836.62
6838.78
6859.48
6860.81
6838.11
6832.28
6850.94
6861.16
6843.42
6828.67
6838.11
6857.5
6852.95
6828.95
6825.58
6846.95
6857.02
6838.79
6822
6826.96
6850.16
6853.04
6828
6817.33
6828.91
6849.43
6847.24
6820.83
6813.71
6830.62
6847.48
6839.54
6814.82
6811.27
6833.05
6845.01
6829.31
6809.36
6810.87
6835.12
6841.38
6818.29
6804.35
6812.3
6835.19
6836.06
6809.41
6800.14
6814.62
6833.59
6827.76
6801.87
6797.71
6819.21
6831.14
6814.31
6795.35
6799.89
6823.31
6825.23
6799.44
6790.65
6807.77
6823.78
6811.89
6789.38
6790.29
6814.46
6820.36
6796.21
6783.27
6794.82
6816.05
6812.58
6785.26
6778.87
6798.45
6814.56
6803.9
6778.81
6774.94
6797.54
6811.71
6799.03
6774.67
6770.16
6791.25
6807.65
6799.91
6772.41
6766.08
6782.62
6802.75
6799.21
6770.41
6762.81
6778.99
6798.92
6793.76
6765.65
6759.65
6779.95
6796.05
6784.39
6759.49
6757.68
6782.49
6792.85
6772.5
6753.67
6757.86
6783.67
6788.13
6761.37
6748.36
6758.6
6782.38
6782.39
6753.21
6743.4
6756.58
6779.15
6777.93
6748.19
6738.74
6749.64
6774.07
6776.16
6747.08
6734.94
6739.22
6766.58
6773.46
6749.44
6731.53
6732.01
6759.12
6768.68
6747.96
6727.42
6728.03
6754.86
6763.75
6741.2
6722.43
6726.16
6752.81
6758.29
6731.48
6717
6726.4
6751
6751.29
6721.48
6711.72
6727.65
6748.35
6742.66
6713.08
6706.91
6727.95
6744.9
6733.57
6706.4
6703.63
6727.83
6739.46
6742.92
6714.43
6698.53
6693.16
6708.03
6730.81
6736.91
6720.48
6694.29
6688.14
6697.92
6724.52
6730.56
6706.79
6686.69
6682.54
6705.4
6722.77
6717.61
6686.16
6677.9
6687.37
6713.92
6718.41
6690.14
6674.47
6673.62
6701.37
6713.32
6698.69
6671.65
6666.03
6684.72
6705.57
6703.13
6671.03
6661.52
6671.52
6697.82
6700.83
6670.61
6656.99
6662.48
6690.47
6696.27
6668.61
6652.08
6655
6683.43
6691.19
6665.99
6647.02
6647.77
6676.03
6685.81
6663.65
6641.91
6640.89
6668.37
6680.03
6660.75
6636.71
6634.71
6661.39
6674.19
6656.32
6631.18
6628.76
6655.05
6668.4
6651.26
6625.51
6622.37
6647.91
6662.47
6647.83
6620.14
6615.19
6637.33
6655.71
6648.44
6616.36
6608.96
6622.4
6646.99
6648.62
6616.68
6603.69
6608.43
6637.52
6644.24
6617.7
6599.27
6598.55
6626.46
6638.02
6618.36
6593.96
6590.51
6615.86
6631.5
6617.71
6588.14
6583.48
6605.28
6623.47
6616.55
6585.22
6576.19
6590.42
6616.7
6616.53
6582.37
6572.75
6574.58
6601.87
6613.39
6593.56
6565.84
6562.46
6584.05
6602.43
6603.67
6570.9
6556.53
6558.17
6588.24
6596.03
6591.09
6559.37
6547.56
6552.19
6583.15
6590.02
6575.41
6548.02
6540.05
6553.26
6578.13
6583.02
6553.46
6534.56
6534.97
6564.5
6574.98
6559.43
6532.09
6526.55
6547.23
6565.43
6562.23
6530.24
6518.75
6530.64
6558.45
6559.96
6526.56
6515.01
6518.39
6547.06
6553.95
6528.32
6509.39
6506.02
6532.49
6547.54
6535.52
6502.52
6497.36
6514.18
6535.68
6538.7
6506.6
6492.38
6493.09
6521.12
6532.26
6519.21
6488.05
6481.63
6497.2
6520.95
6525.36
6496.2
6477.4
6477.09
6504.49
6515.6
6512.3
6476.8
6467.35
6480.61
6502.1
6508.5
6498.32
6466.33
6463.66
6484.68
6491.93
6495.02
6496.67
6464.47
6453.61
6469.83
6481.4
6485.58
6488.41
6459.18
6444.57
6448.65
6471.47
6482.41
6481.29
6444.87
6435.35
6435.37
6461.41
6474.35
6471.01
6433.92
6424.46
6427.24
6456.51
6464.34
6454.74
6423.09
6413.68
6423.41
6451.02
6457.44
6433.29
6408.81
6404.99
6427.04
6444.93
6443.5
6408.83
6397.8
6402.35
6431.05
6439.15
6414.82
6391.35
6388.33
6413.45
6428.81
6418.6
6386.25
6379.23
6395.44
6418.04
6417.05
6382.79
6371.09
6379.64
6407.36
6411.27
6379.64
6364
6366.15
6394.42
6403.42
6379.17
6356.03
6353.94
6380.12
6393.88
6380.32
6349.22
6343.89
6363.67
6382.51
6382.66
6347.99
6335.48
6339.22
6367.16
6375.36
6362.57
6330.96
6323.9
6336.31
6360.93
6366.12
6338.03
6317.62
6314.42
6338.96
6354.83
6348.03
6312.87
6305.56
6314.82
6340.52
6345.8
6315.79
6297.67
6297.28
6324.94
6336.38
6319.27
6291.5
6285.59
6305.38
6325.77
6321.4
6286.08
6277.26
6286.54
6313
6317.46
6287.05
6270.25
6271.74
6298.73
6308.95
6291.21
6263.07
6262.97
6287.19
6296.49
6299.62
6268.16
6251.88
6258.37
6279.94
6286.15
6289.62
6259.31
6241.25
6239.88
6264.86
6276.16
6279.5
6248.69
6230.7
6227.51
6251.7
6266.11
6267.47
6233.47
6219.76
6218.87
6245.93
6258.03
6249.78
6215.73
6207.94
6216.69
6243.69
6249.42
6222.93
6202.03
6198.31
6221.96
6237.78
6233.26
6199.04
6189.48
6196.69
6224.22
6230.74
6206.06
6183.78
6179.79
6203
6219.53
6216.51
6181.31
6171.58
6178.18
6205.2
6212.51
6193.51
6166.17
6161.4
6181.22
6199.52
6202.66
6171.06
6154.94
6153.87
6180.78
6192.77
6188.37
6153.64
6144.56
6149.47
6177.69
6185.97
6168.55
6140.47
6134.7
6150.18
6173.69
6176.9
6145.73
6130.06
6127.77
6154.55
6168.76
6159.93
6127.33
6119.89
6128.63
6156.49
6162.34
6135.28
6115.76
6112.02
6136.32
6153.3
6148.3
6114.45
6105.81
6112.76
6141.07
6148.15
6124.03
6101.59
6097.96
6121.88
6138.28
6137.64
6103.43
6092.13
6092.53
6121.19
6132.18
6123.31
6090.51
6082.97
6089.31
6118.14
6125.54
6103.07
6079.3
6074.37
6093.98
6115.01
6113.91
6080.01
6069.23
6072.04
6101.48
6110.42
6088.25
6064.74
6060.44
6083.07
6101.66
6095.55
6062.4
6054.29
6063.58
6091.35
6095.82
6066
6049.82
6049.21
6077.85
6089.81
6071.17
6045.35
6043.33
6070.35
6083.22
6063.61
6039.5
6041.09
6069.5
6077.18
6050.11
6032.83
6041.14
6068.43
6070.18
6038.77
6027.53
6044.01
6065.54
6057.43
6028.28
6026.37
6051.97
6060.5
6035.82
6021.35
6036.26
6055.4
6043.5
6019.59
6024.12
6048.26
6047.18
6019.83
6016.04
6039.53
6047.29
6022.7
6010.68
6028.71
6045.11
6028.76
6007.37
6015.38
6040.45
6037.91
6007.83
5999.41
6016.12
6040.33
6043.29
6013.01
5998.18
5997.98
6028.19
6039.82
6019.97
5996.48
5996.02
6025.57
6036.8
6015.22
5993.5
5995.42
6025.76
6034.29
6009.2
5990.64
5995.27
6025.68
6031.83
6004.24
5988.2
5995.33
6025.17
6029.36
6000.11
5986.04
5996.43
6024.8
6026.3
5995.63
5983.93
5995.5
6023.68
6025.05
5994.49
5982.89
5987.11
6018.64
6026.35
6001.49
5982.68
5984.04
6015.09
6024.76
6001.89
5981.64
5983.71
6014.65
6023.41
5999.12
5980.16
5983.39
6014.64
6022.35
5996.97
5979.23
5985.43
6015.22
6019.36
5991.68
5978.75
5975.79
6003.68
6020.4
6017.61
5985.67
5976.09
5986.11
6016.06
6018.62
5988.79
5976.87
5993.28
6016.68
6010.89
5982.56
5979.24
6006.06
6017.17
5995.12
5977.7
5991.42
6015.84
6008.8
5980.37
5979.72
6008.96
6016.82
5991.9
5976.95
5978.02
6008.82
6019.57
5998.46
5976.84
5973.3
5995.62
6016.44
6016.3
5986.08
5974.07
5978.83
6011.74
6018.44
5993.31
5977.12
5983.3
6008.6
6014.65
5990.67
5973.96
5990.66
6018.25
6007.66
5974.61
5979.76
6013.52
)
;

boundaryField
{
    sides
    {
        type            zeroGradient;
    }
    empty
    {
        type            empty;
    }
}


// ************************************************************************* //
