/*--------------------------------*- C++ -*----------------------------------*\
  =========                 |
  \\      /  F ield         | OpenFOAM: The Open Source CFD Toolbox
   \\    /   O peration     | Website:  https://openfoam.org
    \\  /    A nd           | Version:  13
     \\/     M anipulation  |
\*---------------------------------------------------------------------------*/
FoamFile
{
    format      ascii;
    class       volScalarField;
    location    "0.08";
    object      mag(U);
}
// * * * * * * * * * * * * * * * * * * * * * * * * * * * * * * * * * * * * * //

dimensions      [0 1 -1 0 0 0 0];

internalField   nonuniform List<scalar> 
1000
(
33.637
33.6277
33.5999
33.5498
33.4807
33.3981
33.3095
33.2401
33.1995
33.1676
33.1372
33.111
33.084
33.0494
33.0085
32.964
32.916
32.8634
32.8082
32.7542
32.6992
32.6419
32.5861
32.5329
32.478
32.4244
32.3767
32.3288
32.2732
32.2254
32.1887
32.1389
32.0862
32.0421
31.9965
31.957
31.9155
31.8716
31.837
31.7926
31.7532
31.7288
31.6783
31.6416
31.6313
31.5719
31.5347
31.5321
31.4594
31.4233
31.4365
31.3482
31.2877
31.3315
31.2714
31.1636
31.2035
31.2155
31.0862
31.053
31.1219
31.0527
30.9473
30.9918
30.9884
30.8694
30.8677
30.9128
30.8111
30.7469
30.8157
30.7742
30.6579
30.6948
30.7275
30.6075
30.5667
30.6505
30.5977
30.4745
30.5222
30.5771
30.4601
30.3953
30.4894
30.4769
30.3401
30.351
30.4472
30.3698
30.2481
30.3171
30.3909
30.2733
30.1874
30.2865
30.3138
30.1953
30.1854
30.2632
30.2215
30.1694
30.2193
30.2101
30.1549
30.1892
30.1905
30.1197
30.14
30.1716
30.094
30.0767
30.1427
30.0902
30.023
30.0915
30.0984
30.0237
30.0539
30.1071
30.0804
30.0779
30.1219
30.1288
30.1315
30.1518
30.1373
30.1381
30.1617
30.1377
30.1279
30.1647
30.1533
30.1313
30.1713
30.1734
30.1397
30.1752
30.1988
30.1614
30.1821
30.2318
30.2106
30.2143
30.2765
30.282
30.277
30.3341
30.3634
30.3647
30.4104
30.4531
30.4778
30.5086
30.5269
30.5651
30.5924
30.5928
30.6343
30.6628
30.6699
30.7175
30.7457
30.7645
30.8154
30.8331
30.8557
30.9094
30.9257
30.9563
31.0094
31.0236
31.0609
31.1128
31.126
31.169
31.2194
31.2321
31.2797
31.3285
31.341
31.3922
31.4397
31.4517
31.5054
31.552
31.5636
31.6189
31.6658
31.6767
31.7328
31.7815
31.792
31.848
31.9009
31.9113
31.9654
32.0251
32.0372
32.0865
32.1558
32.1719
32.2122
32.2919
32.3173
32.3454
32.4309
32.4726
32.4906
32.57
32.6336
32.6498
32.7102
32.7939
32.8204
32.8604
32.9511
32.9946
33.0281
33.1138
33.166
33.2056
33.2856
33.3309
33.375
33.453
33.4872
33.5317
33.6129
33.6437
33.6843
33.771
33.807
33.8422
33.9315
33.9763
34.0081
34.0961
34.1478
34.1774
34.2633
34.3203
34.3471
34.43
34.495
34.52
34.5969
34.6722
34.699
34.7673
34.8518
34.8838
34.9449
35.0342
35.0688
35.1219
35.2171
35.2595
35.306
35.4033
35.4527
35.4938
35.5913
35.6486
35.685
35.7803
35.847
35.8799
35.9691
36.0474
36.0796
36.1581
36.2488
36.2839
36.3476
36.4493
36.4933
36.5409
36.6469
36.7061
36.7424
36.8419
36.9197
36.9541
37.0396
37.1316
37.1717
37.2457
37.3431
37.3883
37.4568
37.5552
37.6013
37.6651
37.7663
37.8137
37.8699
37.9756
38.0297
38.0762
38.1832
38.2501
38.289
38.3894
38.4726
38.5099
38.5963
38.6945
38.7363
38.8063
38.9143
38.9652
39.0203
39.1315
39.1947
39.2386
39.3453
39.4241
39.4625
39.5562
39.6518
39.6919
39.7666
39.8758
39.9253
39.9809
40.0945
40.1594
40.2017
40.3081
40.3916
40.4295
40.519
40.6199
40.6622
40.7314
40.8431
40.8967
40.9487
41.0613
41.13
41.1714
41.2755
41.361
41.3989
41.4868
41.5887
41.6309
41.6985
41.8116
41.8658
41.9144
42.0281
42.1017
42.1391
42.2388
42.3353
42.3737
42.4485
42.5629
42.6147
42.665
42.7819
42.857
42.894
42.9937
43.0955
43.1352
43.2053
43.3252
43.3835
43.4271
43.5425
43.6318
43.6669
43.7523
43.8709
43.9214
43.9706
44.0931
44.1785
44.2125
44.303
44.4238
44.474
44.5234
44.6478
44.7373
44.7717
44.8601
44.985
45.0395
45.0863
45.2099
45.3055
45.3409
45.4246
45.5537
45.613
45.6554
45.7766
45.8815
45.9178
45.9909
46.1259
46.1969
46.2317
46.3419
46.4639
46.5081
46.5622
46.6965
46.7903
46.8223
46.909
47.0458
47.1092
47.1466
47.2659
47.385
47.4261
47.4866
47.6245
47.7141
47.7476
47.8428
47.9772
48.036
48.0812
48.2087
48.3173
48.3558
48.4336
48.5723
48.6445
48.6833
48.8012
48.9229
48.9662
49.0299
49.1717
49.2602
49.2932
49.3953
49.5353
49.592
49.636
49.7718
49.8903
49.9261
49.9985
50.1522
50.2417
50.2729
50.383
50.5379
50.6018
50.6474
50.7978
50.9454
50.9942
51.0711
51.2598
51.3898
51.4156
51.5227
51.7332
51.8118
51.8046
51.9556
52.1629
52.1774
52.1752
52.3818
52.5523
52.5177
52.5596
52.8045
52.9145
52.8556
52.9606
53.2145
53.261
53.2053
53.3723
53.6082
53.6021
53.5705
53.7873
53.9876
53.9444
53.9516
54.2022
54.3573
54.2914
54.3445
54.6139
54.722
54.6461
54.7461
55.0207
55.0849
55.0096
55.1526
55.4213
55.4474
55.3807
55.5605
55.8154
55.8103
55.757
55.9663
56.2042
56.1745
56.1367
56.3674
56.586
56.5379
56.5154
56.7621
56.9647
56.9037
56.8941
57.1515
57.342
57.2715
57.2688
57.5326
57.7156
57.6397
57.6421
57.9102
58.092
58.0134
58.0138
58.2831
58.471
58.3927
58.3846
58.6521
58.8533
58.7799
58.7587
59.0201
59.2399
59.1756
59.1364
59.3863
59.6294
59.5804
59.5204
59.7522
60.0209
59.9951
59.9134
60.118
60.4114
60.4182
60.3181
60.4846
60.7975
60.8485
60.7373
60.8551
61.1764
61.2833
61.1713
61.2318
61.5472
61.7178
61.6197
61.62
61.9116
62.147
62.0799
62.0242
62.2742
62.5649
62.5468
62.4494
62.6402
62.9667
63.0155
62.8992
63.0172
63.3527
63.4809
63.3693
63.4095
63.7287
63.9388
63.8536
63.8229
64.1022
64.3825
64.3453
64.2613
64.4818
64.8093
64.8386
64.726
64.8716
65.2182
65.3309
65.2166
65.2769
65.6114
65.8169
65.7277
65.7054
65.9976
66.2865
66.2505
66.1632
66.3842
66.7296
66.7783
66.6602
66.7821
67.1398
67.3022
67.1952
67.2042
67.5229
67.8044
67.7556
67.6701
67.8987
68.2579
68.3198
68.196
68.2895
68.6474
68.8637
68.7737
68.7276
69.0048
69.3528
69.3732
69.2495
69.3745
69.7456
69.9492
69.8514
69.8066
70.0831
70.4414
70.4746
70.3465
70.4456
70.8112
71.0547
70.973
70.8959
71.1341
71.5141
71.603
71.4737
71.5102
71.8482
72.1575
72.1185
72.004
72.1792
72.5659
72.7321
72.6161
72.5886
72.8836
73.2409
73.2582
73.1259
73.2319
73.6049
73.8475
73.7602
73.6795
73.9203
74.3065
74.3937
74.2593
74.2928
74.6341
74.9479
74.9069
74.7863
74.9541
75.345
75.5249
75.4098
75.3644
75.6439
76.0205
76.0629
75.9234
75.9862
76.3436
76.6414
76.5842
76.4674
76.6381
77.0328
77.2199
77.105
77.0459
77.3032
77.6941
77.7727
77.634
77.6487
77.9712
78.3232
78.316
78.1784
78.2672
78.6347
78.9255
78.8591
78.7399
78.8919
79.2835
79.5043
79.399
79.31
79.5157
79.918
80.0718
79.9434
79.8892
80.1373
80.5371
80.6353
80.496
80.4751
80.7546
81.1415
81.1926
81.0471
81.0545
81.3586
81.7329
81.7508
81.6043
81.6338
81.9558
82.3149
82.3085
82.1638
82.2111
82.546
82.889
82.8635
82.7204
82.7799
83.1238
83.4572
83.419
83.2781
83.3447
83.6921
84.0199
83.9762
83.8354
83.9037
84.2515
84.5774
84.5302
84.3894
84.4561
84.8016
85.1315
85.086
84.9435
85.0033
85.3432
85.6794
85.6409
85.4973
85.5439
85.8715
86.2203
86.1996
86.0524
86.0805
86.3909
86.7572
86.7566
86.6053
86.6148
86.9024
87.2839
87.3138
87.1624
87.1462
87.4009
87.7975
87.8708
87.7205
87.6783
87.893
88.2973
88.4287
88.2868
88.2158
88.384
88.7819
88.9797
88.8561
88.7574
88.8768
89.2532
89.5211
89.4298
89.3058
89.3741
89.7128
90.0474
90.0052
89.8624
89.8827
90.1665
90.5488
90.5796
90.4314
90.4062
90.6189
91.0215
91.1521
91.0131
90.9418
91.0811
91.4703
91.7081
91.6007
91.4915
91.5606
91.8942
92.2316
92.1948
92.0559
92.0648
92.3161
92.7097
92.779
92.6334
92.5892
92.7456
93.1368
93.3439
93.2274
93.1315
93.1958
93.5185
93.8612
93.8306
93.6887
93.6863
93.9082
94.3052
94.4081
94.2638
94.2027
94.3151
94.6827
94.9485
94.8549
94.7335
94.7622
95.0323
95.406
95.4288
95.2738
95.2372
95.3908
95.7753
95.9626
95.8279
95.7202
95.7769
96.0932
96.4155
96.362
96.208
96.1964
96.4023
96.7889
96.8822
96.7172
96.635
96.7463
97.1122
97.3488
97.2275
97.0919
97.1173
97.3931
97.756
97.753
97.5833
97.5459
97.7178
98.1013
98.2377
98.0812
97.9888
98.0475
98.3678
98.7179
98.688
98.5355
98.5733
98.9058
99.2558
99.2771
99.3032
99.4944
99.5381
99.576
99.8666
100.024
99.908
99.8847
100.215
100.584
100.552
100.442
100.686
100.963
100.918
100.934
101.243
101.398
101.279
101.304
101.68
101.948
101.866
101.776
101.822
102.118
102.535
102.581
102.401
102.512
102.9
103.01
102.867
102.984
103.345
103.409
103.269
103.433
103.795
103.821
103.674
103.858
104.214
104.221
104.084
104.288
104.628
104.607
104.467
104.684
105.048
105.042
104.861
105.009
105.414
105.519
105.335
105.375
105.757
105.942
105.784
105.774
106.133
106.362
106.222
106.161
106.494
106.801
106.704
106.564
106.817
107.206
107.21
107.026
107.161
107.562
107.679
107.505
107.534
107.9
108.124
107.989
107.9
108.195
108.471
108.493
)
;

boundaryField
{
    sides
    {
        type            calculated;
        value           nonuniform List<scalar> 2(108.493 33.637);
    }
    empty
    {
        type            empty;
    }
}


// ************************************************************************* //
