/*--------------------------------*- C++ -*----------------------------------*\
  =========                 |
  \\      /  F ield         | OpenFOAM: The Open Source CFD Toolbox
   \\    /   O peration     | Website:  https://openfoam.org
    \\  /    A nd           | Version:  13
     \\/     M anipulation  |
\*---------------------------------------------------------------------------*/
FoamFile
{
    format      ascii;
    class       volScalarField;
    location    "0.08";
    object      p;
}
// * * * * * * * * * * * * * * * * * * * * * * * * * * * * * * * * * * * * * //

dimensions      [1 -1 -2 0 0 0 0];

internalField   nonuniform List<scalar> 
1000
(
8567.9
8567.91
8567.91
8567.93
8567.94
8567.93
8567.91
8567.87
8567.8
8567.72
8567.63
8567.53
8567.42
8567.3
8567.18
8567.02
8566.81
8566.63
8566.43
8566.17
8565.85
8565.58
8565.24
8564.9
8564.45
8564.04
8563.58
8562.79
8562.32
8562.18
8562.75
8561.39
8559.85
8559.95
8560.34
8558.15
8557.26
8557.89
8557.11
8555.05
8554.64
8552.32
8550.66
8550.19
8551.74
8551.56
8547.32
8546.36
8547.5
8547.04
8543.44
8543.16
8544.31
8540.92
8538.57
8539.18
8539.41
8535.46
8534.53
8535.85
8533.11
8529.53
8529.75
8530.97
8526.35
8523.92
8525.47
8525.02
8518.78
8517.47
8519.21
8518.67
8513.32
8512.35
8513.58
8511.41
8507.94
8508.53
8507.87
8503.09
8502.68
8503.34
8498.9
8497.29
8498.21
8494.64
8491.74
8492.71
8490.85
8485.6
8485.33
8486.53
8481.34
8478.7
8479.95
8478.42
8473.95
8473.54
8474.27
8471.03
8464.68
8462.86
8461.7
8461.67
8463.66
8457.77
8453.19
8452.71
8453.67
8451.01
8449.46
8449.52
8444.72
8443.77
8444
8439
8437.96
8438.42
8433.23
8431.68
8432.59
8427.71
8425
8426.09
8422.75
8418.15
8418.59
8418.1
8411.72
8410.51
8411.89
8407.14
8402.72
8403.06
8403.49
8396.41
8393.95
8395.08
8394.18
8386.46
8384.6
8386.05
8385.33
8376.73
8374.43
8375.07
8377.03
8369.09
8364.52
8364.19
8367.33
8362.8
8355.05
8353.57
8352.94
8354.2
8353.02
8348.6
8348.96
8347.58
8341.6
8341.21
8341.8
8335.04
8332.57
8333.82
8330.58
8324.66
8324.46
8325.39
8318.61
8315.56
8316.54
8315.12
8308
8306.81
8308.35
8303.85
8298.43
8298.29
8299.41
8292.51
8289.01
8289.67
8289.57
8281.5
8279.12
8280.29
8279.57
8270.74
8268.38
8268.41
8269.95
8263.22
8259.06
8259.32
8260.49
8252.28
8248.43
8248.24
8250.41
8243.64
8237.76
8236.74
8238.92
8236.86
8227.56
8225.44
8224.69
8226.08
8224.14
8218.04
8217.76
8218.43
8211.15
8208.34
8209.53
8206.86
8199.79
8199.04
8200.52
8194.13
8189.31
8189.47
8190.21
8182.12
8178.89
8179.58
8179.31
8170.71
8168.3
8169.29
8168.19
8159.63
8157.7
8158.99
8156.72
8148.46
8147
8148.57
8144.88
8137.27
8136.24
8137.98
8132.77
8126.01
8125.29
8127.05
8120.88
8114.89
8114.45
8116.11
8108.98
8103.82
8103.65
8105.11
8097.32
8092.84
8092.88
8094.15
8085.97
8081.91
8082.03
8083.3
8075.05
8071.01
8071
8072.54
8064.65
8060.17
8059.92
8061.71
8054.6
8049.45
8049.04
8050.88
8044.31
8038.87
8038.53
8040.17
8033.38
8028.71
8028.98
8029.34
8021.65
8019.4
8020.81
8016.3
8010.34
8010.59
8010.73
8002.23
7999.74
8001.15
7998.23
7990.36
7989.35
7991.1
7985.69
7979.6
7979.38
7980.76
7973.19
7969.06
7969.61
7969.73
7961.11
7958.59
7959.81
7958
7949.71
7948.32
7950.02
7945.63
7938.75
7938.23
7939.88
7932.93
7927.99
7928.2
7929.04
7920.49
7917.16
7917.97
7917.59
7908.55
7906.21
7907.44
7905.88
7896.96
7895.19
7896.72
7894.05
7885.46
7884.04
7885.75
7882.22
7873.96
7872.74
7874.57
7870.47
7862.46
7861.35
7863.24
7858.79
7850.94
7849.89
7851.81
7847.18
7839.41
7838.38
7840.34
7835.67
7827.88
7826.83
7828.81
7824.41
7816.36
7815.18
7817.1
7813.65
7804.93
7803.46
7805.06
7803.49
7793.85
7791.85
7792.76
7793.37
7783.62
7780.52
7780.5
7782.49
7774.64
7769.39
7768.47
7770.61
7766.8
7758.51
7756.83
7757.94
7758.5
7749.19
7745.28
7745.11
7748.34
7741.95
7733.56
7733.4
7736.02
7734.42
7723.29
7722.61
7722.69
7723.87
7716
7712.06
7709.82
7710.53
7710.15
7702.01
7697.52
7697.4
7700.67
7694.31
7686.22
7685.63
7687.28
7686.86
7677
7673.99
7673.75
7676.6
7669.94
7662.44
7661.67
7663.69
7662.8
7652.25
7650.34
7650.31
7652.56
7645.1
7638.94
7637.98
7640.22
7638.25
7628.35
7626.67
7627.37
7628.92
7620.01
7615.33
7614.97
7618.1
7612.36
7604.06
7603.51
7606
7604.07
7594.17
7592.39
7593.02
7594.8
7586.08
7581.02
7580.65
7583.79
7578.72
7570.64
7569.28
7570.52
7570.87
7562.2
7557.98
7557.94
7560.93
7554.13
7547.69
7546.69
7549.12
7548.11
7536.48
7535.91
7535.89
7537.43
7530.88
7526.02
7523.57
7524.37
7525.83
7517.37
7512.03
7512.14
7516.02
7511.93
7501.41
7501.63
7502.69
7503.89
7495
7491.64
7489.84
7491.36
7492.05
7482.12
7479.05
7478.05
7480.82
7479.27
7469.1
7464.82
7464.43
7469.89
7469.16
7451.16
7446.86
7445.63
7456.55
7458.62
7435.58
7428.56
7442.13
7451.82
7435.21
7421.78
7428.83
7440.08
7430.33
7417.13
7420.09
7428.73
7423.94
7412.94
7410.71
7413.89
7417.34
7407.03
7400.96
7400.49
7401.83
7405.13
7396.35
7390.11
7388.16
7388.77
7393.51
7387.31
7378.24
7376.8
7377.31
7381.97
7376.21
7367.25
7365.77
7366.64
7370.92
7363.97
7356.3
7354.85
7356.69
7360.08
7350.96
7345.14
7343.95
7347.13
7348.83
7337.85
7333.68
7332.81
7337.35
7337.37
7324.42
7320.64
7319.66
7326.41
7327.21
7308.32
7301.89
7300.93
7314.1
7317.85
7292.02
7280.96
7286.63
7307.88
7307.29
7277.98
7270.26
7287.25
7301.94
7288.26
7263.58
7263.38
7284.88
7290.88
7264.61
7251.41
7262.44
7280.7
7272.63
7245.46
7243.16
7263.94
7271.91
7247.3
7232.26
7242.01
7261.47
7255.14
7226.53
7222.62
7243.35
7254.19
7232.36
7212.7
7217.1
7240.35
7243.14
7213.03
7201.13
7212.54
7233.45
7230.41
7198.68
7190.42
7205.84
7224.76
7218.74
7187.17
7179.99
7196.5
7215.15
7209.35
7177.28
7169.69
7184.7
7204.75
7202.09
7169.19
7159.75
7170.6
7193.59
7195.62
7163.71
7150.58
7155.01
7180.88
7187.92
7162.39
7142.11
7140.25
7165.15
7177.77
7164.86
7134.73
7128.84
7145.76
7165.59
7165.7
7132.34
7120.44
7124.94
7151.5
7159.43
7137.98
7113.48
7109.43
7131.65
7147.78
7145.54
7110.89
7100.87
7108.31
7134.06
7140.38
7122.23
7095.81
7091.28
7113.15
7126.84
7131.9
7103.65
7084.07
7082.59
7107.31
7119.06
7122.27
7091.55
7073.42
7071.3
7096.7
7108.23
7112.07
7080.78
7064.11
7060.93
7085.91
7100.73
7099.95
7064.9
7053.82
7054.39
7082.28
7093.53
7080.36
7048.71
7042.75
7056.6
7080.09
7083.74
7052.27
7036.02
7036.68
7065.68
7075.75
7057.81
7030.93
7026.01
7047.49
7065.32
7060.66
7027.24
7018.45
7029.97
7054.78
7058.37
7026.81
7010.59
7014.72
7044.16
7052.53
7027.17
7003.92
7003.19
7031.49
7043.19
7027.88
7000.4
6993.17
7013.74
7035.61
7030.4
6994.19
6987.04
6997.29
7022.32
7028.41
6998.62
6978.62
6980.19
7010.79
7019.91
7004.01
6977.14
6968.55
6987.45
7012.31
7011.11
6974.35
6963.93
6966.43
6997.59
7004.59
6987.79
6961.71
6952.32
6970.51
6996.55
6997.23
6962.55
6950.39
6947.64
6974.93
6991.48
6982.07
6944.31
6939.66
6949.38
6974.23
6984.56
6961.37
6932.32
6930.67
6955
6969.87
6973
6938.62
6927.98
6926.52
6954.37
6966.39
6957.14
6926.72
6913.9
6926.34
6957.55
6960.85
6935.4
6915.11
6907.06
6930.06
6953.75
6952.54
6915
6903.72
6904.51
6936.99
6943.44
6937.97
6905.98
6895.65
6905.7
6929.58
6942.21
6923.78
6890.14
6887.92
6909.18
6925.96
6935.5
6909.07
6881.45
6881.13
6910
6920.04
6926.81
6895.09
6880.31
6876.29
6902.29
6917.39
6921.09
6889.24
6866.99
6869.91
6900.08
6913.74
6914.38
6878.83
6862.97
6865.57
6895.99
6903.55
6908.8
6879.06
6857.46
6859.47
6887.48
6897.07
6902.74
6883.55
6855.43
6856.42
6879.58
6885.34
6891.51
6889.92
6854.76
6846.17
6866.58
6881.17
6888.98
6885.95
6848.66
6841.55
6850.75
6875.51
6887.4
6883.91
6844.62
6834.09
6837.94
6875.25
6881.75
6882.25
6844.28
6835.56
6829.47
6857.04
6879.67
6879.4
6844.29
6833.48
6824.56
6847.88
6875.16
6876.05
6843.05
6830.65
6821.38
6838.84
6871.14
6874.08
6844.7
6821.64
6820.67
6832.84
6864.82
6870.82
6843.79
6821.71
6817.38
6826.26
6860.08
6866.49
6840.02
6821.68
6815.1
6819.56
6854.36
6863.86
6841.26
6819.4
6811.79
6815.33
6851.01
6861.88
6842.95
6816.52
6810.15
6811.32
6846.81
6859.41
6845.14
6814.55
6808.08
6806.37
6840.41
6856.2
6847.14
6814.67
6807.14
6802.33
6829.35
6852
6844.34
6815.68
6810.76
6805.26
6806.85
6841.73
6852.71
6827.84
6805.5
6799.89
6810.41
6844.24
6853.15
6845.07
6809.63
6801.5
6812.97
6840.51
6845.6
6852.18
6840.91
6808.81
6808.75
6830.04
6831.9
6829.12
6839.08
6838.1
6807.9
6799.42
6817.25
6844.47
6852.49
6845.62
6810.79
6804.35
6797.64
6814.18
6845.7
6852.21
6840.89
6809.44
6802.71
6797.31
6819.14
6845.76
6852.72
6839.71
6807.65
6801.54
6797.06
6825.07
6847.2
6853.93
6842.34
6808.36
6801.23
6800.83
6835.29
6848.25
6854.5
6837.02
6810.3
6805.27
6799.83
6817.79
6844.87
6843.37
6823.9
6820.83
6824.83
6824.16
6814.73
6827.88
6845.88
6833.33
6811.33
6797.69
6818.61
6858.19
6850.22
6807.33
6809.42
6837.6
)
;

boundaryField
{
    sides
    {
        type            zeroGradient;
    }
    empty
    {
        type            empty;
    }
}


// ************************************************************************* //
