/*--------------------------------*- C++ -*----------------------------------*\
  =========                 |
  \\      /  F ield         | OpenFOAM: The Open Source CFD Toolbox
   \\    /   O peration     | Website:  https://openfoam.org
    \\  /    A nd           | Version:  13
     \\/     M anipulation  |
\*---------------------------------------------------------------------------*/
FoamFile
{
    format      ascii;
    class       surfaceScalarField;
    location    "0.08";
    object      phi;
}
// * * * * * * * * * * * * * * * * * * * * * * * * * * * * * * * * * * * * * //

dimensions      [1 0 -1 0 0 0 0];

internalField   nonuniform List<scalar> 
999
(
24.3103
24.2781
24.2459
24.2136
24.1813
24.1491
24.1168
24.0846
24.0526
24.0207
23.9884
23.957
23.923
23.8915
23.8666
23.8346
23.8013
23.7563
23.7282
23.7045
23.6714
23.6291
23.6038
23.5719
23.5274
23.4995
23.4855
23.4389
23.3671
23.3826
23.3796
23.2974
23.2848
23.254
23.2102
23.2159
23.1434
23.1321
23.1333
23.0339
23.0652
23.0689
22.8915
22.9996
23.0138
22.7551
22.9489
22.9388
22.6113
22.8882
22.9236
22.45
22.6851
22.9601
22.3853
22.3718
22.8776
22.619
22.1879
22.5961
22.8211
22.2064
22.254
22.7145
22.3623
22.0687
22.5631
22.5509
21.9958
22.2454
22.6105
22.0333
21.9469
22.4833
22.3095
21.8192
22.1657
22.4974
21.8498
21.7695
22.3485
22.2623
21.6838
21.9201
22.3706
21.8695
21.5876
22.111
22.3194
21.6014
21.5721
22.1817
22.1605
21.4988
21.6458
22.1702
21.8603
21.5082
21.9033
22.0643
21.6182
21.7451
22.0255
21.6769
21.6807
21.9945
21.7084
21.5672
21.9292
21.8279
21.468
21.7512
21.9653
21.4103
21.5241
21.9236
21.5491
21.4432
21.7878
21.7548
21.5729
21.6884
21.8028
21.6774
21.7709
21.7988
21.6612
21.7778
21.8075
21.6162
21.7076
21.8431
21.5907
21.6471
21.8526
21.5983
21.5824
21.826
21.6792
21.5377
21.7616
21.7869
21.5502
21.6949
21.8517
21.6056
21.6783
21.8773
21.7119
21.7338
21.8832
21.8152
21.8646
21.8903
21.8633
22.0197
21.8884
21.8894
22.0594
21.9022
21.9444
22.0945
21.9418
22.0344
22.1429
21.9818
22.1041
22.1727
22.0403
22.1821
22.2031
22.1001
22.2577
22.2364
22.1617
22.3315
22.2747
22.225
22.4043
22.3182
22.2888
22.4757
22.367
22.352
22.545
22.4211
22.4135
22.6112
22.481
22.4727
22.6735
22.5486
22.5298
22.7312
22.6284
22.5847
22.7812
22.7267
22.6401
22.8213
22.8439
22.6964
22.848
22.9716
22.7576
22.8703
23.0795
22.8464
22.9075
23.1372
23.021
22.9707
23.1538
23.2291
23.0488
23.1811
23.367
23.154
23.2623
23.4581
23.2775
23.3918
23.5514
23.3784
23.523
23.6361
23.4603
23.6187
23.7305
23.5339
23.6823
23.8386
23.6144
23.7426
23.9424
23.7103
23.8168
24.039
23.816
23.8981
24.1332
23.9264
23.9767
24.2184
24.0554
24.0568
24.2891
24.2093
24.144
24.3538
24.365
24.2403
24.4323
24.5044
24.3306
24.4984
24.6426
24.4293
24.5755
24.7694
24.5334
24.6565
24.8866
24.6494
24.7407
24.9924
24.7877
24.8288
25.0807
24.9605
24.9237
25.1508
25.1563
25.0195
25.2043
25.3463
25.1174
25.2559
25.497
25.2401
25.3258
25.5933
25.4332
25.4255
25.6655
25.6441
25.5438
25.7563
25.8102
25.6671
25.8671
25.9535
25.7821
25.9704
26.1004
25.8881
26.0526
26.2525
25.996
26.1248
26.3859
26.1342
26.2068
26.4824
26.3352
26.3089
26.5523
26.563
26.419
26.6153
26.7643
26.5309
26.6828
26.9267
26.6578
26.7604
27.0445
26.8403
26.8554
27.1203
27.0807
26.9616
27.1711
27.3089
27.0704
27.2234
27.4809
27.201
27.2948
27.5874
27.4101
27.3927
27.6491
27.6634
27.5006
27.6964
27.8775
27.6123
27.7557
28.0307
27.7542
27.8342
28.1301
27.9661
27.9324
28.1902
28.2138
28.0355
28.2303
28.4294
28.141
28.2748
28.574
28.3024
28.3465
28.6397
28.5755
28.4443
28.6589
28.8358
28.5468
28.6848
28.9934
28.7143
28.7515
29.0453
29.0197
28.8481
29.0447
29.283
28.9551
29.0651
29.3949
29.2094
29.1445
29.3877
29.5537
29.2425
29.3719
29.7136
29.4699
29.4376
29.6952
29.8575
29.5377
29.6651
30.0163
29.7915
29.7362
29.9844
30.1846
29.8418
29.96
30.3166
30.1371
30.0388
30.2711
30.5198
30.1476
30.2494
30.6126
30.511
30.3339
30.5299
30.8613
30.4743
30.5305
30.8633
30.9457
30.6284
30.7666
31.1567
30.9079
30.8239
31.0659
31.3595
30.9439
31.0272
31.3975
31.4111
31.1265
31.2823
31.675
31.3701
31.3307
31.6067
31.8435
31.4461
31.5561
31.9474
31.8295
31.6458
31.8627
32.1977
31.7842
31.8509
32.2295
32.2457
31.9478
32.1187
32.5267
32.1695
32.1392
32.4599
32.69
32.2451
32.3547
32.8007
32.6972
32.4323
32.6389
33.0762
32.6529
32.6232
32.9866
33.2526
32.7395
32.8375
33.3483
33.314
32.9076
33.1145
33.688
33.2976
33.0264
33.4904
34.0584
33.2046
33.126
33.9906
34.2524
33.2104
33.3875
34.4037
34.1842
33.3317
33.8233
34.7482
33.9564
33.4647
34.3465
35.0276
33.7987
33.6674
34.8298
35.1385
33.8476
33.9787
35.1874
35.1115
33.9989
34.3665
35.4835
35.0024
34.1597
34.792
35.7792
34.8796
34.3191
35.2307
36.0471
34.812
34.5007
35.6489
36.2492
34.8436
34.7238
36.0097
36.3958
34.9552
34.9765
36.3175
36.507
35.1101
35.2456
36.582
36.6009
35.2806
35.5105
36.8253
36.6989
35.4572
35.7599
37.0516
36.8207
35.6305
35.9823
37.2661
36.9639
35.8073
36.1808
37.4686
37.1546
35.9846
36.3473
37.6584
37.3896
36.1637
36.479
37.8395
37.6645
36.3485
36.5878
38.0098
37.9765
36.5409
36.6772
38.1648
38.3091
36.743
36.7649
38.2947
38.6415
36.9738
36.8672
38.3757
38.9421
37.2654
37.0098
38.38
39.1825
37.6725
37.214
38.2907
39.3329
38.2355
37.4563
38.1484
39.4401
38.898
37.7055
38.0175
39.5537
39.5419
37.9523
37.9602
39.6291
40.0488
38.2547
38.0385
39.5658
40.3593
38.7529
38.266
39.3454
40.4822
39.4988
38.5504
39.0969
40.5733
40.2928
38.8252
38.9456
40.6716
40.9409
39.1161
38.9599
40.6561
41.3514
39.5675
39.155
40.4402
41.526
40.3191
39.4621
40.128
41.6103
41.2171
39.7599
39.8966
41.7005
41.979
40.0772
39.8802
41.6191
42.4179
40.645
40.1329
41.2119
42.5125
41.6825
40.481
40.7471
42.564
42.7387
40.8192
40.6092
42.395
43.2602
41.519
40.9232
41.7183
43.2674
42.8923
41.2984
41.2017
43.1816
43.8432
41.8447
41.4212
42.3884
43.885
43.3698
41.8415
41.7037
43.7261
44.4545
42.4687
41.9937
42.6993
44.4163
44.2258
42.4275
42.1669
44.0308
45.0251
43.3862
42.6107
42.8354
44.8884
45.1928
43.0604
42.7385
44.1062
45.4768
44.5505
43.2248
43.1094
45.2886
45.9595
43.8239
43.3736
44.1399
45.9359
45.6877
43.8338
43.5386
45.516
46.5473
44.8209
44.0099
44.2178
46.3984
46.6998
44.4806
44.1333
45.4626
46.9717
46.111
44.6494
44.4151
46.6676
47.4992
45.4005
44.8284
45.1728
47.3604
47.5119
45.3187
44.9747
46.2882
47.8844
47.0492
45.5305
45.2024
47.3658
48.4059
46.509
45.7467
45.6742
48.1182
48.678
46.3398
45.9505
46.3696
48.6268
48.6767
46.4897
46.1482
47.1937
49.0673
48.5031
46.7334
46.3463
48.0258
49.5124
48.2931
46.988
46.5989
48.7518
49.9432
48.1551
47.2529
46.9108
49.3535
50.2997
48.1336
47.5099
47.2511
49.8478
50.5968
48.2486
47.7722
47.6133
50.2753
50.862
48.4437
48.0409
47.9882
50.6671
51.1097
48.6772
48.3098
48.3433
51.0211
51.3696
48.9465
48.5936
48.6584
51.3524
51.6481
49.2309
48.8828
48.9581
51.6735
51.939
49.5251
49.1771
49.2145
51.9738
52.2743
49.8336
49.4793
49.4501
52.26
52.6152
50.1513
49.7943
49.645
52.5049
52.9868
50.4981
50.1186
49.8347
52.7126
53.3662
50.8749
50.4457
50.0485
52.8382
53.7209
51.3237
50.7872
50.2951
52.8252
54.0275
51.8978
51.1286
50.6232
52.6357
54.2511
52.6355
51.4754
51.0215
52.3176
54.4349
53.4722
51.8263
51.4252
51.9728
54.6231
54.3187
52.1794
51.8272
51.7432
54.7713
55.0686
52.5638
52.2237
51.7733
54.6782
55.599
53.1384
52.6217
52.0954
54.1443
55.8347
54.1425
53.0093
52.5693
53.4247
55.9469
55.3071
53.4005
53.0484
52.8819
56.0154
56.3531
53.8115
53.4824
52.9365
55.6077
56.8769
54.5967
53.9043
53.4331
54.568
56.9453
55.992
54.3289
53.9863
53.733
56.9253
57.3242
54.7449
54.4246
53.8597
56.184
57.7833
55.7608
54.851
54.4312
54.8848
57.781
57.4064
55.2419
54.9344
54.415
57.433
58.4156
55.8246
55.3441
54.8462
56.1162
58.4917
57.3871
55.7088
55.341
55.146
58.4233
58.7265
56.0867
55.7719
55.1784
57.5108
59.1994
57.1343
56.1057
55.648
56.3411
59.1765
58.6369
56.4649
56.1355
55.6641
58.8694
59.7533
56.9597
56.4959
55.9422
57.6905
59.8197
58.2627
56.9174
56.5628
56.269
59.6454
60.0938
57.226
56.7601
56.4523
59.7274
59.8063
58.003
58.8815
59.6667
57.6191
58.3807
60.6392
59.1736
57.5765
57.296
60.8283
61.3431
58.2211
58.0083
60.9635
60.6833
58.3565
59.3772
61.5104
59.9511
58.2626
58.7818
61.8634
61.1994
59.2075
58.8615
58.2336
61.6723
62.8779
60.0504
58.7573
61.0301
62.8657
60.6046
59.1249
61.6092
63.1251
60.43
59.2962
62.2722
63.4669
60.4618
59.5242
62.686
63.677
60.5869
59.8567
63.1504
63.8701
60.6801
59.985
63.4023
64.3439
61.1205
60.1146
62.7973
64.6199
62.4008
60.6172
62.1132
64.6738
63.3365
60.9964
61.92
64.8556
64.0077
61.3131
61.5222
65.0263
65.0463
61.7325
61.1704
64.8071
65.8229
62.5549
61.4542
64.042
65.9619
63.8043
61.9687
63.1761
65.9528
65.1979
62.5086
62.1747
65.6632
66.729
)
;

boundaryField
{
    sides
    {
        type            calculated;
        value           nonuniform List<scalar> 2(64.2745 -24.3425);
    }
    empty
    {
        type            empty;
    }
}


// ************************************************************************* //
