/*--------------------------------*- C++ -*----------------------------------*\
  =========                 |
  \\      /  F ield         | OpenFOAM: The Open Source CFD Toolbox
   \\    /   O peration     | Website:  https://openfoam.org
    \\  /    A nd           | Version:  13
     \\/     M anipulation  |
\*---------------------------------------------------------------------------*/
FoamFile
{
    format      ascii;
    class       volScalarField;
    location    "0.08";
    object      rho;
}
// * * * * * * * * * * * * * * * * * * * * * * * * * * * * * * * * * * * * * //

dimensions      [1 -3 0 0 0 0 0];

internalField   nonuniform List<scalar> 
1000
(
0.180921
0.180921
0.180924
0.18093
0.180937
0.180944
0.180952
0.18096
0.180965
0.180969
0.180972
0.180975
0.180977
0.180977
0.180981
0.180985
0.180987
0.180986
0.180983
0.180989
0.180992
0.18099
0.180988
0.180992
0.180987
0.180984
0.180987
0.180991
0.180969
0.180965
0.180989
0.180974
0.180962
0.180968
0.180953
0.180957
0.180953
0.180935
0.180949
0.180929
0.180913
0.180946
0.180895
0.180873
0.180943
0.180855
0.180836
0.180931
0.180803
0.180787
0.18092
0.180762
0.18069
0.180874
0.18079
0.180601
0.18076
0.180848
0.180594
0.180587
0.180803
0.180681
0.180501
0.180667
0.180712
0.180465
0.180523
0.180687
0.180473
0.180382
0.180588
0.180526
0.180293
0.180423
0.180539
0.180276
0.180231
0.180449
0.180352
0.180107
0.180238
0.180381
0.180119
0.180019
0.180234
0.180224
0.179928
0.17997
0.180182
0.180013
0.179781
0.179924
0.18008
0.179811
0.179663
0.179864
0.179917
0.179629
0.17963
0.179794
0.179657
0.179541
0.17965
0.179608
0.179454
0.179527
0.179533
0.179332
0.179372
0.179452
0.179229
0.179188
0.179331
0.179177
0.179015
0.179148
0.179138
0.178916
0.178968
0.179035
0.178899
0.178864
0.178906
0.178851
0.178801
0.178818
0.178718
0.178679
0.178703
0.178583
0.178526
0.178561
0.178475
0.178378
0.178411
0.178371
0.178227
0.178248
0.178262
0.178088
0.178079
0.178135
0.177985
0.177931
0.17799
0.177902
0.17781
0.177844
0.177815
0.17771
0.177717
0.177701
0.177631
0.177621
0.177541
0.17753
0.177509
0.177389
0.177394
0.177358
0.177251
0.177262
0.177207
0.177125
0.177142
0.177049
0.176987
0.177004
0.176897
0.176852
0.176864
0.176745
0.176713
0.176719
0.176594
0.176572
0.176571
0.176442
0.176428
0.176419
0.176288
0.176279
0.176264
0.176131
0.176126
0.176107
0.175972
0.175967
0.175947
0.175809
0.175804
0.175786
0.175643
0.175635
0.175625
0.175477
0.175461
0.175463
0.175313
0.175283
0.1753
0.175155
0.175103
0.175131
0.175009
0.174925
0.174949
0.174878
0.174753
0.174758
0.174748
0.174594
0.174568
0.174594
0.174457
0.174391
0.174417
0.174329
0.174229
0.174248
0.174178
0.174081
0.174097
0.174004
0.173924
0.173942
0.173819
0.173751
0.173772
0.173641
0.173566
0.173591
0.173475
0.173383
0.173405
0.173315
0.173203
0.173221
0.173152
0.173026
0.173038
0.172987
0.172846
0.17285
0.172821
0.172667
0.172658
0.172654
0.172495
0.172468
0.172482
0.172329
0.172286
0.172308
0.172163
0.172101
0.172128
0.172004
0.171922
0.171949
0.171848
0.171745
0.171768
0.171694
0.17157
0.171586
0.171542
0.171399
0.171401
0.171391
0.171234
0.171216
0.171234
0.171078
0.171033
0.171066
0.170937
0.170854
0.170884
0.170808
0.170681
0.170695
0.170676
0.170522
0.170513
0.170527
0.170375
0.170344
0.170369
0.170227
0.170183
0.17021
0.170072
0.170017
0.170049
0.169918
0.169845
0.16988
0.169773
0.169672
0.1697
0.169639
0.169504
0.169515
0.169503
0.169345
0.169332
0.169355
0.169199
0.169155
0.169192
0.169063
0.168982
0.169017
0.168934
0.168813
0.168834
0.168804
0.16865
0.168647
0.168663
0.1685
0.168464
0.168502
0.168366
0.168287
0.168323
0.168243
0.168116
0.168133
0.168116
0.167955
0.167944
0.16797
0.16781
0.167762
0.167802
0.167679
0.167587
0.16762
0.167553
0.167417
0.167432
0.16742
0.167256
0.167243
0.167271
0.167109
0.167058
0.1671
0.166979
0.166878
0.16691
0.16686
0.166708
0.166711
0.166728
0.166556
0.166518
0.166563
0.166431
0.166336
0.16637
0.166321
0.166166
0.166167
0.166193
0.16602
0.165972
0.166021
0.165909
0.165791
0.165815
0.165808
0.16563
0.165607
0.165659
0.165516
0.165418
0.165452
0.165431
0.165254
0.165236
0.165291
0.165144
0.165046
0.16508
0.165067
0.164886
0.164863
0.164922
0.164785
0.164677
0.164706
0.164708
0.164521
0.16449
0.164552
0.16443
0.164305
0.164328
0.164351
0.164159
0.16411
0.164172
0.164091
0.163931
0.163934
0.163991
0.163815
0.163728
0.163773
0.163763
0.163567
0.163538
0.163609
0.163496
0.163352
0.163366
0.163417
0.163227
0.163153
0.163206
0.16318
0.16299
0.162971
0.163042
0.162906
0.162783
0.162812
0.162837
0.16264
0.162594
0.162663
0.162572
0.162415
0.162429
0.162482
0.162292
0.162217
0.162279
0.162243
0.162048
0.162037
0.162118
0.161967
0.161839
0.161877
0.161919
0.161705
0.161644
0.161726
0.161679
0.161474
0.161467
0.161567
0.161417
0.161269
0.161315
0.16139
0.161164
0.161076
0.161187
0.161202
0.160921
0.16089
0.161082
0.160976
0.160667
0.16074
0.16096
0.160678
0.160435
0.160635
0.16078
0.160366
0.160242
0.160533
0.160536
0.160083
0.16009
0.16041
0.16024
0.15984
0.159969
0.160252
0.159928
0.159628
0.159856
0.16006
0.159629
0.159434
0.159735
0.15984
0.159354
0.159258
0.159601
0.159595
0.159102
0.159097
0.159454
0.159333
0.158871
0.158947
0.159292
0.159064
0.158654
0.158801
0.159115
0.158797
0.158445
0.158652
0.158929
0.158539
0.158242
0.158495
0.158731
0.158292
0.158039
0.158326
0.158529
0.158054
0.157835
0.158146
0.158324
0.157827
0.157628
0.157956
0.158119
0.157608
0.157421
0.157756
0.157916
0.1574
0.157209
0.157545
0.157717
0.157202
0.156995
0.157325
0.157521
0.157018
0.156784
0.157097
0.157327
0.156848
0.156575
0.156859
0.157133
0.156698
0.156372
0.15661
0.156934
0.156569
0.156178
0.156353
0.156728
0.156459
0.155995
0.156092
0.15651
0.156362
0.155828
0.155835
0.156277
0.156263
0.155683
0.155594
0.156023
0.156143
0.155571
0.155378
0.155748
0.155991
0.155498
0.155189
0.155452
0.155805
0.155459
0.155023
0.155152
0.155589
0.155428
0.15488
0.154875
0.155343
0.155369
0.154769
0.154639
0.155071
0.155256
0.154702
0.154444
0.154773
0.155094
0.154675
0.154279
0.154464
0.154892
0.154667
0.154138
0.154171
0.154655
0.154637
0.154028
0.153922
0.154383
0.154551
0.15397
0.153721
0.15407
0.154399
0.153971
0.153563
0.153731
0.15419
0.154006
0.153438
0.153416
0.153922
0.153999
0.153372
0.153179
0.153582
0.153885
0.15341
0.15302
0.153183
0.153664
0.153514
0.152916
0.152842
0.153346
0.153522
0.152921
0.15264
0.152906
0.153345
0.153079
0.152534
0.15249
0.153021
0.15317
0.152547
0.152281
0.152534
0.152998
0.152765
0.152194
0.15211
0.152628
0.15285
0.152269
0.151948
0.152093
0.152625
0.152535
0.151896
0.151744
0.152179
0.152527
0.152078
0.151642
0.151657
0.15223
0.152309
0.15165
0.15142
0.151723
0.152189
0.151912
0.151353
0.151274
0.151825
0.152049
0.151451
0.151129
0.151282
0.15184
0.151747
0.151098
0.150941
0.151394
0.151761
0.151305
0.150861
0.15086
0.151462
0.151569
0.150902
0.150656
0.150909
0.151437
0.151228
0.150624
0.150492
0.150996
0.151336
0.150828
0.15042
0.150411
0.15103
0.151151
0.150484
0.150231
0.150411
0.150999
0.15088
0.150233
0.150062
0.150446
0.150918
0.150562
0.150043
0.149925
0.150468
0.1508
0.150261
0.149878
0.149826
0.150457
0.15065
0.150003
0.149721
0.149761
0.150417
0.150475
0.149794
0.149573
0.149717
0.150356
0.150286
0.149622
0.149438
0.149678
0.150279
0.150092
0.149474
0.149309
0.149633
0.150192
0.149914
0.149349
0.149192
0.149582
0.150104
0.149756
0.149235
0.149084
0.14953
0.150017
0.149612
0.149132
0.148984
0.149468
0.149928
0.149486
0.149036
0.148892
0.149395
0.149846
0.149388
0.148946
0.148805
0.149321
0.149767
0.149296
0.148868
0.148723
0.149231
0.149692
0.149232
0.148798
0.148647
0.149134
0.149621
0.149184
0.148734
0.148578
0.149018
0.149554
0.149167
0.148675
0.14852
0.148899
0.149484
0.149155
0.148629
0.148468
0.14876
0.14941
0.149167
0.148586
0.148429
0.148613
0.149319
0.149195
0.148561
0.148399
0.148462
0.149213
0.14923
0.148558
0.148375
0.148333
0.149078
0.149248
0.148581
0.148352
0.148236
0.148905
0.14924
0.148643
0.148332
0.14818
0.14869
0.149202
0.148748
0.148317
0.148157
0.148445
0.149127
0.148879
0.14831
0.148159
0.148218
0.148992
0.149005
0.148337
0.148162
0.148069
0.148793
0.149059
0.148423
0.148165
0.148007
0.148498
0.149041
0.148597
0.148163
0.148009
0.14819
0.148937
0.148792
0.148176
0.14803
0.147961
0.14872
0.14892
0.148266
0.148048
0.147886
0.148347
0.148916
0.148483
0.148041
0.147893
0.147986
0.148767
0.14871
0.14806
0.147909
0.147776
0.148446
0.148806
0.148194
0.1479
0.147738
0.148012
0.148716
0.148452
0.147887
0.147749
0.147688
0.148461
0.148642
0.147959
0.147743
0.147579
0.148078
0.148631
0.148158
0.147733
0.147585
0.147669
0.148467
0.148423
0.147743
0.147577
0.147459
0.14818
0.148496
0.147842
0.147554
0.147387
0.147716
0.148402
0.148084
0.147518
0.147372
0.147363
0.148172
0.148254
0.147565
0.147394
0.147227
0.1477
0.148297
0.14785
0.147359
0.147188
0.147673
0.14821
0.147835
0.147654
0.148024
0.147768
0.147471
0.148074
0.148194
0.147539
0.147295
0.147806
0.148425
0.147988
0.147433
0.14788
0.148318
0.147779
0.14754
0.148176
0.148269
0.1476
0.147392
0.148128
0.148466
0.147849
0.147608
0.147444
0.147763
0.148541
0.148373
0.1476
0.147637
0.148447
0.148411
0.147671
0.147747
0.148506
0.148348
0.147652
0.147848
0.148591
0.148337
0.147657
0.147913
0.148635
0.148326
0.147684
0.148015
0.148682
0.148297
0.147688
0.148026
0.14874
0.148419
0.147734
0.147839
0.148693
0.148686
0.147874
0.147765
0.148595
0.14878
0.147996
0.14777
0.148543
0.148837
0.148095
0.147754
0.148423
0.148916
0.148305
0.147784
0.148161
0.148914
0.148624
0.147876
0.147964
0.148851
0.14884
0.147987
0.147886
0.148783
0.148959
0.148098
0.147907
0.148739
0.148987
0.148125
)
;

boundaryField
{
    sides
    {
        type            calculated;
        value           nonuniform List<scalar> 2(0.148125 0.180921);
    }
    empty
    {
        type            empty;
    }
}


// ************************************************************************* //
