/*--------------------------------*- C++ -*----------------------------------*\
  =========                 |
  \\      /  F ield         | OpenFOAM: The Open Source CFD Toolbox
   \\    /   O peration     | Website:  https://openfoam.org
    \\  /    A nd           | Version:  13
     \\/     M anipulation  |
\*---------------------------------------------------------------------------*/
FoamFile
{
    format      ascii;
    class       volScalarField;
    location    "0.08";
    object      T;
}
// * * * * * * * * * * * * * * * * * * * * * * * * * * * * * * * * * * * * * //

dimensions      [0 0 0 1 0 0 0];

internalField   nonuniform List<scalar> 
1000
(
174.754
174.754
174.754
174.756
174.757
174.759
174.761
174.763
174.764
174.765
174.765
174.765
174.765
174.764
174.765
174.766
174.766
174.764
174.763
174.765
174.765
174.764
174.763
174.764
174.761
174.76
174.76
174.762
174.753
174.751
174.76
174.754
174.749
174.751
174.745
174.747
174.745
174.738
174.743
174.735
174.728
174.741
174.722
174.713
174.74
174.707
174.698
174.736
174.689
174.68
174.734
174.675
174.644
174.716
174.688
174.611
174.672
174.71
174.611
174.605
174.691
174.647
174.573
174.637
174.659
174.563
174.582
174.65
174.569
174.531
174.612
174.594
174.501
174.55
174.601
174.501
174.48
174.568
174.537
174.44
174.49
174.552
174.453
174.412
174.498
174.501
174.386
174.401
174.489
174.43
174.338
174.394
174.461
174.361
174.302
174.382
174.41
174.299
174.299
174.369
174.32
174.275
174.321
174.311
174.251
174.282
174.291
174.214
174.231
174.269
174.185
174.17
174.231
174.177
174.114
174.169
174.173
174.087
174.11
174.142
174.093
174.081
174.102
174.085
174.069
174.08
174.045
174.032
174.047
174.004
173.985
174.003
173.975
173.939
173.956
173.947
173.893
173.905
173.917
173.852
173.851
173.879
173.825
173.807
173.835
173.806
173.773
173.79
173.785
173.747
173.754
173.753
173.73
173.731
173.704
173.704
173.701
173.658
173.664
173.656
173.617
173.626
173.61
173.581
173.593
173.562
173.541
173.553
173.516
173.502
173.513
173.471
173.462
173.471
173.426
173.422
173.428
173.381
173.38
173.383
173.336
173.337
173.338
173.29
173.292
173.291
173.242
173.245
173.244
173.193
173.196
173.196
173.143
173.144
173.147
173.093
173.091
173.099
173.044
173.037
173.05
172.998
172.982
172.999
172.957
172.928
172.943
172.922
172.877
172.884
172.888
172.831
172.826
172.843
172.795
172.773
172.79
172.763
172.728
172.741
172.722
172.687
172.7
172.671
172.644
172.658
172.617
172.594
172.61
172.565
172.54
172.557
172.519
172.487
172.503
172.475
172.436
172.449
172.431
172.385
172.396
172.385
172.334
172.341
172.339
172.283
172.285
172.292
172.234
172.228
172.242
172.187
172.174
172.19
172.138
172.118
172.135
172.092
172.062
172.078
172.044
172.006
172.019
171.996
171.948
171.958
171.947
171.89
171.894
171.895
171.833
171.828
171.84
171.779
171.761
171.777
171.728
171.694
171.708
171.681
171.628
171.634
171.63
171.567
171.563
171.572
171.51
171.497
171.509
171.452
171.433
171.445
171.391
171.367
171.381
171.329
171.298
171.312
171.271
171.228
171.24
171.218
171.161
171.165
171.163
171.097
171.091
171.103
171.04
171.02
171.036
170.986
170.951
170.966
170.935
170.884
170.892
170.883
170.819
170.817
170.826
170.759
170.743
170.76
170.707
170.672
170.687
170.658
170.604
170.611
170.607
170.54
170.534
170.547
170.482
170.461
170.478
170.43
170.39
170.404
170.379
170.321
170.327
170.325
170.256
170.25
170.263
170.198
170.175
170.193
170.145
170.102
170.114
170.097
170.032
170.033
170.042
169.971
169.954
169.973
169.921
169.88
169.893
169.877
169.81
169.81
169.823
169.752
169.73
169.751
169.708
169.657
169.666
169.666
169.592
169.581
169.604
169.547
169.504
169.518
169.512
169.437
169.429
169.453
169.395
169.352
169.365
169.364
169.287
169.276
169.302
169.248
169.2
169.212
169.216
169.137
169.123
169.149
169.102
169.047
169.056
169.069
168.989
168.967
168.992
168.963
168.893
168.893
168.919
168.848
168.809
168.827
168.827
168.743
168.73
168.76
168.717
168.654
168.658
168.682
168.605
168.571
168.593
168.586
168.504
168.495
168.526
168.473
168.418
168.429
168.443
168.361
168.34
168.368
168.335
168.266
168.271
168.296
168.217
168.184
168.209
168.198
168.114
168.108
168.144
168.084
168.027
168.042
168.063
167.973
167.946
167.979
167.965
167.876
167.871
167.915
167.856
167.79
167.808
167.843
167.75
167.709
167.755
167.767
167.647
167.631
167.713
167.676
167.541
167.567
167.665
167.553
167.444
167.524
167.594
167.421
167.362
167.484
167.496
167.301
167.297
167.436
167.374
167.198
167.246
167.372
167.243
167.108
167.199
167.295
167.116
167.026
167.15
167.205
166.999
166.951
167.096
167.105
166.892
166.882
167.036
166.997
166.793
166.818
166.97
166.884
166.701
166.757
166.898
166.772
166.613
166.694
166.821
166.663
166.527
166.629
166.739
166.558
166.441
166.559
166.655
166.457
166.355
166.484
166.57
166.361
166.267
166.403
166.484
166.268
166.18
166.319
166.398
166.18
166.09
166.23
166.314
166.097
166
166.137
166.231
166.02
165.911
166.04
166.149
165.95
165.823
165.939
166.066
165.888
165.738
165.833
165.981
165.835
165.657
165.724
165.893
165.79
165.58
165.613
165.799
165.749
165.511
165.506
165.699
165.706
165.452
165.405
165.589
165.653
165.408
165.316
165.47
165.585
165.38
165.237
165.342
165.504
165.367
165.168
165.214
165.41
165.355
165.109
165.098
165.303
165.327
165.065
165
165.184
165.276
165.041
164.92
165.054
165.204
165.034
164.851
164.922
165.116
165.032
164.793
164.798
165.012
165.018
164.749
164.695
164.893
164.978
164.73
164.613
164.756
164.91
164.736
164.547
164.61
164.818
164.753
164.496
164.479
164.7
164.747
164.474
164.382
164.55
164.694
164.498
164.317
164.377
164.595
164.545
164.275
164.235
164.453
164.543
164.286
164.154
164.259
164.461
164.361
164.111
164.085
164.316
164.394
164.126
164.001
164.1
164.313
164.227
163.966
163.923
164.146
164.257
164.01
163.859
163.911
164.153
164.129
163.841
163.77
163.951
164.116
163.933
163.73
163.727
163.981
164.031
163.741
163.633
163.754
163.97
163.865
163.607
163.566
163.804
163.916
163.661
163.51
163.564
163.818
163.794
163.5
163.426
163.615
163.789
163.603
163.395
163.385
163.652
163.713
163.421
163.305
163.402
163.646
163.572
163.293
163.23
163.443
163.607
163.396
163.204
163.19
163.464
163.533
163.24
163.121
163.186
163.456
163.42
163.125
163.046
163.202
163.424
163.283
163.04
162.983
163.214
163.376
163.149
162.967
162.936
163.213
163.313
163.032
162.899
162.904
163.198
163.24
162.937
162.833
162.881
163.173
163.16
162.858
162.773
162.863
163.141
163.076
162.79
162.715
162.842
163.103
162.998
162.733
162.662
162.819
163.065
162.928
162.682
162.613
162.795
163.027
162.863
162.636
162.567
162.767
162.988
162.807
162.593
162.526
162.735
162.951
162.763
162.552
162.486
162.701
162.915
162.721
162.517
162.449
162.66
162.881
162.692
162.484
162.415
162.615
162.849
162.67
162.455
162.383
162.561
162.815
162.66
162.426
162.355
162.505
162.782
162.653
162.405
162.332
162.444
162.747
162.659
162.386
162.316
162.379
162.705
162.669
162.376
162.302
162.315
162.654
162.681
162.377
162.291
162.261
162.591
162.686
162.392
162.282
162.224
162.512
162.681
162.425
162.275
162.205
162.415
162.662
162.476
162.269
162.198
162.307
162.626
162.536
162.268
162.202
162.212
162.562
162.588
162.285
162.203
162.153
162.469
162.608
162.33
162.204
162.132
162.333
162.594
162.412
162.203
162.136
162.197
162.542
162.497
162.211
162.144
162.102
162.436
162.546
162.257
162.152
162.077
162.263
162.536
162.36
162.147
162.082
162.106
162.462
162.459
162.16
162.09
162.024
162.311
162.492
162.229
162.086
162.014
162.114
162.444
162.347
162.08
162.018
161.979
162.321
162.423
162.12
162.016
161.94
162.144
162.411
162.217
162.011
161.947
161.966
162.329
162.332
162.019
161.941
161.881
162.194
162.357
162.074
161.934
161.859
161.984
162.308
162.187
161.918
161.853
161.833
162.196
162.256
161.944
161.862
161.785
161.976
162.263
162.083
161.846
161.767
161.964
162.225
162.069
161.971
162.137
162.04
161.89
162.152
162.228
161.934
161.816
162.023
162.321
162.147
161.878
162.06
162.278
162.048
161.919
162.199
162.264
161.963
161.855
162.173
162.347
162.078
161.96
161.887
162.006
162.372
162.321
161.962
161.957
162.326
162.335
161.997
162.007
162.356
162.311
161.986
162.05
162.397
162.309
161.989
162.079
162.419
162.305
162.001
162.126
162.443
162.294
162.003
162.13
162.468
162.35
162.026
162.051
162.442
162.464
162.094
162.025
162.395
162.501
162.154
162.032
162.368
162.524
162.201
162.03
162.311
162.555
162.301
162.048
162.193
162.55
162.446
162.094
162.112
162.517
162.537
162.149
162.086
162.481
162.584
162.205
162.107
162.458
162.59
162.223
)
;

boundaryField
{
    sides
    {
        type            zeroGradient;
    }
    empty
    {
        type            empty;
    }
}


// ************************************************************************* //
