/*--------------------------------*- C++ -*----------------------------------*\
  =========                 |
  \\      /  F ield         | OpenFOAM: The Open Source CFD Toolbox
   \\    /   O peration     | Website:  https://openfoam.org
    \\  /    A nd           | Version:  13
     \\/     M anipulation  |
\*---------------------------------------------------------------------------*/
FoamFile
{
    format      ascii;
    class       volVectorField;
    location    "0.08";
    object      U;
}
// * * * * * * * * * * * * * * * * * * * * * * * * * * * * * * * * * * * * * //

dimensions      [0 1 -1 0 0 0 0];

internalField   nonuniform List<vector> 
1000
(
(33.637 0 0)
(33.6277 0 0)
(33.5999 0 0)
(33.5498 0 0)
(33.4807 0 0)
(33.3981 0 0)
(33.3095 0 0)
(33.2401 0 0)
(33.1995 0 0)
(33.1676 0 0)
(33.1372 0 0)
(33.111 0 0)
(33.084 0 0)
(33.0494 0 0)
(33.0085 0 0)
(32.964 0 0)
(32.916 0 0)
(32.8634 0 0)
(32.8082 0 0)
(32.7542 0 0)
(32.6992 0 0)
(32.6419 0 0)
(32.5861 0 0)
(32.5329 0 0)
(32.478 0 0)
(32.4244 0 0)
(32.3767 0 0)
(32.3288 0 0)
(32.2732 0 0)
(32.2254 0 0)
(32.1887 0 0)
(32.1389 0 0)
(32.0862 0 0)
(32.0421 0 0)
(31.9965 0 0)
(31.957 0 0)
(31.9155 0 0)
(31.8716 0 0)
(31.837 0 0)
(31.7926 0 0)
(31.7532 0 0)
(31.7288 0 0)
(31.6783 0 0)
(31.6416 0 0)
(31.6313 0 0)
(31.5719 0 0)
(31.5347 0 0)
(31.5321 0 0)
(31.4594 0 0)
(31.4233 0 0)
(31.4365 0 0)
(31.3482 0 0)
(31.2877 0 0)
(31.3315 0 0)
(31.2714 0 0)
(31.1636 0 0)
(31.2035 0 0)
(31.2155 0 0)
(31.0862 0 0)
(31.053 0 0)
(31.1219 0 0)
(31.0527 0 0)
(30.9473 0 0)
(30.9918 0 0)
(30.9884 0 0)
(30.8694 0 0)
(30.8677 0 0)
(30.9128 0 0)
(30.8111 0 0)
(30.7469 0 0)
(30.8157 0 0)
(30.7742 0 0)
(30.6579 0 0)
(30.6948 0 0)
(30.7275 0 0)
(30.6075 0 0)
(30.5667 0 0)
(30.6505 0 0)
(30.5977 0 0)
(30.4745 0 0)
(30.5222 0 0)
(30.5771 0 0)
(30.4601 0 0)
(30.3953 0 0)
(30.4894 0 0)
(30.4769 0 0)
(30.3401 0 0)
(30.351 0 0)
(30.4472 0 0)
(30.3698 0 0)
(30.2481 0 0)
(30.3171 0 0)
(30.3909 0 0)
(30.2733 0 0)
(30.1874 0 0)
(30.2865 0 0)
(30.3138 0 0)
(30.1953 0 0)
(30.1854 0 0)
(30.2632 0 0)
(30.2215 0 0)
(30.1694 0 0)
(30.2193 0 0)
(30.2101 0 0)
(30.1549 0 0)
(30.1892 0 0)
(30.1905 0 0)
(30.1197 0 0)
(30.14 0 0)
(30.1716 0 0)
(30.094 0 0)
(30.0767 0 0)
(30.1427 0 0)
(30.0902 0 0)
(30.023 0 0)
(30.0915 0 0)
(30.0984 0 0)
(30.0237 0 0)
(30.0539 0 0)
(30.1071 0 0)
(30.0804 0 0)
(30.0779 0 0)
(30.1219 0 0)
(30.1288 0 0)
(30.1315 0 0)
(30.1518 0 0)
(30.1373 0 0)
(30.1381 0 0)
(30.1617 0 0)
(30.1377 0 0)
(30.1279 0 0)
(30.1647 0 0)
(30.1533 0 0)
(30.1313 0 0)
(30.1713 0 0)
(30.1734 0 0)
(30.1397 0 0)
(30.1752 0 0)
(30.1988 0 0)
(30.1614 0 0)
(30.1821 0 0)
(30.2318 0 0)
(30.2106 0 0)
(30.2143 0 0)
(30.2765 0 0)
(30.282 0 0)
(30.277 0 0)
(30.3341 0 0)
(30.3634 0 0)
(30.3647 0 0)
(30.4104 0 0)
(30.4531 0 0)
(30.4778 0 0)
(30.5086 0 0)
(30.5269 0 0)
(30.5651 0 0)
(30.5924 0 0)
(30.5928 0 0)
(30.6343 0 0)
(30.6628 0 0)
(30.6699 0 0)
(30.7175 0 0)
(30.7457 0 0)
(30.7645 0 0)
(30.8154 0 0)
(30.8331 0 0)
(30.8557 0 0)
(30.9094 0 0)
(30.9257 0 0)
(30.9563 0 0)
(31.0094 0 0)
(31.0236 0 0)
(31.0609 0 0)
(31.1128 0 0)
(31.126 0 0)
(31.169 0 0)
(31.2194 0 0)
(31.2321 0 0)
(31.2797 0 0)
(31.3285 0 0)
(31.341 0 0)
(31.3922 0 0)
(31.4397 0 0)
(31.4517 0 0)
(31.5054 0 0)
(31.552 0 0)
(31.5636 0 0)
(31.6189 0 0)
(31.6658 0 0)
(31.6767 0 0)
(31.7328 0 0)
(31.7815 0 0)
(31.792 0 0)
(31.848 0 0)
(31.9009 0 0)
(31.9113 0 0)
(31.9654 0 0)
(32.0251 0 0)
(32.0372 0 0)
(32.0865 0 0)
(32.1558 0 0)
(32.1719 0 0)
(32.2122 0 0)
(32.2919 0 0)
(32.3173 0 0)
(32.3454 0 0)
(32.4309 0 0)
(32.4726 0 0)
(32.4906 0 0)
(32.57 0 0)
(32.6336 0 0)
(32.6498 0 0)
(32.7102 0 0)
(32.7939 0 0)
(32.8204 0 0)
(32.8604 0 0)
(32.9511 0 0)
(32.9946 0 0)
(33.0281 0 0)
(33.1138 0 0)
(33.166 0 0)
(33.2056 0 0)
(33.2856 0 0)
(33.3309 0 0)
(33.375 0 0)
(33.453 0 0)
(33.4872 0 0)
(33.5317 0 0)
(33.6129 0 0)
(33.6437 0 0)
(33.6843 0 0)
(33.771 0 0)
(33.807 0 0)
(33.8422 0 0)
(33.9315 0 0)
(33.9763 0 0)
(34.0081 0 0)
(34.0961 0 0)
(34.1478 0 0)
(34.1774 0 0)
(34.2633 0 0)
(34.3203 0 0)
(34.3471 0 0)
(34.43 0 0)
(34.495 0 0)
(34.52 0 0)
(34.5969 0 0)
(34.6722 0 0)
(34.699 0 0)
(34.7673 0 0)
(34.8518 0 0)
(34.8838 0 0)
(34.9449 0 0)
(35.0342 0 0)
(35.0688 0 0)
(35.1219 0 0)
(35.2171 0 0)
(35.2595 0 0)
(35.306 0 0)
(35.4033 0 0)
(35.4527 0 0)
(35.4938 0 0)
(35.5913 0 0)
(35.6486 0 0)
(35.685 0 0)
(35.7803 0 0)
(35.847 0 0)
(35.8799 0 0)
(35.9691 0 0)
(36.0474 0 0)
(36.0796 0 0)
(36.1581 0 0)
(36.2488 0 0)
(36.2839 0 0)
(36.3476 0 0)
(36.4493 0 0)
(36.4933 0 0)
(36.5409 0 0)
(36.6469 0 0)
(36.7061 0 0)
(36.7424 0 0)
(36.8419 0 0)
(36.9197 0 0)
(36.9541 0 0)
(37.0396 0 0)
(37.1316 0 0)
(37.1717 0 0)
(37.2457 0 0)
(37.3431 0 0)
(37.3883 0 0)
(37.4568 0 0)
(37.5552 0 0)
(37.6013 0 0)
(37.6651 0 0)
(37.7663 0 0)
(37.8137 0 0)
(37.8699 0 0)
(37.9756 0 0)
(38.0297 0 0)
(38.0762 0 0)
(38.1832 0 0)
(38.2501 0 0)
(38.289 0 0)
(38.3894 0 0)
(38.4726 0 0)
(38.5099 0 0)
(38.5963 0 0)
(38.6945 0 0)
(38.7363 0 0)
(38.8063 0 0)
(38.9143 0 0)
(38.9652 0 0)
(39.0203 0 0)
(39.1315 0 0)
(39.1947 0 0)
(39.2386 0 0)
(39.3453 0 0)
(39.4241 0 0)
(39.4625 0 0)
(39.5562 0 0)
(39.6518 0 0)
(39.6919 0 0)
(39.7666 0 0)
(39.8758 0 0)
(39.9253 0 0)
(39.9809 0 0)
(40.0945 0 0)
(40.1594 0 0)
(40.2017 0 0)
(40.3081 0 0)
(40.3916 0 0)
(40.4295 0 0)
(40.519 0 0)
(40.6199 0 0)
(40.6622 0 0)
(40.7314 0 0)
(40.8431 0 0)
(40.8967 0 0)
(40.9487 0 0)
(41.0613 0 0)
(41.13 0 0)
(41.1714 0 0)
(41.2755 0 0)
(41.361 0 0)
(41.3989 0 0)
(41.4868 0 0)
(41.5887 0 0)
(41.6309 0 0)
(41.6985 0 0)
(41.8116 0 0)
(41.8658 0 0)
(41.9144 0 0)
(42.0281 0 0)
(42.1017 0 0)
(42.1391 0 0)
(42.2388 0 0)
(42.3353 0 0)
(42.3737 0 0)
(42.4485 0 0)
(42.5629 0 0)
(42.6147 0 0)
(42.665 0 0)
(42.7819 0 0)
(42.857 0 0)
(42.894 0 0)
(42.9937 0 0)
(43.0955 0 0)
(43.1352 0 0)
(43.2053 0 0)
(43.3252 0 0)
(43.3835 0 0)
(43.4271 0 0)
(43.5425 0 0)
(43.6318 0 0)
(43.6669 0 0)
(43.7523 0 0)
(43.8709 0 0)
(43.9214 0 0)
(43.9706 0 0)
(44.0931 0 0)
(44.1785 0 0)
(44.2125 0 0)
(44.303 0 0)
(44.4238 0 0)
(44.474 0 0)
(44.5234 0 0)
(44.6478 0 0)
(44.7373 0 0)
(44.7717 0 0)
(44.8601 0 0)
(44.985 0 0)
(45.0395 0 0)
(45.0863 0 0)
(45.2099 0 0)
(45.3055 0 0)
(45.3409 0 0)
(45.4246 0 0)
(45.5537 0 0)
(45.613 0 0)
(45.6554 0 0)
(45.7766 0 0)
(45.8815 0 0)
(45.9178 0 0)
(45.9909 0 0)
(46.1259 0 0)
(46.1969 0 0)
(46.2317 0 0)
(46.3419 0 0)
(46.4639 0 0)
(46.5081 0 0)
(46.5622 0 0)
(46.6965 0 0)
(46.7903 0 0)
(46.8223 0 0)
(46.909 0 0)
(47.0458 0 0)
(47.1092 0 0)
(47.1466 0 0)
(47.2659 0 0)
(47.385 0 0)
(47.4261 0 0)
(47.4866 0 0)
(47.6245 0 0)
(47.7141 0 0)
(47.7476 0 0)
(47.8428 0 0)
(47.9772 0 0)
(48.036 0 0)
(48.0812 0 0)
(48.2087 0 0)
(48.3173 0 0)
(48.3558 0 0)
(48.4336 0 0)
(48.5723 0 0)
(48.6445 0 0)
(48.6833 0 0)
(48.8012 0 0)
(48.9229 0 0)
(48.9662 0 0)
(49.0299 0 0)
(49.1717 0 0)
(49.2602 0 0)
(49.2932 0 0)
(49.3953 0 0)
(49.5353 0 0)
(49.592 0 0)
(49.636 0 0)
(49.7718 0 0)
(49.8903 0 0)
(49.9261 0 0)
(49.9985 0 0)
(50.1522 0 0)
(50.2417 0 0)
(50.2729 0 0)
(50.383 0 0)
(50.5379 0 0)
(50.6018 0 0)
(50.6474 0 0)
(50.7978 0 0)
(50.9454 0 0)
(50.9942 0 0)
(51.0711 0 0)
(51.2598 0 0)
(51.3898 0 0)
(51.4156 0 0)
(51.5227 0 0)
(51.7332 0 0)
(51.8118 0 0)
(51.8046 0 0)
(51.9556 0 0)
(52.1629 0 0)
(52.1774 0 0)
(52.1752 0 0)
(52.3818 0 0)
(52.5523 0 0)
(52.5177 0 0)
(52.5596 0 0)
(52.8045 0 0)
(52.9145 0 0)
(52.8556 0 0)
(52.9606 0 0)
(53.2145 0 0)
(53.261 0 0)
(53.2053 0 0)
(53.3723 0 0)
(53.6082 0 0)
(53.6021 0 0)
(53.5705 0 0)
(53.7873 0 0)
(53.9876 0 0)
(53.9444 0 0)
(53.9516 0 0)
(54.2022 0 0)
(54.3573 0 0)
(54.2914 0 0)
(54.3445 0 0)
(54.6139 0 0)
(54.722 0 0)
(54.6461 0 0)
(54.7461 0 0)
(55.0207 0 0)
(55.0849 0 0)
(55.0096 0 0)
(55.1526 0 0)
(55.4213 0 0)
(55.4474 0 0)
(55.3807 0 0)
(55.5605 0 0)
(55.8154 0 0)
(55.8103 0 0)
(55.757 0 0)
(55.9663 0 0)
(56.2042 0 0)
(56.1745 0 0)
(56.1367 0 0)
(56.3674 0 0)
(56.586 0 0)
(56.5379 0 0)
(56.5154 0 0)
(56.7621 0 0)
(56.9647 0 0)
(56.9037 0 0)
(56.8941 0 0)
(57.1515 0 0)
(57.342 0 0)
(57.2715 0 0)
(57.2688 0 0)
(57.5326 0 0)
(57.7156 0 0)
(57.6397 0 0)
(57.6421 0 0)
(57.9102 0 0)
(58.092 0 0)
(58.0134 0 0)
(58.0138 0 0)
(58.2831 0 0)
(58.471 0 0)
(58.3927 0 0)
(58.3846 0 0)
(58.6521 0 0)
(58.8533 0 0)
(58.7799 0 0)
(58.7587 0 0)
(59.0201 0 0)
(59.2399 0 0)
(59.1756 0 0)
(59.1364 0 0)
(59.3863 0 0)
(59.6294 0 0)
(59.5804 0 0)
(59.5204 0 0)
(59.7522 0 0)
(60.0209 0 0)
(59.9951 0 0)
(59.9134 0 0)
(60.118 0 0)
(60.4114 0 0)
(60.4182 0 0)
(60.3181 0 0)
(60.4846 0 0)
(60.7975 0 0)
(60.8485 0 0)
(60.7373 0 0)
(60.8551 0 0)
(61.1764 0 0)
(61.2833 0 0)
(61.1713 0 0)
(61.2318 0 0)
(61.5472 0 0)
(61.7178 0 0)
(61.6197 0 0)
(61.62 0 0)
(61.9116 0 0)
(62.147 0 0)
(62.0799 0 0)
(62.0242 0 0)
(62.2742 0 0)
(62.5649 0 0)
(62.5468 0 0)
(62.4494 0 0)
(62.6402 0 0)
(62.9667 0 0)
(63.0155 0 0)
(62.8992 0 0)
(63.0172 0 0)
(63.3527 0 0)
(63.4809 0 0)
(63.3693 0 0)
(63.4095 0 0)
(63.7287 0 0)
(63.9388 0 0)
(63.8536 0 0)
(63.8229 0 0)
(64.1022 0 0)
(64.3825 0 0)
(64.3453 0 0)
(64.2613 0 0)
(64.4818 0 0)
(64.8093 0 0)
(64.8386 0 0)
(64.726 0 0)
(64.8716 0 0)
(65.2182 0 0)
(65.3309 0 0)
(65.2166 0 0)
(65.2769 0 0)
(65.6114 0 0)
(65.8169 0 0)
(65.7277 0 0)
(65.7054 0 0)
(65.9976 0 0)
(66.2865 0 0)
(66.2505 0 0)
(66.1632 0 0)
(66.3842 0 0)
(66.7296 0 0)
(66.7783 0 0)
(66.6602 0 0)
(66.7821 0 0)
(67.1398 0 0)
(67.3022 0 0)
(67.1952 0 0)
(67.2042 0 0)
(67.5229 0 0)
(67.8044 0 0)
(67.7556 0 0)
(67.6701 0 0)
(67.8987 0 0)
(68.2579 0 0)
(68.3198 0 0)
(68.196 0 0)
(68.2895 0 0)
(68.6474 0 0)
(68.8637 0 0)
(68.7737 0 0)
(68.7276 0 0)
(69.0048 0 0)
(69.3528 0 0)
(69.3732 0 0)
(69.2495 0 0)
(69.3745 0 0)
(69.7456 0 0)
(69.9492 0 0)
(69.8514 0 0)
(69.8066 0 0)
(70.0831 0 0)
(70.4414 0 0)
(70.4746 0 0)
(70.3465 0 0)
(70.4456 0 0)
(70.8112 0 0)
(71.0547 0 0)
(70.973 0 0)
(70.8959 0 0)
(71.1341 0 0)
(71.5141 0 0)
(71.603 0 0)
(71.4737 0 0)
(71.5102 0 0)
(71.8482 0 0)
(72.1575 0 0)
(72.1185 0 0)
(72.004 0 0)
(72.1792 0 0)
(72.5659 0 0)
(72.7321 0 0)
(72.6161 0 0)
(72.5886 0 0)
(72.8836 0 0)
(73.2409 0 0)
(73.2582 0 0)
(73.1259 0 0)
(73.2319 0 0)
(73.6049 0 0)
(73.8475 0 0)
(73.7602 0 0)
(73.6795 0 0)
(73.9203 0 0)
(74.3065 0 0)
(74.3937 0 0)
(74.2593 0 0)
(74.2928 0 0)
(74.6341 0 0)
(74.9479 0 0)
(74.9069 0 0)
(74.7863 0 0)
(74.9541 0 0)
(75.345 0 0)
(75.5249 0 0)
(75.4098 0 0)
(75.3644 0 0)
(75.6439 0 0)
(76.0205 0 0)
(76.0629 0 0)
(75.9234 0 0)
(75.9862 0 0)
(76.3436 0 0)
(76.6414 0 0)
(76.5842 0 0)
(76.4674 0 0)
(76.6381 0 0)
(77.0328 0 0)
(77.2199 0 0)
(77.105 0 0)
(77.0459 0 0)
(77.3032 0 0)
(77.6941 0 0)
(77.7727 0 0)
(77.634 0 0)
(77.6487 0 0)
(77.9712 0 0)
(78.3232 0 0)
(78.316 0 0)
(78.1784 0 0)
(78.2672 0 0)
(78.6347 0 0)
(78.9255 0 0)
(78.8591 0 0)
(78.7399 0 0)
(78.8919 0 0)
(79.2835 0 0)
(79.5043 0 0)
(79.399 0 0)
(79.31 0 0)
(79.5157 0 0)
(79.918 0 0)
(80.0718 0 0)
(79.9434 0 0)
(79.8892 0 0)
(80.1373 0 0)
(80.5371 0 0)
(80.6353 0 0)
(80.496 0 0)
(80.4751 0 0)
(80.7546 0 0)
(81.1415 0 0)
(81.1926 0 0)
(81.0471 0 0)
(81.0545 0 0)
(81.3586 0 0)
(81.7329 0 0)
(81.7508 0 0)
(81.6043 0 0)
(81.6338 0 0)
(81.9558 0 0)
(82.3149 0 0)
(82.3085 0 0)
(82.1638 0 0)
(82.2111 0 0)
(82.546 0 0)
(82.889 0 0)
(82.8635 0 0)
(82.7204 0 0)
(82.7799 0 0)
(83.1238 0 0)
(83.4572 0 0)
(83.419 0 0)
(83.2781 0 0)
(83.3447 0 0)
(83.6921 0 0)
(84.0199 0 0)
(83.9762 0 0)
(83.8354 0 0)
(83.9037 0 0)
(84.2515 0 0)
(84.5774 0 0)
(84.5302 0 0)
(84.3894 0 0)
(84.4561 0 0)
(84.8016 0 0)
(85.1315 0 0)
(85.086 0 0)
(84.9435 0 0)
(85.0033 0 0)
(85.3432 0 0)
(85.6794 0 0)
(85.6409 0 0)
(85.4973 0 0)
(85.5439 0 0)
(85.8715 0 0)
(86.2203 0 0)
(86.1996 0 0)
(86.0524 0 0)
(86.0805 0 0)
(86.3909 0 0)
(86.7572 0 0)
(86.7566 0 0)
(86.6053 0 0)
(86.6148 0 0)
(86.9024 0 0)
(87.2839 0 0)
(87.3138 0 0)
(87.1624 0 0)
(87.1462 0 0)
(87.4009 0 0)
(87.7975 0 0)
(87.8708 0 0)
(87.7205 0 0)
(87.6783 0 0)
(87.893 0 0)
(88.2973 0 0)
(88.4287 0 0)
(88.2868 0 0)
(88.2158 0 0)
(88.384 0 0)
(88.7819 0 0)
(88.9797 0 0)
(88.8561 0 0)
(88.7574 0 0)
(88.8768 0 0)
(89.2532 0 0)
(89.5211 0 0)
(89.4298 0 0)
(89.3058 0 0)
(89.3741 0 0)
(89.7128 0 0)
(90.0474 0 0)
(90.0052 0 0)
(89.8624 0 0)
(89.8827 0 0)
(90.1665 0 0)
(90.5488 0 0)
(90.5796 0 0)
(90.4314 0 0)
(90.4062 0 0)
(90.6189 0 0)
(91.0215 0 0)
(91.1521 0 0)
(91.0131 0 0)
(90.9418 0 0)
(91.0811 0 0)
(91.4703 0 0)
(91.7081 0 0)
(91.6007 0 0)
(91.4915 0 0)
(91.5606 0 0)
(91.8942 0 0)
(92.2316 0 0)
(92.1948 0 0)
(92.0559 0 0)
(92.0648 0 0)
(92.3161 0 0)
(92.7097 0 0)
(92.779 0 0)
(92.6334 0 0)
(92.5892 0 0)
(92.7456 0 0)
(93.1368 0 0)
(93.3439 0 0)
(93.2274 0 0)
(93.1315 0 0)
(93.1958 0 0)
(93.5185 0 0)
(93.8612 0 0)
(93.8306 0 0)
(93.6887 0 0)
(93.6863 0 0)
(93.9082 0 0)
(94.3052 0 0)
(94.4081 0 0)
(94.2638 0 0)
(94.2027 0 0)
(94.3151 0 0)
(94.6827 0 0)
(94.9485 0 0)
(94.8549 0 0)
(94.7335 0 0)
(94.7622 0 0)
(95.0323 0 0)
(95.406 0 0)
(95.4288 0 0)
(95.2738 0 0)
(95.2372 0 0)
(95.3908 0 0)
(95.7753 0 0)
(95.9626 0 0)
(95.8279 0 0)
(95.7202 0 0)
(95.7769 0 0)
(96.0932 0 0)
(96.4155 0 0)
(96.362 0 0)
(96.208 0 0)
(96.1964 0 0)
(96.4023 0 0)
(96.7889 0 0)
(96.8822 0 0)
(96.7172 0 0)
(96.635 0 0)
(96.7463 0 0)
(97.1122 0 0)
(97.3488 0 0)
(97.2275 0 0)
(97.0919 0 0)
(97.1173 0 0)
(97.3931 0 0)
(97.756 0 0)
(97.753 0 0)
(97.5833 0 0)
(97.5459 0 0)
(97.7178 0 0)
(98.1013 0 0)
(98.2377 0 0)
(98.0812 0 0)
(97.9888 0 0)
(98.0475 0 0)
(98.3678 0 0)
(98.7179 0 0)
(98.688 0 0)
(98.5355 0 0)
(98.5733 0 0)
(98.9058 0 0)
(99.2558 0 0)
(99.2771 0 0)
(99.3032 0 0)
(99.4944 0 0)
(99.5381 0 0)
(99.576 0 0)
(99.8666 0 0)
(100.024 0 0)
(99.908 0 0)
(99.8847 0 0)
(100.215 0 0)
(100.584 0 0)
(100.552 0 0)
(100.442 0 0)
(100.686 0 0)
(100.963 0 0)
(100.918 0 0)
(100.934 0 0)
(101.243 0 0)
(101.398 0 0)
(101.279 0 0)
(101.304 0 0)
(101.68 0 0)
(101.948 0 0)
(101.866 0 0)
(101.776 0 0)
(101.822 0 0)
(102.118 0 0)
(102.535 0 0)
(102.581 0 0)
(102.401 0 0)
(102.512 0 0)
(102.9 0 0)
(103.01 0 0)
(102.867 0 0)
(102.984 0 0)
(103.345 0 0)
(103.409 0 0)
(103.269 0 0)
(103.433 0 0)
(103.795 0 0)
(103.821 0 0)
(103.674 0 0)
(103.858 0 0)
(104.214 0 0)
(104.221 0 0)
(104.084 0 0)
(104.288 0 0)
(104.628 0 0)
(104.607 0 0)
(104.467 0 0)
(104.684 0 0)
(105.048 0 0)
(105.042 0 0)
(104.861 0 0)
(105.009 0 0)
(105.414 0 0)
(105.519 0 0)
(105.335 0 0)
(105.375 0 0)
(105.757 0 0)
(105.942 0 0)
(105.784 0 0)
(105.774 0 0)
(106.133 0 0)
(106.362 0 0)
(106.222 0 0)
(106.161 0 0)
(106.494 0 0)
(106.801 0 0)
(106.704 0 0)
(106.564 0 0)
(106.817 0 0)
(107.206 0 0)
(107.21 0 0)
(107.026 0 0)
(107.161 0 0)
(107.562 0 0)
(107.679 0 0)
(107.505 0 0)
(107.534 0 0)
(107.9 0 0)
(108.124 0 0)
(107.989 0 0)
(107.9 0 0)
(108.195 0 0)
(108.471 0 0)
(108.493 0 0)
)
;

boundaryField
{
    sides
    {
        type            zeroGradient;
    }
    empty
    {
        type            empty;
    }
}


// ************************************************************************* //
