/*--------------------------------*- C++ -*----------------------------------*\
  =========                 |
  \\      /  F ield         | OpenFOAM: The Open Source CFD Toolbox
   \\    /   O peration     | Website:  https://openfoam.org
    \\  /    A nd           | Version:  13
     \\/     M anipulation  |
\*---------------------------------------------------------------------------*/
FoamFile
{
    format      ascii;
    class       surfaceScalarField;
    location    "45.499865";
    object      phi;
}
// * * * * * * * * * * * * * * * * * * * * * * * * * * * * * * * * * * * * * //

dimensions      [0 3 -1 0 0 0 0];

internalField   nonuniform List<scalar> 
34068
(
-1.1213065e-08
3.2299971e-09
7.9830678e-09
-4.9902035e-08
1.2578389e-08
2.611058e-08
-1.2524863e-07
2.59109e-08
4.9435698e-08
-2.4884544e-07
4.3069445e-08
8.0527355e-08
-4.3526873e-07
6.3366962e-08
1.2305633e-07
-7.027713e-07
8.5370219e-08
1.8213234e-07
-1.0741207e-06
1.0661717e-07
2.6473221e-07
-1.577609e-06
1.2327782e-07
3.8021048e-07
-2.2482623e-06
1.2975422e-07
5.4089907e-07
-3.1292807e-06
1.1822976e-07
7.6278866e-07
-4.2737407e-06
7.8186048e-08
1.0662739e-06
-5.7465913e-06
-4.0743744e-09
1.4769249e-06
-7.6269647e-06
-1.4584444e-07
2.0262178e-06
-1.0010863e-05
-3.6822748e-07
2.7521255e-06
-1.3014128e-05
-6.961435e-07
3.6994083e-06
-1.6775811e-05
-1.1577166e-06
4.9193996e-06
-2.14618e-05
-1.7829968e-06
6.4689862e-06
-2.7268652e-05
-2.60158e-06
8.4084318e-06
-3.4427456e-05
-3.6387885e-06
1.0797593e-05
-4.3207499e-05
-4.9100279e-06
1.369007e-05
-5.3919351e-05
-6.4129802e-06
1.7124833e-05
-6.6916875e-05
-8.1174852e-06
2.1115009e-05
-8.2597454e-05
-9.9533045e-06
2.5633883e-05
-0.00010139951
-1.179661e-05
3.0598664e-05
-0.00012379614
-1.3456962e-05
3.5853592e-05
-0.00015028355
-1.4667801e-05
4.1155212e-05
-0.00018136277
-1.5085198e-05
4.616442e-05
-0.0002175137
-1.4300981e-05
5.0451909e-05
-0.00025916478
-1.1874334e-05
5.352541e-05
-0.00030661749
-7.4331786e-06
5.4885894e-05
-0.00036017896
-5.3610284e-07
5.4097575e-05
-0.00041995292
8.8698747e-06
5.0904083e-05
-0.0004860429
2.086942e-05
4.5220559e-05
-0.00055860892
3.5484832e-05
3.7081186e-05
-0.00063794752
5.2865714e-05
2.647289e-05
-0.00072452815
7.3401061e-05
1.3179569e-05
-0.00081899086
9.7764842e-05
-3.3021316e-06
-0.00092219765
0.00012693846
-2.3731672e-05
-0.001035213
0.00016231822
-4.9302855e-05
-0.001159372
0.00020588961
-8.1730606e-05
-0.0012963481
0.0002605444
-0.00012356829
-0.0014483045
0.00033057733
-0.00017862098
-0.0016180864
0.00042249827
-0.00025271635
-0.0018094665
0.00054618766
-0.00035480751
-0.0020274031
0.0007163311
-0.0004983946
-0.0022783845
0.0009546664
-0.0007036849
-0.0025707979
0.0012935811
-0.0010011677
-0.0029151451
0.0017807659
-0.0014364187
-0.0033239557
0.0024862651
-0.0020774545
-0.003811075
0.003513008
-0.0030258886
-0.0043898936
0.005011969
-0.0044331504
-0.00507075
0.0072033372
-0.0065224808
-0.0058561388
0.010394954
-0.0096095653
-0.0067304944
0.014961815
-0.01408746
-0.0076514256
0.02124049
-0.020319559
-0.008547997
0.029240542
-0.028343971
-0.0093167364
0.038235619
-0.037466879
-0.0099118243
0.046192743
-0.045597655
-0.010187257
0.047767742
-0.04749231
-0.0077664274
0.027937406
-0.030358235
0.0017775931
-0.032768095
0.023224074
0.01493503
-0.11107833
0.097920897
0.023501119
-0.15669676
0.14813067
0.027822915
-0.17036523
0.16604344
-0.13515932
0.03754172
0.12544051
-1.103547e-08
1.4265466e-08
-4.9105267e-08
5.0648186e-08
-1.2324015e-07
1.0004578e-07
-2.4485355e-07
1.6468284e-07
-4.2830758e-07
2.4682098e-07
-6.9160189e-07
3.4866453e-07
-1.0572085e-06
4.7222377e-07
-1.5530783e-06
6.191476e-07
-2.2138489e-06
7.9052478e-07
-3.0822844e-06
9.8666533e-07
-4.2109811e-06
1.2068827e-06
-5.6643681e-06
1.4493126e-06
-7.5210429e-06
1.7108303e-06
-9.8764209e-06
1.9871505e-06
-1.2845805e-05
2.2732401e-06
-1.6567737e-05
2.5642159e-06
-2.1207682e-05
2.8569477e-06
-2.6961905e-05
3.1526433e-06
-3.4061411e-05
3.4607176e-06
-4.2775682e-05
3.8042431e-06
-5.3415862e-05
4.2271996e-06
-6.6336874e-05
4.8035271e-06
-8.1937768e-05
5.6475891e-06
-0.00010065937
6.924989e-06
-0.00012297805
8.8617173e-06
-0.00014939419
1.1748342e-05
-0.00018041397
1.5934584e-05
-0.00021652371
2.1808755e-05
-0.00025815556
2.9757522e-05
-0.00030569663
4.0107887e-05
-0.00035931376
5.3081027e-05
-0.00041918617
6.8742284e-05
-0.00048540568
8.7088929e-05
-0.00055810435
0.00010818351
-0.00063753708
0.00013229844
-0.00072412509
0.00015998907
-0.00081846605
0.0001921058
-0.00092134509
0.0002298175
-0.0010337408
0.00027471389
-0.0011568622
0.00032901105
-0.0012922151
0.00039589728
-0.0014417068
0.00048006908
-0.0016078016
0.00058859309
-0.0017937124
0.00073209846
-0.0020035795
0.00092619819
-0.0022426868
0.0011937737
-0.002517659
0.0015685534
-0.0028364348
0.0020995416
-0.0032078467
0.002857677
-0.0036404608
0.003945622
-0.004140397
0.0055119052
-0.0047093311
0.0077722713
-0.0053409642
0.011026587
-0.0060059079
0.015626759
-0.0066388418
0.021873424
-0.0071539276
0.029755628
-0.0074487387
0.03853043
-0.0074164853
0.04616049
-0.006747429
0.047098686
-0.0023441668
0.023534144
0.008838397
-0.043950659
0.022152767
-0.1243927
0.030026034
-0.16457003
0.03158961
-0.17192881
-0.13952288
0.03595317
-1.0698366e-08
2.4963832e-08
-4.7601931e-08
8.7551749e-08
-1.1946566e-07
1.7190952e-07
-2.3736462e-07
2.825818e-07
-4.1524803e-07
4.2470438e-07
-6.7061576e-07
6.0403226e-07
-1.0253386e-06
8.2694662e-07
-1.506651e-06
1.1004599e-06
-2.1483414e-06
1.4322152e-06
-2.9921777e-06
1.8305017e-06
-4.0895951e-06
2.3043e-06
-5.5036841e-06
2.8634015e-06
-7.3115061e-06
3.5186524e-06
-9.6067628e-06
4.2824071e-06
-1.2502827e-05
5.1693039e-06
-1.6136128e-05
6.1975171e-06
-2.0669852e-05
7.3906723e-06
-2.6297867e-05
8.7806577e-06
-3.3248718e-05
1.0411568e-05
-4.1789467e-05
1.2344993e-05
-5.2229014e-05
1.4666746e-05
-6.4920387e-05
1.74949e-05
-8.026134e-05
2.0988542e-05
-9.8692307e-05
2.5355956e-05
-0.00012069058
3.0859993e-05
-0.00014675929
3.7817053e-05
-0.00017740974
4.6585026e-05
-0.00021313606
5.753508e-05
-0.00025438321
7.1004673e-05
-0.0003015134
8.7238078e-05
-0.0003547693
0.00010633692
-0.00041429398
0.00012826697
-0.00048016795
0.00015296289
-0.00055249149
0.00018050705
-0.00063146892
0.00021127587
-0.00071745875
0.0002459789
-0.00081098663
0.00028563368
-0.00091274435
0.00033157522
-0.001023592
0.00038556157
-0.0011445784
0.00044999745
-0.0012769846
0.00052830341
-0.0014223957
0.00062548017
-0.0015828037
0.00074900114
-0.001760735
0.00091002977
-0.001959339
0.0011248022
-0.0021824615
0.0014168962
-0.0024346482
0.00182074
-0.0027208462
0.0023857397
-0.0030456249
0.0031824557
-0.0034114833
0.0043114804
-0.0038165152
0.0059169371
-0.0042531557
0.0082089118
-0.004703027
0.011476459
-0.0051134766
0.016037208
-0.005383047
0.022142995
-0.0053841942
0.029756775
-0.0049598892
0.038106125
-0.0038782755
0.045078876
-0.0015816194
0.04480203
0.0052956612
0.016656863
0.017576556
-0.056231553
0.030582745
-0.13739889
0.037777075
-0.17176436
0.03743679
-0.17158852
-0.13972648
0.037640387
-1.0202585e-08
3.5166417e-08
-4.5394566e-08
1.2274373e-07
-1.1392873e-07
2.4044368e-07
-2.2638169e-07
3.9503475e-07
-3.9608988e-07
5.9441258e-07
-6.398041e-07
8.4774647e-07
-9.784869e-07
1.1656294e-06
-1.4382758e-06
1.5602489e-06
-2.0516461e-06
2.0455855e-06
-2.8588004e-06
2.6376559e-06
-3.9093233e-06
3.354823e-06
-5.264132e-06
4.2182102e-06
-6.9977569e-06
5.2522773e-06
-9.2009763e-06
6.4856264e-06
-1.198382e-05
7.9521477e-06
-1.5478939e-05
9.6926364e-06
-1.9845303e-05
1.1757036e-05
-2.5272146e-05
1.42075e-05
-3.1983024e-05
1.7122446e-05
-4.0239751e-05
2.0601721e-05
-5.0345888e-05
2.4772883e-05
-6.2649281e-05
2.9798293e-05
-7.7542999e-05
3.588226e-05
-9.5463775e-05
4.3276733e-05
-0.0001168868
5.2283022e-05
-0.00014231552
6.3245767e-05
-0.00017226481
7.6534316e-05
-0.0002072365
9.2506774e-05
-0.00024768724
0.00011145541
-0.00029399203
0.00013354286
-0.00034641452
0.00015875941
-0.00040510165
0.0001869541
-0.00047011991
0.00021798116
-0.00054153095
0.00025191809
-0.00061947665
0.00028922156
-0.00070423506
0.00033073731
-0.00079623643
0.00037763505
-0.00089605633
0.00043139512
-0.0010044068
0.00049391209
-0.0011221389
0.00056772954
-0.0012502599
0.00065642435
-0.0013899672
0.00076518754
-0.0015426944
0.0009017283
-0.0017101628
0.0010774982
-0.0018943711
0.0013090105
-0.002097515
0.00162004
-0.002321773
0.002044998
-0.0025687145
0.0026326812
-0.0028381248
0.003451866
-0.0031256567
0.0045990123
-0.0034204981
0.0062117785
-0.0037045845
0.0084929982
-0.0039376968
0.011709571
-0.0040321356
0.016131647
-0.003849538
0.021960397
-0.0032032762
0.029110513
-0.0018090659
0.036711914
0.00069713388
0.042572676
0.0054260473
0.040073116
0.014807617
0.0072752928
0.027575787
-0.068999723
0.039761603
-0.14958471
0.046223249
-0.178226
0.044860573
-0.17022585
-0.13673449
0.041868586
-9.5527454e-09
4.4719162e-08
-4.2501672e-08
1.5569266e-07
-1.066723e-07
3.046143e-07
-2.1198576e-07
5.0034821e-07
-3.7096877e-07
7.5339558e-07
-5.9937881e-07
1.0761565e-06
-9.1696492e-07
1.4832155e-06
-1.3483938e-06
1.9916777e-06
-1.924364e-06
2.6215557e-06
-2.6829495e-06
3.3962413e-06
-3.6711956e-06
4.3430691e-06
-4.9470142e-06
5.4940289e-06
-6.5813995e-06
6.8866625e-06
-8.6610056e-06
8.5652325e-06
-1.1291092e-05
1.0582234e-05
-1.4598847e-05
1.3000391e-05
-1.8737053e-05
1.5895243e-05
-2.3888037e-05
1.9358484e-05
-3.0267764e-05
2.3502173e-05
-3.8129882e-05
2.8463839e-05
-4.7769391e-05
3.4412392e-05
-5.952549e-05
4.1554393e-05
-7.378296e-05
5.0139729e-05
-9.0971245e-05
6.0465018e-05
-0.00011156011
7.2871889e-05
-0.00013605053
8.7736186e-05
-0.00016495921
0.00010544299
-0.00019879539
0.00012634295
-0.00023802946
0.00015068948
-0.00028305589
0.00017856929
-0.00033415879
0.00020986231
-0.00039149651
0.00024429183
-0.00045512444
0.00028160908
-0.00052506151
0.00032185517
-0.00060137585
0.0003655359
-0.00068424806
0.00041360952
-0.00077399164
0.00046737864
-0.0008710418
0.00052844527
-0.00097593401
0.0005988043
-0.0010892859
0.0006810814
-0.0012117853
0.00077892379
-0.0013441823
0.00089758455
-0.0014872728
0.0010448187
-0.0016418667
0.0012320921
-0.0018086692
0.001475813
-0.0019880396
0.0017994105
-0.0021795364
0.0022364948
-0.0023810117
0.0028341565
-0.0025869777
0.003657832
-0.002785617
0.0047976516
-0.0029557667
0.0063819282
-0.0030648449
0.0086020764
-0.0030428808
0.011687607
-0.0027634177
0.015852184
-0.0020381902
0.02123517
-0.00058993479
0.027662258
0.0019995706
0.034122409
0.00622051
0.038351737
0.013492812
0.032800814
0.025188535
-0.00442043
0.038457436
-0.082268624
0.049379012
-0.16050629
0.054882817
-0.18372981
0.053125119
-0.16846815
-0.13187556
0.048266193
-8.757923e-09
5.3477085e-08
-3.8964488e-08
1.8589922e-07
-9.7800394e-08
3.6345021e-07
-1.9438292e-07
5.9693074e-07
-3.4024358e-07
8.9925624e-07
-5.4991345e-07
1.2858264e-06
-8.4164046e-07
1.7749425e-06
-1.2382604e-06
2.3882976e-06
-1.7682557e-06
3.1515511e-06
-2.467028e-06
4.0950136e-06
-3.3784211e-06
5.2544623e-06
-4.5565332e-06
6.672141e-06
-6.0678498e-06
8.3979791e-06
-7.993727e-06
1.049111e-05
-1.0433252e-05
1.3021759e-05
-1.3506488e-05
1.6073627e-05
-1.7358079e-05
1.9746834e-05
-2.216117e-05
2.4161574e-05
-2.812152e-05
2.9462523e-05
-3.5481647e-05
3.5823966e-05
-4.4524685e-05
4.3455431e-05
-5.5577584e-05
5.2607291e-05
-6.9013019e-05
6.3575164e-05
-8.5249249e-05
7.6701248e-05
-0.00010474686
9.2369504e-05
-0.00012800107
0.00011099039
-0.00015552797
0.0001329699
-0.00018784318
0.00015865816
-0.00022543183
0.00018827812
-0.00026871095
0.00022184842
-0.00031799042
0.00025914178
-0.00037344623
0.00029974763
-0.00043512705
0.0003432899
-0.00050300753
0.00038973565
-0.0005770725
0.00043960087
-0.00065738869
0.00049392571
-0.0007441321
0.00055412204
-0.00083757391
0.00062188708
-0.00093804579
0.00069927618
-0.0010458993
0.00078893493
-0.001161462
0.00089448647
-0.0012849836
0.0010211061
-0.0014165537
0.0011763889
-0.0015559794
0.0013715177
-0.0017025514
0.001622385
-0.0018546363
0.0019514955
-0.0020089622
0.0023908207
-0.0021593774
0.0029845717
-0.002294673
0.0037931276
-0.0023950952
0.0048980737
-0.0024280179
0.0064148509
-0.0023399845
0.0085140431
-0.0020271198
0.011374742
-0.001323901
0.015148965
2.4005738e-05
0.019887263
0.0024078596
0.025278404
0.006351237
0.030179032
0.012407103
0.032295871
0.021982136
0.023225782
0.035660184
-0.018098478
0.049684956
-0.096293396
0.059007998
-0.16982933
0.063097125
-0.18781893
0.061285564
-0.16665659
-0.12697254
0.05638254
-7.8327033e-09
6.1309788e-08
-3.4847571e-08
2.1291409e-07
-8.7474201e-08
4.1607684e-07
-1.7389203e-07
6.8334857e-07
-3.044681e-07
1.0298323e-06
-4.922964e-07
1.4736547e-06
-7.5385875e-07
2.0365049e-06
-1.1098336e-06
2.7442725e-06
-1.5860796e-06
3.627797e-06
-2.2148249e-06
4.7237589e-06
-3.036097e-06
6.0757344e-06
-4.0994316e-06
7.7354756e-06
-5.4658865e-06
9.764434e-06
-7.2104145e-06
1.2235638e-05
-9.4246001e-06
1.5235945e-05
-1.2219791e-05
1.8868818e-05
-1.5730609e-05
2.3257652e-05
-2.0118806e-05
2.8549772e-05
-2.5577366e-05
3.4921083e-05
-3.233472e-05
4.2581319e-05
-4.0658811e-05
5.1779522e-05
-5.0860632e-05
6.2809113e-05
-6.329675e-05
7.6011282e-05
-7.8370049e-05
9.1774547e-05
-9.6527718e-05
0.00011052717
-0.00011825527
0.00013271794
-0.0001440649
0.00015877953
-0.00017447652
0.00018906979
-0.00020998971
0.00022379131
-0.0002510463
0.00026290501
-0.00029798689
0.00030608237
-0.00035101225
0.00035277299
-0.00041017091
0.00040244856
-0.00047539474
0.00045495948
-0.0005465783
0.00051078443
-0.00062365953
0.00057100694
-0.00070665681
0.00063711933
-0.00079565445
0.00071088473
-0.00089075501
0.00079437673
-0.00099201482
0.00089019474
-0.0010993656
0.0010018373
-0.0012125128
0.0011342532
-0.0013307842
0.0012946604
-0.0014529103
0.0014936439
-0.0015766713
0.001746146
-0.0016983189
0.0020731431
-0.0018115885
0.0025040903
-0.0019060885
0.0030790717
-0.0019645014
0.0038515404
-0.0019585298
0.0048921022
-0.0018426902
0.0062990113
-0.0015386126
0.0082099654
-0.00090787407
0.010744004
0.00026072159
0.01398037
0.002301501
0.017846483
0.0057237355
0.021856169
0.011066832
0.024835935
0.018844167
0.024518536
0.030441707
0.011628242
0.04604657
-0.033703341
0.060781858
-0.11102868
0.068197721
-0.17724519
0.070294039
-0.18991525
0.068766681
-0.16512923
-0.12390379
0.065697928
-6.7970236e-09
6.8106812e-08
-3.0238977e-08
2.3635604e-07
-7.5914036e-08
4.617519e-07
-1.5094899e-07
7.5838352e-07
-2.6440206e-07
1.1432854e-06
-4.2774724e-07
1.6369998e-06
-6.5547188e-07
2.2642296e-06
-9.6581209e-07
3.0546127e-06
-1.3816475e-06
4.0436325e-06
-1.9315935e-06
5.2737049e-06
-2.6513177e-06
6.7954586e-06
-3.5851192e-06
8.669277e-06
-4.7878135e-06
1.0967128e-05
-6.3269468e-06
1.3774771e-05
-8.2853898e-06
1.7194388e-05
-1.0764312e-05
2.134774e-05
-1.3886557e-05
2.6379897e-05
-1.7800398e-05
3.2463612e-05
-2.2683594e-05
3.9804278e-05
-2.874763e-05
4.8645356e-05
-3.624196e-05
5.9273852e-05
-4.5457906e-05
7.2025059e-05
-5.6731792e-05
8.7285168e-05
-7.0446636e-05
0.00010548939
-8.7031576e-05
0.00012711211
-0.00010695776
0.00015264412
-0.00013072922
0.00018255099
-0.00015886678
0.00021720735
-0.00019188273
0.00025680726
-0.00023024442
0.00030126671
-0.0002743273
0.00035016524
-0.00032436443
0.00040281012
-0.00038041301
0.00045849714
-0.00044236734
0.00051691381
-0.00051002849
0.00057844558
-0.00058319281
0.00064417126
-0.00066170219
0.0007156287
-0.00074543233
0.00079461487
-0.00083423345
0.00088317785
-0.00092784148
0.00098380277
-0.0010257635
0.0010997593
-0.0011271255
0.0012356153
-0.0012304518
0.0013979866
-0.0013333428
0.0015965349
-0.0014320011
0.0018448043
-0.0015204768
0.0021616188
-0.0015894027
0.0025730162
-0.0016239741
0.0031136431
-0.0016004389
0.0038280052
-0.0014812545
0.0047729178
-0.0012068046
0.0060245615
-0.0006722315
0.0076753923
0.00029634035
0.0097754317
0.0019679941
0.012308716
0.004766639
0.015047839
0.0092696943
0.017353114
0.015891049
0.018214581
0.025129691
0.015279894
0.038752132
-0.0019941998
0.056420936
-0.051372144
0.071310298
-0.12591805
0.076457011
-0.1823919
0.076217194
-0.18967543
0.075273181
-0.16418522
-0.12401227
0.075381669
-5.6757877e-09
7.3782599e-08
-2.5249584e-08
2.5592984e-07
-6.3397344e-08
4.9989966e-07
-1.2610353e-07
8.2108971e-07
-2.2100264e-07
1.2381845e-06
-3.5780375e-07
1.773801e-06
-5.4881831e-07
2.4552441e-06
-8.0960858e-07
3.315403e-06
-1.1597883e-06
4.3938122e-06
-1.6239987e-06
5.7379153e-06
-2.2330967e-06
7.4045566e-06
-3.0255897e-06
9.46177e-06
-4.0493571e-06
1.1990896e-05
-5.3636872e-06
1.5089101e-05
-7.0416856e-06
1.8872386e-05
-9.1730642e-06
2.3479118e-05
-1.1867341e-05
2.9074174e-05
-1.5257426e-05
3.5853698e-05
-1.95036e-05
4.4050451e-05
-2.4797733e-05
5.3939489e-05
-3.1367642e-05
6.5843761e-05
-3.9481333e-05
8.0138749e-05
-4.9450711e-05
9.7254546e-05
-6.1634277e-05
0.00011767296
-7.6438002e-05
0.00014191584
-9.4313331e-05
0.00017051945
-0.00011575082
0.00020398848
-0.00014126736
0.00024272389
-0.00017138436
0.00028692426
-0.00020659346
0.00033647581
-0.00024730738
0.00039087917
-0.00029379866
0.0004493014
-0.00034614386
0.00051084234
-0.0004042091
0.00057497905
-0.0004677033
0.00064193978
-0.00053627207
0.00071274003
-0.00060956362
0.00078892025
-0.00068722472
0.00087227597
-0.00076883237
0.0009647855
-0.00085378106
0.0010687515
-0.00094113112
0.0011871094
-0.0010294045
0.0013238886
-0.0011162927
0.0014848748
-0.001198231
0.0016784732
-0.001269805
0.0019163784
-0.0013228111
0.0022146249
-0.0013447198
0.0025949249
-0.0013162205
0.0030851438
-0.0012069604
0.0037187451
-0.00096969054
0.004535648
-0.00053028621
0.0055851571
0.00024656299
0.0068985431
0.0015764824
0.0084455123
0.0037965901
0.010088608
0.0074031311
0.011441298
0.012920791
0.011835454
0.020579491
0.010555881
0.031227987
0.0046313988
0.047280343
-0.018046556
0.06695065
-0.071042451
0.080752897
-0.13972029
0.083175521
-0.18481453
0.08093573
-0.18743564
0.080524742
-0.16377423
-0.12763135
0.084143817
-4.4990491e-09
7.8281649e-08
-2.0012966e-08
2.7144376e-07
-5.0258791e-08
5.3014548e-07
-1.0001818e-07
8.708491e-07
-1.7542507e-07
1.3135914e-06
-2.8432503e-07
1.8827009e-06
-4.3672589e-07
2.607645e-06
-6.4535526e-07
3.5240324e-06
-9.2635488e-07
4.6748118e-06
-1.3001298e-06
6.1116902e-06
-1.7923978e-06
7.8968246e-06
-2.4354544e-06
1.0104827e-05
-3.2697129e-06
1.2825154e-05
-4.3455432e-06
1.6164932e-05
-5.7254572e-06
2.02523e-05
-7.4866745e-06
2.5240336e-05
-9.7240904e-06
3.131159e-05
-1.2553678e-05
3.8683286e-05
-1.611628e-05
4.7613053e-05
-2.0581767e-05
5.8404976e-05
-2.6153454e-05
7.1415448e-05
-3.3072575e-05
8.705787e-05
-4.1622555e-05
0.00010580453
-5.2132635e-05
0.00012818304
-6.4980238e-05
0.00015476344
-8.0591105e-05
0.00018613032
-9.9435908e-05
0.00022283328
-0.00012202123
0.00026530921
-0.00014887185
0.00031377488
-0.00018049993
0.00036810389
-0.00021735544
0.00042773468
-0.0002597561
0.00049170206
-0.0003078096
0.00055889584
-0.00036136731
0.00062853676
-0.00042005319
0.00070062566
-0.00048335754
0.00077604439
-0.00055072072
0.00085628343
-0.0006215419
0.00094309716
-0.00069510627
0.0010383499
-0.00077044959
0.0011440948
-0.00084616969
0.0012628295
-0.00092016919
0.0013978881
-0.00098929049
0.0015539961
-0.0010487854
0.0017379681
-0.0010915986
0.0019591916
-0.001107241
0.0022302673
-0.0010799857
0.0025676695
-0.00098596287
0.002991121
-0.00078819761
0.0035209798
-0.00042927375
0.0041767241
0.00018225064
0.0049736328
0.0012188552
0.0058619385
0.0029476042
0.0067167633
0.0057687246
0.0072674876
0.010171388
0.0070386339
0.016491944
0.0055148988
0.025062628
0.0019851967
0.037747062
-0.0080530362
0.056845927
-0.037145421
0.077444451
-0.091640975
0.088258086
-0.15053393
0.087884091
-0.18444053
0.084742314
-0.18429387
0.085015274
-0.16404719
-0.1340978
0.091481723
-3.3009802e-09
8.1582629e-08
-1.4680636e-08
2.8282341e-07
-3.6878024e-08
5.5234287e-07
-7.3446075e-08
9.0741715e-07
-1.2898329e-07
1.3691286e-06
-2.0942557e-07
1.9631432e-06
-3.2241452e-07
2.7206339e-06
-4.777614e-07
3.6793792e-06
-6.8802501e-07
4.8850754e-06
-9.6923185e-07
6.392897e-06
-1.3417646e-06
8.2693574e-06
-1.8314587e-06
1.0594521e-05
-2.4709311e-06
1.3464627e-05
-3.301203e-06
1.6995203e-05
-4.3736279e-06
2.1324725e-05
-5.7522e-06
2.6618908e-05
-7.516262e-06
3.3075652e-05
-9.7636297e-06
4.0930654e-05
-1.2614171e-05
5.0463594e-05
-1.6213802e-05
6.2004608e-05
-2.0738872e-05
7.5940518e-05
-2.6400772e-05
9.271977e-05
-3.3450658e-05
0.00011285441
-4.2183914e-05
0.00013691629
-5.2943879e-05
0.00016552341
-6.6124141e-05
0.00019931058
-8.216813e-05
0.00023887727
-0.00010156413
0.00028470521
-0.00012483231
0.00033704307
-0.00015249848
0.00039577006
-0.0001850465
0.0004602827
-0.00022284221
0.00052949777
-0.00026603572
0.00060208935
-0.00031448036
0.0006769814
-0.00036772843
0.00075387373
-0.00042511679
0.00083343275
-0.00048586787
0.00091703451
-0.00054911706
0.0010063463
-0.00061384105
0.0011030738
-0.00067870295
0.0012089567
-0.00074182661
0.0013259531
-0.00080048633
0.0014565479
-0.00085066692
0.0016041767
-0.00088642945
0.0017737306
-0.00089905435
0.0019718165
-0.00087572397
0.0022069369
-0.00079742657
0.0024893721
-0.00063555579
0.0028292502
-0.00034630157
0.0032317256
0.00013966643
0.0036907561
0.00093906267
0.0041742365
0.0022689026
0.0045320985
0.0044495045
0.0045361615
0.0078868699
0.0038301221
0.012930002
0.001995502
0.019944352
-0.001499451
0.030052438
-0.0081228899
0.04595313
-0.023953728
0.067940245
-0.059132535
0.08674148
-0.11044221
0.093162053
-0.1569545
0.090851415
-0.1821299
0.087881682
-0.18132413
0.089397255
-0.16556276
-0.14230185
0.097601309
-2.119848e-09
8.3702477e-08
-9.4227111e-09
2.9012627e-07
-2.3680927e-08
5.6660109e-07
-4.7231972e-08
9.3096819e-07
-8.3151467e-08
1.4050481e-06
-1.3547911e-07
2.0154708e-06
-2.0950277e-07
2.7946576e-06
-3.1212435e-07
3.7820008e-06
-4.5232154e-07
5.0252726e-06
-6.417289e-07
6.5823044e-06
-8.9536859e-07
8.5229971e-06
-1.2325529e-06
1.0931705e-05
-1.6780062e-06
1.391008e-05
-2.2632365e-06
1.7580434e-05
-3.0282008e-06
2.208969e-05
-4.0233143e-06
2.7614021e-05
-5.3118384e-06
3.4364176e-05
-6.9727011e-06
4.2591517e-05
-9.1037781e-06
5.2594671e-05
-1.1825637e-05
6.4726467e-05
-1.5285768e-05
7.9400649e-05
-1.9663232e-05
9.7097234e-05
-2.517363e-05
0.00011836481
-3.2074241e-05
0.0001438169
-4.0668961e-05
0.00017411813
-5.131253e-05
0.00020995415
-6.4413056e-05
0.00025197779
-8.0431045e-05
0.0003007232
-9.9871689e-05
0.00035648371
-0.00012326427
0.00041916264
-0.00015111878
0.00048813721
-0.00018384782
0.00056222681
-0.00022165299
0.00063989453
-0.00026440813
0.00071973653
-0.00031161286
0.00080107846
-0.0003624599
0.00088427979
-0.00041594999
0.00097052459
-0.00047094151
0.0010613379
-0.00052608757
0.0011582199
-0.00057966597
0.0012625351
-0.00062931728
0.0013756044
-0.00067167935
0.0014989099
-0.00070186944
0.0016343668
-0.00071274156
0.0017846027
-0.00069386461
0.0019529396
-0.00062997978
0.0021430521
-0.00049852239
0.0023579147
-0.00026550709
0.0025962349
0.00012109221
0.0028451263
0.00074657537
0.003065273
0.0017660858
0.0031547261
0.0034431149
0.0028550694
0.0061090294
0.0018702469
0.010089595
-0.00015044356
0.015780439
-0.003695342
0.024190783
-0.0099097951
0.037329217
-0.021261323
0.05706411
-0.043688621
0.079232189
-0.081300615
0.092816942
-0.12402696
0.095268416
-0.15940598
0.092563549
-0.17942503
0.090697356
-0.17945794
0.093634754
-0.16850016
-0.15150001
0.10283291
-9.9497772e-10
8.4697455e-08
-4.4139914e-09
2.9354529e-07
-1.1106456e-08
5.7329356e-07
-2.2246312e-08
9.4210805e-07
-3.945169e-08
1.4222535e-06
-6.4940129e-08
2.0409593e-06
-1.0173527e-07
2.8314527e-06
-1.5393304e-07
3.8341986e-06
-2.2704827e-07
5.0983879e-06
-3.2845857e-07
6.6837147e-06
-4.6796712e-07
8.6625056e-06
-6.5852228e-07
1.112226e-05
-9.171098e-07
1.4168668e-05
-1.2658732e-06
1.7929197e-05
-1.7334915e-06
2.2557308e-05
-2.3568644e-06
2.8237394e-05
-3.1831551e-06
3.5190467e-05
-4.2722488e-06
4.368061e-05
-5.6996491e-06
5.4022071e-05
-7.5598979e-06
6.6586716e-05
-9.9705196e-06
8.1811271e-05
-1.3076528e-05
0.00010020324
-1.7055488e-05
0.00012234377
-2.212303e-05
0.00014888445
-2.8538754e-05
0.00018053385
-3.6612071e-05
0.00021802746
-4.6707348e-05
0.00026207307
-5.9246838e-05
0.00031326269
-7.4708232e-05
0.0003719451
-9.3610646e-05
0.00043806505
-0.00011647765
0.00051100421
-0.00014376127
0.00058951044
-0.00017571919
0.00067185244
-0.00021226261
0.00075627995
-0.00025286178
0.00084167763
-0.00029658119
0.00092799921
-0.00034220595
0.0010161493
-0.00038830859
0.0011074405
-0.00043320369
0.001203115
-0.00047477006
0.0013041015
-0.00051015251
0.0014109869
-0.00053533706
0.0015240945
-0.00054454653
0.0016435762
-0.00052937053
0.0017694267
-0.0004775419
0.0019011109
-0.00037108034
0.0020365905
-0.00018321603
0.0021700504
0.00012694609
0.0022860728
0.00062379968
0.0023482727
0.0014157978
0.0022732748
0.0027110669
0.001859457
0.0047909715
0.00077516488
0.0079588559
-0.0012976375
0.012657673
-0.0048492609
0.019901034
-0.010938703
0.03134848
-0.02135724
0.048515615
-0.038428459
0.069950224
-0.06512323
0.087827289
-0.099177679
0.0957077
-0.13190737
0.096171994
-0.15987027
0.093543515
-0.17679655
0.093250433
-0.17916486
0.09751727
-0.172767
-0.16137067
0.10738793
3.2107368e-11
8.4665348e-08
1.6102223e-10
2.9341637e-07
3.8315407e-10
5.7307142e-07
5.9184143e-10
9.4189937e-07
5.1039891e-10
1.4223349e-06
-4.0176694e-10
2.0418715e-06
-3.0754899e-09
2.8341265e-06
-9.0096155e-09
3.8401327e-06
-2.0501661e-08
5.1098799e-06
-4.0960512e-08
6.7041736e-06
-7.5312359e-08
8.6968575e-06
-1.3052736e-07
1.1177475e-05
-2.1629477e-07
1.4254435e-05
-3.4588298e-07
1.8058785e-05
-5.372216e-07
2.2748647e-05
-8.1425266e-07
2.8514425e-05
-1.2085912e-06
3.5584805e-05
-1.7615751e-06
4.4233594e-05
-2.5267344e-06
5.478723e-05
-3.5727676e-06
6.7632749e-05
-4.9870886e-06
8.3225592e-05
-6.8800095e-06
0.00010209616
-9.3896287e-06
0.00012485339
-1.2687496e-05
0.00015218231
-1.6984992e-05
0.00018483135
-2.254041e-05
0.00022358288
-2.9666197e-05
0.00026919886
-3.8735259e-05
0.00032233175
-5.0183551e-05
0.0003833934
-6.4502823e-05
0.00045238432
-8.2211854e-05
0.00052871324
-0.00010378694
0.00061108552
-0.00012954236
0.00069760787
-0.00015944383
0.00078618142
-0.0001929388
0.0008751726
-0.00022900275
0.00096406316
-0.00026621736
0.001053364
-0.0003028662
0.0011440894
-0.00033690765
0.0012371565
-0.00036580235
0.0013329962
-0.00038617561
0.0014313602
-0.00039332425
0.0015312431
-0.00038050429
0.0016307563
-0.00033789406
0.0017268165
-0.00025108589
0.0018143028
-9.874343e-05
0.001884248
0.00015159822
0.0019197087
0.00055105559
0.0018866154
0.0011840079
0.0017153204
0.0021972909
0.0012599919
0.0038437516
0.00021299629
0.0064273874
-0.0018084709
0.010445075
-0.0053153256
0.01693907
-0.011343255
0.027445294
-0.021444928
0.042834893
-0.036746839
0.062033846
-0.057627412
0.080319767
-0.083409152
0.091664093
-0.110522
0.095911216
-0.1361545
0.095969268
-0.15992832
0.094603168
-0.17543045
0.095707195
-0.18026889
0.10095592
-0.17801573
-0.17162977
0.11121502
9.2106473e-10
8.3744283e-08
4.1213291e-09
2.9021611e-07
1.0331733e-08
5.6686102e-07
2.0375074e-08
9.3185603e-07
3.5144259e-08
1.4075657e-06
5.5569216e-08
2.0214465e-06
8.2553691e-08
2.807142e-06
1.1688875e-07
3.8057977e-06
1.591191e-07
5.0676496e-06
2.0935704e-07
6.6539356e-06
2.6702389e-07
8.6391906e-06
3.3050614e-07
1.1113993e-05
3.9668072e-07
1.418826e-05
4.6031691e-07
1.7995149e-05
5.1327986e-07
2.2695684e-05
5.435262e-07
2.8484179e-05
5.3381517e-07
3.5594516e-05
4.6012876e-07
4.4307281e-05
2.8965294e-07
5.4957706e-05
-2.1658357e-08
6.7944061e-05
-5.3210334e-07
8.3736037e-05
-1.3179093e-06
0.00010288197
-2.4776953e-06
0.00012601318
-4.1378819e-06
0.0001538425
-6.4591892e-06
0.00018715265
-9.644289e-06
0.00022676798
-1.3946515e-05
0.00027350108
-1.9678879e-05
0.00032806411
-2.7221089e-05
0.00039093561
-3.7019103e-05
0.00046218234
-4.9565457e-05
0.00054125959
-6.5339089e-05
0.00062685915
-8.4679011e-05
0.00071694779
-0.0001076564
0.00080915882
-0.00013365127
0.00090116746
-0.00016161466
0.00099202655
-0.00018996217
0.0010817115
-0.00021667966
0.0011708069
-0.00023934324
0.00125982
-0.00025496537
0.0013486183
-0.00025960386
0.0014359987
-0.00024778131
0.0015194206
-0.00021161929
0.0015945942
-0.00013956198
0.0016547592
-1.4395364e-05
0.0016891362
0.00019003202
0.0016798207
0.0005149614
0.0015947793
0.0010286946
0.0013728822
0.0018487619
0.00089525311
0.0031796413
-7.0887537e-05
0.0053408171
-0.0019481795
0.0088981011
-0.0053657549
0.014948112
-0.011365336
0.024869739
-0.021264882
0.039101858
-0.035677047
0.056242342
-0.053887324
0.073045128
-0.074430197
0.085496563
-0.095860588
0.092111048
-0.11713649
0.094878738
-0.13892219
0.095200716
-0.1602503
0.095450113
-0.17567984
0.097881482
-0.18270026
0.103876
-0.18401024
-0.18209162
0.11433784
1.6266061e-09
8.2117677e-08
7.2666892e-09
2.8457603e-07
1.8238216e-08
5.558895e-07
3.6108466e-08
9.1398578e-07
6.2713355e-08
1.3809609e-06
1.0016755e-07
1.9839923e-06
1.5086633e-07
2.7564432e-06
2.1746703e-07
3.739197e-06
3.0284447e-07
4.9822721e-06
4.1001517e-07
6.546765e-06
5.4200911e-07
8.5071967e-06
7.016804e-07
1.0954322e-05
8.91439e-07
1.3998502e-05
1.1128649e-06
1.7773723e-05
1.3662043e-06
2.2442344e-05
1.6496822e-06
2.8200701e-05
1.9586167e-06
3.5285582e-05
2.2842511e-06
4.3981647e-05
2.6123016e-06
5.4629656e-05
2.921058e-06
6.7635304e-05
3.1790286e-06
8.3478066e-05
3.341928e-06
0.00010271907
3.348892e-06
0.00012600621
3.1176562e-06
0.00015407374
2.5384862e-06
0.00018773182
1.4665363e-06
0.00022783993
-2.874828e-07
0.0002752551
-2.9679903e-06
0.00033074462
-6.8849925e-06
0.00039485261
-1.2419657e-05
0.000467717
-2.0012829e-05
0.00054885277
-3.0123531e-05
0.00063696985
-4.3076695e-05
0.00072990095
-5.8899014e-05
0.00082498114
-7.7088673e-05
0.00091935712
-9.6693084e-05
0.001011631
-0.00011588905
0.0011009074
-0.00013230662
0.0011872244
-0.00014315207
0.0012706655
-0.00014493779
0.001350404
-0.00013305646
0.0014241173
-0.00010108029
0.0014874444
-3.9651899e-05
0.0015331658
6.5226548e-05
0.0015498808
0.00023495428
0.0015194084
0.00050347889
0.0014112961
0.0009279127
0.0011703455
0.0016081805
0.00069261437
0.0027169769
-0.00021354328
0.0045768963
-0.0019308069
0.0078125218
-0.0051838051
0.013552193
-0.011105426
0.023017987
-0.02083113
0.036324581
-0.034571476
0.05182336
-0.051175826
0.066839344
-0.068903307