/*--------------------------------*- C++ -*----------------------------------*\
  =========                 |
  \\      /  F ield         | OpenFOAM: The Open Source CFD Toolbox
   \\    /   O peration     | Website:  https://openfoam.org
    \\  /    A nd           | Version:  13
     \\/     M anipulation  |
\*---------------------------------------------------------------------------*/
FoamFile
{
    format      ascii;
    class       surfaceScalarField;
    location    "10.79727";
    object      phi;
}
// * * * * * * * * * * * * * * * * * * * * * * * * * * * * * * * * * * * * * //

dimensions      [0 3 -1 0 0 0 0];

internalField   nonuniform List<scalar> 
34068
(
-2.5268262e-07
2.0233714e-07
5.0345486e-08
-1.1190966e-06
6.9402198e-07
1.7239195e-07
-2.7964204e-06
1.3438238e-06
3.3349998e-07
-5.5294988e-06
2.1897735e-06
5.4330496e-07
-9.6204563e-06
3.2775047e-06
8.134528e-07
-1.5439659e-05
4.6612893e-06
1.1579133e-06
-2.3438098e-05
6.4051306e-06
1.5933089e-06
-3.4161106e-05
8.5837714e-06
2.1392364e-06
-4.8263172e-05
1.1283515e-05
2.8185502e-06
-6.652345e-05
1.460271e-05
3.6575686e-06
-8.9861255e-05
1.8651661e-05
4.6861435e-06
-0.00011935054
2.3551765e-05
5.9375227e-06
-0.00015623196
2.9433513e-05
7.4479097e-06
-0.00020192071
3.6433112e-05
9.2556333e-06
-0.00025800795
4.4687438e-05
1.1399806e-05
-0.00032625363
5.4327235e-05
1.391844e-05
-0.00040856837
6.5468765e-05
1.6845975e-05
-0.00050698345
7.8204683e-05
2.0210399e-05
-0.00062360929
9.2595587e-05
2.4030256e-05
-0.00076058641
0.00010866489
2.8312225e-05
-0.00092003705
0.00012640042
3.3050223e-05
-0.0011040316
0.00014576716
3.8227376e-05
-0.0013145882
0.00016673434
4.3822227e-05
-0.0015537269
0.00018931851
4.9820206e-05
-0.0018235968
0.0002136395
5.6230468e-05
-0.0021266656
0.00023996727
6.310145e-05
-0.0024659018
0.00026871682
7.0519433e-05
-0.0028447787
0.00030031471
7.8562225e-05
-0.0032674769
0.00033535367
8.734454e-05
-0.0037389836
0.00037451599
9.6990688e-05
-0.0042651537
0.00041855369
0.00010761637
-0.0048527676
0.00046829274
0.00011932117
-0.0055096041
0.00052464886
0.00013218765
-0.0062445267
0.00058863712
0.00014628546
-0.0070675766
0.00066137098
0.0001616789
-0.0079900542
0.00074404718
0.00017843049
-0.0090245643
0.00083791393
0.0001965961
-0.010184996
0.00094421997
0.00021621162
-0.01148641
0.0010641411
0.00023727334
-0.012944796
0.001198673
0.00025971286
-0.01457665
0.0013484852
0.00028336885
-0.016398307
0.0015137019
0.00030795454
-0.018424754
0.0016934607
0.00033298721
-0.020667983
0.0018855202
0.00035770829
-0.023136817
0.0020871749
0.00038165865
-0.025835267
0.0022939222
0.00040452776
-0.028764399
0.0025018452
0.00042728715
-0.031907773
0.0026954944
0.00044787924
-0.035232193
0.0028585761
0.00046584394
-0.03867608
0.0029618553
0.00048203191
-0.042162053
0.0029865249
0.00049944795
-0.045571348
0.0029023741
0.00050692095
-0.048637779
0.0025922172
0.00047421401
-0.051077238
0.0020033919
0.00043606757
-0.052566138
0.0011091576
0.00037974205
-0.052566423
-0.00021790665
0.00021819146
-0.050403866
-0.0020958301
-6.6726117e-05
-0.04522729
-0.0045920414
-0.00058453477
-0.036399828
-0.0075232525
-0.0013042103
-0.023974978
-0.01035636
-0.0020684895
-0.0085177865
-0.012644957
-0.0028122346
0.0087395573
-0.013815874
-0.00344147
0.026543953
-0.013953489
-0.0038509063
0.044216812
-0.013447493
-0.0042253668
-0.013018627
0.061813946
-0.004578507
-2.5177736e-07
4.541145e-07
-1.1151527e-06
1.5573973e-06
-2.7867204e-06
3.0153915e-06
-5.5107807e-06
4.9138338e-06
-9.5889202e-06
7.3556442e-06
-1.5391038e-05
1.0463407e-05
-2.3367825e-05
1.4381917e-05
-3.4064609e-05
1.9280555e-05
-4.8136388e-05
2.5355294e-05
-6.6363607e-05
3.2829928e-05
-8.9668048e-05
4.1956103e-05
-0.00011912778
5.30115e-05
-0.00015598989
6.6295621e-05
-0.00020167901
8.2122233e-05
-0.00025779968
0.00010080811
-0.00032613002
0.00012265757
-0.00040860447
0.00014794321
-0.00050728427
0.00017688448
-0.00062431607
0.00020962739
-0.00076188206
0.00024623087
-0.0009221497
0.00028666807
-0.0011072349
0.00033085241
-0.0013191978
0.00037869716
-0.0015600918
0.00043021257
-0.0018320877
0.00048563535
-0.0021376626
0.00054554215
-0.0024797884
0.00061084263
-0.0028619529
0.00068247919
-0.0032883504
0.00076175117
-0.0037639791
0.00085014468
-0.0042947099
0.0009492845
-0.0048873419
0.0010609248
-0.0055496687
0.0011869756
-0.0062905573
0.0013295258
-0.0071200324
0.001490846
-0.0080493442
0.001673359
-0.0090909975
0.0018795673
-0.010258711
0.0021119333
-0.01156727
0.0023727003
-0.013032239
0.0026636422
-0.014669495
0.0029857403
-0.016494483
0.0033386904
-0.018520924
0.0037199021
-0.020759209
0.0041238052
-0.023215625
0.00454359
-0.025891611
0.0049699082
-0.028784055
0.0053942893
-0.031871427
0.0057828671
-0.035113974
0.0061011227
-0.038446971
0.006294852
-0.041772196
0.0063117497
-0.04491821
0.0060483888
-0.047666396
0.0053404031
-0.049748884
0.0040858796
-0.050752976
0.0021132501
-0.05016421
-0.00080667353
-0.047286648
-0.004973392
-0.041252264
-0.010626425
-0.031401062
-0.017374455
-0.017842717
-0.023914705
-0.0012918604
-0.029195814
0.017052527
-0.032160261
0.035844715
-0.032745677
0.054547982
-0.03215076
-0.031432174
0.07296153
-2.4339174e-07
6.9750624e-07
-1.0783296e-06
2.3923352e-06
-2.6954105e-06
4.6324724e-06
-5.3317115e-06
7.5501348e-06
-9.2802151e-06
1.1304148e-05
-1.4900713e-05
1.6083906e-05
-2.2632182e-05
2.2113386e-05
-3.3006649e-05
2.9655022e-05
-4.6664284e-05
3.9012929e-05
-6.4369484e-05
5.0535128e-05
-8.7027221e-05
6.4613839e-05
-0.00011569883
8.1683112e-05
-0.00015161584
0.00010221262
-0.0001961901
0.0001266965
-0.0002510181
0.00015563611
-0.00031787688
0.00018951635
-0.0003987092
0.00022877553
-0.00049559614
0.00027377143
-0.00061071685
0.0003247481
-0.00074629815
0.00038181217
-0.0009045612
0.00044493111
-0.0010876781
0.00051396928
-0.0012977573
0.00058877635
-0.0015368799
0.0006693352
-0.0018072084
0.00075596385
-0.0021111756
0.00084950939
-0.0024516849
0.00095135188
-0.002832242
0.0010630363
-0.0032569431
0.0011864523
-0.0037306762
0.0013238777
-0.0042591988
0.0014778071
-0.0048491888
0.0016509148
-0.005508289
0.0018460759
-0.0062451669
0.0020664037
-0.0070695738
0.0023152529
-0.0079923838
0.002596169
-0.0090255823
0.0029127658
-0.010182171
0.0032685216
-0.011475955
0.0036664847
-0.012921192
0.004108879
-0.014532025
0.0045965738
-0.01632156
0.0051282254
-0.018300363
0.005698705
-0.020475179
0.0062986214
-0.022847314
0.0069157249
-0.025413725
0.0075363188
-0.028161769
0.0081423339
-0.031060954
0.0086820523
-0.034061727
0.0091018952
-0.037089442
0.0093225671
-0.040029916
0.0092522231
-0.042716324
0.0087347972
-0.044930283
0.007554362
-0.046363935
0.0055195323
-0.046607551
0.0023568653
-0.045162579
-0.0022516452
-0.041321483
-0.0088144878
-0.034199944
-0.017747964
-0.023107076
-0.028467322
-0.0082733395
-0.038748442
0.0094454772
-0.04691463
0.028640506
-0.05135529
0.048191198
-0.05229637
0.067444918
-0.05140448
-0.050092607
0.08610535
-2.2725638e-07
9.2476262e-07
-1.0073579e-06
3.1724367e-06
-2.5191661e-06
6.1442806e-06
-4.9855114e-06
1.001648e-05
-8.6822714e-06
1.5000908e-05
-1.3948921e-05
2.1350555e-05
-2.120065e-05
2.9365115e-05
-3.094198e-05
3.9396352e-05
-4.3781884e-05
5.1852834e-05
-6.0450027e-05
6.7203271e-05
-8.1813739e-05
8.5977552e-05
-0.00010889481
0.00010876419
-0.00014288502
0.00013620283
-0.00018515862
0.00016897009
-0.00023727971
0.0002077572
-0.00030100197
0.00025323862
-0.000378258
0.00030603155
-0.00047113574
0.00036664917
-0.00058184105
0.00043545341
-0.00071264742
0.00051261854
-0.00086583879
0.00059812248
-0.0010436565
0.00069178698
-0.0012482688
0.00079338868
-0.0014817862
0.00090285263
-0.001746341
0.0010205186
-0.0020442504
0.0011474188
-0.0023782768
0.0012853783
-0.002751966
0.0014367255
-0.0031692179
0.0016037042
-0.0036346486
0.0017893085
-0.004153772
0.0019969305
-0.0047330042
0.002230147
-0.0053796714
0.0024927431
-0.0061020402
0.0027887725
-0.006909339
0.0031225517
-0.0078117486
0.0034985786
-0.0088203285
0.0039213457
-0.0099468499
0.004395043
-0.011203508
0.0049231427
-0.012602473
0.0055078441
-0.014155197
0.0061492977
-0.015871279
0.0068443077
-0.017756721
0.0075841463
-0.019812932
0.008354833
-0.022035492
0.0091382844
-0.024416575
0.0099174024
-0.026932031
0.010657789
-0.029543875
0.011293896
-0.032196056
0.011754077
-0.034808238
0.011934748
-0.037260936
0.011704921
-0.03938568
0.010859542
-0.040955791
0.0091244726
-0.041653919
0.006217661
-0.04107504
0.0017779861
-0.038723671
-0.0046030139
-0.033902435
-0.013635724
-0.025710988
-0.025939411
-0.013460352
-0.040717958
0.0023337255
-0.05454252
0.020647046
-0.065227951
0.040037955
-0.070746198
0.059377693
-0.071636108
0.077996435
-0.070023222
-0.067794574
0.095698403
-2.0334036e-07
1.128103e-06
-9.0207676e-07
3.8711731e-06
-2.2575054e-06
7.4997093e-06
-4.471065e-06
1.223004e-05
-7.792837e-06
1.832268e-05
-1.2531541e-05
2.6089259e-05
-1.9066077e-05
3.5899651e-05
-2.7858786e-05
4.8189061e-05
-3.9470261e-05
6.3464309e-05
-5.4575788e-05
8.2308797e-05
-7.3982795e-05
0.00010538456
-9.8648974e-05
0.00013343036
-0.00012969976
0.00016725362
-0.00016844404
0.00020771437
-0.00021638569
0.00025569885
-0.00027522865
0.00031208158
-0.00034687224
0.00037767514
-0.00043339374
0.00045317067
-0.00053701581
0.00053907547
-0.00066005801
0.00063566074
-0.00080487584
0.00074294032
-0.00097379641
0.00086070755
-0.0011690673
0.0009886596
-0.0013928435
0.0011266288
-0.001647237
0.0012749121
-0.0019344668
0.0014346486
-0.0022571217
0.0016080331
-0.0026184819
0.0017980858
-0.0030221812
0.0020074035
-0.0034725581
0.0022396853
-0.0039747786
0.0024991511
-0.004534847
0.0027902154
-0.0051596059
0.0031175019
-0.0058567279
0.0034858944
-0.0066346853
0.0039005091
-0.0075026688
0.0043665621
-0.0084704376
0.0048891145
-0.0095481118
0.0054727172
-0.01074583
0.0061208606
-0.012073112
0.0068351262
-0.013537958
0.0076141439
-0.015145723
0.0084520725
-0.016897423
0.0093358462
-0.018788407
0.010245817
-0.020808766
0.011158644
-0.022945002
0.012053638
-0.025164402
0.01287719
-0.027423891
0.013553385
-0.029663523
0.013993709
-0.031799731
0.014070956
-0.03371082
0.01361601
-0.035225787
0.012374509
-0.036106082
0.010004767
-0.036021676
0.0061332553
-0.034568155
0.00032446512
-0.031259977
-0.0079111918
-0.025439379
-0.019456322
-0.016200424
-0.035178367
-0.0029349995
-0.053983382
0.013435633
-0.070913152
0.031752021
-0.083544339
0.050545546
-0.089539723
0.068716285
-0.089806847
0.085739756
-0.087046693
-0.083771722
0.1017169
-1.7202139e-07
1.3001244e-06
-7.6409312e-07
4.4632448e-06
-1.9143202e-06
8.6499363e-06
-3.7958062e-06
1.4111526e-05
-6.6243676e-06
2.1151241e-05
-1.066767e-05
3.0132561e-05
-1.6256007e-05
4.1487988e-05
-2.379479e-05
5.5727844e-05
-3.3778988e-05
7.3448507e-05
-4.6809356e-05
9.5339166e-05
-6.3610411e-05
0.00012218561
-8.5049762e-05
0.00015486972
-0.00011215805
0.00019436191
-0.00014614822
0.00024170454
-0.00018843233
0.00029798296
-0.00024063343
0.00036428269
-0.0003045891
0.0004416308
-0.00038234261
0.00053092418
-0.00047611808
0.00063285095
-0.00058827664
0.0007478193
-0.00072125345
0.00087591713
-0.00087748198
0.0010169361
-0.0010593191
0.0011704967
-0.0012689956
0.0013363053
-0.0015086242
0.0015145407
-0.0017803024
0.0017063268
-0.0020863557
0.0019140865
-0.0024295822
0.0021413123
-0.0028134863
0.0023913076
-0.003241986
0.002668185
-0.0037197451
0.0029769102
-0.0042522063
0.0033226765
-0.0048455829
0.0037108786
-0.0055067843
0.0041470958
-0.0062433111
0.0046370358
-0.0070631004
0.0051863515
-0.007974376
0.00580039
-0.008985372
0.0064837132
-0.010103776
0.0072392647
-0.011336003
0.008067353
-0.012686299
0.0089644401
-0.014155506
0.0099212789
-0.01573978
0.01092012
-0.017428739
0.011934776
-0.019208094
0.012937999
-0.021057471
0.013903015
-0.022939463
0.014759182
-0.024807707
0.015421629
-0.026599896
0.015785898
-0.028230284
0.015701345
-0.029575118
0.014960844
-0.030458401
0.013257792
-0.03062851
0.010174876
-0.029735487
0.005240233
-0.027361972
-0.0020490506
-0.023030246
-0.012242917
-0.01615432
-0.026332248
-0.0058853254
-0.045447361
0.0081473061
-0.068016013
0.024660022
-0.087425868
0.042379979
-0.1012643
0.059812481
-0.10697223
0.076080723
-0.10607509
0.090999883
-0.10196585
-0.097842577
0.10507074
-1.3411765e-07
1.434242e-06
-5.9693897e-07
4.9260662e-06
-1.4982334e-06
9.5512308e-06
-2.9764038e-06
1.5589696e-05
-5.2051387e-06
2.3379976e-05
-8.4014609e-06
3.3328884e-05
-1.283536e-05
4.5921887e-05
-1.8841298e-05
6.1733782e-05
-2.6831787e-05
8.1438996e-05
-3.7313222e-05
0.0001058206
-5.0904049e-05
0.00013577644
-6.835524e-05
0.00017232091
-9.0572471e-05
0.00021657914
-0.00011863957
0.00026977163
-0.00015384126
0.00033318465
-0.00019768325
0.00040812467
-0.00025190588
0.00049585344
-0.00031848705
0.00059750535
-0.00039962852
0.00071399241
-0.00049772068
0.00084591146
-0.00061528162
0.00099347806
-0.00075487118
0.0011565256
-0.00091899052
0.001334616
-0.0011099889
0.0015273036
-0.0013300124
0.0017345643
-0.0015810232
0.0019573375
-0.0018649407
0.002198004
-0.0021840406
0.0024604121
-0.0025417752
0.0027490423
-0.0029416362
0.003068046
-0.003387501
0.0034227751
-0.0038840993
0.0038192748
-0.0044368765
0.0042636558
-0.0050518207
0.0047620401
-0.0057352856
0.0053205007
-0.0064938342
0.0059449002
-0.0073340329
0.0066405887
-0.0082619806
0.007411661
-0.0092826778
0.0082599619
-0.01039932
0.009183995
-0.011612395
0.010177515
-0.012918271
0.011227155
-0.014308419
0.012310268
-0.01576792
0.013394278
-0.017279513
0.014449592
-0.01881553
0.015439032
-0.020335799
0.016279451
-0.021791603
0.016877433
-0.023118616
0.01711291
-0.024228538
0.016811267
-0.024994421
0.015726727
-0.025233508
0.013496879
-0.024679572
0.0096209396
-0.022961843
0.0035225036
-0.019639653
-0.0053712405
-0.014241881
-0.01764069
-0.0062450167
-0.034329112
0.0049761571
-0.056668535
0.019473667
-0.082513523
0.035638072
-0.10359027
0.052130525
-0.11775675
0.067581649
-0.12242335
0.081548909
-0.12004235
0.094332623
-0.11474957
-0.11031085
0.10680089
-9.0754867e-08
1.5249969e-06
-4.0551864e-07
5.2408299e-06
-1.0213304e-06
1.0167043e-05
-2.0363738e-06
1.6604739e-05
-3.5753432e-06
2.4918946e-05
-5.79607e-06
3.554961e-05
-8.897722e-06
4.9023539e-05
-1.3130922e-05
6.5966981e-05
-1.8810034e-05
8.7118109e-05
-2.6328154e-05
0.00011333872
-3.6175006e-05
0.00014562329
-4.8958028e-05
0.00018510393
-6.542684e-05
0.00023304796
-8.6500415e-05
0.00029084521
-0.00011329641
0.00035998065
-0.0001471602
0.00044198846
-0.00018969067
0.00053838391
-0.00024275761
0.00065057229
-0.00030850382
0.00077973862
-0.00038932341
0.00092673105
-0.00048780859
0.0010919632
-0.00060665923
0.0012753763
-0.00074855833
0.0014765151
-0.00091602996
0.0016947753
-0.0011113162
0.0019298505
-0.0013363219
0.0021823432
-0.0015927092
0.0024543912
-0.0018822582
0.0027499612
-0.0022075386
0.0030743226
-0.0025718347
0.0034323421
-0.0029784757
0.0038294161
-0.0034312467
0.0042720458
-0.0039346227
0.0047670318
-0.0044935362
0.0053209535
-0.0051131153
0.0059400798
-0.0057984944
0.0066302792
-0.006554442
0.0073965363
-0.0073848035
0.0082420224
-0.0082919014
0.0091670598
-0.0092758147
0.010167908
-0.010333448
0.011235149
-0.01145715
0.012350858
-0.012633672
0.013486789
-0.013844792
0.014605398
-0.015070725
0.015675525
-0.016277415
0.016645722
-0.017422352
0.017424388
-0.018454192
0.017909273
-0.019305409
0.017964128
-0.019883213
0.017389071
-0.020054636
0.01589815
-0.019627707
0.01306995
-0.018319679
0.0083129115
-0.015743999
0.00094682415
-0.011444486
-0.0096707533
-0.004992489
-0.024092687
0.0040928416
-0.043414443
0.016118452
-0.068694145
0.03070811
-0.097103181
0.04597632
-0.11885848
0.060700662
-0.13248109
0.073762388
-0.13548508
0.085394126
-0.13167409
0.096396493
-0.12575193
-0.12174411
0.10782976
-4.3524565e-08
1.5685215e-06
-1.9680025e-07
5.3941056e-06
-5.0081403e-07
1.0471056e-05
-1.0092959e-06
1.7113221e-05
-1.7925319e-06
2.5702182e-05
-2.9423108e-06
3.6699389e-05
-4.5783462e-06
5.0659574e-05
-6.856487e-06
6.8245122e-05
-9.9793261e-06
9.0240948e-05
-1.4209635e-05
0.00011756903
-1.9887348e-05
0.000151301
-2.745066e-05
0.00019266724
-3.7461858e-05
0.00024305915
-5.0637882e-05
0.00030402123
-6.7885771e-05
0.00037722854
-9.0341271e-05
0.00046444396
-0.00011940804
0.00056745067
-0.00015679207
0.00068795632
-0.00020452422
0.00082747077
-0.0002649592
0.00098716603
-0.00034073848
0.0011677425
-0.00043470532
0.0013693431
-0.00054976459
0.0015915744
-0.00068869661
0.0018337073
-0.00085395778
0.0020951117
-0.0010475307
0.0023759162
-0.0012708987
0.0026777593
-0.0015252562
0.0030043186
-0.0018120738
0.0033611402
-0.0021340958
0.0037543641
-0.0024943651
0.0041896854
-0.0028958255
0.0046735061
-0.003341693
0.0052128994
-0.0038356719
0.0058149323
-0.0043816324
0.0064860404
-0.0049832226
0.0072318694
-0.0056433515
0.0080566652
-0.0063636544
0.0089623253
-0.0071438952
0.0099473005
-0.0079812125
0.011005226
-0.008869124
0.01212306
-0.0097965422
0.013278276
-0.01074618
0.014436427
-0.011697398
0.015556616
-0.012625927
0.016604054
-0.013493368
0.017513164
-0.014254381
0.0181854
-0.014853391
0.018508282
-0.015217118
0.018327855
-0.015245242
0.017417195
-0.014795449
0.015448357
-0.013665699
0.011940199
-0.011556677
0.0062038897
-0.0080725253
-0.0025373276
-0.0027812111
-0.014962068
0.0046480008
-0.031521899
0.014657098
-0.05342354
0.027228075
-0.081265122
0.041492858
-0.11136796
0.055393161
-0.13275879
0.067880118
-0.14496805
0.078414101
-0.14601906
0.088009545
-0.14126953
0.097801489
-0.13554388
-0.13271145
0.10876883
5.5774518e-09
1.562944e-06
2.0469447e-08
5.3792136e-06
4.1665542e-08
1.044986e-05
6.246745e-08
1.7092419e-05
7.0415333e-08
2.5694234e-05
4.4314521e-08
3.672549e-05
-5.0020989e-08
5.075391e-05
-2.6568338e-07
6.8460785e-05
-6.8294417e-07
9.0658209e-05
-1.4204329e-06
0.00011830652
-2.650378e-06
0.00015253095
-4.6185319e-06
0.0001946354
-7.6702389e-06
0.00024611086
-1.228334e-05
0.00030863433
-1.9108551e-05
0.00038405375
-2.9017058e-05
0.00047435247
-4.3153286e-05
0.0005815869
-6.2988919e-05
0.00070779195
-9.0369509e-05
0.00085485136
-0.00012754199
0.0010243385
-0.00017714559
0.0012173461
-0.00024214561
0.0014343431
-0.0003256932
0.001675122
-0.00043090683
0.0019389209
-0.00056059581
0.0022248007
-0.00071698843
0.0025323088
-0.00090156833
0.0028623392
-0.0011151458
0.0032178961
-0.0013582645
0.003604259
-0.0016321234
0.004028223
-0.0019391353
0.0044966973
-0.002281912
0.0050162828
-0.0026626713
0.0055936586
-0.0030837356
0.0062359967
-0.0035475777
0.0069498824
-0.0040562565
0.0077405483
-0.0046108192
0.0086112278
-0.0052107572
0.0095622633
-0.0058534031
0.010589946
-0.0065331963
0.011685019
-0.0072405763
0.01283044
-0.0079612309
0.013998931
-0.0086750344
0.01515023
-0.0093593135
0.016240895
-0.0099832723
0.017228013
-0.010504864
0.018034755
-0.010874626
0.018555163
-0.011030862
0.018664518
-0.010891709
0.018188702
-0.010345972
0.016871458
-0.0092391338
0.014341519
-0.0073577125
0.010058778
-0.0043972002
0.0032433775
4.5163577e-05
-0.0069796914
0.006256401
-0.021173305
0.014546355
-0.039811853
0.025291993
-0.064169178
0.038061499
-0.094034629
0.051417006
-0.12472347
0.063569042
-0.14491082
0.073489176
-0.15488818
0.081747058
-0.15427694
0.089838138
-0.14936061
0.099013256
-0.14471899
-0.14363617
0.10993797
5.4185991e-08
1.508758e-06
2.3590398e-07
5.1974956e-06
5.8033011e-07
1.0105434e-05
1.1283013e-06
1.6544448e-05
1.926143e-06
2.4896392e-05
3.0248918e-06
3.5626741e-05
4.4785573e-06
4.9300244e-05
6.340919e-06
6.6598423e-05
8.6602752e-06
8.8338853e-05
1.1471228e-05
0.00011549557
1.4782479e-05
0.0001492197
1.8559149e-05
0.00019085873
2.269831e-05
0.0002419717
2.6995618e-05
0.00030433702
3.1102049e-05
0.00037994732
3.4469169e-05
0.00047098535
3.6283632e-05
0.00057977244
3.5394041e-05
0.00070868154
3.0236691e-05
0.00086000871
1.8773316e-05
0.0010358019
-1.5395339e-06
0.001237659
-3.3723204e-05
0.0014665268
-8.1160776e-05
0.0017225596
-0.00014736883
0.002005129
-0.00023566051
0.0023130924
-0.00034874732
0.0026453956
-0.00048838916
0.003001981
-0.0006552713
0.0033847783
-0.00084931945
0.0037983071
-0.0010703989
0.0042493024
-0.0013191322
0.0047454306
-0.0015968475
0.0052939982
-0.0019053341
0.0059021452
-0.0022461511
0.0065768137
-0.0026203119
0.0073240433
-0.0030281565
0.0081483928
-0.0034689267
0.0090519981
-0.0039401009
0.010033437
-0.0044367598
0.011086605
-0.0049508475
0.012199107
-0.0054702348
0.013349827
-0.0059775171
0.014506213
-0.0064502407
0.015622954
-0.0068620729
0.016652727
-0.0071762016
0.017542141
-0.0073467395
0.018205293
-0.0073184127
0.018526836
-0.0070213141
0.01836742
-0.0063627736
0.017530161
-0.0052179004
0.015726585
-0.0034186452
0.012542264
-0.00074755722
0.00738769
0.0030971418
-0.0006013216
0.0084503344
-0.012332884
0.015498765
-0.028221736
0.024504963
-0.04881805
0.035719872
-0.075384087
0.048319787
-0.10663454
0.06015692
-0.1365606
0.07019049
-0.15494439
0.07760969
-0.16230738
0.084103305
-0.16077056
0.091292854
-0.15655016
0.10030131
-0.15372745
-0.15470425
0.11136939
9.9624412e-08
1.4091336e-06
4.3769393e-07
4.8594261e-06
1.0857913e-06
9.4573367e-06
2.1303331e-06
1.5499906e-05
3.6744327e-06
2.3352293e-05
5.839436e-06
3.3461738e-05
8.7659703e-06
4.637371e-05
1.26139e-05
6.2750493e-05
1.756063e-05
8.3392123e-05
2.3796816e-05
0.00010925938
3.15182e-05
0.00014149832
4.0912099e-05
0.00018146483
5.2136322e-05
0.00023074748
6.5288266e-05
0.00029118508
8.0361561e-05
0.00036487403
9.718772e-05
0.00045415919
0.00011536143
0.00056159873
0.00013414984
0.00068989313
0.00015239068
0.00084176788
0.00016839044
0.0010198021
0.00017984279
0.0012262066
0.00018379948
0.0014625701
0.00017673275
0.0017296263
0.00015473383
0.0020271279
0.00011387468
0.0023539515
5.0712832e-05
0.0027085574
-3.7165287e-05
0.0030898592
-0.00015076165
0.0034983746
-0.00028968165
0.0039372271
-0.00045273637
0.0044123572
-0.00063886317
0.0049315574
-0.0008477941
0.0055029291
-0.001079824
0.0061341751
-0.001335219
0.0068322087
-0.0016138197
0.007602644
-0.0019145887
0.0084491619
-0.0022351118
0.0093725212
-0.0025710541
0.01036938
-0.0029155097
0.011431061
-0.0032580956
0.012541692
-0.003584137
0.013675869
-0.0038735441
0.01479562
-0.0041014344
0.015850844
-0.0042362522
0.016787545
-0.0042363623
0.017542252
-0.0040508803
0.018019811
-0.0036172901
0.018093246
-0.0028557172
0.017605847
-0.001661978
0.016336422
0.00010240289
0.013962204
0.0026083351
0.010036331
0.0060798333
0.0039161917
0.010803983
-0.0053254715
0.016992901
-0.018521802
0.02472011
-0.035948944
0.034247215
-0.058345155
0.045643372
-0.086780245
0.057656532
-0.1186477
0.067700975
-0.14660505
0.075252798
-0.16249622
0.080547391
-0.16760197
0.085831135
-0.1660543
0.092657975
-0.163377
0.10174213
-0.1628116
-0.1659121
0.11294999
1.3893711e-07
1.2701965e-06
6.1275546e-07
4.3856078e-06
1.5253588e-06
8.5447334e-06
3.0039789e-06
1.4021286e-05
5.2029888e-06
2.1153283e-05
8.3079071e-06
3.035682e-05
1.2539275e-05
4.2142342e-05
1.81561e-05
5.7133668e-05
2.5458189e-05
7.6090035e-05
3.4786533e-05
9.9931036e-05
4.6520521e-05
0.00012976433
6.1070069e-05
0.00016691528
7.8860628e-05
0.00021295692
0.00010030783
0.00026973788
0.00012577836
0.00033940349
0.00015553315
0.00042440441
0.00018964893
0.00052748295
0.00022791582
0.00065162624
0.00026971215
0.00079997154
0.00031386313
0.00097565116
0.0003585014
0.0011815683
0.00040096123
0.0014201103
0.00043775473
0.0016928328
0.00046469244
0.0020001902
0.00047720665
0.0023414373
0.00047090336
0.0027148607
0.00044228644
0.0031184761
0.00038947235
0.0035511887
0.00031258184
0.0040141176
0.00021345811
0.0045114809
9.4570754e-05
0.0050504447
-4.1769715e-05
0.0056392696
-0.00019392422
0.0062863296
-0.00036061018
0.0069988946
-0.0005401701
0.0077822039
-0.00073013746
0.0086391292
-0.00092654708
0.0095689309
-0.0011233392
0.010566172
-0.00131162
0.011619342
-0.0014788127
0.012708885
-0.0016077236
0.01380478
-0.0016758514
0.014863748
-0.0016552943
0.015830287
-0.0015097564
0.016642007
-0.0011923838
0.017224879
-0.00064597736
0.017473405
0.00019957716
0.017247691
0.0014330427
0.016372381
0.0031691296
0.014600335
0.0055522464
0.011579087
0.0087560729
0.0068325049
0.013005537
-0.00033327285
0.018548125
-0.010868059
0.025424367
-0.025398044
0.033640124
-0.044164701
0.043511028
-0.06821606
0.0548301
-0.098099316
0.065667453
-0.12948506
0.073613353
-0.15455095
0.078769701
-0.16765256
0.082546067
-0.17137834
0.087226918
-0.17073515
0.094059173
-0.17020925
0.1032759
-0.17202833
-0.17715704
0.11452083
1.6926504e-07
1.1009315e-06
7.483874e-07
3.8064854e-06
1.8672008e-06
7.42592e-06
3.686038e-06
1.2202449e-05
6.4013997e-06
1.8437921e-05
1.0252219e-05
2.6506e-05
1.5526638e-05
3.6867923e-05
2.2568896e-05
5.009141e-05
3.1786038e-05
6.6872893e-05
4.3653489e-05
8.8063585e-05
5.8718496e-05
0.00011469932
7.7599682e-05
0.00014803409
0.00010098036
0.00018957624
0.0001295923
0.00024112593
0.00016418583
0.00030480996
0.0002054809
0.00038310934
0.0002540934
0.00047887045
0.00031043071
0.00059528892
0.00037455282
0.00073584942
0.00044599992
0.00090420406
0.0005235971
0.0011039712
0.00060526295
0.0013384444
0.00068787087
0.0016102249
0.00076723654
0.0019208245
0.0008383234
0.0022703505
0.00089574439
0.0026574397
0.00093457638
0.0030796441
0.00095136077
0.0035344044
0.00094495828
0.0040205201
0.00091688664
0.0045395525
0.00086981793
0.0050975134
0.0008102902
0.0056987973
0.00074104557
0.0063555742
0.00066560554
0.0070743347
0.00058737083
0.0078604386
0.00051040373
0.0087160963
0.00044035702
0.0096389776
0.00038496366
0.010621565
0.00035503958
0.011649266
0.0003653485
0.012698576
0.00043544195
0.013734686
0.00059016464
0.014709025
0.0008609674
0.015559485
0.0012887208
0.016214253
0.0019255907
0.016588009
0.0028347871
0.016564208
0.0040932029
0.015989275
0.0057979753
0.014667609
0.0080702661
0.012328044
0.011054842
0.008594512
0.014927367
0.0029599792
0.01991373
-0.0053196356
0.026151397
-0.017105726
0.033494578
-0.032741225
0.042006867
-0.05267699
0.052110516
-0.078319709
0.063019478
-0.10900828
0.07220643
-0.13867201
0.077858945
-0.16020346
0.081048543
-0.17084216
0.083934595
-0.17426439
0.088506232
-0.17530679
0.095497724
-0.17720075
0.10478164
-0.18131225
-0.18832363
0.11594824
1.8819495e-07
9.1273651e-07
8.3374637e-07
3.160934e-06
2.0839034e-06
6.175763e-06
4.1216923e-06
1.016466e-05
7.1731087e-06
1.5386505e-05
1.1515411e-05
2.2163698e-05
1.7486368e-05
3.0896966e-05
2.5494518e-05
4.2083259e-05
3.6029999e-05
5.6337412e-05
4.9675516e-05
7.4418068e-05
6.7116499e-05
9.7258337e-05
8.9149122e-05
0.00012600147
0.00011668375
0.00016204162
0.00015074111
0.00020706857
0.00019243633
0.00026311474
0.00024294519
0.00033260049
0.00030344484
0.0004183708
0.0003750208
0.00052371297
0.00045853019
0.00065234004
0.000554416
0.00080831825
0.00066247185
0.00099591531
0.00078157249
0.0012193438
0.00090940893
0.0014823884
0.0010423009
0.0017879325
0.0011751962
0.0021374552
0.0013019897
0.0025306462
0.001416268
0.0029653658
0.0015124777
0.0034381946
0.0015872914
0.0039457064
0.0016405373
0.0044863066
0.0016753617
0.0050626891
0.0016966775
0.0056774815
0.0017116882
0.0063405635
0.0017286811
0.0070573418
0.001752273
0.0078368467
0.0017888028
0.0086795666
0.0018454709
0.0095823094
0.0019316663
0.01053537
0.0020601972
0.011520735
0.0022479521
0.012510821
0.0025167733
0.013465865
0.0028942643
0.014331534
0.0034152352
0.015038514
0.0041246181
0.01550487
0.0050797181
0.015632909
0.0063494027
0.015294524
0.0080166561
0.014322022
0.01018414
0.012500125
0.012976912
0.0095352718
0.01653607
0.0050353542
0.021042634
-0.0015465849
0.026682063
-0.010959064
0.03339798
-0.023821643
0.040940646
-0.040283891
0.049677462
-0.061413806
0.059937821
-0.088580069
0.069970454
-0.11904091
0.077040254
-0.14574181
0.0805307
-0.16369391
0.082403502
-0.17271496
0.085000941
-0.17686183
0.089746714
-0.18005256
0.096890799
-0.18434483
0.10613819
-0.19055964
-0.19933676
0.11715132
1.9416818e-07
7.1856833e-07
8.617745e-07
2.4933277e-06
2.1574547e-06
4.8800827e-06
4.2744906e-06
8.0476242e-06
7.4531067e-06
1.2207888e-05
1.1990174e-05
1.7626631e-05
1.8250517e-05
2.4636623e-05
2.6679817e-05
3.3653959e-05
3.7819084e-05
4.5198145e-05
5.2320514e-05
5.9916638e-05
7.0964123e-05
7.8614728e-05
9.4674237e-05
0.00010229135
0.00012453421
0.00013218164
0.0001617966
0.00016980618
0.00020788499
0.00021702635
0.00026438153
0.00027610395
0.00033299212
0.00034976021
0.00041547851
0.00044122657
0.00051354493
0.00055427362
0.00062866442
0.00069319875
0.00076183492
0.00086274481
0.00091326197
0.0010679168
0.0010819876
0.0013136628
0.0012655186
0.0016044016
0.0014595586
0.0019434152
0.0016580039
0.0023322008
0.0018533916
0.0027699782
0.0020379419
0.0032536444
0.00220517
0.0037784782
0.0023518149
0.0043396618
0.0024807031
0.0049338009
0.0025944367
0.0055637479
0.0027016547
0.0062333455
0.0028119666
0.0069470299
0.0029350836
0.0077137296
0.0030832078
0.0085314424
0.003264649
0.0094008682
0.0034905998
0.010309419
0.0037755005
0.011235834
0.0041383451
0.012147977
0.0046034381
0.013000772
0.0052012366
0.013733736
0.0059698294
0.014269921
0.0069579174
0.014516782
0.0082271246
0.014363702
0.009851419
0.013670229
0.011918344
0.012255097
0.014534016
0.0098844536
0.017820885
0.0062484029
0.021919827
0.00093641163
0.027000978
-0.0066277355
0.033118437
-0.017076523
0.039990138
-0.030693344
0.047572518
-0.047866271
0.05667046
-0.070511747
0.066860737
-0.098770346
0.075362229
-0.1275424
0.080100236
-0.15047982
0.081915616
-0.16550929
0.083165107
-0.17396445
0.085908783
-0.17960551
0.090922543
-0.18506632
0.098132344
-0.19155463
0.10726331
-0.1996906
-0.21016949
0.11809605
1.8725192e-07
5.3131641e-07
8.3250481e-07
1.8480748e-06
2.0873827e-06
3.6252048e-06
4.1423983e-06
5.9926087e-06
7.2357264e-06
9.1145602e-06
1.1663712e-05
1.3198645e-05
1.779333e-05
1.8507005e-05
2.6076859e-05
2.537043e-05
3.7068983e-05
3.4206022e-05
5.1446337e-05
4.5539284e-05
7.0029527e-05
6.0031537e-05
9.3807095e-05
7.8513787e-05
0.00012396062
0.00010202812
0.00016188911
0.00013187769
0.00020922971
0.00016968574
0.00026787006
0.0002174636
0.00033994465
0.00027768563
0.00042780497
0.00035336625
0.00053394841
0.00044813019
0.00066088762
0.00056625954
0.00081093911
0.00071269332
0.00098591185
0.00089294402
0.0011866884
0.0011128862
0.0014127182
0.0013783718
0.001661493
0.0016946403
0.0019281499
0.0020655439
0.0022054279
0.0024927002
0.0024842508