/*--------------------------------*- C++ -*----------------------------------*\
  =========                 |
  \\      /  F ield         | OpenFOAM: The Open Source CFD Toolbox
   \\    /   O peration     | Website:  https://openfoam.org
    \\  /    A nd           | Version:  13
     \\/     M anipulation  |
\*---------------------------------------------------------------------------*/
FoamFile
{
    format      ascii;
    class       volScalarField;
    location    "44.503233";
    object      k;
}
// * * * * * * * * * * * * * * * * * * * * * * * * * * * * * * * * * * * * * //

dimensions      [0 2 -2 0 0 0 0];

internalField   nonuniform List<scalar> 
17140
(
6.704463e-12
2.106775e-10
1.7227775e-09
7.4090241e-09
2.2799943e-08
5.7535915e-08
1.2759138e-07
2.5860151e-07
4.9077808e-07
8.8611901e-07
1.5389196e-06
2.5910177e-06
4.2538013e-06
6.8398305e-06
1.0808064e-05
1.6828217e-05
2.5871835e-05
3.9340299e-05
5.9243246e-05
8.8444523e-05
0.00013099622
0.00019258275
0.0002810926
0.0004073177
0.00058573429
0.00083521808
0.0011793497
0.0016456291
0.0022624572
0.0030524504
0.0040214792
0.005146387
0.0063703411
0.007615759
0.0088114793
0.0099146931
0.010913978
0.011819144
0.01265075
0.013432997
0.014191023
0.014950392
0.015737896
0.016582335
0.017513087
0.018559721
0.019754843
0.021133011
0.0227297
0.024580361
0.026717478
0.029161829
0.031911822
0.034926882
0.038141657
0.041436938
0.044568496
0.04722559
0.049389878
0.052488889
0.061375267
0.07220767
0.057729607
0.017125672
0.010359069
6.6448696e-12
2.0880487e-10
1.7074679e-09
7.3432e-09
2.2597387e-08
5.7024592e-08
1.2645669e-07
2.5629937e-07
4.8640317e-07
8.7820703e-07
1.5251527e-06
2.5677889e-06
4.2155742e-06
6.7782037e-06
1.071041e-05
1.6675718e-05
2.5636656e-05
3.8981556e-05
5.8701298e-05
8.7632989e-05
0.00012979096
0.00019080698
0.00027849739
0.0004035577
0.00058033991
0.00082756896
0.0011686609
0.0016309734
0.0022428621
0.0030271162
0.0039901277
0.0051096075
0.0063296237
0.0075730091
0.0087682518
0.0098717117
0.010871248
0.011776541
0.012608095
0.013390276
0.014148439
0.014908305
0.01569658
0.016541876
0.01747323
0.018519642
0.019712707
0.021085394
0.022670736
0.024500112
0.02659952
0.028979411
0.031616709
0.034438742
0.037333733
0.040103528
0.042380246
0.043722316
0.043987269
0.045329478
0.056488185
0.07381704
0.07542595
0.028253467
0.013726624
6.5387044e-12
2.0546877e-10
1.6801864e-09
7.2258553e-09
2.2236151e-08
5.6112465e-08
1.2443228e-07
2.5219199e-07
4.7859829e-07
8.6409451e-07
1.5006035e-06
2.526382e-06
4.1474621e-06
6.6684564e-06
1.0536613e-05
1.6404504e-05
2.5218739e-05
3.8344656e-05
5.7740156e-05
8.6195441e-05
0.00012765879
0.00018767013
0.00027392033
0.00039693764
0.00057085909
0.00081414902
0.0011499386
0.0016053357
0.0022086046
0.0029827999
0.0039351489
0.0050447835
0.0062573002
0.0074962993
0.0086898031
0.0097929582
0.010792523
0.011697625
0.01252862
0.013309951
0.014067098
0.014825849
0.015612879
0.016456545
0.017385458
0.018427966
0.019614604
0.020976743
0.022545144
0.024347656
0.026404357
0.02871507
0.031237683
0.033870516
0.036459672
0.038723953
0.040003181
0.039872239
0.037640879
0.03469784
0.045668529
0.071303025
0.086331491
0.048654727
0.021117075
6.3847246e-12
2.0063017e-10
1.6406186e-09
7.0556716e-09
2.1712317e-08
5.4790043e-08
1.2149806e-07
2.4624077e-07
4.6729453e-07
8.4366545e-07
1.4650859e-06
2.4665113e-06
4.0490427e-06
6.509988e-06
1.028585e-05
1.6013498e-05
2.4616741e-05
3.7428024e-05
5.635814e-05
8.4130355e-05
0.00012459879
0.00018317262
0.00026736418
0.0003874638
0.00055730262
0.00079497346
0.001123199
0.0015687234
0.0021596604
0.0029194024
0.0038563054
0.0049514658
0.0061526605
0.0073846872
0.0085750684
0.0096773416
0.010676698
0.011581351
0.012411323
0.013191051
0.013946095
0.014702287
0.015486208
0.016325909
0.017249531
0.018284709
0.01946086
0.020807761
0.022354024
0.024124419
0.02613403
0.028373708
0.030785545
0.033245419
0.03557451
0.037292616
0.037696282
0.036086282
0.030974718
0.02083969
0.028182349
0.059228412
0.090785574
0.07147764
0.03559543
6.1840064e-12
1.9432289e-10
1.5890411e-09
6.8338409e-09
2.102956e-08
5.3066619e-08
1.1767473e-07
2.3848785e-07
4.5257228e-07
8.1706591e-07
1.4188557e-06
2.3886107e-06
3.9210357e-06
6.3039686e-06
9.9599915e-06
1.5505648e-05
2.3835252e-05
3.6238737e-05
5.4566038e-05
8.1454017e-05
0.00012063531
0.0001773504
0.00025888132
0.00037521124
0.00053977578
0.00077018568
0.0010886296
0.0015213663
0.0020962841
0.0028371569
0.0037537263
0.0048295746
0.0060153353
0.00723752
0.0084232058
0.0095239468
0.010522865
0.01142686
0.012255404
0.013032814
0.013784682
0.014536846
0.015315745
0.016149078
0.017064482
0.018088853
0.01925046
0.020577547
0.022096811
0.023830529
0.025789949
0.027959203
0.030269955
0.032585119
0.034698285
0.036001155
0.035667168
0.03299015
0.025740714
0.013496016
0.01178166
0.03482249
0.087787558
0.086865037
0.056549448
5.9389837e-12
1.8662343e-10
1.5260794e-09
6.5630521e-09
2.0196155e-08
5.0963093e-08
1.1300866e-07
2.2902738e-07
4.3461052e-07
7.8461964e-07
1.3624761e-06
2.2936311e-06
3.7650056e-06
6.0529193e-06
9.5630318e-06
1.4887186e-05
2.2883875e-05
3.4791413e-05
5.2385878e-05
7.8199287e-05
0.00011581687
0.0001702744
0.00024857419
0.00036032593
0.00051848305
0.0007400658
0.0010466026
0.0014637382
0.0020190405
0.0027366729
0.0036279667
0.0046794693
0.0058453617
0.0070544807
0.0082336313
0.0093320619
0.010330295
0.011233475
0.012060246
0.01283467
0.013582306
0.014328957
0.015100879
0.015925358
0.016829515
0.0178395
0.018982439
0.020285138
0.021772661
0.023465408
0.025371962
0.027472847
0.029698712
0.031913905
0.03387848
0.034973068
0.034131489
0.031167914
0.023259995
0.01077692
0.0054171085
0.01765701
0.068994369
0.092782172
0.077122061
5.6533449e-12
1.7764767e-10
1.4526813e-09
6.2473821e-09
1.9224651e-08
4.8511141e-08
1.0757016e-07
2.1800192e-07
4.1368003e-07
7.4681602e-07
1.296798e-06
2.1830062e-06
3.583309e-06
5.760634e-06
9.1009711e-06
1.4167463e-05
2.1776988e-05
3.3107912e-05
4.9850543e-05
7.4415136e-05
0.0001102157
0.00016205005
0.00023659506
0.00034302503
0.00049372939
0.00070503381
0.00099768155
0.001396568
0.0019288252
0.0026189678
0.0034800546
0.0045020098
0.0056432493
0.006835646
0.0080060575
0.0091011953
0.010098444
0.01100068
0.011825395
0.01259622
0.01333859
0.014078228
0.014841169
0.01565422
0.016543958
0.017535817
0.018655789
0.019929345
0.021380188
0.023027329
0.024877696
0.026913939
0.029070538
0.031231062
0.033183191
0.034225217
0.033245634
0.030519242
0.022638923
0.0096838854
0.0031644676
0.0088870764
0.036810207
0.087241337
0.088210635
5.3319535e-12
1.6754844e-10
1.3700963e-09
5.8922051e-09
1.813159e-08
4.5752521e-08
1.0145184e-07
2.0559927e-07
3.9013741e-07
7.0429924e-07
1.2229407e-06
2.058622e-06
3.3790438e-06
5.4320962e-06
8.5816872e-06
1.3358745e-05
2.0533447e-05
3.1216886e-05
4.7003111e-05
7.0165706e-05
0.00010392638
0.00015281551
0.00022314364
0.00032359376
0.0004659165
0.00066564551
0.00094261753
0.0013208392
0.0018268683
0.0024854831
0.003311523
0.0042986102
0.0054100486
0.0065815529
0.0077405422
0.0088310968
0.0098269372
0.010728105
0.011550533
0.012317196
0.01305329
0.013784394
0.014536282
0.015335235
0.016207211
0.017176957
0.018269348
0.019508601
0.020917246
0.022512928
0.024302552
0.026273066
0.028377928
0.030534456
0.032588954
0.033724
0.032888238
0.030305367
0.021826847
0.0084299354
0.0023945481
0.0040792301
0.015938821
0.063058716
0.085442695
4.9807305e-12
1.5651178e-10
1.2798453e-09
5.5040621e-09
1.6937105e-08
4.2738045e-08
9.4766407e-08
1.920479e-07
3.6441634e-07
6.5785255e-07
1.1422649e-06
1.92277e-06
3.155973e-06
5.0733575e-06
8.0147425e-06
1.2475919e-05
1.9176127e-05
2.9153081e-05
4.3895822e-05
6.5528779e-05
9.7063666e-05
0.00014273847
0.00020846252
0.00030237929
0.00043553469
0.00062258212
0.00088233729
0.0012377766
0.0017147251
0.0023380838
0.0031244305
0.0040712861
0.0051474247
0.0062932809
0.0074375539
0.0085217918
0.009515582
0.010415502
0.011235442
0.011997429
0.012726261
0.013447282
0.014185948
0.014967985
0.015818656
0.01676197
0.017821697
0.019020823
0.02038066
0.021916806
0.023640823
0.025545778
0.027621573
0.029828201
0.032076624
0.033378641
0.032643328
0.029698929
0.018602299
0.0057546845
0.0017415988
0.0016818827
0.0066545757
0.027952396
0.064079175
4.606482e-12
1.4475159e-10
1.183678e-09
5.0904784e-09
1.5664352e-08
3.952615e-08
8.7643462e-08
1.7761051e-07
3.3701541e-07
6.0837627e-07
1.0563343e-06
1.778083e-06
2.9184191e-06
4.6913674e-06
7.4111165e-06
1.1536072e-05
1.7731281e-05
2.6956375e-05
4.0588629e-05
6.0593636e-05
8.9759304e-05
0.00013201159
0.00019283083
0.00027978175
0.00040315062
0.00057663431
0.00081792303
0.0011488239
0.0015942545
0.0021790448
0.002921366
0.0038226928
0.0048577335
0.0059725516
0.007098063
0.0081736393
0.0091643796
0.010062735
0.01087997
0.011636792
0.012357392
0.013066756
0.013789932
0.014552032
0.01537757
0.016289704
0.017311054
0.018463321
0.019766123
0.021235458
0.022883859
0.024728452
0.026792091
0.029091082
0.03159975
0.033030792
0.032100389
0.027875691
0.012692719
0.0035268717
0.0011582349
0.00065553967
0.0021066013
0.0081449715
0.025189072
4.216674e-12
1.3250247e-10
1.0835129e-09
4.6597036e-09
1.4338717e-08
3.6180896e-08
8.0225062e-08
1.6257501e-07
3.0848099e-07
5.5685674e-07
9.6686171e-07
1.6274443e-06
2.6711146e-06
4.2937336e-06
6.7828258e-06
1.0557905e-05
1.6227635e-05
2.4670402e-05
3.7147141e-05
5.5458012e-05
8.2157607e-05
0.00012084613
0.00017655501
0.00025624137
0.00036938969
0.00052867855
0.00075058219
0.001055607
0.0014675779
0.0020110145
0.0027054316
0.0035561463
0.0045440964
0.005621847
0.0067236682
0.0077874275
0.0087735753
0.0096697756
0.010483995
0.011235147
0.011946535
0.01264262
0.013347926
0.014086846
0.014883058
0.015758721
0.016735188
0.017832609
0.019067626
0.020461529
0.022024993
0.023807576
0.025858589
0.028279107
0.031007255
0.032248761
0.030302181
0.022518089
0.0065957544
0.0018986357
0.00066423339
0.00032516763
0.00064205089
0.0021975913
0.0059177391
3.8191523e-12
1.2001095e-10
9.8136549e-10
4.2204066e-09
1.2986876e-08
3.2769594e-08
7.2660453e-08
1.4724383e-07
2.7938695e-07
5.043299e-07
8.7564569e-07
1.4738812e-06
2.4190277e-06
3.8884409e-06
6.1424807e-06
9.561039e-06
1.4695332e-05
2.2340946e-05
3.3640206e-05
5.0224501e-05
7.4410147e-05
0.00010946415
0.00015995769
0.00023222267
0.00033491391
0.00047964698
0.0006816075
0.00095988337
0.0013370207
0.0018369537
0.002480193
0.0032756081
0.0042104398
0.005244513
0.006316744
0.0073645111
0.0083437489
0.0092367466
0.01004742
0.010792301
0.011493433
0.012174526
0.012859425
0.013571662
0.01433392
0.015167149
0.016091257
0.017124308
0.018280428
0.019582711
0.02105055
0.022752161
0.024782451
0.027355734
0.029848482
0.029964335
0.025832845
0.010901416
0.0030946084
0.00094615075
0.00037431199
0.00020922172
0.00026181843
0.00057137744
0.001131553
3.4217793e-12
1.0752412e-10
8.792566e-10
3.7812776e-09
1.163557e-08
2.9359715e-08
6.5099228e-08
1.319201e-07
2.5030834e-07
4.5183366e-07
7.8448803e-07
1.3204257e-06
2.1671338e-06
3.4834846e-06
5.5027066e-06
8.5651161e-06
1.3164542e-05
2.0013835e-05
3.0136749e-05
4.4995837e-05
6.6668786e-05
9.808834e-05
0.00014336284
0.00020819302
0.00030039141
0.00043048457
0.00061231808
0.00086346359
0.0012050118
0.0016600174
0.0022495616
0.0029856028
0.0038614926
0.0048448621
0.0058806188
0.0069070108
0.007875975
0.0087640114
0.0095701977
0.01030798
0.01099766
0.011661886
0.01232361
0.013005323
0.013728447
0.014512466
0.015375408
0.016332709
0.017400016
0.018584423
0.019933383
0.021530342
0.023570663
0.025952477
0.027105423
0.024884336
0.013934338
0.0042042113
0.0012672377
0.00045504016
0.00022793338
0.0001626598
0.00016257287
0.00020110307
0.00024320969
3.0322246e-12
9.5282951e-11
7.7915661e-10
3.3507899e-09
1.0310869e-08
2.6017035e-08
5.7687206e-08
1.1689924e-07
2.2180559e-07
4.0037932e-07
6.95144e-07
1.1700312e-06
1.9202778e-06
3.0866487e-06
4.8757929e-06
7.5892531e-06
1.1664625e-05
1.7733665e-05
2.670385e-05
3.987204e-05
5.9081456e-05
8.6935856e-05
0.00012708685
0.00018460994
0.00026647846
0.00038212408
0.00054402513
0.00076816512
0.0010740235
0.0014834799
0.0020177065
0.0026911364
0.0035027765
0.0044282785
0.0054198415
0.0064181315
0.0073720908
0.0082523592
0.0090524295
0.0097818559
0.010458582
0.011103777
0.011739205
0.012386067
0.013064142
0.013791079
0.014582043
0.015448785
0.016404452
0.017445881
0.018650417
0.020175038
0.021962426
0.023188282
0.021503055
0.013760232
0.0045407155
0.001434753
0.00050857415
0.00024258102
0.00016277192
0.00014246569
0.00013380747
0.00013746884
0.0001320006
2.6577102e-12
8.3514407e-11
6.8292149e-10
2.936925e-09
9.0373326e-09
2.2803515e-08
5.0561747e-08
1.0245955e-07
1.944066e-07
3.5091952e-07
6.0926702e-07
1.0254798e-06
1.6830241e-06
2.7052675e-06
4.2733213e-06
6.6514716e-06
1.0223273e-05
1.5542527e-05
2.3404878e-05
3.4947711e-05
5.1788326e-05
7.6212934e-05
0.00011143117
0.00016191127
0.00023380676
0.0003354704
0.00047801423
0.00067579569
0.00094656275
0.0013107505
0.0017891256
0.0023978639
0.0031408796
0.0040016832
0.0049405383
0.0059025177
0.006835067
0.007703304
0.0084945553
0.0092136156
0.0098753233
0.010498818
0.011104263
0.011711188
0.012337202
0.012997495
0.013703213
0.014462986
0.015267541
0.016144586
0.017245409
0.01847566
0.019140103
0.01751992
0.01095784
0.0042720334
0.0014266978
0.00051412043
0.00024412381
0.00016287923
0.00013851532
0.00013102015
0.00012397148
0.00011986708
0.00011003763
2.304498e-12
7.2415263e-11
5.9216058e-10
2.5466044e-09
7.8362579e-09
1.9772882e-08
4.3841951e-08
8.8842282e-08
1.6856894e-07
3.0427982e-07
5.2828978e-07
8.8918142e-07
1.4593258e-06
2.3456917e-06
3.7053175e-06
5.7673683e-06
8.8644464e-06
1.347683e-05
2.0294648e-05
3.0304697e-05
4.4910708e-05
6.6098204e-05
9.6657267e-05
0.00014047752
0.00020292706
0.00029131617
0.00041541889
0.00058796397
0.00082488951
0.0011449565
0.0015680475
0.0021112961
0.0027825704
0.0035726007
0.004450175
0.0053664671
0.0062693781
0.0071194573
0.0078976352
0.0086031169
0.0092467718
0.0098450071
0.010415794
0.010976396
0.011541515
0.012122426
0.012724471
0.013346535
0.0139709
0.014707332
0.015548517
0.015561911
0.013745774
0.0076913462
0.0033273867
0.001294359
0.00049628116
0.00023818272
0.00016125636
0.00013675886
0.00012863095
0.00012060678
0.00011581568
0.00011274539
0.00010313701
1.9777997e-12
6.2149288e-11
5.0821287e-10
2.1855851e-09
6.7253561e-09
1.6969816e-08
3.7626846e-08
7.6248022e-08
1.4467299e-07
2.6114644e-07
4.534028e-07
7.6313851e-07
1.2524669e-06
2.0131957e-06
3.1801075e-06
4.9498948e-06
7.6080423e-06
1.1566822e-05
1.7418716e-05
2.6011069e-05
3.8549624e-05
5.6740704e-05
8.2983895e-05
0.00012062838
0.00017430476
0.0002503367
0.00035721604
0.00050607849
0.00071102553
0.00098897744
0.0013585111
0.0018369228
0.0024348977
0.0031493418
0.0039575356
0.0048180654
0.0056813866
0.0065050136
0.0072637622
0.0079506261
0.0085715941
0.0091394641
0.0096691704
0.010174663
0.010666782
0.011150011
0.011620331
0.012059161
0.01252135
0.012952203
0.01264657
0.010604173
0.0053708477
0.0023555662
0.0010101153
0.0004427326
0.00022642147
0.00015662758
0.00013439812
0.00012612706
0.00011967007
0.00011529226
0.00010874749
0.00010572553
9.8620051e-05
1.6815456e-12
5.2839966e-11
4.3208787e-10
1.8582084e-09
5.7179824e-09
1.4428e-08
3.1991074e-08
6.4827918e-08
1.2300529e-07
2.2203608e-07
3.8550227e-07
6.4885778e-07
1.0649172e-06
1.7117449e-06
2.7039483e-06
4.2087805e-06
6.4690042e-06
9.835213e-06
1.481129e-05
2.2117965e-05
3.2781038e-05
4.8252691e-05
7.0576264e-05
0.00010260626
0.00014829489
0.0002130515
0.00030416598
0.00043125293
0.00060660289
0.00084520158
0.0011639859
0.0015796957
0.0021046728
0.0027406731
0.0034727184
0.0042674388
0.0050798082
0.0058663144
0.0065965707
0.0072571181
0.0078482028
0.0083779406
0.0088569757
0.0092942779
0.0096947181
0.010051355
0.010343111
0.010592644
0.010699606
0.010113181
0.0078334269
0.0037214066
0.0016579623
0.00074077911
0.00036050595
0.00020702168
0.00014908624
0.00013102577
0.00012345011
0.00011796458
0.00011249723
0.00010795298
0.0001041318
0.00010085659
9.4242257e-05
1.4182759e-12
4.4567112e-11
3.6443825e-10
1.5672808e-09
4.8227708e-09
1.2169208e-08
2.6982882e-08
5.4679652e-08
1.03751e-07
1.8728259e-07
3.2516707e-07
5.4731224e-07
8.9827155e-07
1.4438996e-06
2.2808797e-06
3.5503087e-06
5.4569867e-06
8.2966874e-06
1.2494517e-05
1.8658562e-05
2.7654382e-05
4.070753e-05
5.9543007e-05
8.6571899e-05
0.00012513557
0.00017981437
0.00025679709
0.00036428165
0.00051282508
0.00071546368
0.00098727204
0.0013438408
0.0017980689
0.002355054
0.003006232
0.0037260897
0.0044754938
0.005212007
0.0059015273
0.006524422
0.0070745021
0.0075538801
0.0079668986
0.0083154738
0.0085931795
0.0087739398
0.0088444942
0.0087433318
0.0079594762
0.0054140925
0.0025593929
0.0011632158
0.00054414611
0.00028684979
0.0001830967
0.00014194325
0.00012597887
0.00012045259
0.00011547792
0.00011144131
0.00010784217
0.00010356542
9.8815713e-05
9.6384554e-05
9.1484237e-05
1.1890269e-12
3.736332e-11
3.0553081e-10
1.3139494e-09
4.0432486e-09
1.0202334e-08
2.2621965e-08
4.5843067e-08
8.698556e-08
1.5702186e-07
2.7263257e-07
4.5889707e-07
7.5317687e-07
1.2106972e-06
1.912537e-06
2.9770212e-06
4.575896e-06
6.9571939e-06
1.0477396e-05
1.5646405e-05
2.3190005e-05
3.4135821e-05
4.9930313e-05
7.2595534e-05
0.0001049347
0.00015079333
0.00021537485
0.00030559056
0.0004303846
0.00060090169
0.00083024636
0.0011324243
0.0015199404
0.0019997181
0.0025678918
0.0032057689
0.0038805455
0.0045525413
0.0051856807
0.0057549247
0.006247168
0.0066568575
0.0069792402
0.0072053207
0.0073093663
0.0072581437
0.0070002401
0.0060669404
0.0035932463
0.0017458575
0.0008178494
0.00040424873
0.00023223436
0.00016277835
0.00013503363
0.0001232278
0.00011793104
0.00011314886
0.00010999152
0.00010663676
0.00010223003
9.942678e-05
9.5830964e-05
9.3039974e-05
8.8475393e-05
9.9329121e-13
3.1212635e-11
2.5523503e-10
1.0976528e-09
3.3776874e-09
8.52301e-09
1.8898615e-08
3.829844e-08
7.267144e-08
1.3118587e-07
2.2778023e-07
3.8341194e-07
6.2930299e-07
1.0116048e-06
1.5980758e-06
2.4876006e-06
3.8237052e-06
5.8136563e-06
8.7553177e-06
1.3074692e-05
1.9378026e-05
2.852349e-05
4.1718664e-05
6.0651114e-05
8.7659634e-05
0.00012595207
0.00017986965
0.00025518349
0.00035937877
0.00050182732
0.00069365746
0.00094700557
0.0012732259
0.0016796898
0.002165355
0.0027166268
0.0033063848
0.0038984864
0.0044563648
0.0049505488
0.0053606125
0.0056711611
0.0058657924
0.0059167885
0.0058033138
0.0054224548
0.0043966781
0.0023986361
0.0011723576
0.00057687616
0.0003067421
0.00019311383
0.00014770488
0.00012964852
0.00012150273
0.00011719788
0.00011247501
0.00010933434
0.00010538418
0.00010211249
9.9270983e-05
9.6124822e-05
9.2550912e-05
9.042965e-05
8.6705835e-05
8.2900272e-13
2.6050125e-11
2.1301976e-10
9.1610642e-10
2.8190553e-09
7.1134875e-09
1.5773466e-08
3.1965961e-08
6.0657117e-08
1.0950096e-07
1.9013456e-07
3.2005592e-07
5.2533443e-07
8.4450644e-07
1.334151e-06
2.0768373e-06
3.192405e-06
4.8538988e-06
7.3099619e-06
1.0916112e-05
1.61781e-05
2.3811473e-05
3.4822415e-05
5.0615776e-05
7.3136346e-05
0.00010504801
0.00014995056
0.00021262256
0.00029925534
0.00041760058
0.00057688366
0.00078723631
0.0010583061
0.001396716
0.0018024091
0.0022647864
0.0027608441
0.0032576652
0.003718964
0.0041116364
0.0044076545
0.0045806118
0.0045969767
0.004450603
0.0040207975
0.0029440299
0.0015730189
0.00079155344
0.00040995788
0.00023869608
0.00016568606
0.00013659678
0.00012570572
0.00012055693
0.00011756776
0.00011278754
0.0001089981
0.00010502578
0.00010208343
9.9364725e-05
9.5896545e-05
9.2995676e-05
8.9859007e-05
8.7714714e-05
8.4724148e-05
6.9245881e-13
2.1759442e-11
1.7793363e-10
7.652188e-10
2.3547621e-09
5.9419946e-09
1.3176059e-08
2.6702824e-08
5.0671569e-08
9.1477773e-08
1.5884569e-07
2.6739805e-07
4.3892174e-07
7.0562394e-07
1.1147919e-06
1.7354335e-06
2.6676981e-06
4.0561764e-06
6.1085726e-06
9.1217475e-06
1.3517751e-05
1.9893185e-05
2.9085954e-05
4.2264013e-05
6.1040652e-05
8.7619362e-05
0.00012496699
0.00017700413
0.00024878265
0.00034658608
0.00047783351
0.00065059069
0.00087241457
0.0011482574
0.0014774046
0.0018500959
0.0022454363
0.0026326897
0.0029760579
0.0032395613
0.0033888818
0.003385603
0.0032224545
0.0028001935
0.0018401104
0.00099058958
0.00052810736
0.00029579598
0.00019125367
0.00014631043
0.00012829915
0.00012237507
0.00011996151
0.00011825651
0.00011365282
0.0001092026
0.00010520671
0.00010257882
9.9409758e-05
9.6169479e-05
9.3302612e-05
9.1019991e-05
8.8492759e-05
8.6367007e-05
8.3699639e-05
5.7831268e-13
1.8172579e-11
1.486029e-10
6.3908211e-10
1.9666278e-09
4.9626558e-09
1.1004666e-08
2.230286e-08
4.2323545e-08
7.6409917e-08
1.3268684e-07
2.2337284e-07
3.6667373e-07
5.8950379e-07
9.3137916e-07
1.449964e-06
2.2289336e-06
3.3890638e-06
5.103777e-06
7.6207756e-06
1.1291881e-05
1.6613725e-05
2.4282432e-05
3.5265673e-05
5.0895089e-05
7.2980319e-05
0.0001039415
0.0001469481
0.0002060352
0.0002861397
0.00039295494
0.00053244293
0.00070978778
0.00092758234
0.0011832375
0.0014661384
0.0017559067
0.0020232796
0.0022335662
0.002350437
0.0023372489
0.0021786033
0.0017824147
0.0011107546
0.0006175922
0.00034678732
0.00021649647
0.00015641699
0.00013249445
0.00012210056
0.00012005824
0.00011978204
0.00011885405
0.00011527632
0.00010963972
0.00010581054
0.00010308358
9.9860725e-05
9.6710101e-05
9.4267296e-05
9.1647947e-05
8.9126822e-05
8.6530857e-05
8.4885188e-05
8.2632453e-05
4.7986954e-13
1.507916e-11
1.2330719e-10
5.3029751e-10
1.6318839e-09
4.1180159e-09
9.1318795e-09
1.850784e-08
3.5122978e-08
6.3412536e-08
1.1012119e-07
1.8539245e-07
3.0434085e-07
4.8931066e-07
7.731064e-07
1.2035914e-06
1.8502006e-06
2.8131107e-06
4.2360639e-06
6.3241516e-06
9.3682184e-06
1.3777902e-05
2.0125572e-05
2.920336e-05
4.2094706e-05
6.0259626e-05
8.5628265e-05
0.00012068832
0.00016853651
0.00023283969
0.00031761609
0.00042670609
0.0005627724
0.00072570424
0.00091049209
0.0011051248
0.0012895907
0.0014369737
0.0015161006
0.0014960626
0.0013610814
0.0010387561
0.00063852312
0.00037339258
0.00023079583
0.00015892618
0.00013154533
0.00011997794
0.00011754064
0.00011851912
0.00012014908
0.00011957802
0.00011691886
0.00011044683
0.00010646753
0.00010381128
0.00010044136
9.7567611e-05
9.4953313e-05
9.2283057e-05
8.9616884e-05
8.7434536e-05
8.5165533e-05
8.3415542e-05
8.1621086e-05
3.9014586e-13
1.2259734e-11
1.0025192e-10
4.3114706e-10
1.3267793e-09
3.3481377e-09
7.4247773e-09
1.5048348e-08
2.8558527e-08
5.1562263e-08
8.9544808e-08
1.507556e-07
2.474864e-07
3.9790658e-07
6.286859e-07
9.7872342e-07
1.5044187e-06
2.2870736e-06
3.4432024e-06
5.1387483e-06
7.6084336e-06
1.1181651e-05
1.6316313e-05
2.3641682e-05
3.401003e-05
4.8554312e-05
6.8743992e-05
9.6422255e-05
0.0001337937
0.00018331109
0.00024738453
0.00032782105
0.0004249039
0.00053606929
0.00065441498
0.00076756103
0.00085750021
0.00090181729
0.0008782122
0.00077130331
0.00055809853
0.00035127327
0.00022252036
0.00015146447
0.00012181306
0.00010884553
0.00011029394
0.00011270838
0.00011853248
0.00012165125
0.00012102306
0.00011846646
0.00011142796
0.00010744302
0.00010453466
0.00010127962
9.8366605e-05
9.5707218e-05
9.282144e-05
9.0423675e-05
8.8090805e-05
8.6148629e-05
8.4166386e-05
8.2609793e-05
8.1033906e-05
3.0405591e-13
9.5544893e-12
7.8130265e-11
3.3601062e-10
1.0340191e-09
2.6093774e-09
5.7865772e-09
1.1728229e-08
2.2257916e-08
4.0186901e-08
6.9790165e-08
1.1749625e-07
1.9288188e-07
3.1009866e-07
4.8990877e-07
7.6257276e-07
1.1719187e-06
1.7810298e-06
2.6801158e-06
3.9972658e-06
5.912893e-06
8.6786924e-06
1.2641731e-05
1.8273614e-05
2.6203183e-05
3.7248258e-05
5.2436876e-05
7.300034e-05
0.00010030888
0.00013570646
0.0001801902
0.00023388335
0.00029530353
0.00036048206
0.0004222106
0.00046972729
0.00048894861
0.00046771557
0.00039324763
0.00028053597
0.00018917352
0.00013054853
0.00010319656
9.1414717e-05
9.3909704e-05
9.9659898e-05
0.0001102012
0.00012149803
0.00012328134
0.00012263444
0.00012003506
0.00011286903
0.0001084158
0.00010537604
0.00010200965
9.9336714e-05
9.6457574e-05
9.3744087e-05
9.1290424e-05
8.9128335e-05
8.69682e-05
8.5022656e-05
8.3031145e-05
8.1712498e-05
8.0385187e-05
2.2079573e-13
6.938165e-12
5.6735666e-11
2.4399992e-10
7.5087114e-10
1.8948459e-09
4.202021e-09
8.5166072e-09
1.6162673e-08
2.9181167e-08
5.0675051e-08
8.5308986e-08
1.400288e-07
2.2509153e-07
3.555312e-07
5.5323017e-07
8.498224e-07
1.2907214e-06
1.9406365e-06
2.8909978e-06
4.2697193e-06
6.2536157e-06
9.0834298e-06
1.3080611e-05
1.8663396e-05
2.6356972e-05
3.6788122e-05
5.0648657e-05
6.8604945e-05
9.1123688e-05
0.00011819127
0.00014893704
0.00018115151
0.00021092543
0.00023244945
0.00023836605
0.00022336204
0.00018224736
0.00013477938
9.9038371e-05
7.9569174e-05
7.0333295e-05
7.2224925e-05
7.8655216e-05
9.3128083e-05
0.00011438155
0.00012309624
0.00012523478
0.00012452628
0.00012186194
0.00011442528
0.00010970831
0.00010613521
0.00010300697
0.00010029602
9.7485295e-05
9.4599189e-05
9.2197298e-05
8.9808421e-05
8.7663313e-05
8.5511507e-05
8.3783475e-05
8.2058759e-05
8.0788811e-05
7.9721539e-05
1.4481126e-13
4.5504678e-12
3.721059e-11
1.6002879e-10
4.9245979e-10
1.2427228e-09
2.7558164e-09
5.5852835e-09
1.0599142e-08
1.9134989e-08
3.3225588e-08
5.5924931e-08
9.1776637e-08
1.4748241e-07
2.3284906e-07
3.6211875e-07
5.5581784e-07
8.4329242e-07
1.2661242e-06
1.8826227e-06
2.7735327e-06
4.0489197e-06
5.8557974e-06
8.3852897e-06
1.1876773e-05
1.6614329e-05
2.2907929e-05
3.1048207e-05
4.1221781e-05
5.3377695e-05
6.7042873e-05
8.1109347e-05
9.3670184e-05
0.0001019819
0.00010255933
9.4213969e-05
7.7832023e-05
6.3330335e-05
5.3864682e-05
4.8802243e-05
5.1356891e-05
5.6471726e-05
6.8721458e-05
9.4816101e-05
0.00011694421
0.0001252656
0.00012702171
0.00012632254
0.00012369814
0.00011626618
0.00011100472
0.00010726332
0.00010391717
0.00010137427
9.8316167e-05
9.5586883e-05
9.3028485e-05
9.0736918e-05
8.8422906e-05
8.6503629e-05
8.4635716e-05
8.3044725e-05
8.1423187e-05
8.0335184e-05
7.9377582e-05
8.3333819e-14
2.6186324e-12
2.1413273e-11
9.2089535e-11
2.8338413e-10
7.1510057e-10
1.5857127e-09
3.2135945e-09
6.0978204e-09
1.1007066e-08
1.9108663e-08
3.2154645e-08
5.2748043e-08
8.4721061e-08
1.3366727e-07
2.0768232e-07
3.1838047e-07
4.8226442e-07
7.2252516e-07
1.071324e-06
1.5725335e-06
2.2847453e-06
3.2840303e-06
4.6653722e-06
6.5408169e-06
9.0311419e-06
1.2246543e-05
1.6251193e-05
2.1007416e-05
2.6301019e-05
3.1661409e-05
3.6305633e-05
3.9143271e-05
3.8980471e-05
3.641601e-05
3.3127671e-05
3.0346443e-05
3.0041322e-05
3.3204819e-05
3.7665456e-05
4.7831138e-05
6.6620825e-05
9.7349415e-05
0.0001175533
0.00012661214
0.00012880689
0.0001281424
0.0001257005
0.00011835187
0.00011259895
0.0001084711
0.00010508216
0.00010218752
9.9380078e-05
9.6624162e-05
9.4208937e-05
9.1588866e-05
8.9342529e-05
8.7264468e-05
8.5469483e-05
8.3630332e-05
8.2109706e-05
8.0593006e-05
7.9639435e-05
7.8839414e-05
4.1217045e-14
1.295178e-12
1.0590947e-11
4.5546468e-11
1.4015455e-10
3.5365382e-10
7.8415929e-10
1.5890011e-09
3.0146734e-09
5.4405372e-09
9.4420858e-09
1.5881803e-08
2.6038544e-08
4.1789988e-08
6.5866963e-08
1.0220282e-07
1.5640435e-07
2.3637033e-07
3.5307465e-07
5.2150423e-07
7.6168258e-07
1.0995964e-06
1.5676474e-06
2.2039458e-06
3.0493599e-06
4.1408183e-06
5.4991124e-06
7.1103302e-06
8.9020151e-06
1.0720657e-05
1.2323001e-05
1.3396692e-05
1.3867558e-05
1.4222221e-05
1.4838843e-05
1.6241349e-05
1.8563816e-05
2.3347883e-05
3.1628611e-05
4.5977275e-05
6.8099761e-05
9.6866778e-05
0.00011625957
0.00012727481
0.00013049414
0.00012990344
0.00012769856
0.00012075471
0.00011417813
0.00010989047
0.00010622172
0.00010323069
0.00010030174
9.7898704e-05
9.5133102e-05
9.2542525e-05
9.0160586e-05
8.8234808e-05
8.6202607e-05
8.4466235e-05
8.2744049e-05
8.1360496e-05
7.9966017e-05
7.9132421e-05
7.8410654e-05
1.7637942e-14
5.5424221e-13
4.5321105e-12
1.9489917e-11
5.9971389e-11
1.5131632e-10
3.3548041e-10
6.7970762e-10
1.2892768e-09
2.3260549e-09
4.0352617e-09
6.7837303e-09
1.1114045e-08
1.7820247e-08
2.8052154e-08
4.3456447e-08
6.6362763e-08
1.0002067e-07
1.4888619e-07
2.1894026e-07
3.1799052e-07
4.5585478e-07
6.4424511e-07
8.9606985e-07
1.2237754e-06
1.6363963e-06
2.135261e-06
2.7093476e-06
3.3331089e-06
3.9727093e-06
4.6322791e-06
5.4327644e-06
6.4589789e-06
7.7683551e-06
1.011264e-05
1.3940152e-05
2.0360341e-05
3.1057825e-05
4.6791312e-05
6.8041809e-05
9.3547943e-05
0.00011317402
0.00012753391
0.0001322227
0.00013176643
0.00012980626
0.00012333563
0.00011596635
0.00011142931
0.00010765344
0.00010430495
0.00010142225
9.8863318e-05
9.6288293e-05
9.353985e-05
9.1391173e-05
8.911084e-05
8.7091114e-05
8.5162204e-05
8.3612234e-05
8.2043642e-05
8.0778342e-05
7.950379e-05
7.8777342e-05
7.8071661e-05
7.366942e-15
2.3149318e-13
1.892934e-12
8.1402159e-12
2.5046853e-11
6.3192882e-11
1.4009118e-10
2.8379992e-10
5.3822621e-10
9.7083476e-10
1.6837489e-09
2.8295852e-09
4.6338017e-09
7.4258556e-09
1.1681997e-08
1.8082952e-08
2.7589805e-08
4.1540606e-08
6.1767899e-08
9.0732454e-08
1.3166014e-07
1.8865649e-07
2.6676204e-07
3.7190526e-07
5.1073696e-07
6.9039958e-07
9.1901533e-07
1.2087946e-06
1.5838572e-06
2.105051e-06
2.8542139e-06
3.9764866e-06
5.7195478e-06
8.5301356e-06
1.3119161e-05
2.0507166e-05
3.1492591e-05
4.6461981e-05
6.6055995e-05
8.9859936e-05
0.00011152623
0.00012876796
0.00013403687
0.00013391276
0.00013206221
0.00012590176
0.00011779152
0.00011324486
0.00010910453
0.00010557929
0.00010246613
9.9940209e-05
9.7272735e-05
9.4894792e-05
9.2366382e-05
9.0073239e-05
8.7830717e-05
8.612199e-05
8.4365895e-05
8.2860603e-05
8.130756e-05
8.0093306e-05
7.8862466e-05
7.8220775e-05
7.760666e-05
4.490577e-15
1.4110872e-13
1.153863e-12
4.9620387e-12
1.526811e-11
3.8522424e-11
8.5404446e-11
1.7303134e-10
3.2820786e-10
5.9216623e-10
1.0274265e-09
1.7276541e-09
2.8317237e-09
4.5436311e-09
7.1604663e-09
1.1111378e-08
1.7011382e-08
2.5735038e-08
3.8516685e-08
5.7086491e-08
8.3856518e-08
1.2218147e-07
1.7674237e-07
2.5415451e-07
3.64022e-07
5.2093519e-07
7.4771791e-07
1.0814603e-06
1.5835295e-06
2.3584982e-06
3.5772425e-06
5.5133637e-06
8.5835169e-06
1.3410185e-05
2.0734733e-05
3.1211112e-05
4.5481551e-05
6.4309774e-05
8.7677883e-05
0.00011098039
0.00012936759
0.00013584591
0.00013612426
0.00013439225
0.00012854897