/*--------------------------------*- C++ -*----------------------------------*\
  =========                 |
  \\      /  F ield         | OpenFOAM: The Open Source CFD Toolbox
   \\    /   O peration     | Website:  https://openfoam.org
    \\  /    A nd           | Version:  13
     \\/     M anipulation  |
\*---------------------------------------------------------------------------*/
FoamFile
{
    format      ascii;
    class       volScalarField;
    location    "20.803529";
    object      pMean;
}
// * * * * * * * * * * * * * * * * * * * * * * * * * * * * * * * * * * * * * //

dimensions      [0 2 -2 0 0 0 0];

internalField   nonuniform List<scalar> 
17140
(
2.203096
2.2029558
2.2027866
2.2026148
2.2024295
2.202228
2.2020102
2.2017758
2.2015244
2.2012559
2.20097
2.2006663
2.2003443
2.2000028
2.1996394
2.1992497
2.1988264
2.1983583
2.1978277
2.1972091
2.1964662
2.1955482
2.1943857
2.192884
2.1909334
2.1884438
2.1853622
2.1816305
2.1771422
2.1717581
2.1653245
2.1576654
2.1485804
2.1378459
2.1252183
2.1104442
2.0932765
2.0734969
2.0509466
2.0255687
1.997456
1.9669092
1.9345174
1.9012093
1.8683102
1.8375342
1.8106093
1.7892754
1.7752604
1.7699737
1.774338
1.7889044
1.8138167
1.8485637
1.8921192
1.9426284
1.9978651
2.0548124
2.1113492
2.1630917
2.2094022
2.2434695
2.2702833
2.2779297
2.2831006
2.2007587
2.2006213
2.2004557
2.2002873
2.2001055
2.1999079
2.1996942
2.1994643
2.1992178
2.1989544
2.1986739
2.1983762
2.1980607
2.1977263
2.1973706
2.1969895
2.1965759
2.1961187
2.1956007
2.1949965
2.19427
2.1933712
2.192231
2.1907553
2.1888337
2.1863743
2.183324
2.1796257
2.1751723
2.1698235
2.1634252
2.1558008
2.1467491
2.1360455
2.1234453
2.1086938
2.0915425
2.0717713
2.0492197
2.0238284
1.9956882
1.9650983
1.9326457
1.8992638
1.8662958
1.835417
1.8083815
1.786995
1.7729374
1.7675866
1.7718959
1.7864167
1.8112549
1.8459214
1.8893854
1.939779
1.9949208
2.0518145
2.1083579
2.1601856
2.2066778
2.2410713
2.2682745
2.2761565
2.2818836
2.1950619
2.1949315
2.1947744
2.1946143
2.1944413
2.1942531
2.1940496
2.1938306
2.1935957
2.1933448
2.1930778
2.1927945
2.1924947
2.1921772
2.1918403
2.19148
2.1910898
2.190659
2.1901711
2.1896015
2.1889149
2.1880622
2.1869756
2.1855628
2.1837118
2.1813264
2.1783515
2.1747306
2.1703583
2.1650932
2.158779
2.1512377
2.1422663
2.1316377
2.1191045
2.1044091
2.0872992
2.0675507
2.0449987
2.0195797
1.9913801
1.9606979
1.9281213
1.8946003
1.8614933
1.8304416
1.8032308
1.7817018
1.7675452
1.7621246
1.7663526
1.7807573
1.805457
1.8399706
1.8832527
1.9334308
1.988353
2.0450604
2.1015236
2.1534126
2.2001074
2.2348386
2.2625923
2.2711827
2.2778875
2.1861166
2.1859972
2.1858539
2.1857068
2.1855478
2.1853747
2.1851874
2.1849857
2.1847693
2.1845382
2.1842924
2.184032
2.1837568
2.1834661
2.1831585
2.1828307
2.1824769
2.1820871
2.1816459
2.1811299
2.180505
2.1797236
2.1787199
2.1774044
2.1756641
2.173396
2.1705391
2.1670378
2.162791
2.1576568
2.1514745
2.1440646
2.135221
2.1247128
2.1122887
2.0976863
2.0806479
2.0609433
2.0384011
2.012951
1.9846745
1.9538681
1.9211234
1.8874144
1.854113
1.822831
1.7954059
1.7737004
1.7594177
1.7539089
1.7580468
1.7723148
1.7968203
1.8310925
1.8740758
1.9238771
1.9783979
2.0347351
2.0909701
2.1428316
2.189782
2.225093
2.2536788
2.2633647
2.2714457
2.174217
2.1741124
2.1739876
2.1738582
2.173718
2.1735653
2.1733999
2.1732216
2.1730302
2.1728259
2.1726088
2.172379
2.1721368
2.1718819
2.1716134
2.1713286
2.1710226
2.1706866
2.1703064
2.1698601
2.1693156
2.168627
2.1677312
2.1665424
2.1649484
2.1628381
2.1601388
2.1567951
2.1527142
2.147754
2.1417485
2.1345154
2.1258451
2.1155022
2.1032301
2.0887606
2.0718291
2.0521975
2.0296862
2.0042164
1.9758634
1.9449226
1.911994
1.8780812
1.8445534
1.8130286
1.7853884
1.7635082
1.7491219
1.743551
1.747618
1.7617546
1.786057
1.8200535
1.8626672
1.911989
1.9660073
2.0218844
2.0778125
2.1296226
2.1768419
2.2127883
2.2423574
2.2534726
2.2631115
2.1598481
2.1597618
2.1596596
2.1595519
2.159435
2.1593074
2.159169
2.1590197
2.1588593
2.1586879
2.158506
2.1583139
2.1581121
2.1579007
2.1576792
2.157446
2.1571969
2.1569245
2.1566161
2.1562516
2.155801
2.1552209
2.1544512
2.1534105
2.1519915
2.150074
2.1475659
2.1444109
2.1405287
2.1357781
2.1299876
2.1229714
2.1145156
2.10438
2.0923022
2.078007
2.061222
2.0417002
2.0192518
1.993788
1.9653775
1.9343143
1.9012128
1.8671068
1.8333561
1.8016169
1.7737891
1.7517663
1.7373139
1.731732
1.7357817
1.7498365
1.7739689
1.8076884
1.8498887
1.8986508
1.9520562
2.0073904
2.0629688
2.1147118
2.1622262
2.1989358
2.2296387
2.2424161
2.2537765
2.1436657
2.1436002
2.1435226
2.1434402
2.1433503
2.143252
2.1431449
2.1430292
2.1429046
2.1427716
2.1426304
2.1424817
2.1423261
2.1421643
2.1419961
2.1418205
2.1416346
2.1414321
2.1412019
2.1409259
2.1405765
2.1401133
2.1394796
2.1385986
2.1373692
2.1356675
2.1333813
2.130442
2.1267787
2.1222609
2.1167144
2.1099462
2.1017389
2.091847
2.0800024
2.0659228
2.0493274
2.0299589
2.0076165
1.9822005
1.9537722
1.9226264
1.8893962
1.855137
1.8212118
1.7893139
1.7613356
1.7392038
1.7247205
1.7191719
1.7232597
1.7372985
1.761328
1.7948338
1.8366811
1.8849251
1.9377092
1.992477
2.0477258
2.0994495
2.1472798
2.1847677
2.2166328
2.2310747
2.2439474
2.1264631
2.1264203
2.1263693
2.1263146
2.1262546
2.1261885
2.1261161
2.1260375
2.1259526
2.1258618
2.1257655
2.1256644
2.1255594
2.1254511
2.1253401
2.1252257
2.1251059
2.1249755
2.1248251
2.1246385
2.1243906
2.1240441
2.1235461
2.1228246
2.121785
2.1203086
2.1182667
2.1155605
2.1121237
2.1078488
2.102562
2.0960619
2.0881272
2.0785079
2.0669302
2.0531052
2.0367435
2.0175775
1.9953944
1.9700838
1.9416995
1.9105394
1.8772585
1.8429155
1.808895
1.7769069
1.7488154
1.7265903
1.7120879
1.7066052
1.7107867
1.7248701
1.7488687
1.7822446
1.8238297
1.8716557
1.9239286
1.9781684
2.0330729
2.0847013
2.1328277
2.1711616
2.2042437
2.220481
2.2348098
2.1091229
2.1091038
2.1090807
2.1090552
2.1090266
2.1089945
2.1089588
2.1089194
2.1088766
2.1088304
2.1087816
2.1087306
2.1086785
2.108626
2.1085736
2.1085213
2.1084674
2.1084078
2.1083342
2.1082323
2.1080793
2.1078411
2.1074686
2.1068948
2.1060312
2.1047666
2.1029711
2.1005172
2.0973116
2.0932691
2.0882406
2.0820153
2.0743644
2.0650359
2.0537514
2.040216
2.0241324
2.005223
1.9832639
1.9581339
1.9298808
1.8988069
1.8655868
1.8312719
1.7972741
1.7652857
1.7371334
1.7148412
1.7003405
1.694939
1.6992212
1.7133846
1.7374205
1.7707437
1.8121371
1.8596144
1.9114471
1.9651996
2.0197801
2.0716186
2.1203568
2.1597135
2.193919
2.2115129
2.2266298
2.0925536
2.0925583
2.092563
2.0925668
2.0925699
2.0925721
2.0925735
2.0925739
2.0925737
2.0925729
2.0925722
2.0925721
2.0925732
2.0925765
2.0925823
2.0925905
2.0925998
2.0926064
2.0926031
2.0925768
2.0925069
2.0923617
2.0920961
2.0916478
2.0909345
2.089852
2.0882759
2.0860718
2.0831121
2.0792904
2.0744898
2.0685284
2.0611659
2.0521388
2.0411662
2.0279501
2.0121877
1.9935941
1.9719364
1.9470852
1.9190843
1.8882415
1.8552392
1.8211248
1.78732
1.7554678
1.7273707
1.7051079
1.6906585
1.685335
1.6897289
1.7040158
1.7281151
1.7613893
1.8026144
1.8498108
1.9013217
1.9548714
2.009513
2.0615991
2.1106515
2.1505626
2.185388
2.2036486
2.2193441
2.0776132
2.0776404
2.0776716
2.0777034
2.0777367
2.0777719
2.077809
2.0778479
2.077889
2.0779324
2.0779785
2.0780278
2.0780807
2.0781377
2.0781992
2.0782646
2.0783325
2.0783991
2.0784575
2.0784956
2.0784939
2.0784233
2.0782415
2.0778905
2.0772939
2.0763544
2.0749538
2.0729591
2.0702335
2.066647
2.0620651
2.0563258
2.0492205
2.0404903
2.0298433
2.0169773
2.0015868
1.9833823
1.9621266
1.9376863
1.9101049
1.8796956
1.8471244
1.8134482
1.7800828
1.7486005
1.7207902
1.6987325
1.6844177
1.679215
1.683686
1.6979491
1.7219921
1.7551498
1.7961917
1.8431545
1.8943524
1.9476809
2.002213
2.0542664
2.1034422
2.1437118
2.178872
2.1973767
2.213507
2.0650302
2.0650773
2.065132
2.0651888
2.0652493
2.0653143
2.0653837
2.0654578
2.0655368
2.0656209
2.0657103
2.0658054
2.0659064
2.0660135
2.0661265
2.0662444
2.0663653
2.0664852
2.0665968
2.0666883
2.0667409
2.0667269
2.0666063
2.0663246
2.06581
2.0649718
2.0636991
2.0618622
2.0593226
2.055941
2.0515737
2.0460596
2.039198
2.0307462
2.0204253
2.0079363
1.9929743
1.9752504
1.954525
1.9306654
1.9037163
1.8739915
1.8421429
1.8092219
1.7765942
1.7457877
1.7185624
1.6969381
1.6829043
1.6777157
1.6820056
1.6959983
1.7197396
1.7525808
1.7932671
1.8397763
1.8905633
1.94359
1.9980086
2.0501973
2.0995503
2.1398293
2.1744182
2.1926804
2.2081273
2.0553248
2.0553879
2.0554617
2.0555388
2.0556218
2.0557114
2.0558079
2.0559116
2.0560228
2.0561417
2.0562686
2.0564036
2.0565469
2.0566983
2.056857
2.0570219
2.0571902
2.0573573
2.0575156
2.057653
2.0577508
2.0577819
2.0577078
2.0574764
2.0570194
2.0562509
2.055067
2.053347
2.0509519
2.0477332
2.0435518
2.0382488
2.0316292
2.0234671
2.0134952
2.0014249
1.9869584
1.9698164
1.9497743
1.9266962
1.9006272
1.8718745
1.8410823
1.8092642
1.777708
1.7478912
1.7215386
1.7005936
1.6867911
1.6814513
1.6853298
1.698837
1.7220338
1.7543093
1.794357
1.8402295
1.8906394
1.9435385
1.9979645
2.0499114
2.0987279
2.1378962
2.1715202
2.1886803
2.2038049
2.0487494
2.0488236
2.0489106
2.0490021
2.049101
2.0492085
2.0493249
2.0494506
2.0495861
2.0497317
2.0498878
2.0500544
2.0502317
2.0504193
2.0506163
2.0508209
2.0510302
2.0512391
2.0514395
2.051619
2.0517589
2.0518324
2.0518019
2.0516165
2.0512102
2.0505005
2.0493875
2.0477559
2.0454776
2.0424182
2.0383784
2.0332734
2.0269074
2.0190521
2.009463
1.9978736
1.984008
1.9675974
1.9484065
1.9263268
1.9014061
1.8739341
1.8445246
1.8141267
1.7839575
1.7554187
1.7301759
1.7098967
1.6962625
1.6906653
1.6939677
1.7067467
1.7291791
1.7606226
1.7997736
1.844932
1.894847
1.9475136
2.0014809
2.0527393
2.1001007
2.1378032
2.1696574
2.1854766
2.2001538
2.0452413
2.0453208
2.0454147
2.0455136
2.045621
2.0457383
2.0458659
2.0460045
2.0461547
2.0463169
2.0464917
2.0466794
2.0468801
2.0470936
2.0473189
2.0475544
2.047797
2.0480417
2.0482803
2.0485008
2.0486848
2.0488063
2.0488286
2.0487024
2.0483633
2.0477303
2.0467065
2.0451809
2.0430269
2.0401145
2.036352
2.0314645
2.0252776
2.0177715
2.0086328
1.9976104
1.9844406
1.9688776
1.9507231
1.9298796
1.9063753
1.880481
1.852753
1.8240522
1.7955109
1.7684595
1.7443054
1.7246405
1.7111276
1.7051099
1.7076941
1.7196064
1.741056
1.7713761
1.8094316
1.8537381
1.903168
1.9552758
2.0084029
2.0579422
2.1033231
2.1386973
2.1683888
2.1830632
2.1972653
2.0444733
2.0445525
2.0446467
2.0447458
2.0448538
2.0449724
2.045102
2.0452436
2.0453978
2.0455654
2.0457471
2.0459436
2.0461551
2.0463818
2.0466232
2.0468779
2.0471435
2.0474154
2.0476867
2.0479461
2.0481768
2.0483549
2.048446
2.048403
2.048164
2.0476503
2.0467664
2.045401
2.0434296
2.0407223
2.0371498
2.0325126
2.0267788
2.0196511
2.0109623
2.0005906
1.9882535
1.9737261
1.9568328
1.9374517
1.9156177
1.8915599
1.8657523
1.8389616
1.8122043
1.7866112
1.7634867
1.7443804
1.7308176
1.7243217
1.7261133
1.737043
1.7573084
1.7863084
1.8231811
1.8666542
1.9152609
1.9663012
2.0176799
2.0649163
2.1075894
2.1400778
2.1678959
2.1813014
2.1951313
2.0458569
2.0459308
2.0460195
2.0461122
2.0462136
2.0463256
2.0464486
2.0465837
2.0467316
2.0468935
2.0470703
2.0472628
2.0474718
2.0476979
2.0479412
2.048201
2.0484759
2.0487626
2.0490558
2.0493463
2.0496203
2.049857
2.0500265
2.0500866
2.0499801
2.0496322
2.0489489
2.0478184
2.0461167
2.0437113
2.0404589
2.0362648
2.030949
2.0243442
2.0163923
2.0067754
1.9953949
1.9820749
1.966622
1.9489195
1.9289761
1.9069551
1.8832476
1.8584878
1.8334937
1.8092976
1.7871317
1.7683848
1.754708
1.7476666
1.7486438
1.7584844
1.7774027
1.8050559
1.840738
1.8831294
1.9304694
1.9798735
2.0287185
2.0728892
2.1122435
2.1420421
2.167968
2.1802909
2.1937801
2.048732
2.0487964
2.0488745
2.0489557
2.049045
2.0491439
2.0492532
2.0493739
2.0495069
2.0496534
2.0498146
2.0499916
2.0501856
2.0503975
2.0506282
2.0508779
2.0511465
2.0514323
2.051732
2.0520398
2.0523457
2.052634
2.0528811
2.0530529
2.0531014
2.0529605
2.0525451
2.0517496
2.0504489
2.0485067
2.0457765
2.0421288
2.0374288
2.0315691
2.0243588
2.0157537
2.0056226
1.9936596
1.9798169
1.9639764
1.9460951
1.9262663
1.9047558
1.8820181
1.8587416
1.8358571
1.8144476
1.7959602
1.7820836
1.774504
1.7745976
1.783234
1.8008219
1.8270753
1.8614782
1.9024948
1.9482895
1.9950458
2.0406215
2.0811751
2.1171241
2.1445269
2.1687584
2.1800237
2.193205
2.0523987
2.0524514
2.0525156
2.0525822
2.0526558
2.0527377
2.0528287
2.0529297
2.0530419
2.0531662
2.0533041
2.0534568
2.0536257
2.0538123
2.0540178
2.0542435
2.0544902
2.0547579
2.0550456
2.0553505
2.0556671
2.0559857
2.0562902
2.0565566
2.056749
2.0568169
2.0566901
2.0562767
2.0554628
2.054115
2.0520856
2.0492286
2.045399
2.0404934
2.0343893
2.0269929
2.0181572
2.0078493
1.9959043
1.9821174
1.9664583
1.9489198
1.9296226
1.9088787
1.8872337
1.8654681
1.8446704
1.8263085
1.8121815
1.8039923
1.8031302
1.810518
1.8266535
1.8515528
1.8847332
1.9242968
1.9675996
2.0108773
2.0527987
2.0892855
2.1224886
2.1475753
2.170235
2.1805142
2.1934142
2.0562936
2.0563339
2.0563827
2.0564339
2.0564907
2.0565543
2.0566253
2.0567046
2.0567932
2.0568922
2.0570028
2.0571263
2.0572644
2.0574185
2.0575903
2.0577815
2.0579937
2.0582284
2.0584862
2.0587669
2.0590689
2.0593879
2.0597154
2.0600376
2.0603322
2.0605653
2.0606887
2.0606346
2.0603135
2.0596125
2.058398
2.0565245
2.0538422
2.0502172
2.045527
2.0396752
2.0325874
2.0241907
2.0142824
2.0027381
1.9894276
1.9742278
1.9571395
1.9383024
1.9181106
1.8972818
1.8769206
1.8585961
1.8441259
1.835243
1.833267
1.8393254
1.8542528
1.8781408
1.910104
1.9475085
1.9872229
2.0268442
2.064394
2.097787
2.1282242
2.1512091
2.1724345
2.1817625
2.1944026
2.0599944
2.0600232
2.0600578
2.0600947
2.0601358
2.0601821
2.060234
2.0602924
2.0603581
2.060432
2.0605152
2.0606091
2.0607149
2.0608343
2.060969
2.0611208
2.0612919
2.0614841
2.0616996
2.0619397
2.0622055
2.0624965
2.0628105
2.0631419
2.0634806
2.0638091
2.0641005
2.0643154
2.0643981
2.0642731
2.063843
2.0629905
2.061583
2.059483
2.0565587
2.0526816
2.0477174
2.0415479
2.0340245
2.024973
2.0141549
2.0013525
1.9864142
1.9693284
1.9503825
1.9302779
1.9102014
1.8918085
1.8768695
1.8670916
1.8640159
1.869132
1.8833278
1.906364
1.9366453
1.9705923
2.0068815
2.0420435
2.0762113
2.1064233
2.1344136
2.1554471
2.1753357
2.1837664
2.1961673
2.063294
2.0633131
2.0633362
2.0633611
2.0633891
2.0634207
2.0634564
2.0634967
2.0635424
2.0635942
2.0636531
2.0637201
2.0637965
2.0638837
2.063983
2.064096
2.0642249
2.0643716
2.0645383
2.0647273
2.064941
2.065182
2.0654516
2.0657499
2.0660751
2.0664227
2.066784
2.0671446
2.0674819
2.0677626
2.0679393
2.0679475
2.0677047
2.067107
2.0660304
2.0643304
2.0618392
2.0583586
2.053646
2.0474172
2.0393224
2.0290017
2.0161458
2.0006479
1.9827409
1.9631943
1.9432464
1.9245686
1.9088755
1.8982904
1.8946057
1.899494
1.9134999
1.9353093
1.9625261
1.9934823
2.0255811
2.0571133
2.0879067
2.1153511
2.1410735
2.1602861
2.1789484
2.1865239
2.1987033
2.0661265
2.0661383
2.0661525
2.066168
2.0661854
2.0662053
2.0662278
2.0662533
2.0662824
2.0663158
2.0663543
2.0663984
2.066448
2.066504
2.0665684
2.0666436
2.0667319
2.0668355
2.0669566
2.0670965
2.0672558
2.067437
2.0676446
2.0678831
2.0681562
2.068468
2.0688225
2.0692227
2.0696722
2.0701726
2.0707228
2.0713196
2.0719488
2.0725772
2.0731382
2.0735141
2.0735155
2.0728619
2.0711888
2.0680473
2.0628877
2.0551378
2.0443868
2.0304518
2.0135237
1.9944013
1.974345
1.9550581
1.9387849
1.9280341
1.9247934
1.9303749
1.9437973
1.96364
1.9878294
2.0153342
2.0435973
2.0717918
2.0996867
2.1245659
2.1482086
2.1657338
2.18326
2.1900227
2.2020016
2.06861
2.0686158
2.0686227
2.0686303
2.0686389
2.0686487
2.0686601
2.0686732
2.0686885
2.0687063
2.0687268
2.0687503
2.0687775
2.0688097
2.0688485
2.0688951
2.0689496
2.0690127
2.0690863
2.0691738
2.0692786
2.0694019
2.0695456
2.0697144
2.069915
2.0701589
2.070459
2.0708281
2.0712837
2.0718517
2.0725646
2.0734697
2.0746144
2.0760311
2.0777384
2.0796985
2.0817566
2.0836156
2.0847994
2.0846383
2.0823734
2.0772736
2.0687245
2.0563609
2.0403661
2.0214525
2.0010397
1.9818001
1.9662606
1.9568039
1.955177
1.9607865
1.9730006
1.9903425
2.0123069
2.0356269
2.0609616
2.0862829
2.1115233
2.1340774
2.1558163
2.1717774
2.1882593
2.1942528
2.2060531
2.0708498
2.0708489
2.070848
2.0708469
2.0708458
2.070845
2.0708449
2.0708454
2.0708467
2.070849
2.0708526
2.070859
2.070868
2.0708765
2.0708831
2.0708909
2.070903
2.0709227
2.0709542
2.0709998
2.0710596
2.0711321
2.071218
2.0713252
2.0714636
2.0716435
2.0718807
2.0721972
2.0726218
2.0731912
2.0739549
2.0749837
2.0763581
2.0781661
2.0804985
2.0833763
2.0867163
2.090251
2.0934921
2.0957316
2.0960304
2.0933867
2.0869453
2.0761042
2.0608168
2.0424218
2.0232052
2.005892
1.9923837
1.9853313
1.9843051
1.9895273
2.0002378
2.0157525
2.0342583
2.0552186
2.077869
2.1005713
2.1234519
2.1438875
2.1638892
2.1784087
2.1939315
2.1992
2.2108509
2.0729363
2.0729275
2.0729171
2.0729063
2.0728946
2.0728818
2.072868
2.0728535
2.0728385
2.0728229
2.0728068
2.0727903
2.0727733
2.0727561
2.0727392
2.0727232
2.0727098
2.0727013
2.0726986
2.0727043
2.0727235
2.0727584
2.0728078
2.0728764
2.072974
2.0731105
2.0733001
2.0735661
2.0739434
2.0744773
2.0752168
2.0762292
2.077616
2.079488
2.0819629
2.0851206
2.0889679
2.093333
2.0977963
2.1016185
2.1037434
2.1029764
2.0980662
2.0883825
2.0748911
2.0589723
2.0425598
2.0277529
2.0174121
2.0115251
2.0106809
2.0160381
2.0256288
2.0388924
2.0554264
2.0739975
2.0942862
2.1147109
2.1354735
2.153994
2.1724189
2.1856142
2.2002603
2.2048519
2.2163854
2.074531
2.0745145
2.0744951
2.0744747
2.0744524
2.0744275
2.0743993
2.0743691
2.0743389
2.0743088
2.0742777
2.0742453
2.0742116
2.0741768
2.0741406
2.0741034
2.0740658
2.0740288
2.0739941
2.0739657
2.0739482
2.0739461
2.0739609
2.0739937
2.0740545
2.0741617
2.0743287
2.0745678
2.0749085
2.075395
2.0760844
2.0770512
2.078384
2.0801892
2.0825995
2.085735
2.0896148
2.094131
2.098939
2.103331
2.1062066
2.1064135
2.103139
2.0959287
2.0853338
2.0723538
2.059122
2.0479688
2.0398479
2.0347846
2.0353948
2.0401588
2.048933
2.0606791
2.0753818
2.0920392
2.1103202
2.1287206
2.1476009
2.1643968
2.1813944
2.1933792
2.2072265
2.2111871
2.2226423
2.0753099
2.075289
2.0752644
2.0752385
2.0752105
2.07518
2.0751468
2.0751109
2.0750722
2.075031
2.0749874
2.0749415
2.0748938
2.0748447
2.0747947
2.0747447
2.0746958
2.0746494
2.0746071
2.0745707
2.0745445
2.0745371
2.0745517
2.0745817
2.07463
2.0747165
2.0748588
2.0750716
2.0753759
2.0758024
2.0764045
2.0772565
2.07844
2.0800575
2.0822004
2.084959
2.0884622
2.0926727
2.0973219
2.1018072
2.1053258
2.1069104
2.1054914
2.1006787
2.0929345
2.0834049
2.0738214
2.0657701
2.059184
2.0566279
2.0581296
2.0625537
2.0704516
2.081142
2.0944591
2.1094695
2.1259985
2.1426291
2.1598431
2.1750933
2.1908034
2.20169
2.2148156
2.2182078
2.2296118
2.0747105
2.0746916
2.0746695
2.0746461
2.0746207
2.0745931
2.0745633
2.0745311
2.0744966
2.0744597
2.0744207
2.0743797
2.0743369
2.0742927
2.0742476
2.0742025
2.0741582
2.0741157
2.0740764
2.0740438
2.0740207
2.0740082
2.0740097
2.0740291
2.0740729
2.0741526
2.0742806
2.0744713
2.0747448
2.0751254
2.0756467
2.0763745
2.0773922
2.0787739
2.0806513
2.0831394
2.0863174
2.090215
2.0946784
2.0993369
2.1034192
2.1060241
2.1062778
2.1038354
2.0991052
2.0929011
2.0867279
2.0811271
2.0773177
2.0766386
2.0784593
2.0830958
2.0906386
2.100534
2.1126953
2.126335
2.1413774
2.1564638
2.1722095
2.1860802
2.200637
2.2105319
2.2230086
2.2258896
2.2372599
2.0730739
2.0730614
2.0730467
2.0730312
2.0730144
2.0729961
2.0729763
2.072955
2.0729322
2.072908
2.0728823
2.0728554
2.0728274
2.0727989
2.0727702
2.0727421
2.0727155
2.0726916
2.0726718
2.0726581
2.0726521
2.0726567
2.0726759
2.0727134
2.0727745
2.0728665
2.0730049
2.0731949
2.0734387
2.0737723
2.0742452
2.0749226
2.07588
2.0771662
2.0788791
2.0811868
2.0842102
2.0879793
2.0924103
2.0971873
2.101729
2.1052467
2.1069944
2.106718
2.1046067
2.1014943
2.0982194
2.0953279
2.0940307
2.0945913
2.097363
2.1023363
2.10965
2.1189651
2.1302316
2.1427327
2.1565064
2.1702521
2.1847108
2.1973589
2.2108869
2.2198917
2.2317865
2.2342133
2.2455811
2.0706758
2.0706703
2.0706639
2.0706572
2.07065
2.0706422
2.070634
2.0706252
2.0706161
2.0706066
2.070597
2.0705875
2.0705783
2.0705698
2.0705626
2.0705576
2.0705558
2.0705586
2.0705675
2.0705846
2.0706125
2.070654
2.0707133
2.0707932
2.0708959
2.071027
2.0712006
2.0714376
2.0717658
2.0722093
2.0727759
2.0735071
2.0744943
2.075828
2.0776099
2.0799623
2.0829951
2.0867671
2.0912399
2.0961766
2.1011006
2.1053619
2.1083828
2.1098671
2.1101052
2.1098338
2.1090347
2.1086614
2.1093176
2.1113348
2.114981
2.1203766
2.1276759
2.1366019
2.147166
2.1587296
2.1714348
2.184022
2.1973613
2.2089216
2.2215387
2.2297463
2.2411379
2.2431349
2.2546078
2.0679707
2.06797
2.0679693
2.0679687
2.0679682
2.0679679
2.067968
2.0679684
2.0679695
2.0679715
2.0679745
2.0679791
2.0679857
2.067995
2.0680078
2.0680251
2.0680484
2.0680793
2.06812
2.068173
2.0682407
2.0683269
2.0684378
2.0685814
2.0687606
2.0689902
2.0692942
2.0696706
2.0701231
2.0706899
2.071415
2.072343
2.0735281
2.0750397
2.0769865
2.0794881
2.0826525
2.0865606
2.0911996
2.0963822
2.1016831
2.10663
2.1106943
2.1137537
2.1163304
2.1180639
2.1195041
2.1213451
2.1237401
2.1270631
2.1316238
2.1375205
2.1449079
2.1535802
2.163609
2.1744067
2.1862132
2.1978022
2.2101695
2.2207667
2.2325897
2.2400765
2.2510501
2.2526381
2.2642719
2.0649015
2.064903
2.0649051
2.0649075
2.0649105
2.0649142
2.0649189
2.0649248
2.0649321
2.0649413
2.0649529
2.0649674
2.0649856
2.0650086
2.0650374
2.0650737
2.0651194
2.0651768
2.065249
2.0653396
2.0654532
2.0655946
2.0657721
2.065997
2.0662768
2.0666191
2.0670382
2.0675518
2.0681831
2.0689591
2.069911
2.0710736
2.072504
2.0742928
2.0765386
2.0793473
2.0828404
2.0870982
2.0920904
2.0976358
2.1034224
2.1089623
2.1139717
2.1187077
2.1229025
2.1264901
2.1300421
2.133614
2.1375338
2.1420899
2.1475273
2.1539436
2.1615045
2.1700356
2.1796611
2.1898353
2.2008902
2.2116219
2.2231498
2.2328982
2.2440364
2.2508639
2.2615063
2.2627115
2.2745414
2.0611857
2.0611888
2.0611929
2.0611976
2.0612033
2.0612102
2.0612187
2.0612291
2.0612418
2.0612575
2.0612767
2.0613004
2.0613297
2.0613659
2.0614106
2.0614659
2.0615344
2.0616192
2.0617242
2.0618541
2.0620146
2.0622131
2.0624591
2.0627615
2.0631307
2.0635823
2.064134
2.0648079
2.0656256
2.0666106
2.0677978
2.0692458
2.0710245
2.0732074
2.0758982
2.0792145
2.0832628
2.0880824
2.093618
2.0996998
2.1060199
2.1121989
2.1184649
2.1245223
2.1301486
2.135482
2.1405897
2.1456833
2.15097
2.1566386
2.1629061
2.1698475
2.1776285
2.1860955
2.1954211
2.2050885
2.2155143
2.2255104
2.2363136
2.2453188
2.2558603
2.2621148
2.2724782
2.2733434
2.2854033
2.0563389
2.0563451
2.0563528
2.0563616
2.0563719
2.0563841
2.0563987
2.0564162
2.0564371
2.0564622
2.0564925
2.056529
2.0565733
2.0566269
2.0566921
2.0567713
2.0568677
2.0569853
2.0571286
2.0573033
2.0575163
2.0577757
2.0580919
2.0584768
2.0589465
2.0595184
2.0602091
2.0610411
2.0620477
2.063272
2.0647637
2.066583
2.0688073
2.0715329
2.0748674
2.0789125
2.0837321
2.0893053
2.0955611
2.1023031
2.1092226
2.1165105
2.1239789
2.1312025
2.1380977
2.1447858
2.1513087
2.1577454
2.1642365
2.1709132
2.1779497
2.1853967
2.1934211
2.2018782
2.2109813
2.2202345
2.2301324
2.2394966
2.2496752
2.258026
2.2680606
2.2737971
2.283947
2.2845045
2.2968132
2.0499546
2.0499661
2.0499803
2.0499961
2.0500142
2.0500354
2.0500601
2.0500889
2.0501227
2.0501624
2.0502093
2.0502647
2.0503304
2.0504086
2.0505017
2.0506128
2.0507457
2.0509048
2.0510959
2.051325
2.0516005
2.0519334
2.0523345
2.0528166
2.0533955
2.0540931
2.0549399
2.0559696
2.0572235
2.0587552
2.0606326
2.0629392
2.0657725
2.0692365
2.0734269
2.078406
2.0841708
2.0906698
2.0977871
2.1052734
2.1133075
2.1217788
2.130152
2.1384497
2.1465859
2.1545479
2.1623229
2.1699474
2.1775112
2.1850915
2.1928285
2.200749
2.2090188
2.2174959
2.2264303
2.2353401
2.2447903
2.2536086
2.2632434
2.2710333
2.2806117
2.2859155
2.2958733
2.2961841
2.3087233
2.0416992
2.0417187
2.0417423
2.0417683
2.0417978
2.0418316
2.0418705
2.0419153
2.041967
2.0420268
2.0420963
2.0421772
2.0422715
2.042382
2.0425114
2.0426621
2.0428393
2.0430512
2.0433026
2.0435987
2.043948
2.0443627
2.0448589
2.045454
2.0461694
2.0470331
2.0480816
2.049362
2.0509353
2.0528783
2.0552838
2.0582572
2.0619092
2.0663346
2.0715937
2.0776885
2.084571
2.0921492
2.1002115
2.1089049
2.1182036
2.1275775
2.1369921
2.1464161
2.1557172
2.164835
2.1737412
2.1824284
2.1909454
2.19933
2.2076943
2.2160436
2.2245433
2.2330514
2.2418498
2.2504666
2.25953
2.2678744
2.2770372
2.2843337
2.2935201
2.2984559
2.3082422
2.3083148
2.3211539
2.0312447
2.0312745
2.0313105
2.0313496
2.0313939
2.0314443
2.0315017
2.031567
2.0316412
2.0317252
2.0318199
2.0319296
2.0320605
2.0322132
2.0323861
2.0325843
2.0328154
2.0330859
2.0334033
2.0337766
2.034216
2.0347346
2.0353504
2.0360869
2.0369743
2.0380527
2.0393747
2.041009
2.0430421
2.0455785
2.048736
2.0526334
2.0573734
2.063012
2.0695564
2.0769553
2.085107
2.0938379
2.1032214
2.1133053
2.1235945
2.1340299
2.144594
2.1551371
2.1655502
2.1757522
2.1856894
2.1953276
2.2046872
2.2137771
2.2226886
2.2314102
2.2401075
2.2486391
2.2573143
2.2656724
2.2743932
2.2823177
2.29106
2.2979343
2.3067764
2.3114328
2.3210359
2.3211264
2.3339145
2.0184971
2.0185396
2.0185899
2.0186423
2.0186988
2.018764
2.0188447
2.0189401
2.0190434
2.019155
2.0192815
2.0194271
2.0195946
2.0197874
2.0200098
2.0202666
2.0205629
2.0209049
2.0213011
2.0217635
2.0223073
2.0229515
2.0237211
2.0246498
2.0257822
2.0271776
2.0289132
2.0310859
2.0338112
2.0372174
2.0414304
2.0465559
2.0526531
2.0597233
2.0677318
2.0765448
2.0859813
2.0961468
2.1070466
2.1182598
2.129705
2.14137
2.1530896
2.1647459
2.1762284
2.1874395
2.1983123
2.2087949
2.2188883
2.2285822
2.2379537
2.2469803
2.2558285
2.2643592
2.2729055
2.2810181
2.2894198
2.2969666
2.3053238
2.3118265
2.3203457
2.3247829
2.3341885
2.3341586
2.3469133
2.003459
2.0035154
2.0035782
2.003645
2.0037213
2.0038081
2.0039059
2.0040163
2.0041415
2.0042837
2.0044467
2.0046365
2.0048593
2.0051153
2.0053981
2.0057115
2.0060688
2.0064815
2.0069605
2.0075203
2.0081803
2.0089664
2.0099135
2.0110689
2.0124957
2.0142771
2.0165188
2.0193491
2.0229134
2.0273612
2.032819
2.0393778
2.047057
2.0558148
2.0654901
2.0759027
2.087122
2.0990622
2.1113549
2.1239098
2.1367242
2.1496375
2.1625341
2.1752936
2.1878011
2.1999533
2.2116747
2.2229035
2.2336289
2.2438291
2.2535736
2.2628331
2.2717775
2.2802734
2.2886723
2.2965416
2.3046341
2.3118297
2.319829
2.3260161
2.3342364
2.3386179
2.3478254
2.3484458
2.3619169
1.9858618
1.9859286
1.9860139
1.9861068
1.9862104
1.9863266
1.986456
1.9865996
1.9867587
1.9869365
1.9871363
1.987361
1.9876145
1.9879015
1.9882277
1.9886005
1.9890293
1.9895265
1.9901081
1.9907958
1.9916187
1.9926162
1.993841
1.9953635
1.9972752
1.9996912
2.0027502
2.0066085
2.0114265
2.017345
2.0244607
2.0328169
2.0423417
2.0529466
2.0644149
2.0768287
2.0899776
2.1034636
2.1172361
2.1312971
2.1454826
2.1596814
2.1737695
2.1876204
2.2011158
2.2141499
2.226642
2.2385273
2.2497874
2.2603972
2.2704186
2.2798276
2.2887945
2.2971991
2.3054058
2.3130039
2.3207683
2.3276128
2.3352493
2.3411409
2.3490408
2.3534451
2.3621868
2.3643873
2.3745911
1.9674196
1.967505
1.9676094
1.9677174
1.9678366
1.9679695
1.9681174
1.968282
1.9684657
1.9686711
1.9689012
1.9691601
1.9694526
1.9697849
1.9701649
1.9706031
1.9711134
1.9717142
1.9724306
1.9732964
1.9743569
1.9756728
1.9773241
1.9794134
1.9820683
1.98544
1.9896966
1.995008
2.0015227
2.0093393
2.0185042
2.0289262
2.0405146
2.0531035
2.0666159
2.0808525
2.0954396
2.1103993
2.1257092
2.1411871
2.1567111
2.1721471
2.1873583
2.2022124
2.2165878
2.2303773
2.2435008
2.2558934
2.2675362
2.2784062
2.2885651
2.297998
2.3068762
2.3151043
2.3230415
2.3303271
2.3377138
2.3442076
2.3514465
2.3570794
2.3646383
2.3690393
2.377509
2.3801144
2.3898757
1.9504353
1.9505312
1.950648
1.9507686
1.9509012
1.9510487
1.9512124
1.9513944
1.9515971
1.9518237
1.952078
1.9523651
1.9526913
1.953065
1.9534976
1.954004
1.9546045
1.9553266
1.9562073
1.9572961
1.958659
1.9603819
1.9625747
1.9653731
1.9689373
1.9734458
1.9790813
1.9860074
1.9943412
2.0041364
2.0153387
2.027833
2.0415795
2.0561162
2.0713804
2.0870743
2.1032553
2.119819
2.1365693
2.1533884
2.1701339
2.186663
2.2028357
2.2185174
2.2335878
2.2479431
2.2615065
2.2742185
2.2860626
2.2970242
2.307166
2.3164904
2.3251667
2.333132
2.3407297
2.3476631
2.3546355
2.3607835
2.3675997
2.3730272
2.3801843
2.3847382
2.3927299
2.3963817
2.4051178
1.938012
1.938113
1.938236
1.9383627
1.9385017
1.9386561
1.9388274
1.9390178
1.9392303
1.9394687
1.939738
1.9400446
1.9403972
1.9408074
1.9412909
1.9418691
1.9425706
1.9434343
1.9445119
1.9458718
1.9476028
1.9498176
1.9526552
1.95628
1.960876
1.9666344
1.9737326
1.9823077
1.9924299
2.0040782
2.0171451
2.0316415
2.0469169
2.0629316
2.0796783
2.0969864
2.114664
2.1325632
2.1505556
2.1684955
2.1862365
2.20363
2.2205324
2.2368097
2.2523447
2.2670389
2.2808207
2.2936388
2.305483
2.316351
2.3263074
2.335377
2.3437247
2.3513267
2.3585012
2.365029
2.3715381
2.3773249
2.3836923
2.3889174
2.3956655
2.4003225
2.407922
2.4120409
2.4204391
1.9319801
1.9320814
1.9322041
1.9323307
1.9324695
1.9326236
1.9327948
1.9329856
1.9331998
1.933442
1.9337185
1.934038
1.9344118
1.9348559
1.9353915
1.9360474
1.9368625
1.9378886
1.9391936
1.9408657
1.9430165
1.9457834
1.9493297
1.95384
1.9595093
1.9665257
1.9750452
1.985164
1.9968946
2.0101547
2.0248954
2.0406359
2.0571562
2.0747216
2.0928483
2.1113793
2.1301936
2.1491447
2.1680828
2.1868548
2.2053048
2.2232789
2.2406321
2.2572329
2.272969
2.2877486
2.3015061
2.3142015
2.3258324
2.3364096
2.3460081
2.3546714
2.3625613
2.3696937
2.3763582
2.3824164
2.3884119
2.3938096
2.3997045
2.4047233
2.4110643
2.415846
2.4230752
2.4278678
2.4359491
1.9346273
1.9347237
1.9348395
1.93496
1.9350923
1.9352393
1.9354031
1.9355869
1.9357951
1.9360334
1.93631
1.9366356
1.9370253
1.9374993
1.9380854
1.9388206
1.9397541
1.9409511
1.9424954
1.9444934
1.9470767
1.9504021
1.9546493
1.9600122
1.9666843
1.9748367
1.9845917
1.9959987
2.0090159
2.0235407
2.0393341
2.0561193
2.0739816
2.0924763
2.1114793
2.1308428
2.1504134
2.1700371
2.1895531
2.2087975
2.227608
2.2458269