/*--------------------------------*- C++ -*----------------------------------*\
  =========                 |
  \\      /  F ield         | OpenFOAM: The Open Source CFD Toolbox
   \\    /   O peration     | Website:  https://openfoam.org
    \\  /    A nd           | Version:  13
     \\/     M anipulation  |
\*---------------------------------------------------------------------------*/
FoamFile
{
    format      ascii;
    class       volScalarField;
    location    "29.802307";
    object      pPrime2Mean;
}
// * * * * * * * * * * * * * * * * * * * * * * * * * * * * * * * * * * * * * //

dimensions      [0 4 -4 0 0 0 0];

internalField   nonuniform List<scalar> 
17140
(
10449.424
10449.425
10449.425
10449.425
10449.424
10449.423
10449.421
10449.419
10449.415
10449.411
10449.405
10449.398
10449.389
10449.378
10449.363
10449.345
10449.322
10449.293
10449.257
10449.212
10449.155
10449.083
10448.994
10448.881
10448.738
10448.559
10448.333
10448.048
10447.688
10447.235
10446.665
10445.948
10445.051
10443.93
10442.536
10440.806
10438.67
10436.042
10432.826
10428.908
10424.159
10418.433
10411.566
10403.373
10393.649
10382.166
10368.673
10352.896
10334.537
10313.269
10288.738
10260.562
10228.327
10191.587
10149.86
10102.63
10049.336
9989.3744
9922.088
9846.7777
9762.6656
9668.9453
9564.6762
9448.9321
9320.6069
10449.681
10449.681
10449.681
10449.681
10449.68
10449.679
10449.677
10449.674
10449.671
10449.667
10449.661
10449.654
10449.645
10449.634
10449.619
10449.601
10449.578
10449.549
10449.513
10449.467
10449.41
10449.339
10449.249
10449.137
10448.995
10448.816
10448.59
10448.306
10447.947
10447.495
10446.926
10446.211
10445.315
10444.196
10442.802
10441.074
10438.939
10436.313
10433.098
10429.182
10424.435
10418.712
10411.848
10403.659
10393.94
10382.462
10368.976
10353.207
10334.857
10313.599
10289.08
10260.917
10228.697
10191.974
10150.266
10103.058
10049.789
9989.8556
9922.6005
9847.3256
9763.2532
9669.577
9565.3565
9449.6667
9321.3943
10450.314
10450.314
10450.314
10450.314
10450.313
10450.312
10450.31
10450.308
10450.305
10450.3
10450.295
10450.288
10450.279
10450.267
10450.253
10450.234
10450.212
10450.183
10450.147
10450.102
10450.045
10449.974
10449.885
10449.773
10449.632
10449.454
10449.23
10448.947
10448.59
10448.14
10447.573
10446.861
10445.968
10444.852
10443.461
10441.736
10439.604
10436.981
10433.769
10429.857
10425.115
10419.399
10412.543
10404.364
10394.656
10383.192
10369.723
10353.973
10335.644
10314.41
10289.92
10261.789
10229.606
10192.925
10151.266
10104.112
10050.904
9991.0393
9923.8614
9848.6725
9764.6961
9671.1262
9567.0232
9451.4651
9323.3231
10451.346
10451.346
10451.346
10451.346
10451.345
10451.343
10451.342
10451.339
10451.336
10451.332
10451.326
10451.319
10451.31
10451.299
10451.285
10451.267
10451.244
10451.216
10451.18
10451.135
10451.08
10451.01
10450.921
10450.81
10450.671
10450.495
10450.273
10449.992
10449.637
10449.19
10448.627
10447.918
10447.029
10445.917
10444.531
10442.81
10440.682
10438.063
10434.858
10430.953
10426.22
10420.514
10413.67
10405.507
10395.818
10384.377
10370.934
10355.215
10336.921
10315.728
10291.283
10263.205
10231.082
10194.47
10152.889
10105.823
10052.715
9992.9622
9925.9096
9850.8602
9767.0385
9673.6404
9569.7276
9454.3835
9326.4528
10452.796
10452.796
10452.796
10452.796
10452.795
10452.794
10452.792
10452.79
10452.786
10452.782
10452.777
10452.77
10452.761
10452.75
10452.736
10452.718
10452.695
10452.667
10452.632
10452.588
10452.533
10452.464
10452.377
10452.267
10452.129
10451.955
10451.735
10451.458
10451.107
10450.663
10450.104
10449.4
10448.516
10447.409
10446.028
10444.312
10442.191
10439.58
10436.382
10432.487
10427.766
10422.076
10415.251
10407.11
10397.447
10386.038
10372.632
10356.956
10338.711
10317.574
10293.193
10265.189
10233.151
10196.636
10155.165
10108.223
10055.254
9995.6587
9928.7817
9853.928
9770.3234
9677.1657
9573.5204
9458.4768
9330.8457
10454.683
10454.683
10454.683
10454.682
10454.682
10454.68
10454.679
10454.676
10454.673
10454.669
10454.663
10454.657
10454.648
10454.637
10454.623
10454.605
10454.583
10454.555
10454.521
10454.478
10454.423
10454.355
10454.27
10454.161
10454.025
10453.854
10453.637
10453.363
10453.016
10452.577
10452.023
10451.325
10450.447
10449.346
10447.972
10446.263
10444.15
10441.548
10438.362
10434.481
10429.776
10424.106
10417.305
10409.192
10399.564
10388.196
10374.838
10359.217
10341.036
10319.972
10295.675
10267.767
10235.84
10199.451
10158.123
10111.343
10058.556
9999.1649
9932.5164
9857.9167
9774.5947
9681.7501
9578.453
9463.8024
9336.5644
10457.025
10457.025
10457.025
10457.024
10457.024
10457.022
10457.021
10457.018
10457.015
10457.011
10457.005
10456.999
10456.99
10456.979
10456.965
10456.948
10456.926
10456.899
10456.865
10456.822
10456.769
10456.702
10456.618
10456.512
10456.378
10456.209
10455.996
10455.726
10455.384
10454.95
10454.402
10453.711
10452.84
10451.747
10450.381
10448.681
10446.578
10443.989
10440.817
10436.953
10432.269
10426.623
10419.852
10411.776
10402.19
10390.873
10377.574
10362.022
10343.92
10322.946
10298.754
10270.967
10239.178
10202.945
10161.795
10115.216
10062.655
10003.517
9937.1515
9862.8675
9779.8963
9687.4407
9584.5783
9470.4179
9343.6739
10459.843
10459.843
10459.842
10459.842
10459.841
10459.84
10459.838
10459.836
10459.832
10459.828
10459.823
10459.816
10459.808
10459.797
10459.783
10459.766
10459.745
10459.719
10459.685
10459.644
10459.591
10459.526
10459.443
10459.339
10459.209
10459.043
10458.833
10458.567
10458.231
10457.804
10457.263
10456.578
10455.715
10454.631
10453.275
10451.587
10449.496
10446.922
10443.767
10439.924
10435.265
10429.649
10422.914
10414.881
10405.347
10394.09
10380.863
10365.393
10347.386
10326.523
10302.457
10274.815
10243.192
10207.148
10166.212
10119.874
10067.585
10008.752
9942.7273
9868.8232
9786.2751
9694.2885
9591.9505
9478.3826
9352.2396
10463.161
10463.161
10463.16
10463.16
10463.159
10463.157
10463.156
10463.153
10463.15
10463.146
10463.141
10463.134
10463.125
10463.115
10463.102
10463.085
10463.064
10463.038
10463.006
10462.965
10462.914
10462.85
10462.77
10462.668
10462.54
10462.378
10462.173
10461.912
10461.581
10461.16
10460.626
10459.95
10459.095
10458.021
10456.676
10455
10452.924
10450.367
10447.233
10443.414
10438.785
10433.204
10426.512
10418.529
10409.056
10397.871
10384.726
10369.353
10351.459
10330.725
10306.81
10279.34
10247.912
10212.09
10171.405
10125.352
10073.383
10014.908
9949.285
9875.8277
9793.7769
9702.3432
9600.6242
9487.7577
9362.329
10467.004
10467.004
10467.004
10467.004
10467.003
10467.001
10466.999
10466.997
10466.994
10466.99
10466.984
10466.978
10466.969
10466.959
10466.946
10466.93
10466.91
10466.884
10466.853
10466.813
10466.763
10466.701
10466.622
10466.523
10466.398
10466.24
10466.038
10465.782
10465.456
10465.042
10464.515
10463.847
10463.002
10461.937
10460.604
10458.943
10456.884
10454.346
10451.236
10447.445
10442.85
10437.31
10430.667
10422.743
10413.34
10402.236
10389.187
10373.927
10356.163
10335.58
10311.838
10284.567
10253.366
10217.802
10177.409
10131.684
10080.085
10022.025
9956.8649
9883.9246
9802.4503
9711.6585
9610.6595
9498.6082
9374.0116
10471.401
10471.401
10471.401
10471.4
10471.399
10471.397
10471.396
10471.393
10471.39
10471.386
10471.381
10471.374
10471.366
10471.356
10471.343
10471.327
10471.308
10471.283
10471.252
10471.213
10471.165
10471.104
10471.028
10470.931
10470.808
10470.653
10470.455
10470.203
10469.882
10469.473
10468.953
10468.293
10467.457
10466.403
10465.083
10463.437
10461.396
10458.881
10455.797
10452.038
10447.481
10441.987
10435.4
10427.542
10418.218
10407.208
10394.268
10379.136
10361.521
10341.111
10317.568
10290.524
10259.583
10224.314
10184.254
10138.905
10087.728
10030.142
9965.5115
9893.1621
9812.3475
9722.291
9622.1161
9510.9968
9387.3558
10476.375
10476.375
10476.375
10476.374
10476.373
10476.372
10476.37
10476.367
10476.364
10476.36
10476.355
10476.349
10476.341
10476.331
10476.318
10476.303
10476.284
10476.259
10476.229
10476.191
10476.144
10476.084
10476.009
10475.914
10475.794
10475.641
10475.446
10475.198
10474.881
10474.477
10473.963
10473.31
10472.483
10471.44
10470.133
10468.504
10466.483
10463.991
10460.937
10457.213
10452.699
10447.258
10440.733
10432.951
10423.715
10412.809
10399.993
10385.005
10367.559
10347.345
10324.027
10297.241
10266.594
10231.658
10191.976
10147.052
10096.353
10039.302
9975.2693
9903.5879
9823.5193
9734.2948
9635.0543
9524.9906
9402.4324
10481.949
10481.948
10481.948
10481.947
10481.946
10481.945
10481.943
10481.94
10481.937
10481.934
10481.929
10481.922
10481.914
10481.904
10481.892
10481.877
10481.858
10481.834
10481.804
10481.767
10481.721
10481.662
10481.588
10481.494
10481.376
10481.225
10481.032
10480.787
10480.474
10480.074
10479.566
10478.919
10478.101
10477.07
10475.777
10474.165
10472.165
10469.7
10466.677
10462.993
10458.527
10453.144
10446.689
10438.99
10429.853
10419.064
10406.386
10391.559
10374.302
10354.307
10331.243
10304.747
10274.43
10239.868
10200.608
10156.161
10105.996
10049.545
9986.1823
9915.2499
9836.0191
9747.7307
9649.5363
9540.6558
9419.3115
10488.14
10488.139
10488.139
10488.138
10488.137
10488.136
10488.134
10488.131
10488.128
10488.124
10488.12
10488.113
10488.105
10488.096
10488.084
10488.069
10488.05
10488.026
10487.997
10487.96
10487.914
10487.856
10487.783
10487.691
10487.573
10487.424
10487.233
10486.99
10486.68
10486.285
10485.781
10485.142
10484.332
10483.313
10482.035
10480.441
10478.465
10476.028
10473.04
10469.399
10464.986
10459.667
10453.289
10445.683
10436.656
10425.996
10413.471
10398.825
10381.778
10362.029
10339.246
10313.073
10283.122
10248.977
10210.187
10166.27
10116.7
10060.914
9998.2986
9928.2009
9849.9034
9762.6545
9665.6247
9558.0593
9438.0633
10494.966
10494.966
10494.965
10494.964
10494.963
10494.962
10494.96
10494.957
10494.954
10494.951
10494.946
10494.94
10494.932
10494.922
10494.91
10494.895
10494.877
10494.854
10494.825
10494.789
10494.743
10494.685
10494.613
10494.521
10494.404
10494.256
10494.067
10493.826
10493.519
10493.127
10492.629
10491.997
10491.197
10490.191
10488.928
10487.354
10485.403
10482.997
10480.048
10476.454
10472.099
10466.851
10460.558
10453.053
10444.147
10433.631
10421.276
10406.829
10390.016
10370.537
10348.066
10322.25
10292.705
10259.019
10220.75
10177.418
10128.505
10073.456
10011.666
9942.492
9865.2258
9779.1268
9683.3814
9577.2667
9458.7572
10502.446
10502.446
10502.446
10502.445
10502.444
10502.443
10502.441
10502.438
10502.435
10502.431
10502.427
10502.42
10502.413
10502.404
10502.392
10502.377
10502.359
10502.336
10502.307
10502.271
10502.226
10502.168
10502.096
10502.005
10501.89
10501.742
10501.555
10501.316
10501.012
10500.624
10500.131
10499.507
10498.718
10497.724
10496.479
10494.927
10493.002
10490.629
10487.722
10484.18
10479.889
10474.718
10468.519
10461.126
10452.353
10441.995
10429.827
10415.6
10399.044
10379.863
10357.735
10332.31
10303.211
10270.032
10232.333
10189.643
10141.453
10087.215
10026.333
9958.1747
9882.0425
9797.2047
9702.867
9598.3436
9481.4619
10510.605
10510.605
10510.605
10510.604
10510.603
10510.602
10510.6
10510.597
10510.594
10510.591
10510.586
10510.58
10510.572
10510.563
10510.551
10510.536
10510.518
10510.495
10510.467
10510.431
10510.386
10510.329
10510.257
10510.167
10510.052
10509.905
10509.719
10509.483
10509.181
10508.798
10508.311
10507.695
10506.916
10505.937
10504.709
10503.179
10501.284
10498.948
10496.086
10492.601
10488.38
10483.293
10477.196
10469.926
10461.299
10451.116
10439.153
10425.168
10408.893
10390.038
10368.284
10343.287
10314.676
10282.049
10244.974
10202.987
10155.589
10102.238
10042.349
9975.3012
9900.4068
9816.945
9724.1417
9621.3536
9506.2447
10519.468
10519.468
10519.467
10519.467
10519.466
10519.464
10519.463
10519.46
10519.457
10519.453
10519.449
10519.443
10519.435
10519.426
10519.414
10519.399
10519.381
10519.358
10519.33
10519.294
10519.249
10519.192
10519.121
10519.03
10518.915
10518.77
10518.585
10518.35
10518.052
10517.673
10517.192
10516.584
10515.817
10514.851
10513.643
10512.138
10510.274
10507.977
10505.165
10501.741
10497.595
10492.601
10486.615
10479.479
10471.013
10461.019
10449.281
10435.559
10419.591
10401.09
10379.744
10355.214
10327.134
10295.108
10258.712
10217.491
10170.952
10118.568
10059.763
9993.9214
9920.372
9838.4034
9747.2653
9646.36
9533.1719
10529.061
10529.06
10529.06
10529.059
10529.059
10529.057
10529.055
10529.053
10529.05
10529.046
10529.042
10529.035
10529.028
10529.018
10529.006
10528.992
10528.973
10528.95
10528.922
10528.885
10528.84
10528.783
10528.712
10528.621
10528.507
10528.362
10528.178
10527.945
10527.649
10527.275
10526.8
10526.2
10525.444
10524.494
10523.305
10521.826
10519.995
10517.741
10514.982
10511.625
10507.561
10502.666
10496.802
10489.811
10481.519
10471.733
10460.239
10446.803
10431.167
10413.052
10392.148
10368.124
10340.618
10309.244
10273.584
10233.193
10187.589
10136.254
10078.62
10014.086
9941.9889
9861.6346
9772.2952
9673.4241
9562.3078
10539.404
10539.404
10539.404
10539.403
10539.402
10539.401
10539.399
10539.397
10539.394
10539.39
10539.385
10539.379
10539.371
10539.362
10539.35
10539.335
10539.316
10539.293
10539.264
10539.227
10539.181
10539.124
10539.052
10538.962
10538.847
10538.703
10538.52
10538.289
10537.996
10537.626
10537.157
10536.566
10535.821
10534.887
10533.72
10532.268
10530.473
10528.264
10525.564
10522.278
10518.302
10513.515
10507.782
10500.949
10492.846
10483.284
10472.054
10458.927
10443.652
10425.952
10405.527
10382.048
10355.163
10324.492
10289.627
10250.134
10205.541
10155.338
10098.969
10035.841
9965.3089
9886.6919
9799.2888
9702.6067
9593.7161
10550.514
10550.514
10550.514
10550.513
10550.512
10550.511
10550.509
10550.506
10550.503
10550.5
10550.495
10550.489
10550.481
10550.471
10550.459
10550.444
10550.425
10550.401
10550.372
10550.335
10550.29
10550.232
10550.16
10550.069
10549.956
10549.812
10549.631
10549.402
10549.113
10548.747
10548.286
10547.704
10546.972
10546.055
10544.911
10543.489
10541.732
10539.573
10536.934
10533.725
10529.844
10525.173
10519.581
10512.918
10505.019
10495.699
10484.754
10471.961
10457.073
10439.821
10419.91
10397.018
10370.8
10340.885
10306.878
10268.354
10224.848
10175.863
10120.851
10059.234
9990.3806
9913.6279
9828.3011
9733.9663
9627.4566
10562.399
10562.399
10562.399
10562.398
10562.397
10562.396
10562.394
10562.392
10562.389
10562.385
10562.38
10562.374
10562.366
10562.357
10562.344
10562.329
10562.31
10562.287
10562.258
10562.221
10562.176
10562.119
10562.047
10561.958
10561.845
10561.703
10561.525
10561.3
10561.015
10560.656
10560.203
10559.633
10558.916
10558.019
10556.9
10555.511
10553.796
10551.69
10549.117
10545.991
10542.211
10537.665
10532.225
10525.745
10518.064
10509.004
10498.366
10485.931
10471.46
10454.687
10435.325
10413.062
10387.559
10358.457
10325.374
10287.89
10245.551
10197.87
10144.311
10084.311
10017.254
9942.4939
9859.386
9767.5595
9663.5871
10575.066
10575.066
10575.066
10575.065
10575.064
10575.063
10575.061
10575.059
10575.056
10575.053
10575.048
10575.042
10575.034
10575.025
10575.014
10574.999
10574.98
10574.958
10574.929
10574.894
10574.849
10574.794
10574.724
10574.637
10574.527
10574.389
10574.214
10573.994
10573.717
10573.367
10572.925
10572.369
10571.67
10570.796
10569.707
10568.355
10566.687
10564.639
10562.138
10559.1
10555.43
10551.017
10545.739
10539.455
10532.009
10523.228
10512.917
10500.865
10486.838
10470.576
10451.8
10430.207
10405.471
10377.243
10345.149
10308.777
10267.687
10221.398
10169.391
10111.116
10045.975
9973.3392
9892.595
9803.441
9702.1616
10588.525
10588.525
10588.525
10588.524
10588.524
10588.523
10588.521
10588.519
10588.516
10588.513
10588.508
10588.503
10588.496
10588.487
10588.476
10588.463
10588.445
10588.424
10588.397
10588.363
10588.321
10588.268
10588.201
10588.118
10588.012
10587.879
10587.711
10587.499
10587.23
10586.892
10586.464
10585.925
10585.249
10584.402
10583.346
10582.037
10580.421
10578.437
10576.015
10573.074
10569.521
10565.252
10560.148
10554.073
10546.878
10538.393
10528.432
10516.786
10503.228
10487.509
10469.358
10448.482
10424.566
10397.274
10366.235
10331.052
10291.29
10246.485
10196.13
10139.693
10076.59
10006.212
9927.9779
9841.6633
9743.2322
10602.793
10602.793
10602.793
10602.792
10602.792
10602.791
10602.789
10602.788
10602.785
10602.782
10602.778
10602.773
10602.767
10602.759
10602.749
10602.736
10602.721
10602.701
10602.676
10602.645
10602.606
10602.556
10602.494
10602.415
10602.315
10602.189
10602.029
10601.826
10601.569
10601.244
10600.833
10600.315
10599.664
10598.848
10597.831
10596.57
10595.012
10593.1
10590.765
10587.929
10584.504
10580.389
10575.471
10569.62
10562.691
10554.521
10544.927
10533.71
10520.651
10505.509
10488.023
10467.914
10444.875
10418.577
10388.662
10354.742
10316.394
10273.167
10224.569
10170.083
10109.144
10041.159
9965.5818
9882.2769
9786.8476
10617.893
10617.893
10617.892
10617.892
10617.892
10617.891
10617.889
10617.888
10617.886
10617.883
10617.88
10617.875
10617.87
10617.863
10617.854
10617.842
10617.828
10617.811
10617.788
10617.76
10617.724
10617.679
10617.621
10617.548
10617.454
10617.335
10617.184
10616.992
10616.747
10616.438
10616.045
10615.55
10614.927
10614.147
10613.174
10611.965
10610.472
10608.638
10606.398
10603.676
10600.389
10596.441
10591.722
10586.109
10579.462
10571.623
10562.418
10551.656
10539.125
10524.596
10507.821
10488.526
10466.419
10441.177
10412.456
10379.877
10343.031
10301.479
10254.745
10202.327
10143.679
10078.224
10005.452
9925.3305
9833.055
10633.849
10633.849
10633.849
10633.848
10633.848
10633.847
10633.846
10633.845
10633.843
10633.841
10633.838
10633.834
10633.829
10633.822
10633.814
10633.805
10633.792
10633.776
10633.755
10633.729
10633.697
10633.654
10633.601
10633.533
10633.446
10633.334
10633.192
10633.011
10632.779
10632.486
10632.113
10631.643
10631.051
10630.309
10629.383
10628.232
10626.81
10625.061
10622.923
10620.326
10617.188
10613.417
10608.91
10603.549
10597.199
10589.71
10580.917
10570.637
10558.667
10544.792
10528.77
10510.339
10489.218
10465.098
10437.642
10406.485
10371.232
10331.455
10286.693
10236.463
10180.236
10117.45
10047.632
9970.8698
9881.9031
10650.681
10650.681
10650.681
10650.681
10650.681
10650.68
10650.679
10650.678
10650.676
10650.674
10650.671
10650.668
10650.663
10650.657
10650.65
10650.641
10650.629
10650.614
10650.595
10650.571
10650.54
10650.501
10650.451
10650.387
10650.305
10650.2
10650.066
10649.894
10649.676
10649.399
10649.048
10648.604
10648.045
10647.344
10646.468
10645.38
10644.033
10642.375
10640.348
10637.882
10634.902
10631.321
10627.039
10621.944
10615.91
10608.793
10600.437
10590.667
10579.294
10566.109
10550.883
10533.368
10513.293
10490.359
10464.242
10434.591
10401.022
10363.124
10320.449
10272.53
10218.855
10158.879
10092.165
10018.938
9933.4422
10668.399
10668.399
10668.399
10668.398
10668.398
10668.397
10668.397
10668.395
10668.394
10668.392
10668.389
10668.385
10668.381
10668.375
10668.368
10668.359
10668.348
10668.333
10668.315
10668.292
10668.263
10668.225
10668.177
10668.117
10668.039
10667.94
10667.813
10667.652
10667.447
10667.187
10666.857
10666.441
10665.917
10665.259
10664.437
10663.413
10662.146
10660.585
10658.673
10656.348
10653.536
10650.154
10646.111
10641.3
10635.6
10628.879
10620.985
10611.756
10601.013
10588.558
10574.176
10557.628
10538.656
10516.976
10492.276
10464.217
10432.43
10396.517
10356.046
10310.563
10259.575
10202.552
10139.094
10069.579
9987.7265
10686.996
10686.996
10686.996
10686.996
10686.996
10686.995
10686.994
10686.993
10686.991
10686.989
10686.986
10686.983
10686.978
10686.973
10686.966
10686.957
10686.945
10686.931
10686.913
10686.891
10686.862
10686.826
10686.78
10686.722
10686.648
10686.555
10686.436
10686.284
10686.093
10685.85
10685.544
10685.156
10684.669
10684.057
10683.29
10682.335
10681.151
10679.69
10677.901
10675.723
10673.088
10669.92
10666.13
10661.619
10656.274
10649.97
10642.565
10633.908
10623.831
10612.148
10598.655
10583.128
10565.322
10544.965
10521.76
10495.382
10465.476
10431.66
10393.514
10350.599
10302.437
10248.512
10188.467
10122.85
10044.811
10706.463
10706.463
10706.462
10706.462
10706.462
10706.461
10706.46
10706.459
10706.457
10706.455
10706.452
10706.449
10706.444
10706.439
10706.432
10706.423
10706.412
10706.398
10706.381
10706.359
10706.331
10706.297
10706.253
10706.198
10706.129
10706.041
10705.93
10705.79
10705.613
10705.389
10705.106
10704.75
10704.301
10703.736
10703.028
10702.144
10701.047
10699.692
10698.03
10696.007
10693.559
10690.615
10687.093
10682.9
10677.93
10672.065
10665.178
10657.126
10647.75
10636.88
10624.325
10609.875
10593.296
10574.334
10552.706
10528.102
10500.182
10468.577
10432.883
10392.673
10347.482
10296.806
10240.337
10178.818
10104.761
10726.784
10726.784
10726.784
10726.784
10726.783
10726.782
10726.782
10726.78
10726.779
10726.777
10726.774
10726.771
10726.767
10726.761
10726.754
10726.746
10726.736
10726.722
10726.706
10726.686
10726.66
10726.628
10726.587
10726.537
10726.473
10726.392
10726.29
10726.163
10726.002
10725.798
10725.542
10725.218
10724.809
10724.293
10723.646
10722.836
10721.829
10720.584
10719.057
10717.196
10714.945
10712.237
10708.997
10705.139
10700.563
10695.164
10688.821
10681.403
10672.767
10662.754
10651.186
10637.869
10622.583
10605.09
10585.123
10562.389
10536.562
10507.29
10474.181
10436.821
10394.755
10347.485
10294.743
10237.492
10167.731
10747.949
10747.949
10747.948
10747.948
10747.948
10747.947
10747.946
10747.945
10747.944
10747.942
10747.939
10747.937
10747.933
10747.928
10747.922
10747.915
10747.905
10747.894
10747.879
10747.861
10747.838
10747.809
10747.773
10747.728
10747.671
10747.599
10747.509
10747.396
10747.252
10747.071
10746.842
10746.553
10746.185
10745.722
10745.137
10744.403
10743.49
10742.36
10740.973
10739.283
10737.238
10734.778
10731.835
10728.327
10724.167
10719.256
10713.485
10706.735
10698.876
10689.763
10679.233
10667.106
10653.181
10637.232
10619.014
10598.248
10574.628
10547.816
10517.434
10483.081
10444.309
10400.605
10351.708
10299.023
10233.765
10769.949
10769.949
10769.949
10769.948
10769.948
10769.948
10769.947
10769.946
10769.945
10769.944
10769.941
10769.939
10769.936
10769.932
10769.927
10769.921
10769.913
10769.904
10769.892
10769.876
10769.857
10769.833
10769.803
10769.764
10769.716
10769.654
10769.577
10769.479
10769.355
10769.198
10768.998
10768.743
10768.419
10768.007
10767.486
10766.832
10766.015
10765.005
10763.765
10762.254
10760.426
10758.227
10755.593
10752.452
10748.726
10744.326
10739.155
10733.107
10726.064
10717.895
10708.455
10697.578
10685.08
10670.755
10654.374
10635.681
10614.386
10590.169
10562.666
10531.488
10496.187
10456.2
10411.333
10363.478
10302.934
10792.777
10792.777
10792.776
10792.776
10792.776
10792.776
10792.775
10792.775
10792.774
10792.773
10792.771
10792.769
10792.767
10792.764
10792.761
10792.756
10792.75
10792.743
10792.734
10792.722
10792.708
10792.689
10792.665
10792.635
10792.596
10792.546
10792.482
10792.401
10792.297
10792.163
10791.992
10791.773
10791.491
10791.132
10790.677
10790.104
10789.388
10788.503
10787.417
10786.093
10784.491
10782.563
10780.251
10777.495
10774.223
10770.357
10765.814
10760.5
10754.312
10747.134
10738.835
10729.268
10718.267
10705.645
10691.195
10674.681
10655.836
10634.358
10609.899
10582.075
10550.431
10514.402
10473.683
10430.928
10375.453
10816.425
10816.424
10816.424
10816.424
10816.424
10816.424
10816.423
10816.423
10816.423
10816.422
10816.421
10816.42
10816.419
10816.417
10816.415
10816.412
10816.408
10816.403
10816.397
10816.39
10816.379
10816.366
10816.348
10816.326
10816.296
10816.257
10816.207
10816.141
10816.055
10815.945
10815.802
10815.617
10815.379
10815.073
10814.685
10814.197
10813.586
10812.831
10811.905
10810.776
10809.41
10807.762
10805.787
10803.43
10800.631
10797.323
10793.436
10788.89
10783.597
10777.454
10770.349
10762.152
10752.718
10741.881
10729.457
10715.235
10698.971
10680.384
10659.142
10634.867
10607.133
10575.286
10538.909
10501.495
10451.548
10840.876
10840.876
10840.876
10840.876
10840.876
10840.876
10840.875
10840.875
10840.875
10840.874
10840.874
10840.874
10840.873
10840.872
10840.871
10840.87
10840.868
10840.865
10840.862
10840.857
10840.851
10840.842
10840.83
10840.814
10840.792
10840.763
10840.724
10840.673
10840.605
10840.516
10840.4
10840.249
10840.053
10839.803
10839.484
10839.082
10838.581
10837.961
10837.2
10836.273
10835.149
10833.793
10832.167
10830.225
10827.917
10825.192
10821.99
10818.246
10813.885
10808.824
10802.965
10796.199
10788.402
10779.435
10769.135
10757.318
10743.77
10728.229
10710.397
10689.913
10666.343
10638.996
10607.283
10575.429
10531.395
10866.106
10866.106
10866.106
10866.105
10866.106
10866.105
10866.105
10866.105
10866.105
10866.105
10866.105
10866.105
10866.104
10866.104
10866.103
10866.103
10866.102
10866.101
10866.099
10866.096
10866.092
10866.087
10866.079
10866.067
10866.051
10866.03
10866
10865.96
10865.908
10865.838
10865.748
10865.63
10865.477
10865.282
10865.034
10864.721
10864.332
10863.851
10863.262
10862.542
10861.669
10860.616
10859.35
10857.838
10856.042
10853.923
10851.435
10848.525
10845.137
10841.201
10836.64
10831.367
10825.279
10818.263
10810.186
10800.888
10790.192
10777.873
10763.662
10747.221
10728.14
10705.702
10679.196
10653.119
10614.991
10892.068
10892.068
10892.068
10892.067
10892.067
10892.067
10892.067
10892.067
10892.067
10892.066
10892.066
10892.066
10892.066
10892.066
10892.065
10892.065
10892.064
10892.063
10892.062
10892.06
10892.058
10892.053
10892.047
10892.039
10892.027
10892.011
10891.988
10891.959
10891.92
10891.869
10891.804
10891.719
10891.61
10891.471
10891.294
10891.074
10890.8
10890.462
10890.047
10889.541
10888.926
10888.184
10887.292
10886.226
10884.962
10883.473
10881.726
10879.684
10877.304
10874.537
10871.325
10867.601
10863.292
10858.312
10852.556
10845.901
10838.2
10829.273
10818.904
10806.805
10792.602
10775.596
10755.067
10734.658
10702.888
10918.708
10918.708
10918.708
10918.707
10918.707
10918.707
10918.707
10918.706
10918.706
10918.705
10918.705
10918.705
10918.704
10918.704
10918.703
10918.702
10918.701
10918.7
10918.698
10918.696
10918.693
10918.69
10918.684
10918.677
10918.667
10918.655
10918.638
10918.617
10918.591
10918.558
10918.517
10918.465
10918.401
10918.319
10918.216
10918.088
10917.931
10917.738
10917.503
10917.216
10916.868
10916.446
10915.939
10915.336
10914.623
10913.786
10912.808
10911.664
10910.33
10908.775
10906.962
10904.85
10902.393
10899.532
10896.199
10892.303
10887.746
10882.389
10876.075
10868.603
10859.678
10848.75
10835.21
10821.338
10797.441
10947.16
10947.16
10947.16
10947.159
10947.159
10947.159
10947.158
10947.157
10947.157
10947.156
10947.155
10947.154
10947.153
10947.152
10947.15
10947.149
10947.147
10947.144
10947.142
10947.138
10947.134
10947.129
10947.123
10947.116
10947.107
10947.096
10947.085
10947.071
10947.057
10947.041
10947.024
10947.006
10946.986
10946.964
10946.941
10946.914
10946.885
10946.851
10946.812
10946.764
10946.707
10946.636
10946.552
10946.455
10946.343
10946.217
10946.073
10945.904
10945.703
10945.461
10945.166
10944.804
10944.357
10943.803
10943.107
10942.224
10941.096
10939.652
10937.795
10935.42
10932.365
10928.322
10923.303
10918.712
10909.937
10977.093
10977.093
10977.092
10977.092
10977.091
10977.091
10977.09
10977.089
10977.088
10977.087
10977.086
10977.085
10977.083
10977.081
10977.079
10977.076
10977.073
10977.07
10977.066
10977.061
10977.056
10977.05
10977.043
10977.035
10977.028
10977.02
10977.013
10977.009
10977.008
10977.011
10977.022
10977.04
10977.07
10977.114
10977.174
10977.256
10977.365
10977.503
10977.673
10977.881
10978.133
10978.437
10978.804
10979.247
10979.778
10980.409
10981.154
10982.024
10983.031
10984.189
10985.514
10987.021
10988.724
10990.634
10992.76
10995.103
10997.658
11000.418
11003.365
11006.494
11009.793
11013.223
11017.11
11022.124
11025.902
11006.967
11006.967
11006.966
11006.966
11006.965
11006.964
11006.964
11006.963
11006.962
11006.961
11006.959
11006.958
11006.957
11006.955
11006.952
11006.95
11006.947
11006.944
11006.94
11006.936
11006.931
11006.926
11006.921
11006.916
11006.912
11006.91
11006.912
11006.918
11006.932
11006.957
11006.996
11007.052
11007.13
11007.236
11007.377
11007.563
11007.801
11008.102
11008.476
11008.935
11009.495
11010.174
11010.993
11011.976
11013.149
11014.539
11016.174
11018.083
11020.302
11022.868
11025.822
11029.211
11033.08
11037.477
11042.449
11048.05
11054.328
11061.343
11069.157
11077.859
11087.553
11098.395
11110.763
11125.061
11141.033
11036.655
11036.654
11036.654
11036.653
11036.653
11036.652
11036.651
11036.651
11036.65
11036.649
11036.648
11036.647
11036.645
11036.644
11036.642
11036.641
11036.638
11036.636
11036.634
11036.631
11036.629
11036.626
11036.624
11036.624
11036.625
11036.63
11036.641
11036.66
11036.689
11036.734
11036.8
11036.891
11037.016
11037.185
11037.407
11037.693
11038.06
11038.522
11039.097
11039.805
11040.669
11041.72
11042.987
11044.508
11046.32
11048.464
11050.984
11053.93
11057.357
11061.329
11065.912
11071.183
11077.22
11084.106
11091.93
11100.794
11110.804
11122.082
11134.768
11149.036
11165.089
11183.218
11203.864
11227.549
11255.016
11066.015
11066.015
11066.014
11066.014
11066.013
11066.013
11066.012
11066.011
11066.011
11066.01
11066.01
11066.009
11066.008
11066.008
11066.007
11066.007
11066.006
11066.006
11066.006
11066.006
11066.007
11066.008
11066.011
11066.017
11066.025
11066.039
11066.061
11066.093
11066.14
11066.208
11066.303
11066.432
11066.607
11066.838
11067.139
11067.528
11068.023
11068.645
11069.418
11070.373
11071.54
11072.958
11074.671
11076.724
11079.169
11082.059
11085.457
11089.432
11094.06
11099.429
11105.633
11112.775
11120.968
11130.33
11140.995
11153.108
11166.832
11182.35
11199.873
11219.659
11242.008
11267.322
11296.142
11329.16
11367.396
11094.935
11094.935
11094.934
11094.934
11094.934
11094.933
11094.933
11094.933
11094.932
11094.932
11094.932
11094.932
11094.933
11094.933
11094.934
11094.934
11094.936
11094.938
11094.94
11094.944
11094.948
11094.955
11094.963
11094.975
11094.992
11095.016
11095.05
11095.098
11095.165
11095.258
11095.385
11095.555
11095.781
11096.076
11096.458
11096.948
11097.57