/*--------------------------------*- C++ -*----------------------------------*\
  =========                 |
  \\      /  F ield         | OpenFOAM: The Open Source CFD Toolbox
   \\    /   O peration     | Website:  https://openfoam.org
    \\  /    A nd           | Version:  13
     \\/     M anipulation  |
\*---------------------------------------------------------------------------*/
FoamFile
{
    format      ascii;
    class       volVectorField;
    location    "38.998849";
    object      wallShearStress;
}
// * * * * * * * * * * * * * * * * * * * * * * * * * * * * * * * * * * * * * //

dimensions      [0 2 -2 0 0 0 0];

internalField   uniform (0 0 0);

boundaryField
{
    inlet
    {
        type            calculated;
        value           uniform (0 0 0);
    }
    outlet
    {
        type            calculated;
        value           uniform (0 0 0);
    }
    cylinder
    {
        type            calculated;
        value           nonuniform List<vector> 
132
(
(2.877165e-05 -0.001847516 -2.8273189e-22)
(9.0405816e-05 -0.0021256711 8.0468742e-23)
(0.00016806311 -0.002390433 4.4382056e-21)
(0.00026034549 -0.0026367141 -1.4870857e-20)
(0.00036569301 -0.0028597146 1.0478292e-20)
(0.00048198628 -0.0030547058 3.1952352e-20)
(0.00060659338 -0.0032174337 -6.0407654e-21)
(0.00073635922 -0.0033441695 -2.3876419e-20)
(0.00086783114 -0.0034320424 2.2451181e-20)
(0.00099729386 -0.0034790291 -5.021836e-20)
(0.0011209636 -0.0034844311 -9.1172823e-22)
(0.0012350951 -0.0034485946 3.1055084e-20)
(0.0013364135 -0.0033736437 5.0538456e-20)
(0.0014220524 -0.0032626503 -4.0969395e-20)
(0.001490216 -0.0031206563 4.3060896e-20)
(0.0015400561 -0.0029536602 6.9194242e-20)
(0.0015721136 -0.0027689163 -4.5275694e-20)
(0.0015887475 -0.0025750513 7.253607e-20)
(0.0015938901 -0.0023809494 9.5804193e-20)
(0.0015937585 -0.0021963422 -6.2090402e-20)
(0.0015966716 -0.0020308684 -7.9082957e-20)
(0.0016135515 -0.0018941898 2.7832344e-23)
(0.0016578495 -0.001795278 1.1462726e-20)
(0.0017451484 -0.0017415087 -1.3722747e-20)
(0.0018915044 -0.001736828 -2.3347944e-20)
(0.0021106899 -0.0017797278 4.9950648e-21)
(0.0024094918 -0.0018607883 -4.5122605e-20)
(0.0027790322 -0.0019589946 1.2063876e-20)
(0.0031978271 -0.0020485672 9.4803854e-21)
(0.0036316095 -0.0021022936 -6.5348063e-20)
(0.0040357976 -0.0020958556 8.5347282e-20)
(0.0043752235 -0.0020192892 2.5854369e-21)
(0.0046131906 -0.0018694789 1.8656956e-20)
(0.0046761807 -0.0016378171 -2.2136401e-20)
(0.0044532694 -0.0013197617 7.0441267e-20)
(0.0037861472 -0.00092227257 -4.4621598e-21)
(0.0024926309 -0.00048096689 1.8025784e-20)
(0.00034565768 -6.4183905e-05 -2.4777363e-21)
(-0.0028391341 0.00020620162 3.555594e-21)
(-0.0072201417 0.00015930561 -2.2159647e-21)
(-0.013172171 -0.00043782238 4.1288642e-21)
(-0.020570868 -0.0019105894 -1.2686921e-22)
(-0.028751745 -0.0044220039 4.6300595e-20)
(-0.037247997 -0.0080444322 -1.7751735e-20)
(-0.045472204 -0.012726313 1.5942632e-20)
(-0.052974526 -0.018331428 -1.0200851e-19)
(-0.059298813 -0.02461202 -1.6401666e-20)
(-0.064186528 -0.031296872 1.4378174e-19)
(-0.067454524 -0.038082126 -1.2262299e-19)
(-0.06905698 -0.044678583 -2.3462947e-21)
(-0.06900368 -0.050795163 3.7615376e-20)
(-0.06743214 -0.056209617 -3.4624339e-20)
(-0.064443326 -0.060664431 -6.9289655e-21)
(-0.060264135 -0.064010266 -4.6148994e-21)
(-0.055138846 -0.066140107 -8.325288e-21)
(-0.049249907 -0.066897543 -9.8600359e-22)
(-0.04287962 -0.066270785 5.1146155e-22)
(-0.036262325 -0.064227262 4.5087249e-20)
(-0.029645073 -0.060797142 -7.1106956e-20)
(-0.023259688 -0.056040693 -7.7138473e-20)
(-0.017322655 -0.050053571 -3.1626722e-20)
(-0.012029903 -0.042963348 -7.2990204e-20)
(-0.0075524556 -0.0349262 1.6362135e-20)
(-0.004029882 -0.026120826 2.3891261e-20)
(-0.0015769117 -0.016766171 -3.7231277e-20)
(-0.000253312 -0.0070223828 -4.9841042e-21)
(-1.74026e-05 -0.0015581341 -1.3006524e-21)
(-4.7735992e-05 -0.001256913 -7.7445034e-23)
(-6.1393552e-05 -0.00094540733 -4.4421687e-21)
(-5.7381476e-05 -0.00062710072 1.487717e-20)
(-3.5390493e-05 -0.00030879475 -1.048604e-20)
(4.5923482e-06 5.3331768e-06 -3.1990722e-20)
(6.1551111e-05 0.00030978326 6.0519406e-21)
(0.00013476023 0.00059879608 2.3940565e-20)
(0.00022198264 0.00086710429 -2.2535316e-20)
(0.00032071271 0.0011098043 5.0471674e-20)
(0.00042792544 0.0013226929 9.176985e-22)
(0.00054031976 0.0015024506 -3.1314988e-20)
(0.0006544261 0.0016468261 -5.106267e-20)
(0.00076682896 0.0017549525 4.1484444e-20)
(0.00087439392 0.0018273171 -4.370409e-20)
(0.0009747074 0.001866164 -7.0398969e-20)
(0.0010661765 0.0018750435 4.6179319e-20)
(0.0011487484 0.0018594772 -7.4168654e-20)
(0.0012237521 0.0018259245 -9.8200983e-20)
(0.0012947992 0.0017824973 6.3792682e-20)
(0.0013678527 0.0017382193 8.1429314e-20)
(0.0014509486 0.0017019499 7.3027607e-20)
(0.0015549831 0.0016828106 6.0071978e-20)
(0.0016913429 0.0016870708 1.4205135e-20)
(0.0018720162 0.0017185571 2.4199782e-20)
(0.0021045459 0.0017745391 -5.1827066e-21)
(0.0023925392 0.0018479675 4.685348e-20)
(0.0027287411 0.0019239869 -1.2533052e-20)
(0.0030942693 0.0019827145 -9.851719e-21)
(0.0034667351 0.0020072583 6.7911272e-20)
(0.0038141518 0.0019810642 -8.8690837e-20)
(0.0041010977 0.0018931013 -2.6709865e-21)
(0.0042767857 0.0017336712 4.4108934e-20)
(0.0042508288 0.001489729 2.3004727e-20)
(0.0039006549 0.0011575107 -7.3199145e-20)
(0.0030601805 0.00074816286 4.6354363e-21)
(0.0015474209 0.00030466519 1.3646725e-20)
(-0.0008580627 -9.5861326e-05 2.5688282e-21)
(-0.0043530139 -0.00032846606 -3.6781013e-21)
(-0.0090143877 -0.00020792203 2.2853575e-21)
(-0.015222179 0.00050122631 -4.2395713e-21)
(-0.022807814 0.0021146564 3.4150662e-20)
(-0.03103204 0.0047691824 -4.6935317e-20)
(-0.039449623 0.0085166197 1.7858895e-20)
(-0.047485737 0.01328721 -1.5907407e-20)
(-0.054681517 0.018919546 1.0088096e-19)
(-0.0606374 0.025164104 1.6069391e-20)
(-0.065127001 0.031752008 -1.3941493e-19)
(-0.067979162 0.038375012 1.1751635e-19)
(-0.069193349 0.04476356 2.217231e-21)
(-0.068760512 0.050612934 -3.4898331e-20)
(-0.066882842 0.055748551 3.132128e-20)
(-0.063595417 0.059862551 -4.8334344e-20)
(-0.05917607 0.06285112 3.656996e-21)
(-0.053903867 0.064654851 -6.3747967e-21)
(-0.04788698 0.06504175 4.2879837e-21)
(-0.04145608 0.064065573 -6.865369e-22)
(-0.03482747 0.061679704 -5.2905827e-20)
(-0.028249006 0.057926409 7.9051267e-20)
(-0.021948843 0.052872534 8.3215181e-20)
(-0.01613832 0.046617995 3.3449401e-20)
(-0.011008893 0.039297296 7.6086945e-20)
(-0.0067251382 0.031068638 -1.6862312e-20)
(-0.0034206514 0.022117516 4.8362128e-20)
(-0.001202774 0.012649379 3.76765e-20)
(-0.00013138854 0.0028872063 5.0066737e-21)
)
;
    }
    frontAndBack
    {
        type            empty;
    }
}


// ************************************************************************* //
