/*--------------------------------*- C++ -*----------------------------------*\
  =========                 |
  \\      /  F ield         | OpenFOAM: The Open Source CFD Toolbox
   \\    /   O peration     | Website:  https://openfoam.org
    \\  /    A nd           | Version:  13
     \\/     M anipulation  |
\*---------------------------------------------------------------------------*/
FoamFile
{
    format      ascii;
    class       volSymmTensorField;
    location    "28.9991";
    object      UPrime2Mean;
}
// * * * * * * * * * * * * * * * * * * * * * * * * * * * * * * * * * * * * * //

dimensions      [0 2 -2 0 0 0 0];

internalField   nonuniform List<symmTensor> 
17140
(
(5.4919159e-12 -3.5614668e-10 -1.3420765e-27 2.4719826e-08 2.3104078e-26 7.3871769e-41)
(3.5840112e-10 -4.6405991e-09 -6.3384493e-28 2.3599752e-07 5.2374821e-27 6.5632897e-43)
(3.1538053e-09 -1.7701228e-08 1.048125e-25 7.1799059e-07 -5.5856965e-25 2.8612306e-39)
(1.4872691e-08 -4.6703744e-08 -2.2573002e-25 1.5490171e-06 8.6704481e-25 3.4579563e-39)
(4.9953662e-08 -1.0174386e-07 4.5482082e-26 2.8236517e-06 -1.3402405e-25 4.7258557e-41)
(1.3740862e-07 -1.9713187e-07 -2.3728008e-25 4.6548991e-06 5.5767289e-25 5.0620123e-40)
(3.3133346e-07 -3.5252866e-07 -6.0529222e-25 7.1762901e-06 1.1610919e-24 1.4347753e-39)
(7.2739842e-07 -5.9420626e-07 4.3177039e-25 1.0543685e-05 -6.8652015e-25 3.41974e-40)
(1.4883086e-06 -9.5633904e-07 2.0107226e-24 1.493644e-05 -2.6785889e-24 3.6638222e-39)
(2.8821738e-06 -1.4820905e-06 6.8695994e-24 2.055755e-05 -7.7316058e-24 2.2042034e-38)
(5.3390248e-06 -2.2241347e-06 -1.3950524e-23 2.7632205e-05 1.3351423e-23 4.8468458e-38)
(9.5321762e-06 -3.2440784e-06 1.6795781e-23 3.6404115e-05 -1.3736716e-23 3.849463e-38)
(1.6492563e-05 -4.6100476e-06 3.4346955e-24 4.7128781e-05 -2.4096966e-24 9.0184666e-40)
(2.7765145e-05 -6.3914639e-06 -2.5676715e-23 6.0062896e-05 1.5513508e-23 2.8847533e-38)
(4.5616491e-05 -8.6499176e-06 3.7389912e-24 7.5449004e-05 -1.9494235e-24 3.5561073e-40)
(7.3300902e-05 -1.1425059e-05 -3.8536624e-23 9.349476e-05 1.7379332e-23 2.2312918e-38)
(0.00011538777 -1.4714885e-05 1.8500581e-24 0.00011434651 -7.2346185e-25 3.0903319e-41)
(0.00017814495 -1.8450833e-05 -5.3690056e-25 0.00013805756 1.8100043e-25 1.5472726e-42)
(0.00026996073 -2.246993e-05 -4.8158107e-23 0.00016455252 1.4161174e-23 7.782686e-39)
(0.0004017738 -2.6489021e-05 7.8961318e-23 0.00019359031 -2.0173103e-23 1.3049005e-38)
(0.00058746955 -3.0089239e-05 -4.774572e-23 0.00022473018 1.0596908e-23 3.0133388e-39)
(0.00084420052 -3.2721377e-05 1.1311487e-23 0.00025730704 -2.1864436e-24 1.0906923e-40)
(0.0011926076 -3.3741913e-05 1.0291068e-22 0.00029042503 -1.7263827e-23 5.87076e-39)
(0.0016569938 -3.2484081e-05 -1.2531033e-22 0.0003229823 1.8269637e-23 5.7743598e-39)
(0.0022656928 -2.8356245e-05 -2.4107584e-22 0.00035374493 3.0539637e-23 1.4455859e-38)
(0.0030513768 -2.0925848e-05 2.3162721e-22 0.0003814914 -2.5507602e-23 9.2150421e-39)
(0.0040511891 -9.8769908e-06 1.3486416e-21 0.00040523545 -1.2895354e-22 2.1942802e-37)
(0.0053100822 4.9114709e-06 1.8686508e-22 0.00042447017 -1.5492645e-23 3.0085455e-39)
(0.0068823825 2.3412804e-05 -1.9057068e-21 0.00043931401 1.3742264e-22 2.2944107e-37)
(0.0088322415 4.6246969e-05 -5.1553203e-22 0.00045047053 3.2254682e-23 1.2442704e-38)
(0.011237382 7.3838899e-05 -2.1114071e-21 0.00045892851 1.1470502e-22 1.5763233e-37)
(0.014189821 0.0001061419 3.1707497e-21 0.00046546027 -1.4947474e-22 2.7244612e-37)
(0.017798472 0.00014374661 -9.392124e-22 0.00047048159 3.8283691e-23 1.8495664e-38)
(0.02218932 0.00018748947 -5.0655952e-22 0.00047409822 1.7852704e-23 4.2323958e-39)
(0.027505688 0.00023857933 -5.611971e-21 0.00047618522 1.6949452e-22 4.1073396e-37)
(0.033907102 0.00029856486 2.7559044e-21 0.00047648388 -7.122271e-23 7.9577296e-38)
(0.041566081 0.00036936329 -4.6367186e-21 0.00047470836 1.0143061e-22 1.8194888e-37)
(0.050661349 0.00045331799 -3.4832896e-21 0.00047062847 6.3959947e-23 8.3933696e-38)
(0.061365576 0.00055322598 -1.7617302e-21 0.00046418353 2.6788432e-23 1.7713344e-38)
(0.073825386 0.00067248585 5.8515039e-21 0.00045568269 -7.2774991e-23 1.6357308e-37)
(0.088132226 0.00081493829 1.2048699e-20 0.00044604111 -1.1946749e-22 5.845643e-37)
(0.10428489 0.0009845741 1.1846247e-20 0.00043682785 -9.0842742e-23 4.8184142e-37)
(0.12214724 0.0011842795 5.5639531e-21 0.00042993404 -3.1509039e-23 9.1711291e-38)
(0.14141607 0.001414467 -2.8995868e-20 0.00042699002 1.1095371e-22 2.1636333e-36)
(0.16161375 0.0016710917 -2.2513687e-20 0.00042898229 4.9134762e-23 1.1493137e-36)
(0.1820956 0.0019427635 5.8272732e-21 0.00043625166 -4.0260302e-24 6.8789198e-38)
(0.20217379 0.0022153135 -4.1426412e-20 0.00044907648 -2.8560985e-23 3.1434092e-36)
(0.22123267 0.002479449 -1.4597935e-20 0.00046858443 -2.8805122e-23 3.5779772e-37)
(0.23861476 0.0027284735 1.5306325e-20 0.00049723384 4.8675121e-23 3.6593863e-37)
(0.25406569 0.002957903 3.825672e-20 0.00053745374 1.6485414e-22 2.157736e-36)
(0.267328 0.0031676065 -2.3857982e-20 0.00059242157 -1.2781825e-22 8.0447911e-37)
(0.27821264 0.0033671076 -1.5132303e-20 0.00066722483 -9.5805086e-23 3.1504425e-37)
(0.28645266 0.0035775909 3.9329478e-20 0.00076802433 2.8697275e-22 2.1045232e-36)
(0.29201685 0.0038042753 1.8373694e-20 0.00090020339 1.5156419e-22 4.6179893e-37)
(0.29489523 0.0040136401 1.2826711e-20 0.0010684054 1.1798873e-22 2.3053499e-37)
(0.29548057 0.004150593 -9.8082594e-21 0.0012771219 -9.9945429e-23 1.3997143e-37)
(0.29432994 0.0041590305 2.5402593e-20 0.0015223933 2.8435498e-22 1.0028456e-36)
(0.29155804 0.003988629 2.0223454e-20 0.0017912353 2.502673e-22 6.8956494e-37)
(0.28711754 0.0036291502 4.7673697e-21 0.0020606335 6.575687e-23 4.2717198e-38)
(0.28028769 0.0031417265 -1.1478225e-20 0.0023325052 -1.7933285e-22 2.8077484e-37)
(0.27009004 0.0027403536 -8.2313606e-21 0.0026838312 -1.4853605e-22 1.7059753e-37)
(0.25614558 0.0026455799 -2.7584674e-20 0.0032959039 -5.7758459e-22 2.3214683e-36)
(0.23631733 0.0027320597 -3.5904014e-21 0.0042825616 -8.5246874e-23 4.9748438e-38)
(0.21420827 0.0027323338 2.6543293e-20 0.0052981567 6.5096573e-22 3.5134306e-36)
(0.18298684 0.0022803226 -1.7379119e-20 0.0056077296 -4.0874016e-22 2.0997557e-36)
(2.2610151e-10 -5.3056178e-09 1.6798151e-27 1.2455555e-07 -3.3332109e-26 5.9823854e-42)
(3.5507485e-09 -6.4236345e-08 -5.6918953e-25 1.1792914e-06 8.9663934e-24 7.8754195e-38)
(1.5899068e-08 -2.3392867e-07 9.7867083e-25 3.5613946e-06 -1.2648725e-23 6.2364807e-38)
(4.9596871e-08 -5.9808683e-07 -4.4540934e-25 7.6212688e-06 4.802693e-24 4.6349524e-39)
(1.2728491e-07 -1.274864e-06 -1.4238472e-24 1.3766889e-05 1.3013385e-23 1.9779287e-38)
(2.8959682e-07 -2.4334932e-06 4.0167689e-24 2.2464566e-05 -3.1486174e-23 7.2217079e-38)
(6.0657721e-07 -4.3101978e-06 -5.9851582e-24 3.4236461e-05 4.0536531e-23 7.8473094e-38)
(1.1951286e-06 -7.2273852e-06 7.3530767e-25 4.9652881e-05 -4.3242277e-24 6.0781611e-40)
(2.2454901e-06 -1.1616805e-05 -3.1466258e-24 6.9317256e-05 1.6125276e-23 5.9242228e-39)
(4.0604595e-06 -1.8045334e-05 -7.2178877e-26 9.3841583e-05 3.2316026e-25 1.6924418e-42)
(7.1123723e-06 -2.7241775e-05 -1.8950209e-23 0.00012381019 7.4314986e-23 6.6026294e-38)
(1.2124187e-05 -4.0121745e-05 3.980996e-23 0.0001597298 -1.3696876e-22 1.6666734e-37)
(2.0182342e-05 -5.7805989e-05 4.3119391e-24 0.00020196528 -1.3034697e-23 1.1365181e-39)
(3.2889927e-05 -8.1625298e-05 -5.5399864e-23 0.00025066208 1.4731647e-22 1.106323e-37)
(5.2568664e-05 -0.0001131031 2.1998984e-23 0.00030565993 -5.1504998e-23 1.0421522e-38)
(8.2516574e-05 -0.00015390543 1.7956021e-23 0.0003664066 -3.7035835e-23 4.1935761e-39)
(0.00012732379 -0.0002057483 -1.4555634e-22 0.00043188601 2.6457211e-22 1.6820298e-37)
(0.00019324163 -0.0002702563 6.0209835e-22 0.0005005806 -9.6461105e-22 1.7770014e-36)
(0.00028858896 -0.0003487757 -4.7572282e-22 0.00057049118 6.7167888e-22 6.924209e-37)
(0.00042416744 -0.0004421612 7.1459212e-22 0.00063923556 -8.888887e-22 9.862797e-37)
(0.00061364748 -0.00055057813 -1.3139759e-21 0.00070423789 1.4393688e-21 2.132626e-36)
(0.00087388666 -0.0006733852 3.9792192e-22 0.00076299927 -3.8365511e-22 1.2682104e-37)
(0.0012251593 -0.00080917619 2.0083375e-22 0.00081341224 -1.7032661e-22 2.1276274e-38)
(0.0016913452 -0.00095605245 -7.9798179e-22 0.00085405375 5.9483361e-22 2.244439e-37)
(0.0023003104 -0.0011121644 3.454336e-21 0.00088438509 -2.2624262e-21 2.8653157e-36)
(0.003084297 -0.0012763241 6.1575158e-22 0.0009048188 -3.5405101e-22 6.2958913e-38)
(0.0040799178 -0.0014483175 -3.7678503e-21 0.0009166128 1.9032851e-21 1.6714514e-36)
(0.0053315131 -0.0016293215 4.9552449e-21 0.00092145404 -2.1980242e-21 2.0802222e-36)
(0.0068928058 -0.0018216078 -7.9059593e-22 0.00092133865 3.0828538e-22 3.9048443e-38)
(0.0088270443 -0.002027068 -8.9646479e-21 0.0009186644 3.0682154e-21 3.7194951e-36)
(0.011210887 -0.0022478714 1.0654511e-21 0.00091533942 -3.2038258e-22 3.9909389e-38)
(0.014134973 -0.0024861955 9.340039e-21 0.0009121903 -2.4627601e-21 2.3416822e-36)
(0.017706475 -0.0027428796 2.7120068e-22 0.00090915665 -6.2362644e-23 1.4868867e-39)
(0.022049175 -0.0030175059 -8.9494182e-21 0.00090559822 1.8104178e-21 1.3117334e-36)
(0.027303616 -0.0033080991 1.1241733e-20 0.00090057895 -1.9875441e-21 1.6447371e-36)
(0.033625753 -0.0036108046 -5.6780427e-21 0.0008930772 8.7563166e-22 3.363097e-37)
(0.041183502 -0.0039192037 7.4429863e-21 0.00088212385 -1.000177e-21 4.7027205e-37)
(0.0501496 -0.0042232092 2.6310443e-20 0.00086690218 -3.0723665e-21 4.8021743e-36)
(0.060688938 -0.0045077204 6.5190005e-21 0.00084694063 -6.6002508e-22 2.4317868e-37)
(0.072938132 -0.0047511986 2.7973074e-20 0.0008224727 -2.4499424e-21 3.7469896e-36)
(0.086976071 -0.0049248973 -3.9082573e-20 0.00079492735 2.9496965e-21 6.1885702e-36)
(0.10278642 -0.0049938903 -3.9065871e-20 0.00076725567 2.5261827e-21 5.2654698e-36)
(0.12021578 -0.0049211437 -7.2324361e-21 0.00074398086 3.9777577e-22 1.5454927e-37)
(0.13894188 -0.0046748435 6.1621699e-20 0.00073102552 -2.8544883e-21 9.8783483e-36)
(0.15846342 -0.0042381207 -3.105334e-20 0.00073534156 1.1939825e-21 2.2037962e-36)
(0.17811755 -0.0036214624 -1.1364217e-20 0.00076403527 3.557124e-22 2.6328269e-37)
(0.19717662 -0.0028668006 6.339545e-21 0.00082278491 -1.5699433e-22 7.5002587e-38)
(0.214992 -0.0020315075 2.0582422e-20 0.00091283475 -3.8516947e-22 7.2240551e-37)
(0.231052 -0.0011816438 -1.0362192e-20 0.0010276424 1.3713036e-22 1.7083243e-37)
(0.24499912 -0.0003659826 1.919242e-20 0.001157638 -1.5653135e-22 5.53879e-37)
(0.25660495 0.00041116416 1.1697864e-19 0.001296472 -4.1071948e-22 1.979032e-35)
(0.26568913 0.0011632174 5.6064543e-21 0.0014458951 4.9366081e-24 4.450449e-38)
(0.27210603 0.0018901231 -2.5175953e-20 0.0016170664 -1.234708e-22 8.8960192e-37)
(0.27586499 0.0025638145 5.5305798e-20 0.0018215284 4.9218715e-22 4.3351005e-36)
(0.27723233 0.0031151841 -4.6200212e-20 0.0020683396 -5.9344155e-22 3.1105019e-36)
(0.27670521 0.0034696508 1.2703565e-19 0.0023583889 2.1289572e-21 2.4642523e-35)
(0.2748958 0.003614282 3.478487e-20 0.0026766399 7.2634477e-22 1.9737438e-36)
(0.27211073 0.0035604385 -9.2921511e-20 0.0029936427 -2.3396388e-21 1.5418466e-35)
(0.26830793 0.0034057269 1.4845487e-20 0.0032683882 4.5019603e-22 4.3873226e-37)
(0.26271415 0.003281623 1.5676153e-20 0.0034838612 5.6345515e-22 5.6517022e-37)
(0.25405573 0.0034499229 2.8689682e-21 0.0037072659 1.2251153e-22 2.2570288e-38)
(0.24186708 0.0040436164 -3.4384077e-20 0.0041781112 -1.7418189e-21 3.965416e-36)
(0.22334992 0.0047865413 5.8987822e-20 0.0050714822 3.4667268e-21 1.5030016e-35)
(0.20263855 0.0053921168 1.53969e-20 0.0060806507 1.0063075e-21 1.3469483e-36)
(0.17200175 0.0049428162 2.1346584e-20 0.0064277633 1.5309759e-21 3.7202992e-36)
(1.8776191e-09 -2.6817888e-08 2.4551466e-25 3.8304691e-07 -3.3020257e-24 1.8183354e-38)
(2.1429355e-08 -2.7859377e-07 -3.9498871e-25 3.6245495e-06 4.8539215e-24 7.1943765e-39)
(7.6302696e-08 -9.1266689e-07 -1.8144993e-25 1.0939751e-05 2.0408415e-24 5.0887302e-40)
(1.9416839e-07 -2.1269682e-06 2.6153353e-25 2.3396558e-05 -2.6901104e-24 4.5752496e-40)
(4.1839593e-07 -4.1895409e-06 -1.8146124e-24 4.2233762e-05 1.7081717e-23 1.0744402e-38)
(8.1788422e-07 -7.4684268e-06 -1.867072e-25 6.8860953e-05 1.608934e-24 5.9401437e-41)
(1.5002016e-06 -1.2460206e-05 -3.2197375e-24 0.00010484742 2.5372543e-23 9.6996688e-39)
(2.6308797e-06 -1.9824407e-05 -4.6074417e-24 0.00015189376 3.3147165e-23 1.1260438e-38)
(4.4616753e-06 -3.0424394e-05 4.9381024e-23 0.0002117795 -3.2368849e-22 7.5221723e-37)
(7.3710842e-06 -4.537253e-05 -5.7280658e-23 0.00028627996 3.4140471e-22 5.9966185e-37)
(1.1921593e-05 -6.6076833e-05 3.5349927e-23 0.00037704499 -1.9119524e-22 1.3732252e-37)
(1.8939241e-05 -9.428401e-05 6.6410217e-23 0.00048543393 -3.2532379e-22 2.9477254e-37)
(2.9622159e-05 -0.00013211087 -1.6801143e-22 0.00061230464 7.4405998e-22 1.1588028e-36)
(4.5685428e-05 -0.00018205258 -2.6431252e-23 0.00075776124 1.0563148e-22 1.7744858e-38)
(6.9549481e-05 -0.00024695235 1.2914168e-22 0.00092087565 -4.6493114e-22 2.6429306e-37)
(0.00010457787 -0.00032991504 1.1197973e-22 0.0010994141 -3.6252971e-22 1.2470345e-37)
(0.00015536655 -0.00043414748 -1.631766e-22 0.0012896178 4.74221e-22 1.6730071e-37)
(0.00022808062 -0.00056271443 7.3943403e-22 0.001486107 -1.9255978e-21 2.1850679e-36)
(0.00033082538 -0.00071821489 -5.4464352e-22 0.0016819903 1.2686465e-21 7.6001533e-37)
(0.00047402867 -0.00090241061 3.3413074e-22 0.0018692569 -6.9485808e-22 1.8480136e-37)
(0.00067080329 -0.0011158771 -1.3894633e-21 0.0020394984 2.5751236e-21 2.087109e-36)
(0.00093725951 -0.0013577901 -4.4296928e-22 0.0021849296 7.3029376e-22 1.4005719e-37)
(0.0012927519 -0.0016259846 1.124573e-21 0.0022995759 -1.6464418e-21 6.0403364e-37)
(0.001760098 -0.0019174162 -2.0443408e-21 0.0023803693 2.6534813e-21 1.3543807e-36)
(0.0023659793 -0.0022291055 -9.651065e-22 0.0024278357 1.1087975e-21 2.0778785e-37)
(0.0031414967 -0.0025593006 1.3752074e-21 0.002446117 -1.3974614e-21 2.9696255e-37)
(0.0041219075 -0.0029080302 9.208805e-21 0.0024421413 -8.2652261e-21 9.4883887e-36)
(0.0053499631 -0.0032779347 4.8742103e-21 0.0024235683 -3.861378e-21 1.9277717e-36)
(0.0068776907 -0.0036736609 -2.816838e-21 0.0023974035 1.9699187e-21 4.7774267e-37)
(0.0087660236 -0.0040996776 3.4860414e-21 0.0023699083 -2.1483052e-21 5.4532437e-37)
(0.011088801 -0.0045607441 -2.4889872e-21 0.0023453346 1.352661e-21 2.1348018e-37)
(0.013932995 -0.0050611479 -1.6120459e-20 0.0023250868 7.7050223e-21 6.8629529e-36)
(0.017401197 -0.0056031049 6.1287591e-21 0.0023083999 -2.574895e-21 7.7404129e-37)
(0.021611424 -0.0061865101 2.0699754e-20 0.0022932165 -7.6334033e-21 6.9564245e-36)
(0.026696986 -0.0068084734 -7.7586764e-21 0.0022768817 2.5098659e-21 7.8333192e-37)
(0.032804692 -0.0074626271 -1.2206879e-20 0.0022565449 3.456049e-21 1.5551964e-36)
(0.04009081 -0.0081377884 2.3627625e-20 0.0022292823 -5.8495065e-21 4.7356254e-36)
(0.04871317 -0.0088158616 8.0313816e-21 0.0021921807 -1.735865e-21 4.476909e-37)
(0.058817594 -0.0094692001 -1.5771247e-20 0.0021426137 2.9737567e-21 1.4391472e-36)
(0.070516589 -0.010057989 -6.9541415e-21 0.0020789705 1.141249e-21 2.3499043e-37)
(0.083859288 -0.010528659 3.6654355e-20 0.0020017932 -5.2169898e-21 5.5068511e-36)
(0.098793852 -0.010815697 -1.1260488e-20 0.0019153447 1.3838534e-21 4.4830631e-37)
(0.11512674 -0.010848747 -1.7673344e-20 0.0018292499 1.866441e-21 9.5049257e-37)
(0.13249292 -0.010566008 -5.0798478e-20 0.0017598711 4.5696589e-21 6.8417997e-36)
(0.15034688 -0.0099327883 1.0302928e-19 0.0017302109 -7.7995475e-21 2.4945603e-35)
(0.1679961 -0.008965785 -7.0675287e-20 0.0017669872 4.4305293e-21 1.051381e-35)
(0.1847269 -0.0077492776 -1.8782481e-20 0.0018921383 9.5607757e-22 6.7106197e-37)
(0.19991855 -0.006403939 -7.7256895e-20 0.0021082046 3.0868992e-21 1.0535411e-35)
(0.21311313 -0.0050437596 -9.5653441e-20 0.0023904942 2.8771961e-21 1.5136311e-35)
(0.22404065 -0.0037582885 -4.9853351e-21 0.0027008467 1.0763521e-22 3.8883834e-38)
(0.2325987 -0.002573152 2.1398512e-20 0.0030079366 -2.7320546e-22 6.9411153e-37)
(0.23873641 -0.0014724193 -1.5786753e-19 0.0033071518 7.3785606e-22 3.7301548e-35)
(0.24246062 -0.00045961427 -6.6987651e-20 0.0036221382 -1.8010908e-22 6.7172675e-36)
(0.24392044 0.00040552374 -6.7856965e-20 0.0039812317 -6.6725726e-22 7.0141234e-36)
(0.24357535 0.0010242873 -2.176077e-20 0.0043990491 -3.7311312e-22 7.475745e-37)
(0.24203819 0.0013200883 -1.6242526e-19 0.0048656368 -3.8996509e-21 4.4082505e-35)
(0.24003134 0.0013271571 6.1702198e-20 0.0053403899 1.9527838e-21 6.8601891e-36)
(0.23788282 0.0011562919 -1.7698255e-20 0.0057609539 -6.9590405e-22 6.270745e-37)
(0.23536505 0.001053946 -1.3594325e-19 0.0060512668 -6.5874296e-21 4.1744727e-35)
(0.2316073 0.0012410175 -4.983555e-20 0.0061589682 -2.9388045e-21 6.5425075e-36)
(0.22481502 0.002024873 5.3753151e-20 0.0061427765 3.8200668e-21 9.2314703e-36)
(0.21448784 0.0034625244 1.6501698e-19 0.0063057287 1.4054379e-20 1.0897881e-34)
(0.19703177 0.0049832709 -4.5771329e-20 0.0069181877 -4.5891643e-21 1.111554e-35)
(0.1784392 0.0062692017 -6.335564e-20 0.0077341531 -7.2859221e-21 2.8882499e-35)
(0.14923821 0.0059401678 -2.2181165e-20 0.0078626872 -2.9120745e-21 5.2988684e-36)
(7.4491633e-09 -7.5738587e-08 -1.6097471e-24 7.7006737e-07 1.5881439e-23 2.0392601e-37)
(7.6992434e-08 -7.4912359e-07 5.313658e-24 7.2895187e-06 -5.0166441e-23 3.7400355e-37)
(2.5237866e-07 -2.3564866e-06 -3.1725793e-24 2.2009057e-05 2.8607238e-23 4.8900449e-38)
(5.9057909e-07 -5.2718577e-06 5.022909e-25 4.7088267e-05 -4.3162757e-24 5.7796209e-40)
(1.1728761e-06 -9.9815689e-06 -1.3662913e-23 8.5036399e-05 1.117226e-22 2.2591299e-37)
(2.1172832e-06 -1.71235e-05 1.8830989e-23 0.00013871467 -1.4626857e-22 2.4189234e-37)
(3.5938799e-06 -2.7525131e-05 -3.724466e-23 0.00021131659 2.74116e-22 5.5671425e-37)
(5.8462186e-06 -4.2248011e-05 2.2498274e-23 0.00030631398 -1.5642471e-22 1.232728e-37)
(9.2214122e-06 -6.2639291e-05 1.0864729e-22 0.00042735495 -7.1129637e-22 1.7824516e-36)
(1.4211548e-05 -9.0387079e-05 -3.2910578e-23 0.00057809943 2.0219589e-22 1.0309535e-37)
(2.1510149e-05 -0.00012757575 -1.5703698e-22 0.00076197713 9.0232511e-22 1.4960616e-36)
(3.2088153e-05 -0.00017673426 5.9797527e-23 0.00098185474 -3.2024374e-22 1.3949877e-37)
(4.7294739e-05 -0.00024086732 4.9638791e-24 0.0012396061 -2.4692679e-23 6.2355782e-40)
(6.8988631e-05 -0.00032345435 -2.4142818e-22 0.0015355924 1.1118127e-21 9.5588865e-37)
(9.9705562e-05 -0.00042839773 9.3516357e-22 0.0018680793 -3.9733374e-21 9.3573664e-36)
(0.00014286622 -0.00055989811 -7.0956794e-22 0.0022326529 2.7722244e-21 3.5262701e-36)
(0.00020302663 -0.00072223656 -8.3444354e-24 0.0026217308 2.987698e-23 3.1995461e-40)
(0.00028616802 -0.00091945058 5.961509e-22 0.003024312 -1.9496752e-21 1.0771695e-36)
(0.00040001746 -0.0011549122 -1.8592345e-21 0.0034261433 5.5354247e-21 6.9358599e-36)
(0.00055438286 -0.001430849 1.0742526e-21 0.0038104731 -2.9019904e-21 1.5418348e-36)
(0.00076148194 -0.0017479013 1.9540764e-21 0.0041595176 -4.7739835e-21 3.4204861e-36)
(0.0010362457 -0.002104862 9.609572e-22 0.0044566113 -2.1163813e-21 5.5909788e-37)
(0.0013965888 -0.0024987788 -5.7378013e-21 0.0046887856 1.1357488e-20 1.3637695e-35)
(0.0018636722 -0.0029255886 -3.5996176e-21 0.0048492569 6.3849414e-21 3.7127028e-36)
(0.0024623304 -0.0033813945 2.7710101e-21 0.0049390916 -4.3935263e-21 1.5465863e-36)
(0.0032218185 -0.0038641706 -1.9158861e-21 0.0049673985 2.7080668e-21 5.2526452e-37)
(0.0041753524 -0.0043744681 8.4304678e-21 0.0049496799 -1.0605407e-20 7.3716115e-36)
(0.0053631678 -0.0049167089 -2.8271137e-21 0.0049035484 3.1592918e-21 6.088812e-37)
(0.006834455 -0.0054979707 8.8305217e-21 0.0048440709 -8.7547183e-21 4.4365711e-36)
(0.0086466504 -0.0061254262 -5.7485799e-21 0.0047837313 5.0492115e-21 1.4247238e-36)
(0.0108691 -0.0068064117 4.0805899e-21 0.0047309218 -3.1694258e-21 5.4927611e-37)
(0.013582992 -0.0075472063 -1.7051666e-20 0.0046884225 1.1699723e-20 7.4634256e-36)
(0.01688371 -0.0083512642 2.7764103e-21 0.0046546834 -1.6804917e-21 1.558519e-37)
(0.020880238 -0.0092185542 -1.6580645e-20 0.0046255948 8.8360593e-21 4.3960404e-36)
(0.025694591 -0.010144963 1.7858806e-20 0.0045958266 -8.3724533e-21 4.0935116e-36)
(0.03145944 -0.011121225 6.4256557e-21 0.0045595181 -2.64553e-21 4.2603919e-37)
(0.038313228 -0.012130958 -8.9168786e-20 0.0045104029 3.223574e-20 6.7577658e-35)
(0.046391297 -0.013147633 -2.5874442e-20 0.0044418205 8.1988147e-21 4.6880291e-36)
(0.055811266 -0.014130784 2.3694259e-20 0.0043471203 -6.5720182e-21 3.2841123e-36)
(0.066650824 -0.015022338 -2.5609358e-20 0.0042209223 6.2046675e-21 3.2295208e-36)
(0.078917567 -0.015744698 7.2285104e-21 0.0040614717 -1.5245195e-21 2.1749737e-37)
(0.092512685 -0.016203611 4.9113894e-20 0.0038742959 -8.9951929e-21 8.6740481e-36)
(0.1071937 -0.016298911 -2.4568151e-21 0.003676879 3.8895803e-22 1.9007831e-38)
(0.1225499 -0.015944751 -1.9193825e-20 0.0035027127 2.5973648e-21 1.0044364e-36)
(0.13800205 -0.015098799 9.9144044e-21 0.003401871 -1.128663e-21 2.415767e-37)
(0.15286488 -0.013800228 -5.3783829e-21 0.0034341866 5.1453443e-22 6.0872249e-38)
(0.16649419 -0.012187314 -1.6045122e-20 0.0036475328 1.2533214e-21 5.1143569e-37)
(0.17836106 -0.010449836 2.5605514e-19 0.0040444349 -1.5947118e-20 1.2209311e-34)
(0.18816378 -0.0087622133 -2.9531744e-20 0.0045668955 1.3945871e-21 1.5315766e-36)
(0.19581294 -0.0072402683 2.7851247e-20 0.0051273001 -9.5898345e-22 1.3060019e-36)
(0.20135451 -0.0059016019 -2.6459128e-19 0.0056555854 5.8907428e-21 1.148509e-34)
(0.20484775 -0.0047138611 1.4498936e-19 0.006140984 -1.5940896e-21 3.4194484e-35)
(0.20640554 -0.0036874658 1.1818272e-19 0.0066312834 5.2880703e-24 2.2890656e-35)
(0.20629793 -0.0029124394 1.1051294e-19 0.0071826491 1.1686973e-21 2.0568094e-35)
(0.20510131 -0.0025070618 1.0317171e-19 0.0078193308 2.1676257e-21 1.8771682e-35)
(0.20350687 -0.0025259994 1.5528155e-19 0.008514342 4.9060086e-21 4.5464548e-35)
(0.20218175 -0.0028547191 -2.9466226e-19 0.0091890854 -1.2641393e-20 1.7868435e-34)
(0.20129712 -0.0032625079 1.7020426e-19 0.0097334644 9.3663016e-21 6.6664614e-35)
(0.20027515 -0.0033550983 2.3911915e-19 0.010022736 1.6416704e-20 1.5146629e-34)
(0.19801317 -0.0028018212 -1.602982e-19 0.0099582264 -1.359967e-20 8.0767193e-35)
(0.19216644 -0.0012894496 -4.5835765e-20 0.0095941289 -4.7456143e-21 8.1750496e-36)
(0.18242217 0.0011297696 -3.5118978e-20 0.0092955381 -4.3996435e-21 6.2004459e-36)
(0.16456884 0.0033771174 1.5304647e-19 0.009497527 2.3068523e-20 1.6062579e-34)
(0.14663332 0.0051773603 9.4704008e-20 0.0099233543 1.6704377e-20 8.6685788e-35)
(0.1189384 0.005048389 -3.2714317e-21 0.0096201508 -6.7662507e-22 1.6828311e-37)
(2.006189e-08 -1.573526e-07 1.8770072e-24 1.2341745e-06 -1.4460266e-23 1.0110911e-37)
(1.9902958e-07 -1.5253863e-06 -1.2649434e-23 1.1690974e-05 9.5122494e-23 8.0739081e-37)
(6.2910886e-07 -4.7137348e-06 1.6655143e-23 3.5320923e-05 -1.2198706e-22 5.3672779e-37)
(1.4158593e-06 -1.0346804e-05 -8.9679512e-24 7.5622811e-05 6.387364e-23 7.6671256e-38)
(2.7011067e-06 -1.9211498e-05 -4.3644689e-24 0.00013667533 3.0186176e-23 1.0009935e-38)
(4.6776176e-06 -3.2301362e-05 4.901554e-23 0.00022314865 -3.2865305e-22 7.4151252e-37)
(7.6065127e-06 -5.0860291e-05 -1.5858449e-23 0.00034028242 1.0285626e-22 4.7593905e-38)
(1.1840299e-05 -7.6431043e-05 -4.237237e-23 0.00049381038 2.6514224e-22 2.1472493e-37)
(1.7853869e-05 -0.00011090891 -4.0444393e-24 0.00068980989 2.4344815e-23 1.2651308e-39)
(2.6285322e-05 -0.00015659612 -4.242449e-23 0.00093445221 2.4488432e-22 9.1389706e-38)
(3.7989448e-05 -0.00021625201 7.2925785e-23 0.0012336269 -4.0233218e-22 1.7941223e-37)
(5.4107043e-05 -0.00029313053 -6.1966144e-23 0.0015924167 3.2562582e-22 8.6787579e-38)
(7.6153922e-05 -0.00039099376 -2.784387e-22 0.002014408 1.3886804e-21 1.180193e-36)
(0.00010613342 -0.00051408503 -9.8593468e-24 0.0025008403 4.6497374e-23 9.980801e-40)
(0.00014667641 -0.00066704214 3.1482929e-22 0.0030496308 -1.398557e-21 6.9196512e-37)
(0.00020121185 -0.00085472921 2.7082979e-22 0.0036543635 -1.128814e-21 3.478191e-37)
(0.0002741695 -0.001081967 -2.8280262e-22 0.0043033896 1.1014471e-21 2.5801924e-37)
(0.00037121394 -0.0013531533 3.2830207e-23 0.0049792765 -1.1898476e-22 2.3807451e-39)
(0.00049950564 -0.0016717857 8.0869359e-22 0.0056588906 -2.7157588e-21 9.8393052e-37)
(0.00066798111 -0.002039939 1.1902891e-21 0.0063144447 -3.6877762e-21 1.462136e-36)
(0.00088764332 -0.0024578018 -1.6360344e-21 0.0069157454 4.6560783e-21 1.905455e-36)
(0.0011718547 -0.0029234387 -1.9748815e-21 0.0074336906 5.1405447e-21 1.9283921e-36)
(0.001536636 -0.0034329831 3.1730497e-21 0.0078446654 -7.5223462e-21 3.4876625e-36)
(0.0020009874 -0.0039814436 -4.6638419e-21 0.0081350236 1.0029093e-20 5.3315892e-36)
(0.0025873488 -0.0045642384 -9.5407658e-21 0.0083044117 1.8538606e-20 1.5972137e-35)
(0.0033224286 -0.005179323 2.6352584e-20 0.0083666463 -4.6109691e-20 8.8480806e-35)
(0.0042370738 -0.0058283041 -1.6887373e-20 0.0083474998 2.6524473e-20 2.6743618e-35)
(0.0053680651 -0.0065175378 2.8933608e-20 0.0082781566 -4.068225e-20 5.856641e-35)
(0.0067605073 -0.0072565739 -4.1519654e-20 0.00818504 5.213935e-20 9.1286158e-35)
(0.0084678264 -0.0080558286 5.2946619e-20 0.0080895286 -5.9248109e-20 1.1374552e-34)
(0.010553209 -0.0089250259 -6.2212576e-20 0.0080062144 6.1900964e-20 1.2182406e-34)
(0.013090337 -0.0098722465 1.1833746e-20 0.0079404792 -1.0450347e-20 3.4644712e-36)
(0.016165136 -0.010901993 4.6082444e-20 0.0078902087 -3.604704e-20 4.156381e-35)
(0.019874857 -0.012013988 -2.9160871e-20 0.0078487123 2.01767e-20 1.3328594e-35)
(0.024326927 -0.01320249 1.0189717e-20 0.00780699 -6.227867e-21 1.3167413e-36)
(0.029635948 -0.01445488 3.3019745e-21 0.0077548833 -1.7813504e-21 1.135448e-37)
(0.035917963 -0.015749128 4.5351601e-20 0.0076812526 -2.1549958e-20 1.7492348e-35)
(0.04328064 -0.017049946 1.6360806e-20 0.007573903 -6.8423656e-21 1.8848156e-36)
(0.051807872 -0.018304098 1.8184791e-20 0.0074201616 -6.6800978e-21 1.9464779e-36)
(0.061537426 -0.01943607 1.9641012e-20 0.0072089183 -6.3292714e-21 1.9336408e-36)
(0.072431879 -0.020346298 -1.0904529e-19 0.0069346824 3.0721686e-20 5.098781e-35)
(0.084345461 -0.020915787 5.1852555e-20 0.0066044333 -1.2722642e-20 9.9612509e-36)
(0.096993325 -0.02102121 8.9617834e-21 0.0062466315 -1.9081252e-21 2.5529269e-37)
(0.10993629 -0.020563231 -1.0971866e-19 0.0059193711 2.0039712e-20 3.435895e-35)
(0.1225984 -0.019508525 -5.9090841e-20 0.0057119036 9.1856663e-21 8.8953646e-36)
(0.13436442 -0.017941063 3.0515582e-20 0.0057307213 -3.9876391e-21 2.1617953e-36)
(0.14472983 -0.016071455 1.1596059e-19 0.0060555635 -1.2442318e-20 2.8634471e-35)
(0.15335512 -0.014154437 -5.2079764e-20 0.0066783509 4.5174081e-21 5.4207986e-36)
(0.16013648 -0.012404275 1.5608335e-19 0.007488865 -1.0399156e-20 4.6174083e-35)
(0.16514426 -0.010928129 8.6132249e-20 0.0083276893 -4.2304932e-21 1.3586029e-35)
(0.1684978 -0.009704601 1.1948684e-19 0.0090776218 -3.9835194e-21 2.5690628e-35)
(0.17028614 -0.0086727672 3.1962313e-19 0.0097319806 -5.6312071e-21 1.836547e-34)
(0.17065938 -0.0078561117 -2.4349845e-19 0.010380711 7.6298894e-22 1.0854253e-34)
(0.16995726 -0.0073823022 7.7522726e-20 0.011119189 9.4551641e-22 1.1393835e-35)
(0.16881856 -0.0073819284 -1.2837584e-19 0.011980743 -3.2562676e-21 3.3136928e-35)
(0.16792492 -0.0078658158 -1.1631379e-19 0.012913631 -4.6869125e-21 2.942221e-35)
(0.16775937 -0.0086121279 -4.2855516e-20 0.013789283 -2.4138045e-21 4.4286516e-36)
(0.16820043 -0.0092491428 -3.6343009e-19 0.014437404 -2.6205566e-20 3.6138951e-34)
(0.16822412 -0.0092482484 -8.9695903e-20 0.014678287 -8.1811514e-21 2.5784347e-35)
(0.16647563 -0.0081880302 1.8537787e-19 0.014351681 2.1177393e-20 1.3343914e-34)
(0.1601205 -0.0058285756 6.1988505e-20 0.013535721 8.8190721e-21 1.8958822e-35)
(0.14936392 -0.002386187 -4.0083557e-20 0.012638327 -7.0016502e-21 1.056356e-35)
(0.13024344 0.00046783379 -6.9376956e-20 0.012347623 -1.4763151e-20 4.5160191e-35)
(0.11191662 0.0024812455 -8.9138191e-20 0.012209752 -2.273668e-20 1.095053e-34)
(0.086709493 0.0025485207 5.2152346e-21 0.011328617 1.5897272e-21 6.368965e-37)
(4.2365656e-08 -2.6908927e-07 8.5171255e-24 1.7091455e-06 -5.345472e-23 9.3867018e-37)
(4.1193783e-07 -2.5837161e-06 6.0247058e-24 1.6205441e-05 -3.7277801e-23 8.470754e-38)
(1.2782856e-06 -7.9144151e-06 -7.7726496e-24 4.9002602e-05 4.732411e-23 5.5551087e-38)
(2.8190316e-06 -1.7205536e-05 -4.036754e-23 0.00010501646 2.4162095e-22 7.5762402e-37)
(5.2633094e-06 -3.1622097e-05 2.9431465e-23 0.00019000319 -1.7300497e-22 2.2751795e-37)
(8.9076332e-06 -5.2594889e-05 -5.4633966e-23 0.0003105905 3.1500538e-22 4.7156732e-37)
(1.4134739e-05 -8.1866466e-05 2.9842805e-23 0.0004742657 -1.6849452e-22 8.8339169e-38)
(2.1437033e-05 -0.00012153834 8.835121e-24 0.00068929361 -4.8750754e-23 5.0151404e-39)
(3.1446713e-05 -0.00017411908 -6.144736e-23 0.00096453488 3.3060271e-22 1.608277e-37)
(4.4973496e-05 -0.0002425674 -1.6137233e-22 0.0013091288 8.4445882e-22 7.4789844e-37)
(6.3051906e-05 -0.00033032395 -9.8222422e-24 0.0017320015 4.9858502e-23 1.8871831e-39)
(8.6999999e-05 -0.00044132241 3.8757101e-22 0.0022411611 -1.9026515e-21 2.028411e-36)
(0.0001184918 -0.00057996726 -6.4485106e-22 0.0028427499 3.0520912e-21 3.8911224e-36)
(0.00015964584 -0.00075106258 1.2498313e-21 0.0035398457 -5.6840729e-21 1.017401e-35)
(0.00021313222 -0.00095967398 -3.9160138e-22 0.0043310492 1.7051656e-21 6.9718345e-37)
(0.00028230041 -0.0012109051 9.968493e-22 0.0052089524 -4.1400966e-21 3.1592044e-36)
(0.00037132965 -0.001509576 -1.4429028e-21 0.0061586932 5.6926489e-21 4.6381133e-36)
(0.00048540349 -0.0018598017 1.1212824e-21 0.0071568967 -4.1843349e-21 1.9656031e-36)
(0.00063090905 -0.0022644953 -2.1172027e-22 0.0081714371 7.4394968e-22 4.9325517e-38)
(0.00081566215 -0.0027248575 -1.0252532e-21 0.0091625173 3.3762766e-21 8.1577657e-37)
(0.0010491602 -0.0032399681 2.9689544e-21 0.010085508 -9.1184267e-21 4.8462017e-36)
(0.0013428673 -0.0038066498 -4.9773753e-21 0.010895746 1.4186246e-20 9.7079278e-36)