/*--------------------------------*- C++ -*----------------------------------*\
  =========                 |
  \\      /  F ield         | OpenFOAM: The Open Source CFD Toolbox
   \\    /   O peration     | Website:  https://openfoam.org
    \\  /    A nd           | Version:  13
     \\/     M anipulation  |
\*---------------------------------------------------------------------------*/
FoamFile
{
    format      ascii;
    class       volVectorField;
    location    "30.203761";
    object      U;
}
// * * * * * * * * * * * * * * * * * * * * * * * * * * * * * * * * * * * * * //

dimensions      [0 1 -1 0 0 0 0];

internalField   nonuniform List<vector> 
17140
(
(8.3143518e-07 -7.0150307e-05 2.9904025e-23)
(9.4599965e-07 -0.00021823566 3.3103091e-24)
(-1.5559214e-06 -0.00038247283 -2.1839187e-22)
(-7.4021459e-06 -0.00056391815 2.399109e-22)
(-1.7586501e-05 -0.00076364402 -2.8021263e-23)
(-3.3604018e-05 -0.00098267834 9.1614311e-23)
(-5.7031391e-05 -0.0012221182 1.5403451e-22)
(-8.9952901e-05 -0.0014830757 -7.5053947e-23)
(-0.00013492704 -0.0017666663 -2.4519683e-22)
(-0.00019508527 -0.0020739951 -5.9991415e-22)
(-0.00027425158 -0.0024061414 8.8674792e-22)
(-0.00037707117 -0.002764141 -7.8724459e-22)
(-0.00050915797 -0.0031489639 -1.1998748e-22)
(-0.00067725578 -0.0035614886 6.7438118e-22)
(-0.00088941549 -0.0040024691 -7.4381815e-23)
(-0.0011551803 -0.0044724929 5.8424606e-22)
(-0.0014857733 -0.0049719265 -2.148394e-23)
(-0.0018942736 -0.0055008415 4.8131251e-24)
(-0.0023957649 -0.0060589166 3.3335696e-22)
(-0.003007429 -0.0066453038 -4.2487979e-22)
(-0.0037485517 -0.0072584497 2.0074584e-22)
(-0.0046403937 -0.0078958602 -3.7365112e-23)
(-0.0057058683 -0.0085538001 -2.6870524e-22)
(-0.0069689539 -0.0092269276 2.6044095e-22)
(-0.0084537568 -0.0099078858 4.0170664e-22)
(-0.010183136 -0.010586918 -3.1193227e-22)
(-0.012176829 -0.011251655 -1.4791132e-21)
(-0.014449076 -0.011887378 -1.6810058e-22)
(-0.017005966 -0.012478225 1.4149434e-21)
(-0.019843023 -0.013009895 3.1719066e-22)
(-0.02294409 -0.013473842 1.0782596e-21)
(-0.026282777 -0.013871406 -1.3441269e-21)
(-0.029827053 -0.014214836 3.3097807e-22)
(-0.033545308 -0.014523645 1.4830674e-22)
(-0.037410543 -0.014818849 1.3743349e-21)
(-0.04140101 -0.01511915 -5.6776853e-22)
(-0.045498593 -0.015440352 8.1502818e-22)
(-0.04968712 -0.015796684 5.2897544e-22)
(-0.05395164 -0.016202668 2.3444474e-22)
(-0.058278744 -0.016674856 -6.9292007e-22)
(-0.062657798 -0.017233349 -1.2888233e-21)
(-0.067082947 -0.017903082 -1.1610184e-21)
(-0.071556017 -0.018714856 -5.0644316e-22)
(-0.076089196 -0.019706094 2.478289e-21)
(-0.080710051 -0.020921167 1.8288116e-21)
(-0.085466309 -0.022409696 -4.5454021e-22)
(-0.090421004 -0.024222891 3.1304619e-21)
(-0.09565626 -0.026412082 1.0769601e-21)
(-0.10126932 -0.029022949 -1.1110119e-21)
(-0.10737089 -0.032082016 -2.7508581e-21)
(-0.11405756 -0.03557255 1.7107271e-21)
(-0.12143727 -0.039396125 1.0885993e-21)
(-0.1295318 -0.043284634 -2.8566094e-21)
(-0.13842299 -0.046685649 -1.3551351e-21)
(-0.14789817 -0.048529755 -9.6759737e-22)
(-0.15799084 -0.047039964 7.5888986e-22)
(-0.1677377 -0.039405169 -2.0200941e-21)
(-0.1768848 -0.021979664 -1.6719106e-21)
(-0.18131182 0.0095654259 -4.0201283e-22)
(-0.17976607 0.057240574 9.959268e-22)
(-0.16156333 0.1170509 7.0393154e-22)
(-0.13017987 0.17138494 2.2762004e-21)
(-0.078460247 0.1934416 2.8056113e-22)
(-0.029995682 0.15581054 -2.2716517e-21)
(0.056246621 0.047571431 1.388734e-21)
(1.2553097e-06 -3.3233085e-05 -8.5208621e-24)
(2.1977565e-06 -0.0001039923 1.1469359e-21)
(7.1448207e-07 -0.000182951 -1.0200704e-21)
(-4.0543919e-06 -0.00027037901 2.7786774e-22)
(-1.3153056e-05 -0.00036657431 5.7354676e-22)
(-2.7958407e-05 -0.0004718352 -1.0947689e-21)
(-5.0140754e-05 -0.00058645622 1.1396069e-21)
(-8.1796409e-05 -0.00071073577 -1.0012799e-22)
(-0.0001255013 -0.00084497805 3.1196211e-22)
(-0.0001844153 -0.00098950123 5.2827572e-24)
(-0.00026239359 -0.0011446484 1.0356023e-21)
(-0.00036411785 -0.0013108036 -1.6389066e-21)
(-0.00049524157 -0.0014884124 -1.347216e-22)
(-0.00066255258 -0.0016780085 1.3216464e-21)
(-0.00087414863 -0.0018802448 -4.0277418e-22)
(-0.0011396222 -0.0020959287 -2.534254e-22)
(-0.0014702463 -0.0023260581 1.590195e-21)
(-0.0018791493 -0.0025718541 -5.1097692e-21)
(-0.0023814606 -0.0028347838 3.1477532e-21)
(-0.0029944025 -0.0031165626 -3.7009491e-21)
(-0.0037372928 -0.0034191241 5.349421e-21)
(-0.0046314135 -0.0037445423 -1.2797043e-21)
(-0.0056996868 -0.0040948906 -5.1308949e-22)
(-0.0069660866 -0.0044720257 1.6298728e-21)
(-0.0084547027 -0.0048772902 -5.6803992e-21)
(-0.01018837 -0.0053111493 -8.2110991e-22)
(-0.012186801 -0.0057728004 4.1066932e-21)
(-0.01446423 -0.00625984 -4.4442735e-21)
(-0.017026775 -0.0067681307 5.8669909e-22)
(-0.019870069 -0.0072920736 5.5256305e-21)
(-0.022978175 -0.0078254883 -5.4557995e-22)
(-0.02632506 -0.0083630916 -3.9863082e-21)
(-0.029879161 -0.0089020863 -9.7639623e-23)
(-0.033609376 -0.0094430545 2.6493433e-21)
(-0.037489192 -0.0099897619 -2.7853105e-21)
(-0.041497276 -0.010548338 1.1880599e-21)
(-0.045615906 -0.011126592 -1.3272886e-21)
(-0.049829327 -0.01173383 -4.0618678e-21)
(-0.054123082 -0.01238117 -8.8377848e-22)
(-0.058484383 -0.013082193 -3.3779084e-21)
(-0.062903379 -0.013853777 4.26564e-21)
(-0.067375239 -0.014717016 3.9083301e-21)
(-0.071903065 -0.015698149 6.7036549e-22)
(-0.076500602 -0.01682921 -5.387709e-21)
(-0.081197322 -0.018148193 2.579062e-21)
(-0.086042994 -0.019699407 9.0545913e-22)
(-0.091102328 -0.021531277 -4.8931442e-22)
(-0.096458375 -0.023692911 -1.5538666e-21)
(-0.10220723 -0.026230614 7.6982681e-22)
(-0.10845399 -0.029176322 -1.4127046e-21)
(-0.11528229 -0.032523587 -8.5883948e-21)
(-0.12277275 -0.036189765 -4.1517405e-22)
(-0.13089962 -0.0399284 1.8782889e-21)
(-0.13966344 -0.043217726 -4.1646107e-21)
(-0.14873682 -0.04503322 3.5600929e-21)
(-0.15799284 -0.043673946 -1.0016412e-20)
(-0.16629709 -0.036444452 -2.7561279e-21)
(-0.17335716 -0.01994882 7.7430865e-21)
(-0.17543039 0.0096769334 -1.2547179e-21)
(-0.17113686 0.05382916 -1.395777e-21)
(-0.15153634 0.10911983 -2.4464529e-22)
(-0.11972725 0.15890511 2.8692317e-21)
(-0.066173802 0.17836218 -5.074956e-21)
(-0.011422185 0.13599294 -1.8340432e-21)
(0.092988994 0.019115022 -1.9555534e-21)
(-4.0817882e-07 4.2859647e-06 -4.6974132e-22)
(-2.9081804e-06 1.2185326e-05 3.4692043e-22)
(-8.1446262e-06 2.0043336e-05 9.2218007e-23)
(-1.703748e-05 2.8286985e-05 -8.7369674e-23)
(-3.0671345e-05 3.7392411e-05 4.2306663e-22)
(-5.0434582e-05 4.7860917e-05 3.1449934e-23)
(-7.8063489e-05 6.0215934e-05 4.0102556e-22)
(-0.0001156893 7.4991254e-05 4.3139501e-22)
(-0.00016592795 9.2710846e-05 -3.5179451e-21)
(-0.00023197393 0.0001138608 3.1330243e-21)
(-0.00031771268 0.00013885091 -1.4945694e-21)
(-0.0004278461 0.00016796458 -2.1815811e-21)
(-0.00056803555 0.00020129451 4.3051847e-21)
(-0.00074505939 0.00023866314 5.2997838e-22)
(-0.00096698352 0.00027952605 -2.03067e-21)
(-0.0012433401 0.00032285881 -1.3838263e-21)
(-0.0015853065 0.00036702833 1.5876273e-21)
(-0.0020058731 0.00040965251 -5.6742679e-21)
(-0.0025199815 0.00044745475 3.3028821e-21)
(-0.0031446095 0.00047612394 -1.6053891e-21)
(-0.0038987681 0.00049019407 5.3044131e-21)
(-0.004803367 0.00048296268 1.3489805e-21)
(-0.0058808912 0.00044647051 -2.7443673e-21)
(-0.0071548188 0.00037156793 4.0204377e-21)
(-0.0086486988 0.00024809858 1.5391016e-21)
(-0.010384807 6.5240182e-05 -1.7911882e-21)
(-0.012382318 -0.00018792703 -9.8598917e-21)
(-0.014655021 -0.00052149578 -4.3185264e-21)
(-0.017208776 -0.00094325171 2.0754736e-21)
(-0.020039287 -0.0014564994 -2.1445622e-21)
(-0.023131146 -0.0020575865 1.2762727e-21)
(-0.026459339 -0.0027346613 6.9180305e-21)
(-0.029993626 -0.0034697654 -2.1965221e-21)
(-0.033704201 -0.0042442791 -6.2093462e-21)
(-0.037565568 -0.0050443842 1.9492427e-21)
(-0.041557076 -0.0058633394 2.6021157e-21)
(-0.045661417 -0.0067007305 -4.3122449e-21)
(-0.049863103 -0.0075607615 -1.2729737e-21)
(-0.054147886 -0.0084509954 2.1951667e-21)
(-0.058503191 -0.0093818849 8.6337523e-22)
(-0.062919425 -0.010366931 -4.1234324e-21)
(-0.067392047 -0.011423222 1.1669164e-21)
(-0.071924452 -0.012572253 1.6983048e-21)
(-0.076530684 -0.013840494 4.5895667e-21)
(-0.08124052 -0.015259441 -8.8659933e-21)
(-0.086103193 -0.016868163 5.84681e-21)
(-0.091181796 -0.018712644 1.5043519e-21)
(-0.096555975 -0.020840491 6.0586047e-21)
(-0.10231455 -0.023300134 7.3906776e-21)
(-0.10854858 -0.026131517 3.8098885e-22)
(-0.11531685 -0.029342888 -1.6310837e-21)
(-0.12265656 -0.032874279 1.2148735e-20)
(-0.1304711 -0.036510906 5.2100585e-21)
(-0.1386489 -0.039773809 5.3762855e-21)
(-0.14670355 -0.041695992 1.7397264e-21)
(-0.15430254 -0.040659667 1.3447514e-20)
(-0.16008628 -0.034068519 -5.0666903e-21)
(-0.16365802 -0.018784878 1.329696e-21)
(-0.16133784 0.0087733629 1.1715918e-20)
(-0.1521125 0.049780313 4.3790023e-21)
(-0.12821259 0.1009753 -4.6478943e-21)
(-0.092537795 0.14623473 -1.5255889e-20)
(-0.03245241 0.16271611 4.4156072e-21)
(0.035610739 0.11393151 7.7306175e-21)
(0.16867186 -0.012181721 3.0360708e-21)
(-4.1677661e-06 4.1855889e-05 1.5748048e-21)
(-1.4613328e-05 0.00012849084 -2.5040333e-21)
(-2.8444896e-05 0.00022326534 9.0492119e-22)
(-4.679929e-05 0.00032731758 -9.8303135e-23)
(-7.0775731e-05 0.00044189492 1.9420132e-21)
(-0.00010183851 0.00056829953 -2.0072163e-21)
(-0.00014179314 0.00070788151 3.041157e-21)
(-0.00019283552 0.00086201534 -1.4284436e-21)
(-0.00025763692 0.0010320643 -5.421211e-21)
(-0.00033943645 0.0012193312 1.3002897e-21)
(-0.00044214722 0.0014249939 4.9386701e-21)
(-0.00057047626 0.0016500207 -1.5021482e-21)
(-0.00073005991 0.0018950633 -9.9812742e-23)
(-0.00092761277 0.0021603238 3.8930533e-21)
(-0.0011710883 0.0024453944 -1.2098025e-20)
(-0.001469846 0.0027490653 7.3672382e-21)
(-0.0018348188 0.0030691053 6.9610946e-23)
(-0.0022786671 0.0034020129 -3.9894803e-21)
(-0.0028159054 0.0037427491 9.9950336e-21)
(-0.0034629747 0.0040844589 -4.6436918e-21)
(-0.004238232 0.0044182003 -6.8048434e-21)
(-0.0051618105 0.0047327019 -2.7028422e-21)
(-0.0062552998 0.0050141791 1.3080004e-20)
(-0.0075411758 0.0052462468 6.6815149e-21)
(-0.0090419063 0.0054099827 -4.2107553e-21)
(-0.010778653 0.0054842352 2.3975399e-21)
(-0.012769518 0.005446349 -8.7430324e-21)
(-0.01502738 0.0052736477 2.4437368e-21)
(-0.017557529 0.0049462084 -6.3909346e-21)
(-0.02035567 0.0044514269 3.491976e-21)
(-0.023407205 0.0037898502 -2.0842835e-21)
(-0.026688772 0.002979279 7.3128614e-21)
(-0.030172314 0.0020524374 -9.9830771e-22)
(-0.03383016 0.0010471621 5.020569e-21)
(-0.037638422 -4.7902562e-06 -4.5609426e-21)
(-0.041577414 -0.001083351 -1.4000839e-21)
(-0.045630276 -0.0021795083 1.6631574e-20)
(-0.049781632 -0.0032920906 4.2020442e-21)
(-0.054017144 -0.0044249116 -3.3933466e-21)
(-0.058324024 -0.0055851438 3.2832228e-21)
(-0.062692337 -0.0067827757 -8.4242121e-22)
(-0.067117085 -0.0080307616 -5.257259e-21)
(-0.071600933 -0.0093457055 2.4463705e-22)
(-0.076156908 -0.010748365 1.8032874e-21)
(-0.080813455 -0.012263772 -8.9567132e-22)
(-0.08561658 -0.013925922 4.6088894e-22)
(-0.090624367 -0.015778715 1.345004e-21)
(-0.095908701 -0.017869159 -2.1063632e-20)
(-0.10154494 -0.020249605 2.4032401e-21)
(-0.10760173 -0.02297102 -2.2513722e-21)
(-0.11410121 -0.026061341 2.1410688e-20)
(-0.12102142 -0.029491095 -1.1822889e-20)
(-0.12817189 -0.033088506 -9.7491147e-21)
(-0.13529782 -0.036431398 -9.2672158e-21)
(-0.14170862 -0.038622342 -8.8151802e-21)
(-0.14682106 -0.038134925 -1.3587485e-20)
(-0.14898363 -0.032439259 2.6400988e-20)
(-0.14764662 -0.018575908 -1.5588513e-20)
(-0.13906011 0.0067964044 -2.2138845e-20)
(-0.12260603 0.044631718 1.4484347e-20)
(-0.090979242 0.092216403 4.4303237e-21)
(-0.047405769 0.13301425 3.7720352e-21)
(0.024950771 0.14577073 -1.7973513e-20)
(0.11747415 0.08862586 -1.4862404e-20)
(0.28732821 -0.045641434 7.1383904e-22)
(-1.0090406e-05 7.8829332e-05 -1.1104315e-21)
(-3.2849047e-05 0.00024295829 3.6842974e-21)
(-6.0182282e-05 0.00042327542 -3.0021939e-21)
(-9.3307054e-05 0.00062164479 1.1338857e-21)
(-0.00013343187 0.00084007895 4.093649e-22)
(-0.00018211968 0.0010806786 -3.5193645e-21)
(-0.00024127023 0.0013456191 8.902708e-22)
(-0.00031316568 0.0016371169 1.8880278e-21)
(-0.0004005505 0.0019573785 1.4459042e-22)
(-0.00050671757 0.0023085325 1.2260958e-21)
(-0.0006356068 0.0026925381 -1.7126182e-21)
(-0.00079191582 0.0031110686 1.1865775e-21)
(-0.00098122437 0.003565363 4.3559777e-21)
(-0.0012101305 0.0040560418 1.2637091e-22)
(-0.0014863962 0.0045828831 -3.2942264e-21)
(-0.0018190987 0.0051445566 -2.3172124e-21)
(-0.0022187796 0.0057383126 1.9775205e-21)
(-0.0026975809 0.0063596295 -1.8742925e-22)
(-0.003269353 0.0070018248 -3.7709942e-21)
(-0.003949712 0.0076556406 -4.5323769e-21)
(-0.0047560158 0.0083088223 5.0905032e-21)
(-0.0057072198 0.0089457144 5.0305122e-21)
(-0.0068235607 0.0095469107 -6.6339885e-21)
(-0.0081260055 0.010089007 8.0327833e-21)
(-0.0096353952 0.010544534 1.3599533e-20)
(-0.011371212 0.010882209 -3.1247775e-20)
(-0.013349937 0.011067788 1.6747984e-20)
(-0.015583043 0.01106603 -2.4123211e-20)
(-0.018074889 0.010844665 2.9215674e-20)
(-0.020821053 0.010381212 -3.1509665e-20)
(-0.023807945 0.0096721145 3.1330245e-20)
(-0.027014433 0.0087399029 -5.0353238e-21)
(-0.030415482 0.0076311152 -1.6586717e-20)
(-0.033986412 0.0064025207 8.8733706e-21)
(-0.037705593 0.0051041444 -2.6291625e-21)
(-0.041554637 0.0037699672 -7.260788e-22)
(-0.045517184 0.0024181392 -8.6417011e-21)
(-0.049577813 0.0010555876 -2.7266027e-21)
(-0.053721781 -0.00031750419 -2.6853462e-21)
(-0.057935625 -0.0017048697 -2.600964e-21)
(-0.062208458 -0.0031128617 1.3152412e-20)
(-0.066534025 -0.0045501929 -5.7725216e-21)
(-0.070913174 -0.0060284838 -9.2766271e-22)
(-0.075356553 -0.0075626731 1.0792663e-20)
(-0.079889536 -0.0091713968 5.5512414e-21)
(-0.084552065 -0.010883999 -2.7681645e-21)
(-0.089393739 -0.012742553 -1.0259371e-20)
(-0.094474174 -0.014794526 4.5264511e-21)
(-0.099848869 -0.017098177 -1.3463655e-20)
(-0.10555536 -0.019718884 -7.4104474e-21)
(-0.11156713 -0.022709721 -1.0314507e-20)
(-0.11778683 -0.026080533 -2.7881629e-20)
(-0.12390588 -0.029715403 2.1562632e-20)
(-0.12949284 -0.033264522 -7.0048734e-21)
(-0.13360452 -0.035911862 1.1847384e-20)
(-0.13536 -0.036229677 1.1082553e-20)
(-0.13278621 -0.031730007 3.8786119e-21)
(-0.1250663 -0.019596037 3.5445292e-20)
(-0.10824064 0.0034352765 9.0335905e-21)
(-0.082099294 0.038182181 -1.899635e-20)
(-0.039220578 0.082419365 -6.1958198e-21)
(0.017069962 0.11875984 4.7744618e-21)
(0.10814174 0.12602264 9.4281766e-21)
(0.23600037 0.059324752 1.7598441e-20)
(0.43992449 -0.079598119 -1.0460711e-21)
(-1.8062889e-05 0.00011450634 -3.3891563e-21)
(-5.7405972e-05 0.00035344433 -1.1954987e-21)
(-0.00010292923 0.00061636826 9.6737938e-22)
(-0.00015595357 0.00090585086 3.5704109e-21)
(-0.00021782934 0.0012246537 -1.9549325e-21)
(-0.00029024676 0.0015756622 2.8113044e-21)
(-0.00037522609 0.0019618657 -1.2151299e-21)
(-0.00047515863 0.0023863143 -2.8906959e-22)
(-0.00059287978 0.0028520548 1.6334396e-21)
(-0.00073174661 0.0033620441 3.5136332e-21)
(-0.0008957265 0.0039190343 1.7627756e-22)
(-0.0010894956 0.0045254259 -5.7462865e-21)
(-0.0013185488 0.0051830802 7.9228247e-21)
(-0.0015893191 0.0058930877 -1.2739445e-20)
(-0.0019093039 0.0066554851 3.3125259e-21)
(-0.002287195 0.0074689169 -6.9971225e-21)
(-0.0027330043 0.0083302398 8.3982139e-21)
(-0.0032581763 0.0092340688 -5.4088283e-21)
(-0.0038756726 0.010172271 8.4540139e-22)
(-0.0046000079 0.011133419 3.3917489e-21)
(-0.0054472102 0.01210222 -8.1386295e-21)
(-0.0064346691 0.013058952 1.1317314e-20)
(-0.0075808248 0.01397894 -1.2107682e-20)
(-0.0089046401 0.014832147 -2.0470527e-21)
(-0.010424792 0.015582957 1.9681441e-20)
(-0.012158523 0.016190345 -1.9493872e-20)
(-0.014120128 0.016608792 1.2395667e-20)
(-0.016319161 0.016790647 -1.3593783e-20)
(-0.018758634 0.016691111 -1.273753e-21)
(-0.021433781 0.016277103 -7.7395079e-22)
(-0.024332105 0.015539568 4.9231819e-21)
(-0.027435155 0.014503933 -3.2729846e-22)
(-0.030721686 0.013228952 1.7080883e-20)
(-0.034170869 0.011789638 -4.3912652e-21)
(-0.037764023 0.010254548 -1.2559469e-20)
(-0.041484457 0.008672295 5.5866343e-21)
(-0.045316405 0.0070708777 -4.4040248e-21)
(-0.049244258 0.0054634893 4.2992831e-21)
(-0.053252548 0.0038546259 2.3315421e-20)
(-0.057326652 0.0022441787 -1.2692487e-20)
(-0.061454074 0.00062954032 -3.0892013e-21)
(-0.065626441 -0.00099369514 1.7526126e-20)
(-0.069841625 -0.0026320923 -9.9736871e-22)
(-0.07410653 -0.0042947009 -2.1609216e-21)
(-0.078441434 -0.0059940048 -2.3982608e-20)
(-0.082877221 -0.0077551134 -5.6258396e-21)
(-0.087451461 -0.0096185218 9.0050127e-21)
(-0.092206545 -0.01163332 9.3272697e-21)
(-0.097171149 -0.013865957 1.344707e-20)
(-0.10234235 -0.016399719 1.6801724e-20)
(-0.10763175 -0.019318671 1.0329483e-20)
(-0.11284862 -0.022681586 1.6136129e-20)
(-0.11753814 -0.026442555 -5.4524667e-21)
(-0.12105453 -0.03034252 3.3786837e-20)
(-0.12215333 -0.033657731 2.1916317e-21)
(-0.11960266 -0.035055272 1.7502618e-21)
(-0.11107421 -0.032082229 7.3986526e-22)
(-0.095418428 -0.022019283 -3.8288335e-20)
(-0.068274494 -0.0015462664 -1.3318747e-20)
(-0.029695901 0.030008598 1.881513e-20)
(0.027446474 0.071054572 2.4619269e-20)
(0.10147135 0.10273006 1.1194346e-20)
(0.21694165 0.10263499 3.7225801e-21)
(0.38313692 0.027216352 -2.6419578e-20)
(0.61056176 -0.11065795 6.4097331e-21)
(-2.7929811e-05 0.00014819524 6.4144108e-22)
(-8.7806991e-05 0.00045780382 2.0373281e-21)
(-0.00015585673 0.0007987992 -4.9154491e-21)
(-0.00023352751 0.0011744369 1.8257813e-22)
(-0.00032234215 0.0015881996 2.390729e-21)
(-0.00042414554 0.0020437322 1.053036e-21)
(-0.00054110404 0.0025448155 7.7688004e-22)
(-0.00067574065 0.0030953154 -1.5292194e-21)
(-0.0008309998 0.0036991067 7.9061418e-21)
(-0.0010103145 0.0043599708 -5.9559057e-21)
(-0.0012176825 0.0050814605 2.876641e-22)
(-0.0014577504 0.0058667251 3.5888182e-21)
(-0.0017359051 0.006718289 -1.3385519e-20)
(-0.0020583735 0.007637776 1.3292449e-20)
(-0.0024323248 0.008625573 -1.7623587e-21)
(-0.0028659743 0.0096804256 -1.0849801e-20)
(-0.0033686814 0.010798963 1.0137156e-20)
(-0.0039510322 0.01197515 -3.5151877e-21)
(-0.0046248956 0.01319967 6.7693172e-21)
(-0.0054034326 0.014459248 -8.596153e-21)
(-0.0063010374 0.015735942 -1.5944584e-20)
(-0.0073331744 0.017006409 1.5562203e-20)
(-0.0085160717 0.018241219 2.2442628e-20)
(-0.0098662199 0.01940426 -4.2522703e-20)
(-0.011399618 0.020452361 3.3432786e-20)
(-0.013130719 0.021335342 -1.8995565e-20)
(-0.015071074 0.021996922 4.7812579e-21)
(-0.017227775 0.022377354 -1.1030856e-20)
(-0.019602016 0.022419206 1.0975449e-20)
(-0.022188353 0.022077982 1.4374902e-20)
(-0.024975297 0.021337385 -9.2212304e-21)
(-0.027947347 0.020223279 -1.4731486e-20)
(-0.031087677 0.018804327 1.2271598e-21)
(-0.034380136 0.017172588 4.826883e-22)
(-0.037809749 0.015415256 8.2353928e-21)
(-0.041361994 0.013596404 -3.4188479e-21)
(-0.04502186 0.011754772 -1.2012071e-20)
(-0.048773434 0.0099104782 -5.8657756e-21)
(-0.052600193 0.0080727318 8.7484408e-21)
(-0.056485838 0.0062452607 -6.779706e-21)
(-0.060415558 0.0044293042 5.7460045e-21)
(-0.064377924 0.0026248005 -1.8736549e-21)
(-0.068366574 0.0008302885 -7.3394214e-21)
(-0.07238312 -0.00095733347 1.7862167e-20)
(-0.076440599 -0.0027448591 1.0733616e-20)
(-0.080557568 -0.0045535305 7.1475992e-21)
(-0.084755547 -0.0064224832 -2.290531e-20)
(-0.089054232 -0.0084037296 -1.5099318e-20)
(-0.093447395 -0.010574292 -1.7931601e-20)
(-0.097880596 -0.013038957 -3.1627262e-20)
(-0.1021879 -0.015918861 1.1014405e-20)
(-0.10606233 -0.019332381 -2.362586e-21)
(-0.10886725 -0.023318578 -1.8360893e-20)
(-0.10970045 -0.027726354 -5.3171481e-20)
(-0.10697356 -0.031938598 -3.4135235e-20)
(-0.099053828 -0.034712823 -1.2905907e-20)
(-0.0831895 -0.033596343 -3.5660902e-20)
(-0.057886495 -0.025999141 2.2929339e-20)
(-0.018251222 -0.0083706782 -1.6604987e-21)
(0.035231774 0.020140556 -3.0250922e-20)
(0.10920717 0.05767899 -1.8913128e-20)
(0.2049387 0.084380059 -9.2539812e-22)
(0.34875971 0.076109097 3.3010102e-20)
(0.54885092 -0.005905847 -4.4475611e-21)
(0.7865231 -0.13510872 5.1716585e-21)
(-3.9455279e-05 0.0001792097 2.5386826e-21)
(-0.00012332723 0.00055391667 -1.7114817e-21)
(-0.00021770534 0.0009668711 2.3110352e-21)
(-0.00032418772 0.0014219742 1.3129264e-21)
(-0.00044449738 0.0019233893 -3.6615537e-21)
(-0.00058065925 0.0024754835 -3.4157453e-21)
(-0.00073500969 0.003082795 3.5017912e-21)
(-0.00091022519 0.0037499757 -4.2104512e-22)
(-0.0011093774 0.0044817064 -9.7393655e-23)
(-0.0013359882 0.0052825812 -6.9079825e-21)
(-0.0015940919 0.0061569548 7.5556367e-22)
(-0.0018883018 0.0071087452 1.3867798e-20)
(-0.0022238818 0.0081411823 -1.1055438e-20)
(-0.0026068213 0.0092564956 3.7930307e-22)
(-0.0030439115 0.01045553 7.3514471e-21)
(-0.0035428182 0.011737283 6.2917047e-22)
(-0.0041121465 0.013098361 -1.5907444e-21)
(-0.0047614903 0.014532342 -7.1159612e-21)
(-0.005501453 0.016029058 1.2924514e-20)
(-0.0063436268 0.0175738 -2.2498811e-20)
(-0.0073005076 0.019146465 4.7946896e-21)
(-0.0083853188 0.020720671 -3.4792031e-21)
(-0.0096117068 0.022262891 2.813832e-21)
(-0.010993265 0.023731676 -1.2034869e-22)
(-0.01254284 0.025077089 1.615589e-20)
(-0.014271577 0.026240592 1.580812e-20)
(-0.016187734 0.027155877 -3.0688097e-20)
(-0.018295382 0.027751605 -5.0064681e-21)
(-0.020593355 0.027957746 1.7003295e-20)
(-0.023075067 0.027717563 5.875354e-21)
(-0.025729735 0.027005512 1.2967402e-20)
(-0.028544823 0.025844857 -1.4088071e-20)
(-0.031508348 0.02431108 -5.9333081e-21)
(-0.034609583 0.022511435 1.3160111e-20)
(-0.037838056 0.020551582 -5.2770283e-21)
(-0.041181992 0.018511934 -2.4748192e-21)
(-0.044627371 0.016443052 6.7677049e-21)
(-0.048157906 0.014372812 1.7281051e-20)
(-0.051755682 0.012315641 5.1706344e-21)
(-0.055402175 0.010279363 -3.3731738e-21)
(-0.059079487 0.0082691622 -7.9571002e-21)
(-0.062772091 0.0062893238 -8.2632604e-21)
(-0.066468003 0.0043434989 -9.2141073e-21)
(-0.070161826 0.0024345817 -1.9518691e-20)
(-0.073856746 0.00056097868 5.5336878e-22)
(-0.077555489 -0.001295305 -8.439527e-21)
(-0.081258789 -0.0031720689 4.7124403e-20)
(-0.084956935 -0.0051257243 1.3233318e-20)
(-0.088598715 -0.007246225 1.5350371e-20)
(-0.092063971 -0.0096635358 4.3001466e-20)
(-0.095088417 -0.012542043 -5.0702758e-20)
(-0.097217042 -0.016071109 1.1332142e-20)
(-0.097581917 -0.020387381 3.6330487e-20)
(-0.094977577 -0.025461441 4.3907665e-20)
(-0.087424109 -0.030793158 5.4013105e-21)
(-0.072834086 -0.03523296 -1.3067035e-20)
(-0.047926778 -0.036283935 -1.9491001e-20)
(-0.010962218 -0.031512476 7.6511036e-21)
(0.043454974 -0.01694607 -1.1506474e-20)
(0.114 0.0084451268 9.2843574e-21)
(0.20720184 0.042424319 2.7909896e-21)
(0.32782699 0.06396676 8.745626e-21)
(0.50149636 0.04790624 -4.1268715e-20)
(0.7293699 -0.036643544 -1.286279e-21)
(0.95343466 -0.14994753 -1.6699566e-20)
(-5.2324981e-05 0.00020689822 -2.3908188e-21)
(-0.0001630004 0.00063977064 -6.4009158e-22)
(-0.00028679568 0.0011170737 7.0295729e-22)
(-0.00042547808 0.0016433051 3.4532391e-21)
(-0.0005809943 0.0022232567 -4.1384945e-21)
(-0.00075557157 0.0028619676 3.5110278e-21)
(-0.00095173776 0.0035646865 1.676211e-21)
(-0.0011723429 0.00433681 -8.9669493e-23)
(-0.0014206038 0.0051837911 -1.4104919e-21)
(-0.0017001453 0.0061110142 -8.0047061e-21)
(-0.0020150475 0.0071236296 1.3404413e-20)
(-0.0023698929 0.0082263381 -1.6053061e-20)
(-0.0027698154 0.0094231167 4.6950996e-21)
(-0.0032205494 0.010716876 6.3420453e-21)
(-0.0037284748 0.012109036 -9.6708597e-21)
(-0.004300657 0.013599019 1.8933396e-20)
(-0.0049448746 0.015183638 -2.2765237e-20)
(-0.0056696291 0.016856392 -3.5614378e-22)
(-0.0064841279 0.018606652 -1.27955e-20)
(-0.0073982265 0.02041876 5.0191768e-20)
(-0.0084223131 0.022271041 -1.1996616e-20)
(-0.0095671137 0.024134769 -4.8960408e-20)
(-0.010843385 0.025973127 2.2793853e-20)
(-0.012261463 0.027740232 2.6770422e-20)
(-0.013830622 0.029380365 -6.6157594e-21)
(-0.015558229 0.030827647 -3.4057018e-20)
(-0.017448727 0.032006707 5.0644498e-20)
(-0.019502595 0.032835366 -5.508867e-20)
(-0.021715707 0.033231229 4.2444317e-20)
(-0.024079715 0.033124602 -7.9277157e-21)
(-0.026583999 0.032478558 1.3255086e-20)
(-0.029218673 0.031310234 1.8288053e-20)
(-0.031976722 0.029698034 -6.8750566e-21)
(-0.034853443 0.027761738 -1.6723291e-21)
(-0.037843676 0.025624852 -2.35825e-20)
(-0.040939079 0.023384965 4.3352209e-21)
(-0.044126967 0.021105715 -1.0884463e-20)
(-0.047390658 0.018823762 9.038748e-21)
(-0.050710518 0.016559388 -5.1154657e-21)
(-0.054065198 0.014324833 -3.3606009e-21)
(-0.057432856 0.012129343 -2.9001599e-21)
(-0.060792686 0.0099815174 -2.8275237e-21)
(-0.064125533 0.0078900798 1.7437313e-20)
(-0.067417038 0.0058638956 1.3992839e-20)
(-0.070657038 0.0039061597 -3.9756036e-21)
(-0.073828685 0.0020012804 2.6249756e-21)
(-0.076905982 0.00011280633 -1.0800825e-20)
(-0.079840918 -0.0018216605 2.2107908e-20)
(-0.082523719 -0.0039074583 2.6164366e-20)
(-0.084748553 -0.0063031959 7.6917572e-21)
(-0.086122081 -0.0092229122 2.0095547e-20)
(-0.085991364 -0.012937435 -6.3240389e-22)
(-0.083192176 -0.017688367 -9.6446509e-21)
(-0.076154953 -0.0235763 -4.6301291e-20)
(-0.062405776 -0.030211514 2.2636914e-20)
(-0.039294522 -0.036548544 -8.5226741e-21)
(-0.0029450385 -0.039925973 2.3520291e-20)
(0.048540216 -0.038056103 -3.5212791e-20)
(0.12067407 -0.026553089 1.8502628e-20)
(0.21121126 -0.0040104042 -5.1407387e-21)
(0.32659889 0.026607495 -8.565476e-23)
(0.47512694 0.042971039 -4.2800805e-21)
(0.67777311 0.020547358 -1.6480765e-20)
(0.91845947 -0.059545188 3.5702743e-20)
(1.0858501 -0.15284659 -3.001101e-20)
(-6.6146152e-05 0.00023067344 5.3571166e-21)
(-0.00020564272 0.00071354082 3.683704e-21)
(-0.00036105809 0.0012462237 -5.7806473e-21)
(-0.00053437341 0.0018337477 1.5212365e-22)
(-0.00072776668 0.002481471 5.2213053e-21)
(-0.00094368655 0.0031950424 2.7283774e-21)
(-0.0011848708 0.003980361 -5.7454144e-21)
(-0.001454361 0.0048435139 9.425725e-22)
(-0.0017555355 0.0057906797 -1.3272175e-20)
(-0.0020921378 0.0068279993 2.582839e-21)
(-0.0024683059 0.007961401 6.6133953e-23)
(-0.0028886004 0.0091963738 -9.4627495e-21)
(-0.0033580288 0.010537677 3.0242899e-20)
(-0.0038820667 0.011988976 -1.4047192e-20)
(-0.0044666708 0.013552388 -2.5073125e-20)
(-0.0051182815 0.015227938 2.6598107e-20)
(-0.0058438112 0.017012899 -3.2583929e-21)
(-0.0066506119 0.018901025 1.8384826e-20)
(-0.0075464137 0.020881661 1.3556984e-20)
(-0.0085392264 0.022938741 -4.228594e-20)
(-0.0096371883 0.025049686 3.1447173e-20)
(-0.010848345 0.027184224 -4.0959813e-20)
(-0.012180336 0.029303177 4.7541222e-21)
(-0.013639956 0.031357288 -1.9190994e-20)
(-0.015232568 0.033286223 4.1136181e-20)
(-0.016961355 0.035017997 -9.6067164e-21)
(-0.018826464 0.036469386 -2.3875734e-20)
(-0.020824225 0.037548394 5.6701447e-20)
(-0.022946892 0.038160781 -2.4153268e-20)
(-0.025183596 0.038223408 -2.5473032e-20)
(-0.027523059 0.03768589 2.0516605e-20)
(-0.02995735 0.036555389 2.6782205e-21)
(-0.032484151 0.034908536 -1.2929534e-20)
(-0.035105122 0.032874004 6.8759708e-21)
(-0.037821194 0.030591836 -1.0168016e-20)
(-0.040628238 0.028177458 3.4401218e-20)
(-0.043515378 0.025708972 -1.751837e-20)
(-0.046465596 0.023233054 -1.027638e-20)
(-0.049457218 0.020776643 -2.0751473e-20)
(-0.052465411 0.018356804 -2.8307052e-21)
(-0.055463421 0.015986981 2.1695475e-20)
(-0.058423742 0.013680063 -8.7694359e-21)
(-0.061318333 0.011449722 -1.2999022e-20)
(-0.064121447 0.0093106264 -1.9698475e-21)
(-0.066805005 0.0072702704 1.3178011e-20)
(-0.069327988 0.0053150153 1.1802189e-20)
(-0.071629997 0.0034091198 -3.6466448e-20)
(-0.073611978 0.0014825386 -1.9605599e-20)
(-0.07508604 -0.00058786923 -4.3172968e-20)
(-0.075730322 -0.0029926841 -1.5351491e-20)
(-0.074972918 -0.0060016667 -6.0391513e-21)
(-0.071886653 -0.0099737179 -4.452122e-20)
(-0.064926126 -0.015255326 -1.7080063e-20)
(-0.052035293 -0.022073988 5.7001401e-20)
(-0.030014335 -0.030133031 -4.3906755e-20)
(0.0045939966 -0.038405819 3.8101709e-20)
(0.056382794 -0.043985776 -1.6396653e-20)
(0.12720671 -0.044632413 7.0306781e-20)
(0.22208502 -0.035177764 3.0133943e-20)
(0.33741833 -0.014445903 -1.0125911e-20)
(0.47935798 0.01322239 -1.4855462e-20)
(0.65522601 0.025457518 -2.6908938e-20)
(0.87918717 0.00039390367 -4.2186721e-21)
(1.0860811 -0.070146455 -4.9239627e-21)
(1.1558583 -0.14357726 3.8842633e-20)
(-8.0478421e-05 0.00025004414 9.7457783e-23)
(-0.00024987956 0.00077370665 -6.9334995e-21)
(-0.00043811078 0.0013516595 8.1702456e-21)
(-0.00064738536 0.0019893806 3.9297109e-21)
(-0.00088012208 0.0026927203 -7.8654703e-21)
(-0.0011390043 0.0034678618 -2.5455329e-21)
(-0.0014269935 0.0043212824 1.2333054e-20)
(-0.0017473371 0.005259691 -1.3255116e-20)
(-0.0021035902 0.0062899324 -2.79195e-21)
(-0.0024996299 0.0074188554 -1.1085102e-20)
(-0.002939668 0.0086531358 2.9367062e-20)
(-0.0034282579 0.0099990439 3.566289e-22)
(-0.0039702952 0.011462145 -2.6206673e-20)
(-0.004571009 0.013046922 2.8014278e-20)
(-0.0052359417 0.014756305 -1.995396e-20)
(-0.0059709143 0.016591101 -7.3557117e-21)
(-0.0067819716 0.018549298 1.5261477e-20)
(-0.0076753046 0.020625254 -1.3661949e-20)
(-0.0086571431 0.022808741 -1.8027668e-20)
(-0.00973361 0.02508387 3.7726563e-22)
(-0.010910529 0.027427875 2.7814031e-20)
(-0.012193171 0.029809809 -1.6990822e-20)
(-0.013585922 0.032189164 9.343565e-21)
(-0.015091853 0.034514496 4.4525535e-20)
(-0.016712171 0.036722185 1.468204e-20)
(-0.018445554 0.038735579 -3.9244132e-20)
(-0.020287444 0.040465059 3.8640337e-21)
(-0.022229488 0.041810135 -4.2934267e-20)
(-0.024259631 0.042665597 2.4972564e-20)
(-0.026363595 0.042934757 -1.297373e-20)
(-0.028528357 0.042551978 1.84245e-20)
(-0.030746814 0.041510525 4.4016324e-21)
(-0.033020577 0.039879895 -2.1455481e-20)
(-0.03535762 0.037792917 2.1432446e-20)
(-0.0377656 0.035403927 3.0552946e-20)
(-0.040245455 0.032846432 -2.7858089e-21)
(-0.04278874 0.030214432 -3.1013506e-20)
(-0.045378258 0.027566062 3.8816397e-20)
(-0.047989999 0.024935907 -8.215315e-21)
(-0.050594915 0.022346366 1.7492394e-20)