/*--------------------------------*- C++ -*----------------------------------*\
  =========                 |
  \\      /  F ield         | OpenFOAM: The Open Source CFD Toolbox
   \\    /   O peration     | Website:  https://openfoam.org
    \\  /    A nd           | Version:  13
     \\/     M anipulation  |
\*---------------------------------------------------------------------------*/
FoamFile
{
    format      ascii;
    class       volSymmTensorField;
    location    "30.203761";
    object      UPrime2Mean;
}
// * * * * * * * * * * * * * * * * * * * * * * * * * * * * * * * * * * * * * //

dimensions      [0 2 -2 0 0 0 0];

internalField   nonuniform List<symmTensor> 
17140
(
(5.3326564e-12 -2.9500157e-10 -1.6967269e-27 1.8045073e-08 2.4887587e-26 9.9433942e-41)
(5.9349676e-10 -6.4391556e-09 -7.7142455e-28 1.7135384e-07 5.1765629e-27 8.5268933e-43)
(5.2843066e-09 -2.9710988e-08 1.2769651e-25 5.1879865e-07 -5.3580547e-25 3.7157657e-39)
(2.4788376e-08 -8.8495407e-08 -2.7531045e-25 1.1132656e-06 8.1707985e-25 4.4884864e-39)
(8.2726592e-08 -2.0904769e-07 5.5455526e-26 2.0171487e-06 -1.2500998e-25 6.1304878e-41)
(2.2620762e-07 -4.2950434e-07 -2.8926473e-25 3.3029618e-06 5.1722821e-25 6.5615947e-40)
(5.4244851e-07 -8.0324801e-07 -7.3773955e-25 5.0536021e-06 1.0731023e-24 1.8580822e-39)
(1.1845874e-06 -1.4029011e-06 5.2598139e-25 7.3620462e-06 -6.327694e-25 4.4235887e-40)
(2.4110866e-06 -2.3247605e-06 2.4478853e-24 1.0330188e-05 -2.4643807e-24 4.7326249e-39)
(4.6443059e-06 -3.6931805e-06 8.354864e-24 1.4066525e-05 -7.1015444e-24 2.8422727e-38)
(8.5554215e-06 -5.6641872e-06 -1.6943439e-23 1.8682359e-05 1.2243217e-23 6.2366387e-38)
(1.5184394e-05 -8.42727e-06 2.0363332e-23 2.4286191e-05 -1.257643e-23 4.9404412e-38)
(2.6104786e-05 -1.2203858e-05 4.1557697e-24 3.0976077e-05 -2.202874e-24 1.1537999e-39)
(4.3643147e-05 -1.7240585e-05 -3.0984763e-23 3.8829886e-05 1.4147639e-23 3.6766362e-38)
(7.1160649e-05 -2.3795271e-05 4.4984801e-24 4.7893705e-05 -1.7736413e-24 4.5115641e-40)
(0.00011339949 -3.2113815e-05 -4.6195242e-23 5.8169067e-05 1.5762674e-23 2.815349e-38)
(0.0001768874 -4.2397354e-05 2.2069514e-24 6.9600213e-05 -6.5289847e-25 3.8740452e-41)
(0.00027038042 -5.4761382e-05 -6.3923089e-25 8.2063069e-05 1.6375542e-25 1.9251029e-42)
(0.00040530918 -6.9192452e-05 -5.68322e-23 9.5358028e-05 1.2665945e-23 9.5980387e-39)
(0.000596182 -8.5512895e-05 9.2490273e-23 0.00010920848 -1.7916003e-23 1.5932112e-38)
(0.00086089853 -0.00010336847 -5.5456705e-23 0.00012326654 9.3392261e-24 3.6378863e-39)
(0.0012209472 -0.00012225406 1.2995354e-23 0.00013712675 -1.9059252e-24 1.3004452e-40)
(0.0017015819 -0.00014159054 1.1699636e-22 0.00015034789 -1.4914649e-23 6.9060634e-39)
(0.0023323117 -0.00016085263 -1.4074752e-22 0.00016248502 1.5611785e-23 6.6960662e-39)
(0.0031467627 -0.00017964105 -2.6723463e-22 0.00017313749 2.5787933e-23 1.651527e-38)
(0.0041831562 -0.00019759123 2.532092e-22 0.00018201133 -2.126473e-23 1.0369014e-38)
(0.0054881199 -0.00021473956 1.4546105e-21 0.00018895115 -1.0616457e-22 2.431787e-37)
(0.0071182763 -0.00023098656 1.9907967e-22 0.00019396737 -1.2604051e-23 3.2851655e-39)
(0.0091397786 -0.00024565682 -2.0057277e-21 0.00019722632 1.1017343e-22 2.4707873e-37)
(0.011631671 -0.00025842725 -5.3718963e-22 0.00019903008 2.5506126e-23 1.3224071e-38)
(0.014688668 -0.00026895784 -2.1797605e-21 0.00019974437 8.9269469e-23 1.6548851e-37)
(0.018422021 -0.00027658979 3.2470615e-21 0.0001997125 -1.1431886e-22 2.8283917e-37)
(0.022960609 -0.0002805268 -9.5551262e-22 0.00019919242 2.8765656e-23 1.9008741e-38)
(0.028451297 -0.00027980006 -5.1192648e-22 0.00019831916 1.3129157e-23 4.3110533e-39)
(0.035058362 -0.00027322496 -5.6421717e-21 0.00019710969 1.2207934e-22 4.1508446e-37)
(0.042961238 -0.00025929615 2.7553155e-21 0.00019551501 -4.9966676e-23 7.986878e-38)
(0.052349196 -0.00023605345 -4.6156229e-21 0.00019348182 6.9191081e-23 1.8152488e-37)
(0.063411286 -0.00020094944 -3.4531319e-21 0.00019100617 4.2152763e-23 8.3303717e-38)
(0.076319403 -0.00015068041 -1.7403376e-21 0.00018820165 1.692585e-23 1.750105e-38)
(0.091202417 -8.100097e-05 5.7592581e-21 0.00018535041 -4.3405759e-23 1.6097661e-37)
(0.10811076 1.3171055e-05 1.1825227e-20 0.0001829273 -6.589507e-23 5.732965e-37)
(0.12697172 0.00013736946 1.1594791e-20 0.00018154561 -4.4310868e-23 4.7111055e-37)
(0.1475419 0.00029633379 5.4311401e-21 0.00018181114 -1.2233226e-23 8.9425062e-38)
(0.16938345 0.00049265861 -2.8245151e-20 0.00018423549 2.3436139e-23 2.1045404e-36)
(0.19184388 0.00072445883 -2.1879251e-20 0.00018927658 -1.0088332e-23 1.1154547e-36)
(0.21410631 0.00098125597 5.6489552e-21 0.00019733676 9.2680657e-24 6.6628488e-38)
(0.23536884 0.0012522935 -4.0067489e-20 0.00020887242 -1.0963636e-22 3.0390745e-36)
(0.25472413 0.0015266678 -1.4083083e-20 0.00022439084 -5.2930635e-23 3.4533762e-37)
(0.27138515 0.0017952251 1.4725076e-20 0.0002443236 6.9546431e-23 3.5264656e-37)
(0.28488495 0.0020504988 3.6690277e-20 0.00026919202 2.0654994e-22 2.0763903e-36)
(0.29487545 0.002289059 -2.2801766e-20 0.00030009264 -1.4761192e-22 7.7313483e-37)
(0.30107052 0.0025175445 -1.4405756e-20 0.00033977555 -1.0446586e-22 3.0240501e-37)
(0.30339756 0.0027653904 3.7294942e-20 0.00039100779 2.9933592e-22 2.0178781e-36)
(0.30206561 0.0030385405 1.734889e-20 0.00045721155 1.5194167e-22 4.4234451e-37)
(0.2976199 0.0033100597 1.2058298e-20 0.00054411898 1.1351704e-22 2.2062391e-37)
(0.29100203 0.0035507101 -9.1869203e-21 0.00066183938 -9.1833044e-23 1.3384568e-37)
(0.28317885 0.0037099871 2.3689501e-20 0.0008241024 2.4518978e-22 9.5825834e-37)
(0.27470711 0.0037102947 1.8796794e-20 0.0010530251 1.9826372e-22 6.5848309e-37)
(0.2658696 0.0034686559 4.4177999e-21 0.0013729638 4.6526605e-23 4.0768507e-38)
(0.2563263 0.0029667928 -1.0614998e-20 0.0017956966 -1.1204136e-22 2.6783295e-37)
(0.24527856 0.0023644056 -7.6042066e-21 0.0022676943 -8.3243844e-23 1.6266986e-37)
(0.23254845 0.0019600931 -2.5498704e-20 0.002645867 -3.1591203e-22 2.2127304e-36)
(0.21533298 0.0021010624 -3.3249634e-21 0.0028238521 -5.2534492e-23 4.7402038e-38)
(0.19706957 0.0028917827 2.4667315e-20 0.0029413036 5.2621289e-22 3.3467289e-36)
(0.16965684 0.0038228791 -1.6193155e-20 0.00335733 -4.7172578e-22 1.9996183e-36)
(3.6789526e-10 -8.601365e-09 2.1783929e-27 2.0114198e-07 -4.2638378e-26 8.0525082e-42)
(5.8898488e-09 -1.0544333e-07 -6.9607681e-25 1.8976298e-06 1.0871188e-23 1.0231586e-37)
(2.6520314e-08 -3.8685001e-07 1.1928666e-24 5.7113098e-06 -1.5171743e-23 8.0990661e-38)
(8.2759119e-08 -9.9420207e-07 -5.4181087e-25 1.217588e-05 5.7191555e-24 6.0162431e-39)
(2.1187088e-07 -2.1261008e-06 -1.7309175e-24 2.1900336e-05 1.5426821e-23 2.5658107e-38)
(4.8018207e-07 -4.0657091e-06 4.8828381e-24 3.5563091e-05 -3.7216476e-23 9.361061e-38)
(1.0010518e-06 -7.2055285e-06 -7.2759729e-24 5.3899099e-05 4.7805255e-23 1.0162488e-37)
(1.9620787e-06 -1.2076802e-05 8.9383084e-25 7.7676302e-05 -5.0895789e-24 7.8623296e-40)
(3.665867e-06 -1.938364e-05 -3.8237944e-24 0.00010765818 1.8942882e-23 7.6523511e-39)
(6.5895547e-06 -3.0038961e-05 -8.7778132e-26 0.00014454936 3.7954679e-25 2.182353e-42)
(1.1469867e-05 -4.5198584e-05 -2.2990615e-23 0.00018892184 8.6928477e-23 8.4956889e-38)
(1.9421812e-05 -6.6287516e-05 4.8228955e-23 0.00024112121 -1.598045e-22 2.138954e-37)
(3.2100108e-05 -9.5009848e-05 5.2142799e-24 0.0003011553 -1.5163348e-23 1.4539588e-39)
(5.1912265e-05 -0.00013333067 -6.683756e-23 0.00036857273 1.7077904e-22 1.4099139e-37)
(8.2290266e-05 -0.00018341652 2.6463202e-23 0.00044234616 -5.9458744e-23 1.3220177e-38)
(0.00012802297 -0.00024752131 2.152431e-23 0.00052078308 -4.2547812e-23 5.2904828e-39)
(0.00019564292 -0.00032780918 -1.7373851e-22 0.00060149556 3.0220751e-22 2.108176e-37)
(0.00029384925 -0.00042611805 7.1490258e-22 0.00068146551 -1.0942873e-21 2.2102002e-36)
(0.00043393466 -0.00054368799 -5.6129154e-22 0.00075723801 7.5593924e-22 8.5360305e-37)
(0.00063017449 -0.00068090772 8.3684132e-22 0.00082525842 -9.914086e-22 1.2035877e-36)
(0.0009001363 -0.00083716267 -1.5251633e-21 0.00088233308 1.589085e-21 2.5729735e-36)
(0.0012648877 -0.0010108834 4.5717042e-22 0.00092614287 -4.1885157e-22 1.5109041e-37)
(0.0017491903 -0.0011998973 2.2807061e-22 0.00095568582 -1.8372954e-22 2.5004079e-38)
(0.0023820054 -0.0014021398 -8.9516447e-22 0.00097150325 6.3393799e-22 2.5997408e-37)
(0.0031965006 -0.0016162725 3.8233189e-21 0.00097559548 -2.3809439e-21 3.2692757e-36)
(0.0042302893 -0.0018420318 6.7262453e-22 0.0009708893 -3.6822713e-22 7.0741458e-38)
(0.0055292539 -0.0020807995 -4.0578511e-21 0.00096008801 1.9547801e-21 1.849484e-36)
(0.0071494155 -0.0023348669 5.2693596e-21 0.00094550265 -2.231899e-21 2.2677487e-36)
(0.0091559644 -0.0026060616 -8.3044598e-22 0.00092932453 3.0932936e-22 4.1978585e-38)
(0.01162675 -0.0028965814 -9.3300741e-21 0.00091300423 3.047727e-21 3.9462252e-36)
(0.014654997 -0.0032083129 1.0982056e-21 0.00089718866 -3.1459579e-22 4.1825994e-38)
(0.018350106 -0.0035420072 9.56042e-21 0.00088196252 -2.3953622e-21 2.426868e-36)
(0.022838648 -0.0038972983 2.7711381e-22 0.00086704125 -6.0425136e-23 1.5255768e-39)
(0.028264645 -0.0042725268 -9.0424027e-21 0.0008519216 1.7282984e-21 1.3340038e-36)
(0.034788799 -0.0046644097 1.1294153e-20 0.00083596307 -1.8818883e-21 1.6596858e-36)
(0.042586026 -0.0050673546 -5.6765648e-21 0.00081843541 8.2324738e-22 3.370712e-37)
(0.05183981 -0.0054723789 7.4024455e-21 0.00079854976 -9.3322414e-22 4.6857204e-37)
(0.062731739 -0.0058657 2.6067994e-20 0.00077551575 -2.8490576e-21 4.7604689e-36)
(0.075424228 -0.0062271284 6.4382943e-21 0.00074868261 -6.0829905e-22 2.4000217e-37)
(0.090034226 -0.0065286166 2.7533695e-20 0.00071777671 -2.2409887e-21 3.6838366e-36)
(0.10659735 -0.0067338027 -3.8348812e-20 0.00068328508 2.6754247e-21 6.0638009e-36)
(0.12502326 -0.0067998524 -3.8243296e-20 0.00064698495 2.2715305e-21 5.1439894e-36)
(0.14504897 -0.0066828525 -7.0687035e-21 0.00061252189 3.5443697e-22 1.5058422e-37)
(0.16621149 -0.0063466429 6.0017751e-20 0.00058583079 -2.5028951e-21 9.6022364e-36)
(0.18782955 -0.0057747196 -3.0189329e-20 0.00057516816 1.0305698e-21 2.13761e-36)
(0.20907838 -0.004985928 -1.102389e-20 0.00058988636 3.0089428e-22 2.5487829e-37)
(0.22907065 -0.0040219971 6.1281015e-21 0.0006364795 -1.2883689e-22 7.2479586e-38)
(0.24695549 -0.0029373217 1.9859541e-20 0.0007133074 -3.0369707e-22 6.9696392e-37)
(0.26202777 -0.0018116175 -9.9693694e-21 0.00081170136 1.0083137e-22 1.6456843e-37)
(0.27377089 -0.00070404198 1.841228e-20 0.00092123733 -9.7699613e-23 5.3283235e-37)
(0.28186605 0.00036261111 1.118369e-19 0.0010349615 -1.0146106e-22 1.9014137e-35)
(0.2861478 0.0013710272 5.3395023e-21 0.0011553204 1.7372614e-23 4.2709304e-38)
(0.28667048 0.002293291 -2.3879618e-20 0.0012902618 -1.6725517e-22 8.5280639e-37)
(0.28379094 0.0030787716 5.2240404e-20 0.0014484294 5.5789632e-22 4.1517661e-36)
(0.27828752 0.0036596541 -4.3459731e-20 0.0016374943 -6.1756454e-22 2.9763503e-36)
(0.27113928 0.0040019735 1.1901994e-19 0.0018629389 2.0915262e-21 2.3561142e-35)
(0.2634208 0.0041089773 3.2473686e-20 0.0021289123 6.7974148e-22 1.8858017e-36)
(0.25578627 0.0039739217 -8.6447171e-20 0.0024439001 -2.0814262e-21 1.4722246e-35)
(0.24847449 0.0036359613 1.3775887e-20 0.0028101232 3.8092005e-22 4.1869058e-37)
(0.2410715 0.003152811 1.4517426e-20 0.0032049759 4.5111653e-22 5.3908875e-37)
(0.2324213 0.0027821218 2.6550255e-21 0.003557826 9.3822666e-23 2.1520432e-38)
(0.22210094 0.0028440261 -3.1857645e-20 0.0037358354 -1.3181448e-21 3.7795384e-36)
(0.20667338 0.0036316831 5.4783814e-20 0.0036826878 2.7207543e-21 1.4320728e-35)
(0.18979544 0.0052385493 1.4354956e-20 0.0036259344 8.7727144e-22 1.2830127e-36)
(0.16270323 0.0064969008 1.9948058e-20 0.004021923 1.5378001e-21 3.542832e-36)
(3.153119e-09 -4.5019343e-08 3.2054074e-25 6.4278178e-07 -4.296048e-24 2.4475508e-38)
(3.5901384e-08 -4.6656897e-07 -4.8890432e-25 6.0650118e-06 6.0073976e-24 9.3467974e-39)
(1.275531e-07 -1.5254187e-06 -2.2325298e-25 1.8255974e-05 2.504677e-24 6.608532e-40)
(3.2367606e-07 -3.5470203e-06 3.2057777e-25 3.8925865e-05 -3.282561e-24 5.9387475e-40)
(6.9516121e-07 -6.9690652e-06 -2.2199289e-24 7.0026795e-05 2.0767362e-23 1.3937851e-38)
(1.3537591e-06 -1.2387843e-05 -2.2823114e-25 0.00011373496 1.9517479e-24 7.6998345e-41)
(2.4725518e-06 -2.060074e-05 -3.9319922e-24 0.00017240983 3.0706335e-23 1.2561294e-38)
(4.3156264e-06 -3.2655691e-05 -5.6229543e-24 0.00024851902 4.0038269e-23 1.4565698e-38)
(7.2809898e-06 -4.99076e-05 6.0213422e-23 0.00034451827 -3.9017707e-22 9.7163177e-37)
(1.1961161e-05 -7.4076658e-05 -6.9775045e-23 0.00046267646 4.1064278e-22 7.7322536e-37)
(1.9227309e-05 -0.00010730223 4.3004682e-23 0.00060483729 -2.2941254e-22 1.7668972e-37)
(3.0343814e-05 -0.00015218221 8.0660808e-23 0.00077211451 -3.8928389e-22 3.782856e-37)
(4.7120866e-05 -0.00021178334 -2.0364332e-22 0.00096452791 8.8747191e-22 1.482375e-36)
(7.2112414e-05 -0.00028960352 -3.1957748e-23 0.0011806032 1.2552686e-22 2.261225e-38)
(0.00010886498 -0.00038946375 1.5564948e-22 0.0014169819 -5.5001576e-22 3.3522365e-37)
(0.00016221886 -0.00051530835 1.3445551e-22 0.0016681159 -4.2664704e-22 1.5729241e-37)
(0.00023865619 -0.0006709004 -1.9502178e-22 0.0019261503 5.546608e-22 2.0963114e-37)
(0.00034668089 -0.00085941888 8.7883836e-22 0.0021811167 -2.2361628e-21 2.7167558e-36)
(0.00049720468 -0.0010829992 -6.4297594e-22 0.0024215539 1.4610176e-21 9.3647202e-37)
(0.00070390617 -0.0013423074 3.9137859e-22 0.0026356196 -7.9278745e-22 2.2537325e-37)
(0.0009835323 -0.0016362911 -1.6124245e-21 0.0028126443 2.9070217e-21 2.5159713e-36)
(0.0013561273 -0.0019622761 -5.0865724e-22 0.0029449081 8.1497981e-22 1.6668733e-37)
(0.0018452602 -0.0023165811 1.2761089e-21 0.0030292334 -1.8147041e-21 7.0897807e-37)
(0.0024785549 -0.0026957635 -2.2905739e-21 0.0030678742 2.8874716e-21 1.5664743e-36)
(0.0032880173 -0.0030978739 -1.0673325e-21 0.0030682956 1.1912679e-21 2.3668431e-37)
(0.0043097226 -0.0035229551 1.4991353e-21 0.0030413958 -1.4811148e-21 3.3304961e-37)
(0.0055877446 -0.0039739767 9.9076276e-21 0.0029976068 -8.6522597e-21 1.0477991e-35)
(0.0071764806 -0.0044559278 5.1796914e-21 0.0029453829 -3.9945021e-21 2.0971166e-36)
(0.0091386357 -0.0049731871 -2.9579749e-21 0.0028915301 2.0134163e-21 5.1246534e-37)
(0.011549116 -0.005530494 3.6277697e-21 0.002840314 -2.1733456e-21 5.7727669e-37)
(0.014497294 -0.0061319712 -2.5629726e-21 0.0027932567 1.3519591e-21 2.2323705e-37)
(0.018087875 -0.0067797418 -1.6487027e-20 0.0027499369 7.6327504e-21 7.0972066e-36)
(0.022441552 -0.007473778 6.2246205e-21 0.0027087999 -2.5277997e-21 7.9254361e-37)
(0.02769508 -0.0082115911 2.0897745e-20 0.0026677551 -7.4350134e-21 7.0604883e-36)
(0.034000123 -0.0089876055 -7.7823952e-21 0.002624419 2.424717e-21 7.8898087e-37)
(0.041520209 -0.0097918872 -1.2190612e-20 0.0025761227 3.3194652e-21 1.5560176e-36)
(0.050424449 -0.010608126 2.3493078e-20 0.0025198274 -5.5851362e-21 4.7109499e-36)
(0.060876237 -0.011410994 7.9588376e-21 0.0024521461 -1.6488794e-21 4.4315074e-37)
(0.073015014 -0.012163139 -1.556276e-20 0.0023696494 2.8053587e-21 1.4184582e-36)
(0.08692916 -0.012812486 -6.8389253e-21 0.0022696219 1.0693952e-21 2.3075156e-37)
(0.1026194 -0.01329137 3.5967842e-20 0.0021514707 -4.8582099e-21 5.3899414e-36)
(0.1199544 -0.013519927 -1.1011038e-20 0.002018995 1.2764893e-21 4.3753932e-37)
(0.13862567 -0.013415674 -1.7249467e-20 0.0018829925 1.7072568e-21 9.2530708e-37)
(0.15811879 -0.012910359 -4.9487425e-20 0.0017632695 4.1362902e-21 6.6453635e-36)
(0.17770939 -0.011974062 1.0012231e-19 0.0016888079 -6.9636335e-21 2.4179725e-35)
(0.19655129 -0.010643678 -6.8531574e-20 0.001692505 3.8955397e-21 1.0171999e-35)
(0.21376866 -0.0090111475 -1.8180055e-20 0.001795258 8.2650154e-22 6.4813443e-37)
(0.22857178 -0.0071910934 -7.4548977e-20 0.0019907293 2.597679e-21 1.0159563e-35)
(0.24035394 -0.0053223851 -9.2039482e-20 0.0022513881 2.3310938e-21 1.457528e-35)
(0.24875901 -0.0035194002 -4.783253e-21 0.0025386944 8.2548069e-23 3.739255e-38)
(0.25365494 -0.0018419822 2.0464906e-20 0.0028254281 -1.7631024e-22 6.666779e-37)
(0.2550726 -0.00032495142 -1.5043317e-19 0.0031138398 1.1862416e-22 3.5787338e-35)
(0.25325461 0.00097589092 -6.3583595e-20 0.0034250213 -3.9664766e-22 6.4379708e-36)
(0.24874512 0.0019603457 -6.4153028e-20 0.0037790132 -8.3122871e-22 6.7162019e-36)
(0.24247532 0.0025308485 -2.0497874e-20 0.0041801109 -4.0507541e-22 7.1521624e-37)
(0.2355222 0.0026601446 -1.5240087e-19 0.0046162281 -3.9450541e-21 4.214224e-35)
(0.22897892 0.0024202101 5.7719341e-20 0.0050646318 1.8837021e-21 6.553769e-36)
(0.22338675 0.0019174593 -1.650691e-20 0.0055023485 -6.4377249e-22 5.9869819e-37)
(0.21872296 0.0013392306 -1.2651241e-19 0.005895464 -5.8430012e-21 3.9834538e-35)
(0.21432645 0.00085595069 -4.632332e-20 0.0061786406 -2.508306e-21 6.2401765e-36)
(0.20847041 0.00083064445 4.9970601e-20 0.0062658449 3.1534985e-21 8.8016063e-36)
(0.20058162 0.0016093771 1.5373705e-19 0.0060410066 1.1445236e-20 1.0386617e-34)
(0.18630001 0.003312821 -4.279242e-20 0.0055500514 -3.8122327e-21 1.0590649e-35)
(0.170626 0.005961441 -5.9470549e-20 0.0051608602 -6.4769595e-21 2.7510915e-35)
(0.14380099 0.0076402798 -2.0876446e-20 0.0053570569 -2.8414408e-21 5.0460349e-36)
(1.2503884e-08 -1.2711437e-07 -2.1106711e-24 1.2922469e-06 2.0792707e-23 2.7449307e-37)
(1.2879734e-07 -1.2535093e-06 6.6301952e-24 1.2200082e-05 -6.2602546e-23 4.858988e-37)
(4.2100846e-07 -3.9328259e-06 -3.9334932e-24 3.6742013e-05 3.5440483e-23 6.3505108e-38)
(9.8207899e-07 -8.773083e-06 6.2008366e-25 7.8388376e-05 -5.3206672e-24 7.5020407e-40)
(1.9436797e-06 -1.6558185e-05 -1.6823106e-23 0.00014111188 1.3727257e-22 2.9305852e-37)
(3.495469e-06 -2.8306303e-05 2.3146963e-23 0.00022935819 -1.7929765e-22 3.1354889e-37)
(5.9085298e-06 -4.5323966e-05 -4.5720086e-23 0.00034797104 3.3535391e-22 7.2095465e-37)
(9.5675864e-06 -6.9266355e-05 2.7581828e-23 0.00050204916 -1.9099403e-22 1.5945568e-37)
(1.5015688e-05 -0.00010220372 1.330233e-22 0.00069671372 -8.6677364e-22 2.3023488e-36)
(2.301467e-05 -0.00014668659 -4.0232047e-23 0.00093676419 2.4583454e-22 1.3293238e-37)
(3.4626048e-05 -0.00020580135 -1.9164593e-22 0.0012262041 1.0943756e-21 1.9248942e-36)
(5.1317522e-05 -0.00028320311 7.2824088e-23 0.0015676271 -3.8727722e-22 1.7901308e-37)
(7.5100765e-05 -0.0003831075 6.0280704e-24 0.0019614732 -2.9748923e-23 7.9762226e-40)
(0.00010870568 -0.00051021834 -2.9244711e-22 0.0024051961 1.3348126e-21 1.2179752e-36)
(0.00015579503 -0.00066956461 1.1287945e-21 0.00289243 -4.74818e-21 1.1867116e-35)
(0.0002212201 -0.00086622258 -8.528768e-22 0.0034123005 3.2947503e-21 4.4469592e-36)
(0.00031131363 -0.0011049099 -9.9787399e-24 0.0039490906 3.5279231e-23 4.0080518e-40)
(0.00043420942 -0.0013894649 7.0869791e-22 0.0044825193 -2.2851664e-21 1.3387918e-36)
(0.00060017146 -0.0017222669 -2.1946792e-21 0.0049888893 6.4321985e-21 8.5420608e-36)
(0.00082191233 -0.0021037192 1.2576032e-21 0.0054432757 -3.3391016e-21 1.879139e-36)
(0.0011148841 -0.0025319773 2.2659324e-21 0.0058227026 -5.4331589e-21 4.1199926e-36)
(0.001497538 -0.0030031448 1.1025752e-21 0.0061099103 -2.3802212e-21 6.6473384e-37)
(0.0019916023 -0.0035121403 -6.5045461e-21 0.006296903 1.2608306e-20 1.598769e-35)
(0.002622637 -0.0040543926 -4.0293056e-21 0.0063871662 6.9943865e-21 4.2880074e-36)
(0.00342077 -0.0046278214 3.0596029e-21 0.0063955505 -4.7460886e-21 1.7588205e-36)
(0.0044197896 -0.0052331799 -2.0881e-21 0.0063450435 2.8874077e-21 5.8804312e-37)
(0.0056610214 -0.0058755232 9.0643372e-21 0.0062591066 -1.1157403e-20 8.1247646e-36)
(0.007196104 -0.0065628661 -3.002555e-21 0.0061562414 3.2831055e-21 6.6102434e-37)
(0.0090840042 -0.0073022553 9.2748483e-21 0.0060505216 -8.9928654e-21 4.7490241e-36)
(0.011395042 -0.0081010216 -5.9760668e-21 0.0059510969 5.1281965e-21 1.5049978e-36)
(0.014212536 -0.0089654468 4.2056237e-21 0.0058612974 -3.1869275e-21 5.7316166e-37)
(0.017633889 -0.0098989204 -1.7429213e-20 0.0057801173 1.1650025e-20 7.7022084e-36)
(0.021770652 -0.010901546 2.8166365e-21 0.0057040568 -1.658349e-21 1.592598e-37)
(0.026748317 -0.011969709 -1.6726118e-20 0.0056284274 8.6583338e-21 4.4533603e-36)
(0.032704603 -0.013095168 1.7912612e-20 0.0055479164 -8.1465184e-21 4.1156943e-36)
(0.039785647 -0.014263218 6.4204206e-21 0.0054565267 -2.5612057e-21 4.2555792e-37)
(0.048138878 -0.015449778 -8.8605036e-20 0.0053473058 3.098668e-20 6.7123285e-35)
(0.057900669 -0.016617553 -2.5619183e-20 0.0052123058 7.839094e-21 4.6340364e-36)
(0.069177004 -0.017711772 2.3373275e-20 0.0050431587 -6.2454521e-21 3.2327972e-36)
(0.082015608 -0.018656487 -2.518678e-20 0.0048326928 5.8613146e-21 3.1676209e-36)
(0.096369583 -0.019353689 7.0966845e-21 0.0045781401 -1.4323697e-21 2.1265935e-37)
(0.11205483 -0.019688624 4.8056461e-20 0.0042863054 -8.3810171e-21 8.4578064e-36)
(0.12870903 -0.019544378 -2.3951158e-21 0.0039797473 3.5879789e-22 1.8488828e-38)
(0.14576684 -0.018828318 -1.8706452e-20 0.0037017609 2.3773508e-21 9.7487353e-37)
(0.16248717 -0.0175129 9.6295935e-21 0.0035167654 -1.0174329e-21 2.3400963e-37)
(0.17806872 -0.01567292 -5.2387632e-21 0.003495406 4.6221924e-22 5.8857708e-38)
(0.19171643 -0.013460571 -1.5537631e-20 0.0036789894 1.102454e-21 4.9370933e-37)
(0.20279293 -0.011068186 2.4708037e-19 0.0040517249 -1.3722209e-20 1.1768466e-34)
(0.21091227 -0.0087021198 -2.8431841e-20 0.0045490595 1.1601128e-21 1.4742399e-36)
(0.21594558 -0.0065064798 2.6732045e-20 0.0050833508 -7.6015181e-22 1.2555004e-36)
(0.2179437 -0.0045428786 -2.5318266e-19 0.0055968605 4.2003577e-21 1.1027989e-34)
(0.21708317 -0.0028499881 1.3826087e-19 0.0060963108 -7.8371743e-22 3.2798051e-35)
(0.21373871 -0.0015122575 1.1232128e-19 0.0066282186 5.6191742e-22 2.1934123e-35)
(0.20858432 -0.00066794747 1.0465177e-19 0.0072310832 1.572639e-21 1.9690819e-35)
(0.20264046 -0.00042396588 9.7363845e-20 0.0079039679 2.4155341e-21 1.7956317e-35)
(0.19699245 -0.00076811599 1.4608442e-19 0.0086061706 5.0492106e-21 4.3457693e-35)
(0.19255006 -0.0015267426 -2.7649887e-19 0.0092724184 -1.2387115e-20 1.7068443e-34)
(0.18957911 -0.0024670534 1.5936567e-19 0.0098336857 8.8277859e-21 6.3642503e-35)
(0.18758811 -0.0032498941 2.235351e-19 0.010208665 1.4918929e-20 1.4452451e-34)
(0.18558426 -0.0035788774 -1.4978332e-19 0.010281797 -1.1957907e-20 7.7030076e-35)
(0.18121238 -0.0030276284 -4.2876535e-20 0.0099648969 -4.0466704e-21 7.7939893e-36)
(0.17400615 -0.0012365699 -3.2970927e-20 0.009153339 -3.6977716e-21 5.9093301e-36)
(0.15884231 0.0015183434 1.4434689e-19 0.0080753206 1.9693913e-20 1.53036e-34)
(0.14238507 0.0050863839 8.9660179e-20 0.0072164021 1.5030094e-20 8.2567317e-35)
(0.1154394 0.0069365754 -3.1023829e-21 0.0070621928 -6.5691988e-22 1.6025008e-37)
(3.3558922e-08 -2.6319257e-07 2.4659901e-24 2.0641423e-06 -1.8987948e-23 1.3609743e-37)
(3.318778e-07 -2.5441546e-06 -1.5855251e-23 1.9503492e-05 1.1921973e-22 1.0489482e-36)
(1.0462176e-06 -7.8419801e-06 2.0752479e-23 5.8781488e-05 -1.5190779e-22 6.9702744e-37)
(2.3475547e-06 -1.7164972e-05 -1.1129917e-23 0.00012551473 7.9191634e-23 9.9520458e-38)
(4.4638766e-06 -3.177182e-05 -5.4028931e-24 0.00022615987 3.7313962e-23 1.2985055e-38)
(7.7023164e-06 -5.323395e-05 6.0572411e-23 0.00036798161 -4.05375e-22 9.6117055e-37)
(1.2475073e-05 -8.3494053e-05 -1.956829e-23 0.00055895009 1.2661952e-22 6.1634645e-38)
(1.9333009e-05 -0.00012492661 -5.2213347e-23 0.00080753231 3.2579266e-22 2.7774865e-37)
(2.90102e-05 -0.00018039964 -4.9757999e-24 0.0011223423 2.9849543e-23 1.6341188e-39)
(4.248141e-05 -0.00025332829 -5.2112007e-23 0.0015116121 2.9960884e-22 1.1783686e-37)
(6.1035789e-05 -0.00034771001 8.9409566e-23 0.0019824499 -4.9099838e-22 2.308328e-37)
(8.6370076e-05 -0.00046812618 -7.5799904e-23 0.0025398619 3.9620153e-22 1.113664e-37)
(0.00012070494 -0.00061969061 -3.3970588e-22 0.0031855446 1.6839109e-21 1.509552e-36)
(0.00016692757 -0.00080792111 -1.1989836e-23 0.0039165002 5.615151e-23 1.2716246e-39)
(0.00022876272 -0.0010385089 3.8141788e-22 0.0047236005 -1.6809207e-21 8.7744571e-37)
(0.00031097303 -0.0013169654 3.2662748e-22 0.0055903227 -1.3491225e-21 4.3855313e-37)
(0.00041958636 -0.0016481401 -3.3923019e-22 0.0064919914 1.3077786e-21 3.2313635e-37)
(0.00056214578 -0.0020356337 3.9100062e-23 0.0073959559 -1.400844e-22 2.9579486e-39)
(0.00074797497 -0.00248118 9.5648648e-22 0.0082631662 -3.1710948e-21 1.2112232e-36)
(0.00098845237 -0.0029841358 1.3956299e-21 0.0090514994 -4.2630104e-21 1.7809161e-36)
(0.0012972935 -0.0035412896 -1.8991493e-21 0.0097208679 5.3216703e-21 2.2933393e-36)
(0.0016908507 -0.0041472342 -2.266901e-21 0.010239576 5.8027167e-21 2.2905219e-36)
(0.0021884589 -0.0047955048 3.5978014e-21 0.010590668 -8.378773e-21 4.0838721e-36)
(0.0028130173 -0.0054806306 -5.2199057e-21 0.010776399 1.1017001e-20 6.1493403e-36)
(0.0035920626 -0.0062008177 -1.053645e-20 0.010818885 2.0080272e-20 1.8135759e-35)
(0.0045567374 -0.0069582667 2.8707163e-20 0.010755901 -4.9244324e-20 9.8885818e-35)
(0.0057448024 -0.0077608113 -1.8152888e-20 0.010629557 2.7946502e-20 2.9421336e-35)
(0.0072037663 -0.0086195615 3.0719147e-20 0.010472158 -4.2325842e-20 6.3457791e-35)
(0.0089882584 -0.0095447701 -4.3592601e-20 0.010307917 5.3615873e-20 9.751823e-35)
(0.011162575 -0.01054644 5.5023333e-20 0.010153444 -6.0253138e-20 1.1990914e-34)
(0.013802092 -0.011632837 -6.4055435e-20 0.010015308 6.2308869e-20 1.268642e-34)
(0.016994727 -0.012808489 1.2081914e-20 0.0098921484 -1.0419815e-20 3.5682404e-36)
(0.020840177 -0.014073337 4.6729826e-20 0.0097779625 -3.5657549e-20 4.2391722e-35)
(0.025449387 -0.015422261 -2.9384896e-20 0.0096644343 1.9810638e-20 1.3478021e-35)
(0.030942245 -0.016843913 1.0210379e-20 0.0095420205 -6.0731757e-21 1.3216369e-36)
(0.03744304 -0.018318361 3.2892248e-21 0.0093998623 -1.7245113e-21 1.1324005e-37)
(0.045072367 -0.01981335 4.5043144e-20 0.0092252788 -2.0771734e-20 1.7349625e-35)
(0.05393392 -0.021279433 1.6196564e-20 0.0090036529 -6.5628162e-21 1.8606459e-36)
(0.064094599 -0.022644699 1.795243e-20 0.0087193886 -6.3759106e-21 1.91375e-36)
(0.075556784 -0.023810507 1.9315893e-20 0.0083587866 -6.0006013e-21 1.8945188e-36)
(0.088223629 -0.024651146 -1.0695767e-19 0.0079158556 2.8944118e-20 4.9805098e-35)
(0.10186085 -0.025021876 5.0738108e-20 0.0074017685 -1.1901914e-20 9.7044043e-36)
(0.11606336 -0.024779969 8.7665828e-21 0.0068563682 -1.77588e-21 2.4812314e-37)
(0.1302453 -0.023824363 -1.0688422e-19 0.0063580354 1.8423335e-20 3.3324469e-35)
(0.14370936 -0.022155288 -5.7441153e-20 0.0060228163 8.3610588e-21 8.6112008e-36)
(0.15576647 -0.019909545 2.957675e-20 0.00597144 -3.5882005e-21 2.0891381e-36)
(0.16580932 -0.017311123 1.1220381e-19 0.0062628795 -1.104202e-20 2.7628642e-35)
(0.1734347 -0.014624476 -5.0249778e-20 0.0068596936 3.9408999e-21 5.2228283e-36)
(0.17848432 -0.012089758 1.5034449e-19 0.0076381514 -8.81199e-21 4.4428831e-35)
(0.18098276 -0.0098442102 8.2758359e-20 0.0084424091 -3.4335212e-21 1.3056454e-35)
(0.18107353 -0.0079234254 1.1447354e-19 0.0091811564 -2.9896205e-21 2.4661209e-35)
(0.17899487 -0.0063585977 3.053868e-19 0.0098795028 -3.2634075e-21 1.7611225e-34)
(0.17518565 -0.0052646952 -2.3189959e-19 0.010626094 -7.7812847e-22 1.0398536e-34)
(0.17040187 -0.0048179486 7.3638217e-20 0.011483742 1.3456409e-21 1.0905982e-35)
(0.16569016 -0.0051162174 -1.2151734e-19 0.012440266 -3.712343e-21 3.1692883e-35)
(0.16202971 -0.0060757636 -1.0983206e-19 0.013415231 -4.8953584e-21 2.8120024e-35)
(0.16001024 -0.0073948586 -4.0387072e-20 0.014289468 -2.4029753e-21 4.2299167e-36)
(0.15952174 -0.0086976171 -3.4189797e-19 0.014935021 -2.5044583e-20 3.4497602e-34)
(0.15947854 -0.0095059262 -8.4308856e-20 0.015218402 -7.5506393e-21 2.4600861e-35)
(0.15857732 -0.0094071189 1.743192e-19 0.014960401 1.8939032e-20 1.2725759e-34)
(0.15388378 -0.0079957433 5.8412298e-20 0.014106193 7.6790546e-21 1.8073991e-35)
(0.14527154 -0.0049585344 -3.7960762e-20 0.012550157 -6.0046115e-21 1.0067182e-35)
(0.12779961 -0.0011239526 -6.6058069e-20 0.010792781 -1.282068e-20 4.3025045e-35)
(0.10935412 0.0029489334 -8.5044452e-20 0.0093813548 -2.0654807e-20 1.0430038e-34)
(0.083573817 0.0045859327 4.9625989e-21 0.0087602765 1.533148e-21 6.0649347e-37)
(7.0626209e-08 -4.4856075e-07 1.1207045e-23 2.8488974e-06 -7.032018e-23 1.2634938e-36)
(6.8473894e-07 -4.2955396e-06 7.5739663e-24 2.6947099e-05 -4.6858946e-23 1.1005051e-37)
(2.1195178e-06 -1.3126532e-05 -9.7167331e-24 8.1295757e-05 5.914191e-23 7.2141957e-38)
(4.6611741e-06 -2.8460358e-05 -5.0277715e-23 0.0001737786 3.0078546e-22 9.8340598e-37)
(8.6759204e-06 -5.2152088e-05 3.6564835e-23 0.00031350734 -2.1478542e-22 2.9513934e-37)
(1.4632951e-05 -8.6452431e-05 -6.7753135e-23 0.00051080478 3.9028896e-22 6.1125731e-37)
(2.3131508e-05 -0.00013406468 3.6950235e-23 0.00077709502 -2.0838159e-22 1.1439959e-37)
(3.4933583e-05 -0.00019819616 1.0922181e-23 0.001124653 -6.0180084e-23 6.4870758e-39)
(5.1005067e-05 -0.00028260237 -7.5834352e-23 0.0015661638 4.0728916e-22 2.0773212e-37)
(7.2565917e-05 -0.00039161174 -1.9877969e-22 0.0021140338 1.0379883e-21 9.6431372e-37)
(0.00010115127 -0.00053011952 -1.2075968e-23 0.0027794009 6.1142031e-23 2.4279926e-39)
(0.00013868491 -0.0007035335 4.7519753e-22 0.0035707976 -2.3256779e-21 2.6027632e-36)
(0.00018756697 -0.00091765272 -7.8833721e-22 0.0044924598 3.7176442e-21 4.9767252e-36)
(0.00025077728 -0.0011784573 1.5226271e-21 0.0055423276 -6.8949182e-21 1.2961241e-35)
(0.00033199575 -0.00149179 -4.7512382e-22 0.006709887 2.0583494e-21 8.8395136e-37)
(0.00043574082 -0.0018629189 1.2036249e-21 0.0079741348 -4.9690101e-21 3.9826206e-36)
(0.00056752756 -0.0022959891 -1.732215e-21 0.0093021201 6.7861271e-21 5.8072022e-36)
(0.00073404644 -0.002793407 1.3370804e-21 0.010648681 -4.9487347e-21 2.4413268e-36)
(0.00094336716 -0.0033552499 -2.5048832e-22 0.011958093 8.7180186e-22 6.0692299e-38)
(0.0012051745 -0.0039788602 -1.2021404e-21 0.013168265 3.915535e-21 9.9304303e-37)
(0.0015310496 -0.0046588435 3.4460948e-21 0.014217737 -1.0452586e-20 5.8282934e-36)
(0.0019348198 -0.005387722 -5.7123955e-21 0.015054943 1.6055043e-20 1.1520131e-35)