/*--------------------------------*- C++ -*----------------------------------*\
  =========                 |
  \\      /  F ield         | OpenFOAM: The Open Source CFD Toolbox
   \\    /   O peration     | Website:  https://openfoam.org
    \\  /    A nd           | Version:  13
     \\/     M anipulation  |
\*---------------------------------------------------------------------------*/
FoamFile
{
    format      ascii;
    class       volScalarField;
    location    "34.601636";
    object      nut;
}
// * * * * * * * * * * * * * * * * * * * * * * * * * * * * * * * * * * * * * //

dimensions      [0 2 -1 0 0 0 0];

internalField   nonuniform List<scalar> 
17140
(
2.3270159e-18
4.5257371e-16
1.205443e-14
1.2220524e-13
7.3903485e-13
3.2741398e-12
1.1822035e-11
3.6991123e-11
1.0420766e-10
2.7105845e-10
6.6249803e-10
1.5407426e-09
3.4415424e-09
7.4359521e-09
1.5626949e-08
3.2081681e-08
6.4565562e-08
1.2774224e-07
2.4903666e-07
4.793079e-07
9.1215944e-07
1.7186683e-06
3.2094575e-06
5.9448613e-06
1.0928736e-05
1.9945264e-05
3.613321e-05
6.4934233e-05
0.00011557196
0.00020312336
0.00035083041
0.00059137011
0.00096472377
0.0015106164
0.002256816
0.0032086658
0.0043453122
0.0056233283
0.0069845131
0.0083646303
0.009701541
0.010942111
0.012047512
0.012982593
0.013739646
0.014385492
0.014917615
0.015355607
0.015733725
0.016081937
0.016423587
0.016775409
0.017150693
0.017567476
0.018051183
0.018609471
0.019231207
0.019885604
0.020473029
0.020736302
0.020159692
0.018644318
0.017345806
0.018581744
0.022544187
2.2995329e-18
4.4722829e-16
1.1912066e-14
1.2076236e-13
7.3031275e-13
3.235519e-12
1.1682675e-11
3.6555388e-11
1.0298117e-10
2.6787113e-10
6.547157e-10
1.5226635e-09
3.4012075e-09
7.3489153e-09
1.5444294e-08
3.1707263e-08
6.3813274e-08
1.2625653e-07
2.4614596e-07
4.7375648e-07
9.0162021e-07
1.6988638e-06
3.1725835e-06
5.8767806e-06
1.080402e-05
1.9718525e-05
3.5724205e-05
6.4203033e-05
0.00011427915
0.0002008725
0.00034700411
0.0005851045
0.00095497828
0.0014963696
0.0022373376
0.003183792
0.0043155855
0.0055899611
0.0069492347
0.0083295247
0.0096688258
0.010913935
0.012025797
0.012969253
0.013734911
0.014390114
0.014933261
0.015383091
0.015774195
0.016136955
0.016494992
0.016864948
0.017259054
0.0176912
0.018176914
0.018704819
0.019228356
0.019663929
0.019854963
0.019537049
0.018212901
0.01599419
0.014108938
0.015100736
0.020082438
2.2562198e-18
4.3880439e-16
1.1687691e-14
1.1848774e-13
7.1655766e-13
3.1745852e-12
1.1462687e-11
3.5867155e-11
1.0104272e-10
2.6283e-10
6.4239749e-10
1.4940227e-09
3.3372495e-09
7.2107618e-09
1.5154036e-08
3.1111522e-08
6.2614605e-08
1.2388545e-07
2.4152419e-07
4.6486199e-07
8.8469332e-07
1.6669669e-06
3.1130034e-06
5.7663732e-06
1.0600929e-05
1.9347609e-05
3.505182e-05
6.2994664e-05
0.00011213334
0.0001971282
0.00034063717
0.00057466664
0.00093868008
0.0014723966
0.0022043239
0.0031412321
0.0042640028
0.0055308104
0.0068846553
0.0082620168
0.0096009477
0.01084803
0.011963805
0.012912899
0.013684424
0.014345424
0.014894608
0.015350315
0.015747183
0.016115546
0.016479067
0.016854239
0.017252228
0.017683926
0.018157476
0.018646846
0.019073994
0.019317901
0.019171826
0.018289083
0.016279836
0.013580428
0.0107708
0.010871328
0.01589054
2.1971225e-18
4.2731072e-16
1.1381552e-14
1.1538417e-13
6.9778926e-13
3.0914386e-12
1.1162481e-11
3.4927864e-11
9.839681e-11
2.5594809e-10
6.2557835e-10
1.4549091e-09
3.2498848e-09
7.0219983e-09
1.4757327e-08
3.0297016e-08
6.0975108e-08
1.2064087e-07
2.3519638e-07
4.5267666e-07
8.6148702e-07
1.623201e-06
3.0311769e-06
5.6145835e-06
1.0321405e-05
1.8836513e-05
3.4124327e-05
6.132647e-05
0.00010916768
0.00019194362
0.00033179665
0.0005601259
0.00091589751
0.001438753
0.0021577656
0.003080836
0.0041901987
0.0054452403
0.0067898138
0.0081608174
0.0094963053
0.010742503
0.011859341
0.012811042
0.01358566
0.014248692
0.014798467
0.015253736
0.015648782
0.016013814
0.016372409
0.016740583
0.017128293
0.017546256
0.017998029
0.01844262
0.018781325
0.018858695
0.01840045
0.017086483
0.014665967
0.011619665
0.0080789569
0.0064293291
0.010082753
2.1228316e-18
4.1286212e-16
1.0996709e-14
1.1148274e-13
6.7419582e-13
2.9869154e-12
1.0785088e-11
3.3747049e-11
9.5070479e-11
2.472962e-10
6.0443286e-10
1.405733e-09
3.1400402e-09
6.7846541e-09
1.4258496e-08
2.9272771e-08
5.8913275e-08
1.1656009e-07
2.2723671e-07
4.3734628e-07
8.3228454e-07
1.5681103e-06
2.9281373e-06
5.4233487e-06
9.9690216e-06
1.8191697e-05
3.2953032e-05
5.9217143e-05
0.00010541231
0.00018536726
0.00032055988
0.00054159706
0.00088677332
0.0013955745
0.002097731
0.0030025312
0.0040938945
0.0053327145
0.0066638882
0.008024802
0.0093534624
0.010595585
0.011710253
0.012661101
0.01343577
0.014095907
0.01464019
0.015087706
0.015472032
0.015822878
0.016163242
0.016508408
0.016868157
0.017255301
0.017673162
0.01806674
0.017627103
0.017174629
0.017595434
0.016050017
0.013426246
0.010333647
0.0069339783
0.0033866418
0.0054583411
2.0342254e-18
3.9562941e-16
1.0537711e-14
1.0682953e-13
6.460558e-13
2.8622488e-12
1.033496e-11
3.2338632e-11
9.1102916e-11
2.3697621e-10
5.7920978e-10
1.3470721e-09
3.0090048e-09
6.5015105e-09
1.3663378e-08
2.8050756e-08
5.6453164e-08
1.1169065e-07
2.1773783e-07
4.1904925e-07
7.9742599e-07
1.5023378e-06
2.8050924e-06
5.1949258e-06
9.5479802e-06
1.7420954e-05
3.155234e-05
5.6693221e-05
0.00010091527
0.00017748324
0.00030706637
0.00051929287
0.00085159729
0.001343201
0.0020245455
0.0029065388
0.0039751149
0.0051929879
0.006506315
0.0078530604
0.0091711458
0.010405619
0.011514398
0.01246007
0.013232415
0.013883759
0.014415663
0.014847301
0.015211214
0.015536351
0.015844967
0.016151647
0.016467354
0.016812134
0.017191423
0.016854043
0.015470567
0.015161226
0.016862958
0.015192842
0.012426576
0.0096501816
0.0064115039
0.0027854143
0.0033161195
1.9326068e-18
3.7586603e-16
1.0011309e-14
1.0149297e-13
6.1378308e-13
2.7192722e-12
9.8187156e-12
3.0723321e-11
8.6552452e-11
2.2513981e-10
5.5027985e-10
1.2797887e-09
2.8587048e-09
6.1767312e-09
1.298073e-08
2.6648963e-08
5.3631038e-08
1.0610445e-07
2.0684034e-07
3.9805726e-07
7.5743114e-07
1.4268697e-06
2.6638999e-06
4.9327925e-06
9.0647553e-06
1.6536266e-05
2.9944277e-05
5.3794763e-05
9.5748181e-05
0.00016841604
0.00029152276
0.00049353378
0.00081082158
0.0012821979
0.0019388206
0.0027934101
0.0038342349
0.0050261596
0.0063168459
0.0076449521
0.0089483002
0.010171142
0.011270014
0.012205893
0.012970441
0.013607805
0.014119806
0.014526406
0.014858822
0.015144934
0.015405944
0.015655696
0.015908917
0.016199093
0.016534895
0.014880127
0.013694848
0.014134578
0.016114545
0.014362344
0.011435921
0.0091617081
0.0052298985
0.0024015419
0.0022505789
1.8196669e-18
3.5390079e-16
9.4262602e-15
9.5561857e-14
5.7791461e-13
2.5603646e-12
9.2449439e-12
2.8927989e-11
8.1494795e-11
2.1198395e-10
5.1812446e-10
1.2050026e-09
2.6916425e-09
5.8157255e-09
1.2221929e-08
2.5090775e-08
5.0494032e-08
9.9894947e-08
1.9472697e-07
3.7472334e-07
7.1297522e-07
1.3429862e-06
2.5069695e-06
4.6414551e-06
8.5277228e-06
1.5553108e-05
2.8157219e-05
5.0573282e-05
9.0003084e-05
0.00015832595
0.00027419719
0.00046474184
0.00076505698
0.0012133605
0.0018414705
0.0026640593
0.0036720276
0.0048327318
0.0060956112
0.0074001649
0.0086841257
0.0098908534
0.010975413
0.011896879
0.012645765
0.01326316
0.013746552
0.014117299
0.014404961
0.01463586
0.014829523
0.014998978
0.01516797
0.015387806
0.014828525
0.013082427
0.012687256
0.014109258
0.015166122
0.013212201
0.010335535
0.0082600571
0.0034515877
0.0018022521
0.00154817
1.6974321e-18
3.3012769e-16
8.7930545e-15
8.9142533e-14
5.3909372e-13
2.3883761e-12
8.6239359e-12
2.6984838e-11
7.6020662e-11
1.9774462e-10
4.8332056e-10
1.1240559e-09
2.5108168e-09
5.4249763e-09
1.1400608e-08
2.3404212e-08
4.709862e-08
9.3174099e-08
1.8161653e-07
3.4947009e-07
6.6486602e-07
1.252218e-06
2.3371793e-06
4.3262898e-06
7.9468638e-06
1.4489896e-05
2.6224905e-05
4.7089993e-05
8.3789453e-05
0.0001474043
0.0002554121
0.00043343158
0.00071506445
0.0011377106
0.0017337232
0.0025197935
0.0034897136
0.0046136746
0.0058431936
0.0071187867
0.0083781248
0.0095635642
0.010628482
0.011529485
0.012255284
0.01284448
0.013288781
0.013610619
0.013837294
0.0139928
0.014093909
0.014153962
0.014216281
0.014346771
0.012913729
0.011893686
0.012593365
0.014444218
0.01376704
0.011457109
0.0090974785
0.0060270488
0.0023227235
0.0013814622
0.0010114696
1.5681966e-18
3.0499311e-16
8.1235867e-15
8.2355586e-14
4.9804954e-13
2.206537e-12
7.9673565e-12
2.4930371e-11
7.0232897e-11
1.8268938e-10
4.4652215e-10
1.03847e-09
2.3196274e-09
5.011833e-09
1.0532224e-08
2.1621036e-08
4.35088e-08
8.6068745e-08
1.6775688e-07
3.2277594e-07
6.1401754e-07
1.1562955e-06
2.1577808e-06
3.993364e-06
7.33343e-06
1.3367367e-05
2.418529e-05
4.3413743e-05
7.7230542e-05
0.00013586726
0.00023553456
0.00040019655
0.00066173996
0.0010564865
0.0016171221
0.0023623357
0.0032890087
0.0043704969
0.0055607159
0.0068014038
0.0080302097
0.0091883466
0.010227158
0.011100296
0.011795648
0.01234559
0.012738196
0.012995204
0.013140878
0.013195793
0.013172877
0.013093398
0.013032358
0.01281173
0.011441524
0.011513056
0.012817891
0.012594033
0.011557355
0.0092662652
0.0074883669
0.0031014229
0.0015505029
0.0010691737
0.00077069968
1.4344527e-18
2.7898174e-16
7.4307655e-15
7.5331878e-14
4.5557342e-13
2.0183535e-12
7.2878667e-12
2.2804206e-11
6.4243119e-11
1.6710858e-10
4.0843906e-10
9.4989616e-10
2.1217638e-09
4.5842708e-09
9.6335477e-09
1.9775703e-08
3.9794e-08
7.871644e-08
1.5341669e-07
2.9515931e-07
5.6141953e-07
1.0570914e-06
1.9722887e-06
3.6492289e-06
6.6995555e-06
1.2207856e-05
2.2079209e-05
3.9618575e-05
7.0459018e-05
0.0001239483
0.00021496397
0.00036569116
0.00060609144
0.00097111989
0.0014935154
0.0021938367
0.0030721663
0.0041053198
0.0052499407
0.0064492208
0.0076408469
0.0087647382
0.0097697074
0.010606246
0.011262618
0.011759637
0.01208534
0.012258176
0.012298461
0.012222243
0.01204095
0.011807651
0.011614581
0.011040853
0.010611293
0.010934679
0.010670808
0.010105471
0.0086548658
0.0070412738
0.0038783375
0.0015969043
0.0011259785
0.00082111801
0.00061750891
1.298798e-18
2.525987e-16
6.728044e-15
6.8207799e-14
4.1249023e-13
1.8274799e-12
6.5986617e-12
2.0647635e-11
5.8167666e-11
1.513049e-10
3.6981117e-10
8.600554e-10
1.9210714e-09
4.1506015e-09
8.7220551e-09
1.7904117e-08
3.6026537e-08
7.1260434e-08
1.3887565e-07
2.6715956e-07
5.0810108e-07
9.5655093e-07
1.7843507e-06
3.3006756e-06
6.0578012e-06
1.1034452e-05
1.9948827e-05
3.5780887e-05
6.3611877e-05
0.00011188928
0.00019411722
0.00033060767
0.00054920727
0.00088320067
0.0013650268
0.0020168683
0.0028420056
0.0038209435
0.004913373
0.0060641902
0.0072112103
0.0082929979
0.0092547832
0.010044716
0.01065073
0.011079483
0.011319859
0.011385482
0.011291732
0.011050693
0.010691807
0.010321111
0.0099804727
0.0095842918
0.0091287454
0.0086918281
0.0080698486
0.0070168111
0.0058284604
0.0036789586
0.0014408688
0.00099362962
0.00080011963
0.00062804796
0.00055757866
1.163838e-18
2.263508e-16
6.0289226e-15
6.112022e-14
3.6962776e-13
1.6375838e-12
5.9129848e-12
1.8502099e-11
5.212329e-11
1.3558204e-10
3.3138092e-10
7.7067483e-10
1.7214091e-09
3.7191656e-09
7.8152808e-09
1.6042295e-08
3.2278944e-08
6.3844348e-08
1.2441407e-07
2.3931693e-07
4.5509216e-07
8.5661921e-07
1.5976097e-06
2.9544768e-06
5.4206742e-06
9.8701057e-06
1.7835991e-05
3.197644e-05
5.6825026e-05
9.9930889e-05
0.00017341218
0.00029564946
0.00049221695
0.00079442682
0.0012340058
0.001834391
0.0026019148
0.0035208972
0.0045543532
0.0056491299
0.0067432589
0.0077738402
0.008681791
0.0094132428
0.0099547197
0.010297503
0.010431112
0.010363338
0.010104527
0.0096752959
0.00916767
0.0086769544
0.0081571568
0.0075522046
0.0069094008
0.0062371596
0.0051264588
0.0042810663
0.0026234355
0.001199719
0.00080536168
0.00066085521
0.00056120728
0.00051089882
0.0005623138
1.0320826e-18
2.0072612e-16
5.3464e-15
5.4200909e-14
3.2778281e-13
1.4521956e-12
5.2435839e-12
1.6407491e-11
4.6222385e-11
1.2023241e-10
2.9386306e-10
6.8341693e-10
1.5264911e-09
3.2979901e-09
6.930099e-09
1.4224889e-08
2.862099e-08
5.6606292e-08
1.1030135e-07
2.1215036e-07
4.0338131e-07
7.5916124e-07
1.4155542e-06
2.6171079e-06
4.8001122e-06
8.7366831e-06
1.57805e-05
2.8277189e-05
5.0227566e-05
8.8302402e-05
0.00015324988
0.00026150113
0.00043624445
0.00070653995
0.0011029526
0.0016496875
0.0023558174
0.0032094563
0.0041771313
0.0052078453
0.0062398996
0.007208756
0.0080507805
0.0087099355
0.009169564
0.0094063023
0.0094096289
0.0091814388
0.0087326014
0.008144222
0.0075414989
0.0069171004
0.0062064924
0.005439001
0.0046609049
0.0036453857
0.0029124962
0.0015415719
0.00083091939
0.00064337017
0.0005442475
0.00047027742
0.00045755794
0.00049667703
0.00059412529
9.0584213e-19
1.76174e-16
4.6924456e-15
4.7571213e-14
2.8768932e-13
1.2745669e-12
4.6022007e-12
1.4400552e-11
4.0568471e-11
1.0552531e-10
2.5791588e-10
5.998129e-10
1.339738e-09
2.8944669e-09
6.0820464e-09
1.2483801e-08
2.5116886e-08
4.9673321e-08
9.6785223e-08
1.8613664e-07
3.53876e-07
6.65887e-07
1.2413781e-06
2.2944872e-06
4.2070021e-06
7.6540792e-06
1.3818482e-05
2.4748344e-05
4.3936447e-05
7.7212009e-05
0.00013399714
0.00022879794
0.00038235733
0.00062124809
0.00097441685
0.0014662537
0.0021080849
0.0028916052
0.0037868957
0.0047452269
0.0057051492
0.0066002231
0.0073623107
0.0079339724
0.0082908042
0.0083999625
0.0082500613
0.0078401265
0.0072205817
0.0065549978
0.005865963
0.0051089534
0.00425854
0.0034075806
0.0025834253
0.001788163
0.00088844209
0.00050431407
0.00046463113
0.0004335438
0.00039847631
0.00039954097
0.00044406961
0.00052860515
0.00063892306
7.8712338e-19
1.5308483e-16
4.0774592e-15
4.1336585e-14
2.4998508e-13
1.1075234e-12
3.9990391e-12
1.2513214e-11
3.5251504e-11
9.1694738e-11
2.241114e-10
5.2119316e-10
1.1641219e-09
2.5150175e-09
5.2846178e-09
1.0846732e-08
2.1822368e-08
4.3155665e-08
8.4080454e-08
1.6168881e-07
3.073614e-07
5.7827382e-07
1.0778353e-06
1.9917057e-06
3.6506839e-06
6.6393089e-06
1.1980738e-05
2.1445347e-05
3.8050978e-05
6.683685e-05
0.00011596844
0.00019809323
0.00033150994
0.00054013398
0.0008508668
0.0012876406
0.0018633792
0.002572916
0.0033897153
0.0042672678
0.0051442328
0.0059518671
0.0066179519
0.0070851269
0.0073156665
0.0072764342
0.0069567436
0.0063709146
0.0056792493
0.0049713886
0.0041967764
0.0033694689
0.0024564024
0.0017977648
0.0010176448
0.00053053091
0.0003102616
0.00030783854
0.00031478084
0.0003226766
0.00034847302
0.00039829367
0.00048185445
0.00056208331
0.00067824979
6.7755392e-19
1.3177511e-16
3.5098697e-15
3.5582455e-14
2.1518667e-13
9.5335391e-13
3.442364e-12
1.0771339e-11
3.034435e-11
7.8930254e-11
1.9291288e-10
4.4863512e-10
1.0020492e-09
2.1648406e-09
4.5487346e-09
9.336092e-09
1.8782504e-08
3.7142392e-08
7.2360418e-08
1.3913985e-07
2.6446946e-07
4.9750818e-07
9.2713181e-07
1.7128274e-06
3.1385827e-06
5.7058349e-06
1.0291514e-05
1.8411622e-05
3.2648673e-05
5.7315218e-05
9.9411062e-05
0.00016982999
0.00028448946
0.00046456095
0.00073454372
0.0011172556
0.001626419
0.0022593137
0.0029923379
0.0037809208
0.0045635729
0.0052686394
0.0058215837
0.006162272
0.0062456694
0.006042192
0.0055530871
0.0048720091
0.0041852729
0.0034351636
0.0026328273
0.0017903033
0.0012485804
0.00061289293
0.00030939576
0.00019666129
0.00020098
0.0002190094
0.0002507881
0.00029660019
0.00035825023
0.00043432843
0.00052259732
0.00061720511
0.00071701687
5.7835036e-19
1.1248137e-16
2.995975e-15
3.0372672e-14
1.8368024e-13
8.1376914e-13
2.9383516e-12
9.1942525e-12
2.5901447e-11
6.7373439e-11
1.6466636e-10
3.8294333e-10
8.5531633e-10
1.8478157e-09
3.8825442e-09
7.9685901e-09
1.6030872e-08
3.1699801e-08
6.1754015e-08
1.1873694e-07
2.2566831e-07
4.2446664e-07
7.9089145e-07
1.4608311e-06
2.6761112e-06
4.8634069e-06
8.7682371e-06
1.5678153e-05
2.7784507e-05
4.8745058e-05
8.4501538e-05
0.00014433175
0.00024189705
0.00039563087
0.0006273639
0.00095817002
0.0014016835
0.0019567023
0.0026017705
0.0032936332
0.0039700817
0.0045567688
0.0049774827
0.0051689979
0.0050913177
0.0047207933
0.0041054464
0.0034520255
0.0027787721
0.0020288353
0.0012902342
0.00079427301
0.00037789383
0.00019022101
0.00012426728
0.0001348895
0.00015758298
0.00019700656
0.00025231238
0.00031846678
0.00039245143
0.00043514136
0.00045323464
0.00057567515
0.00069988247
4.9027115e-19
9.5351097e-17
2.5397038e-15
2.5747072e-14
1.557067e-13
6.8983633e-13
2.490856e-12
7.7940142e-12
2.1956771e-11
5.7112675e-11
1.3958782e-10
3.2462007e-10
7.2504494e-10
1.5663649e-09
3.2911322e-09
6.7546533e-09
1.3588415e-08
2.6869216e-08
5.2341492e-08
1.0063372e-07
1.9124823e-07
3.5969095e-07
6.7011355e-07
1.2375393e-06
2.2665561e-06
4.1178913e-06
7.4212845e-06
1.3263192e-05
2.3490639e-05
4.1183808e-05
7.1345557e-05
0.00012180083
0.00020412882
0.0003341076
0.00053073222
0.0008128148
0.0011929823
0.0016703946
0.0022245861
0.002812628
0.0033709966
0.0038228766
0.004091169
0.004121208
0.0038774827
0.003374325
0.0027631365
0.0021793421
0.0015347849
0.00091122945
0.00047764349
0.0002356658
0.0001197846
8.1915833e-05
9.3512526e-05
0.00011930602
0.00016163815
0.00021892848
0.0002845956
0.00035553417
0.00035562673
0.00036568042
0.00039800343
0.00052703625
0.00069522174
4.1358867e-19
8.0437384e-17
2.1424725e-15
2.172001e-14
1.3135285e-13
5.8194025e-13
2.1012665e-12
6.5749705e-12
1.8522564e-11
4.8179793e-11
1.1775503e-10
2.7384597e-10
6.1163792e-10
1.321357e-09
2.7763187e-09
5.6980016e-09
1.1462576e-08
2.2665234e-08
4.4150983e-08
8.4883475e-08
1.6130854e-07
3.0336304e-07
5.6512533e-07
1.0435282e-06
1.9109089e-06
3.4709437e-06
6.253327e-06
1.117091e-05
1.97735e-05
3.4641749e-05
5.9961817e-05
0.00010227894
0.0001712946
0.00028029289
0.00044540208
0.00068273513
0.0010029887
0.0014043684
0.0018658968
0.0023436232
0.0027721576
0.0030736532
0.0031784526
0.0030479673
0.00266974
0.0021463169
0.0016339961
0.0011171352
0.00062446909
0.00029168261
0.00014352088
7.6338361e-05
5.558586e-05
6.8519949e-05
9.5090972e-05
0.00013787625
0.00019453667
0.00025708392
0.00032550129
0.00030745666
0.0002896318
0.00031143145
0.00036504315
0.00048568015
0.0006536396
3.480582e-19
6.769262e-17
1.8030127e-15
1.827863e-14
1.1054098e-13
4.8973657e-13
1.7683396e-12
5.5332314e-12
1.5587865e-11
4.0546278e-11
9.9098248e-11
2.3045876e-10
5.1473237e-10
1.1120063e-09
2.3364481e-09
4.7952225e-09
9.6464457e-09
1.9074077e-08
3.7155313e-08
7.143309e-08
1.3574601e-07
2.5528315e-07
4.7554125e-07
8.7805637e-07
1.60775e-06
2.9198744e-06
5.2593423e-06
9.3920196e-06
1.6615944e-05
2.9087603e-05
5.0295288e-05
8.5678948e-05
0.00014328281
0.00023409678
0.00037141628
0.00056832096
0.0008327079
0.0011603928
0.001528146
0.0018896596
0.0021783118
0.0023206604
0.0022718843
0.0020106725
0.0015960844
0.0011824363
0.00077564041
0.00038915852
0.00018076878
8.9323443e-05
4.9021298e-05
3.8771555e-05
5.2431153e-05
7.904405e-05
0.00012132199
0.00017495527
0.00023460606
0.00030163702
0.00027607997
0.00025296295
0.00025506907
0.00028455945
0.0003340358
0.00046126557
0.00066172174
2.9290871e-19
5.6966785e-17
1.5173269e-15
1.5382402e-14
9.3025942e-14
4.1213905e-13
1.4881529e-12
4.6565212e-12
1.3118086e-11
3.4122129e-11
8.3397429e-11
1.9394642e-10
4.3318384e-10
9.3583797e-10
1.9663133e-09
4.0356094e-09
8.118432e-09
1.6052903e-08
3.1270649e-08
6.0120382e-08
1.1424981e-07
2.1485984e-07
4.002416e-07
7.3900903e-07
1.3530855e-06
2.457121e-06
4.4249812e-06
7.8994951e-06
1.3968269e-05
2.4433372e-05
4.2197887e-05
7.1757692e-05
0.00011969775
0.00019491315
0.00030794366
0.00046855114
0.0006809796
0.00093720282
0.001210157
0.0014509771
0.0015960741
0.00159489
0.0014266715
0.0011269549
0.00081350639
0.00051154431
0.00023058958
0.00010861528
5.6258081e-05
3.2693325e-05
2.7999723e-05
4.1537313e-05
6.7576406e-05
0.0001079759
0.00015997707
0.00021521088
0.00027991422
0.00025339578
0.00023131166
0.00022521982
0.00023171004
0.00026428214
0.00032308487
0.00045464912
0.00065359396
2.4685633e-19
4.8010203e-17
1.2787654e-15
1.2963911e-14
7.8400041e-14
3.4734139e-13
1.2541838e-12
3.9244281e-12
1.1055715e-11
2.8757727e-11
7.0286798e-11
1.6345803e-10
3.6509092e-10
7.8874177e-10
1.6572712e-09
3.4014042e-09
6.8427594e-09
1.3530835e-08
2.6358563e-08
5.0678301e-08
9.6310166e-08
1.8112877e-07
3.3741629e-07
6.2301123e-07
1.1406581e-06
2.0711355e-06
3.7289891e-06
6.654121e-06
1.1757469e-05
2.0541863e-05
3.541236e-05
6.005705e-05
9.9789883e-05
0.00016156422
0.00025317697
0.00038078689
0.00054417199
0.00073031393
0.00090802474
0.0010294569
0.0010487639
0.00094659826
0.00074535312
0.00052512897
0.00031423013
0.00013352084
6.4902642e-05
3.5201382e-05
2.2383271e-05
2.1172472e-05
3.3925633e-05
5.864764e-05
9.6937013e-05
0.00014616197
0.00019823568
0.00024656732
0.00022994172
0.00021798196
0.00020840946
0.00020745723
0.00022000216
0.00025407615
0.00031244174
0.0004385203
0.00065528211
2.0811797e-19
4.0476118e-17
1.0780932e-15
1.0929536e-14
6.6097097e-14
2.9283515e-13
1.0573743e-12
3.3086073e-12
9.3208921e-12
2.4245306e-11
5.9258441e-11
1.3781203e-10
3.0781343e-10
6.6501063e-10
1.3973214e-09
2.867952e-09
5.7697621e-09
1.140949e-08
2.2226956e-08
4.2736369e-08
8.1220162e-08
1.5275339e-07
2.8455828e-07
5.2539241e-07
9.6181778e-07
1.7459815e-06
3.1421469e-06
5.6026057e-06
9.8869596e-06
1.7239216e-05
2.962729e-05
5.0013558e-05
8.2536624e-05
0.00013231777
0.00020438904
0.00030096048
0.00041683578
0.00053418407
0.00062116056
0.00064279466
0.00058319055
0.0004569025
0.00031464272
0.00017512692
7.568189e-05
3.8399086e-05
2.2211179e-05
1.5718455e-05
1.652597e-05
2.8511192e-05
5.1036927e-05
8.7052086e-05
0.00013272496
0.00018293584
0.00020929985
0.00020747462
0.00020515047
0.00019995803
0.00019540743
0.00019953369
0.00021304673
0.00024836348
0.00030896979
0.00044353544
0.00067546898
1.745056e-19
3.3938981e-17
9.0397514e-16
9.1643607e-15
5.5422116e-14
2.4554113e-13
8.8660529e-13
2.7742628e-12
7.8155782e-12
2.0329804e-11
4.9688783e-11
1.1555769e-10
2.5810947e-10
5.5763591e-10
1.171724e-09
2.4049646e-09
4.8384123e-09
9.5679459e-09
1.8639642e-08
3.5838928e-08
6.8110047e-08
1.2808878e-07
2.3858127e-07
4.4040195e-07
8.0591468e-07
1.4620428e-06
2.6285083e-06
4.6794229e-06
8.2380081e-06
1.4311969e-05
2.4463249e-05
4.09656e-05
6.681416e-05
0.00010530509
0.00015859172
0.00022491661
0.00029483086
0.00034924125
0.00036527337
0.00033164999
0.0002577393
0.00017111435
8.9704105e-05
4.1144863e-05
2.2336804e-05
1.4296002e-05
1.1252585e-05
1.3351262e-05
2.4085682e-05
4.4744949e-05
7.7788837e-05
0.00012009698
0.00016850397
0.00018203474
0.00018772079
0.00019306844
0.00019201529
0.00019022801
0.0001899115
0.00019616906
0.00021202715
0.00024883027
0.00031334468
0.00044883704
0.00068827025
1.4372462e-19
2.7952501e-17
7.4452358e-16
7.5478652e-15
4.5646227e-14
2.0223e-13
7.3021539e-13
2.2849013e-12
6.4369488e-12
1.674369e-11
4.0923736e-11
9.5173147e-11
2.1257768e-10
4.5926306e-10
9.6500863e-10
1.9806432e-09
3.9846169e-09
7.879157e-09
1.5348372e-08
2.9506845e-08
5.6064891e-08
1.0540402e-07
1.962374e-07
3.6199005e-07
6.6175542e-07
1.198743e-06
2.1504996e-06
3.8164765e-06
6.6883678e-06
1.1543499e-05
1.9543594e-05
3.2278118e-05
5.1603084e-05
7.8947012e-05
0.00011379215
0.0001514228
0.00018145414
0.00019085769
0.00017286442
0.00013298404
8.4610249e-05
4.4320209e-05
2.1744701e-05
1.2957362e-05
9.1809693e-06
8.4299837e-06
1.0736794e-05
2.0549953e-05
3.8994762e-05
6.9537151e-05
0.00010918174
0.00015521489
0.00016349858
0.00017145305
0.00017955472
0.00018294553
0.00018405971
0.00018588573
0.00018836139
0.00019724188
0.00021353151
0.00025067411
0.00031501598
0.00045198109
0.00070628583
1.1397504e-19
2.2166604e-17
5.9041434e-16
5.9855235e-15
3.619776e-14
1.6036896e-13
5.790586e-13
1.8119016e-12
5.104361e-12
1.3277147e-11
3.2450301e-11
7.5464786e-11
1.6855023e-10
3.6412322e-10
7.6503956e-10
1.5700432e-09
3.1581004e-09
6.2434823e-09
1.2158512e-08
2.3364708e-08
4.4368654e-08
8.3347073e-08
1.5499738e-07
2.8546751e-07
5.207257e-07
9.4041525e-07
1.6799656e-06
2.963947e-06
5.1518247e-06
8.7898957e-06
1.464139e-05
2.3620656e-05
3.6482817e-05
5.308793e-05
7.1235773e-05
8.5858019e-05
9.04344e-05
8.1736121e-05
6.1984946e-05
3.7786067e-05
2.0372809e-05
1.1306605e-05
7.4651313e-06
6.1730713e-06
6.1887925e-06
8.9784977e-06
1.7334892e-05
3.4726658e-05
6.4354634e-05
0.00010158861
0.00014414943
0.0001506485
0.00015763614
0.00016649619
0.00017182093
0.00017666302
0.00018025959
0.00018451451
0.00018917652
0.00019937774
0.00021713031
0.00025602707
0.00032278681
0.00046720642
0.00073398023
8.4768325e-20
1.648629e-17
4.3911694e-16
4.4516816e-15
2.692159e-14
1.1927083e-13
4.3065436e-13
1.3475042e-12
3.7959635e-12
9.8733662e-12
2.4129705e-11
5.6110111e-11
1.2530751e-10
2.7066379e-10
5.6856072e-10
1.1665e-09
2.3455102e-09
4.6346804e-09
9.0194093e-09
1.7316459e-08
3.2842493e-08
6.1591764e-08
1.1428118e-07
2.0983716e-07
3.8119567e-07
6.8461434e-07
1.2138359e-06
2.1197478e-06
3.6330408e-06
6.0782662e-06
9.8484385e-06
1.5277171e-05
2.2320364e-05
3.0046699e-05
3.6270916e-05
3.8148622e-05
3.4338933e-05
2.5574818e-05
1.5757578e-05
9.2031973e-06
5.7206581e-06
4.4850753e-06
4.122134e-06
4.7997089e-06
7.3273824e-06
1.5188526e-05
3.2459547e-05
5.929339e-05
9.3302601e-05
0.00013034363
0.0001409812
0.00014615886
0.00015396551
0.00016030798
0.00016640176
0.00017231552
0.0001774839
0.00018373565
0.0001906299
0.00020345686
0.00022224432
0.00026193491
0.00033012079
0.00047599637
0.00075107815
5.7398741e-20
1.1163271e-17
2.9733609e-16
3.0143148e-15
1.8228858e-14
8.0757596e-14
2.9158386e-13
9.1231319e-13
2.5698444e-12
6.6835981e-12
1.6332145e-11
3.7971678e-11
8.4780976e-11
1.8307171e-10
3.8440941e-10
7.8826081e-10
1.5838479e-09
3.1266881e-09
6.0770904e-09
1.1647949e-08
2.204248e-08
4.1215844e-08
7.6175043e-08
1.3914126e-07
2.5101797e-07
4.4665446e-07
7.8212318e-07
1.3430465e-06
2.2496852e-06
3.6472752e-06
5.6581872e-06
8.2641453e-06
1.1118222e-05
1.3409642e-05
1.4064093e-05
1.2632947e-05
9.4393702e-06
6.1900881e-06
4.0566437e-06
3.0231895e-06
2.7052306e-06
2.9381422e-06
3.6604042e-06
6.2551241e-06
1.4361736e-05
2.9786178e-05
5.4628249e-05
8.5279546e-05
0.00011869837
0.00013306307
0.00013627348
0.0001428912
0.00014864294
0.00015532837
0.00016164172
0.00016875231
0.00017555655
0.00018403698
0.00019305806
0.00020738935
0.00022767925
0.00026961218
0.00033839233
0.00049014497
0.00077835596
3.4344071e-20
6.679446e-18
1.7790765e-16
1.8035597e-15
1.0906655e-14
4.8316946e-14
1.7444372e-13
5.4575898e-13
1.5371451e-12
3.9971556e-12
9.7654555e-12
2.2697908e-11
5.0659323e-11
1.0933573e-10
2.2942588e-10
4.7003556e-10
9.4332549e-10
1.8593263e-09
3.6063993e-09
6.8936772e-09
1.2999075e-08
2.4192228e-08
4.44362e-08
8.0507556e-08
1.4368281e-07
2.5203934e-07
4.3301956e-07
7.2483949e-07
1.1730422e-06
1.8149521e-06
2.642752e-06
3.5454928e-06
4.2675315e-06
4.464168e-06
4.0501891e-06
3.2152147e-06
2.4117445e-06
1.8458554e-06
1.6149022e-06
1.7793469e-06
2.0886227e-06
2.9885098e-06
5.9354456e-06
1.3484681e-05
2.7350943e-05
5.0229761e-05
7.8282829e-05
0.00010903365
0.00012590115
0.00012767147
0.00013299623
0.00013792274
0.00014395939
0.00015067421
0.00015786609
0.00016590968
0.00017403648
0.00018410274
0.00019498491
0.00021213549
0.00023399608
0.00027696345
0.00034731548
0.00050553947
0.00079769841
1.7704909e-20
3.4433551e-18
9.171343e-17
9.2973854e-16
5.6222086e-15
2.4905227e-14
8.9910336e-14
2.8125623e-13
7.9203012e-13
2.0590903e-12
5.0289524e-12
1.1683778e-11
2.6061906e-11
5.6205086e-11
1.1781882e-10
2.4105754e-10
4.8293113e-10
9.4966974e-10
1.8364139e-09
3.4963761e-09
6.5586623e-09
1.2123126e-08
2.2069563e-08
3.9518697e-08
6.9450901e-08
1.1937482e-07
1.9964477e-07
3.2243981e-07
4.9755946e-07
7.2282285e-07
9.6951829e-07
1.1722001e-06
1.2543826e-06
1.2142073e-06
1.1033568e-06
9.7085482e-07
9.0832429e-07
9.6101605e-07
1.1840951e-06
1.6608704e-06
2.7632083e-06
5.7456667e-06
1.2341771e-05
2.4982574e-05
4.6273776e-05
7.2004667e-05
0.00010002291
0.00011952678
0.00011980931
0.00012417799
0.00012813023
0.00013337833
0.00013947406
0.00014675257
0.00015425785
0.00016319742
0.00017259666
0.00018456948
0.00019763319
0.00021633167
0.00023959405
0.00028533717
0.00035659861
0.00051914958
0.00081404988
7.7905346e-21
1.515146e-18
4.0355346e-17
4.0908908e-16
2.4736804e-15
1.095706e-14
3.955153e-14
1.2370403e-13
3.4827517e-13
9.051433e-13
2.2096882e-12
5.1307826e-12
1.1435866e-11
2.4637208e-11
5.1575233e-11
1.0533513e-10
2.10535e-10
4.1275096e-10
7.9498817e-10
1.5057833e-09
2.8056896e-09
5.1409636e-09
9.2532339e-09
1.6326582e-08
2.8147561e-08
4.7190625e-08
7.641827e-08
1.1842148e-07
1.7349386e-07
2.3682665e-07
2.9742374e-07
3.4672306e-07
3.8575664e-07
4.2295125e-07
4.5714578e-07
5.0181233e-07
6.5188447e-07
9.4676172e-07
1.5266559e-06
2.6985465e-06
5.3844525e-06
1.1170087e-05
2.277233e-05
4.250661e-05
6.5994083e-05
9.1483239e-05
0.0001137971
0.00011261351
0.00011608627
0.00011925006
0.00012353417
0.00012886882
0.00013544319
0.00014287256
0.00015110039
0.00016095403
0.00017151238
0.00018491678
0.0001993511
0.00022066318
0.00024597745
0.00029304282
0.00036472814
0.00053532428
0.00082987251
3.0995478e-21
6.0281573e-19
1.6055603e-17
1.6275436e-16
9.84099e-16
4.3587108e-15
1.5731878e-14
4.9196473e-14
1.384773e-13
3.5978617e-13
8.7797871e-13
2.0375309e-12
4.5381879e-12
9.7679212e-12
2.0423364e-11
4.1646649e-11
8.3072315e-11
1.6244231e-10
3.1184791e-10
5.8821126e-10
1.0902584e-09
1.9846574e-09
3.5433768e-09
6.1909023e-09
1.0550746e-08
1.7463084e-08
2.792352e-08
4.2897093e-08
6.2927477e-08
8.8039072e-08
1.1811793e-07
1.5409292e-07
2.0407021e-07
2.7164758e-07
3.6771025e-07
5.55793e-07
8.8761055e-07
1.461687e-06
2.5617376e-06
4.912937e-06
1.0053854e-05
2.0950938e-05
3.9098995e-05
6.0485672e-05
8.3924528e-05
0.00010819654
0.00010597061
0.00010863843
0.00011102229
0.0001144801
0.00011889194
0.00012474455
0.00013150892
0.00013941133
0.00014806351
0.00015867275
0.00017029054
0.00018517974
0.00020166487
0.00022462277
0.00025115436
0.00030056005
0.00037447191
0.00054935819
0.00083763121
1.4861719e-21
2.8903832e-19
7.6983603e-18
7.80382e-17
4.7186827e-16
2.0900344e-15
7.5439207e-15
2.3592931e-14
6.6415849e-14
1.7258447e-13
4.2124177e-13
9.7786348e-13
2.1788829e-12
4.6924744e-12
9.8191629e-12
2.0045319e-11
4.0046805e-11
7.8479928e-11
1.5112146e-10
2.8626378e-10
5.3376425e-10
9.7978201e-10
1.7699013e-09