/*--------------------------------*- C++ -*----------------------------------*\
  =========                 |
  \\      /  F ield         | OpenFOAM: The Open Source CFD Toolbox
   \\    /   O peration     | Website:  https://openfoam.org
    \\  /    A nd           | Version:  13
     \\/     M anipulation  |
\*---------------------------------------------------------------------------*/
FoamFile
{
    format      ascii;
    class       volScalarField;
    location    "34.601636";
    object      pMean;
}
// * * * * * * * * * * * * * * * * * * * * * * * * * * * * * * * * * * * * * //

dimensions      [0 2 -2 0 0 0 0];

internalField   nonuniform List<scalar> 
17140
(
1.2202689
1.2201805
1.2200739
1.2199653
1.2198482
1.2197207
1.2195829
1.2194344
1.219275
1.2191046
1.2189229
1.2187297
1.2185246
1.2183069
1.218075
1.2178265
1.2175568
1.2172592
1.216923
1.216533
1.216067
1.2154947
1.2147736
1.2138463
1.2126458
1.2111159
1.2092216
1.2069233
1.2041504
1.2008111
1.1968043
1.1920171
1.1863255
1.1795972
1.1716944
1.1624781
1.1518163
1.1395942
1.1257313
1.1102047
1.093078
1.0745355
1.0549317
1.0348233
1.0150034
0.99649716
0.98034135
0.96758318
0.95926623
0.95624278
0.95908758
0.96814032
0.98354678
1.0049914
1.0320309
1.0634389
1.0983867
1.1345665
1.1721336
1.20673
1.241698
1.2676196
1.2967829
1.3070908
1.3288003
1.2188502
1.2187636
1.218659
1.2185526
1.2184377
1.2183127
1.2181774
1.2180317
1.2178754
1.2177081
1.2175298
1.2173404
1.2171393
1.216926
1.216699
1.2164558
1.2161922
1.2159013
1.2155729
1.2151917
1.214736
1.2141753
1.2134679
1.2125566
1.2113739
1.2098626
1.2079878
1.2057102
1.2029593
1.1996426
1.1956587
1.1908943
1.1852251
1.178518
1.1706343
1.1614343
1.150785
1.1385704
1.1247088
1.1091761
1.0920345
1.0734675
1.0538285
1.0336768
1.0138164
0.99524914
0.97902745
0.96623777
0.95789442
0.95483036
0.95763755
0.96665464
0.98200213
1.0033742
1.0303203
1.0616001
1.0963992
1.1324291
1.1698676
1.2043832
1.239428
1.2656963
1.2954888
1.3062362
1.3285149
1.2153704
1.215288
1.2151888
1.2150875
1.2149781
1.2148589
1.21473
1.2145911
1.2144419
1.2142825
1.2141125
1.213932
1.2137407
1.2135379
1.2133225
1.2130922
1.212843
1.2125685
1.2122587
1.2118988
1.2114675
1.2109351
1.2102605
1.2093877
1.2082482
1.2067823
1.2049539
1.2027245
1.2000244
1.1967605
1.1928306
1.1881204
1.1825042
1.1758475
1.1680098
1.1588491
1.1482299
1.1360338
1.1221762
1.1066304
1.089456
1.0708359
1.051124
1.03089
1.0109467
0.99227574
0.97594822
0.96307153
0.95466589
0.95155496
0.95430513
0.96323909
0.97848256
0.99973045
1.0265152
1.0575964
1.092167
1.1279548
1.1651959
1.1996369
1.2347983
1.2615078
1.2920707
1.3035247
1.3266905
1.209896
1.2098204
1.2097296
1.2096364
1.2095356
1.2094258
1.2093069
1.2091787
1.2090411
1.2088939
1.2087371
1.2085708
1.2083948
1.2082086
1.2080115
1.2078013
1.2075745
1.2073253
1.2070443
1.2067173
1.2063239
1.2058352
1.2052114
1.2043981
1.2033263
1.2019323
1.2001766
1.1980213
1.1953996
1.1922185
1.1883729
1.183748
1.1782159
1.1716398
1.1638762
1.1547799
1.1442118
1.1320494
1.1182041
1.102645
1.0854285
1.066737
1.0469263
1.0265805
1.0065208
0.98771101
0.97125336
0.95826773
0.94978153
0.94660992
0.94929421
0.95812819
0.97322855
0.99429271
1.0208446
1.0516214
1.0858375
1.1212761
1.1582295
1.1925608
1.227894
1.25528
1.2868471
1.2993711
1.3235985
1.2026044
1.202538
1.2024586
1.2023764
1.2022872
1.20219
1.2020847
1.201971
1.2018489
1.2017183
1.2015794
1.2014321
1.2012766
1.2011126
1.2009397
1.2007561
1.200559
1.200343
1.2000995
1.1998155
1.1994714
1.1990396
1.1984819
1.1977461
1.1967638
1.1954665
1.1938079
1.1917504
1.1892323
1.186161
1.1824284
1.1779181
1.1725
1.1660342
1.1583734
1.1493684
1.1388754
1.1267667
1.1129485
1.0973846
1.0801278
1.0613595
1.0414411
1.0209744
1.0007787
0.98182191
0.96523264
0.95213781
0.94358265
0.94036356
0.94299035
0.9517235
0.96667091
0.98752605
1.013797
1.0442036
1.078008
1.1130424
1.1496813
1.1839418
1.2195314
1.2477376
1.2804494
1.2942132
1.3195542
1.1937893
1.1937342
1.1936688
1.1936
1.1935253
1.1934437
1.1933551
1.1932594
1.1931565
1.1930464
1.1929293
1.1928054
1.1926749
1.192538
1.1923943
1.1922427
1.1920809
1.1919042
1.1917051
1.1914714
1.1911851
1.1908199
1.1903395
1.1896944
1.1888192
1.1876401
1.1860992
1.1841587
1.181765
1.178826
1.1752309
1.1708611
1.1655841
1.1592563
1.1517265
1.1428406
1.1324492
1.1204189
1.1066492
1.0910978
1.0738133
1.0549766
1.0349576
1.0143764
0.99404663
0.97495941
0.95825415
0.94506807
0.93646476
0.9332267
0.9358256
0.94448473
0.95929639
0.97994074
1.0059058
1.035896
1.0692318
1.1038351
1.1401694
1.174442
1.2104046
1.2396543
1.2735825
1.2886365
1.3150715
1.1838482
1.1838059
1.1837559
1.1837027
1.1836447
1.1835812
1.1835121
1.1834372
1.1833566
1.1832703
1.1831785
1.1830816
1.1829799
1.1828738
1.1827632
1.1826475
1.1825248
1.1823915
1.1822407
1.1820618
1.1818378
1.1815446
1.1811477
1.1806005
1.1798415
1.1787948
1.1773905
1.1755839
1.1733272
1.1705355
1.1670966
1.1628878
1.1577742
1.1516088
1.144236
1.1354967
1.1252354
1.113312
1.0996189
1.0841068
1.06682
1.0479396
1.0278472
1.0071757
0.98674088
0.9675562
0.95075647
0.93749821
0.92886646
0.92563444
0.92823685
0.93685992
0.95157623
0.97205257
0.99774959
1.0273635
1.0602479
1.0944535
1.1305672
1.1650051
1.2015215
1.2319481
1.2669296
1.2831533
1.3102578
1.1732625
1.1732343
1.1732007
1.1731648
1.1731253
1.1730818
1.1730342
1.1729824
1.1729264
1.1728663
1.1728025
1.1727352
1.172665
1.1725923
1.1725173
1.1724397
1.1723582
1.1722697
1.1721685
1.1720449
1.1718838
1.1716626
1.1713493
1.1709002
1.1702577
1.1693493
1.1680955
1.1664337
1.1643192
1.1616816
1.1584093
1.1543748
1.149441
1.1434573
1.1362642
1.1276972
1.1175951
1.1058106
1.0922281
1.0767918
1.0595411
1.0406592
1.0205408
0.99982096
0.97932848
0.96008715
0.94321468
0.92989272
0.92123849
0.91803103
0.92066968
0.92929356
0.94396283
0.96432736
0.98982683
1.0191502
1.051687
1.0855982
1.1215904
1.1563346
1.1935408
1.2251974
1.2609739
1.2781539
1.3056391
1.1625683
1.1625548
1.1625386
1.1625208
1.1625008
1.1624784
1.1624536
1.1624262
1.1623963
1.1623641
1.1623298
1.1622938
1.1622566
1.1622187
1.1621804
1.1621415
1.1621012
1.1620569
1.1620036
1.1619328
1.1618307
1.1616766
1.161441
1.1610831
1.1605491
1.1597712
1.1586693
1.157164
1.1551951
1.1527057
1.1496
1.145745
1.1409989
1.1352096
1.1282138
1.1198425
1.1099285
1.0983174
1.0848864
1.0695727
1.052412
1.03359
1.0135132
0.99281265
0.97233349
0.95308922
0.93617481
0.92280424
0.91413955
0.91096568
0.91364532
0.92229551
0.93696809
0.95727929
0.98264826
1.0117593
1.0440524
1.0778041
1.1138519
1.1492849
1.1874601
1.2202462
1.2564252
1.2740173
1.3011284
1.1523184
1.1523197
1.1523208
1.1523212
1.1523209
1.1523199
1.1523181
1.1523155
1.1523122
1.1523083
1.1523041
1.1522998
1.152296
1.152293
1.1522911
1.1522902
1.1522895
1.1522868
1.1522777
1.1522543
1.1522042
1.1521082
1.1519392
1.1516593
1.1512186
1.1505534
1.1495874
1.1482373
1.1464228
1.1440751
1.141118
1.1374365
1.1328818
1.1272945
1.1205089
1.1123529
1.1026547
1.0912546
1.0780236
1.0628932
1.0458965
1.0272225
1.0072826
0.98670511
0.96634172
0.94717641
0.93028953
0.91692802
0.90828282
0.90514155
0.90787189
0.91658384
0.93128767
0.95157409
0.97685065
1.0058463
1.0380568
1.0719688
1.1085105
1.1447632
1.1836756
1.2170792
1.2528492
1.2703542
1.2968488
1.1430358
1.1430512
1.1430687
1.1430865
1.1431052
1.1431247
1.1431452
1.1431667
1.1431892
1.1432129
1.143238
1.1432646
1.1432932
1.143324
1.1433571
1.1433923
1.1434286
1.1434638
1.1434938
1.1435111
1.1435042
1.1434554
1.1433392
1.1431205
1.1427528
1.1421769
1.1413205
1.1401014
1.1384344
1.1362369
1.133423
1.12989
1.1255084
1.1201212
1.113555
1.1056341
1.0961839
1.0850406
1.0720717
1.0572056
1.0404749
1.0220716
1.0023975
0.9820864
0.96198715
0.94304137
0.92632119
0.91307465
0.90450003
0.90141978
0.90418721
0.91288769
0.92756908
0.94781892
0.97304301
1.0020266
1.0343067
1.0685284
1.1055944
1.1425634
1.1818853
1.2152994
1.2503965
1.2677388
1.2932244
1.1351661
1.1351939
1.1352261
1.1352596
1.1352953
1.1353335
1.1353743
1.1354178
1.135464
1.1355132
1.1355655
1.135621
1.1356799
1.1357422
1.1358079
1.1358763
1.1359463
1.1360154
1.1360793
1.1361309
1.1361588
1.1361464
1.1360694
1.135895
1.1355797
1.1350681
1.1342925
1.1331734
1.1316247
1.1295591
1.1268858
1.123503
1.1192864
1.1140882
1.1077423
1.1000737
1.0909068
1.0800766
1.0674484
1.0529502
1.0366147
1.0186343
0.99940193
0.97954855
0.95989321
0.94135105
0.92497727
0.91198404
0.90357046
0.90049289
0.9031562
0.91171442
0.92625727
0.94638616
0.97152462
1.0004968
1.032917
1.0675529
1.1052254
1.1428586
1.1822576
1.2154229
1.2490574
1.2662111
1.2902763
1.1290295
1.1290674
1.1291117
1.1291581
1.1292078
1.1292616
1.1293195
1.1293816
1.1294482
1.1295194
1.1295953
1.129676
1.1297617
1.129852
1.1299467
1.130045
1.1301452
1.1302446
1.1303386
1.1304198
1.1304772
1.1304942
1.1304478
1.1303063
1.1300284
1.1295621
1.1288439
1.1277999
1.1263443
1.124385
1.1218345
1.118593
1.1145398
1.1095374
1.1034256
1.0960347
1.087192
1.0767371
1.064543
1.0505348
1.0347449
1.0173614
0.9987725
0.97958675
0.96057662
0.94262755
0.92677423
0.91418435
0.9059067
0.90274402
0.90518292
0.91349632
0.92778867
0.94771052
0.97270928
1.0016556
1.034393
1.0695805
1.1078921
1.1457101
1.1845923
1.2165001
1.2487935
1.2653096
1.2878181
1.1247851
1.1248301
1.1248828
1.1249384
1.1249983
1.1250635
1.1251341
1.1252103
1.1252924
1.1253806
1.1254751
1.125576
1.1256833
1.1257968
1.1259159
1.1260397
1.1261662
1.1262925
1.1264137
1.1265223
1.1266071
1.1266519
1.1266341
1.1265229
1.1262785
1.1258507
1.125179
1.1241928
1.1228136
1.1209581
1.1185028
1.1153933
1.1115102
1.1067131
1.1008555
1.0937797
1.085325
1.0753362
1.0636781
1.0502916
1.03521
1.0186103
1.0008624
0.98253614
0.96436217
0.94718091
0.93199288
0.91980216
0.91163209
0.9083386
0.91047724
0.91843312
0.93239036
0.95204909
0.97682934
1.0058494
1.0387952
1.0745846
1.1130095
1.1505522
1.1880408
1.2187796
1.2490277
1.2647513
1.2858969
1.1224014
1.12245
1.1225073
1.1225678
1.1226334
1.1227051
1.122783
1.1228677
1.1229594
1.1230585
1.1231652
1.1232798
1.1234023
1.1235325
1.12367
1.1238138
1.1239619
1.1241113
1.1242573
1.1243924
1.1245058
1.1245816
1.1245979
1.1245248
1.1243235
1.123945
1.1233306
1.1224125
1.1211137
1.119354
1.1170757
1.1141092
1.110349
1.1057825
1.1002186
1.0935094
1.0854999
1.0760473
1.0650377
1.0524172
1.0382066
1.0225708
1.0058452
0.9885469
0.9713559
0.95507089
0.94053923
0.92872454
0.92065044
0.91715016
0.9189308
0.92648403
0.94006857
0.9593662
0.98389809
1.0128779
1.0462415
1.0821702
1.1202503
1.1567061
1.1926388
1.2213779
1.2497195
1.2644859
1.2843387
1.1216867
1.1217354
1.1217934
1.1218543
1.1219207
1.1219936
1.1220734
1.1221604
1.1222552
1.1223582
1.1224699
1.1225906
1.1227206
1.1228598
1.1230081
1.1231647
1.1233279
1.1234952
1.1236624
1.1238225
1.1239658
1.1240776
1.1241373
1.1241166
1.1239781
1.1236743
1.1231473
1.1223299
1.1211461
1.1195163
1.1173615
1.1145586
1.1110872
1.1067664
1.101494
1.0952006
1.0877181
1.078915
1.0686898
1.0569726
1.0437872
1.0292731
1.0137159
0.9975761
0.98146533
0.96606354
0.95215917
0.94070228
0.93264301
0.92892703
0.93034309
0.93749922
0.95066329
0.96948457
0.9937565
1.0229064
1.0562826
1.0917752
1.1289534
1.1638156
1.1974764
1.2243345
1.2506547
1.2645492
1.283286
1.1222911
1.1223368
1.1223917
1.1224491
1.1225119
1.1225812
1.1226573
1.1227409
1.1228324
1.1229326
1.1230419
1.1231609
1.1232901
1.1234298
1.1235801
1.1237407
1.1239106
1.124088
1.1242695
1.1244499
1.1246207
1.1247694
1.1248781
1.1249215
1.124865
1.1246636
1.1242606
1.1235884
1.1225718
1.1211299
1.1191758
1.1166512
1.1134442
1.1094548
1.104648
1.098832
1.0919505
1.0839004
1.074568
1.0638854
1.0518599
1.0385906
1.024313
1.009409
0.99437159
0.97982325
0.96651759
0.95531942
0.94726202
0.9433275
0.9444138
0.95118225
0.96376164
0.98221152
1.0063989
1.0354332
1.0682051
1.1031003
1.1384845
1.1712429
1.202633
1.2273547
1.2519248
1.2649944
1.2827302
1.1238192
1.1238594
1.1239081
1.1239587
1.1240144
1.1240761
1.1241442
1.1242194
1.1243023
1.1243935
1.1244939
1.124604
1.1247246
1.1248563
1.1249997
1.1251549
1.1253218
1.1254994
1.1256859
1.1258777
1.1260688
1.1262498
1.1264068
1.126519
1.1265578
1.1264834
1.1262445
1.1257775
1.1250067
1.1238499
1.1222172
1.1200309
1.1172085
1.1136835
1.1093416
1.1041575
1.0980528
1.0908457
1.082509
1.0729731
1.0622131
1.0502856
1.0373513
1.0236848
1.0097026
0.99596987
0.98316379
0.97219021
0.96411615
0.96000445
0.96076879
0.96699401
0.97918901
0.99740848
1.0213128
1.0497056
1.0819875
1.115111
1.1483789
1.178811
1.2076809
1.2306518
1.2535847
1.2658594
1.2827142
1.1258507
1.1258839
1.1259242
1.1259662
1.1260124
1.126064
1.1261212
1.1261847
1.1262551
1.1263332
1.1264196
1.1265153
1.1266211
1.1267378
1.1268664
1.1270074
1.1271615
1.1273287
1.1275085
1.1276992
1.1278975
1.1280977
1.1282903
1.1284608
1.1285878
1.128641
1.1285784
1.1283446
1.1278711
1.1270775
1.1258745
1.1241741
1.1218873
1.1189512
1.1152939
1.1108584
1.1055574
1.0993724
1.092205
1.0839329
1.0745381
1.064017
1.052444
1.040009
1.027045
1.0140359
1.0016728
0.99086758
0.98279115
0.97843929
0.97880958
0.98465098
0.99657914
1.0144282
1.0377894
1.0657701
1.0964686
1.1274481
1.1583403
1.1861104
1.2129525
1.2342107
1.2556638
1.2671626
1.2832271
1.128045
1.1280706
1.1281017
1.1281343
1.1281704
1.1282108
1.1282559
1.1283063
1.1283624
1.1284251
1.1284951
1.1285732
1.1286603
1.1287574
1.1288656
1.1289859
1.1291193
1.1292666
1.1294285
1.1296048
1.1297947
1.1299955
1.1302025
1.1304074
1.1305971
1.1307514
1.1308414
1.1308269
1.130654
1.130255
1.1295496
1.1284499
1.1268659
1.1247159
1.1219268
1.1184416
1.114216
1.1092071
1.1032938
1.0964017
1.0884533
1.0793759
1.0691743
1.0579351
1.0459051
1.0335436
1.0215321
1.0108924
1.0026728
0.99805887
0.99809394
1.0037328
1.0153596
1.0327887
1.0558884
1.0826444
1.1110761
1.1397475
1.1678687
1.193547
1.2183774
1.2380812
1.2581795
1.26892
1.2842802
1.1301452
1.1301637
1.1301861
1.1302098
1.1302363
1.1302661
1.1302995
1.1303369
1.130379
1.1304263
1.1304794
1.1305393
1.1306066
1.1306825
1.1307679
1.1308641
1.1309723
1.1310938
1.1312298
1.1313814
1.1315492
1.1317331
1.1319321
1.1321429
1.1323597
1.1325725
1.1327655
1.1329154
1.1329892
1.132942
1.1327155
1.1322394
1.131434
1.1302165
1.1285077
1.1262312
1.1233069
1.1196648
1.1152168
1.1098596
1.1034514
1.0958665
1.0870175
1.0769011
1.0657116
1.0538772
1.0421535
1.0315029
1.0231281
1.0183082
1.0182284
1.0237463
1.0350992
1.052515
1.0747817
1.0993008
1.1256222
1.1515518
1.1774321
1.2009928
1.2240331
1.2422856
1.261138
1.2711351
1.2858617
1.132022
1.1320346
1.1320496
1.1320659
1.1320841
1.1321046
1.1321278
1.1321539
1.1321834
1.1322168
1.1322547
1.1322978
1.1323467
1.1324025
1.1324659
1.1325379
1.1326199
1.1327131
1.132819
1.132939
1.1330747
1.1332279
1.1333996
1.1335903
1.1337992
1.1340241
1.1342605
1.1345003
1.1347307
1.1349325
1.1350779
1.1351287
1.1350357
1.1347366
1.1341572
1.1332112
1.1317988
1.1298027
1.1270797
1.1234623
1.1187453
1.1127162
1.1052003
1.0961315
1.0856575
1.0742282
1.0625942
1.0518949
1.043401
1.0385862
1.0386416
1.0441641
1.0559049
1.0728628
1.0930925
1.1158092
1.1395619
1.1631809
1.1868679
1.2085614
1.2299367
1.2468298
1.2645463
1.2738203
1.2879784
1.1336299
1.1336377
1.1336469
1.1336571
1.1336684
1.1336813
1.1336959
1.1337125
1.1337313
1.1337528
1.1337776
1.1338059
1.1338377
1.1338737
1.1339149
1.133963
1.1340194
1.1340854
1.1341625
1.1342516
1.1343534
1.1344695
1.134603
1.1347569
1.1349342
1.1351378
1.1353709
1.1356364
1.1359374
1.136276
1.1366526
1.1370663
1.1375094
1.1379624
1.1383858
1.1387097
1.1388223
1.1385579
1.1377035
1.1359953
1.1331049
1.1287114
1.1225367
1.1144879
1.1046241
1.0934577
1.0818988
1.0711478
1.0627637
1.0584392
1.0588686
1.065301
1.0770726
1.0926395
1.1110543
1.1316558
1.1530206
1.1745353
1.1963065
1.2162598
1.2361055
1.2517313
1.2683979
1.2769714
1.2906228
1.1350316
1.1350351
1.1350395
1.1350442
1.1350496
1.1350557
1.1350629
1.1350711
1.1350806
1.1350917
1.1351045
1.1351193
1.1351363
1.1351566
1.135181
1.1352103
1.1352447
1.1352847
1.1353315
1.1353875
1.1354549
1.1355346
1.1356283
1.1357393
1.1358722
1.1360349
1.136236
1.1364843
1.1367918
1.1371755
1.1376562
1.1382639
1.1390282
1.1399695
1.1411
1.1423988
1.1437766
1.1450594
1.1459703
1.1461131
1.1450444
1.1422944
1.1374966
1.1303845
1.1210948
1.1102309
1.0987462
1.0884535
1.0811945
1.0777268
1.0795966
1.0865357
1.0973644
1.1114285
1.1284776
1.1465236
1.1660589
1.1857322
1.2057433
1.2241072
1.2425456
1.2569879
1.2726932
1.2805883
1.2937819
1.1362782
1.1362773
1.1362762
1.136275
1.1362737
1.1362726
1.1362718
1.1362714
1.1362714
1.136272
1.1362734
1.1362763
1.136281
1.1362853
1.1362886
1.1362928
1.1362998
1.1363118
1.1363314
1.1363603
1.1363987
1.1364462
1.1365037
1.1365765
1.1366712
1.1367953
1.1369592
1.1371775
1.137469
1.1378577
1.1383751
1.1390649
1.1399779
1.1411683
1.1426922
1.1445654
1.1467443
1.1490716
1.1512763
1.1529153
1.1534194
1.1521569
1.1486101
1.1424533
1.1337854
1.1235177
1.1131892
1.1047872
1.0987961
1.0972031
1.100037
1.10654
1.1164398
1.1294081
1.1443641
1.1609494
1.1787906
1.196779
1.2152105
1.2321135
1.2492612
1.2626027
1.2774241
1.2846655
1.2974552
1.137407
1.1374006
1.1373931
1.1373852
1.1373767
1.1373674
1.1373573
1.1373468
1.1373357
1.1373242
1.1373122
1.1372999
1.1372873
1.1372744
1.1372617
1.1372498
1.1372396
1.1372327
1.1372298
1.1372328
1.1372451
1.1372685
1.1373027
1.1373514
1.1374213
1.1375194
1.1376555
1.1378452
1.1381112
1.1384822
1.1389903
1.1396795
1.1406104
1.1418514
1.1434776
1.1455404
1.148057
1.150922
1.1538762
1.1564855
1.158078
1.1579356
1.1553802
1.1501049
1.1428175
1.13452
1.1265577
1.1197496
1.1160019
1.1158408
1.1186044
1.125129
1.1344016
1.1460201
1.1597677
1.1748683
1.1912101
1.2077156
1.2247172
1.2402868
1.2562542
1.268573
1.2825841
1.2891995
1.3016323
1.1381898
1.1381782
1.1381645
1.1381501
1.1381344
1.1381168
1.1380972
1.138076
1.1380547
1.1380332
1.1380109
1.1379876
1.1379634
1.1379384
1.1379126
1.1378862
1.1378598
1.1378341
1.1378105
1.1377916
1.1377806
1.1377807
1.1377935
1.1378203
1.1378683
1.1379497
1.1380738
1.1382496
1.1384954
1.1388432
1.1393305
1.1399975
1.1409027
1.1421154
1.1437193
1.1457903
1.1483326
1.1513029
1.1544671
1.1573997
1.159456
1.1599869
1.1585904
1.1551221
1.1500635
1.1441384
1.1382886
1.1339201
1.1322687
1.1325169
1.1360523
1.1423112
1.1511105
1.1618134
1.1744368
1.1883362
1.2033883
1.2185629
1.2342804
1.2486352
1.2635245
1.2748957
1.2881631
1.2941802
1.3063046
1.1384013
1.1383865
1.1383691
1.1383508
1.138331
1.1383094
1.138286
1.1382607
1.1382333
1.1382042
1.1381734
1.1381411
1.1381074
1.1380727
1.1380375
1.1380024
1.1379682
1.1379361
1.1379071
1.1378829
1.1378664
1.1378635
1.1378766
1.1379029
1.137945
1.1380161
1.1381282
1.138292
1.138524
1.1388416
1.1392765
1.1398795
1.1407048
1.1418132
1.1432596
1.14511
1.1474392
1.1502154
1.1532843
1.156302
1.1588294
1.1603719
1.1604204
1.1588584
1.1560801
1.1524648
1.1489872
1.14721
1.1465961
1.148148
1.1523659
1.1584582
1.1667495
1.1768177
1.1885813
1.2014362
1.2153509
1.2293469
1.2439133
1.2571646
1.2710705
1.2815673
1.2941546
1.2996116
1.3114639
1.1376718
1.137658
1.1376418
1.1376247
1.1376062
1.1375861
1.1375643
1.1375408
1.1375156
1.1374888
1.1374604
1.1374306
1.1373995
1.1373676
1.1373351
1.1373029
1.1372716
1.137242
1.1372154
1.1371943
1.1371809
1.1371767
1.1371842
1.1372071
1.1372503
1.1373223
1.1374297
1.1375804
1.1377878
1.1380822
1.1384894
1.139033
1.1397629
1.1407359
1.1420364
1.1437289
1.1458618
1.1484631
1.1514556
1.154664
1.1577214
1.1602046
1.1616931
1.1620858
1.1613654
1.1598843
1.1591801
1.1590852
1.1598904
1.162768
1.1672443
1.1735048
1.1816056
1.1911916
1.2022312
1.2142052
1.2271403
1.2400925
1.2536297
1.2658804
1.2788923
1.2885838
1.3005491
1.3054813
1.3170892
1.1361738
1.1361639
1.1361522
1.13614
1.1361267
1.1361122
1.1360967
1.1360799
1.136062
1.136043
1.136023
1.1360021
1.1359805
1.1359586
1.135937
1.135916
1.1358967
1.13588
1.1358672
1.13586
1.13586
1.1358698
1.1358927
1.1359321
1.1359899
1.136071
1.1361851
1.136347
1.1365671
1.1368499
1.1372253
1.1377469
1.1384589
1.1393926
1.140606
1.142204
1.144266
1.1468294
1.149898
1.1533738
1.1570239
1.1604629
1.1633438
1.1653097
1.1662722
1.167346
1.1686063
1.1699756
1.1724826
1.1761804
1.1812901
1.1877978
1.1957798
1.205011
1.2154807
1.2267102
1.2387949
1.2508246
1.2634433
1.2747902
1.2869902
1.2959417
1.307337
1.3117797
1.3231765
1.1340468
1.1340414
1.134035
1.1340284
1.1340213
1.1340137
1.1340056
1.133997
1.1339881
1.1339788
1.1339695
1.1339603
1.1339514
1.1339432
1.1339363
1.1339316
1.1339299
1.1339324
1.1339407
1.1339566
1.1339825
1.1340211
1.1340735
1.1341433
1.1342324
1.1343495
1.1345158
1.1347308
1.1350064
1.1353705
1.1358278
1.1364054
1.1371578
1.1381401
1.1394175
1.1410697
1.1431864
1.1458565
1.1491498
1.1530276
1.1572956
1.1616398
1.1655871
1.1686975
1.1717191
1.1747836
1.1774263
1.1804764
1.1842409
1.1888989
1.1946034
1.2014064
1.2093975
1.2183859
1.228398
1.2390008
1.2503531
1.2615683
1.2733704
1.283896
1.2953604
1.3036312
1.3145134
1.3184823
1.3297449
1.1315331
1.131531
1.1315286
1.1315261
1.1315237
1.1315213
1.131519
1.1315169
1.1315152
1.1315141
1.1315139
1.1315149
1.1315176
1.1315226
1.1315307
1.1315429
1.1315604
1.1315849
1.1316182
1.1316628
1.1317199
1.1317932
1.1318874
1.1320114
1.1321729
1.1323756
1.1326322
1.1329479
1.1333268
1.1337939
1.1343763
1.1351
1.1359994
1.1371184
1.1385308
1.1403334
1.1426442
1.1455991
1.1492954
1.1536889
1.1586217
1.1637041
1.1683582
1.1730066
1.1777805
1.1819733
1.1861155
1.1906162
1.195532
1.2010636
1.2073821
1.2145266
1.2225854
1.2314087
1.2410601
1.2511353
1.2618543
1.2723491
1.2834233
1.2932033
1.3040063
1.311645
1.3220727
1.3255809
1.3367536
1.128545
1.1285447
1.1285446
1.1285447
1.1285451
1.1285461
1.1285477
1.1285501
1.1285537
1.1285588
1.1285658
1.1285752
1.1285879
1.1286046
1.1286266
1.1286551
1.128692
1.1287393
1.1287999
1.1288762
1.1289728
1.1290948
1.1292502
1.1294451
1.1296836
1.1299741
1.1303275
1.1307565
1.1312758
1.1319013
1.1326527
1.1335518
1.1346351
1.135967
1.1376321
1.1397467
1.1424635
1.1459318
1.1501955
1.1552036
1.1607833
1.1663091
1.1720929
1.178171
1.1838853
1.1893377
1.1949059
1.2005726
1.2065124
1.2128722
1.2197819
1.2272767
1.235451
1.2441726
1.2535378
1.2631665
1.2733366
1.2831929
1.2936176
1.3027206
1.3129303
1.3199758
1.3300065
1.3330702
1.3441823
1.1248202
1.1248217
1.1248238
1.1248263
1.1248296
1.124834
1.1248395
1.1248467
1.1248558
1.1248674
1.1248821
1.1249008
1.1249243
1.1249541
1.1249915
1.1250385
1.1250973
1.1251707
1.1252622
1.1253759
1.1255175
1.1256923
1.1259068
1.1261692
1.1264877
1.1268738
1.1273394
1.1278982
1.1285644
1.1293527
1.1302846
1.131399
1.132749
1.1344056
1.1364817
1.1391245
1.1424858
1.146664
1.1516427
1.157397
1.1634315
1.1698711
1.17685
1.1837285
1.1904301
1.1971193
1.2037713
1.2104857
1.2173596
1.2244767
1.2319479
1.2397928
1.2481059
1.2567665
1.2659019
1.2751485
1.2848386
1.2941255
1.3039672
1.3124558
1.3221259
1.3286314
1.3382998
1.3409444
1.3520235
1.1199424
1.119947
1.1199529
1.1199597
1.1199679
1.1199778
1.1199897
1.1200042
1.1200218
1.1200431
1.1200692
1.120101
1.1201399
1.1201874
1.1202455
1.1203165
1.1204033
1.1205094
1.1206389
1.1207967
1.1209886
1.1212214
1.1215033
1.1218433
1.1222529
1.1227439
1.1233277
1.124019
1.1248384
1.1258137
1.1269799
1.1283867
1.1301087
1.1322537
1.1349581
1.1383661
1.1425834
1.1476331
1.1534926
1.1598645
1.1667039
1.1743364
1.1820821
1.1897901
1.1974796
1.205163
1.2128297
1.220493
1.2282066
1.2360182
1.2440113
1.2521897
1.2606496
1.2692748
1.2782197
1.2871329
1.2963976
1.3051725
1.3144877
1.3224132
1.3315968
1.3375964
1.3469428
1.3491884
1.3602488
1.1135179
1.113528
1.1135403
1.1135542
1.1135702
1.113589
1.1136111
1.113637
1.1136675
1.1137036
1.1137464
1.1137973
1.1138578
1.1139301
1.1140164
1.1141196
1.1142431
1.114391
1.1145682
1.1147801
1.1150336
1.1153371
1.115699
1.1161289
1.1166382
1.1172416
1.1179587
1.1188116
1.1198286
1.1210495
1.1225311
1.1243536
1.126625
1.1294756
1.1330397
1.1374176
1.1426417
1.1487006
1.1554091
1.1626064
1.1706895
1.1791251
1.1875974
1.1962554
1.204927
1.2135825
1.2221805
1.2307065
1.2391834
1.247625
1.2560944
1.2645805
1.2731801
1.2817792
1.2905571
1.299171
1.3080508
1.3163588
1.3251911
1.3326066
1.3413317
1.3468775
1.3559135
1.3577988
1.3688252
1.1051965
1.1052144
1.1052361
1.1052601
1.1052874
1.1053189
1.1053551
1.105397
1.1054455
1.1055017
1.1055672
1.1056436
1.1057328
1.1058374
1.1059601
1.1061034
1.1062719
1.1064719
1.106708
1.1069851
1.1073102
1.1076928
1.1081444
1.1086775
1.1093068
1.1100515
1.1109367
1.1119961
1.1132771
1.1148447
1.1167876
1.1192186
1.1222699
1.1260694
1.1307142
1.1362349
1.1426194
1.149724
1.1573782
1.1659099
1.1749844
1.1842035
1.1936775
1.2032762
1.2128933
1.2224609
1.2319239
1.2412408
1.2504081
1.2594156
1.2683099
1.2770677
1.2857875
1.2943563
1.3029759
1.3113105
1.3198327
1.3277094
1.3360952
1.3430372
1.3513381
1.3564694
1.3652031
1.3667314
1.3777788
1.094615
1.0946432
1.0946772
1.0947144
1.0947564
1.0948044
1.0948591
1.0949214
1.0949926
1.0950736
1.0951657
1.095271
1.0953951
1.095542
1.0957094
1.0959004
1.0961224
1.0963809
1.0966822
1.0970336
1.0974433
1.0979214
1.098481
1.0991389
1.0999168
1.1008439
1.1019604
1.1033214
1.1050022
1.1071016
1.1097413
1.1130565
1.1171764
1.1221893
1.128134
1.1349777
1.1426035
1.1508278
1.1599132
1.1696287
1.1795926
1.1898635
1.200339
1.2109039
1.2214545
1.2319018
1.2421752
1.2522154
1.2620019
1.2715076
1.280768
1.289751
1.2985581
1.3070784
1.3155342
1.3235978
1.3317776
1.3392461
1.347208
1.3537147
1.3616144
1.3663888
1.3748067
1.3761701
1.3869682
1.0816279
1.0816689
1.0817158
1.0817641
1.0818177
1.0818821
1.0819626
1.0820568
1.0821575
1.0822665
1.0823906
1.0825331
1.0826964
1.0828839
1.0830993
1.0833469
1.0836313
1.0839583
1.0843351
1.0847712
1.0852781
1.0858704
1.0865675
1.0873948
1.0883872
1.0895926
1.0910756
1.0929222
1.095241
1.0981612
1.1018194
1.1063427
1.1118149
1.1182689
1.1256851
1.1339071
1.1427801
1.1525264
1.1629713
1.1737308
1.1848452
1.1962276
1.2077478
1.2192955
1.2307619
1.2420473
1.2530715
1.2637643
1.2740942
1.284024
1.2935828
1.302734
1.3115834
1.3200237
1.3282959
1.3360817
1.3439196
1.350994
1.3585429
1.3646375
1.3721398
1.3765887
1.3846662
1.3857349
1.3963165
1.0662126
1.0662689
1.0663282
1.0663895
1.0664609
1.0665431
1.0666364
1.0667437
1.0668684
1.0670128
1.06718
1.0673733
1.0675937
1.0678394
1.0681109
1.0684142
1.0687592
1.0691547
1.0696097
1.0701359
1.0707485
1.0714681
1.0723225
1.07335
1.074603
1.0761533
1.0780957
1.080551
1.0836628
1.0875874
1.0924682
1.0984182
1.1054726
1.1136169
1.1226615
1.1324948
1.1431966
1.1546168
1.1663609
1.1784588
1.1908462
1.203393
1.2159911
1.228526
1.2408865
1.2529674
1.2646832
1.2759584
1.2867561
1.2970342
1.3068205
1.3160774
1.3249168
1.3332381
1.341298
1.348791
1.3562784
1.3629623
1.370104
1.375814
1.3829277
1.3871649
1.3949101
1.3963257
1.407277
1.048014
1.0480818
1.048166
1.0482574
1.0483591
1.048473
1.0486
1.0487412
1.0488984
1.049074
1.0492709
1.0494921
1.049741
1.0500218
1.0503397
1.0507011
1.0511141
1.0515891
1.0521394
1.0527832
1.0535447
1.0544569
1.0555648
1.0569292
1.0586312
1.0607761
1.0634942
1.0669384
1.0712719
1.0766466
1.0831765
1.0909214
1.0998133
1.1097826
1.120677
1.1325185
1.1450766
1.1579466
1.171173
1.1846993
1.1983925
1.2121474
1.2258469
1.2393711
1.2526043
1.2654393
1.277788
1.2895746
1.30076
1.3113035
1.3212323
1.330516
1.3392714
1.3474104
1.3552018
1.362358
1.3694568
1.3757264
1.3824338
1.3877512
1.3944362
1.3984904
1.4056564
1.4079836
1.4161289
1.028642
1.0287269
1.0288306
1.0289378
1.0290561
1.0291881
1.029335
1.0294984
1.0296806
1.0298839
1.0301115
1.0303668
1.0306544
1.0309797
1.0313499
1.0317741
1.0322644
1.0328371
1.033514
1.0343245
1.0353085
1.03652
1.0380308
1.0399344
1.0423493
1.0454189
1.049306
1.0541805
1.0601965
1.0674639
1.0760384
1.0858447
1.0967825
1.1088237
1.1217292
1.1353131
1.1492542
1.1636159
1.1783202
1.1932184
1.2081941
1.2231204
1.2378682
1.2523102
1.2663273
1.2798112
1.2926751
1.3048459
1.3162878
1.3269654
1.3369106
1.346104
1.3546679
1.3625346
1.3699743
1.3767352
1.3833843
1.3892124
1.3954402
1.4003651
1.4065972
1.4104254
1.4171756
1.4195327
1.4271808
1.0104833
1.0105788
1.0106953
1.0108155
1.0109476
1.0110945
1.0112575
1.0114385
1.0116399
1.0118646
1.0121163
1.0123994
1.01272
1.0130855
1.0135063
1.0139957
1.0145721
1.0152602
1.0160933
1.0171164
1.0183897
1.0199923
1.0220263
1.0246191
1.0279238
1.0321132
1.0373677
1.0438538
1.051696
1.0609566
1.0715959
1.0834947
1.0967148
1.1105994
1.1251193
1.1401669
1.1557053
1.1716093
1.1877199
1.2039182
1.2200697
1.2360384
1.2516896
1.266893
1.2815298
1.2954947
1.3087053
1.3210951
1.3326337
1.3432963
1.35312
1.3621034
1.3703699
1.3778794
1.3848959
1.3912131
1.397368
1.4027421
1.4084577
1.4130161
1.41874
1.4224458
1.4286118
1.4314979
1.4380937
0.99658875
0.99668967
0.99681261
0.99693921
0.99707807
0.9972322
0.99740305
0.99759278
0.9978042
0.99804088
0.99830741
0.99860981
0.99895607
0.99935691
0.99982677
1.0003852
1.0010588
1.0018831
1.0029062
1.0041915
1.0058219
1.0079036
1.0105681
1.0139725
1.0182948
1.0237223
1.0304317
1.0385635
1.0481941
1.0593137
1.0718144
1.0857047
1.1003946
1.1156809
1.1318245
1.1484902
1.165505
1.1827462
1.2000854
1.2173855
1.2345069
1.2513073
1.2676484
1.2833997
1.2984446
1.3126832
1.326039
1.338456
1.3499097
1.3603892
1.3699398
1.3785751
1.3864267
1.3934819
1.3999916
1.4058068
1.4114139
1.4163077
1.4214783
1.4256634
1.4308641
1.4344069
1.4400539
1.4430148
1.4491238
0.98884079
0.98894213
0.98906515
0.98919184
0.98933065
0.98948468
0.9896556
0.98984592
0.99005906
0.99029946
0.99057308
0.9908879
0.99125473
0.99168826
0.99220842
0.99284221
0.99362596
0.9946082
0.99585294
0.99744336
0.99948526
1.0021096
1.0054729
1.0097531
1.0151403
1.0218195
1.0299462
1.0396195
1.0508574
1.0635846
1.0777182
1.0928856
1.1088288
1.1258102
1.1432964
1.1611778
1.1793308
1.1976153
1.2158904
1.2340092
1.2518225
1.2691823
1.2859478
1.3019904
1.317196
1.3314712
1.3447482
1.3569766
1.3681495
1.3782648
1.3873799
1.3955287
1.4028418
1.4093404
1.4152574
1.4205046
1.4255089
1.4298884
1.4344826
1.4382831
1.4429509
1.4463453
1.4514789
1.4546922
1.4603064
0.98956893
0.98966553
0.98978141
0.98990215
0.9900345
0.99018147
0.99034512
0.99052842
0.99073549
0.99097191
0.99124526
0.99156586
0.99194786
0.9924105
0.99297988