/*--------------------------------*- C++ -*----------------------------------*\
  =========                 |
  \\      /  F ield         | OpenFOAM: The Open Source CFD Toolbox
   \\    /   O peration     | Website:  https://openfoam.org
    \\  /    A nd           | Version:  13
     \\/     M anipulation  |
\*---------------------------------------------------------------------------*/
FoamFile
{
    format      ascii;
    class       volSymmTensorField;
    location    "27.100446";
    object      UPrime2Mean;
}
// * * * * * * * * * * * * * * * * * * * * * * * * * * * * * * * * * * * * * //

dimensions      [0 2 -2 0 0 0 0];

internalField   nonuniform List<symmTensor> 
17140
(
(5.0489311e-12 -2.8394836e-10 -1.9430226e-27 1.7819952e-08 3.0239615e-26 1.1081701e-40)
(5.5618581e-10 -5.7492883e-09 -9.0861081e-28 1.6920452e-07 6.4123759e-27 9.5030931e-43)
(4.9884986e-09 -2.5939701e-08 1.5178209e-25 5.1222223e-07 -6.7104503e-25 4.1411643e-39)
(2.3494927e-08 -7.626064e-08 -3.2913357e-25 1.0989024e-06 1.02963e-24 5.0023496e-39)
(7.8584375e-08 -1.7849557e-07 6.6539669e-26 1.990444e-06 -1.5806013e-25 6.8323349e-41)
(2.1517757e-07 -3.6399995e-07 -3.4790994e-25 3.257752e-06 6.5499224e-25 7.3127969e-40)
(5.1646061e-07 -6.7616832e-07 -8.8859906e-25 4.9816036e-06 1.3597917e-24 2.0708041e-39)
(1.1284897e-06 -1.1732396e-06 6.3407301e-25 7.2522292e-06 -8.0203012e-25 4.9300213e-40)
(2.2977322e-06 -1.9311906e-06 2.9514779e-24 1.0168039e-05 -3.1227622e-24 5.2744372e-39)
(4.4268195e-06 -3.0461698e-06 1.0071618e-23 1.3833206e-05 -8.9947227e-24 3.1676687e-38)
(8.1552904e-06 -4.6357299e-06 -2.041447e-23 1.8353785e-05 1.5497801e-23 6.9506362e-38)
(1.4473512e-05 -6.8378131e-06 2.4514648e-23 2.3832073e-05 -1.5906583e-23 5.5060437e-38)
(2.487894e-05 -9.8060747e-06 4.9970843e-24 3.0359005e-05 -2.7830055e-24 1.2858917e-39)
(4.1583706e-05 -1.3699843e-05 -3.7214366e-23 3.8004556e-05 1.7856507e-23 4.0975517e-38)
(6.7780466e-05 -1.8667018e-05 5.3946895e-24 4.6806447e-05 -2.2355487e-24 5.0280645e-40)
(0.00010796843 -2.4818669e-05 -5.5310446e-23 5.6757845e-05 1.9840412e-23 3.1376596e-38)
(0.00016833265 -3.2195568e-05 2.6390364e-24 6.7795298e-05 -8.2115264e-25 4.3175566e-41)
(0.00025715752 -4.0729454e-05 -7.6094738e-25 7.9788569e-05 2.0474366e-25 2.1454962e-42)
(0.00038524125 -5.0205963e-05 -6.7672116e-23 9.2534382e-05 1.586549e-23 1.0696843e-38)
(0.00056626894 -6.0240961e-05 1.0993297e-22 0.00010575592 -2.2408533e-23 1.7756045e-38)
(0.00081710331 -7.0286059e-05 -6.5784451e-23 0.00011910938 1.1660465e-23 4.0543553e-39)
(0.0011579745 -7.9678282e-05 1.5397315e-23 0.0001321982 -2.378515e-24 1.44932e-40)
(0.0016126739 -8.774469e-05 1.3832543e-22 0.00014459545 -1.8576071e-23 7.6966659e-39)
(0.0022090892 -9.3955923e-05 -1.6612103e-22 0.00015587659 1.9417836e-23 7.4626238e-39)
(0.0029790979 -9.8016347e-05 -3.1495322e-22 0.00016566938 3.2045574e-23 1.8405905e-38)
(0.0039591432 -9.9763021e-05 2.9808383e-22 0.00017372019 -2.6413444e-23 1.1556027e-38)
(0.0051943215 -9.9560727e-05 1.7100641e-21 0.00017992895 -1.3175691e-22 2.7101691e-37)
(0.0067396765 -9.7660522e-05 2.3366325e-22 0.00018437272 -1.5620827e-23 3.6612386e-39)
(0.0086596888 -9.3679111e-05 -2.3528047e-21 0.00018728014 1.366037e-22 2.7536308e-37)
(0.011032052 -8.7636006e-05 -6.2930408e-22 0.00018900664 3.159353e-23 1.4737896e-38)
(0.013950099 -7.9472733e-05 -2.551166e-21 0.00018994167 1.1055055e-22 1.8443273e-37)
(0.01752381 -6.8663419e-05 3.7969736e-21 0.00019040162 -1.415665e-22 3.1521699e-37)
(0.021881107 -5.4411475e-05 -1.1159488e-21 0.0001905717 3.5605324e-23 2.118476e-38)
(0.027168603 -3.5692824e-05 -5.9748083e-22 0.00019049513 1.6267685e-23 4.8045591e-39)
(0.033551597 -1.1325304e-05 -6.5769361e-21 0.00019010526 1.5136101e-22 4.6260134e-37)
(0.041212449 2.0072169e-05 3.2098203e-21 0.00018929037 -6.211901e-23 8.9011784e-38)
(0.0503459 6.020491e-05 -5.3711455e-21 0.00018795493 8.6272857e-23 2.0230514e-37)
(0.061149696 0.00011125083 -4.0149197e-21 0.00018606797 5.2824887e-23 9.2840051e-38)
(0.073808285 0.00017606137 -2.0216404e-21 0.00018372907 2.1366693e-23 1.9504525e-38)
(0.088467358 0.00025840997 6.6870328e-21 0.0001812165 -5.5459001e-23 1.7940484e-37)
(0.10519838 0.00036290643 1.3719344e-20 0.0001790088 -8.5708869e-23 6.3892652e-37)
(0.12395342 0.00049456586 1.3442743e-20 0.00017772101 -5.94767e-23 5.2504274e-37)
(0.14451726 0.00065732467 6.2928948e-21 0.0001779402 -1.7560771e-23 9.9662379e-38)
(0.16648448 0.0008523495 -3.2692765e-20 0.00018012419 4.2571661e-23 2.3454687e-36)
(0.18924092 0.0010754148 -2.530286e-20 0.00018462848 -1.2651872e-24 1.2431529e-36)
(0.21201542 0.0013126169 6.52775e-21 0.00019167946 8.4292816e-24 7.42562e-38)
(0.23406117 0.0015490613 -4.6256408e-20 0.0002014863 -1.1355929e-22 3.3869931e-36)
(0.25453795 0.0017695828 -1.6242163e-20 0.00021417857 -5.7741516e-23 3.848726e-37)
(0.27273158 0.0019615192 1.6964954e-20 0.00022961126 7.8256694e-23 3.9301836e-37)
(0.28823788 0.0021149471 4.2223565e-20 0.00024749847 2.37979e-22 2.3141005e-36)
(0.30073246 0.002225238 -2.620909e-20 0.00026788673 -1.738172e-22 8.6164501e-37)
(0.30990279 0.0022995254 -1.653636e-20 0.00029221838 -1.25912e-22 3.3702486e-37)
(0.31559509 0.0023715348 4.2741023e-20 0.0003212632 3.7055424e-22 2.2488872e-36)
(0.31789248 0.0024580041 1.9844395e-20 0.00035568979 1.9441527e-22 4.9298428e-37)
(0.31715866 0.0025549387 1.3761349e-20 0.00039816596 1.5149528e-22 2.4588076e-37)
(0.31411327 0.0026740374 -1.0451689e-20 0.00045484888 -1.2888069e-22 1.4916813e-37)
(0.30941333 0.0028289431 2.6859073e-20 0.00053499174 3.6871357e-22 1.0679563e-36)
(0.30326624 0.0030190168 2.1213331e-20 0.00065239557 3.2189719e-22 7.3386292e-37)
(0.29555907 0.0032092458 4.9578856e-21 0.00082232862 8.1973805e-23 4.5435411e-38)
(0.28566961 0.0033322738 -1.1831296e-20 0.001048552 -2.0747514e-22 2.9849239e-37)
(0.27271474 0.0032803024 -8.4100387e-21 0.0012896329 -1.5025654e-22 1.8129086e-37)
(0.25679204 0.0029443108 -2.7952582e-20 0.0014598986 -4.7355439e-22 2.466022e-36)
(0.23559157 0.002306605 -3.6129254e-21 0.0015038324 -5.3423651e-23 5.282815e-38)
(0.21319594 0.0014713956 2.6549405e-20 0.0015022647 3.0098803e-22 3.7298294e-36)
(0.18165455 0.00079579872 -1.7270921e-20 0.001603379 -1.5607626e-22 2.2285165e-36)
(3.4357439e-10 -8.0288128e-09 2.5595292e-27 1.8766756e-07 -5.0606048e-26 8.9743502e-42)
(5.5198799e-09 -9.8533579e-08 -8.2905205e-25 1.7696259e-06 1.3082314e-23 1.1402948e-37)
(2.4922402e-08 -3.6172332e-07 1.4294162e-24 5.3237111e-06 -1.8402414e-23 9.0262865e-38)
(7.7957803e-08 -9.2998264e-07 -6.5172666e-25 1.13436e-05 6.9694306e-24 6.7050116e-39)
(1.999485e-07 -1.9889671e-06 -2.0866183e-24 2.039046e-05 1.8845307e-23 2.8595571e-38)
(4.5384649e-07 -3.80315e-06 5.8933136e-24 3.308637e-05 -4.5508438e-23 1.043276e-37)
(9.4729978e-07 -6.7384615e-06 -8.7865575e-24 5.0101045e-05 5.8464692e-23 1.1325938e-37)
(1.8585288e-06 -1.1289236e-05 1.0794637e-24 7.2128348e-05 -6.2217841e-24 8.7624459e-40)
(3.4750609e-06 -1.8109127e-05 -4.6164587e-24 9.984967e-05 2.3137919e-23 8.5284276e-39)
(6.2502611e-06 -2.8043214e-05 -1.0577699e-25 0.00013388144 4.6241874e-25 2.4321999e-42)
(1.0884033e-05 -4.2157684e-05 -2.7715511e-23 0.00017470482 1.0591693e-22 9.4683131e-38)
(1.843532e-05 -6.1761294e-05 5.8079062e-23 0.00022257716 -1.944071e-22 2.3838306e-37)
(3.04749e-05 -8.8410419e-05 6.271088e-24 0.0002774284 -1.8413058e-23 1.620414e-39)
(4.928673e-05 -0.00012388674 -8.0268108e-23 0.00033874999 2.069674e-22 1.5713264e-37)
(7.8124118e-05 -0.00017013517 3.1731825e-23 0.00040549114 -7.1906377e-23 1.4733672e-38)
(0.00012152235 -0.0002291503 2.5764866e-23 0.00047598492 -5.1335018e-23 5.8961553e-39)
(0.00018566137 -0.0003028049 -2.0757898e-22 0.00054793425 3.637111e-22 2.3495265e-37)
(0.00027876085 -0.00039262626 8.5257616e-22 0.00061849189 -1.3137082e-21 2.4632298e-36)
(0.00041147765 -0.00049954641 -6.6812246e-22 0.00068446367 9.0519064e-22 9.5132538e-37)
(0.00059726734 -0.00062368104 9.942102e-22 0.00074264535 -1.1840352e-21 1.3413764e-36)
(0.00085267388 -0.00076421925 -1.8086767e-21 0.00079026847 1.8929961e-21 2.8675301e-36)
(0.0011975323 -0.00091951913 5.4120971e-22 0.00082547982 -4.977112e-22 1.6838728e-37)
(0.0016551813 -0.0010875031 2.6957135e-22 0.00084773101 -2.1781184e-22 2.7866531e-38)
(0.0022530149 -0.0012663934 -1.0562285e-21 0.00085793822 7.4967278e-22 2.8973559e-37)
(0.0030225212 -0.001455313 4.5051643e-21 0.00085833282 -2.8097975e-21 3.6435354e-36)
(0.0039996061 -0.001654573 7.9124515e-22 0.00085188744 -4.3354323e-22 7.8839754e-38)
(0.0052286993 -0.0018662261 -4.7697946e-21 0.00084117588 2.2984249e-21 2.0612058e-36)
(0.0067643329 -0.0020931463 6.1863816e-21 0.00082829473 -2.6199745e-21 2.5273505e-36)
(0.0086701045 -0.0023375921 -9.7463266e-22 0.00081523846 3.6287135e-22 4.6784048e-38)
(0.011022609 -0.0026021723 -1.0930644e-20 0.00080322073 3.5687146e-21 4.3979673e-36)
(0.013913804 -0.0028890724 1.2858686e-21 0.00079264248 -3.681755e-22 4.661397e-38)
(0.017451935 -0.0031992544 1.1176108e-20 0.00078335695 -2.7995302e-21 2.704682e-36)
(0.021762766 -0.0035325863 3.22489e-22 0.00077488229 -7.0340101e-23 1.7002226e-39)
(0.026990246 -0.003887779 -1.0548811e-20 0.00076657674 2.0174047e-21 1.4867135e-36)
(0.0332963 -0.0042621399 1.3163819e-20 0.00075772469 -2.195892e-21 1.8496784e-36)
(0.040858991 -0.0046508981 -6.6094134e-21 0.00074756859 9.6018715e-22 3.7565764e-37)
(0.049867498 -0.0050460792 8.6148907e-21 0.00073531819 -1.0886355e-21 5.2221214e-37)
(0.060512299 -0.0054350199 3.0306345e-20 0.00072019002 -3.3221768e-21 5.3054307e-36)
(0.0729685 -0.0057986466 7.4770675e-21 0.00070153774 -7.0897356e-22 2.67477e-37)
(0.087369905 -0.00610984 3.1956088e-20 0.00067907938 -2.6116901e-21 4.1055543e-36)
(0.10377306 -0.0063328442 -4.4484269e-20 0.00065329199 3.1177399e-21 6.757974e-36)
(0.12211219 -0.0064252158 -4.4320352e-20 0.00062597964 2.6452662e-21 5.7328684e-36)
(0.14215228 -0.0063437292 -8.1805228e-21 0.00060090145 4.1213866e-22 1.6782317e-37)
(0.16346272 -0.0060538654 6.9460515e-20 0.00058419962 -2.9097767e-21 1.07015e-35)
(0.18540023 -0.0055420823 -3.4895082e-20 0.00058435056 1.1952122e-21 2.382326e-36)
(0.20718552 -0.0048316887 -1.2728839e-20 0.00061074771 3.47777e-22 2.8405722e-37)
(0.22798562 -0.0039700121 7.0757813e-21 0.00066943408 -1.4820715e-22 8.0777124e-38)
(0.24701464 -0.0030167714 2.2894682e-20 0.00075712809 -3.4542518e-22 7.7675384e-37)
(0.2636373 -0.0020531768 -1.1481196e-20 0.00086231175 1.1195191e-22 1.8340859e-37)
(0.27739024 -0.0011338129 2.1175354e-20 0.00097133285 -1.0069876e-22 5.9383237e-37)
(0.28796868 -0.00027226645 1.2846103e-19 0.0010740642 -1.4930287e-23 2.1190919e-35)
(0.29517047 0.00052529234 6.1252569e-21 0.0011701251 2.6683476e-23 4.7598734e-38)
(0.29895856 0.0012436026 -2.7344329e-20 0.001264142 -2.3279717e-22 9.5043664e-37)
(0.29955632 0.0018495371 5.9693587e-20 0.0013601377 7.6000137e-22 4.627062e-36)
(0.2975598 0.0023044819 -4.9535288e-20 0.0014603675 -8.4194623e-22 3.317081e-36)
(0.29372331 0.0026249289 1.3523298e-19 0.00156437 2.8864527e-21 2.6258377e-35)
(0.288823 0.002885197 3.6750204e-20 0.0016723958 9.541642e-22 2.1016824e-36)
(0.28318028 0.0031573923 -9.7355755e-20 0.0017938615 -2.990135e-21 1.6407575e-35)
(0.27664856 0.003510442 1.5418854e-20 0.0019452092 5.5364669e-22 4.6661977e-37)
(0.2685451 0.0039080766 1.6128414e-20 0.0021348736 6.5790538e-22 6.0079935e-37)
(0.25765696 0.0042679847 2.9243676e-21 0.0023304435 1.3244883e-22 2.3983892e-38)
(0.24388834 0.0044368959 -3.4748387e-20 0.0024556887 -1.7035839e-21 4.2121813e-36)
(0.22446054 0.0043252875 5.9185192e-20 0.0024419821 3.0526043e-21 1.5960019e-35)
(0.20367404 0.0041219938 1.5348725e-20 0.0024049692 8.2223982e-22 1.4298786e-36)
(0.17273284 0.0036266819 2.1120044e-20 0.0024775566 1.2379621e-21 3.9483831e-36)
(2.9685209e-09 -4.2377986e-08 3.7809188e-25 6.0498838e-07 -5.0858227e-24 2.7277438e-38)
(3.3822136e-08 -4.3923943e-07 -5.8399833e-25 5.7059653e-06 7.2053522e-24 1.0416866e-38)
(1.2024786e-07 -1.4362538e-06 -2.6838964e-25 1.716916e-05 3.0270399e-24 7.3651102e-40)
(3.0533885e-07 -3.3399396e-06 3.8681486e-25 3.6593675e-05 -3.9850808e-24 6.6186451e-40)
(6.5617032e-07 -6.5621953e-06 -2.6834967e-24 6.5799877e-05 2.5270887e-23 1.5533526e-38)
(1.2785232e-06 -1.1663704e-05 -2.7602192e-25 0.00010681009 2.3765914e-24 8.5813507e-41)
(2.3362806e-06 -1.9393431e-05 -4.7565563e-24 0.0001618072 3.7402435e-23 1.3999373e-38)
(4.0795405e-06 -3.0734394e-05 -6.7992166e-24 0.00023306037 4.8745789e-23 1.623325e-38)
(6.8852564e-06 -4.6955551e-05 7.2760306e-23 0.00032280806 -4.7465818e-22 1.0828689e-36)
(1.1314593e-05 -6.9664857e-05 -8.4232257e-23 0.00043308925 4.9898366e-22 8.6174786e-37)
(1.8192512e-05 -0.00010085733 5.1854168e-23 0.00056551532 -2.7837679e-22 1.9691798e-37)
(2.8716042e-05 -0.00014294834 9.712473e-23 0.00072098095 -4.7158685e-22 4.2159344e-37)
(4.4598341e-05 -0.00019877839 -2.4484233e-22 0.00089932196 1.0731401e-21 1.6520837e-36)
(6.8255312e-05 -0.00027157137 -3.8356954e-23 0.0010989442 1.5146753e-22 2.5200995e-38)
(0.0001030398 -0.00036482559 1.8650239e-22 0.0013164693 -6.6227108e-22 3.7360135e-37)
(0.0001535245 -0.0004821185 1.608063e-22 0.0015464704 -5.1250447e-22 1.7529981e-37)
(0.00022582826 -0.00062681449 -2.327995e-22 0.0017813982 6.6464113e-22 2.3363039e-37)
(0.00032797148 -0.00080168541 1.0470279e-21 0.0020118115 -2.6726665e-21 3.0277777e-36)
(0.00047023669 -0.0010084875 -7.6457174e-22 0.0022270209 1.7417237e-21 1.0436815e-36)
(0.00066550493 -0.0012475864 4.6447438e-22 0.002416194 -9.4255438e-22 2.5117437e-37)
(0.00092954212 -0.0015177693 -1.9101511e-21 0.0025698613 3.4473583e-21 2.8040024e-36)
(0.0012812269 -0.0018164076 -6.0152116e-22 0.002681592 9.6398703e-22 1.8576975e-37)
(0.0017427985 -0.002140126 1.5066744e-21 0.0027494312 -2.1412869e-21 7.9014155e-37)
(0.0023404307 -0.0024860675 -2.7002142e-21 0.0027765993 3.3989994e-21 1.7458023e-36)
(0.0031045939 -0.0028530964 -1.2561727e-21 0.0027710842 1.3989536e-21 2.6377948e-37)
(0.0040697974 -0.0032421821 1.7629808e-21 0.0027437396 -1.7366416e-21 3.7117607e-37)
(0.0052788011 -0.0036572718 1.1635246e-20 0.0027044009 -1.0125103e-20 1.1677472e-35)
(0.0067846922 -0.004104145 6.0750805e-21 0.002660653 -4.6664643e-21 2.3371854e-36)
(0.0086487376 -0.0045877287 -3.4676683e-21 0.0026185045 2.3501726e-21 5.7112953e-37)
(0.010944745 -0.0051132091 4.2452387e-21 0.0025813776 -2.5323136e-21 6.4336036e-37)
(0.01376103 -0.0056850143 -2.9994334e-21 0.0025500485 1.5752966e-21 2.4879175e-37)
(0.017201376 -0.0063055456 -1.9261577e-20 0.0025235668 8.8814736e-21 7.9096531e-36)
(0.021385959 -0.0069752393 7.264894e-21 0.002500088 -2.9395565e-21 8.8326945e-37)
(0.02645181 -0.0076923999 2.436303e-20 0.0024774421 -8.6407909e-21 7.8687356e-36)
(0.032552218 -0.0084526208 -9.0696539e-21 0.0024532898 2.8183361e-21 8.7929895e-37)
(0.039854274 -0.0092474661 -1.4187998e-20 0.0024250469 3.8555798e-21 1.7341433e-36)
(0.04853319 -0.010062357 2.7316564e-20 0.002389743 -6.4849298e-21 5.2502406e-36)
(0.058761615 -0.010873788 9.2425863e-21 0.002344007 -1.9132569e-21 4.9388137e-37)
(0.070691911 -0.011646113 -1.8068246e-20 0.0022843562 3.2558974e-21 1.5808391e-36)
(0.084429314 -0.012328551 -7.9358011e-21 0.0022079518 1.2410008e-21 2.5716738e-37)
(0.09999521 -0.012854086 4.1688642e-20 0.0021140723 -5.6328863e-21 6.0069735e-36)
(0.11728235 -0.013143043 -1.2761686e-20 0.0020065702 1.4801273e-21 4.8762802e-37)
(0.13600969 -0.013113434 -1.996851e-20 0.0018967028 1.9767239e-21 1.0312355e-36)
(0.15569439 -0.012698727 -5.7220483e-20 0.0018052112 4.7800785e-21 7.4061266e-36)
(0.17564893 -0.011872539 1.1567539e-19 0.0017622839 -8.0298489e-21 2.6947837e-35)
(0.195071 -0.01067748 -7.9090628e-20 0.0018016602 4.4757219e-21 1.1336504e-35)
(0.21313856 -0.0092124455 -2.0948197e-20 0.0019433475 9.4390252e-22 7.2233457e-37)
(0.22912395 -0.0075973793 -8.5843741e-20 0.0021768052 2.94034e-21 1.1322654e-35)
(0.24247933 -0.0059691271 -1.0585851e-19 0.0024674773 2.5937003e-21 1.6243895e-35)
(0.25288718 -0.004429461 -5.4930902e-21 0.0027687907 8.8660836e-23 4.1673351e-38)
(0.26021173 -0.0030179568 2.3462025e-20 0.0030470447 -1.6864489e-22 7.4300124e-37)
(0.26442655 -0.0017473186 -1.7223218e-19 0.0033007647 -1.8465963e-22 3.988435e-35)
(0.26566391 -0.00065241014 -7.2657795e-20 0.0035479397 -6.2880424e-22 7.1749992e-36)
(0.26432088 0.00019017199 -7.313903e-20 0.0038038037 -1.1777838e-21 7.4850764e-36)
(0.26113949 0.00071796569 -2.3299509e-20 0.0040657365 -5.5551399e-22 7.9709409e-37)
(0.25697316 0.00096009941 -1.7264018e-19 0.0043140527 -5.3985896e-21 4.6966605e-35)
(0.25263372 0.0010622629 6.5088588e-20 0.0045230728 2.5776808e-21 7.304026e-36)
(0.24835004 0.0012059381 -1.8512418e-20 0.0046810801 -8.8945028e-22 6.6723432e-37)
(0.2437556 0.0015782687 -1.4090668e-19 0.0047929458 -8.0907171e-21 4.4394545e-35)
(0.23797014 0.0021971437 -5.1160302e-20 0.0048656635 -3.443003e-21 6.9545035e-36)
(0.22930996 0.0029952453 5.4651226e-20 0.0048759957 4.2080572e-21 9.8091332e-36)
(0.21765547 0.0037745832 1.6628997e-19 0.0047636865 1.4339863e-20 1.1575571e-34)
(0.19952066 0.0042997292 -4.5798408e-20 0.0044812402 -4.3421619e-21 1.1802957e-35)
(0.18056881 0.0048786019 -6.2963475e-20 0.0042356535 -6.5604935e-21 3.0660083e-35)
(0.15055709 0.0047640714 -2.1861139e-20 0.0040741525 -2.611974e-21 5.6236586e-36)
(1.1813982e-08 -1.2009472e-07 -2.4895223e-24 1.2208235e-06 2.4568404e-23 3.0591682e-37)
(1.2168189e-07 -1.1840149e-06 7.9165742e-24 1.1521395e-05 -7.4907113e-23 5.4152711e-37)
(3.9776841e-07 -3.7143026e-06 -4.7285565e-24 3.4687668e-05 4.2724617e-23 7.0775513e-38)
(9.2790616e-07 -8.284326e-06 7.4833103e-25 7.3980542e-05 -6.4428376e-24 8.3609143e-40)
(1.8365117e-06 -1.5632688e-05 -2.0341421e-23 0.0001331251 1.6661001e-22 3.2660942e-37)
(3.3027754e-06 -2.6717848e-05 2.8007441e-23 0.00021627864 -2.1782376e-22 3.4944563e-37)
(5.58278e-06 -4.2768395e-05 -5.5315481e-23 0.00032795503 4.0743524e-22 8.0349332e-37)
(9.039901e-06 -6.5338842e-05 3.33533e-23 0.0004728836 -2.3194751e-22 1.7771099e-37)
(1.4186953e-05 -9.6370691e-05 1.607095e-22 0.00065578281 -1.0516952e-21 2.5659335e-36)
(2.174319e-05 -0.00013825167 -4.8551772e-23 0.00088102803 2.9795176e-22 1.4815114e-37)
(3.2710523e-05 -0.0001938651 -2.3095406e-22 0.0011521971 1.3244631e-21 2.1452655e-36)
(4.8473803e-05 -0.00026661668 8.7628791e-23 0.0014714859 -4.6794847e-22 1.9950735e-37)
(7.0930444e-05 -0.00036042152 7.2439933e-24 0.001839006 -3.5893545e-23 8.889376e-40)
(0.00010265422 -0.00047962956 -3.5066214e-22 0.002252007 1.6065733e-21 1.3574143e-36)
(0.0001470968 -0.00062886508 1.3509365e-21 0.0027041097 -5.7024518e-21 1.3225713e-35)
(0.0002088276 -0.00081275837 -1.0187151e-21 0.0031846951 3.9477458e-21 4.9560643e-36)
(0.00029380845 -0.00103556 -1.1894237e-23 0.0036786507 4.2165247e-23 4.4669077e-40)
(0.00040969334 -0.0013006534 8.4308402e-22 0.0041667192 -2.7245066e-21 1.4920607e-36)
(0.00056613798 -0.0016100242 -2.6056093e-21 0.0046266891 7.6491413e-21 9.5199777e-36)
(0.00077510184 -0.0019638081 1.4901999e-21 0.0050355716 -3.9606929e-21 2.0942664e-36)
(0.0010511302 -0.0023600942 2.6800068e-21 0.0053726857 -6.4280713e-21 4.5916546e-36)
(0.0014116178 -0.0027951972 1.3016312e-21 0.0056232335 -2.8087552e-21 7.4083297e-37)
(0.0018771069 -0.0032645814 -7.6671785e-21 0.005781551 1.484403e-20 1.7817956e-35)
(0.0024718845 -0.0037645653 -4.7420755e-21 0.0058529567 8.2152911e-21 4.7788938e-36)
(0.0032247538 -0.0042942206 3.5967892e-21 0.0058532677 -5.5638946e-21 1.9601664e-36)
(0.0041681469 -0.0048555388 -2.4508455e-21 0.0058053161 3.3773375e-21 6.5536069e-37)
(0.0053422608 -0.0054547948 1.062925e-20 0.0057312836 -1.3030579e-20 9.0548571e-36)
(0.0067976844 -0.0061009638 -3.5168052e-21 0.0056477874 3.8281239e-21 7.3669552e-37)
(0.0085921757 -0.0068017112 1.0853031e-20 0.0055671518 -1.0472716e-20 5.2926685e-36)
(0.010795148 -0.0075647968 -6.9868271e-21 0.0054967675 5.9661869e-21 1.6772816e-36)
(0.013489166 -0.0083968027 4.9105359e-21 0.0054384773 -3.7033471e-21 6.3877409e-37)
(0.016771044 -0.0093014451 -2.0335507e-20 0.005390334 1.3530711e-20 8.5839128e-36)
(0.020752224 -0.010279509 3.2841598e-21 0.0053484701 -1.9254552e-21 1.7749091e-37)
(0.025558966 -0.011328579 -1.9476081e-20 0.0053082691 1.0044593e-20 4.9631578e-36)
(0.031331155 -0.012442133 2.0841079e-20 0.0052646892 -9.448262e-21 4.5868386e-36)
(0.03821905 -0.013607595 7.4580203e-21 0.0052120003 -2.9675295e-21 4.7427429e-37)
(0.046376707 -0.01480326 -1.0291866e-19 0.0051434042 3.5918761e-20 7.4807291e-35)
(0.055950162 -0.015994258 -2.9728469e-20 0.005050946 9.0828475e-21 5.1645261e-36)
(0.067058527 -0.01712798 2.7107433e-20 0.0049260598 -7.2357895e-21 3.6028785e-36)
(0.079766234 -0.018129969 -2.9188701e-20 0.0047612131 6.7882063e-21 3.5302429e-36)
(0.094046507 -0.018902765 8.2127629e-21 0.0045532962 -1.6569851e-21 2.3700442e-37)
(0.1097385 -0.019331488 5.560602e-20 0.004309217 -9.6936757e-21 9.4260467e-36)
(0.12650625 -0.019299405 -2.7715841e-21 0.0040525861 4.1486797e-22 2.0605397e-38)
(0.14381444 -0.018715586 -2.1595949e-20 0.0038288876 2.7405872e-21 1.0864779e-36)
(0.16095685 -0.017556716 1.111735e-20 0.0037054751 -1.1714874e-21 2.6079908e-37)
(0.17717367 -0.015904968 -6.015714e-21 0.003755135 5.281718e-22 6.5596124e-38)
(0.19172136 -0.013920938 -1.7870579e-20 0.0040174499 1.2560569e-21 5.5023079e-37)
(0.2040185 -0.011801259 2.8406021e-19 0.0044682489 -1.5506337e-20 1.3115748e-34)
(0.21372625 -0.0097447424 -3.2637084e-20 0.005029148 1.2911734e-21 1.6430152e-36)
(0.22073415 -0.0078729768 3.0642782e-20 0.0055974256 -8.2105562e-22 1.3992335e-36)
(0.22506322 -0.0062149801 -2.8972628e-19 0.0061049646 4.1981054e-21 1.2290501e-34)
(0.22680545 -0.0047771585 1.579217e-19 0.0065552703 -4.7199921e-22 3.6552839e-35)
(0.22620382 -0.0036175444 1.2799045e-19 0.0069944599 1.0738327e-21 2.4445178e-35)
(0.22377328 -0.002848059 1.189327e-19 0.0074580652 2.302847e-21 2.1945038e-35)
(0.22034485 -0.0025383626 1.1028787e-19 0.0079379419 3.3509091e-21 2.001195e-35)
(0.21679153 -0.0026180067 1.6480774e-19 0.0083844474 6.8834114e-21 4.8432656e-35)
(0.21376841 -0.0028418561 -3.1036222e-19 0.0087294495 -1.6778097e-20 1.9022388e-34)
(0.211268 -0.0029140814 1.7776435e-19 0.0089256658 1.1949636e-20 7.0928012e-35)
(0.20852611 -0.0025343038 2.4742898e-19 0.0089551495 2.0169502e-20 1.6106878e-34)
(0.20442815 -0.0016238019 -1.642446e-19 0.0088177675 -1.5979106e-20 8.5847889e-35)
(0.19683722 -0.00027180886 -4.651196e-20 0.0085074231 -5.2708168e-21 8.6861735e-36)
(0.1859352 0.0013020092 -3.5341021e-20 0.0079771351 -4.5707028e-21 6.5857692e-36)
(0.16760805 0.0025632587 1.5309588e-19 0.0072730595 2.2517441e-20 1.7055394e-34)
(0.14903112 0.0039352445 9.4175885e-20 0.0066475828 1.5678783e-20 9.2018779e-35)
(0.11975994 0.0042930188 -3.2311742e-21 0.0061001222 -6.4013781e-22 1.7859454e-37)
(3.1749405e-08 -2.4899677e-07 2.9051269e-24 1.9527753e-06 -2.2391764e-23 1.5167781e-37)
(3.1389095e-07 -2.4061635e-06 -1.8900928e-23 1.8444872e-05 1.4230342e-22 1.1690379e-36)
(9.8934443e-07 -7.4150326e-06 2.4910706e-23 5.557654e-05 -1.8266463e-22 7.7682717e-37)
(2.2195288e-06 -1.6226581e-05 -1.3413932e-23 0.0001186373 9.5646616e-23 1.1091413e-37)
(4.2195708e-06 -3.0026772e-05 -6.5249327e-24 0.00021369744 4.517318e-23 1.4471658e-38)
(7.279124e-06 -5.0294616e-05 7.3205047e-23 0.00034757201 -4.9122334e-22 1.0712108e-36)
(1.1786717e-05 -7.8856304e-05 -2.3648358e-23 0.00052771708 1.5345365e-22 6.8690926e-38)
(1.8261305e-05 -0.00011794081 -6.3060738e-23 0.00076202417 3.9464225e-22 3.0954687e-37)
(2.7394081e-05 -0.00017023616 -6.0043337e-24 0.00105848 3.6130335e-23 1.8212017e-39)
(4.0102393e-05 -0.00023893718 -6.2802657e-23 0.0014246559 3.6220998e-22 1.3132746e-37)
(5.7598845e-05 -0.00032777529 1.0759452e-22 0.0018669965 -5.9275201e-22 2.5725977e-37)
(8.1478636e-05 -0.00044101555 -9.1070315e-23 0.002389887 4.7754817e-22 1.241162e-37)
(0.00011382857 -0.00058340299 -4.0740252e-22 0.0029945097 2.0259003e-21 1.6823731e-36)
(0.00015736057 -0.00076003579 -1.4347958e-23 0.0036775441 6.7402281e-23 1.4172065e-39)
(0.00021557201 -0.00097614244 4.5565448e-22 0.0044298351 -2.014015e-21 9.7789968e-37)
(0.00029293344 -0.0012367453 3.8938664e-22 0.005235251 -1.6127624e-21 4.8876055e-37)
(0.00039510234 -0.001546207 -4.0354888e-22 0.006070052 1.5595741e-21 3.6013025e-37)
(0.00052915897 -0.0019076866 4.644179e-23 0.0069031833 -1.6674337e-22 3.2965836e-39)
(0.00070385904 -0.0023225809 1.1331785e-21 0.0076979228 -3.7632585e-21 1.3498875e-36)
(0.00092989891 -0.002790088 1.6500685e-21 0.0084152001 -5.0462224e-21 1.9847994e-36)
(0.0012201956 -0.0033070978 -2.2411678e-21 0.0090185723 6.2839676e-21 2.5558845e-36)
(0.0015901951 -0.0038686416 -2.6704892e-21 0.009480287 6.8357295e-21 2.5527427e-36)
(0.0020582389 -0.0044690789 4.2315885e-21 0.0097871691 -9.8479214e-21 4.5513935e-36)
(0.0026461817 -0.0051041415 -6.13024e-21 0.0099444949 1.2920158e-20 6.8533111e-36)
(0.0033805013 -0.0057735071 -1.2356736e-20 0.0099760343 2.3499762e-20 2.0211909e-35)
(0.0042912561 -0.0064808807 3.3629069e-20 0.009919401 -5.7527512e-20 1.1020599e-34)
(0.0054152964 -0.0072354779 -2.1242725e-20 0.0098146644 3.2594014e-20 3.2789384e-35)
(0.0067993989 -0.0080494801 3.5909623e-20 0.0096909134 -4.9290458e-20 7.0722166e-35)
(0.0084972826 -0.0089337539 -5.0911591e-20 0.009569275 6.2362708e-20 1.0868163e-34)
(0.01057254 -0.0098986411 6.4201384e-20 0.0094634089 -7.0009136e-20 1.336357e-34)
(0.013100175 -0.010952686 -7.4672975e-20 0.0093774064 7.2336785e-20 1.413869e-34)
(0.016167911 -0.012100763 1.4074785e-20 0.0093084015 -1.2090696e-20 3.9767113e-36)
(0.019875836 -0.013343685 5.437677e-20 0.0092499201 -4.1344479e-20 4.7244491e-35)
(0.024336238 -0.014677898 -3.4164163e-20 0.0091939365 2.2960635e-20 1.5020914e-35)
(0.029671784 -0.016094273 1.1861922e-20 0.0091314953 -7.0369753e-21 1.4729313e-36)
(0.036011492 -0.017575559 3.8210275e-21 0.0090522494 -1.9990366e-21 1.2620314e-37)
(0.043483115 -0.019092415 5.2238563e-20 0.0089437695 -2.4052697e-20 1.9335743e-35)
(0.052200368 -0.020598271 1.876364e-20 0.0087913611 -7.5951576e-21 2.0736473e-36)
(0.062243312 -0.022023642 2.0773892e-20 0.0085789859 -7.3738257e-21 2.1328328e-36)
(0.073630636 -0.023271385 2.2349132e-20 0.0082922236 -6.9413412e-21 2.1113993e-36)
(0.086284762 -0.02421608 -1.2366089e-19 0.0079244469 3.346426e-20 5.550671e-35)
(0.099993366 -0.024712446 5.8614511e-20 0.0074870493 -1.3749772e-20 1.0815355e-35)
(0.11437605 -0.024617603 1.0103154e-20 0.0070218285 -2.0459102e-21 2.7652872e-37)
(0.12887482 -0.023832333 -1.2323277e-19 0.0066112387 2.1219904e-20 3.713947e-35)
(0.14282462 -0.02236236 -6.6144721e-20 0.0063767821 9.6044669e-21 9.5970223e-36)
(0.15557556 -0.020354131 3.4033144e-20 0.0064429514 -4.1081777e-21 2.3283051e-36)
(0.16656811 -0.018041424 1.2889128e-19 0.0068650095 -1.2571125e-20 3.0791633e-35)
(0.17544653 -0.015690065 -5.7662165e-20 0.0075907728 4.4493307e-21 5.8207486e-36)
(0.18208335 -0.013524428 1.7219163e-19 0.0084731697 -9.809472e-21 4.9515172e-35)
(0.18649677 -0.011646742 9.4617511e-20 0.0093324331 -3.7225866e-21 1.4551196e-35)
(0.18876979 -0.010047552 1.3063182e-19 0.010063484 -3.0505462e-21 2.748449e-35)
(0.18902754 -0.0087181641 3.4766283e-19 0.010691261 -2.51024e-21 1.9627404e-34)
(0.18755909 -0.0077456933 -2.6332288e-19 0.011309552 -2.0428947e-21 1.158898e-34)
(0.18495673 -0.0072814444 8.3337027e-20 0.011981966 1.9815096e-21 1.215452e-35)
(0.18208717 -0.0073876407 -1.3703369e-19 0.012689732 -5.1678774e-21 3.5321086e-35)
(0.1797391 -0.007924522 -1.2328286e-19 0.013342438 -6.6262989e-21 3.1339175e-35)
(0.17828823 -0.0085268779 -4.5077413e-20 0.01381744 -3.2098475e-21 4.7141501e-36)
(0.17741575 -0.0087766623 -3.7895017e-19 0.014018243 -3.3510992e-20 3.8446741e-34)
(0.17587187 -0.0082826713 -9.2652553e-20 0.013896727 -1.0068449e-20 2.7417016e-35)
(0.17238797 -0.006919763 1.8962379e-19 0.013435866 2.4940291e-20 1.4182505e-34)
(0.16447927 -0.0048649011 6.2833451e-20 0.012677818 9.8471804e-21 2.0142937e-35)
(0.15288812 -0.0023581594 -4.0357504e-20 0.011570931 -7.3468416e-21 1.1219568e-35)
(0.13355586 -0.00027413911 -6.9623736e-20 0.01034594 -1.4649867e-20 4.7950094e-35)
(0.11429981 0.0017586578 -8.912412e-20 0.0092160995 -2.1845401e-20 1.1623962e-34)
(0.08671359 0.0025360372 5.164979e-21 0.0081806795 1.5325213e-21 6.7592012e-37)
(6.6819703e-08 -4.2438213e-07 1.3178391e-23 2.6953169e-06 -8.2742487e-23 1.4081387e-36)
(6.4758969e-07 -4.0625995e-06 9.0082522e-24 2.5486485e-05 -5.5781072e-23 1.2264978e-37)
(2.0040274e-06 -1.2411775e-05 -1.1638226e-23 7.6872309e-05 7.092223e-23 8.0401219e-38)
(4.4060005e-06 -2.6903746e-05 -6.0467866e-23 0.00016428339 3.6228562e-22 1.0959924e-36)
(8.1985458e-06 -4.9285565e-05 4.4069369e-23 0.00029629602 -2.5931457e-22 3.2892873e-37)
(1.3823335e-05 -8.1674281e-05 -8.1722219e-23 0.00048260921 4.7165898e-22 6.8123782e-37)
(2.1843959e-05 -0.00012660917 4.4565946e-23 0.00073393303 -2.5185201e-22 1.2749675e-37)
(3.2976438e-05 -0.00018709829 1.3165403e-23 0.0010617417 -7.2700885e-23 7.2297557e-39)
(4.8127594e-05 -0.00026665754 -9.132281e-23 0.001477845 4.9162756e-22 2.3151454e-37)
(6.8441793e-05 -0.00036933088 -2.3908134e-22 0.0019937243 1.2515248e-21 1.0747141e-36)
(9.5357866e-05 -0.00049968052 -1.449859e-23 0.0026195828 7.3596684e-23 2.7059636e-39)
(0.00013067754 -0.00066273141 5.6975095e-22 0.0033630709 -2.7958823e-21 2.9007422e-36)
(0.00017664716 -0.00086385194 -9.4345625e-22 0.0042276812 4.4613041e-21 5.5464879e-36)
(0.00023605415 -0.0011085514 1.8186726e-21 0.0052108655 -8.2582001e-21 1.4445112e-35)
(0.00031233965 -0.0014021769 -5.6633133e-22 0.0063020216 2.4601999e-21 9.8515053e-37)
(0.00040972874 -0.0017495012 1.4315838e-21 0.0074806277 -5.9258803e-21 4.4385698e-36)
(0.00053338016 -0.0021542136 -2.0558721e-21 0.0087149667 8.0745767e-21 6.4720356e-36)
(0.00068955758 -0.0026183563 1.5834787e-21 0.0099620324 -5.874495e-21 2.7208193e-36)
(0.00088582805 -0.003141802 -2.9604387e-22 0.011169297 1.0325185e-21 6.764055e-38)
(0.001131296 -0.0037219264 -1.4178313e-21 0.012278919 4.6262398e-21 1.1067292e-36)
(0.0014368888 -0.0043536875 4.0564673e-21 0.013234584 -1.2320729e-20 6.4955276e-36)
(0.0018157179 -0.0050303463 -6.7121826e-21 0.013990389 1.888176e-20 1.2838968e-35)