/*--------------------------------*- C++ -*----------------------------------*\
  =========                 |
  \\      /  F ield         | OpenFOAM: The Open Source CFD Toolbox
   \\    /   O peration     | Website:  https://openfoam.org
    \\  /    A nd           | Version:  13
     \\/     M anipulation  |
\*---------------------------------------------------------------------------*/
FoamFile
{
    format      ascii;
    class       volScalarField;
    location    "36.498221";
    object      p;
}
// * * * * * * * * * * * * * * * * * * * * * * * * * * * * * * * * * * * * * //

dimensions      [0 2 -2 0 0 0 0];

internalField   nonuniform List<scalar> 
17140
(
-0.29131493
-0.29132282
-0.29133217
-0.29134216
-0.29135312
-0.29136522
-0.29137855
-0.29139318
-0.29140923
-0.29142681
-0.29144603
-0.291467
-0.2914898
-0.29151454
-0.29154129
-0.29157011
-0.29160106
-0.29163415
-0.29166939
-0.29170675
-0.2917462
-0.29178771
-0.2918313
-0.2918771
-0.29192542
-0.29197699
-0.29203315
-0.29209637
-0.29217081
-0.29226327
-0.29238425
-0.29254883
-0.29277625
-0.29308687
-0.29349552
-0.2940033
-0.2945924
-0.2952279
-0.29586564
-0.29646185
-0.29698055
-0.2973981
-0.29770295
-0.29789134
-0.29797709
-0.29798203
-0.29791631
-0.2977947
-0.29763836
-0.29747677
-0.29734772
-0.29733513
-0.29752833
-0.29815742
-0.29923382
-0.30120986
-0.30286275
-0.305472
-0.30045564
-0.28830118
-0.24174815
-0.19039063
-0.15153928
-0.16267531
-0.15112801
-0.29162336
-0.29163173
-0.29164181
-0.29165179
-0.29166168
-0.29167314
-0.29168746
-0.29170353
-0.29172023
-0.29173816
-0.29175786
-0.29177937
-0.29180277
-0.29182816
-0.29185562
-0.29188522
-0.29191702
-0.29195103
-0.29198728
-0.29202575
-0.29206642
-0.29210928
-0.29215436
-0.29220181
-0.292252
-0.29230568
-0.29236429
-0.29243035
-0.29250817
-0.29260474
-0.29273082
-0.29290187
-0.29313764
-0.293459
-0.29388123
-0.29440548
-0.29501365
-0.29567016
-0.29633008
-0.29694891
-0.29749004
-0.29792928
-0.29825429
-0.29846012
-0.29855942
-0.29857123
-0.29849961
-0.2983499
-0.2981275
-0.29783574
-0.29746848
-0.29703964
-0.29652445
-0.2959901
-0.29519798
-0.29431124
-0.29171681
-0.28832716
-0.27624473
-0.25851738
-0.21583322
-0.17747511
-0.15883083
-0.18884316
-0.18981567
-0.29201071
-0.292019
-0.29202916
-0.29203964
-0.29205017
-0.29206238
-0.29207667
-0.29209207
-0.29210873
-0.292127
-0.29214699
-0.2921688
-0.29219253
-0.29221828
-0.29224614
-0.29227619
-0.29230848
-0.29234305
-0.29237991
-0.29241907
-0.29246051
-0.29250423
-0.29255031
-0.29259891
-0.29265042
-0.29270565
-0.29276607
-0.2928343
-0.29291471
-0.29301441
-0.29314435
-0.29332019
-0.29356201
-0.29389108
-0.29432307
-0.29485939
-0.2954819
-0.2961548
-0.29683276
-0.29747085
-0.29803198
-0.29849155
-0.29883645
-0.29906078
-0.29917607
-0.29919825
-0.29912554
-0.29895392
-0.29867279
-0.29825867
-0.29766046
-0.29682058
-0.29559842
-0.29389424
-0.29122289
-0.28746291
-0.28066397
-0.27164625
-0.25292635
-0.2309738
-0.19092082
-0.16459018
-0.16533242
-0.21315051
-0.22299862
-0.29248232
-0.29249053
-0.29250024
-0.29251061
-0.29252199
-0.29253455
-0.29254837
-0.29256358
-0.29258027
-0.29259855
-0.29261855
-0.29264037
-0.29266413
-0.29268991
-0.29271783
-0.29274794
-0.29278032
-0.29281501
-0.29285203
-0.29289139
-0.2929331
-0.29297718
-0.29302369
-0.29307286
-0.29312509
-0.29318122
-0.29324278
-0.29331241
-0.29339454
-0.29349631
-0.29362872
-0.2938075
-0.29405288
-0.29438636
-0.29482395
-0.29536761
-0.29599945
-0.29668387
-0.29737558
-0.29802947
-0.29860823
-0.29908697
-0.29945188
-0.29969645
-0.29983099
-0.29986844
-0.29980147
-0.29961717
-0.29928897
-0.2987667
-0.29795391
-0.29672101
-0.29481071
-0.29195395
-0.2874207
-0.28080724
-0.26988576
-0.25525927
-0.23049591
-0.20466752
-0.16822174
-0.15273769
-0.17014934
-0.23527368
-0.24686553
-0.29304101
-0.29304909
-0.29305866
-0.29306888
-0.29308009
-0.29309247
-0.29310611
-0.29312111
-0.29313758
-0.29315563
-0.29317538
-0.29319693
-0.2932204
-0.29324589
-0.2932735
-0.2933033
-0.29333537
-0.29336974
-0.29340646
-0.29344554
-0.29348701
-0.29353089
-0.29357729
-0.29362643
-0.29367876
-0.29373515
-0.29379714
-0.2938674
-0.29395036
-0.29405312
-0.2941866
-0.29436646
-0.29461283
-0.29494725
-0.29538619
-0.29593219
-0.29656805
-0.29725885
-0.29795976
-0.29862588
-0.29921994
-0.29971682
-0.30010214
-0.30036929
-0.30052738
-0.30058632
-0.30053403
-0.30034931
-0.29999023
-0.29938058
-0.29837892
-0.29678422
-0.2942215
-0.2902503
-0.2838992
-0.27448984
-0.25959679
-0.23952765
-0.20973537
-0.17980996
-0.14672358
-0.14203605
-0.17356896
-0.25248916
-0.25781222
-0.29368839
-0.29369629
-0.29370583
-0.29371575
-0.29372663
-0.29373866
-0.29375192
-0.2937665
-0.29378252
-0.29380008
-0.2938193
-0.29384029
-0.29386316
-0.29388801
-0.29391494
-0.29394403
-0.29397536
-0.29400898
-0.29404492
-0.29408323
-0.29412392
-0.29416707
-0.29421278
-0.29426129
-0.2943131
-0.29436907
-0.29443077
-0.29450085
-0.2945837
-0.29468631
-0.29481942
-0.2949984
-0.29524314
-0.29557521
-0.2960111
-0.29655405
-0.29718835
-0.29788027
-0.29858575
-0.29926048
-0.29986741
-0.30038151
-0.30078801
-0.3010806
-0.30126762
-0.30135558
-0.30132904
-0.30115927
-0.30079003
-0.30012035
-0.29896486
-0.29705221
-0.29388811
-0.28885728
-0.28074952
-0.26862481
-0.24989324
-0.22510886
-0.19106815
-0.15850031
-0.12757504
-0.13300247
-0.17678086
-0.25959299
-0.25652783
-0.29442449
-0.29443201
-0.29444108
-0.29445056
-0.29446096
-0.29447246
-0.29448515
-0.29449911
-0.29451444
-0.29453127
-0.29454969
-0.29456982
-0.29459177
-0.29461563
-0.29464152
-0.29466951
-0.29469968
-0.29473208
-0.29476678
-0.29480381
-0.29484322
-0.29488508
-0.29492953
-0.29497682
-0.29502747
-0.29508237
-0.29514307
-0.2952122
-0.29529404
-0.29539543
-0.29552676
-0.295703
-0.29594353
-0.2962696
-0.29669805
-0.29723303
-0.29786033
-0.29854789
-0.29925312
-0.29993261
-0.30055002
-0.30108053
-0.3015093
-0.30183098
-0.3020527
-0.30217861
-0.30219085
-0.30205438
-0.3017
-0.30100388
-0.29973826
-0.29756252
-0.29385922
-0.28783541
-0.27804459
-0.26330101
-0.24103439
-0.21277198
-0.17536525
-0.14071786
-0.11338879
-0.12632289
-0.17917054
-0.25885036
-0.24631035
-0.29524575
-0.29525279
-0.29526125
-0.29527014
-0.29527991
-0.29529072
-0.29530264
-0.29531576
-0.29533019
-0.29534603
-0.29536339
-0.29538237
-0.29540308
-0.29542562
-0.2954501
-0.29547659
-0.29550518
-0.29553594
-0.29556892
-0.29560418
-0.29564177
-0.2956818
-0.29572441
-0.2957699
-0.29581877
-0.29587194
-0.29593095
-0.29599837
-0.29607835
-0.29617747
-0.29630574
-0.2964775
-0.29671148
-0.29702838
-0.29744521
-0.29796728
-0.29858218
-0.29926003
-0.29996021
-0.30064074
-0.30126621
-0.30181227
-0.30226439
-0.30261801
-0.30288179
-0.30305587
-0.30312175
-0.30303948
-0.30272876
-0.30204521
-0.30072044
-0.29834379
-0.29417041
-0.28722903
-0.27584099
-0.25854931
-0.23294968
-0.2008286
-0.16138193
-0.12648179
-0.10314662
-0.12111489
-0.17859903
-0.24788925
-0.22716617
-0.29614648
-0.29615293
-0.29616064
-0.29616882
-0.2961778
-0.29618775
-0.29619873
-0.29621083
-0.29622414
-0.29623877
-0.29625481
-0.29627237
-0.29629155
-0.29631245
-0.29633516
-0.29635979
-0.2963864
-0.29641508
-0.29644589
-0.29647889
-0.29651417
-0.29655184
-0.29659207
-0.29663516
-0.29668166
-0.29673247
-0.29678911
-0.29685409
-0.2969314
-0.29702731
-0.29715133
-0.29731708
-0.2975424
-0.2978473
-0.29824879
-0.29875327
-0.29935054
-0.30001344
-0.30070382
-0.30138157
-0.30201269
-0.30257354
-0.30305033
-0.30344086
-0.30375256
-0.30398553
-0.3041209
-0.30411588
-0.30388046
-0.3032523
-0.30192317
-0.29940918
-0.29483775
-0.28705673
-0.27413496
-0.25430692
-0.22540341
-0.18932122
-0.14718282
-0.11257862
-0.094026132
-0.11651984
-0.17469227
-0.22999845
-0.20519747
-0.29711805
-0.29712383
-0.29713069
-0.29713804
-0.29714611
-0.29715506
-0.29716494
-0.29717584
-0.29718785
-0.29720106
-0.29721555
-0.29723144
-0.29724882
-0.29726779
-0.29728844
-0.29731086
-0.29733513
-0.29736134
-0.29738956
-0.29741988
-0.29745237
-0.29748719
-0.29752451
-0.29756468
-0.29760823
-0.29765609
-0.29770975
-0.29777162
-0.29784551
-0.29793737
-0.29805611
-0.2982145
-0.29842935
-0.29871979
-0.29910261
-0.29958533
-0.30016018
-0.30080312
-0.30147901
-0.30215014
-0.30278431
-0.30335902
-0.30386172
-0.30429287
-0.30465977
-0.30496284
-0.30518443
-0.30527994
-0.30515234
-0.30462433
-0.30334221
-0.30075153
-0.29585756
-0.28732602
-0.27292089
-0.25064235
-0.21840715
-0.17884139
-0.13405771
-0.099973139
-0.085927078
-0.11156149
-0.16487517
-0.20757651
-0.17858091
-0.29814939
-0.29815442
-0.2981604
-0.29816681
-0.29817387
-0.2981817
-0.29819035
-0.29819991
-0.29821046
-0.29822207
-0.29823483
-0.29824885
-0.2982642
-0.29828098
-0.29829929
-0.29831921
-0.29834082
-0.29836423
-0.2983895
-0.29841673
-0.29844603
-0.29847754
-0.2985115
-0.29854825
-0.29858834
-0.2986327
-0.29868279
-0.29874093
-0.29881074
-0.29889777
-0.29901034
-0.29916028
-0.29936321
-0.29963717
-0.2999986
-0.30045598
-0.30100407
-0.30162231
-0.30227909
-0.30293963
-0.30357403
-0.30416133
-0.30469097
-0.30516626
-0.30559486
-0.3059789
-0.30630284
-0.30652162
-0.30653344
-0.30614252
-0.3049499
-0.30233869
-0.2971947
-0.28796845
-0.27215613
-0.24733019
-0.21211638
-0.16947725
-0.12306987
-0.090150742
-0.081787713
-0.10898921
-0.15292126
-0.18398653
-0.15027312
-0.29922682
-0.29923106
-0.29923609
-0.29924149
-0.29924745
-0.29925407
-0.29926141
-0.29926952
-0.29927848
-0.29928836
-0.29929925
-0.29931123
-0.29932438
-0.29933879
-0.29935455
-0.29937173
-0.29939044
-0.29941076
-0.29943279
-0.29945662
-0.29948238
-0.29951024
-0.29954044
-0.29957334
-0.29960953
-0.29964992
-0.29969593
-0.29974978
-0.2998149
-0.29989646
-0.30000211
-0.30014271
-0.30033262
-0.30058862
-0.30092654
-0.30135567
-0.30187323
-0.3024624
-0.30309556
-0.30374139
-0.30437276
-0.30497082
-0.3055279
-0.3060497
-0.30654541
-0.30701994
-0.30746027
-0.30782193
-0.30799923
-0.30776859
-0.30669162
-0.30410547
-0.2987543
-0.28886773
-0.27148562
-0.2446013
-0.20664806
-0.16239646
-0.11720368
-0.087781695
-0.082424151
-0.10396284
-0.13972063
-0.16060632
-0.13198522
-0.30033492
-0.30033832
-0.30034237
-0.30034673
-0.30035154
-0.3003569
-0.30036286
-0.30036945
-0.30037676
-0.30038484
-0.30039377
-0.30040361
-0.30041445
-0.30042636
-0.30043942
-0.30045372
-0.30046935
-0.3004864
-0.30050496
-0.30052516
-0.30054712
-0.30057103
-0.30059715
-0.30062586
-0.30065776
-0.30069375
-0.3007352
-0.30078426
-0.30084412
-0.30091958
-0.30101764
-0.30114818
-0.30132422
-0.30156119
-0.3018741
-0.30227275
-0.30275668
-0.30331284
-0.30391794
-0.30454469
-0.3051692
-0.30577537
-0.30635926
-0.30692821
-0.30749455
-0.3080661
-0.30863237
-0.30915019
-0.3095032
-0.30943234
-0.30848395
-0.30593993
-0.3003607
-0.28965257
-0.27083704
-0.24187486
-0.20261451
-0.15953104
-0.11750761
-0.092930178
-0.085555143
-0.1081315
-0.13028759
-0.13741177
-0.11683321
-0.3014562
-0.30145876
-0.30146182
-0.30146513
-0.30146879
-0.30147289
-0.30147745
-0.30148252
-0.30148816
-0.30149442
-0.30150135
-0.30150903
-0.30151752
-0.30152688
-0.30153721
-0.30154856
-0.30156104
-0.30157473
-0.30158973
-0.30160616
-0.30162418
-0.30164397
-0.30166582
-0.30169011
-0.30171744
-0.30174869
-0.30178522
-0.30182904
-0.30188314
-0.30195194
-0.30204183
-0.30216169
-0.30232326
-0.30254049
-0.30282737
-0.30319394
-0.30364168
-0.30416126
-0.30473391
-0.30533682
-0.3059498
-0.30656025
-0.30716821
-0.30778273
-0.30842001
-0.30908987
-0.30978396
-0.31045845
-0.31096676
-0.31103934
-0.31019909
-0.30762642
-0.30164854
-0.28989121
-0.26940646
-0.23900594
-0.19994934
-0.15951818
-0.12195876
-0.1007905
-0.091588062
-0.11045185
-0.12091233
-0.12516587
-0.10494125
-0.30257327
-0.30257502
-0.30257713
-0.30257941
-0.30258196
-0.30258483
-0.30258804
-0.30259164
-0.30259565
-0.30260013
-0.30260513
-0.30261069
-0.30261688
-0.30262375
-0.30263137
-0.30263982
-0.30264917
-0.30265952
-0.30267096
-0.30268362
-0.30269765
-0.30271325
-0.3027307
-0.30275041
-0.30277294
-0.30279918
-0.30283039
-0.30286848
-0.30291624
-0.30297771
-0.30305867
-0.30316709
-0.30331348
-0.30351022
-0.30377037
-0.30410378
-0.30451338
-0.30499326
-0.3055291
-0.30610286
-0.3066986
-0.30730784
-0.30793428
-0.30858941
-0.30929282
-0.31005399
-0.31086573
-0.31167205
-0.31228698
-0.31244585
-0.31162941
-0.30886263
-0.30213507
-0.28907705
-0.26680954
-0.23563265
-0.19775251
-0.16125344
-0.12841553
-0.10893386
-0.09745283
-0.10966779
-0.11341492
-0.11462984
-0.09563289
-0.30366733
-0.30366834
-0.30366956
-0.3036709
-0.30367243
-0.30367416
-0.30367612
-0.30367834
-0.30368084
-0.30368367
-0.30368686
-0.30369044
-0.30369447
-0.303699
-0.30370408
-0.30370978
-0.30371617
-0.30372334
-0.30373137
-0.3037404
-0.30375057
-0.30376209
-0.30377522
-0.30379034
-0.30380803
-0.3038291
-0.30385476
-0.30388676
-0.30392769
-0.30398123
-0.3040526
-0.3041489
-0.30427971
-0.30445543
-0.30468793
-0.3049871
-0.30535657
-0.30579357
-0.30628786
-0.30682626
-0.30739742
-0.30799745
-0.30863301
-0.30931852
-0.31007554
-0.31090913
-0.31181094
-0.31267784
-0.31332463
-0.31346282
-0.31250246
-0.30914707
-0.30137118
-0.28649072
-0.2627242
-0.23135167
-0.19648791
-0.16329373
-0.13356149
-0.11515597
-0.10329104
-0.10899851
-0.10863308
-0.10724505
-0.088868311
-0.30472306
-0.30472342
-0.30472387
-0.3047244
-0.30472502
-0.30472576
-0.30472663
-0.30472764
-0.30472883
-0.3047302
-0.30473179
-0.30473362
-0.30473574
-0.30473818
-0.30474098
-0.30474421
-0.30474791
-0.30475218
-0.30475708
-0.30476274
-0.30476929
-0.30477691
-0.30478586
-0.30479649
-0.3048093
-0.30482505
-0.30484482
-0.30487021
-0.30490354
-0.30494812
-0.30500859
-0.30509109
-0.30520476
-0.30535587
-0.30556057
-0.30582528
-0.30615312
-0.30654448
-0.30699237
-0.30748828
-0.30802557
-0.30860475
-0.30923538
-0.30993393
-0.31072112
-0.31159203
-0.31252
-0.31335742
-0.31391768
-0.31388189
-0.31243657
-0.30815021
-0.2986443
-0.28185548
-0.25698692
-0.22723893
-0.19469789
-0.16479675
-0.13758727
-0.11986228
-0.10705449
-0.1082124
-0.1044446
-0.10087628
-0.083329061
-0.3057233
-0.30572315
-0.30572299
-0.30572287
-0.30572277
-0.30572272
-0.30572271
-0.30572276
-0.30572288
-0.30572308
-0.30572337
-0.30572378
-0.30572433
-0.30572505
-0.30572597
-0.30572714
-0.30572859
-0.3057304
-0.30573263
-0.30573536
-0.30573872
-0.30574286
-0.30574798
-0.30575437
-0.30576247
-0.30577291
-0.30578663
-0.30580501
-0.30583007
-0.30586473
-0.30591304
-0.3059794
-0.3060801
-0.30621139
-0.30637889
-0.30660669
-0.30688892
-0.30723012
-0.30762512
-0.30806932
-0.30856026
-0.30910223
-0.3097068
-0.31039066
-0.31116873
-0.31202252
-0.3128814
-0.31359193
-0.3139402
-0.31350833
-0.31125317
-0.30539147
-0.29378055
-0.27515363
-0.25074172
-0.22252677
-0.1929228
-0.16529905
-0.14046119
-0.12334733
-0.10993378
-0.10763067
-0.10126567
-0.09619754
-0.079285232
-0.30666017
-0.30665967
-0.3066591
-0.30665852
-0.30665794
-0.30665734
-0.30665673
-0.3066561
-0.30665547
-0.30665484
-0.30665422
-0.30665361
-0.30665303
-0.3066525
-0.30665204
-0.30665167
-0.30665142
-0.30665134
-0.30665146
-0.30665186
-0.3066526
-0.30665379
-0.30665556
-0.30665813
-0.30666182
-0.30666708
-0.30667467
-0.3066857
-0.30670184
-0.30672557
-0.30676001
-0.30681348
-0.30688447
-0.30697544
-0.30711706
-0.30731327
-0.30754507
-0.30783201
-0.30816668
-0.30854776
-0.30897596
-0.30945817
-0.31000672
-0.31063688
-0.31135422
-0.3121083
-0.31281554
-0.31329928
-0.31332861
-0.31220831
-0.30856138
-0.30062249
-0.28681066
-0.26763184
-0.24429403
-0.21751004
-0.19055296
-0.16536698
-0.14221653
-0.12563699
-0.11167684
-0.10687164
-0.098558276
-0.09223315
-0.075939227
-0.30752127
-0.30752062
-0.30751988
-0.30751912
-0.30751833
-0.30751749
-0.30751661
-0.30751569
-0.30751472
-0.3075137
-0.30751264
-0.30751153
-0.30751038
-0.30750919
-0.30750797
-0.30750673
-0.30750548
-0.30750423
-0.30750299
-0.30750177
-0.3075006
-0.3074995
-0.3074985
-0.30749769
-0.30749721
-0.30749729
-0.3074984
-0.30750126
-0.3075071
-0.30751783
-0.30753565
-0.30756782
-0.30761391
-0.30768861
-0.30779365
-0.30792915
-0.30811203
-0.30833561
-0.30860001
-0.30890262
-0.30924678
-0.30963902
-0.31009217
-0.3106192
-0.31121312
-0.31179737
-0.31228576
-0.31251785
-0.31196044
-0.30964061
-0.30404894
-0.29375511
-0.27870817
-0.26030776
-0.23678284
-0.21292045
-0.18776017
-0.16450818
-0.14299128
-0.12665969
-0.11323812
-0.10585273
-0.096230257
-0.089105436
-0.073373481
-0.30831078
-0.30831022
-0.30830957
-0.30830891
-0.30830822
-0.30830749
-0.30830672
-0.3083059
-0.30830503
-0.30830411
-0.30830313
-0.30830208
-0.30830097
-0.30829978
-0.30829851
-0.30829714
-0.30829566
-0.30829405
-0.30829227
-0.30829028
-0.30828803
-0.30828543
-0.30828241
-0.30827887
-0.30827473
-0.30826998
-0.3082647
-0.30825923
-0.30825425
-0.30825105
-0.30825161
-0.30825998
-0.30827803
-0.30831279
-0.30837342
-0.30846051
-0.3085805
-0.30873118
-0.30891076
-0.30911493
-0.30934802
-0.30961393
-0.3099306
-0.31031223
-0.3107358
-0.31112354
-0.31139896
-0.31112377
-0.30952162
-0.30546594
-0.29743079
-0.28557072
-0.27053047
-0.25137253
-0.23036898
-0.20771997
-0.1847765
-0.16321536
-0.14310854
-0.12699572
-0.11372124
-0.10461369
-0.094232007
-0.08643667
-0.071215313
-0.30902736
-0.30902714
-0.30902689
-0.30902665
-0.30902641
-0.30902617
-0.30902593
-0.30902568
-0.30902542
-0.30902514
-0.30902484
-0.3090245
-0.30902411
-0.30902366
-0.30902311
-0.30902243
-0.30902157
-0.30902047
-0.30901904
-0.30901715
-0.30901465
-0.30901134
-0.30900694
-0.30900116
-0.30899364
-0.308984
-0.30897189
-0.30895711
-0.3089397
-0.30892017
-0.30889976
-0.30888085
-0.30886673
-0.30886131
-0.30887172
-0.30889959
-0.30894783
-0.30901284
-0.3090908
-0.30917259
-0.30926681
-0.30938288
-0.30953318
-0.30975385
-0.31002647
-0.31021164
-0.31004467
-0.30882918
-0.30571081
-0.29929571
-0.28962516
-0.27738883
-0.26138278
-0.24295319
-0.22372169
-0.20273066
-0.18144362
-0.16132159
-0.14241031
-0.1268896
-0.1132786
-0.1034941
-0.092362383
-0.084168584
-0.0694252
-0.30969067
-0.30969104
-0.3096915
-0.309692
-0.30969257
-0.30969321
-0.30969391
-0.30969469
-0.30969554
-0.30969645
-0.3096974
-0.3096984
-0.3096994
-0.30970039
-0.30970131
-0.3097021
-0.30970266
-0.30970289
-0.30970262
-0.30970162
-0.30969963
-0.30969626
-0.30969105
-0.30968343
-0.30967271
-0.3096581
-0.30963876
-0.30961385
-0.3095827
-0.30954496
-0.30950085
-0.30945157
-0.30939948
-0.30934777
-0.30930033
-0.30925909
-0.30922346
-0.30918781
-0.30914598
-0.30908943
-0.30903984
-0.30898203
-0.30902237
-0.30909846
-0.30918509
-0.30893508
-0.30795216
-0.30535855
-0.30004649
-0.29187895
-0.28183851
-0.26824292
-0.25227122
-0.23565002
-0.21710235
-0.19759197
-0.17782216
-0.15899527
-0.1411347
-0.12605939
-0.11245605
-0.1021531
-0.090568271
-0.082136736
-0.067837498
-0.31032023
-0.31032145
-0.3103229
-0.31032446
-0.31032616
-0.31032804
-0.3103301
-0.31033233
-0.31033475
-0.31033734
-0.31034009
-0.31034299
-0.31034599
-0.31034905
-0.31035209
-0.31035501
-0.31035768
-0.3103599
-0.31036142
-0.3103619
-0.31036091
-0.31035787
-0.31035207
-0.31034262
-0.31032847
-0.31030835
-0.31028085
-0.31024447
-0.31019775
-0.31013942
-0.3100686
-0.30998668
-0.30989286
-0.30978951
-0.30967854
-0.30956032
-0.30943109
-0.30928451
-0.30912537
-0.30891777
-0.30872584
-0.30858389
-0.3084989
-0.30838288
-0.30808538
-0.30703658
-0.30483824
-0.30027274
-0.29304945
-0.28463515
-0.2729162
-0.25879307
-0.24431634
-0.22802783
-0.2106331
-0.19243152
-0.17393149
-0.15623711
-0.1393058
-0.12473929
-0.11118018
-0.10062956
-0.088778437
-0.080259348
-0.066386156
-0.31095903
-0.31096128
-0.31096394
-0.31096677
-0.31096985
-0.31097323
-0.31097692
-0.31098091
-0.31098522
-0.31098983
-0.31099474
-0.31099991
-0.31100529
-0.31101081
-0.31101637
-0.31102181
-0.31102693
-0.31103145
-0.31103501
-0.31103714
-0.31103721
-0.31103443
-0.31102782
-0.31101615
-0.31099796
-0.31097153
-0.31093491
-0.31088597
-0.31082266
-0.31074307
-0.31064381
-0.31051858
-0.31037835
-0.31021937
-0.3100399
-0.3098401
-0.30961237
-0.30936295
-0.30906301
-0.30879113
-0.3084946
-0.30822374
-0.30797718
-0.30749653
-0.30644442
-0.30417584
-0.30049429
-0.29369211
-0.28623637
-0.27609813
-0.26335432
-0.25059521
-0.23620596
-0.2207879
-0.20428982
-0.18716413
-0.1697904
-0.15311118
-0.13701435
-0.12294232
-0.1095544
-0.098910418
-0.086957241
-0.078457517
-0.064992735
-0.31165708
-0.31166043
-0.31166439
-0.31166859
-0.31167315
-0.31167813
-0.31168355
-0.31168941
-0.31169572
-0.31170246
-0.31170961
-0.31171713
-0.31172496
-0.31173297
-0.31174103
-0.31174893
-0.31175637
-0.31176298
-0.31176826
-0.31177156
-0.31177205
-0.31176869
-0.31176019
-0.31174496
-0.31172111
-0.31168642
-0.31163839
-0.31157442
-0.31149223
-0.31138094
-0.31123938
-0.31108918
-0.31090779
-0.31068544
-0.31043711
-0.31015978
-0.30983098
-0.30948107
-0.30912046
-0.30875164
-0.30836255
-0.307938
-0.30729033
-0.30607379
-0.30380264
-0.29997499
-0.29402934
-0.28717583
-0.27817735
-0.26662918
-0.2550914
-0.2423476
-0.22851487
-0.21367795
-0.19797909
-0.18181632
-0.16542505
-0.14964848
-0.13431154
-0.12073981
-0.10759037
-0.096987577
-0.085058858
-0.076669027
-0.063603643
-0.3124842
-0.31248859
-0.31249376
-0.31249922
-0.31250515
-0.3125116
-0.3125186
-0.31252614
-0.31253422
-0.31254284
-0.31255195
-0.31256147
-0.31257132
-0.31258134
-0.31259132
-0.31260097
-0.31260989
-0.31261759
-0.31262338
-0.31262643
-0.31262566
-0.31261971
-0.31260695
-0.31258538
-0.31255261
-0.31250586
-0.31244199
-0.31235792
-0.31225
-0.31212262
-0.31196167
-0.31175491
-0.31151065
-0.31123992
-0.31092276
-0.31056798
-0.31018017
-0.30974074
-0.30929781
-0.30883555
-0.30826863
-0.30746506
-0.30611122
-0.30377784
-0.30003872
-0.29446238
-0.28774882
-0.28000009
-0.26896618
-0.25848716
-0.24703333
-0.23445242
-0.2209627
-0.20668357
-0.19169677
-0.17636399
-0.16084169
-0.14588072
-0.13124389
-0.11817347
-0.1053239
-0.094865413
-0.083061023
-0.074850141
-0.062176486
-0.31352436
-0.31352951
-0.31353556
-0.31354194
-0.31354883
-0.31355632
-0.3135644
-0.31357307
-0.31358232
-0.31359212
-0.3136024
-0.31361306
-0.31362396
-0.31363488
-0.31364553
-0.31365553
-0.31366436
-0.31367135
-0.31367565
-0.31367618
-0.31367159
-0.31366022
-0.31364005
-0.3136087
-0.31356295
-0.31349869
-0.31341973
-0.31332842
-0.31321571
-0.3130403
-0.3128116
-0.31256208
-0.31227654
-0.31193819
-0.31155853
-0.31113171
-0.31067092
-0.31016467
-0.30960947
-0.30895055
-0.30801651
-0.30653479
-0.30412658
-0.30043696
-0.29507164
-0.28863986
-0.28140066
-0.27178872
-0.26107827
-0.25076896
-0.23907522
-0.22668325
-0.21354808
-0.19975724
-0.18539707
-0.17080142
-0.15605301
-0.14183183
-0.12784699
-0.11527724
-0.10277342
-0.092538211
-0.080935605
-0.072960681
-0.060674627
-0.31487844
-0.31488389
-0.31489029
-0.314897
-0.31490422
-0.31491202
-0.31492039
-0.31492931
-0.31493874
-0.31494863
-0.31495886
-0.31496929
-0.31497972
-0.31498985
-0.31499929
-0.31500754
-0.31501393
-0.31501763
-0.31501757
-0.31501241
-0.31500053
-0.31497993
-0.31494824
-0.31490248
-0.31483889
-0.31475722
-0.31466541
-0.31454035
-0.31435181
-0.31413133
-0.31388674
-0.31358258
-0.31323986
-0.31284382
-0.31238393
-0.31187968
-0.31133732
-0.31071528
-0.30996327
-0.30892731
-0.30734042
-0.30486837
-0.30120293
-0.29601202
-0.28971768
-0.28284882
-0.2737568
-0.26373249
-0.2536871
-0.24284369
-0.23126427
-0.21905627
-0.20620942
-0.19285559
-0.17905503
-0.1651144
-0.15106193
-0.13751976
-0.12414836
-0.11207942
-0.099956677
-0.090006796
-0.078666823
-0.070973598
-0.059072451
-0.31663787
-0.31664311
-0.31664921
-0.31665558
-0.31666238
-0.31666965
-0.31667737
-0.31668548
-0.31669391
-0.31670254
-0.31671123
-0.31671975
-0.3167278
-0.31673499
-0.3167408
-0.31674456
-0.31674542
-0.31674232
-0.31673392
-0.3167186
-0.31669438
-0.31665869
-0.31660832
-0.31654344
-0.31646785
-0.31636457
-0.3162045
-0.31601357
-0.31580018
-0.31553818
-0.31522677
-0.31486043
-0.31443744
-0.31396514
-0.31343799
-0.31284233
-0.31216486
-0.31133583
-0.31021316
-0.30853547
-0.30601201
-0.30237213
-0.29730949
-0.29110966
-0.28445737
-0.27584796
-0.26617469
-0.2565612
-0.24606537
-0.23513108
-0.22357047
-0.21148461
-0.19890257
-0.1859398
-0.17264058
-0.1592903
-0.1458702
-0.13295692
-0.12016791
-0.10859871
-0.096884311
-0.087268109
-0.076237867
-0.0688649
-0.057346232
-0.31890634
-0.31891083
-0.31891601
-0.31892134
-0.31892692
-0.31893278
-0.31893884
-0.318945
-0.31895114
-0.31895706
-0.31896253
-0.31896722
-0.31897072
-0.31897248
-0.31897179
-0.31896779
-0.31895937
-0.31894515
-0.31892349
-0.31889231
-0.31884898
-0.31879075
-0.3187187
-0.318625
-0.31849617
-0.31833447
-0.31814016
-0.31790785
-0.31762864
-0.31729698
-0.31690886
-0.31646381
-0.31596028
-0.31539497
-0.31475857
-0.31402715
-0.31313311
-0.31192801
-0.31019062
-0.30760363
-0.30401429
-0.29909503
-0.29296112
-0.28648877
-0.27817007
-0.26869223
-0.25923035
-0.2491375
-0.23851981
-0.22745392
-0.21589447
-0.20393004
-0.19158158
-0.17897102
-0.16612642
-0.15331373
-0.14047508
-0.12815098
-0.11592004
-0.10485047
-0.093565634
-0.084321259
-0.073637705
-0.066617518
-0.055479193
-0.32182581
-0.32182896
-0.3218325
-0.32183601
-0.32183951
-0.32184296
-0.32184621
-0.32184911
-0.32185145
-0.32185294
-0.32185321
-0.32185181
-0.32184813
-0.32184143
-0.32183077
-0.32181499
-0.32179264
-0.32176197
-0.32172087
-0.32166679
-0.32159675
-0.32150739
-0.32139476
-0.32125162
-0.32107513
-0.32086333
-0.32060788
-0.32030294
-0.31994339
-0.3195264
-0.31905013
-0.31851076
-0.31790501
-0.31722329
-0.31643561
-0.31547006
-0.31418742
-0.31236846
-0.309756
-0.30611095
-0.30142063
-0.29525911
-0.28881498
-0.28073582
-0.2713995
-0.26200823
-0.25215455
-0.2417965
-0.23097684
-0.21978067
-0.20820997
-0.1963404
-0.18420123
-0.17191195
-0.15948425
-0.14716803
-0.13487097
-0.12310505
-0.11141368
-0.1008439
-0.090005531
-0.081163527
-0.070855955
-0.064217586
-0.053456557
-0.32557571
-0.32557669
-0.3255776
-0.32557819
-0.32557838
-0.32557802
-0.3255769
-0.32557476
-0.32557127
-0.32556601
-0.32555846
-0.32554797
-0.32553371
-0.32551466
-0.3254896
-0.32545698
-0.32541496
-0.32536132
-0.3252934
-0.32520809
-0.32510176
-0.32497027
-0.32480897
-0.32461269
-0.32437612
-0.3240933
-0.32375863
-0.32336798
-0.32291802
-0.32240457
-0.32182417
-0.32117227
-0.32043563
-0.31958059
-0.31853282
-0.3171556
-0.31524144
-0.31254173
-0.30884077
-0.3040256
-0.29799932
-0.29141337
-0.2836289
-0.27433667
-0.26500121
-0.25528938
-0.24506799
-0.23440459
-0.22337223
-0.21204468
-0.200449
-0.18866332
-0.17671573
-0.16472423
-0.15268521
-0.14083449
-0.12904922
-0.11781862
-0.10665379
-0.096585247
-0.08620771
-0.077792878
-0.067885257
-0.061654434
-0.051269467
-0.33041781
-0.33041536
-0.33041213
-0.33040819
-0.33040325
-0.33039704
-0.33038925
-0.33037951
-0.33036732
-0.33035209
-0.33033311
-0.33030946
-0.33028006
-0.33024357
-0.33019839
-0.33014256
-0.33007376
-0.32998925
-0.32988579
-0.32975966
-0.32960658
-0.32942177
-0.32919994
-0.32893533
-0.32862245
-0.32825633
-0.32783205
-0.32734464
-0.32678997
-0.32616406
-0.32545946
-0.32465937
-0.32372584
-0.3225822
-0.32109476
-0.31906818
-0.31626897
-0.31249681
-0.30763376
-0.30160997
-0.29474983
-0.28717938
-0.27789025
-0.26855828
-0.2588732
-0.24859619
-0.23793137
-0.22693387
-0.21566297
-0.20419182
-0.19256078
-0.18084784
-0.16907919
-0.15736948
-0.14569951
-0.13429283
-0.12299867
-0.11228784
-0.10164166
-0.092077207
-0.082173466
-0.074206373
-0.064719351
-0.058920598
-0.048909878
-0.33663542
-0.33662783
-0.33661842
-0.33660774
-0.33659524
-0.33658048
-0.33656303
-0.33654233
-0.33651772
-0.33648839
-0.33645338
-0.33641151
-0.33636136
-0.33630123
-0.33622911
-0.33614258
-0.33603884
-0.33591457
-0.33576599
-0.33558873
-0.33537793
-0.33512841
-0.3348348
-0.33449157
-0.33409293
-0.33363318
-0.33310729
-0.33251029
-0.33183577
-0.33107297
-0.33020029
-0.3291745
-0.3279155
-0.32629163
-0.32411759
-0.32117605
-0.31727548
-0.31231088
-0.30620466
-0.29921506
-0.29156144
-0.28245887
-0.27281677
-0.26303376
-0.25254955
-0.2417374
-0.23063316
-0.21928661
-0.20776768
-0.19614988
-0.18448034
-0.17283766
-0.16124326
-0.14980757
-0.13849601
-0.12752097
-0.11670589
-0.10650624
-0.096375944
-0.087320139
-0.077903128
-0.070400667
-0.061353655
-0.056007401
-0.046373934
-0.34458132
-0.34456649
-0.34454842
-0.34452835
-0.34450537
-0.34447881
-0.34444809
-0.34441247
-0.34437107
-0.34432284
-0.34426652
-0.3442006
-0.34412328
-0.34403251
-0.34392584
-0.34380041
-0.34365289
-0.3434795
-0.34327599
-0.34303764
-0.34275931
-0.34243538
-0.34205993
-0.34162703
-0.34113077
-0.34056498
-0.33992271
-0.33919454
-0.33836516
-0.33740705
-0.33627055
-0.33487101
-0.33307741
-0.33071204
-0.32757127
-0.32347289
-0.31831596
-0.31203402
-0.30478086
-0.29692176
-0.2877054
-0.27788365
-0.26776394
-0.25706261
-0.2460059
-0.23465934
-0.22309287
-0.21138735
-0.19961379
-0.1878497
-0.17614463
-0.16457583
-0.15315838
-0.14199728
-0.13104227
-0.12049521
-0.11015543
-0.10046503
-0.090852942
-0.082312459
-0.073395966
-0.066371823
-0.057784687
-0.052905204
-0.043668396
-0.35455366
-0.35452919
-0.35449961
-0.35446711
-0.35443034
-0.35438836
-0.35434041
-0.35428554
-0.35422263
-0.35415037
-0.35406726
-0.35397156
-0.353861
-0.35373304
-0.35358491
-0.35341331
-0.35321445
-0.3529842
-0.35271794
-0.35241052
-0.35205638
-0.35164955
-0.3511837
-0.35065201
-0.35004679
-0.34935855
-0.34857394
-0.34767208
-0.34661836
-0.34535545
-0.34379245
-0.34179678
-0.33919473
-0.33579292
-0.33141677
-0.32596678
-0.31939231
-0.3117843
-0.30357381
-0.29411951
-0.28391619
-0.27339621
-0.26232332
-0.25089722
-0.23917294
-0.22724639
-0.21520716
-0.20313793
-0.19111369
-0.17921312
-0.16748451
-0.1560024
-0.1447737
-0.13389674
-0.12330542
-0.11319123
-0.1033309
-0.094154186
-0.085067694
-0.077051432
-0.068651331
-0.062117529
-0.054012754
-0.049623375
-0.040762421
-0.36685411
-0.36681755
-0.36677359
-0.36672564
-0.36667176
-0.36661073
-0.36654167
-0.36646299
-0.36637309
-0.36627572
-0.36617661
-0.36605522
-0.36589149
-0.36570657
-0.36551051
-0.36528864
-0.36503343
-0.36474056
-0.36440562
-0.36402309
-0.36358663
-0.36308919
-0.36252263
-0.36187701
-0.36113929
-0.36029093
-0.35930392
-0.3581348
-0.35671672
-0.35495074
-0.35270003
-0.34979428
-0.34604501
-0.34129181
-0.33542761
-0.32842316
-0.32034301
-0.31163189
-0.30179843
-0.29105788
-0.27999904
-0.268443
-0.25650786
-0.2442858
-0.23187128
-0.21936303
-0.20685212
-0.1944291
-0.18217034
-0.17015402
-0.15842495
-0.14705288