/*--------------------------------*- C++ -*----------------------------------*\
  =========                 |
  \\      /  F ield         | OpenFOAM: The Open Source CFD Toolbox
   \\    /   O peration     | Website:  https://openfoam.org
    \\  /    A nd           | Version:  13
     \\/     M anipulation  |
\*---------------------------------------------------------------------------*/
FoamFile
{
    format      ascii;
    class       volVectorField;
    location    "36.498221";
    object      U;
}
// * * * * * * * * * * * * * * * * * * * * * * * * * * * * * * * * * * * * * //

dimensions      [0 1 -1 0 0 0 0];

internalField   nonuniform List<vector> 
17140
(
(1.516098e-06 -0.00011801086 2.7013838e-23)
(3.3532177e-06 -0.00036747551 2.9919406e-24)
(3.3851607e-06 -0.00064444053 -1.9745137e-22)
(9.2146813e-07 -0.0009504888 2.1698572e-22)
(-4.8601997e-06 -0.0012872404 -2.5354908e-23)
(-1.502485e-05 -0.0016563269 8.2942042e-23)
(-3.0918362e-05 -0.0020593951 1.3954761e-22)
(-5.4204294e-05 -0.0024981615 -6.8053772e-23)
(-8.6941898e-05 -0.0029743457 -2.2255316e-22)
(-0.0001316702 -0.0034896231 -5.4519828e-22)
(-0.00019150625 -0.0040456391 8.0712276e-22)
(-0.0002702543 -0.0046439919 -7.1790162e-22)
(-0.00037253636 -0.0052862204 -1.096609e-22)
(-0.00050393772 -0.0059737894 6.1809644e-22)
(-0.00067117047 -0.0067080744 -6.8393979e-23)
(-0.00088225103 -0.0074903423 5.3938362e-22)
(-0.0011466888 -0.0083217223 -1.9926602e-23)
(-0.0014756784 -0.0092031601 4.4896313e-24)
(-0.0018822853 -0.010135342 3.1285831e-22)
(-0.0023816075 -0.011118575 -4.0164985e-22)
(-0.0029908913 -0.012152596 1.9132518e-22)
(-0.0037295698 -0.01323629 -3.594977e-23)
(-0.004619183 -0.014367283 -2.6094633e-22)
(-0.0056831263 -0.01554139 2.5574206e-22)
(-0.0069461636 -0.016751912 3.9896643e-22)
(-0.0084336293 -0.017988812 -3.1372519e-22)
(-0.010170235 -0.019237883 -1.5082261e-21)
(-0.012178404 -0.020480142 -1.7392232e-22)
(-0.014476096 -0.021691861 1.4899109e-21)
(-0.017074178 -0.022845917 3.4048123e-22)
(-0.019973635 -0.023915284 1.1839018e-21)
(-0.023163304 -0.024879169 -1.513239e-21)
(-0.026619281 -0.02573079 3.819079e-22)
(-0.030307309 -0.026483003 1.752803e-22)
(-0.034188401 -0.027166977 1.6473425e-21)
(-0.038225536 -0.027823624 -6.8697253e-22)
(-0.042387857 -0.0284942 9.8779805e-22)
(-0.046650934 -0.029216355 6.3877559e-22)
(-0.050994892 -0.030025923 2.8104314e-22)
(-0.055402976 -0.03096142 -8.2420842e-22)
(-0.059861496 -0.032068898 -1.5213159e-21)
(-0.064361596 -0.033406262 -1.3611955e-21)
(-0.068901475 -0.035047011 -5.9038857e-22)
(-0.073489867 -0.037084443 2.8772846e-21)
(-0.078154472 -0.039632292 2.1162423e-21)
(-0.082938223 -0.042816347 -5.2386597e-22)
(-0.087902339 -0.046774899 3.5999971e-21)
(-0.093131694 -0.051661254 1.2350483e-21)
(-0.098729508 -0.057627601 -1.2706673e-21)
(-0.10481778 -0.064804052 -3.1384179e-21)
(-0.11152854 -0.07326204 1.9471362e-21)
(-0.11902274 -0.082932213 1.2374476e-21)
(-0.12747612 -0.09344247 -3.2442658e-21)
(-0.13714692 -0.10380966 -1.5405472e-21)
(-0.148216 -0.11202608 -1.1077124e-21)
(-0.16103278 -0.11431434 8.6879406e-22)
(-0.17511398 -0.10425694 -2.3716549e-21)
(-0.19080558 -0.071803596 -2.0094447e-21)
(-0.20109967 -0.0036303759 -4.9861702e-22)
(-0.20058953 0.11123127 1.2256951e-21)
(-0.15518916 0.26073644 8.1520636e-22)
(-0.081097988 0.38003051 2.2930969e-21)
(-0.0019730885 0.4144519 2.8635883e-22)
(0.055818255 0.29584349 -2.8338782e-21)
(0.2216769 0.00074899436 2.238877e-21)
(3.5388575e-06 -8.8274472e-05 -7.701544e-24)
(9.6086538e-06 -0.00027537462 1.0372637e-21)
(1.4304058e-05 -0.00048343416 -9.2279801e-22)
(1.6984794e-05 -0.00071337327 2.5146447e-22)
(1.676125e-05 -0.000966152 5.1927163e-22)
(1.2444389e-05 -0.0012427286 -9.9170841e-22)
(2.8426298e-06 -0.0015441914 1.0330315e-21)
(-1.3619135e-05 -0.001871609 -9.0840005e-23)
(-3.9304654e-05 -0.0022258256 2.8331545e-22)
(-7.6740881e-05 -0.002607724 4.8024416e-24)
(-0.00012902223 -0.0030182214 9.4314683e-22)
(-0.00020008748 -0.0034582174 -1.4954219e-21)
(-0.00029464764 -0.0039286248 -1.2320262e-22)
(-0.00041841313 -0.0044303852 1.2120208e-21)
(-0.00057823262 -0.0049645015 -3.7059964e-22)
(-0.00078228801 -0.005532072 -2.3411898e-22)
(-0.0010402754 -0.0061343277 1.4757694e-21)
(-0.0013636009 -0.0067726626 -4.7679433e-21)
(-0.0017655638 -0.0074486487 2.9557306e-21)
(-0.0022615179 -0.0081640166 -3.5002878e-21)
(-0.0028689848 -0.0089205796 5.1005232e-21)
(-0.0036076897 -0.0097200742 -1.231326e-21)
(-0.0044994775 -0.010563882 -4.9852957e-22)
(-0.0055680589 -0.011452606 1.6008849e-21)
(-0.0068385198 -0.012385487 -5.6442659e-21)
(-0.0083365203 -0.013359674 -8.2612983e-22)
(-0.0100871 -0.014369432 4.1885939e-21)
(-0.012113007 -0.015405466 -4.6019382e-21)
(-0.01443252 -0.016454674 6.1899613e-22)
(-0.017056808 -0.017500802 5.9361528e-21)
(-0.019987137 -0.018526553 -5.9969255e-22)
(-0.023212605 -0.019517428 -4.4866367e-21)
(-0.026709603 -0.020466599 -1.1163168e-22)
(-0.030444276 -0.021378563 3.1241604e-21)
(-0.034378258 -0.022268964 -3.3382701e-21)
(-0.038475375 -0.023160613 1.4360104e-21)
(-0.042705812 -0.024078999 -1.6075996e-21)
(-0.047046342 -0.025050598 -4.8992251e-21)
(-0.051478502 -0.026104071 -1.0587412e-21)
(-0.055987286 -0.027273084 -4.0159344e-21)
(-0.060561264 -0.028599615 5.0302739e-21)
(-0.065194598 -0.030137249 4.5797485e-21)
(-0.069889433 -0.031954307 7.809585e-22)
(-0.074659719 -0.034137626 -6.2538644e-21)
(-0.079540266 -0.036794044 2.9884508e-21)
(-0.084582624 -0.040044507 1.0455138e-21)
(-0.089857762 -0.044022899 -5.5839639e-22)
(-0.095461233 -0.048878431 -1.7820564e-21)
(-0.10150633 -0.05476204 8.7965045e-22)
(-0.10812201 -0.061805204 -1.6157126e-21)
(-0.11543885 -0.0700811 -9.7749271e-21)
(-0.12360052 -0.079520536 -4.7081218e-22)
(-0.13273545 -0.089750453 2.1318235e-21)
(-0.14301606 -0.099794977 -4.7173714e-21)
(-0.15447748 -0.10767049 4.0486063e-21)
(-0.16727032 -0.10970073 -1.1434869e-20)
(-0.18059586 -0.099614435 -3.1123647e-21)
(-0.19425778 -0.068362911 9.0681825e-21)
(-0.20169771 -0.0033013424 -1.4591342e-21)
(-0.19799147 0.1036106 -1.6981982e-21)
(-0.15621321 0.24194726 -2.6960503e-22)
(-0.083968699 0.35578703 2.6600507e-21)
(0.0022291223 0.39180267 -5.2944606e-21)
(0.09401418 0.25974332 -2.4869812e-21)
(0.31512009 -0.052920244 -3.1258383e-21)
(3.8739746e-06 -5.7370543e-05 -4.2481377e-22)
(1.0701648e-05 -0.00017964986 3.1391395e-22)
(1.6194498e-05 -0.00031612217 8.3468288e-23)
(1.9787848e-05 -0.00046713842 -7.9109091e-23)
(2.0497368e-05 -0.00063307558 3.8323466e-22)
(1.7093737e-05 -0.00081413488 2.8502166e-23)
(8.4690352e-06 -0.0010104657 3.6371598e-22)
(-7.2964104e-06 -0.0012223658 3.9158532e-22)
(-3.2381035e-05 -0.0014499964 -3.1966512e-21)
(-6.9377773e-05 -0.0016935047 2.8504926e-21)
(-0.00012156346 -0.0019530477 -1.3619007e-21)
(-0.00019289651 -0.0022288152 -1.9916808e-21)
(-0.00028818721 -0.0025210788 3.9394482e-21)
(-0.00041322689 -0.0028302506 4.8628291e-22)
(-0.00057496096 -0.0031569611 -1.8695378e-21)
(-0.00078165968 -0.0035021498 -1.2790774e-21)
(-0.0010431059 -0.0038671703 1.4743177e-21)
(-0.0013707817 -0.0042539014 -5.2982467e-21)
(-0.0017780482 -0.0046648538 3.1036129e-21)
(-0.0022802998 -0.0051032557 -1.5194989e-21)
(-0.0028950719 -0.0055730936 5.0618317e-21)
(-0.0036420712 -0.0060790766 1.298873e-21)
(-0.0045430891 -0.0066264893 -2.6693397e-21)
(-0.0056217462 -0.0072208963 3.9530932e-21)
(-0.0069030066 -0.0078676743 1.5311723e-21)
(-0.0084123863 -0.0085713731 -1.8050401e-21)
(-0.010174774 -0.0093349555 -1.007103e-20)
(-0.012212785 -0.010159038 -4.4774367e-21)
(-0.014544616 -0.011041345 2.1906822e-21)
(-0.017181444 -0.011976641 -2.3039967e-21)
(-0.020124699 -0.012957421 1.4061635e-21)
(-0.023363882 -0.013975384 7.789745e-21)
(-0.026876114 -0.015023385 -2.5356349e-21)
(-0.030628647 -0.016097158 -7.3146859e-21)
(-0.03458448 -0.017196377 2.3352322e-21)
(-0.038708837 -0.018325343 3.1414486e-21)
(-0.042973223 -0.019493501 -5.2155776e-21)
(-0.047355619 -0.020715909 -1.5360525e-21)
(-0.051838745 -0.022013791 2.6269629e-21)
(-0.056408941 -0.023415651 1.0231914e-21)
(-0.061056459 -0.024958975 -4.8623886e-21)
(-0.06577776 -0.026692515 1.3709442e-21)
(-0.070577886 -0.028678895 1.9786928e-21)
(-0.075474695 -0.030997808 5.3272793e-21)
(-0.08050816 -0.033748592 -1.0262332e-20)
(-0.085735481 -0.037047241 6.7518525e-21)
(-0.091233667 -0.041023468 1.7370319e-21)
(-0.097103407 -0.045823106 6.958693e-21)
(-0.10345972 -0.051597723 8.4628541e-21)
(-0.11042626 -0.058483778 4.3340195e-22)
(-0.11811428 -0.066562552 -1.866194e-21)
(-0.12662436 -0.075775337 1.3784398e-20)
(-0.13600153 -0.085763591 5.8960554e-21)
(-0.14628106 -0.095578492 6.0795206e-21)
(-0.15728747 -0.10328595 1.9499855e-21)
(-0.16889205 -0.10534615 1.5240883e-20)
(-0.17991805 -0.095665673 -5.5721624e-21)
(-0.1897586 -0.065759136 1.2940252e-21)
(-0.19241453 -0.0043282302 1.3012651e-20)
(-0.18270736 0.094744094 4.7167005e-21)
(-0.13810163 0.22265788 -4.55005e-21)
(-0.063019457 0.33032298 -1.4213591e-20)
(0.034062631 0.3630092 4.6048353e-21)
(0.18069572 0.21457809 9.9912983e-21)
(0.43502635 -0.10626367 4.7932759e-21)
(2.431789e-06 -2.5853183e-05 1.4248798e-21)
(6.3012011e-06 -8.2026989e-05 -2.2669022e-21)
(8.6066464e-06 -0.00014547729 8.1946479e-22)
(8.578903e-06 -0.00021589528 -8.9051857e-23)
(5.3007651e-06 -0.00029288569 1.7600433e-21)
(-2.4037447e-06 -0.00037603237 -1.8201525e-21)
(-1.6008043e-05 -0.00046482239 2.7596141e-21)
(-3.732838e-05 -0.0005586697 -1.2973088e-21)
(-6.8599865e-05 -0.00065695583 -4.928617e-21)
(-0.00011255647 -0.0007590438 1.1836544e-21)
(-0.00017252995 -0.00086431868 4.5026892e-21)
(-0.00025255989 -0.00097224336 -1.3721664e-21)
(-0.00035752037 -0.0010824352 -9.1391646e-23)
(-0.00049326133 -0.001194765 3.5743864e-21)
(-0.00066676489 -0.0013094812 -1.1145319e-20)
(-0.00088631379 -0.0014273591 6.8144255e-21)
(-0.001161668 -0.0015498745 6.4675651e-23)
(-0.0015042429 -0.0016793963 -3.7284471e-21)
(-0.0019272772 -0.0018193861 9.4016976e-21)
(-0.0024459775 -0.0019745906 -4.4005505e-21)
(-0.0030776155 -0.0021511988 -6.5025918e-21)
(-0.0038415511 -0.002356933 -2.6070827e-21)
(-0.004759142 -0.0026010316 1.2746206e-20)
(-0.0058534914 -0.0028940829 6.5838876e-21)
(-0.0071489736 -0.0032476739 -4.1992051e-21)
(-0.0086704656 -0.003673839 2.4218613e-21)
(-0.010442204 -0.0041843305 -8.9568853e-21)
(-0.012486193 -0.0047897763 2.5419843e-21)
(-0.014820127 -0.0054988286 -6.7614681e-21)
(-0.017454895 -0.0063173841 3.7681668e-21)
(-0.020391974 -0.0072478471 -2.297846e-21)
(-0.023621418 -0.0082882625 8.2515965e-21)
(-0.027121527 -0.0094313163 -1.154843e-21)
(-0.03086129 -0.010664072 5.9222436e-21)
(-0.034805799 -0.011970202 -5.4634182e-21)
(-0.038922343 -0.01333537 -1.6886074e-21)
(-0.043184076 -0.014752508 2.011019e-20)
(-0.047570146 -0.016224847 5.0610047e-21)
(-0.052064196 -0.017765791 -4.0618323e-21)
(-0.056653498 -0.019398272 3.9007808e-21)
(-0.061329405 -0.021154862 -9.9757177e-22)
(-0.066089802 -0.023079036 -6.1570308e-21)
(-0.07094147 -0.025227211 2.8317586e-22)
(-0.075904929 -0.027671325 2.0963253e-21)
(-0.081023106 -0.03050273 -1.0420967e-21)
(-0.086355743 -0.033832505 5.4149465e-22)
(-0.09198216 -0.037786522 1.5577113e-21)
(-0.098002485 -0.04250849 -2.4199311e-20)
(-0.10452504 -0.048153159 2.759722e-21)
(-0.11165597 -0.054866564 -2.5710862e-21)
(-0.11946935 -0.062745894 2.4368503e-20)
(-0.1279973 -0.071755151 -1.3404529e-20)
(-0.13716473 -0.081567854 -1.1014598e-20)
(-0.14681664 -0.091283924 -1.0424077e-20)
(-0.15649979 -0.099041176 -9.8684315e-21)
(-0.16574283 -0.10145813 -1.515847e-20)
(-0.17301103 -0.092648121 2.9294835e-20)
(-0.17725614 -0.064752869 -1.7070564e-20)
(-0.17280312 -0.0072220474 -2.3919577e-20)
(-0.15457316 0.0844739 1.4036653e-20)
(-0.10156807 0.20239401 4.3467946e-21)
(-0.017848057 0.30355181 3.8712063e-21)
(0.099906655 0.32603899 -1.8604404e-20)
(0.3048582 0.16346434 -1.9596159e-20)
(0.57003669 -0.15205327 9.506188e-22)
(-8.3434632e-07 5.8453001e-06 -1.0051614e-21)
(-3.7479513e-06 1.6174543e-05 3.3368763e-21)
(-8.8712475e-06 2.6201566e-05 -2.7198938e-21)
(-1.7057589e-05 3.6877725e-05 1.0276389e-21)
(-2.9312641e-05 4.9272799e-05 3.7117284e-22)
(-4.6904748e-05 6.4558627e-05 -3.1928104e-21)
(-7.1406065e-05 8.4006585e-05 8.0822648e-22)
(-0.0001047309 0.00010897443 1.7154851e-21)
(-0.00014921117 0.00014087995 1.3151192e-22)
(-0.00020767466 0.00018116069 1.1166336e-21)
(-0.00028353868 0.00023121529 -1.5621939e-21)
(-0.00038091474 0.00029232309 1.0844329e-21)
(-0.00050472824 0.00036553694 3.9903526e-21)
(-0.00066085127 0.00045154597 1.1606128e-22)
(-0.00085624862 0.00055050429 -3.0366029e-21)
(-0.0010991341 0.0006618242 -2.1447029e-21)
(-0.0013991334 0.00078393408 1.8391453e-21)
(-0.0017674469 0.00091400577 -1.7526251e-22)
(-0.0022170022 0.0010476611 -3.5501051e-21)
(-0.0027625824 0.0011786748 -4.2991725e-21)
(-0.00342091 0.0012987002 4.8698817e-21)
(-0.0042106594 0.0013970528 4.8580628e-21)
(-0.0051523632 0.0014605962 -6.4734546e-21)
(-0.0062681668 0.0014737794 7.9277623e-21)
(-0.0075813729 0.0014188691 1.3586475e-20)
(-0.0091157093 0.00127641 -3.1628092e-20)
(-0.010894243 0.0010259186 1.7192301e-20)
(-0.012937867 0.00064679775 -2.5147313e-20)
(-0.015263339 0.00011947144 3.0981714e-20)
(-0.017880928 -0.00057315483 -3.4063113e-20)
(-0.020792012 -0.0014436002 3.4608147e-20)
(-0.023987296 -0.002496664 -5.6981916e-21)
(-0.02744665 -0.0037254704 -1.9195669e-20)
(-0.031141473 -0.0051090511 1.0487371e-20)
(-0.035039849 -0.0066155834 -3.1576496e-21)
(-0.039111628 -0.0082117911 -8.7789193e-22)
(-0.043331796 -0.0098739039 -1.0459539e-20)
(-0.047680829 -0.011592679 -3.2839585e-21)
(-0.052143065 -0.013373193 -3.223278e-21)
(-0.056706212 -0.015232342 -3.0908479e-21)
(-0.061361984 -0.01719736 1.5529523e-20)
(-0.066108771 -0.01930599 -6.774622e-21)
(-0.070953911 -0.021607871 -1.0845379e-21)
(-0.075919254 -0.024166672 1.2558387e-20)
(-0.081048306 -0.02706566 6.4367283e-21)
(-0.086400161 -0.030410628 -3.1899482e-21)
(-0.092052418 -0.034324318 -1.1828882e-20)
(-0.0980988 -0.038950018 5.1861852e-21)
(-0.1046323 -0.044448807 -1.5439054e-20)
(-0.11172914 -0.050981802 -8.4712261e-21)
(-0.11940804 -0.058671208 -1.1736008e-20)
(-0.1276067 -0.067517963 -3.1619924e-20)
(-0.13609077 -0.077248566 2.4326338e-20)
(-0.14445708 -0.087035147 -7.8328028e-21)
(-0.15189562 -0.095105493 1.3179886e-20)
(-0.15751017 -0.098233754 1.2257776e-20)
(-0.1594039 -0.090745729 3.8974736e-21)
(-0.15600457 -0.065109016 3.7133269e-20)
(-0.14246419 -0.01201819 9.4689061e-21)
(-0.11135394 0.071945915 -1.8813801e-20)
(-0.044700694 0.18065596 -5.0429401e-21)
(0.052189695 0.27375283 4.5011457e-21)
(0.20061513 0.28261925 1.0074029e-20)
(0.44544547 0.11002913 2.3083192e-20)
(0.71009313 -0.18834315 -1.8342352e-21)
(-5.9064977e-06 3.716794e-05 -3.0691087e-21)
(-1.9450189e-05 0.00011320987 -1.0832047e-21)
(-3.6159334e-05 0.00019587039 8.7677579e-22)
(-5.709394e-05 0.0002867265 3.2371871e-21)
(-8.3342291e-05 0.00038753969 -1.7732816e-21)
(-0.00011629849 0.00050020505 2.5515093e-21)
(-0.00015765887 0.00062675134 -1.1036002e-21)
(-0.00020946088 0.00076932076 -2.6275965e-22)
(-0.00027415445 0.00093013269 1.4863384e-21)
(-0.00035467588 0.0011114297 3.201322e-21)
(-0.00045453517 0.0013154013 1.6085736e-22)
(-0.00057791217 0.0015440799 -5.2539493e-21)
(-0.00072976661 0.0017992046 7.2610111e-21)
(-0.00091595853 0.0020820468 -1.1708451e-20)
(-0.0011433801 0.0023931934 3.0548655e-21)
(-0.0014200952 0.0027322843 -6.4792422e-21)
(-0.0017554838 0.0030977046 7.8142514e-21)
(-0.0021603843 0.0034862336 -5.0612836e-21)
(-0.0026472251 0.0038926604 7.9630086e-22)
(-0.0032301325 0.0043093844 3.2188068e-21)
(-0.003924997 0.0047260258 -7.7895988e-21)
(-0.0047494729 0.0051290851 1.0935224e-20)
(-0.0057228811 0.0055016982 -1.1821244e-20)
(-0.0068659718 0.0058235431 -2.0216142e-21)
(-0.0082004956 0.0060709503 1.9673494e-20)
(-0.0097485184 0.0062172642 -1.9742205e-20)
(-0.01153141 0.0062334892 1.273092e-20)
(-0.013568441 0.0060892536 -1.4176381e-20)
(-0.015874959 0.005754188 -1.3502135e-21)
(-0.01846025 0.0051999933 -8.336111e-22)
(-0.02132538 0.0044037787 5.4401628e-21)
(-0.024461704 0.0033533601 -3.6684152e-22)
(-0.027850975 0.002054111 1.9749033e-20)
(-0.031467781 0.000533739 -5.1870551e-21)
(-0.035283571 -0.0011612354 -1.5056225e-20)
(-0.039271599 -0.002978978 6.754005e-21)
(-0.043409322 -0.0048784699 -5.3332738e-21)
(-0.047678287 -0.006837342 5.1956357e-21)
(-0.052063295 -0.0088516546 2.7970631e-20)
(-0.056551912 -0.010931742 -1.5123187e-20)
(-0.061135489 -0.013098962 -3.6530449e-21)
(-0.065811921 -0.015384871 2.061833e-20)
(-0.070587851 -0.017831835 -1.1628168e-21)
(-0.07548475 -0.020494665 -2.5148893e-21)
(-0.080544633 -0.023448644 -2.7893207e-20)
(-0.085822382 -0.026794161 -6.5140241e-21)
(-0.091389145 -0.030651297 1.0405853e-20)
(-0.097326292 -0.035165071 1.0738203e-20)
(-0.10370226 -0.040506603 1.5438509e-20)
(-0.11055021 -0.046858394 1.9234853e-20)
(-0.11781406 -0.054378038 1.1778431e-20)
(-0.125309 -0.063119808 1.8289862e-20)
(-0.13259806 -0.0728875 -6.1435199e-21)
(-0.13896717 -0.082953939 3.7774348e-20)
(-0.14315968 -0.091653903 2.3421272e-21)
(-0.14373442 -0.095895436 1.8281347e-21)
(-0.13828375 -0.090189512 4.654442e-22)
(-0.12459023 -0.067291334 -3.936036e-20)
(-0.096962059 -0.018817251 -1.2444602e-20)
(-0.047397093 0.057260021 1.6073951e-20)
(0.033604741 0.15714926 1.8814414e-20)
(0.14512693 0.24073467 8.943446e-21)
(0.32498552 0.23566371 3.8415622e-21)
(0.5909834 0.058621875 -3.4122345e-20)
(0.84803371 -0.21413797 8.9769948e-21)
(-1.276403e-05 6.7546027e-05 5.8108854e-22)
(-4.0566466e-05 0.00020734309 1.8466663e-21)
(-7.2928128e-05 0.00036047965 -4.4567606e-21)
(-0.00011102758 0.00052916548 1.6560138e-22)
(-0.0001561084 0.0007158328 2.169414e-21)
(-0.00020971386 0.00092308666 9.5609292e-22)
(-0.00027368946 0.0011537005 7.0584795e-22)
(-0.00035021956 0.0014105902 -1.3905847e-21)
(-0.00044189222 0.0016967683 7.1969558e-21)
(-0.00055176725 0.0020152785 -5.4286582e-21)
(-0.00068345422 0.0023691019 2.6261893e-22)
(-0.00084119872 0.0027610325 3.2826273e-21)
(-0.001029979 0.003193513 -1.2272304e-20)
(-0.0012556112 0.0036684262 1.2221673e-20)
(-0.0015248627 0.0041868352 -1.6259086e-21)
(-0.0018455712 0.0047486697 -1.0050934e-20)
(-0.0022267651 0.0053523545 9.4362588e-21)
(-0.0026787812 0.0059943852 -3.2906557e-21)
(-0.0032133701 0.0066688565 6.3789121e-21)
(-0.0038437788 0.0073669639 -8.1616768e-21)
(-0.0045847951 0.0080765021 -1.5268127e-20)
(-0.005452732 0.0087814027 1.504388e-20)
(-0.0064653251 0.009461359 2.1922751e-20)
(-0.0076415057 0.010091599 -4.2009369e-20)
(-0.0090010028 0.010642869 3.3432545e-20)
(-0.010563716 0.011081688 -1.9243945e-20)
(-0.012348792 0.011370923 4.9115373e-21)
(-0.014373352 0.011470779 -1.1502036e-20)
(-0.01665085 0.01134036 1.1636834e-20)
(-0.019189164 0.01094025 1.5524358e-20)
(-0.021988769 0.010236932 -1.0168207e-20)
(-0.025041614 0.0092100268 -1.660976e-20)
(-0.028331533 0.0078619239 1.4165433e-21)
(-0.031836609 0.0062252098 5.6584511e-22)
(-0.035532731 0.0043595803 9.8395859e-21)
(-0.039396968 0.002334699 -4.1270815e-21)
(-0.043409412 0.00020943585 -1.4514393e-20)
(-0.047552962 -0.0019800325 -7.0657995e-21)
(-0.051812532 -0.0042198782 1.0498051e-20)
(-0.056174994 -0.0065131484 -8.0844177e-21)
(-0.060630574 -0.0088748111 6.8089347e-21)
(-0.065175547 -0.011329767 -2.1985596e-21)
(-0.069814479 -0.013912665 -8.6030468e-21)
(-0.074566725 -0.016669045 2.0898399e-20)
(-0.079470085 -0.019665483 1.2497158e-20)
(-0.08457136 -0.022998113 8.3160264e-21)
(-0.08993034 -0.026784318 -2.65741e-20)
(-0.09560892 -0.031173176 -1.7471354e-20)
(-0.10164068 -0.036350052 -2.0671576e-20)
(-0.10800066 -0.042525802 -3.6315785e-20)
(-0.11453553 -0.049904902 1.2598429e-20)
(-0.12090467 -0.058613269 -2.6898102e-21)
(-0.12641873 -0.068558966 -2.0689337e-20)
(-0.12999115 -0.079149806 -5.928287e-20)
(-0.12983285 -0.088857324 -3.7481623e-20)
(-0.12378585 -0.094711691 -1.3814387e-20)
(-0.10863805 -0.091412841 -3.6949518e-20)
(-0.08177067 -0.072224048 2.2801401e-20)
(-0.035045616 -0.029133343 -8.7903145e-22)
(0.031912193 0.04049116 -2.4947307e-20)
(0.12439278 0.13238851 -1.41972e-20)
(0.25353214 0.20516933 -8.5419791e-22)
(0.458279 0.18712581 3.3600713e-20)
(0.73851379 0.011693438 -4.503959e-21)
(0.9772992 -0.22951108 6.2102429e-21)
(-2.124792e-05 9.6381405e-05 2.3006469e-21)
(-6.6704672e-05 0.00029673131 -1.5518731e-21)
(-0.00011845241 0.00051683543 2.0961357e-21)
(-0.00017780993 0.00075951086 1.1912779e-21)
(-0.00024620444 0.0010278339 -3.3238032e-21)
(-0.00032535404 0.0013250945 -3.1024131e-21)
(-0.00041727854 0.0016547867 3.18277e-21)
(-0.00052433176 0.002020578 -3.8302028e-22)
(-0.00064925976 0.0024262562 -8.8689891e-23)
(-0.00079526041 0.0028756523 -6.2987926e-21)
(-0.00096605112 0.0033725333 6.9000607e-22)
(-0.0011659423 0.003920458 1.2689398e-20)
(-0.0013999184 0.0045225891 -1.013985e-20)
(-0.0016737245 0.0051814528 3.4886491e-22)
(-0.0019939581 0.0058986421 6.785017e-21)
(-0.0023681627 0.0066744545 5.8305509e-22)
(-0.0028049212 0.0075074641 -1.4813277e-21)
(-0.0033139428 0.0083940283 -6.6642224e-21)
(-0.0039061383 0.0093277363 1.2184078e-20)
(-0.0045936723 0.010298816 -2.1370628e-20)
(-0.0053899816 0.011293526 4.5930424e-21)
(-0.0063097405 0.012293575 -3.3648911e-21)
(-0.0073687519 0.013275617 2.7494722e-21)
(-0.0085837303 0.014210886 -1.1913527e-22)
(-0.0099719384 0.015065051 1.6161266e-20)
(-0.011550624 0.015798339 1.6017584e-20)
(-0.013336202 0.016366034 -3.1526736e-20)
(-0.015343122 0.016719434 -5.2190884e-21)
(-0.017582435 0.016807541 1.8018611e-20)
(-0.020060158 0.016580018 6.3372638e-21)
(-0.022775797 0.015992493 1.4272321e-20)
(-0.025721669 0.015015459 -1.5854995e-20)
(-0.028883683 0.013646505 -6.8233672e-21)
(-0.032243688 0.011920642 1.5435602e-20)
(-0.035782376 0.0099084088 -6.279575e-21)
(-0.039481439 0.0076964302 -2.9754137e-21)
(-0.043324132 0.0053613918 8.163982e-21)
(-0.047294705 0.0029543665 2.0798655e-20)
(-0.051377916 0.00050007218 6.197056e-21)
(-0.055559405 -0.0019964315 -4.0227049e-21)
(-0.059827342 -0.0045431434 -9.4188817e-21)
(-0.064175076 -0.0071577522 -9.7369703e-21)
(-0.068603702 -0.0098666747 -1.0820202e-20)
(-0.073128158 -0.012705691 -2.2852714e-20)
(-0.077778445 -0.01573309 6.3536669e-22)
(-0.082589706 -0.019040481 -9.8225773e-21)
(-0.087604221 -0.022743151 5.4824389e-20)
(-0.092855486 -0.0269965 1.5339619e-20)
(-0.098329528 -0.03200468 1.7748383e-20)
(-0.10392429 -0.038014418 4.9522031e-20)
(-0.10935966 -0.045289333 -5.8126772e-20)
(-0.1140951 -0.054045647 1.2897054e-20)
(-0.11713119 -0.064321694 4.0964545e-20)
(-0.11695185 -0.075696636 4.8903772e-20)
(-0.11117997 -0.086839006 5.9767269e-21)
(-0.096867879 -0.094935843 -1.3718564e-20)
(-0.070340538 -0.094748373 -1.933931e-20)
(-0.028556001 -0.080149295 6.9742235e-21)
(0.034818699 -0.042400247 -8.812261e-21)
(0.11526773 0.021492857 7.2825912e-21)
(0.22067271 0.10541823 1.8491234e-21)
(0.37109852 0.16753773 6.7800518e-21)
(0.59681743 0.13798557 -4.1818989e-20)
(0.88922126 -0.028558494 -5.3024043e-22)
(1.0897194 -0.23265146 -2.160684e-20)
(-3.1157198e-05 0.00012310105 -2.1674037e-21)
(-9.7247411e-05 0.00037959751 -5.8060304e-22)
(-0.00017165881 0.00066183357 6.3781162e-22)
(-0.00025587096 0.00097319876 3.1343801e-21)
(-0.00035151956 0.0013173751 -3.7580738e-21)
(-0.00046052092 0.0016982996 3.1900791e-21)
(-0.00058509174 0.0021201511 1.5240526e-21)
(-0.00072777628 0.0025873148 -8.1592759e-23)
(-0.00089149704 0.0031043232 -1.284894e-21)
(-0.0010796044 0.0036757712 -7.3014178e-21)
(-0.0012959327 0.004306196 1.2246109e-20)
(-0.0015448586 0.0049999182 -1.4694298e-20)
(-0.0018313647 0.0057608328 4.3077937e-21)
(-0.0021611048 0.0065921432 5.835518e-21)
(-0.0025404701 0.0074960314 -8.9289916e-21)
(-0.0029766556 0.0084732548 1.7552623e-20)
(-0.0034777204 0.0095226686 -2.1207513e-20)
(-0.0040526416 0.010640671 -3.337811e-22)
(-0.0047113532 0.01182058 -1.2067246e-20)
(-0.0054647645 0.013051951 4.7692566e-20)
(-0.006324747 0.014319874 -1.1496496e-20)
(-0.0073040777 0.015604273 -4.7367561e-20)
(-0.0084163194 0.016879278 2.228203e-20)
(-0.0096756131 0.01811272 2.6465586e-20)
(-0.01109635 0.019265841 -6.6192757e-21)
(-0.012692674 0.020293285 -3.451524e-20)
(-0.014477777 0.021143472 5.2025586e-20)
(-0.016462923 0.021759497 -5.7421121e-20)
(-0.018656235 0.022080857 4.4947498e-20)
(-0.021061351 0.022046651 -8.5443548e-21)
(-0.023676334 0.021601513 1.4559634e-20)
(-0.026493459 0.020705838 2.0508168e-20)
(-0.029500453 0.019350327 -7.8837618e-21)
(-0.032682956 0.017569394 -1.9558922e-21)
(-0.036026806 0.015441426 -2.7976659e-20)
(-0.039518786 0.013068218 5.187955e-21)
(-0.043145807 0.010544337 -1.308569e-20)
(-0.04689371 0.0079367387 1.0864352e-20)
(-0.050746886 0.0052821963 -6.1126859e-21)
(-0.054689074 0.0025948061 -4.001214e-21)
(-0.058705386 -0.00012573903 -3.4423217e-21)
(-0.062784769 -0.0028893787 -3.3327933e-21)
(-0.066922968 -0.0057136794 2.0475121e-20)
(-0.071128378 -0.0086245042 1.6401462e-20)
(-0.075418429 -0.011672211 -4.6632741e-21)
(-0.079811399 -0.014943037 3.0752911e-21)
(-0.084324878 -0.018551242 -1.2556449e-20)
(-0.088951949 -0.022660945 2.5749309e-20)
(-0.093613656 -0.027499422 3.0429033e-20)
(-0.098103746 -0.033357041 8.9228942e-21)
(-0.1019708 -0.040568987 2.3076678e-20)
(-0.10441168 -0.049457001 -7.1810248e-22)
(-0.10404581 -0.060207911 -1.0871771e-20)
(-0.098853045 -0.072591204 -5.1477994e-20)
(-0.085801654 -0.085499148 2.4808271e-20)
(-0.06129227 -0.096202109 -8.7190398e-21)
(-0.021512143 -0.099565384 2.4003946e-20)
(0.035850445 -0.089666043 -3.2445365e-20)
(0.11336789 -0.056904206 1.6334416e-20)
(0.20704761 0.0014974491 -3.3201233e-21)
(0.32922426 0.07694874 -2.078811e-22)
(0.50033129 0.12813984 -3.3727448e-21)
(0.75007027 0.091080719 -1.6183703e-20)
(1.0415807 -0.058454649 4.1537925e-20)
(1.1705151 -0.22419273 -3.5070175e-20)
(-4.2224032e-05 0.00014716354 4.8581949e-21)
(-0.00013137818 0.00045426604 3.3425091e-21)
(-0.00023112479 0.0007925498 -5.2467687e-21)
(-0.00034312961 0.0011659284 1.3813004e-22)
(-0.0004692547 0.00157864 4.743021e-21)
(-0.00061163436 0.0020352196 2.4798721e-21)
(-0.00077270169 0.0025404813 -5.2256539e-21)
(-0.00095520973 0.0030994814 8.5807254e-22)
(-0.001162274 0.0037174552 -1.2094697e-20)
(-0.0013974111 0.004399725 2.3567311e-21)
(-0.0016645821 0.0051515727 6.0437204e-23)
(-0.0019682345 0.0059780681 -8.664963e-21)
(-0.0023133463 0.0068838447 2.7758292e-20)
(-0.0027054676 0.0078728137 -1.2929841e-20)
(-0.0031507602 0.0089478071 -2.3158125e-20)
(-0.0036560317 0.010110142 2.4667184e-20)
(-0.0042287618 0.011359103 -3.0366017e-21)
(-0.0048771177 0.012691331 1.7230714e-20)
(-0.0056099536 0.014100142 1.2790079e-20)
(-0.00643679 0.015574768 -4.0194572e-20)
(-0.0073677658 0.017099559 3.0147429e-20)
(-0.0084135529 0.018653177 -3.9640223e-20)
(-0.0095852227 0.020207842 4.6485686e-21)
(-0.010894043 0.021728693 -1.8977926e-20)
(-0.012351183 0.02317334 4.1167025e-20)
(-0.013967281 0.024491703 -9.7366864e-21)
(-0.015751851 0.025626243 -2.4524649e-20)
(-0.017712474 0.026512742 5.9077178e-20)
(-0.0198538 0.027081979 -2.5555522e-20)
(-0.022176518 0.027263033 -2.7408521e-20)
(-0.024676653 0.026989567 2.2492422e-20)
(-0.027345836 0.026210986 2.9974874e-21)
(-0.030173061 0.024908901 -1.4756492e-20)
(-0.033147416 0.02311366 8.004084e-21)
(-0.036259915 0.020907776 -1.2008808e-20)
(-0.039502841 0.018405735 4.106032e-20)
(-0.042867267 0.015719467 -2.1006964e-20)
(-0.046340885 0.012932712 -1.230881e-20)
(-0.049907539 0.010095602 -2.4786043e-20)
(-0.053548385 0.0072323672 -3.37297e-21)
(-0.057244292 0.0043511462 2.5651473e-20)
(-0.060978087 0.0014503911 -1.0342101e-20)
(-0.064737942 -0.0014780481 -1.5266677e-20)
(-0.06852229 -0.004450269 -2.296591e-21)
(-0.07233072 -0.0075081612 1.5426128e-20)
(-0.076157699 -0.010732556 1.3809311e-20)
(-0.079985564 -0.014237455 -4.2576818e-20)
(-0.083749887 -0.018198044 -2.2846421e-20)
(-0.0872801 -0.022868965 -5.0212998e-20)
(-0.090222053 -0.02859281 -1.7803014e-20)
(-0.091880985 -0.035784216 -6.9796078e-21)
(-0.091100049 -0.044879562 -5.0955264e-20)
(-0.085999066 -0.056217306 -1.921928e-20)
(-0.073872316 -0.069749083 6.3506803e-20)
(-0.05077498 -0.084507182 -4.7794518e-20)
(-0.012342442 -0.097762623 4.0237891e-20)
(0.044992873 -0.10394875 -1.5958812e-20)
(0.12149787 -0.097286115 6.2383866e-20)
(0.21635372 -0.068453025 2.3325433e-20)
(0.32626628 -0.015389423 -6.0857824e-21)
(0.46554737 0.051987729 -8.8573747e-21)
(0.65610044 0.091921783 -1.9548645e-20)
(0.92843339 0.052632035 -3.493929e-21)
(1.1706249 -0.0736324 -5.7522387e-21)
(1.2028729 -0.20416201 4.4627206e-20)
(-5.412211e-05 0.00016808821 8.8413859e-23)
(-0.00016810403 0.00051924335 -6.2935184e-21)
(-0.00029511841 0.00090637578 7.4183231e-21)
(-0.00043705225 0.0013338592 3.5693911e-21)
(-0.00059600072 0.001806429 -7.1474945e-21)
(-0.00077433252 0.0023291562 -2.3144858e-21)
(-0.0009747122 0.0029074288 1.1221462e-20)
(-0.0012001167 0.0035469147 -1.2070736e-20)
(-0.0014538682 0.0042534961 -2.5451919e-21)
(-0.0017396627 0.0050331743 -1.0118474e-20)
(-0.0020615982 0.0058919371 2.6848663e-20)
(-0.0024242004 0.0068355802 3.2674461e-22)
(-0.0028324461 0.0078694722 -2.4062345e-20)
(-0.0032917797 0.0089982548 2.5795439e-20)
(-0.0038081238 0.010225468 -1.8436474e-20)
(-0.0043878804 0.011553089 -6.8242818e-21)
(-0.0050379195 0.012980983 1.422732e-20)
(-0.0057655537 0.014506256 -1.2808713e-20)
(-0.0065784949 0.016122513 -1.7013734e-20)
(-0.0074847905 0.017819043 3.5819252e-22)
(-0.008492735 0.019579935 2.6672631e-20)
(-0.009610752 0.021383174 -1.6448858e-20)
(-0.010847239 0.023199771 9.1392107e-21)
(-0.012210364 0.02499298 4.4039513e-20)
(-0.013707793 0.026717698 1.4696452e-20)
(-0.015346324 0.028320128 -3.9774344e-20)
(-0.017131388 0.029737838 3.9683816e-21)
(-0.019066411 0.03090037 -4.4709608e-20)
(-0.021152029 0.031730793 2.6396726e-20)
(-0.023385354 0.032148925 -1.3936431e-20)
(-0.025759655 0.032077727 2.0151919e-20)
(-0.028265109 0.031454933 4.9077084e-21)
(-0.030891112 0.030250937 -2.4389953e-20)
(-0.033629442 0.028488304 2.4835439e-20)
(-0.03647591 0.026249239 3.5951361e-20)
(-0.039428455 0.023657507 -3.3158564e-21)
(-0.042482771 0.020841213 -3.7062838e-20)
(-0.045628723 0.01790155 4.6400778e-20)
(-0.048849467 0.014903368 -9.7947867e-21)