/*--------------------------------*- C++ -*----------------------------------*\
  =========                 |
  \\      /  F ield         | OpenFOAM: The Open Source CFD Toolbox
   \\    /   O peration     | Website:  https://openfoam.org
    \\  /    A nd           | Version:  13
     \\/     M anipulation  |
\*---------------------------------------------------------------------------*/
FoamFile
{
    format      ascii;
    class       volScalarField;
    location    "40.801914";
    object      p;
}
// * * * * * * * * * * * * * * * * * * * * * * * * * * * * * * * * * * * * * //

dimensions      [0 2 -2 0 0 0 0];

internalField   nonuniform List<scalar> 
17140
(
-0.30760507
-0.307613
-0.3076224
-0.30763243
-0.30764344
-0.3076556
-0.30766898
-0.30768369
-0.30769984
-0.30771753
-0.30773686
-0.30775792
-0.30778082
-0.30780564
-0.30783244
-0.30786126
-0.30789214
-0.30792505
-0.30795996
-0.30799678
-0.30803543
-0.30807579
-0.30811779
-0.30816146
-0.30820701
-0.30825508
-0.30830695
-0.30836502
-0.30843343
-0.308519
-0.30863231
-0.30878864
-0.30900786
-0.30931165
-0.30971714
-0.31022834
-0.31083036
-0.31149065
-0.31216702
-0.31281784
-0.31341059
-0.31392601
-0.31435667
-0.31471094
-0.31501496
-0.31529156
-0.31555738
-0.31583167
-0.31612517
-0.31642827
-0.31669734
-0.31682539
-0.31659362
-0.31560285
-0.31316303
-0.30877689
-0.30089784
-0.28943118
-0.27407207
-0.26870555
-0.28380233
-0.29640245
-0.23239944
-0.13084097
-0.068297335
-0.30669153
-0.30669948
-0.30670889
-0.30671894
-0.30672995
-0.30674211
-0.30675552
-0.30677028
-0.30678646
-0.30680416
-0.30682349
-0.30684457
-0.30686748
-0.30689233
-0.30691918
-0.30694807
-0.30697903
-0.30701204
-0.30704707
-0.30708404
-0.30712283
-0.30716333
-0.30720543
-0.30724914
-0.30729462
-0.3073424
-0.30739366
-0.30745063
-0.30751724
-0.30759998
-0.30770909
-0.30785942
-0.30807041
-0.30836328
-0.30875469
-0.3092481
-0.30982781
-0.31045999
-0.31110061
-0.31170554
-0.31223888
-0.31267719
-0.31300786
-0.31323157
-0.31336539
-0.3134206
-0.31339723
-0.31329235
-0.31308694
-0.31273224
-0.31213305
-0.31112382
-0.30941921
-0.30657508
-0.3020721
-0.29584241
-0.28763969
-0.27892212
-0.27031519
-0.27748336
-0.31195387
-0.34103456
-0.2725963
-0.14911887
-0.061964876
-0.305835
-0.30584286
-0.30585213
-0.30586205
-0.30587358
-0.30588635
-0.30589823
-0.30591069
-0.30592693
-0.30594576
-0.30596536
-0.30598619
-0.30600885
-0.30603345
-0.30606005
-0.30608869
-0.30611939
-0.30615215
-0.30618692
-0.30622362
-0.30626214
-0.30630234
-0.3063441
-0.30638737
-0.30643228
-0.30647925
-0.30652934
-0.30658457
-0.30664861
-0.3067276
-0.30683128
-0.30697395
-0.30717439
-0.30745321
-0.30782657
-0.3082975
-0.30884982
-0.30944885
-0.31004905
-0.31060394
-0.31107441
-0.31143283
-0.31166139
-0.31175323
-0.31171615
-0.31155008
-0.31123903
-0.31075875
-0.31006203
-0.30906372
-0.30762168
-0.3055178
-0.30240941
-0.29781309
-0.29131337
-0.28360045
-0.27520635
-0.26902615
-0.26674622
-0.28591734
-0.33499229
-0.37940042
-0.30345223
-0.16168661
-0.056403669
-0.30504439
-0.30505206
-0.30506107
-0.30507072
-0.30508209
-0.30509476
-0.30510641
-0.30511831
-0.30513392
-0.30515237
-0.30517153
-0.30519181
-0.30521394
-0.30523799
-0.305264
-0.30529203
-0.30532209
-0.30535418
-0.30538826
-0.30542425
-0.30546201
-0.30550142
-0.30554232
-0.30558463
-0.30562841
-0.30567399
-0.30572229
-0.30577512
-0.30583582
-0.30591013
-0.3060072
-0.30614058
-0.30632824
-0.30659
-0.30694142
-0.30738528
-0.30790524
-0.3084662
-0.30902147
-0.30952255
-0.30992728
-0.3102039
-0.31032942
-0.31028965
-0.31008304
-0.30969848
-0.30910475
-0.30825732
-0.30708275
-0.30546241
-0.30321095
-0.30006521
-0.29562951
-0.28932694
-0.28123646
-0.27244629
-0.26358042
-0.25881806
-0.26273044
-0.29343658
-0.35320218
-0.40915728
-0.32292992
-0.16755749
-0.047563457
-0.30432661
-0.30433398
-0.3043427
-0.304352
-0.30436219
-0.30437346
-0.30438589
-0.30439953
-0.30441449
-0.30443089
-0.30444884
-0.30446843
-0.30448977
-0.30451296
-0.30453805
-0.30456511
-0.30459416
-0.30462519
-0.30465817
-0.304693
-0.30472957
-0.30476771
-0.30480727
-0.30484811
-0.30489023
-0.30493389
-0.30497982
-0.30502961
-0.30508628
-0.30515506
-0.30524442
-0.30536705
-0.30553988
-0.30578178
-0.30610764
-0.30652009
-0.30700297
-0.30752118
-0.30802736
-0.30847135
-0.3088081
-0.30900192
-0.30902467
-0.30885512
-0.30848252
-0.30788499
-0.3070171
-0.30581534
-0.30418208
-0.30196793
-0.29894913
-0.29483024
-0.28915368
-0.28131455
-0.27215341
-0.26235962
-0.25287123
-0.24886585
-0.25738898
-0.29732829
-0.36613935
-0.425007
-0.3296245
-0.17097758
-0.039827406
-0.30368743
-0.30369442
-0.30370269
-0.3037115
-0.30372116
-0.30373181
-0.30374354
-0.30375644
-0.30377062
-0.30378617
-0.3038032
-0.30382182
-0.30384211
-0.30386416
-0.30388805
-0.30391384
-0.30394155
-0.30397117
-0.30400267
-0.30403596
-0.3040709
-0.30410734
-0.30414508
-0.30418397
-0.30422395
-0.30426516
-0.30430818
-0.30435437
-0.30440636
-0.30446885
-0.30454956
-0.30466016
-0.30481639
-0.30503597
-0.30533304
-0.30571015
-0.30615163
-0.30662287
-0.3070763
-0.30746046
-0.30772773
-0.30783866
-0.30776014
-0.30746426
-0.30693135
-0.3061291
-0.30499894
-0.30345972
-0.30139183
-0.29861778
-0.29488221
-0.28987032
-0.28301711
-0.27409074
-0.26395165
-0.25309495
-0.24311734
-0.23977972
-0.25154058
-0.29800609
-0.37275422
-0.42634592
-0.32669511
-0.16874757
-0.035015947
-0.30313139
-0.30313791
-0.30314561
-0.30315382
-0.30316282
-0.30317275
-0.30318369
-0.30319572
-0.30320894
-0.30322346
-0.30323936
-0.30325676
-0.30327575
-0.3032964
-0.3033188
-0.30334301
-0.30336904
-0.3033969
-0.30342654
-0.30345788
-0.30349078
-0.30352508
-0.30356057
-0.30359706
-0.30363441
-0.30367269
-0.3037123
-0.30375436
-0.30380111
-0.30385667
-0.30392792
-0.30402543
-0.30416359
-0.3043588
-0.30462436
-0.30496279
-0.30535916
-0.30577976
-0.30617735
-0.30649958
-0.30669663
-0.30672553
-0.30654851
-0.30613136
-0.30544586
-0.30444969
-0.30307234
-0.30121627
-0.29874229
-0.2954476
-0.29105342
-0.28522053
-0.2772629
-0.26761418
-0.25660443
-0.24465141
-0.23424785
-0.23142888
-0.24658687
-0.29655413
-0.37193711
-0.41626972
-0.31344905
-0.1591077
-0.032468356
-0.30266028
-0.30266631
-0.30267363
-0.30268115
-0.30268937
-0.30269846
-0.30270848
-0.30271951
-0.30273164
-0.30274496
-0.30275957
-0.30277557
-0.30279305
-0.30281209
-0.30283276
-0.30285513
-0.3028792
-0.302905
-0.30293246
-0.30296152
-0.30299203
-0.30302381
-0.30305664
-0.30309031
-0.30312461
-0.30315951
-0.30319527
-0.30323273
-0.30327374
-0.30332183
-0.30338301
-0.30346664
-0.30358565
-0.30375499
-0.30398697
-0.30428409
-0.30463236
-0.30499939
-0.30533872
-0.30559765
-0.30572458
-0.30567334
-0.3054018
-0.30487007
-0.30404171
-0.30286496
-0.30125856
-0.29911016
-0.29626307
-0.29249193
-0.28750481
-0.28091476
-0.27206052
-0.26173078
-0.24994512
-0.23698665
-0.22619362
-0.22391969
-0.24237767
-0.29339209
-0.36417894
-0.39578253
-0.29517742
-0.14454251
-0.03161829
-0.30227555
-0.30228096
-0.30228752
-0.30229428
-0.30230167
-0.30230984
-0.30231884
-0.30232876
-0.30233968
-0.30235168
-0.30236485
-0.3023793
-0.3023951
-0.30241234
-0.30243108
-0.30245137
-0.30247326
-0.30249672
-0.30252173
-0.30254819
-0.30257598
-0.3026049
-0.30263472
-0.30266519
-0.30269606
-0.3027272
-0.30275872
-0.3027912
-0.30282612
-0.30286637
-0.3029171
-0.3029864
-0.30308567
-0.30322827
-0.30342539
-0.30367944
-0.3039775
-0.30428885
-0.3045683
-0.30476335
-0.3048211
-0.30469262
-0.30433182
-0.30369378
-0.30273433
-0.30139289
-0.29957857
-0.29716567
-0.29398157
-0.28978131
-0.28426903
-0.2769877
-0.26754904
-0.25642355
-0.24376732
-0.22995748
-0.21937808
-0.21810917
-0.23758832
-0.28791723
-0.35031868
-0.36935033
-0.28020866
-0.12733256
-0.031996612
-0.30197579
-0.30198054
-0.30198629
-0.30199223
-0.30199873
-0.30200591
-0.30201383
-0.30202256
-0.30203218
-0.30204277
-0.30205441
-0.30206719
-0.30208119
-0.30209648
-0.30211314
-0.3021312
-0.30215071
-0.30217165
-0.30219398
-0.30221762
-0.30224244
-0.30226824
-0.30229477
-0.30232175
-0.3023489
-0.302376
-0.30240299
-0.30243024
-0.30245883
-0.30249109
-0.30253122
-0.30258611
-0.30266553
-0.30278116
-0.30294296
-0.30315316
-0.30339992
-0.30365445
-0.30387334
-0.30400481
-0.30399524
-0.30379346
-0.30334993
-0.30261542
-0.30153858
-0.30005066
-0.29805216
-0.29540516
-0.29192157
-0.28734049
-0.28135511
-0.27342219
-0.26360245
-0.25173764
-0.23837347
-0.22426093
-0.21361591
-0.21327581
-0.23159232
-0.28006155
-0.32975409
-0.33626103
-0.25362198
-0.12081314
-0.033106097
-0.30175838
-0.30176245
-0.30176735
-0.30177245
-0.30177802
-0.30178418
-0.30179099
-0.30179849
-0.30180676
-0.30181588
-0.30182593
-0.30183697
-0.30184909
-0.30186236
-0.30187684
-0.30189257
-0.30190958
-0.30192786
-0.30194737
-0.30196804
-0.30198971
-0.3020122
-0.30203525
-0.30205855
-0.30208178
-0.30210463
-0.30212693
-0.30214881
-0.302171
-0.30219524
-0.30222489
-0.30226559
-0.30232553
-0.30241463
-0.30254151
-0.30270807
-0.30290354
-0.30310122
-0.30325988
-0.30332903
-0.30325499
-0.30298489
-0.30246641
-0.3016467
-0.30046793
-0.29885386
-0.29669715
-0.29384827
-0.29010317
-0.28518845
-0.27875537
-0.27031456
-0.26000751
-0.24774469
-0.23337645
-0.21904394
-0.20771153
-0.2067717
-0.22528512
-0.27062297
-0.30661418
-0.30445692
-0.22079143
-0.11300345
-0.035998136
-0.30161895
-0.30162233
-0.30162638
-0.30163063
-0.30163528
-0.30164042
-0.3016461
-0.30165237
-0.30165929
-0.30166694
-0.30167538
-0.30168467
-0.3016949
-0.30170612
-0.30171839
-0.30173175
-0.30174621
-0.30176179
-0.30177842
-0.30179604
-0.30181449
-0.30183359
-0.30185306
-0.30187259
-0.3018918
-0.30191033
-0.30192788
-0.30194438
-0.30196022
-0.30197662
-0.30199612
-0.30202317
-0.30206441
-0.30212803
-0.30222121
-0.30234538
-0.30249071
-0.30263265
-0.30273249
-0.3027416
-0.30260688
-0.30227446
-0.30168995
-0.3007976
-0.29953392
-0.29781583
-0.29552858
-0.29251093
-0.28854252
-0.28333389
-0.27648764
-0.26771649
-0.25670342
-0.24384382
-0.22842305
-0.21269777
-0.20123268
-0.19972809
-0.21900482
-0.25660798
-0.27972206
-0.26763599
-0.2014975
-0.10736561
-0.038576735
-0.30155196
-0.30155468
-0.30155791
-0.30156134
-0.30156509
-0.30156924
-0.30157382
-0.30157889
-0.30158451
-0.30159072
-0.30159759
-0.30160518
-0.30161355
-0.30162277
-0.30163287
-0.30164389
-0.30165585
-0.30166875
-0.30168253
-0.30169711
-0.30171236
-0.30172807
-0.30174397
-0.30175973
-0.30177493
-0.30178916
-0.301802
-0.30181321
-0.30182287
-0.30183172
-0.30184156
-0.30185573
-0.30187941
-0.30191909
-0.30198048
-0.30206442
-0.30216187
-0.30225036
-0.30229393
-0.30224628
-0.30205558
-0.30166771
-0.30102712
-0.30007568
-0.29874524
-0.29694643
-0.29455689
-0.29140278
-0.28724481
-0.28175584
-0.27453194
-0.26527926
-0.25365915
-0.23997436
-0.22333203
-0.20670058
-0.19565464
-0.19624403
-0.21371824
-0.24329789
-0.25548095
-0.23253237
-0.17961114
-0.10323566
-0.041718194
-0.30155036
-0.30155247
-0.30155496
-0.30155762
-0.30156053
-0.30156375
-0.30156731
-0.30157126
-0.30157565
-0.30158051
-0.30158591
-0.3015919
-0.30159853
-0.30160584
-0.30161389
-0.3016227
-0.30163228
-0.30164262
-0.30165367
-0.30166535
-0.30167752
-0.30168997
-0.30170243
-0.30171453
-0.30172586
-0.30173593
-0.30174424
-0.30175037
-0.30175416
-0.3017559
-0.30175672
-0.30175898
-0.30176649
-0.30178419
-0.3018163
-0.30186295
-0.30191572
-0.30195408
-0.30194494
-0.30184471
-0.3016035
-0.3011677
-0.30048164
-0.29948507
-0.29810658
-0.29625057
-0.29378641
-0.29052609
-0.28619905
-0.28043585
-0.27282957
-0.26303572
-0.25088212
-0.23636093
-0.21914701
-0.20352608
-0.19361343
-0.19402395
-0.20808795
-0.2249775
-0.22996083
-0.21069952
-0.16234994
-0.099916161
-0.044406536
-0.30160702
-0.30160859
-0.30161043
-0.3016124
-0.30161456
-0.30161695
-0.30161961
-0.30162255
-0.30162583
-0.30162949
-0.30163357
-0.30163811
-0.30164316
-0.30164876
-0.30165494
-0.30166173
-0.30166914
-0.30167713
-0.30168568
-0.30169468
-0.30170399
-0.3017134
-0.30172263
-0.30173131
-0.30173898
-0.30174511
-0.30174913
-0.30175046
-0.3017487
-0.30174377
-0.30173621
-0.3017275
-0.30172025
-0.30171799
-0.30172354
-0.30173636
-0.30174846
-0.30174097
-0.30168366
-0.30153584
-0.30125013
-0.3007742
-0.30005332
-0.29902522
-0.29761674
-0.2957254
-0.29321113
-0.28986881
-0.28537578
-0.27936052
-0.27139155
-0.26107335
-0.24843823
-0.23370341
-0.21733485
-0.20210268
-0.19336989
-0.19200854
-0.20268903
-0.21225062
-0.20599518
-0.18974003
-0.14781141
-0.097330664
-0.047163747
-0.30171338
-0.30171449
-0.3017158
-0.3017172
-0.30171872
-0.30172042
-0.3017223
-0.30172441
-0.30172676
-0.3017294
-0.30173236
-0.30173568
-0.30173939
-0.30174352
-0.30174811
-0.30175317
-0.3017587
-0.30176467
-0.30177103
-0.30177769
-0.30178449
-0.30179122
-0.30179758
-0.30180319
-0.30180757
-0.30181014
-0.30181023
-0.30180715
-0.3018003
-0.30178925
-0.30177404
-0.30175544
-0.30173498
-0.30171513
-0.30169714
-0.30167968
-0.30165538
-0.30160664
-0.30150607
-0.30131589
-0.3009916
-0.30048291
-0.29973662
-0.29868911
-0.29726629
-0.29535704
-0.29281343
-0.28939049
-0.28474131
-0.27848515
-0.27013968
-0.25949076
-0.24686258
-0.23233639
-0.21596499
-0.20188705
-0.19274189
-0.19188689
-0.19487022
-0.1979109
-0.19216202
-0.17461545
-0.13683846
-0.094982142
-0.04950939
-0.30186256
-0.30186332
-0.30186422
-0.30186517
-0.30186622
-0.30186739
-0.30186869
-0.30187015
-0.30187179
-0.30187365
-0.30187575
-0.30187812
-0.30188079
-0.30188378
-0.30188712
-0.30189081
-0.30189484
-0.30189918
-0.30190378
-0.30190852
-0.30191324
-0.30191773
-0.30192167
-0.30192465
-0.30192615
-0.30192554
-0.30192208
-0.30191495
-0.30190334
-0.30188653
-0.30186411
-0.30183624
-0.30180337
-0.30176738
-0.30172755
-0.30168357
-0.30162761
-0.30154267
-0.30140424
-0.30117698
-0.30081954
-0.30028405
-0.29951909
-0.29846079
-0.29703401
-0.2951179
-0.29254821
-0.28903943
-0.28422509
-0.27772838
-0.26915051
-0.25853773
-0.2454797
-0.23088853
-0.21440387
-0.20142694
-0.19271662
-0.18944439
-0.18827656
-0.18713426
-0.17775003
-0.16089045
-0.12748536
-0.092981426
-0.051657673
-0.30204589
-0.30204644
-0.30204708
-0.30204776
-0.30204851
-0.30204935
-0.30205029
-0.30205134
-0.30205254
-0.30205391
-0.30205546
-0.30205722
-0.30205921
-0.30206145
-0.30206396
-0.30206673
-0.30206974
-0.30207296
-0.30207631
-0.30207967
-0.30208288
-0.30208569
-0.30208777
-0.30208867
-0.30208783
-0.30208455
-0.302078
-0.30206724
-0.30205127
-0.30202911
-0.30199997
-0.30196364
-0.30191892
-0.30187119
-0.30181293
-0.30174327
-0.30165904
-0.30154134
-0.30136895
-0.30110826
-0.30072086
-0.30016108
-0.2993797
-0.29831274
-0.29688376
-0.2949599
-0.29235592
-0.28875111
-0.28379335
-0.27714091
-0.26836639
-0.2571924
-0.24392606
-0.22916009
-0.213999
-0.20109914
-0.19170186
-0.18600501
-0.18148349
-0.1776721
-0.16694777
-0.1505062
-0.12012167
-0.091098856
-0.053434504
-0.30225908
-0.30225956
-0.30226012
-0.30226072
-0.30226138
-0.30226212
-0.30226295
-0.30226388
-0.30226494
-0.30226613
-0.30226749
-0.30226903
-0.30227077
-0.30227272
-0.30227487
-0.30227723
-0.30227977
-0.30228244
-0.30228514
-0.30228775
-0.30229008
-0.30229185
-0.30229269
-0.30229212
-0.30228951
-0.30228409
-0.30227491
-0.30226089
-0.30224082
-0.30221346
-0.30217768
-0.30213279
-0.30207631
-0.30201407
-0.30193649
-0.30184191
-0.30173606
-0.30158842
-0.30138555
-0.30109321
-0.30067589
-0.3000895
-0.29928714
-0.29820477
-0.29676665
-0.29482594
-0.29217338
-0.28849221
-0.28346173
-0.27652667
-0.26718552
-0.25544503
-0.24165523
-0.22694467
-0.21263987
-0.19926984
-0.19023839
-0.18155398
-0.17556484
-0.16947291
-0.15718436
-0.14128373
-0.11378045
-0.089329496
-0.054928058
-0.30249572
-0.30249631
-0.302497
-0.30249774
-0.30249855
-0.30249945
-0.30250046
-0.30250159
-0.30250285
-0.30250426
-0.30250585
-0.30250762
-0.30250958
-0.30251175
-0.30251411
-0.30251665
-0.30251934
-0.3025221
-0.30252483
-0.30252737
-0.3025295
-0.30253091
-0.30253116
-0.30252972
-0.30252587
-0.30251872
-0.30250719
-0.30249001
-0.30246576
-0.30243293
-0.30239006
-0.30233502
-0.3022717
-0.30219309
-0.30209705
-0.30198359
-0.30185017
-0.30167429
-0.30143896
-0.30111232
-0.30065946
-0.30003693
-0.29920136
-0.2980898
-0.29663255
-0.29465992
-0.2919619
-0.2882483
-0.28292614
-0.27540284
-0.26526265
-0.25269823
-0.23856484
-0.22454091
-0.20984883
-0.19678642
-0.18618682
-0.17767054
-0.16974941
-0.1618852
-0.14892867
-0.13373948
-0.10852533
-0.087602898
-0.056086106
-0.30275662
-0.3027575
-0.30275854
-0.30275966
-0.30276088
-0.30276224
-0.30276374
-0.3027654
-0.30276725
-0.30276928
-0.30277153
-0.30277401
-0.30277672
-0.30277965
-0.30278281
-0.30278616
-0.30278965
-0.30279319
-0.30279665
-0.30279984
-0.30280249
-0.30280424
-0.30280459
-0.30280291
-0.30279837
-0.30278995
-0.30277641
-0.30275628
-0.30272792
-0.30268954
-0.30263937
-0.30257553
-0.30249846
-0.30239787
-0.30228365
-0.30215579
-0.30199005
-0.30178348
-0.30151104
-0.30114191
-0.30064228
-0.29996998
-0.29908703
-0.2979405
-0.29645477
-0.29446014
-0.29172525
-0.28771216
-0.28176182
-0.27332815
-0.26207578
-0.24891354
-0.23536089
-0.22073718
-0.20637749
-0.19367129
-0.18307042
-0.17335795
-0.16417193
-0.15520033
-0.14169637
-0.12712217
-0.10393139
-0.085897031
-0.056952991
-0.30304313
-0.30304451
-0.30304615
-0.3030479
-0.30304982
-0.30305194
-0.30305427
-0.30305684
-0.30305966
-0.30306276
-0.30306615
-0.30306983
-0.30307381
-0.3030781
-0.30308265
-0.30308744
-0.30309238
-0.30309736
-0.30310222
-0.30310671
-0.30311051
-0.30311316
-0.3031141
-0.30311255
-0.30310754
-0.30309789
-0.30308213
-0.30305854
-0.3030252
-0.30297998
-0.30292073
-0.30284531
-0.30275183
-0.30263817
-0.30250127
-0.30234192
-0.30214663
-0.30190227
-0.30158437
-0.30116096
-0.30060238
-0.29987272
-0.29894229
-0.29777253
-0.29627849
-0.29422096
-0.2911775
-0.28649936
-0.27959003
-0.26981517
-0.25779139
-0.2450308
-0.23083479
-0.21628174
-0.20280687
-0.19031575
-0.17903536
-0.16891071
-0.15879909
-0.14894144
-0.13524161
-0.12136843
-0.099910012
-0.084173249
-0.057515573
-0.30336439
-0.30336648
-0.30336896
-0.30337159
-0.30337448
-0.30337766
-0.30338116
-0.30338499
-0.30338918
-0.30339374
-0.30339871
-0.30340407
-0.30340984
-0.30341599
-0.30342248
-0.30342926
-0.30343622
-0.30344321
-0.30345
-0.3034563
-0.3034617
-0.30346564
-0.30346741
-0.3034661
-0.30346057
-0.30344938
-0.30343086
-0.30340299
-0.30336354
-0.30331004
-0.30323997
-0.30315089
-0.3030401
-0.30290455
-0.30274387
-0.3025514
-0.30231732
-0.3020246
-0.30165011
-0.30116198
-0.30054869
-0.29976909
-0.29882685
-0.29764554
-0.29606139
-0.29367836
-0.28998432
-0.2842789
-0.27589228
-0.26511632
-0.25341199
-0.23992676
-0.22557553
-0.2120526
-0.19881867
-0.18639324
-0.17496013
-0.1643619
-0.15358128
-0.14321664
-0.12947254
-0.11623395
-0.096287854
-0.082422856
-0.05780474
-0.30373922
-0.30374219
-0.30374569
-0.30374943
-0.30375351
-0.303758
-0.30376293
-0.30376831
-0.30377417
-0.30378054
-0.30378742
-0.30379483
-0.30380275
-0.30381115
-0.30381998
-0.30382913
-0.30383847
-0.30384779
-0.30385681
-0.30386514
-0.30387227
-0.30387751
-0.30388
-0.30387865
-0.30387209
-0.30385869
-0.30383648
-0.30380319
-0.30375629
-0.30369293
-0.30361058
-0.30351096
-0.30337035
-0.3031984
-0.30301283
-0.30278215
-0.30250214
-0.30215481
-0.30172065
-0.30117558
-0.30051945
-0.29972784
-0.29876535
-0.29747009
-0.29556285
-0.29251752
-0.28778464
-0.28057905
-0.27090516
-0.26038726
-0.24784369
-0.23390516
-0.22063405
-0.20742117
-0.19446999
-0.18222056
-0.17056293
-0.15969591
-0.14849421
-0.13779618
-0.12415926
-0.11156253
-0.092953129
-0.080613141
-0.057819265
-0.30419269
-0.30419664
-0.3042013
-0.30420626
-0.30421167
-0.30421761
-0.30422411
-0.3042312
-0.3042389
-0.30424723
-0.3042562
-0.30426581
-0.30427603
-0.3042868
-0.30429805
-0.30430964
-0.30432136
-0.30433295
-0.30434402
-0.30435408
-0.30436248
-0.30436838
-0.30437071
-0.30436815
-0.3043591
-0.30434161
-0.3043134
-0.30427188
-0.30421398
-0.30413639
-0.30404414
-0.30390559
-0.30373456
-0.30355836
-0.30333171
-0.30305475
-0.30272185
-0.30231804
-0.30182708
-0.30125712
-0.30057167
-0.29974155
-0.29865104
-0.29703714
-0.29447129
-0.29035101
-0.28429307
-0.27545595
-0.26596018
-0.25453194
-0.2411749
-0.22843317
-0.2154082
-0.20254014
-0.18985687
-0.1777156
-0.16599573
-0.1549597
-0.14350518
-0.13267292
-0.11924553
-0.10725118
-0.089827471
-0.078743709
-0.057581335
-0.3047677
-0.30477261
-0.30477841
-0.30478457
-0.30479128
-0.30479863
-0.30480665
-0.30481537
-0.30482482
-0.304835
-0.30484592
-0.30485755
-0.30486985
-0.30488273
-0.30489607
-0.30490966
-0.30492324
-0.30493645
-0.30494879
-0.30495962
-0.30496813
-0.30497329
-0.3049738
-0.30496807
-0.30495421
-0.30492996
-0.3048927
-0.30483952
-0.30476691
-0.30467086
-0.304542
-0.30439067
-0.30421221
-0.30399045
-0.30371798
-0.3033948
-0.30300328
-0.30255436
-0.30201748
-0.30140759
-0.30066757
-0.29969705
-0.29827672
-0.29600125
-0.29233681
-0.28686779
-0.27901459
-0.27033273
-0.25997381
-0.24739852
-0.23524511
-0.22272967
-0.21004089
-0.19744579
-0.18497865
-0.17298405
-0.16124643
-0.15014175
-0.13858216
-0.12773491
-0.11459152
-0.10318048
-0.086824407
-0.076788754
-0.057094552
-0.30551571
-0.30552141
-0.30552812
-0.30553524
-0.30554297
-0.30555143
-0.30556063
-0.30557061
-0.30558136
-0.30559291
-0.30560522
-0.30561825
-0.30563193
-0.30564612
-0.30566063
-0.3056752
-0.30568946
-0.30570294
-0.30571501
-0.30572487
-0.3057315
-0.30573364
-0.30572974
-0.30571793
-0.30569598
-0.30566132
-0.30561118
-0.30554212
-0.30544193
-0.30532843
-0.30520721
-0.30502582
-0.30478161
-0.30451335
-0.30419265
-0.30381885
-0.30339379
-0.30287603
-0.30228821
-0.30159735
-0.30070274
-0.29939822
-0.29731568
-0.29398929
-0.28898154
-0.28189615
-0.2737638
-0.26453659
-0.25259001
-0.24109471
-0.22923181
-0.21691023
-0.20447792
-0.1921227
-0.17987134
-0.1680224
-0.15633926
-0.14524992
-0.13369663
-0.12294374
-0.11014204
-0.099286611
-0.083896726
-0.074746
-0.056374727
-0.30650154
-0.30650765
-0.30651484
-0.30652245
-0.30653069
-0.30653968
-0.30654942
-0.30655993
-0.30657121
-0.30658323
-0.30659595
-0.3066093
-0.30662313
-0.30663727
-0.30665144
-0.3066653
-0.30667836
-0.30669
-0.30669944
-0.30670567
-0.30670743
-0.30670321
-0.30669115
-0.30666907
-0.30663431
-0.30658355
-0.30651401
-0.30642656
-0.30633355
-0.30618645
-0.3059771
-0.30575205
-0.30548953
-0.3051725
-0.30480815
-0.30436482
-0.30386601
-0.30328725
-0.30260579
-0.30174497
-0.30050167
-0.29854606
-0.29546004
-0.29087065
-0.28436093
-0.27674628
-0.26832319
-0.25742151
-0.24601342
-0.23496112
-0.22302755
-0.21093736
-0.19873597
-0.186602
-0.17455057
-0.16286574
-0.15128358
-0.14027662
-0.12881923
-0.11823539
-0.10581426
-0.09549346
-0.080988712
-0.072599831
-0.055426149
-0.30779248
-0.30779856
-0.30780571
-0.30781323
-0.30782136
-0.30783016
-0.30783965
-0.3078498
-0.30786061
-0.307872
-0.3078839
-0.30789616
-0.3079086
-0.30792093
-0.30793281
-0.30794374
-0.3079531
-0.30796009
-0.3079637
-0.30796267
-0.30795546
-0.30794022
-0.30791472
-0.30787609
-0.30782063
-0.30775027
-0.30767544
-0.30757302
-0.30739707
-0.30718785
-0.30696621
-0.30668866
-0.30636315
-0.30597792
-0.3055397
-0.30503558
-0.30444314
-0.30376074
-0.30290033
-0.30167791
-0.29980258
-0.29688958
-0.292614
-0.28662258
-0.27941313
-0.27159076
-0.26145532
-0.25052598
-0.23982132
-0.22844797
-0.21672355
-0.204822
-0.1928102
-0.18087884
-0.16902456
-0.15751672
-0.14607985
-0.13521345
-0.12392286
-0.11357062
-0.10156053
-0.091754721
-0.078066138
-0.070343712
-0.054257949
-0.30946975
-0.30947533
-0.30948184
-0.30948865
-0.30949594
-0.30950377
-0.30951212
-0.30952092
-0.30953013
-0.30953963
-0.30954928
-0.30955887
-0.30956811
-0.30957661
-0.30958389
-0.30958929
-0.309592
-0.30959097
-0.30958493
-0.30957233
-0.30955124
-0.30951911
-0.30947284
-0.30941445
-0.30934721
-0.30925363
-0.30910853
-0.30892882
-0.3087242
-0.30847815
-0.30818449
-0.30783746
-0.3074302
-0.30696558
-0.30643889
-0.30583933
-0.30513803
-0.30425469
-0.30303413
-0.30118545
-0.29839612
-0.29434941
-0.28875058
-0.28187909
-0.27451466
-0.26502769
-0.25454276
-0.2442576
-0.2332372
-0.22193764
-0.2103154
-0.19854275
-0.18670105
-0.17495856
-0.16329902
-0.15198406
-0.14072793
-0.13004902
-0.11898136
-0.1089068
-0.097328395
-0.088022099
-0.075093624
-0.067968402
-0.052874551
-0.31163626
-0.31164086
-0.31164619
-0.31165169
-0.31165747
-0.31166355
-0.31166987
-0.31167632
-0.31168279
-0.3116891
-0.31169501
-0.31170021
-0.31170428
-0.31170669
-0.31170677
-0.31170364
-0.31169624
-0.31168322
-0.31166297
-0.31163346
-0.31159207
-0.3115362
-0.31146779
-0.31137834
-0.31125304
-0.31109387
-0.3109045
-0.3106794
-0.31040778
-0.31008491
-0.30970622
-0.30927057
-0.30877666
-0.30821779
-0.3075851
-0.30684888
-0.30593453
-0.3046845
-0.30286072
-0.30011681
-0.29628461
-0.29098218
-0.28439364
-0.27737843
-0.26844059
-0.25827597
-0.24828327
-0.23765356
-0.22662937
-0.21531252
-0.20374873
-0.19209006
-0.18039721
-0.16883361
-0.15737095
-0.14626379
-0.13521983
-0.12476892
-0.11396977
-0.10421064
-0.093080244
-0.084261517
-0.07204622
-0.065467037
-0.051280774
-0.31441953
-0.31442275
-0.31442639
-0.31442999
-0.31443361
-0.31443718
-0.31444059
-0.31444366
-0.31444619
-0.3144479
-0.31444843
-0.3144473
-0.31444395
-0.31443761
-0.31442735
-0.31441203
-0.3143902
-0.31436013
-0.31431971
-0.31426639
-0.31419725
-0.31410903
-0.31399778
-0.31385465
-0.31367832
-0.31346865
-0.31321574
-0.31291368
-0.31255718
-0.31214344
-0.3116714
-0.31113708
-0.31053578
-0.30985812
-0.30907314
-0.3081062
-0.30681159
-0.30495864
-0.30227295
-0.29849822
-0.29360182
-0.28714326
-0.28037575
-0.27183398
-0.26196254
-0.25212211
-0.24179568
-0.23102694
-0.21990645
-0.20854815
-0.19701805
-0.18544478
-0.17388562
-0.16249551
-0.151234
-0.1403505
-0.12954637
-0.1193578
-0.10886439
-0.099450616
-0.088780313
-0.080440745
-0.068900441
-0.062833173
-0.049479873
-0.31802187
-0.31802296
-0.318024
-0.31802474
-0.31802509
-0.3180249
-0.31802396
-0.31802202
-0.31801875
-0.31801373
-0.31800644
-0.31799621
-0.31798223
-0.31796348
-0.31793871
-0.31790638
-0.31786465
-0.31781127
-0.31774358
-0.31765845
-0.31755224
-0.31742077
-0.31725937
-0.31706282
-0.31682594
-0.31654271
-0.31620741
-0.31581592
-0.31536544
-0.3148519
-0.31427185
-0.31362135
-0.31288757
-0.31203702
-0.31099471
-0.30962069
-0.307701
-0.30497575
-0.30121531
-0.29629705
-0.29009054
-0.283315
-0.27521736
-0.26560922
-0.25590787
-0.24581985
-0.23524003
-0.22427634
-0.21302915
-0.20160737
-0.19008392
-0.17858081
-0.16714631
-0.1559286
-0.14487593
-0.13423265
-0.12369405
-0.11379846
-0.10364249
-0.0945995
-0.084399847
-0.076534413
-0.065638474
-0.060060652
-0.047476776
-0.32272039
-0.32271808
-0.32271501
-0.32271124
-0.32270648
-0.32270046
-0.32269288
-0.32268336
-0.3226714
-0.32265641
-0.32263767
-0.32261427
-0.32258511
-0.32254885
-0.32250388
-0.32244822
-0.32237954
-0.32229507
-0.32219155
-0.32206521
-0.32191175
-0.32172635
-0.32150367
-0.32123792
-0.3209235
-0.3205554
-0.32012894
-0.31963926
-0.31908227
-0.31845452
-0.31774919
-0.31695034
-0.31602091
-0.31488466
-0.31340716
-0.31138934
-0.3085922
-0.304804
-0.29989815
-0.29378822
-0.28683009
-0.27908026
-0.26953299
-0.25997269
-0.25001106
-0.2394955
-0.22858231
-0.21737366
-0.20596121
-0.19444954
-0.18291407
-0.17146934
-0.16015547
-0.14911375
-0.13828079
-0.12789592
-0.11764762
-0.10807306
-0.098282491
-0.089632419
-0.079913162
-0.072519737
-0.062244495
-0.057144602
-0.045275103
-0.32881244
-0.32880496
-0.32879568
-0.32878514
-0.32877277
-0.32875815
-0.32874083
-0.32872027
-0.3286958
-0.3286666
-0.32863171
-0.32858994
-0.32853986
-0.32847977
-0.32840762
-0.328321
-0.32821706
-0.32809246
-0.32794339
-0.32776544
-0.3275537
-0.3273029
-0.32700761
-0.32666229
-0.32626121
-0.32579872
-0.32526981
-0.32466978
-0.32399271
-0.32322852
-0.32235663
-0.32133499
-0.32008457
-0.31847411
-0.31631729
-0.3133931
-0.30950688
-0.30454006
-0.29841587
-0.29139037
-0.28365326
-0.27441213
-0.26462528
-0.25469361
-0.24401864
-0.23301873
-0.22173479
-0.2102442
-0.19863972
-0.18702156
-0.17546327
-0.16407363
-0.15288332
-0.14202664
-0.13142845
-0.12132244
-0.11138956
-0.10216297
-0.092763762
-0.084526994
-0.075298447
-0.068377
-0.058705878
-0.054078279
-0.042878078
-0.33666189
-0.3366471
-0.33662906
-0.336609
-0.33658603
-0.33655947
-0.33652873
-0.33649307
-0.3364516
-0.33640326
-0.3363468
-0.3362807
-0.33620312
-0.33611201
-0.3360049
-0.33587891
-0.33573066
-0.33555634
-0.33535167
-0.33511187
-0.33483177
-0.33450574
-0.33412784
-0.33369213
-0.33319275
-0.3326237
-0.33197831
-0.33124766
-0.33041716
-0.32946031
-0.32832868
-0.32693893
-0.32516094
-0.32281725
-0.31970255
-0.3156325
-0.31050131
-0.30422697
-0.29699677
-0.28912056
-0.27984255
-0.26995164
-0.25974811
-0.24893601
-0.23775305
-0.22628417
-0.21460354
-0.20281143
-0.19099868
-0.17926574
-0.1676828
-0.15635248
-0.14529561
-0.13463902
-0.12429534
-0.11449176
-0.10490087
-0.096049247
-0.087066824
-0.079262934
-0.070536788
-0.06408832
-0.055011815
-0.050850074
-0.04030007
-0.34658024
-0.34655567
-0.34652596
-0.34649331
-0.34645635
-0.34641414
-0.34636592
-0.34631072
-0.34624743
-0.3461747
-0.34609104
-0.3459947
-0.3458834
-0.34575458
-0.34560544
-0.34543267
-0.34523245
-0.34500057
-0.34473239
-0.34442274
-0.34406602
-0.34365628
-0.34318722
-0.34265214
-0.34204354
-0.34135225
-0.34056544
-0.339663
-0.33861131
-0.33735428
-0.33580234
-0.33382415
-0.33124666
-0.32787671
-0.32353732
-0.31812924
-0.31158763
-0.30401685
-0.29583271
-0.28637524
-0.2761701
-0.26562697
-0.25450442
-0.24301572
-0.23121619
-0.21921327
-0.20710606
-0.19499271
-0.18296396
-0.17111752
-0.15951759
-0.1482599
-0.13735448
-0.12691979
-0.11685574
-0.10738186
-0.098161812
-0.089713108
-0.081173448
-0.073822155
-0.065612652
-0.05964047
-0.051157068
-0.047474401
-0.037517012
-0.35888785
-0.35885105
-0.35880678
-0.35875845
-0.35870413
-0.35864262
-0.358573
-0.35849374
-0.35840309
-0.35830378
-0.35820305
-0.35808241
-0.35791829
-0.35773071
-0.35753229
-0.35730838
-0.35705101
-0.35675575
-0.35641798
-0.35603234
-0.35559249
-0.35509144
-0.35452121
-0.35387207
-0.35313137
-0.35228107
-0.35129392
-0.35012745
-0.34871595
-0.34696184
-0.34472963
-0.34185021
-0.33813583
-0.33342644
-0.32761304
-0.32066729
-0.31264175
-0.30399911
-0.29417523
-0.2834727
-0.27242472
-0.26086088
-0.2489065
-0.23665353
-0.22420038
-0.21165396
-0.19911311
-0.18668025
-0.17444444
-0.16249967
-0.15090313
-0.13974254
-0.12901637