/*--------------------------------*- C++ -*----------------------------------*\
  =========                 |
  \\      /  F ield         | OpenFOAM: The Open Source CFD Toolbox
   \\    /   O peration     | Website:  https://openfoam.org
    \\  /    A nd           | Version:  13
     \\/     M anipulation  |
\*---------------------------------------------------------------------------*/
FoamFile
{
    format      ascii;
    class       volScalarField;
    location    "40.801914";
    object      pPrime2Mean;
}
// * * * * * * * * * * * * * * * * * * * * * * * * * * * * * * * * * * * * * //

dimensions      [0 4 -4 0 0 0 0];

internalField   nonuniform List<scalar> 
17140
(
7633.0097
7633.0099
7633.0098
7633.0095
7633.009
7633.0079
7633.0066
7633.0049
7633.0024
7632.999
7632.9948
7632.9896
7632.9827
7632.9742
7632.9634
7632.9498
7632.9329
7632.9115
7632.8849
7632.8517
7632.8096
7632.7572
7632.6913
7632.6082
7632.5035
7632.3719
7632.2055
7631.9957
7631.7312
7631.398
7630.9787
7630.4523
7629.7933
7628.9705
7627.9468
7626.6777
7625.1105
7623.1837
7620.8253
7617.9534
7614.4734
7610.279
7605.2502
7599.2526
7592.1367
7583.7365
7573.8698
7562.3372
7548.9203
7533.3822
7515.4645
7494.8878
7471.3501
7444.5256
7414.0631
7379.5843
7340.6787
7296.9055
7247.7813
7192.7943
7131.37
7062.917
6986.7466
6902.1921
6808.4456
7633.196
7633.196
7633.1959
7633.1956
7633.195
7633.194
7633.1927
7633.1907
7633.1882
7633.1851
7633.1807
7633.1755
7633.1686
7633.1601
7633.1493
7633.1356
7633.1186
7633.0973
7633.0707
7633.0373
7632.9955
7632.9428
7632.8769
7632.7941
7632.6897
7632.5584
7632.3926
7632.1834
7631.9195
7631.5869
7631.1686
7630.6434
7629.9853
7629.1637
7628.141
7626.8728
7625.3067
7623.3807
7621.0236
7618.153
7614.6746
7610.4821
7605.4559
7599.461
7592.3484
7583.9525
7574.0906
7562.5635
7549.1532
7533.6223
7515.7131
7495.1461
7471.6192
7444.8072
7414.3589
7379.8964
7341.0091
7297.2567
7248.1557
7193.1946
7131.7982
7063.3759
6987.2392
6902.7244
6809.0177
7633.6563
7633.6563
7633.6562
7633.656
7633.6552
7633.6544
7633.6529
7633.651
7633.6485
7633.6454
7633.641
7633.6358
7633.629
7633.6205
7633.6098
7633.5963
7633.5794
7633.5581
7633.5316
7633.4984
7633.4569
7633.4048
7633.3392
7633.257
7633.1533
7633.0226
7632.8578
7632.6497
7632.3871
7632.0563
7631.6397
7631.1164
7630.4605
7629.641
7628.6204
7627.3543
7625.7902
7623.8664
7621.512
7618.6442
7615.1699
7610.9822
7605.9616
7599.9738
7592.8698
7584.4838
7574.6341
7563.1209
7549.7264
7534.2133
7516.3245
7495.7811
7472.2814
7445.5002
7415.0871
7380.6641
7341.8218
7298.1198
7249.0755
7194.1769
7132.8493
7064.5023
6988.4496
6904.0311
6810.4212
7634.4059
7634.4059
7634.4059
7634.4056
7634.4049
7634.4039
7634.4027
7634.4007
7634.3983
7634.3952
7634.3909
7634.3857
7634.3789
7634.3705
7634.3599
7634.3467
7634.3298
7634.3091
7634.2829
7634.25
7634.2091
7634.1575
7634.0926
7634.0111
7633.9086
7633.7791
7633.6158
7633.4095
7633.149
7632.8203
7632.4064
7631.8858
7631.2328
7630.4162
7629.3986
7628.1358
7626.5749
7624.6546
7622.3042
7619.4419
7615.9736
7611.7937
7606.7823
7600.8062
7593.7158
7585.3464
7575.5161
7564.0252
7550.6566
7535.1727
7517.3172
7496.812
7473.3562
7446.6254
7416.2696
7381.9113
7343.1416
7299.5216
7250.5687
7195.7713
7134.555
7066.3308
6990.4155
6906.1539
6812.7002
7635.4605
7635.4605
7635.4603
7635.4601
7635.4594
7635.4584
7635.457
7635.4554
7635.4528
7635.4497
7635.4455
7635.4404
7635.4336
7635.4253
7635.4149
7635.4018
7635.3853
7635.3647
7635.339
7635.3067
7635.2661
7635.2152
7635.1513
7635.071
7634.9695
7634.8417
7634.68
7634.4758
7634.218
7633.8922
7633.4815
7632.9643
7632.3151
7631.5023
7630.4888
7629.2299
7627.6736
7625.7586
7623.4144
7620.5593
7617.1
7612.9311
7607.9334
7601.9732
7594.9021
7586.5557
7576.7524
7565.2931
7551.96
7536.5173
7518.709
7498.2578
7474.8638
7448.2039
7417.928
7383.6604
7344.9928
7301.4873
7252.6624
7198.0066
7136.9465
7068.8955
6993.1744
6909.1335
6815.9006
7636.8326
7636.8327
7636.8325
7636.8321
7636.8315
7636.8306
7636.8292
7636.8274
7636.8251
7636.8219
7636.8177
7636.8127
7636.8062
7636.798
7636.7877
7636.7747
7636.7585
7636.7382
7636.7129
7636.6812
7636.6412
7636.5911
7636.5283
7636.4489
7636.3491
7636.2231
7636.0637
7635.8623
7635.6073
7635.2851
7634.8783
7634.3653
7633.7207
7632.9127
7631.9041
7630.6506
7629.1004
7627.1924
7624.8563
7622.0113
7618.5641
7614.4097
7609.4291
7603.49
7596.4442
7588.128
7578.3595
7566.9406
7553.654
7538.2649
7520.5179
7500.1372
7476.8243
7450.2561
7420.0848
7385.9352
7347.4004
7304.0437
7255.3849
7200.9126
7140.0562
7072.2316
6996.7649
6913.0128
6820.069
7638.5368
7638.5367
7638.5366
7638.5362
7638.5356
7638.5346
7638.5333
7638.5315
7638.529
7638.5259
7638.5218
7638.5169
7638.5103
7638.5024
7638.4922
7638.4795
7638.4636
7638.4437
7638.4187
7638.3874
7638.3483
7638.2993
7638.2374
7638.1598
7638.0616
7637.9377
7637.7809
7637.5825
7637.3313
7637.0131
7636.6107
7636.1028
7635.4633
7634.661
7633.6586
7632.412
7630.8693
7628.9704
7626.6449
7623.8124
7620.3805
7616.2439
7611.2854
7605.3726
7598.358
7590.0787
7580.3537
7568.9847
7555.7562
7540.4333
7522.763
7502.4703
7479.2579
7452.8043
7422.7625
7388.7594
7350.3895
7307.2173
7258.7642
7204.52
7143.9169
7076.3749
7001.2267
6917.8348
6825.2534
7640.588
7640.5879
7640.5876
7640.5873
7640.5865
7640.5858
7640.5843
7640.5824
7640.58
7640.577
7640.573
7640.5681
7640.5619
7640.5538
7640.5439
7640.5316
7640.5159
7640.4965
7640.4721
7640.4416
7640.4033
7640.3552
7640.2949
7640.2186
7640.1227
7640.0012
7639.8474
7639.6522
7639.4051
7639.0915
7638.6942
7638.1919
7637.5583
7636.7627
7635.7673
7634.5289
7632.9957
7631.1076
7628.7949
7625.9777
7622.5641
7618.4497
7613.5175
7607.6363
7600.6595
7592.4244
7582.7514
7571.4428
7558.2838
7543.0415
7525.4636
7505.2771
7482.1858
7455.8702
7425.9846
7392.1577
7353.9861
7311.0358
7262.8296
7208.8601
7148.5634
7081.3634
7006.6003
6923.6435
6831.5023
7643.0043
7643.0043
7643.0041
7643.0038
7643.0031
7643.002
7643.0006
7642.999
7642.9964
7642.9935
7642.9896
7642.9848
7642.9784
7642.9707
7642.9612
7642.9489
7642.9337
7642.9147
7642.8909
7642.861
7642.8238
7642.777
7642.7179
7642.6437
7642.5499
7642.431
7642.2803
7642.0888
7641.8458
7641.5369
7641.1449
7640.6486
7640.0215
7639.233
7638.2461
7637.0169
7635.4946
7633.6193
7631.322
7628.5228
7625.1305
7621.0421
7616.1411
7610.2969
7603.3644
7595.1816
7585.5694
7574.3318
7561.2551
7546.1077
7528.6392
7508.5781
7485.6298
7459.4765
7429.7748
7396.1553
7358.2167
7315.5271
7267.6115
7213.9653
7154.0301
7087.235
7012.9266
6930.484
6838.8651
7645.8052
7645.8052
7645.805
7645.8046
7645.804
7645.8029
7645.8016
7645.7998
7645.7973
7645.7945
7645.7907
7645.7857
7645.7797
7645.7723
7645.7626
7645.751
7645.7361
7645.7177
7645.6945
7645.6656
7645.6292
7645.5836
7645.5261
7645.4536
7645.3618
7645.2456
7645.0978
7644.9103
7644.6712
7644.367
7643.9802
7643.4898
7642.8696
7642.0887
7641.1107
7639.8921
7638.382
7636.5212
7634.2413
7631.4629
7628.0955
7624.0371
7619.172
7613.3709
7606.4895
7598.3667
7588.8248
7577.6692
7564.6878
7549.6507
7532.3091
7512.3931
7489.6107
7463.6456
7434.1566
7400.7771
7363.1081
7320.7196
7273.1398
7219.8688
7160.354
7094.0295
7020.2497
6938.404
6847.3929
7649.0107
7649.0105
7649.0103
7649.01
7649.0092
7649.0081
7649.0069
7649.0052
7649.0028
7648.9997
7648.996
7648.9914
7648.9855
7648.9782
7648.9688
7648.9573
7648.943
7648.9248
7648.9024
7648.8741
7648.8387
7648.7944
7648.7383
7648.6674
7648.5777
7648.4638
7648.3189
7648.1342
7647.899
7647.5989
7647.2172
7646.7325
7646.1191
7645.3462
7644.3777
7643.1703
7641.6738
7639.8295
7637.5688
7634.8139
7631.4747
7627.4502
7622.6261
7616.8741
7610.0507
7601.9961
7592.5343
7581.4723
7568.6
7553.6891
7536.4927
7516.7433
7494.1503
7468.4002
7439.1546
7406.049
7368.6874
7326.6428
7279.4473
7226.6062
7167.5739
7101.789
7028.6136
6947.4492
6857.1361
7652.639
7652.6389
7652.6388
7652.6382
7652.6374
7652.6365
7652.6352
7652.6334
7652.6311
7652.6283
7652.6244
7652.6199
7652.6143
7652.6068
7652.5978
7652.5865
7652.5726
7652.555
7652.5329
7652.5053
7652.4707
7652.4272
7652.3721
7652.3029
7652.2147
7652.1027
7651.9602
7651.7782
7651.546
7651.2497
7650.8723
7650.393
7649.7862
7649.0216
7648.063
7646.8679
7645.3862
7643.5595
7641.3204
7638.5914
7635.284
7631.2981
7626.5202
7620.8231
7614.0645
7606.0869
7596.7154
7585.7591
7573.0099
7558.2419
7541.2102
7521.6493
7499.2708
7473.7642
7444.7937
7411.9976
7374.9834
7333.3274
7286.5671
7234.2135
7175.7276
7110.5528
7038.0616
6957.6682
6868.146
7656.7059
7656.7058
7656.7057
7656.7052
7656.7044
7656.7035
7656.7021
7656.7003
7656.698
7656.6953
7656.6917
7656.687
7656.6814
7656.6743
7656.6654
7656.6544
7656.6405
7656.6233
7656.6017
7656.5747
7656.5406
7656.4978
7656.4438
7656.3753
7656.2885
7656.178
7656.037
7655.8574
7655.6277
7655.3347
7654.9615
7654.4874
7653.8872
7653.1309
7652.1828
7651.0006
7649.5346
7647.7272
7645.5118
7642.8119
7639.5398
7635.5966
7630.8699
7625.2343
7618.5485
7610.6564
7601.3857
7590.5478
7577.9369
7563.3292
7546.4826
7527.1329
7504.9955
7479.7615
7451.099
7418.6498
7382.0246
7340.8046
7294.5326
7242.7261
7184.8538
7120.3646
7048.6387
6969.1092
6880.4739
7661.2253
7661.2252
7661.2249
7661.2244
7661.2237
7661.2228
7661.2214
7661.2196
7661.2174
7661.2147
7661.2112
7661.2065
7661.201
7661.1941
7661.1852
7661.1743
7661.1607
7661.1438
7661.1225
7661.0958
7661.0622
7661.02
7660.9665
7660.8988
7660.8129
7660.7036
7660.5641
7660.3861
7660.1585
7659.8687
7659.4992
7659.0305
7658.437
7657.6894
7656.7522
7655.5837
7654.1349
7652.3485
7650.1591
7647.4912
7644.2582
7640.3623
7635.6927
7630.1249
7623.5195
7615.7227
7606.5642
7595.8581
7583.4013
7568.9724
7552.3312
7533.2171
7511.3472
7486.4168
7458.0969
7426.0334
7389.8411
7349.106
7303.3786
7252.1824
7194.9932
7131.2645
7060.39
6981.8209
6894.1704
7666.2098
7666.2097
7666.2094
7666.2089
7666.2082
7666.2072
7666.2059
7666.2041
7666.2019
7666.1992
7666.1957
7666.1913
7666.1858
7666.1787
7666.1701
7666.1595
7666.1459
7666.1293
7666.1083
7666.0819
7666.0486
7666.0067
7665.9538
7665.8867
7665.8014
7665.6931
7665.5547
7665.3783
7665.1529
7664.8659
7664.5006
7664.037
7663.4508
7662.7126
7661.7872
7660.6333
7659.2027
7657.4395
7655.2785
7652.6456
7649.4556
7645.6119
7641.0051
7635.5121
7628.9958
7621.3042
7612.2701
7601.71
7589.4235
7575.1922
7558.7786
7539.9246
7518.3505
7493.7555
7465.8143
7434.1767
7398.4627
7358.2648
7313.1401
7262.6194
7206.1845
7143.2964
7073.3603
6995.8507
6909.286
7671.6734
7671.6733
7671.673
7671.6725
7671.6718
7671.6708
7671.6697
7671.6679
7671.6657
7671.663
7671.6595
7671.6551
7671.6496
7671.643
7671.6344
7671.6238
7671.6105
7671.5938
7671.5729
7671.5468
7671.5138
7671.4723
7671.4197
7671.3533
7671.2687
7671.1611
7671.0238
7670.8489
7670.626
7670.342
7669.9809
7669.523
7668.9445
7668.2161
7667.3032
7666.1655
7664.7549
7663.0163
7660.8864
7658.2919
7655.1489
7651.3626
7646.8248
7641.4141
7634.9958
7627.4203
7618.5232
7608.1238
7596.0249
7582.0112
7565.8475
7547.279
7526.0302
7501.8037
7474.2781
7443.1082
7407.9208
7368.3143
7323.853
7274.0742
7218.4682
7156.5013
7087.5939
7011.2463
6925.8707
7677.6333
7677.6332
7677.6329
7677.6326
7677.6318
7677.6309
7677.6295
7677.6279
7677.6257
7677.623
7677.6197
7677.6152
7677.6097
7677.6031
7677.5947
7677.5841
7677.5708
7677.5544
7677.5335
7677.5076
7677.4747
7677.4335
7677.3811
7677.3151
7677.231
7677.1242
7676.988
7676.8148
7676.594
7676.3133
7675.9569
7675.5051
7674.9346
7674.2166
7673.3173
7672.1961
7670.8071
7669.0959
7666.9997
7664.4472
7661.3559
7657.6319
7653.1695
7647.8493
7641.5384
7634.0905
7625.3436
7615.1206
7603.2272
7589.451
7573.5605
7555.3044
7534.4111
7510.5868
7483.5154
7452.8575
7418.2471
7379.288
7335.5523
7286.5845
7231.8826
7170.921
7103.1345
7028.0541
6943.9736
7684.108
7684.1079
7684.1075
7684.1072
7684.1064
7684.1055
7684.1043
7684.1027
7684.1004
7684.0977
7684.0943
7684.0901
7684.0845
7684.0778
7684.0694
7684.0588
7684.0457
7684.029
7684.0083
7683.9822
7683.9496
7683.9082
7683.8562
7683.7903
7683.7065
7683.6003
7683.4654
7683.2935
7683.0752
7682.7978
7682.4458
7682.0005
7681.4382
7680.7311
7679.8458
7678.7432
7677.3775
7675.6953
7673.6362
7671.1291
7668.0938
7664.438
7660.0577
7654.836
7648.6426
7641.3339
7632.7513
7622.7205
7611.0509
7597.5334
7581.9406
7564.0245
7543.5176
7520.1308
7493.5543
7463.455
7429.4717
7391.2186
7348.2732
7300.1864
7246.4668
7186.5956
7120.0256
7046.3204
6963.6429
7691.1162
7691.116
7691.1159
7691.1153
7691.1147
7691.1137
7691.1125
7691.1108
7691.1087
7691.106
7691.1026
7691.0981
7691.0927
7691.086
7691.0772
7691.0665
7691.0532
7691.0367
7691.0157
7690.9894
7690.9566
7690.9152
7690.863
7690.797
7690.7134
7690.6078
7690.4736
7690.3034
7690.0873
7689.8131
7689.4658
7689.0266
7688.4729
7687.7774
7686.9073
7685.8241
7684.4833
7682.8329
7680.8134
7678.3558
7675.3809
7671.7989
7667.5078
7662.3932
7656.3276
7649.1705
7640.7664
7630.9445
7619.5176
7606.281
7591.0103
7573.4627
7553.3743
7530.4621
7504.4226
7474.9283
7441.6273
7404.1396
7362.0489
7314.9164
7262.2576
7203.5654
7138.3094
7066.0898
6984.9258
7698.6729
7698.6728
7698.6726
7698.6722
7698.6714
7698.6706
7698.6693
7698.6676
7698.6655
7698.6627
7698.6592
7698.6547
7698.6492
7698.6422
7698.6337
7698.6227
7698.6092
7698.5922
7698.5712
7698.5446
7698.5115
7698.4699
7698.4175
7698.3513
7698.2681
7698.1627
7698.0293
7697.8605
7697.6466
7697.3759
7697.0333
7696.6009
7696.0563
7695.3726
7694.5184
7693.4562
7692.1421
7690.526
7688.5494
7686.1448
7683.2355
7679.733
7675.5382
7670.5395
7664.6125
7657.6193
7649.4085
7639.8124
7628.6482
7615.7148
7600.7923
7583.6419
7564.0056
7541.6064
7516.1466
7487.3074
7454.7443
7418.082
7376.9145
7330.8084
7279.2925
7221.8692
7158.0275
7087.4067
7007.8686
7706.7892
7706.7893
7706.7891
7706.7887
7706.7881
7706.787
7706.7857
7706.784
7706.7818
7706.779
7706.7755
7706.7711
7706.7654
7706.7583
7706.7497
7706.7386
7706.7249
7706.7078
7706.6865
7706.6598
7706.6264
7706.5845
7706.532
7706.4661
7706.3831
7706.2785
7706.1462
7705.9791
7705.7681
7705.5012
7705.1639
7704.7388
7704.2041
7703.5335
7702.6968
7701.6568
7700.3718
7698.7926
7696.862
7694.5146
7691.6753
7688.2585
7684.1677
7679.2938
7673.5162
7666.6999
7658.6973
7649.3447
7638.4631
7625.8558
7611.3076
7594.5844
7575.4349
7553.5877
7528.7535
7500.6216
7468.8513
7433.0776
7392.9002
7347.8973
7297.6071
7241.5454
7179.2203
7110.3139
7032.515
7715.4718
7715.4718
7715.4716
7715.4712
7715.4706
7715.4697
7715.4684
7715.4666
7715.4644
7715.4618
7715.4583
7715.4536
7715.4481
7715.4412
7715.4323
7715.4214
7715.4076
7715.3907
7715.3693
7715.3427
7715.3097
7715.2681
7715.216
7715.1507
7715.0687
7714.9652
7714.835
7714.6706
7714.4631
7714.201
7713.8705
7713.4541
7712.9306
7712.2752
7711.4574
7710.4426
7709.1891
7707.6497
7705.7686
7703.4826
7700.7186
7697.3937
7693.4142
7688.6748
7683.0572
7676.4313
7668.6523
7659.5609
7648.9824
7636.7242
7622.5764
7606.312
7587.6841
7566.4306
7542.2702
7514.8971
7483.9776
7449.1554
7410.0386
7366.2159
7317.2375
7262.6314
7201.9271
7134.8528
7058.9074
7724.7255
7724.7255
7724.7253
7724.7251
7724.7244
7724.7235
7724.7222
7724.7206
7724.7184
7724.7158
7724.7124
7724.7082
7724.7026
7724.6959
7724.6874
7724.6767
7724.6633
7724.6467
7724.6259
7724.6002
7724.5677
7724.5272
7724.4765
7724.4127
7724.3327
7724.2318
7724.1047
7723.9442
7723.7417
7723.4863
7723.1639
7722.7578
7722.2481
7721.61
7720.8143
7719.8273
7718.6089
7717.1128
7715.2854
7713.0652
7710.3822
7707.1559
7703.296
7698.7002
7693.2546
7686.8318
7679.2919
7670.4795
7660.2243
7648.3383
7634.619
7618.844
7600.7758
7580.1601
7556.7215
7530.1592
7500.1507
7466.3441
7428.3601
7385.797
7338.218
7285.1633
7226.1855
7161.0632
7087.085
7734.5578
7734.5578
7734.5575
7734.5571
7734.5566
7734.5557
7734.5546
7734.5531
7734.5513
7734.5486
7734.5454
7734.5414
7734.5365
7734.5299
7734.5219
7734.512
7734.4994
7734.4837
7734.4642
7734.4395
7734.4088
7734.3702
7734.3215
7734.2605
7734.1835
7734.0864
7733.964
7733.8091
7733.6131
7733.3659
7733.0539
7732.6607
7732.1672
7731.5492
7730.7789
7729.8232
7728.6437
7727.1953
7725.4264
7723.2778
7720.6817
7717.5614
7713.8294
7709.3872
7704.1246
7697.9187
7690.6331
7682.1171
7672.2041
7660.7154
7647.4521
7632.2006
7614.7319
7594.7986
7572.1293
7546.4342
7517.3952
7484.6716
7447.8941
7406.6726
7360.5824
7309.1764
7252.0319
7188.9835
7117.0859
7744.9802
7744.9802
7744.9802
7744.9797
7744.9793
7744.9786
7744.9777
7744.9763
7744.9745
7744.9722
7744.9695
7744.9657
7744.9611
7744.9553
7744.9481
7744.9388
7744.9273
7744.9129
7744.8949
7744.8722
7744.8437
7744.8075
7744.7622
7744.7045
7744.6318
7744.5398
7744.4229
7744.2749
7744.0873
7743.8499
7743.5502
7743.172
7742.6969
7742.1019
7741.3603
7740.4399
7739.3034
7737.9078
7736.2032
7734.1323
7731.6303
7728.6234
7725.0281
7720.7497
7715.6821
7709.7056
7702.6888
7694.4855
7684.9378
7673.8707
7661.0934
7646.4021
7629.5733
7610.3651
7588.5164
7563.7429
7535.7358
7504.1642
7468.6692
7428.8727
7384.3625
7334.7042
7279.5007
7218.6506
7148.9458
7756.0103
7756.0103
7756.0101
7756.0098
7756.0096
7756.0089
7756.0079
7756.0068
7756.0054
7756.0033
7756.0008
7755.9976
7755.9935
7755.9883
7755.982
7755.9736
7755.9634
7755.9503
7755.9339
7755.9134
7755.8871
7755.854
7755.8118
7755.7583
7755.6901
7755.6035
7755.4932
7755.3528
7755.1744
7754.9483
7754.662
7754.3006
7753.8464
7753.2772
7752.5671
7751.6856
7750.5967
7749.2586
7747.6235
7745.6369
7743.2363
7740.3516
7736.9026
7732.7983
7727.9362
7722.2022
7715.4695
7707.5992
7698.4384
7687.8194
7675.5617
7661.4653
7645.3161
7626.8793
7605.9017
7582.1071
7555.1961
7524.8474
7490.7131
7452.4269
7409.5899
7361.7795
7308.625
7250.1001
7182.6991
7767.6658
7767.6658
7767.6657
7767.6655
7767.6652
7767.6647
7767.664
7767.6628
7767.6617
7767.6598
7767.6578
7767.6548
7767.6511
7767.6466
7767.6407
7767.6334
7767.6241
7767.6124
7767.5973
7767.5784
7767.5545
7767.5237
7767.4849
7767.4351
7767.3713
7767.2901
7767.1862
7767.0537
7766.8848
7766.6705
7766.3987
7766.0557
7765.6238
7765.0826
7764.4068
7763.5675
7762.5299
7761.2542
7759.6945
7757.7986
7755.507
7752.7525
7749.4587
7745.5385
7740.8942
7735.4168
7728.986
7721.4688
7712.7184
7702.5772
7690.8694
7677.4043
7661.9755
7644.3573
7624.3032
7601.5466
7575.798
7546.7453
7514.052
7477.3637
7436.2942
7390.4334
7339.4366
7283.3654
7218.3813
7779.9613
7779.9612
7779.9612
7779.961
7779.9607
7779.9603
7779.9596
7779.9586
7779.9575
7779.9559
7779.9538
7779.9511
7779.9479
7779.9436
7779.9382
7779.9314
7779.9228
7779.9118
7779.8978
7779.8802
7779.8577
7779.8292
7779.7926
7779.7458
7779.6859
7779.6094
7779.5113
7779.3864
7779.2272
7779.025
7778.7685
7778.4446
7778.0367
7777.5253
7776.8864
7776.0922
7775.1095
7773.9003
7772.4209
7770.6215
7768.4456
7765.8296
7762.7003
7758.9754
7754.5621
7749.3574
7743.2471
7736.1031
7727.7893
7718.1532
7707.0274
7694.2314
7679.5657
7662.8134
7643.7373
7622.08
7597.5615
7569.8809
7538.7112
7503.7103
7464.5049
7420.6963
7371.9666
7318.4779
7256.0292
7792.9024
7792.9024
7792.9024
7792.9022
7792.9019
7792.9015
7792.9008
7792.8999
7792.8988
7792.8972
7792.8952
7792.8927
7792.8893
7792.8853
7792.8801
7792.8733
7792.865
7792.8544
7792.8412
7792.8241
7792.8028
7792.7754
7792.7406
7792.6961
7792.6394
7792.5669
7792.4745
7792.3568
7792.2071
7792.0172
7791.7766
7791.4729
7791.0902
7790.6104
7790.0104
7789.2637
7788.3389
7787.2
7785.8053
7784.1081
7782.0549
7779.5851
7776.6304
7773.1129
7768.945
7764.0299
7758.2575
7751.5098
7743.6575
7734.5553
7724.0461
7711.9565
7698.097
7682.2604
7664.2183
7643.7234
7620.506
7594.2751
7564.7145
7531.4934
7494.2505
7452.5989
7406.2474
7355.47
7295.6825
7806.4864
7806.4864
7806.4862
7806.4862
7806.4857
7806.4853
7806.4846
7806.4838
7806.4824
7806.4809
7806.4789
7806.4764
7806.4731
7806.4691
7806.4639
7806.4572
7806.4489
7806.4386
7806.4256
7806.4091
7806.3882
7806.3618
7806.3284
7806.286
7806.232
7806.1637
7806.0767
7805.9662
7805.8264
7805.6493
7805.4253
7805.1427
7804.7869
7804.3401
7803.7808
7803.0841
7802.2199
7801.1545
7799.849
7798.2592
7796.3353
7794.0208
7791.251
7787.953
7784.0457
7779.4356
7774.0214
7767.6934
7760.3277
7751.7897
7741.9307
7730.5869
7717.5787
7702.7083
7685.7581
7666.491
7644.6474
7619.9475
7592.0851
7560.7391
7525.5606
7486.172
7442.3134
7394.3832
7337.3814
7820.7045
7820.7045
7820.7043
7820.7041
7820.7039
7820.7035
7820.7026
7820.7018
7820.7007
7820.6991
7820.6969
7820.6945
7820.6912
7820.6872
7820.682
7820.6756
7820.6676
7820.6573
7820.6446
7820.6287
7820.6086
7820.5834
7820.5516
7820.5116
7820.4609
7820.3967
7820.3158
7820.2134
7820.0841
7819.9206
7819.7143
7819.4541
7819.1264
7818.7141
7818.1975
7817.5527
7816.7519
7815.7634
7814.5512
7813.0743
7811.2867
7809.1358
7806.5615
7803.4966
7799.8631
7795.5751
7790.5402
7784.6541
7777.8016
7769.8583
7760.6846
7750.1272
7738.016
7724.1644
7708.3661
7690.3944
7670.0007
7646.9162
7620.8443
7591.4739
7558.4652
7521.4494
7480.203
7435.2659
7381.1734
7835.5474
7835.5474
7835.5474
7835.5472
7835.547
7835.5464
7835.5457
7835.5449
7835.5438
7835.5422
7835.5403
7835.5378
7835.5347
7835.5308
7835.5259
7835.5199
7835.5121
7835.5026
7835.4908
7835.4756
7835.4569
7835.4335
7835.4039
7835.3669
7835.3201
7835.2612
7835.1872
7835.094
7834.9762
7834.8279
7834.6406
7834.4042
7834.1059
7833.7298
7833.2575
7832.6667
7831.9319
7831.0235
7829.909
7828.5505
7826.9063
7824.9276
7822.5599
7819.7395
7816.3943
7812.4472
7807.811
7802.3892
7796.0777
7788.7602
7780.3083
7770.5784
7759.4117
7746.6332
7732.0479
7715.4415
7696.5769
7675.1959
7651.0126
7623.7238
7592.9979
7558.4693
7519.9454
7478.1256
7427.1713
7851.0065
7851.0065
7851.0063
7851.0061
7851.0059
7851.0055
7851.0048
7851.004
7851.0031
7851.0016
7850.9998
7850.9979
7850.995
7850.9915
7850.9871
7850.9818
7850.9749
7850.9663
7850.9557
7850.9424
7850.9257
7850.9046
7850.8784
7850.8453
7850.804
7850.7515
7850.6858
7850.6029
7850.4984
7850.3664
7850.1993
7849.9878
7849.72
7849.3817
7848.9551
7848.42
7847.7534
7846.9287
7845.9162
7844.6823
7843.1885
7841.3914
7839.2404
7836.676
7833.6349
7830.0452
7825.8269
7820.8937
7815.1504
7808.4911
7800.7977
7791.9378
7781.7644
7770.1141
7756.8057
7741.6376
7724.3845
7704.8002
7682.6087
7657.5156
7629.1958
7597.2727
7561.5573
7523.0723
7475.4071
7867.0761
7867.0761
7867.0759
7867.0757
7867.0755
7867.0753
7867.0747
7867.074
7867.0732
7867.0721
7867.0706
7867.0689
7867.0667
7867.0639
7867.0601
7867.0558
7867.0501
7867.043
7867.0342
7867.023
7867.0091
7866.9914
7866.9693
7866.9412
7866.9058
7866.8611
7866.8047
7866.7335
7866.6431
7866.5281
7866.3825
7866.1968
7865.9604
7865.66
7865.2803
7864.8029
7864.2069
7863.4694
7862.5639
7861.4604
7860.1248
7858.5179
7856.5924
7854.2972
7851.5741
7848.3581
7844.5785
7840.158
7835.0112
7829.0426
7822.1448
7814.1982
7805.0678
7794.6033
7782.6372
7768.9827
7753.428
7735.7388
7715.65
7692.8763
7667.0915
7637.8837
7605.1114
7570.1554
7525.933
7883.75
7883.7501
7883.7499
7883.7499
7883.7497
7883.7493
7883.7489
7883.7485
7883.7479
7883.747
7883.746
7883.7447
7883.743
7883.7411
7883.7385
7883.7351
7883.7309
7883.7257
7883.719
7883.7105
7883.6997
7883.6862
7883.6686
7883.6465
7883.6181
7883.5817
7883.5352
7883.4759
7883.4
7883.3029
7883.1782
7883.0182
7882.8132
7882.5517
7882.2196
7881.8015
7881.2794
7880.6331
7879.8396
7878.8725
7877.7024
7876.2929
7874.6036
7872.5891
7870.1976
7867.3726
7864.0519
7860.1684
7855.6465
7850.4015
7844.3378
7837.3481
7829.3111
7820.0909
7809.535
7797.4726
7783.7074
7768.0184
7750.1529
7729.8296
7706.716
7680.3986
7650.6571
7619.4255
7578.9067
7901.0233
7901.0231
7901.0231
7901.023
7901.023
7901.0228
7901.0224
7901.0223
7901.0219
7901.0213
7901.0207
7901.0199
7901.0189
7901.0177
7901.016
7901.0139
7901.0112
7901.0078
7901.0033
7900.9977
7900.9902
7900.9805
7900.9677
7900.9511
7900.9294
7900.9012
7900.8644
7900.8165
7900.7544
7900.6742
7900.5699
7900.4354
7900.2618
7900.0392
7899.7563
7899.3999
7898.9543
7898.403
7897.7263
7896.9018
7895.903
7894.6989
7893.2555
7891.5331
7889.4872
7887.0698
7884.2291
7880.907
7877.0387
7872.5504
7867.359
7861.3701
7854.4777
7846.5616
7837.486
7827.097
7815.217
7801.6402
7786.1244
7768.3931
7748.1356
7724.8731
7698.3024
7670.9727
7634.4916
7918.8834
7918.8835
7918.8835
7918.8833
7918.8834
7918.8832
7918.883
7918.8829
7918.8827
7918.8824
7918.8822
7918.8817
7918.8813
7918.8806
7918.8798
7918.8789
7918.8775
7918.8757
7918.873
7918.8697
7918.8652
7918.8587
7918.8503
7918.8384
7918.8226
7918.8014
7918.7732
7918.7358
7918.6865
7918.6218
7918.5373
7918.4275
7918.2852
7918.1024
7917.87
7917.5769
7917.211
7916.7583
7916.2027
7915.5253
7914.7037
7913.7132
7912.5247
7911.1052
7909.4187
7907.427
7905.0868
7902.3504
7899.1639
7895.4655
7891.1845
7886.2412
7880.5453
7873.9942
7866.4702
7857.8386
7847.9421
7836.5901
7823.5653
7808.6033
7791.3872
7771.4114
7748.2477
7724.9792
7692.8174
7937.3125
7937.3123
7937.3123
7937.3122
7937.3122
7937.3121
7937.3119
7937.312
7937.3118
7937.3117
7937.3116
7937.3114
7937.3111
7937.311
7937.3105
7937.3102
7937.3095
7937.3086
7937.3071
7937.3052
7937.3025
7937.2984
7937.2926
7937.2843
7937.2727
7937.2571
7937.2355
7937.2068
7937.1686
7937.1185
7937.0526
7936.9671
7936.8561
7936.7137
7936.5326
7936.3047
7936.0206
7935.6697
7935.2388
7934.7128
7934.0749
7933.3052
7932.3803
7931.2753
7929.9629
7928.4139
7926.5953
7924.4692
7921.9928
7919.1166
7915.7843
7911.9313
7907.4839
7902.3585
7896.4579
7889.6658
7881.8527
7872.8548
7862.4746
7850.4654
7836.5284
7820.1383
7800.7783
7781.7291
7753.882
7956.2763
7956.2763
7956.2762
7956.276
7956.276
7956.2759
7956.2757
7956.2756
7956.2754
7956.2753
7956.2751
7956.275
7956.2749
7956.2748
7956.2745
7956.2741
7956.2736
7956.273
7956.2722
7956.2708
7956.2688
7956.2659
7956.2614
7956.2554
7956.2466
7956.2349
7956.2189
7956.1977
7956.1697
7956.1329
7956.0854
7956.0239
7955.9447
7955.8433
7955.7146
7955.5536
7955.3537
7955.1069
7954.8035
7954.4339
7953.9848
7953.4422
7952.7903
7952.0113
7951.0875
7949.9988
7948.7218
7947.2293
7945.4901
7943.4681
7941.1209
7938.3999
7935.2521
7931.6136
7927.409
7922.5471
7916.9223
7910.4011
7902.8273
7893.9895
7883.6161
7871.1935
7856.2002
7841.2911
7818.0875
7975.7358
7975.7356
7975.7354
7975.7352
7975.7351
7975.7349
7975.7348
7975.7344
7975.7342
7975.7339
7975.7337
7975.7334
7975.7328
7975.7325
7975.732
7975.7315
7975.7308
7975.7299
7975.7287
7975.7272
7975.7251
7975.7223
7975.7185
7975.7135
7975.7063
7975.6972
7975.6854
7975.6705
7975.6515
7975.6277
7975.5979
7975.5608
7975.5142
7975.4543
7975.3792
7975.2862
7975.1716
7975.0305
7974.8584
7974.649
7974.3945
7974.0863
7973.716
7973.275
7972.7538
7972.1418
7971.4262
7970.5899
7969.6147
7968.4783
7967.1536
7965.6102
7963.8143
7961.7244
7959.2892
7956.4434
7953.1143
7949.2012
7944.5898
7939.1314
7932.6131
7924.6306
7914.7416
7904.6082
7887.156
7996.5189
7996.5187
7996.5185
7996.5183
7996.5179
7996.5177
7996.5173
7996.5169
7996.5163
7996.5157
7996.5151
7996.5145
7996.5137
7996.5127
7996.5118
7996.5106
7996.5091
7996.5074
7996.5053
7996.5029
7996.4999
7996.4962
7996.4918
7996.4866
7996.4803
7996.4728
7996.4644
7996.455
7996.4446
7996.4334
7996.4212
7996.4084
7996.3941
7996.3783
7996.3613
7996.342
7996.3204
7996.296
7996.2675
7996.2326
7996.1903
7996.1384
7996.077
7996.0056
7995.9239
7995.8312
7995.7253
7995.6013
7995.4542
7995.2769
7995.0609
7994.7957
7994.4688
7994.0633
7993.5545
7992.9092
7992.0858
7991.0305
7989.6748
7987.9395
7985.7087
7982.7558
7979.091
7975.7368
7969.3291
8018.3838
8018.3834
8018.3832
8018.3828
8018.3824
8018.382
8018.3816
8018.3809
8018.3803
8018.3795
8018.3786
8018.3776
8018.3765
8018.3751
8018.3734
8018.3716
8018.3694
8018.3669
8018.364
8018.3605
8018.3565
8018.3523
8018.3471
8018.342
8018.3363
8018.331
8018.3263
8018.3231
8018.3226
8018.3253
8018.3331
8018.347
8018.3691
8018.4009
8018.4451
8018.5049
8018.5846
8018.6856
8018.8098
8018.9616
8019.1455
8019.3677
8019.6358
8019.9591
8020.3465
8020.8077
8021.3512
8021.9858
8022.7209
8023.5665
8024.5339
8025.6342
8026.8775
8028.2726
8029.8249
8031.5363
8033.4027
8035.4188
8037.5716
8039.8572
8042.2678
8044.7731
8047.6135
8051.2755
8054.0367
8040.2057
8040.2055
8040.205
8040.2046
8040.2042
8040.2037
8040.2033
8040.2027
8040.2018
8040.2012
8040.2001
8040.199
8040.198
8040.1965
8040.1949
8040.1931
8040.191
8040.1885
8040.1858
8040.1828
8040.1796
8040.1758
8040.1722
8040.1687
8040.1661
8040.1648
8040.1661
8040.1709
8040.1814
8040.1996
8040.2278
8040.2689
8040.326
8040.4036
8040.5072
8040.643
8040.8172
8041.0369
8041.31
8041.6457
8042.0548
8042.5503
8043.1485
8043.8664
8044.7232
8045.7381
8046.9318
8048.3263
8049.9466
8051.8203
8053.9783
8056.4532
8059.279
8062.49
8066.1219
8070.2126
8074.7987
8079.9226
8085.6305
8091.9873
8099.0686
8106.9884
8116.0235
8126.4673
8138.1357
8061.8915
8061.8913
8061.8908
8061.8904
8061.8902
8061.8895
8061.8891
8061.8886
8061.888
8061.8873
8061.8865
8061.8856
8061.8846
8061.8836
8061.8824
8061.8811
8061.8794
8061.878
8061.876
8061.8744
8061.8724
8061.8708
8061.8695
8061.8691
8061.8703
8061.8741
8061.8821
8061.8959
8061.9176
8061.9505
8061.9984
8062.0652
8062.1569
8062.2802
8062.4422
8062.6517
8062.9198
8063.2575
8063.6774
8064.1944
8064.826
8065.5932
8066.5191
8067.6298
8068.9532
8070.5189
8072.3596
8074.5114
8077.0146
8079.9151
8083.263
8087.1128
8091.5219
8096.5513
8102.2667
8108.741
8116.0528
8124.2912
8133.5575
8143.9798
8155.7063
8168.9488
8184.0305
8201.3316
8221.3959
8083.3382
8083.3378
8083.3375
8083.3371
8083.3369
8083.3364
8083.3359
8083.3355
8083.3351
8083.3346
8083.3342
8083.3338
8083.3332
8083.3329
8083.3324
8083.332
8083.3316
8083.3313
8083.3312
8083.3315
8083.332
8083.3333
8083.3356
8083.3395
8083.3459
8083.3563
8083.3719
8083.3956
8083.4303
8083.4799
8083.549
8083.6439
8083.7719
8083.9408
8084.1609
8084.4448
8084.8063
8085.2607
8085.8259
8086.5231
8087.3758
8088.4119
8089.6631
8091.1628
8092.9481
8095.0593
8097.5412
8100.4443
8103.825
8107.7463
8112.2778
8117.4948
8123.4788
8130.3174
8138.1072
8146.955
8156.9796
8168.3151
8181.1152
8195.5679
8211.8929
8230.3839
8251.4362
8275.5544
8303.4855
8104.4634
8104.4629
8104.4627
8104.4624
8104.4622
8104.4617
8104.4615
8104.4615
8104.4612
8104.461
8104.4611
8104.4611
8104.4614
8104.4615
8104.4622
8104.4628
8104.4639
8104.4653
8104.4671
8104.4695
8104.473
8104.4776
8104.4839
8104.4928
8104.5052
8104.5228
8104.5475
8104.5827
8104.6317
8104.6998
8104.7925
8104.9169
8105.082
8105.2975
8105.577