/*--------------------------------*- C++ -*----------------------------------*\
  =========                 |
  \\      /  F ield         | OpenFOAM: The Open Source CFD Toolbox
   \\    /   O peration     | Website:  https://openfoam.org
    \\  /    A nd           | Version:  13
     \\/     M anipulation  |
\*---------------------------------------------------------------------------*/
FoamFile
{
    format      ascii;
    class       volScalarField;
    location    "40.801914";
    object      yPlus;
}
// * * * * * * * * * * * * * * * * * * * * * * * * * * * * * * * * * * * * * //

dimensions      [];

internalField   uniform 0;

boundaryField
{
    inlet
    {
        type            calculated;
        value           uniform 0;
    }
    outlet
    {
        type            calculated;
        value           uniform 0;
    }
    cylinder
    {
        type            calculated;
        value           nonuniform List<scalar> 
132
(
1.2204924e-07
1.2113261e-07
1.1977631e-07
1.1796035e-07
1.1568845e-07
1.1297469e-07
1.0983682e-07
1.0630889e-07
1.0242482e-07
9.8220633e-08
9.374206e-08
8.9041962e-08
8.4178748e-08
7.9215248e-08
7.4217166e-08
6.9251381e-08
6.4383911e-08
5.9676797e-08
5.5183638e-08
5.0943045e-08
4.6968158e-08
4.323727e-08
3.9682888e-08
3.6189741e-08
3.2609989e-08
2.8799417e-08
2.4674702e-08
2.027473e-08
1.5790464e-08
1.1533792e-08
7.8610632e-09
5.0909369e-09
3.4661683e-09
3.0633964e-09
3.4543021e-09
4.2112041e-09
5.2020794e-09
6.4258651e-09
7.9077306e-09
9.6820948e-09
1.1815312e-08
1.438864e-08
1.7179918e-08
2.0149536e-08
2.3222307e-08
2.6333044e-08
2.9419881e-08
3.2434273e-08
3.5343493e-08
3.8121765e-08
4.0752482e-08
4.3227759e-08
4.5536767e-08
4.7672531e-08
4.9665515e-08
5.1474753e-08
5.3122592e-08
5.460652e-08
5.5933118e-08
5.7095406e-08
5.8085811e-08
5.891716e-08
5.9589796e-08
6.0102249e-08
6.045743e-08
6.0650069e-08
1.2251042e-07
1.2252893e-07
1.2210098e-07
1.2118704e-07
1.1976699e-07
1.1782872e-07
1.1536776e-07
1.1238823e-07
1.0890395e-07
1.0493925e-07
1.0052985e-07
9.5723168e-08
9.0578232e-08
8.5165044e-08
7.9563588e-08
7.386242e-08
6.8156185e-08
6.2540959e-08
5.7109073e-08
5.1940327e-08
4.7089246e-08
4.2569818e-08
3.8339891e-08
3.4295419e-08
3.0287319e-08
2.6167667e-08
2.186034e-08
1.7430747e-08
1.3104003e-08
9.2070839e-09
6.0744228e-09
3.9838514e-09
3.104405e-09
3.2310155e-09
3.8507657e-09
4.7289678e-09
5.8290315e-09
7.1676276e-09
8.7721964e-09
1.0673073e-08
1.2929061e-08
1.5614438e-08
1.8487067e-08
2.1508538e-08
2.460387e-08
2.7706969e-08
3.0764008e-08
3.3733601e-08
3.6585058e-08
3.9298975e-08
4.1858842e-08
4.4264003e-08
4.6499198e-08
4.855739e-08
5.0483383e-08
5.2212977e-08
5.3793756e-08
5.5204332e-08
5.6461326e-08
5.7546022e-08
5.8467638e-08
5.9228102e-08
5.9830739e-08
6.0272829e-08
6.0555926e-08
6.0680531e-08
)
;
    }
    frontAndBack
    {
        type            empty;
    }
}


// ************************************************************************* //
