/*--------------------------------*- C++ -*----------------------------------*\
  =========                 |
  \\      /  F ield         | OpenFOAM: The Open Source CFD Toolbox
   \\    /   O peration     | Website:  https://openfoam.org
    \\  /    A nd           | Version:  13
     \\/     M anipulation  |
\*---------------------------------------------------------------------------*/
FoamFile
{
    format      ascii;
    class       volScalarField;
    location    "15.099257";
    object      omega;
}
// * * * * * * * * * * * * * * * * * * * * * * * * * * * * * * * * * * * * * //

dimensions      [0 0 -1 0 0 0 0];

internalField   nonuniform List<scalar> 
17140
(
3736295.3
603677.29
185334.3
78619.765
40003.63
22783.245
13989.632
9058.5446
6099.2601
4230.2934
3002.302
2169.7281
1590.7127
1179.5111
882.31905
664.30021
502.29438
380.55608
288.17971
217.49985
163.07412
121.0228
88.587336
63.816038
45.309143
31.98124
22.850279
16.88907
13.093058
10.750702
9.3629378
8.5225373
7.9472546
7.4826921
7.0673095
6.6856232
6.3361431
6.0197395
5.7377834
5.4916656
5.2815094
5.1071034
4.9666947
4.8572775
4.7746137
4.7183283
4.6797559
4.6410601
4.6017927
4.5620773
4.5232036
4.4886656
4.4637187
4.4541852
4.4518739
4.4801518
4.5283937
4.6038314
4.6777895
4.7421898
4.7885835
4.6724636
4.3611349
4.005676
3.5410468
3736320.9
603681.93
185336.01
78620.661
40004.184
22783.632
13989.926
9058.7846
6099.4678
4230.4819
3002.4796
2169.9005
1590.8839
1179.6836
882.49466
664.47988
502.47839
380.744
288.37032
217.69101
163.26258
121.20398
88.755352
63.964065
45.430661
32.072092
22.910551
16.927459
13.115625
10.760115
9.3634768
8.5184795
7.9422579
7.4789586
7.0658254
6.6869416
6.3406735
6.0276512
5.7498545
5.5086027
5.3048118
5.138077
5.0067249
4.908343
4.8383476
4.7968599
4.7772391
4.7684471
4.7614922
4.7585039
4.756486
4.7571487
4.7648352
4.7797274
4.8061004
4.8534691
4.9135772
5.0126682
5.1369813
5.2701463
5.3325144
5.2397285
4.8551275
4.4258242
3.8582796
3736345.9
603686.06
185337.32
78621.278
40004.572
22783.934
13990.204
9059.065
6099.7651
4230.8051
3002.8344
2170.2905
1591.3112
1180.1488
882.9972
665.01771
503.0479
381.33977
288.98476
218.31387
163.8804
121.79959
89.307887
64.450393
45.829211
32.369287
23.106637
17.051559
13.187656
10.78833
9.3616563
8.5005538
7.9196353
7.4583024
7.0498164
6.6775837
6.340198
6.03825
5.7733931
5.5479838
5.3626303
5.2170874
5.109842
5.042164
5.0086756
4.999218
5.0178271
5.061389
5.1148887
5.1750402
5.234703
5.2911157
5.3405828
5.3846376
5.4247701
5.4615826
5.4948917
5.5405913
5.5997118
5.658823
5.6908479
5.5132365
4.985281
4.4201513
3.620892
3736372.1
603690.37
185338.71
78621.976
40005.05
22784.348
13990.617
9059.5052
6100.2486
4231.3421
3003.4318
2170.9527
1592.0406
1180.9459
883.8604
665.94317
504.02917
382.36732
290.04541
219.38998
164.94891
122.83118
90.266982
65.297407
46.526862
32.893423
23.456681
17.271481
13.31528
10.841457
9.3625454
8.4736376
7.8844907
7.4244041
7.0222246
6.658981
6.3336798
6.0489197
5.8039408
5.6023635
5.4444717
5.3292846
5.2602943
5.2262107
5.2153899
5.2318552
5.2800474
5.3430108
5.4178482
5.4953042
5.5722258
5.6408443
5.6964957
5.7393921
5.7674617
5.7752255
5.769292
5.7571967
5.7532507
5.7615401
5.7765358
5.5424126
4.7731532
3.9408601
2.987956
3736400.1
603694.97
185340.21
78622.754
40005.617
22784.869
13991.161
9060.1005
6100.9128
4232.0871
3004.2656
2171.8808
1593.066
1182.0692
885.07954
667.25295
505.4208
383.8278
291.55658
220.92745
166.4807
124.31644
91.655872
66.533891
47.557094
33.680604
23.996961
17.59701
13.497361
10.924953
9.3719637
8.4407512
7.8357949
7.3755734
6.9812915
6.6300806
6.3198671
6.0543265
5.833736
5.6588778
5.5300632
5.4509712
5.4108966
5.3965026
5.3978654
5.436655
5.4952037
5.5603868
5.6296153
5.6965577
5.7591346
5.8107146
5.8492418
5.8700214
5.8785443
5.8697268
5.8322737
5.7780557
5.7363822
5.7125122
5.6979822
5.3924051
4.4483251
3.4218036
2.422504
3736429.1
603699.73
185341.76
78623.599
40006.264
22785.486
13991.82
9060.8329
6101.7374
4233.0168
3005.3102
2173.0469
1594.3577
1183.4878
886.62297
668.91558
507.19252
385.69317
293.49372
222.90654
168.46214
126.24916
93.476648
68.170248
48.936888
34.750232
24.742607
18.051687
13.759358
11.056509
9.4017627
8.4087376
7.7754409
7.3105853
6.9252704
6.5891852
6.2968656
6.0502351
5.8557298
5.7069811
5.6090604
5.5565962
5.533981
5.5285119
5.5435812
5.5922152
5.6494303
5.7081365
5.7644517
5.814059
5.8548829
5.8796896
5.8946797
5.8994066
5.887083
5.8519655
5.788231
5.7035251
5.6372753
5.6094899
5.5414232
5.1685377
4.0278435
2.8724781
1.906924
3736459.3
603704.65
185343.38
78624.502
40006.978
22786.182
13992.575
9061.6778
6102.6933
4234.0986
3006.529
2174.411
1595.8726
1185.156
888.44348
670.88317
509.29696
387.91804
295.81502
225.29079
170.86418
128.60971
95.721092
70.210943
50.683152
36.128985
25.725183
18.667956
14.123667
11.253576
9.4683058
8.3888815
7.7106235
7.2357835
6.8574386
6.53585
6.262678
6.0370063
5.8634814
5.7407632
5.6689621
5.6340667
5.6223148
5.623544
5.6483157
5.6976039
5.7482056
5.7967987
5.8391309
5.8720858
5.8897329
5.8973834
5.8965633
5.8825414
5.8491448
5.7898564
5.7060575
5.6075144
5.5304165
5.5078685
5.3865151
4.8883803
3.5201749
2.3500115
1.4933762
3736490.6
603709.75
185345.06
78625.457
40007.746
22786.94
13993.403
9062.6098
6103.7511
4235.2988
3007.8845
2175.9319
1597.5661
1187.0266
890.49186
673.10578
511.68478
390.45531
298.47749
228.04357
173.65895
131.38178
98.38723
72.67076
52.828436
37.865425
27.00391
19.509032
14.606669
11.514937
9.5829938
8.3918341
7.6535709
7.1576886
6.7813867
6.4724214
6.2164648
6.012098
5.855979
5.7567902
5.7042141
5.6812119
5.6754747
5.6845435
5.7135775
5.758714
5.8016152
5.8399026
5.8693899
5.8855519
5.891176
5.8884451
5.8736493
5.8405318
5.789199
5.7167508
5.623783
5.5223608
5.4489377
5.4221134
5.2247356
4.5228836
2.9600139
1.8737854
1.1542625
3736522
603715.01
185346.81
78626.454
40008.549
22787.738
13994.278
9063.5966
6104.8734
4236.5747
3009.3286
2177.5563
1599.3806
1189.0378
892.70338
675.5168
514.28905
393.23957
301.41951
231.10955
176.80035
134.53163
101.45693
75.549945
55.392497
39.996467
28.625311
20.617933
15.275198
11.874203
9.7565501
8.4395077
7.6185707
7.0851322
6.7022749
6.4018028
6.1603527
5.9726907
5.8360448
5.7503161
5.708734
5.6948989
5.6943973
5.7104498
5.741433
5.7814391
5.8177875
5.8478734
5.867421
5.8756862
5.8743725
5.8592868
5.8311655
5.7890077
5.7278426
5.6471987
5.5496432
5.4518663
5.4002124
5.3474559
5.0562003
4.017225
2.4367783
1.4692361
0.89274937
3736555.2
603720.49
185348.63
78627.482
40009.372
22788.553
13995.172
9064.6036
6106.0194
4237.8794
3010.8085
2179.2255
1601.2511
1191.1196
895.00338
678.0381
517.02965
396.19067
304.56326
234.41616
180.22438
138.00765
104.89518
78.834295
58.385282
42.556815
30.644505
22.060612
16.196028
12.38911
10.006185
8.5375966
7.6209641
7.0304357
6.6265452
6.327287
6.0966612
5.922788
5.8008292
5.7297665
5.6952537
5.6843471
5.6868367
5.7055722
5.7375499
5.7756886
5.8095316
5.8347797
5.8465491
5.8472701
5.8371089
5.8149184
5.7815909
5.7342674
5.6662801
5.5805507
5.4833288
5.4032332
5.377853
5.2765959
4.8413626
3.3740598
1.9125605
1.126747
0.6875342
3736589.7
603726.23
185350.57
78628.57
40010.227
22789.382
13996.062
9065.6006
6107.151
4239.1676
3012.2716
2180.8799
1603.1117
1193.1994
897.31329
680.58612
519.81937
399.21959
307.82033
237.87859
183.85354
141.74397
108.65271
82.496538
61.806649
45.576518
33.119544
23.913009
17.446579
13.144473
10.407124
8.7104777
7.6631182
7.0041693
6.5658306
6.2580936
6.0318328
5.8665385
5.7534767
5.6901398
5.6619551
5.6543187
5.6610888
5.6826242
5.7146471
5.7497313
5.7801719
5.79889
5.8049423
5.8020231
5.7879368
5.7629629
5.7278466
5.6766496
5.6031224
5.516832
5.423793
5.3841074
5.3718463
5.1848032
4.4732189
2.6449818
1.4584875
0.858982
0.53887959
3736625.1
603732.17
185352.61
78629.684
40011.082
22790.19
13996.916
9066.5471
6108.2217
4240.3859
3013.6576
2182.4518
1604.8866
1195.1938
899.54248
683.06348
522.55525
402.21948
311.0824
241.39025
187.58695
145.65034
112.65567
86.485909
65.635941
49.07096
36.10318
26.257065
19.119311
14.222304
11.031244
9.0267704
7.7885033
7.0194805
6.5310889
6.2003985
5.9693265
5.8063967
5.6973616
5.6364104
5.6095909
5.603351
5.6126019
5.6350846
5.6663345
5.6990395
5.7276794
5.744689
5.7500099
5.745395
5.7303341
5.7054857
5.6705072
5.6141301
5.5371733
5.4517477
5.3865337
5.3912315
5.3547137
5.0079661
3.7532169
2.0489383
1.0933012
0.65770897
0.43603596
3736662.3
603738.35
185354.69
78630.78
40011.892
22790.933
13997.686
9067.393
6109.1748
4241.4699
3014.893
2183.8581
1606.483
1196.9996
901.57723
685.34636
525.10416
405.04941
314.20301
244.80245
191.27811
149.58804
116.78006
90.701377
69.804738
53.014389
39.619682
29.165269
21.318068
15.730748
11.970004
9.5547463
8.048785
7.1194096
6.5413163
6.1684668
5.9170496
5.7476168
5.6368226
5.574023
5.5459311
5.5397183
5.5498646
5.5722176
5.6022134
5.6332218
5.6601672
5.6773963
5.6835364
5.679189
5.6657037
5.6430264
5.6068216
5.5432162
5.4658115
5.3900025
5.3819872
5.4244178
5.2848947
4.7115412
2.8987282
1.4708056
0.79720123
0.51340932
0.36202643
3736699.8
603744.62
185356.75
78631.833
40012.627
22791.576
13998.33
9068.088
6109.9512
4242.351
3015.8991
2185.0087
1607.7983
1198.5011
903.28788
687.29058
527.30728
407.53643
316.99656
247.91954
194.7254
153.35535
120.83189
94.966822
74.167453
57.306814
43.630019
32.668596
24.135734
17.795233
13.345685
10.391636
8.5118727
7.3445106
6.6236687
6.1785879
5.8899318
5.6987417
5.5780826
5.5083545
5.4752609
5.4668414
5.4761339
5.4973461
5.5251911
5.5544464
5.5799696
5.5981596
5.6062365
5.6038308
5.5937257
5.5731167
5.530714
5.4614905
5.3890381
5.3635862
5.4272093
5.4490087
5.1397406
4.0180659
2.040894
1.0374209
0.58755224
0.41053385
0.30473652
3736738.4
603751.02
185358.82
78632.83
40013.267
22792.09
13998.814
9068.59
6110.5008
4242.9701
3016.6066
2185.8232
1608.7396
1199.5911
904.55131
688.75537
529.00458
409.50004
319.2615
250.51949
197.68848
156.69789
124.54973
99.02413
78.483783
61.745149
47.992256
36.709946
27.61047
20.53066
15.305362
11.67394
9.2834364
7.7702196
6.8326029
6.2548604
5.9026551
5.6761736
5.5298706
5.445596
5.4031142
5.3892384
5.3949242
5.4133413
5.4380029
5.4646869
5.4885657
5.5074919
5.518389
5.5184039
5.5114027
5.4892425
5.4376702
5.3711032
5.3458492
5.3937841
5.560779
5.4343757
4.8353544
2.9229419
1.3823269
0.71845468
0.44880211
0.34570259
0.2649535
3736780.4
603757.82
185360.92
78633.768
40013.8
22792.459
13999.116
9068.8725
6110.7914
4243.2882
3016.9688
2186.2457
1609.2401
1200.1898
905.27238
689.62746
530.06159
410.78134
320.81144
252.38587
199.91951
159.33699
127.62758
102.54752
82.421262
66.010652
52.430845
41.094477
31.663716
23.985352
17.989932
13.569832
10.513703
8.5093747
7.243487
6.4603565
5.9818096
5.6934085
5.5121428
5.396861
5.3365868
5.3118595
5.3115884
5.3236847
5.3438449
5.3666273
5.3879814
5.4065697
5.4200104
5.4221534
5.4143939
5.3844062
5.3328314
5.3187338
5.371626
5.5746358
5.7143236
5.3347741
3.9826763
1.8328915
0.88224115
0.52713772
0.37958439
0.30562297
0.23769411
3736824.8
603764.82
185363.04
78634.643
40014.225
22792.681
13999.233
9068.9298
6110.8149
4243.2943
3016.9704
2186.255
1609.2707
1200.258
905.39862
689.83771
530.38867
411.26607
321.50333
253.34251
201.2034
161.01307
129.75809
105.18223
85.583824
69.680808
56.524128
45.444731
36.019707
28.038913
21.448393
16.254398
12.40906
9.7412314
7.9875784
6.8792314
6.1935096
5.7819523
5.5366897
5.3876549
5.2915863
5.2447084
5.2314539
5.2359119
5.2482996
5.2653373
5.2828586
5.2995293
5.3139317
5.3148133
5.3026104
5.2755081
5.2813758
5.3568295
5.5824167
6.0087109
5.773609
4.8784087
2.4854895
1.1438458
0.62747723
0.42860555
0.32401454
0.26574964
0.21071628
3736869.6
603771.92
185365.15
78635.464
40014.554
22792.771
13999.183
9068.7852
6110.5979
4243.0182
3016.6441
2185.8868
1608.869
1199.8338
904.96588
689.41524
530.00123
410.94599
321.29238
253.29449
201.38869
161.51643
130.67323
106.60237
87.579004
72.295778
59.756468
49.220916
40.173169
32.303999
25.490038
19.747444
15.143936
11.689881
9.2697256
7.6692688
6.6509763
6.0183546
5.6456286
5.4256215
5.2960576
5.2154066
5.1731646
5.1624896
5.1651471
5.1727975
5.1852478
5.1985072
5.2107628
5.2107897
5.2127387
5.2409642
5.3552397
5.6771138
6.3612486
6.2091836
5.5189766
3.3120575
1.4296996
0.73352654
0.47341082
0.36291663
0.28881191
0.24094125
0.19153417
3736913.9
603779.13
185367.28
78636.243
40014.811
22792.764
13999.009
9068.4864
6110.1954
4242.5221
3016.0598
2185.2179
1608.1193
1199.0084
904.0729
688.46685
529.01529
409.9475
320.31495
252.38134
200.59237
160.90104
130.31735
106.60407
88.072878
73.412314
61.595298
51.803297
43.445854
36.112559
29.568225
23.742171
18.693409
14.536397
11.335951
9.0549546
7.5290684
6.5477418
5.9366438
5.5758345
5.365088
5.2423444
5.176599
5.143587
5.1288781
5.1223034
5.1263016
5.1340726
5.1470081
5.1702343
5.2332679
5.4065614
5.8332071
6.8140329
6.8106024
6.2120288
4.2151578
1.7601131
0.86767412
0.53738163
0.40105528
0.31851221
0.255144
0.21403039
0.17307359
3736961
603786.66
185369.47
78637.027
40015.043
22792.708
13998.767
9068.1019
6109.6869
4241.8974
3015.3213
2184.3652
1607.1513
1197.9246
902.87442
687.15769
527.60385
408.44827
318.75036
250.78382
199.00626
159.38417
128.94149
105.45263
87.230982
72.981415
61.703047
52.626623
45.113175
38.631862
32.816754
27.473259
22.554816
18.138226
14.362608
11.34978
9.1253334
7.5980064
6.5939633
5.9720588
5.6006205
5.3821736
5.265018
5.2066266
5.1772178
5.1584875
5.1604649
5.1805124
5.2229801
5.3168809
5.5467394
6.1275844
7.4843099
7.5287932
6.9396341
4.9938192
2.1070348
1.0150714
0.60559693
0.44208956
0.35219633
0.28786681
0.23460991
0.19818404
0.1625347
3737011.6
603794.59
185371.77
78637.847
40015.287
22792.652
13998.516
9067.7006
6109.1537
4241.2389
3014.5379
2183.4541
1606.1079
1196.7437
901.55127
685.68894
525.98869
406.68987
316.85766
248.77366
196.9059
157.2339
126.79707
103.38683
85.333258
71.355737
60.457969
51.855792
44.927048
39.203884
34.295528
29.863571
25.668015
21.656589
17.898137
14.535488
11.719185
9.535961
7.9594473
6.8806406
6.2101789
5.8043809
5.5640813
5.4426092
5.3828513
5.3676166
5.3918964
5.450084
5.5859539
5.9226704
6.7005163
8.4075424
8.3707514
7.7317653
5.6735698
2.4300801
1.1622438
0.67588555
0.48143917
0.38213728
0.30889052
0.25185516
0.20805563
0.17757807
0.1475426
3737062.3
603802.68
185374.15
78638.721
40015.575
22792.64
13998.312
9067.3501
6108.6762
4240.6408
3013.8192
2182.6107
1605.1335
1195.6304
900.2905
684.27204
524.40769
404.93851
314.93269
246.67665
194.64554
154.82895
124.27996
100.80788
82.765697
68.902496
58.234127
49.973098
43.487294
38.271085
33.928243
30.219898
26.916635
23.81341
20.737475
17.723165
14.888192
12.383528
10.323953
8.7504869
7.6107051
6.85301
6.4042911
6.1669479
6.0365778
6.0476972
6.1142188
6.2891782
6.7364398
7.8704092
9.611406
9.3848655
8.6105514
6.2278768
2.7089306
1.2974672
0.74539736
0.51922074
0.41262571
0.33520487
0.27763349
0.23349622
0.19527133
0.16782624
0.14039964
3737113.2
603810.95
185376.62
78639.663
40015.929
22792.699
13998.188
9067.091
6108.3024
4240.1599
3013.2317
2181.9127
1604.3183
1194.6894
899.21342
683.04748
523.02361
403.3827
313.1935
244.74399
192.51231
152.49298
121.74638
98.091906
79.895034
65.917222
55.208068
47.026246
40.788859
36.009803
32.252603
29.128549
26.400004
23.920172
21.651728
19.467956
17.277302
15.119979
13.115778
11.385828
9.9944163
8.9647588
8.2409053
7.7898073
7.5255927
7.5426841
7.6980691
8.2112442
9.6637928
11.013154
10.683396
9.5579189
6.5861612
2.9149695
1.4142158
0.80977419
0.55667664
0.4402008
0.35794627
0.29740847
0.24859287
0.20701508
0.17494759
0.15238166
0.13089645
3737167.7
603819.71
185379.24
78640.69
40016.358
22792.835
13998.15
9066.9302
6108.0415
4239.8082
3012.7911
2181.3807
1603.6893
1193.9555
898.36477
682.07221
521.908
402.11137
311.74985
243.11082
190.67256
150.4308
119.44844
95.548662
77.102267
62.877094
51.945753
43.598766
37.276091
32.532978
29.015714
26.389761
24.365188
22.613129
20.951246
19.310271
17.776245
16.310862
14.904095
13.544907
12.312687
11.276594
10.479779
9.9057983
9.5995391
9.6913184
10.262554
11.902653
12.497485
12.023954
10.482137
6.7122466
3.0421246
1.5012377
0.86977245
0.59343272
0.4651694
0.37519954
0.31425406
0.26408636
0.22451614
0.19284308
0.16549782
0.14545399
0.12468006
3737225.4
603828.87
185381.99
78641.781
40016.827
22793.005
13998.145
9066.8037
6107.8183
4239.4986
3012.3978
2180.9019
1603.12
1193.2884
897.59047
681.17995
520.88549
400.94493
310.42454
241.61056
188.98045
148.52958
117.32164
93.183039
74.490537
60.020495
48.848832
40.275245
33.756235
28.866485
25.265165
22.668193
20.833875
19.559789
18.615356
17.795395
16.88147
15.920056
14.969053
14.13005
13.323384
12.552529
11.902743
11.426032
11.576481
12.335565
14.082556
13.988818
13.331018
11.270925
6.5673405
3.0727141
1.5640377
0.92283742
0.63174076
0.49038739
0.39573991
0.33144066
0.27933451
0.23764901
0.20422579
0.17429535
0.15120577
0.13428944
0.11845004
3737283.9
603838.25
185384.82
78642.908
40017.308
22793.174
13998.129
9066.6606
6107.5735
4239.1631
3011.975
2180.3903
1602.5151
1192.5832
896.77628
680.24671
519.82209
399.73947
309.06436
240.08233
187.27036
146.62394
115.20772
90.850042
71.931591
57.236702
45.847259
37.065927
30.359024
25.312711
21.59779
18.947363
17.131542
15.947117
15.202407
14.711376
14.353913
14.038722
13.722648
13.398376
12.96616
12.485673
12.503051
13.058649
14.78175
15.975727
15.635769
14.522451
11.809489
6.2256708
3.0430672
1.6097416
0.97313945
0.67118868
0.51984333
0.41739062
0.34825524
0.2911618
0.24887082
0.2142283
0.18500858
0.162632
0.1443319
0.12839275
0.11358735
3737344.3
603848.01
185387.76
78644.051
40017.764
22793.289
13998.036
9066.4194
6107.2121
4238.6937
3011.4015
2179.7125
1601.7299
1191.6861
895.76177
679.10856
518.5536
398.33348
307.51331
238.37836
185.40571
144.59161
113.00226
88.468264
69.373668
54.507331
42.957631
34.035027
27.213116
22.084694
18.326529
15.672204
13.891914
12.781773
12.149984
11.825272
11.659074
11.641335
11.828031
12.04683
12.504952
13.424606
15.017118
17.298593
17.615755
17.112698
15.495041
11.755888
5.8867088
3.0040658
1.6565701
1.0256791
0.71503152
0.55331056
0.44156243
0.36379548
0.30373314
0.26033631
0.22588883
0.19599305
0.17308183
0.15058471
0.13314501
0.12177053
0.10987661
3737407.1
603858.11
185390.81
78645.223
40018.223
22793.392
13997.92
9066.1476
6106.8145
4238.1841
3010.7854
2178.9911
1600.9021
1190.7494
894.71319
677.94476
517.27125
396.92957
305.98544
236.72513
183.62705
142.68889
110.97861
86.329802
67.130099
52.172884
40.552842
31.581264
24.7379
19.619387
15.901441
13.311091
11.612484
10.680175
10.223702
10.103141
10.297828
10.818822
11.792607
13.24318
15.067801
17.573658
19.249959
19.108855
18.334096
16.149177
11.378403
5.8026747
3.0250261
1.711381
1.0855974
0.76519132
0.5922184
0.46666782
0.38123887
0.31736911
0.27331267
0.23570593
0.20569918
0.18003662
0.15818984
0.14191119
0.12825028
0.11613021
0.10604211
3737471.9
603868.57
185394.01
78646.531
40018.83
22793.671
13998.015
9066.1262
6106.7095
4238.0124
3010.5562
2178.7088
1600.5687
1190.3652
894.27742
677.45602
516.7278
396.32958
305.32729
236.00768
182.84984
141.85242
110.08459
85.380666
66.129101
51.124286
39.460843
30.463535
23.617634
18.520399
14.855885
12.363613
10.852151
10.159061
9.9763912
10.292483
11.163179
12.634077
14.70399
17.053259
19.526054
20.900643
20.550627
19.375272
16.437435
11.129575
5.7744506
3.0734846
1.7786173
1.1507628
0.82397401
0.63435603
0.4948421
0.401014
0.33481465
0.28660106
0.24647067
0.21455955
0.18853917
0.16701515
0.14998779
0.13383156
0.12193489
0.11262326
0.10381665
3737539.4
603879.53
185397.38
78648.003
40019.622
22794.172
13998.379
9066.4235
6106.9763
4238.2699
3010.8172
2178.9818
1600.8594
1190.6777
894.61444
677.81936
517.11835
396.74736
305.77133
236.47589
183.33886
142.35745
110.59926
85.897255
66.639121
51.61963
39.935458
30.908563
24.031765
18.924697
15.286368
12.86904
11.531963
11.04192
11.270804
12.248439
13.952733
16.297909
18.941219
21.344253
22.465657
21.957613
20.388082
16.701405
11.094019
5.8608497
3.1634522
1.8631233
1.2267872
0.89125187
0.68208552
0.52630854
0.42612786
0.35449882
0.30146918
0.25698863
0.22452656
0.19697913
0.17564424
0.15606238
0.14003026
0.12725779
0.11655375
0.10810905
0.10119757
3737610.3
603890.95
185400.93
78649.606
40020.549
22794.829
13998.929
9066.9391
6107.4981
4238.8221
3011.4161
2179.6391
1601.5842
1191.4773
895.49479
678.78532
518.17367
397.89462
307.01183
237.80943
184.76352
143.86925
112.19192
87.562099
68.365987
53.397072
41.752139
32.755555
25.902984
20.816521
17.215886
14.902496
13.730655
13.562891
14.262444
15.852949
18.22384
21.107477
23.481206
24.181641
23.460407
21.482945
17.083861
11.232751
6.0850025
3.2995375
1.9699272
1.3157096
0.96883922
0.73597243
0.56529748
0.45598619
0.37825069
0.31743463
0.27061803
0.2356035
0.20746146
0.18360865
0.16349858
0.1465713
0.13336155
0.12228478
0.11346624
0.10608144
0.099673893
3737682.9
603902.71
185404.6
78651.255
40021.498
22795.496
13999.481
9067.4546
6108.0181
4239.3723
3012.0139
2180.2976
1602.3139
1192.2873
896.39312
679.77938
519.27032
399.10023
308.33227
239.25
186.3289
145.5634
114.0181
89.52272
70.462002
55.629107
44.121316
35.265829
28.564978
23.655408
20.276015
18.243656
17.430601
17.692935
18.847788
20.958385
23.684853
26.105457
26.148954
25.160577
22.649079
17.619616
11.539479
6.3579905
3.4647407
2.0976774
1.42233
1.0574465
0.79872483
0.61203615
0.49270185
0.40395999
0.33738295
0.286279
0.24921255
0.21725009
0.19203414
0.17027744
0.15357657
0.13908202
0.12769688
0.11696694
0.10909929
0.10286836
0.097896163
3737758.4
603914.96
185408.38
78652.901
40022.392
22796.071
13999.911
9067.8175
6108.357
4239.7127
3012.373
2180.6882
1602.7467
1192.7716
896.93822
680.39445
519.96504
399.88494
309.21821
240.24956
187.45578
146.83303
115.44784
91.132539
72.274122
57.668562
46.417069
37.852002
31.483331
26.958656
24.030689
22.526651
22.310242
22.995091
24.553033
26.696653
28.785145
28.391042
27.024101
23.802587
18.242129
11.923976
6.6439231
3.6550737
2.2458687
1.5477513
1.1558631
0.87010845
0.66827664
0.53567943
0.43527494
0.36105778
0.30714131
0.26391796
0.22922161
0.20114561
0.17962528
0.16104939
0.1462972
0.13237626
0.12149384
0.11363359
0.10708276
0.10140631
0.09686544
3737836.4
603927.56
185412.25
78654.559
40023.252
22796.581
14000.249
9068.0659
6108.5587
4239.8936
3012.5501
2180.8741
1602.9518
1193.0057
897.21121
680.71698
520.34898
400.34393
309.76809
240.90885
188.24626
147.78029
116.58198
92.488761
73.894333
59.602143
48.721914
40.595429
34.741748
30.813853
28.558852
27.773261
28.100167
29.080934
30.918541
31.940022
31.10872
29.052097
24.975105
18.915527
12.357475
6.9515214
3.8798432
2.4185585
1.691619
1.265716
0.95170129
0.73592724
0.5872602
0.47278711
0.39099615
0.33022787
0.28200477
0.24211352
0.21330847
0.18892494
0.16923493
0.15199197
0.13778857
0.12663277
0.11846355
0.11045682
0.1038353
0.099139457
0.09538049
3737916.9
603940.56
185416.25
78656.269
40024.141
22797.108
14000.597
9068.3207
6108.7655
4240.0793
3012.7325
2181.0668
1603.1663
1193.253
897.5025
681.06482
520.76769
400.85029
310.38208
241.65446
189.15239
148.88178
117.92072
94.114766
75.866723
61.989591
51.601644
44.050341
38.850572
35.632636
34.091516
33.937077
34.530727
35.496698
35.023541
33.743123
31.021032
26.128293
19.57385
12.764527
7.2713384
4.1424356
2.622763
1.8559793
1.3869288
1.0463061
0.81435506
0.64801639
0.51766933
0.42645662
0.35782072
0.30280656
0.26041831
0.22688727
0.20044936
0.1772763
0.1597988
0.14442501
0.13338441
0.12264378
0.11374005
0.10710009
0.10227311
0.098222871
0.094726038
3738001.3
603954.19
185420.45
78658.098
40025.124
22797.726
14001.044
9068.6873
6109.1006
4240.4123
3013.0838
2181.4522
1603.5998
1193.7482
898.07377
681.72784
521.54053
401.75416
311.44229
242.90146
190.62302
150.62056
119.98119
96.560329
78.76173
65.388281
55.5776
48.660169
44.111788
41.484508
40.359621
40.15242
39.705813
38.382392
36.192471
32.675683
27.080801
20.111349
13.128319
7.6418751
4.4630375
2.8776264
2.0430595
1.5195229
1.153724
0.90506968
0.71734808
0.57239533
0.46891773
0.39059524
0.32901543
0.28161364
0.24391966
0.21184183
0.18818735
0.16810256
0.15255652
0.13867166
0.127136
0.1176213
0.11128344
0.10542655
0.10054734
0.096821543
0.093833033
3738088.5
603968.32
185424.86
78660.047
40026.209
22798.453
14001.613
9069.1937
6109.5973
4240.9323
3013.6505
2182.0849
1604.3161
1194.5655
899.01072
682.80514
522.78198
403.18768
313.10111
244.82557
192.85996
153.22477
123.0111
100.06994
82.797784
69.985008
60.731071
54.350219
50.248977
47.777786
46.10904
44.203615
41.738303
38.772906
34.315346
28.038009
20.703217
13.627415
8.1643561
4.9001285
3.1819768
2.2373438
1.6571922
1.274247
1.0086833
0.79840058
0.63683958
0.52077663
0.42909268
0.36040513
0.30694746
0.26324879
0.22812015
0.20052009
0.17935388
0.16005774
0.1455687
0.13244622
0.12350554
0.11530492
0.10844661
0.1028548
0.098746191
0.095744399
0.09300768
3738178.6
603982.97
185429.44
78662.112
40027.398
22799.288
14002.305
9069.8417
6110.2578
4241.6415
3014.4356
2182.9685
1605.3195
1195.7105
900.32067
684.30615
524.50362
405.16369
315.36967
247.42861
195.8423
156.63304
126.89086
104.46279
87.73428
75.449399
66.626249
60.407084
55.950754
52.34872
48.934544
45.482127
41.484736
35.984721
29.027608
21.379247
14.240843
8.7581673
5.3482035
3.460052
2.4164336
1.8095016
1.4193699
1.1303327
0.89295874
0.71299328
0.580718
0.47628186
0.39701027
0.33711573
0.28720556
0.2477319
0.21649674
0.19006076
0.17014807
0.15275238
0.14008506
0.12866052
0.11952288
0.11141365
0.10618964
0.10171464
0.097880619
0.095089062
0.09260373
3738271.2
603998.11
185434.22
78664.3
40028.696
22800.236
14003.121
9070.6323
6111.0825
4242.54
3015.4377
2184.1
1606.6047
1197.1741
901.98883
686.20708
526.668
407.62444
318.16107
250.58448
199.39202
160.59455
131.26054
109.20151
92.751138
80.613821
71.630012
64.78744
59.221933
54.312959
49.621392
44.31554
37.774842
30.184312
22.261158
15.045796
9.4809755
5.882038
3.8137022
2.6765281
2.0307341
1.6014272
1.265601
0.99731199
0.80016626
0.6509519
0.5321972
0.44264481
0.37180141
0.31651212
0.27137964
0.23486168
0.20491433
0.18138371
0.16350081
0.14721696
0.13513766
0.12380069
0.11625115
0.10970209
0.10420551
0.099806571
0.096486368
0.09408051
0.091975937
3738367.1
604010.99
185436.83
78664.78
40028.751
22800.272
14003.263
9070.926
6111.55
4243.1954
3016.2938
2185.1707
1607.906
1198.7244
903.80894
688.31976
529.0972
410.39358
321.28997
254.08446
203.25845
164.79631
135.72597
113.80123
97.278049
84.757538
75.081825
67.277402
60.584773
54.30594
47.508647
39.896264
31.665552
23.436662
16.07478
10.342757
6.5045298
4.2272296
2.9652732
2.245492
1.7609181
1.3913412
1.1120692
0.9044972
0.73617661
0.5998601
0.49652501
0.41446812
0.34970979
0.30004669
0.25722949
0.22326153
0.19627907
0.17383766
0.15677151
0.14141432
0.13064054
0.12113104
0.11382572
0.10683542
0.10271295
0.098908153
0.095899058
0.093659202
0.091715227
3739014.3
604121.68
185474.15
78682.539
40038.914
22806.876
14007.991
9074.5963
6114.6042
4245.8959
3018.8092
2187.6169
1610.368
1201.2681
906.48756
691.17693
532.16747
413.70099
324.84434
257.87542
207.2471
168.90508
139.82823
117.71389
100.76246
87.534344
76.879082
67.839935
59.448203
50.981754
42.202411
33.261978
24.663266
17.104587
11.190233
7.1338852
4.6655661
3.2774846
2.4805241
1.9534305
1.5658156
1.2711854
1.0340714
0.83339382
0.67569453
0.55745728
0.46357088
0.39014317
0.33159076
0.28473023
0.24498139
0.21347096
0.18732222
0.16685946
0.15130747
0.13715794
0.12729506
0.11721533
0.11085065
0.10553817
0.10104264
0.097337411
0.094848051
0.092842185
0.091391105
3739013.7
604118.72
185471.8
78680.885
40037.879
22806.303
14007.78
9074.6872
6114.9655
4246.5113
3019.6728
2188.7294
1611.7348
1202.8968
908.38565
693.34923
534.61212
416.40425
327.77396
260.97251
210.41739
172.01107
142.68547
120.09492
102.42153
88.210296
76.198478
65.35631
55.045166
44.979685
35.228545
26.16955
18.340049
12.202784
7.910492
5.2200777
3.6635802
2.7571509
2.1711206
1.7493451
1.4201509
1.1481868
0.92755075
0.76063324
0.63057407
0.52331181
0.43847054
0.37009051
0.31486714
0.27180031
0.23381623
0.20412032
0.18027334
0.1608478
0.14599073
0.13248693
0.12307213
0.11507462
0.10922949
0.10318943
0.099747756
0.096702282
0.094383507
0.092490536
0.091168095
3739013.8
604118.91
185472.01
78681.163
40038.24
22806.756
14008.333
9075.3516
6115.7516
4247.4306
3020.7368
2189.9498
1613.1215
1204.4571
910.12183
695.25533
536.66976
418.57734
330.00254
263.16665
212.45238
173.72732
143.90033
120.58485
101.88343
86.292444
72.707657
60.376156
48.895074
38.203842
28.529612
20.25399
13.713615
9.0180432
5.9635699
4.141169
3.0775592
2.4177237
1.9588411
1.6007737
1.3072867
1.0717572
0.88371832
0.72576816
0.59587453
0.49550721
0.41604296
0.35268756
0.30182601
0.2606656
0.22472732
0.19687951
0.17360274
0.15549901
0.1417361
0.12918203
0.12107436
0.1120423
0.10682441
0.10222773
0.098838618
0.095731378
0.093581259
0.091941543
0.090893029
3739014
604119.05
185472.15
78681.352
40038.485
22807.063
14008.711
9075.8071
6116.2924
4248.0644
3021.4708
2190.7895
1614.0698
1205.5119
911.27338
696.48306
537.93793
419.83061
331.16211
264.12892
213.08164
173.84675
143.26984
118.95302
99.069435
82.253034
67.543073
54.357235
42.462327
31.912201
22.933527
15.762033
10.480525
6.9292215
4.75734
3.4910913
2.7315866
2.217873
1.8194225
1.4928477
1.2249361
1.0025754
0.81859038
0.67489841
0.56375527
0.47290914
0.3994009
0.33930573
0.29019292
0.25145295
0.21670263
0.19008514
0.16843893
0.15109596
0.13792869
0.12584341
0.11770529
0.11072247
0.10571792
0.10059535
0.097638691
0.094960664
0.093291417
0.091685895
0.090727953
3739014.9
604119.19
185472.22
78681.433
40038.59
22807.199
14008.881
9076.0162
6116.545
4248.3643
3021.8203
2191.1884
1614.5138
1205.9904
911.76701
696.95998
538.35005
420.10883
331.21041
263.81539
212.24684
172.3208
140.90971
115.6612
94.822491
77.135427
61.77228
48.282833
36.525257
26.562432
18.527593
12.477878
8.281969
5.625268
4.0496028
3.1176505
2.5118775
2.0619035
1.701225
1.4038648
1.1563307
0.95408254
0.79166663
0.65674448
0.54423517
0.45503588
0.38404014
0.32686956
0.28075458
0.24345626
0.21016012