/*--------------------------------*- C++ -*----------------------------------*\
  =========                 |
  \\      /  F ield         | OpenFOAM: The Open Source CFD Toolbox
   \\    /   O peration     | Website:  https://openfoam.org
    \\  /    A nd           | Version:  13
     \\/     M anipulation  |
\*---------------------------------------------------------------------------*/
FoamFile
{
    format      ascii;
    class       volSymmTensorField;
    location    "15.099257";
    object      UPrime2Mean;
}
// * * * * * * * * * * * * * * * * * * * * * * * * * * * * * * * * * * * * * //

dimensions      [0 2 -2 0 0 0 0];

internalField   nonuniform List<symmTensor> 
17140
(
(4.4470499e-12 -2.6436474e-10 -3.7868968e-27 1.6522739e-08 6.3151445e-26 1.9885329e-40)
(3.1870954e-10 -5.5366813e-09 -2.058779e-27 1.5623309e-07 1.3753964e-26 1.705337e-42)
(2.6003518e-09 -2.5229785e-08 3.5954743e-25 4.714685e-07 -1.4600887e-24 7.4313474e-39)
(1.1729228e-08 -7.4756303e-08 -8.0066654e-25 1.008568e-06 2.2550715e-24 8.9767488e-39)
(3.8291968e-08 -1.7619789e-07 1.6452823e-25 1.8218431e-06 -3.4686182e-25 1.2260667e-40)
(1.0318827e-07 -3.6178445e-07 -8.6938107e-25 2.9737885e-06 1.4357437e-24 1.3122856e-39)
(2.4476049e-07 -6.7688844e-07 -2.2351184e-24 4.5348049e-06 2.9717166e-24 3.7160688e-39)
(5.2974192e-07 -1.1836571e-06 1.6012038e-24 6.5821797e-06 -1.7454474e-24 8.8469444e-40)
(1.0697604e-06 -1.9652112e-06 7.4636725e-24 9.197993e-06 -6.7589903e-24 9.4649968e-39)
(2.0455338e-06 -3.1300855e-06 2.5464295e-23 1.2465623e-05 -1.9344286e-23 5.6843899e-38)
(3.7414103e-06 -4.8164409e-06 -5.1539458e-23 1.6464486e-05 3.308743e-23 1.2472926e-37)
(6.5933705e-06 -7.1953547e-06 6.1724949e-23 2.1262722e-05 -3.3679645e-23 9.880594e-38)
(1.1253797e-05 -1.0472153e-05 1.2531739e-23 2.6907676e-05 -5.837515e-24 2.3075303e-39)
(1.8676029e-05 -1.4884446e-05 -9.2939214e-23 3.3414358e-05 3.7078733e-23 7.353037e-38)
(3.0220753e-05 -2.0695354e-05 1.3398625e-23 4.0752542e-05 -4.5899233e-24 9.022824e-40)
(4.7784352e-05 -2.8180556e-05 -1.3656291e-22 4.8833884e-05 4.0240137e-23 5.630495e-38)
(7.3946328e-05 -3.7608468e-05 6.4824828e-24 5.7501323e-05 -1.6443505e-24 7.7477789e-41)
(0.00011213001 -4.9214413e-05 -1.8402015e-24 6.6523882e-05 4.0317115e-25 3.8500729e-42)
(0.00016676895 -6.3172242e-05 -1.635793e-22 7.5600599e-05 3.0838544e-23 1.9195206e-38)
(0.00024347352 -7.9570067e-05 2.6381032e-22 8.4377167e-05 -4.287599e-23 3.1862634e-38)
(0.00034920237 -9.8399711e-05 -1.5660861e-22 9.2477378e-05 2.1946848e-23 7.275379e-39)
(0.00049245989 -0.00011956946 3.6458921e-23 9.9548551e-05 -4.4031949e-24 2.6007294e-40)
(0.00068363323 -0.00014295477 3.2469192e-22 0.00010531517 -3.3819244e-23 1.3811222e-38)
(0.00093568701 -0.00016850011 -3.870945e-22 0.00010962982 3.4780789e-23 1.3391187e-38)
(0.0012640623 -0.00019623175 -7.2916634e-22 0.00011250984 5.6526794e-23 3.3028021e-38)
(0.0016877098 -0.00022608078 6.8637763e-22 0.0001141385 -4.5932309e-23 2.0736315e-38)
(0.0022347166 -0.00025888098 3.9135608e-21 0.00011476282 -2.2616297e-22 4.8631519e-37)
(0.0029382614 -0.00029510537 5.3112736e-22 0.00011462109 -2.649385e-23 6.56975e-39)
(0.0038380065 -0.00033443565 -5.3306657e-21 0.00011387983 2.28933e-22 4.9411065e-37)
(0.0049904583 -0.00037764981 -1.4178803e-21 0.00011265361 5.2332196e-23 2.6445609e-38)
(0.0064649248 -0.00042511966 -5.7251722e-21 0.00011102504 1.8083044e-22 3.3094443e-37)
(0.0083477843 -0.00047682198 8.4906933e-21 0.00010903259 -2.2837262e-22 5.6562134e-37)
(0.010746358 -0.00053260047 -2.4839519e-21 0.00010667088 5.6589943e-23 3.8013686e-38)
(0.013791653 -0.0005919667 -1.326774e-21 0.00010390242 2.539107e-23 8.621225e-39)
(0.01764145 -0.00065405801 -1.4539586e-20 0.00010066708 2.3179982e-22 8.3008639e-37)
(0.022482592 -0.0007175332 7.0813817e-21 9.6889847e-05 -9.2841395e-23 1.597215e-37)
(0.028531787 -0.00078043893 -1.1803928e-20 9.2492e-05 1.2546421e-22 3.6301454e-37)
(0.036033879 -0.00084007043 -8.7966448e-21 8.7405614e-05 7.4158898e-23 1.6659169e-37)
(0.045255857 -0.00089288332 -4.4148096e-21 8.1607619e-05 2.8628654e-23 3.499892e-38)
(0.056474941 -0.00093420707 1.4579191e-20 7.5139979e-05 -6.9158378e-23 3.2192417e-37)
(0.069959924 -0.00095845866 2.9821989e-20 6.8150073e-05 -9.5253458e-23 1.1464937e-36)
(0.085944612 -0.00095933521 2.9141368e-20 6.0947638e-05 -5.2206716e-23 9.4214224e-37)
(0.10459629 -0.00093095153 1.3606132e-20 5.4035021e-05 -6.8985786e-24 1.7883557e-37)
(0.12600468 -0.00086903422 -7.0361133e-20 4.8100345e-05 -4.7053587e-23 4.208762e-36)
(0.15016792 -0.00077292946 -5.422532e-20 4.3968355e-05 -9.610717e-23 2.2307485e-36)
(0.17701459 -0.00064959109 1.3926653e-20 4.2337844e-05 3.9076738e-23 1.3324766e-37)
(0.20651783 -0.00050657749 -9.8121639e-20 4.3441614e-05 -3.7083098e-22 6.0777407e-36)
(0.23857887 -0.00034865073 -3.422673e-20 4.6838995e-05 -1.6090146e-22 6.9062992e-37)
(0.27305081 -0.00017403073 3.547861e-20 5.1682395e-05 1.9824889e-22 7.0524699e-37)
(0.30971774 2.3410654e-05 8.7514094e-20 5.7004466e-05 5.6365538e-22 4.1525042e-36)
(0.34781437 0.00025362158 -5.3758071e-20 6.2168119e-05 -3.9025241e-22 1.5461618e-36)
(0.38583354 0.00052898072 -3.349873e-20 6.8463541e-05 -2.6977142e-22 6.0476448e-37)
(0.42163243 0.00087953936 8.5247691e-20 7.5133482e-05 7.6044458e-22 4.0354292e-36)
(0.452611 0.0013132005 3.8834187e-20 8.0733291e-05 3.8335055e-22 8.8460984e-37)
(0.47578284 0.0018017149 2.629759e-20 8.5953904e-05 2.8710239e-22 4.4120346e-37)
(0.48807832 0.0023257253 -1.9367767e-20 9.2160795e-05 -2.3440929e-22 2.6766245e-37)
(0.48589581 0.0028543239 4.7881811e-20 0.00010000036 6.4348997e-22 1.9162745e-36)
(0.46545842 0.003343765 3.5959259e-20 0.00010829725 5.4008445e-22 1.3167838e-36)
(0.42371611 0.0037021434 7.8746325e-21 0.00011478707 1.3289454e-22 8.1524603e-38)
(0.36083177 0.003849527 -1.7319074e-20 0.00011600374 -3.2928296e-22 5.3558045e-37)
(0.28266481 0.0037470599 -1.1132092e-20 0.00010803087 -2.407067e-22 3.2528596e-37)
(0.20265993 0.0033781963 -3.2891424e-20 9.2328066e-05 -8.0801639e-22 4.4247235e-36)
(0.13308498 0.00272984 -3.7558618e-21 7.322392e-05 -1.0417296e-22 9.4788929e-38)
(0.084058542 0.0020198336 2.4295753e-20 5.4679912e-05 7.4891009e-22 6.6924401e-36)
(0.050394176 0.00140061 -1.4004804e-20 4.1701993e-05 -5.0685942e-22 3.9986782e-36)
(2.0712656e-10 -4.8703456e-09 5.7215776e-27 1.1456568e-07 -1.1703749e-25 1.6103853e-41)
(3.1166176e-09 -5.7848846e-08 -1.9567409e-24 1.0797923e-06 3.161853e-23 2.0462678e-37)
(1.3514384e-08 -2.0816232e-07 3.4631845e-24 3.2489846e-06 -4.5583167e-23 1.6197739e-37)
(4.0954047e-08 -5.2672618e-07 -1.6063982e-24 6.9228203e-06 1.750317e-23 1.2032191e-38)
(1.0245068e-07 -1.1121683e-06 -5.1985097e-24 1.2440822e-05 4.7648038e-23 5.1314947e-38)
(2.278457e-07 -2.1038155e-06 1.4780927e-23 2.0176561e-05 -1.1531181e-22 1.8721655e-37)
(4.6745293e-07 -3.6928111e-06 -2.2125389e-23 3.0528863e-05 1.4806277e-22 2.0324461e-37)
(9.0351528e-07 -6.1351794e-06 2.7233732e-24 4.3907012e-05 -1.5719681e-23 1.5724255e-39)
(1.6671226e-06 -9.7665084e-06 -1.1650371e-23 6.0708335e-05 5.824493e-23 1.5304301e-38)
(2.9625701e-06 -1.5016851e-05 -2.6567363e-25 8.1286783e-05 1.1542442e-24 4.3646029e-42)
(5.1016096e-06 -2.2423951e-05 -6.9730901e-23 0.00010591172 2.6386744e-22 1.6990907e-37)
(8.5504612e-06 -3.2642096e-05 1.4569003e-22 0.00013471714 -4.8118254e-22 4.2777848e-37)
(1.3992645e-05 -4.6442935e-05 1.5668487e-23 0.00016764379 -4.5234647e-23 2.9078303e-39)
(2.2410426e-05 -6.470371e-05 -1.9961678e-22 0.00020437929 5.0427061e-22 2.8197388e-37)
(3.5186763e-05 -8.8378291e-05 7.850139e-23 0.00024430566 -1.7364217e-22 2.6439466e-38)
(5.4227999e-05 -0.0001184477 6.3354509e-23 0.00028646755 -1.2274743e-22 1.0580587e-38)
(8.2105088e-05 -0.00015585054 -5.0701975e-22 0.00032957859 8.6045264e-22 4.2161903e-37)
(0.00012220856 -0.00020140027 2.0682894e-21 0.00037208398 -3.0738835e-21 4.4202163e-36)
(0.00017891111 -0.00025570656 -1.6092923e-21 0.00041229312 2.0937332e-21 1.7071285e-36)
(0.00025773472 -0.00031912929 2.3770708e-21 0.00044858337 -2.7060875e-21 2.407056e-36)
(0.00036552785 -0.00039180224 -4.2932596e-21 0.00047965445 4.274738e-21 5.1456664e-36)
(0.0005106739 -0.00047375847 1.2756043e-21 0.00050478434 -1.1105294e-21 3.0216271e-37)
(0.00070343662 -0.00056519237 6.3117895e-22 0.00052401256 -4.8041384e-22 5.0004857e-38)
(0.00095665749 -0.000666861 -2.4553913e-21 0.00053817606 1.6342561e-21 5.1991124e-37)
(0.0012857663 -0.00078016285 1.0410989e-20 0.00054877189 -6.0625442e-21 6.5380469e-36)
(0.0017095148 -0.0009070094 1.81562e-21 0.00055754252 -9.2584374e-22 1.4147149e-37)
(0.002255737 -0.0010510803 -1.0900713e-20 0.00056560616 4.8724998e-21 3.6986426e-36)
(0.0029576173 -0.001215992 1.4062546e-20 0.00057395244 -5.51346e-21 4.535081e-36)
(0.0038543438 -0.0014050067 -2.2101915e-21 0.0005840662 7.601525e-22 8.3948809e-38)
(0.0050018251 -0.0016229016 -2.4618446e-20 0.00059624323 7.4261186e-21 7.8916746e-36)
(0.0064686927 -0.0018738458 2.8884269e-21 0.00061034541 -7.636823e-22 8.3643336e-38)
(0.0083402329 -0.0021615013 2.4954205e-20 0.00062610734 -5.779318e-21 4.8532468e-36)
(0.010722384 -0.0024892792 7.081819e-22 0.00064311979 -1.4364239e-22 3.0509228e-39)
(0.013744348 -0.0028599467 -2.3378463e-20 0.00066089013 4.1428629e-21 2.6677385e-36)
(0.017561527 -0.0032752614 2.9083562e-20 0.00067881488 -4.5015321e-21 3.3190379e-36)
(0.022357796 -0.0037354441 -1.4549949e-20 0.00069616659 1.9647611e-21 6.7407614e-37)
(0.028346041 -0.0042384136 1.8937681e-20 0.00071208574 -2.2268347e-21 9.3705068e-37)
(0.035766048 -0.0047787557 6.6376742e-20 0.00072560474 -6.7836642e-21 9.5200266e-36)
(0.044878375 -0.0053465413 1.6312522e-20 0.00073577294 -1.4445144e-21 4.7996081e-37)
(0.05595186 -0.0059260088 6.9563405e-20 0.00074188544 -5.31145e-21 7.3670187e-36)
(0.069244275 -0.006494883 -9.6643205e-20 0.00074399785 6.3209255e-21 1.2126543e-35)
(0.08497514 -0.00702529 -9.5931884e-20 0.00074378266 5.3277893e-21 1.0287131e-35)
(0.10329375 -0.0074876166 -1.760512e-20 0.00074543774 8.2051083e-22 3.0114624e-37)
(0.12426436 -0.0078571632 1.4943549e-19 0.00075607138 -5.7093506e-21 1.9202992e-35)
(0.14784989 -0.0081214242 -7.4632354e-20 0.00078531447 2.2832049e-21 4.2749192e-36)
(0.17395381 -0.0082916972 -2.7073315e-20 0.00084322231 6.3722934e-22 5.0972282e-37)
(0.20245797 -0.0083917062 1.5015767e-20 0.00093367444 -2.5282919e-22 1.4494878e-37)
(0.2332663 -0.0084392691 4.8162103e-20 0.0010439137 -5.1408831e-22 1.3938364e-36)
(0.26626571 -0.008429991 -2.3968604e-20 0.0011498122 1.1717931e-22 3.2911512e-37)
(0.30110005 -0.0082922948 4.3773497e-20 0.0012284035 2.6532259e-23 1.0655947e-36)
(0.33692397 -0.0078931847 2.6270125e-19 0.0012656907 1.5435314e-21 3.802565e-35)
(0.37223016 -0.0071057838 1.2367373e-20 0.0012669148 1.3751172e-22 8.5412226e-38)
(0.4048986 -0.0058504988 -5.4319941e-20 0.0012464829 -8.8209047e-22 1.705474e-36)
(0.43240987 -0.0041056821 1.1622745e-19 0.0012178347 2.5192395e-21 8.3027883e-36)
(0.45201736 -0.0018927053 -9.4049266e-20 0.0011925836 -2.5875944e-21 5.952108e-36)
(0.46070689 0.0007941061 2.4864975e-19 0.0011737683 8.4429467e-21 4.711703e-35)
(0.45513235 0.0039570296 6.4840165e-20 0.001157773 2.6808723e-21 3.7711397e-36)
(0.43182539 0.0074805911 -1.6278756e-19 0.0011477523 -8.1441e-21 2.9440412e-35)
(0.38815199 0.010972113 2.4081715e-20 0.0011531776 1.4506295e-21 8.372584e-37)
(0.3247274 0.013655432 2.3024396e-20 0.0011837294 1.6635492e-21 1.0780046e-36)
(0.24781462 0.014532442 3.7360574e-21 0.0012132378 3.1964974e-22 4.303367e-38)
(0.17113213 0.013165008 -3.903695e-20 0.0011871169 -3.8673791e-21 7.5578185e-36)
(0.10653805 0.0099793346 5.7741792e-20 0.0010097587 6.4573288e-21 2.8636876e-35)
(0.062393135 0.0066775656 1.2866265e-20 0.00075054466 1.5931599e-21 2.5656325e-36)
(0.033613616 0.0039911082 1.5203007e-20 0.00049947018 2.1742673e-21 7.084672e-36)
(1.5800414e-09 -2.2582937e-08 8.6914777e-25 3.2278173e-07 -1.1846314e-23 4.8947501e-38)
(1.7696489e-08 -2.3200011e-07 -1.4055955e-24 3.0425577e-06 1.7551868e-23 1.8693165e-38)
(6.2102604e-08 -7.5368653e-07 -6.6147806e-25 9.1556614e-06 7.5634954e-24 1.3216759e-39)
(1.5566989e-07 -1.7409912e-06 9.6675395e-25 1.9507758e-05 -1.0102272e-23 1.1877218e-39)
(3.3036285e-07 -3.3976098e-06 -6.7570834e-24 3.5049569e-05 6.4521311e-23 2.7875048e-38)
(6.3587423e-07 -5.9976051e-06 -6.9704638e-25 5.6821787e-05 6.0785179e-24 1.5399313e-40)
(1.1481245e-06 -9.9027083e-06 -1.2034315e-23 8.5928745e-05 9.569568e-23 2.5121986e-38)
(1.9814595e-06 -1.558207e-05 -1.719481e-23 0.00012349511 1.2444173e-22 2.9130685e-38)
(3.3060409e-06 -2.3633974e-05 1.837471e-22 0.00017060141 -1.2077223e-21 1.9432148e-36)
(5.3720742e-06 -3.4807172e-05 -2.1218337e-22 0.00022819476 1.2638516e-21 1.5464109e-36)
(8.5429444e-06 -5.0018849e-05 1.3018809e-22 0.00029697288 -7.0122462e-22 3.5337004e-37)
(1.3339685e-05 -7.0365037e-05 2.4283486e-22 0.00037724279 -1.1802402e-21 7.5655034e-37)
(2.049933e-05 -9.7117874e-05 -6.0928522e-22 0.00046876157 2.6664222e-21 2.9646643e-36)
(3.1049588e-05 -0.00013170318 -9.4917491e-23 0.00057057466 3.732331e-22 4.522313e-38)
(4.6401552e-05 -0.00017565163 4.588987e-22 0.00068087833 -1.6178624e-21 6.7042556e-37)
(6.8461057e-05 -0.00023051957 3.9312551e-22 0.00079694526 -1.2399562e-21 3.1457391e-37)
(9.9757673e-05 -0.00029778132 -5.6530411e-22 0.0009151615 1.5916832e-21 4.1924656e-37)
(0.00014358885 -0.00037870592 2.5244978e-21 0.0010312255 -6.3314003e-21 5.4332902e-36)
(0.00020417592 -0.00047424607 -1.8304511e-21 0.0011405451 4.0803606e-21 1.8728602e-36)
(0.0002868328 -0.00058498688 1.1037067e-21 0.0012388314 -2.1823109e-21 4.5072446e-37)
(0.00039815538 -0.00071121228 -4.5074081e-21 0.0013228226 7.8901569e-21 5.0316706e-36)
(0.00054625228 -0.00085313962 -1.4095419e-21 0.0013909923 2.1807515e-21 3.3335483e-37)
(0.00074110195 -0.0010113659 3.5075965e-21 0.001444028 -4.7898121e-21 1.4178634e-36)
(0.00099524495 -0.0011875316 -6.2457031e-21 0.0014848649 7.5201302e-21 3.1327256e-36)
(0.0013240582 -0.0013845744 -2.8862006e-21 0.0015182034 3.0621992e-21 4.7333269e-37)
(0.0017458214 -0.0016063647 4.0346764e-21 0.0015492919 -3.7715944e-21 6.660433e-37)
(0.0022876304 -0.0018593269 2.6471515e-20 0.0015815162 -2.1803631e-20 2.0954139e-35)
(0.0029827396 -0.0021503815 1.3746079e-20 0.0016175957 -9.9757827e-21 4.1938505e-36)
(0.0038692344 -0.0024862708 -7.8253235e-21 0.0016615861 5.0019369e-21 1.0248301e-36)
(0.0050013761 -0.0028755251 9.5144795e-21 0.0017143326 -5.3538106e-21 1.1544422e-36)
(0.0064463069 -0.0033261443 -6.7198457e-21 0.0017753651 3.3265598e-21 4.4642707e-37)
(0.0082867452 -0.0038453307 -4.2882114e-20 0.0018438331 1.8664149e-20 1.4192969e-35)
(0.010625369 -0.0044399426 1.6115348e-20 0.0019184349 -6.1624323e-21 1.5849253e-36)
(0.01358709 -0.0051158761 5.3831834e-20 0.0019976085 -1.8073667e-20 1.4119552e-35)
(0.017321787 -0.0058773699 -2.0020504e-20 0.0020793949 5.8961348e-21 1.5777965e-36)
(0.022006096 -0.0067260248 -3.1172198e-20 0.0021613839 8.0475381e-21 3.1117247e-36)
(0.027843549 -0.0076593844 5.9823973e-20 0.0022406627 -1.3520358e-20 9.4209841e-36)
(0.035061891 -0.0086689764 2.0151221e-20 0.002313833 -3.9804189e-21 8.8622067e-37)
(0.0439059 -0.0097379618 -3.9365758e-20 0.0023773274 6.7762492e-21 2.8366527e-36)
(0.054623851 -0.010838681 -1.7258954e-20 0.0024281937 2.5797932e-21 4.614606e-37)
(0.067446576 -0.011931026 9.0269558e-20 0.0024656846 -1.1657743e-20 1.0778961e-35)
(0.08255808 -0.012963836 -2.7627965e-20 0.0024940868 3.053006e-21 8.7500171e-37)
(0.10006237 -0.013881532 -4.3018065e-20 0.0025258229 4.034633e-21 1.8504633e-36)
(0.11996367 -0.014636767 -1.2262048e-19 0.002583256 9.6047597e-21 1.3289729e-35)
(0.14215729 -0.01520674 2.4685503e-19 0.0026978036 -1.5775199e-20 4.8355941e-35)
(0.16647896 -0.015615812 -1.6779689e-19 0.0029017326 8.4853565e-21 2.0342607e-35)
(0.19277229 -0.015920226 -4.4077636e-20 0.0032029682 1.690884e-21 1.2961891e-36)
(0.22091778 -0.016160405 -1.7963586e-19 0.0035584274 4.7743239e-21 2.0317828e-35)
(0.25074788 -0.016314797 -2.1967473e-19 0.0038913782 3.4479844e-21 2.9148693e-35)
(0.28187369 -0.016246573 -1.1277271e-20 0.0041188995 6.7458985e-23 7.4780255e-38)
(0.31343093 -0.01572109 4.7582579e-20 0.0041942279 2.091453e-22 1.3332689e-36)
(0.34391985 -0.014506926 -3.4467979e-19 0.004135286 -4.9990687e-21 7.1569551e-35)
(0.37129695 -0.012467931 -1.4293222e-19 0.0039966911 -3.484437e-21 1.2874927e-35)
(0.39323798 -0.0095838807 -1.408316e-19 0.0038333531 -4.8887396e-21 1.3431224e-35)
(0.40730427 -0.0058830182 -4.3658305e-20 0.0036773909 -2.009807e-21 1.4302953e-36)
(0.41088721 -0.00134826 -3.125714e-19 0.0035332001 -1.8264417e-20 8.4275128e-35)
(0.40118414 0.0040383971 1.127243e-19 0.0033938564 8.2275111e-21 1.3105954e-35)
(0.37525738 0.010108384 -3.0239102e-20 0.0032806502 -2.7353454e-21 1.1972313e-36)
(0.33105964 0.016183516 -2.1357643e-19 0.0032480173 -2.3750179e-20 7.9657225e-35)
(0.26970399 0.020857175 -7.0360318e-20 0.0033602421 -9.582173e-21 1.2478376e-35)
(0.19767702 0.022243684 6.6459941e-20 0.0035286 1.0956907e-20 1.7600307e-35)
(0.12885456 0.019660073 1.7445624e-19 0.0035058521 3.4081068e-20 2.0769777e-34)
(0.074066891 0.014230637 -4.0810263e-20 0.0029742654 -9.2321864e-21 2.1177909e-35)
(0.038711175 0.0088527257 -4.6670959e-20 0.002160419 -1.2084462e-20 5.5013393e-35)
(0.017847529 0.0047315159 -1.3332023e-20 0.0013567659 -4.1413498e-21 1.0090637e-35)
(5.9402209e-09 -6.0415329e-08 -5.7532527e-24 6.144631e-07 5.7155475e-23 5.4894772e-37)
(6.0736864e-08 -5.9328035e-07 1.9123192e-23 5.7954935e-06 -1.8218966e-22 9.7177715e-37)
(1.973942e-07 -1.8558125e-06 -1.1703116e-23 1.7450172e-05 1.0663495e-22 1.2700753e-37)
(4.5750107e-07 -4.1249174e-06 1.8779006e-24 3.7202823e-05 -1.632004e-23 1.500376e-39)
(8.9910146e-07 -7.7524939e-06 -5.1400284e-23 6.6882549e-05 4.2516784e-22 5.8610441e-37)
(1.6046176e-06 -1.3188843e-05 7.0965902e-23 0.00010849605 -5.5738831e-22 6.2708408e-37)
(2.6901969e-06 -2.1003017e-05 -1.4016954e-22 0.00016417993 1.0423203e-21 1.4418773e-36)
(4.3184585e-06 -3.1904937e-05 8.4399046e-23 0.00023612083 -5.9223476e-22 3.1890411e-37)
(6.7159399e-06 -4.6768721e-05 4.0553854e-22 0.00032643594 -2.6759552e-21 4.6045909e-36)
(1.0196426e-05 -6.6654073e-05 -1.2209259e-22 0.00043700611 7.5483531e-22 2.6585838e-37)
(1.5191787e-05 -9.2822256e-05 -5.7818163e-22 0.0005692577 3.3368777e-21 3.8496932e-36)
(2.2292166e-05 -0.00012674166 2.1829074e-22 0.00072389454 -1.1716478e-21 3.5801691e-37)
(3.2297501e-05 -0.00017007665 1.7964258e-23 0.00090059259 -8.9332016e-23 1.5951996e-39)
(4.6282339e-05 -0.00022465254 -8.6320477e-22 0.0010976852 3.9618692e-21 2.4358805e-36)
(6.5675732e-05 -0.0002923905 3.3037389e-21 0.0013118882 -1.3941187e-20 2.3733504e-35)
(9.235721e-05 -0.00037520851 -2.4740325e-21 0.0015381373 9.5614054e-21 8.8936246e-36)
(0.00012876979 -0.00047489378 -2.8672017e-23 0.0017696326 1.0108919e-22 8.015817e-40)
(0.00017805011 -0.00059296362 2.0176549e-21 0.0019981896 -6.4646042e-21 2.6774784e-36)
(0.00024417647 -0.00073055056 -6.1892057e-21 0.0022149743 1.7952159e-20 1.7083384e-35)
(0.00033214065 -0.00088837162 3.5138526e-21 0.002411632 -9.1926376e-21 3.7580983e-36)
(0.00044815413 -0.0010668517 6.2738555e-21 0.002581695 -1.4751402e-20 8.2395494e-36)
(0.00059990916 -0.0012664623 3.0249649e-21 0.0027219961 -6.3715342e-21 1.3293906e-36)
(0.000796951 -0.0014883107 -1.7708301e-20 0.0028336744 3.3316562e-20 3.197332e-35)
(0.0010513499 -0.0017349986 -1.088276e-20 0.0029223332 1.8243024e-20 8.5754126e-36)
(0.0013783253 -0.002011192 8.2140908e-21 0.00299714 -1.2243825e-20 3.5173682e-36)
(0.0017955508 -0.0023227242 -5.5612756e-21 0.0030686665 7.3603364e-21 1.1759904e-36)
(0.0023288428 -0.0026786059 2.4017535e-20 0.0031444612 -2.819669e-20 1.6248102e-35)
(0.0030115424 -0.003089253 -7.9069596e-21 0.0032296337 8.2266597e-21 1.3219277e-36)
(0.0038802293 -0.0035645297 2.4301723e-20 0.0033318126 -2.2384213e-20 9.4971411e-36)
(0.00498627 -0.0041163077 -1.5586541e-20 0.003453418 1.2696896e-20 3.0096982e-36)
(0.0063947255 -0.0047564956 1.0899761e-20 0.0035937273 -7.8450989e-21 1.1462107e-36)
(0.0081843418 -0.0054954799 -4.5011203e-20 0.0037510806 2.8597668e-20 1.5402861e-35)
(0.010452826 -0.0063432722 7.252468e-21 0.0039228513 -4.0638395e-21 3.1848661e-37)
(0.013318559 -0.0073085088 -4.2805684e-20 0.0041057511 2.1138816e-20 8.9058301e-36)
(0.016922899 -0.0083975222 4.568687e-20 0.0042956647 -1.9865371e-20 8.2305658e-36)
(0.021431388 -0.0096128091 1.625523e-20 0.0044874022 -6.2192056e-21 8.510373e-37)
(0.027033231 -0.010950924 -2.2437751e-19 0.0046745687 7.5401154e-20 1.3423357e-34)
(0.033937652 -0.012399605 -6.459105e-20 0.0048496402 1.9040512e-20 9.2672115e-36)
(0.042365618 -0.013934203 5.8792102e-20 0.0050045214 -1.5162949e-20 6.4649984e-36)
(0.052534701 -0.015513864 -6.3136498e-20 0.005132162 1.4198919e-20 6.334676e-36)
(0.064636154 -0.017079073 1.7668108e-20 0.0052300277 -3.4474739e-21 4.2528462e-37)
(0.078803839 -0.01855358 1.195549e-19 0.0053060513 -2.0096251e-20 1.6914209e-35)
(0.095080913 -0.019854864 -5.9593285e-21 0.0053857936 8.5447612e-22 3.6974384e-38)
(0.11339811 -0.020914655 -4.5965396e-20 0.0055172516 5.5399517e-21 1.9496084e-36)
(0.13358476 -0.021710964 2.3636016e-20 0.0057693702 -2.3243183e-21 4.6798393e-37)
(0.15544356 -0.022301182 -1.2498532e-20 0.0062093198 1.0041473e-21 1.1771138e-37)
(0.17881364 -0.022786819 -3.7284054e-20 0.0068464119 2.2790412e-21 9.8736277e-37)
(0.20359109 -0.02324088 5.8984494e-19 0.0075853941 -2.5753859e-20 2.3535447e-34)
(0.22963239 -0.023621642 -6.7094661e-20 0.0082550803 1.8042133e-21 2.9483021e-36)
(0.256528 -0.023701354 6.2338025e-20 0.0086732322 -7.364855e-22 2.5108416e-36)
(0.28334455 -0.023119446 -5.818109e-19 0.008747386 -1.784971e-21 2.2054516e-34)
(0.30853955 -0.021555628 3.1233159e-19 0.0085271249 5.5350478e-21 6.5591367e-35)
(0.33015373 -0.018863265 2.4833152e-19 0.0081426813 8.1547273e-21 4.3864854e-35)
(0.34612213 -0.015059367 2.2546077e-19 0.0077172044 1.0979609e-20 3.9378227e-35)
(0.35443145 -0.010199766 2.0302652e-19 0.007315885 1.339868e-20 3.5909137e-35)
(0.35302832 -0.0042628549 2.9223715e-19 0.0069441941 2.5025216e-20 8.6905838e-35)
(0.33971578 0.0027950348 -5.2451963e-19 0.0065836387 -5.7035523e-20 3.4132749e-34)
(0.31219824 0.010769645 2.8222243e-19 0.0062803466 3.8595262e-20 1.2726793e-34)
(0.26902227 0.018748086 3.6194801e-19 0.0061578253 6.2080323e-20 2.8900639e-34)
(0.21184509 0.024808566 -2.1602606e-19 0.0063779798 -4.6287207e-20 1.5403595e-34)
(0.14729052 0.02629252 -5.3381133e-20 0.0067631366 -1.4150198e-20 1.5585407e-35)
(0.089184471 0.02245512 -3.4361568e-20 0.0067178521 -1.1046859e-20 1.1816688e-35)
(0.046525805 0.015394578 1.2459162e-19 0.0056367391 4.7478901e-20 3.06023e-34)
(0.021337752 0.0088398482 6.2400373e-20 0.0039928353 2.7949353e-20 1.6510934e-34)
(0.0083363428 0.0042192859 -1.7585701e-21 0.0023983274 -9.7351112e-22 3.2045909e-37)
(1.5385272e-08 -1.2069484e-07 6.699923e-24 9.4683367e-07 -5.1839797e-23 2.7217645e-37)
(1.5143137e-07 -1.163422e-06 -4.5512026e-23 8.9385184e-06 3.4417455e-22 2.0978577e-36)
(4.7569491e-07 -3.5796451e-06 6.1492493e-23 2.6938358e-05 -4.534659e-22 1.3940289e-36)
(1.0628182e-06 -7.8161668e-06 -3.358247e-23 5.7487135e-05 2.410382e-22 1.9903717e-37)
(2.0107701e-06 -1.4422038e-05 -1.64511e-23 0.00010345841 1.1472254e-22 2.5969616e-38)
(3.4494193e-06 -2.4071137e-05 1.8503299e-22 0.00016802256 -1.2511292e-21 1.922304e-36)
(5.5503164e-06 -3.7582176e-05 -5.9765091e-23 0.00025458126 3.90861e-22 1.2326686e-37)
(8.5392948e-06 -5.593842e-05 -1.5903541e-22 0.00036665303 1.0031395e-21 5.5548613e-37)
(1.2712989e-05 -8.0306539e-05 -1.5097521e-23 0.00050769907 9.1562332e-23 3.2681692e-39)
(1.8459988e-05 -0.00011205091 -1.5721785e-22 0.00068087537 9.137173e-22 2.3566867e-37)
(2.6287781e-05 -0.00015273971 2.6799122e-22 0.00088870351 -1.4872859e-21 4.6165534e-37)
(3.6856779e-05 -0.00020413784 -2.2556194e-22 0.0011326588 1.1909281e-21 2.227276e-37)
(5.1022995e-05 -0.00026818103 -1.002626e-21 0.0014126906 5.0165643e-21 3.0190297e-36)
(6.9890841e-05 -0.0003469249 -3.5045643e-23 0.0017267131 1.6549002e-22 2.5431841e-39)
(9.4878044e-05 -0.00044246491 1.105842e-21 0.0020701357 -4.9072676e-21 1.7548417e-36)
(0.00012779485 -0.00055682752 9.3784434e-22 0.0024355435 -3.8936658e-21 8.7707933e-37)
(0.00017093965 -0.00069184006 -9.6432511e-22 0.0028126746 3.7285237e-21 6.4625105e-37)
(0.0002272149 -0.00084900282 1.1030844e-22 0.0031888596 -3.9531985e-22 5.915666e-39)
(0.00030026866 -0.001029404 2.6661525e-21 0.0035500691 -8.8142239e-21 2.4223465e-36)
(0.00039467086 -0.00123374 3.8519238e-21 0.0038826186 -1.1690614e-20 3.5616696e-36)
(0.00051613921 -0.0014625167 -5.1934186e-21 0.0041753962 1.4401565e-20 4.5864453e-36)
(0.00067183507 -0.0017164918 -6.1455729e-21 0.0044222188 1.5499674e-20 4.5807838e-36)
(0.00087075613 -0.001997371 9.6756746e-21 0.0046236737 -2.2099027e-20 8.1672291e-36)
(0.001124373 -0.0023087756 -1.3931543e-20 0.0047876875 2.8702537e-20 1.2297829e-35)
(0.0014475533 -0.0026571829 -2.7921312e-20 0.0049283234 5.1711998e-20 3.6268791e-35)
(0.0018575231 -0.0030506134 7.5627343e-20 0.0050629175 -1.2556134e-19 1.9775549e-34)
(0.0023783005 -0.003500521 -4.7555563e-20 0.0052059199 7.0624042e-20 5.8837544e-35)
(0.0030428103 -0.0040206067 8.0028726e-20 0.0053649142 -1.0611059e-19 1.26904e-34)
(0.003886349 -0.0046235231 -1.1302401e-19 0.0055512256 1.3354947e-19 1.9501791e-34)
(0.0049562728 -0.0053240752 1.4198727e-19 0.0057712089 -1.4925865e-19 2.3979486e-34)
(0.0063148039 -0.0061379958 -1.6456587e-19 0.0060243035 1.5368083e-19 2.5370315e-34)
(0.0080356764 -0.0070784126 3.0937585e-20 0.0063078133 -2.5631354e-20 7.135753e-36)
(0.010210065 -0.008157977 1.1905256e-19 0.0066174325 -8.7404174e-20 8.4774927e-35)
(0.012947853 -0.0093875128 -7.4583625e-20 0.0069475184 4.8466982e-20 2.6953343e-35)
(0.016379316 -0.010774789 2.5832118e-20 0.0072909334 -1.484163e-20 2.6430099e-36)
(0.02065569 -0.012322478 8.3240505e-21 0.0076385449 -4.2233087e-21 2.2645621e-37)
(0.025947884 -0.01402537 1.1312192e-19 0.0079789647 -5.0636315e-20 3.4695928e-35)
(0.032441837 -0.015866554 4.0479891e-20 0.0082986606 -1.5960561e-20 3.7209539e-36)
(0.040328954 -0.017812531 4.4629631e-20 0.00858278 -1.5457353e-20 3.8271779e-36)
(0.049789768 -0.019808178 4.8008774e-20 0.0088179606 -1.4555295e-20 3.7887058e-36)
(0.060969692 -0.021773575 -2.6488006e-19 0.0089984559 6.9942781e-20 9.9601769e-35)
(0.073947341 -0.023607392 1.2513425e-19 0.009136998 -2.8575774e-20 1.9407228e-35)
(0.088703749 -0.025203014 2.1351392e-20 0.0092782358 -4.1899947e-21 4.9621452e-37)
(0.105108 -0.026482048 -2.6068e-19 0.009509079 4.3052565e-20 6.6644059e-35)
(0.12295996 -0.02744756 -1.3904029e-19 0.0099544388 1.9054728e-20 1.7221227e-35)
(0.14208462 -0.028217405 7.1199585e-20 0.01072734 -7.8931549e-21 4.1779843e-36)
(0.16238965 -0.028952914 2.6714188e-19 0.011822098 -2.2944728e-20 5.525382e-35)
(0.18383973 -0.029742908 -1.1862425e-19 0.013058163 7.4676626e-21 1.0444972e-35)
(0.20629832 -0.030480573 3.5006384e-19 0.014124483 -1.4090421e-20 8.8852306e-35)
(0.22925397 -0.030803953 1.9002656e-19 0.014707246 -3.6844597e-21 2.6111307e-35)
(0.25161492 -0.030215591 2.5870672e-19 0.014672789 1.3327148e-22 4.9319169e-35)
(0.27174221 -0.028336059 6.7650908e-19 0.014139641 1.4220927e-20 3.5220058e-34)
(0.28776241 -0.025062666 -5.019511e-19 0.013354677 -2.0947028e-20 2.0795507e-34)
(0.29792752 -0.020499639 1.5476741e-19 0.012531406 9.9673415e-21 2.181028e-35)
(0.30069892 -0.014755507 -2.4654466e-19 0.011773316 -2.1781275e-20 6.3379809e-35)
(0.29459468 -0.0078136792 -2.1295391e-19 0.011083382 -2.4840223e-20 5.6234197e-35)
(0.27802332 0.00039514892 -7.3931741e-20 0.010419059 -1.1131068e-20 8.4588772e-36)
(0.24943772 0.0096359188 -5.8007532e-19 0.0098462993 -1.1131522e-19 6.8986068e-34)
(0.20805418 0.018793647 -1.2966357e-19 0.009570609 -3.178227e-20 4.9194499e-35)
(0.15633994 0.025554215 2.3608419e-19 0.0098832531 7.3814654e-20 2.5447508e-34)
(0.10109941 0.02670051 6.7524635e-20 0.01051388 2.6705312e-20 3.6142103e-35)
(0.055529019 0.021758205 -3.6242065e-20 0.010366475 -1.773318e-20 2.0131034e-35)
(0.02560314 0.013915163 -5.1848494e-20 0.0085436474 -3.0583171e-20 8.6036358e-35)
(0.010134971 0.0072913323 -5.4255843e-20 0.0058731011 -3.7859683e-20 2.0856876e-34)
(0.0034347054 0.0031214921 2.6305473e-21 0.0033892423 2.2474104e-21 1.212828e-36)
(3.1397449e-08 -1.9945296e-07 3.0209899e-23 1.2670313e-06 -1.9014933e-22 2.5268241e-36)
(3.0328434e-07 -1.9057889e-06 2.1538036e-23 1.1975769e-05 -1.3378879e-22 2.2009763e-37)
(9.364099e-07 -5.8169823e-06 -2.8542753e-23 3.6136054e-05 1.7465902e-22 1.4428166e-37)
(2.0525555e-06 -1.2589081e-05 -1.5045376e-22 7.7217825e-05 9.0592325e-22 1.966781e-36)
(3.8049139e-06 -2.3010389e-05 1.1045531e-22 0.00013917057 -6.5362724e-22 5.9026927e-37)
(6.3861575e-06 -3.8019771e-05 -2.0535229e-22 0.00022638708 1.1925081e-21 1.2224948e-36)
(1.0037947e-05 -5.8723787e-05 1.1194791e-22 0.00034363163 -6.3680737e-22 2.2879537e-37)
(1.5062285e-05 -8.6410186e-05 3.2997793e-23 0.00049590437 -1.8348021e-22 1.297393e-38)
(2.1835745e-05 -0.00012255747 -2.2810481e-22 0.0006882284 1.2368542e-21 4.1545691e-37)
(3.0826793e-05 -0.00016883608 -5.9450222e-22 0.0009253374 3.1352875e-21 1.928592e-36)
(4.2617054e-05 -0.00022709791 -3.5828706e-23 0.0012112505 1.8325303e-22 4.8558954e-39)
(5.7927337e-05 -0.00029934931 1.4007067e-21 0.0015487263 -6.92629e-21 5.2054204e-36)
(7.7649673e-05 -0.00038770338 -2.3038482e-21 0.0019386066 1.0976681e-20 9.9532345e-36)
(0.00010288704 -0.00049430833 4.4090973e-21 0.0023790916 -2.0166762e-20 2.5921875e-35)
(0.00013500287 -0.0006212509 -1.3624474e-21 0.0028650264 5.9587497e-21 1.7678577e-36)
(0.00017568345 -0.00077043996 3.4161717e-21 0.0033873395 -1.4225718e-20 7.9650196e-36)
(0.0002270184 -0.00094348636 -4.865935e-21 0.003932829 1.9205206e-20 1.1614046e-35)
(0.00029160432 -0.001141604 3.7167753e-21 0.0044845392 -1.3836724e-20 4.8824856e-36)
(0.00037268307 -0.0013655819 -6.8933793e-22 0.0050229659 2.4082367e-21 1.2137988e-37)
(0.00047432621 -0.0016158871 -3.2747073e-21 0.0055282279 1.0679324e-20 1.9859996e-36)
(0.00060168134 -0.0018929652 9.2965642e-21 0.0059831135 -2.8148147e-20 1.1656017e-35)
(0.00076130222 -0.0021977973 -1.5272559e-20 0.0063765432 4.2701492e-20 2.3038998e-35)