/*--------------------------------*- C++ -*----------------------------------*\
  =========                 |
  \\      /  F ield         | OpenFOAM: The Open Source CFD Toolbox
   \\    /   O peration     | Website:  https://openfoam.org
    \\  /    A nd           | Version:  13
     \\/     M anipulation  |
\*---------------------------------------------------------------------------*/
FoamFile
{
    format      ascii;
    class       volVectorField;
    location    "15.099257";
    object      wallShearStress;
}
// * * * * * * * * * * * * * * * * * * * * * * * * * * * * * * * * * * * * * //

dimensions      [0 2 -2 0 0 0 0];

internalField   uniform (0 0 0);

boundaryField
{
    inlet
    {
        type            calculated;
        value           uniform (0 0 0);
    }
    outlet
    {
        type            calculated;
        value           uniform (0 0 0);
    }
    cylinder
    {
        type            calculated;
        value           nonuniform List<vector> 
132
(
(3.3763509e-05 0.0014013297 -1.1752444e-22)
(0.00017898263 -0.0030822182 3.3521192e-23)
(0.00056929589 -0.0075216409 1.8961606e-21)
(0.0011971411 -0.011772847 -6.6083261e-21)
(0.0020352667 -0.015687582 4.9095848e-21)
(0.0030406926 -0.019120703 1.5935819e-20)
(0.0041558951 -0.021947444 -3.2233668e-21)
(0.0053097366 -0.024062951 -1.3645196e-20)
(0.0064241525 -0.025387262 1.3707093e-20)
(0.0074159296 -0.025876489 -3.2575871e-20)
(0.008202186 -0.025521141 -6.2335566e-22)
(0.0087067133 -0.024350276 2.2201343e-20)
(0.0088686186 -0.022437853 3.7382022e-20)
(0.0086544605 -0.019912312 -3.1030271e-20)
(0.008066178 -0.016950014 3.3057604e-20)
(0.0071458995 -0.01376246 5.3342447e-20)
(0.0059744294 -0.010573843 -3.4769296e-20)
(0.0046600552 -0.0075967504 5.515247e-20)
(0.0033230214 -0.0049992496 7.1832952e-20)
(0.0020759935 -0.0028882702 -4.5819029e-20)
(0.0010005781 -0.0012930992 -5.7428613e-20)
(0.00014653153 -0.00018797102 1.9871509e-23)
(-0.00049275451 0.00052372037 8.0925613e-21)
(-0.00094078898 0.00093356996 -9.5753967e-21)
(-0.001239718 0.0011371976 -1.6122173e-20)
(-0.0013242329 0.0011194885 3.4138268e-21)
(-0.0011483056 0.00089441863 -3.0517424e-20)
(-0.00045133234 0.0003300365 8.0711058e-21)
(0.000687435 -0.000428157 6.3045691e-21)
(0.0019130177 -0.0010981074 -4.3354315e-20)
(0.0029004275 -0.0015014502 5.6712201e-20)
(0.0034361482 -0.0015844851 1.7203816e-21)
(0.0036776108 -0.001489901 1.2411681e-20)
(0.003812935 -0.0013339856 -1.4686287e-20)
(0.0039456525 -0.0011658492 4.6564069e-20)
(0.0039648953 -0.00095943191 -2.9391441e-21)
(0.0036843056 -0.000697194 1.1842883e-20)
(0.0028946575 -0.00039786682 -1.6263949e-21)
(0.0013795215 -0.00012478988 2.3387423e-21)
(-0.001095718 1.0607558e-05 -1.4659708e-21)
(-0.0049213775 -0.00016747119 2.7608248e-21)
(-0.010236169 -0.00096087139 -8.6305668e-23)
(-0.016693527 -0.0025778784 3.2149734e-20)
(-0.023921058 -0.0051768103 -1.2603118e-20)
(-0.031370169 -0.0087896822 1.1565952e-20)
(-0.038525768 -0.013340434 -7.5457217e-20)
(-0.044900017 -0.018645526 -1.2330387e-20)
(-0.05012144 -0.024448702 1.0931496e-19)
(-0.053936677 -0.030459373 -9.3770261e-20)
(-0.056249483 -0.036400179 -1.7913231e-21)
(-0.057019862 -0.041980391 2.8379126e-20)
(-0.056356752 -0.046983332 -2.5385021e-20)
(-0.054346298 -0.051164427 -4.7681878e-21)
(-0.051172077 -0.054357032 -2.6962888e-21)
(-0.04707012 -0.056464868 -1.8893333e-21)
(-0.042223149 -0.057355542 -6.0553132e-21)
(-0.036873884 -0.056990787 7.5290003e-22)
(-0.031249362 -0.055349587 5.493264e-20)
(-0.025575982 -0.052452514 -8.0414055e-20)
(-0.020069405 -0.048353649 -8.3905119e-20)
(-0.01493029 -0.043139071 -3.3610514e-20)
(-0.010339997 -0.036924374 -7.6412852e-20)
(-0.0064564561 -0.029850759 1.6956684e-20)
(-0.0034090655 -0.02208217 2.4585745e-20)
(-0.0013023757 -0.013811769 -3.8128456e-20)
(-0.00019436971 -0.0052046585 -5.0878197e-21)
(0.00013133297 0.0058336859 -5.4784335e-22)
(0.00046602866 0.010159171 -3.3639074e-23)
(0.0010321228 0.014280278 -2.017273e-21)
(0.0018056722 0.018057729 7.1520976e-21)
(0.0027481055 0.02135397 -5.3784358e-21)
(0.0038072319 0.024051665 -1.7570873e-20)
(0.0049169506 0.026050964 3.5596639e-21)
(0.0060049399 0.027275374 1.5028439e-20)
(0.0069925659 0.027680851 -1.5009406e-20)
(0.0078004737 0.027255827 3.538656e-20)
(0.0083538904 0.026023873 6.7092977e-22)
(0.0085908929 0.02405188 -2.3646483e-20)
(0.0084726317 0.021457343 -3.9401754e-20)
(0.0079927811 0.018407765 3.2377088e-20)
(0.0071806085 0.015103842 -3.4176551e-20)
(0.0061047142 0.011767488 -5.4709087e-20)
(0.004861252 0.0086122869 3.543998e-20)
(0.0035620855 0.0058141085 -5.596902e-20)
(0.0023187378 0.0034950789 -7.2709689e-20)
(0.0012192777 0.0017039898 4.6331513e-20)
(0.00031993096 0.00042588837 5.8081256e-20)
(-0.0003644856 -0.00041567538 5.1253171e-20)
(-0.00085700279 -0.00092088899 4.1574986e-20)
(-0.0011951418 -0.0011894646 9.7126216e-21)
(-0.001391285 -0.0012783544 1.6362214e-20)
(-0.0013440726 -0.0011389339 -3.4639479e-21)
(-0.00091810372 -0.00071952936 3.0975777e-20)
(2.2433901e-05 2.5569041e-06 -8.2130918e-21)
(0.0012792551 0.00080777132 -6.4306148e-21)
(0.0024449675 0.0014080802 4.4359621e-20)
(0.0032315045 0.0016754579 -5.8095016e-20)
(0.00360491 0.0016635829 -1.7530495e-21)
(0.003771749 0.0015283428 2.8940494e-20)
(0.0039132586 0.0013691048 1.506487e-20)
(0.0040341341 0.0011922918 -4.7834718e-20)
(0.0039815078 0.00096418897 3.025497e-21)
(0.0035619543 0.00067532448 8.9106048e-21)
(0.002567302 0.00035529716 1.6821471e-21)
(0.00077931491 7.8046286e-05 -2.4247651e-21)
(-0.0020472281 -3.3026528e-05 1.5229367e-21)
(-0.0062871785 0.00021368906 -2.8722112e-21)
(-0.012009478 0.0011241102 2.3669075e-20)
(-0.018813062 0.0029022001 -3.3375709e-20)
(-0.02626847 0.0056817974 1.3038151e-20)
(-0.033795439 0.0094662944 -1.1910578e-20)
(-0.040932229 0.014171327 7.7292579e-20)
(-0.047151571 0.019578054 1.2547687e-20)
(-0.052137261 0.025428851 -1.1050447e-19)
(-0.055674993 0.031437961 9.4041628e-20)
(-0.057677985 0.03732167 1.7807556e-21)
(-0.058136854 0.042799962 -2.7889214e-20)
(-0.057181689 0.047668399 2.4559943e-20)
(-0.054890156 0.051673699 -3.6132876e-20)
(-0.051467718 0.054668524 2.3621953e-21)
(-0.047164597 0.056575513 -6.3517858e-22)
(-0.042137719 0.057236651 7.418182e-21)
(-0.036654655 0.056648925 -8.2944112e-22)
(-0.030931926 0.054783929 -5.8504494e-20)
(-0.025197365 0.051672064 8.4172529e-20)
(-0.019664117 0.047372327 8.6861467e-20)
(-0.014529675 0.041975245 3.4517162e-20)
(-0.0099720485 0.035601579 7.7980285e-20)
(-0.0061446752 0.028395424 -1.7213192e-20)
(-0.0031722984 0.020525174 4.9267971e-20)
(-0.0011542114 0.012180324 3.8360315e-20)
(-0.00014559434 0.0035505178 5.1009845e-21)
)
;
    }
    frontAndBack
    {
        type            empty;
    }
}


// ************************************************************************* //
