/*--------------------------------*- C++ -*----------------------------------*\
  =========                 |
  \\      /  F ield         | OpenFOAM: The Open Source CFD Toolbox
   \\    /   O peration     | Website:  https://openfoam.org
    \\  /    A nd           | Version:  13
     \\/     M anipulation  |
\*---------------------------------------------------------------------------*/
FoamFile
{
    format      ascii;
    class       surfaceScalarField;
    location    "3700";
    object      phi;
}
// * * * * * * * * * * * * * * * * * * * * * * * * * * * * * * * * * * * * * //

dimensions      [0 3 -1 0 0 0 0];

internalField   nonuniform List<scalar> 
49450
(
9.24405e-11
3.98541e-12
9.24015e-11
3.90123e-14
9.23628e-11
3.86645e-14
9.23271e-11
3.57214e-14
9.23001e-11
2.69883e-14
9.22812e-11
1.89552e-14
9.22702e-11
1.10054e-14
9.22658e-11
4.38561e-15
9.22686e-11
-2.79566e-15
9.22765e-11
-7.91318e-15
9.229e-11
-1.3467e-14
9.23077e-11
-1.77453e-14
9.23298e-11
-2.20585e-14
9.23556e-11
-2.57843e-14
9.2385e-11
-2.94419e-14
9.24172e-11
-3.21727e-14
9.24521e-11
-3.48447e-14
9.24885e-11
-3.63874e-14
9.25264e-11
-3.79505e-14
9.25647e-11
-3.82711e-14
9.26034e-11
-3.86976e-14
9.26412e-11
-3.78215e-14
9.26783e-11
-3.70978e-14
9.27134e-11
-3.51096e-14
9.27466e-11
-3.32285e-14
9.2777e-11
-3.03092e-14
9.28042e-11
-2.72544e-14
9.28278e-11
-2.35558e-14
9.28475e-11
-1.97089e-14
9.28625e-11
-1.50518e-14
9.28716e-11
-9.13236e-15
9.28755e-11
-3.82754e-15
9.28747e-11
7.61056e-16
9.28692e-11
5.52732e-15
9.2859e-11
1.01562e-14
9.28442e-11
1.48239e-14
9.28252e-11
1.90054e-14
9.28022e-11
2.30054e-14
9.27757e-11
2.64337e-14
9.27463e-11
2.93722e-14
9.27145e-11
3.18353e-14
9.26812e-11
3.32655e-14
9.26467e-11
3.44678e-14
9.26129e-11
3.38049e-14
9.25799e-11
3.30379e-14
9.25503e-11
2.95292e-14
9.25248e-11
2.55809e-14
9.25047e-11
2.00708e-14
9.24871e-11
1.76107e-14
1.90312e-14
6.73408e-10
4.19729e-12
6.73123e-10
3.23437e-13
6.72841e-10
3.21414e-13
6.72584e-10
2.92751e-13
6.72389e-10
2.21778e-13
6.72255e-10
1.52511e-13
6.72181e-10
8.56163e-14
6.72159e-10
2.66855e-14
6.72189e-10
-3.26104e-14
6.72259e-10
-7.85837e-14
6.72371e-10
-1.2511e-13
6.72517e-10
-1.62989e-13
6.72694e-10
-1.99658e-13
6.72901e-10
-2.32001e-13
6.73134e-10
-2.62292e-13
6.73387e-10
-2.85889e-13
6.7366e-10
-3.07097e-13
6.73944e-10
-3.20474e-13
6.74238e-10
-3.31477e-13
6.74534e-10
-3.34392e-13
6.7483e-10
-3.34913e-13
6.7512e-10
-3.27616e-13
6.754e-10
-3.17707e-13
6.75666e-10
-3.00916e-13
6.75914e-10
-2.80841e-13
6.7614e-10
-2.56036e-13
6.76339e-10
-2.26284e-13
6.7651e-10
-1.9475e-13
6.76649e-10
-1.58726e-13
6.76753e-10
-1.19582e-13
6.76813e-10
-6.92814e-14
6.76834e-10
-2.50176e-14
6.76819e-10
1.61539e-14
6.76769e-10
5.5779e-14
6.76682e-10
9.65608e-14
6.76562e-10
1.35174e-13
6.76409e-10
1.71625e-13
6.76227e-10
2.04814e-13
6.76019e-10
2.3422e-13
6.7579e-10
2.58826e-13
6.75542e-10
2.79224e-13
6.75283e-10
2.91813e-13
6.75017e-10
3.00429e-13
6.74755e-10
2.96206e-13
6.745e-10
2.8732e-13
6.7427e-10
2.59345e-13
6.74072e-10
2.2431e-13
6.73911e-10
1.8099e-13
6.73772e-10
1.56628e-13
1.70884e-13
1.23363e-09
4.60403e-12
1.23313e-09
8.24743e-13
1.23265e-09
8.02011e-13
1.23222e-09
7.14954e-13
1.23191e-09
5.36372e-13
1.2317e-09
3.59615e-13
1.2316e-09
1.89089e-13
1.23159e-09
3.19506e-14
1.23168e-09
-1.21713e-13
1.23185e-09
-2.46514e-13
1.23209e-09
-3.68428e-13
1.2324e-09
-4.70803e-13
1.23277e-09
-5.67386e-13
1.23319e-09
-6.53885e-13
1.23366e-09
-7.3226e-13
1.23417e-09
-7.94512e-13
1.23471e-09
-8.47281e-13
1.23527e-09
-8.81321e-13
1.23585e-09
-9.05631e-13
1.23642e-09
-9.10713e-13
1.23699e-09
-9.06111e-13
1.23755e-09
-8.82876e-13
1.23808e-09
-8.49955e-13
1.23858e-09
-8.00387e-13
1.23904e-09
-7.40574e-13
1.23945e-09
-6.68619e-13
1.23981e-09
-5.84102e-13
1.24011e-09
-4.94074e-13
1.24035e-09
-3.944e-13
1.24051e-09
-2.8518e-13
1.24059e-09
-1.51113e-13
1.2406e-09
-2.9717e-14
1.24053e-09
8.07294e-14
1.2404e-09
1.87384e-13
1.2402e-09
2.95977e-13
1.23994e-09
3.9836e-13
1.23962e-09
4.94383e-13
1.23924e-09
5.81022e-13
1.23882e-09
6.57081e-13
1.23835e-09
7.20186e-13
1.23786e-09
7.70765e-13
1.23735e-09
8.02263e-13
1.23683e-09
8.20359e-13
1.23632e-09
8.09159e-13
1.23582e-09
7.81873e-13
1.23537e-09
7.12575e-13
1.23497e-09
6.22728e-13
1.23464e-09
5.17986e-13
1.23434e-09
4.51995e-13
4.76963e-13
1.7166e-09
5.19465e-12
1.71594e-09
1.48543e-12
1.71536e-09
1.38689e-12
1.71487e-09
1.20424e-12
1.71452e-09
8.85285e-13
1.71431e-09
5.72166e-13
1.71423e-09
2.66807e-13
1.71429e-09
-2.71184e-14
1.71448e-09
-3.12303e-13
1.71479e-09
-5.50224e-13
1.7152e-09
-7.79034e-13
1.7157e-09
-9.74165e-13
1.71629e-09
-1.15563e-12
1.71695e-09
-1.31913e-12
1.71769e-09
-1.46383e-12
1.71847e-09
-1.57911e-12
1.7193e-09
-1.67242e-12
1.72015e-09
-1.73177e-12
1.72101e-09
-1.76841e-12
1.72187e-09
-1.7704e-12
1.72271e-09
-1.74997e-12
1.72353e-09
-1.69605e-12
1.7243e-09
-1.62043e-12
1.72501e-09
-1.5148e-12
1.72566e-09
-1.38796e-12
1.72623e-09
-1.23852e-12
1.72671e-09
-1.06623e-12
1.7271e-09
-8.82827e-13
1.72739e-09
-6.84854e-13
1.72757e-09
-4.67459e-13
1.72763e-09
-2.0818e-13
1.72757e-09
2.95551e-14
1.72741e-09
2.41015e-13
1.72715e-09
4.45727e-13
1.72679e-09
6.51692e-13
1.72635e-09
8.44946e-13
1.72582e-09
1.02436e-12
1.72521e-09
1.18465e-12
1.72455e-09
1.32331e-12
1.72383e-09
1.43669e-12
1.72308e-09
1.5242e-12
1.7223e-09
1.57722e-12
1.72152e-09
1.60188e-12
1.72075e-09
1.5775e-12
1.72001e-09
1.52097e-12
1.71933e-09
1.39863e-12
1.71871e-09
1.24092e-12
1.71816e-09
1.06476e-12
1.71767e-09
9.39061e-13
9.54813e-13
2.1006e-09
5.93791e-12
2.09984e-09
2.2465e-12
2.09922e-09
2.00037e-12
2.09874e-09
1.68665e-12
2.09842e-09
1.20699e-12
2.09825e-09
7.43762e-13
2.09823e-09
2.85176e-13
2.09838e-09
-1.74511e-13
2.09869e-09
-6.20381e-13
2.09913e-09
-9.98661e-13
2.09972e-09
-1.36008e-12
2.10041e-09
-1.67087e-12
2.10121e-09
-1.95734e-12
2.10211e-09
-2.21595e-12
2.10309e-09
-2.44076e-12
2.10413e-09
-2.61923e-12
2.10521e-09
-2.7582e-12
2.10633e-09
-2.84399e-12
2.10745e-09
-2.88883e-12
2.10856e-09
-2.87975e-12
2.10964e-09
-2.83042e-12
2.11067e-09
-2.7292e-12
2.11164e-09
-2.58978e-12
2.11253e-09
-2.40392e-12
2.11332e-09
-2.18236e-12
2.11401e-09
-1.92535e-12
2.11458e-09
-1.63309e-12
2.11502e-09
-1.32295e-12
2.11533e-09
-9.9428e-13
2.11549e-09
-6.33654e-13
2.1155e-09
-2.11932e-13
2.11535e-09
1.76558e-13
2.11507e-09
5.16294e-13
2.11467e-09
8.45427e-13
2.11415e-09
1.17311e-12
2.11352e-09
1.47897e-12
2.11278e-09
1.7602e-12
2.11196e-09
2.00897e-12
2.11106e-09
2.22101e-12
2.1101e-09
2.39149e-12
2.10911e-09
2.5182e-12
2.1081e-09
2.59153e-12
2.10708e-09
2.61699e-12
2.10609e-09
2.57206e-12
2.10513e-09
2.4765e-12
2.10423e-09
2.29421e-12
2.10341e-09
2.06438e-12
2.10266e-09
1.81696e-12
2.10198e-09
1.61699e-12
1.59446e-12
2.40005e-09
6.80053e-12
2.39922e-09
3.07154e-12
2.39861e-09
2.61056e-12
2.39817e-09
2.13585e-12
2.39789e-09
1.48227e-12
2.39777e-09
8.62625e-13
2.39782e-09
2.38801e-13
2.39805e-09
-4.08428e-13
2.39847e-09
-1.03686e-12
2.39905e-09
-1.57643e-12
2.39978e-09
-2.0905e-12
2.40064e-09
-2.53472e-12
2.40163e-09
-2.94182e-12
2.40272e-09
-3.3093e-12
2.4039e-09
-3.62433e-12
2.40516e-09
-3.87308e-12
2.40646e-09
-4.06053e-12
2.40779e-09
-4.17224e-12
2.40912e-09
-4.22037e-12
2.41043e-09
-4.19206e-12
2.4117e-09
-4.1015e-12
2.41291e-09
-3.93769e-12
2.41404e-09
-3.71545e-12
2.41506e-09
-3.42795e-12
2.41597e-09
-3.08736e-12
2.41674e-09
-2.69672e-12
2.41736e-09
-2.25684e-12
2.41783e-09
-1.79166e-12
2.41814e-09
-1.30509e-12
2.41828e-09
-7.72229e-13
2.41823e-09
-1.58291e-13
2.41799e-09
4.08511e-13
2.41761e-09
8.98639e-13
2.41708e-09
1.37301e-12
2.41641e-09
1.84139e-12
2.41562e-09
2.2765e-12
2.4147e-09
2.67335e-12
2.41369e-09
3.02133e-12
2.4126e-09
3.31406e-12
2.41144e-09
3.5457e-12
2.41025e-09
3.71194e-12
2.40904e-09
3.80313e-12
2.40783e-09
3.82346e-12
2.40665e-09
3.75119e-12
2.40552e-09
3.60854e-12
2.40445e-09
3.36196e-12
2.40346e-09
3.05938e-12
2.40253e-09
2.74423e-12
2.40169e-09
2.45878e-12
2.37005e-12
2.63908e-09
7.75652e-12
2.6382e-09
3.94326e-12
2.6376e-09
3.21308e-12
2.63718e-09
2.55328e-12
2.63695e-09
1.71557e-12
2.63688e-09
9.35217e-13
2.63698e-09
1.36243e-13
2.63729e-09
-7.15805e-13
2.6378e-09
-1.54358e-12
2.63848e-09
-2.26094e-12
2.63933e-09
-2.94351e-12
2.64033e-09
-3.53513e-12
2.64147e-09
-4.07521e-12
2.64272e-09
-4.56223e-12
2.64407e-09
-4.97518e-12
2.6455e-09
-5.29941e-12
2.64697e-09
-5.53716e-12
2.64848e-09
-5.67388e-12
2.64998e-09
-5.72088e-12
2.65145e-09
-5.66625e-12
2.65287e-09
-5.52403e-12
2.65422e-09
-5.28479e-12
2.65547e-09
-4.96394e-12
2.6566e-09
-4.55709e-12
2.65759e-09
-4.07747e-12
2.65842e-09
-3.53187e-12
2.65909e-09
-2.92187e-12
2.65958e-09
-2.27879e-12
2.65988e-09
-1.61236e-12
2.65999e-09
-8.84183e-13
2.65989e-09
-5.51745e-14
2.65959e-09
7.11361e-13
2.65912e-09
1.3697e-12
2.65848e-09
2.00567e-12
2.6577e-09
2.6296e-12
2.65677e-09
3.20691e-12
2.65571e-09
3.73004e-12
2.65455e-09
4.18547e-12
2.65329e-09
4.56441e-12
2.65198e-09
4.86012e-12
2.65063e-09
5.06591e-12
2.64926e-09
5.17277e-12
2.6479e-09
5.18307e-12
2.64657e-09
5.07791e-12
2.6453e-09
4.88164e-12
2.64409e-09
4.56742e-12
2.64296e-09
4.19193e-12
2.64189e-09
3.81208e-12
2.64092e-09
3.43236e-12
3.25487e-12
2.83819e-09
8.78784e-12
2.83728e-09
4.85435e-12
2.83668e-09
3.81341e-12
2.83629e-09
2.94902e-12
2.83608e-09
1.91802e-12
2.83605e-09
9.72501e-13
2.83619e-09
-1.11525e-14
2.83656e-09
-1.08262e-12
2.83714e-09
-2.12328e-12
2.83791e-09
-3.03205e-12
2.83886e-09
-3.89608e-12
2.83998e-09
-4.64657e-12
2.84123e-09
-5.32978e-12
2.84261e-09
-5.94498e-12
2.8441e-09
-6.46209e-12
2.84567e-09
-6.86597e-12
2.84728e-09
-7.15546e-12
2.84893e-09
-7.31638e-12
2.85056e-09
-7.35864e-12
2.85217e-09
-7.27186e-12
2.85372e-09
-7.06947e-12
2.85518e-09
-6.74429e-12
2.85652e-09
-6.31197e-12
2.85774e-09
-5.77129e-12
2.8588e-09
-5.13635e-12
2.85968e-09
-4.4185e-12
2.86038e-09
-3.62009e-12
2.86088e-09
-2.78067e-12
2.86119e-09
-1.91657e-12
2.86128e-09
-9.74606e-13
2.86114e-09
8.71679e-14
2.86078e-09
1.07035e-12
2.86023e-09
1.9116e-12
2.85952e-09
2.72243e-12
2.85863e-09
3.51394e-12
2.8576e-09
4.24398e-12
2.85642e-09
4.90212e-12
2.85514e-09
5.47177e-12
2.85376e-09
5.94157e-12
2.85232e-09
6.30393e-12
2.85083e-09
6.54956e-12
2.84933e-09
6.67056e-12
2.84785e-09
6.66715e-12
2.8464e-09
6.52471e-12
2.84502e-09
6.2695e-12
2.8437e-09
5.88452e-12
2.84246e-09
5.4353e-12
2.84128e-09
4.99217e-12
2.8402e-09
4.51102e-12
4.22774e-12
3.01155e-09
9.88256e-12
3.01061e-09
5.80161e-12
3.01e-09
4.41809e-12
3.00962e-09
3.33289e-12
3.00944e-09
2.09988e-12
3.00942e-09
9.83933e-13
3.00961e-09
-1.94044e-13
3.01002e-09
-1.49775e-12
3.01066e-09
-2.76283e-12
3.0115e-09
-3.87473e-12
3.01254e-09
-4.93131e-12
3.01374e-09
-5.85047e-12
3.0151e-09
-6.68556e-12
3.01659e-09
-7.43626e-12
3.01819e-09
-8.06287e-12
3.01988e-09
-8.54999e-12
3.02161e-09
-8.89255e-12
3.02337e-09
-9.07708e-12
3.02513e-09
-9.11167e-12
3.02684e-09
-8.98796e-12
3.02849e-09
-8.71838e-12
3.03005e-09
-8.29852e-12
3.03148e-09
-7.74405e-12
3.03276e-09
-7.05749e-12
3.03388e-09
-6.2537e-12
3.03481e-09
-5.34918e-12
3.03554e-09
-4.34719e-12
3.03605e-09
-3.29617e-12
3.03636e-09
-2.21945e-12
3.03643e-09
-1.04856e-12
3.03626e-09
2.60102e-13
3.03585e-09
1.47392e-12
3.03526e-09
2.51063e-12
3.03447e-09
3.50749e-12
3.03351e-09
4.47681e-12
3.03238e-09
5.36853e-12
3.03112e-09
6.16919e-12
3.02973e-09
6.85902e-12
3.02825e-09
7.42387e-12
3.02669e-09
7.85539e-12
3.0251e-09
8.1415e-12
3.0235e-09
8.27571e-12
3.02191e-09
8.25589e-12
3.02036e-09
8.07264e-12
3.01888e-09
7.75403e-12
3.01747e-09
7.29525e-12
3.01613e-09
6.77071e-12
3.01486e-09
6.26425e-12
3.01369e-09
5.67556e-12
5.27367e-12
3.16817e-09
1.10327e-11
3.16719e-09
6.78335e-12
3.16658e-09
5.03227e-12
3.1662e-09
3.71223e-12
3.16603e-09
2.26867e-12
3.16604e-09
9.7635e-13
3.16625e-09
-4.05672e-13
3.16671e-09
-1.95327e-12
3.1674e-09
-3.45302e-12
3.1683e-09
-4.77852e-12
3.16941e-09
-6.03749e-12
3.17069e-09
-7.13403e-12
3.17213e-09
-8.12877e-12
3.17372e-09
-9.02146e-12
3.17542e-09
-9.76232e-12
3.1772e-09
-1.03359e-11
3.17904e-09
-1.07328e-11
3.18091e-09
-1.09405e-11
3.18276e-09
-1.09651e-11
3.18457e-09
-1.08004e-11
3.18631e-09
-1.04577e-11
3.18795e-09
-9.93562e-12
3.18946e-09
-9.24988e-12
3.19081e-09
-8.4071e-12
3.19197e-09
-7.42282e-12
3.19294e-09
-6.31929e-12
3.1937e-09
-5.10066e-12
3.19423e-09
-3.82497e-12
3.19453e-09
-2.52264e-12
3.19459e-09
-1.10997e-12
3.19439e-09
4.57368e-13
3.19395e-09
1.91386e-12
3.19331e-09
3.15711e-12
3.19246e-09
4.34983e-12
3.19144e-09
5.50595e-12
3.19024e-09
6.56732e-12
3.18889e-09
7.51722e-12
3.18742e-09
8.33265e-12
3.18584e-09
8.9965e-12
3.1842e-09
9.49969e-12
3.18251e-09
9.82719e-12
3.18081e-09
9.97415e-12
3.17913e-09
9.9359e-12
3.1775e-09
9.70894e-12
3.17593e-09
9.32304e-12
3.17444e-09
8.78743e-12
3.17302e-09
8.1854e-12
3.17167e-09
7.61451e-12
3.17043e-09
6.91289e-12
6.38247e-12
3.31375e-09
1.22329e-11
3.31273e-09
7.79849e-12
3.31211e-09
5.65959e-12
3.31173e-09
4.09216e-12
3.31156e-09
2.4296e-12
3.31159e-09
9.54446e-13
3.31182e-09
-6.41331e-13
3.31231e-09
-2.44365e-12
3.31305e-09
-4.18749e-12
3.31401e-09
-5.73618e-12
3.31517e-09
-7.20651e-12
3.31653e-09
-8.4884e-12
3.31805e-09
-9.64991e-12
3.31972e-09
-1.06905e-11
3.32151e-09
-1.15499e-11
3.32338e-09
-1.22129e-11
3.32532e-09
-1.26654e-11
3.32727e-09
-1.28961e-11
3.32922e-09
-1.29086e-11
3.33111e-09
-1.26993e-11
3.33294e-09
-1.22783e-11
3.33465e-09
-1.16475e-11
3.33622e-09
-1.08224e-11
3.33763e-09
-9.81428e-12
3.33884e-09
-8.63923e-12
3.33985e-09
-7.32572e-12
3.34063e-09
-5.87893e-12
3.34117e-09
-4.36702e-12
3.34147e-09
-2.82746e-12
3.34153e-09
-1.16169e-12
3.34131e-09
6.74589e-13
3.34084e-09
2.38447e-12
3.34015e-09
3.84432e-12
3.33926e-09
5.24181e-12
3.33817e-09
6.59292e-12
3.33691e-09
7.83121e-12
3.33549e-09
8.93657e-12
3.33394e-09
9.88269e-12
3.33229e-09
1.06493e-11
3.33056e-09
1.12267e-11
3.32879e-09
1.15967e-11
3.32701e-09
1.17562e-11
3.32525e-09
1.1698e-11
3.32353e-09
1.14249e-11
3.32188e-09
1.09682e-11
3.32032e-09
1.03528e-11
3.31883e-09
9.6707e-12
3.31741e-09
9.03352e-12
3.31611e-09
8.21407e-12
7.54718e-12
3.45195e-09
1.34791e-11
3.4509e-09
8.84627e-12
3.45026e-09
6.30257e-12
3.44988e-09
4.47623e-12
3.44972e-09
2.58623e-12
3.44975e-09
9.21418e-13
3.45001e-09
-8.97735e-13
3.45053e-09
-2.96502e-12
3.45131e-09
-4.96175e-12
3.45231e-09
-6.74263e-12
3.45354e-09
-8.43268e-12
3.45496e-09
-9.90735e-12
3.45655e-09
-1.12423e-11
3.4583e-09
-1.24362e-11
3.46016e-09
-1.34183e-11
3.46212e-09
-1.41735e-11
3.46414e-09
-1.46828e-11
3.46618e-09
-1.49363e-11
3.46821e-09
-1.4935e-11
3.47019e-09
-1.46781e-11
3.47208e-09
-1.4174e-11
3.47386e-09
-1.34285e-11
3.4755e-09
-1.24568e-11
3.47696e-09
-1.12749e-11
3.47822e-09
-9.89978e-12
3.47926e-09
-8.36637e-12
3.48006e-09
-6.68094e-12
3.48062e-09
-4.92232e-12
3.48092e-09
-3.13495e-12
3.48097e-09
-1.20579e-12
3.48073e-09
9.08691e-13
3.48024e-09
2.88177e-12
3.47951e-09
4.56753e-12
3.47858e-09
6.17805e-12
3.47744e-09
7.73178e-12
3.47612e-09
9.15381e-12
3.47463e-09
1.04205e-11
3.47301e-09
1.15021e-11
3.47129e-09
1.23752e-11
3.46948e-09
1.30293e-11
3.46764e-09
1.3443e-11
3.46578e-09
1.36152e-11
3.46394e-09
1.35358e-11
3.46215e-09
1.32143e-11
3.46044e-09
1.26838e-11
3.4588e-09
1.19855e-11
3.45725e-09
1.12205e-11
3.45577e-09
1.05147e-11
3.45441e-09
9.57288e-12
8.76294e-12
3.58526e-09
1.47688e-11
3.58418e-09
9.92612e-12
3.58352e-09
6.963e-12
3.58313e-09
4.86692e-12
3.58297e-09
2.74103e-12
3.58301e-09
8.79474e-13
3.58329e-09
-1.17256e-12
3.58384e-09
-3.51459e-12
3.58465e-09
-5.77262e-12
3.5857e-09
-7.79422e-12
3.58698e-09
-9.71189e-12
3.58846e-09
-1.13864e-11
3.59012e-09
-1.2901e-11
3.59193e-09
-1.42535e-11
3.59388e-09
-1.53622e-11
3.59592e-09
-1.62122e-11
3.59801e-09
-1.67796e-11
3.60013e-09
-1.70558e-11
3.60224e-09
-1.70391e-11
3.60429e-09
-1.67316e-11
3.60626e-09
-1.61402e-11
3.6081e-09
-1.52744e-11
3.6098e-09
-1.41494e-11
3.61131e-09
-1.27861e-11
3.61261e-09
-1.12022e-11
3.61368e-09
-9.43971e-12
3.61451e-09
-7.50596e-12
3.61508e-09
-5.49093e-12
3.61539e-09
-3.44586e-12
3.61542e-09
-1.24381e-12
3.61518e-09
1.15746e-12
3.61465e-09
3.40288e-12
3.6139e-09
5.32333e-12
3.61292e-09
7.1547e-12
3.61174e-09
8.91826e-12
3.61036e-09
1.05305e-11
3.60882e-09
1.19641e-11
3.60713e-09
1.31859e-11
3.60534e-09
1.4169e-11
3.60346e-09
1.49023e-11
3.60155e-09
1.53611e-11
3.59962e-09
1.55462e-11
3.59771e-09
1.54446e-11
3.59585e-09
1.50728e-11
3.59407e-09
1.44655e-11
3.59237e-09
1.36814e-11
3.59076e-09
1.28306e-11
3.58922e-09
1.20534e-11
3.58781e-09
1.09849e-11
1.00263e-11
3.71539e-09
1.60996e-11
3.71428e-09
1.10376e-11
3.7136e-09
7.6422e-12
3.7132e-09
5.26604e-12
3.71305e-09
2.8958e-12
3.7131e-09
8.30179e-13
3.71339e-09
-1.46414e-12
3.71396e-09
-4.09035e-12
3.71481e-09
-6.61777e-12
3.7159e-09
-8.88828e-12
3.71723e-09
-1.10411e-11
3.71877e-09
-1.29222e-11
3.72049e-09
-1.46225e-11
3.72237e-09
-1.61385e-11
3.72439e-09
-1.73775e-11
3.7265e-09
-1.83249e-11
3.72867e-09
-1.89515e-11
3.73087e-09
-1.92505e-11
3.73305e-09
-1.9217e-11
3.73517e-09
-1.88562e-11
3.73721e-09
-1.81736e-11
3.73911e-09
-1.71823e-11
3.74086e-09
-1.58976e-11
3.74242e-09
-1.43457e-11
3.74376e-09
-1.2545e-11
3.74487e-09
-1.05447e-11
3.74572e-09
-8.35346e-12
3.7463e-09
-6.07292e-12
3.74661e-09
-3.76082e-12
3.74665e-09
-1.27689e-12
3.74638e-09
1.41924e-12
3.74584e-09
3.94567e-12
3.74506e-09
6.1092e-12
3.74404e-09
8.16891e-12
3.74281e-09
1.01492e-11
3.74138e-09
1.19579e-11
3.73978e-09
1.35639e-11
3.73804e-09
1.49304e-11
3.73618e-09
1.6027e-11
3.73424e-09
1.68421e-11
3.73225e-09
1.73474e-11
3.73025e-09
1.75458e-11
3.72828e-09
1.74211e-11
3.72635e-09
1.69972e-11
3.72451e-09
1.63103e-11
3.72275e-09
1.54375e-11
3.72109e-09
1.44978e-11
3.71949e-09
1.36463e-11
3.71803e-09
1.2447e-11
1.13346e-11
3.84361e-09
1.74702e-11
3.84247e-09
1.21804e-11
3.84177e-09
8.34116e-12
3.84136e-09
5.67493e-12
3.84121e-09
3.05184e-12
3.84126e-09
7.74659e-13
3.84157e-09
-1.77125e-12
3.84217e-09
-4.69078e-12
3.84305e-09
-7.49544e-12
3.84418e-09
-1.00228e-11
3.84556e-09
-1.24181e-11
3.84715e-09
-1.45123e-11
3.84893e-09
-1.64041e-11
3.85088e-09
-1.80884e-11
3.85296e-09
-1.94612e-11
3.85515e-09
-2.05085e-11
3.85739e-09
-2.11957e-11
3.85966e-09
-2.15173e-11
3.86191e-09
-2.14658e-11
3.8641e-09
-2.10491e-11
3.8662e-09
-2.02714e-11
3.86817e-09
-1.91498e-11
3.86997e-09
-1.76995e-11
3.87157e-09
-1.59519e-11
3.87296e-09
-1.39267e-11
3.87409e-09
-1.16804e-11
3.87496e-09
-9.22312e-12
3.87556e-09
-6.66837e-12
3.87588e-09
-4.08032e-12
3.87591e-09
-1.30595e-12
3.87563e-09
1.69277e-12
3.87507e-09
4.50853e-12
3.87426e-09
6.92324e-12
3.87321e-09
9.21852e-12
3.87193e-09
1.14223e-11
3.87046e-09
1.34335e-11
3.8688e-09
1.52171e-11
3.867e-09
1.67328e-11
3.86508e-09
1.79465e-11
3.86308e-09
1.88458e-11
3.86103e-09
1.9399e-11
3.85896e-09
1.96111e-11
3.85692e-09
1.94627e-11
3.85493e-09
1.8985e-11
3.85303e-09
1.82161e-11
3.85121e-09
1.72517e-11
3.84949e-09
1.62198e-11
3.84785e-09
1.52907e-11
3.84634e-09
1.39566e-11
1.26861e-11
3.97087e-09
1.88792e-11
3.9697e-09
1.33543e-11
3.96898e-09
9.06067e-12
3.96856e-09
6.09462e-12
3.9684e-09
3.21015e-12
3.96846e-09
7.13733e-13
3.96878e-09
-2.093e-12
3.96941e-09
-5.31475e-12
3.97031e-09
-8.40431e-12
3.97149e-09
-1.11962e-11
3.97291e-09
-1.38411e-11
3.97455e-09
-1.61547e-11
3.97639e-09
-1.82437e-11
3.97841e-09
-2.01009e-11
3.98056e-09
-2.16111e-11
3.98281e-09
-2.27608e-11
3.98512e-09
-2.35096e-11
3.98746e-09
-2.3854e-11
3.98978e-09
-2.37831e-11
3.99203e-09
-2.33083e-11
3.9942e-09
-2.24319e-11
3.99622e-09
-2.11752e-11
3.99807e-09
-1.95534e-11
3.99973e-09
-1.76037e-11
4.00115e-09
-1.53466e-11
4.00231e-09
-1.28464e-11
4.0032e-09
-1.01147e-11
4.00381e-09
-7.27739e-12
4.00414e-09
-4.40477e-12
4.00416e-09
-1.3317e-12
4.00388e-09
1.97707e-12
4.0033e-09
5.09019e-12
4.00246e-09
7.76396e-12
4.00137e-09
1.03019e-11
4.00006e-09
1.27357e-11
3.99854e-09
1.49554e-11
3.99683e-09
1.69217e-11
3.99497e-09
1.85909e-11
3.993e-09
1.99251e-11
3.99093e-09
2.09113e-11
3.98882e-09
2.1514e-11
3.98669e-09
2.17402e-11
3.98458e-09
2.15675e-11
3.98253e-09
2.10345e-11
3.98057e-09
2.0181e-11
3.9787e-09
1.91221e-11
3.97692e-09
1.79949e-11
3.97523e-09
1.69847e-11
3.97367e-09
1.55121e-11
1.40793e-11
4.0979e-09
2.03256e-11
4.0967e-09
1.45591e-11
4.09595e-09
9.80137e-12
4.09552e-09
6.52594e-12
4.09536e-09
3.37147e-12
4.09543e-09
6.48009e-13
4.09576e-09
-2.4287e-12
4.09641e-09
-5.9614e-12
4.09735e-09
-9.34335e-12
4.09856e-09
-1.24073e-11
4.10003e-09
-1.53087e-11
4.10172e-09
-1.7848e-11
4.10362e-09
-2.01396e-11
4.10569e-09
-2.21744e-11
4.1079e-09
-2.38254e-11
4.11022e-09
-2.50798e-11
4.11261e-09
-2.58915e-11
4.11501e-09
-2.62587e-11
4.11739e-09
-2.61673e-11
4.11972e-09
-2.5632e-11
4.12194e-09
-2.46534e-11
4.12402e-09
-2.32571e-11
4.12593e-09
-2.14584e-11
4.12762e-09
-1.93001e-11
4.12908e-09
-1.68039e-11
4.13028e-09
-1.40422e-11
4.13119e-09
-1.1028e-11
4.13181e-09
-7.90009e-12
4.13214e-09
-4.73452e-12
4.13216e-09
-1.35471e-12
4.13187e-09
2.27135e-12
4.13127e-09
5.68967e-12
4.1304e-09
8.6302e-12
4.12929e-09
1.14177e-11
4.12794e-09
1.4088e-11
4.12637e-09
1.65219e-11
4.12462e-09
1.86761e-11
4.1227e-09
2.05032e-11
4.12067e-09
2.19614e-11
4.11854e-09
2.30369e-11
4.11637e-09
2.36905e-11
4.11417e-09
2.39314e-11
4.11201e-09
2.3734e-11
4.1099e-09
2.31442e-11
4.10787e-09
2.22037e-11
4.10595e-09
2.10475e-11
4.10412e-09
1.98216e-11
4.10238e-09
1.8727e-11
4.10078e-09
1.71121e-11
1.55131e-11
4.2253e-09
2.18089e-11
4.22406e-09
1.57948e-11
4.2233e-09
1.05638e-11
4.22285e-09
6.96954e-12
4.22269e-09
3.53639e-12
4.22276e-09
5.77934e-13
4.22311e-09
-2.77785e-12
4.22378e-09
-6.63004e-12
4.22475e-09
-1.03118e-11
4.22599e-09
-1.36552e-11
4.2275e-09
-1.68198e-11
4.22925e-09
-1.95909e-11
4.2312e-09
-2.20906e-11
4.23333e-09
-2.43073e-11
4.23561e-09
-2.61025e-11
4.23799e-09
-2.74641e-11
4.24044e-09
-2.83399e-11
4.24291e-09
-2.873e-11
4.24536e-09
-2.8617e-11
4.24775e-09
-2.80189e-11
4.25003e-09
-2.69347e-11
4.25217e-09
-2.53945e-11
4.25412e-09
-2.34134e-11
4.25586e-09
-2.10404e-11
4.25736e-09
-1.82982e-11
4.25858e-09
-1.52675e-11
4.25952e-09
-1.19631e-11
4.26015e-09
-8.53662e-12
4.26049e-09
-5.0699e-12
4.26051e-09
-1.37549e-12
4.26021e-09
2.57496e-12
4.25959e-09
6.30615e-12
4.2587e-09
9.52103e-12
4.25755e-09
1.25649e-11
4.25616e-09
1.5478e-11
4.25455e-09
1.81319e-11
4.25275e-09
2.04791e-11
4.25078e-09
2.24684e-11
4.24869e-09
2.40539e-11
4.24651e-09
2.52213e-11
4.24427e-09
2.59274e-11
4.24202e-09
2.61837e-11
4.23979e-09
2.5961e-11
4.23762e-09
2.53131e-11
4.23554e-09
2.42834e-11
4.23356e-09
2.3027e-11
4.23168e-09
2.16991e-11
4.2299e-09
2.05164e-11
4.22825e-09
1.87554e-11
1.69866e-11
4.35355e-09
2.33283e-11
4.35228e-09
1.70612e-11
4.35149e-09
1.13485e-11
4.35104e-09
7.42598e-12
4.35087e-09
3.70538e-12
4.35094e-09
5.03843e-13
4.35131e-09
-3.14005e-12
4.352e-09
-7.32014e-12
4.35299e-09
-1.13089e-11
4.35428e-09
-1.49391e-11
4.35583e-09
-1.83737e-11
4.35762e-09
-2.13825e-11
4.35963e-09
-2.40956e-11
4.36182e-09
-2.64986e-11
4.36416e-09
-2.84414e-11
4.36661e-09
-2.99124e-11
4.36912e-09
-3.08535e-11
4.37166e-09
-3.12667e-11
4.37417e-09
-3.1131e-11
4.37662e-09
-3.0468e-11
4.37896e-09
-2.92751e-11
4.38115e-09
-2.75865e-11
4.38316e-09
-2.54179e-11
4.38494e-09
-2.2824e-11
4.38647e-09
-1.9829e-11
4.38773e-09
-1.65221e-11
4.38868e-09
-1.29198e-11
4.38933e-09
-9.18711e-12
4.38967e-09
-5.41119e-12
4.38969e-09
-1.39444e-12
4.38938e-09
2.88736e-12
4.38875e-09
6.93897e-12
4.38783e-09
1.04357e-11
4.38666e-09
1.37427e-11
4.38523e-09
1.69048e-11
4.38358e-09
1.97845e-11
4.38172e-09
2.23297e-11
4.37971e-09
2.44854e-11
4.37756e-09
2.62016e-11
4.37532e-09
2.74635e-11
4.37302e-09
2.82237e-11
4.37071e-09
2.8496e-11
4.36842e-09
2.82477e-11
4.3662e-09
2.75402e-11
4.36406e-09
2.64192e-11
4.36203e-09
2.50598e-11
4.3601e-09
2.36266e-11
4.35826e-09
2.2352e-11
4.35658e-09
2.04412e-11
1.84992e-11
4.48306e-09
2.48834e-11
4.48177e-09
1.83584e-11
4.48096e-09
1.21558e-11
4.48049e-09
7.89573e-12
4.48032e-09
3.87882e-12
4.48039e-09
4.2598e-13
4.48077e-09
-3.51502e-12
4.48148e-09
-8.03128e-12
4.48251e-09
-1.23343e-11
4.48383e-09
-1.62584e-11
4.48542e-09
-1.99696e-11
4.48726e-09
-2.3222e-11
4.48932e-09
-2.61538e-11
4.49157e-09
-2.87475e-11
4.49397e-09
-3.08411e-11
4.49648e-09
-3.24239e-11
4.49906e-09
-3.34315e-11
4.50166e-09
-3.38679e-11
4.50424e-09
-3.37085e-11
4.50675e-09
-3.29786e-11
4.50915e-09
-3.16736e-11
4.51139e-09
-2.98325e-11
4.51344e-09
-2.74712e-11
4.51527e-09
-2.46505e-11
4.51684e-09
-2.13962e-11
4.51812e-09
-1.78059e-11
4.5191e-09
-1.38982e-11
4.51977e-09
-9.85172e-12
4.52011e-09
-5.75866e-12
4.52013e-09
-1.41195e-12
4.51981e-09
3.20808e-12
4.51916e-09
7.58758e-12
4.51822e-09
1.13736e-11
4.51702e-09
1.49504e-11
4.51555e-09
1.83679e-11
4.51386e-09
2.14789e-11
4.51196e-09
2.4227e-11
4.50989e-09
2.65535e-11
4.50769e-09
2.84039e-11
4.50539e-09
2.97627e-11
4.50304e-09
3.05787e-11
4.50066e-09
3.08675e-11
4.49832e-09
3.05933e-11
4.49603e-09
2.98251e-11
4.49384e-09
2.86105e-11
4.49176e-09
2.71455e-11
4.48978e-09
2.56035e-11
4.4879e-09
2.42332e-11
4.48617e-09
2.2169e-11
2.00504e-11
4.61421e-09
2.64739e-11
4.61288e-09
1.96864e-11
4.61205e-09
1.29863e-11
4.61157e-09
8.3792e-12
4.61139e-09
4.05702e-12
4.61147e-09
3.44525e-13
4.61186e-09
-3.90254e-12
4.61259e-09
-8.76314e-12
4.61364e-09
-1.33875e-11
4.615e-09
-1.76127e-11
4.61664e-09
-2.16069e-11
4.61852e-09
-2.51089e-11
4.62063e-09
-2.82644e-11
4.62294e-09
-3.10531e-11
4.6254e-09
-3.33009e-11
4.62797e-09
-3.49978e-11
4.63061e-09
-3.60732e-11
4.63328e-09
-3.65329e-11
4.63592e-09
-3.63488e-11
4.63849e-09
-3.55498e-11
4.64095e-09
-3.41297e-11
4.64325e-09
-3.2132e-11
4.64535e-09
-2.9573e-11
4.64722e-09
-2.65197e-11
4.64882e-09
-2.29995e-11
4.65013e-09
-1.91189e-11
4.65113e-09
-1.48985e-11
4.65181e-09
-1.05306e-11
4.65217e-09
-6.11255e-12
4.65218e-09
-1.42833e-12
4.65185e-09
3.53675e-12
4.65119e-09
8.2515e-12
4.65023e-09
1.23341e-11
4.64899e-09
1.61875e-11
4.64749e-09
1.98664e-11
4.64576e-09
2.32145e-11
4.64382e-09
2.61705e-11
4.6417e-09
2.86719e-11
4.63944e-09
3.06599e-11
4.63709e-09
3.21183e-11
4.63467e-09
3.29916e-11
4.63224e-09
3.32978e-11
4.62984e-09
3.29974e-11
4.6275e-09
3.21672e-11
4.62525e-09
3.0857e-11
4.62311e-09
2.92835e-11
4.62109e-09
2.76293e-11
4.61916e-09
2.61594e-11
4.61739e-09
2.39381e-11
2.16397e-11
4.7473e-09
2.80995e-11
4.74594e-09
2.10453e-11
4.74509e-09
1.38401e-11
4.74459e-09
8.87677e-12
4.74441e-09
4.24022e-12
4.74449e-09
2.59603e-13
4.74489e-09
-4.30244e-12
4.74564e-09
-9.51545e-12
4.74672e-09
-1.44682e-11
4.74811e-09
-1.90015e-11
4.74979e-09
-2.32851e-11
4.75173e-09
-2.70425e-11
4.75389e-09
-3.04269e-11
4.75625e-09
-3.34149e-11
4.75877e-09
-3.58201e-11
4.7614e-09
-3.76334e-11
4.76411e-09
-3.87778e-11
4.76684e-09
-3.9261e-11
4.76954e-09
-3.90514e-11
4.77217e-09
-3.81814e-11
4.77469e-09
-3.6643e-11
4.77704e-09
-3.44847e-11
4.77919e-09
-3.1723e-11
4.7811e-09
-2.84314e-11
4.78274e-09
-2.46389e-11
4.78408e-09
-2.0461e-11
4.7851e-09
-1.59206e-11
4.7858e-09
-1.1224e-11
4.78616e-09
-6.4731e-12
4.78617e-09
-1.44388e-12
4.78584e-09
3.873e-12
4.78516e-09
8.93034e-12
4.78417e-09
1.33169e-11
4.78291e-09
1.74534e-11
4.78137e-09
2.14e-11
4.7796e-09
2.49907e-11
4.77761e-09
2.81597e-11
4.77544e-09
3.08402e-11
4.77313e-09
3.29692e-11
4.77072e-09
3.45298e-11
4.76825e-09
3.5462e-11
4.76576e-09
3.57863e-11
4.7633e-09
3.54594e-11
4.7609e-09
3.45661e-11
4.7586e-09
3.31583e-11
4.75641e-09
3.14736e-11
4.75433e-09
2.97039e-11
4.75236e-09
2.81303e-11
4.75055e-09
2.57482e-11
2.32669e-11
4.88262e-09
2.97601e-11
4.88123e-09
2.24351e-11
4.88035e-09
1.47177e-11
4.87984e-09
9.38877e-12
4.87965e-09
4.42865e-12
4.87974e-09
1.71298e-13
4.88015e-09
-4.7146e-12
4.88093e-09
-1.0288e-11
4.88203e-09
-1.55762e-11
4.88346e-09
-2.04245e-11
4.88518e-09
-2.5004e-11
4.88716e-09
-2.90224e-11
4.88937e-09
-3.26409e-11
4.89179e-09
-3.58323e-11
4.89436e-09
-3.83982e-11
4.89706e-09
-4.03302e-11
4.89983e-09
-4.15448e-11
4.90262e-09
-4.20518e-11
4.90538e-09
-4.18157e-11
4.90808e-09
-4.08727e-11
4.91065e-09
-3.92132e-11
4.91305e-09
-3.68903e-11
4.91525e-09
-3.3921e-11
4.9172e-09
-3.03853e-11
4.91888e-09
-2.63143e-11
4.92025e-09
-2.18323e-11
4.92129e-09
-1.69647e-11
4.922e-09
-1.1932e-11
4.92237e-09
-6.84054e-12
4.92238e-09
-1.45885e-12
4.92204e-09
4.21654e-12
4.92135e-09
9.62374e-12
4.92034e-09
1.43216e-11
4.91905e-09
1.87478e-11
4.91748e-09
2.29683e-11
4.91566e-09
2.68073e-11
4.91363e-09
3.0194e-11
4.91141e-09
3.3058e-11
4.90905e-09
3.53314e-11
4.90658e-09
3.69967e-11
4.90405e-09
3.79896e-11
4.90151e-09
3.83327e-11
4.89899e-09
3.79792e-11
4.89653e-09
3.70216e-11
4.89418e-09
3.55142e-11
4.89193e-09
3.37157e-11
4.88981e-09
3.18269e-11
4.8878e-09
3.01455e-11
4.88595e-09
2.7599e-11
2.49318e-11
5.02043e-09
3.14554e-11
5.01901e-09
2.3856e-11
5.01811e-09
1.56194e-11
5.01758e-09
9.91548e-12
5.01739e-09
4.62248e-12
5.01748e-09
7.96621e-14
5.0179e-09
-5.13895e-12
5.0187e-09
-1.10806e-11
5.01983e-09
-1.67111e-11
5.02129e-09
-2.18814e-11
5.02305e-09
-2.67631e-11
5.02507e-09
-3.10484e-11
5.02734e-09
-3.49059e-11
5.02981e-09
-3.8305e-11
5.03245e-09
-4.10349e-11
5.03521e-09
-4.30879e-11
5.03804e-09
-4.4374e-11
5.04089e-09
-4.4905e-11
5.04371e-09
-4.46415e-11
5.04647e-09
-4.36236e-11
5.04909e-09
-4.184e-11
5.05155e-09
-3.93485e-11
5.0538e-09
-3.61668e-11
5.05579e-09
-3.23816e-11
5.0575e-09
-2.80257e-11
5.0589e-09
-2.32329e-11
5.05997e-09
-1.80309e-11
5.06069e-09
-1.26548e-11
5.06107e-09
-7.21507e-12
5.06108e-09
-1.47351e-12
5.06073e-09
4.56709e-12
5.06002e-09
1.03314e-11
5.059e-09
1.53478e-11
5.05768e-09
2.00704e-11
5.05607e-09
2.45708e-11
5.05422e-09
2.86637e-11
5.05214e-09
3.22733e-11
5.04987e-09
3.53249e-11
5.04746e-09
3.77462e-11
5.04493e-09
3.95188e-11
5.04235e-09
4.0574e-11
5.03974e-09
4.09367e-11
5.03717e-09
4.05563e-11
5.03466e-09
3.95334e-11
5.03225e-09
3.79246e-11
5.02995e-09
3.60096e-11
5.02778e-09
3.39982e-11
5.02572e-09
3.2205e-11
5.02383e-09
2.94903e-11
2.66341e-11
5.16098e-09
3.31855e-11
5.15953e-09
2.53081e-11
5.1586e-09
1.65456e-11
5.15806e-09
1.04572e-11
5.15786e-09
4.82185e-12
5.15795e-09
-1.52827e-14
5.15839e-09
-5.57543e-12
5.1592e-09
-1.18932e-11
5.16037e-09
-1.7873e-11
5.16186e-09
-2.33721e-11
5.16365e-09
-2.85622e-11
5.16573e-09
-3.312e-11
5.16804e-09
-3.72215e-11
5.17057e-09
-4.08325e-11
5.17326e-09
-4.37296e-11
5.17608e-09
-4.5906e-11
5.17897e-09
-4.72649e-11
5.18189e-09
-4.78201e-11
5.18478e-09
-4.75285e-11
5.18759e-09
-4.64338e-11
5.19027e-09