/*--------------------------------*- C++ -*----------------------------------*\
  =========                 |
  \\      /  F ield         | OpenFOAM: The Open Source CFD Toolbox
   \\    /   O peration     | Website:  https://openfoam.org
    \\  /    A nd           | Version:  13
     \\/     M anipulation  |
\*---------------------------------------------------------------------------*/
FoamFile
{
    format      ascii;
    class       volScalarField;
    location    "43.298259";
    object      pMean;
}
// * * * * * * * * * * * * * * * * * * * * * * * * * * * * * * * * * * * * * //

dimensions      [0 2 -2 0 0 0 0];

internalField   nonuniform List<scalar> 
17140
(
0.91702061
0.91694856
0.91686163
0.9167731
0.91667752
0.91657348
0.91646092
0.91633963
0.9162094
0.91607002
0.91592136
0.91576323
0.91559528
0.9154169
0.91522688
0.91502315
0.91480221
0.91455854
0.91428375
0.91396553
0.91358631
0.91312168
0.91253788
0.91178886
0.91082087
0.90958889
0.90806452
0.90621524
0.90398344
0.90129376
0.89806273
0.89419641
0.88959195
0.88414077
0.877732
0.87025728
0.86161641
0.85172491
0.84052584
0.82800754
0.81422547
0.79932971
0.78360461
0.76749434
0.75162933
0.73682543
0.72390965
0.71371631
0.7070781
0.70467383
0.70696646
0.71422198
0.7265736
0.74374746
0.76545037
0.79063645
0.8188646
0.8481244
0.87928457
0.90839001
0.94028877
0.96618687
0.99841768
1.0129415
1.0401086
0.91587253
0.91580184
0.91571658
0.91562977
0.91553602
0.91543393
0.91532343
0.91520437
0.91507652
0.91493972
0.91479382
0.91463867
0.91447395
0.91429909
0.91411295
0.91391351
0.91369738
0.91345915
0.91319055
0.91287941
0.91250834
0.91205309
0.91148019
0.91074393
0.90979019
0.90857306
0.90706416
0.90523147
0.90301722
0.90034555
0.89713279
0.89328472
0.88869812
0.8832638
0.8768703
0.86940851
0.86077746
0.85089176
0.83969351
0.82717
0.8133757
0.79846006
0.78270647
0.76656132
0.75066382
0.73581131
0.72284349
0.71262635
0.70596982
0.70353821
0.70580979
0.7130524
0.72538324
0.74254338
0.76424397
0.78944123
0.81771844
0.84707674
0.8783706
0.90758951
0.93942808
0.96505585
0.99694912
1.01129
1.0388376
0.91306334
0.91299606
0.91291509
0.91283243
0.91274305
0.91264565
0.91254026
0.91242669
0.91230467
0.9121741
0.9120349
0.91188697
0.91173007
0.91156371
0.91138692
0.91119785
0.91099332
0.91076819
0.91051451
0.91022046
0.90986904
0.90943645
0.90888987
0.90818444
0.90726535
0.90608461
0.90461292
0.90281882
0.90064527
0.89801615
0.89484676
0.89104239
0.88649879
0.88110549
0.87474949
0.86731993
0.8587138
0.84884355
0.83764908
0.82511546
0.81129516
0.79633706
0.78052515
0.7643139
0.74834983
0.73341417
0.72036171
0.71007544
0.70337047
0.70090455
0.70313684
0.71032486
0.72259379
0.73969205
0.76132734
0.7864682
0.8147134
0.84408507
0.87543347
0.90477346
0.93672651
0.96234906
0.99428559
1.0087647
1.036986
0.90864572
0.90858394
0.9085098
0.90843361
0.90835115
0.90826131
0.90816402
0.90805911
0.90794635
0.90782568
0.90769712
0.90756061
0.90741604
0.90726309
0.90710097
0.90692811
0.90674167
0.90653692
0.9063064
0.90603882
0.90571783
0.90532034
0.90481451
0.90415682
0.90329198
0.90216892
0.90075558
0.89902102
0.89691055
0.89434791
0.89124666
0.88751127
0.88303607
0.87770863
0.87141355
0.86403727
0.85547372
0.84563207
0.83444879
0.82190556
0.80805239
0.79303757
0.77714674
0.76084594
0.74478822
0.7297409
0.71658364
0.7062096
0.69944003
0.69692654
0.69910945
0.70622517
0.71839533
0.73537721
0.75687922
0.78186655
0.80996634
0.83926556
0.87062001
0.90007161
0.93228331
0.9583023
0.99069522
1.0057166
1.0347715
0.90276148
0.90270711
0.90264216
0.90257477
0.90250173
0.90242207
0.90233569
0.90224245
0.90214223
0.90203499
0.90192077
0.90179964
0.90167162
0.90153658
0.90139398
0.9012426
0.90108002
0.90090203
0.90070179
0.90046877
0.90018744
0.89983569
0.89938296
0.89878749
0.8979945
0.89694906
0.89561367
0.89395763
0.89193052
0.8894564
0.88644637
0.88280392
0.87842155
0.8731844
0.8669741
0.8596736
0.85117283
0.8413767
0.8302173
0.81767202
0.80378788
0.78871247
0.77273578
0.75633795
0.74017073
0.72500476
0.71174071
0.70127749
0.69445088
0.69189801
0.69403497
0.70107322
0.71313115
0.72996746
0.75128443
0.77604945
0.80396509
0.83316392
0.86454126
0.89424706
0.92685354
0.95356442
0.9866734
1.0024606
1.0323616
0.8956455
0.89560023
0.89554654
0.89549002
0.8954286
0.89536152
0.89528866
0.8952099
0.89512516
0.89503446
0.89493791
0.89483566
0.89472789
0.89461465
0.89449567
0.8943701
0.89423598
0.89408971
0.89392519
0.89373275
0.8934979
0.89319975
0.89280917
0.89228659
0.89157958
0.890629
0.8893882
0.88782631
0.88589926
0.88353185
0.88063296
0.87710455
0.87283721
0.86771336
0.86161119
0.85440958
0.84599385
0.83626384
0.82514628
0.81261349
0.79870903
0.78358005
0.76752335
0.75103362
0.73475818
0.71948627
0.70612709
0.69558779
0.68871901
0.6861471
0.68825842
0.69523617
0.70718982
0.72386848
0.74496949
0.76947142
0.79714302
0.82623477
0.85769563
0.88785836
0.92110861
0.94879089
0.98276699
0.9993284
1.0300141
0.88761603
0.88758114
0.8875398
0.88749589
0.887448
0.88739553
0.88733837
0.88727644
0.88720969
0.88713819
0.88706209
0.88698165
0.88689713
0.88680878
0.88671657
0.88661997
0.88651751
0.88640622
0.88628074
0.8861324
0.88594785
0.88570759
0.88538419
0.88494036
0.88432676
0.8834825
0.88235149
0.88089729
0.87908069
0.87683213
0.87405964
0.87066201
0.86652812
0.86153763
0.85556521
0.84848538
0.84017837
0.83053829
0.81948583
0.80698771
0.79308378
0.77792142
0.76180661
0.74524431
0.72888351
0.71353146
0.7000935
0.6894921
0.68259518
0.68002185
0.68212943
0.68907345
0.70094787
0.71749499
0.73840261
0.76266691
0.79011935
0.81916591
0.85083916
0.88166217
0.91580987
0.94466944
0.97937074
0.99656668
1.0276355
0.87905882
0.87903528
0.87900724
0.87897723
0.87894428
0.87890796
0.87886818
0.87882488
0.87877804
0.87872777
0.87867425
0.87861778
0.87855872
0.87849739
0.87843397
0.8783682
0.87829903
0.87822402
0.87813858
0.87803498
0.87790109
0.87771891
0.87746286
0.87709796
0.8765781
0.8758451
0.87483505
0.87349738
0.87179548
0.86967139
0.86703387
0.86377808
0.85979116
0.8549501
0.84912622
0.8421897
0.8340155
0.82449171
0.81353253
0.80109885
0.78722673
0.77206502
0.75593023
0.73932882
0.72292034
0.70752027
0.69402006
0.68336217
0.67644025
0.67387816
0.67600558
0.6829423
0.69477037
0.71122688
0.73199473
0.75609917
0.78344035
0.81256686
0.84462978
0.87630324
0.91152087
0.94158784
0.97671624
0.99434889
1.0255623
0.87040367
0.87039204
0.87037797
0.87036261
0.87034543
0.87032619
0.87030481
0.87028126
0.87025556
0.8702278
0.87019819
0.87016703
0.87013468
0.87010152
0.87006781
0.87003344
0.86999765
0.86995841
0.86991177
0.86985085
0.86976469
0.86963675
0.86944337
0.869152
0.86871955
0.86809153
0.86720378
0.86599218
0.86440769
0.86240365
0.85990127
0.85679162
0.85295838
0.84827737
0.84261688
0.83584299
0.82782556
0.81844664
0.80761409
0.79528308
0.78148636
0.7663748
0.7502743
0.73368776
0.7172881
0.70188246
0.68834389
0.6776405
0.67070182
0.66815651
0.67030633
0.67725318
0.68907395
0.7054882
0.72617878
0.75020592
0.77756133
0.80696042
0.83964229
0.87258852
0.90900963
0.94005429
0.97523018
0.99296761
1.0235397
0.86209408
0.86209437
0.86209432
0.86209369
0.86209243
0.86209047
0.86208776
0.86208428
0.86208008
0.86207525
0.86206998
0.86206452
0.8620592
0.86205434
0.86205018
0.86204663
0.86204301
0.86203756
0.86202673
0.86200433
0.86196032
0.86187951
0.86174004
0.86151172
0.86115452
0.86061741
0.85983916
0.85875265
0.85729292
0.85540368
0.85302226
0.85005422
0.84637793
0.84186346
0.8363771
0.82978218
0.82194448
0.8127412
0.80207474
0.78989555
0.77623402
0.76124347
0.74525349
0.72876489
0.71245578
0.69710962
0.68358761
0.67288399
0.66595155
0.66342152
0.66560203
0.67258649
0.68442614
0.70083028
0.72149146
0.74556137
0.77312709
0.80317877
0.83692753
0.87112723
0.90837893
0.93984229
0.97429117
0.99183909
1.0215776
0.85455007
0.85456171
0.85457501
0.85458849
0.85460252
0.85461722
0.85463256
0.85464856
0.85466528
0.85468281
0.8547013
0.85472095
0.85474196
0.85476456
0.85478882
0.85481457
0.85484103
0.85486645
0.85488745
0.85489824
0.85488945
0.85484698
0.85475045
0.85457179
0.85427381
0.85380895
0.85311924
0.85213856
0.85079801
0.84903058
0.8467659
0.84391969
0.84038589
0.83603666
0.83073222
0.82433266
0.81670098
0.80771061
0.79726066
0.78529868
0.77185437
0.75708334
0.7413072
0.72503118
0.70893111
0.6937565
0.68036184
0.66974217
0.6628565
0.66036554
0.66256697
0.6695361
0.68136146
0.69776264
0.71846346
0.7427201
0.77074649
0.80161506
0.83633743
0.87142842
0.90893464
0.94019851
0.97396174
0.9914216
1.0197143
0.84812997
0.84815172
0.84817697
0.84820313
0.84823098
0.8482608
0.84829262
0.8483265
0.84836251
0.84840075
0.84844134
0.8484844
0.84853002
0.84857826
0.84862901
0.84868185
0.84873578
0.84878887
0.84883767
0.84887645
0.84889622
0.84888355
0.84881919
0.84867676
0.84842143
0.8480089
0.84738485
0.84648523
0.84524069
0.84358042
0.8414304
0.83870745
0.83530973
0.8311172
0.82599561
0.81980547
0.81240848
0.80367668
0.79350671
0.78184535
0.76872213
0.75429266
0.73887135
0.72296095
0.70721363
0.6923576
0.67923386
0.66880872
0.66204292
0.6595481
0.66166106
0.66852117
0.68025534
0.69661576
0.71738943
0.74194301
0.77053737
0.80222166
0.83772166
0.87328405
0.91066776
0.9416883
0.97424346
0.99153206
1.0181762
0.8430923
0.8431223
0.84315732
0.84319394
0.84323327
0.84327575
0.84332146
0.84337052
0.84342305
0.84347919
0.84353903
0.84360265
0.84367006
0.84374116
0.84381564
0.84389284
0.8439715
0.8440494
0.84412285
0.84418602
0.84422999
0.84424165
0.84420243
0.84408714
0.84386271
0.84348731
0.84291015
0.84207178
0.84090313
0.83932966
0.83728017
0.83467327
0.83141052
0.82737997
0.82245244
0.81649224
0.80936311
0.80094
0.7911252
0.77986264
0.76718129
0.75323296
0.73832808
0.72295143
0.70771796
0.6933321
0.68061878
0.67050876
0.66384621
0.66128217
0.66322071
0.66990413
0.68147969
0.69778228
0.71867194
0.74356845
0.77283438
0.80525398
0.84133493
0.8769246
0.91370327
0.94362149
0.97505485
0.99176249
1.0165463
0.83956657
0.83960237
0.83964435
0.83968851
0.83973619
0.839788
0.83984408
0.83990463
0.83996985
0.84003991
0.84011495
0.84019505
0.8402802
0.84037023
0.84046471
0.84056281
0.84066307
0.84076306
0.84085889
0.84094457
0.84101117
0.84104578
0.84103025
0.84094005
0.84074319
0.84039961
0.83986068
0.83906978
0.83796361
0.83647495
0.83450403
0.83200584
0.82888301
0.82502218
0.82030473
0.81460452
0.80779444
0.7997529
0.79037526
0.77961743
0.76750853
0.75419134
0.7399613
0.72527226
0.71070578
0.69693034
0.68474421
0.67494815
0.66837253
0.66570985
0.66742891
0.67386284
0.68525639
0.70151946
0.72251944
0.74783047
0.77761427
0.81072673
0.84679254
0.88197551
0.91734261
0.94642839
0.97592185
0.99201263
1.0151568
0.83753023
0.83756904
0.83761481
0.83766307
0.83771545
0.83777264
0.83783488
0.83790243
0.83797559
0.83805463
0.83813976
0.83823114
0.83832882
0.83843267
0.83854228
0.83865682
0.83877484
0.8388939
0.83901014
0.83911766
0.83920777
0.83926788
0.83928037
0.83922144
0.83905997
0.83875675
0.83826471
0.83752955
0.83648913
0.83507888
0.83325189
0.83087108
0.82785089
0.82417987
0.81970392
0.81430464
0.80785935
0.80025581
0.79140558
0.78126837
0.7698626
0.75732121
0.74391168
0.73004567
0.71626447
0.70320352
0.69153934
0.68204427
0.6755538
0.67274652
0.67421315
0.68039762
0.69162197
0.7078218
0.72891718
0.75461072
0.78503914
0.81826582
0.85385595
0.88792387
0.9219199
0.94921123
0.97704006
0.99221989
1.0138788
0.83683227
0.83687129
0.83691768
0.83696649
0.83701968
0.83707805
0.83714188
0.83721154
0.83728741
0.83736987
0.83745926
0.83755585
0.83765985
0.83777128
0.8378899
0.83801512
0.8381457
0.83827955
0.83841324
0.83854141
0.83865607
0.83874562
0.83879357
0.83877729
0.83866687
0.8384243
0.83800329
0.83734977
0.83640281
0.83509838
0.8333724
0.8311254
0.8283403
0.82487105
0.82063469
0.81557572
0.80956058
0.80248574
0.79427201
0.78486565
0.77428716
0.76264851
0.75017733
0.73724014
0.72432372
0.7119693
0.70080785
0.6916079
0.68514909
0.6822043
0.68343967
0.68941465
0.70047434
0.71654785
0.73785223
0.76408555
0.79462014
0.82740933
0.86199369
0.8946284
0.92654264
0.95220577
0.97817273
0.99259107
1.0129577
0.83719498
0.83723169
0.83727577
0.83732187
0.83737231
0.83742793
0.83748907
0.83755615
0.83762963
0.83771
0.83779772
0.83789323
0.8379969
0.838109
0.83822959
0.83835842
0.83849474
0.83863707
0.83878278
0.83892759
0.8390648
0.83918449
0.83927228
0.83930794
0.83926389
0.83910415
0.83878323
0.83824707
0.83743532
0.83628294
0.83471974
0.83269851
0.83012893
0.82692958
0.82307183
0.81840248
0.81287669
0.80641332
0.79892312
0.79035329
0.78071056
0.77007432
0.75863219
0.74668767
0.73463354
0.72296593
0.71229301
0.70331984
0.69689681
0.69383135
0.69489611
0.70068463
0.7115076
0.727674
0.7493707
0.77564881
0.80572185
0.83789689
0.87079943
0.90151379
0.93136386
0.95516146
0.97952762
0.99316886
1.01238
0.838304
0.83833639
0.83837559
0.8384164
0.83846122
0.83851089
0.83856575
0.83862628
0.83869298
0.83876641
0.83884714
0.83893574
0.83903277
0.83913874
0.83925405
0.83937888
0.83951308
0.83965597
0.839806
0.83996036
0.8401143
0.84026035
0.84038725
0.84047865
0.84051152
0.8404541
0.84026543
0.8398945
0.83928082
0.8383582
0.83705445
0.83530711
0.83304887
0.83022583
0.82674655
0.82258981
0.81769387
0.8119141
0.80523006
0.79758709
0.78896583
0.77941141
0.76905175
0.75810481
0.74690328
0.73589979
0.72564834
0.71688874
0.71050307
0.70737007
0.7082651
0.71382824
0.72469322
0.7411605
0.76280148
0.78870532
0.81833403
0.84886398
0.87986495
0.90845815
0.93605801
0.95830673
0.98113978
0.99404311
1.0122396
0.83982435
0.83985118
0.83988378
0.83991767
0.83995504
0.83999666
0.84004287
0.84009413
0.84015096
0.84021394
0.8402837
0.84036089
0.8404462
0.84054033
0.84064396
0.84075768
0.84088188
0.84101668
0.84116163
0.84131544
0.8414755
0.84163723
0.8417931
0.8419316
0.84203564
0.84208107
0.84203427
0.84185101
0.84147653
0.84084628
0.8398886
0.83853284
0.83670708
0.83436044
0.83143498
0.82788418
0.82363969
0.81868693
0.81294841
0.80632698
0.79880866
0.79039041
0.78113153
0.77118266
0.76081128
0.75040964
0.74054761
0.73196581
0.72563959
0.72237353
0.72314652
0.72872188
0.73984172
0.75622569
0.77759673
0.80326626
0.83142172
0.86007836
0.88891301
0.9151638
0.94092297
0.96163444
0.98307865
0.99524142
1.0125258
0.84148422
0.84150501
0.84153018
0.84155661
0.84158588
0.84161863
0.84165516
0.84169592
0.84174138
0.84179211
0.84184871
0.84191187
0.84198231
0.84206082
0.84214825
0.84224544
0.84235321
0.84247226
0.84260303
0.84274553
0.84289902
0.84306154
0.8432293
0.84339575
0.84355042
0.84367737
0.84375358
0.84374686
0.84361423
0.84330153
0.84274442
0.84187213
0.84061257
0.83889984
0.8366749
0.83389212
0.83051647
0.82651441
0.82179001
0.8162847
0.80993681
0.80268853
0.79454441
0.78557228
0.77597279
0.76612394
0.75657948
0.74817448
0.74178604
0.7384844
0.73928242
0.74513426
0.75625311
0.7724659
0.79385054
0.81836371
0.84458701
0.87117199
0.89759238
0.92196522
0.94589985
0.96520967
0.98536216
0.99680218
1.0132745
0.84307776
0.84309284
0.84311101
0.84313035
0.84315187
0.84317604
0.84320316
0.84323357
0.84326771
0.84330607
0.84334919
0.84339769
0.84345227
0.84351372
0.8435829
0.84366078
0.84374836
0.8438467
0.8439568
0.84407953
0.84421546
0.8443646
0.84452607
0.84469752
0.84487439
0.84504878
0.84520812
0.84533408
0.84540037
0.84537107
0.84519974
0.84482976
0.84419754
0.84323599
0.84188149
0.84007349
0.83774783
0.83484972
0.83130978
0.82704682
0.82194832
0.81591488
0.8088766
0.8008298
0.79193607
0.78254061
0.77325147
0.76489172
0.75853078
0.75533379
0.75645843
0.76247282
0.77352506
0.79001383
0.81061695
0.83324367
0.85761571
0.88184928
0.90627736
0.92876512
0.95106741
0.96905122
0.98801335
0.99873473
1.0144763
0.84450041
0.84451062
0.84452286
0.8445361
0.84455091
0.84456761
0.84458643
0.84460766
0.84463164
0.84465876
0.8446895
0.8447244
0.84476411
0.84480929
0.84486065
0.84491903
0.84498545
0.84506101
0.84514684
0.84524415
0.84535435
0.84547886
0.84561867
0.84577417
0.84594505
0.84612967
0.84632459
0.84652365
0.84671686
0.84688905
0.8470181
0.84707346
0.84701572
0.84679484
0.84635098
0.84561553
0.8445092
0.84293948
0.84079363
0.83794044
0.83421701
0.82945262
0.82351284
0.8163324
0.80803776
0.79897742
0.78981515
0.78155524
0.77535274
0.77255846
0.77404734
0.78020035
0.7918913
0.807981
0.82683571
0.84793656
0.87013123
0.89235201
0.91484621
0.93565892
0.95643988
0.97317549
0.99104119
1.00106
1.0161453
0.8457134
0.84571964
0.84572715
0.84573532
0.84574449
0.8457549
0.8457667
0.84578007
0.84579525
0.84581263
0.84583264
0.84585545
0.84588115
0.84591018
0.84594353
0.84598241
0.84602799
0.84608145
0.84614395
0.84621631
0.84629909
0.84639375
0.84650288
0.84662912
0.84677491
0.84694297
0.84713617
0.84735709
0.84760856
0.84789265
0.84820993
0.84855985
0.84893622
0.84932338
0.84968958
0.84997928
0.8501041
0.84993341
0.84929977
0.84799581
0.84575722
0.84233404
0.8374829
0.83114054
0.82334194
0.81454445
0.8055782
0.79751055
0.79177071
0.78964646
0.79153515
0.79878065
0.81051415
0.82536371
0.84274417
0.8620657
0.8822225
0.90261517
0.92340817
0.94265806
0.96203502
0.97760042
0.99444699
1.0037824
1.0182757
0.84676293
0.8467657
0.84676905
0.84677272
0.84677688
0.84678166
0.84678719
0.8467936
0.84680106
0.84680975
0.84681982
0.84683142
0.8468449
0.84686094
0.84688033
0.8469037
0.84693128
0.84696344
0.84700127
0.84704668
0.84710158
0.84716684
0.847244
0.84733586
0.84744645
0.84758229
0.84775078
0.84795935
0.84821807
0.8485409
0.8489451
0.84945483
0.85009397
0.85087888
0.85181955
0.85289964
0.85404968
0.85513292
0.85593022
0.85613115
0.85537386
0.85327573
0.84953768
0.84395454
0.83666576
0.82824876
0.81955948
0.81222029
0.80766827
0.8063008
0.80970301
0.81745456
0.82829755
0.84195531
0.85818128
0.87537193
0.89395376
0.91273531
0.93196343
0.94978051
0.96786101
0.98232769
0.9982354
1.0069052
1.0208614
0.84768458
0.84768351
0.84768227
0.84768094
0.84767952
0.84767819
0.84767706
0.8476762
0.84767565
0.84767549
0.84767594
0.84767765
0.84768066
0.84768344
0.84768541
0.84768813
0.84769322
0.84770238
0.84771789
0.84774112
0.84777244
0.8478116
0.84785959
0.84792092
0.84800127
0.84810684
0.84824662
0.84843273
0.84868088
0.84901069
0.84944787
0.85002848
0.85079332
0.85178508
0.85304985
0.85460113
0.85640652
0.85834104
0.86019601
0.86160437
0.86211636
0.86121268
0.85848616
0.85372096
0.84706385
0.8393332
0.83190778
0.82638826
0.82289505
0.82338878
0.82773838
0.83497919
0.84511477
0.8578574
0.87235605
0.88830027
0.90541909
0.92272459
0.94054204
0.95703785
0.97392391
0.98736295
1.0024016
1.0104271
1.0239017
0.84849954
0.84849389
0.84848725
0.84848028
0.84847274
0.84846452
0.84845563
0.84844624
0.84843641
0.84842611
0.8484154
0.84840436
0.848393
0.84838147
0.84837005
0.84835923
0.84834995
0.84834342
0.84834041
0.84834244
0.84835248
0.84837207
0.84840135
0.84844356
0.84850442
0.84859005
0.84870888
0.84887391
0.84910395
0.84942232
0.84985714
0.85044383
0.85122848
0.85226874
0.85362544
0.85533966
0.85743125
0.85981064
0.86227008
0.86446338
0.86584775
0.86585292
0.8639809
0.86004898
0.85470342
0.84885405
0.84365732
0.8394375
0.83808119
0.83994647
0.84409061
0.85138424
0.86100702
0.87264082
0.88612219
0.90080165
0.91662072
0.93261891
0.94915454
0.96443896
0.98022728
0.99270594
1.0069426
1.0143473
1.0273892
0.84901496
0.84900489
0.84899304
0.84898056
0.84896695
0.84895179
0.84893483
0.8489166
0.84889811
0.84887941
0.84885993
0.84883957
0.84881847
0.84879666
0.84877417
0.84875129
0.84872851
0.84870648
0.84868644
0.84867062
0.84866184
0.84866281
0.8486752
0.84870044
0.84874464
0.84881812
0.84892904
0.84908524
0.84930164
0.84960696
0.85003073
0.85060189
0.85137214
0.85239792
0.8537468
0.85547949
0.85759662
0.86007177
0.86270426
0.86515851
0.86693355
0.86754111
0.86672135
0.86444452
0.86115486
0.85755394
0.85406348
0.85209803
0.85270608
0.85476514
0.85955152
0.86664184
0.87587804
0.88675069
0.89928239
0.91292828
0.92762024
0.94243965
0.95781792
0.97199296
0.98677294
0.99835614
1.0118514
1.0186592
1.0313162
0.84903672
0.84902395
0.84900893
0.84899308
0.84897592
0.84895725
0.84893699
0.84891503
0.84889139
0.84886621
0.84883958
0.84881161
0.8487825
0.84875257
0.84872222
0.84869202
0.84866273
0.84863533
0.84861093
0.84859088
0.84857794
0.84857691
0.84859031
0.84861614
0.8486571
0.8487244
0.84882836
0.84897797
0.84918689
0.84946896
0.84985373
0.85038334
0.85109817
0.85204798
0.85327634
0.85484077
0.85679701
0.85911827
0.86168535
0.86423412
0.86644868
0.86799335
0.86853602
0.8680487
0.86691418
0.86519216
0.86384261
0.86429428
0.86561949
0.86872745
0.87409613
0.88105896
0.8898802
0.90021641
0.91201184
0.92475193
0.93844364
0.95221167
0.96654594
0.97970703
0.99356134
1.0043122
1.0171237
1.0233671
1.0356762
0.84825305
0.84824093
0.84822669
0.84821165
0.84819538
0.84817768
0.84815852
0.8481379
0.84811579
0.84809225
0.84806734
0.84804121
0.84801406
0.84798619
0.84795802
0.84793012
0.84790324
0.84787811
0.84785599
0.84783909
0.84782942
0.84782852
0.84783895
0.84786399
0.84790833
0.84797927
0.84808241
0.84822168
0.84841182
0.84868573
0.84905923
0.84954607
0.85018978
0.85103859
0.85216159
0.85360665
0.85541325
0.85760842
0.86014339
0.8629111
0.86567821
0.86817438
0.87011901
0.87149707
0.87209358
0.87225936
0.87348997
0.87522333
0.87766201
0.8818925
0.88748613
0.89458934
0.90324929
0.91317144
0.92434029
0.93630815
0.94912969
0.96195918
0.9753528
0.98758795
1.0005944
1.0105724
1.0227525
1.0284616
1.0404515
0.84678453
0.84677548
0.84676486
0.84675365
0.84674154
0.84672839
0.84671419
0.84669896
0.8466827
0.84666547
0.84664737
0.84662852
0.84660917
0.84658965
0.84657044
0.84655211
0.84653546
0.84652147
0.84651148
0.84650704
0.84650984
0.84652227
0.84654763
0.8465893
0.84664787
0.84672624
0.84683547
0.84699627
0.84721279
0.84748129
0.84783194
0.84831012
0.84895161
0.84978049
0.85084181
0.85222283
0.85398988
0.85618729
0.85885261
0.86196254
0.86539524
0.86889319
0.87223312
0.87496772
0.87704167
0.87961194
0.88243682
0.88527931
0.88916901
0.89408741
0.90020873
0.90751704
0.91607245
0.92568281
0.93634953
0.94765614
0.95971413
0.97170614
0.98425286
0.99564422
1.0078738
1.017135
1.0287309
1.0339355
1.0456389
0.84472435
0.84471898
0.84471271
0.84470614
0.84469911
0.84469157
0.84468354
0.84467508
0.84466627
0.8446572
0.84464805
0.84463903
0.8446304
0.84462257
0.84461611
0.84461179
0.84461057
0.84461363
0.84462245
0.84463886
0.84466523
0.84470422
0.84475613
0.84482394
0.84491126
0.84502988
0.84519693
0.84540709
0.84567164
0.84601683
0.8464463
0.84698244
0.84766792
0.84854759
0.84967533
0.85111915
0.85296634
0.85532152
0.85829366
0.86190917
0.86606152
0.87054402
0.87485928
0.87861217
0.88268897
0.88691279
0.89076628
0.89506972
0.90001145
0.90573283
0.91235309
0.91990404
0.92845701
0.93784527
0.94810025
0.95884129
0.97023264
0.98147685
0.99326221
1.0038799
1.0153984
1.0239936
1.0350554
1.0397694
1.051253
0.84224426
0.84224167
0.84223872
0.84223574
0.84223271
0.84222965
0.84222666
0.84222385
0.84222137
0.84221943
0.84221832
0.84221838
0.84222009
0.84222405
0.84223105
0.84224207
0.84225835
0.84228144
0.84231334
0.84235617
0.8424116
0.8424823
0.84257338
0.8426948
0.84285354
0.84305046
0.84329633
0.84359803
0.84395958
0.84440192
0.84494629
0.84561369
0.84643249
0.84743899
0.84869802
0.85030346
0.85238147
0.85509139
0.85856498
0.86280517
0.86773577
0.87294942
0.87791377
0.88324099
0.88881417
0.89389842
0.89906626
0.90458284
0.91049316
0.9169508
0.92408414
0.93191457
0.94051141
0.94973943
0.95966026
0.96991589
0.98072159
0.99129583
1.0023939
1.0123019
1.0231725
1.0311434
1.0417218
1.0459566
1.0572606
0.83924427
0.83924344
0.83924266
0.83924208
0.83924181
0.83924196
0.83924268
0.83924419
0.83924676
0.83925072
0.83925651
0.83926468
0.83927595
0.83929117
0.83931147
0.83933821
0.8393731
0.83941829
0.8394763
0.83954975
0.83964282
0.83976081
0.83991149
0.84009965
0.84032853
0.8406069
0.8409445
0.84135243
0.84184266
0.84242796
0.8431246
0.84395059
0.84493693
0.84614195
0.84764999
0.84958523
0.85211533
0.85541315
0.85954177
0.86450292
0.87011705
0.8757636
0.88196169
0.88856669
0.89487466
0.90108262
0.90745504
0.91396711
0.92074924
0.92790638
0.93553504
0.9436513
0.95232935
0.96144688
0.97109275
0.98092795
0.99121658
1.0011879
1.0116638
1.0209195
1.0311997
1.0385799
1.048724
1.0524932
1.0636449
0.83546523
0.83546628
0.83546782
0.83546984
0.83547259
0.83547626
0.83548111
0.83548746
0.83549572
0.83550639
0.8355201
0.83553765
0.83556001
0.8355884
0.83562432
0.8356696
0.8357265
0.83579774
0.83588659
0.83599719
0.83613493
0.8363045
0.83651223
0.83676562
0.83707241
0.83744265
0.83788647
0.83841532
0.83904102
0.83977581
0.8406375
0.84166007
0.84289372
0.84441221
0.84633586
0.84882488
0.85204823
0.85611633
0.86103065
0.86679253
0.8728485
0.87954805
0.88687108
0.8941267
0.90133652
0.90861704
0.91593316
0.92334946
0.93093095
0.9387316
0.94683096
0.95523171
0.96400802
0.97304622
0.98246107
0.99192672
1.0017534
1.0111778
1.0210862
1.0297415
1.0394763
1.0463103
1.0560503
1.0593741
1.0703991
0.83051133
0.83051568
0.83052122
0.83052765
0.83053541
0.83054483
0.83055627
0.8305702
0.83058718
0.83060793
0.83063328
0.83066431
0.8307023
0.83074883
0.83080582
0.83087558
0.83096091
0.83106519
0.8311924
0.83134728
0.83153531
0.83176294
0.83203772
0.83236784
0.83276324
0.83323424
0.83379068
0.83444485
0.83521388
0.83612142
0.83719941
0.83849642
0.8400898
0.84209485
0.84466091
0.84794626
0.85206816
0.85705622
0.86290873
0.86926758
0.87626287
0.88412617
0.89209192
0.90012113
0.908225
0.91639437
0.92460427
0.9328484
0.94115573
0.94954949
0.95808686
0.96675697
0.9756356
0.98461259
0.99382586
1.0029594
1.012367
1.0212902
1.0306769
1.0387739
1.048007
1.0543238
1.063693
1.0665876
1.0774998
0.82399046
0.82400027
0.82401239
0.82402598
0.82404176
0.82406026
0.82408198
0.82410755
0.82413772
0.82417344
0.82421582
0.82426621
0.82432625
0.82439792
0.82448356
0.82458596
0.82470846
0.82485506
0.82503046
0.82523991
0.82548978
0.82578777
0.82614164
0.82656006
0.82705299
0.82763306
0.82831676
0.82912311
0.83007713
0.83121581
0.83259493
0.83429702
0.8364372
0.83915743
0.8426054
0.84689208
0.85205774
0.85809867
0.86479125
0.87206539
0.88031288
0.88886943
0.89753932
0.90646204
0.91546871
0.9245188
0.93356169
0.94256795
0.9515407
0.96047515
0.96941174
0.97832751
0.98729958
0.99621949
1.0052469
1.0140731
1.0230921
1.0315494
1.0404485
1.0480301
1.0567843
1.0626269
1.071635
1.0741324
1.0849174
0.81554571
0.81556344
0.81558503
0.81560885
0.81563603
0.81566734
0.81570345
0.81574517
0.8157935
0.81584961
0.81591494
0.81599114
0.81608022
0.81618461
0.816307
0.81645007
0.81661813
0.81681699
0.8170513
0.8173258
0.81764716
0.81802394
0.81846641
0.8189856
0.81959438
0.82030949
0.82115301
0.82215574
0.8233621
0.82483617
0.82666829
0.82897739
0.83190547
0.83559202
0.84014465
0.84560135
0.85195537
0.85903942
0.86672183
0.87536252
0.88450011
0.89382838
0.90347571
0.91329483
0.9231854
0.93307563
0.94290287
0.95261548
0.96219474
0.97161622
0.98090758
0.99003605
0.99908137
1.0079363
1.0167807
1.0253121
1.0339614
1.0419791
1.0504184
1.0575135
1.0658156
1.0712163
1.0798687
1.0819694
1.0926778
0.80480347
0.80483161
0.80486563
0.80490282
0.80494487
0.80499283
0.80504751
0.8051099
0.80518117
0.80526249
0.80535492
0.80546008
0.80558399
0.8057311
0.80589894
0.80609002
0.80631178
0.80656955
0.80686917
0.80721752
0.80762224
0.80809251
0.80864017
0.80928025
0.8100322
0.81092263
0.81198884
0.81328369
0.81488125
0.81688164
0.819411
0.82261254
0.82662489
0.83154548
0.83742166
0.84422123
0.85181252
0.86003503
0.86918944
0.87892928
0.88894778
0.89933025
0.90994651
0.92069131
0.93146369
0.94217257
0.95274235
0.96310648
0.9732325
0.98308258
0.99267621
1.0019742
1.0110603
1.0198298
1.0284811
1.0367195
1.0450072
1.0526008
1.060596
1.067234
1.0751011
1.0801089
1.0883933
1.0902686
1.1006646
0.79160947
0.79165136
0.79169825
0.79174592
0.79179913
0.79186383
0.79194512
0.79203978
0.79214077
0.79225046
0.79237533
0.79251853
0.79268253
0.79287047
0.79308592
0.79333268
0.79361604
0.79394222
0.79431724
0.79474931
0.79524962
0.7958318
0.79651347
0.79731838
0.7982792
0.79944135
0.80086757
0.80264266
0.80487602
0.80769991
0.81125692
0.8156814
0.82106471
0.82744796
0.83481178
0.84298174
0.85183906
0.86162243
0.87206751
0.88284274
0.89402299
0.90548802
0.91712041
0.92881253
0.94045659
0.95195229
0.96321556
0.97417094
0.98477759
0.99499014
1.0048242
1.0142382
1.0233209
1.0319721
1.0404075
1.0483412
1.0562623
1.0634388
1.0709948
1.0771923
1.0846241
1.0892629
1.0971507
1.0986787
1.1087722
0.77594061
0.77599797
0.77605712
0.77611706
0.77618747
0.77626913
0.77636275
0.77647132
0.77659795
0.77674488
0.77691503
0.7771106
0.77733085
0.77757507
0.77784555
0.77814861
0.77849294
0.77888671
0.7793384
0.77985902
0.78046296
0.78116945
0.78200474
0.78300526
0.7842217
0.78572393
0.78760593
0.7899888
0.7930187
0.79685641
0.80165161
0.80752247
0.8145099
0.8226001
0.8315868
0.84140156
0.85211365
0.86351874
0.87525002
0.88737765
0.89980509
0.91241417
0.92509854
0.93774558
0.95024513
0.96249156
0.97439653
0.98588069
0.99689966
1.0074053
1.0174137
1.0268841
1.0359123
1.0444052
1.0525935
1.0602035
1.0677451
1.0745025
1.0816199
1.0873969
1.0943986
1.0987664
1.1062734
1.1080335
1.1184351
0.75742978
0.7574985
0.75758313
0.75767493
0.75777694
0.75789111
0.75801851
0.75816026
0.75831808
0.75849448
0.75869219
0.75891408
0.75916356
0.75944475
0.75976267
0.76012352
0.76053508
0.76100728
0.76155305
0.76218964
0.76294032
0.76383689
0.76492293
0.76625784
0.76792143
0.770018
0.77267831
0.77605652
0.78031926
0.7856229
0.79208601
0.79977011
0.80861275
0.81852453
0.82940781
0.8412446
0.85376788
0.86660585
0.87983588
0.89337012
0.90708799
0.92088495
0.9346457
0.94825206
0.96158902
0.97454898
0.98704165
0.99898815
1.0103437
1.0210629
1.0311633
1.0406121
1.0495115
1.0577807
1.0656625
1.0729002
1.0800185
1.0863265
1.0929721
1.0983129
1.1048391
1.1089534
1.1158329
1.1183246
1.1260068
0.73769265
0.73777793
0.73788214
0.73798994
0.73810885
0.73824146
0.738389
0.73855317
0.73873609
0.73894022
0.73916849
0.73942446
0.73971245
0.7400379
0.74040772
0.74083089
0.7413192
0.74188841
0.74255973
0.74336197
0.74433422
0.74552941
0.74701826
0.74889345
0.75127282
0.7542997
0.75813796
0.76295922
0.76892046
0.77613493
0.78465805
0.79442232
0.80531904
0.81734622
0.83022842
0.84375537
0.85765581
0.87200474
0.88669582
0.9015922
0.91657801
0.93152797
0.94631475
0.96081219