/*--------------------------------*- C++ -*----------------------------------*\
  =========                 |
  \\      /  F ield         | OpenFOAM: The Open Source CFD Toolbox
   \\    /   O peration     | Website:  https://openfoam.org
    \\  /    A nd           | Version:  13
     \\/     M anipulation  |
\*---------------------------------------------------------------------------*/
FoamFile
{
    format      ascii;
    class       volVectorField;
    location    "43.298259";
    object      U;
}
// * * * * * * * * * * * * * * * * * * * * * * * * * * * * * * * * * * * * * //

dimensions      [0 1 -1 0 0 0 0];

internalField   nonuniform List<vector> 
17140
(
(-1.8415346e-06 0.00012837622 3.4329384e-23)
(-7.1473232e-06 0.00039540112 3.7993894e-24)
(-1.5170495e-05 0.00068951584 -2.5067829e-22)
(-2.6738459e-05 0.0010153856 2.7536415e-22)
(-4.282654e-05 0.0013781531 -3.2159754e-23)
(-6.4675371e-05 0.0017834157 1.0513575e-22)
(-9.3831213e-05 0.0022371956 1.7674721e-22)
(-0.00013218636 0.0027458794 -8.6113428e-23)
(-0.00018205792 0.0033161277 -2.8127385e-22)
(-0.00024627001 0.0039547438 -6.8804253e-22)
(-0.00032825277 0.0046684929 1.0167869e-21)
(-0.00043215345 0.0054638632 -9.024135e-22)
(-0.00056296379 0.0063467566 -1.3745878e-22)
(-0.00072666153 0.0073220995 7.7244986e-22)
(-0.00093036541 0.0083933653 -8.5124931e-23)
(-0.0011825 0.0095619992 6.6844703e-22)
(-0.0014929648 0.010826746 -2.4553807e-23)
(-0.0018732989 0.012182888 5.5093323e-24)
(-0.0023368269 0.013621408 3.8046018e-22)
(-0.0028987678 0.015128123 -4.8444788e-22)
(-0.0035762794 0.016682842 2.2867462e-22)
(-0.0043884045 0.018258651 -4.2579938e-23)
(-0.005355872 0.019821452 -3.0511152e-22)
(-0.006500699 0.021329935 2.9586421e-22)
(-0.0078455247 0.022736222 4.5556226e-22)
(-0.0094126043 0.023987451 -3.5370174e-22)
(-0.011222394 0.025028672 -1.6797482e-21)
(-0.013291687 0.025807475 -1.912167e-22)
(-0.015631371 0.026280797 1.6164593e-21)
(-0.018244051 0.026424033 3.6476407e-22)
(-0.021122181 0.026241296 1.2512088e-21)
(-0.0242477 0.025772666 -1.5769094e-21)
(-0.027594236 0.025091205 3.9307503e-22)
(-0.031131918 0.02428544 1.7844395e-22)
(-0.034832864 0.023434959 1.6559333e-21)
(-0.038674574 0.022594594 -6.8643466e-22)
(-0.042640186 0.021793662 9.8770842e-22)
(-0.046717088 0.021043699 6.4079692e-22)
(-0.050895946 0.020346209 2.8311718e-22)
(-0.055171028 0.019696815 -8.3570729e-22)
(-0.059542181 0.019085722 -1.5526247e-21)
(-0.064017674 0.018495142 -1.3971931e-21)
(-0.068617988 0.017894157 -6.0888475e-22)
(-0.073386416 0.017231139 2.9801578e-21)
(-0.078387776 0.016422421 2.1958784e-21)
(-0.083716244 0.015342831 -5.4355025e-22)
(-0.089506073 0.013810147 3.7485965e-21)
(-0.095932469 0.011558678 1.2872494e-21)
(-0.10320859 0.0082063245 -1.3259327e-21)
(-0.1115822 0.0032004583 -3.2849898e-21)
(-0.12129241 -0.0042661308 2.0376125e-21)
(-0.13255246 -0.015380882 1.2948502e-21)
(-0.14536425 -0.031847101 -3.3817296e-21)
(-0.15943109 -0.056008667 -1.601277e-21)
(-0.17371453 -0.090603658 -1.125943e-21)
(-0.18644222 -0.13744329 8.8747758e-22)
(-0.19403256 -0.19545337 -2.3143751e-21)
(-0.19203095 -0.25659207 -1.8613892e-21)
(-0.17762696 -0.30157941 -4.4956675e-22)
(-0.15546472 -0.30908517 1.1239978e-21)
(-0.12929384 -0.22226136 9.6053367e-22)
(-0.044846271 0.025020462 3.4090606e-21)
(0.155408 0.33074758 3.1616168e-22)
(0.28476713 0.4811418 -1.6892092e-21)
(0.3327364 0.49428783 7.8125039e-22)
(-6.6242702e-06 0.00015968537 -9.8065978e-24)
(-2.1992237e-05 0.00049236558 1.3201075e-21)
(-4.0996734e-05 0.00085898649 -1.1740263e-21)
(-6.4736659e-05 0.0012648164 3.1979284e-22)
(-9.4298799e-05 0.0017156472 6.6002531e-22)
(-0.00013109823 0.0022177533 -1.2597063e-21)
(-0.00017686052 0.002777858 1.3111677e-21)
(-0.00023366317 0.0034030649 -1.1518368e-22)
(-0.00030400846 0.0041007565 3.5880719e-22)
(-0.00039090222 0.0048784463 6.0718611e-24)
(-0.00049794408 0.0057435787 1.1905532e-21)
(-0.00062942934 0.0067032633 -1.8836301e-21)
(-0.00079046394 0.0077639338 -1.5475114e-22)
(-0.00098709134 0.008930918 1.5176535e-21)
(-0.0012264298 0.01020791 -4.6229394e-22)
(-0.0015168168 0.011596337 -2.9077551e-22)
(-0.0018679554 0.013094612 1.8223604e-21)
(-0.0022910532 0.014697294 -5.850036e-21)
(-0.0027989428 0.016394148 3.599822e-21)
(-0.0034061652 0.018169175 -4.2273579e-21)
(-0.0041289921 0.019999646 6.1017039e-21)
(-0.004985356 0.021855258 -1.4581563e-21)
(-0.0059946471 0.023697537 -5.8338949e-22)
(-0.0071773253 0.025479681 1.8514981e-21)
(-0.0085542878 0.027147082 -6.4447665e-21)
(-0.010145926 0.028638842 -9.3140289e-22)
(-0.011970809 0.029890695 4.6580268e-21)
(-0.01404398 0.030839859 -5.0513941e-21)
(-0.01637492 0.031432481 6.7120089e-22)
(-0.018965467 0.031634086 6.3449025e-21)
(-0.02180827 0.031442158 -6.3088188e-22)
(-0.024886658 0.030896357 -4.6657326e-21)
(-0.028176751 0.03007758 -1.1539101e-22)
(-0.031651728 0.029089316 3.1677789e-21)
(-0.035286602 0.028028731 -3.3539123e-21)
(-0.039061054 0.02696603 1.4359565e-21)
(-0.042959532 0.025941521 -1.6064096e-21)
(-0.046970123 0.02497391 -4.9095907e-21)
(-0.051083907 0.024069719 -1.0668751e-21)
(-0.055295544 0.023228993 -4.073523e-21)
(-0.059605526 0.022446859 5.128353e-21)
(-0.064023221 0.021711744 4.6990009e-21)
(-0.0685712 0.021000988 8.0512216e-22)
(-0.073296074 0.02027282 -6.4756735e-21)
(-0.078267756 0.019453495 3.1145051e-21)
(-0.08358901 0.018429612 1.0925043e-21)
(-0.089407161 0.017031888 -5.6559384e-22)
(-0.095916973 0.015006026 -1.8613246e-21)
(-0.10336072 0.011977351 9.1589643e-22)
(-0.11202895 0.0073931366 -1.7346868e-21)
(-0.12222386 0.00043202942 -1.0374954e-20)
(-0.13424816 -0.010137498 -4.7405806e-22)
(-0.14822331 -0.026119202 2.2117685e-21)
(-0.16398373 -0.050039676 -5.1218273e-21)
(-0.18051978 -0.084924504 4.2937827e-21)
(-0.19587064 -0.13302202 -1.2131005e-20)
(-0.20566805 -0.19373073 -3.4860646e-21)
(-0.20507362 -0.25872689 8.9770417e-21)
(-0.19044808 -0.30728938 -1.4455358e-21)
(-0.1689103 -0.3168459 -1.6132703e-21)
(-0.14628641 -0.23769408 -3.2425997e-22)
(-0.09226038 -0.01666579 3.0460603e-21)
(0.082085006 0.27778428 -4.4337863e-21)
(0.21488576 0.45028161 -5.179154e-22)
(0.28457145 0.47967901 -1.0492012e-21)
(-1.3251133e-05 0.00019083621 -5.4212313e-22)
(-4.2407065e-05 0.0005888548 4.0034423e-22)
(-7.6584441e-05 0.0010276377 1.064113e-22)
(-0.00011703471 0.0015130487 -1.0081224e-22)
(-0.00016503818 0.0020515082 4.8811986e-22)
(-0.00022220431 0.0026499466 3.6270296e-23)
(-0.00029046024 0.0033157659 4.6258263e-22)
(-0.000372088 0.0040567644 4.9752831e-22)
(-0.00046979161 0.0048810226 -4.0567845e-21)
(-0.00058676793 0.0057967425 3.6121271e-21)
(-0.00072678732 0.0068120278 -1.7226673e-21)
(-0.00089428312 0.0079345943 -2.5136894e-21)
(-0.0010944515 0.0091713975 4.9585488e-21)
(-0.00133336 0.010528166 6.1001087e-22)
(-0.0016180631 0.012008825 -2.3364426e-21)
(-0.0019567225 0.013614807 -1.5910471e-21)
(-0.0023587245 0.01534424 1.8236656e-21)
(-0.0028347905 0.017191019 -6.5112549e-21)
(-0.0033970658 0.019143783 3.7855468e-21)
(-0.0040591736 0.021184828 -1.837389e-21)
(-0.0048362122 0.023289025 6.0619712e-21)
(-0.005744668 0.025422841 1.5381115e-21)
(-0.0068022077 0.027543601 -3.1261337e-21)
(-0.0080273059 0.029599189 4.5720401e-21)
(-0.0094386543 0.031528435 1.748434e-21)
(-0.011054295 0.033262543 -2.0347383e-21)
(-0.012890431 0.034728007 -1.1194828e-20)
(-0.014959903 0.035851669 -4.9099861e-21)
(-0.017270422 0.036568754 2.3702636e-21)
(-0.019822849 0.036834633 -2.4574838e-21)
(-0.022610048 0.036639688 1.4796004e-21)
(-0.025617055 0.036022554 8.0808142e-21)
(-0.028823074 0.035071419 -2.5984098e-21)
(-0.032205057 0.033904523 -7.4000543e-21)
(-0.03574147 0.032636792 2.3392402e-21)
(-0.039414427 0.031354113 3.1364563e-21)
(-0.043209702 0.030108056 -5.2111592e-21)
(-0.047115865 0.028924715 -1.5448954e-21)
(-0.051123994 0.027815824 2.6452988e-21)
(-0.055228528 0.026786093 1.0323693e-21)
(-0.059429755 0.025835966 -4.9617482e-21)
(-0.063736968 0.024960674 1.414198e-21)
(-0.068173292 0.024146637 2.0400212e-21)
(-0.072786389 0.023363075 5.5191629e-21)
(-0.077648273 0.022547789 -1.0664529e-20)
(-0.082866369 0.02160129 7.0568615e-21)
(-0.088595582 0.020369989 1.8410387e-21)
(-0.095042784 0.018614727 7.3289777e-21)
(-0.1024694 0.015973403 8.9510044e-21)
(-0.11119579 0.011900466 4.4844948e-22)
(-0.12157057 0.0055700044 -2.1469633e-21)
(-0.13396571 -0.0042820346 1.5026191e-20)
(-0.14859484 -0.019553725 6.462946e-21)
(-0.16539116 -0.042972107 6.6124433e-21)
(-0.18334402 -0.077924999 2.2767026e-21)
(-0.20022538 -0.12730366 1.6757897e-20)
(-0.21014531 -0.19091328 -6.8706872e-21)
(-0.20920243 -0.2605412 1.9476557e-21)
(-0.19066628 -0.31304106 1.3820575e-20)
(-0.16599632 -0.32450242 4.8897583e-21)
(-0.14165471 -0.25032997 -4.9716819e-21)
(-0.10344441 -0.052125464 -1.6216773e-20)
(0.036319462 0.22632166 3.7115026e-21)
(0.1695004 0.41365625 3.5259236e-21)
(0.26421227 0.45264667 1.1503537e-21)
(-2.169005e-05 0.00022127785 1.8220187e-21)
(-6.8413217e-05 0.00068318714 -2.896884e-21)
(-0.00012191358 0.0011925552 1.0468364e-21)
(-0.00018361494 0.0017558136 -1.1371051e-22)
(-0.00025501782 0.0023799823 2.2462414e-21)
(-0.00033794916 0.003072617 -2.3214748e-21)
(-0.00043455874 0.003841767 3.5168236e-21)
(-0.000547351 0.0046958927 -1.6517012e-21)
(-0.00067924503 0.0056437425 -6.2672048e-21)
(-0.00083363581 0.0066941783 1.5029081e-21)
(-0.0010144631 0.0078559391 5.7066062e-21)
(-0.0012262863 0.0091373299 -1.7352376e-21)
(-0.0014743659 0.010545822 -1.1528685e-22)
(-0.001764751 0.01208755 4.4927037e-21)
(-0.0021043693 0.013766697 -1.395377e-20)
(-0.0025011181 0.015584751 8.491174e-21)
(-0.0029639502 0.017539626 8.0025508e-23)
(-0.0035029491 0.019624665 -4.5891708e-21)
(-0.0041293831 0.021827525 1.1483897e-20)
(-0.0048557252 0.024128982 -5.3286433e-21)
(-0.0056956212 0.026501733 -7.7956851e-21)
(-0.0066637838 0.028909282 -3.0917725e-21)
(-0.0077757802 0.03130505 1.4936571e-20)
(-0.0090476775 0.033631921 7.6178056e-21)
(-0.010495501 0.03582248 -4.7939784e-21)
(-0.012134459 0.037800319 2.7274149e-21)
(-0.013977893 0.039482915 -9.9503723e-21)
(-0.016035977 0.040786833 2.7853519e-21)
(-0.01831426 0.041636293 -7.3047702e-21)
(-0.020812363 0.041976146 4.0166413e-21)
(-0.023523328 0.041788951 -2.4175878e-21)
(-0.026434148 0.041111289 8.5490942e-21)
(-0.029527654 0.040037585 -1.1810994e-21)
(-0.032785247 0.038700163 5.9897322e-21)
(-0.036189422 0.037231639 -5.4776461e-21)
(-0.039725032 0.035733969 -1.6865332e-21)
(-0.043379174 0.034270456 2.0073016e-20)
(-0.047140645 0.032874923 5.0678949e-21)
(-0.051000048 0.031564563 -4.0916116e-21)
(-0.054950921 0.030348989 3.9551512e-21)
(-0.058992401 0.029234268 -1.0255904e-21)
(-0.063132405 0.028222901 -6.3123474e-21)
(-0.06739287 0.027311091 2.8829388e-22)
(-0.0718199 0.026480062 2.1800885e-21)
(-0.07648421 0.025680647 -1.0921101e-21)
(-0.081493266 0.024829309 5.9717565e-22)
(-0.087002934 0.023790693 1.6673277e-21)
(-0.09322311 0.022344424 -2.5534681e-20)
(-0.10042186 0.020146131 2.9604399e-21)
(-0.1089324 0.016665028 -2.752267e-21)
(-0.11912692 0.011081079 2.6392394e-20)
(-0.13141545 0.0021100185 -1.4591253e-20)
(-0.14605726 -0.01223094 -1.2400968e-20)
(-0.16302234 -0.034879146 -1.2007033e-20)
(-0.1812474 -0.069664802 -1.1659428e-20)
(-0.19817397 -0.12041007 -1.8015931e-20)
(-0.20766433 -0.1871894 3.4989245e-20)
(-0.20184212 -0.26202232 -2.0098959e-20)
(-0.17696339 -0.31910167 -2.6518423e-20)
(-0.14618385 -0.33247928 1.5432529e-20)
(-0.11689051 -0.26151179 4.7186421e-21)
(-0.084710074 -0.080882598 5.1597512e-21)
(0.02595561 0.17960102 -5.9490466e-21)
(0.15465717 0.37255545 -3.6928157e-21)
(0.28391409 0.41282869 3.6336842e-22)
(-3.1878535e-05 0.00025043203 -1.2877892e-21)
(-9.9819977e-05 0.00077356852 4.272404e-21)
(-0.0001766526 0.0013506065 -3.4812496e-21)
(-0.00026399067 0.0019885112 1.3147341e-21)
(-0.0003635787 0.0026948624 4.7460849e-22)
(-0.00047748156 0.0034778012 -4.0799515e-21)
(-0.00060808975 0.0043459833 1.0320083e-21)
(-0.00075814512 0.0053084913 2.1882477e-21)
(-0.00093079242 0.0063747027 1.6754045e-22)
(-0.0011296292 0.0075541052 1.4204151e-21)
(-0.0013587612 0.0088560457 -1.9836239e-21)
(-0.0016228603 0.010289401 1.3738518e-21)
(-0.0019272252 0.011862154 5.041625e-21)
(-0.0022778445 0.013580865 1.4589478e-22)
(-0.0026814583 0.015450011 -3.8088557e-21)
(-0.0031456156 0.017471206 -2.6773158e-21)
(-0.0036787253 0.019642261 2.2828726e-21)
(-0.0042900911 0.021956121 -2.160051e-22)
(-0.0049899267 0.024399659 -4.3434681e-21)
(-0.0057893373 0.026952393 -5.2140147e-21)
(-0.0067002552 0.029585163 5.8486366e-21)
(-0.007735311 0.032258879 5.7691641e-21)
(-0.0089076163 0.034923481 -7.5949881e-21)
(-0.010230428 0.037517312 9.183511e-21)
(-0.011716662 0.039967184 1.5529185e-20)
(-0.013378211 0.042189524 -3.5650628e-20)
(-0.015225067 0.044093172 1.9106795e-20)
(-0.017264254 0.045584652 -2.7559294e-20)
(-0.01949873 0.046577164 3.3478124e-20)
(-0.021926562 0.047004622 -3.6294595e-20)
(-0.02454084 0.046840814 3.6359857e-20)
(-0.027330659 0.04611877 -5.9042312e-21)
(-0.030282906 0.044937481 -1.9626025e-20)
(-0.033384047 0.043442171 1.0603329e-20)
(-0.036621195 0.041782882 -3.1683006e-21)
(-0.039982295 0.040078075 -8.7317891e-22)
(-0.043455792 0.038403405 -1.042966e-20)
(-0.047030442 0.036800919 -3.2797324e-21)
(-0.050695853 0.03529357 -3.2547505e-21)
(-0.054443898 0.033896089 -3.1266956e-21)
(-0.058271513 0.032620389 1.583501e-20)
(-0.062183807 0.031476583 -6.9532702e-21)
(-0.066199602 0.030471127 -1.1257531e-21)
(-0.070360517 0.029598069 1.3040094e-20)
(-0.074732032 0.028822757 6.7071506e-21)
(-0.079416327 0.02807922 -3.3148942e-21)
(-0.084562371 0.027252538 -1.2446669e-20)
(-0.090372152 0.026144477 5.427887e-21)
(-0.0971048 0.024433228 -1.6454881e-20)
(-0.10508452 0.021610166 -9.156036e-21)
(-0.11467579 0.016871471 -1.2775548e-20)
(-0.12628104 0.0089251041 -3.556504e-20)
(-0.14013567 -0.0042864161 2.7999112e-20)
(-0.15615557 -0.025913822 -9.6217087e-21)
(-0.17310654 -0.060248926 1.6271635e-20)
(-0.18801506 -0.1119684 1.5243708e-20)
(-0.19341983 -0.1826485 6.4138673e-21)
(-0.18011913 -0.26337521 4.8666358e-20)
(-0.14575273 -0.32502658 1.0980763e-20)
(-0.10670494 -0.34028964 -2.0383449e-20)
(-0.071243902 -0.27138588 -4.5970253e-21)
(-0.03911545 -0.10368404 3.9182502e-21)
(0.053122344 0.13893393 3.9351406e-21)
(0.17773077 0.32828386 2.7201711e-21)
(0.35009416 0.36287282 -4.5142506e-22)
(-4.3686009e-05 0.00027768661 -3.9391386e-21)
(-0.00013622707 0.00085810865 -1.3893457e-21)
(-0.00024010593 0.001498496 1.124255e-21)
(-0.00035714283 0.0022063034 4.1490086e-21)
(-0.00048934643 0.0029896215 -2.2715414e-21)
(-0.00063903643 0.0038571273 3.2663328e-21)
(-0.00080885875 0.0048180329 -1.4116372e-21)
(-0.0010018044 0.0058819938 -3.3574895e-22)
(-0.0012212512 0.007058971 1.8969867e-21)
(-0.0014710015 0.0083590379 4.0795475e-21)
(-0.0017553218 0.0097921183 2.0448196e-22)
(-0.0020789824 0.011367643 -6.6682315e-21)
(-0.0024472951 0.013094108 9.1901887e-21)
(-0.0028661492 0.014978519 -1.4770359e-20)
(-0.0033420412 0.017025708 3.8385518e-21)
(-0.0038820972 0.019237506 -8.1022709e-21)
(-0.0044940829 0.021611765 9.7169346e-21)
(-0.0051863966 0.024141223 -6.2514647e-21)
(-0.0059680401 0.026812234 9.7645177e-22)
(-0.0068485576 0.029603386 3.9107098e-21)
(-0.007837935 0.032484066 -9.3690685e-21)
(-0.008946445 0.035413072 1.3009934e-20)
(-0.010184422 0.038337411 -1.3894705e-20)
(-0.011561942 0.041191485 -2.3463001e-21)
(-0.013088396 0.043896965 2.2530646e-20)
(-0.01477191 0.046363736 -2.2299602e-20)
(-0.01661864 0.048492545 1.4178534e-20)
(-0.01863197 0.050180265 -1.5569035e-20)
(-0.0208118 0.05132915 -1.4654717e-21)
(-0.023154245 0.051861758 -8.902446e-22)
(-0.025652194 0.051741938 5.730347e-21)
(-0.028296822 0.050997239 -3.8229627e-22)
(-0.031079351 0.049728915 2.0233784e-20)
(-0.033991846 0.048093319 -5.2524824e-21)
(-0.037026625 0.046257339 -1.5122476e-20)
(-0.040175128 0.044356381 6.7485191e-21)
(-0.043427223 0.042479249 -5.3261679e-21)
(-0.046771369 0.040676851 5.2149913e-21)
(-0.050195627 0.03897828 2.8152928e-20)
(-0.053689381 0.037403575 -1.5317317e-20)
(-0.057246201 0.035970627 -3.7191503e-21)
(-0.060866801 0.034697348 2.1157368e-20)
(-0.064564741 0.033600728 -1.1886883e-21)
(-0.06837412 0.032688043 -2.5942952e-21)
(-0.07235055 0.031940438 -2.9088244e-20)
(-0.076584624 0.031310827 -6.8107336e-21)
(-0.081209407 0.030706342 1.0960116e-20)
(-0.086405833 0.029953648 1.1357793e-20)
(-0.092404902 0.028757544 1.6495684e-20)
(-0.099493684 0.026638076 2.0934906e-20)
(-0.10798659 0.022816769 1.3159752e-20)
(-0.11821335 0.016005686 2.0353443e-20)
(-0.13029 0.0040864005 -7.029287e-21)
(-0.14395509 -0.016298732 4.6146212e-20)
(-0.15763621 -0.049968904 3.7577314e-21)
(-0.16752068 -0.10273713 2.9189082e-21)
(-0.16453294 -0.17718674 2.2879009e-21)
(-0.13856437 -0.26391744 -5.4384e-20)
(-0.090373942 -0.32997271 -1.6794812e-20)
(-0.04087698 -0.34608104 1.8521436e-20)
(-0.002119303 -0.27922292 1.5440415e-20)
(0.031628923 -0.12196894 4.1176837e-21)
(0.11473292 0.10406553 7.1810686e-22)
(0.24171016 0.28205698 -1.2925384e-21)
(0.4541704 0.30764273 6.4634413e-22)
(-5.69064e-05 0.0003024242 7.4703687e-22)
(-0.00017701558 0.00093489649 2.3725022e-21)
(-0.00031119106 0.0016328911 -5.7238487e-21)
(-0.00046148758 0.0024042963 2.1263383e-22)
(-0.00063018749 0.0032576555 2.7835521e-21)
(-0.00081987868 0.0042021227 1.2259597e-21)
(-0.0010334734 0.005247407 9.0433307e-22)
(-0.0012742197 0.0064036793 -1.7798588e-21)
(-0.0015457333 0.0076814306 9.2002907e-21)
(-0.0018520207 0.0090912738 -6.92952e-21)
(-0.0021975035 0.010643674 3.3456201e-22)
(-0.0025870367 0.012348598 4.1728343e-21)
(-0.003025923 0.014215055 -1.5558438e-20)
(-0.0035199186 0.016250532 1.5443085e-20)
(-0.0040752304 0.018460281 -2.0464181e-21)
(-0.0046984987 0.020846465 -1.2589567e-20)
(-0.0053967652 0.023407145 1.1752937e-20)
(-0.0061774196 0.026135092 -4.0711669e-21)
(-0.0070481226 0.029016452 7.8314938e-21)
(-0.0080166989 0.032029282 -9.9332369e-21)
(-0.0090909953 0.035142005 -1.8397419e-20)
(-0.010278694 0.03831189 1.7930375e-20)
(-0.011587078 0.041483681 2.5818304e-20)
(-0.013022722 0.044588588 -4.8847788e-20)
(-0.014591119 0.047543931 3.8359795e-20)
(-0.016296212 0.050253852 -2.1780488e-20)
(-0.018139858 0.052611741 5.4813961e-21)
(-0.020121309 0.054505371 -1.2656036e-20)
(-0.022236896 0.05582627 1.262638e-20)
(-0.024480299 0.056485239 1.6616257e-20)
(-0.026843796 0.0564349 -1.0731885e-20)
(-0.029320412 0.055694973 -1.730325e-20)
(-0.031905771 0.054366041 1.4546842e-21)
(-0.03459793 0.052613129 5.7064795e-22)
(-0.037394985 0.050618966 9.9110471e-21)
(-0.040292334 0.048536292 -4.145287e-21)
(-0.043281423 0.046467996 -1.4532858e-20)
(-0.046350191 0.04447466 -7.0835262e-21)
(-0.049484596 0.042591973 1.059258e-20)
(-0.052670646 0.040845457 -8.2009423e-21)
(-0.055897287 0.039258997 6.947593e-21)
(-0.059159138 0.037858313 -2.2403506e-21)
(-0.062462032 0.036670992 -8.8707679e-21)
(-0.065829152 0.035717646 2.1686826e-20)
(-0.069301367 0.034995737 1.298892e-20)
(-0.072950283 0.034478194 8.7140968e-21)
(-0.076882465 0.034095022 -2.8071304e-20)
(-0.081242145 0.033699548 -1.8596237e-20)
(-0.086208525 0.0330258 -2.2234726e-20)
(-0.091995472 0.031627032 -3.9649676e-20)
(-0.098809667 0.028756442 1.4349252e-20)
(-0.10681722 0.023140872 -2.9984173e-21)
(-0.11588355 0.012617278 -2.4758423e-20)
(-0.12536153 -0.0063647076 -7.4822294e-20)
(-0.13297879 -0.039181087 -5.0656214e-20)
(-0.13349398 -0.092864557 -2.0275435e-20)
(-0.11516157 -0.17117088 -5.6546222e-20)
(-0.067298113 -0.26304895 3.5011312e-20)
(0.0010680727 -0.33111445 -2.4441456e-21)
(0.061808751 -0.34642996 -2.9344066e-20)
(0.096760037 -0.28117038 -1.1741258e-20)
(0.12856747 -0.13476169 -1.1517355e-21)
(0.20558788 0.073910132 -5.6990273e-21)
(0.33989212 0.23581721 1.0223404e-21)
(0.57952603 0.25184715 1.0028765e-21)
(-7.1262874e-05 0.00032404275 2.9619371e-21)
(-0.00022133742 0.0010020653 -1.9966581e-21)
(-0.00038843171 0.0017505335 2.6959689e-21)
(-0.00057486355 0.0025777017 1.5314833e-21)
(-0.00078319145 0.0034925003 -4.2708766e-21)
(-0.0010162804 0.0045044912 -3.9837276e-21)
(-0.0012773151 0.0056238123 4.0837194e-21)
(-0.0015698052 0.0068610839 -4.9093831e-22)
(-0.0018976051 0.0082272655 -1.1348963e-22)
(-0.0022649235 0.0097334566 -8.0515268e-21)
(-0.0026763305 0.011390624 8.8067002e-22)
(-0.0031367544 0.013209248 1.6154693e-20)
(-0.0036514707 0.015198856 -1.2873613e-20)
(-0.0042260777 0.017367449 4.4175563e-22)
(-0.0048664579 0.019720779 8.5520117e-21)
(-0.0055787212 0.022261473 7.3132021e-22)
(-0.0063691272 0.024987992 -1.8476206e-21)
(-0.0072439835 0.027893411 -8.257055e-21)
(-0.008209518 0.030964028 1.4982202e-20)
(-0.0092717213 0.034177823 -2.6048796e-20)
(-0.010436159 0.037502822 5.5445919e-21)
(-0.011707749 0.040895442 -4.0157599e-21)
(-0.013090509 0.04429895 3.2443146e-21)
(-0.014587253 0.047642247 -1.3773488e-22)
(-0.016199269 0.050839257 1.8578006e-20)
(-0.017925944 0.053789358 1.8159257e-20)
(-0.019764412 0.05637951 -3.5258006e-20)
(-0.021709302 0.058489145 -5.7543637e-21)
(-0.023752834 0.059999446 1.9601814e-20)
(-0.025885665 0.06080917 6.7967073e-21)
(-0.028098877 0.060858356 1.5117166e-20)
(-0.030386859 0.060156256 -1.6573661e-20)
(-0.032749421 0.058799213 -7.0423488e-21)
(-0.035190804 0.056957699 1.5743498e-20)
(-0.037715399 0.054828713 -6.3421994e-21)
(-0.0403231 0.052582535 -2.9991947e-21)
(-0.043007179 0.050337211 8.206125e-21)
(-0.045754907 0.048163984 2.0936997e-20)
(-0.048549586 0.046105704 6.267522e-21)
(-0.05137293 0.044193534 -4.0931273e-21)
(-0.054207904 0.042457259 -9.6171826e-21)
(-0.057041208 0.040930172 -1.0001401e-20)
(-0.059868332 0.039650202 -1.1174824e-20)
(-0.062697494 0.038651083 -2.3700667e-20)
(-0.065549559 0.037946579 6.6771595e-22)
(-0.068468941 0.037529845 -1.0245064e-20)
(-0.071523016 0.037353656 5.788454e-20)
(-0.074800678 0.037298406 1.6321795e-20)
(-0.078400051 0.037127607 1.9045975e-20)
(-0.082415212 0.036428665 5.4116969e-20)
(-0.08686667 0.034488697 -6.5237539e-20)
(-0.091637845 0.030056309 1.5031274e-20)
(-0.096163541 0.020932381 4.973637e-20)
(-0.099081285 0.0033711996 6.2529319e-20)
(-0.096787176 -0.028605223 7.6023594e-21)
(-0.081398752 -0.083468262 -2.236978e-20)
(-0.036748834 -0.16541072 -3.4460015e-20)
(0.047655742 -0.25944613 1.3371343e-20)
(0.14506578 -0.32610417 -1.5578289e-20)
(0.2149458 -0.33425597 8.1560649e-21)
(0.23806843 -0.27030375 4.5672979e-22)
(0.2572069 -0.13736069 -1.9580018e-21)
(0.32313548 0.05044959 7.9511249e-21)
(0.4631253 0.19196888 4.0205499e-22)
(0.71816724 0.19834435 -5.1571811e-21)
(-8.6413405e-05 0.0003419822 -2.7938268e-21)
(-0.00026812374 0.001057882 -7.4791106e-22)
(-0.0004699767 0.001848394 8.2136083e-22)
(-0.0006945577 0.0027220658 4.0345377e-21)
(-0.00094470529 0.0036881389 -4.8348002e-21)
(-0.0012235641 0.004756506 4.1013786e-21)
(-0.0015345926 0.0059376567 1.9578001e-21)
(-0.0018815617 0.0072425859 -1.0480339e-22)
(-0.0022685623 0.0086826527 -1.6470431e-21)
(-0.0027000016 0.010269383 -9.3447905e-21)
(-0.0031805915 0.0120142 1.564454e-20)
(-0.0037153251 0.013928069 -1.8730118e-20)
(-0.0043094389 0.016021038 5.4761623e-21)
(-0.0049683582 0.018301659 7.39358e-21)
(-0.0056976225 0.020776265 -1.1267922e-20)
(-0.0065027874 0.023448085 2.2045682e-20)
(-0.0073893007 0.026316194 -2.6487145e-20)
(-0.0083623508 0.029374261 -4.1365252e-22)
(-0.0094266851 0.032609125 -1.4857187e-20)
(-0.010586399 0.035999197 5.821148e-20)
(-0.011844698 0.039512728 -1.3896143e-20)
(-0.013203631 0.043106039 -5.6628751e-20)
(-0.014663811 0.046721807 2.6326733e-20)
(-0.016224116 0.050287633 3.0875549e-20)
(-0.017881388 0.053715153 -7.6216496e-21)
(-0.019630163 0.056900135 -3.9206295e-20)
(-0.021462472 0.059724245 5.828905e-20)
(-0.023367849 0.062059552 -6.3464517e-20)
(-0.025333833 0.063777501 4.9011897e-20)
(-0.027347373 0.064764703 -9.1945967e-21)
(-0.029397575 0.064947337 1.5458978e-20)
(-0.031479412 0.064321359 2.1491907e-20)
(-0.033596312 0.06297476 -8.1589925e-21)
(-0.0357586 0.0610794 -1.9987755e-21)
(-0.037977367 0.058844218 -2.8381123e-20)
(-0.040257594 0.056456913 5.2279108e-21)
(-0.042594766 0.05405181 -1.3183169e-20)
(-0.044975436 0.051711994 1.097177e-20)
(-0.04737974 0.049488166 -6.1857435e-21)
(-0.049784156 0.047417292 -4.0759165e-21)
(-0.052164221 0.045534853 -3.5289032e-21)
(-0.05449678 0.043881264 -3.4288844e-21)
(-0.056764045 0.042504081 2.1174396e-20)
(-0.058954905 0.04144943 1.706728e-20)
(-0.061064141 0.040746963 -4.8617414e-21)
(-0.063099743 0.040409037 3.2545566e-21)
(-0.065074927 0.040409769 -1.3197563e-20)
(-0.067000832 0.040655198 2.7494568e-20)
(-0.068858056 0.040935299 3.2937003e-20)
(-0.070559202 0.040867208 9.9651623e-21)
(-0.07183464 0.039767491 2.583698e-20)
(-0.072141239 0.03640836 -8.0367204e-22)
(-0.070232211 0.02854404 -1.278466e-20)
(-0.06351762 0.012193216 -6.8455584e-20)
(-0.04610804 -0.019376453 3.5012284e-20)
(-0.0054940847 -0.076127372 -1.6069306e-20)
(0.081287301 -0.16180173 3.9505758e-20)
(0.21645945 -0.25469867 -5.7067743e-20)
(0.34989104 -0.30880326 2.453764e-20)
(0.42718903 -0.30242976 -3.3415337e-21)
(0.43514705 -0.23571818 -6.9902177e-23)
(0.42810435 -0.1207066 -2.1719018e-22)
(0.47192545 0.038909121 5.551845e-21)
(0.60922235 0.15445492 -1.6773619e-21)
(0.87016187 0.15324628 -7.8026671e-21)
(-0.00010194857 0.00035574952 6.2685349e-21)
(-0.00031611338 0.0011008184 4.3100157e-21)
(-0.00055363278 0.0019237999 -6.7632827e-21)
(-0.00081735797 0.0028334554 1.7794516e-22)
(-0.0011104053 0.0038392534 6.1079166e-21)
(-0.0014361957 0.0049513322 3.1912792e-21)
(-0.0017984573 0.0061804481 -6.71989e-21)
(-0.0022012171 0.0075378882 1.1021366e-21)
(-0.0026487977 0.0090353336 -1.5518329e-20)
(-0.0031457988 0.010684669 3.0193901e-21)
(-0.003697069 0.012497719 7.7374857e-23)
(-0.004307661 0.014485904 -1.1055724e-20)
(-0.0049827681 0.016659786 3.5321312e-20)
(-0.00572764 0.0190285 -1.6399079e-20)
(-0.0065474718 0.02159904 -2.9254375e-20)
(-0.0074472659 0.02437538 3.1014217e-20)
(-0.0084316614 0.027357418 -3.7970233e-21)
(-0.0095047313 0.030539724 2.1401178e-20)
(-0.010669746 0.033910088 1.5763849e-20)
(-0.011928906 0.037447878 -4.9117427e-20)
(-0.013283046 0.04112224 3.6479026e-20)
(-0.014731326 0.044890208 -4.745068e-20)
(-0.016270903 0.048694838 5.5000382e-21)
(-0.017896628 0.052463542 -2.2169483e-20)
(-0.019600762 0.056106906 4.7467856e-20)
(-0.021372769 0.059518422 -1.1078444e-20)
(-0.023199264 0.062575798 -2.752536e-20)
(-0.025064256 0.065144965 6.5416243e-20)
(-0.02695001 0.06708851 -2.7923161e-20)
(-0.028838998 0.068281069 -2.9556577e-20)
(-0.030717371 0.068633905 2.3945415e-20)
(-0.032579587 0.068126858 3.1547096e-21)
(-0.034431705 0.066835025 -1.5320947e-20)
(-0.036289639 0.064926727 8.2227541e-21)
(-0.038171406 0.062619582 -1.2222793e-20)
(-0.040087693 0.060118038 4.157342e-20)
(-0.042036726 0.057573788 -2.1230667e-20)
(-0.044004432 0.055083119 -1.2443822e-20)
(-0.045967339 0.052705436 -2.514849e-20)
(-0.04789574 0.050483688 -3.4430057e-21)
(-0.049756249 0.048458734 2.6260301e-20)
(-0.051513707 0.046677408 -1.0641277e-20)
(-0.053133757 0.045195699 -1.5775146e-20)
(-0.054581272 0.04407087 -2.3582854e-21)
(-0.05581794 0.043347257 1.6113744e-20)
(-0.056804594 0.043054218 1.4500534e-20)
(-0.057482404 0.043183946 -4.4977928e-20)
(-0.057757307 0.043664299 -2.4312376e-20)
(-0.057445571 0.044302416 -5.4027688e-20)
(-0.056196077 0.044734976 -1.9408775e-20)
(-0.053323829 0.044306097 -7.813529e-21)
(-0.04768424 0.041782347 -6.0054942e-20)
(-0.03699704 0.034824981 -2.4377193e-20)
(-0.016767605 0.019111293 8.4458298e-20)
(0.022506253 -0.013127025 -7.0638339e-20)
(0.10122868 -0.073499211 6.4087071e-20)
(0.24583454 -0.16234582 -2.9579719e-20)
(0.4322976 -0.24966498 1.1579782e-19)
(0.58891822 -0.28802774 3.9108109e-20)
(0.66345267 -0.25937502 -6.4743586e-21)
(0.6670297 -0.17842415 -5.1719511e-22)
(0.64146005 -0.075246049 6.3095793e-21)
(0.66129115 0.051116474 1.4070181e-21)
(0.78943389 0.13167258 5.0059368e-22)
(1.0271914 0.11911056 9.8399705e-21)
(-0.00011741163 0.0003649587 1.1415602e-22)
(-0.00036389826 0.0011296731 -8.1213599e-21)
(-0.00063694988 0.0019746455 9.5695359e-21)
(-0.00093967507 0.0029087645 4.6023942e-21)
(-0.001275459 0.0039416361 -9.2113864e-21)
(-0.0016479893 0.0050835523 -2.9808211e-21)
(-0.0020612538 0.0063454443 1.4440452e-20)
(-0.0025195265 0.0077388006 -1.5518125e-20)
(-0.0030273523 0.0092755396 -3.2679953e-21)
(-0.0035895167 0.010967828 -1.2972606e-20)
(-0.0042110003 0.012827831 3.4359863e-20)
(-0.004896914 0.014867379 4.1677384e-22)
(-0.0056524123 0.017097534 -3.0641764e-20)
(-0.006482579 0.019528037 3.2740944e-20)
(-0.0073922834 0.022166612 -2.3308419e-20)
(-0.0083860015 0.025018106 -8.5865288e-21)
(-0.0094676015 0.028083447 1.7802626e-20)
(-0.010640089 0.031358403 -1.592224e-20)
(-0.011905317 0.034832118 -2.0988995e-20)
(-0.013263656 0.038485451 4.4020902e-22)
(-0.014713643 0.042289122 3.2307509e-20)
(-0.01625161 0.046201719 -1.9708475e-20)
(-0.017871312 0.050167686 1.0825878e-20)
(-0.019563591 0.054115432 5.1508347e-20)
(-0.02131609 0.057955844 1.6964779e-20)
(-0.023113089 0.06158161 -4.5314762e-20)
(-0.024935561 0.064868025 4.4602208e-21)
(-0.026761611 0.067676351 -4.9587434e-20)
(-0.028567655 0.069861519 2.8898041e-20)
(-0.030330847 0.071286744 -1.5060059e-20)
(-0.032033235 0.071847701 2.1508858e-20)
(-0.033667381 0.071505557 5.174898e-21)
(-0.035240499 0.070317747 -2.5406562e-20)
(-0.036773043 0.068443397 2.5601555e-20)
(-0.038289854 0.06610443 3.6741105e-20)
(-0.03980791 0.063520488 -3.3716267e-21)
(-0.041328864 0.060861493 -3.7555856e-20)
(-0.042838296 0.058238425 4.7031503e-20)
(-0.044308802 0.055720436 -9.9559573e-21)
(-0.045703553 0.053356703 2.1178835e-20)
(-0.04697867 0.051193023 -3.3095844e-21)
(-0.048084602 0.049281642 3.3241069e-20)
(-0.048966703 0.047685385 1.6103736e-20)
(-0.049560617 0.046470702 2.0627706e-20)
(-0.049786762 0.045694492 -8.4951208e-20)
(-0.049545974 0.045399417 -2.8569754e-20)
(-0.048685337 0.045590253 3.8731887e-20)
(-0.046972184 0.046209154 -3.2489812e-20)
(-0.043996632 0.047068261 -2.8000526e-20)
(-0.039027516 0.047809326 3.2317729e-20)
(-0.030826579 0.047766787 1.7324107e-20)
(-0.017479564 0.04569635 4.1769086e-20)
(0.0048589034 0.039050362 2.1351359e-20)
(0.043397676 0.022991943 -7.3966255e-20)