/*--------------------------------*- C++ -*----------------------------------*\
  =========                 |
  \\      /  F ield         | OpenFOAM: The Open Source CFD Toolbox
   \\    /   O peration     | Website:  https://openfoam.org
    \\  /    A nd           | Version:  13
     \\/     M anipulation  |
\*---------------------------------------------------------------------------*/
FoamFile
{
    format      ascii;
    class       volScalarField;
    location    "8.903432";
    object      yPlus;
}
// * * * * * * * * * * * * * * * * * * * * * * * * * * * * * * * * * * * * * //

dimensions      [];

internalField   uniform 0;

boundaryField
{
    inlet
    {
        type            calculated;
        value           uniform 0;
    }
    outlet
    {
        type            calculated;
        value           uniform 0;
    }
    cylinder
    {
        type            calculated;
        value           nonuniform List<scalar> 
132
(
2.716494e-07
2.7010479e-07
2.6655551e-07
2.6093436e-07
2.5323376e-07
2.4349942e-07
2.3184151e-07
2.1840183e-07
2.0339039e-07
1.8707413e-07
1.6977019e-07
1.5184193e-07
1.3369378e-07
1.1575635e-07
9.8462955e-08
8.222621e-08
6.739854e-08
5.4244795e-08
4.2911871e-08
3.3426021e-08
2.5701136e-08
1.9584037e-08
1.4923866e-08
1.1628504e-08
9.6638048e-09
8.8331887e-09
8.605728e-09
8.2649867e-09
7.3594858e-09
5.9765508e-09
4.5061026e-09
3.3398017e-09
2.7746877e-09
2.8640973e-09
3.383221e-09
4.1836521e-09
5.2126018e-09
6.5038644e-09
8.091823e-09
1.0019617e-08
1.2375527e-08
1.5257778e-08
1.8429282e-08
2.1843798e-08
2.5409721e-08
2.9040375e-08
3.2658914e-08
3.6202959e-08
3.9626629e-08
4.2897504e-08
4.5992966e-08
4.8902346e-08
5.1613292e-08
5.4119075e-08
5.6448729e-08
5.8562696e-08
6.0483566e-08
6.2210749e-08
6.374923e-08
6.509395e-08
6.623686e-08
6.7193254e-08
6.7964285e-08
6.8546455e-08
6.8945871e-08
6.9154438e-08
2.7117507e-07
2.6868031e-07
2.6419142e-07
2.5766109e-07
2.4909074e-07
2.3855185e-07
2.2618281e-07
2.1214241e-07
1.9665851e-07
1.8000957e-07
1.6252488e-07
1.4457842e-07
1.2657899e-07
1.0895345e-07
9.2123298e-08
7.6473283e-08
6.2323709e-08
4.9895145e-08
3.9289004e-08
3.0490019e-08
2.338159e-08
1.7809325e-08
1.3637061e-08
1.0805094e-08
9.2557068e-09
8.6916948e-09
8.4955482e-09
7.9862647e-09
6.910604e-09
5.4751604e-09
4.0795807e-09
3.0844002e-09
2.7404184e-09
2.98065e-09
3.592455e-09
4.4549832e-09
5.5494286e-09
6.9139685e-09
8.5816658e-09
1.059526e-08
1.3038735e-08
1.6005661e-08
1.924377e-08
2.2703926e-08
2.6292036e-08
2.9927413e-08
3.3534847e-08
3.7052845e-08
4.044243e-08
4.3672151e-08
4.6722572e-08
4.9587381e-08
5.2250529e-08
5.4700202e-08
5.69917e-08
5.9051388e-08
6.0928907e-08
6.2606637e-08
6.4099559e-08
6.5392397e-08
6.6490609e-08
6.7400105e-08
6.8124094e-08
6.865949e-08
6.9007993e-08
6.917144e-08
)
;
    }
    frontAndBack
    {
        type            empty;
    }
}


// ************************************************************************* //
