/*--------------------------------*- C++ -*----------------------------------*\
  =========                 |
  \\      /  F ield         | OpenFOAM: The Open Source CFD Toolbox
   \\    /   O peration     | Website:  https://openfoam.org
    \\  /    A nd           | Version:  13
     \\/     M anipulation  |
\*---------------------------------------------------------------------------*/
FoamFile
{
    format      ascii;
    class       volScalarField;
    location    "28.202313";
    object      p;
}
// * * * * * * * * * * * * * * * * * * * * * * * * * * * * * * * * * * * * * //

dimensions      [0 2 -2 0 0 0 0];

internalField   nonuniform List<scalar> 
17140
(
-0.26365266
-0.2636621
-0.2636736
-0.26368542
-0.26369836
-0.26371267
-0.26372841
-0.2637457
-0.26376466
-0.2637854
-0.26380805
-0.26383271
-0.26385951
-0.26388855
-0.2639199
-0.26395364
-0.26398982
-0.26402846
-0.26406959
-0.26411319
-0.26415928
-0.26420789
-0.26425919
-0.26431353
-0.26437168
-0.26443506
-0.26450627
-0.26458976
-0.26469281
-0.26482673
-0.26500791
-0.26525757
-0.26559858
-0.26604888
-0.26661291
-0.26727599
-0.26800508
-0.26875562
-0.26948044
-0.27013736
-0.27069376
-0.27112839
-0.27143105
-0.27159966
-0.27163511
-0.27154538
-0.27133651
-0.27100027
-0.2705165
-0.26986515
-0.26898951
-0.26786353
-0.26635235
-0.26449933
-0.26200097
-0.25916913
-0.25503089
-0.25077054
-0.2431148
-0.2353135
-0.21588367
-0.19201032
-0.14300659
-0.11700563
-0.080524783
-0.26324225
-0.26325144
-0.26326263
-0.26327413
-0.26328672
-0.26330064
-0.26331596
-0.26333278
-0.26335123
-0.26337141
-0.26339346
-0.26341747
-0.26344357
-0.26347184
-0.26350237
-0.26353524
-0.26357048
-0.26360813
-0.2636482
-0.26369066
-0.26373553
-0.26378284
-0.26383271
-0.26388548
-0.26394185
-0.26400319
-0.26407197
-0.26415244
-0.26425163
-0.26438053
-0.26455505
-0.2647958
-0.26512511
-0.26556053
-0.26610647
-0.2667485
-0.26745403
-0.26817886
-0.26887601
-0.26950317
-0.27002731
-0.27042642
-0.27068935
-0.2708129
-0.27079698
-0.27064837
-0.2703724
-0.26996211
-0.26940068
-0.26867523
-0.26774322
-0.2666061
-0.26517565
-0.26357773
-0.26163508
-0.25982557
-0.25742424
-0.25582175
-0.2520218
-0.24845555
-0.23281769
-0.20837485
-0.15252723
-0.11704472
-0.070053103
-0.26291076
-0.26291956
-0.26293027
-0.2629413
-0.26295337
-0.26296671
-0.2629814
-0.26299753
-0.26301523
-0.26303459
-0.26305574
-0.26307879
-0.26310385
-0.263131
-0.26316033
-0.26319191
-0.26322578
-0.26326197
-0.26330048
-0.26334129
-0.26338439
-0.26342981
-0.26347765
-0.2635282
-0.26358212
-0.26364067
-0.26370617
-0.26378266
-0.26387684
-0.26399921
-0.26416504
-0.26439419
-0.26470827
-0.26512438
-0.26564701
-0.26626229
-0.26693847
-0.2676321
-0.26829667
-0.26888995
-0.26937857
-0.26973987
-0.26996172
-0.27003979
-0.26997314
-0.26976758
-0.26942723
-0.26894695
-0.26831348
-0.26752112
-0.26654147
-0.26540306
-0.26406311
-0.26272942
-0.26134948
-0.26057581
-0.25992683
-0.26086329
-0.26104597
-0.26200041
-0.25036427
-0.22480301
-0.16114457
-0.11498065
-0.057858982
-0.26265968
-0.26266798
-0.26267807
-0.26268846
-0.26269984
-0.26271242
-0.26272627
-0.26274149
-0.26275819
-0.26277646
-0.26279644
-0.26281821
-0.26284189
-0.26286755
-0.2628953
-0.26292517
-0.26295723
-0.26299148
-0.26302793
-0.26306656
-0.26310735
-0.26315029
-0.26319549
-0.26324318
-0.26329395
-0.26334895
-0.26341035
-0.26348192
-0.26356994
-0.26368433
-0.26383957
-0.26405455
-0.26435001
-0.26474253
-0.26523675
-0.26581967
-0.26646071
-0.26711762
-0.26774466
-0.26829988
-0.26874973
-0.26907093
-0.2692504
-0.26928264
-0.26916607
-0.26890526
-0.26850318
-0.26795666
-0.26725602
-0.26640246
-0.26538125
-0.26424675
-0.26299968
-0.26192788
-0.2611009
-0.2613485
-0.26241864
-0.26589689
-0.27002277
-0.27565743
-0.26804247
-0.2407208
-0.16784216
-0.1112195
-0.044145211
-0.26248867
-0.26249633
-0.26250563
-0.26251525
-0.26252577
-0.26253741
-0.26255023
-0.26256432
-0.26257978
-0.26259672
-0.26261523
-0.26263543
-0.2626574
-0.26268124
-0.26270701
-0.26273479
-0.2627646
-0.26279646
-0.26283038
-0.26286632
-0.26290425
-0.26294417
-0.26298612
-0.26303033
-0.26307729
-0.26312804
-0.26318456
-0.26325031
-0.26333111
-0.26343618
-0.26357907
-0.26377754
-0.26405126
-0.26441621
-0.26487722
-0.26542239
-0.26602273
-0.26663749
-0.26722209
-0.2677351
-0.26814294
-0.26842177
-0.26855761
-0.26854374
-0.26837796
-0.26806355
-0.26760247
-0.2669931
-0.26622935
-0.26531869
-0.26425913
-0.26312868
-0.26196832
-0.26114253
-0.26083769
-0.26207472
-0.26471875
-0.27069338
-0.27874532
-0.28896258
-0.28513481
-0.25524677
-0.17245613
-0.10313803
-0.02867489
-0.26239525
-0.26240217
-0.26241055
-0.26241925
-0.26242877
-0.26243931
-0.26245091
-0.26246367
-0.26247768
-0.26249304
-0.26250984
-0.26252818
-0.26254814
-0.26256982
-0.26259328
-0.26261857
-0.26264574
-0.26267479
-0.26270571
-0.26273848
-0.26277306
-0.26280941
-0.26284757
-0.26288771
-0.26293024
-0.26297609
-0.26302701
-0.26308613
-0.26315875
-0.26325333
-0.26338232
-0.26356223
-0.26381147
-0.2641453
-0.26456878
-0.26507125
-0.26562563
-0.26619308
-0.26673048
-0.26719723
-0.26755985
-0.26779409
-0.26788505
-0.26782486
-0.2676105
-0.26724416
-0.26672656
-0.26605725
-0.2652334
-0.26426775
-0.26316966
-0.26203733
-0.26094706
-0.26033319
-0.26050412
-0.26272404
-0.26682809
-0.27508633
-0.28689083
-0.3014101
-0.30078892
-0.26709879
-0.17309494
-0.093081223
-0.013244117
-0.26237499
-0.26238107
-0.26238841
-0.26239607
-0.26240446
-0.26241374
-0.26242396
-0.26243522
-0.26244758
-0.26246115
-0.26247601
-0.26249224
-0.26250993
-0.26252916
-0.26254998
-0.26257246
-0.26259661
-0.26262246
-0.26264998
-0.26267915
-0.26270991
-0.26274222
-0.26277609
-0.26281163
-0.26284918
-0.26288953
-0.26293421
-0.262986
-0.26304963
-0.26313271
-0.26324655
-0.26340621
-0.26362871
-0.26392844
-0.26431066
-0.26476607
-0.26526973
-0.26578507
-0.26627078
-0.26668736
-0.26700167
-0.26718913
-0.267234
-0.26712728
-0.26686513
-0.26644835
-0.26587625
-0.26514948
-0.26426747
-0.26324681
-0.26210641
-0.26095949
-0.25990974
-0.25946097
-0.26004242
-0.26304071
-0.2685261
-0.27900477
-0.29404264
-0.31218646
-0.31340645
-0.27525034
-0.17390589
-0.082179411
0.00060197703
-0.26242155
-0.26242671
-0.26243291
-0.26243942
-0.26244657
-0.26245447
-0.26246319
-0.26247279
-0.26248335
-0.26249495
-0.26250767
-0.26252159
-0.26253677
-0.2625533
-0.26257122
-0.26259059
-0.26261142
-0.26263373
-0.2626575
-0.26268269
-0.26270924
-0.26273709
-0.26276622
-0.2627967
-0.26282879
-0.26286314
-0.26290105
-0.26294491
-0.2629989
-0.26306971
-0.26316742
-0.26330556
-0.26349962
-0.26376297
-0.26410095
-0.26450565
-0.26495447
-0.26541341
-0.26584331
-0.26620606
-0.26646912
-0.26660772
-0.26660534
-0.26645192
-0.26614284
-0.2656768
-0.26505196
-0.26426966
-0.26333027
-0.26225238
-0.26106236
-0.25988086
-0.25882984
-0.25843289
-0.25939238
-0.26288969
-0.26931838
-0.2820108
-0.29965625
-0.3201807
-0.32133776
-0.27876609
-0.17523206
-0.077089135
0.0072126129
-0.26252678
-0.26253096
-0.26253594
-0.26254124
-0.26254706
-0.2625535
-0.2625606
-0.26256844
-0.26257708
-0.26258658
-0.26259701
-0.26260844
-0.26262095
-0.26263458
-0.26264939
-0.26266542
-0.26268269
-0.2627012
-0.26272093
-0.26274184
-0.26276385
-0.2627869
-0.26281095
-0.262836
-0.26286224
-0.26289018
-0.26292089
-0.2629564
-0.26300025
-0.26305827
-0.26313921
-0.26325503
-0.26341955
-0.26364497
-0.26393657
-0.26428779
-0.26467843
-0.26507733
-0.26544776
-0.26575337
-0.26596243
-0.26605024
-0.26599954
-0.2657993
-0.26544402
-0.26492983
-0.26425379
-0.26341711
-0.26241979
-0.26127984
-0.26002817
-0.25878039
-0.25763359
-0.25732997
-0.2585081
-0.26212888
-0.26930354
-0.28361796
-0.30330697
-0.32376994
-0.32299178
-0.27459182
-0.17236815
-0.080304133
0.00095048403
-0.26268116
-0.26268435
-0.26268812
-0.26269216
-0.2626966
-0.26270151
-0.26270695
-0.26271295
-0.26271958
-0.2627269
-0.26273495
-0.2627438
-0.26275351
-0.26276412
-0.26277568
-0.26278822
-0.26280175
-0.26281628
-0.26283177
-0.26284817
-0.26286542
-0.26288342
-0.26290211
-0.26292145
-0.26294156
-0.26296279
-0.262986
-0.26301283
-0.26304625
-0.26309114
-0.26315501
-0.26324814
-0.26338262
-0.26356936
-0.26381338
-0.26410929
-0.26443934
-0.26477531
-0.26508323
-0.26532878
-0.2654814
-0.26551665
-0.26541667
-0.26516958
-0.26476859
-0.26420734
-0.26348132
-0.26259056
-0.26153339
-0.26032446
-0.25899779
-0.25764369
-0.25640695
-0.25615281
-0.25725278
-0.26086585
-0.26854548
-0.28412507
-0.30416402
-0.32345464
-0.31632593
-0.26344623
-0.1666909
-0.083787377
-0.010058672
-0.26287399
-0.26287617
-0.26287875
-0.26288152
-0.26288456
-0.26288794
-0.26289169
-0.26289584
-0.26290045
-0.26290555
-0.26291119
-0.26291742
-0.26292428
-0.26293182
-0.26294007
-0.26294905
-0.26295877
-0.26296922
-0.26298037
-0.26299217
-0.26300452
-0.26301734
-0.26303053
-0.263044
-0.2630578
-0.26307216
-0.26308769
-0.26310569
-0.26312854
-0.26316025
-0.26320703
-0.26327756
-0.26338212
-0.26353021
-0.26372636
-0.26396616
-0.26423418
-0.2645052
-0.26474825
-0.26493135
-0.26502541
-0.2650065
-0.26485642
-0.26456245
-0.26411613
-0.26350871
-0.26273345
-0.2617879
-0.26066693
-0.25937861
-0.25795387
-0.25640984
-0.25520503
-0.25474925
-0.25562952
-0.25920418
-0.26696906
-0.28308468
-0.3021808
-0.31769441
-0.30330971
-0.25207852
-0.15726749
-0.088645445
-0.020571455
-0.26309439
-0.26309558
-0.26309699
-0.26309851
-0.26310019
-0.26310207
-0.26310416
-0.26310649
-0.26310911
-0.26311203
-0.2631153
-0.26311894
-0.263123
-0.2631275
-0.26313247
-0.26313791
-0.26314384
-0.26315023
-0.26315705
-0.26316423
-0.26317168
-0.26317928
-0.26318692
-0.26319448
-0.26320191
-0.26320931
-0.2632171
-0.26322622
-0.26323849
-0.26325709
-0.263287
-0.2633353
-0.26341054
-0.26352065
-0.26366953
-0.26385347
-0.2640591
-0.26426415
-0.26444078
-0.26455964
-0.26459341
-0.26451902
-0.2643181
-0.2639772
-0.26348575
-0.26283265
-0.26200813
-0.26100577
-0.25981444
-0.25843352
-0.25686595
-0.2551825
-0.25379728
-0.25307552
-0.2535867
-0.25674554
-0.26446777
-0.28003029
-0.29681441
-0.30551265
-0.28654612
-0.23674694
-0.15015474
-0.091978943
-0.030102657
-0.26333078
-0.26333104
-0.26333135
-0.26333169
-0.26333207
-0.26333252
-0.26333304
-0.26333364
-0.26333436
-0.26333521
-0.26333621
-0.26333739
-0.26333876
-0.26334035
-0.26334216
-0.26334421
-0.26334647
-0.26334894
-0.26335155
-0.26335425
-0.26335691
-0.26335943
-0.26336163
-0.26336337
-0.26336451
-0.26336506
-0.26336519
-0.26336554
-0.2633674
-0.26337316
-0.26338668
-0.26341351
-0.26346059
-0.26353421
-0.26363715
-0.26376628
-0.26391008
-0.26404903
-0.26415848
-0.2642119
-0.26418409
-0.26405307
-0.2638006
-0.26341254
-0.26287586
-0.26217689
-0.26130197
-0.26023879
-0.25896704
-0.25747116
-0.25570709
-0.25396726
-0.25213874
-0.25108015
-0.2509562
-0.25348299
-0.26069565
-0.2751342
-0.28726692
-0.28947168
-0.26731952
-0.21814495
-0.14485433
-0.094984764
-0.038464744
-0.2635732
-0.26357262
-0.26357192
-0.26357119
-0.26357039
-0.26356953
-0.26356861
-0.26356764
-0.26356662
-0.26356557
-0.26356449
-0.26356339
-0.26356228
-0.26356118
-0.26356007
-0.26355895
-0.2635578
-0.26355659
-0.26355526
-0.26355372
-0.26355185
-0.26354951
-0.26354651
-0.26354265
-0.26353771
-0.26353157
-0.26352421
-0.26351595
-0.2635076
-0.26350081
-0.26349838
-0.26350439
-0.26352436
-0.26356263
-0.26362173
-0.26369814
-0.26378192
-0.26385583
-0.26389838
-0.26388596
-0.26379574
-0.26360716
-0.26330233
-0.26286635
-0.2622837
-0.26153731
-0.26060859
-0.25947724
-0.25810727
-0.25643898
-0.25452522
-0.25241767
-0.25030104
-0.24852392
-0.24772745
-0.24959518
-0.25623549
-0.26845483
-0.27455373
-0.27066339
-0.24570108
-0.20606802
-0.13933059
-0.097124418
-0.045824245
-0.26381138
-0.26381006
-0.2638085
-0.26380683
-0.26380501
-0.26380302
-0.26380085
-0.2637985
-0.26379597
-0.26379325
-0.26379035
-0.26378725
-0.26378396
-0.26378048
-0.26377678
-0.26377285
-0.26376866
-0.26376416
-0.26375927
-0.2637539
-0.26374792
-0.26374113
-0.26373332
-0.26372423
-0.26371358
-0.26370108
-0.26368655
-0.26366997
-0.26365169
-0.26363268
-0.26361473
-0.26360009
-0.26359648
-0.26360563
-0.2636202
-0.26364528
-0.26367099
-0.26368129
-0.26365779
-0.26357964
-0.2634265
-0.26317943
-0.26282098
-0.26233534
-0.2617043
-0.26090671
-0.25991767
-0.25870783
-0.25720436
-0.25534708
-0.25320344
-0.25065344
-0.24797177
-0.24556678
-0.24422199
-0.24603154
-0.25150427
-0.25877173
-0.25990581
-0.25256291
-0.22672243
-0.19220723
-0.13565296
-0.098836591
-0.052180772
-0.26403868
-0.26403677
-0.2640345
-0.26403209
-0.26402944
-0.26402654
-0.26402335
-0.26401989
-0.26401612
-0.26401205
-0.26400765
-0.26400291
-0.26399782
-0.26399237
-0.26398651
-0.26398024
-0.26397349
-0.26396621
-0.2639583
-0.26394965
-0.26394009
-0.26392942
-0.26391737
-0.26390362
-0.26388779
-0.26386947
-0.26384827
-0.26382387
-0.26379622
-0.26376563
-0.26373306
-0.26370063
-0.26366692
-0.26364223
-0.26362297
-0.26359947
-0.26357123
-0.26352089
-0.26343339
-0.26329041
-0.26307414
-0.2627674
-0.26235295
-0.26181415
-0.26112901
-0.26027233
-0.25921216
-0.25789602
-0.25622268
-0.25410506
-0.25162106
-0.24865178
-0.24529291
-0.24267924
-0.24127393
-0.24206222
-0.24399529
-0.24828178
-0.24594413
-0.23397308
-0.21201191
-0.18062196
-0.13172199
-0.099787058
-0.057548158
-0.26424827
-0.26424595
-0.26424319
-0.26424024
-0.26423701
-0.26423345
-0.26422955
-0.26422528
-0.26422063
-0.26421557
-0.26421009
-0.26420415
-0.26419774
-0.26419083
-0.26418337
-0.26417533
-0.26416663
-0.26415721
-0.26414695
-0.26413571
-0.26412329
-0.26410946
-0.26409388
-0.26407615
-0.26405581
-0.26403228
-0.26400496
-0.26397326
-0.26393668
-0.263895
-0.26384844
-0.26379768
-0.26374386
-0.26368973
-0.26362637
-0.26355482
-0.2634794
-0.2633712
-0.26322223
-0.26301563
-0.26273588
-0.26236734
-0.26189248
-0.26129332
-0.26054285
-0.25961258
-0.25845617
-0.2569908
-0.25509123
-0.25271015
-0.24977654
-0.24628749
-0.24312919
-0.24012937
-0.23803808
-0.23677109
-0.23720767
-0.23780055
-0.23084035
-0.22070859
-0.19824558
-0.17058661
-0.12832946
-0.10033162
-0.061991704
-0.26443842
-0.26443587
-0.26443284
-0.26442961
-0.26442606
-0.26442215
-0.26441784
-0.26441313
-0.26440798
-0.26440237
-0.26439626
-0.26438962
-0.26438243
-0.26437464
-0.2643662
-0.26435706
-0.26434713
-0.26433632
-0.2643245
-0.26431149
-0.26429706
-0.26428092
-0.26426267
-0.26424183
-0.26421779
-0.26418982
-0.26415708
-0.26411866
-0.26407363
-0.26402119
-0.26396081
-0.26389222
-0.26381653
-0.26372812
-0.26363555
-0.26352903
-0.26339484
-0.26323242
-0.2630229
-0.26275321
-0.26240849
-0.26197395
-0.26143037
-0.26075715
-0.2599241
-0.25889482
-0.25760594
-0.25593516
-0.25381238
-0.25103608
-0.24783054
-0.24450342
-0.2408425
-0.2372289
-0.23377551
-0.23155492
-0.23003344
-0.22650557
-0.21920966
-0.20751719
-0.18669756
-0.1619433
-0.12495008
-0.10033571
-0.065560472
-0.26460766
-0.2646051
-0.26460206
-0.26459882
-0.26459525
-0.26459131
-0.26458698
-0.26458222
-0.26457701
-0.26457132
-0.26456511
-0.26455835
-0.264551
-0.264543
-0.2645343
-0.26452482
-0.26451448
-0.26450315
-0.26449068
-0.26447685
-0.26446139
-0.26444394
-0.26442403
-0.26440105
-0.26437426
-0.26434272
-0.26430533
-0.26426081
-0.26420778
-0.26414486
-0.26407075
-0.26398436
-0.2638851
-0.26377073
-0.26364332
-0.26349598
-0.26331639
-0.26310038
-0.26283255
-0.26249974
-0.26208681
-0.26157859
-0.26095186
-0.26018361
-0.25923881
-0.25807742
-0.25658368
-0.25475959
-0.25228432
-0.24948477
-0.24623217
-0.24232801
-0.23800124
-0.23346112
-0.22928883
-0.22551134
-0.22146723
-0.21625225
-0.20793379
-0.19636765
-0.17651475
-0.15425169
-0.1217277
-0.099938013
-0.068312976
-0.26476042
-0.26475809
-0.26475532
-0.26475235
-0.26474909
-0.26474548
-0.26474151
-0.26473714
-0.26473235
-0.2647271
-0.26472135
-0.26471508
-0.26470823
-0.26470074
-0.26469256
-0.26468359
-0.26467373
-0.26466283
-0.2646507
-0.2646371
-0.2646217
-0.26460405
-0.2645836
-0.26455961
-0.26453116
-0.26449709
-0.26445599
-0.26440623
-0.26434594
-0.26427315
-0.26418586
-0.26408221
-0.26396059
-0.26381906
-0.26365533
-0.26346686
-0.26324329
-0.2629758
-0.26265044
-0.26225229
-0.26176408
-0.26116933
-0.26043314
-0.2595399
-0.25845566
-0.25710237
-0.25547671
-0.25340814
-0.25097517
-0.24804739
-0.24422465
-0.23965364
-0.23446266
-0.22932127
-0.2241884
-0.21872603
-0.21296897
-0.20719674
-0.19806527
-0.18614513
-0.16747268
-0.14735906
-0.11851285
-0.099123847
-0.070343403
-0.26490186
-0.2649
-0.26489779
-0.26489542
-0.26489281
-0.26488991
-0.26488672
-0.26488319
-0.26487932
-0.26487506
-0.26487039
-0.26486526
-0.26485962
-0.26485343
-0.26484659
-0.26483902
-0.26483059
-0.26482113
-0.26481041
-0.26479815
-0.26478394
-0.26476726
-0.26474744
-0.26472359
-0.26469459
-0.26465902
-0.26461516
-0.26456095
-0.26449403
-0.26441182
-0.26431165
-0.26419089
-0.26404715
-0.26387811
-0.26368099
-0.26345169
-0.26318223
-0.26286192
-0.26247579
-0.26200476
-0.2614281
-0.26072237
-0.25985703
-0.25881577
-0.25755394
-0.25606949
-0.25433374
-0.25229596
-0.24969743
-0.2461833
-0.24171232
-0.23602866
-0.23019788
-0.22413612
-0.21802349
-0.21131535
-0.20541579
-0.19848238
-0.18872902
-0.17694739
-0.15935005
-0.14106097
-0.11532593
-0.097972046
-0.071706085
-0.26504392
-0.2650428
-0.26504146
-0.26504001
-0.26503841
-0.26503663
-0.26503465
-0.26503245
-0.26503002
-0.26502733
-0.26502435
-0.26502105
-0.26501736
-0.26501324
-0.2650086
-0.26500333
-0.26499728
-0.26499026
-0.264982
-0.26497215
-0.26496023
-0.26494562
-0.26492752
-0.26490485
-0.26487627
-0.26484009
-0.26479422
-0.26473618
-0.26466308
-0.26457173
-0.26445876
-0.26432083
-0.26415481
-0.2639578
-0.26372651
-0.26345644
-0.26313961
-0.26276336
-0.26231027
-0.26175424
-0.26107
-0.26025277
-0.25920537
-0.25802409
-0.2566522
-0.25517142
-0.2534361
-0.25117467
-0.24797637
-0.24377703
-0.2380244
-0.2319204
-0.22564767
-0.21840966
-0.21092073
-0.20487169
-0.19784478
-0.19026204
-0.18021211
-0.16851187
-0.15194017
-0.13524364
-0.11212292
-0.096503858
-0.072485413
-0.26520162
-0.2652015
-0.26520135
-0.26520116
-0.26520094
-0.26520067
-0.26520035
-0.26519997
-0.26519951
-0.26519896
-0.2651983
-0.26519748
-0.26519647
-0.26519519
-0.26519355
-0.26519144
-0.26518867
-0.26518501
-0.26518015
-0.26517366
-0.26516498
-0.26515337
-0.26513785
-0.26511716
-0.26508971
-0.26505349
-0.26500607
-0.26494449
-0.26486537
-0.26476492
-0.26463913
-0.26448384
-0.26429533
-0.26407018
-0.26380421
-0.26349215
-0.26312451
-0.2626854
-0.26215374
-0.26149552
-0.26070106
-0.25970951
-0.25864248
-0.25735796
-0.25601535
-0.25452908
-0.25248857
-0.24965457
-0.24565241
-0.24006981
-0.23392372
-0.22750897
-0.21975082
-0.21227011
-0.20519887
-0.19808264
-0.19053835
-0.1824483
-0.17217419
-0.16070935
-0.14510829
-0.12978651
-0.10888888
-0.094757821
-0.072727667
-0.26540047
-0.2654016
-0.26540292
-0.26540431
-0.2654058
-0.26540742
-0.26540916
-0.26541102
-0.26541301
-0.26541511
-0.2654173
-0.26541955
-0.26542182
-0.26542402
-0.26542607
-0.26542779
-0.265429
-0.26542941
-0.26542864
-0.26542618
-0.26542134
-0.26541326
-0.26540076
-0.26538239
-0.26535627
-0.26532009
-0.26527103
-0.26520571
-0.26512025
-0.2650103
-0.26487121
-0.26469795
-0.26448699
-0.2642337
-0.26393214
-0.26357614
-0.26315282
-0.26264367
-0.26203383
-0.26126187
-0.26036265
-0.25935238
-0.25824986
-0.25702257
-0.2556406
-0.25377223
-0.25117858
-0.24739985
-0.24200596
-0.23596554
-0.22959337
-0.22164917
-0.21377449
-0.20640786
-0.19874984
-0.19137392
-0.18340018
-0.17495046
-0.16463028
-0.15342986
-0.1387239
-0.12461008
-0.10561011
-0.092767271
-0.072507987
-0.26567462
-0.26567718
-0.26568019
-0.26568338
-0.26568683
-0.26569059
-0.26569468
-0.26569909
-0.26570384
-0.26570893
-0.26571433
-0.26572002
-0.26572594
-0.265732
-0.26573807
-0.26574399
-0.26574948
-0.26575421
-0.26575771
-0.26575936
-0.26575835
-0.26575363
-0.26574385
-0.2657273
-0.26570183
-0.26566483
-0.26561313
-0.26554298
-0.26544999
-0.26532962
-0.26517893
-0.26498564
-0.26474779
-0.26446791
-0.26413027
-0.26373048
-0.26325154
-0.26267885
-0.26197784
-0.26118037
-0.26024801
-0.25925025
-0.25816902
-0.25685678
-0.25510397
-0.25264261
-0.24902356
-0.2438656
-0.23793112
-0.23170903
-0.22376144
-0.21562622
-0.20801097
-0.20028237
-0.19249253
-0.18472099
-0.17642072
-0.16774474
-0.15744665
-0.14656032
-0.1326907
-0.11963977
-0.10227111
-0.09054776
-0.071859976
-0.26607371
-0.26607773
-0.26608247
-0.26608747
-0.26609291
-0.26609884
-0.26610529
-0.26611226
-0.26611978
-0.26612784
-0.26613643
-0.2661455
-0.26615499
-0.26616478
-0.26617473
-0.2661846
-0.26619408
-0.26620274
-0.26621003
-0.26621519
-0.26621728
-0.26621505
-0.26620697
-0.2661911
-0.26616506
-0.26612598
-0.26607047
-0.2659945
-0.26589323
-0.26576766
-0.26559487
-0.26537245
-0.26512306
-0.26481671
-0.26444122
-0.26400272
-0.26345863
-0.26283392
-0.2621244
-0.2613127
-0.26041187
-0.25940673
-0.2581777
-0.25651571
-0.25412047
-0.25062282
-0.24566417
-0.23984147
-0.2337779
-0.22596459
-0.21767759
-0.20993552
-0.20200687
-0.19410573
-0.18607314
-0.17806417
-0.1695615
-0.16075854
-0.15056962
-0.14002271
-0.12692473
-0.11482083
-0.098863721
-0.088139637
-0.07083214
-0.26666146
-0.26666677
-0.26667302
-0.26667963
-0.26668681
-0.26669463
-0.26670313
-0.26671232
-0.26672221
-0.26673279
-0.26674404
-0.26675591
-0.26676829
-0.26678106
-0.266794
-0.26680683
-0.26681915
-0.26683044
-0.26684001
-0.26684697
-0.26685019
-0.26684824
-0.26683936
-0.26682136
-0.2667916
-0.26674695
-0.26668385
-0.26659869
-0.26648115
-0.26632527
-0.26614017
-0.26591733
-0.26563976
-0.26530247
-0.26488906
-0.26441143
-0.2638747
-0.2632085
-0.26248784
-0.26169186
-0.26074419
-0.25958084
-0.25798533
-0.25564295
-0.25225799
-0.24747605
-0.24171574
-0.23581315
-0.22819337
-0.21984767
-0.21200321
-0.20398174
-0.19590507
-0.18783166
-0.17964606
-0.17144703
-0.16280776
-0.15396001
-0.14392815
-0.13373872
-0.12135797
-0.11010365
-0.095377266
-0.085541262
-0.069464584
-0.26750309
-0.2675093
-0.26751661
-0.26752433
-0.26753269
-0.26754179
-0.26755165
-0.26756228
-0.26757368
-0.26758583
-0.26759868
-0.26761216
-0.26762611
-0.26764037
-0.26765464
-0.26766856
-0.26768163
-0.2676932
-0.26770243
-0.26770824
-0.2677093
-0.26770393
-0.26769009
-0.26766532
-0.26762668
-0.26757045
-0.2674918
-0.26739344
-0.26727767
-0.26713834
-0.26693208
-0.26664221
-0.26631794
-0.26596181
-0.26554392
-0.2650264
-0.26444947
-0.26380202
-0.26304361
-0.26216935
-0.26105432
-0.25949983
-0.2572073
-0.25392675
-0.24934375
-0.24360029
-0.23782933
-0.23045633
-0.22208426
-0.21417117
-0.20608731
-0.19791486
-0.189691
-0.18146902
-0.17314493
-0.16482244
-0.15612173
-0.1472963
-0.13746678
-0.12764745
-0.11593308
-0.10544953
-0.091805541
-0.082774442
-0.067794491
-0.26868883
-0.26869525
-0.2687028
-0.26871074
-0.26871933
-0.26872864
-0.26873868
-0.26874946
-0.26876095
-0.2687731
-0.26878584
-0.26879904
-0.26881253
-0.26882603
-0.26883921
-0.26885158
-0.26886254
-0.26887129
-0.26887684
-0.26887792
-0.26887298
-0.26886014
-0.26883709
-0.26880096
-0.26874818
-0.26867797
-0.26859007
-0.26849132
-0.26834273
-0.26811996
-0.26787517
-0.26759981
-0.26725656
-0.26684716
-0.26637487
-0.26583736
-0.26521664
-0.26451092
-0.26367074
-0.26259698
-0.26108463
-0.25883659
-0.25565346
-0.25128826
-0.24558454
-0.23986705
-0.23276901
-0.22440132
-0.21641226
-0.20830858
-0.20004045
-0.19171931
-0.1833549
-0.17500931
-0.16659008
-0.15819351
-0.14948237
-0.14073245
-0.1311354
-0.12169332
-0.11060196
-0.10082428
-0.088140251
-0.079845224
-0.06584835
-0.27029026
-0.27029619
-0.27030314
-0.27031043
-0.27031825
-0.27032667
-0.27033569
-0.27034526
-0.27035533
-0.27036582
-0.2703766
-0.27038748
-0.2703982
-0.27040842
-0.27041767
-0.27042536
-0.27043071
-0.27043275
-0.27043028
-0.27042177
-0.27040541
-0.27037907
-0.27034015
-0.27028495
-0.27021245
-0.27013205
-0.27002314
-0.26984234
-0.26963126
-0.26940442
-0.26911937
-0.26878015
-0.2683809
-0.26791937
-0.26739323
-0.26679548
-0.26611026
-0.26529656
-0.26424265
-0.26275413
-0.26056975
-0.25743309
-0.25328509
-0.24773996
-0.24215322
-0.23523158
-0.22682316
-0.21875768
-0.21063361
-0.20228963
-0.19385289
-0.18538005
-0.17688952
-0.16844368
-0.15995666
-0.15153027
-0.14285694
-0.13422732
-0.12488856
-0.11582936
-0.10532357
-0.096199465
-0.084375865
-0.076762478
-0.063650852
-0.27236452
-0.2723695
-0.27237527
-0.27238126
-0.2723876
-0.27239432
-0.27240137
-0.27240867
-0.27241612
-0.27242356
-0.27243078
-0.27243752
-0.27244338
-0.2724479
-0.27245044
-0.27245021
-0.27244621
-0.27243722
-0.27242167
-0.27239748
-0.2723626
-0.27231878
-0.27225854
-0.27218031
-0.27207916
-0.2719334
-0.27175536
-0.271548
-0.2712982
-0.27099975
-0.27064611
-0.27023409
-0.26976429
-0.2692318
-0.26863056
-0.26794644
-0.26713182
-0.26607996
-0.26460052
-0.26243918
-0.25935932
-0.25520573
-0.24983321
-0.24412321
-0.23750746
-0.22932887
-0.22117654
-0.21307723
-0.20465807
-0.19611722
-0.1875031
-0.1788842
-0.1702807
-0.16175661
-0.15323328
-0.14481617
-0.13621948
-0.12774702
-0.11868649
-0.11001394
-0.1000629
-0.091550327
-0.080505538
-0.073532128
-0.061219954
-0.27504108
-0.27504463
-0.27504867
-0.27505273
-0.27505688
-0.27506108
-0.27506523
-0.27506918
-0.27507276
-0.27507571
-0.27507771
-0.27507837
-0.27507713
-0.27507334
-0.27506615
-0.27505449
-0.27503707
-0.27501227
-0.27497814
-0.27493236
-0.27487266
-0.27479523
-0.27469525
-0.27457
-0.27441342
-0.27422096
-0.27399053
-0.27371457
-0.27338728
-0.27300466
-0.27256577
-0.2720689
-0.27151041
-0.27088649
-0.27017993
-0.26934251
-0.26826992
-0.26678099
-0.26463578
-0.26161058
-0.2575583
-0.25233949
-0.24653366
-0.24017013
-0.23200533
-0.22373005
-0.21566073
-0.20719789
-0.19853082
-0.18977005
-0.18097302
-0.17221332
-0.16350991
-0.15492981
-0.14639792
-0.13802502
-0.12954029
-0.12125708
-0.1124925
-0.10421051
-0.09478958
-0.086855198
-0.076524029
-0.070158148
-0.058572698
-0.2784719
-0.27847342
-0.278475
-0.27847634
-0.27847739
-0.27847803
-0.27847808
-0.27847731
-0.27847543
-0.27847206
-0.27846674
-0.27845887
-0.27844772
-0.27843236
-0.27841164
-0.27838418
-0.27834827
-0.27830182
-0.27824243
-0.2781674
-0.27807316
-0.27795131
-0.27780179
-0.27762454
-0.27740933
-0.27715096
-0.27684391
-0.27648345
-0.2760671
-0.27559283
-0.27505794
-0.27446085
-0.27379631
-0.27304529
-0.27215858
-0.27103316
-0.26950167
-0.26733425
-0.26432587
-0.26034283
-0.25524116
-0.24944383
-0.24315042
-0.23526801
-0.2269193
-0.21872957
-0.21002684
-0.20118047
-0.19222097
-0.18321948
-0.17423679
-0.16534221
-0.15655387
-0.14794039
-0.13942822
-0.13113239
-0.12279145
-0.11472609
-0.10627369
-0.098386531
-0.089477141
-0.08209499
-0.072425612
-0.066643398
-0.05572247
-0.282909
-0.28290748
-0.28290538
-0.28290267
-0.28289913
-0.28289453
-0.28288857
-0.28288093
-0.28287116
-0.28285873
-0.28284298
-0.28282307
-0.28279801
-0.28276655
-0.28272721
-0.28267817
-0.28261726
-0.28254188
-0.282449
-0.28233509
-0.28219607
-0.28202737
-0.28182417
-0.28158094
-0.28129189
-0.28095201
-0.28055742
-0.28010432
-0.27958929
-0.27901034
-0.27836517
-0.27764605
-0.27683099
-0.27586844
-0.27465843
-0.27304019
-0.27080999
-0.26775268
-0.26378358
-0.25873712
-0.25286279
-0.24655574
-0.23874642
-0.23036194
-0.22198049
-0.21312919
-0.20408394
-0.19491053
-0.18565983
-0.17642235
-0.16725828
-0.15824012
-0.14938488
-0.14076226
-0.13229818
-0.12411105
-0.11594441
-0.10812361
-0.099999674
-0.09251288
-0.084102449
-0.077252584
-0.068205629
-0.062990334
-0.052681512
-0.28865798
-0.2886518
-0.28864409
-0.28863526
-0.28862483
-0.28861242
-0.28859762
-0.28857993
-0.28855875
-0.28853334
-0.2885028
-0.28846604
-0.28842174
-0.28836831
-0.28830387
-0.28822614
-0.28813246
-0.2880197
-0.28788425
-0.28772197
-0.2875282
-0.28729779
-0.28702544
-0.28670592
-0.28633422
-0.28590516
-0.28541416
-0.28485788
-0.28423317
-0.28353495
-0.28275179
-0.28185707
-0.28079552
-0.27946756
-0.27772102
-0.27536465
-0.27220992
-0.268137
-0.26311784
-0.25707395
-0.25065668
-0.24286577
-0.23434288
-0.22575042
-0.21671013
-0.20741849
-0.19794573
-0.18838612
-0.17882366
-0.16934159
-0.16000059
-0.15087251
-0.14197109
-0.13336566
-0.12497959
-0.11693305
-0.10897097
-0.10142088
-0.093642664
-0.086563296
-0.078645001
-0.072311935
-0.063859404
-0.059196196
-0.0494614
-0.29606936
-0.29605648
-0.29604072
-0.29602316
-0.29600297
-0.29597956
-0.29595237
-0.29592074
-0.29588385
-0.29584071
-0.29579016
-0.29573079
-0.29566093
-0.29557861
-0.29548153
-0.29536696
-0.29523175
-0.29507223
-0.29488429
-0.29466339
-0.29440458
-0.29410262
-0.29375195
-0.29334691
-0.29288218
-0.29235287
-0.29175411
-0.29108023
-0.29032243
-0.28946396
-0.2884719
-0.28728534
-0.28580306
-0.28387762
-0.28132871
-0.27798017
-0.27371204
-0.26848758
-0.26230295
-0.25564081
-0.24775961
-0.23900568
-0.23010161
-0.22080534
-0.21119755
-0.20138126
-0.19145255
-0.18151071
-0.17163731
-0.16191871
-0.15241512
-0.1431975
-0.13427567
-0.12571748
-0.11744194
-0.10956927
-0.10184306
-0.09459039
-0.087177017
-0.080514178
-0.073086968
-0.067258751
-0.059383485
-0.055258932
-0.046082468
-0.30546588
-0.30544391
-0.30541731
-0.30538802
-0.3053548
-0.30531679
-0.30527327
-0.30522336
-0.305166
-0.30509997
-0.3050238
-0.30493585
-0.30483407
-0.30471601
-0.30457903
-0.30442002
-0.3042354
-0.30402108
-0.30377265
-0.30348515
-0.30315326
-0.30277141
-0.30233385
-0.3018347
-0.30126785
-0.30062644
-0.29990155
-0.29907953
-0.29813704
-0.2970334
-0.29570039
-0.29403242
-0.29188379
-0.28907994
-0.28545535
-0.28088912
-0.27533593
-0.26882533
-0.26166813
-0.25363755
-0.24452782
-0.23524278
-0.22559576
-0.21559402
-0.20535365
-0.19497983
-0.18457292
-0.17423248
-0.16404618
-0.15410044
-0.14445272
-0.13517108
-0.1262596
-0.11778283
-0.10965369
-0.10199048
-0.09453335
-0.087606202
-0.080579257
-0.074344245
-0.067412856
-0.062080311
-0.054775868
-0.051184298
-0.042516371
-0.31717975
-0.3171463
-0.317106
-0.31706191
-0.31701233
-0.31695615
-0.31689247
-0.31682008
-0.31673727
-0.31664302
-0.31654244
-0.31643015
-0.31628712
-0.31611713
-0.31593113
-0.31572204
-0.31548208
-0.31520671
-0.31489119
-0.31453053
-0.31411893
-0.31365015
-0.31311735
-0.31251265
-0.31182629
-0.31104491
-0.31014844
-0.30910521
-0.30786485
-0.30634981
-0.30444836
-0.30201402
-0.29887854
-0.29488199
-0.2899175
-0.28391925
-0.27695879
-0.2692847
-0.26077776
-0.25122187
-0.24142191
-0.23128476
-0.22075011
-0.20997016
-0.19904619
-0.18808288
-0.17718282
-0.16644708
-0.15596238
-0.14581272
-0.1360509