/*--------------------------------*- C++ -*----------------------------------*\
  =========                 |
  \\      /  F ield         | OpenFOAM: The Open Source CFD Toolbox
   \\    /   O peration     | Website:  https://openfoam.org
    \\  /    A nd           | Version:  13
     \\/     M anipulation  |
\*---------------------------------------------------------------------------*/
FoamFile
{
    format      ascii;
    class       volVectorField;
    location    "13.19857";
    object      U;
}
// * * * * * * * * * * * * * * * * * * * * * * * * * * * * * * * * * * * * * //

dimensions      [0 1 -1 0 0 0 0];

internalField   nonuniform List<vector> 
17140
(
(-6.3976218e-07 -5.2783417e-05 1.0397562e-23)
(-3.3778294e-05 -0.0001616756 1.1677842e-24)
(-0.00011119781 -0.0002810908 -7.6208981e-23)
(-0.00025030683 -0.00041363625 8.3764575e-23)
(-0.00046683574 -0.00056199002 -9.7929138e-24)
(-0.0007822141 -0.00072906329 3.2184544e-23)
(-0.0012227872 -0.00091794392 5.4320686e-23)
(-0.0018202892 -0.0011318352 -2.6222158e-23)
(-0.0026128193 -0.0013739742 -8.6526055e-23)
(-0.0036457608 -0.0016475184 -2.1284937e-22)
(-0.0049726913 -0.001955398 3.147355e-22)
(-0.0066562093 -0.0023001256 -2.8054621e-22)
(-0.0087686207 -0.0026835632 -4.3654289e-23)
(-0.011392351 -0.0031066477 2.4074439e-22)
(-0.014619947 -0.0035690736 -2.6902291e-23)
(-0.018553494 -0.0040689587 2.0999659e-22)
(-0.023303285 -0.0046025034 -7.1221731e-24)
(-0.028985579 -0.005163698 2.4047731e-24)
(-0.035719385 -0.0057441296 1.211617e-22)
(-0.043622323 -0.0063329777 -1.5169831e-22)
(-0.052805921 -0.0069173026 7.3412825e-23)
(-0.063371068 -0.0074827563 -1.1703461e-23)
(-0.07540384 -0.0080148357 -9.4689759e-23)
(-0.088973502 -0.0085007526 9.4029023e-23)
(-0.10414769 -0.0089319962 1.4604051e-22)
(-0.12102517 -0.0093069399 -1.0702489e-22)
(-0.13951521 -0.0096278312 -5.3324682e-22)
(-0.15978279 -0.0099017755 -7.1458784e-23)
(-0.18204886 -0.010132433 5.4241234e-22)
(-0.20622657 -0.010317921 1.3944517e-22)
(-0.23247782 -0.010459104 4.8902387e-22)
(-0.26090958 -0.010554297 -6.29112e-22)
(-0.29163892 -0.010599314 1.8226457e-22)
(-0.32477648 -0.010586992 8.1560223e-23)
(-0.36042575 -0.010506694 9.6041285e-22)
(-0.39866829 -0.010344493 -4.1860575e-22)
(-0.43955205 -0.010084158 7.3569867e-22)
(-0.48307506 -0.0097092187 5.5467389e-22)
(-0.52916587 -0.0092040807 2.9096808e-22)
(-0.57765942 -0.008556575 -9.1584802e-22)
(-0.62827414 -0.007764291 -1.9402772e-21)
(-0.68059715 -0.0068323144 -1.9316547e-21)
(-0.73407323 -0.0057762176 -9.079627e-22)
(-0.78800888 -0.0046227329 5.103315e-21)
(-0.84154995 -0.0034051829 4.1050144e-21)
(-0.8936508 -0.0021595167 -1.0843866e-21)
(-0.94389438 -0.0009206296 7.9862798e-21)
(-0.99124236 0.00026748267 2.9366293e-21)
(-1.0345787 0.0013600949 -3.1952721e-21)
(-1.0728601 0.0023104721 -8.274957e-21)
(-1.1049297 0.0030770345 5.320482e-21)
(-1.1295594 0.003659736 3.480271e-21)
(-1.1451568 0.0040358987 -9.1692524e-21)
(-1.1505669 0.0041798316 -4.3421498e-21)
(-1.142426 0.0033835366 -3.0243053e-21)
(-1.1179167 0.0019866229 2.3320361e-21)
(-1.0714466 -1.9900612e-05 -5.5890678e-21)
(-0.99527609 -0.0032194796 -4.0537546e-21)
(-0.87809707 -0.0075871469 -7.3742751e-22)
(-0.70678984 -0.012513121 1.3753757e-21)
(-0.48576878 -0.017071638 3.2522706e-22)
(-0.24122805 -0.019072621 -8.8728282e-22)
(0.0055919376 -0.018346785 -2.8519099e-22)
(0.21124209 -0.015410588 2.6636148e-21)
(0.38734721 -0.012195021 -1.9613697e-21)
(-2.502151e-05 0.00057638216 -3.1055252e-24)
(-0.00010833087 0.0017747569 4.0258966e-22)
(-0.00024006113 0.0030839322 -3.5885133e-22)
(-0.00043751627 0.004508202 9.7548004e-23)
(-0.00071644946 0.0060512942 2.0236881e-22)
(-0.0010981604 0.0077156256 -3.8762177e-22)
(-0.0016087512 0.0095019401 4.0362279e-22)
(-0.0022795764 0.011408821 -3.5560055e-23)
(-0.0031481918 0.013432107 1.1122595e-22)
(-0.0042592438 0.015564227 2.2299015e-24)
(-0.0056653531 0.01779348 3.7164818e-22)
(-0.0074279168 0.02010327 -5.875309e-22)
(-0.009617778 0.022471365 -4.8621672e-23)
(-0.012315632 0.024869241 4.7707801e-22)
(-0.015612037 0.027261638 -1.4427673e-22)
(-0.019606873 0.029606489 -9.0935587e-23)
(-0.024408067 0.031855412 5.7860548e-22)
(-0.03012946 0.033955032 -1.8512819e-21)
(-0.03688773 0.035849366 1.1372451e-21)
(-0.044798432 0.037483507 -1.3430284e-21)
(-0.053971489 0.038808693 1.9299869e-21)
(-0.064506848 0.039788576 -4.5719317e-22)
(-0.076490508 0.04040612 -1.7948867e-22)
(-0.089992581 0.040669793 5.9344214e-22)
(-0.10508182 0.040616551 -2.0272499e-21)
(-0.12185809 0.040309521 -3.2715887e-22)
(-0.14024021 0.039837849 1.4511181e-21)
(-0.16038543 0.039275479 -1.6493922e-21)
(-0.18251156 0.038616314 1.7266486e-22)
(-0.20654304 0.037907972 2.2309794e-21)
(-0.23263349 0.037193959 -2.005666e-22)
(-0.26089188 0.036497411 -1.9244023e-21)
(-0.29143337 0.035832167 -1.0817641e-22)
(-0.32436638 0.035205037 1.5991513e-21)
(-0.35979137 0.034618068 -1.8790486e-21)
(-0.39778568 0.034069461 9.5369081e-22)
(-0.4383914 0.033552793 -1.097202e-21)
(-0.48159776 0.033055346 -4.1172843e-21)
(-0.52732031 0.032557325 -1.0958792e-21)
(-0.57537764 0.032030624 -4.6043226e-21)
(-0.62546746 0.031436824 6.2962413e-21)
(-0.67715094 0.030736063 6.6553632e-21)
(-0.72984151 0.029883147 1.4102323e-21)
(-0.78280561 0.028818879 -1.0644204e-20)
(-0.83514476 0.027532327 5.8801738e-21)
(-0.88583995 0.026106114 2.2724516e-21)
(-0.93437441 0.024586845 -1.1879935e-21)
(-0.97966333 0.022789293 -4.1803314e-21)
(-1.0205295 0.020706478 2.1822553e-21)
(-1.0558987 0.018313908 -4.2137878e-21)
(-1.0845335 0.015549935 -2.6347559e-20)
(-1.10512 0.012334698 -1.2689154e-21)
(-1.1160897 0.0086006782 5.9474432e-21)
(-1.1154867 0.0039576313 -1.3327124e-20)
(-1.1007376 -0.0020428914 1.1171072e-20)
(-1.0688838 -0.0098260294 -3.0420923e-20)
(-1.0141747 -0.020249344 -8.1321997e-21)
(-0.9292214 -0.034515185 1.930621e-20)
(-0.80282898 -0.053282002 -2.8286854e-21)
(-0.62181946 -0.073619936 -1.757319e-21)
(-0.39124404 -0.088172139 -7.5063842e-23)
(-0.13961997 -0.092382539 -8.3767243e-22)
(0.11009952 -0.084375322 4.6488886e-21)
(0.31824184 -0.069467814 1.5075393e-21)
(0.4946943 -0.053960448 2.583945e-21)
(-8.4004213e-05 0.0011967687 -1.7155479e-22)
(-0.00028843082 0.0036845163 1.2678859e-22)
(-0.00055100396 0.00640316 3.3834073e-23)
(-0.00088874862 0.0093641317 -3.1944839e-23)
(-0.0013174612 0.012577735 1.5567834e-22)
(-0.0018580886 0.016051966 1.1993492e-23)
(-0.0025360867 0.019791737 1.4865044e-22)
(-0.0033818129 0.02379786 1.6064369e-22)
(-0.0044314023 0.028065802 -1.3032209e-21)
(-0.005727579 0.032584267 1.1628279e-21)
(-0.0073204698 0.037333608 -5.5533893e-22)
(-0.0092683422 0.042284113 -8.1487273e-22)
(-0.011638228 0.047394271 1.6072233e-21)
(-0.014506312 0.052609157 2.0064205e-22)
(-0.017957974 0.057859176 -7.5898918e-22)
(-0.022087326 0.063059483 -5.1918558e-22)
(-0.026996119 0.06811052 5.9487294e-22)
(-0.032791858 0.072900182 -2.1292706e-21)
(-0.039585083 0.077308219 1.2282428e-21)
(-0.047485856 0.081213391 -6.0409696e-22)
(-0.056599751 0.084503717 1.9682525e-21)
(-0.067023985 0.087089659 5.0174757e-22)
(-0.078843947 0.088919234 -1.0031517e-21)
(-0.092131393 0.089992594 1.4834023e-21)
(-0.106957 0.090371259 6.0416354e-22)
(-0.12342193 0.090176876 -6.0540504e-22)
(-0.14147148 0.089587683 -3.6057156e-21)
(-0.16123839 0.088760804 -1.7100253e-21)
(-0.18293131 0.087692407 7.0587334e-22)
(-0.2065073 0.086477243 -9.8707211e-22)
(-0.23209363 0.085204632 4.2313509e-22)
(-0.2598038 0.08391903 3.2663715e-21)
(-0.28974632 0.082644113 -1.134125e-21)
(-0.32202094 0.081386 -3.7845179e-21)
(-0.35671685 0.080137355 1.1190125e-21)
(-0.39389595 0.078880273 1.9736699e-21)
(-0.43357916 0.077585201 -3.8345395e-21)
(-0.47572935 0.076206537 -1.4169302e-21)
(-0.52022841 0.074685824 2.5158749e-21)
(-0.56684775 0.072955564 1.0838482e-21)
(-0.61522787 0.070936014 -6.1992018e-21)
(-0.66486585 0.068554035 1.6281151e-21)
(-0.71509533 0.065734086 2.9507153e-21)
(-0.76507995 0.06241163 9.2533059e-21)
(-0.81384846 0.05863529 -1.890613e-20)
(-0.8605842 0.054512715 1.3549339e-20)
(-0.90454995 0.050174327 4.0173159e-21)
(-0.94454352 0.045364357 1.6114047e-20)
(-0.97936524 0.040084809 2.0785608e-20)
(-1.007948 0.034330465 1.198119e-21)
(-1.0290386 0.028018452 -5.246372e-21)
(-1.0413118 0.021029917 3.7692481e-20)
(-1.0432487 0.01318776 1.6457725e-20)
(-1.033052 0.0040517936 1.7038111e-20)
(-1.0084781 -0.0072453567 5.5726471e-21)
(-0.96623052 -0.021472527 4.1049365e-20)
(-0.90158392 -0.040066755 -1.5556935e-20)
(-0.80749048 -0.06517467 3.9249506e-21)
(-0.67308296 -0.098254011 2.6295067e-20)
(-0.48307228 -0.13403424 6.7809552e-21)
(-0.24425327 -0.15801536 -2.7545997e-21)
(0.010606367 -0.16295258 4.047339e-21)
(0.25432116 -0.14714412 -3.9597154e-21)
(0.45728741 -0.12008867 -7.075583e-21)
(0.62370739 -0.091437706 -2.9185232e-21)
(-0.00017597074 0.0017877445 6.1598145e-22)
(-0.00056918827 0.0055046606 -9.7992525e-22)
(-0.0010356402 0.0095681029 3.5454499e-22)
(-0.0015919252 0.013996737 -3.8456475e-23)
(-0.0022539191 0.018807637 7.6419235e-22)
(-0.0030420271 0.024014748 -7.8950851e-22)
(-0.0039807031 0.029627725 1.2008718e-21)
(-0.0050987512 0.035650415 -5.6203973e-22)
(-0.0064300865 0.042079012 -2.1461678e-21)
(-0.0080144223 0.048899915 5.1299917e-22)
(-0.0098979692 0.056087311 1.9622838e-21)
(-0.012134069 0.063600538 -5.954767e-22)
(-0.014783739 0.07138135 -3.753721e-23)
(-0.017916028 0.079351307 1.5560506e-21)
(-0.021608086 0.087409599 -4.8277643e-21)
(-0.025944836 0.095431809 2.9354803e-21)
(-0.03101812 0.10327022 2.8423205e-23)
(-0.036925212 0.11075652 -1.5869404e-21)
(-0.043766642 0.11770774 3.9670783e-21)
(-0.051643381 0.12393644 -1.8279942e-21)
(-0.060653606 0.1292657 -2.6721046e-21)
(-0.070889605 0.13354885 -1.079941e-21)
(-0.082435103 0.13669279 5.0780062e-21)
(-0.095363814 0.1386814 2.6264646e-21)
(-0.10974905 0.13959226 -1.5450842e-21)
(-0.12569285 0.13959826 9.6839692e-22)
(-0.14318309 0.13896026 -3.306892e-21)
(-0.1623122 0.13792066 9.7538816e-22)
(-0.18327604 0.13648891 -2.6005267e-21)
(-0.20608538 0.13480744 1.436383e-21)
(-0.23082281 0.13301212 -1.009939e-21)
(-0.25760875 0.13116927 3.6062711e-21)
(-0.28654022 0.12931198 -4.876823e-22)
(-0.31770264 0.12744577 3.1439127e-21)
(-0.35116534 0.12555367 -3.1277958e-21)
(-0.38696477 0.12359716 -1.3268483e-21)
(-0.42508877 0.12152044 1.4757196e-20)
(-0.46545717 0.11924875 4.4611518e-21)
(-0.50790146 0.11668146 -3.8639213e-21)
(-0.55212282 0.11370433 4.2021026e-21)
(-0.59767607 0.11019899 -1.3124447e-21)
(-0.64396101 0.10605733 -8.405561e-21)
(-0.69018837 0.10117974 3.9229291e-22)
(-0.73537501 0.09552305 3.7497886e-21)
(-0.77860901 0.089162466 -1.5317874e-21)
(-0.81912557 0.082447488 1.5451893e-21)
(-0.85605539 0.07537695 3.5890569e-21)
(-0.88826228 0.067585612 -5.4534305e-20)
(-0.91454452 0.059218333 6.4177788e-21)
(-0.93391858 0.050283212 -6.4304744e-21)
(-0.94522621 0.040637012 6.3747382e-20)
(-0.94725066 0.030133739 -3.6192417e-20)
(-0.93866085 0.018527563 -3.0653982e-20)
(-0.91794291 0.0052306712 -2.946822e-20)
(-0.88306636 -0.010803632 -2.8085688e-20)
(-0.83115133 -0.030821855 -4.2221556e-20)
(-0.75817463 -0.056882703 7.9385211e-20)
(-0.65740524 -0.092161812 -4.3324914e-20)
(-0.51754019 -0.13960189 -5.1581407e-20)
(-0.32082707 -0.19123828 2.5388415e-20)
(-0.077550539 -0.2239663 2.9437129e-21)
(0.17245002 -0.22786674 -1.8600736e-21)
(0.40164159 -0.20355018 1.1465077e-20)
(0.58665555 -0.16458939 1.0838283e-20)
(0.73028 -0.12320363 -2.047136e-22)
(-0.0002969721 0.0023283839 -4.7463577e-22)
(-0.0009386451 0.0071711829 1.5757819e-21)
(-0.0016734521 0.01246816 -1.2850299e-21)
(-0.0025174801 0.01824527 4.8583846e-22)
(-0.0034867516 0.024526544 1.7589075e-22)
(-0.0046010128 0.031332331 -1.5126809e-21)
(-0.0058834569 0.038677786 3.8131096e-22)
(-0.0073609093 0.046570931 8.1256031e-22)
(-0.0090644324 0.055010267 6.1764505e-23)
(-0.011029846 0.063981996 5.2880862e-22)
(-0.01329827 0.07345684 -7.4088214e-22)
(-0.015916612 0.083386522 5.128461e-22)
(-0.018937994 0.093700051 1.8913108e-21)
(-0.022422044 0.10430007 5.7913779e-23)
(-0.026434989 0.11505966 -1.4243518e-21)
(-0.03104946 0.12582019 -1.0035879e-21)
(-0.036343937 0.13639105 8.596214e-22)
(-0.042401744 0.14655234 -7.430136e-23)
(-0.04930957 0.15606179 -1.6160747e-21)
(-0.057155551 0.16466707 -1.9513397e-21)
(-0.06602708 0.17212479 2.1731002e-21)
(-0.076008765 0.17822622 2.1272427e-21)
(-0.087180864 0.18282847 -2.7654743e-21)
(-0.099618467 0.1858872 3.3345477e-21)
(-0.11339752 0.18748256 5.6902029e-21)
(-0.12861898 0.18782649 -1.2699482e-20)
(-0.14532614 0.187251 6.7332752e-21)
(-0.16355372 0.18608578 -9.9938625e-21)
(-0.18349271 0.1843702 1.2350734e-20)
(-0.2052339 0.18229156 -1.4010151e-20)
(-0.22879083 0.18003256 1.4760378e-20)
(-0.25429044 0.17768426 -2.386321e-21)
(-0.28181298 0.17529014 -9.3209448e-21)
(-0.31142526 0.17285397 5.4976119e-21)
(-0.34316823 0.17034472 -1.7721686e-21)
(-0.37704504 0.16770682 -4.4496306e-22)
(-0.4130083 0.16485737 -7.8421151e-21)
(-0.45092379 0.1616844 -3.0550714e-21)
(-0.49054891 0.15804357 -3.5586785e-21)
(-0.53150355 0.15377045 -3.438514e-21)
(-0.57324647 0.14870545 1.9009787e-20)
(-0.61507161 0.14270116 -9.1384298e-21)
(-0.65606936 0.13564159 -2.0846446e-21)
(-0.69519683 0.12752193 2.0644139e-20)
(-0.73175583 0.11863217 1.1896637e-20)
(-0.76480203 0.1093472 -6.1484917e-21)
(-0.79322967 0.099589572 -2.4774206e-20)
(-0.81627328 0.089070554 1.1427323e-20)
(-0.83308354 0.077856616 -3.5627775e-20)
(-0.84258742 0.065969287 -2.0765635e-20)
(-0.84375264 0.05328786 -3.0353236e-20)
(-0.83540771 0.039632568 -8.4741259e-20)
(-0.81632675 0.0246919 6.712932e-20)
(-0.78522617 0.0077638009 -2.2480985e-20)
(-0.74019259 -0.012445715 3.7997756e-20)
(-0.67863244 -0.037495401 3.5089005e-20)
(-0.59718415 -0.070087473 1.3453652e-20)
(-0.49011684 -0.11482835 1.0390493e-19)
(-0.34526827 -0.17659026 2.1671452e-20)
(-0.1422219 -0.24389893 -3.2100757e-20)
(0.10066031 -0.28406079 -5.7280927e-21)
(0.33753587 -0.28506875 -1.681082e-21)
(0.5430628 -0.25155385 -7.5101088e-21)
(0.69874282 -0.20087261 -1.1057507e-20)
(0.81032845 -0.14823274 9.4790258e-22)
(-0.00044076194 0.0027988542 -1.6010896e-21)
(-0.0013778453 0.008623323 -5.6617595e-22)
(-0.0024318629 0.014998176 4.5613102e-22)
(-0.0036183838 0.021956622 1.6898703e-21)
(-0.0049536801 0.029529775 -9.270015e-22)
(-0.0064568139 0.03774486 1.3334787e-21)
(-0.0081495931 0.046623406 -5.7683469e-22)
(-0.01005662 0.056178964 -1.3759132e-22)
(-0.012205709 0.066414305 7.7694561e-22)
(-0.014628204 0.077318095 1.673371e-21)
(-0.017359325 0.088861059 8.7289536e-23)
(-0.020438471 0.10099167 -2.7380523e-21)
(-0.023909482 0.11363148 3.7822451e-21)
(-0.027820828 0.12667044 -6.0715295e-21)
(-0.032225683 0.13996252 1.5765739e-21)
(-0.037181851 0.15332241 -3.3383794e-21)
(-0.042751493 0.16652428 3.9840462e-21)
(-0.049000646 0.17930373 -2.5603412e-21)
(-0.055998515 0.19136477 3.9177396e-22)
(-0.063816585 0.20239332 1.5756e-21)
(-0.072527685 0.21207893 -3.7725976e-21)
(-0.082205249 0.22014537 5.1843771e-21)
(-0.092923152 0.22638908 -5.4985525e-21)
(-0.1047559 0.23072121 -9.9051803e-22)
(-0.11778099 0.23320415 8.7860703e-21)
(-0.13209495 0.23406722 -8.6624044e-21)
(-0.1478039 0.23368835 5.3799189e-21)
(-0.16487649 0.23249494 -6.0611539e-21)
(-0.18351774 0.2306624 -8.0742692e-22)
(-0.20390853 0.22831493 -5.6117615e-22)
(-0.22597151 0.22567948 2.3420633e-21)
(-0.24984295 0.22289765 -3.3447705e-22)
(-0.27558177 0.22002863 9.9942824e-21)
(-0.30322985 0.21707333 -2.6285237e-21)
(-0.33280059 0.21399168 -9.2592994e-21)
(-0.36426568 0.21070968 4.4976653e-21)
(-0.39752517 0.20711217 -3.8576927e-21)
(-0.43238324 0.20304085 4.5414492e-21)
(-0.46852152 0.19830662 2.7129322e-20)
(-0.50547429 0.19269968 -1.6351482e-20)
(-0.54261241 0.18601874 -4.6189696e-21)
(-0.57914566 0.1780898 2.8485396e-20)
(-0.61410326 0.16881267 -1.038566e-21)
(-0.6466389 0.1582969 -3.5611538e-21)
(-0.67595167 0.14696303 -4.9271651e-20)
(-0.70113811 0.13501657 -1.2412689e-20)
(-0.72106655 0.12260579 2.1198038e-20)
(-0.73498763 0.10954565 2.3052096e-20)
(-0.74233871 0.095810166 3.5216685e-20)
(-0.74231443 0.081373504 4.6714962e-20)
(-0.73403656 0.065959459 3.029227e-20)
(-0.71618999 0.049372631 4.7852868e-20)
(-0.68750931 0.031377805 -1.6795297e-20)
(-0.6467287 0.011150473 1.062604e-19)
(-0.59191356 -0.012805641 7.6366058e-21)
(-0.52049518 -0.042229861 5.9244928e-21)
(-0.42951439 -0.080232558 4.0379725e-21)
(-0.31429376 -0.13301126 -1.1493557e-19)
(-0.16195113 -0.20847492 -3.7357123e-20)
(0.048293283 -0.29044385 4.0904062e-20)
(0.28391272 -0.3358267 2.674906e-20)
(0.49990842 -0.33204049 1.3263278e-21)
(0.67216423 -0.28880815 -2.1233605e-21)
(0.79013635 -0.22739236 1.2432555e-20)
(0.86568322 -0.16593745 -3.1737296e-21)
(-0.00059883463 0.0031810114 3.3621419e-22)
(-0.0018612019 0.00980532 1.0686402e-21)
(-0.0032667033 0.017061494 -2.579461e-21)
(-0.0048307916 0.024989743 9.481913e-23)
(-0.0065699933 0.033628303 1.2551094e-21)
(-0.0085027753 0.043011678 5.5377649e-22)
(-0.010649586 0.053168639 4.0900354e-22)
(-0.013032775 0.064119726 -8.0501805e-22)
(-0.015676792 0.075874147 4.1660777e-21)
(-0.018608285 0.088426065 -3.1357191e-21)
(-0.021856222 0.10175023 1.5347342e-22)
(-0.025451959 0.11579702 1.8931145e-21)
(-0.029429306 0.13048691 -7.0548925e-21)
(-0.03382455 0.14570473 7.002462e-21)
(-0.038676456 0.16129411 -9.2039099e-22)
(-0.04402624 0.17705272 -5.6997175e-21)
(-0.049917534 0.19272951 5.3054042e-21)
(-0.056396371 0.20802538 -1.817164e-21)
(-0.063511227 0.22259898 3.5056476e-21)
(-0.07131322 0.2360801 -4.4207475e-21)
(-0.079856528 0.24809255 -8.1372036e-21)
(-0.089199199 0.25828804 7.8393822e-21)
(-0.099404554 0.26639063 1.1254204e-20)
(-0.11054293 0.27224781 -2.1008033e-20)
(-0.12269318 0.27587871 1.6296194e-20)
(-0.13595031 0.27750165 -9.1802845e-21)
(-0.15044435 0.27751904 2.2155093e-21)
(-0.1661904 0.27645445 -5.287409e-21)
(-0.18332576 0.27469759 5.1000751e-21)
(-0.20204709 0.27224376 7.2450893e-21)
(-0.22233982 0.26935313 -4.6787937e-21)
(-0.24426529 0.26623794 -8.5364695e-21)
(-0.26787621 0.2629767 6.1545737e-22)
(-0.29319084 0.25957856 2.3119064e-22)
(-0.32019352 0.25599651 6.1681726e-21)
(-0.34881338 0.25212911 -2.9462147e-21)
(-0.37889769 0.24782358 -1.1563002e-20)
(-0.4101888 0.24287914 -6.6594744e-21)
(-0.44229805 0.23705988 1.059023e-20)
(-0.47468492 0.23011391 -8.5670906e-21)
(-0.50665782 0.22180953 8.6086562e-21)
(-0.53738822 0.21197039 -2.3432349e-21)
(-0.56595686 0.2005543 -1.271643e-20)
(-0.59165137 0.18779845 3.3597297e-20)
(-0.61367279 0.17407769 2.1469761e-20)
(-0.6311189 0.15962452 1.5282062e-20)
(-0.64305053 0.14464042 -5.3886514e-20)
(-0.64875879 0.12915431 -3.7144367e-20)
(-0.64755128 0.11313658 -4.6546644e-20)
(-0.63884436 0.096354522 -8.6181331e-20)
(-0.62174616 0.078544854 3.2151933e-20)
(-0.59527072 0.059331575 -6.5524287e-21)
(-0.55786882 0.038440359 -5.5967276e-20)
(-0.50818935 0.015098764 -1.6668653e-19)
(-0.44412124 -0.012421084 -1.097105e-19)
(-0.3630678 -0.045947807 -4.237008e-20)
(-0.26202614 -0.088752681 -1.1662211e-19)
(-0.13673115 -0.1486216 7.3237338e-20)
(0.028375186 -0.23613092 -8.5294478e-21)
(0.24440109 -0.32985156 -6.8707257e-20)
(0.46707607 -0.37713195 -2.2323723e-20)
(0.65274442 -0.36719303 6.6908763e-22)
(0.78355243 -0.31429319 -6.598686e-21)
(0.85970575 -0.24412569 -6.9290625e-22)
(0.9006639 -0.17698384 -1.3212202e-21)
(-0.00076089235 0.0034597011 1.4726037e-21)
(-0.0023574759 0.010670355 -9.9313899e-22)
(-0.0041240926 0.018576647 1.3414606e-21)
(-0.0060766971 0.027225276 7.6267417e-22)
(-0.0082320472 0.036661473 -2.1267955e-21)
(-0.010608202 0.046927253 -1.9853505e-21)
(-0.013224436 0.058059367 2.0350473e-21)
(-0.01610104 0.070086719 -2.4590544e-22)
(-0.019259296 0.083027126 -5.6773031e-23)
(-0.022721348 0.096883378 -4.0197405e-21)
(-0.026510072 0.11163854 4.3601015e-22)
(-0.030648893 0.12725048 8.0641781e-21)
(-0.035161598 0.14364565 -6.4275585e-21)
(-0.040072143 0.16071241 2.1842846e-22)
(-0.045404502 0.17829418 4.2639171e-21)
(-0.051182583 0.19618308 3.6156821e-22)
(-0.057430319 0.21411534 -9.1417363e-22)
(-0.064171983 0.23176965 -4.068869e-21)
(-0.071432883 0.24877097 7.3632824e-21)
(-0.079240538 0.26470206 -1.2749148e-20)
(-0.087626485 0.27912563 2.6740011e-21)
(-0.096628777 0.29161948 -1.9503314e-21)
(-0.1062952 0.3018251 1.5015755e-21)
(-0.11668704 0.30950686 -1.1257065e-22)
(-0.1278821 0.31461263 8.6457192e-21)
(-0.13997697 0.31731778 8.3336153e-21)
(-0.15309671 0.31802589 -1.5990801e-20)
(-0.16736361 0.31730972 -2.6692852e-21)
(-0.18278568 0.31572724 8.7554638e-21)
(-0.19956374 0.31341435 3.0698316e-21)
(-0.2178437 0.31046465 7.6502161e-21)
(-0.2375452 0.30715175 -8.4418789e-21)
(-0.25873597 0.30361523 -3.9440072e-21)
(-0.28140312 0.29987985 9.2888449e-21)
(-0.30549877 0.29588991 -4.0107336e-21)
(-0.33090983 0.29151831 -2.8697029e-21)
(-0.35743448 0.28657517 6.0528471e-21)
(-0.38475851 0.28081689 1.8486353e-20)
(-0.41243303 0.27396334 6.5756847e-21)
(-0.43986448 0.26572819 -4.2452453e-21)
(-0.46633533 0.25586615 -1.1344231e-20)
(-0.49102612 0.24422285 -1.3286269e-20)
(-0.5131556 0.23083486 -1.6090712e-20)
(-0.53203692 0.21602543 -3.6499845e-20)
(-0.546933 0.20011847 1.7227274e-21)
(-0.55698674 0.18339564 -1.7228224e-20)
(-0.56142395 0.16609384 1.0992012e-19)
(-0.55958075 0.14830339 3.2827911e-20)
(-0.55080937 0.13004714 3.9087481e-20)
(-0.53437396 0.11114385 1.1560346e-19)
(-0.50932673 0.091125613 -1.4279506e-19)
(-0.47460159 0.069520419 3.3169957e-20)
(-0.42910243 0.045975399 1.0977507e-19)
(-0.37100006 0.01965181 1.3653408e-19)
(-0.29794319 -0.011263883 1.6877096e-20)
(-0.20731885 -0.048667883 -4.4315902e-20)
(-0.096097513 -0.095981842 -6.7827149e-20)
(0.040486114 -0.16286714 2.7848074e-20)
(0.22192814 -0.26027192 -4.176067e-20)
(0.44124736 -0.36110615 1.9874835e-20)
(0.64377546 -0.40701008 4.1527549e-21)
(0.78955943 -0.38896079 3.5842486e-21)
(0.87383329 -0.32792554 5.8863145e-21)
(0.90897099 -0.25196581 -1.9286363e-21)
(0.92126323 -0.18248514 7.1797309e-21)
(-0.00091552204 0.0036239127 -1.5232827e-21)
(-0.0028313855 0.011184291 -4.0803296e-22)
(-0.0049433739 0.019483795 4.4787597e-22)
(-0.007268069 0.028574938 2.2011757e-21)
(-0.0098226396 0.038509523 -2.6385755e-21)
(-0.012624978 0.049337032 2.2385441e-21)
(-0.015693496 0.061102653 1.0696219e-21)
(-0.019046828 0.073844752 -5.7012924e-23)
(-0.022703582 0.087591666 -8.9922151e-22)
(-0.026681989 0.10235774 -5.1047239e-21)
(-0.030999522 0.11813849 8.545036e-21)
(-0.035672441 0.13490488 -1.0228051e-20)
(-0.040715331 0.15259663 2.986845e-21)
(-0.046140629 0.17111472 4.0326404e-21)
(-0.051958235 0.19031338 -6.1348495e-21)
(-0.058175257 0.20999214 1.1978721e-20)
(-0.064796045 0.22988892 -1.4358567e-20)
(-0.071822653 0.24967567 -2.2996033e-22)
(-0.079255937 0.26895888 -7.987642e-21)
(-0.087097507 0.28728768 3.1054027e-20)
(-0.095352735 0.30417317 -7.344201e-21)
(-0.10403493 0.31912204 -2.976289e-20)
(-0.11317059 0.33168676 1.3635711e-20)
(-0.12280533 0.3415307 1.5864385e-20)
(-0.13300936 0.34850061 -3.8168827e-21)
(-0.14387983 0.35268892 -1.9752152e-20)
(-0.15553974 0.3544565 2.8759398e-20)
(-0.16813647 0.35438229 -3.1072821e-20)
(-0.18174401 0.35312588 2.3886534e-20)
(-0.19644378 0.35113561 -4.4959735e-21)
(-0.21241098 0.348426 8.0897333e-21)
(-0.22967486 0.34511833 1.194257e-20)
(-0.24819762 0.34145315 -4.2647403e-21)
(-0.26796379 0.33751094 -8.6984834e-22)
(-0.2888826 0.3332353 -1.8971445e-20)
(-0.31080192 0.32847543 3.3332189e-21)
(-0.33347554 0.32300478 -1.0677848e-20)
(-0.35654077 0.31653721 1.0577475e-20)
(-0.379504 0.3087537 -5.36778e-21)
(-0.40174577 0.29934557 -4.6512234e-21)
(-0.42256175 0.28807291 -4.5933974e-21)
(-0.44118844 0.27482095 -4.4364301e-21)
(-0.4569651 0.25969541 3.0630488e-20)
(-0.46923897 0.2430448 2.7565832e-20)
(-0.47729216 0.22518895 -7.3598818e-21)
(-0.48033779 0.20644423 6.1887171e-21)
(-0.47770646 0.1871126 -2.4273211e-20)
(-0.46878004 0.16732053 5.4237443e-20)
(-0.45289241 0.1470415 6.7415731e-20)
(-0.42923735 0.12606451 2.1091099e-20)
(-0.39694213 0.10395453 5.62521e-20)
(-0.3545531 0.080161513 -1.9113162e-21)
(-0.30104575 0.054155894 -2.8562379e-20)
(-0.23473361 0.024997895 -1.4425684e-19)
(-0.15262545 -0.0091894134 7.2593647e-20)
(-0.052205749 -0.050275766 -2.9897634e-20)
(0.068867884 -0.10186013 7.7560796e-20)
(0.21812325 -0.17608215 -1.1897525e-19)
(0.41605163 -0.28087529 5.5608201e-20)
(0.63360549 -0.38368459 -1.3544817e-20)
(0.80604774 -0.42297209 1.1947434e-21)
(0.90489662 -0.39737587 -5.3628674e-22)
(0.94212447 -0.33052865 -2.2877128e-21)
(0.94176995 -0.25259756 -6.6380883e-21)
(0.93382741 -0.18389943 8.0887946e-21)
(-0.0010506553 0.0036676412 3.7085341e-21)
(-0.0032459894 0.011328173 2.550235e-21)
(-0.0056607255 0.019749194 -4.0020133e-21)
(-0.0083121539 0.028988064 1.0532178e-22)
(-0.011218019 0.039102406 3.6146251e-21)
(-0.014396318 0.050148743 1.8890182e-21)
(-0.017865002 0.062180723 -3.9764601e-21)
(-0.021641604 0.075246789 6.5275373e-22)
(-0.025742792 0.089387181 -9.1849714e-21)
(-0.030183823 0.10463016 1.7862755e-21)
(-0.034977921 0.1209873 4.6806846e-23)
(-0.040135568 0.13844773 -6.5413998e-21)
(-0.045663738 0.1569713 2.0875122e-20)
(-0.051565123 0.17648052 -9.6821537e-21)
(-0.05783741 0.19685168 -1.7245162e-20)
(-0.064472736 0.2179053 1.8242776e-20)
(-0.071457471 0.23939691 -2.242151e-21)
(-0.07877256 0.26100956 1.2508374e-20)
(-0.086394704 0.28235006 9.1631071e-21)
(-0.094298714 0.30295226 -2.8395181e-20)
(-0.10246137 0.32229107 2.0921161e-20)
(-0.11086697 0.33981171 -2.7012468e-20)
(-0.11951465 0.35497771 3.0748909e-21)
(-0.12842671 0.36733859 -1.2392183e-20)
(-0.13765686 0.37661187 2.6091354e-20)
(-0.14729549 0.38276385 -6.0366236e-21)
(-0.15746711 0.38605986 -1.4876327e-20)
(-0.16831858 0.3870435 3.4697353e-20)
(-0.17999115 0.38641819 -1.44823e-20)
(-0.19255181 0.38482269 -1.5709488e-20)
(-0.20606431 0.38253521 1.2829688e-20)
(-0.22065669 0.37958675 1.9339607e-21)
(-0.23632191 0.37606239 -9.1178794e-21)
(-0.25296315 0.37209005 5.1259781e-21)
(-0.27049401 0.36767433 -8.4889874e-21)
(-0.2887194 0.36266357 3.1159568e-20)
(-0.30734625 0.35680115 -1.7794003e-20)
(-0.32597085 0.34976605 -1.1727726e-20)
(-0.3440715 0.34121107 -2.6546204e-20)
(-0.36102897 0.33081909 -5.0214271e-21)
(-0.37617972 0.31836608 3.1207276e-20)
(-0.38884902 0.30377827 -1.3396893e-20)
(-0.39845549 0.28720424 -2.1205514e-20)
(-0.40438589 0.26896875 -2.5556923e-21)
(-0.4059203 0.24939938 2.6762517e-20)
(-0.40231885 0.22887458 2.5181859e-20)
(-0.39295264 0.20776867 -8.2827143e-20)
(-0.37723388 0.18622949 -4.6967e-20)
(-0.35447133 0.16420359 -1.0876211e-19)
(-0.323815 0.14143874 -4.0104844e-20)
(-0.28424379 0.11737668 -1.6346495e-20)
(-0.23445453 0.091507338 -1.2784217e-19)
(-0.17298348 0.063305579 -5.18064e-20)
(-0.098470865 0.031421268 1.7627461e-19)
(-0.0071661976 -0.0059126413 -1.4156582e-19)
(0.10299793 -0.050249644 1.2464657e-19)
(0.23322792 -0.10637674 -5.6821243e-20)
(0.39707118 -0.18777358 2.4520071e-19)
(0.60931169 -0.29706919 1.0080791e-19)
(0.8147576 -0.39617759 -2.7702683e-20)
(0.94675863 -0.42711318 -2.4263843e-20)
(0.99522739 -0.39366062 -1.9394197e-20)
(0.98995458 -0.32434587 -3.7142272e-21)
(0.96317141 -0.24799939 9.1011209e-22)
(0.9436536 -0.18248841 -9.4918641e-21)
(-0.0011546445 0.0035909045 7.225501e-23)
(-0.003565543 0.011101353 -5.1486124e-21)
(-0.0062142497 0.019370576 6.0664464e-21)
(-0.0091187698 0.028459499 2.9168537e-21)
(-0.012297528 0.038430432 -5.8388335e-21)
(-0.01576887 0.049346047 -1.8889899e-21)
(-0.01955071 0.061267907 9.1507112e-21)
(-0.023660106 0.074254463 -9.8321009e-21)
(-0.028112662 0.088358449 -2.0695401e-21)
(-0.032921834 0.10362349 -8.2118297e-21)
(-0.038098098 0.12007978 2.1746772e-20)
(-0.043648017 0.13773863 2.5940988e-22)
(-0.049573199 0.15658574 -1.9358753e-20)
(-0.055869192 0.17657308 2.0661391e-20)
(-0.062524399 0.1976094 -1.4681636e-20)
(-0.069519112 0.21954949 -5.3959578e-21)
(-0.076824877 0.24218289 1.1160365e-20)
(-0.08440442 0.26522308 -9.9371447e-21)
(-0.092212529 0.28829916 -1.3063716e-20)
(-0.10019831 0.310953 2.7512787e-22)
(-0.1083093 0.33264577 1.985941e-20)
(-0.11649788 0.35277959 -1.2042562e-20)
(-0.12473024 0.3707392 6.5751862e-21)
(-0.13299725 0.38595709 3.0795548e-20)
(-0.14132595 0.39800063 1.015439e-20)
(-0.14978858 0.40666899 -2.6483875e-20)
(-0.15850389 0.41207324 2.5998236e-21)
(-0.16762392 0.41465608 -2.8339792e-20)
(-0.17730479 0.41510636 1.613614e-20)
(-0.18765902 0.41416325 -8.6008493e-21)
(-0.19875346 0.41236602 1.2283034e-20)
(-0.2105962 0.40990606 3.1586878e-21)
(-0.22321055 0.40679425 -1.5737329e-20)
(-0.23659245 0.40309804 1.6652712e-20)
(-0.25059379 0.39880774 2.6966121e-20)
(-0.26498726 0.39376911 -1.2229178e-21)
(-0.27945265 0.38771914 -3.1836434e-20)
(-0.29355836 0.38031506 4.3586218e-20)
(-0.30677315 0.37119372 -9.6051971e-21)
(-0.31849849 0.36004333 2.316722e-20)
(-0.3281154 0.34666846 -4.3160936e-21)
(-0.3350241 0.33103178 4.2469994e-20)
(-0.33867341 0.31330989 2.1772162e-20)
(-0.33847754 0.29379837 3.1555714e-20)
(-0.33374507 0.27281028 -1.3813186e-19)
(-0.32377337 0.25075174 -5.0555522e-20)
(-0.30789139 0.22810451 7.0497491e-20)
(-0.28552954 0.20506074 -6.1536679e-20)
(-0.25593954 0.18152206 -5.5510115e-20)
(-0.21821428 0.15721246 6.5731308e-20)
(-0.1712141 0.13153626 3.6188551e-20)
(-0.11359398 0.10386364 8.8794366e-20)
(-0.044479362 0.073617943 4.4216952e-20)
(0.03841814 0.039220114 -1.5189683e-19)
(0.13913618 -0.0010592157 -8.4060023e-20)
(0.25806821 -0.04834857 -1.3319504e-20)
(0.39755425 -0.10936178 -7.1908426e-23)
(0.57830788 -0.19733663 -5.994163e-20)
(0.79748109 -0.30707099 6.9514849e-20)
(0.97610897 -0.39680424 6.202674e-20)
(1.060173 -0.41717059 1.0213189e-20)
(1.060287 -0.37933732 4.2603503e-20)
(1.0214895 -0.31155037 1.1123532e-20)
(0.97838225 -0.23999833 1.307237e-21)
(0.95406642 -0.17919862 9.6134534e-22)
(-0.0012172999 0.0034001595 -2.6133308e-21)
(-0.0037586689 0.010522873 -2.3127444e-21)
(-0.0065494446 0.018379672 4.8059128e-21)
(-0.0096082429 0.027033462 -8.2299313e-21)
(-0.012954163 0.036549708 -2.0562438e-21)
(-0.016606058 0.046995821 8.8069299e-21)
(-0.020582154 0.058440073 -4.4975297e-23)
(-0.024899632 0.070950033 5.24801e-21)
(-0.029573923 0.084590503 -1.5637931e-21)
(-0.03461792 0.099420708 3.2657585e-23)