/*--------------------------------*- C++ -*----------------------------------*\
  =========                 |
  \\      /  F ield         | OpenFOAM: The Open Source CFD Toolbox
   \\    /   O peration     | Website:  https://openfoam.org
    \\  /    A nd           | Version:  13
     \\/     M anipulation  |
\*---------------------------------------------------------------------------*/
FoamFile
{
    format      ascii;
    class       volVectorField;
    location    "45.501249";
    object      wallShearStress;
}
// * * * * * * * * * * * * * * * * * * * * * * * * * * * * * * * * * * * * * //

dimensions      [0 2 -2 0 0 0 0];

internalField   uniform (0 0 0);

boundaryField
{
    inlet
    {
        type            calculated;
        value           uniform (0 0 0);
    }
    outlet
    {
        type            calculated;
        value           uniform (0 0 0);
    }
    cylinder
    {
        type            calculated;
        value           nonuniform List<vector> 
132
(
(3.3942055e-07 0.00025223948 -3.0414982e-22)
(5.7108206e-06 -4.9660955e-05 8.6171112e-23)
(2.6901658e-05 -0.00034273082 4.7318236e-21)
(6.3738683e-05 -0.00062184456 -1.5783564e-20)
(0.00011478334 -0.00088212129 1.1071889e-20)
(0.00017823515 -0.0011190532 3.3614477e-20)
(0.00025188747 -0.0013286693 -6.3277875e-21)
(0.00033315361 -0.0015077116 -2.4907277e-20)
(0.00041918609 -0.0016538324 2.3327397e-20)
(0.00050701398 -0.0017657119 -5.1981536e-20)
(0.00059371534 -0.0018431877 -9.4043443e-22)
(0.00067659063 -0.0018872786 3.1926285e-20)
(0.00075337067 -0.0019002387 5.1799846e-20)
(0.00082238179 -0.0018854339 -4.1877578e-20)
(0.00088278229 -0.0018474128 4.3909008e-20)
(0.00093473953 -0.0017915815 7.0407492e-20)
(0.00097963371 -0.0017242572 -4.5985904e-20)
(0.0010201204 -0.0016522252 7.356136e-20)
(0.0010603902 -0.0015827261 9.7037011e-20)
(0.0011062915 -0.001523171 -6.2826998e-20)
(0.0011655034 -0.0014809305 -7.9960471e-20)
(0.0012477067 -0.0014631016 2.814984e-23)
(0.0013645077 -0.0014759749 1.1579338e-20)
(0.0015285169 -0.0015237598 -1.3859452e-20)
(0.0017517241 -0.0016071181 -2.3578381e-20)
(0.0020414066 -0.0017202748 5.0443314e-21)
(0.0023984269 -0.0018515843 -4.5567675e-20)
(0.002808414 -0.0019794109 1.2182362e-20)
(0.0032455432 -0.002079109 9.5720347e-21)
(0.0036802364 -0.0021305381 -6.5958887e-20)
(0.0040782405 -0.0021179932 8.6105515e-20)
(0.0044128242 -0.0020366959 2.6070254e-21)
(0.0046491178 -0.0018840632 1.8802714e-20)
(0.0047100496 -0.0016497138 -2.2298001e-20)
(0.0044789915 -0.0013274697 7.0922337e-20)
(0.0037919016 -0.00092386146 -4.4907259e-21)
(0.0024628616 -0.00047567363 1.8134334e-20)
(0.00026066609 -5.3159926e-05 -2.4918394e-21)
(-0.0030004701 0.00021868448 3.5747605e-21)
(-0.0074774091 0.00016550607 -2.2273226e-21)
(-0.013549385 -0.00044997927 4.1487845e-21)
(-0.02107968 -0.0019575109 -1.2743238e-22)
(-0.029381364 -0.0045184794 4.6481664e-20)
(-0.037985859 -0.0082034386 -1.7810346e-20)
(-0.046299599 -0.012957564 1.5982632e-20)
(-0.053851073 -0.018634384 -1.0215755e-19)
(-0.060197796 -0.024984632 -1.6406961e-20)
(-0.065083 -0.031733441 1.4361366e-19)
(-0.068321565 -0.038571088 -1.222643e-19)
(-0.069879779 -0.045210381 -2.3340607e-21)
(-0.069762679 -0.051353345 3.7302474e-20)
(-0.068123202 -0.056785151 -3.4185155e-20)
(-0.065051947 -0.061236758 -6.7883132e-21)
(-0.060785123 -0.064563084 -4.4544751e-21)
(-0.055578964 -0.066667456 -7.6429289e-21)
(-0.049605219 -0.067379504 -1.6516308e-21)
(-0.0431542 -0.066694397 5.4996196e-22)
(-0.036461531 -0.064579193 4.6964058e-20)
(-0.029775976 -0.061064486 -7.3190462e-20)
(-0.023331384 -0.056211976 -7.8886022e-20)
(-0.017345664 -0.05011804 -3.2205559e-20)
(-0.012016312 -0.042911808 -7.4089362e-20)
(-0.0075155003 -0.034750355 1.6564923e-20)
(-0.0039839496 -0.025814504 2.4130066e-20)
(-0.0015372707 -0.016322192 -3.7517966e-20)
(-0.00023676994 -0.0064416367 -5.0106861e-21)
(1.1497081e-05 0.00056040397 -1.4053886e-21)
(3.9619831e-05 0.00087539742 -8.4052313e-23)
(8.6266985e-05 0.0011952503 -4.8428946e-21)
(0.00015166505 0.0015145326 1.6291517e-20)
(0.00023568224 0.0018270863 -1.15334e-20)
(0.00033746728 0.0021262792 -3.5336872e-20)
(0.00045534854 0.0024052069 6.7125643e-21)
(0.00058681293 0.0026570076 2.6658662e-20)
(0.00072866122 0.0028751092 -2.5186912e-20)
(0.00087689022 0.0030535992 5.6603513e-20)
(0.0010269132 0.0031876163 1.0323562e-21)
(0.0011737611 0.0032736612 -3.5325685e-20)
(0.0013124035 0.0033100258 -5.7740103e-20)
(0.0014380465 0.0032969147 4.700363e-20)
(0.0015466515 0.0032369068 -4.9599026e-20)
(0.0016352314 0.0031346966 -7.9995338e-20)
(0.0017023928 0.0029972471 5.2521528e-20)
(0.0017487889 0.0028336458 -8.440526e-20)
(0.0017773775 0.0026545155 -1.1178892e-19)
(0.0017940062 0.0024720095 7.2626284e-20)
(0.0018073196 0.0022987053 9.2696503e-20)
(0.0018291769 0.0021473938 8.3114801e-20)
(0.0018738886 0.0020294541 6.8350528e-20)
(0.001957662 0.0019539495 1.6157877e-20)
(0.0020954856 0.0019246359 2.7519407e-20)
(0.0022991428 0.0019392547 -5.8924864e-21)
(0.0025721783 0.0019871016 5.3266549e-20)
(0.0029085635 0.002050952 -1.4249023e-20)
(0.003286705 0.0021061273 -1.1203034e-20)
(0.0036691455 0.0021245904 7.7253161e-20)
(0.0040190227 0.0020876746 -1.0092976e-19)
(0.0042919751 0.0019815399 -3.0407998e-21)
(0.0044263887 0.0017948126 5.0233361e-20)
(0.0043237513 0.0015160291 2.6206176e-20)
(0.003851067 0.0011439577 -8.3396291e-20)
(0.0028325623 0.00069461261 5.2807159e-21)
(0.0010799159 0.00021850571 1.5539766e-20)
(-0.0016297357 -0.00019767301 2.9226378e-21)
(-0.0054912196 -0.0004185358 -4.1786748e-21)
(-0.010541143 -0.00024761306 2.5909806e-21)
(-0.017176923 0.00056285649 -4.7931079e-21)
(-0.025158404 0.0023302713 3.8473539e-20)
(-0.033703242 0.0051774725 -5.2685184e-20)
(-0.042365269 0.0091438054 1.9974996e-20)
(-0.050513451 0.014132374 -1.773511e-20)
(-0.057741225 0.019976351 1.1222103e-19)
(-0.063654728 0.026413982 1.785066e-20)
(-0.068035693 0.033168022 -1.5489815e-19)
(-0.070742034 0.03993278 1.3081755e-19)
(-0.071775371 0.046432264 2.4794702e-21)
(-0.071144538 0.052366268 -3.9360552e-20)
(-0.069056652 0.057559182 3.5868939e-20)
(-0.065553189 0.061704331 -5.703245e-20)
(-0.060919209 0.064701632 4.6222112e-21)
(-0.055436963 0.066493029 -1.08617e-20)
(-0.049214473 0.066844322 1.7499298e-21)
(-0.042588468 0.065815311 -5.675916e-22)
(-0.035775606 0.063358904 -4.8204758e-20)
(-0.029025977 0.059520034 7.4823084e-20)
(-0.022568885 0.054367031 8.0366152e-20)
(-0.016616784 0.048001712 3.2705274e-20)
(-0.011361996 0.040560545 7.5013256e-20)
(-0.0069696585 0.032203433 -1.6723504e-20)
(-0.0035738975 0.02311805 4.8180408e-20)
(-0.0012821242 0.013512898 3.7669019e-20)
(-0.00015318351 0.0036069103 5.0204094e-21)
)
;
    }
    frontAndBack
    {
        type            empty;
    }
}


// ************************************************************************* //
