/*--------------------------------*- C++ -*----------------------------------*\
  =========                 |
  \\      /  F ield         | OpenFOAM: The Open Source CFD Toolbox
   \\    /   O peration     | Website:  https://openfoam.org
    \\  /    A nd           | Version:  13
     \\/     M anipulation  |
\*---------------------------------------------------------------------------*/
FoamFile
{
    format      ascii;
    class       volScalarField;
    location    "15.999062";
    object      omega;
}
// * * * * * * * * * * * * * * * * * * * * * * * * * * * * * * * * * * * * * //

dimensions      [0 0 -1 0 0 0 0];

internalField   nonuniform List<scalar> 
17140
(
3736295.3
603677.4
185334.46
78620.087
40004.089
22783.844
13990.38
9059.4447
6100.3189
4231.5202
3003.7071
2171.3222
1592.5063
1181.5137
884.53893
666.74298
504.96162
383.44291
291.27135
220.76678
166.46611
124.46273
91.967641
67.002038
48.154092
34.354089
24.667374
18.170978
13.912741
11.106749
9.2860333
8.1424563
7.4151738
6.9128513
6.5198309
6.1816886
5.8804229
5.6125001
5.3779124
5.1768561
5.0091419
4.8733903
4.7673711
4.6880932
4.6325168
4.5980375
4.5763997
4.5590823
4.5442117
4.527042
4.5029654
4.4707229
4.4324926
4.3924789
4.3590689
4.3460748
4.3421039
4.3687623
4.4197042
4.4807872
4.5362804
4.5593788
4.3429016
4.0699356
3.6201017
3736320.9
603682.03
185336.17
78620.985
40004.646
22784.233
13990.678
9059.6898
6100.5327
4231.716
3003.8934
2171.5047
1592.6891
1181.6995
884.72948
666.93928
505.16389
383.65067
291.48326
220.98056
166.67832
124.66854
92.160774
67.175033
48.299461
34.466444
24.745724
18.21914
13.943413
11.126084
9.2943518
8.1423981
7.4101559
6.9062874
6.5142624
6.1786264
5.88085
5.6171455
5.3872271
5.1916649
5.0300239
4.9009746
4.8020815
4.7301672
4.6823946
4.657548
4.6488613
4.6491417
4.6586475
4.6728714
4.6852708
4.6940602
4.6991568
4.7003732
4.6973013
4.6976004
4.7079912
4.729047
4.7851014
4.8726132
4.9787772
5.0303763
4.8322968
4.5052704
3.9352413
3736345.9
603686.16
185337.48
78621.593
40005.019
22784.518
13990.934
9059.9432
6100.7986
4232.0034
3004.2079
2171.8501
1593.0676
1182.1122
885.17642
667.41916
505.67415
384.1872
292.04012
221.54951
167.24828
125.22498
92.685416
67.646672
48.696961
34.774443
24.9609
18.351465
14.028003
11.179912
9.3181359
8.1432811
7.3976013
6.8887557
6.4978297
6.1664091
5.8751505
5.6201698
5.400529
5.2169705
5.0689236
4.9545301
4.8707877
4.8158082
4.7872004
4.7776921
4.786186
4.8146176
4.8557604
4.9057881
4.9614492
5.0204265
5.0756717
5.1235299
5.1612383
5.1903154
5.2129631
5.2300343
5.260492
5.3069967
5.3557921
5.3800076
5.0898839
4.6115729
3.8273583
3736372.1
603690.47
185338.86
78622.268
40005.465
22784.89
13991.295
9060.3216
6101.2099
4232.4576
3004.7119
2172.4083
1593.6827
1182.7854
885.90718
668.2052
506.51114
385.06836
292.95574
222.48623
168.18811
126.14433
93.554531
68.430787
49.36095
35.291951
25.324777
18.576501
14.172751
11.273616
9.362269
8.1491981
7.3808475
6.863222
6.4722219
6.1462025
5.8634154
5.6199157
5.415284
5.2484112
5.1188506
5.02393
4.9619972
4.9293463
4.9172185
4.92125
4.9498046
4.9935688
5.0496878
5.1119637
5.178754
5.2458686
5.3094155
5.3637795
5.4043815
5.4289277
5.4374188
5.4337289
5.4306792
5.4417683
5.4573547
5.4587427
5.1014921
4.3271796
3.3129492
3736400.1
603695.06
185340.34
78623.011
40005.983
22785.346
13991.758
9060.8201
6101.7611
4233.0727
3005.3988
2173.1723
1594.5274
1183.7122
886.91538
669.29188
507.67058
386.29159
294.2298
223.79313
169.50357
127.43629
94.782309
69.546362
50.31497
36.04611
25.866859
18.926772
14.380782
11.399423
9.4291408
8.1645273
7.3627304
6.8297079
6.4367152
6.1169026
5.844918
5.6148365
5.4278281
5.2803506
5.1714062
5.0996
5.0612079
5.04605
5.044355
5.0662684
5.1055979
5.1554247
5.212463
5.2716674
5.3300704
5.3844436
5.4325353
5.4713717
5.4922772
5.5020254
5.4975187
5.4680154
5.4325648
5.4125605
5.4198118
5.353125
4.9330546
3.9069882
2.7715516
3736429.1
603699.8
185341.87
78623.811
40006.566
22785.879
13992.313
9061.4275
6102.4393
4233.8342
3006.2526
2174.125
1595.5832
1184.8733
888.18142
670.65975
509.13385
387.83982
295.84759
225.45885
171.18765
129.09932
96.373637
71.005202
51.577057
37.058505
26.607289
19.414037
14.663108
11.568637
9.5280276
8.1972141
7.3487522
6.7908656
6.3912949
6.0775606
5.8183913
5.6039719
5.4342856
5.3074784
5.2203305
5.1720785
5.150933
5.1460732
5.1586177
5.1911784
5.2343372
5.2833239
5.3343279
5.3833454
5.4276462
5.46466
5.4920761
5.5068998
5.5124018
5.5036723
5.4746401
5.422825
5.3601659
5.3223883
5.3271448
5.1924659
4.6455817
3.3912742
2.2245387
3736459.3
603704.7
185343.46
78624.661
40007.204
22786.478
13992.946
9062.1254
6103.2231
4234.7177
3007.2461
2175.2364
1596.8179
1186.2344
889.66956
672.2723
510.8645
389.67764
297.7759
227.45365
173.21554
131.1151
98.3183
72.806407
53.155745
38.34522
27.565638
20.056742
15.043294
11.79369
9.6643287
8.25598
7.3457545
6.7522651
6.3407988
6.0303031
5.7827077
5.58494
5.4315074
5.3248983
5.2606127
5.2297291
5.2199975
5.2249742
5.249115
5.2862682
5.3290404
5.3732815
5.4152308
5.4521032
5.4821209
5.5008793
5.5104607
5.5117737
5.5000913
5.4700754
5.41772
5.3495811
5.2785168
5.2358037
5.2299319
5.0208192
4.2546504
2.8370455
1.7424476
3736490.6
603709.79
185345.11
78625.558
40007.89
22787.128
13993.64
9062.8959
6104.0913
4235.6991
3008.3524
2176.4767
1598.1992
1187.7612
891.34383
674.09272
512.82574
391.76937
299.98142
229.74808
175.56342
133.46745
100.60998
74.955648
55.070027
39.937992
28.783205
20.90095
15.569153
12.080539
9.8276198
8.3446228
7.3639981
6.7233443
6.2909542
5.9784557
5.7398813
5.5562676
5.4199386
5.3299189
5.2835911
5.265384
5.2630857
5.2788226
5.309949
5.3488395
5.3894926
5.4279222
5.4606136
5.4859963
5.5017636
5.5079099
5.506498
5.4952052
5.4674971
5.4191658
5.3533388
5.2775022
5.2087697
5.1815642
5.1452117
4.8346873
3.73264
2.2883281
1.3416915
3736522
603715.03
185346.83
78626.496
40008.609
22787.816
13994.378
9063.7181
6105.02
4236.751
3009.5406
2177.8119
1599.69
1189.4142
893.16286
676.07845
514.97482
394.07326
302.42484
232.30696
178.20213
136.13547
103.23841
77.455658
57.337141
41.867883
30.300563
21.989109
16.275975
12.491856
10.037444
8.4525639
7.4082197
6.71298
6.2485208
5.926213
5.6919479
5.5195454
5.3975439
5.3212614
5.283872
5.2732058
5.2789889
5.3032132
5.3391423
5.3793192
5.4182695
5.451956
5.4769572
5.4920858
5.4983785
5.4977619
5.4867332
5.4623414
5.4241704
5.364528
5.2913314
5.2166486
5.169278
5.1611294
5.0551838
4.6012746
3.0883698
1.7718153
1.0205516
3736555.2
603720.48
185348.62
78627.469
40009.354
22788.529
13995.142
9064.5703
6105.9836
4237.8439
3010.7774
2179.2051
1601.2501
1191.1499
895.08044
678.18147
517.26291
396.54095
305.05985
235.0879
181.09548
139.09168
106.18773
80.305161
59.972897
44.168422
32.165807
23.376396
17.217416
13.074443
10.363174
8.6079344
7.4675532
6.7199901
6.2221725
5.8823355
5.6450576
5.4785454
5.365629
5.3006301
5.2709534
5.2633818
5.2732764
5.3008702
5.3388475
5.3800929
5.4190423
5.4510958
5.4718497
5.4811294
5.4817991
5.4715433
5.4523896
5.4219529
5.3753453
5.3070207
5.2343288
5.1738807
5.1595989
5.1594643
4.9599771
4.196061
2.3780381
1.3358241
0.77272357
3736589.7
603726.19
185350.52
78628.498
40010.133
22789.264
13995.921
9065.433
6106.9572
4238.9483
3012.0288
2180.6177
1602.8366
1192.9214
897.04635
680.34881
519.63536
399.11754
307.83311
238.04137
184.20034
142.3025
109.43736
83.500314
62.993662
46.878043
34.437278
25.132773
18.462539
13.885622
10.850519
8.8749509
7.5948808
6.762244
6.2153006
5.8499665
5.6026603
5.435131
5.325951
5.2657535
5.2410278
5.2371014
5.2522605
5.2836157
5.323657
5.3656388
5.4042723
5.4342246
5.4498894
5.4538332
5.4486669
5.4341715
5.411167
5.3769366
5.3223564
5.2512688
5.1857282
5.1570796
5.1835375
5.1509004
4.7816196
3.4421454
1.8137561
0.98912253
0.58480203
3736625.1
603732.1
185352.52
78629.565
40010.929
22789.998
13996.683
9066.2703
6107.899
4240.0159
3013.2401
2181.9885
1604.3817
1194.6546
898.98066
682.49547
522.00327
401.71184
310.65332
241.07874
187.43424
145.6956
112.92986
87.003829
66.387756
50.015156
37.164206
27.331478
20.093608
15.000285
11.557669
9.2928531
7.8213497
6.8673611
6.2466789
5.8409598
5.5706921
5.3935472
5.2819574
5.2213807
5.1971451
5.1948209
5.2125858
5.2459531
5.2877537
5.3303915
5.368441
5.3968404
5.4109306
5.4132033
5.4057376
5.3896068
5.3651879
5.3267861
5.2648649
5.1978557
5.1574687
5.1760047
5.2346552
5.0830462
4.4517041
2.559869
1.2874421
0.72368387
0.45165931
3736662.3
603738.27
185354.57
78630.628
40011.693
22790.685
13997.384
9067.0337
6108.7541
4240.9846
3014.3409
2183.2384
1605.7972
1196.2522
900.77654
684.50569
524.24276
404.19331
313.3854
244.06333
190.66271
149.1437
116.55107
90.72181
70.089764
53.551368
40.361493
30.02938
22.195817
16.509853
12.563986
9.9216612
8.1898093
7.0651856
6.3364561
5.8638157
5.5607638
5.3613873
5.2389237
5.1721829
5.1446308
5.1418545
5.1599757
5.1935743
5.2355202
5.2783674
5.3161371
5.344629
5.3596597
5.3618458
5.3548249
5.339262
5.3138251
5.268269
5.2045678
5.1589337
5.1626416
5.2486938
5.2653867
4.9151388
3.6163841
1.8030036
0.91665447
0.54809225
0.36921891
3736699.8
603744.51
185356.62
78631.658
40012.4
22791.292
13997.984
9067.675
6109.4661
4241.7891
3015.2563
2184.2819
1606.9863
1197.605
902.31242
686.24491
526.20633
406.40201
315.8583
246.81527
193.70065
152.46143
120.12211
94.490592
73.962179
57.388393
43.983426
33.24126
24.837871
18.51426
13.971305
10.84626
8.7636009
7.400637
6.5164198
5.945632
5.5799248
5.3502978
5.2048838
5.1241631
5.0878731
5.0813729
5.0972657
5.129304
5.1703531
5.2128207
5.2504007
5.2794006
5.2964062
5.3005631
5.2957837
5.282235
5.2524825
5.1999939
5.1526718
5.1520097
5.2186438
5.3893976
5.2281101
4.5571693
2.5414574
1.195293
0.63045446
0.4231495
0.31054264
3736738.4
603750.91
185358.68
78632.647
40013.028
22791.791
13998.449
9068.1533
6109.9865
4242.3723
3015.9195
2185.0419
1607.8601
1198.6114
903.47216
687.58129
527.74514
408.17121
317.88699
249.13175
196.32923
155.41748
123.40498
98.074082
77.783087
61.335149
47.890622
36.90055
28.036662
21.09721
15.895276
12.179437
9.6341416
7.9408945
6.833401
6.11631
5.6558983
5.3687317
5.1925726
5.0861542
5.0340374
5.0185909
5.0283266
5.0560422
5.094729
5.1357834
5.1724338
5.2018074
5.2214359
5.2293121
5.2269074
5.2132434
5.1759806
5.1352703
5.1369199
5.2035167
5.4327865
5.4633405
5.0311709
3.5015989
1.5895356
0.79411213
0.47890041
0.35452876
0.26796397
3736780.4
603757.71
185360.79
78633.588
40013.565
22792.165
13998.757
9068.4421
6110.2832
4242.6956
3016.2848
2185.4638
1608.3543
1199.1952
904.16598
688.40909
528.73505
409.35576
319.30282
250.81858
198.32756
157.76461
126.12871
101.18356
81.256527
65.105301
51.83125
40.821958
31.703417
24.278909
18.438489
14.054351
10.927607
8.786289
7.3611368
6.4290766
5.8271589
5.4440859
5.212588
5.0743975
4.9938515
4.9608582
4.9605548
4.9785754
5.0125283
5.0504538
5.0849965
5.1141092
5.1361717
5.1480682
5.1461141
5.1280497
5.1032969
5.1146
5.1917541
5.4258138
5.7169926
5.4572184
4.4775246
2.1384999
0.9838968
0.55404762
0.37882222
0.30598599
0.23777101
3736824.8
603764.72
185362.92
78634.478
40014.009
22792.41
13998.901
9068.5317
6110.3436
4242.7429
3016.3317
2185.5216
1608.4351
1199.3135
904.33926
688.65927
529.08947
409.84818
319.97392
251.71549
199.50174
159.2709
128.02053
103.50523
84.032057
68.323177
55.426458
44.659702
35.574768
27.924033
21.60765
16.58902
12.797628
10.082499
8.2138973
6.9669609
6.1509969
5.6255256
5.2953567
5.1001726
4.9884226
4.9245014
4.9034261
4.9093881
4.932078
4.96408
4.9952731
5.0231679
5.0463659
5.059691
5.0575421
5.0554143
5.0835877
5.1917429
5.474081
6.008327
5.8257306
5.0807666
2.7894478
1.2282164
0.6549828
0.43714765
0.33022417
0.26843702
0.2130256
3736869.6
603771.84
185365.05
78635.323
40014.369
22792.538
13998.898
9068.4411
6110.1893
4242.5384
3016.086
2185.2426
1608.1309
1198.9937
904.016
688.3486
528.8123
409.63169
319.85318
251.73582
199.72203
159.76036
128.85627
104.76485
85.777369
70.59678
58.233102
47.944997
39.205187
31.680535
25.210437
19.763965
15.362653
11.992281
9.5546272
7.8626048
6.7265203
5.9804067
5.4986751
5.201363
5.0278304
4.932447
4.8838272
4.8682392
4.8760291
4.8940113
4.9201844
4.9458188
4.9676417
4.9852909
5.0057335
5.0600765
5.2162334
5.5949558
6.3928828
6.2735991
5.6433668
3.6008395
1.5463723
0.77190327
0.48126398
0.35899768
0.28418356
0.24028815
0.19322439
3736913.9
603779.07
185367.2
78636.129
40014.663
22792.577
13998.779
9068.2087
6109.8646
4242.1321
3015.6041
2184.6892
1607.5099
1198.31
903.27692
687.56462
527.99858
408.80917
319.04979
250.9873
199.07193
159.26285
128.57794
104.78905
86.215046
71.557253
59.80357
50.150604
42.010337
34.964167
28.755861
23.279698
18.548261
14.627756
11.556296
9.2952396
7.7075626
6.630117
5.916734
5.4527141
5.1702745
5.0069072
4.9242196
4.8856214
4.876733
4.8844133
4.8978749
4.9186383
4.9437501
4.9899318
5.0887661
5.3010619
5.7992435
6.9092948
6.8466382
6.265185
4.3474245
1.8363639
0.89347765
0.53988461
0.3967144
0.32063173
0.25920026
0.21649348
0.17385868
3736961
603786.61
185369.41
78636.943
40014.933
22792.569
13998.595
9067.8931
6109.4373
4241.602
3014.9744
2183.9606
1606.6821
1197.3831
902.25229
686.44603
526.79338
407.5297
317.71493
249.62408
197.71722
157.96467
127.39593
103.79275
85.477355
71.164695
59.862793
50.809803
43.380522
37.066111
31.495849
26.460087
21.882174
17.795475
14.293
11.459481
9.3078573
7.7656122
6.7022996
5.9896553
5.5229781
5.2396257
5.0739985
4.996372
4.9671723
4.9683219
4.9833255
5.0148921
5.0730634
5.206451
5.5161654
6.1808549
7.6168065
7.5486226
6.9366432
4.9596776
2.1207548
1.021511
0.60100685
0.43199666
0.34428792
0.2785203
0.2277911
0.19551083
0.16211041
3737011.6
603794.56
185371.73
78637.79
40015.212
22792.556
13998.398
9067.5565
6108.9806
4241.0328
3014.2946
2183.1684
1605.7743
1196.3557
901.10154
685.16945
525.39056
406.00351
316.07303
247.88066
195.89502
156.09717
125.52942
101.98769
83.808551
69.719877
58.735659
50.08252
43.148322
37.46466
32.656108
28.404981
24.462868
20.757454
17.320976
14.25344
11.665127
9.6184496
8.0929774
7.0167969
6.2815492
5.7986074
5.5079641
5.354216
5.2788208
5.2692853
5.2987742
5.3682465
5.5341575
5.9754872
6.9795727
8.5957391
8.412298
7.6962432
5.4544403
2.3658254
1.1397462
0.66211167
0.46541126
0.37162495
0.30349686
0.25432043
0.21230518
0.18132422
0.14943865
3737062.3
603802.66
185374.12
78638.685
40015.528
22792.58
13998.237
9067.2585
6108.5655
4240.5082
3013.6615
2182.4241
1604.9138
1195.3726
899.98877
683.91984
523.99753
404.4619
314.38021
246.038
193.90975
153.9848
123.31655
99.715393
81.536075
67.529092
56.72805
48.357155
41.796661
36.550751
32.228732
28.574763
25.37973
22.449671
19.620072
16.889897
14.342302
12.090675
10.221918
8.7701282
7.70736
6.9734363
6.4982676
6.2272586
6.0629247
6.0415054
6.1012753
6.3019351
6.8662558
8.3637689
9.8099203
9.5256165
8.5234967
5.7905262
2.5541381
1.2423593
0.7192674
0.49979085
0.39936832
0.32619107
0.27189742
0.22605402
0.18880988
0.16432855
0.13999914
3737113.2
603810.94
185376.61
78639.642
40015.902
22792.663
13998.143
9067.0358
6108.2352
4240.0789
3013.1345
2181.7968
1604.1807
1194.5265
899.02093
682.82055
522.75647
403.06869
312.82497
244.31224
192.00764
151.90477
121.06346
97.303006
78.989759
64.887534
54.045878
45.731769
39.363488
34.468403
30.63329
27.490261
24.798222
22.385877
20.221196
18.186696
16.212568
14.294709
12.52615
10.998802
9.7704227
8.8484833
8.1916895
7.7545344
7.4697679
7.4787701
7.6714259
8.3916616
10.27799
11.15094
10.739421
9.368856
5.9534478
2.6736489
1.3258458
0.77211736
0.53374976
0.42204047
0.34342736
0.28642834
0.24113623
0.20701174
0.17806455
0.15456856
0.13093626
3737167.7
603819.7
185379.23
78640.674
40016.337
22792.808
13998.116
9066.8883
6107.9904
4239.7466
3012.7172
2181.2926
1603.585
1193.8323
898.21984
681.90247
521.70987
401.88064
311.48145
242.79872
190.30975
150.00944
118.96016
94.985004
76.454907
62.139367
51.106123
42.641876
36.1949
31.323435
27.676562
24.941504
22.83231
21.075217
19.458155
17.914033
16.463525
15.12179
13.866149
12.687408
11.631457
10.737257
10.024735
9.5017709
9.2987372
9.5191118
10.396696
12.385068
12.555683
11.982781
10.144937
5.8807083
2.7228102
1.3844883
0.82176034
0.56741979
0.44532116
0.35956577
0.30129439
0.25626276
0.22077938
0.18829237
0.16177639
0.14418257
0.12528477
3737225.4
603828.86
185381.98
78641.764
40016.806
22792.978
13998.111
9066.7622
6107.7683
4239.4389
3012.3271
2180.8186
1603.0225
1193.1747
897.45861
681.02763
520.71032
400.74436
310.1956
241.34975
188.68368
148.19217
116.93832
92.747843
73.997282
59.463139
48.218598
39.563269
32.953497
27.964531
24.257817
21.553572
19.611286
18.23276
17.216083
16.376233
15.525672
14.648532
13.78602
13.042225
12.353307
11.695607
11.130435
10.948498
11.358537
12.79136
14.371488
14.041376
13.163308
10.779521
5.632991
2.7144242
1.4314332
0.86841469
0.60375551
0.47058119
0.37936055
0.31734879
0.2698596
0.22996882
0.19810805
0.17304875
0.15143967
0.13429376
0.11778965
3737283.9
603838.25
185384.82
78642.897
40017.292
22793.154
13998.104
9066.6294
6107.5361
4239.1188
3011.923
2180.3297
1602.4448
1192.502
896.6829
680.13929
519.69853
399.59732
308.90094
239.89485
187.05606
146.37989
114.93065
90.536062
71.576287
56.835446
45.39533
36.557915
29.788891
24.67413
20.885514
18.154699
16.253654
14.982974
14.161069
13.622704
13.23234
12.908815
12.617838
12.333312
11.998875
11.813988
12.165394
13.158166
15.447771
16.106649
15.667317
14.229573
10.842208
5.3346438
2.6966665
1.4763779
0.91745339
0.64271099
0.50073577
0.4003452
0.33321178
0.27988792
0.23925388
0.20817754
0.18278472
0.15989994
0.14221354
0.12860427
0.11422529
3737344.3
603848
185387.75
78644.043
40017.753
22793.274
13998.018
9066.3966
6107.1851
4238.6623
3011.3653
2179.6711
1601.6829
1191.633
895.70201
679.04128
518.47776
398.24789
307.41679
238.2698
185.284
144.45539
112.84962
88.296643
69.179631
54.287029
42.707495
33.749241
26.885332
21.708609
17.896301
15.182703
13.339662
12.166394
11.481798
11.126433
10.972757
11.021423
11.195246
11.52926
12.224265
13.366554
15.74492
17.673848
17.675689
17.016423
15.02467
10.566098
5.2851769
2.7242777
1.5350974
0.9724892
0.68818854
0.53515097
0.42445968
0.34872373
0.29184215
0.25026688
0.21956072
0.1913467
0.16855831
0.14949406
0.13289363
0.12062582
0.10900686
3737407.1
603858.11
185390.81
78645.225
40018.225
22793.395
13997.923
9066.1512
6106.8189
4238.1893
3010.7916
2178.9984
1600.9106
1190.7593
894.7245
677.95762
517.28586
396.94619
306.00438
236.74658
183.65082
142.71427
111.00412
86.352682
67.14704
52.179338
40.540876
31.544951
24.669571
19.511844
15.750276
13.115441
11.373266
10.377854
9.9125421
9.8138877
10.067815
10.703236
11.827033
13.461701
15.455049
18.061522
19.448374
19.127789
18.128593
15.518245
10.286765
5.2462484
2.7694947
1.5986731
1.0348477
0.74146091
0.57465927
0.44979487
0.36656598
0.30560656
0.26318483
0.22834682
0.19871022
0.17545478
0.15634905
0.13985433
0.12760111
0.11695561
0.10635891
3737471.9
603868.58
185394.02
78646.55
40018.857
22793.707
13998.059
9066.1797
6106.7726
4238.0857
3010.6404
2178.8046
1600.6769
1190.4865
894.41252
677.60553
516.89223
396.50926
305.52226
236.21757
183.07375
142.08874
110.33083
85.633409
66.383985
51.375891
39.702575
30.685504
23.811779
18.676868
14.96603
12.423882
10.861495
10.131522
9.9440426
10.302139
11.252075
12.857429
15.043109
17.455245
19.905143
21.009105
20.566042
19.151594
15.754659
10.181668
5.2813847
2.8432586
1.6760248
1.1040207
0.80242058
0.6160184
0.47790539
0.38726163
0.32365278
0.27644747
0.23809778
0.20704086
0.18456333
0.16389063
0.1475582
0.13291587
0.12055928
0.11129596
0.10312942
3737539.4
603879.54
185397.39
78648.03
40019.66
22794.222
13998.442
9066.4992
6107.0657
4238.3739
3010.9368
2179.1182
1601.0137
1190.8509
894.80771
678.03365
517.35451
397.00603
306.05288
236.7803
183.66559
142.70527
110.966
86.279506
67.031983
52.016436
40.327586
31.285411
24.380129
19.231509
15.545569
13.083747
11.695805
11.197582
11.452407
12.48056
14.252475
16.694394
19.386317
21.743472
22.55708
21.940202
20.122216
15.996834
10.263408
5.4247915
2.9569055
1.7719435
1.1851108
0.87198279
0.66420911
0.51152352
0.41525983
0.34468285
0.29172386
0.2484858
0.21763103
0.1926691
0.17096688
0.15294368
0.13812639
0.12575916
0.11668955
0.10869911
0.10105443
3737610.3
603890.96
185400.94
78649.626
40020.578
22794.867
13998.976
9066.9965
6107.566
4238.9015
3011.5079
2179.7444
1601.7042
1191.613
895.64746
678.95616
518.36387
398.10533
307.24412
238.06422
185.0415
144.17082
112.51697
87.909667
68.733311
53.779993
42.145248
33.152873
26.297425
21.204398
17.596968
15.27436
14.092
13.93488
14.652711
16.29504
18.740564
21.667147
24.006988
24.285144
23.438549
21.199704
16.422755
10.533943
5.699818
3.113371
1.8879547
1.2821995
0.95205712
0.71914307
0.55256391
0.44657862
0.36824341
0.30748339
0.26226461
0.22899462
0.20186917
0.17791096
0.16021956
0.14439242
0.13223768
0.12158559
0.11215105
0.10481913
0.099081093
3737682.9
603902.71
185404.6
78651.263
40021.51
22795.512
13999.502
9067.4794
6108.0479
4239.4075
3012.0552
2180.3457
1602.3696
1192.3514
896.46669
679.86351
519.36623
399.20924
308.4558
239.38959
186.48613
145.73995
114.21548
89.74233
70.704918
55.895976
44.411963
35.579472
28.900914
24.01344
20.657786
18.654054
17.879579
18.184609
19.405511
21.553716
24.352548
26.507752
26.290367
25.122675
22.278458
16.986601
10.912971
5.9863336
3.2907315
2.0226767
1.393751
1.0399352
0.78164643
0.60100339
0.48421867
0.39498383
0.32926606
0.27951312
0.2431538
0.21110472
0.18682883
0.16750481
0.15116874
0.13709762
0.1256211
0.11590859
0.10914858
0.10315474
0.097662388
3737758.4
603914.96
185408.38
78652.902
40022.393
22796.073
13999.914
9067.821
6108.3615
4239.7186
3012.3806
2180.6979
1602.7589
1192.787
896.95746
680.41846
519.99488
399.92187
309.26371
240.30536
187.52386
146.9156
115.54738
91.251736
72.416365
57.83775
46.617339
38.08762
31.758937
27.279609
24.403492
22.959267
22.812998
23.557823
25.255363
27.309728
29.188372
28.603526
26.993706
23.392343
17.648907
11.3607
6.2921568
3.4952391
2.1773075
1.5224077
1.1378442
0.85499742
0.66014743
0.52882301
0.42766563
0.35464585
0.30058567
0.25717025
0.22274379
0.19643488
0.1762395
0.15729848
0.14317083
0.13045595
0.12121456
0.11329509
0.10596997
0.10054239
0.096255018
3737836.4
603927.56
185412.25
78654.558
40023.251
22796.58
14000.248
9068.0647
6108.5577
4239.8929
3012.5499
2180.8747
1602.9536
1193.0092
897.21689
680.72564
520.36159
400.36167
309.79242
240.9416
188.28965
147.837
116.65526
92.582447
74.013037
59.751307
48.90777
40.824854
35.021895
31.151367
28.958576
28.236869
28.604873
29.628024
31.447249
32.119931
31.193492
28.953776
24.563459
18.354271
11.827029
6.6095716
3.7308216
2.3559036
1.6682419
1.2477385
0.93888289
0.72958253
0.58048103
0.46589933
0.38532944
0.32424629
0.27583103
0.23696603
0.20944302
0.18488329
0.16521118
0.14951903
0.13662222
0.12594996
0.11659009
0.10906426
0.10368316
0.098869931
0.094981686
3737916.9
603940.56
185416.25
78656.271
40024.144
22797.112
14000.602
9068.3268
6108.7731
4240.0884
3012.7436
2181.0802
1603.1824
1193.2723
897.52572
681.09274
520.8013
400.89085
310.43113
241.71393
189.22469
148.96989
118.02827
94.246158
76.027122
62.184875
51.837802
44.333449
39.185173
36.019723
34.526013
34.403949
35.015851
35.765709
35.122186
33.720362
30.774176
25.65111
18.999312
12.245288
6.9467638
4.004787
2.5705009
1.8347298
1.369436
1.0355412
0.80867326
0.64138614
0.51200764
0.42218508
0.35282856
0.29800683
0.25571837
0.22251129
0.19561043
0.17349455
0.15760092
0.14236915
0.1310856
0.12041441
0.11343818
0.10719722
0.10175054
0.09773488
0.0942914
3738001.3
603954.19
185420.46
78658.104
40025.132
22797.736
14001.057
9068.7021
6109.1183
4240.4333
3013.1086
2181.4812
1603.6338
1193.7878
898.11976
681.78133
521.60277
401.8267
311.52701
243.00073
190.73975
150.75841
120.14472
96.753443
78.987768
65.649261
55.878243
49.002455
44.493035
41.894502
40.786727
40.519547
39.928177
38.401275
36.118768
32.39498
26.623745
19.585782
12.673483
7.3701085
4.3529376
2.8324616
2.0174113
1.4995902
1.1438437
0.8995479
0.7113502
0.5683256
0.46551807
0.38634512
0.32482658
0.27731596
0.23934013
0.2078382
0.1853655
0.16562964
0.14975032
0.13631449
0.12596547
0.11755691
0.11025446
0.10414847
0.099694846
0.096165026
0.093226122
3738088.5
603968.33
185424.87
78660.055
40026.219
22798.466
14001.63
9069.2138
6109.6213
4240.9606
3013.6839
2182.124
1604.3616
1194.6184
899.07202
682.8762
522.86438
403.28332
313.21232
244.95522
193.01094
153.40025
123.21406
100.30424
83.066904
70.290271
61.067979
54.715083
50.62695
48.122613
46.350957
44.314159
41.764761
38.674213
34.014173
27.583704
20.200551
13.202665
7.9026849
4.7748219
3.1152093
2.1989245
1.6375013
1.2684039
1.0050469
0.79371386
0.63390878
0.51759978
0.42520721
0.35697786
0.30315491
0.25951136
0.22450366
0.19763576
0.17591247
0.15706879
0.14367252
0.13143473
0.1222469
0.11352716
0.10755206
0.10259606
0.098660848
0.09546684
0.092714016
3738178.6
603982.97
185429.45
78662.122
40027.41
22799.304
14002.324
9069.865
6110.2856
4241.6745
3014.4743
2183.0138
1605.3724
1195.772
900.39204
684.38882
524.59924
405.27413
315.49695
247.5748
196.00979
156.82405
127.10699
104.70454
88.000483
75.737604
66.924927
60.690955
56.18473
52.494021
48.981539
45.450819
41.30054
35.63821
28.574152
20.912366
13.862484
8.5257665
5.2344427
3.4054812
2.3959472
1.8062658
1.4200928
1.1263739
0.88766638
0.70986285
0.57757532
0.47325267
0.394569
0.33419707
0.28406875
0.24455852
0.21320946
0.18701032
0.16786036
0.15112546
0.13838119
0.12664721
0.11817361
0.11092339
0.10562511
0.10099855
0.096974757
0.0943371
0.091944092
3738271.2
603998.11
185434.23
78664.311
40028.71
22800.254
14003.142
9070.658
6111.113
4242.576
3015.4798
2184.149
1606.6616
1197.24
902.06487
686.29471
526.76876
407.74
318.29308
250.73442
199.5609
160.78243
131.46578
109.41979
92.974154
80.827432
71.817397
64.927437
59.297601
54.3347
49.554166
44.106375
37.439207
29.774919
21.853873
14.716991
9.2691523
5.7665738
3.75312
2.6487499
2.0159047
1.5885054
1.2537901
0.99137653
0.79846757
0.64905648
0.53042756
0.44076013
0.36911558
0.31368591
0.26829432
0.23193376
0.20198928
0.17933012
0.16113359
0.14495904
0.13333723
0.12310896
0.11563912
0.10881284
0.1034081
0.099161938
0.096220612
0.093867015
0.091642073
3738367.1
604011
185436.84
78664.791
40028.765
22800.29
14003.284
9070.9523
6111.5812
4243.2321
3016.3366
2185.2204
1607.9635
1198.7906
903.88477
688.4065
529.19604
410.50563
321.41609
254.22496
203.4127
164.96217
135.89917
113.9747
97.441443
84.897258
75.182146
67.321118
60.563471
54.179025
47.266448
39.559592
31.280872
23.063497
15.770133
10.13657
6.3859439
4.1671435
2.9416605
2.2367122
1.7573145
1.3921971
1.116381
0.90674436
0.73474305
0.59789784
0.49445864
0.41207471
0.34761813
0.29776728
0.25484809
0.22085397
0.19389687
0.17162731
0.154811
0.14018674
0.12967393
0.11966467
0.11243963
0.10610064
0.10215783
0.098325072
0.095274923
0.092979403
0.091129479
3739014.3
604121.69
185474.16
78682.548
40038.926
22806.89
14008.009
9074.6174
6114.6294
4245.9257
3018.8442
2187.6577
1610.4155
1201.323
906.55058
691.24888
532.249
413.79243
324.94549
257.9852
207.36314
169.02325
139.94224
117.81506
100.84
87.576191
76.877059
67.773829
59.288995
50.734248
41.88862
32.920227
24.341753
16.843508
11.012297
7.032393
4.6162704
3.2581433
2.4713265
1.9471525
1.5614055
1.2665423
1.0273299
0.82765243
0.67331935
0.55615434
0.46232728
0.38881997
0.32963729
0.28242742
0.24244096
0.21118783
0.18495123
0.16530451
0.14965627
0.13556278
0.12557958
0.11649825
0.11057327
0.10484262
0.10048275
0.096815854
0.094340943
0.092358556
0.090859236
3739013.7
604118.73
185471.81
78680.891
40037.886
22806.312
14007.791
9074.7004
6114.9814
4246.5303
3019.6953
2188.756
1611.766
1202.9331
908.42763
693.39719
534.66607
416.46372
327.83771
261.03824
210.48141
172.06806
142.72847
120.11562
102.41234
88.156016
76.078594
65.167435
54.795452
44.688417
34.925314
25.889376
18.11313
12.042159
7.8132282
5.1666129
3.6370606
2.7433943
2.1647897
1.7478041
1.420553
1.1497744
0.9312863
0.76435041
0.63140611
0.52240523
0.43701712
0.36815234
0.31303531
0.2699277
0.23201308
0.20228093
0.17852093
0.15933281
0.1443207
0.13145082
0.12255233
0.11418691
0.10794016
0.10257801
0.099174629
0.096158463
0.09386389
0.091946011
0.09062628
3739013.8
604118.91
185472.01
78681.165
40038.243
22806.759
14008.337
9075.3564
6115.7575
4247.438
3020.746
2189.9609
1613.135
1204.4732
910.14057
695.27661
536.69304
418.60147
330.0256
263.18567
212.46323
173.72476
143.8787
120.53401
101.79033
86.15205
72.520264
60.148688
48.642177
37.947066
28.293548
20.060421
13.574453
8.93168
5.9150091
4.1191159
3.0700422
2.4172863
1.960241
1.6012003
1.3067491
1.0703887
0.88038559
0.72149466
0.59312971
0.49401514
0.41489712
0.35156441
0.3003198
0.25882316
0.22269331
0.19513125
0.17174127
0.1542472
0.1405651
0.12809933
0.11960551
0.11137077
0.10647363
0.10166638
0.098225379
0.095027017
0.093091471
0.091413246
0.090365779
3739014
604119.05
185472.15
78681.349
40038.481
22807.059
14008.706
9075.8015
6116.2863
4248.058
3021.4642
2190.7829
1614.0633
1205.5054
911.26694
696.47621
537.92985
419.81992
331.14678
264.10623
213.04705
173.79435
143.19189
118.84495
98.928558
82.07979
67.342463
54.13967
42.24311
31.709052
22.762245
15.633
10.396119
6.8792926
4.7317982
3.4797976
2.7268396
2.2151722
1.8177716
1.492718
1.2258295
1.0038507
0.82090808
0.67770039
0.56496819
0.4725622
0.39835883
0.33775745
0.28863446
0.24988156
0.21527218
0.18865478
0.16703397
0.15008078
0.13651488
0.12490375
0.11726885
0.11003148
0.10479228
0.10001661
0.097268287
0.094587008
0.092787337
0.091179821
0.090184972
3739014.9
604119.18
185472.22
78681.426
40038.582
22807.19
14008.87
9076.003
6116.53
4248.3476
3021.8021
2191.1688
1614.4927
1205.9678
911.74262
696.93323
538.31993
420.07373
331.16795
263.7622
212.17964
172.2361
140.80444
115.53345
94.672506
76.96664
61.591881
48.101486
36.35562
26.416651
18.41392
12.399646
8.2334951
5.600213
4.0397218
3.1154996
2.5130146
2.0645471
1.7041935
1.405861
1.157026
0.95373675
0.78979375
0.65369153
0.54174602
0.45350712
0.38294274
0.32585231
0.27950878
0.24195152
0.20853101
0.18348196
0.16205784
0.14613679
0.13387619
0.12259999
0.11515931
0.10776181
0.10346714