/*--------------------------------*- C++ -*----------------------------------*\
  =========                 |
  \\      /  F ield         | OpenFOAM: The Open Source CFD Toolbox
   \\    /   O peration     | Website:  https://openfoam.org
    \\  /    A nd           | Version:  13
     \\/     M anipulation  |
\*---------------------------------------------------------------------------*/
FoamFile
{
    format      ascii;
    class       volScalarField;
    location    "4.501096";
    object      k;
}
// * * * * * * * * * * * * * * * * * * * * * * * * * * * * * * * * * * * * * //

dimensions      [0 2 -2 0 0 0 0];

internalField   nonuniform List<scalar> 
17140
(
9.101859e-11
2.8601098e-09
2.3387573e-08
1.0057515e-07
3.0945811e-07
7.8071112e-07
1.7305045e-06
3.5047604e-06
6.6436303e-06
1.1973979e-05
2.0739703e-05
3.4781207e-05
5.6774852e-05
9.0537756e-05
0.00014138739
0.00021650999
0.00032522346
0.00047890589
0.00069019713
0.00097090962
0.0013280441
0.0017576848
0.0022377299
0.0027224949
0.0031443738
0.0034092302
0.003510222
0.0035101064
0.0034066364
0.0032594056
0.0031073697
0.0029652038
0.0028344635
0.0027139428
0.0026028575
0.0025007944
0.0024075766
0.0023232161
0.002247883
0.0021819757
0.0021258195
0.0020786542
0.0020371286
0.0020071565
0.0019901048
0.0020072631
0.0020753457
0.00216489
0.0022878682
0.002421773
0.002560853
0.0026901487
0.0027954743
0.0028891616
0.0029673053
0.0029361233
0.0027094332
0.0023323179
0.0019013804
0.001468726
0.0010638979
0.0007232
0.00048062259
0.00033437692
0.00025651604
8.9853527e-11
2.8234999e-09
2.3088271e-08
9.9288562e-08
3.0550171e-07
7.7073709e-07
1.7084172e-06
3.460083e-06
6.55908e-06
1.1821932e-05
2.0477145e-05
3.4342703e-05
5.6063089e-05
8.9411413e-05
0.00013964676
0.00021388209
0.00032135118
0.00047334969
0.00068246381
0.00096052747
0.0013147026
0.0017414396
0.0022192342
0.0027031595
0.0031263183
0.0033951553
0.0034986005
0.0035004034
0.0033983851
0.0032506688
0.003097204
0.0029529531
0.0028194835
0.0026954603
0.0025799185
0.002472233
0.0023720072
0.002279103
0.0021932583
0.0021144948
0.0020425223
0.0019757831
0.0019096518
0.0018367474
0.0017809564
0.0017480852
0.0017288994
0.0017167431
0.0017074679
0.0016881217
0.0016566455
0.0016046525
0.0015463357
0.0014991755
0.001466458
0.0014080341
0.0013312718
0.0012399094
0.001102933
0.00094760916
0.0007879567
0.00061036322
0.00044630943
0.00032673305
0.0002516217
8.7096862e-11
2.7368765e-09
2.237995e-08
9.6242684e-08
2.9613105e-07
7.4710197e-07
1.6560495e-06
3.3540939e-06
6.3583758e-06
1.1460768e-05
1.9853046e-05
3.3299614e-05
5.4368655e-05
8.6727786e-05
0.0001354958
0.00020760921
0.00031209827
0.0004600581
0.00066394213
0.0009356321
0.0012826776
0.0017024242
0.0021748471
0.0026569343
0.0030836515
0.0033635093
0.0034746806
0.003480835
0.0033811582
0.0032318076
0.0030739455
0.0029234881
0.0027822818
0.0026486882
0.0025212146
0.002398451
0.0022787014
0.0021622846
0.0020477323
0.0019346085
0.0018219705
0.0017080973
0.0015886516
0.001457352
0.0013494146
0.001255958
0.0011762419
0.0011020796
0.001036958
0.00096888273
0.00090448799
0.00084158055
0.00077971369
0.0007279067
0.00070343823
0.00068586789
0.00066412356
0.00065366358
0.00061971542
0.00056416991
0.00051603294
0.00046305432
0.00037882052
0.00029563884
0.00023245411
8.2769717e-11
2.6009035e-09
2.1268095e-08
9.1461521e-08
2.8142156e-07
7.1000017e-07
1.5738406e-06
3.1876978e-06
6.0432536e-06
1.0893634e-05
1.8872836e-05
3.1660893e-05
5.1705646e-05
8.2507932e-05
0.00012896398
0.00019772877
0.0002975047
0.00043905735
0.00063460751
0.0008960756
0.0012315718
0.0016397941
0.0021030002
0.0025811692
0.0030122054
0.0033090507
0.0034355171
0.003447463
0.0033507724
0.0031978276
0.0030309605
0.0028670331
0.0027093776
0.0025561392
0.0024055584
0.0022565611
0.0021089789
0.0019613316
0.0018138321
0.001667101
0.0015221063
0.0013791816
0.0012362395
0.0010897269
0.00097728115
0.00087884755
0.00081088633
0.0007613947
0.00073031326
0.00070001675
0.00065861782
0.00061250811
0.00055898925
0.00050599691
0.00046951154
0.00045736471
0.00045208123
0.00045988686
0.00045674293
0.00043553695
0.0004088938
0.00039118207
0.00034465654
0.00027471863
0.000214839
7.7016633e-11
2.4201231e-09
1.978985e-08
8.5104802e-08
2.6186465e-07
6.6067081e-07
1.4645348e-06
2.9664443e-06
5.6242068e-06
1.0139367e-05
1.7568943e-05
2.9480422e-05
4.8160835e-05
7.6887552e-05
0.00012025737
0.00018454407
0.00027800124
0.0004109333
0.0005952139
0.00084275807
0.0011623478
0.0015544039
0.0020041714
0.0024756182
0.0029106251
0.0032271193
0.0033707349
0.0033916905
0.0033006263
0.003142371
0.0029621907
0.0027821696
0.0026057084
0.0024312971
0.0022575461
0.0020838706
0.0019103286
0.001737372
0.0015669341
0.0014013152
0.0012434496
0.0010952437
0.00095626717
0.00082491073
0.00074595239
0.0006994237
0.00067783245
0.00066742386
0.00067005032
0.00067320422
0.00065533447
0.00058709092
0.00053380566
0.00045096638
0.00039715287
0.00037650674
0.00037431875
0.00038140502
0.00038960952
0.00038121665
0.00036438985
0.00035437002
0.00032950604
0.00026737378
0.00020703962
6.9995715e-11
2.199503e-09
1.7985827e-08
7.7347094e-08
2.379969e-07
6.0046551e-07
1.3311207e-06
2.6963615e-06
5.1125928e-06
9.2182526e-06
1.5976046e-05
2.6815279e-05
4.3824931e-05
7.0005904e-05
0.00010958199
0.00016834696
0.00025397895
0.00037617007
0.00054628681
0.00077610815
0.0010750563
0.0014454442
0.0018759757
0.0023353981
0.0027705189
0.0031083214
0.0032794389
0.0033149911
0.0032333949
0.0030725974
0.0028810954
0.0026843378
0.0024887299
0.0022938256
0.0020989495
0.0019044689
0.0017117214
0.0015230219
0.0013419336
0.0011723603
0.0010186411
0.00088379513
0.00076859341
0.00069302012
0.00065819137
0.00064690709
0.00065160449
0.00068923246
0.00074073508
0.00077386912
0.00078181393
0.00067359033
0.00059007947
0.00045631519
0.00036992978
0.0003352867
0.00033245456
0.00033908623
0.00035643346
0.00035240043
0.00034337441
0.00033537991
0.00031367545
0.00025879063
0.00020102177
6.202087e-11
1.9489073e-09
1.5936685e-08
6.8535223e-08
2.1088527e-07
5.3207498e-07
1.1795581e-06
2.3895067e-06
4.5312272e-06
8.1713013e-06
1.4164891e-05
2.3783414e-05
3.8888869e-05
6.216391e-05
9.7400176e-05
0.00014982977
0.00022644676
0.00033619414
0.00048977459
0.00069868268
0.0009729048
0.0013167564
0.0017228529
0.0021656412
0.002598198
0.0029576193
0.0031637981
0.0032203409
0.0031550887
0.0029966703
0.0027961447
0.0025841555
0.0023711076
0.0021583247
0.0019461954
0.0017363333
0.0015315964
0.0013359817
0.0011544123
0.00099211528
0.00085409522
0.00074350269
0.00067244499
0.00063759132
0.0006267734
0.00063081029
0.00067358927
0.00074242106
0.00080617229
0.00083851422
0.00085253369
0.00074374534
0.00063894899
0.00047657362
0.00035217257
0.00030193166
0.00029786434
0.00031045566
0.0003340846
0.0003331284
0.00032925192
0.00032119594
0.00029563239
0.00024416565
0.00019163176
5.3480572e-11
1.6805429e-09
1.3742237e-08
5.9098403e-08
1.8185022e-07
4.5882953e-07
1.017225e-06
2.0608086e-06
3.9083675e-06
7.0493278e-06
1.2223197e-05
2.0531205e-05
3.3589878e-05
5.3736021e-05
8.4288295e-05
0.00012985751
0.00019666805
0.00029279478
0.00042811964
0.00061366541
0.00085980126
0.0011727586
0.0015492263
0.0019699271
0.0023951945
0.0027676352
0.0030130249
0.0031046155
0.0030666641
0.0029189093
0.00271426
0.0024896956
0.0022614339
0.0020338049
0.001808598
0.0015886716
0.0013782976
0.0011828072
0.0010079228
0.00085915541
0.00074112176
0.00066493152
0.00062609223
0.00061070115
0.00060850779
0.0006306006
0.00068123391
0.00074248482
0.00081007886
0.00084337871
0.00086378152
0.0007571692
0.00065066832
0.00048248064
0.00033617701
0.00028020522
0.00027721342
0.00029641326
0.00032126221
0.00032200938
0.00031870555
0.00030705373
0.00027219693
0.00022539247
0.00017992256
4.4779172e-11
1.4071156e-09
1.1506375e-08
4.9483384e-08
1.5226619e-07
3.8419583e-07
8.518022e-07
1.7258114e-06
3.273445e-06
5.9052803e-06
1.0242421e-05
1.7211404e-05
2.8175816e-05
4.5114118e-05
7.0850915e-05
0.00010934015
0.00016597702
0.00024787084
0.00036392963
0.00052447943
0.0007399783
0.0010182664
0.0013599361
0.0017522023
0.0021634605
0.0025430695
0.0028262716
0.0029607569
0.0029657444
0.0028406475
0.0026399736
0.0024085115
0.0021693705
0.0019307195
0.0016961913
0.0014700019
0.0012575959
0.001065063
0.0008985363
0.00076361295
0.00066926232
0.00061982273
0.00059751245
0.00059077456
0.0005949642
0.00062525476
0.00066382841
0.00068355873
0.00068772926
0.00072139856
0.0007656088
0.00070606733
0.00062680267
0.00046699877
0.00031447471
0.00026080023
0.00026236545
0.00029000425
0.00031133326
0.00031167829
0.00030587588
0.00028479163
0.00024642665
0.00020672021
0.00016853024
3.6309959e-11
1.1409837e-09
9.3301402e-09
4.0124556e-08
1.2346968e-07
3.1154567e-07
6.9076276e-07
1.3996463e-06
2.6551279e-06
4.7907847e-06
8.3118622e-06
1.3973461e-05
2.2889883e-05
3.6684247e-05
5.768686e-05
8.9185787e-05
0.00013571872
0.00020336327
0.00029992086
0.00043478466
0.00061813115
0.00085891969
0.0011611718
0.0015184577
0.0019078905
0.0022872596
0.0026006164
0.0027880377
0.0028396197
0.0027603099
0.0025786689
0.0023457945
0.0020973094
0.0018488551
0.0016068741
0.0013764841
0.0011637674
0.00097557634
0.00081837848
0.00069688323
0.00062450315
0.0005901774
0.00057678035
0.00057451997
0.00058577989
0.00060243717
0.00060407624
0.00054900173
0.00052053248
0.00052894496
0.00062202314
0.00061282032
0.00056308047
0.00043071124
0.00028791412
0.00024691715
0.00025498521
0.00028694001
0.00030242835
0.00030049294
0.00028799809
0.00025684041
0.00022303179
0.00018987328
0.00015835999
2.8433289e-11
8.9347148e-10
7.3061623e-09
3.1420439e-08
9.6686947e-08
2.4397247e-07
5.4096377e-07
1.0962032e-06
2.0797544e-06
3.753334e-06
6.5138362e-06
1.0955536e-05
1.7957825e-05
2.8806792e-05
4.5359508e-05
7.0257815e-05
0.00010719012
0.00016117901
0.00023882917
0.00034839035
0.00049936321
0.00070121254
0.00096063503
0.0012769885
0.001636358
0.0020066945
0.0023388887
0.0025771103
0.0026831291
0.0026570079
0.0025144332
0.0022994679
0.0020528241
0.0018001347
0.0015529918
0.0013189068
0.0011053328
0.00091918649
0.0007661048
0.00065327068
0.00059285235
0.00056636847
0.00055795882
0.00055766531
0.0005636003
0.00056296735
0.00053010029
0.00045746007
0.00041995922
0.00044064691
0.00054416805
0.00056664495
0.00052773772
0.00039343301
0.00026595136
0.00023910856
0.00025123458
0.00028523139
0.00029119967
0.00028445019
0.00026040167
0.0002315739
0.00020252099
0.00017527521
0.00014944542
2.1439987e-11
6.7371775e-10
5.5091727e-09
2.3692448e-08
7.2907156e-08
1.8397259e-07
4.0794186e-07
8.2670613e-07
1.5686313e-06
2.8314115e-06
4.9152008e-06
8.270226e-06
1.3564497e-05
2.1778784e-05
3.433731e-05
5.3282558e-05
8.149899e-05
0.00012297891
0.00018309648
0.00026880122
0.00038854559
0.00055161563
0.0007663689
0.0010368319
0.0013574945
0.0017074615
0.0020475387
0.0023257089
0.0024944178
0.00253062
0.0024405612
0.0022557321
0.0020217583
0.0017697943
0.0015189809
0.0012809595
0.0010647109
0.00087817269
0.00072863789
0.0006239091
0.00056825121
0.00054284756
0.00053508708
0.000534557
0.0005360303
0.000525447
0.00048159696
0.00040263452
0.00037942397
0.00040757883
0.00051252221
0.00054704578
0.00050251599
0.00034242216
0.00024568141
0.00023439401
0.00025338795
0.00027858832
0.00027793332
0.00026225122
0.00023377918
0.00020944524
0.00018518027
0.00016304825
0.00014178251
1.5524772e-11
4.8784133e-10
3.989208e-09
1.7155782e-08
5.2792722e-08
1.3321851e-07
2.9540895e-07
5.986881e-07
1.1360836e-06
2.0509578e-06
3.5611963e-06
5.9941432e-06
9.8366549e-06
1.5806097e-05
2.4949663e-05
3.8780529e-05
5.9458851e-05
9.0020679e-05
0.00013464342
0.00019890347
0.00028991666
0.0004161407
0.0005864583
0.00080800146
0.0010822061
0.0013992175
0.0017325319
0.0020384434
0.0022657457
0.0023744107
0.0023525829
0.002221865
0.002009948
0.0017666973
0.001517782
0.0012787226
0.0010604814
0.00087165267
0.00071706198
0.00060525162
0.00054528482
0.00052093955
0.00051203437
0.0005094592
0.00050724524
0.00049422473
0.000455716
0.00037609544
0.00036691037
0.00039799603
0.00051134874
0.00054390319
0.00048137012
0.00028839882
0.00022936648
0.00023201623
0.00025559145
0.00026802963
0.00026015534
0.00023441831
0.00021155537
0.00019060891
0.00017042142
0.00015271614
0.00013518862
1.0770412e-11
3.3844299e-10
2.7675351e-09
1.1901912e-08
3.6625352e-08
9.2422271e-08
2.0494835e-07
4.1537212e-07
7.8826944e-07
1.4232044e-06
2.4716175e-06
4.1613171e-06
6.8317912e-06
1.098477e-05
1.7355963e-05
2.7015493e-05
4.1505681e-05
6.3024087e-05
9.4654029e-05
0.00014062836
0.00020657498
0.00029961997
0.00042810083
0.0006004707
0.00082282253
0.0010945628
0.0014026063
0.0017165647
0.0019900334
0.0021715689
0.0022306271
0.0021758571
0.002015392
0.0017911908
0.0015449533
0.0013007104
0.0010763924
0.00088163157
0.00072265031
0.0006059768
0.00053434129
0.00049679281
0.00048462857
0.00048123056
0.00047702763
0.00046380867
0.00042769127
0.00036854005
0.00037701081
0.00043700316
0.00058358688
0.00055844639
0.00042115864
0.00025402863
0.00022030356
0.0002301478
0.00025662947
0.00025442961
0.00023382698
0.00021008004
0.00019256766
0.00017528028
0.00015841466
0.000144195
0.00012959841
7.1498743e-12
2.2467326e-10
1.8372082e-09
7.9009852e-09
2.4313414e-08
6.1353815e-08
1.3605428e-07
2.7574767e-07
5.2331426e-07
9.4488687e-07
1.6411073e-06
2.7634988e-06
4.5381828e-06
7.3000855e-06
1.1542009e-05
1.7984483e-05
2.7674013e-05
4.2118625e-05
6.3468999e-05
9.474768e-05
0.00014011185
0.00020509588
0.00029670309
0.00042308585
0.00059237276
0.00081004864
0.0010744273
0.0013707176
0.0016664749
0.0019140808
0.0020654951
0.0020884985
0.0020088905
0.0018309322
0.0016022071
0.0013629929
0.0011314558
0.00092261276
0.00074982764
0.00062102273
0.00053834944
0.0004906785
0.00046274902
0.00045040692
0.00044062295
0.00042889209
0.00039282452
0.00037759033
0.00041657027
0.00056438956
0.00063966674
0.00056707894
0.00032432525
0.0002258337
0.00021573647
0.00023380608
0.00024396434
0.00023355074
0.00020715118
0.00019019792
0.00017659357
0.00016252526
0.0001485159
0.00013722332
0.00012497651
4.5428892e-12
1.4275291e-10
1.1673239e-09
5.0201084e-09
1.5448122e-08
3.89824e-08
8.6444277e-08
1.7519962e-07
3.3249307e-07
6.003468e-07
1.0427239e-06
1.7559644e-06
2.8839471e-06
4.6400593e-06
7.3389537e-06
1.1442286e-05
1.7624206e-05
2.6864198e-05
4.0576368e-05
6.0784199e-05
9.0344782e-05
0.00013321062
0.00019467926
0.0002815014
0.00040159195
0.00056289999
0.00077083201
0.0010237393
0.0013069346
0.0015881817
0.0018203614
0.0019544813
0.0019620463
0.0018826368
0.0016988014
0.0014619012
0.001225139
0.001008035
0.00082004734
0.00066650308
0.00056161448
0.00049904887
0.00046316253
0.00044059658
0.0004268716
0.00040671546
0.00039627447
0.0004181285
0.00052717718
0.00071433373
0.00066775454
0.00048003425
0.00026089181
0.00020889859
0.0002140646
0.00023373738
0.00022921336
0.00020447955
0.00018738155
0.00017436456
0.00016366135
0.00015210721
0.00014047187
0.00013161116
0.00012127344
2.7687939e-12
8.7004835e-11
7.1145791e-10
3.0596335e-09
9.4151763e-09
2.3758324e-08
5.2683632e-08
1.0677315e-07
2.0262715e-07
3.6584751e-07
6.3540041e-07
1.0699751e-06
1.7572311e-06
2.8272278e-06
4.4719143e-06
6.9733953e-06
1.0744873e-05
1.6389746e-05
2.4786254e-05
3.7206864e-05
5.5481982e-05
8.2213515e-05
0.00012102973
0.00017684091
0.00025598482
0.00036603251
0.00051481319
0.000708087
0.00094532456
0.0012139466
0.001484444
0.0017113047
0.0018466071
0.0018452915
0.0017781473
0.0016144496
0.0013803409
0.0011435572
0.00093334657
0.000760442
0.00062492865
0.00053736464
0.00048400251
0.00045634385
0.00043771075
0.00043292793
0.00045645979
0.00054855376
0.00079958241
0.00078719951
0.00066566095
0.0003275804
0.00021715822
0.00020075429
0.00021583958
0.00022027988
0.00020472874
0.00018658079
0.00017380308
0.00016264386
0.0001528872
0.00014332282
0.00013372793
0.00012692439
0.00011830588
1.6255585e-12
5.1080513e-11
4.1769609e-10
1.7963001e-09
5.5275626e-09
1.3948061e-08
3.0928796e-08
6.2680676e-08
1.1894522e-07
2.1474287e-07
3.729281e-07
6.27911e-07
1.0310668e-06
1.6585908e-06
2.6229064e-06
4.0892496e-06
6.299815e-06
9.6089507e-06
1.4534415e-05
2.1831665e-05
3.2600173e-05
4.8431837e-05
7.1608832e-05
0.00010534653
0.00015404632
0.00022346272
0.00032060255
0.0004530124
0.00062689117
0.00084348101
0.0010937945
0.0013535277
0.0015881879
0.0017308032
0.0017387616
0.0016911712
0.0015701198
0.0013652186
0.0011400783
0.00093474865
0.00076394622
0.00064390768
0.000566827
0.00052426187
0.00051920598
0.0005485888
0.00065056297
0.000926687
0.00093572585
0.00081709751
0.00043548802
0.0002423269
0.00019434111
0.00019859612
0.00021363327
0.00020691386
0.0001863286
0.00017127059
0.00015988013
0.00015128412
0.0001435148
0.00013589904
0.00012817889
0.00012292948
0.00011587372
9.2506091e-13
2.9068509e-11
2.3769892e-10
1.0222197e-09
3.1455379e-09
7.9372114e-09
1.7599731e-08
3.5666451e-08
6.7678131e-08
1.2217556e-07
2.121487e-07
3.5714464e-07
5.863266e-07
9.429079e-07
1.4905795e-06
2.3228414e-06
3.5765851e-06
5.4519358e-06
8.2413389e-06
1.2372287e-05
1.8469966e-05
2.7448272e-05
4.063922e-05
5.9969521e-05
8.8184139e-05
0.0001290917
0.0001877531
0.00027044003
0.00038409737
0.00053494261
0.00072576546
0.00095158755
0.0011962559
0.0014410176
0.0016066024
0.0016403293
0.0016150092
0.0015469662
0.0014062727
0.0012302562
0.0010563639
0.0009075229
0.00079902376
0.0007520917
0.00078225891
0.00089251072
0.0011178938
0.0011015007
0.00097848828
0.00057764454
0.0002799727
0.00019631008
0.00018591854
0.00020031754
0.0001992873
0.00018334389
0.00016940346
0.00016061241
0.00015260737
0.00014386848
0.00013648695
0.00012937742
0.00012351138
0.00011956305
0.0001138354
5.1332099e-13
1.6130259e-11
1.3190016e-10
5.6723268e-10
1.7454547e-09
4.4042869e-09
9.7657163e-09
1.9789869e-08
3.7549869e-08
6.7781366e-08
1.1768384e-07
1.9808437e-07
3.2512273e-07
5.2268738e-07
8.2593465e-07
1.2863779e-06
1.9792649e-06
3.014316e-06
4.5514349e-06
6.8238279e-06
1.0172181e-05
1.5095243e-05
2.2324283e-05
3.2930886e-05
4.8478463e-05
7.1220831e-05
0.00010433307
0.00015211367
0.00022001724
0.00031422794
0.00044055231
0.00060234093
0.00079792487
0.0010197362
0.00125831
0.0014632493
0.0015373538
0.0015330963
0.0015111962
0.0014575008
0.0013667616
0.0012824315
0.001209771
0.0012126537
0.0012729965
0.0013238344
0.0012861514
0.0011391727
0.0006782767
0.00031163294
0.00020040887
0.00017816882
0.00018372222
0.0001969189
0.00018796951
0.00017117295
0.00016112144
0.00015192963
0.00014350783
0.00013648178
0.00013062867
0.00012510067
0.00012009427
0.00011691602
0.00011210539
2.8012596e-13
8.802493e-12
7.1979627e-11
3.0954593e-10
9.525129e-10
2.4034492e-09
5.329157e-09
1.0799138e-08
2.048997e-08
3.6984724e-08
6.4209176e-08
1.0806439e-07
1.7734064e-07
2.8503496e-07
4.5024718e-07
7.0090766e-07
1.0777131e-06
1.6398208e-06
2.473116e-06
3.7023116e-06
5.5087818e-06
8.1570344e-06
1.2034158e-05
1.7708429e-05
2.6015095e-05
3.817809e-05
5.5973075e-05
8.1925766e-05
0.00011951157
0.00017326627
0.00024853586
0.00035065073
0.00048313657
0.00064615692
0.00083794847
0.0010466884
0.0012732965
0.0014068509
0.0014483572
0.0014630734
0.0014634843
0.001472247
0.0014845577
0.0015028273
0.0014873009
0.0014249717
0.0012166131
0.00066165365
0.00031378988
0.00019925218
0.00017236963
0.00017488993
0.0001854315
0.00018163972
0.00016786193
0.00015813778
0.00015029656
0.00014352827
0.00013773696
0.00013186472
0.00012665481
0.00012144966
0.00011727307
0.0001145398
0.00011058626
1.5285249e-13
4.8031351e-12
3.9276109e-11
1.689054e-10
5.1974231e-10
1.311444e-09
2.9078284e-09
5.8923857e-09
1.1179684e-08
2.0178484e-08
3.5029172e-08
5.894782e-08
9.6723099e-08
1.5543129e-07
2.4546189e-07
3.8199074e-07
5.8708843e-07
8.9274441e-07
1.3452301e-06
2.0114069e-06
2.987905e-06
4.414559e-06
6.4946795e-06
9.525057e-06
1.3940366e-05
2.0378804e-05
2.9776067e-05
4.349235e-05
6.34682e-05
9.2385094e-05
0.00013376979
0.00019192966
0.0002714435
0.00037602248
0.00050783206
0.00066302924
0.00084017191
0.0010316152
0.0012121438
0.0013271367
0.0013825768
0.0014268962
0.0014689235
0.0014382622
0.0013305994
0.0010856204
0.0005476215
0.00029609936
0.00019552181
0.00016710995
0.00016808932
0.00017749484
0.00017738591
0.00016827844
0.00015901868
0.00015222623
0.00014532137
0.00013888227
0.00013277721
0.00012723645
0.00012273233
0.00011857889
0.00011491928
0.00011245368
0.0001092673
8.8346851e-14
2.7761525e-12
2.2701108e-11
9.7625437e-11
3.0040639e-10
7.5800672e-10
1.680715e-09
3.4057808e-09
6.461768e-09
1.1662712e-08
2.0245032e-08
3.406554e-08
5.5886493e-08
8.9784283e-08
1.4173531e-07
2.2045057e-07
3.3856514e-07
5.1433369e-07
7.7405188e-07
1.1555274e-06
1.7130899e-06
2.5248951e-06
3.703176e-06
5.4092666e-06
7.8754129e-06
1.1436774e-05
1.6583204e-05
2.4026879e-05
3.4798017e-05
5.03635e-05
7.2746672e-05
0.00010459533
0.00014913545
0.00020987772
0.00029041598
0.00039206778
0.00051544349
0.00065786935
0.00080933918
0.00095940817
0.0010955574
0.0011954033
0.0011799492
0.0010739804
0.00074792465
0.00041747649
0.0002536213
0.00018420044
0.00016164714
0.00016204787
0.00017184556
0.00017594687
0.00017106317
0.00016024171
0.00015252536
0.00014596793
0.00014014531
0.0001344238
0.00012946886
0.00012477157
0.00012043464
0.00011648506
0.0001130453
0.00011098323
0.00010834066
6.1673058e-14
1.9379755e-12
1.584728e-11
6.8151928e-11
2.097193e-10
5.2920539e-10
1.1734802e-09
2.3781409e-09
4.5125274e-09
8.1456052e-09
1.4141765e-08
2.3799336e-08
3.9049794e-08
6.2742847e-08
9.9052379e-08
1.5405174e-07
2.3652504e-07
3.5910597e-07
5.3986881e-07
8.0454293e-07
1.1895859e-06
1.7464435e-06
2.5474939e-06
3.6945245e-06
5.3311193e-06
7.6603161e-06
1.0964955e-05
1.5643389e-05
2.2262873e-05
3.162613e-05
4.4840806e-05
6.3480737e-05
8.9586573e-05
0.00012568558
0.00017456999
0.00023861294
0.00031949601
0.00041742747
0.00053050226
0.0006479921
0.00075463197
0.0007503349
0.00066361539
0.00043250576
0.00028602094
0.00020098682
0.00016638454
0.0001533167
0.00015581688
0.00016659627
0.00017332528
0.00017006036
0.00015972898
0.00015201912
0.00014622605
0.00014085036
0.00013539482
0.00013057378
0.00012563687
0.00012128028
0.00011757403
0.00011427548
0.00011111505
0.00010969101
0.00010739822
5.6074086e-14
1.7620412e-12
1.4408795e-11
6.1967662e-11
1.9070083e-10
4.8126193e-10
1.067318e-09
2.1633955e-09
4.1060083e-09
7.4139256e-09
1.2875921e-08
2.167781e-08
3.5585358e-08
5.7206196e-08
9.0362731e-08
1.4061979e-07
2.160259e-07
3.281461e-07
4.9348666e-07
7.3543731e-07
1.0868828e-06
1.5936569e-06
2.3190185e-06
3.3493363e-06
4.8011826e-06
6.830289e-06
9.6439888e-06
1.3517019e-05
1.881212e-05
2.6019996e-05
3.5815473e-05
4.9141246e-05
6.7290718e-05
9.19707e-05
0.00012523663
0.00016911928
0.00022457579
0.00028937093
0.00035549732
0.00040058389
0.00038989335
0.00032109566
0.00023938466
0.00018152072
0.00015379197
0.00014085875
0.00014383208
0.00014923806
0.00016498074
0.00017082868
0.00016921502
0.0001610799
0.00015316089
0.00014808625
0.0001431214
0.00013779356
0.00013266345
0.00012759935
0.00012345881
0.00011963533
0.00011602475
0.00011288167
0.0001099421
0.00010888281
0.00010658756
5.8609851e-14
1.8417286e-12
1.5060637e-11
6.4773549e-11
1.9935089e-10
5.0315222e-10
1.1160547e-09
2.2626896e-09
4.2956835e-09
7.7591228e-09
1.3481114e-08
2.2708028e-08
3.729812e-08
5.9999226e-08
9.484453e-08
1.4771258e-07
2.2711281e-07
3.4527527e-07
5.1964088e-07
7.7486194e-07
1.1454218e-06
1.6789579e-06
2.4402778e-06
3.515881e-06
5.0186114e-06
7.0919371e-06
9.9129225e-06
1.3695127e-05
1.8689097e-05
2.5183091e-05
3.3522416e-05
4.4155566e-05
5.7663395e-05
7.4701592e-05
9.5720837e-05
0.00012031187
0.00014733251
0.0001706734
0.00018146073
0.00016978721
0.0001434549
0.00012787941
0.00011535389
0.00011417531
0.00011987391
0.00012944792
0.00014975217
0.00016430805
0.00016941204
0.00016895482
0.00016386176
0.00015466491
0.00014926615
0.00014390014
0.00013844624
0.00013330601
0.00012880851
0.00012496536
0.00012085231
0.00011711576
0.00011389033
0.00011112508
0.00010864423
0.00010789022
0.00010588942
5.5499183e-14
1.7439825e-12
1.4261427e-11
6.1337726e-11
1.8878599e-10
4.765249e-10
1.0571086e-09
2.1434839e-09
4.0700663e-09
7.3530572e-09
1.2778456e-08
2.1529735e-08
3.5371987e-08
5.691588e-08
8.9993358e-08
1.4018788e-07
2.1557471e-07
3.2774011e-07
4.9315804e-07
7.3500091e-07
1.0854328e-06
1.5883551e-06
2.3024158e-06
3.3038179e-06
4.6880417e-06
6.5690117e-06
9.073632e-06
1.233229e-05
1.6462909e-05
2.1545949e-05
2.7614077e-05
3.4658165e-05
4.2602885e-05
5.1287883e-05
6.0338168e-05
6.904104e-05
7.4929083e-05
7.5696424e-05
7.1687247e-05
6.9337321e-05
7.1254413e-05
7.7889478e-05
8.4765656e-05
9.9964539e-05
0.00012398155
0.00015423177
0.00016474026
0.00016907028
0.00016905627
0.00016535916
0.00015545846
0.00014945664
0.000144447
0.00013968137
0.00013535622
0.00013119558
0.00012668726
0.00012231318
0.00011874124
0.00011563062
0.00011268231
0.00011010794
0.00010790038
0.00010716963
0.0001053494
4.2295421e-14
1.3290725e-12
1.0868487e-11
4.6744962e-11
1.4387374e-10
3.6316605e-10
8.0565462e-10
1.6336482e-09
3.1020249e-09
5.6041549e-09
9.7388442e-09
1.6407316e-08
2.6952817e-08
4.3360191e-08
6.8538876e-08
1.0672022e-07
1.6400819e-07
2.4912954e-07
3.7443178e-07
5.5716561e-07
8.2104978e-07
1.1980254e-06
1.7299319e-06
2.4695422e-06
3.4799643e-06
4.8309141e-06
6.5900528e-06
8.8081438e-06
1.1499582e-05
1.462169e-05
1.8065327e-05
2.1671221e-05
2.5218538e-05
2.8503177e-05
3.112304e-05
3.2523856e-05
3.2806375e-05
3.4178743e-05
3.7934856e-05
4.3640503e-05
5.4319914e-05
6.9593758e-05
8.97114e-05
0.00012634281
0.00015458013
0.00016580318
0.00016937124
0.00016952111
0.00016648376
0.00015703184
0.0001507039
0.00014563309
0.00014129544
0.00013699926
0.00013239465
0.00012776881
0.00012392485
0.00012055834
0.0001170605
0.00011384432
0.00011103499
0.00010879649
0.00010701645
0.00010641869
0.00010476839
2.5786633e-14
8.1030643e-13
6.6262329e-12
2.8498809e-11
8.7713214e-11
2.2139923e-10
4.9113411e-10
9.9581693e-10
1.8906931e-09
3.4152337e-09
5.9337002e-09
9.9937684e-09
1.6410653e-08
2.6386883e-08
4.1681253e-08
6.4844424e-08
9.9542549e-08
1.5099287e-07
2.265335e-07
3.3633785e-07
4.9425314e-07
7.1867522e-07
1.0332481e-06
1.4669811e-06
2.0531257e-06
2.8258253e-06
3.8136038e-06
5.0291417e-06
6.457116e-06
8.0430614e-06
9.6936698e-06
1.1293935e-05
1.272911e-05
1.3909201e-05
1.4882382e-05
1.650659e-05
1.9206909e-05
2.3334472e-05
3.1339659e-05
4.3812204e-05
6.2829656e-05
8.826252e-05
0.00012608992
0.00015373417
0.00016648958
0.00017057641
0.00017054298
0.00016792904
0.00015940899
0.00015204469
0.00014657648
0.00014212274
0.00013791248
0.00013337221
0.00012923084
0.00012540265
0.00012172358
0.00011813493
0.0001151732
0.00011262386
0.00011011742
0.00010801957
0.00010633112
0.0001057425
0.00010420373
1.3314711e-14
4.1839406e-13
3.4213605e-12
1.471463e-11
4.5286732e-11
1.1430256e-10
2.53537e-10
5.1400333e-10
9.7573482e-10
1.7620937e-09
3.0605441e-09
5.1525857e-09
8.4565499e-09
1.3588249e-08
2.1446027e-08
3.3328472e-08
5.1094574e-08
7.7376619e-08
1.1585404e-07
1.7158883e-07
2.5140508e-07
3.6426028e-07
5.2148999e-07
7.3671712e-07
1.0251134e-06
1.4016085e-06
1.8777494e-06
2.457174e-06
3.1317604e-06
3.8806191e-06
4.6775345e-06
5.5139565e-06
6.4407223e-06
7.6803942e-06
9.5149711e-06
1.2709164e-05
1.7906711e-05
2.6498232e-05
4.0812868e-05
6.0869649e-05
8.6858717e-05
0.00012175667
0.00014934741
0.0001660015
0.00017210922
0.00017205861
0.0001697471
0.00016198826
0.00015322641
0.00014752335
0.00014308732
0.0001388997
0.0001349564
0.00013104777
0.00012721829
0.00012346761
0.00012005992
0.00011697993
0.00011381067
0.00011106879
0.00010876624
0.0001069839
0.00010552436
0.00010500434
0.00010364341
6.5614603e-15
2.0618329e-13
1.6860182e-12
7.2510279e-12
2.2314907e-11
5.6316819e-11
1.2490035e-10
2.531676e-10
4.8047505e-10
8.6743778e-10
1.5060781e-09
2.5344153e-09
4.1572668e-09
6.6756298e-09
1.052773e-08
1.6345595e-08
2.5031691e-08
3.7860362e-08
5.6607947e-08
8.3712298e-08
1.2245545e-07
1.7715012e-07
2.5329034e-07
3.576043e-07
4.9793716e-07
6.8292895e-07
9.2161437e-07
1.2235426e-06
1.6004805e-06
2.0741981e-06
2.6902011e-06
3.5499014e-06
4.8690189e-06
6.982813e-06
1.0425808e-05
1.6154256e-05
2.5286843e-05
3.943707e-05
5.8591401e-05
8.3513985e-05
0.00011681275
0.00014589073
0.00016746085
0.000174349
0.00017431524
0.00017214833
0.00016474404
0.00015486166
0.00014917649
0.00014459605
0.00014024266
0.00013631956
0.00013251158
0.00012835171
0.00012452618
0.00012093988
0.00011772265
0.00011485379
0.0001124893
0.00011022318
0.00010799366
0.0001062164
0.0001048144
0.00010428759
0.00010275352
4.0569754e-15
1.2748376e-13
1.0424613e-12
4.4831363e-12
1.3795652e-11
3.4811925e-11
7.7192669e-11
1.5643215e-10
2.9681214e-10
5.3571669e-10
9.298885e-10
1.5644373e-09
2.5657199e-09
4.1196213e-09
6.4972927e-09
1.0091063e-08
1.5464027e-08
2.3417724e-08
3.5083256e-08
5.2042258e-08
7.6485305e-08
1.1141774e-07
1.6092894e-07
2.3055835e-07
3.2783687e-07
4.6319133e-07
6.5164699e-07
9.1628553e-07
1.2955939e-06
1.8591384e-06
2.7259877e-06
4.1049815e-06
6.3521368e-06
9.9910862e-06
1.5776101e-05
2.4815706e-05
3.830377e-05
5.6593578e-05
8.0997759e-05
0.00011339426
0.00014434591
0.00016824641
0.00017664326
0.00017709897
0.00017492283
0.00016768892
0.00015716738
0.00015139638
0.00014620264
0.00014141329
0.00013731366
0.00013354932
0.00012981004
0.00012605175
0.00012271325
0.00011956416
0.00011665991
0.0001137201
0.00011104572
0.00010882959
0.0001068854
0.000105376
0.00010411647
0.00010358596
0.00010188184
4.0934021e-15
1.2862852e-13
1.0518241e-12
4.523366e-12
1.3919045e-11
3.5121598e-11
7.7874839e-11
1.5780631e-10
2.9941111e-10
5.4041897e-10
9.3814539e-10
1.5786774e-09
2.5900923e-09
4.1613922e-09
6.5695133e-09
1.0217711e-08
1.5689963e-08
2.3827985e-08
3.5840395e-08
5.3458283e-08
7.9159577e-08
1.1649954e-07
1.7061381e-07
2.4901912e-07
3.6295842e-07
5.2979125e-07
7.7768889e-07
1.1533196e-06
1.7317872e-06
2.6353848e-06
4.0695622e-06
6.3674655e-06
1.0042455e-05
1.5766509e-05
2.4654088e-05
3.7640271e-05
5.5454799e-05
7.9551071e-05
0.00011083693
0.00014256436
0.00016802859
0.00017862566
0.0001799463
0.00017793837
0.00017119959
0.00016004698
0.00015383372
0.00014797758
0.00014276074
0.00013865718
0.00013496822
0.00013147412
0.00012787142
0.00012414543
0.00012084169
0.00011764288
0.00011486066
0.00011245028
0.00011021364
0.00010809925