/*--------------------------------*- C++ -*----------------------------------*\
  =========                 |
  \\      /  F ield         | OpenFOAM: The Open Source CFD Toolbox
   \\    /   O peration     | Website:  https://openfoam.org
    \\  /    A nd           | Version:  13
     \\/     M anipulation  |
\*---------------------------------------------------------------------------*/
FoamFile
{
    format      ascii;
    class       volScalarField;
    location    "4.501096";
    object      yPlus;
}
// * * * * * * * * * * * * * * * * * * * * * * * * * * * * * * * * * * * * * //

dimensions      [];

internalField   uniform 0;

boundaryField
{
    inlet
    {
        type            calculated;
        value           uniform 0;
    }
    outlet
    {
        type            calculated;
        value           uniform 0;
    }
    cylinder
    {
        type            calculated;
        value           nonuniform List<scalar> 
132
(
6.2431597e-07
6.2030527e-07
6.1071376e-07
5.9534768e-07
5.7428248e-07
5.4747885e-07
5.1534586e-07
4.7854862e-07
4.3788921e-07
3.9430944e-07
3.4892801e-07
3.0299292e-07
2.5782836e-07
2.1474945e-07
1.749697e-07
1.3946887e-07
1.0888146e-07
8.3427135e-08
6.2934475e-08
4.6880822e-08
3.4631751e-08
2.5581799e-08
1.9448558e-08
1.6249367e-08
1.5494103e-08
1.5840441e-08
1.5414226e-08
1.345617e-08
1.0506749e-08
7.549757e-09
5.2998458e-09
4.1673497e-09
4.1859745e-09
4.8896375e-09
6.0362463e-09
7.5255171e-09
9.4130849e-09
1.1758083e-08
1.4603389e-08
1.8006161e-08
2.208887e-08
2.694316e-08
3.2114898e-08
3.7516937e-08
4.3000249e-08
4.8438554e-08
5.3734548e-08
5.8825007e-08
6.3664241e-08
6.822944e-08
7.2504257e-08
7.649661e-08
8.0195118e-08
8.3596806e-08
8.6746464e-08
8.9581784e-08
9.2183044e-08
9.448718e-08
9.6556882e-08
9.8324512e-08
9.9867332e-08
1.0114377e-07
1.0217451e-07
1.0295216e-07
1.0348699e-07
1.0376608e-07
6.2268257e-07
6.154424e-07
6.0266661e-07
5.8421218e-07
5.6014343e-07
5.3063737e-07
4.9624067e-07
4.5770299e-07
4.1584792e-07
3.7167771e-07
3.2633195e-07
2.8105937e-07
2.3715441e-07
1.9586054e-07
1.5827495e-07
1.2521579e-07
9.7121928e-08
7.4044049e-08
5.5658413e-08
4.1383185e-08
3.0591463e-08
2.2775301e-08
1.7837511e-08
1.5683922e-08
1.5531036e-08
1.5849429e-08
1.4925599e-08
1.2519048e-08
9.4685388e-09
6.6964794e-09
4.7883185e-09
4.0692243e-09
4.3474663e-09
5.208114e-09
6.4545797e-09
8.0462927e-09
1.0054531e-08
1.2526003e-08
1.5506943e-08
1.9046864e-08
2.325595e-08
2.8218322e-08
3.3460634e-08
3.8901714e-08
4.4384427e-08
4.9793024e-08
5.5043837e-08
6.0073349e-08
6.4845451e-08
6.9340445e-08
7.3543509e-08
7.7469537e-08
8.1096781e-08
8.4412046e-08
8.7506904e-08
9.0269325e-08
9.2805125e-08
9.503666e-08
9.7040072e-08
9.8739571e-08
1.0022062e-07
1.0143018e-07
1.0239745e-07
1.031083e-07
1.035715e-07
1.0378802e-07
)
;
    }
    frontAndBack
    {
        type            empty;
    }
}


// ************************************************************************* //
