/*--------------------------------*- C++ -*----------------------------------*\
  =========                 |
  \\      /  F ield         | OpenFOAM: The Open Source CFD Toolbox
   \\    /   O peration     | Website:  https://openfoam.org
    \\  /    A nd           | Version:  13
     \\/     M anipulation  |
\*---------------------------------------------------------------------------*/
FoamFile
{
    format      ascii;
    class       surfaceScalarField;
    location    "34.10295";
    object      phi;
}
// * * * * * * * * * * * * * * * * * * * * * * * * * * * * * * * * * * * * * //

dimensions      [0 3 -1 0 0 0 0];

internalField   nonuniform List<scalar> 
34068
(
-1.0653476e-08
2.348063e-08
-1.2827154e-08
-4.7424349e-08
8.1781077e-08
-4.5010203e-08
-1.1905215e-07
1.5999909e-07
-8.8371288e-08
-2.3657242e-07
2.6268628e-07
-1.4516601e-07
-4.1386033e-07
3.9518912e-07
-2.1790121e-07
-6.6829017e-07
5.6375745e-07
-3.0932761e-07
-1.0215353e-06
7.7565619e-07
-4.2241106e-07
-1.500532e-06
1.0392888e-06
-5.60292e-07
-2.1386378e-06
1.3643339e-06
-7.2622814e-07
-2.9770142e-06
1.7619028e-06
-9.2352644e-07
-4.0662675e-06
2.2447232e-06
-1.1554699e-06
-5.4683822e-06
2.8273701e-06
-1.4252553e-06
-7.2589793e-06
3.5265624e-06
-1.7359653e-06
-9.5299263e-06
4.3615648e-06
-2.0906177e-06
-1.2392322e-05
5.3547408e-06
-2.4923451e-06
-1.5979851e-05
6.5323278e-06
-2.9447984e-06
-2.0452493e-05
7.9255209e-06
-3.4528788e-06
-2.6000517e-05
9.5719778e-06
-4.0239543e-06
-3.2848645e-05
1.1517863e-05
-4.6697343e-06
-4.12602e-05
1.3820567e-05
-5.409013e-06
-5.1540918e-05
1.6552193e-05
-6.271475e-06
-6.4042027e-05
1.9803837e-05
-7.3027277e-06
-7.9161944e-05
2.3690515e-05
-8.5705988e-06
-9.7345807e-05
2.8356377e-05
-1.0172515e-05
-0.00011908175
3.397937e-05
-1.2243426e-05
-0.00014489261
4.077409e-05
-1.4963235e-05
-0.00017532149
4.899091e-05
-1.8562027e-05
-0.00021090985
5.8909097e-05
-2.3320739e-05
-0.00025216736
7.0821923e-05
-2.9564409e-05
-0.00029953562
8.5013756e-05
-3.764549e-05
-0.00035335283
0.00010173451
-4.7917308e-05
-0.00041383445
0.00012118616
-6.0704538e-05
-0.00048109295
0.00014354436
-7.6285862e-05
-0.00055520583
0.00016903031
-9.4917437e-05
-0.00063631102
0.00019801273
-0.00011690754
-0.00072468816
0.00023108985
-0.0001427127
-0.00082079667
0.00026912873
-0.00017302023
-0.0009252798
0.00031329518
-0.00020881205
-0.0010389618
0.00036512481
-0.00025144284
-0.0011628632
0.00042666749
-0.00030276603
-0.0012982407
0.00050073038
-0.00036535289
-0.0014466606
0.0005912446
-0.00044282476
-0.0016101111
0.00070380085
-0.00054035029
-0.001791162
0.00084643275
-0.00066538189
-0.0019931699
0.0010306672
-0.0008286593
-0.0022204563
0.0012727294
-0.001045443
-0.0024784397
0.0015952406
-0.0013372572
-0.0027738343
0.0020296679
-0.0017342733
-0.0031146896
0.00261925
-0.0022783947
-0.0035102038
0.0034222953
-0.0030267812
-0.0039703666
0.0045158743
-0.0040557115
-0.0045054933
0.0059984652
-0.0054633385
-0.0051260083
0.0079861456
-0.0073656306
-0.0058423656
0.010592236
-0.0098758788
-0.0066645919
0.013864186
-0.01304196
-0.0076014875
0.017655779
-0.016718884
-0.008661345
0.02136489
-0.020305033
-0.0098414592
0.023861719
-0.022681604
-0.011064774
0.021880923
-0.020657609
-0.011711881
0.010274125
-0.0096270178
-0.010094264
-0.01861728
0.016999663
-0.0048515192
-0.06486834
0.059625595
0.0020391677
-0.10861644
0.10172575
0.0085387143
-0.12821278
0.12171323
-0.10646191
0.018714785
0.096285836
-1.0484897e-08
3.3965528e-08
-4.667159e-08
1.1796777e-07
-1.1716105e-07
2.3048855e-07
-2.3281984e-07
3.7834507e-07
-4.0731606e-07
5.6968534e-07
-6.5777257e-07
8.1421397e-07
-1.0055592e-06
1.1234428e-06
-1.4772488e-06
1.5109783e-06
-2.1057674e-06
1.9928525e-06
-2.9317677e-06
2.5879032e-06
-4.005263e-06
3.3182186e-06
-5.3875506e-06
4.2096576e-06
-7.1534669e-06
5.2924788e-06
-9.393994e-06
6.6020918e-06
-1.2219245e-05
8.1799923e-06
-1.5761834e-05
1.0074917e-05
-2.0180598e-05
1.2344284e-05
-2.5664623e-05
1.5056003e-05
-3.2437467e-05
1.8290707e-05
-4.0761369e-05
2.2144469e-05
-5.0941168e-05
2.6731992e-05
-6.3327497e-05
3.2190165e-05
-7.8318655e-05
3.8681674e-05
-9.6360328e-05
4.639805e-05
-0.00011794208
5.5561124e-05
-0.0001435893
6.6421304e-05
-0.00017384895
7.9250566e-05
-0.00020926778
9.4327922e-05
-0.00025036197
0.00011191611
-0.00029758012
0.00013223191
-0.0003512663
0.00015542069
-0.00041163822
0.00018155808
-0.000478802
0.00021070814
-0.00055281575
0.00024304406
-0.00063378456
0.00027898154
-0.00072194374
0.00031924903
-0.00081769888
0.00036488387
-0.00092162888
0.00041722518
-0.0010344785
0.0004779744
-0.0011571632
0.00054935226
-0.0012907969
0.00063436409
-0.0014367474
0.00073719505
-0.0015967234
0.00086377682
-0.0017728972
0.0010226066
-0.0019680641
0.0012258341
-0.0021857682
0.0014904335
-0.0024303532
0.0018398256
-0.0027070505
0.0023063652
-0.0030218931
0.0029340925
-0.0033813918
0.0037817941
-0.0037920657
0.0049265483
-0.0042600268
0.0064664263
-0.0047913003
0.0085174191
-0.0053929578
0.011193894
-0.0060743512
0.01454558
-0.0068478291
0.018429257
-0.0077251745
0.022242235
-0.0087227669
0.024859311
-0.0097717015
0.022929858
-0.010145994
0.010648418
-0.0078319936
-0.020931281
-0.0016272293
-0.071073105
0.0054364095
-0.11568008
0.010945674
-0.13372204
-0.11374302
0.018226787
-1.0166118e-08
4.4131646e-08
-4.5252686e-08
1.5305434e-07
-1.1360216e-07
2.9883803e-07
-2.2575948e-07
4.9050239e-07
-3.9499516e-07
7.3892102e-07
-6.3794399e-07
1.0571628e-06
-9.7537871e-07
1.4608775e-06
-1.4331487e-06
1.9687483e-06
-2.0433049e-06
2.6030088e-06
-2.8454523e-06
3.3900506e-06
-3.8883534e-06
4.3611197e-06
-5.2318287e-06
5.5531329e-06
-6.9489785e-06
7.0096286e-06
-9.128768e-06
8.7818814e-06
-1.1878986e-05
1.093021e-05
-1.5329598e-05
1.3525529e-05
-1.9636466e-05
1.6651152e-05
-2.498539e-05
2.0404928e-05
-3.1596364e-05
2.4901681e-05
-3.9727858e-05
3.0275964e-05
-4.9680862e-05
3.6684996e-05
-6.1802251e-05
4.4311554e-05
-7.6486907e-05
5.3366329e-05
-9.4177758e-05
6.4088901e-05
-0.00011536271
7.674608e-05
-0.00014056707
9.1625663e-05
-0.00017033988
0.00010902337
-0.00020523255
0.0001292206
-0.00024576888
0.00015245244
-0.0002924075
0.00017887053
-0.00034550299
0.00020851618
-0.00040527986
0.00024133495
-0.00047184042
0.00027726871
-0.00054522145
0.00031642509
-0.00062548655
0.00035924664
-0.00071281204
0.00040657452
-0.0008075309
0.00045960273
-0.00091013557
0.00051982985
-0.0010212647
0.00058910354
-0.0011416968
0.00066978433
-0.0012723616
0.00076502892
-0.0014143743
0.00087920771
-0.0015690914
0.001018494
-0.0017381908
0.0011917059
-0.0019237719
0.0014114152
-0.0021284105
0.0016950722
-0.0023551173
0.0020665324
-0.0026072762
0.0025585242
-0.002888373
0.0032151894
-0.0032014459
0.0040948669
-0.0035483453
0.0052734476
-0.0039291021
0.0068471832
-0.0043424101
0.008930727
-0.0047872699
0.011638753
-0.0052649448
0.015023255
-0.0057815459
0.018945858
-0.0063324939
0.022793184
-0.0069171341
0.025443951
-0.0074487178
0.023461442
-0.0070053016
0.010205001
-0.0031889117
-0.02474767
0.0046798188
-0.078941835
0.012029702
-0.12302996
0.016405627
-0.13809797
-0.11836423
0.021026837
-9.692401e-09
5.3824048e-08
-4.3146871e-08
1.8650881e-07
-1.0832355e-07
3.6401472e-07
-2.1529003e-07
5.9746887e-07
-3.7672464e-07
9.0035564e-07
-6.0853064e-07
1.2889688e-06
-9.3058493e-07
1.7829318e-06
-1.3676411e-06
2.4058045e-06
-1.9504227e-06
3.1857904e-06
-2.7169298e-06
4.1565576e-06
-3.7140015e-06
5.3581915e-06
-4.9991632e-06
6.8382946e-06
-6.6428006e-06
8.653266e-06
-8.7306869e-06
1.0869768e-05
-1.1366895e-05
1.3566419e-05
-1.4677104e-05
1.6835738e-05
-1.8812291e-05
2.0786338e-05
-2.3952759e-05
2.5545396e-05
-3.031242e-05
3.1261342e-05
-3.8143145e-05
3.8106688e-05
-4.7738942e-05
4.6280794e-05
-5.9439553e-05
5.6012165e-05
-7.3632888e-05
6.7559664e-05
-9.0755551e-05
8.1211565e-05
-0.00011129036
9.728089e-05
-0.00013575957
0.00011609487
-0.00016471209
0.00013797589
-0.00019870311
0.00016321161
-0.00023826471
0.00019201405
-0.00028386828
0.0002244741
-0.00033588352
0.00026053142
-0.000394547
0.00029999843
-0.00045996089
0.0003426826
-0.00053213963
0.00038860383
-0.00061109741
0.00043820441
-0.00069693702
0.00049241413
-0.00078989947
0.00055256517
-0.00089036776
0.00062029814
-0.0009988474
0.00069758318
-0.0011159469
0.00078688388
-0.0012423707
0.00089145269
-0.0013789265
0.0010157635
-0.0015265462
0.0011661137
-0.0016863158
0.0013514756
-0.0018595058
0.0015846052
-0.0020475323
0.0018830986
-0.0022518106
0.0022708106
-0.0024735086
0.0027802222
-0.0027130216
0.0034547023
-0.0029691031
0.0043509485
-0.0032376846
0.005542029
-0.0035107536
0.0071202522
-0.0037766598
0.0091966332
-0.0040212018
0.011883295
-0.0042274788
0.015229532
-0.0043767556
0.019095135
-0.0044307082
0.022847136
-0.0043235222
0.025336765
-0.0038892915
0.023027211
-0.0018579513
0.0081736612
0.0045055332
-0.031111155
0.014728896
-0.089165198
0.022418964
-0.13072003
0.025277865
-0.14095687
-0.1202687
0.027182334
-9.0665435e-09
6.2890591e-08
-4.0363742e-08
2.1780601e-07
-1.0134555e-07
4.2499653e-07
-2.0144661e-07
6.9756993e-07
-3.5255805e-07
1.0514671e-06
-5.6961064e-07
1.5060214e-06
-8.7128294e-07
2.0846041e-06
-1.2808644e-06
2.8153859e-06
-1.8272923e-06
3.7322184e-06
-2.546407e-06
4.8756723e-06
-3.482443e-06
6.2942275e-06
-4.6898106e-06
8.0456623e-06
-6.2351855e-06
1.0198641e-05
-8.1999635e-06
1.2834546e-05
-1.0683087e-05
1.6049542e-05
-1.3804282e-05
1.9956932e-05
-1.770768e-05
2.4689737e-05
-2.2565821e-05
3.0403537e-05
-2.858393e-05
3.7279451e-05
-3.6004339e-05
4.5527097e-05
-4.51108e-05
5.5387255e-05
-5.6232345e-05
6.7133709e-05
-6.9746124e-05
8.1073442e-05
-8.6078521e-05
9.7543962e-05
-0.00010570348
0.00011690585
-0.00012913677
0.00013952816
-0.00015692448
0.0001657636
-0.00018962404
0.00019591116
-0.00022777602
0.00023016603
-0.00027186683
0.00026856491
-0.00032228571
0.0003109503
-0.00037928706
0.00035699977
-0.00044297767
0.00040637322
-0.00051335015
0.00045897631
-0.00059036264
0.00051521689
-0.0006740303
0.0005760818
-0.00076448239
0.00064301727
-0.00086196886
0.00071778461
-0.00096683452
0.00080244884
-0.0010794851
0.00089953444
-0.001200358
0.0010123256
-0.0013299
0.0011453054
-0.0014685466
0.0013047603
-0.0016166964
0.0014996253
-0.0017746589
0.0017425677
-0.0019425051
0.0020509448
-0.0021197965
0.0024481021
-0.0023051151
0.0029655408
-0.0024952271
0.0036448143
-0.0026837989
0.0045395204
-0.002859627
0.0057178571
-0.0030048903
0.0072655155
-0.0030951499
0.0092868928
-0.0030999597
0.011888105
-0.002971519
0.015101091
-0.0026272982
0.018750914
-0.0019803872
0.022200225
-0.00086507244
0.02422145
0.001041647
0.021120492
0.0056464173
0.0035688909
0.015321767
-0.040786505
0.028146498
-0.10198993
0.036399569
-0.1389731
0.037817334
-0.14237463
-0.1193221
0.036870737
-8.2938421e-09
7.1184434e-08
-3.6927335e-08
2.464395e-07
-9.2728897e-08
4.8079809e-07
-1.8434971e-07
7.8919074e-07
-3.2270614e-07
1.1898235e-06
-5.215206e-07
1.7048359e-06
-7.9798393e-07
2.3610674e-06
-1.1735581e-06
3.1909601e-06
-1.6749541e-06
4.2336144e-06
-2.335306e-06
5.5360241e-06
-3.1955815e-06
7.1545029e-06
-4.3062654e-06
9.1563462e-06
-5.729354e-06
1.1621729e-05
-7.5406913e-06
1.4645883e-05
-9.8326898e-06
1.8341541e-05
-1.2717455e-05
2.2841697e-05
-1.633032e-05
2.8302602e-05
-2.0833775e-05
3.4906992e-05
-2.642172e-05
4.2867396e-05
-3.3323934e-05
5.2429311e-05
-4.181053e-05
6.3873851e-05
-5.2196095e-05
7.7519274e-05
-6.4843001e-05
9.3720348e-05
-8.0163198e-05
0.00011286416
-9.8617547e-05
0.0001353602
-0.00012071136
0.00016162197
-0.00014698457
0.00019203681
-0.00017799454
0.00022692114
-0.00021428972
0.00026646121
-0.00025637307
0.00031064826
-0.00030465737
0.0003592346
-0.00035942075
0.00041176315
-0.00042078073
0.0004677332
-0.00048871055
0.00052690613
-0.00056310759
0.00058961393
-0.00064388629
0.0006568605
-0.00073104436
0.00073017534
-0.00082467449
0.00081141474
-0.00092493297
0.00090270732
-0.0010319899
0.0010065914
-0.0011459754
0.0011263112
-0.0012669235
0.0012662535
-0.0013947047
0.0014325416
-0.0015289364
0.001633857
-0.0016688386
0.0018824699
-0.0018129635
0.0021950697
-0.0019587699
0.0025939084
-0.0021018967
0.0031086677
-0.0022349678
0.0037778854
-0.0023458114
0.0046503639
-0.0024149991
0.0057870449
-0.0024137821
0.0072642985
-0.0023044765
0.0091775871
-0.0020320182
0.011615647
-0.0014963397
0.014565412
-0.00053219121
0.017786766
0.0010210155
0.020647018
0.0034543625
0.021788103
0.0074346484
0.017140206
0.015330654
-0.004327115
0.028263602
-0.053719453
0.042814508
-0.11654083
0.051949884
-0.14810848
0.053267239
-0.14369199
-0.1160808
0.050025943
-7.3848765e-09
7.856931e-08
-3.2884832e-08
2.7193946e-07
-8.2591413e-08
5.3050467e-07
-1.642325e-07
8.7083183e-07
-2.8757328e-07
1.3131643e-06
-4.6490946e-07
1.882172e-06
-7.1166973e-07
2.6078277e-06
-1.0471528e-06
3.5264432e-06
-1.4954233e-06
4.6818849e-06
-2.0863968e-06
6.1269976e-06
-2.8571455e-06
7.9252517e-06
-3.853468e-06
1.0152669e-05
-5.1317451e-06
1.2900007e-05
-6.7611486e-06
1.6275287e-05
-8.8262123e-06
2.0406605e-05
-1.1429813e-05
2.5445298e-05
-1.4696578e-05
3.1569367e-05
-1.8776704e-05
3.8987117e-05
-2.3850147e-05
4.7940839e-05
-3.0131117e-05
5.8710281e-05
-3.7872664e-05
7.1615398e-05
-4.7371084e-05
8.7017694e-05
-5.8969748e-05
0.00010531901
-7.3061685e-05
0.0001269561
-9.0089998e-05
0.00015238851
-0.000110545
0.00018207697
-0.0001349563
0.00021644811
-0.00016387798
0.00025584282
-0.00019786456
0.00030044779
-0.00023743596
0.00035021966
-0.0002830316
0.00040483024
-0.00033495925
0.0004636908
-0.00039335423
0.00052612818
-0.00045817533
0.00059172723
-0.00052925727
0.00066069586
-0.00060640241
0.00073400564
-0.00068945763
0.00081323055
-0.00077833389
0.000900291
-0.00087297095
0.00099734439
-0.00097327097
0.0011068914
-0.0010790179
0.0012320581
-0.0011897836
0.0013770193
-0.0013048097
0.0015475676
-0.0014228449
0.0017518921
-0.0015418966
0.0020015216
-0.0016588369
0.00231201
-0.0017687888
0.0027038603
-0.0018641161
0.003203995
-0.0019328246
0.0038465939
-0.0019562141
0.0046737534
-0.0019058197
0.0057366505
-0.0017411242
0.007099603
-0.0014085461
0.008845009
-0.00080829444
0.011015395
0.00023288239
0.013524236
0.0019514633
0.016068185
0.0045830608
0.018015421
0.0085687052
0.017802459
0.015055993
0.010652918
0.026482709
-0.015753831
0.042122613
-0.069359357
0.056769909
-0.13118813
0.065832405
-0.15717097
0.068643192
-0.14650278
-0.11331646
0.065878848
-6.3554663e-09
8.4924776e-08
-2.8306017e-08
2.9389001e-07
-7.1107824e-08
5.7330647e-07
-1.414407e-07
9.411647e-07
-2.4776274e-07
1.4194863e-06
-4.0074595e-07
2.0351552e-06
-6.1381263e-07
2.8208944e-06
-9.0379481e-07
3.8164254e-06
-1.2917354e-06
5.0698255e-06
-1.8038681e-06
6.6391302e-06
-2.4728012e-06
8.5941849e-06
-3.3389428e-06
1.101881e-05
-4.4522145e-06
1.4013278e-05
-5.8740782e-06
1.769715e-05
-7.6799414e-06
2.2212468e-05
-9.9619503e-06
2.7727307e-05
-1.2832221e-05
3.4439638e-05
-1.6426516e-05
4.2581412e-05
-2.0908342e-05
5.2422665e-05
-2.6473394e-05
6.4275333e-05
-3.335425e-05
7.8496253e-05
-4.1825053e-05
9.5488497e-05
-5.220584e-05
0.0001156998
-6.4865929e-05
0.00013961618
-8.0225625e-05
0.00016774821
-9.8755005e-05
0.00020060635
-0.00012096833
0.00023866144
-0.00014741196
0.00028228645
-0.00017864329
0.00033167912
-0.000215198
0.00038677437
-0.00025754386
0.0004471761
-0.00030602344
0.00051217038
-0.00036079784
0.00058090258
-0.0004218189
0.0006527483
-0.00048886024
0.0007277372
-0.00056160374
0.00080674913
-0.00063972725
0.00089135407
-0.00072293571
0.00098349946
-0.00081092433
0.001085333
-0.00090329582
0.0011992629
-0.00099945079
0.0013282131
-0.0010984529
0.0014760214
-0.0011988548
0.0016479695
-0.001298456
0.0018514933
-0.0013939426
0.0020970082
-0.0014803521
0.0023984195
-0.0015502568
0.002773765
-0.0015924369
0.0032461751
-0.0015898311
0.0038439882
-0.0015165146
0.0046004369
-0.0013345131
0.005554649
-0.00099069732
0.0067557872
-0.00040264072
0.0082569524
0.00059440659
0.010018348
0.0022505261
0.011868116
0.0048597787
0.013458932
0.0086772198
0.01419798
0.014361647
0.012118032
0.023640319
0.0013742459
0.038544769
-0.03065828
0.05617341
-0.086987998
0.069454201
-0.14446892
0.076627327
-0.1643441
0.080498729
-0.15037418
-0.11447758
0.081659853
-5.2269733e-09
9.015175e-08
-2.328595e-08
3.1194899e-07
-5.8515798e-08
6.0853632e-07
-1.1644516e-07
9.9909406e-07
-2.0409381e-07
1.507135e-06
-3.3034612e-07
2.1614076e-06
-5.0641437e-07
2.9969626e-06
-7.4640611e-07
4.0564171e-06
-1.0680259e-06
5.3914452e-06
-1.4934304e-06
7.0645348e-06
-2.0502746e-06
9.151029e-06
-2.7729789e-06
1.1741515e-05
-3.7042644e-06
1.4944564e-05
-4.8969806e-06
1.8889866e-05
-6.4163004e-06
2.3731788e-05
-8.3422979e-06
2.9653304e-05
-1.0772966e-05
3.6870306e-05
-1.3827678e-05
4.5636124e-05
-1.7651146e-05
5.6246133e-05
-2.2417787e-05
6.9041975e-05
-2.8336444e-05
8.441491e-05
-3.5655312e-05
0.00010280736
-4.4666721e-05
0.00012471121
-5.5711375e-05
0.00015066084
-6.9181307e-05
0.00018121814
-8.5520547e-05
0.00021694559
-0.00010522201
0.0002583629
-0.00012881855
0.00030588299
-0.0001568655
0.00035972607
-0.00018991104
0.0004198199
-0.00022845095
0.00048571601
-0.00027286631
0.00055658575
-0.00032335213
0.0006313884
-0.00037986324
0.0007092594
-0.00044211786
0.00078999182
-0.00050967294
0.00087430422
-0.00058202154
0.00096370267
-0.00065863878
0.0010601167
-0.00073894757
0.0011656418
-0.00082222044
0.0012825357
-0.00090743955
0.0014134322
-0.00099311756
0.0015616994
-0.0010770626
0.0017319145
-0.0011560507
0.0019304815
-0.0012253469
0.0021663044
-0.0012780124
0.002451085
-0.0013038627
0.0027996152
-0.0012877942
0.0032301067
-0.001207204
0.003763398
-0.0010282601
0.0044214929
-0.00070234129
0.0052287302
-0.0001605768
0.0062140227
0.00072872321
0.0073676524
0.0022026528
0.0085444184
0.0045713585
0.0094994104
0.0081268816
0.0099034093
0.013176693
0.0091481681
0.020735952
0.0045587724
0.03314073
-0.011030531
0.051271166
-0.048788716
0.069653479
-0.10537031
0.080196458
-0.1550119
0.0845814
-0.16872904
0.087881956
-0.15367473
-0.12030067
0.093705042
-4.0265541e-09
9.4178304e-08
-1.7945079e-08
3.2586751e-07
-4.5116746e-08
6.3570799e-07
-8.9841976e-08
1.0438193e-06
-1.5760573e-07
1.5748987e-06
-2.5538276e-07
2.2591846e-06
-3.9201978e-07
3.1335997e-06
-5.7870708e-07
4.2431044e-06
-8.2956748e-07
5.6423056e-06
-1.1623764e-06
7.3973438e-06
-1.5994591e-06
9.5881117e-06
-2.1687751e-06
1.2310831e-05
-2.9052537e-06
1.5681042e-05
-3.852407e-06
1.983702e-05
-5.0642737e-06
2.4943654e-05
-6.6077436e-06
3.1196774e-05
-8.5653036e-06
3.8827866e-05
-1.1038273e-05
4.8109093e-05
-1.4150512e-05
5.9358372e-05
-1.8052664e-05
7.2944126e-05
-2.2926845e-05
8.9289091e-05
-2.8991697e-05
0.00010887222
-3.6507602e-05
0.00013222711
-4.5781676e-05
0.00015993491
-5.7172006e-05
0.00019260847
-7.109017e-05
0.00023086376
-8.8000786e-05
0.00027527352
-0.00010841601
0.00032629821
-0.00013288213
0.00038419219
-0.00016195412
0.00044889189
-0.00019615257
0.00051991446
-0.00023589841
0.00059633159
-0.00028142782
0.00067691781
-0.00033271039
0.00076054197
-0.00038941916
0.00084670059
-0.00045098671
0.00093587176
-0.00051670919
0.0010294252
-0.00058580958
0.0011292171
-0.00065741108
0.0012372433
-0.00073042595
0.0013555506
-0.00080338433
0.0014863905
-0.00087420762
0.0016325227
-0.00093990781
0.0017976147
-0.00099616756
0.0019867412
-0.0010367322
0.002206869
-0.0010525466
0.0024668994
-0.0010304541
0.0027775227
-0.0009511342
0.0031507868
-0.00078582586
0.0035980897
-0.00049206223
0.0041277293
-8.5559902e-06
0.004745224
0.00076006567
0.0054454011
0.0020127491
0.006114969
0.0040433799
0.0065137876
0.0071681385
0.0063746519
0.011660908
0.0054106397
0.018081702
0.0027273745
0.027975792
-0.0053353183
0.043850526
-0.026905265
0.064438443
-0.069376633
0.081455793
-0.12238766
0.088299929
-0.16185604
0.089989719
-0.17041883
0.092515493
-0.15620051
-0.12895915
0.10117398
-2.7867334e-09
9.6965037e-08
-1.2427083e-08
3.3550786e-07
-3.1270231e-08
6.5455114e-07
-6.2344117e-08
1.0748932e-06
-1.0954192e-07
1.6220965e-06
-1.7785625e-07
2.3274989e-06
-2.7367446e-07
3.2294179e-06
-4.0515151e-07
4.3745815e-06
-5.8267507e-07
5.8198292e-06
-8.1944875e-07
7.6341174e-06
-1.1322161e-06
9.9008791e-06
-1.5421654e-06
1.272078e-05
-2.076036e-06
1.6214913e-05
-2.7674955e-06
2.0528479e-05
-3.6588004e-06
2.5834959e-05
-4.8028329e-06
3.2340807e-05
-6.2655514e-06
4.0290584e-05
-8.1288966e-06
4.9972439e-05
-1.0494238e-05
6.1723714e-05
-1.3486373e-05
7.5936261e-05
-1.7258106e-05
9.3060825e-05
-2.1995322e-05
0.00011360943
-2.7922509e-05
0.0001381543
-3.5308416e-05
0.00016732082
-4.4471408e-05
0.00020177147
-5.5783854e-05
0.0002421762
-6.9674277e-05
0.00028916394
-8.6625497e-05
0.00034324943
-0.0001071657
0.00040473239
-0.00013184791
0.0004735741
-0.00016121093
0.00054927749
-0.00019571332
0.00063083397
-0.00023563755
0.00071684204
-0.00028098021
0.00080588463
-0.00033138268
0.00089710306
-0.00038615999
0.00099064908
-0.00044440486
0.00108767
-0.00050506844
0.0011898807
-0.00056694729
0.0012991221
-0.00062856354
0.0014171669
-0.00068796214
0.0015457891
-0.00074243372
0.0016869943
-0.00078814225
0.0018433233
-0.00081960409
0.0020182031
-0.00082893588
0.0022162008
-0.00080480269
0.0024427662
-0.00073080579
0.0027035258
-0.00058293065
0.0030029116
-0.00032539242
0.0033405514
9.4412066e-05
0.0037079248
0.00075423596
0.0040854001
0.0017977639
0.0044018731
0.0034851594
0.0044275735
0.006121253
0.003877694
0.0099883081
0.0025075968
0.015515408
-0.00011646067
0.023749951
-0.0055071677
0.03677588
-0.018361247
0.056191208
-0.046320593
0.077172985
-0.09035841
0.090250923
-0.1354656
0.093405304
-0.16501042
0.093515516
-0.17052904
0.096277529
-0.15896252
-0.13848597
0.10580434
-1.5446858e-09
9.8509723e-08
-6.8984875e-09
3.4086166e-07
-1.7394389e-08
6.6504704e-07
-3.4782314e-08
1.0922811e-06
-6.1353351e-08
1.6486676e-06
-1.0010457e-07
2.3662501e-06
-1.549448e-07
3.2842581e-06
-2.3096356e-07
4.4506002e-06
-3.3477265e-07
5.9236383e-06
-4.7494102e-07
7.7742858e-06
-6.6255079e-07
1.0088489e-05
-9.1189287e-07
1.2970122e-05
-1.2413519e-06
1.6544372e-05
-1.6745103e-06
2.0961638e-05
-2.241523e-06
2.6401972e-05
-2.9808244e-06
3.3080108e-05
-3.9412197e-06
4.1250979e-05
-5.1844438e-06
5.1215663e-05
-6.7882529e-06
6.3327523e-05
-8.8500986e-06
7.7998107e-05
-1.1491467e-05
9.5702193e-05
-1.4862882e-05
0.00011698085
-1.9149527e-05
0.00014244095
-2.4577391e-05
0.00017274868
-3.1419603e-05
0.00020861368
-4.0002419e-05
0.00025075902
-5.0709904e-05
0.00029987142
-6.3985589e-05
0.00035652512
-8.0328314e-05
0.00042107512
-0.00010027727
0.00049352305
-0.00012437831
0.00057337853
-0.00015312009
0.00065957576
-0.0001868329
0.00075055484
-0.00022555209
0.00084460382
-0.00026890447
0.00094045544
-0.00031609759
0.0010378422
-0.00036602358
0.001137596
-0.000417346
0.0012412031
-0.00046850801
0.0013502842
-0.00051761071
0.0014662696
-0.00056217903
0.0015903575
-0.00059882988
0.0017236451
-0.00062281949
0.0018673129
-0.00062740757
0.0020227911
-0.00060293993
0.0021917332
-0.00053556394
0.0023753902
-0.00040522837
0.0025731902
-0.00018241341
0.0027800967
0.00017720041
0.0029809376
0.0007402387
0.0031448865
0.0016107968
0.003214842
0.0029956654
0.0030170045
0.0051747509
0.002248488
0.0084244142
0.00062803078
0.013137428
-0.0022054172
0.020179289
-0.0071583219
0.031169491
-0.016497369
0.04804719
-0.035238946
0.069562778
-0.067836181
0.08745618
-0.10825181
0.095354164
-0.14336358
0.096144268
-0.16580052
0.096052476
-0.17043725
0.099769799
-0.16267984
-0.14849927
0.1097831
-3.4213651e-10
9.8851859e-08
-1.5436109e-09
3.4206314e-07
-3.9508738e-09
6.674543e-07
-8.0705136e-09
1.0964007e-06
-1.4636699e-08
1.6552338e-06
-2.4700185e-08
2.3763136e-06
-3.9751996e-08
3.2993099e-06
-6.1885668e-08
4.4727339e-06
-9.4016192e-08
5.9557688e-06
-1.4016839e-07
7.820438e-06
-2.0585279e-07
1.0154173e-05
-2.985663e-07
1.3062835e-05
-4.284293e-07
1.6674235e-05
-6.0901959e-07
2.1142228e-05
-8.5843525e-07
2.6651387e-05
-1.200648e-06
3.3422321e-05
-1.6672134e-06
4.1717545e-05
-2.2994249e-06
5.1847874e-05
-3.1509629e-06
6.4179061e-05
-4.291178e-06
7.9138322e-05
-5.8090578e-06
9.7220072e-05
-7.8179757e-06
0.00011898977
-1.0461264e-05
0.00014508423
-1.3918544e-05
0.00017620596
-1.8412771e-05
0.0002131079
-2.4217497e-05
0.00025656375
-3.1663714e-05
0.00030731764
-4.1144814e-05
0.00036600622
-5.3116992e-05
0.0004330473
-6.8090277e-05
0.00050849634
-8.6601486e-05
0.00059188974
-0.00010915563
0.00068212991
-0.00013613154
0.00077753075
-0.00016761273
0.00087608502
-0.00020320773
0.00097605043
-0.00024205458
0.0010766891
-0.00028284769
0.0011783891
-0.00032395396
0.0012823093
-0.0003634363
0.0013897665
-0.00039894188
0.0015017751
-0.00042743509
0.0016188507
-0.00044480505
0.0017410151
-0.00044531891
0.0018678267
-0.00042084681
0.001998319
-0.00035974281
0.0021306292
-0.0002452321
0.0022608795
-5.2884124e-05
0.0023808423
0.00025378884
0.0024734237
0.00073056891
0.0025041575
0.0014646049
0.0024108505
0.0026039232
0.0020755237
0.0044015272
0.0012194004
0.0071221247
-0.00047210949
0.011147598
-0.0033974425
0.017291176
-0.0083489956
0.026912901
-0.016780046
0.041637873
-0.031222341
0.06149871
-0.055099783
0.081344446
-0.087681917
0.093274193
-0.12018156
0.097206922
-0.14729631
0.097449854
-0.16604345
0.098222708
-0.1712101
0.10302093
-0.16747806
-0.15898539
0.11350705
7.7682328e-10
9.8075036e-08
3.4397717e-09
3.3940019e-07
8.5627941e-09
6.6233128e-07
1.6800061e-08
1.0881635e-06
2.8874997e-08
1.6431588e-06
4.5557033e-08
2.3596316e-06
6.7624569e-08
3.2772424e-06
9.5797195e-08
4.4445613e-06
1.3064148e-07
5.9209245e-06
1.724229e-07
7.7786566e-06
2.208977e-07
1.0105698e-05
2.750195e-07
1.3008714e-05
3.3253449e-07
1.661672e-05
3.8942741e-07
2.1085335e-05
4.3917691e-07
2.6601638e-05
4.7176365e-07
3.3389734e-05
4.7237626e-07
4.1716932e-05
4.1970766e-07
5.1900543e-05
2.8378246e-07
6.4314986e-05
2.3184147e-08
7.939892e-05
-4.1843084e-07
9.7661687e-05
-1.1166496e-06
0.00011968798
-2.1715661e-06
0.00014613915
-3.7140919e-06
0.00017774849
-5.9132279e-06
0.00021530704
-8.9842671e-06
0.00025963479
-1.3197296e-05
0.00031153067
-1.8884944e-05
0.00037169387
-2.6447052e-05
0.0004406094
-3.6347401e-05
0.00051839668
-4.9093309e-05
0.00060463564
-6.5178636e-05
0.00069821524
-8.4982102e-05
0.00079733422
-0.00010870891
0.00089981183
-0.00013591124
0.0010032528
-0.00016569925
0.0011064771
-0.00019659577
0.0012092856
-0.0002266647
0.0013123783
-0.0002535522
0.001416654
-0.00027441484
0.0015226378
-0.00028560378
0.0016300396
-0.00028220285
0.0017376142
-0.00025736293
0.0018429868
-0.00020134444
0.0019423005
-0.00010012026
0.002029405
6.6729683e-05
0.0020940296
0.00032945018
0.0021181218
0.00073426503
0.0020686089
0.0013545135
0.0018839091
0.0023085832
0.0014567808
0.0038017583
0.0005823486
0.0061053213
-0.0010841625
0.009603426
-0.0039702142
0.015091926
-0.0088859421
0.023841703
-0.017098773
0.037078921
-0.030017265
0.054844885
-0.048988305
0.074077223
-0.074332121
0.088464163
-0.10206886
0.095384506
-0.1271019
0.097773993
-0.1496858
0.098091094
-0.16636056
0.10014228
-0.17326129
0.10596876
-0.17330454
-0.16974238
0.11672574
1.7629303e-09
9.6312105e-08
7.8345613e-09
3.3332856e-07
1.9604326e-08
6.5056151e-07
3.8756033e-08
1.0690118e-06
6.7306344e-08
1.6146085e-06
1.0764767e-07
2.3192902e-06
1.6257892e-07
3.2223111e-06
2.3533669e-07
4.3718035e-06
3.2960495e-07
5.8266563e-06
4.4950333e-07
7.6587582e-06
5.9953689e-07
9.9556649e-06
7.8449916e-07
1.2823751e-05
1.0092809e-06
1.6391938e-05
1.2785982e-06
2.0816018e-05
1.5965532e-06
2.6283683e-05
1.9660167e-06
3.3020271e-05
2.3877339e-06
4.1295215e-05
2.8591347e-06
5.1429142e-05
3.3726541e-06
6.3801467e-05
3.9135618e-06
7.8858012e-05
4.4570761e-06
9.7118173e-05
4.9646477e-06
0.00011918041
5.3792477e-06
0.00014572455
5.6194765e-06
0.00017750826
5.5723851e-06
0.00021535413
5.0850188e-06
0.00026012215
3.9548903e-06
0.0003126608
1.9201759e-06
0.00037372858
-1.3484375e-06
0.00044387802
-6.2500321e-06
0.00052329828
-1.324125e-05
0.00061162686
-2.2804244e-05
0.00070777823
-3.5286088e-05
0.00080981606
-5.0805446e-05
0.00091533119
-6.9026106e-05
0.0010214734
-8.9189005e-05
0.00112664
-0.00010956078
0.0012296574
-0.00012783304
0.0013306505
-0.00014126607
0.001430087
-0.00014647647
0.0015278482
-0.00013912323
0.0016226864
-0.00011335854
0.0017118495
-6.1000752e-05
0.001790629
2.9686649e-05
0.0018516131
0.00017584204
0.0018832496
0.00040287941
0.0018669922
0.00074965273
0.0017713484
0.0012778151
0.0015404464
0.002089183
0.0010725412
0.0033504086
0.00019555524
0.0053302795
-0.0013975223
0.0084385634
-0.0041924465
0.013483929
-0.0090155803
0.021666056
-0.017068069
0.033918719
-0.029351436
0.049908178
-0.046006723
0.067398127
-0.066478255
0.082109284
-0.089043278
0.090834677
-0.11079425
0.095324994
-0.13159222
0.097476578
-0.15183738
0.098817281
-0.16770126
0.10195938
-0.17640338
0.10850872
-0.17985388
-0.18060506
0.1193714
2.5710994e-09
9.3741006e-08
1.1436445e-08
3.2446321e-07
2.8656092e-08
6.3334187e-07
5.6762468e-08
1.0409054e-06
9.8843694e-08
1.5725273e-06
1.5863366e-07
2.2595003e-06
2.4061416e-07
3.1403306e-06
3.5011976e-07
4.2622979e-06
4.9344408e-07
5.6833319e-06
6.7794717e-07
7.4742551e-06
9.1214578e-07
9.7214662e-06
1.2057818e-06
1.2530115e-05
1.5698538e-06
1.6027866e-05
2.0165715e-06
2.03693e-05
2.559232e-06
2.5741022e-05
3.2119425e-06
3.236756e-05
3.989164e-06
4.0517993e-05
4.904966e-06
5.051334e-05
5.971971e-06
6.2734462e-05
7.1997768e-06
7.7630207e-05
8.5928174e-06
9.5725132e-05
1.0147413e-05
0.00011762582
1.1847874e-05
0.00014402409
1.3661387e-05
0.00017569475
1.5531534e-05
0.00021348398
1.7370225e-05
0.00025828346
1.9048118e-05
0.0003109829
2.038404e-05
0.00037239266
2.1134902e-05
0.00044312716
2.0989918e-05
0.00052344326
1.9579018e-05
0.00061303776
1.6507041e-05
0.00071085021
1.1398305e-05
0.0008149248
4.169729e-06
0.00092255976
-5.16258e-06
0.0010308057
-1.5375123e-05
0.0011368525
-2.4599862e-05
0.0012388822
-3.0425399e-05
0.0013364761
-2.965468e-05
0.0014293163
-1.8253753e-05
0.0015164473
8.9295875e-06
0.001595503
5.8887439e-05
0.0016618916
0.0001415189
0.0017079976
0.0002712746
0.0017218574
0.00046974469
0.0016847795
0.00076998115
0.0015667558
0.0012250683
0.0013162613
0.0019232818
0.00084223299
0.0030129766
-1.7153654e-05
0.0047456831
-0.0015371513
0.0075639542
-0.0042157934
0.012287564
-0.0089160563
0.020057427
-0.016785443
0.031567639
-0.028578281
0.04616895