/*--------------------------------*- C++ -*----------------------------------*\
  =========                 |
  \\      /  F ield         | OpenFOAM: The Open Source CFD Toolbox
   \\    /   O peration     | Website:  https://openfoam.org
    \\  /    A nd           | Version:  13
     \\/     M anipulation  |
\*---------------------------------------------------------------------------*/
FoamFile
{
    format      ascii;
    class       volVectorField;
    location    "43.499296";
    object      U;
}
// * * * * * * * * * * * * * * * * * * * * * * * * * * * * * * * * * * * * * //

dimensions      [0 1 -1 0 0 0 0];

internalField   nonuniform List<vector> 
17140
(
(-2.3586574e-06 0.00016645971 3.4433934e-23)
(-8.7475624e-06 0.00051392292 3.8109607e-24)
(-1.7959297e-05 0.00089729925 -2.5144005e-22)
(-3.0824e-05 0.0013217956 2.7620005e-22)
(-4.8318625e-05 0.0017931153 -3.2257262e-23)
(-7.1683716e-05 0.0023174354 1.0545375e-22)
(-0.00010246373 0.0029013709 1.7728058e-22)
(-0.00014254678 0.0035519101 -8.6372786e-23)
(-0.00019424254 0.0042763176 -2.8211711e-22)
(-0.00026036327 0.0050819964 -6.9009402e-22)
(-0.00034432174 0.005976299 1.0197987e-21)
(-0.0004502413 0.0069662797 -9.0506406e-22)
(-0.00058308197 0.0080583741 -1.3785884e-22)
(-0.00074878061 0.0092579976 7.7466249e-22)
(-0.00095440462 0.01056905 -8.5365845e-23)
(-0.0012083156 0.011993318 6.702821e-22)
(-0.0015203375 0.013529777 -2.4621358e-23)
(-0.0019019207 0.01517378 5.5209425e-24)
(-0.0023662881 0.016916173 3.813845e-22)
(-0.0029285443 0.018742346 -4.8555645e-22)
(-0.0036057229 0.020631284 2.2915059e-22)
(-0.0044167345 0.022554713 -4.2658984e-23)
(-0.0053821725 0.024476459 -3.0564473e-22)
(-0.0065239192 0.026352207 2.9627007e-22)
(-0.0078644846 0.028129895 4.5610448e-22)
(-0.0094260041 0.029751078 -3.5403918e-22)
(-0.011228824 0.031153675 -1.6807739e-21)
(-0.013289639 0.032276677 -1.9127616e-22)
(-0.015619237 0.033067459 1.6167214e-21)
(-0.018220117 0.033492123 3.6472342e-22)
(-0.021084598 0.033547888 1.2509131e-21)
(-0.024194444 0.033273009 -1.5764679e-21)
(-0.027523053 0.032745658 3.9290025e-22)
(-0.031040279 0.032065712 1.7834318e-22)
(-0.034717972 0.031326973 1.6559113e-21)
(-0.038533341 0.030597734 -6.8660042e-22)
(-0.042469202 0.029918492 9.8780983e-22)
(-0.046512617 0.029310239 6.4084942e-22)
(-0.050653922 0.02878366 2.831896e-22)
(-0.054887004 0.028344781 -8.358671e-22)
(-0.059211262 0.027996724 -1.5527662e-21)
(-0.063634478 0.027738242 -1.3972306e-21)
(-0.068176764 0.027559793 -6.0889477e-22)
(-0.072881141 0.027436459 2.9801826e-21)
(-0.077812793 0.027315111 2.1959884e-21)
(-0.083067988 0.027106248 -5.4372903e-22)
(-0.088786041 0.026669726 3.7492527e-21)
(-0.095152728 0.025787096 1.2878798e-21)
(-0.10240165 0.024125388 -1.327168e-21)
(-0.11081732 0.021182983 -3.2901506e-21)
(-0.12070514 0.016186119 2.0458284e-21)
(-0.13237826 0.0079484948 1.3074349e-21)
(-0.14601042 -0.0053571019 -3.4344043e-21)
(-0.16150093 -0.026379846 -1.6331008e-21)
(-0.17794462 -0.058722676 -1.1521736e-21)
(-0.19358649 -0.10591014 9.1373984e-22)
(-0.20424681 -0.16966871 -2.3800514e-21)
(-0.20417927 -0.24398238 -1.896257e-21)
(-0.18646544 -0.31170836 -4.406796e-22)
(-0.15556611 -0.34640708 1.0803379e-21)
(-0.12073262 -0.3012605 8.8411931e-22)
(-0.060048599 -0.094433683 3.316568e-21)
(0.13922312 0.235182 3.5624118e-22)
(0.30256841 0.45049787 -1.7308006e-21)
(0.37724301 0.4998809 7.7382008e-22)
(-8.1713325e-06 0.00019739449 -9.8343862e-24)
(-2.6782198e-05 0.00060973516 1.3238618e-21)
(-4.9353472e-05 0.0010647628 -1.1773615e-21)
(-7.6991384e-05 0.0015682758 3.207006e-22)
(-0.0001107919 0.0021266139 6.6189504e-22)
(-0.00015217465 0.0027466177 -1.2632673e-21)
(-0.00020286534 0.0034355895 1.3148653e-21)
(-0.00026493611 0.0042012206 -1.1550754e-22)
(-0.00034087679 0.0050514837 3.5981146e-22)
(-0.00043367189 0.0059944793 6.0880955e-24)
(-0.00054688893 0.0070382281 1.1938425e-21)
(-0.00068477799 0.0081903978 -1.8887858e-21)
(-0.00085238439 0.0094579516 -1.5517115e-22)
(-0.0010556729 0.010846707 1.5216973e-21)
(-0.0013016626 0.012360793 -4.6350291e-22)
(-0.0015985685 0.014001994 -2.9151029e-22)
(-0.0019559458 0.01576898 1.8268471e-21)
(-0.0023848269 0.017656422 -5.8639057e-21)
(-0.0028978408 0.019653999 3.6079376e-21)
(-0.003509296 0.021745352 -4.2362562e-21)
(-0.0042352039 0.023907007 6.1135765e-21)
(-0.0050932115 0.026107396 -1.4606796e-21)
(-0.0061024011 0.02830607 -5.8431259e-22)
(-0.007282908 0.030453323 1.8538782e-21)
(-0.0086552932 0.032490463 -6.4516492e-21)
(-0.010239607 0.034351088 -9.3207853e-22)
(-0.01205408 0.03596385 4.6608242e-21)
(-0.014113425 0.037257367 -5.0530911e-21)
(-0.016426815 0.038168157 6.7127011e-22)
(-0.018995813 0.038652303 6.3446834e-21)
(-0.021812839 0.038700147 -6.3099019e-22)
(-0.024861041 0.038349227 -4.6649627e-21)
(-0.028116387 0.037685293 -1.1523478e-22)
(-0.031551886 0.036823062 3.1677087e-21)
(-0.03514229 0.035873957 -3.3544216e-21)
(-0.038866901 0.034921754 1.4363073e-21)
(-0.042709683 0.034018048 -1.6070488e-21)
(-0.046658077 0.033191055 -4.9115992e-21)
(-0.050702359 0.032456458 -1.0671751e-21)
(-0.054836181 0.031824632 -4.0741352e-21)
(-0.059058756 0.031303549 5.1297905e-21)
(-0.063377837 0.030898126 4.6993095e-21)
(-0.067814109 0.030607083 8.0532497e-22)
(-0.07241175 0.030415483 -6.475003e-21)
(-0.077238267 0.030280687 3.1127958e-21)
(-0.082394964 0.03012602 1.0921554e-21)
(-0.088029494 0.02982608 -5.6725704e-22)
(-0.094341502 0.029176974 -1.8621078e-21)
(-0.1015862 0.027858339 9.1709407e-22)
(-0.11008351 0.025377363 -1.7365479e-21)
(-0.12019269 0.020957967 -1.0403089e-20)
(-0.13231222 0.013389481 -4.7666379e-22)
(-0.1467373 0.00076288166 2.2423417e-21)
(-0.16354471 -0.019752073 -5.2398019e-21)
(-0.18196427 -0.052080511 4.4110774e-21)
(-0.20020573 -0.10028643 -1.2558658e-20)
(-0.21298658 -0.16687072 -3.6702501e-21)
(-0.21448275 -0.24610419 9.2966337e-21)
(-0.19640938 -0.31917235 -1.4856436e-21)
(-0.16564325 -0.35671662 -1.542641e-21)
(-0.13231222 -0.31481021 -2.9439949e-22)
(-0.094085978 -0.13121388 2.9752309e-21)
(0.067451617 0.17819557 -4.905416e-21)
(0.22910378 0.41037119 -3.7087609e-22)
(0.31992572 0.48380015 -1.0013518e-21)
(-1.5804224e-05 0.00022782521 -5.43553e-22)
(-5.0314237e-05 0.00070400311 4.0139857e-22)
(-9.0382531e-05 0.0012295416 1.0669115e-22)
(-0.00013727281 0.0018108173 -1.0107733e-22)
(-0.00019228061 0.0024547801 4.8939911e-22)
(-0.0002570234 0.0031689073 3.6364746e-23)
(-0.00033342964 0.0039611607 4.6378779e-22)
(-0.00042377429 0.0048399066 4.9881941e-22)
(-0.00053074367 0.005813798 -4.067276e-21)
(-0.00065750371 0.0068916073 3.6214137e-21)
(-0.00080777775 0.0080820016 -1.7270637e-21)
(-0.00098593282 0.0093932456 -2.5200343e-21)
(-0.001197076 0.010832822 4.9709237e-21)
(-0.0014471595 0.012406955 6.1150611e-22)
(-0.0017430924 0.014120021 -2.3420595e-21)
(-0.0020928565 0.015973841 -1.5947668e-21)
(-0.0025056215 0.017966842 1.8277992e-21)
(-0.0029918514 0.020093095 -6.5253824e-21)
(-0.003563391 0.022341236 3.7933679e-21)
(-0.0042335191 0.024693304 -1.8409112e-21)
(-0.0050169451 0.027123554 6.0727095e-21)
(-0.0059297234 0.029597332 1.5406225e-21)
(-0.0069890481 0.03207015 -3.1304934e-21)
(-0.0082128856 0.034487156 4.5773983e-21)
(-0.0096193889 0.036783264 1.7499563e-21)
(-0.01122604 0.03888432 -2.0361334e-21)
(-0.013048471 0.040709843 -1.1199984e-20)
(-0.015098958 0.042178116 -4.9110314e-21)
(-0.01738468 0.043214678 2.3705589e-21)
(-0.019906037 0.043765262 -2.4573675e-21)
(-0.02265555 0.04381275 1.4796591e-21)
(-0.025618058 0.043393155 8.081049e-21)
(-0.028772679 0.042599015 -2.5984202e-21)
(-0.032096283 0.041559475 -7.4023721e-21)
(-0.035567116 0.040403666 2.3410545e-21)
(-0.039166855 0.039231211 3.1385377e-21)
(-0.042880584 0.03810511 -5.2139307e-21)
(-0.046695906 0.037060997 -1.5445743e-21)
(-0.050602629 0.036119707 2.6466512e-21)
(-0.054593544 0.035296152 1.0336024e-21)
(-0.058666789 0.034603421 -4.9620126e-21)
(-0.062828871 0.034053008 1.4123869e-21)
(-0.06709942 0.033652504 2.0398064e-21)
(-0.071521388 0.033397869 5.5179737e-21)
(-0.076161427 0.03325838 -1.0660239e-20)
(-0.081121585 0.033172106 7.0518556e-21)
(-0.086551817 0.033030872 1.8387872e-21)
(-0.092657377 0.032648896 7.3272022e-21)
(-0.099703628 0.031723557 8.9556722e-21)
(-0.10803095 0.029778609 4.4964549e-22)
(-0.11803222 0.026046711 -2.1531344e-21)
(-0.13016624 0.01930838 1.5097635e-20)
(-0.14481497 0.0075905872 6.5383122e-21)
(-0.16219183 -0.012109866 6.7562318e-21)
(-0.18162428 -0.044094746 2.3556375e-21)
(-0.20125906 -0.093315663 1.7428919e-20)
(-0.21496698 -0.16280055 -7.3427982e-21)
(-0.21636842 -0.24760724 2.1835977e-21)
(-0.19332695 -0.32635942 1.4475406e-20)
(-0.15920467 -0.36697303 4.9201283e-21)
(-0.12382154 -0.32677025 -4.7722359e-21)
(-0.095311401 -0.1613658 -1.5830108e-20)
(0.025853559 0.12584983 4.1109053e-21)
(0.17645149 0.36583479 3.2980235e-21)
(0.28330104 0.45691935 8.741069e-22)
(-2.5196887e-05 0.0002571969 1.8264119e-21)
(-7.9277164e-05 0.00079503183 -2.9038573e-21)
(-0.00014087428 0.0013886973 1.0493532e-21)
(-0.00021142841 0.0020451152 -1.1398395e-22)
(-0.00029246016 0.0027718107 2.2516185e-21)
(-0.00038580693 0.0035768617 -2.3270214e-21)
(-0.00049361994 0.0044688523 3.5251927e-21)
(-0.00061839404 0.005456787 -1.6556229e-21)
(-0.00076302475 0.0065499638 -6.2819855e-21)
(-0.00093086613 0.0077577953 1.506438e-21)
(-0.0011257962 0.0090895682 5.7198637e-21)
(-0.0013522873 0.010554127 -1.7392313e-21)
(-0.0016154843 0.012159471 -1.1555548e-22)
(-0.0019212862 0.013912239 4.5027141e-21)
(-0.0022764321 0.015817091 -1.3984198e-20)
(-0.0026885873 0.017875941 8.5092003e-21)
(-0.0031664248 0.020087069 8.0193339e-23)
(-0.0037196959 0.022444078 -4.5981697e-21)
(-0.0043592812 0.024934732 1.1505164e-20)
(-0.0050972076 0.027539695 -5.3378442e-21)
(-0.0059466152 0.030231216 -7.8080174e-21)
(-0.0069216508 0.032971875 -3.0960176e-21)
(-0.0080372571 0.035713502 1.4954751e-20)
(-0.0093088212 0.038396482 7.6253499e-21)
(-0.010751637 0.040949719 -4.7980257e-21)
(-0.01238014 0.043291664 2.7288616e-21)
(-0.014206868 0.04533299 -9.9538542e-21)
(-0.016241191 0.046981795 2.7856715e-21)
(-0.018487887 0.048152572 -7.3048915e-21)
(-0.020945909 0.048780305 4.0162521e-21)
(-0.023607808 0.048839582 -2.4169073e-21)
(-0.026460324 0.048363665 8.5496063e-21)
(-0.029486241 0.047450569 -1.1814232e-21)
(-0.032666961 0.046242988 5.9919243e-21)
(-0.035984819 0.044887613 -5.4812667e-21)
(-0.039424183 0.043500272 -1.687433e-21)
(-0.042971272 0.042155875 2.0089998e-20)
(-0.046613604 0.040897847 5.0714639e-21)
(-0.050340047 0.03975238 -4.0935394e-21)
(-0.054141846 0.038739057 3.9558298e-21)
(-0.058015091 0.037876258 -1.0237817e-21)
(-0.061963715 0.037182354 -6.3121514e-21)
(-0.066004475 0.036674263 2.8903395e-22)
(-0.070176388 0.036359599 2.1780312e-21)
(-0.07454172 0.036220767 -1.0885763e-21)
(-0.079198315 0.036212296 5.9339393e-22)
(-0.084291254 0.036245413 1.6629043e-21)
(-0.090021531 0.036155717 -2.5520871e-20)
(-0.096650563 0.035663223 2.9562158e-21)
(-0.10452019 0.034315946 -2.7545586e-21)
(-0.11402954 0.031366449 2.6458232e-20)
(-0.12565951 0.025602622 -1.4669282e-20)
(-0.13982266 0.015008578 -1.252106e-20)
(-0.15679174 -0.0035815204 -1.2274708e-20)
(-0.17590649 -0.034875418 -1.2084458e-20)
(-0.1950537 -0.084699508 -1.8913537e-20)
(-0.20784339 -0.15722113 3.7224865e-20)
(-0.20378098 -0.24847541 -2.166235e-20)
(-0.17443401 -0.33362917 -2.8186477e-20)
(-0.13386175 -0.37690794 1.6138115e-20)
(-0.094951925 -0.33731032 4.5476971e-21)
(-0.070078723 -0.18482171 5.0595113e-21)
(0.020207775 0.08042644 -6.5791988e-21)
(0.15342252 0.3201435 -2.8833486e-21)
(0.27884069 0.42043834 1.3221889e-22)
(-3.6257628e-05 0.00028493609 -1.2905792e-21)
(-0.00011339025 0.00088104155 4.2816413e-21)
(-0.00020034056 0.0015391219 -3.4887655e-21)
(-0.00029874223 0.0022666046 1.3175673e-21)
(-0.00041036325 0.0030715451 4.7562812e-22)
(-0.00053728007 0.0039625768 -4.0886939e-21)
(-0.00068188365 0.0049488598 1.0342175e-21)
(-0.0008469028 0.0060399918 2.1929008e-21)
(-0.0010354522 0.0072458728 1.6789773e-22)
(-0.0012510784 0.0085765179 1.4234016e-21)
(-0.0014978111 0.010041804 -1.9877461e-21)
(-0.0017802162 0.011651138 1.3766805e-21)
(-0.0021034518 0.013413031 5.0518115e-21)
(-0.0024733258 0.01533456 1.4617886e-22)
(-0.0028963517 0.017420712 -3.8162572e-21)
(-0.0033798011 0.01967358 -2.682352e-21)
(-0.0039317485 0.022091418 2.286982e-21)
(-0.0045611018 0.024667534 -2.1642015e-22)
(-0.0052776126 0.027389054 -4.3505584e-21)
(-0.0060918534 0.030235552 -5.2217802e-21)
(-0.0070151508 0.033177635 5.8565086e-21)
(-0.0080594539 0.036175537 5.7761051e-21)
(-0.0092371161 0.039177884 -7.6029111e-21)
(-0.01056056 0.042120819 9.191197e-21)
(-0.012041791 0.044927778 1.5538629e-20)
(-0.013691727 0.047510339 -3.5666272e-20)
(-0.01551933 0.049770776 1.9111856e-20)
(-0.017530571 0.051607292 -2.7561221e-20)
(-0.019727383 0.052923349 3.3476951e-20)
(-0.022106924 0.053642748 -3.6291237e-20)
(-0.024661602 0.053730737 3.635806e-20)
(-0.027380151 0.053216143 -5.9050288e-21)
(-0.030249403 0.052200536 -1.96324e-20)
(-0.033255896 0.050838747 1.0609259e-20)
(-0.036386648 0.049294623 -3.1705122e-21)
(-0.039629098 0.047700626 -8.7481311e-22)
(-0.042970665 0.046144235 -1.0441445e-20)
(-0.046398529 0.044677165 -3.2838212e-21)
(-0.049900109 0.043331233 -3.2539636e-21)
(-0.053464348 0.042130812 -3.1285531e-21)
(-0.057084238 0.041099657 1.5833774e-20)
(-0.06075969 0.040263144 -6.9496421e-21)
(-0.064502622 0.039647729 -1.124515e-21)
(-0.068345111 0.039273208 1.3024177e-20)
(-0.072341012 0.039136258 6.6997708e-21)
(-0.076578389 0.039209038 -3.3155394e-21)
(-0.081189085 0.039423881 -1.2431545e-20)
(-0.086358193 0.039640521 5.4317039e-21)
(-0.092326052 0.039605865 -1.6440782e-20)
(-0.099412077 0.03889913 -9.1587981e-21)
(-0.1079854 0.036802784 -1.2811436e-20)
(-0.11849424 0.032127553 -3.5722088e-20)
(-0.13130079 0.022836378 2.8251349e-20)
(-0.1466296 0.0056199266 -9.7663671e-21)
(-0.16368551 -0.024659987 1.6864504e-20)
(-0.1799829 -0.074834112 1.5992295e-20)
(-0.18792006 -0.150871 7.1018376e-21)
(-0.1746081 -0.24855081 5.3602919e-20)
(-0.13374719 -0.33979252 1.1845953e-20)
(-0.084312735 -0.38572205 -2.1235371e-20)
(-0.042974126 -0.3457917 -4.6898162e-21)
(-0.019234296 -0.20240462 3.8991286e-21)
(0.051129478 0.043181284 4.4303534e-21)
(0.16743466 0.27526019 1.6185376e-21)
(0.31745151 0.37470084 -2.4304307e-22)
(-4.8827288e-05 0.00031044532 -3.9466293e-21)
(-0.00015216506 0.00096018686 -1.3919767e-21)
(-0.00026793235 0.0016775972 1.1263903e-21)
(-0.00039797056 0.0024705605 4.1568486e-21)
(-0.00054431345 0.0033476084 -2.2758175e-21)
(-0.00070929192 0.0043178751 3.272464e-21)
(-0.00089555011 0.0053910421 -1.4142765e-21)
(-0.0011060615 0.0065772465 -3.3637266e-22)
(-0.001344167 0.0078869406 1.9004917e-21)
(-0.0016136079 0.0093306985 4.0870225e-21)
(-0.0019185613 0.010918954 2.0483704e-22)
(-0.0022636744 0.012661657 -6.6801731e-21)
(-0.0026540972 0.01456783 9.2063457e-21)
(-0.003095512 0.016645018 -1.4795845e-20)
(-0.003594158 0.018898595 3.8450088e-21)
(-0.0041568468 0.021330935 -8.1153766e-21)
(-0.0047909671 0.023940419 9.7320899e-21)
(-0.0055044715 0.026720275 -6.2606976e-21)
(-0.0063058416 0.02965727 9.778388e-22)
(-0.0072040221 0.032730255 3.9157596e-21)
(-0.0082083145 0.035908629 -9.3798578e-21)
(-0.0093282176 0.039150806 1.3023059e-20)
(-0.010573197 0.04240281 -1.3906513e-20)
(-0.011952365 0.045597205 -2.3475186e-21)
(-0.013474042 0.048652656 2.2541132e-20)
(-0.015145193 0.051474561 -2.2305597e-20)
(-0.016970723 0.053957417 1.4180377e-20)
(-0.018952712 0.055989981 -1.5568231e-20)
(-0.021089762 0.057464808 -1.4641163e-21)
(-0.023376803 0.058294089 -8.8953256e-22)
(-0.025805794 0.058432506 5.7298472e-21)
(-0.028367372 0.057902352 -3.8177823e-22)
(-0.031052639 0.056806203 2.0241774e-20)
(-0.033853765 0.055308997 -5.2568109e-21)
(-0.03676305 0.053591002 -1.5136126e-20)
(-0.039771444 0.051801719 6.7566417e-21)
(-0.042867682 0.050042016 -5.3328761e-21)
(-0.046038383 0.048372554 5.2173724e-21)
(-0.049268996 0.046831117 2.8171859e-20)
(-0.052545354 0.045446971 -1.5320553e-20)
(-0.055856211 0.044249217 -3.719367e-21)
(-0.059195894 0.043270216 2.1141338e-20)
(-0.062569309 0.042545926 -1.1890712e-21)
(-0.065998588 0.042108395 -2.5922921e-21)
(-0.069524446 0.041969493 -2.903288e-20)
(-0.073218743 0.042119709 -6.8009031e-21)
(-0.077190696 0.042513482 1.094001e-20)
(-0.081595826 0.043036567 1.134229e-20)
(-0.086632766 0.043465886 1.6478675e-20)
(-0.092568881 0.043417143 2.092889e-20)
(-0.099695838 0.042209775 1.317914e-20)
(-0.10835363 0.038690495 2.0443841e-20)
(-0.11874361 0.030824832 -7.1132515e-21)
(-0.13088434 0.015185936 4.6873461e-20)
(-0.14358017 -0.013802425 3.9133494e-21)
(-0.15352433 -0.064097883 3.1544101e-21)
(-0.1512404 -0.14354912 2.6931087e-21)
(-0.12130796 -0.24794472 -6.0403741e-20)
(-0.061588922 -0.34401667 -1.9121286e-20)
(-0.0011539266 -0.38982741 2.0582254e-20)
(0.03757801 -0.34976066 1.622316e-20)
(0.057111785 -0.21404228 4.072495e-21)
(0.1149078 0.013814755 8.0918109e-22)
(0.22171491 0.23241135 9.8715611e-22)
(0.39914197 0.32377923 -4.5601635e-22)
(-6.2671931e-05 0.00033313306 7.4824303e-22)
(-0.00019490211 0.0010306342 2.3763197e-21)
(-0.00034242412 0.0018009253 -5.7330389e-21)
(-0.0005073208 0.0026522852 2.129808e-22)
(-0.00069189654 0.0035936601 2.7879999e-21)
(-0.00089874884 0.004634621 1.2279068e-21)
(-0.0011307845 0.0057853076 9.057609e-22)
(-0.0013912289 0.0070563341 -1.7826551e-21)
(-0.0016836532 0.0084586479 9.2146228e-21)
(-0.0020119933 0.010003333 -6.9402398e-21)
(-0.0023805695 0.011701341 3.3505971e-22)
(-0.0027940992 0.013563144 4.1790969e-21)
(-0.0032577058 0.015598282 -1.5581387e-20)
(-0.003776919 0.017814796 1.5465322e-20)
(-0.0043576651 0.02021852 -2.0493317e-21)
(-0.0050062444 0.022812229 -1.2606491e-20)
(-0.0057292919 0.02559461 1.1768031e-20)
(-0.0065337185 0.028559062 -4.0762015e-21)
(-0.0074266267 0.031692322 7.840288e-21)
(-0.0084151977 0.034972937 -9.9433834e-21)
(-0.0095065407 0.038369621 -1.8413969e-20)
(-0.0107075 0.041839586 1.7944273e-20)
(-0.012024408 0.04532697 2.5833994e-20)
(-0.013462772 0.048761558 -4.8870009e-20)
(-0.015026886 0.052058105 3.8370842e-20)
(-0.016719361 0.055116694 -2.1782812e-20)
(-0.018540595 0.057824856 5.4814976e-21)
(-0.020488284 0.060062532 -1.2654337e-20)
(-0.02255717 0.06171164 1.2624899e-20)
(-0.024739433 0.062672399 1.6612794e-20)
(-0.027026111 0.062887587 -1.0731845e-20)
(-0.029409436 0.0623705 -1.7303508e-20)
(-0.031884765 0.061221549 1.4560218e-21)
(-0.03445025 0.059613049 5.7216737e-22)
(-0.037104041 0.057740487 9.9224266e-21)
(-0.039841109 0.055770721 -4.148765e-21)
(-0.042651708 0.053818969 -1.4551429e-20)
(-0.045521731 0.051955673 -7.0917577e-21)
(-0.04843414 0.050225014 1.0596748e-20)
(-0.051370817 0.048661227 -8.2004685e-21)
(-0.054315071 0.047298629 6.9435182e-21)
(-0.057253985 0.046176333 -2.2419497e-21)
(-0.060183039 0.045339537 -8.8607477e-21)
(-0.063111131 0.044832267 2.1640197e-20)
(-0.06606098 0.044681638 1.2967939e-20)
(-0.069080765 0.044896895 8.6884589e-21)
(-0.072246417 0.045454653 -2.799221e-20)
(-0.075667962 0.046267257 -1.8541852e-20)
(-0.079477637 0.047143036 -2.2183221e-20)
(-0.083854384 0.047736556 -3.9590187e-20)
(-0.088950626 0.047406411 1.4350095e-20)
(-0.09489858 0.045045388 -2.9926737e-21)
(-0.10159589 0.038638559 -2.4932309e-20)
(-0.10862062 0.024661399 -7.5944783e-20)
(-0.11393062 -0.0029199985 -5.2357061e-20)
(-0.11264902 -0.053306696 -2.1548516e-20)
(-0.091826419 -0.13643891 -6.1945467e-20)
(-0.032970497 -0.24639133 3.9367414e-20)
(0.056277516 -0.34385789 -3.2711298e-21)
(0.12892173 -0.38566491 -3.3084201e-20)
(0.15597082 -0.34332755 -1.2546934e-20)
(0.16360829 -0.21692796 -1.1611265e-21)
(0.20772361 -0.0081965271 -6.8076401e-21)
(0.31091248 0.19217255 1.6540707e-21)
(0.51062905 0.27211823 -2.4682435e-22)
(-7.7494894e-05 0.00035243398 2.965799e-21)
(-0.00024068055 0.0010906312 -1.999251e-21)
(-0.00042221807 0.0019060447 2.6994599e-21)
(-0.00062445182 0.0028072786 1.5334559e-21)
(-0.00084995992 0.003803623 -4.276366e-21)
(-0.0011016133 0.004905014 -3.9888144e-21)
(-0.0013825862 0.0061219768 4.088913e-21)
(-0.0016963592 0.0074655333 -4.9154839e-22)
(-0.0020467344 0.0089470612 -1.1362828e-22)
(-0.002437841 0.010578097 -8.0614452e-21)
(-0.0028741373 0.01237007 8.8178049e-22)
(-0.0033604026 0.01433395 1.6173991e-20)
(-0.0039017207 0.016479794 -1.288862e-20)
(-0.0045034502 0.018816174 4.4228794e-22)
(-0.0051711794 0.021349465 8.5613598e-21)
(-0.0059106643 0.024082973 7.3210043e-22)
(-0.0067277437 0.027015891 -1.8494598e-21)
(-0.0076282321 0.030142063 -8.2647035e-21)
(-0.0086177835 0.033448568 1.499479e-20)
(-0.0097017265 0.036914117 -2.606797e-20)
(-0.010884866 0.040507326 5.5482862e-21)
(-0.012171249 0.044184908 -4.0176258e-21)
(-0.013563896 0.047889939 3.2458556e-21)
(-0.015064484 0.051550354 -1.3745647e-22)
(-0.016673 0.055078007 1.857929e-20)
(-0.01838736 0.058368718 1.8158249e-20)
(-0.020203047 0.061304051 -3.5250547e-20)
(-0.022112886 0.063755976 -5.7524568e-21)
(-0.024107202 0.065596233 1.9595252e-20)
(-0.026174799 0.066712833 6.7954366e-21)
(-0.028305146 0.067035317 1.5111602e-20)
(-0.030491494 0.066565252 -1.6572414e-20)
(-0.032733145 0.06539712 -7.0439422e-21)
(-0.03503435 0.063707109 1.5755793e-20)
(-0.037399621 0.061704105 -6.3514258e-21)
(-0.039828519 0.059572426 -2.9994882e-21)
(-0.042313145 0.057442711 8.2171219e-21)
(-0.044838583 0.0553962 2.0957515e-20)
(-0.047384825 0.053484019 6.2689719e-21)
(-0.049928955 0.051745446 -4.0905985e-21)
(-0.052447564 0.050219759 -9.612399e-21)
(-0.05491875 0.048952358 -9.9890706e-21)
(-0.057326062 0.047997078 -1.1153159e-20)
(-0.059661301 0.047409289 -2.3647192e-20)
(-0.061924123 0.047230729 6.724975e-22)
(-0.064130927 0.047488896 -1.021907e-20)
(-0.06631196 0.048181566 5.7695045e-20)
(-0.068513291 0.049246556 1.6277096e-20)
(-0.070771245 0.050522579 1.8987305e-20)
(-0.073131506 0.051700923 5.3998246e-20)
(-0.075526475 0.05217423 -6.5169181e-20)
(-0.07775902 0.050882182 1.5056356e-20)
(-0.079251325 0.045847287 5.0010295e-20)
(-0.07879381 0.033426625 6.3438373e-20)
(-0.072816133 0.0070795268 7.8695777e-21)
(-0.053658572 -0.043897725 -2.3701766e-20)
(-0.0022894234 -0.13118582 -3.7934245e-20)
(0.10204885 -0.2449625 1.5273446e-20)
(0.23013949 -0.33681884 -1.8760485e-20)
(0.31613708 -0.36442204 9.1977428e-21)
(0.3262467 -0.31773136 6.2333913e-22)
(0.30798657 -0.20422214 -2.1564551e-21)
(0.32982904 -0.019487464 9.5186711e-21)
(0.42757397 0.15631073 8.880078e-22)
(0.64040553 0.22261938 -1.6335691e-21)
(-9.2934604e-05 0.00036783227 -2.7965376e-21)
(-0.00028837648 0.0011385809 -7.4863014e-22)
(-0.00050536447 0.0019901639 8.2215377e-22)
(-0.00074650692 0.002931435 4.0383977e-21)
(-0.0010146576 0.0039719497 -4.8393989e-21)
(-0.0013129616 0.0051219283 4.1052549e-21)
(-0.0016448605 0.0063922018 1.9596238e-21)
(-0.002014089 0.0077941221 -1.0491011e-22)
(-0.0024246778 0.0093394249 -1.6485608e-21)
(-0.0028809464 0.011040037 -9.3532039e-21)
(-0.0033874866 0.012907814 1.5658361e-20)
(-0.0039491346 0.014954195 -1.8746273e-20)
(-0.004570928 0.017189752 5.4807816e-21)
(-0.0052580467 0.019623624 7.3995336e-21)
(-0.0060157326 0.022262804 -1.1276573e-20)
(-0.0068491864 0.025111269 2.2061621e-20)
(-0.0077634379 0.028168924 -2.6504827e-20)
(-0.0087631874 0.031430354 -4.1377941e-22)
(-0.0098526169 0.03488337 -1.4864879e-20)
(-0.011035169 0.038507361 5.8237425e-20)
(-0.012313297 0.042271474 -1.3901208e-20)
(-0.01368818 0.0461327 -5.6641613e-20)
(-0.015159426 0.05003396 2.6330113e-20)
(-0.01672474 0.053902386 3.0874887e-20)
(-0.018379603 0.057648083 -7.620783e-21)
(-0.020116969 0.061163829 -3.9193946e-20)
(-0.02192705 0.064326434 5.8265654e-20)
(-0.023797338 0.067000958 -6.343234e-20)
(-0.025713165 0.069049671 4.8985131e-20)
(-0.027659241 0.070348363 -9.1899641e-21)
(-0.02962262 0.070812114 1.5452594e-20)
(-0.031596705 0.070427914 2.1488188e-20)
(-0.03358406 0.069280032 -8.1632753e-21)
(-0.03559484 0.06754418 -2.0024676e-21)
(-0.037640303 0.065440046 -2.8415e-20)
(-0.039725242 0.063169124 5.2396518e-21)
(-0.041844059 0.060878599 -1.3200935e-20)
(-0.043981074 0.058661723 1.0977635e-20)
(-0.046112892 0.056577257 -6.1920363e-21)
(-0.048210955 0.054669613 -4.0738859e-21)
(-0.050243826 0.052982666 -3.5210382e-21)
(-0.052178804 0.051567396 -3.4227228e-21)
(-0.053984768 0.050485244 2.1126618e-20)
(-0.055632379 0.049801726 1.7015336e-20)
(-0.057092499 0.049572123 -4.837192e-21)
(-0.058340941 0.04984035 3.2380277e-21)
(-0.059348086 0.050622909 -1.3161825e-20)
(-0.060074428 0.051879782 2.7368716e-20)
(-0.060424894 0.05347578 3.2769173e-20)
(-0.060255988 0.055130463 9.9145944e-21)
(-0.05918039 0.056262261 2.5809476e-20)
(-0.056523276 0.055862769 -8.091607e-22)
(-0.051033106 0.051922439 -1.2892627e-20)
(-0.040238612 0.040660641 -6.9249909e-20)
(-0.018162159 0.014898199 3.587134e-20)
(0.027437828 -0.038073013 -1.6826348e-20)
(0.12510011 -0.13066674 4.3041664e-20)
(0.28620096 -0.24525314 -6.48021e-20)
(0.45085415 -0.32595818 2.8219134e-20)
(0.54390569 -0.32998447 -4.2860355e-21)
(0.54544946 -0.26647144 1.2033337e-22)
(0.4962634 -0.16556836 -3.7960294e-23)
(0.48681042 -0.013255516 6.5866099e-21)
(0.57046431 0.12999431 -5.9596133e-21)
(0.78670893 0.17961964 -1.328169e-21)
(-0.00010857167 0.00037889483 6.2723853e-21)
(-0.00033669721 0.0011731385 4.3126315e-21)
(-0.00058961436 0.0020509285 -6.7673867e-21)
(-0.00087019161 0.0030212864 1.780471e-22)
(-0.0011815541 0.004093948 6.1115393e-21)
(-0.0015271163 0.0052793309 3.1931273e-21)
(-0.0019105815 0.0065884846 -6.7238269e-21)
(-0.0023359329 0.0080330065 1.1027364e-21)
(-0.0028074248 0.0096249105 -1.5527017e-20)
(-0.0033295618 0.011376443 3.0210557e-21)
(-0.0039070663 0.01329983 7.7416464e-23)
(-0.0045448293 0.015406942 -1.1061284e-20)
(-0.0052478437 0.017708858 3.5338395e-20)
(-0.0060211154 0.020215311 -1.6406602e-20)
(-0.0068695484 0.022933985 -2.9266602e-20)
(-0.0077978025 0.025869661 3.1026002e-20)
(-0.0088101171 0.029023164 -3.7981648e-21)
(-0.009910103 0.032390114 2.1406812e-20)
(-0.011100498 0.035959457 1.5766783e-20)
(-0.012382887 0.03971178 -4.9123522e-20)
(-0.013757393 0.043617429 3.6480219e-20)
(-0.015222346 0.047634483 -4.7447331e-20)
(-0.016773926 0.051706683 5.4993502e-21)
(-0.018405823 0.055761491 -2.2162443e-20)
(-0.020108912 0.05970854 4.7448334e-20)
(-0.021871005 0.063438944 -1.1072253e-20)
(-0.023676758 0.066826173 -2.750676e-20)
(-0.025507922 0.069729694 6.5368863e-20)
(-0.027344242 0.072003296 -2.7903623e-20)
(-0.029165546 0.073510846 -2.9535632e-20)
(-0.030955451 0.074152015 2.3932627e-20)
(-0.032706362 0.073896459 3.1520342e-21)
(-0.03442299 0.072813574 -1.5324219e-20)
(-0.036120727 0.071073472 8.2280942e-21)
(-0.037817746 0.068903077 -1.2237195e-20)
(-0.039524718 0.066520104 4.1628504e-20)
(-0.041238968 0.064089331 -2.1254176e-20)
(-0.042944276 0.061717413 -1.2456316e-20)
(-0.044613547 0.05947162 -2.5153301e-20)
(-0.04621177 0.057401635 -3.4371335e-21)
(-0.047698143 0.055555466 2.6234822e-20)
(-0.049027242 0.053988722 -1.0614393e-20)
(-0.050150288 0.05276896 -1.5730867e-20)
(-0.051012572 0.051970096 -2.354873e-21)
(-0.051549753 0.051659029 1.6045403e-20)
(-0.051687144 0.051893039 1.442545e-20)
(-0.051319056 0.05270301 -4.4749681e-20)
(-0.05029477 0.054065028 -2.4191826e-20)
(-0.048344472 0.05586163 -5.3765064e-20)
(-0.04506097 0.057827674 -1.9318987e-20)
(-0.039612058 0.059367105 -7.7732633e-21)
(-0.030665501 0.0595283 -5.9912818e-20)
(-0.016235205 0.056248666 -2.4493936e-20)
(0.0082510634 0.045402474 8.4964145e-20)
(0.051960611 0.018893099 -7.2117072e-20)
(0.1353629 -0.038633033 6.7161473e-20)
(0.29283683 -0.13650811 -3.1997477e-20)
(0.504499 -0.24799454 1.312682e-19)
(0.67901407 -0.31199354 4.6243082e-20)
(0.75358559 -0.29555505 -8.4861518e-21)
(0.75194462 -0.20983661 -2.2823182e-21)
(0.70532687 -0.10462942 5.6430734e-21)
(0.67851428 0.018984396 1.3048208e-21)
(0.75007459 0.12145222 1.0120655e-21)
(0.94807343 0.14825674 1.4448667e-21)
(-0.0001239442 0.00038529196 1.1418254e-22)
(-0.00038421871 0.001193277 -8.1232594e-21)
(-0.00067248987 0.002086537 9.5717407e-21)
(-0.000991876 0.0030741743 4.6034184e-21)
(-0.0013457629 0.0041660138 -9.2134259e-21)
(-0.0017378232 0.0053725777 -2.9814557e-21)
(-0.0021720114 0.0067050411 1.4443403e-20)
(-0.0026525487 0.0081751546 -1.5521189e-20)
(-0.0031839048 0.0097951234 -3.268586e-21)
(-0.0037707635 0.011577435 -1.2974794e-20)
(-0.0044179753 0.013534619 3.4365222e-20)
(-0.0051304891 0.015678933 4.1678971e-22)
(-0.0059132625 0.018021942 -3.0645269e-20)
(-0.0067711454 0.020573985 3.2743756e-20)
(-0.0077087325 0.023343503 -2.330974e-20)
(-0.0087301825 0.026336198 -8.5865865e-21)
(-0.0098389987 0.029554009 1.780213e-20)
(-0.01103777 0.032993873 -1.5920952e-20)
(-0.012327872 0.036646261 -2.0985628e-20)
(-0.013709127 0.040493474 4.4048271e-22)
(-0.015179431 0.044507718 3.2298219e-20)
(-0.016734361 0.048648989 -1.9700453e-20)
(-0.018366766 0.052862857 1.0820431e-20)
(-0.020066378 0.057078299 5.1478185e-20)
(-0.021819476 0.061205845 1.6951619e-20)
(-0.023608659 0.065136464 -4.5278055e-20)
(-0.025412844 0.068741891 4.455931e-21)
(-0.027207688 0.071877577 -4.9539643e-20)
(-0.028966789 0.074390169 2.887104e-20)
(-0.030664247 0.076132334 -1.5045969e-20)
(-0.032279043 0.076987868 2.1491225e-20)
(-0.033801199 0.076906696 5.1711118e-21)
(-0.035235825 0.075938221 -2.5406024e-20)
(-0.036602234 0.074241004 2.561171e-20)
(-0.037925619 0.072044791 3.6764462e-20)
(-0.039223131 0.069581602 -3.3819329e-21)
(-0.040495745 0.067034708 -3.7595746e-20)
(-0.041727122 0.06452568 4.7067768e-20)
(-0.042886281 0.062131382 -9.9583891e-21)
(-0.043930997 0.059906975 2.1168035e-20)
(-0.044809745 0.057904036 -3.3052659e-21)
(-0.045462287 0.056181583 3.316677e-20)
(-0.045818916 0.054811373 1.6054402e-20)
(-0.045795002 0.053873331 2.0538096e-20)
(-0.045283758 0.053443094 -8.4531105e-20)
(-0.044148583 0.053586869 -2.8410571e-20)
(-0.042188738 0.054343277 3.851203e-20)
(-0.039111158 0.055694482 -3.2264777e-20)
(-0.034414926 0.057525354 -2.7794561e-20)
(-0.027339455 0.05955647 3.2090526e-20)
(-0.016488369 0.061189984 1.7214787e-20)
(0.00010018669 0.061531133 4.1549894e-20)
(0.025970914 0.058195483 2.1275138e-20)
(0.068136775 0.046673814 -7.3974116e-20)
(0.14064526 0.016942998 -4.3819964e-20)