/*--------------------------------*- C++ -*----------------------------------*\
  =========                 |
  \\      /  F ield         | OpenFOAM: The Open Source CFD Toolbox
   \\    /   O peration     | Website:  https://openfoam.org
    \\  /    A nd           | Version:  13
     \\/     M anipulation  |
\*---------------------------------------------------------------------------*/
FoamFile
{
    format      ascii;
    class       volVectorField;
    location    "43.499296";
    object      UMean;
}
// * * * * * * * * * * * * * * * * * * * * * * * * * * * * * * * * * * * * * //

dimensions      [0 1 -1 0 0 0 0];

internalField   nonuniform List<vector> 
17140
(
(-1.611316e-06 6.6000489e-05 -8.0859037e-23)
(-2.1146394e-05 0.00020301041 -5.9263511e-24)
(-6.36318e-05 0.00035260431 3.9195196e-22)
(-0.00013788866 0.00051544243 -4.3119706e-22)
(-0.0002519971 0.00069220919 5.0452061e-23)
(-0.00041692396 0.00088346138 -1.6522558e-22)
(-0.00064613348 0.0010895916 -2.7846446e-22)
(-0.00095583273 0.0013107675 1.3632033e-22)
(-0.0013654628 0.0015468617 4.467285e-22)
(-0.001898161 0.0017973689 1.0980645e-21)
(-0.002581212 0.0020613132 -1.6335575e-21)
(-0.0034464568 0.0023371495 1.461022e-21)
(-0.0045306263 0.0026226635 2.242526e-22)
(-0.0058755348 0.0029148796 -1.2779553e-21)
(-0.0075280659 0.0032099918 1.4270175e-22)
(-0.0095398718 0.0035033317 -1.1400429e-21)
(-0.011966711 0.0037893994 4.3158158e-23)
(-0.014867366 0.0040619802 -9.3137447e-24)
(-0.018302114 0.0043143688 -6.947049e-22)
(-0.022330836 0.0045397151 9.1327224e-22)
(-0.027010883 0.0047314851 -4.4443166e-22)
(-0.032394986 0.004884003 8.6880531e-23)
(-0.038529937 0.0049930041 6.4287768e-22)
(-0.045457425 0.0050561255 -6.4691602e-22)
(-0.053212263 0.005073324 -1.0410164e-21)
(-0.061821985 0.005046933 8.4812707e-22)
(-0.071312781 0.004980774 4.1915423e-21)
(-0.081718939 0.0048799721 4.9294815e-22)
(-0.093071662 0.0047514142 -4.4079335e-21)
(-0.10539167 0.0046006304 -1.0323833e-21)
(-0.11869965 0.0044306602 -3.7208048e-21)
(-0.1330096 0.0042429706 4.9510798e-21)
(-0.14832809 0.004038088 -1.2933306e-21)
(-0.16465354 0.0038156752 -6.2674687e-22)
(-0.18197381 0.0035744143 -6.1563405e-21)
(-0.20026138 0.0033121775 2.7313788e-21)
(-0.21946659 0.0030262854 -4.1053171e-21)
(-0.23950892 0.0027137115 -2.7762487e-21)
(-0.26026711 0.0023713592 -1.2645442e-21)
(-0.28156917 0.0019967662 3.8376949e-21)
(-0.30318374 0.0015883962 7.1771391e-21)
(-0.32481142 0.0011454543 6.4503163e-21)
(-0.34607649 0.00066664872 2.7876925e-21)
(-0.36652805 0.00014829188 -1.3271988e-20)
(-0.38563405 -0.0004144402 -9.5249825e-21)
(-0.40281289 -0.0010231089 2.3009347e-21)
(-0.41751908 -0.0016840747 -1.5325735e-20)
(-0.42910546 -0.0024011465 -5.1042502e-21)
(-0.43694931 -0.0031706442 5.1130443e-21)
(-0.44058596 -0.0039814681 1.2339195e-20)
(-0.43963281 -0.0048197946 -7.5287514e-21)
(-0.43375718 -0.0056808224 -4.7345892e-21)
(-0.42265066 -0.0065833811 1.2321634e-20)
(-0.40606867 -0.0075113708 5.8488361e-21)
(-0.38360494 -0.0083822756 4.2159323e-21)
(-0.35508471 -0.0090751496 -3.3242795e-21)
(-0.31985193 -0.0093603816 9.2426715e-21)
(-0.27764441 -0.0088888508 7.8550374e-21)
(-0.226952 -0.0072200676 2.0211075e-21)
(-0.16808208 -0.0040331422 -5.2681704e-21)
(-0.09730891 0.00068784529 -4.2471169e-21)
(-0.01713387 0.0052790236 -1.6096729e-20)
(0.078276838 0.0063277696 -2.4276124e-21)
(0.17100566 0.0028379124 2.0730056e-20)
(0.27729811 -0.0031855622 -1.6449757e-20)
(-1.6593053e-05 0.00038706925 2.2912441e-23)
(-6.693458e-05 0.001190874 -2.0506345e-21)
(-0.0001426758 0.0020687698 1.8255547e-21)
(-0.00025264171 0.0030249752 -4.9816854e-22)
(-0.00040493124 0.0040634286 -1.0295566e-21)
(-0.00061045149 0.0051873786 1.9689086e-21)
(-0.00088253204 0.0063991245 -2.0553503e-21)
(-0.0012371686 0.007699677 1.8116526e-22)
(-0.0016934834 0.0090883376 -5.6661749e-22)
(-0.002274169 0.010562215 -9.4202696e-24)
(-0.0030059263 0.012115694 -1.9017411e-21)
(-0.0039198552 0.013739864 3.0338775e-21)
(-0.0050517775 0.015421944 2.515986e-22)
(-0.0064424254 0.017144761 -2.4965783e-21)
(-0.0081374352 0.018886354 7.7212285e-22)
(-0.01018707 0.020619836 4.9362605e-22)
(-0.012645596 0.022313618 -3.1523535e-21)
(-0.015570265 0.023932194 1.0362983e-20)
(-0.019019869 0.025437612 -6.5507446e-21)
(-0.023052944 0.026791745 7.9226079e-21)
(-0.027725751 0.027959359 -1.183137e-20)
(-0.033090281 0.028911757 2.9333153e-21)
(-0.039192956 0.029630528 1.2238581e-21)
(-0.046075395 0.030110656 -4.0302252e-21)
(-0.053773161 0.030362176 1.4668334e-20)
(-0.062314297 0.030408419 2.1938173e-21)
(-0.071725101 0.030277693 -1.157903e-20)
(-0.082040558 0.029997553 1.3080217e-20)
(-0.093292007 0.029591343 -1.8436715e-21)
(-0.10549985 0.029078381 -1.7931538e-20)
(-0.11868422 0.028472709 1.8947189e-21)
(-0.13285854 0.027785059 1.4459406e-20)
(-0.14802842 0.027024399 3.381032e-22)
(-0.16419094 0.026197124 -1.0947772e-20)
(-0.18133215 0.025305171 1.2316438e-20)
(-0.1994222 0.024344858 -5.5600916e-21)
(-0.21840844 0.023306918 6.6260373e-21)
(-0.23820673 0.022177348 2.0998365e-20)
(-0.25869147 0.020938774 4.6674792e-21)
(-0.27968547 0.019572686 1.8234589e-20)
(-0.30095092 0.018061227 -2.3317898e-20)
(-0.32218024 0.016387871 -2.1173425e-20)
(-0.34298667 0.014536913 -3.527033e-21)
(-0.36290178 0.012494858 2.8376535e-20)
(-0.38137188 0.010258356 -1.3073896e-20)
(-0.39780274 0.0078435333 -4.434616e-21)
(-0.41157847 0.0052632147 2.3909232e-21)
(-0.42207294 0.0025261908 7.2293081e-21)
(-0.42868487 -0.00031111654 -3.4890266e-21)
(-0.43090251 -0.0031847571 6.2157166e-21)
(-0.42832781 -0.0060576464 3.7175092e-20)
(-0.42065527 -0.0089124817 1.7774431e-21)
(-0.40759484 -0.011750016 -8.0023809e-21)
(-0.38891709 -0.014567523 1.7884025e-20)
(-0.36427768 -0.017316272 -1.5423047e-20)
(-0.33346974 -0.019907142 4.4394231e-20)
(-0.29583563 -0.022169201 1.2848362e-20)
(-0.25115625 -0.023829323 -3.7112368e-20)
(-0.19796414 -0.024467157 6.3742357e-21)
(-0.13655675 -0.023911535 7.5084109e-21)
(-0.063377598 -0.022079518 1.5518999e-21)
(0.01900161 -0.020657904 -2.0960911e-20)
(0.11720423 -0.021273878 4.2101481e-20)
(0.21230754 -0.025550833 1.2771313e-20)
(0.32077615 -0.031372046 2.1877566e-20)
(-4.9168426e-05 0.00070189675 1.2616007e-21)
(-0.00016635068 0.0021598098 -6.1613362e-22)
(-0.00031421912 0.0037524756 -1.6390076e-22)
(-0.00050149427 0.005487745 1.5559236e-22)
(-0.00073631015 0.0073729079 -7.5420764e-22)
(-0.0010294027 0.0094140587 -5.5932428e-23)
(-0.0013937657 0.011615611 -7.1796643e-22)
(-0.0018448856 0.013979667 -7.7461581e-22)
(-0.002401114 0.016505281 6.3488017e-21)
(-0.0030841066 0.019187594 -5.6830133e-21)
(-0.0039192192 0.022016865 2.7283515e-21)
(-0.0049358543 0.024977422 4.0114225e-21)
(-0.0061677593 0.028046599 -7.9933054e-21)
(-0.0076532156 0.031193759 -9.9359774e-22)
(-0.0094350472 0.034379548 3.8664526e-21)
(-0.011560396 0.037555564 2.6769011e-21)
(-0.014080191 0.040664721 -3.1311164e-21)
(-0.017048271 0.043642576 1.1439801e-20)
(-0.020520127 0.046419942 -6.8375855e-21)
(-0.024551319 0.048926981 3.4149631e-21)
(-0.029195698 0.051098801 -1.1665513e-20)
(-0.034503617 0.052882205 -3.0710411e-21)
(-0.040520679 0.054242751 6.4923133e-21)
(-0.047288315 0.0551707 -9.8813896e-21)
(-0.054843609 0.055684179 -3.9184448e-21)
(-0.063215457 0.055826325 4.808218e-21)
(-0.072430849 0.055650611 2.7477968e-20)
(-0.082525623 0.055207617 1.2509658e-20)
(-0.093530896 0.054537121 -6.3856569e-21)
(-0.10546706 0.053672848 6.7843441e-21)
(-0.11835257 0.052640468 -4.3896122e-21)
(-0.13219949 0.051460163 -2.4705559e-20)
(-0.14701118 0.050149365 8.3544872e-21)
(-0.16278156 0.048721218 2.5090111e-20)
(-0.17949232 0.047181078 -8.5598122e-21)
(-0.19710795 0.045523807 -1.1953676e-20)
(-0.21556869 0.043733448 2.0791776e-20)
(-0.2347814 0.041784878 6.3067469e-21)
(-0.25460959 0.039646272 -1.1377643e-20)
(-0.27486313 0.037282566 -4.5868842e-21)
(-0.29528814 0.034658665 2.1794677e-20)
(-0.31555645 0.031740713 -6.253709e-21)
(-0.33525514 0.028496362 -8.9106767e-21)
(-0.35388143 0.024900586 -2.3378379e-20)
(-0.37084644 0.020951154 4.4101057e-20)
(-0.38552422 0.016682159 -2.8117871e-20)
(-0.39726091 0.012139399 -6.9037488e-21)
(-0.40541036 0.0073611929 -2.7373634e-20)
(-0.40938579 0.0024417032 -3.2536418e-20)
(-0.4087155 -0.0024976691 -1.6323357e-21)
(-0.40304803 -0.0073706314 6.8388448e-21)
(-0.39213244 -0.012150108 -5.0820164e-20)
(-0.37571817 -0.016853105 -2.1793739e-20)
(-0.35360175 -0.021493317 -2.261192e-20)
(-0.3254544 -0.026045588 -7.4800035e-21)
(-0.291086 -0.030463264 -5.9199585e-20)
(-0.24982626 -0.034627356 2.3795542e-20)
(-0.20148599 -0.038329555 -7.472544e-21)
(-0.14443518 -0.041186986 -6.2466535e-20)
(-0.079068405 -0.043160736 -2.5367342e-20)
(-0.0017591492 -0.044050427 3.1122204e-20)
(0.084606601 -0.045636228 1.0970774e-19)
(0.18629456 -0.047640448 -3.6184684e-20)
(0.28363953 -0.052404156 -5.9145726e-20)
(0.39294925 -0.0572857 -2.5977075e-20)
(-9.8357361e-05 0.00099991398 -4.1986658e-21)
(-0.00031645479 0.0030775749 4.4006676e-21)
(-0.00057323242 0.0053481571 -1.5920654e-21)
(-0.00087721809 0.0078232088 1.7325635e-22)
(-0.0012366044 0.010513476 -3.4263899e-21)
(-0.0016618751 0.013428087 3.5500296e-21)
(-0.0021655231 0.016573881 -5.3913836e-21)
(-0.0027622288 0.019954531 2.5427556e-21)
(-0.0034692031 0.0235695 9.6843557e-21)
(-0.004306526 0.027412787 -2.336551e-21)
(-0.0052975106 0.031471538 -8.9241054e-21)
(-0.0064689727 0.035724543 2.7371112e-21)
(-0.0078515071 0.040140688 1.849809e-22)
(-0.0094796561 0.044677478 -7.2382738e-21)
(-0.011391941 0.049279869 2.2814056e-20)
(-0.013630711 0.053879647 -1.4126531e-20)
(-0.016241747 0.058395759 -1.3564601e-22)
(-0.019273589 0.062736 7.9761772e-21)
(-0.022776555 0.066800518 -2.0503856e-20)
(-0.026801494 0.070487499 9.8123663e-21)
(-0.031398361 0.073701107 1.4844877e-20)
(-0.036614774 0.076361275 6.0901068e-21)
(-0.04249487 0.078414201 -3.0669584e-20)
(-0.049079627 0.07984151 -1.6261565e-20)
(-0.056407929 0.080665453 1.0730026e-20)
(-0.064510244 0.080946249 -6.3119552e-21)
(-0.073415176 0.080763214 2.412241e-20)
(-0.083158801 0.080190418 -7.0116927e-21)
(-0.093772116 0.079284614 1.9189403e-20)
(-0.10527615 0.078094715 -1.1020105e-20)
(-0.11768646 0.07665877 6.8534921e-21)
(-0.1310131 0.075006662 -2.5588359e-20)
(-0.14525602 0.073164239 3.7480742e-21)
(-0.16040447 0.071151332 -1.9807005e-20)
(-0.17643366 0.068976665 1.9221914e-20)
(-0.1932996 0.066633767 6.0960843e-21)
(-0.21093174 0.064100137 -7.8134134e-20)
(-0.22922376 0.061339293 -2.0414287e-20)
(-0.24802318 0.05830464 1.7083144e-20)
(-0.26712085 0.054944125 -1.6815729e-20)
(-0.28624006 0.051204304 4.2557251e-21)
(-0.30502467 0.047032408 2.700261e-20)
(-0.32302795 0.042378516 -1.2767332e-21)
(-0.33970693 0.037207141 -8.8201454e-21)
(-0.35444359 0.031522563 4.3760027e-21)
(-0.36660292 0.025380754 -1.9042354e-21)
(-0.37550846 0.018855561 -5.918773e-21)
(-0.38052469 0.012034333 9.2631112e-20)
(-0.38111511 0.005075202 -1.0224238e-20)
(-0.37688206 -0.0018507784 9.430414e-21)
(-0.36753888 -0.0086233647 -8.8359105e-20)
(-0.35288459 -0.015208964 4.8570114e-20)
(-0.33269503 -0.021639904 3.9952599e-20)
(-0.30677941 -0.027956257 3.8489157e-20)
(-0.27481541 -0.034164815 3.7516167e-20)
(-0.23662615 -0.040271931 5.9845339e-20)
(-0.19150363 -0.046210548 -1.2137761e-19)
(-0.13914797 -0.051884302 7.614776e-20)
(-0.077766108 -0.056891806 1.1845043e-19)
(-0.0078256742 -0.06133586 -8.8647557e-20)
(0.074697706 -0.064811558 -2.9191088e-20)
(0.16562483 -0.06909629 -2.6420349e-20)
(0.27042365 -0.072061491 1.3658941e-19)
(0.3689655 -0.076754927 1.0218712e-19)
(0.4766768 -0.079938547 -4.6816203e-21)
(-0.0001620025 0.0012705502 2.9318316e-21)
(-0.00051071846 0.0039118528 -6.3839646e-21)
(-0.00090851177 0.0067999901 5.208023e-21)
(-0.0013636679 0.0099502437 -1.9697657e-21)
(-0.0018844903 0.013376927 -7.1220732e-22)
(-0.0024811525 0.017092479 6.1373043e-21)
(-0.0031655272 0.021106604 -1.5579851e-21)
(-0.00395129 0.025425191 -3.3135715e-21)
(-0.0048542008 0.030048974 -2.5520912e-22)
(-0.0058923551 0.034971984 -2.1726287e-21)
(-0.0070864382 0.04017977 3.0536082e-21)
(-0.008459956 0.045647439 -2.1332542e-21)
(-0.010039436 0.051337607 -7.9027919e-21)
(-0.011854568 0.057198409 -2.2988742e-22)
(-0.013938256 0.063161807 6.13739e-21)
(-0.016326536 0.069142545 4.3884649e-21)
(-0.019058351 0.075038215 -3.8165711e-21)
(-0.022175114 0.080731003 3.7486477e-22)
(-0.025720086 0.086091741 7.652314e-21)
(-0.029737552 0.090986783 9.4589695e-21)
(-0.034271882 0.095287967 -1.0977662e-20)
(-0.039366554 0.098885263 -1.1240151e-20)
(-0.04506329 0.1017008 1.5398732e-20)
(-0.051402124 0.10370171 -1.9376203e-20)
(-0.058423244 0.10490822 -3.4087533e-20)
(-0.066160128 0.10539288 8.1738477e-20)
(-0.074643667 0.1052608 -4.566835e-20)
(-0.083908612 0.1046096 6.8432466e-20)
(-0.09398733 0.10351496 -8.6579371e-20)
(-0.10490215 0.10204162 9.7641695e-20)
(-0.11666463 0.10024088 -1.0197112e-19)
(-0.12928226 0.098152805 1.7413577e-20)
(-0.14275072 0.095811665 6.0345586e-20)
(-0.15705341 0.093243881 -3.435285e-20)
(-0.17215763 0.090461599 1.0854657e-20)
(-0.18800897 0.087457117 3.2506971e-21)
(-0.20452363 0.08420145 3.9448705e-20)
(-0.22157916 0.080646775 1.280613e-20)
(-0.23900426 0.076731567 1.2815238e-20)
(-0.2565679 0.072386223 1.2890126e-20)
(-0.27396754 0.067537961 -6.563145e-20)
(-0.29081712 0.062113828 2.8701631e-20)
(-0.30663627 0.056046406 4.350205e-21)
(-0.32084988 0.049294347 -5.1718969e-20)
(-0.33283359 0.041877605 -2.579038e-20)
(-0.34195852 0.033881724 1.2687888e-20)
(-0.34757452 0.025407383 4.4962309e-20)
(-0.34909418 0.016601491 -1.956323e-20)
(-0.34604117 0.0076822556 5.5872778e-20)
(-0.33806136 -0.0011251204 3.0123864e-20)
(-0.32490826 -0.009672662 4.1562073e-20)
(-0.30640654 -0.017934088 1.1086287e-19)
(-0.28232631 -0.025967828 -8.6237278e-20)
(-0.25246752 -0.033839794 2.7899176e-20)
(-0.21649516 -0.041582004 -4.929789e-20)
(-0.17421985 -0.049253442 -4.7379088e-20)
(-0.12485274 -0.056869782 -1.8675678e-20)
(-0.067992642 -0.0644505 -1.7616289e-19)
(-0.0015645949 -0.071537556 -4.8700998e-20)
(0.073860501 -0.078434658 1.1394523e-19)
(0.16259103 -0.084214461 4.4111877e-20)
(0.25838489 -0.090624961 -3.432239e-20)
(0.36554904 -0.093924681 -7.2870751e-20)
(0.46414693 -0.097821807 -1.1453719e-19)
(0.56769196 -0.098356968 9.2143743e-21)
(-0.00023674929 0.001503623 8.8425708e-21)
(-0.00073897957 0.0046314707 2.0353346e-21)
(-0.0013025972 0.0080540582 -1.6504112e-21)
(-0.0019356539 0.01179039 -6.0969036e-21)
(-0.0026466212 0.015858431 3.3437417e-21)
(-0.0034453595 0.020274203 -4.819979e-21)
(-0.0043430685 0.025050772 2.0893058e-21)
(-0.005352322 0.030197005 4.9862651e-22)
(-0.0064872511 0.03571602 -2.8307917e-21)
(-0.0077636908 0.041603361 -6.1217747e-21)
(-0.0091993346 0.047844886 -3.0695131e-22)
(-0.010813868 0.0544144 1.0162694e-20)
(-0.012629092 0.061271121 -1.4147721e-20)
(-0.014669006 0.068357135 2.302993e-20)
(-0.016959861 0.075595101 -6.0759839e-21)
(-0.019530138 0.0828866 1.3046807e-20)
(-0.022410472 0.090111678 -1.5986641e-20)
(-0.025633488 0.097130264 1.0535952e-20)
(-0.029233554 0.10378628 -1.6957934e-21)
(-0.033246467 0.10991518 -6.9986085e-21)
(-0.037709094 0.11535539 1.7338709e-20)
(-0.042659007 0.11996351 -2.4989993e-20)
(-0.048134134 0.12363178 2.775246e-20)
(-0.054172736 0.12630519 4.8343105e-21)
(-0.060814692 0.12799357 -4.8775706e-20)
(-0.068098802 0.12877381 5.0258639e-20)
(-0.076057645 0.12877204 -3.3322458e-20)
(-0.084723237 0.12811367 3.7962391e-20)
(-0.094132803 0.12689715 3.5568769e-21)
(-0.1043091 0.12520121 2.224829e-21)
(-0.11525973 0.12309147 -1.5781663e-20)
(-0.1269889 0.12061955 9.8860267e-22)
(-0.13948763 0.11782838 -6.0708935e-20)
(-0.15273289 0.11475102 1.6709176e-20)
(-0.16668321 0.11140319 5.0114223e-20)
(-0.18127263 0.10777611 -2.3645848e-20)
(-0.19640287 0.10383459 1.9640863e-20)
(-0.21193439 0.099519896 -1.9704176e-20)
(-0.22767616 0.094755662 -1.103065e-19)
(-0.24337474 0.089454423 6.1086897e-20)
(-0.25870238 0.083523375 1.4866732e-20)
(-0.27324581 0.07686936 -8.3957926e-20)
(-0.28649833 0.069409868 5.0726899e-21)
(-0.29787143 0.061104981 1.0282208e-20)
(-0.306766 0.051999592 1.0808669e-19)
(-0.31257893 0.042211342 2.4707236e-20)
(-0.31472683 0.031869583 -3.8229207e-20)
(-0.31267834 0.0211761 -3.8595436e-20)
(-0.30598019 0.010399074 -5.4145228e-20)
(-0.29426855 -0.00018600737 -6.6087218e-20)
(-0.27730345 -0.010398766 -4.0074893e-20)
(-0.25491878 -0.020221248 -6.2676667e-20)
(-0.22687076 -0.029740344 2.1610784e-20)
(-0.19293987 -0.039048153 -1.3353866e-19)
(-0.15274927 -0.048200326 -8.9462983e-21)
(-0.106069 -0.057322962 -7.9185853e-21)
(-0.051933137 -0.066507522 -4.2390813e-21)
(0.010236889 -0.075925614 1.8921672e-19)
(0.082719112 -0.085011056 7.5929287e-20)
(0.16480645 -0.094240708 -1.1968444e-19)
(0.26011919 -0.10195244 -1.7735393e-19)
(0.36085405 -0.10961057 -8.1614336e-20)
(0.46915848 -0.11252823 -2.743941e-20)
(0.56600112 -0.11474302 1.6296525e-19)
(0.66254316 -0.11174597 -4.2122409e-20)
(-0.00031808917 0.0016900026 -1.6508989e-21)
(-0.00098777027 0.0052083321 -3.4012627e-21)
(-0.0017322145 0.0090616467 8.216246e-21)
(-0.0025595658 0.013272531 -3.0635446e-22)
(-0.003478434 0.017862645 -4.0103716e-21)
(-0.0044984284 0.022851826 -1.770208e-21)
(-0.0056301115 0.028256998 -1.3096707e-21)
(-0.0068849657 0.034090814 2.587762e-21)
(-0.008275466 0.040359972 -1.3438147e-20)
(-0.0098151151 0.047063196 1.0182772e-20)
(-0.011518478 0.054188852 -4.9383932e-22)
(-0.013401203 0.06171224 -6.227835e-21)
(-0.015480033 0.069592608 2.3470146e-20)
(-0.017772812 0.077770049 -2.3594999e-20)
(-0.020298493 0.086162527 3.1796431e-21)
(-0.023077148 0.09466346 1.9888813e-20)
(-0.026130002 0.10314044 -1.8970489e-20)
(-0.02947951 0.11143589 6.7461928e-21)
(-0.033149493 0.11937065 -1.3329284e-20)
(-0.037165342 0.12675146 1.7447079e-20)
(-0.041554326 0.1333832 3.3448748e-20)
(-0.046345957 0.13908589 -3.385116e-20)
(-0.051572349 0.14371552 -5.064149e-20)
(-0.057268491 0.14718562 9.9802593e-20)
(-0.063472824 0.1494846 -8.1642662e-20)
(-0.070227714 0.15068211 4.8240712e-20)
(-0.077569431 0.1509159 -1.2674786e-20)
(-0.085530095 0.15034543 3.0312814e-20)
(-0.094147881 0.14909593 -3.1561847e-20)
(-0.10344769 0.14725832 -4.2896048e-20)
(-0.11343611 0.14491376 2.8935145e-20)
(-0.12411179 0.14212747 4.8195916e-20)
(-0.13546152 0.13895183 -4.3477188e-21)
(-0.14745556 0.13542686 -1.8384697e-21)
(-0.16004327 0.13157205 -3.19787e-20)
(-0.17314694 0.12737813 1.3936982e-20)
(-0.18665388 0.12280441 5.1378445e-20)
(-0.20040755 0.1177818 2.5848786e-20)
(-0.21419785 0.11221937 -3.9812888e-20)
(-0.22775034 0.10601188 3.1615588e-20)
(-0.24071496 0.099046648 -2.6646626e-20)
(-0.25265751 0.091211711 9.0692171e-21)
(-0.26305741 0.082415023 3.3686482e-20)
(-0.27133779 0.07262848 -7.9889072e-20)
(-0.27695052 0.061927939 -4.7126188e-20)
(-0.27935042 0.05045895 -3.0197218e-20)
(-0.27802688 0.038377612 9.3469109e-20)
(-0.27247535 0.025912122 5.9867247e-20)
(-0.26219478 0.01336751 6.9450039e-20)
(-0.24677844 0.0010824514 1.2006157e-19)
(-0.22599593 -0.010711333 -4.117217e-20)
(-0.19968616 -0.022001195 8.6346911e-21)
(-0.16758387 -0.032909975 6.9110354e-20)
(-0.12943663 -0.043559587 2.0446481e-19)
(-0.08480624 -0.054029768 1.3657727e-19)
(-0.033349011 -0.06452825 5.4696294e-20)
(0.026226504 -0.075224351 1.6288147e-19)
(0.094667639 -0.086417644 -1.1271062e-19)
(0.17425543 -0.097386441 1.1876095e-20)
(0.2639952 -0.10859833 1.9280177e-19)
(0.36591106 -0.11767702 1.3493919e-19)
(0.47119939 -0.12559322 6.4230676e-21)
(0.57884235 -0.12719826 -2.2920721e-19)
(0.67113611 -0.12694118 2.4515092e-20)
(0.75745915 -0.1196795 -3.6286921e-20)
(-0.00040069471 0.0018221428 -6.4373854e-21)
(-0.0012407273 0.0056191341 2.795917e-21)
(-0.0021692483 0.0097821493 -3.7801436e-21)
(-0.0031946851 0.014337114 -2.1506946e-21)
(-0.0043258324 0.019309312 6.0105255e-21)
(-0.0055721531 0.024722538 5.6202857e-21)
(-0.0069436853 0.030597974 -5.7802032e-21)
(-0.0084509465 0.036952818 6.9683658e-22)
(-0.01010489 0.043798528 1.6197072e-22)
(-0.011916825 0.051138703 1.1563456e-20)
(-0.013898319 0.058966535 -1.2765069e-21)
(-0.01606109 0.067261834 -2.3582968e-20)
(-0.018416884 0.075987669 1.8996406e-20)
(-0.020977368 0.085086736 -6.6174217e-22)
(-0.023754043 0.094477683 -1.2986844e-20)
(-0.026758231 0.10405178 -1.1331414e-21)
(-0.03000115 0.11367057 2.9234267e-21)
(-0.03349416 0.1231653 1.339865e-20)
(-0.037249209 0.13233932 -2.500405e-20)
(-0.04127954 0.14097472 4.4864963e-20)
(-0.045600666 0.14884426 -9.902224e-21)
(-0.050231549 0.15572943 7.4262338e-21)
(-0.055195861 0.16144378 -6.2772669e-21)
(-0.060523004 0.16585905 2.4761602e-22)
(-0.066248596 0.16892871 -3.8788694e-20)
(-0.072414507 0.17070089 -3.9487933e-20)
(-0.079064647 0.17131164 7.9666254e-20)
(-0.086233514 0.17094751 1.3466524e-20)
(-0.093952997 0.16977391 -4.7780857e-20)
(-0.10225502 0.16789979 -1.7228905e-20)
(-0.11114862 0.16541566 -3.9309149e-20)
(-0.12062565 0.1624031 4.5042284e-20)
(-0.13066828 0.15892648 1.9902342e-20)
(-0.14123992 0.15503312 -4.68183e-20)
(-0.15228133 0.15074707 1.9915769e-20)
(-0.16370358 0.1460597 9.3063062e-21)
(-0.17538014 0.14092581 -2.8330653e-20)
(-0.18713841 0.13526686 -7.4269694e-20)
(-0.1987506 0.12897817 -2.2549068e-20)
(-0.20992332 0.12193726 1.5160885e-20)
(-0.22028824 0.11401285 3.5914293e-20)
(-0.22939779 0.10507773 3.6899321e-20)
(-0.23673121 0.095037719 4.0542052e-20)
(-0.24174842 0.083887219 8.4321972e-20)
(-0.2439631 0.07174001 -2.2846854e-21)
(-0.24290629 0.058757108 3.4875462e-20)
(-0.23811001 0.04510088 -1.8565266e-19)
(-0.22903598 0.030992683 -5.0820063e-20)
(-0.21510109 0.016772277 -5.7454927e-20)
(-0.19591065 0.0028673994 -1.5792056e-19)
(-0.17127274 -0.010424997 1.8365932e-19)
(-0.14101456 -0.023104124 -4.09913e-20)
(-0.10482143 -0.035326236 -1.3240117e-19)
(-0.062365094 -0.047244706 -1.6442948e-19)
(-0.013084118 -0.058968587 -2.1287631e-20)
(0.043622437 -0.070818886 5.4126115e-20)
(0.10940262 -0.083006447 8.9038925e-20)
(0.1850364 -0.09590689 -3.8329696e-20)
(0.27274084 -0.10856506 7.0939324e-20)
(0.37102102 -0.12121964 -6.0727446e-20)
(0.47957772 -0.13088401 -2.1086833e-20)
(0.58803515 -0.13788389 -6.4039951e-20)
(0.69211476 -0.13712175 2.8590875e-19)
(0.77598009 -0.13369712 9.7266053e-21)
(0.84822357 -0.12188302 1.1880417e-19)
(-0.00047861719 0.0018946796 5.969442e-21)
(-0.001479586 0.0058471998 1.0221498e-21)
(-0.0025822486 0.010186276 -1.1242902e-21)
(-0.0037953889 0.014940811 -5.5315042e-21)
(-0.0051280814 0.020139484 6.6426617e-21)
(-0.0065897776 0.025810014 -5.6500675e-21)
(-0.0081901701 0.031978081 -2.7053312e-21)
(-0.0099390396 0.038665999 1.4557618e-22)
(-0.011846102 0.045891 2.2971911e-21)
(-0.013920815 0.053663111 1.311193e-20)
(-0.016172148 0.061982556 -2.2117181e-20)
(-0.018608333 0.070836639 2.672309e-20)
(-0.021236592 0.08019613 -7.9019338e-21)
(-0.024062878 0.090011183 -1.0810104e-20)
(-0.027091654 0.100207 1.674255e-20)
(-0.030325766 0.11067954 -3.3383454e-20)
(-0.033766476 0.12129187 4.1002798e-20)
(-0.037413757 0.13187204 6.5188821e-22)
(-0.041266925 0.14221361 2.4285016e-20)
(-0.045325731 0.15208044 -9.83099e-20)
(-0.049591933 0.16121729 2.4319562e-20)
(-0.054071331 0.16936741 1.0283466e-19)
(-0.058776023 0.17629738 -4.976733e-20)
(-0.063726525 0.18182706 -6.072184e-20)
(-0.068953043 0.18585987 1.563485e-20)
(-0.074495151 0.1884046 8.3407427e-20)
(-0.080398959 0.18957763 -1.2899369e-19)
(-0.086708246 0.18957381 1.4561582e-19)
(-0.093452231 0.1886024 -1.1656116e-19)
(-0.10065823 0.18681735 2.2665121e-20)
(-0.10834401 0.18431592 -3.9314518e-20)
(-0.1164997 0.18118599 -5.6642617e-20)
(-0.12510179 0.17750805 2.2754295e-20)
(-0.13410746 0.17334169 6.0174451e-21)
(-0.1434487 0.16871697 8.5729841e-20)
(-0.15302587 0.1636269 -1.6943775e-20)
(-0.1626995 0.15802305 4.3499256e-20)
(-0.17228202 0.15181861 -3.6927492e-20)
(-0.18152899 0.14489623 2.2198437e-20)
(-0.1901298 0.13711751 1.4361445e-20)
(-0.19770121 0.12833529 1.2260683e-20)
(-0.20378869 0.11841248 1.2176147e-20)
(-0.20788314 0.10726198 -7.3715567e-20)
(-0.20949773 0.09491126 -5.7365145e-20)
(-0.20819847 0.081511842 1.6076309e-20)
(-0.2035777 0.067223578 -9.983876e-21)
(-0.19516124 0.052184517 4.1538997e-20)
(-0.18233911 0.036589251 -8.1080059e-20)
(-0.16453364 0.020828657 -9.32849e-20)
(-0.14145884 0.0054295233 -2.6832191e-20)
(-0.11296152 -0.0092623531 -7.0588328e-20)
(-0.078802418 -0.023254571 2.2722233e-21)
(-0.038548131 -0.036741129 3.4395782e-20)
(0.008272411 -0.049907167 1.6790414e-19)
(0.062476775 -0.062897614 -8.4875159e-20)
(0.1250203 -0.076137252 3.46733e-20)
(0.19781996 -0.089811835 -1.0388855e-19)
(0.28183128 -0.10428145 1.780239e-19)
(0.37922748 -0.11827308 -1.0433414e-19)
(0.48714331 -0.13149543 3.6965787e-20)
(0.601709 -0.14053829 -5.1820769e-23)
(0.71014659 -0.14536595 3.0452244e-20)
(0.80577168 -0.14138389 1.1643586e-19)
(0.87609818 -0.13459193 -2.2267462e-19)
(0.92969913 -0.11882733 2.325579e-19)
(-0.00054569028 0.0019050338 -1.3172243e-20)
(-0.0016854701 0.0058842797 -5.7522314e-21)
(-0.0029386019 0.01025918 9.0395449e-21)
(-0.0043142724 0.015061082 -2.382217e-22)
(-0.0058219201 0.020321633 -8.1961869e-21)
(-0.0074711303 0.02607222 -4.2937508e-21)
(-0.0092714663 0.032342989 9.0733618e-21)
(-0.011232274 0.03916165 -1.4938031e-21)
(-0.013362433 0.046551886 2.1147078e-20)
(-0.015670059 0.05453135 -4.1410856e-21)
(-0.018162154 0.063109145 -1.0626041e-22)
(-0.020844217 0.07228272 1.5420418e-20)
(-0.023719812 0.082034149 -4.9837152e-20)
(-0.026790133 0.092325766 2.3457985e-20)
(-0.030053598 0.10309528 4.2535704e-20)
(-0.033505537 0.1142506 -4.5974842e-20)
(-0.037138072 0.12566482 5.7461365e-21)
(-0.040940296 0.13717222 -3.3294194e-20)
(-0.044898933 0.14856645 -2.5255833e-20)
(-0.048999585 0.15960257 8.1291429e-20)
(-0.053228762 0.17000486 -6.2561574e-20)
(-0.057576631 0.17948242 8.4486071e-20)
(-0.062040368 0.18775359 -1.0203394e-20)
(-0.066627565 0.1945784 4.2707486e-20)
(-0.071358878 0.19979504 -9.5232658e-20)
(-0.076268661 0.2033519 2.3080857e-20)
(-0.081402052 0.20532242 5.9489063e-20)
(-0.086807115 0.20588818 -1.4668604e-19)
(-0.09252382 0.20528335 6.4962838e-20)
(-0.098572971 0.20371807 7.0918385e-20)
(-0.10496653 0.20133144 -5.9527841e-20)
(-0.11170584 0.1982212 -7.9788396e-21)
(-0.11876268 0.19446905 4.0995532e-20)
(-0.12608694 0.19014429 -2.2988487e-20)
(-0.13360481 0.18528889 3.563643e-20)
(-0.14120721 0.17990111 -1.2673968e-19)
(-0.14874173 0.17393176 6.7129644e-20)
(-0.15600571 0.16728777 4.0673635e-20)
(-0.16273794 0.15984055 8.3826066e-20)
(-0.16861139 0.15143792 1.09778e-20)
(-0.17323 0.14192064 -9.0389198e-20)
(-0.17613667 0.13114868 3.6316173e-20)
(-0.17684176 0.11905226 5.3380185e-20)
(-0.17490758 0.10569386 8.3978869e-21)
(-0.16993537 0.091254177 -5.071201e-20)
(-0.1615405 0.075883439 -4.408514e-20)
(-0.14920903 0.059672593 1.3250747e-19)
(-0.13232122 0.042801087 6.9412026e-20)
(-0.11045647 0.02571578 1.4931317e-19)
(-0.083472979 0.0090171553 5.2106913e-20)
(-0.051188077 -0.0069275299 2.013422e-20)
(-0.013221555 -0.02215954 1.4932174e-19)
(0.031063713 -0.036892438 5.9158453e-20)
(0.082403956 -0.051332746 -1.9995151e-19)
(0.14200272 -0.065643322 1.6209219e-19)
(0.21119151 -0.080299719 -1.5088687e-19)
(0.29239061 -0.095404445 7.3399235e-20)
(0.38713568 -0.11113602 -3.6027325e-19)
(0.4964979 -0.12574353 -1.8322131e-19)
(0.6145258 -0.13834052 7.5591331e-20)
(0.73238627 -0.14527272 1.2027343e-19)
(0.83452524 -0.14675362 2.0376618e-19)
(0.91434929 -0.13941522 3.6676335e-20)
(0.96445715 -0.12985587 2.8724228e-20)
(0.9938964 -0.11177322 -3.1078294e-19)
(-0.00059608784 0.0018539139 -2.3622588e-22)
(-0.0018404921 0.005732127 1.0599467e-20)
(-0.0032073253 0.010003213 -1.2508208e-20)
(-0.0047061793 0.014700252 -6.0271304e-21)
(-0.0063469026 0.019857209 1.2089964e-20)
(-0.0081393396 0.025508602 3.9235506e-21)
(-0.010093141 0.031688672 -1.9073349e-20)
(-0.012217547 0.03843039 2.0585258e-20)
(-0.014521059 0.045764084 4.3582819e-21)
(-0.017011068 0.05371567 1.7413723e-20)
(-0.019693401 0.062304346 -4.6486612e-20)
(-0.022571805 0.071539679 -5.7167568e-22)
(-0.025647371 0.081417964 4.2352986e-20)
(-0.028917909 0.091917802 -4.5892385e-20)
(-0.032377325 0.10299489 3.3224178e-20)
(-0.036015069 0.11457614 1.2482533e-20)
(-0.039815743 0.12655344 -2.6479786e-20)
(-0.043759019 0.13877778 2.4320174e-20)
(-0.047820073 0.1510547 3.3008317e-20)
(-0.05197077 0.16314289 -7.1727153e-22)
(-0.056181787 0.17475803 -5.4412782e-20)
(-0.06042586 0.18558441 3.4443806e-20)
(-0.064682033 0.1952965 -1.9655729e-20)
(-0.068940487 0.20359133 -9.7411504e-20)
(-0.073206967 0.21022933 -3.3269713e-20)
(-0.077505314 0.21507638 9.2503002e-20)
(-0.08187603 0.21813438 -9.4235044e-21)
(-0.086368808 0.21954255 1.0862355e-19)
(-0.091029674 0.21953482 -6.558484e-20)
(-0.095888125 0.21836342 3.5185113e-20)
(-0.10095608 0.21623163 -5.1932181e-20)
(-0.10622329 0.21327177 -1.2834326e-20)
(-0.111661 0.20957733 6.5816136e-20)
(-0.11722379 0.2052264 -6.9052682e-20)
(-0.12283092 0.2002682 -1.0247088e-19)
(-0.12836394 0.19470574 1.0771648e-20)
(-0.1336585 0.18849068 1.1418909e-19)
(-0.13849678 0.1815257 -1.4790409e-19)
(-0.14260039 0.1736747 3.2361889e-20)
(-0.14562585 0.16477512 -6.9471279e-20)
(-0.14716628 0.15466011 1.0704335e-20)
(-0.14676478 0.14319263 -1.0899994e-19)
(-0.1439565 0.1303235 -5.2198745e-20)
(-0.13832961 0.11615525 -6.4145009e-20)
(-0.12950769 0.10088748 2.5671208e-19)
(-0.11710041 0.084652304 8.2775245e-20)
(-0.10056991 0.067504532 -1.0953088e-19)
(-0.079427466 0.04962284 8.8289091e-20)
(-0.053484209 0.031500464 7.3262186e-20)
(-0.022668316 0.013747389 -8.2318073e-20)
(0.013316941 -0.0033069026 -4.2972958e-20)
(0.055066348 -0.019726913 -1.0089321e-19)
(0.10354101 -0.035713218 -4.9182898e-20)
(0.15988841 -0.051476024 1.6874457e-19)
(0.22577526 -0.067153525 9.5691734e-20)
(0.3033466 -0.083212278 1.5479026e-20)
(0.39600106 -0.099565454 -6.320159e-22)
(0.50512972 -0.11593833 8.8982285e-20)
(0.62813197 -0.13002293 -1.3138405e-19)
(0.75356401 -0.14028511 -1.7254686e-19)
(0.86689691 -0.14370991 -4.8920914e-20)
(0.95212187 -0.14153996 -3.7715191e-19)
(1.0062395 -0.13173025 -3.0431307e-19)
(1.0287944 -0.12104048 -7.8220047e-20)
(1.0326299 -0.10351823 -4.2242042e-20)
(-0.00062495974 0.0017457088 7.9563876e-21)
(-0.0019296997 0.0054037469 4.4163645e-21)