/*--------------------------------*- C++ -*----------------------------------*\
  =========                 |
  \\      /  F ield         | OpenFOAM: The Open Source CFD Toolbox
   \\    /   O peration     | Website:  https://openfoam.org
    \\  /    A nd           | Version:  13
     \\/     M anipulation  |
\*---------------------------------------------------------------------------*/
FoamFile
{
    format      ascii;
    class       volScalarField;
    location    "15.297382";
    object      nut;
}
// * * * * * * * * * * * * * * * * * * * * * * * * * * * * * * * * * * * * * //

dimensions      [0 2 -1 0 0 0 0];

internalField   nonuniform List<scalar> 
17140
(
1.4793861e-17
2.8772126e-15
7.6636024e-14
7.7695518e-13
4.6991381e-12
2.0822328e-11
7.5202954e-11
2.3538549e-10
6.6335817e-10
1.7262431e-09
4.2211959e-09
9.822238e-09
2.1952067e-08
4.7457666e-08
9.97902e-08
2.0497424e-07
4.1270701e-07
8.1682407e-07
1.5927544e-06
3.0656028e-06
5.8330719e-06
1.0985549e-05
2.0494491e-05
3.7876098e-05
6.9238123e-05
0.00012459634
0.00021835359
0.00036538659
0.00054299019
0.00059880214
0.00063966901
0.00066859912
0.00069185734
0.00071146317
0.00072992654
0.00075067408
0.00077536251
0.00080521783
0.00084173688
0.00088681427
0.00094266292
0.0010122477
0.0010992784
0.001214778
0.0013993542
0.0017424584
0.002003544
0.001942921
0.0018866463
0.0018201848
0.0017556158
0.0016858319
0.0016240457
0.0015631766
0.0015082101
0.0014580086
0.0014240777
0.001394913
0.0013780917
0.0013681715
0.0013414692
0.0013171311
0.001130911
0.00094345907
0.00079415374
1.4692615e-17
2.8575194e-15
7.6111564e-14
7.7164025e-13
4.6670126e-12
2.0680077e-11
7.4689594e-11
2.3378003e-10
6.5883769e-10
1.7144901e-09
4.1924818e-09
9.7554794e-09
2.1802975e-08
4.7135521e-08
9.9112989e-08
2.03583e-07
4.0990384e-07
8.1126832e-07
1.5818968e-06
3.044639e-06
5.7930224e-06
1.0909782e-05
2.035259e-05
3.7613692e-05
6.8762605e-05
0.00012376667
0.00021701046
0.00036350964
0.00054632859
0.00060283276
0.00064470349
0.00067483869
0.00069885491
0.0007197814
0.00073977511
0.00076243888
0.00078963196
0.00082261629
0.00086320002
0.0009136457
0.00097650503
0.0010550189
0.0011533839
0.0012838501
0.0014927176
0.0018333197
0.0021573038
0.0021234215
0.0020893486
0.0020464828
0.0020008172
0.001949187
0.0018996319
0.0018473959
0.0017991946
0.0017559253
0.0017171764
0.0016817964
0.0016622901
0.001652129
0.0016568489
0.0015964886
0.0014063351
0.0011392531
0.00092606834
1.4390294e-17
2.7987213e-15
7.4545435e-14
7.5576229e-13
4.570978e-12
2.0254518e-11
7.3152498e-11
2.2896826e-10
6.4527436e-10
1.6791828e-09
4.1061013e-09
9.5543345e-09
2.1352956e-08
4.6161201e-08
9.706012e-08
1.9935484e-07
4.0136027e-07
7.9428162e-07
1.5485842e-06
2.9800753e-06
5.6691734e-06
1.067444e-05
1.9909667e-05
3.6790004e-05
6.7259356e-05
0.00012111707
0.00021264764
0.00035720684
0.0005547388
0.00061313034
0.00065761465
0.00069089775
0.00071689083
0.00074095335
0.00076465282
0.00079197163
0.00082557286
0.00086652978
0.00091757468
0.00098207143
0.0010631425
0.0011648015
0.0012920169
0.0014614415
0.0017361799
0.0020345278
0.0024061442
0.0025843013
0.0026266208
0.0026651979
0.0026872973
0.0026949948
0.0026924634
0.0026810289
0.0026625046
0.0026391525
0.0026049034
0.0025424494
0.0024785438
0.0023552176
0.002179033
0.0019152222
0.0015626354
0.001215969
0.00095955921
1.3882289e-17
2.6999208e-15
7.1913817e-14
7.2908186e-13
4.4096062e-12
1.9539425e-11
7.0569572e-11
2.2088242e-10
6.2248151e-10
1.6198477e-09
3.9609301e-09
9.2162722e-09
2.0596565e-08
4.4523439e-08
9.3609081e-08
1.9224619e-07
3.8699434e-07
7.6571405e-07
1.492549e-06
2.8714447e-06
5.4607196e-06
1.027812e-05
1.9163139e-05
3.5399573e-05
6.4714231e-05
0.00011660392
0.00020512173
0.00034602995
0.00054518526
0.00063019536
0.00067946652
0.00071758341
0.00074797731
0.00077628356
0.00080630531
0.00084150592
0.00088511815
0.00093976264
0.0010089966
0.001097075
0.0012083806
0.0013475173
0.00151989
0.0017488117
0.0020348173
0.0023545605
0.0027480081
0.0032114311
0.003464509
0.0036420248
0.0038101308
0.0039652139
0.0041029483
0.0041867722
0.0042208636
0.004226023
0.0041624049
0.0039452758
0.0036982641
0.0032838273
0.0027237039
0.0020735681
0.0016113324
0.0011538083
0.00084160657
1.3177422e-17
2.5628335e-15
6.826242e-14
6.9206266e-13
4.1857032e-12
1.8547239e-11
6.6985819e-11
2.0966365e-10
5.9085795e-10
1.5375265e-09
3.7595278e-09
8.7472894e-09
1.9547328e-08
4.2251829e-08
8.8823061e-08
1.823894e-07
3.6707916e-07
7.2612243e-07
1.4149162e-06
2.7210021e-06
5.1721507e-06
9.7296966e-06
1.8130337e-05
3.3475508e-05
6.1187551e-05
0.00011032634
0.00019456153
0.0003300666
0.00052523721
0.00065528895
0.00071093691
0.00075556676
0.00079285759
0.00082786559
0.00086616958
0.00091230585
0.00097025639
0.0010439488
0.0011381058
0.0012581213
0.0014092896
0.0015959841
0.0018233269
0.0021086661
0.0024208874
0.0027777967
0.0031919928
0.0036734864
0.0042354581
0.0047597035
0.0051059404
0.0054333115
0.0057335682
0.0059900714
0.0061381562
0.0062027841
0.0061701752
0.0058201795
0.0052992602
0.0044711302
0.0033180135
0.0021770059
0.0014776085
0.00098051144
0.00067917929
1.2297845e-17
2.3917674e-15
6.3705989e-14
6.4586794e-13
3.9063048e-12
1.7309149e-11
6.251395e-11
1.9566506e-10
5.514002e-10
1.4348175e-09
3.5082672e-09
8.1622745e-09
1.8238705e-08
3.9419252e-08
8.285685e-08
1.7010657e-07
3.42274e-07
6.7683857e-07
1.3183478e-06
2.534025e-06
4.8138561e-06
9.0494835e-06
1.6850653e-05
3.1093098e-05
5.6819113e-05
0.00010252843
0.00018134123
0.00030974909
0.0004990803
0.00069066492
0.00075376087
0.00080633516
0.0008526209
0.00089690188
0.00094631781
0.0010066408
0.0010830886
0.0011809597
0.0013062471
0.0014652927
0.001663453
0.0019037407
0.0021905339
0.002519383
0.0028780551
0.0032708172
0.0037067928
0.0042074493
0.0048013859
0.0055038463
0.0063492517
0.0068957612
0.0073709012
0.0077796779
0.0080601712
0.0082213212
0.0082861143
0.0078847299
0.0070856012
0.0057517277
0.0037427346
0.0021403992
0.0012927734
0.00080562636
0.0005537365
1.1273813e-17
2.1926072e-15
5.8401264e-14
5.9208682e-13
3.5810228e-12
1.5867748e-11
5.7307831e-11
1.7936843e-10
5.0546685e-10
1.3152599e-09
3.215815e-09
7.4814401e-09
1.6716018e-08
3.612414e-08
7.5918706e-08
1.5582899e-07
3.1345637e-07
6.1962204e-07
1.2063297e-06
2.3173465e-06
4.3991044e-06
8.2629973e-06
1.5372561e-05
2.8342683e-05
5.1771266e-05
9.3480254e-05
0.00016583421
0.00028535134
0.00046617783
0.00070428425
0.00081074007
0.00087268983
0.00092992313
0.00098634311
0.0010497598
0.0011275862
0.0012265497
0.0013533973
0.0015152321
0.001718581
0.0019675605
0.0022625073
0.0026041775
0.0029773158
0.0033783392
0.0038025927
0.0042606852
0.0047826449
0.0053975412
0.0061285471
0.0070051066
0.0080495732
0.0088349446
0.009366498
0.009764645
0.010018141
0.010159863
0.009739875
0.0086704623
0.0066010485
0.0039461282
0.0019255265
0.0010489779
0.00062306382
0.00044944169
1.0138864e-17
1.971875e-15
5.2521955e-14
5.3248045e-13
3.2205094e-12
1.4270241e-11
5.1537949e-11
1.6130746e-10
4.545624e-10
1.1827705e-09
2.8917576e-09
6.7271219e-09
1.5029281e-08
3.2474918e-08
6.8237503e-08
1.4002921e-07
2.8158428e-07
5.5638522e-07
1.0826297e-06
2.0783073e-06
3.9420496e-06
7.3972492e-06
1.374699e-05
2.5318629e-05
4.6213574e-05
8.3467901e-05
0.0001484573
0.00025726352
0.00042624153
0.00065837387
0.00088585224
0.00096081385
0.0010290179
0.0011005078
0.0011809593
0.0012797804
0.0014052451
0.0015654694
0.0017681154
0.0020183889
0.002317418
0.0026620166
0.0030476979
0.0034613525
0.0038971442
0.0043475989
0.0048244277
0.0053633128
0.0059918578
0.006737083
0.0076250363
0.008696851
0.0099728563
0.010662385
0.011133228
0.01143469
0.011555861
0.011064588
0.0096322662
0.0069345248
0.0035591522
0.0015105414
0.00078008923
0.00048806137
0.0004004308
8.9313764e-18
1.7370342e-15
4.6266835e-14
4.6906408e-13
2.836954e-12
1.257064e-11
4.5399404e-11
1.4209292e-10
4.0040862e-10
1.0418323e-09
2.5470658e-09
5.924877e-09
1.3235714e-08
2.8595594e-08
6.0074906e-08
1.232473e-07
2.4775206e-07
4.8931216e-07
9.5155209e-07
1.8253009e-06
3.4589171e-06
6.4833666e-06
1.2033229e-05
2.2132942e-05
4.0354984e-05
7.2871752e-05
0.00012986685
0.00022648737
0.00038041956
0.00060122678
0.00087348215
0.0010769491
0.0011621322
0.0012488247
0.001348327
0.001470571
0.001625946
0.001822842
0.0020686247
0.0023657826
0.0027107067
0.003096446
0.0035151389
0.0039562347
0.0044139163
0.0048800553
0.0053660546
0.0059109439
0.0065440488
0.0072902849
0.0081771625
0.0092341462
0.010484298
0.011598999
0.012063353
0.012347209
0.012347701
0.011685252
0.0099135017
0.0064199879
0.0027287937
0.0010741341
0.00058339689
0.00040642552
0.00038474026
7.6932934e-18
1.4962434e-15
3.9853238e-14
4.0404111e-13
2.4436827e-12
1.0827999e-11
3.910549e-11
1.223925e-10
3.4488755e-10
8.9734438e-10
2.193725e-09
5.1026159e-09
1.1397763e-08
2.462139e-08
5.1715905e-08
1.0607052e-07
2.1314741e-07
4.2076748e-07
8.1774368e-07
1.5673614e-06
2.967113e-06
5.5546382e-06
1.0294541e-05
1.8905133e-05
3.4419653e-05
6.2106919e-05
0.00011080843
0.00019425645
0.00033034215
0.00053382111
0.0008004512
0.0010966906
0.0013387814
0.0014465136
0.0015678161
0.0017185064
0.0019058323
0.0021407288
0.0024291985
0.0027694717
0.0031533568
0.0035702571
0.0040089067
0.0044597516
0.004918609
0.0053775968
0.0058542635
0.0063854176
0.0070046615
0.0077309569
0.0085923636
0.0096165743
0.010810306
0.012119453
0.01251899
0.012696172
0.012506902
0.011591499
0.0092715022
0.0049783573
0.0017227889
0.00074116599
0.00045250498
0.00036683703
0.00039985721
6.4673587e-18
1.2578151e-15
3.3502553e-14
3.3965583e-13
2.054269e-12
9.1024635e-12
3.2873453e-11
1.0288622e-10
2.8991574e-10
7.5429446e-10
1.8439333e-09
4.2887261e-09
9.5788895e-09
2.068956e-08
4.3449303e-08
8.9092735e-08
1.7896798e-07
3.5312743e-07
6.8585466e-07
1.3134841e-06
2.4838717e-06
4.6438252e-06
8.5928196e-06
1.5751625e-05
2.8626068e-05
5.1583031e-05
9.2046375e-05
0.00016195516
0.00027825486
0.00045884819
0.00070977444
0.0010098589
0.0013155422
0.0015912859
0.0018301726
0.0020385247
0.0022584702
0.0025319163
0.0028265047
0.0031409209
0.0034939235
0.0038959684
0.0043535137
0.0048660695
0.0053783754
0.0058028773
0.0062433643
0.0067363718
0.0073181613
0.0080063195
0.0088238481
0.0097876944
0.010934741
0.012208932
0.012493948
0.012480577
0.012008707
0.010663457
0.0075105375
0.0030641663
0.0010270658
0.00052461287
0.00036865848
0.00035530242
0.00043331287
5.2941877e-18
1.0296486e-15
2.7425185e-14
2.7804153e-13
1.6816156e-12
7.4512044e-12
2.6909751e-11
8.4220232e-11
2.3731384e-10
6.1741928e-10
1.5092693e-09
3.5101369e-09
7.8392379e-09
1.6930011e-08
3.5547953e-08
7.2873636e-08
1.46339e-07
2.8861558e-07
5.6021477e-07
1.0719948e-06
2.0250359e-06
3.7808172e-06
6.9841001e-06
1.2777128e-05
2.3170175e-05
4.1670043e-05
7.4290863e-05
0.00013096174
0.00022672532
0.00038033703
0.00060569924
0.00089581239
0.0012155516
0.0015222052
0.0017960358
0.0020456388
0.0022916873
0.0025543088
0.0028437987
0.0031629496
0.0035209201
0.0039286888
0.0043906794
0.0049106064
0.005499631
0.0060936774
0.0064797394
0.0069281873
0.0074652958
0.0081071671
0.0088667364
0.0097554268
0.01087472
0.011887852
0.011968028
0.011724364
0.010826111
0.008878433
0.0048264529
0.0015726034
0.00060666924
0.00037059072
0.00032732988
0.00037938009
0.00048165918
4.2101446e-18
8.1881646e-16
2.1809544e-14
2.2110859e-13
1.3372768e-12
5.9254178e-12
2.1399262e-11
6.697309e-11
1.8871186e-10
4.9095875e-10
1.200094e-09
2.7909329e-09
6.2325584e-09
1.3458712e-08
2.8255036e-08
5.7910947e-08
1.1625808e-07
2.2919548e-07
4.4462813e-07
8.5016299e-07
1.6043343e-06
2.9912937e-06
5.5160843e-06
1.0069995e-05
1.821631e-05
3.2678679e-05
5.8149457e-05
0.00010251614
0.00017830983
0.00030306722
0.00049502396
0.00076030369
0.0010783597
0.0014073276
0.001713255
0.001988923
0.0022555071
0.0025283796
0.0028233173
0.0031472606
0.0035089889
0.0039184884
0.0043803723
0.0048995711
0.0054860896
0.0061311697
0.0065880417
0.0069765834
0.0074453057
0.0080128845
0.0086797575
0.0094995188
0.010592125
0.011104683
0.010999388
0.010413621
0.0089914531
0.0061418219
0.0022475495
0.00075045438
0.00037187462
0.00029428639
0.00032397043
0.00041422956
0.00051749181
3.2448897e-18
6.3108703e-16
1.6809263e-14
1.7041448e-13
1.0306723e-12
4.566841e-12
1.6492713e-11
5.1616479e-11
1.4543863e-10
3.7836866e-10
9.2484948e-10
2.1507277e-09
4.8025874e-09
1.036991e-08
2.1767841e-08
4.4607444e-08
8.9529709e-08
1.7644316e-07
3.4212915e-07
6.5374123e-07
1.2325251e-06
2.2951431e-06
4.2252223e-06
7.6967729e-06
1.3886602e-05
2.4838113e-05
4.4073908e-05
7.7577231e-05
0.00013516445
0.00023171215
0.00038608538
0.00061351726
0.00091047967
0.0012460602
0.0015786853
0.0018851039
0.0021680808
0.0024528063
0.0027499051
0.0030722267
0.0034297822
0.0038321206
0.0042836604
0.0047883562
0.0053540154
0.0059732257
0.00649895
0.0068088006
0.0071954519
0.0076767487
0.0082607326
0.0090667126
0.0099516564
0.0099500753
0.0096007798
0.0085132861
0.0064762154
0.0029299466
0.00096846069
0.00037265825
0.00026295925
0.0002705674
0.00035017503
0.00046118345
0.00056537752
2.4186336e-18
4.7039118e-16
1.2529044e-14
1.2702069e-13
7.6822199e-13
3.4039203e-12
1.2292825e-11
3.8471814e-11
1.0839941e-10
2.8200249e-10
6.8928165e-10
1.6028594e-09
3.5790266e-09
7.7274797e-09
1.621968e-08
3.3234152e-08
6.6692036e-08
1.3140423e-07
2.5470884e-07
4.86449e-07
9.1643318e-07
1.704685e-06
3.1334515e-06
5.6962173e-06
1.024983e-05
1.8274252e-05
3.2313212e-05
5.6703056e-05
9.8693699e-05
0.00016985611
0.00028681489
0.0004683998
0.00072524763
0.0010447931
0.0013904578
0.0017252297
0.0020336617
0.0023266432
0.0026290087
0.0029473705
0.003294312
0.00367938
0.0041081046
0.004582479
0.0051089796
0.0056847071
0.0062204766
0.006453494
0.0067536351
0.007153044
0.007711178
0.0084993708
0.0086938509
0.0084870303
0.0076994886
0.0061390514
0.0032643246
0.0011325446
0.00039691631
0.00022140629
0.00022100455
0.00029331407
0.00040059278
0.0004934871
0.00059073258
1.7404198e-18
3.3848778e-16
9.0157386e-15
9.1402202e-14
5.5279864e-13
2.4493827e-12
8.8455507e-12
2.7682827e-11
7.7998805e-11
2.0291108e-10
4.9595224e-10
1.1532603e-09
2.5750401e-09
5.5595817e-09
1.1668869e-08
2.3908277e-08
4.7973954e-08
9.4513003e-08
1.831666e-07
3.4970962e-07
6.5849894e-07
1.2239236e-06
2.2470104e-06
4.0775004e-06
7.3188978e-06
1.3006431e-05
2.2908633e-05
4.0033751e-05
6.9450573e-05
0.00011949372
0.00020309197
0.00033784988
0.00054151795
0.00081979122
0.0011536445
0.0015048633
0.0018420284
0.0021529597
0.0024550667
0.0027706995
0.0031053725
0.0034672249
0.0038631386
0.0042974808
0.004769908
0.0052839071
0.0057722662
0.0059426106
0.0061756969
0.0065448617
0.0071027088
0.0073927702
0.0072405124
0.0066456889
0.0054159625
0.0031746101
0.0011871023
0.00041110815
0.0001854725
0.00017945212
0.00024427953
0.00034818899
0.00044093671
0.00052747432
0.00062636453
1.2077021e-18
2.3488154e-16
6.2561454e-15
6.3425063e-14
3.8359153e-13
1.6996342e-12
6.1378934e-12
1.9208766e-11
5.4121586e-11
1.4079303e-10
3.4411831e-10
8.001811e-10
1.7866495e-09
3.8573989e-09
8.0962155e-09
1.6588493e-08
3.3286896e-08
6.5579582e-08
1.2709368e-07
2.4263871e-07
4.5680269e-07
8.4869638e-07
1.5569312e-06
2.821557e-06
5.054165e-06
8.955173e-06
1.5710833e-05
2.7324519e-05
4.7166846e-05
8.0848293e-05
0.00013744129
0.00023064898
0.00037827026
0.00059647326
0.00088719633
0.0012280969
0.0015814114
0.0019187384
0.0022322534
0.0025393941
0.0028596872
0.0031997286
0.0035582319
0.0039429611
0.0043510578
0.0047865514
0.0051932937
0.0053386606
0.0055594435
0.0059360332
0.0061360539
0.0059925808
0.0055037616
0.0045211514
0.0027594452
0.0010851294
0.00038722404
0.00016043627
0.00013668142
0.00018933576
0.00028606538
0.00038334111
0.00046740362
0.00055008405
0.0006547634
8.0800861e-19
1.5714661e-16
4.1856455e-15
4.2434119e-14
2.5663799e-13
1.1371138e-12
4.1064193e-12
1.2851031e-11
3.6207863e-11
9.4190542e-11
2.3021228e-10
5.3531044e-10
1.195247e-09
2.5805986e-09
5.416587e-09
1.1098963e-08
2.2274024e-08
4.388994e-08
8.5077017e-08
1.6246288e-07
3.0592893e-07
5.6844878e-07
1.0426475e-06
1.8883099e-06
3.3777969e-06
5.9709026e-06
1.0438304e-05
1.8067322e-05
3.1004784e-05
5.2819267e-05
8.9373696e-05
0.00014999669
0.00024846831
0.00040208753
0.00062559382
0.0009189782
0.0012597004
0.0016120513
0.0019460653
0.00225762
0.0025613069
0.0028703426
0.0031935708
0.0035265076
0.0038664427
0.0042110961
0.004542358
0.0047182392
0.004974937
0.0049786791
0.0048295823
0.0043995518
0.0035922001
0.0021890443
0.00087813363
0.0003418043
0.00014003556
0.00010116224
0.00014773396
0.00024490608
0.00034612477
0.00042380996
0.00050211933
0.00058452836
0.00068998368
5.2168306e-19
1.0146014e-16
2.7024158e-15
2.7397041e-14
1.6569406e-13
7.3415251e-13
2.6511911e-12
8.2967931e-12
2.3375953e-11
6.0809049e-11
1.486228e-10
3.4559077e-10
7.7164873e-10
1.6660878e-09
3.4973046e-09
7.1670684e-09
1.4385921e-08
2.8354374e-08
5.4982763e-08
1.0504481e-07
1.9792109e-07
3.679976e-07
6.7541122e-07
1.2237782e-06
2.1889415e-06
3.8651406e-06
6.7395725e-06
1.1615247e-05
1.9814247e-05
3.3508392e-05
5.6255967e-05
9.3814771e-05
0.00015519235
0.00025344695
0.00040467436
0.00062239736
0.00090696752
0.0012381596
0.0015833569
0.0019078894
0.0022092076
0.0024960136
0.002773234
0.0030464628
0.0033123522
0.0035630674
0.003784156
0.0039265537
0.003914846
0.0037739686
0.0033901387
0.0027235161
0.0016247838
0.0006485431
0.00026647077
0.00011711347
7.8162064e-05
0.00011932137
0.00020490543
0.00030662752
0.00037947583
0.00045274385
0.00053265678
0.00062075359
0.0007309412
3.2572133e-19
6.3348274e-17
1.6872948e-15
1.7105715e-14
1.0345275e-13
4.5837168e-13
1.6552666e-12
5.1800249e-12
1.4594369e-11
3.7964633e-11
9.2788346e-11
2.1576016e-10
4.817672e-10
1.0402454e-09
2.1837847e-09
4.4759242e-09
8.9862896e-09
1.771795e-08
3.4374228e-08
6.5715604e-08
1.2392396e-07
2.3065142e-07
4.2382363e-07
7.6884548e-07
1.3767048e-06
2.4327491e-06
4.2418893e-06
7.2984235e-06
1.2395857e-05
2.0807985e-05
3.4609545e-05
5.7127919e-05
9.3642161e-05
0.00015223594
0.00024439964
0.00038414563
0.00058359819
0.00084465629
0.0011514012
0.0014761777
0.0017808057
0.0020583618
0.0023062742
0.0025260998
0.0027160804
0.0028688885
0.0029719681
0.0029538436
0.0028272244
0.0025037655
0.0019686278
0.0011270834
0.00044207952
0.00019292223
9.0855219e-05
6.2211248e-05
9.6228459e-05
0.00017069957
0.00027143202
0.00029470792
0.00032662519
0.00039435893
0.00047932458
0.00063696565
0.00075092225
1.9738413e-19
3.8388478e-17
1.0224846e-15
1.0365875e-14
6.2690896e-14
2.7776455e-13
1.0030502e-12
3.1389292e-12
8.8436144e-12
2.3004837e-11
5.6225197e-11
1.3074068e-10
2.9193515e-10
6.3038697e-10
1.323497e-09
2.7131047e-09
5.4484931e-09
1.0746797e-08
2.0861458e-08
3.9913882e-08
7.5348073e-08
1.4043185e-07
2.5847408e-07
4.6978108e-07
8.4286881e-07
1.4921409e-06
2.6052754e-06
4.485217e-06
7.6145531e-06
1.2753507e-05
2.1075763e-05
3.4411399e-05
5.5659893e-05
8.9315703e-05
0.00014203636
0.00022298415
0.00034306831
0.00051189692
0.00073164306
0.00099226158
0.0012729591
0.0015358599
0.0017640466
0.0019472283
0.0020770459
0.0021357265
0.0021094096
0.0020011437
0.0017397285
0.0013210105
0.00070341305
0.00028128144
0.00013166024
6.7141854e-05
4.8950016e-05
7.8861824e-05
0.00014344342
0.00023993799
0.00021562905
0.00022874219
0.00026259522
0.0003184681
0.00040056524
0.00056355584
0.00074390497
1.1677395e-19
2.2710912e-17
6.0490896e-16
6.1325086e-15
3.7088097e-14
1.6432504e-13
5.9339725e-13
1.8569478e-12
5.2317025e-12
1.3609058e-11
3.3261162e-11
7.7342588e-11
1.7270425e-10
3.7294468e-10
7.8306799e-10
1.6055018e-09
3.2250036e-09
6.3635878e-09
1.2360028e-08
2.3667973e-08
4.4731508e-08
8.3499559e-08
1.539955e-07
2.8057884e-07
5.0482854e-07
8.9633733e-07
1.5691169e-06
2.7060209e-06
4.5965739e-06
7.6937857e-06
1.269884e-05
2.0676623e-05
3.3188931e-05
5.254213e-05
8.2153129e-05
0.00012701925
0.00019353661
0.00028877199
0.00041820928
0.0005821746
0.00077204309
0.00097094047
0.0011529851
0.0012905259
0.0013651653
0.0013513611
0.0012768042
0.0010978937
0.0007867614
0.00039627938
0.0001684427
8.5206611e-05
4.7885354e-05
3.8928503e-05
6.5584899e-05
0.00012244892
0.00020846736
0.00015620809
0.00016351842
0.00018876617
0.00022736661
0.00028801409
0.00036737913
0.00051342997
0.00069277988
6.8254725e-20
1.3274589e-17
3.5357054e-16
3.5844576e-15
2.1677951e-14
9.6047279e-14
3.4683583e-13
1.0853626e-12
3.057842e-12
7.9542206e-12
1.9440455e-11
4.5205444e-11
1.0094496e-10
2.1799495e-10
4.5776125e-10
9.3867233e-10
1.8859751e-09
3.7227763e-09
7.2347585e-09
1.3864912e-08
2.6234436e-08
4.9050121e-08
9.0657389e-08
1.6564089e-07
2.9906204e-07
5.331344e-07
9.3730965e-07
1.6232668e-06
2.7657783e-06
4.6327475e-06
7.6297645e-06
1.2372359e-05
1.9784272e-05
3.1215407e-05
4.8457952e-05
7.3835049e-05
0.00011030392
0.00016169247
0.00023124149
0.00032008972
0.00042486157
0.00053614946
0.00063851727
0.00071401587
0.0007388354
0.0007082781
0.00060940516
0.00040971807
0.00020293639
9.7229613e-05
5.304867e-05
3.3660607e-05
3.1605715e-05
5.615509e-05
0.00010686114
0.00014896231
0.00011524418
0.00012162677
0.00013918307
0.00016137251
0.00019239433
0.00023996363
0.00031282633
0.00045156041
0.000632791
4.0428618e-20
7.8628006e-18
2.0942679e-16
2.1231446e-15
1.2840264e-14
5.6890569e-14
2.0543711e-13
6.4288032e-13
1.8112229e-12
4.7114922e-12
1.1515301e-11
2.6777753e-11
5.9798719e-11
1.2914906e-10
2.7123214e-10
5.5628972e-10
1.118013e-09
2.2077843e-09
4.2930796e-09
8.2342135e-09
1.5598542e-08
2.9211878e-08
5.4111791e-08
9.9164658e-08
1.7974247e-07
3.2201757e-07
5.6959454e-07
9.9322793e-07
1.704321e-06
2.8717951e-06
4.7433214e-06
7.6740172e-06
1.2168943e-05
1.8952053e-05
2.9104384e-05
4.4021557e-05
6.5380322e-05
9.4446266e-05
0.00013236616
0.00017917538
0.00023310636
0.00028836861
0.00033915701
0.00036102413
0.000356949
0.00030166885
0.00018940828
9.7295978e-05
5.3509763e-05
3.2565537e-05
2.391798e-05
2.6549551e-05
4.9668441e-05
9.5731406e-05
0.00010829639
9.1865246e-05
9.8731486e-05
0.000110116
0.00012312049
0.00014179265
0.00017331685
0.00022617454
0.00029779311
0.00043217956
0.0006045119
2.5476834e-20
4.9548913e-18
1.3197447e-16
1.3379471e-15
8.0916284e-15
3.5851414e-14
1.2946459e-13
4.0514558e-13
1.1414721e-12
2.9694017e-12
7.2578647e-12
1.6878687e-11
3.769625e-11
8.1424299e-11
1.7103351e-10
3.5087297e-10
7.0542278e-10
1.3937197e-09
2.7119896e-09
5.2066324e-09
9.8759646e-09
1.8526882e-08
3.4397353e-08
6.3226246e-08
1.1505475e-07
2.0717242e-07
3.6876562e-07
6.4780778e-07
1.1205073e-06
1.9032548e-06
3.1658543e-06
5.1448847e-06
8.1568055e-06
1.260788e-05
1.9020692e-05
2.8086553e-05
4.0699387e-05
5.7869742e-05
8.0056644e-05
0.00010656705
0.0001347178
0.00016103343
0.00017405407
0.00016927466
0.00013288237
8.224406e-05
4.5743296e-05
2.8913851e-05
2.0112457e-05
1.7371808e-05
2.3377357e-05
4.5138826e-05
8.7749424e-05
8.6152503e-05
7.9748959e-05
8.5725418e-05
9.2384872e-05
9.957077e-05
0.00011164185
0.00013154648
0.00016139264
0.00020363945
0.00026894879
0.00039040139
0.00057488614
1.8041694e-20
3.5088629e-18
9.3459595e-17
9.4749446e-16
5.7303371e-15
2.5389885e-14
9.168973e-14
2.8694767e-13
8.0851408e-13
2.1034551e-12
5.1419708e-12
1.1960081e-11
2.6717227e-11
5.7726311e-11
1.2130065e-10
2.4896396e-10
5.0083278e-10
9.9024078e-10
1.9286983e-09
3.7073134e-09
7.0430795e-09
1.3239455e-08
2.4645699e-08
4.5455163e-08
8.3067393e-08
1.5035583e-07
2.6930999e-07
4.7655228e-07
8.3100885e-07
1.4232905e-06
2.3848613e-06
3.8938718e-06
6.1752579e-06
9.496421e-06
1.4164154e-05
2.0519996e-05
2.8887595e-05
3.955202e-05
5.2309282e-05
6.5848739e-05
7.7597107e-05
8.0677465e-05
7.334941e-05
5.3338049e-05
3.3553003e-05
2.1477706e-05
1.5507215e-05
1.2962993e-05
1.3212186e-05
2.09525e-05
4.2364007e-05
8.21442e-05
7.4994263e-05
7.3754075e-05
7.8961896e-05
8.2984529e-05
8.7877157e-05
9.6091811e-05
0.00010858433
0.00012639078
0.00015234735
0.00019748241
0.00026608265
0.00038759507
0.00056383387
1.4436311e-20
2.807668e-18
7.4783448e-17
7.581641e-16
4.5853763e-15
2.0317416e-14
7.3374952e-14
2.2964555e-13
6.4711698e-13
1.6837729e-12
4.1167494e-12
9.5776329e-12
2.1401571e-11
4.6259066e-11
9.7252926e-11
1.9973362e-10
4.0211919e-10
7.9586355e-10
1.552038e-09
2.9878905e-09
5.6871277e-09
1.0715618e-08
2.0004863e-08
3.7025945e-08
6.7954335e-08
1.2363881e-07
2.228109e-07
3.9700889e-07
6.9747427e-07
1.2031578e-06
2.0270203e-06
3.3152047e-06
5.2335397e-06
7.9411955e-06
1.1559382e-05
1.6136561e-05
2.1585447e-05
2.7510085e-05
3.2856259e-05
3.5938911e-05
3.4002257e-05
2.7912028e-05
1.986176e-05
1.3333464e-05
1.0283499e-05
8.9770027e-06
8.5629084e-06
1.0812575e-05
1.9525113e-05
4.0378221e-05
7.8416102e-05
7.2316555e-05
7.1748273e-05
7.6763618e-05
7.9217496e-05
8.3445968e-05
8.91735e-05
9.696339e-05
0.00010771943
0.00012502719
0.00015170783
0.00019253212
0.00025213956
0.00037165811
0.00055927656
1.2043937e-20
2.3423855e-18
6.2390686e-17
6.3252983e-16
3.8255872e-15
1.6951166e-14
6.1219689e-14
1.9161058e-13
5.399713e-13
1.4051051e-12
3.4358275e-12
7.9947486e-12
1.7868351e-11
3.8632744e-11
8.1248397e-11
1.6693866e-10
3.3627997e-10
6.6600678e-10
1.2998583e-09
2.5048232e-09
4.7730174e-09
9.0049066e-09
1.6836058e-08
3.1213422e-08
5.7395461e-08
1.0464574e-07
1.8899111e-07
3.3741217e-07
5.9345217e-07
1.0230073e-06
1.7160265e-06
2.776383e-06
4.2916853e-06
6.282891e-06
8.6456229e-06
1.1109903e-05
1.3322159e-05
1.4704345e-05
1.4550378e-05
1.2568445e-05
9.6375174e-06
7.322788e-06
5.8884084e-06
5.2531924e-06
5.4075965e-06
6.4457119e-06
9.2425608e-06
1.870063e-05
4.0185152e-05
7.6219831e-05
7.4994797e-05
7.3782169e-05
7.7398881e-05
7.9794693e-05
8.3185148e-05
8.7125352e-05
9.2059134e-05
9.9464056e-05
0.00011094372
0.00012752101
0.00015062797
0.00019076016
0.0002525797
0.00036731474
0.00055488291
9.3136103e-21
1.8113732e-18
4.8246862e-17
4.8913532e-16
2.9583036e-15
1.3108055e-14
4.7339227e-14
1.4816239e-13
4.1751716e-13
1.0864101e-12
2.6563963e-12
6.1806831e-12
1.3812672e-11
2.9860594e-11
6.2790048e-11
1.2898611e-10
2.5975572e-10
5.1425324e-10
1.003156e-09
1.931707e-09
3.6773589e-09
6.9286187e-09
1.293068e-08
2.3913814e-08
4.3825497e-08
7.9543716e-08
1.4278914e-07
2.5288174e-07
4.3995035e-07
7.4693421e-07
1.2263676e-06
1.9235719e-06
2.8414761e-06
3.893267e-06
4.8830152e-06
5.6055438e-06
5.769793e-06
5.2671285e-06
4.3998939e-06
3.6185526e-06
3.0428613e-06
2.8553072e-06
3.1656201e-06
3.6468088e-06
5.0492675e-06
8.6309731e-06
1.9231913e-05
3.9712442e-05
7.330772e-05
8.222297e-05
7.9680056e-05
8.1318159e-05
8.2538787e-05
8.4898806e-05
8.6888203e-05
9.024939e-05
9.5763723e-05
0.00010415074
0.00011473473
0.00013057049
0.00015458983
0.00019438379
0.00025400525
0.0003734195
0.00056430548
6.229292e-21
1.2115131e-18
3.2269125e-17
3.2714579e-16
1.9785338e-15
8.7663743e-15
3.1657356e-14
9.9072174e-14
2.7914753e-13
7.2624054e-13
1.775346e-12
4.129518e-12
9.2251529e-12
1.993314e-11
4.1887316e-11
8.5973039e-11
1.7294163e-10
3.4188571e-10
6.6566241e-10
1.2786939e-09
2.4265597e-09
4.5533904e-09
8.4535435e-09
1.5529501e-08
2.8217658e-08
5.0660042e-08
8.9685405e-08
1.5604252e-07
2.6542096e-07
4.3786918e-07
6.9238622e-07
1.033447e-06
1.4301003e-06
1.7999041e-06
2.0360007e-06
2.059484e-06
1.9088585e-06
1.7102732e-06
1.5618851e-06
1.5378103e-06
1.6553106e-06
2.072396e-06
2.857976e-06
4.5386425e-06
8.9681322e-06
1.9058657e-05
3.8457194e-05
7.0094111e-05
9.6681584e-05
8.9642071e-05
8.8854005e-05
8.7611806e-05
8.787487e-05
8.8505397e-05
9.0552164e-05
9.4869778e-05
0.00010089455
0.00010882188
0.00011990921
0.00013666769
0.00015912038
0.00019660579
0.00025412591
0.00037192676
0.00056558771
3.5470982e-21
6.8986172e-19
1.8374597e-17
1.8627862e-16
1.1265436e-15
4.9911039e-15
1.8022272e-14
5.6393299e-14
1.5886499e-13
4.1320433e-13
1.0097652e-12
2.3476979e-12
5.2415579e-12
1.1316892e-11
2.3757257e-11
4.8697494e-11
9.779238e-11
1.9289906e-10
3.7451425e-10
7.1678698e-10
1.3538481e-09
2.5251802e-09
4.6520402e-09
8.4622303e-09
1.5184653e-08
2.6830772e-08
4.6548768e-08
7.8939918e-08
1.299933e-07
2.0590663e-07
3.0971431e-07
4.3539607e-07
5.6249393e-07
6.5897326e-07
7.1045247e-07
7.4367885e-07
7.7215049e-07
8.057622e-07
8.9491871e-07
1.1523175e-06
1.6504987e-06
2.5824577e-06
4.4923439e-06
8.9465425e-06
1.8379103e-05
3.6855069e-05
6.6717647e-05
0.00010558346
0.0001062957
0.00010064091
9.578712e-05
9.3254639e-05
9.1885609e-05
9.255006e-05
9.5022747e-05
9.9141508e-05
0.00010503742
0.00011408567
0.000125722
0.00014207593
0.00016430637
0.00020392261
0.00026232535
0.0003834509
0.0005774497
1.7764109e-21
3.4548683e-19
9.2020224e-18
9.328636e-17
5.6413578e-16
2.4991977e-15
9.0233248e-15
2.8230474e-14
7.9511114e-14
2.0674829e-13
5.0505022e-13
1.1736583e-12
2.6186581e-12
5.6491023e-12
1.1846047e-11
2.4247627e-11
4.8604338e-11
9.5649013e-11
1.8514427e-10
3.5298575e-10
6.6343542e-10
1.2296983e-09
2.2474692e-09
4.0472782e-09
7.1709293e-09
1.2471078e-08
2.1213359e-08
3.5116658e-08
5.6187926e-08
8.6135321e-08
1.2525775e-07
1.7130579e-07
2.210427e-07
2.7358761e-07
3.2757273e-07
4.0040183e-07
5.0380052e-07
6.5393466e-07
9.5861761e-07
1.5119568e-06
2.4733662e-06
4.3543569e-06
8.4950918e-06
1.7341369e-05
3.5214391e-05
6.3194668e-05
9.8741922e-05
0.00013234732
0.00011889742
0.00010811561
0.00010182607
9.7607121e-05
9.6086757e-05
9.669629e-05
9.8960777e-05
0.00010354963
0.00011039111
0.00011963996
0.00013140658
0.00014913102
0.00017209738
0.00021054987
0.00026610976
0.00038840659
0.00058203481
8.8672941e-22
1.724561e-19
4.5933261e-18
4.6564391e-17
2.8158111e-16
1.2473694e-15
4.5032305e-15
1.408722e-14
3.9670538e-14
1.0313246e-13
2.5187025e-13
5.8511743e-13
1.3049763e-12
2.8137207e-12
5.8965505e-12
1.2060081e-11
2.4150821e-11
4.7469711e-11
9.1751043e-11
1.74618e-10
3.2749894e-10
6.0551372e-10
1.1034839e-09
1.980783e-09
3.4976701e-09
6.0637043e-09
1.0293041e-08
1.7050384e-08
2.7458121e-08
4.2841943e-08
6.4686237e-08
9.4811876e-08
1.3541765e-07
1.9011619e-07
2.6950156e-07
3.872604e-07
5.6290548e-07
8.855738e-07
1.4118959e-06
2.3236995e-06
4.1085979e-06
7.9457417e-06
1.6371383e-05
3.3383879e-05
5.9465768e-05
9.1702049e-05
0.00012601349
0.00014568116
0.00012613166
0.00011421207
0.00010599915
0.00010167357
9.994937e-05
0.00010046038
0.00010317428
0.00010807146
0.00011470178
0.0001247455
0.00013772209
0.00015588115
0.00017842426
0.00021779954
0.00027603422
0.00040341012
0.00059577641
6.044043e-22
1.1754802e-19
3.1308715e-18
3.1739048e-17