/*--------------------------------*- C++ -*----------------------------------*\
  =========                 |
  \\      /  F ield         | OpenFOAM: The Open Source CFD Toolbox
   \\    /   O peration     | Website:  https://openfoam.org
    \\  /    A nd           | Version:  13
     \\/     M anipulation  |
\*---------------------------------------------------------------------------*/
FoamFile
{
    format      ascii;
    class       volScalarField;
    location    "13.500238";
    object      nut;
}
// * * * * * * * * * * * * * * * * * * * * * * * * * * * * * * * * * * * * * //

dimensions      [0 2 -1 0 0 0 0];

internalField   nonuniform List<scalar> 
17140
(
8.2738485e-18
1.6091546e-15
4.286052e-14
4.3452608e-13
2.628015e-12
1.1644532e-11
4.2053674e-11
1.3161876e-10
3.7089212e-10
9.6506045e-10
2.3595623e-09
5.4895683e-09
1.2266495e-08
2.6512473e-08
5.5732262e-08
1.1443585e-07
2.3030812e-07
4.5556597e-07
8.877022e-07
1.7071075e-06
3.24483e-06
6.1035606e-06
1.1370319e-05
2.0977103e-05
3.8257587e-05
6.8590259e-05
0.00011935093
0.00019683105
0.00025255739
0.00027168547
0.00028360585
0.00029159234
0.00029539437
0.00029787864
0.00030065669
0.00030431658
0.00030908577
0.0003151977
0.0003229853
0.00033294148
0.00034570899
0.00036219933
0.0003840615
0.0004165029
0.00047586228
0.00059609593
0.00078326969
0.00076148478
0.00074888538
0.00073599531
0.00072638369
0.0007168976
0.00070805259
0.00070128606
0.00069672079
0.00069446297
0.00069695684
0.00070305439
0.00071104159
0.00071377194
0.00068199096
0.00060681985
0.00056885348
0.00049668863
0.00043739028
8.2035335e-18
1.595478e-15
4.2496284e-14
4.3083466e-13
2.605701e-12
1.1545721e-11
4.1697067e-11
1.3050348e-10
3.6775176e-10
9.5689546e-10
2.3396134e-09
5.4431859e-09
1.2162903e-08
2.6288631e-08
5.5261692e-08
1.1346915e-07
2.2836053e-07
4.5170668e-07
8.8016204e-07
1.6925529e-06
3.2170271e-06
6.0509387e-06
1.1271611e-05
2.0793916e-05
3.7923309e-05
6.7999671e-05
0.00011837305
0.00019540023
0.00025302533
0.00027234158
0.00028436385
0.00029245037
0.00029636354
0.00029890058
0.00030171924
0.00030544081
0.00031031374
0.00031659664
0.00032466849
0.00033505554
0.00034852489
0.00036616215
0.00038976858
0.00042459813
0.00048855578
0.00061764063
0.00080696445
0.00079542105
0.00079120008
0.00078791619
0.00078836315
0.0007889786
0.00079066297
0.0007927428
0.0007950495
0.0008014378
0.00080453493
0.00080492636
0.00080143582
0.00079322972
0.00072739732
0.00063604844
0.00058242072
0.00050353279
0.00043989616
8.0212279e-18
1.5600218e-15
4.1551884e-14
4.2126017e-13
2.547794e-12
1.1289135e-11
4.0770376e-11
1.2760288e-10
3.5957669e-10
9.3561779e-10
2.2875655e-09
5.322009e-09
1.1891846e-08
2.5701894e-08
5.4025722e-08
1.1092412e-07
2.2321938e-07
4.4148804e-07
8.6012932e-07
1.6537415e-06
3.1426018e-06
5.909539e-06
1.1005463e-05
2.0298707e-05
3.7018725e-05
6.640421e-05
0.00011574952
0.00019163247
0.00025566665
0.0002757659
0.00028827774
0.000296805
0.00030117615
0.00030404098
0.00030723827
0.00031149136
0.00031712109
0.00032448738
0.00033412084
0.0003465755
0.0003628406
0.00038467894
0.00041377419
0.00045694576
0.00053808022
0.00070236698
0.00089352783
0.00090413357
0.00092346132
0.00094824244
0.00097912019
0.0010118095
0.0010473069
0.0010813093
0.0011050624
0.0011169951
0.0011165996
0.0010910233
0.0010261146
0.00094886466
0.00079753466
0.00064375614
0.00052494801
0.00041870223
0.00034449724
7.7264068e-18
1.5026828e-15
4.002463e-14
4.0577649e-13
2.4541474e-12
1.087418e-11
3.9271679e-11
1.2291171e-10
3.463546e-10
9.0120257e-10
2.2033775e-09
5.1259938e-09
1.1453361e-08
2.4752672e-08
5.2026028e-08
1.0680616e-07
2.1490007e-07
4.2495104e-07
8.2770758e-07
1.5909244e-06
3.0221416e-06
5.6806919e-06
1.0574775e-05
1.9497464e-05
3.5555032e-05
6.3820683e-05
0.0001114918
0.00018549285
0.00026073645
0.0002822564
0.0002956859
0.00030505192
0.00031034622
0.00031400297
0.00031810379
0.00032359287
0.00033095361
0.00034069754
0.00035414589
0.0003715858
0.00039427608
0.00042569631
0.0004680208
0.00053337217
0.00065717146
0.0009034877
0.001084946
0.0011450342
0.0012226808
0.0013148719
0.0014189772
0.0015289802
0.0016383988
0.001719892
0.0017677086
0.0017919993
0.0017667536
0.0016268284
0.0013987148
0.001159908
0.00086452308
0.00065481782
0.00050184632
0.00038362205
0.00031909314
7.3247141e-18
1.4245589e-15
3.7943767e-14
3.8468027e-13
2.3265554e-12
1.030881e-11
3.7229726e-11
1.1652008e-10
3.2833988e-10
8.5431356e-10
2.0886791e-09
4.8589543e-09
1.0856039e-08
2.3459745e-08
4.930266e-08
1.0119904e-07
2.035751e-07
4.024465e-07
7.8360303e-07
1.5055109e-06
2.8584367e-06
5.3698682e-06
9.9901167e-06
1.8410036e-05
3.3567319e-05
6.030287e-05
0.00010565424
0.00017695275
0.00026848909
0.00029215609
0.00030712148
0.00031773502
0.00032451822
0.00032949514
0.00033513922
0.00034285037
0.00035373383
0.00036782197
0.00038665844
0.00041245618
0.00044733176
0.00049528095
0.00056138487
0.00066538178
0.00086058676
0.0012541476
0.001397031
0.0015455491
0.001714539
0.0019143926
0.0021311535
0.002358311
0.002577376
0.002753579
0.0028561642
0.002904537
0.0027844649
0.0024903458
0.0019748065
0.0014162038
0.00091949519
0.00061773331
0.0004330815
0.00032316922
0.00027679654
6.8247696e-18
1.3273265e-15
3.535394e-14
3.5842397e-13
2.1677538e-12
9.605144e-12
3.4688283e-11
1.0856495e-10
3.0591855e-10
7.9595577e-10
1.9459302e-09
4.5266243e-09
1.0112731e-08
2.1851009e-08
4.5914625e-08
9.422491e-08
1.894929e-07
3.7447198e-07
7.2879885e-07
1.3994189e-06
2.6551772e-06
4.984046e-06
9.2643374e-06
1.7058949e-05
3.1090944e-05
5.5890679e-05
9.822133e-05
0.00016572539
0.00026078443
0.00030560962
0.00032349148
0.0003356513
0.00034456277
0.00035146228
0.00035979031
0.00037105322
0.00038555075
0.00040572948
0.00043327918
0.00047127091
0.00052332642
0.0005947359
0.00069410191
0.00085179796
0.0011466559
0.001617546
0.0018022256
0.0020550763
0.0023359981
0.0026637731
0.0030169522
0.0033933699
0.0037506295
0.0040532916
0.004239549
0.0043383955
0.0041175381
0.0035641206
0.0026589872
0.0016036077
0.00091989005
0.00055559872
0.00037315097
0.00029091305
0.000275597
6.2414984e-18
1.2138882e-15
3.2332467e-14
3.277915e-13
1.9824845e-12
8.784198e-12
3.1723277e-11
9.9284131e-11
2.7976145e-10
7.2787745e-10
1.7794151e-09
4.1390044e-09
9.2458878e-09
1.9975304e-08
4.1965489e-08
8.6098891e-08
1.7309289e-07
3.4191318e-07
6.6506149e-07
1.2761425e-06
2.4192293e-06
4.5366432e-06
8.4235036e-06
1.5494355e-05
2.8220488e-05
5.0754775e-05
8.947368e-05
0.00015219952
0.00024329159
0.00032393708
0.00034572168
0.00036014393
0.00037159339
0.0003815351
0.00039305128
0.00040792418
0.00042824926
0.00045650565
0.00049551389
0.00054946776
0.00062360633
0.00072484625
0.00086568521
0.0010894292
0.0015115116
0.0019740414
0.0022582266
0.0026157888
0.0030123685
0.0034662641
0.0039554699
0.0044601043
0.0049345371
0.0053595631
0.0056328002
0.0057919569
0.0055009694
0.0046128833
0.0031100159
0.0017009055
0.00083739959
0.00046296625
0.00030816333
0.00026079119
0.00027962116
5.5958949e-18
1.088327e-15
2.8988095e-14
2.9388545e-13
1.7774167e-12
7.8755299e-12
2.844149e-11
8.9012002e-11
2.5081162e-10
6.5253543e-10
1.5951516e-09
3.7101318e-09
8.2869922e-09
1.7901019e-08
3.7599998e-08
7.7120894e-08
1.5498578e-07
3.0599624e-07
5.9482473e-07
1.1404678e-06
2.1599324e-06
4.0457606e-06
7.5024356e-06
1.3782512e-05
2.5079447e-05
4.5115209e-05
7.976493e-05
0.00013681368
0.00022240426
0.00033211704
0.00037455172
0.00039319802
0.00040779718
0.00042108839
0.00043618943
0.00045603434
0.00048346468
0.00052167828
0.00057467888
0.00064792719
0.00074821447
0.00088393469
0.0010712923
0.0013677714
0.0018949483
0.0023158777
0.0027165347
0.0031671931
0.0036670139
0.0042318328
0.004824787
0.0054168777
0.0059757689
0.006475888
0.0067939355
0.0069721169
0.0065956494
0.0052672688
0.003301474
0.0015469784
0.00067114034
0.00035887736
0.00026400415
0.00026462205
0.00031528135
4.9115186e-18
9.5522475e-16
2.5442849e-14
2.5794296e-13
1.5600334e-12
6.9122985e-12
2.4962692e-11
7.8123511e-11
2.2012605e-10
5.7268171e-10
1.3998746e-09
3.2556968e-09
7.2711719e-09
1.570429e-08
3.2978814e-08
6.7622513e-08
1.3584347e-07
2.6806187e-07
5.2072942e-07
9.9753967e-07
1.8872145e-06
3.530383e-06
6.5370931e-06
1.19907e-05
2.1791187e-05
3.9189407e-05
6.9445376e-05
0.00012001312
0.00019831356
0.00030436364
0.00041221102
0.00043668335
0.00045511561
0.00047249403
0.0004918757
0.0005175276
0.00055314135
0.0006028447
0.00067179794
0.00076666525
0.00089539233
0.0010670633
0.0013004611
0.0016652646
0.0021689966
0.0026109483
0.0031339922
0.0036604767
0.0042393621
0.004876757
0.005535279
0.0061859617
0.0067957433
0.0072888349
0.007573712
0.0076828543
0.0071432296
0.0054939771
0.0030418009
0.0012066191
0.00049293054
0.00028431711
0.0002429473
0.00027849065
0.00035548829
4.2132639e-18
8.1942349e-16
2.1825717e-14
2.2127174e-13
1.3382436e-12
5.9295503e-12
2.1413468e-11
6.7014901e-11
1.8882159e-10
4.9122336e-10
1.2006957e-09
2.7922574e-09
6.2354682e-09
1.3465306e-08
2.8270885e-08
5.7951751e-08
1.1636935e-07
2.2950939e-07
4.4552263e-07
8.5269104e-07
1.6113304e-06
3.0100729e-06
5.5645337e-06
1.0188659e-05
1.8485993e-05
3.3217825e-05
5.8946277e-05
0.00010251227
0.0001719725
0.00027124044
0.00039062623
0.00049413234
0.00051866666
0.00053976227
0.00056424874
0.00059574208
0.00063985505
0.00070179557
0.00078760551
0.00090472761
0.0010615082
0.0012667892
0.0015402041
0.0019635792
0.0024396271
0.0028967649
0.0034384342
0.0040480227
0.0046780371
0.0053633332
0.0060551528
0.0067200284
0.0073153009
0.0077358685
0.0079435785
0.0078651794
0.0072002239
0.005067634
0.0023240743
0.00078492725
0.00035023204
0.00023857358
0.00024537085
0.000316497
0.00041391788
3.5260392e-18
6.8576731e-16
1.826571e-14
1.8517958e-13
1.1199566e-12
4.9623327e-12
1.7920399e-11
5.6082376e-11
1.580148e-10
4.1106583e-10
1.0047191e-09
2.3363437e-09
5.2168245e-09
1.126394e-08
2.3644198e-08
4.845382e-08
9.7259089e-08
1.9171768e-07
3.718992e-07
7.1112605e-07
1.3422293e-06
2.5036893e-06
4.620259e-06
8.4428772e-06
1.528801e-05
2.7431945e-05
4.8696699e-05
8.50767e-05
0.00014455277
0.00023381243
0.00034991021
0.00047366736
0.00058014573
0.0006301128
0.00065847961
0.00069659218
0.00074896185
0.00082217477
0.00092347708
0.0010607149
0.0012418634
0.0014746506
0.0017779264
0.0022424177
0.0026915616
0.0031567468
0.0036952827
0.0043093491
0.0049661553
0.0056608534
0.0063451578
0.0069806027
0.0075044495
0.0078211053
0.0078699314
0.0076205411
0.0065727476
0.0039161836
0.0014427191
0.0004918284
0.00025790197
0.00021651684
0.00026479438
0.00035934217
0.0004600157
2.8731e-18
5.5877916e-16
1.4883305e-14
1.5088803e-13
9.1256053e-13
4.0433795e-12
1.4601689e-11
4.5695831e-11
1.2874778e-10
3.3491987e-10
8.1856971e-10
1.9033584e-09
4.2496268e-09
9.1744222e-09
1.925455e-08
3.9448007e-08
7.9153822e-08
1.5595176e-07
3.0231771e-07
5.7756119e-07
1.0888589e-06
2.0280504e-06
3.7356548e-06
6.8116885e-06
1.2305798e-05
2.2035878e-05
3.9088342e-05
6.8468786e-05
0.00011746111
0.00019412852
0.00030130773
0.00042764118
0.00054883436
0.0006473188
0.00072362737
0.00079391599
0.00087312916
0.00096503898
0.0010796036
0.0012329034
0.0014309882
0.0016788872
0.0019925048
0.0023555443
0.0027752951
0.0032643807
0.0038156352
0.0044176967
0.0050641309
0.0057372864
0.006397924
0.006984625
0.0074089002
0.0075496687
0.0074352112
0.0069137784
0.0052663557
0.002462566
0.00078975395
0.00030137288
0.00019880871
0.00021605196
0.00030483593
0.00041298601
0.00051278166
2.2745021e-18
4.423598e-16
1.1782414e-14
1.1945067e-13
7.2242748e-13
3.2009226e-12
1.1559277e-11
3.617423e-11
1.0191899e-10
2.6512181e-10
6.479544e-10
1.5065606e-09
3.3634447e-09
7.2604885e-09
1.5235426e-08
3.1207066e-08
6.2599086e-08
1.2328252e-07
2.388459e-07
4.5593139e-07
8.5861319e-07
1.5969024e-06
2.9360733e-06
5.3416807e-06
9.625377e-06
1.7191742e-05
3.0440311e-05
5.3353033e-05
9.209797e-05
0.00015476979
0.0002480333
0.00036899202
0.00049922916
0.00061546856
0.00070936079
0.00079124862
0.00087581628
0.00097640935
0.0011020294
0.0012587761
0.0014547811
0.0017003141
0.002002869
0.0023613637
0.002782912
0.0032741241
0.0038238643
0.0044173924
0.005041703
0.0056744203
0.0062656058
0.0067381057
0.0069759673
0.0069410181
0.0066529529
0.0057374959
0.0034692167
0.001200954
0.00040074984
0.00019155223
0.00017552523
0.00023782346
0.00034918078
0.00045264237
0.00054751516
1.7457224e-18
3.3951914e-16
9.0432031e-15
9.1680181e-14
5.5447214e-13
2.4567372e-12
8.8717886e-12
2.7763574e-11
7.8221268e-11
2.0347275e-10
4.9727054e-10
1.1561589e-09
2.5810178e-09
5.5710693e-09
1.168905e-08
2.393915e-08
4.8009222e-08
9.4518099e-08
1.8303107e-07
3.4914958e-07
6.5689301e-07
1.2201266e-06
2.2394036e-06
4.0650761e-06
7.3051491e-06
1.300855e-05
2.2970325e-05
4.0210215e-05
6.9603342e-05
0.00011828195
0.0001944233
0.0003019431
0.00043190985
0.00056232096
0.00067509094
0.00076928356
0.00086225039
0.00096574577
0.0010914214
0.0012475155
0.0014416655
0.0016826428
0.0019765654
0.0023238869
0.0027323409
0.0032071998
0.0037311814
0.004285156
0.0048485742
0.0053950487
0.0058713508
0.0061930631
0.0062255035
0.0060622556
0.005544443
0.0039898034
0.0017074274
0.00055902056
0.00020632653
0.00014465693
0.00018216473
0.00028660619
0.00039528812
0.00048670208
0.00058245064
1.2964922e-18
2.5214985e-16
6.716084e-15
6.8087616e-14
4.1178536e-13
1.8245166e-12
6.5886641e-12
2.0618523e-11
5.8090043e-11
1.5110406e-10
3.6927824e-10
8.5855294e-10
1.9165745e-09
4.1366952e-09
8.6789444e-09
1.7772856e-08
3.5638112e-08
7.0148044e-08
1.357961e-07
2.5891771e-07
4.8677033e-07
9.0315491e-07
1.6550789e-06
2.9980675e-06
5.3730772e-06
9.5369502e-06
1.6781977e-05
2.9294523e-05
5.0691442e-05
8.6633845e-05
0.00014488136
0.00023297229
0.00035144449
0.00048661486
0.00061630319
0.00072784574
0.00082799713
0.00093394706
0.0010571555
0.0012064536
0.0013908192
0.0016176033
0.0018920676
0.0022148727
0.0025918539
0.0030286302
0.0035052132
0.0039980459
0.0044790837
0.0049200813
0.0052643433
0.0053843915
0.0052928893
0.0049576031
0.0039648035
0.0020655711
0.0007131333
0.00024672902
0.0001228414
0.00013825152
0.00021909094
0.00033537855
0.00042856577
0.00051743281
0.00061760312
9.3021394e-19
1.8091375e-16
4.8186854e-15
4.8851688e-14
2.9544785e-13
1.309048e-12
4.7271807e-12
1.4793084e-11
4.1677192e-11
1.0840964e-10
2.6493547e-10
6.1595364e-10
1.3749961e-09
2.9677307e-09
6.2263428e-09
1.2750193e-08
2.5565943e-08
5.0319509e-08
9.7398793e-08
1.8566154e-07
3.4889274e-07
6.4685027e-07
1.18397e-06
2.1408494e-06
3.8271653e-06
6.7707867e-06
1.1867906e-05
2.063323e-05
3.5599972e-05
6.0887144e-05
0.00010274179
0.0001691803
0.00026668348
0.000392742
0.00053097146
0.00066122542
0.00077443207
0.0008827875
0.0010020982
0.0011434028
0.0013127175
0.0015183513
0.001765093
0.002054059
0.0023861959
0.0027678692
0.0031789468
0.0035919275
0.0039748163
0.0042946015
0.0044625676
0.0044242131
0.004206684
0.0035467664
0.0021514196
0.00082472425
0.00028295372
0.00011679912
0.00010131777
0.00016400562
0.0002821989
0.00038162756
0.00046597445
0.00054590827
0.00064645969
6.4416707e-19
1.2528162e-16
3.3369065e-15
3.3829377e-14
2.0459432e-13
9.0649627e-13
3.2734803e-12
1.0243841e-11
2.8860174e-11
7.5069769e-11
1.8345734e-10
4.2652367e-10
9.5213948e-10
2.0551021e-09
4.3118094e-09
8.8301949e-09
1.7707276e-08
3.4855301e-08
6.7472249e-08
1.2862059e-07
2.4168177e-07
4.4793911e-07
8.1931704e-07
1.4795974e-06
2.6396286e-06
4.6558894e-06
8.128408e-06
1.4064674e-05
2.415e-05
4.1170402e-05
6.9581743e-05
0.00011595435
0.00018826162
0.00029196057
0.00042257782
0.00056287807
0.00069422024
0.00081145084
0.00092806215
0.0010578341
0.001212241
0.0013940143
0.0016064988
0.0018538351
0.0021313412
0.0024451309
0.0027754878
0.0030945516
0.0033687679
0.0035449869
0.0035404787
0.0033942111
0.0029440057
0.0019801899
0.00085358911
0.00029106157
0.00011499163
7.6588321e-05
0.00012043231
0.00022620379
0.00032476525
0.0004037194
0.00048438547
0.00057482406
0.00068110988
4.3053857e-19
8.3733813e-17
2.2302683e-15
2.2610284e-14
1.367426e-13
6.0586219e-13
2.1878352e-12
6.8464349e-12
1.9288461e-11
5.0172037e-11
1.2261175e-10
2.8506552e-10
6.3637572e-10
1.3736255e-09
2.8822479e-09
5.9033568e-09
1.1840309e-08
2.3312695e-08
4.5143156e-08
8.6088226e-08
1.6182401e-07
3.0000786e-07
5.4872165e-07
9.9036668e-07
1.7644297e-06
3.1047658e-06
5.4007979e-06
9.2992663e-06
1.5873271e-05
2.689798e-05
4.5272976e-05
7.5566428e-05
0.00012437238
0.00019942509
0.0003055782
0.00043786858
0.00058002512
0.00071345456
0.00083482078
0.00095668343
0.0010910778
0.0012474462
0.0014277283
0.0016288839
0.0018500297
0.0020892835
0.0023301938
0.0025468208
0.0027084016
0.0027156435
0.0026193742
0.0023022675
0.0016604278
0.0007911
0.00028206291
0.00011044236
6.19784e-05
8.9476026e-05
0.00017045634
0.0002788599
0.00036536455
0.00044038708
0.00051960085
0.00060334455
0.00071047221
2.7803629e-19
5.4074187e-17
1.4402756e-15
1.4601369e-14
8.8305866e-14
3.9125239e-13
1.4128459e-12
4.4212147e-12
1.2455814e-11
3.2399268e-11
7.9178573e-11
1.8408907e-10
4.1097336e-10
8.8715399e-10
1.8617127e-09
3.8138086e-09
7.651355e-09
1.5070575e-08
2.9197537e-08
5.5715321e-08
1.0481121e-07
1.9447942e-07
3.5601693e-07
6.4299737e-07
1.1456563e-06
2.0137738e-06
3.4934448e-06
5.9879912e-06
1.0157853e-05
1.7083657e-05
2.852956e-05
4.7338233e-05
7.7923912e-05
0.00012657043
0.00020059563
0.00030476804
0.00043513524
0.00057777292
0.00071183411
0.00083591958
0.00095858621
0.0010893907
0.0012327221
0.0013890595
0.0015524052
0.0017205573
0.0018748016
0.0020013116
0.0020151842
0.0019469678
0.0017233119
0.0012995907
0.00066232268
0.00024666298
0.00010026718
5.3222265e-05
6.4922336e-05
0.00012511323
0.0002288547
0.00032187146
0.00038403347
0.00045600545
0.00054312816
0.00063967812
0.00075240888
1.7388806e-19
3.3818798e-17
9.0076885e-16
9.1318843e-15
5.5227395e-14
2.4469185e-13
8.8359733e-13
2.7650196e-12
7.7898015e-12
2.0262308e-11
4.9518147e-11
1.1513146e-10
2.5703914e-10
5.5490674e-10
1.1646422e-09
2.3863327e-09
4.7890417e-09
9.4371044e-09
1.8294897e-08
3.4940031e-08
6.5799006e-08
1.2224794e-07
2.2411092e-07
4.0536201e-07
7.2323299e-07
1.2725292e-06
2.2078845e-06
3.7776433e-06
6.377659e-06
1.0641198e-05
1.7596996e-05
2.8892183e-05
4.7133795e-05
7.6299719e-05
0.00012198137
0.0001907511
0.00028739029
0.00041034346
0.00054930154
0.00068193025
0.00080471419
0.00092109986
0.0010233893
0.0011386355
0.0012621968
0.001363976
0.0014510099
0.0014593281
0.0014096966
0.0012530565
0.00096842103
0.00051178262
0.00019692877
8.570801e-05
4.5866576e-05
4.8136933e-05
9.6771324e-05
0.00019306696
0.00027588717
0.00026271213
0.00030306745
0.00036880041
0.00046426248
0.00066154934
0.00077162946
1.0571977e-19
2.0561023e-17
5.4764572e-16
5.5519556e-15
3.3576738e-14
1.4876512e-13
5.3719659e-13
1.6810255e-12
4.7358765e-12
1.2318634e-11
3.0105184e-11
6.9997174e-11
1.5628085e-10
3.374138e-10
7.0826573e-10
1.4515479e-09
2.9140445e-09
5.7451676e-09
1.1145553e-08
2.130679e-08
4.0176748e-08
7.4766863e-08
1.3733765e-07
2.4896603e-07
4.4522567e-07
7.8502909e-07
1.3641643e-06
2.335861e-06
3.9421178e-06
6.5605428e-06
1.0770171e-05
1.7470275e-05
2.8105013e-05
4.4892508e-05
7.1126115e-05
0.00011132886
0.00017078916
0.00025384272
0.00036091439
0.00048687091
0.00061141207
0.00071176127
0.00077229137
0.00086541775
0.00098361439
0.001039781
0.0010382431
0.00099910012
0.00088547556
0.00068635598
0.00036083958
0.00014430658
6.7663866e-05
3.83717e-05
3.838015e-05
7.8498318e-05
0.00015878209
0.00021396021
0.00019840162
0.00022783789
0.00027124515
0.00033497989
0.00041550437
0.00057290551
0.00075981503
6.2844083e-20
1.2222297e-17
3.2554234e-16
3.3002968e-15
1.9959236e-14
8.8430944e-14
3.1932558e-13
9.9924493e-13
2.8151119e-12
7.3224589e-12
1.7895253e-11
4.1608767e-11
9.2902474e-11
2.0059333e-10
4.2111919e-10
8.6323623e-10
1.7335397e-09
3.4194014e-09
6.6382799e-09
1.2703024e-08
2.3986275e-08
4.4719146e-08
8.2335967e-08
1.4968198e-07
2.6853295e-07
4.7502622e-07
8.2774734e-07
1.419875e-06
2.39767e-06
3.9883988e-06
6.5418134e-06
1.0583094e-05
1.6872226e-05
2.6541166e-05
4.1302749e-05
6.3633932e-05
9.6740446e-05
0.00014417747
0.00020878834
0.0002909241
0.00038739861
0.00048205073
0.0005475149
0.00064469657
0.00069361496
0.00069088507
0.00066119752
0.00058324511
0.0004389811
0.00022366703
9.591926e-05
4.9721721e-05
3.0859896e-05
3.1919732e-05
6.4714315e-05
0.00013169714
0.00016766932
0.00014890637
0.00015955617
0.00018021273
0.00021235451
0.00026956409
0.00035275898
0.00050815198
0.00070292897
3.6964768e-20
7.1891281e-18
1.914831e-16
1.9412227e-15
1.1739915e-14
5.2014386e-14
1.8782388e-13
5.8774227e-13
1.6558044e-12
4.3069525e-12
1.052576e-11
2.4474147e-11
5.4646813e-11
1.1799992e-10
2.4775243e-10
5.0794952e-10
1.0203463e-09
2.0135008e-09
3.911447e-09
7.4919837e-09
1.4165501e-08
2.6458429e-08
4.8835369e-08
8.9063675e-08
1.6041078e-07
2.850525e-07
4.9912638e-07
8.6008188e-07
1.4567827e-06
2.4240719e-06
3.9647947e-06
6.387485e-06
1.0151456e-05
1.592763e-05
2.4566201e-05
3.7224407e-05
5.5410932e-05
8.108343e-05
0.00011597987
0.00016089852
0.00021467053
0.00027313512
0.000327525
0.0003724778
0.00038989427
0.00037769886
0.00033699182
0.00024345486
0.00012501347
6.0162637e-05
3.4352397e-05
2.4252482e-05
2.7008621e-05
5.526833e-05
0.00011234969
0.00013095156
0.00011144477
0.00011457998
0.00012963939
0.00015517256
0.00019507641
0.00025190358
0.00032891752
0.00046660302
0.00065638525
2.2094255e-20
4.2970221e-18
1.1445157e-16
1.1602898e-15
7.017062e-15
3.1089425e-14
1.1226357e-13
3.5129672e-13
9.8968341e-13
2.5743017e-12
6.2914193e-12
1.4629012e-11
3.2665922e-11
7.0542213e-11
1.4813031e-10
3.0376347e-10
6.1037125e-10
1.2050075e-09
2.342344e-09
4.4905634e-09
8.5013409e-09
1.5907136e-08
2.9432434e-08
5.3854811e-08
9.7416669e-08
1.7406214e-07
3.0684226e-07
5.3276061e-07
9.0927501e-07
1.522159e-06
2.4952427e-06
4.0044354e-06
6.3007161e-06
9.748708e-06
1.4896666e-05
2.2441013e-05
3.3173234e-05
4.7764839e-05
6.6838744e-05
9.0666116e-05
0.00011856706
0.00014825388
0.00017632502
0.00019370629
0.00019508379
0.00017358211
0.00011770595
6.3047212e-05
3.5739251e-05
2.324801e-05
1.8761692e-05
2.3822856e-05
4.8446232e-05
9.9160352e-05
0.00010152031
8.6023529e-05
8.9329122e-05
0.00010107908
0.0001183042
0.00014111905
0.00016959443
0.00021510421
0.00028757179
0.00042742541
0.0006180476
1.41701e-20
2.7558871e-18
7.3403418e-17
7.4415275e-16
4.5004115e-15
1.9939371e-14
7.200135e-14
2.2531011e-13
6.3476091e-13
1.6511412e-12
4.0354222e-12
9.3837664e-12
2.0954981e-11
4.5256796e-11
9.5047026e-11
1.9494712e-10
3.9183499e-10
7.7390307e-10
1.5052918e-09
2.8884549e-09
5.4752518e-09
1.0262634e-08
1.9032669e-08
3.4932794e-08
6.3446069e-08
1.1395919e-07
2.0219897e-07
3.5373902e-07
6.0868618e-07
1.0273087e-06
1.6959475e-06
2.7328497e-06
4.2940441e-06
6.576086e-06
9.8421952e-06
1.4444456e-05
2.088806e-05
2.9683401e-05
4.1141389e-05
5.4906111e-05
7.0006988e-05
8.5240752e-05
9.5765448e-05
9.6723936e-05
8.2617941e-05
5.3909699e-05
3.1324283e-05
2.0744767e-05
1.5499023e-05
1.479757e-05
2.1383645e-05
4.4444081e-05
8.9387003e-05
7.8435365e-05
7.0432117e-05
7.4648531e-05
8.3320162e-05
9.323855e-05
0.00010569487
0.00012497015
0.00015702229
0.00020812989
0.00027672991
0.00040127671
0.00059289816
1.0405204e-20
2.0236693e-18
5.3900901e-17
5.4644327e-16
3.3047628e-15
1.4642232e-14
5.2874746e-14
1.6546493e-13
4.6618794e-13
1.2127497e-12
2.9643253e-12
6.8941633e-12
1.539861e-11
3.3265649e-11
6.9888188e-11
1.4340944e-10
2.8841056e-10
5.7003971e-10
1.1097619e-09
2.1319013e-09
4.0470883e-09
7.6003769e-09
1.4131199e-08
2.602285e-08
4.7461985e-08
8.5691995e-08
1.5299506e-07
2.6961914e-07
4.6771024e-07
7.9583468e-07
1.3229189e-06
2.1400615e-06
3.3596238e-06
5.1134016e-06
7.5552465e-06
1.0864121e-05
1.5215843e-05
2.0825125e-05
2.7663993e-05
3.5314758e-05
4.2652678e-05
4.6901433e-05
4.4701539e-05
3.4949e-05
2.3366779e-05
1.5448703e-05
1.2072086e-05
1.0861337e-05
1.163678e-05
1.99799e-05
4.1804651e-05
8.3468358e-05
6.5020056e-05
6.3637921e-05
6.8605945e-05
7.4149574e-05
8.065121e-05
8.901723e-05
0.00010299328
0.00012408381
0.00015244921
0.00019655268
0.00026618501
0.00039388296
0.00058837149
8.8016631e-21
1.7118045e-18
4.5594558e-17
4.6223954e-16
2.79557e-15
1.2386536e-14
4.4731121e-14
1.3998946e-13
3.9444865e-13
1.0262585e-12
2.5089288e-12
5.8364329e-12
1.3040204e-11
2.8182383e-11
5.9240185e-11
1.2164258e-10
2.448462e-10
4.8446066e-10
9.4443583e-10
1.8173672e-09
3.4571677e-09
6.5090479e-09
1.2139818e-08
2.2440968e-08
4.1121188e-08
7.4665296e-08
1.3419906e-07
2.3829203e-07
4.1673184e-07
7.1459788e-07
1.1947922e-06
1.9360528e-06
3.0244218e-06
4.5402826e-06
6.5472468e-06
9.0878299e-06
1.2160465e-05
1.5659086e-05
1.8961885e-05
2.1344622e-05
2.109054e-05
1.8238612e-05
1.3662338e-05
9.7824598e-06
8.0798572e-06
7.3074823e-06
7.6910932e-06
1.0010923e-05
1.8901074e-05
4.0536297e-05
8.0269408e-05
6.1767252e-05
6.2227279e-05
6.7028109e-05
7.0187137e-05
7.468809e-05
8.0726629e-05
8.9809937e-05
0.00010223918
0.00012002032
0.00014692745
0.00019031541
0.00025467639
0.00037711842
0.00057498821
7.7990455e-21
1.5168105e-18
4.0401002e-17
4.0959115e-16
2.4771981e-15
1.0976166e-14
3.9639337e-14
1.2406095e-13
3.495935e-13
9.0965318e-13
2.224183e-12
5.1750456e-12
1.1565442e-11
2.5003434e-11
5.2580233e-11
1.0802498e-10
2.1758155e-10
4.3086915e-10
8.4080826e-10
1.6199274e-09
3.0860696e-09
5.8204215e-09
1.0877658e-08
2.0155691e-08
3.7035065e-08
6.7455478e-08
1.2165312e-07
2.1674429e-07
3.8011325e-07
6.5255029e-07
1.0883652e-06
1.7477382e-06
2.6778035e-06
3.8858011e-06
5.2938696e-06
6.7951166e-06
8.191917e-06
9.1764607e-06
9.3431095e-06
8.3477847e-06
6.7540006e-06
5.4611866e-06
4.5819502e-06
4.4899823e-06
4.8828758e-06
5.8284584e-06
8.8802067e-06
1.8997462e-05
4.1023689e-05
7.7219574e-05
6.3950053e-05
6.3676366e-05
6.7226494e-05
6.9735476e-05
7.3371198e-05
7.7636063e-05
8.3937602e-05
9.2532756e-05
0.00010475206
0.00012368011
0.00015011779
0.00019293505
0.00025773287
0.00038193324
0.00058298915
6.3440306e-21
1.2338295e-18
3.2863667e-17
3.3317647e-16
2.0150401e-15
8.9283646e-15
3.2243709e-14
1.0091368e-13
2.8436321e-13
7.3991093e-13
1.8091119e-12
4.2091766e-12
9.4065096e-12
2.0334905e-11
4.2759325e-11
8.7838164e-11
1.7689271e-10
3.5021164e-10
6.8317921e-10
1.3155977e-09
2.5045825e-09
4.7191413e-09
8.8074567e-09
1.6288483e-08
2.9849805e-08
5.4171103e-08
9.7216218e-08
1.7207745e-07
2.9904013e-07
5.066804e-07
8.2919913e-07
1.2943198e-06
1.9001526e-06
2.5858996e-06
3.2312055e-06
3.7220303e-06
3.8882405e-06
3.6504727e-06
3.161182e-06
2.7289588e-06
2.4676134e-06
2.4890113e-06
2.8269009e-06
3.4404143e-06
4.8598877e-06
8.8269784e-06
1.9682871e-05
4.0205141e-05
7.4285054e-05
6.9460491e-05
6.8565637e-05
7.018122e-05
7.1847312e-05
7.4686913e-05
7.7274343e-05
8.1662581e-05
8.7958392e-05
9.6770988e-05
0.00010903494
0.00012622573
0.00015073527
0.00019187894
0.00025410587
0.0003764553
0.00058073929
4.41559e-21
8.5877263e-19
2.2873746e-17
2.3189475e-16
1.402463e-15
6.2139126e-15
2.2439659e-14
7.0224656e-14
1.9786482e-13
5.1477034e-13
1.2583937e-12
2.927094e-12
6.5391167e-12
1.412977e-11
2.9693594e-11
6.0949738e-11
1.2261639e-10
2.4242715e-10
4.7208437e-10
9.0701392e-10
1.7216292e-09
3.2315296e-09
6.0015639e-09
1.1029816e-08
2.0051826e-08
3.6021249e-08
6.3812436e-08
1.1110178e-07
1.8908742e-07
3.1202355e-07
4.9320841e-07
7.354305e-07
1.0167516e-06
1.2811162e-06
1.4609623e-06
1.5036682e-06
1.4331664e-06
1.3430544e-06
1.2993817e-06
1.3362338e-06
1.5017948e-06
2.0116342e-06
2.8131168e-06
4.5728287e-06
9.1526154e-06
1.9338789e-05
3.8984305e-05
7.0919779e-05
8.0803933e-05
7.6830534e-05
7.65205e-05
7.6059668e-05
7.71915e-05
7.8395691e-05
8.1338392e-05
8.5903011e-05
9.2546851e-05
0.00010180705
0.00011396189
0.00013210282
0.00015722535
0.0001988318
0.00026114929
0.00038695438
0.00059195074
2.6051967e-21
5.0667493e-19
1.349539e-17
1.3681418e-16
8.274025e-16
3.6657819e-15
1.3236758e-14
4.1419331e-14
1.1668348e-13
3.0349713e-13
7.416903e-13
1.7244951e-12
3.8503852e-12
8.3138684e-12
1.7454789e-11
3.5783246e-11
7.1870113e-11
1.4179555e-10
2.7536805e-10
5.272025e-10
9.9617723e-10
1.8590273e-09
3.4270813e-09
6.2392403e-09
1.1207739e-08
1.9830799e-08
3.4464254e-08
5.8574425e-08
9.6722945e-08
1.5374364e-07
2.323236e-07
3.2878121e-07
4.2918883e-07
5.1171832e-07
5.6730117e-07
6.1565158e-07
6.5959998e-07
7.1741996e-07
8.4832366e-07
1.1143512e-06
1.6743457e-06
2.6264584e-06
4.5643643e-06
9.0521985e-06
1.8636747e-05
3.7321744e-05
6.7471091e-05
0.00010103991
9.0484946e-05
8.6493757e-05
8.3119224e-05
8.1712905e-05
8.1259643e-05
8.2809404e-05
8.5736684e-05
9.0684282e-05
9.7710652e-05
0.0001071894
0.0001199606
0.00013807255
0.00016208639
0.00020254043
0.00026284318
0.00038945493
0.00059558371
1.3644127e-21
2.6535908e-19
7.0678328e-18
7.1651051e-17
4.3330221e-16
1.9196082e-15
6.930838e-15
2.1684412e-14
6.1076163e-14
1.5882011e-13
3.8799356e-13
9.0170949e-13
2.0121008e-12
4.341205e-12
9.1050426e-12
1.8641377e-11
3.7377716e-11
7.3584104e-11
1.4250396e-10
2.7186181e-10
5.1138013e-10
9.4886093e-10
1.7365796e-09
3.1328851e-09
5.5639319e-09
9.7065251e-09
1.6579306e-08
2.7597548e-08
4.4486943e-08
6.8891327e-08
1.0158439e-07
1.4163356e-07
1.8724819e-07
2.3662651e-07
2.9766598e-07
3.7515421e-07
4.870582e-07
6.5567135e-07
9.7044683e-07
1.5410677e-06
2.4986202e-06
4.3852236e-06
8.5680067e-06
1.759592e-05
3.5735422e-05
6.396988e-05
9.9788569e-05
0.00011223805
0.00010197733
9.375115e-05
8.9191997e-05
8.6261401e-05
8.5882644e-05
8.7075687e-05
9.0266788e-05
9.532144e-05
0.00010247072
0.00011269905
0.00012587028
0.00014460954
0.00016926306
0.00021104208
0.00027222762
0.00040286796
0.00060883025
7.3773368e-22
1.4347864e-19
3.8215262e-18
3.8740544e-17
2.3427155e-16
1.0378106e-15
3.7467783e-15
1.1721279e-14
3.3009614e-14
8.5822152e-14
2.09616e-13
4.8702333e-13
1.086398e-12
2.3430072e-12
4.9116992e-12
1.00501e-11
2.0137126e-11
3.9609963e-11
7.663395e-11
1.4603335e-10
2.7434435e-10
5.083413e-10
9.2903643e-10
1.6738513e-09
2.9700413e-09
5.1815437e-09
8.8677177e-09
1.4844176e-08
2.4223698e-08
3.8412548e-08
5.9086279e-08
8.831112e-08
1.2870736e-07
1.8447104e-07
2.6804771e-07
3.892434e-07
5.6875993e-07
8.9431393e-07
1.4238059e-06
2.3384983e-06
4.1437078e-06
8.0598409e-06
1.6717329e-05
3.4005203e-05
6.0284203e-05
9.2782165e-05
0.00012719117
0.00012542211
0.00010958019
0.00010022706
9.3898825e-05
9.092322e-05
9.0055026e-05