/*--------------------------------*- C++ -*----------------------------------*\
  =========                 |
  \\      /  F ield         | OpenFOAM: The Open Source CFD Toolbox
   \\    /   O peration     | Website:  https://openfoam.org
    \\  /    A nd           | Version:  13
     \\/     M anipulation  |
\*---------------------------------------------------------------------------*/
FoamFile
{
    format      ascii;
    class       volVectorField;
    location    "16.901667";
    object      U;
}
// * * * * * * * * * * * * * * * * * * * * * * * * * * * * * * * * * * * * * //

dimensions      [0 1 -1 0 0 0 0];

internalField   nonuniform List<vector> 
17140
(
(-1.9933919e-06 9.3157899e-05 1.9960206e-23)
(-2.3778736e-05 0.00028557159 2.2183344e-24)
(-7.0528105e-05 0.00049606432 -1.4593786e-22)
(-0.00015205935 0.00072768307 1.6035126e-22)
(-0.00027727803 0.00098381627 -1.873472e-23)
(-0.00045829996 0.0012680204 6.1349129e-23)
(-0.00071000211 0.0015839675 1.0326927e-22)
(-0.0010503124 0.00193535 -5.0186883e-23)
(-0.0015007751 0.0023257513 -1.644486e-22)
(-0.0020871087 0.0027584757 -4.0303576e-22)
(-0.0028397786 0.0032363291 5.9587321e-22)
(-0.0037945617 0.0037613478 -5.2968403e-22)
(-0.0049930783 0.0043344664 -8.1220728e-23)
(-0.0064832316 0.0049551236 4.5402372e-22)
(-0.008319488 0.0056208081 -5.0243441e-23)
(-0.010562907 0.0063265483 3.9401044e-22)
(-0.013280812 0.0070643699 -1.4121242e-23)
(-0.016545982 0.0078227471 3.6411708e-24)
(-0.020435221 0.008586112 2.2471539e-22)
(-0.025027224 0.0093345219 -2.8385594e-22)
(-0.030399662 0.010043679 1.3432323e-22)
(-0.036625652 0.010685651 -2.3678589e-23)
(-0.043770074 0.011230906 -1.7280209e-22)
(-0.051886988 0.011652487 1.6523669e-22)
(-0.061019405 0.011932793 2.4642358e-22)
(-0.071199756 0.012071345 -1.7815951e-22)
(-0.082452941 0.012088416 -8.1476462e-22)
(-0.094841585 0.012019578 -9.5649876e-23)
(-0.10847127 0.011905841 7.0029454e-22)
(-0.12315881 0.011772207 1.6180011e-22)
(-0.13925294 0.011556652 5.6214616e-22)
(-0.15695142 0.011232284 -7.3720406e-22)
(-0.17589818 0.010792015 2.0149167e-22)
(-0.19627051 0.010210088 9.5925429e-23)
(-0.2180373 0.0094594372 1.005751e-21)
(-0.24114298 0.0085249717 -4.4611408e-22)
(-0.26552424 0.007387731 7.214218e-22)
(-0.29106378 0.0060288793 5.1444806e-22)
(-0.31759401 0.0044355357 2.4988554e-22)
(-0.34490551 0.0026042088 -7.7375151e-22)
(-0.37276947 0.00054620773 -1.5358199e-21)
(-0.40098285 -0.001712254 -1.4497335e-21)
(-0.42941288 -0.0041372867 -6.5254841e-22)
(-0.45804153 -0.006701382 3.3864678e-21)
(-0.48697077 -0.0093862961 2.5959018e-21)
(-0.51647263 -0.01217652 -6.6785894e-22)
(-0.54689789 -0.015072643 4.8189811e-21)
(-0.57803608 -0.018090124 1.7415766e-21)
(-0.60970227 -0.021204465 -1.8806798e-21)
(-0.64185432 -0.024354763 -4.8727348e-21)
(-0.67433266 -0.027470061 3.1642454e-21)
(-0.70688458 -0.030443347 2.1120565e-21)
(-0.73893081 -0.033137382 -5.710681e-21)
(-0.76951192 -0.035414213 -2.8085095e-21)
(-0.7971537 -0.036902079 -2.0652775e-21)
(-0.82015827 -0.03732339 1.6514873e-21)
(-0.83591658 -0.03632843 -4.4988306e-21)
(-0.84206078 -0.033286252 -3.7171894e-21)
(-0.83267964 -0.027610004 -8.8916914e-22)
(-0.80159613 -0.018737676 2.1983067e-21)
(-0.73424368 -0.0065726475 1.4075377e-21)
(-0.61737568 0.0075760191 3.728735e-21)
(-0.43309549 0.01801729 2.2600496e-22)
(-0.20125158 0.02170717 2.8598096e-22)
(0.062857632 0.016720096 -1.588141e-21)
(-1.8805177e-05 0.0004403781 -5.7934721e-24)
(-7.5255656e-05 0.0013569457 7.7174444e-22)
(-0.0001596414 0.0023612764 -6.8682912e-22)
(-0.00028179607 0.0034599958 1.8699349e-22)
(-0.00045073181 0.0046598273 3.8654024e-22)
(-0.0006785841 0.0059671765 -7.3858418e-22)
(-0.00098018698 0.0073879053 7.6895863e-22)
(-0.0013733473 0.0089270076 -6.7618102e-23)
(-0.0018793901 0.010588196 2.1093144e-22)
(-0.0025236932 0.012373399 3.7633957e-24)
(-0.0033362369 0.014282158 7.0164903e-22)
(-0.0043521432 0.016310928 -1.1101074e-21)
(-0.0056121837 0.018452268 -9.1411103e-23)
(-0.007163197 0.020693952 8.9692672e-22)
(-0.0090583509 0.023018021 -2.7263979e-22)
(-0.011357164 0.025399829 -1.7161125e-22)
(-0.014125178 0.027807153 1.0800744e-21)
(-0.017433169 0.030199503 -3.4607195e-21)
(-0.021355758 0.032527789 2.1247158e-21)
(-0.025969335 0.034734636 -2.4909795e-21)
(-0.031349241 0.036755788 3.5699066e-21)
(-0.037566366 0.038523362 -8.4253971e-22)
(-0.04468362 0.039972165 -3.2966076e-22)
(-0.052753501 0.041050515 1.0363232e-21)
(-0.061818125 0.041735799 -3.4608629e-21)
(-0.071909926 0.042050058 -5.010784e-22)
(-0.083052537 0.042063802 2.2399557e-21)
(-0.095300904 0.041877835 -2.32097e-21)
(-0.10878327 0.041596969 2.4850766e-22)
(-0.12326092 0.041299508 2.6934769e-21)
(-0.13911318 0.040894389 -2.6284092e-22)
(-0.15660807 0.040234194 -2.1980404e-21)
(-0.17532783 0.039339284 -7.8658475e-23)
(-0.19543364 0.038207357 1.7422087e-21)
(-0.21689792 0.036809809 -2.0086471e-21)
(-0.23965974 0.035133817 9.5760126e-22)
(-0.26364762 0.033154359 -1.1344457e-21)
(-0.28874077 0.030842118 -3.8750939e-21)
(-0.31476552 0.028181675 -9.3705548e-22)
(-0.34151151 0.025182428 -3.7978165e-21)
(-0.36875772 0.021893824 5.0087381e-21)
(-0.39631785 0.018405153 4.9012242e-21)
(-0.42407163 0.01482036 9.24071e-22)
(-0.45198859 0.011237296 -7.2059714e-21)
(-0.48012436 0.007744472 3.6947109e-21)
(-0.50862704 0.0043852591 1.369347e-21)
(-0.53777329 0.0010096399 -7.2709019e-22)
(-0.56734192 -0.0025144446 -2.4951011e-21)
(-0.59709518 -0.0061194373 1.2933836e-21)
(-0.62693483 -0.0097364686 -2.4996448e-21)
(-0.65662021 -0.013329096 -1.5732756e-20)
(-0.68584926 -0.016851506 -7.7344361e-22)
(-0.71411868 -0.020265402 3.7183564e-21)
(-0.74072777 -0.023552297 -8.6389528e-21)
(-0.76450327 -0.026584671 7.5832694e-21)
(-0.78390144 -0.02912631 -2.1986605e-20)
(-0.79678124 -0.0309236 -6.3076757e-21)
(-0.800803 -0.031979268 1.7555801e-20)
(-0.79091168 -0.032365941 -2.919443e-21)
(-0.75901829 -0.03255626 -3.0408155e-21)
(-0.69028709 -0.033696964 -5.089836e-22)
(-0.57019055 -0.036870063 5.0759062e-21)
(-0.37854064 -0.04378985 -4.194621e-21)
(-0.13721096 -0.051180256 3.0871755e-24)
(0.13662298 -0.053892532 2.0491065e-21)
(-5.4736962e-05 0.00078210998 -3.2030154e-22)
(-0.00018529097 0.0024115989 2.3662153e-22)
(-0.00035007901 0.0041977002 6.2970475e-23)
(-0.00055888878 0.0061506788 -5.9604578e-23)
(-0.00082086275 0.008280645 2.8916319e-22)
(-0.0011480671 0.010596944 2.1723303e-23)
(-0.0015551207 0.01310776 2.7471399e-22)
(-0.002059438 0.01581957 2.9594136e-22)
(-0.0026817335 0.018736455 -2.4098005e-21)
(-0.00344651 0.021859274 2.1474513e-21)
(-0.0043825635 0.02518469 -1.0248038e-21)
(-0.0055234751 0.028704036 -1.4982336e-21)
(-0.006908075 0.032402043 2.95598e-21)
(-0.0085808217 0.036255446 3.6540796e-22)
(-0.01059204 0.040231531 -1.3940854e-21)
(-0.012997933 0.044286707 -9.5059024e-22)
(-0.01586028 0.048365235 1.0891041e-21)
(-0.019245692 0.052398319 -3.8875337e-21)
(-0.023224329 0.056303854 2.2506193e-21)
(-0.027867954 0.059987255 -1.093173e-21)
(-0.03324732 0.063344079 3.5714835e-21)
(-0.039429006 0.066265591 8.9917211e-22)
(-0.046472199 0.068649073 -1.7892877e-21)
(-0.054426517 0.070415006 2.5667398e-21)
(-0.063332462 0.071531305 9.7294656e-22)
(-0.073222604 0.07203741 -1.0157313e-21)
(-0.084121824 0.072049803 -5.4683362e-21)
(-0.096074648 0.071732216 -2.3404348e-21)
(-0.10921931 0.07124834 9.5494477e-22)
(-0.12334712 0.070751843 -1.1177037e-21)
(-0.13878473 0.070242401 5.9189366e-22)
(-0.15581677 0.069309771 3.7623341e-21)
(-0.17406834 0.067972452 -1.2919271e-21)
(-0.19363076 0.066292401 -4.0617934e-21)
(-0.21449126 0.064248158 1.3262512e-21)
(-0.2365784 0.061825796 2.039892e-21)
(-0.25980219 0.058999109 -3.7439812e-21)
(-0.28403144 0.05572967 -1.2495439e-21)
(-0.30908364 0.052000108 2.2366587e-21)
(-0.33475117 0.047842586 9.2737754e-22)
(-0.3608356 0.0433506 -4.8350613e-21)
(-0.38717656 0.038670714 1.3414066e-21)
(-0.41366386 0.033960511 2.1357273e-21)
(-0.440234 0.029359977 6.1651096e-21)
(-0.46684778 0.024994347 -1.223187e-20)
(-0.49342095 0.020946246 8.4382642e-21)
(-0.52005932 0.017003191 2.3705376e-21)
(-0.54659912 0.012889314 9.6058694e-21)
(-0.57268501 0.008696692 1.2280309e-20)
(-0.59808169 0.004503449 6.8772914e-22)
(-0.62237183 0.00031827157 -3.0874591e-21)
(-0.64508255 -0.0038320159 2.2680935e-20)
(-0.66564961 -0.0079506569 1.0153121e-20)
(-0.68347734 -0.012094523 1.0876129e-20)
(-0.69775421 -0.016297484 3.6864234e-21)
(-0.7072609 -0.020503176 2.9228182e-20)
(-0.7099138 -0.024547683 -1.1725736e-20)
(-0.70394028 -0.028717372 3.5036289e-21)
(-0.68532897 -0.034326351 2.8177817e-20)
(-0.64595063 -0.043322138 1.0510433e-20)
(-0.57092068 -0.058055168 -1.062895e-20)
(-0.44467337 -0.079359428 -2.7167904e-20)
(-0.24285694 -0.10431462 3.6496421e-21)
(0.0065301097 -0.12172205 1.6463498e-22)
(0.27623703 -0.12068754 -1.9113072e-21)
(-0.0001090156 0.0011086705 1.0945982e-21)
(-0.00035154571 0.0034198579 -1.7408821e-21)
(-0.00063782863 0.0059540027 6.2937399e-22)
(-0.00097755704 0.0087250227 -6.8343654e-23)
(-0.0013800344 0.011746467 1.3525642e-21)
(-0.0018571834 0.015030748 -1.3978734e-21)
(-0.0024232555 0.018588583 2.1205832e-21)
(-0.0030950262 0.022428242 -9.9501029e-22)
(-0.0038922384 0.026554606 -3.7835904e-21)
(-0.0048380229 0.030968039 9.0659876e-22)
(-0.0059593344 0.035663051 3.4509826e-21)
(-0.0072873751 0.040626767 -1.0488433e-21)
(-0.0088579925 0.045837184 -6.860751e-23)
(-0.010712004 0.051261285 2.7248168e-21)
(-0.012895397 0.056853058 -8.4601138e-21)
(-0.015459334 0.062551556 5.1463682e-21)
(-0.018459877 0.068279173 4.8992766e-23)
(-0.021957332 0.073940409 -2.7780938e-21)
(-0.0260151 0.079421529 6.9361856e-21)
(-0.030697959 0.084591686 -3.2001091e-21)
(-0.036069739 0.089306476 -4.655123e-21)
(-0.042190553 0.093415437 -1.8396345e-21)
(-0.049114073 0.096775918 8.6802242e-21)
(-0.056885916 0.09927623 4.3496336e-21)
(-0.065544634 0.10086859 -2.5852779e-21)
(-0.075124018 0.10160299 1.4648309e-21)
(-0.085653489 0.10163737 -4.8959031e-21)
(-0.097175955 0.10120054 1.3150257e-21)
(-0.10981325 0.10052707 -3.2650179e-21)
(-0.12346578 0.099853139 1.700305e-21)
(-0.13829965 0.099256196 -1.0902463e-21)
(-0.15458164 0.098091529 3.9901085e-21)
(-0.17212127 0.096345872 -5.7078392e-22)
(-0.19086084 0.094145394 3.2765205e-21)
(-0.21080987 0.09147785 -3.2403155e-21)
(-0.23188439 0.088322695 -1.1719273e-21)
(-0.25396886 0.084653268 1.4225265e-20)
(-0.27691149 0.080432034 3.9797382e-21)
(-0.30052675 0.075652073 -3.3991653e-21)
(-0.32462122 0.070376368 3.5115761e-21)
(-0.34902511 0.064745757 -9.8612901e-22)
(-0.37361152 0.05895146 -6.288783e-21)
(-0.39827744 0.053182634 2.9662445e-22)
(-0.42291252 0.047587427 2.4400846e-21)
(-0.44737248 0.042281381 -1.1028696e-21)
(-0.47138494 0.037359787 8.1265021e-22)
(-0.49471171 0.032704311 2.0979735e-21)
(-0.51726672 0.027926011 -3.2631016e-20)
(-0.53873187 0.023049364 3.81432e-21)
(-0.55873316 0.018135489 -3.7914356e-21)
(-0.5766792 0.013172538 3.7735256e-20)
(-0.59189386 0.0081936729 -2.1756225e-20)
(-0.6036494 0.0032204587 -1.8735018e-20)
(-0.61126885 -0.0017725382 -1.8600574e-20)
(-0.61414281 -0.0068354498 -1.8466734e-20)
(-0.61179413 -0.01227675 -2.9502132e-20)
(-0.60206836 -0.018148508 5.9349276e-20)
(-0.58318399 -0.024750405 -3.6383719e-20)
(-0.55195001 -0.034471774 -5.3649664e-20)
(-0.50137635 -0.050864508 3.7532884e-20)
(-0.41785987 -0.077918631 1.0186353e-20)
(-0.28585339 -0.11791533 5.3592793e-21)
(-0.074056461 -0.1607889 -1.8171262e-20)
(0.17688519 -0.18607855 -1.7822564e-21)
(0.4315321 -0.17971662 -3.6485068e-22)
(-0.00017978148 0.0014102372 -7.9040796e-22)
(-0.00056836455 0.0043515401 2.6232428e-21)
(-0.0010131576 0.0075778476 -2.1381872e-21)
(-0.0015237361 0.011106728 8.0786956e-22)
(-0.0021096092 0.014955215 2.919486e-22)
(-0.0027825144 0.01913894 -2.5102911e-21)
(-0.0035562268 0.023671433 6.3431805e-22)
(-0.0044466966 0.028563189 1.3474022e-21)
(-0.0054724121 0.033820503 1.0296465e-22)
(-0.0066547326 0.039444073 8.7583815e-22)
(-0.0080182367 0.045427344 -1.2244698e-21)
(-0.0095910557 0.051754591 8.4818614e-22)
(-0.011405185 0.058398746 3.117954e-21)
(-0.013496738 0.065319012 9.2450317e-23)
(-0.015906089 0.072458348 -2.3534827e-21)
(-0.018677872 0.079740964 -1.655339e-21)
(-0.021860733 0.087070058 1.4129613e-21)
(-0.02550678 0.094326101 -1.3007014e-22)
(-0.029670623 0.10136619 -2.6714929e-21)
(-0.03440794 0.10802518 -3.2016166e-21)
(-0.039773556 0.11411976 3.5616464e-21)
(-0.045819207 0.1194574 3.4751688e-21)
(-0.052591506 0.12385319 -4.4937148e-21)
(-0.060131123 0.12715829 5.3111652e-21)
(-0.068474522 0.12930137 8.7357493e-21)
(-0.077657432 0.130333 -1.9020314e-20)
(-0.087715579 0.13044354 9.6217941e-21)
(-0.098690378 0.12992271 -1.3211588e-20)
(-0.11067296 0.12907798 1.5141306e-20)
(-0.12368975 0.12820463 -1.5899992e-20)
(-0.13766531 0.1274433 1.5987881e-20)
(-0.15289485 0.12616055 -2.6596459e-21)
(-0.16947371 0.12411444 -9.7501837e-21)
(-0.1871275 0.12144314 5.6748806e-21)
(-0.20586865 0.11818597 -1.8234785e-21)
(-0.22559851 0.11432331 -5.1908898e-22)
(-0.24617294 0.10982955 -7.3126394e-21)
(-0.26742193 0.10468016 -2.5874128e-21)
(-0.28916 0.098894866 -2.7889233e-21)
(-0.31121838 0.092574965 -2.76603e-21)
(-0.3334694 0.085906892 1.4701063e-20)
(-0.35581834 0.079112725 -6.7658544e-21)
(-0.37815661 0.072384041 -1.2852092e-21)
(-0.4003175 0.065851595 1.3912577e-20)
(-0.42205808 0.059596597 7.5934693e-21)
(-0.44300501 0.053690449 -3.8858092e-21)
(-0.46262248 0.048104977 -1.5076687e-20)
(-0.48067984 0.04253279 6.9024868e-21)
(-0.49697437 0.036912154 -2.1213077e-20)
(-0.51107696 0.031217326 -1.2299996e-20)
(-0.52231327 0.0253877 -1.8053634e-20)
(-0.52991984 0.019457374 -5.0701789e-20)
(-0.53310069 0.013480654 4.092812e-20)
(-0.53109809 0.0074959356 -1.368638e-20)
(-0.5232005 0.0014293106 2.4455817e-20)
(-0.50852112 -0.0050438593 2.3567433e-20)
(-0.48616163 -0.012381941 9.4126858e-21)
(-0.45408013 -0.02106882 8.4869072e-20)
(-0.40905523 -0.034136869 2.2160653e-20)
(-0.34518194 -0.056686132 -4.7927165e-20)
(-0.25005565 -0.094353213 -1.631625e-20)
(-0.10926156 -0.15257376 7.5799954e-21)
(0.11294068 -0.21286545 7.4558167e-21)
(0.35794095 -0.24273366 3.4842102e-21)
(0.58593456 -0.22875057 1.2572593e-21)
(-0.00026411334 0.0016775526 -2.4791465e-21)
(-0.00082684311 0.0051781599 -8.7534076e-22)
(-0.0014607166 0.0090197885 7.072469e-22)
(-0.0021752061 0.013223632 2.613868e-21)
(-0.0029800915 0.017810247 -1.4322016e-21)
(-0.0038869266 0.022798668 2.0599068e-21)
(-0.0049089639 0.028205577 -8.9068046e-22)
(-0.0060612236 0.034044236 -2.1212187e-22)
(-0.0073607634 0.040323135 1.1983109e-21)
(-0.0088269057 0.047044374 2.5791291e-21)
(-0.010481482 0.054201733 1.313198e-22)
(-0.012349058 0.061778414 -4.2186037e-21)
(-0.014457137 0.06974447 5.8202978e-21)
(-0.016836324 0.078053947 -9.3522055e-21)
(-0.0195204 0.086641829 2.4296704e-21)
(-0.02254629 0.095420932 -5.1343769e-21)
(-0.025953852 0.104279 6.1446089e-21)
(-0.029785434 0.11307634 -3.9493676e-21)
(-0.034085125 0.12164462 6.1092897e-22)
(-0.038897658 0.12978765 2.4454626e-21)
(-0.044266964 0.13728541 -5.8298731e-21)
(-0.050234575 0.14390378 7.9971054e-21)
(-0.056838381 0.14941332 -8.4123686e-21)
(-0.06411274 0.15362178 -1.4263218e-21)
(-0.072090996 0.15642292 1.2900076e-20)
(-0.080809888 0.1578516 -1.2249903e-20)
(-0.090310579 0.15811212 7.33637e-21)
(-0.10063474 0.15753929 -7.6888367e-21)
(-0.11183674 0.15650103 -8.2736295e-22)
(-0.12401306 0.15532287 -5.325244e-22)
(-0.13699057 0.15424493 2.4570318e-21)
(-0.15096147 0.15302182 -2.3568768e-22)
(-0.1662061 0.15088064 9.9280532e-21)
(-0.18248834 0.14784443 -2.7112607e-21)
(-0.19971515 0.14405539 -8.7636875e-21)
(-0.21777924 0.13952263 4.2291077e-21)
(-0.23650144 0.13423444 -3.5898e-21)
(-0.25568662 0.12819696 3.8725926e-21)
(-0.27515937 0.12147255 2.2504045e-20)
(-0.29478893 0.11421383 -1.3029175e-20)
(-0.31449186 0.10664475 -3.4307863e-21)
(-0.33419025 0.098993673 2.0380452e-20)
(-0.3537504 0.091428243 -1.0032084e-21)
(-0.37294573 0.084045762 -2.5817466e-21)
(-0.39144439 0.076887003 -3.1796102e-20)
(-0.40878487 0.069973806 -7.7960231e-21)
(-0.42432172 0.063325196 1.2994381e-20)
(-0.43757312 0.056841047 1.3964375e-20)
(-0.44829857 0.050443376 2.1083624e-20)
(-0.45609252 0.043968298 2.7781985e-20)
(-0.46033707 0.037277611 1.8030098e-20)
(-0.46036379 0.030381846 2.8881298e-20)
(-0.45546722 0.02332834 -1.042624e-20)
(-0.44483936 0.016172019 6.6072042e-20)
(-0.4275346 0.0089031442 4.6315935e-21)
(-0.40199534 0.0012093 4.0077569e-21)
(-0.36720773 -0.0074588426 2.3945128e-21)
(-0.32286218 -0.018039852 -9.2095282e-20)
(-0.2642284 -0.034052612 -3.5736022e-20)
(-0.18629768 -0.061843821 5.3146297e-20)
(-0.076970297 -0.10867478 6.7884447e-20)
(0.079326606 -0.18350109 2.4048349e-20)
(0.30897773 -0.25802269 3.761735e-21)
(0.54042419 -0.28773651 -7.7138633e-21)
(0.72804828 -0.26495889 -1.1554746e-21)
(-0.00035806041 0.0019020481 4.8334718e-22)
(-0.0011149019 0.0058733476 1.535758e-21)
(-0.0019596247 0.010234012 -3.706081e-21)
(-0.0029016371 0.015008774 1.3710628e-22)
(-0.0039510604 0.020221707 1.8030168e-21)
(-0.0051192993 0.025895407 7.9468249e-22)
(-0.0064190878 0.032050059 5.8659427e-22)
(-0.0078644847 0.038702276 -1.1547211e-21)
(-0.0094710389 0.045863619 5.9727882e-21)
(-0.0112559 0.053538818 -4.4982714e-21)
(-0.013237946 0.061723621 2.1836564e-22)
(-0.015437877 0.070402272 2.7131748e-21)
(-0.017878306 0.079544587 -1.0115223e-20)
(-0.020583801 0.089102677 1.0042238e-20)
(-0.023580876 0.099007359 -1.3269098e-21)
(-0.026897911 0.10916443 -8.1831269e-21)
(-0.030564949 0.11945103 7.6297583e-21)
(-0.034613356 0.12971249 -2.6316468e-21)
(-0.039075277 0.13976023 5.0591314e-21)
(-0.043982886 0.14937176 -6.3848186e-21)
(-0.04936745 0.15829409 -1.1747803e-20)
(-0.055258405 0.16625322 1.1313516e-20)
(-0.061682984 0.17297359 1.6077317e-20)
(-0.068667352 0.17821299 -2.9710668e-20)
(-0.076240189 0.18181686 2.2599443e-20)
(-0.084437887 0.18378379 -1.2318263e-20)
(-0.093306538 0.18430783 2.9024554e-21)
(-0.10289503 0.18374771 -6.4689602e-21)
(-0.11324642 0.18251901 5.9480483e-21)
(-0.12441241 0.1809856 7.6778688e-21)
(-0.13640729 0.17943655 -4.7383191e-21)
(-0.14905684 0.17798216 -7.9407462e-21)
(-0.16257782 0.17599942 6.5593199e-22)
(-0.17713525 0.17287319 2.7661382e-22)
(-0.19248724 0.16870833 5.5929883e-21)
(-0.20854875 0.16359929 -2.547755e-21)
(-0.22510133 0.15757722 -9.7948708e-21)
(-0.24192319 0.15071618 -5.2815007e-21)
(-0.2588536 0.14315371 8.2838771e-21)
(-0.27579679 0.13509517 -6.6914245e-21)
(-0.29268865 0.1267827 6.198318e-21)
(-0.30943453 0.11842605 -1.9433247e-21)
(-0.32585333 0.11015007 -8.7189997e-21)
(-0.34166445 0.1020057 2.2194431e-20)
(-0.35644605 0.094014403 1.3913037e-20)
(-0.3696937 0.086137322 9.6248435e-21)
(-0.3806999 0.078412642 -3.2828623e-20)
(-0.38883712 0.070912117 -2.2422686e-20)
(-0.39379544 0.063647482 -2.7881415e-20)
(-0.39524032 0.056366555 -5.1444992e-20)
(-0.39262952 0.048859196 1.9143149e-20)
(-0.38537133 0.041107536 -3.9098455e-21)
(-0.37278121 0.033113719 -3.405304e-20)
(-0.35395435 0.024859824 -1.0321322e-19)
(-0.32773709 0.016206249 -6.9814811e-20)
(-0.29288163 0.00690758 -2.8014178e-20)
(-0.24712418 -0.003112544 -8.2277757e-20)
(-0.19186207 -0.015586743 5.6308373e-20)
(-0.12049505 -0.034561492 -6.3749835e-21)
(-0.028386484 -0.067262563 -8.6999626e-20)
(0.097165181 -0.12287068 -5.2324658e-20)
(0.27471228 -0.21126902 -1.3798729e-21)
(0.50923461 -0.29557515 4.084385e-20)
(0.71394676 -0.32110759 -4.340988e-21)
(0.84789871 -0.28725047 3.1613139e-22)
(-0.00045653226 0.0020756702 1.9728344e-21)
(-0.0014172855 0.0064121716 -1.3303217e-21)
(-0.0024833055 0.011177165 1.7966758e-21)
(-0.0036643938 0.016398664 1.0211299e-21)
(-0.0049709249 0.022104209 -2.8476841e-21)
(-0.0064142273 0.02832005 -2.65753e-21)
(-0.0080065658 0.035070182 2.7243962e-21)
(-0.0097610783 0.042375139 -3.2821862e-22)
(-0.011691824 0.05025046 -7.597711e-23)
(-0.013813779 0.058704808 -5.3792084e-21)
(-0.016142832 0.067737689 5.8610724e-22)
(-0.018695749 0.077336739 1.0797183e-20)
(-0.021490115 0.087474536 -8.6073359e-21)
(-0.024544254 0.098104954 2.9369117e-22)
(-0.027877102 0.10915911 5.7167958e-21)
(-0.031508051 0.12054102 4.8763854e-22)
(-0.035456729 0.13212313 -1.2319748e-21)
(-0.039742719 0.14374227 -5.4948741e-21)
(-0.04438519 0.15519639 9.9450079e-21)
(-0.049402462 0.16624323 -1.7223619e-20)
(-0.054811555 0.17660254 3.6296677e-21)
(-0.060627947 0.18596422 -2.6211278e-21)
(-0.066866082 0.19400704 2.0540029e-21)
(-0.073541592 0.2004339 -1.1405458e-22)
(-0.080676213 0.20502938 1.13046e-20)
(-0.088304405 0.20773459 1.0639649e-20)
(-0.096476436 0.20870642 -1.9630845e-20)
(-0.10525112 0.2083036 -3.0971904e-21)
(-0.11467997 0.20697753 9.7066228e-21)
(-0.12479458 0.20513623 3.2274664e-21)
(-0.13560363 0.20307737 7.1402033e-21)
(-0.14705117 0.20097258 -7.5668827e-21)
(-0.15893805 0.19871871 -3.3575738e-21)
(-0.17142606 0.19569417 7.941661e-21)
(-0.1846365 0.1915472 -3.4528199e-21)
(-0.19831624 0.18618377 -1.9705018e-21)
(-0.21232798 0.17965129 5.1320896e-21)
(-0.22650832 0.17212426 1.4556767e-20)
(-0.24072982 0.16384463 4.8019963e-21)
(-0.25489612 0.15508626 -3.2000182e-21)
(-0.26890227 0.1461087 -8.1951948e-21)
(-0.28257778 0.13710248 -9.1320605e-21)
(-0.29565302 0.12816483 -1.0742034e-20)
(-0.30777701 0.1193304 -2.3847364e-20)
(-0.31846991 0.11057178 9.3948757e-22)
(-0.32716897 0.10183509 -1.099732e-20)
(-0.33323159 0.093129796 6.6696168e-20)
(-0.33605663 0.084623139 1.9669895e-20)
(-0.3352124 0.076502607 2.3425339e-20)
(-0.33044893 0.068470285 6.9012618e-20)
(-0.32124836 0.060220691 -8.5304664e-20)
(-0.30702307 0.051689622 1.9960193e-20)
(-0.28703801 0.042811424 6.6671104e-20)
(-0.26028517 0.033513095 8.450819e-20)
(-0.22558345 0.023629889 1.0971137e-20)
(-0.18153874 0.012733936 -2.8425627e-20)
(-0.12694331 0.0010915547 -4.6217901e-20)
(-0.061779183 -0.013412045 2.0006216e-20)
(0.02143489 -0.03562647 -3.5589508e-20)
(0.12787977 -0.073219658 2.7020733e-20)
(0.27211239 -0.13783517 8.3712032e-21)
(0.47455598 -0.23615705 1.9243255e-20)
(0.70456332 -0.32345314 -5.2703136e-20)
(0.86590754 -0.3379722 -1.6985614e-21)
(0.93930325 -0.29496858 2.374609e-21)
(-0.00055366526 0.0021913362 -1.9154111e-21)
(-0.0017156492 0.0067727843 -5.129883e-22)
(-0.003000124 0.011811118 5.6322945e-22)
(-0.0044173179 0.017337326 2.7677025e-21)
(-0.0059779057 0.023382227 -3.3174399e-21)
(-0.0076931955 0.029975705 2.8147329e-21)
(-0.0095750521 0.037145768 1.3444198e-21)
(-0.011635777 0.044917356 -7.167049e-23)
(-0.013888042 0.053310819 -1.1309432e-21)
(-0.016344767 0.062340026 -6.4205511e-21)
(-0.019018987 0.072010047 1.075127e-20)
(-0.021923671 0.082314341 -1.2874136e-20)
(-0.02507152 0.093231421 3.7630784e-21)
(-0.02847474 0.10472095 5.0824652e-21)
(-0.032144779 0.11671927 -7.7428155e-21)
(-0.03609206 0.12913453 1.5139143e-20)
(-0.040325693 0.14184139 -1.8171006e-20)
(-0.0448532 0.15467592 -2.8717918e-22)
(-0.049680251 0.16743094 -1.0148274e-20)
(-0.054810457 0.17985306 3.9561376e-20)
(-0.060245314 0.19164279 -9.3750422e-21)
(-0.065984548 0.20246052 -3.7903834e-20)
(-0.072027397 0.21194282 1.7351695e-20)
(-0.078375831 0.2197358 1.9989262e-20)
(-0.085040764 0.22555304 -4.7729751e-21)
(-0.092050539 0.22925726 -2.3872593e-20)
(-0.099456062 0.23093796 3.3795051e-20)
(-0.10732394 0.23092329 -3.490845e-20)
(-0.1157169 0.22968261 2.5469693e-20)
(-0.1246726 0.22767032 -4.5085576e-21)
(-0.13418979 0.22521615 7.5108409e-21)
(-0.14421551 0.22249866 1.0390489e-20)
(-0.15462911 0.21954633 -3.7786563e-21)
(-0.1653371 0.21619078 -8.977917e-22)
(-0.17626653 0.21189839 -1.5068875e-20)
(-0.18735502 0.20638981 2.8598112e-21)
(-0.19859855 0.19965531 -8.1609576e-21)
(-0.20995419 0.19184206 7.5556973e-21)
(-0.22134582 0.18319306 -4.3094653e-21)
(-0.23265286 0.17399475 -3.2501859e-21)
(-0.24369262 0.16451579 -3.0591801e-21)
(-0.25419735 0.15495057 -3.0547644e-21)
(-0.26380099 0.14539883 2.024178e-20)
(-0.27205156 0.13589031 1.7417508e-20)
(-0.2784493 0.12638688 -4.8081085e-21)
(-0.28240414 0.11684339 3.6640177e-21)
(-0.28329743 0.10725746 -1.4872204e-20)
(-0.28068422 0.0978451 3.2340798e-20)
(-0.27408704 0.088942247 3.9931102e-20)
(-0.26326972 0.080249804 1.243486e-20)
(-0.24770706 0.071346636 3.3527847e-20)
(-0.22676199 0.062117615 -1.150983e-21)
(-0.1996295 0.052421032 -1.7473873e-20)
(-0.16521328 0.042124347 -8.8487164e-20)
(-0.12231944 0.031023775 4.5153645e-20)
(-0.06939967 0.018887655 -1.8604814e-20)
(-0.0072135732 0.0056504426 5.435275e-20)
(0.067356343 -0.011179836 -9.1180298e-20)
(0.16197245 -0.037036904 5.071727e-20)
(0.28346396 -0.08011668 -1.6870518e-20)
(0.45032124 -0.15379641 5.4718281e-22)
(0.67707315 -0.25651595 -9.1685994e-21)
(0.88302041 -0.33825987 -2.3270324e-20)
(0.98480432 -0.34149065 1.893232e-20)
(1.0001986 -0.29136062 -3.8625743e-21)
(-0.00064250928 0.0022425921 4.416944e-21)
(-0.0019886385 0.0069352246 3.037633e-21)
(-0.0034730562 0.012100996 -4.7669046e-21)
(-0.0051064039 0.01777342 1.2549308e-22)
(-0.0068996715 0.02398626 4.3063256e-21)
(-0.0088641892 0.03077286 2.2506809e-21)
(-0.011011499 0.038165286 -4.7386208e-21)
(-0.01335319 0.046193212 7.7787873e-22)
(-0.01590072 0.054882489 -1.0948613e-20)
(-0.018665189 0.064253331 2.1302776e-21)
(-0.021657076 0.074318068 5.4922886e-23)
(-0.024885922 0.085078364 -7.8054067e-21)
(-0.028359983 0.096521849 2.4932989e-20)
(-0.032085838 0.10861809 -1.157409e-20)
(-0.036067978 0.12131387 -2.0642183e-20)
(-0.040308384 0.13452779 2.1868723e-20)
(-0.044806127 0.14814432 -2.6804804e-21)
(-0.049557011 0.16200751 1.5051485e-20)
(-0.054553306 0.17591486 1.105735e-20)
(-0.059783636 0.1896123 -3.4314624e-20)
(-0.065233161 0.20279163 2.5335211e-20)
(-0.070884296 0.21509326 -3.2689683e-20)
(-0.076718554 0.22611852 3.7300592e-21)
(-0.082720484 0.23545878 -1.4850645e-20)
(-0.08888494 0.2427502 3.0965238e-20)
(-0.09522744 0.24775827 -6.9988067e-21)
(-0.10179247 0.25047256 -1.6727968e-20)
(-0.10864932 0.25115225 3.7690015e-20)
(-0.11587073 0.25025746 -1.5125687e-20)
(-0.12350562 0.24828718 -1.5420644e-20)
(-0.13156033 0.24563348 1.1928172e-20)
(-0.13999009 0.24252379 1.5936286e-21)
(-0.14869449 0.23902364 -7.6257528e-21)
(-0.15752231 0.23503724 4.1650032e-21)
(-0.16635021 0.23030503 -6.6174165e-21)
(-0.17513972 0.22458496 2.3904231e-20)
(-0.18389236 0.21777547 -1.3251629e-20)
(-0.19258925 0.20991853 -8.5013839e-21)
(-0.20116669 0.20117596 -1.8708546e-20)
(-0.20949612 0.19178275 -3.0461493e-21)
(-0.21736423 0.1819852 2.2001148e-20)
(-0.22445366 0.17197189 -9.3200408e-21)
(-0.23035289 0.16184784 -1.4519956e-20)
(-0.23457686 0.15166514 -2.0288634e-21)
(-0.23659052 0.14142261 1.6754694e-20)
(-0.2358332 0.13109337 1.5492726e-20)
(-0.23168837 0.12069756 -5.0011464e-20)
(-0.22363861 0.11049591 -2.8073726e-20)
(-0.21142134 0.10090323 -6.4627135e-20)
(-0.19468567 0.091663827 -2.3812458e-20)
(-0.17292478 0.082213261 -9.7025927e-21)
(-0.1454303 0.072379094 -7.6332331e-20)
(-0.11133222 0.061940763 -3.1484644e-20)
(-0.069455563 0.050713891 1.0750094e-19)
(-0.018496813 0.038495172 -8.7953326e-20)
(0.042606474 0.025460986 8.1370328e-20)
(0.11192982 0.010758898 -3.8702484e-20)
(0.19590347 -0.008708805 1.8526124e-19)
(0.30229 -0.038624471 8.9980125e-20)
(0.44102079 -0.088105993 -3.423961e-20)
(0.63689051 -0.16961459 -4.7857455e-20)
(0.87570724 -0.26953154 -6.461675e-20)
(1.0332113 -0.34058107 -7.8272311e-21)
(1.0654494 -0.33253896 -2.7691348e-21)
(1.0341362 -0.27859373 6.6491349e-21)
(-0.00071556978 0.0022250968 8.239289e-23)
(-0.0022132365 0.0068859011 -5.8656079e-21)
(-0.0038622205 0.012022801 6.9119103e-21)
(-0.0056735229 0.017671233 3.3242274e-21)
(-0.0076584344 0.023867382 -6.654169e-21)
(-0.0098283412 0.030647681 -2.1533749e-21)
(-0.01219456 0.038048069 1.0433203e-20)
(-0.014768137 0.046103027 -1.1212929e-20)
(-0.017559583 0.05484431 -2.3614339e-21)
(-0.020578547 0.064299315 -9.3745689e-21)
(-0.023833447 0.074489012 2.4834254e-20)
(-0.027331027 0.085425324 2.9976606e-22)
(-0.03107587 0.097107879 -2.214585e-20)
(-0.035069846 0.10952002 2.3661211e-20)
(-0.039311538 0.12262399 -1.6838801e-20)
(-0.043795643 0.13635526 -6.2003371e-21)
(-0.048512383 0.15061592 1.2844795e-20)
(-0.053446993 0.16526743 -1.1467612e-20)
(-0.058579327 0.18012287 -1.5091256e-20)
(-0.063883665 0.19493966 3.1401318e-22)
(-0.06932892 0.20941396 2.3027755e-20)
(-0.074879505 0.22317911 -1.395924e-20)
(-0.080497431 0.23581262 7.5910326e-21)
(-0.086146659 0.24685855 3.5533144e-20)
(-0.091801091 0.25587535 1.1524766e-20)
(-0.097456657 0.26251776 -2.9728139e-20)
(-0.1031435 0.26664388 2.8337035e-21)
(-0.1089273 0.26839754 -3.0001352e-20)
(-0.11488993 0.26818632 1.6482509e-20)
(-0.12109684 0.26653453 -8.3040776e-21)
(-0.12757088 0.26390641 1.1279076e-20)
(-0.13428221 0.26060736 2.700153e-21)
(-0.14114952 0.25677223 -1.3137643e-20)
(-0.14804945 0.25238783 1.3416713e-20)
(-0.15485824 0.2473175 2.0510812e-20)
(-0.16149617 0.24138966 -1.5764334e-21)
(-0.16791589 0.23448774 -2.369103e-20)
(-0.17407092 0.2265945 3.1990766e-20)
(-0.17988351 0.21780386 -7.1611349e-21)
(-0.18521415 0.20829355 1.6602091e-20)
(-0.18983399 0.1982698 -2.8840175e-21)
(-0.19340715 0.18790613 2.9357991e-20)
(-0.19550678 0.17731755 1.4838964e-20)
(-0.19563735 0.16657402 2.0328185e-20)
(-0.19325435 0.1556979 -8.7046152e-20)
(-0.1877912 0.1446753 -3.0773641e-20)
(-0.17871346 0.13352757 4.2617433e-20)
(-0.16537838 0.12260871 -3.6689522e-20)
(-0.14771719 0.11239906 -3.2800263e-20)
(-0.12521445 0.10270482 3.8833649e-20)
(-0.097399541 0.092818139 2.1411918e-20)
(-0.063484283 0.082485588 5.288056e-20)
(-0.022528742 0.071402899 2.6646332e-20)
(0.026762771 0.059324154 -9.1829665e-20)
(0.085754751 0.046211422 -5.1893222e-20)
(0.15384081 0.032428736 -8.3590099e-21)
(0.23054086 0.016473459 5.3025764e-22)
(0.32442624 -0.0058710357 -4.6176036e-20)
(0.4443674 -0.040316878 6.3659832e-20)
(0.60643638 -0.097325089 7.78508e-20)
(0.83364112 -0.18214963 2.036643e-20)
(1.0528191 -0.27327146 1.1922725e-19)
(1.1420736 -0.32512322 6.1991996e-20)
(1.1120138 -0.31266105 8.5978585e-21)
(1.0507118 -0.2613787 3.354489e-21)
(-0.00076564263 0.0021383017 -2.8748424e-21)
(-0.0023673028 0.0066227845 -2.5446131e-21)
(-0.0041292386 0.011572443 5.2887384e-21)
(-0.0060627153 0.017023858 -9.0580882e-21)
(-0.0081792736 0.023014919 -2.2645244e-21)