/*--------------------------------*- C++ -*----------------------------------*\
  =========                 |
  \\      /  F ield         | OpenFOAM: The Open Source CFD Toolbox
   \\    /   O peration     | Website:  https://openfoam.org
    \\  /    A nd           | Version:  13
     \\/     M anipulation  |
\*---------------------------------------------------------------------------*/
FoamFile
{
    format      ascii;
    class       volScalarField;
    location    "20.402295";
    object      p;
}
// * * * * * * * * * * * * * * * * * * * * * * * * * * * * * * * * * * * * * //

dimensions      [0 2 -2 0 0 0 0];

internalField   nonuniform List<scalar> 
17140
(
-0.21947867
-0.2195129
-0.21955342
-0.21959657
-0.21964375
-0.21969564
-0.21975249
-0.21981457
-0.21988218
-0.21995558
-0.22003502
-0.2201207
-0.22021279
-0.22031142
-0.22041671
-0.22052876
-0.22064774
-0.22077396
-0.22090806
-0.22105122
-0.22120565
-0.22137532
-0.22156702
-0.22179225
-0.22206987
-0.22242985
-0.22291759
-0.22359671
-0.22454587
-0.22584453
-0.22754739
-0.22965814
-0.23211895
-0.23482369
-0.23764719
-0.24047555
-0.24322788
-0.24586721
-0.24840167
-0.25087878
-0.25337466
-0.25598081
-0.25879202
-0.2619011
-0.26539125
-0.26933222
-0.27378309
-0.27880915
-0.28447737
-0.290864
-0.29803573
-0.30608239
-0.31505885
-0.32506476
-0.33593928
-0.34765235
-0.35910246
-0.37029713
-0.37812934
-0.38466362
-0.37808303
-0.36398827
-0.31088472
-0.24095908
-0.10172376
-0.21994863
-0.21998169
-0.22002188
-0.22006322
-0.22010838
-0.22015814
-0.22021267
-0.22027223
-0.2203371
-0.22040754
-0.22048378
-0.22056601
-0.22065438
-0.22074901
-0.22085
-0.22095744
-0.22107147
-0.22119236
-0.22132069
-0.2214576
-0.2216052
-0.22176729
-0.22195047
-0.22216587
-0.22243182
-0.22277749
-0.22324707
-0.2239027
-0.22482156
-0.22608229
-0.22774031
-0.22980185
-0.2322129
-0.23487132
-0.23765513
-0.24045239
-0.2431831
-0.24581029
-0.24834173
-0.25082443
-0.25333439
-0.25596333
-0.25880751
-0.26196241
-0.26551534
-0.26953818
-0.27409777
-0.27926575
-0.28511739
-0.29173893
-0.29920935
-0.30763143
-0.31706696
-0.32762722
-0.33914744
-0.3516119
-0.36384772
-0.37587238
-0.3846563
-0.39224309
-0.38663872
-0.37245515
-0.31840952
-0.24639462
-0.1017201
-0.2207509
-0.22078178
-0.22081926
-0.22085793
-0.2209002
-0.22094678
-0.22099785
-0.22105365
-0.22111444
-0.22118047
-0.22125195
-0.22132906
-0.22141193
-0.22150068
-0.22159538
-0.2216961
-0.22180294
-0.22191617
-0.22203628
-0.22216434
-0.22230235
-0.22245388
-0.22262524
-0.22282702
-0.22307674
-0.22340226
-0.22384592
-0.22446741
-0.22534144
-0.22654516
-0.22813481
-0.23012036
-0.23245361
-0.23503855
-0.23775809
-0.24050332
-0.2431954
-0.24579714
-0.24831529
-0.25079543
-0.25331245
-0.25595716
-0.25882708
-0.26202032
-0.26562664
-0.2697196
-0.27437501
-0.27967106
-0.28569126
-0.29253203
-0.30028425
-0.30906434
-0.31894239
-0.3300487
-0.34221182
-0.35543533
-0.36845451
-0.38128167
-0.3909496
-0.39938849
-0.39493363
-0.38230314
-0.32904275
-0.25606029
-0.10690428
-0.22185994
-0.22188791
-0.22192176
-0.22195685
-0.22199524
-0.22203757
-0.222084
-0.22213476
-0.22219009
-0.22225023
-0.22231536
-0.22238564
-0.22246121
-0.22254216
-0.22262854
-0.2227204
-0.22281785
-0.22292108
-0.22303056
-0.22314726
-0.22327302
-0.2234112
-0.22356766
-0.22375236
-0.22398171
-0.22428186
-0.22469263
-0.22527042
-0.22608646
-0.22721564
-0.22871496
-0.23059905
-0.23282732
-0.23531205
-0.23794285
-0.24061499
-0.24325126
-0.24581404
-0.24830831
-0.25077744
-0.25329398
-0.25594707
-0.25883457
-0.26205712
-0.26570393
-0.26985316
-0.27458891
-0.27999568
-0.28616479
-0.29320279
-0.30121165
-0.31032194
-0.32061302
-0.33223712
-0.34502362
-0.35899696
-0.37277921
-0.3863729
-0.39694
-0.40654878
-0.40338829
-0.39194687
-0.34012046
-0.26796615
-0.116514
-0.22323766
-0.22326198
-0.22329131
-0.22332193
-0.22335546
-0.22339245
-0.22343307
-0.22347753
-0.22352603
-0.22357879
-0.22363599
-0.22369776
-0.22376423
-0.22383547
-0.22391154
-0.22399247
-0.22407835
-0.22416934
-0.22426588
-0.22436882
-0.22447987
-0.22460211
-0.22474093
-0.22490551
-0.22511093
-0.2253813
-0.22575335
-0.22627942
-0.22702632
-0.22806589
-0.22945553
-0.23121517
-0.23331336
-0.23567262
-0.23819113
-0.2407696
-0.24333298
-0.24584314
-0.24830272
-0.25075196
-0.25325984
-0.25591321
-0.2588093
-0.26204954
-0.26572206
-0.26991279
-0.27471079
-0.28020707
-0.28649975
-0.29370574
-0.30193789
-0.31134188
-0.32200772
-0.33411893
-0.34751065
-0.36219899
-0.3766813
-0.39095946
-0.40233064
-0.41296707
-0.41106194
-0.40106769
-0.35110559
-0.27987851
-0.12793768
-0.2248298
-0.2248498
-0.22487376
-0.22489906
-0.22492681
-0.22495747
-0.22499117
-0.22502812
-0.22506849
-0.22511248
-0.22516023
-0.22521189
-0.22526756
-0.2253273
-0.22539118
-0.22545921
-0.22553149
-0.22560817
-0.22568963
-0.22577667
-0.22587082
-0.22597489
-0.22609377
-0.22623576
-0.2264145
-0.22665174
-0.22698073
-0.2274491
-0.22811845
-0.22905665
-0.23032099
-0.23193681
-0.23388292
-0.23609381
-0.23847802
-0.24094307
-0.24341677
-0.24586056
-0.2482743
-0.25069422
-0.2531848
-0.25582944
-0.25872412
-0.26196849
-0.26565196
-0.2698667
-0.27470467
-0.28026447
-0.28665041
-0.29399
-0.30240655
-0.31206221
-0.32306127
-0.33559419
-0.34951163
-0.36491207
-0.3800808
-0.39492511
-0.40699654
-0.41859805
-0.41779282
-0.4086992
-0.36033932
-0.29083602
-0.13923043
-0.2265687
-0.2265838
-0.22660174
-0.22662098
-0.22664214
-0.22666556
-0.22669138
-0.22671975
-0.22675084
-0.22678481
-0.22682179
-0.2268619
-0.22690524
-0.22695188
-0.22700187
-0.22705526
-0.22711213
-0.22717264
-0.22723717
-0.22730643
-0.22738184
-0.22746592
-0.22756306
-0.22768065
-0.2278308
-0.22803278
-0.22831605
-0.22872309
-0.22930961
-0.23013867
-0.23126662
-0.23272386
-0.23449999
-0.23654282
-0.23877293
-0.24110607
-0.24347383
-0.24583749
-0.24819383
-0.25057442
-0.25303845
-0.25566452
-0.25854638
-0.26178077
-0.26545889
-0.26967684
-0.27453033
-0.28012503
-0.2865703
-0.29400468
-0.30256259
-0.31242505
-0.32367449
-0.33663242
-0.35106812
-0.36692708
-0.38258281
-0.39801626
-0.41071975
-0.42305054
-0.42310899
-0.41438697
-0.36722534
-0.29782753
-0.15106493
-0.22837518
-0.22838499
-0.22839668
-0.22840927
-0.22842319
-0.22843867
-0.22845582
-0.22847477
-0.22849566
-0.2285186
-0.22854372
-0.22857113
-0.2286009
-0.22863311
-0.22866783
-0.22870513
-0.2287451
-0.22878793
-0.228834
-0.22888399
-0.2289392
-0.22900192
-0.22907606
-0.22916812
-0.22928868
-0.22945449
-0.22969112
-0.23003568
-0.23053751
-0.23125406
-0.2322397
-0.23352904
-0.23512231
-0.23698143
-0.23904048
-0.24122492
-0.24347121
-0.24574097
-0.24802789
-0.25035836
-0.25278573
-0.25538278
-0.25823925
-0.26144874
-0.26510384
-0.26930311
-0.27414589
-0.27974487
-0.2862128
-0.29370054
-0.30235471
-0.31234304
-0.32390655
-0.33733691
-0.35210583
-0.36810231
-0.38382999
-0.39987137
-0.41331864
-0.42610927
-0.42651216
-0.41738012
-0.37070129
-0.29986297
-0.15863677
-0.23016324
-0.23016747
-0.23017257
-0.23017816
-0.23018443
-0.23019153
-0.23019952
-0.2302085
-0.23021857
-0.23022982
-0.23024234
-0.23025622
-0.23027156
-0.23028842
-0.23030688
-0.23032704
-0.23034904
-0.23037309
-0.2303996
-0.23042925
-0.23046328
-0.23050376
-0.23055419
-0.23062026
-0.23071109
-0.23084098
-0.23103173
-0.23131503
-0.23173361
-0.23233872
-0.23318158
-0.23429968
-0.23570293
-0.23736749
-0.23924196
-0.24126299
-0.24337314
-0.24553521
-0.24774007
-0.25000867
-0.25238815
-0.25494504
-0.25776266
-0.26093145
-0.2645457
-0.26870414
-0.27350837
-0.27907938
-0.28553176
-0.29302933
-0.30170976
-0.31189392
-0.32384428
-0.33753017
-0.35234782
-0.36836108
-0.3839387
-0.40042282
-0.41461953
-0.42745406
-0.42756822
-0.41718834
-0.36894139
-0.29658417
-0.16460984
-0.23184485
-0.23184344
-0.23184187
-0.23184035
-0.23183887
-0.23183744
-0.2318361
-0.23183492
-0.23183394
-0.23183322
-0.23183284
-0.23183286
-0.23183336
-0.23183442
-0.23183614
-0.23183863
-0.23184209
-0.23184677
-0.23185311
-0.23186185
-0.23187416
-0.23189198
-0.23191846
-0.23195857
-0.23202012
-0.23211521
-0.23226207
-0.23248725
-0.23282692
-0.23332567
-0.2340305
-0.23498008
-0.23619237
-0.23765688
-0.23933723
-0.24118249
-0.24314278
-0.24518318
-0.24729244
-0.24948616
-0.25180508
-0.25430922
-0.25707388
-0.26018592
-0.26374054
-0.26783679
-0.27257765
-0.27809008
-0.28448817
-0.2919439
-0.30068633
-0.31112733
-0.32328659
-0.33696857
-0.35178424
-0.36762727
-0.38307653
-0.39974481
-0.41443077
-0.42679257
-0.42546789
-0.41323757
-0.36043173
-0.28810931
-0.16662394
-0.23333489
-0.23332802
-0.23331998
-0.23331156
-0.23330253
-0.23329278
-0.23328234
-0.2332712
-0.23325939
-0.23324692
-0.23323382
-0.23322015
-0.23320597
-0.23319135
-0.23317641
-0.2331613
-0.23314623
-0.23313153
-0.23311769
-0.23310548
-0.2330961
-0.23309138
-0.2330942
-0.23310894
-0.23314232
-0.23320444
-0.23331038
-0.23348189
-0.23374896
-0.23414945
-0.23472523
-0.23551475
-0.23654135
-0.23780568
-0.23928658
-0.24094636
-0.24274402
-0.24464843
-0.24664726
-0.24875134
-0.250995
-0.25343163
-0.25612849
-0.25916759
-0.26264357
-0.26665599
-0.27130937
-0.27673581
-0.28304213
-0.29042844
-0.29931292
-0.30990654
-0.32205686
-0.33564279
-0.35031636
-0.36575536
-0.38126454
-0.39790743
-0.41250246
-0.42346813
-0.42025225
-0.40302518
-0.34738697
-0.27886419
-0.16138947
-0.23455812
-0.23454623
-0.23453223
-0.23451745
-0.23450143
-0.23448399
-0.23446508
-0.23444468
-0.23442274
-0.23439924
-0.23437419
-0.2343476
-0.23431949
-0.23428995
-0.23425909
-0.23422706
-0.23419413
-0.23416065
-0.23412718
-0.23409453
-0.23406392
-0.23403715
-0.23401688
-0.23400707
-0.23401352
-0.23404474
-0.23411307
-0.23423616
-0.23443834
-0.2347509
-0.2352098
-0.23585226
-0.23670415
-0.23777416
-0.23905458
-0.2405216
-0.24214436
-0.24389737
-0.24576887
-0.24776603
-0.24991739
-0.25226884
-0.25488145
-0.25783134
-0.26121079
-0.26511939
-0.26965808
-0.27497089
-0.28113075
-0.28851675
-0.29748222
-0.30809069
-0.32009012
-0.33349575
-0.34784121
-0.3628881
-0.37824921
-0.39475042
-0.40842826
-0.41714726
-0.41001796
-0.38724367
-0.33069271
-0.26411322
-0.16029777
-0.23545636
-0.23544016
-0.23542103
-0.23540076
-0.2353787
-0.23535456
-0.23532828
-0.23529977
-0.23526894
-0.23523572
-0.23520005
-0.23516193
-0.23512134
-0.23507832
-0.23503297
-0.23498545
-0.23493602
-0.23488505
-0.23483312
-0.23478108
-0.23473013
-0.23468204
-0.23463932
-0.23460556
-0.23458588
-0.23458749
-0.23462058
-0.23469935
-0.23484325
-0.23507728
-0.23542878
-0.23594951
-0.23664978
-0.23752417
-0.23860669
-0.23987791
-0.24131562
-0.24290186
-0.24462773
-0.24649616
-0.24853414
-0.25077948
-0.25328806
-0.25613062
-0.25939534
-0.26318001
-0.26759011
-0.27275631
-0.2787628
-0.28615981
-0.29511694
-0.3055648
-0.31734984
-0.33044781
-0.3442656
-0.35913204
-0.37398946
-0.3898509
-0.40153318
-0.40685171
-0.39395846
-0.3681326
-0.31062827
-0.24809043
-0.15645938
-0.2359958
-0.23597621
-0.23595306
-0.23592844
-0.23590159
-0.23587212
-0.23583993
-0.23580489
-0.23576685
-0.23572569
-0.23568131
-0.23563364
-0.23558263
-0.23552827
-0.23547061
-0.23540978
-0.23534601
-0.23527966
-0.23521129
-0.23514172
-0.23507213
-0.23500421
-0.23494033
-0.23488377
-0.23483909
-0.23481251
-0.23481256
-0.23485077
-0.23494271
-0.23510923
-0.2353704
-0.23574538
-0.23630843
-0.23705096
-0.23792575
-0.23899627
-0.2402368
-0.24163867
-0.2431955
-0.24491239
-0.24681006
-0.24892354
-0.25130423
-0.25401811
-0.25714854
-0.26079414
-0.26506089
-0.27005368
-0.27596935
-0.28327307
-0.2921222
-0.30231396
-0.31379302
-0.3263564
-0.33980588
-0.35413672
-0.36837255
-0.38244328
-0.39136143
-0.39144905
-0.37454606
-0.34642518
-0.28911753
-0.23512173
-0.15341412
-0.23616983
-0.23614796
-0.23612207
-0.2360945
-0.23606434
-0.23603119
-0.23599487
-0.23595522
-0.23591205
-0.23586518
-0.23581445
-0.23575974
-0.23570094
-0.23563797
-0.23557084
-0.23549959
-0.2354244
-0.23534557
-0.23526357
-0.23517915
-0.23509339
-0.23500783
-0.23492464
-0.23484679
-0.23477832
-0.23472464
-0.23469296
-0.23469279
-0.23473653
-0.23484045
-0.23502591
-0.23530658
-0.23569075
-0.23623229
-0.23696773
-0.23785647
-0.23889415
-0.24009463
-0.24145824
-0.2429922
-0.24471732
-0.24666759
-0.248891
-0.25145022
-0.25442497
-0.25791471
-0.26202345
-0.26683765
-0.27266481
-0.27982787
-0.28843832
-0.2983025
-0.30931185
-0.32141936
-0.33432847
-0.34782052
-0.36050881
-0.37238211
-0.37763968
-0.37267804
-0.35238904
-0.3223985
-0.27205085
-0.22154326
-0.14994788
-0.23599655
-0.23597364
-0.23594646
-0.23591746
-0.23588569
-0.23585068
-0.23581224
-0.23577016
-0.23572421
-0.23567417
-0.23561983
-0.23556098
-0.23549747
-0.23542915
-0.23535592
-0.23527776
-0.23519472
-0.235107
-0.23501493
-0.2349191
-0.2348204
-0.23472012
-0.23462011
-0.2345229
-0.23443194
-0.23435178
-0.23428842
-0.23424956
-0.23424509
-0.23428742
-0.23439229
-0.23457801
-0.23485889
-0.23527092
-0.23580407
-0.23644914
-0.23728511
-0.23827205
-0.23941692
-0.24073338
-0.24224719
-0.24399412
-0.24602253
-0.24839336
-0.25118677
-0.25449945
-0.25843292
-0.26309433
-0.26875979
-0.27575155
-0.28403151
-0.2934989
-0.30400069
-0.3154604
-0.32746738
-0.33964244
-0.35075311
-0.36020188
-0.36002596
-0.35157216
-0.32953658
-0.30027875
-0.25477447
-0.21060088
-0.14671835
-0.23552246
-0.23549968
-0.23547246
-0.23544358
-0.23541188
-0.23537687
-0.23533835
-0.23529608
-0.23524979
-0.23519922
-0.23514412
-0.23508424
-0.23501933
-0.23494918
-0.2348736
-0.23479247
-0.23470571
-0.23461335
-0.23451558
-0.23441273
-0.23430542
-0.23419462
-0.23408172
-0.23396872
-0.23385834
-0.23375422
-0.23366109
-0.23358506
-0.23353382
-0.23351698
-0.23354637
-0.23363613
-0.23380541
-0.23404519
-0.23441934
-0.23493912
-0.23549778
-0.23620785
-0.23710053
-0.23815606
-0.23941031
-0.24090443
-0.24269054
-0.24482985
-0.24740795
-0.25051541
-0.25425485
-0.25876215
-0.26424705
-0.2709822
-0.27891857
-0.28785926
-0.29771312
-0.30803632
-0.31906092
-0.3301982
-0.33901654
-0.3437142
-0.34051846
-0.33002414
-0.3065719
-0.28149164
-0.23932722
-0.20003154
-0.14301467
-0.23481131
-0.23478976
-0.23476386
-0.23473653
-0.23470649
-0.23467324
-0.23463657
-0.23459622
-0.23455192
-0.23450338
-0.23445031
-0.2343924
-0.23432937
-0.23426093
-0.23418681
-0.23410676
-0.23402058
-0.23392813
-0.23382937
-0.2337244
-0.23361348
-0.23349715
-0.23337627
-0.23325213
-0.23312657
-0.23300209
-0.23288201
-0.23277058
-0.23267318
-0.23259651
-0.23254889
-0.23254013
-0.23258316
-0.23268804
-0.23285942
-0.23314065
-0.23352326
-0.23397426
-0.23455162
-0.23530278
-0.23624446
-0.23742919
-0.23891697
-0.24077184
-0.24308907
-0.24595035
-0.24946192
-0.2537539
-0.25908061
-0.26553675
-0.27295059
-0.28123348
-0.28980833
-0.29987044
-0.31011629
-0.31928037
-0.32474951
-0.32590256
-0.32140722
-0.3075998
-0.28817371
-0.26344837
-0.2252798
-0.19058158
-0.13939255
-0.23393431
-0.23391493
-0.23389149
-0.2338669
-0.23383983
-0.23380979
-0.23377659
-0.23373998
-0.23369967
-0.23365537
-0.23360676
-0.23355353
-0.23349535
-0.23343188
-0.23336278
-0.23328771
-0.23320636
-0.23311842
-0.23302366
-0.23292189
-0.23281305
-0.2326972
-0.23257461
-0.23244579
-0.23231158
-0.23217318
-0.23203224
-0.23189092
-0.23175196
-0.23161886
-0.23149606
-0.23138919
-0.23130549
-0.23125368
-0.23123988
-0.23127908
-0.23139656
-0.23156992
-0.23183727
-0.23224016
-0.23282034
-0.23363892
-0.23476876
-0.2362793
-0.23827993
-0.24083288
-0.24405385
-0.24807538
-0.25307562
-0.25925343
-0.26568858
-0.27327567
-0.28189113
-0.29161512
-0.29997304
-0.30604744
-0.30893334
-0.30868973
-0.30169778
-0.28976913
-0.27008194
-0.2474801
-0.21260576
-0.18164445
-0.1355079
-0.23297224
-0.23295569
-0.23293556
-0.23291458
-0.23289144
-0.23286571
-0.23283721
-0.2328057
-0.23277091
-0.23273257
-0.23269035
-0.23264395
-0.23259302
-0.2325372
-0.23247611
-0.23240935
-0.23233652
-0.2322572
-0.23217098
-0.23207743
-0.23197618
-0.23186687
-0.23174917
-0.23162283
-0.23148763
-0.23134342
-0.23119006
-0.23102739
-0.23085521
-0.23067334
-0.2304818
-0.2302812
-0.23007354
-0.22986265
-0.22965401
-0.22945606
-0.22927885
-0.22913991
-0.229059
-0.2290793
-0.22925556
-0.22965735
-0.2303734
-0.23147928
-0.23309412
-0.23526424
-0.23811322
-0.24173496
-0.24630199
-0.25139938
-0.25799865
-0.26592615
-0.27412794
-0.28214315
-0.28795904
-0.29221829
-0.29387508
-0.29117815
-0.28376165
-0.27210383
-0.25387618
-0.23273493
-0.20087639
-0.17334142
-0.13161533
-0.23197737
-0.23196407
-0.23194779
-0.23193092
-0.2319123
-0.23189155
-0.23186852
-0.23184301
-0.23181479
-0.23178359
-0.23174916
-0.23171118
-0.23166935
-0.23162331
-0.23157268
-0.23151706
-0.231456
-0.23138902
-0.23131559
-0.23123514
-0.23114702
-0.23105051
-0.23094481
-0.23082893
-0.23070167
-0.23056155
-0.23040662
-0.23023433
-0.23004137
-0.22982355
-0.22957583
-0.22929269
-0.22897078
-0.22860636
-0.22819963
-0.22775672
-0.22728846
-0.22681275
-0.22635767
-0.22597011
-0.22571258
-0.22566094
-0.22591912
-0.22655491
-0.22770436
-0.22941084
-0.23178114
-0.2348193
-0.2385869
-0.24420888
-0.25158551
-0.25852761
-0.26576623
-0.2715038
-0.27589011
-0.27938608
-0.27815148
-0.27454481
-0.26747918
-0.25632315
-0.23876407
-0.21921418
-0.19007479
-0.16546958
-0.12757519
-0.23101625
-0.23100653
-0.23099463
-0.23098229
-0.23096864
-0.2309534
-0.23093646
-0.23091764
-0.23089676
-0.2308736
-0.23084794
-0.23081952
-0.23078806
-0.23075322
-0.23071466
-0.23067197
-0.23062468
-0.23057237
-0.23051449
-0.23045037
-0.23037921
-0.23030004
-0.23021164
-0.23011245
-0.23000046
-0.22987301
-0.22972653
-0.2295563
-0.22935606
-0.22911788
-0.22883178
-0.22848449
-0.22806412
-0.2275646
-0.22697452
-0.22629621
-0.22553991
-0.22472842
-0.22389595
-0.22309599
-0.2223965
-0.22187065
-0.22163255
-0.22172804
-0.2223413
-0.22350445
-0.22518399
-0.22804239
-0.23258363
-0.23866885
-0.24478956
-0.251451
-0.25636292
-0.26097931
-0.26476594
-0.26519455
-0.26303379
-0.25976357
-0.25217222
-0.2412814
-0.22474734
-0.20666752
-0.179968
-0.15798804
-0.12348051
-0.23007244
-0.23006655
-0.23005941
-0.2300521
-0.23004406
-0.23003511
-0.23002517
-0.23001416
-0.23000193
-0.22998835
-0.22997327
-0.22995652
-0.2299379
-0.22991718
-0.22989419
-0.22986852
-0.22983885
-0.22980452
-0.22976573
-0.22972193
-0.22967218
-0.22961527
-0.22954969
-0.22947342
-0.22938377
-0.22927711
-0.22914858
-0.22899157
-0.22879749
-0.22855575
-0.22824512
-0.22785509
-0.22737758
-0.22677945
-0.22604204
-0.22516705
-0.22415757
-0.2230391
-0.22184924
-0.22065279
-0.21951217
-0.21849671
-0.21771784
-0.21715954
-0.21723772
-0.21794185
-0.22001039
-0.2234716
-0.22782718
-0.23304087
-0.23884511
-0.24299086
-0.24701255
-0.25115254
-0.25256838
-0.25136167
-0.24976364
-0.24554279
-0.23783446
-0.22739366
-0.2116986
-0.19500381
-0.17050869
-0.15082858
-0.11929011
-0.22921937
-0.22921891
-0.22921997
-0.22922166
-0.22922278
-0.2292234
-0.22922355
-0.22922328
-0.22922249
-0.22922095
-0.22921831
-0.22921443
-0.22920951
-0.22920398
-0.2291971
-0.22918319
-0.22916077
-0.22913884
-0.22911978
-0.22909787
-0.22907071
-0.22903726
-0.22899582
-0.22894402
-0.22887866
-0.22879541
-0.22868838
-0.22854946
-0.22836822
-0.22813138
-0.22782112
-0.22741529
-0.22689393
-0.22622784
-0.22539403
-0.22438177
-0.22318582
-0.22182906
-0.22034402
-0.21880309
-0.21725546
-0.21570953
-0.21437202
-0.21339367
-0.21335315
-0.21448598
-0.21677784
-0.21968153
-0.2236269
-0.22814324
-0.23142644
-0.23476891
-0.23868021
-0.24040939
-0.24011124
-0.23952184
-0.23676934
-0.23217844
-0.2243776
-0.21428203
-0.19947069
-0.18407918
-0.16156567
-0.14394021
-0.11504272
-0.22851755
-0.22851885
-0.22852076
-0.2285235
-0.22852691
-0.22853035
-0.22853359
-0.22853661
-0.22853901
-0.22854006
-0.22854078
-0.22854397
-0.22854998
-0.22855719
-0.22856514
-0.22857411
-0.22858424
-0.22859302
-0.2285978
-0.22859694
-0.22859026
-0.22857842
-0.22855922
-0.22852991
-0.22848709
-0.22842586
-0.22834032
-0.22822202
-0.22805972
-0.22783938
-0.22754079
-0.22713812
-0.22660672
-0.22592396
-0.22505694
-0.22398218
-0.22268518
-0.22118017
-0.21945555
-0.2176289
-0.21565487
-0.21383368
-0.21238326
-0.21152976
-0.21159943
-0.21249915
-0.21420767
-0.2166663
-0.21966479
-0.22190499
-0.22434669
-0.22785732
-0.22927583
-0.22950185
-0.22938012
-0.22766194
-0.22444447
-0.21950057
-0.21166659
-0.20198573
-0.18799517
-0.1738076
-0.15308343
-0.13728346
-0.11072776
-0.22800987
-0.22801813
-0.22802785
-0.22803742
-0.22804762
-0.22805864
-0.2280705
-0.22808323
-0.22809692
-0.22811169
-0.22812777
-0.2281451
-0.22816337
-0.22818238
-0.22820196
-0.22822182
-0.22824257
-0.22826602
-0.22828741
-0.22830098
-0.22831133
-0.22831941
-0.22831954
-0.22830865
-0.22828754
-0.22825206
-0.22818859
-0.22808598
-0.22793718
-0.22773133
-0.22744363
-0.2270588
-0.22656016
-0.22587455
-0.22498615
-0.2239131
-0.22257855
-0.22099604
-0.21917282
-0.21728821
-0.21534846
-0.21354061
-0.21212068
-0.2112721
-0.21085831
-0.2112342
-0.21214706
-0.21364617
-0.2147039
-0.21598543
-0.21883432
-0.2197409
-0.21973089
-0.21978304
-0.21857073
-0.21639208
-0.21266105
-0.20744732
-0.19964591
-0.19035232
-0.17715435
-0.16408933
-0.1449817
-0.13081911
-0.10635942
-0.22779698
-0.22780952
-0.22782444
-0.22784005
-0.22785701
-0.22787554
-0.22789569
-0.22791752
-0.22794109
-0.22796641
-0.2279935
-0.22802232
-0.22805277
-0.2280847
-0.22811785
-0.2281519
-0.2281864
-0.2282202
-0.22825102
-0.22827976
-0.22830647
-0.22832748
-0.22834041
-0.22834143
-0.22832708
-0.22829542
-0.22823801
-0.22814534
-0.2280194
-0.2278668
-0.2276543
-0.22728159
-0.22673861
-0.22612323
-0.22538362
-0.22439666
-0.22320709
-0.22172669
-0.21999502
-0.21817408
-0.21634643
-0.21460244
-0.21294998
-0.2115974
-0.21065119
-0.21006899
-0.20986932
-0.20991496
-0.20985987
-0.21168803
-0.21196432
-0.21122499
-0.21105473
-0.21005415
-0.20826008
-0.20550097
-0.20135487
-0.19595128
-0.1882199
-0.1793291
-0.16688202
-0.15485454
-0.13721103
-0.12451891
-0.10193615
-0.22823307
-0.22824735
-0.2282642
-0.22828205
-0.22830146
-0.22832267
-0.22834574
-0.22837075
-0.22839775
-0.22842676
-0.2284578
-0.2284908
-0.22852565
-0.22856217
-0.22860008
-0.228639
-0.2286784
-0.22871762
-0.22875573
-0.22879154
-0.22882381
-0.22885088
-0.22887088
-0.22888136
-0.22887569
-0.22885122
-0.2288097
-0.22874013
-0.22862152
-0.22843207
-0.22819089
-0.2279239
-0.22756674
-0.22706338
-0.22638201
-0.22548786
-0.22443251
-0.22316668
-0.22164243
-0.21989015
-0.21802178
-0.21602507
-0.21401645
-0.21205849
-0.21024035
-0.20854198
-0.2073709
-0.20622027
-0.20649171
-0.20601181
-0.20430771
-0.20363025
-0.20236676
-0.20066332
-0.19821714
-0.19498036
-0.19049079
-0.18494852
-0.17732487
-0.16882847
-0.15709433
-0.14603041
-0.12971729
-0.11835419
-0.097462823
-0.22924809
-0.22926136
-0.22927701
-0.2292936
-0.22931164
-0.22933135
-0.2293528
-0.22937604
-0.22940113
-0.22942808
-0.22945688
-0.22948746
-0.22951972
-0.22955345
-0.22958838
-0.22962412
-0.22966015
-0.22969581
-0.22973024
-0.22976242
-0.22979107
-0.22981468
-0.22983142
-0.22983915
-0.22983517
-0.22981571
-0.22977639
-0.22971536
-0.22962503
-0.22953443
-0.22940059
-0.22912155
-0.22874889
-0.22833125
-0.22777965
-0.22704164
-0.22609554
-0.22490557
-0.22343084
-0.2216904
-0.21967475
-0.21736642
-0.21478731
-0.21205111
-0.20930588
-0.20678561
-0.20482172
-0.20330792
-0.2018721
-0.19918388
-0.19769349
-0.19587969
-0.1938447
-0.19145825
-0.18844984
-0.18478201
-0.18000561
-0.17437674
-0.1668887
-0.15878737
-0.14773014
-0.1375604
-0.12245976
-0.11230259
-0.092938738
-0.23091467
-0.23092471
-0.23093656
-0.23094909
-0.23096271
-0.23097758
-0.23099373
-0.23101119
-0.23102999
-0.2310501
-0.23107151
-0.23109411
-0.23111777
-0.23114227
-0.23116732
-0.23119251
-0.23121733
-0.23124111
-0.23126302
-0.23128204
-0.23129696
-0.23130636
-0.23130855
-0.23130111
-0.23128062
-0.23125418
-0.23123194
-0.23121205
-0.2311248
-0.23093706
-0.23075111
-0.23055363
-0.23025284
-0.22984637
-0.22930241
-0.22858675
-0.22767043
-0.22651117
-0.22504383
-0.22319932
-0.22088915
-0.21809054
-0.2148651
-0.21131793
-0.20788584
-0.20497575
-0.20211309
-0.19906208
-0.19580627
-0.19334055
-0.19073887
-0.18816238
-0.18542538
-0.18241783
-0.17889797
-0.17485846
-0.1698527
-0.16417903
-0.15685148
-0.14914051
-0.13872636
-0.12938943
-0.11539879
-0.10634287
-0.088364548
-0.23304227
-0.23304844
-0.23305568
-0.23306331
-0.23307155
-0.23308048
-0.23309011
-0.23310041
-0.23311136
-0.23312291
-0.23313496
-0.23314736
-0.23315991
-0.23317234
-0.23318427
-0.23319524
-0.23320461
-0.23321164
-0.23321538
-0.23321467
-0.23320813
-0.23319407
-0.23317148
-0.23313833
-0.23310977
-0.23307474
-0.2329767
-0.23283163
-0.23269456
-0.23253267
-0.2323133
-0.23203564
-0.2316775
-0.23122705
-0.23065666
-0.22993288
-0.22901111
-0.2278184
-0.226237
-0.22413482
-0.22138282
-0.21805057
-0.21410789
-0.20999051
-0.20637156
-0.20245575
-0.19800464
-0.19389726
-0.19054272
-0.18704937
-0.18372766
-0.18044342
-0.17705143
-0.1734889
-0.16952141
-0.16516403
-0.15997843
-0.15429915
-0.14715359
-0.13983085
-0.13003018
-0.12147132
-0.10850148
-0.10045681
-0.08373869
-0.23557099
-0.23557425
-0.23557802
-0.23558189
-0.23558594
-0.23559019
-0.23559457
-0.23559901
-0.2356034
-0.23560759
-0.23561139
-0.23561454
-0.23561668
-0.2356174
-0.23561611
-0.23561211
-0.23560451
-0.23559224
-0.23557396
-0.23554807
-0.23551248
-0.23546524
-0.23540776
-0.23533337
-0.23523137
-0.23509922
-0.23494086
-0.2347558
-0.23453454
-0.2342686
-0.23394988
-0.2335751
-0.23313344
-0.23260806
-0.23197672
-0.23119865
-0.23019896
-0.22885171
-0.22698538
-0.22443915
-0.22114953
-0.21721884
-0.21257378
-0.20833694
-0.20357724
-0.19848029
-0.19337882
-0.18907831
-0.18475426
-0.18060736
-0.17659341
-0.17265539
-0.16868512
-0.16463065
-0.1602725
-0.15565101
-0.15033413
-0.14468492
-0.13774154
-0.13080462
-0.12159147
-0.11376279
-0.10173712
-0.094628119
-0.079059881
-0.23854537
-0.23854689
-0.23854853
-0.23855003
-0.23855138
-0.23855249
-0.23855323
-0.23855345
-0.23855292
-0.23855139
-0.2385485
-0.23854382
-0.23853678
-0.23852669
-0.23851269
-0.23849369
-0.23846839
-0.23843517
-0.23839212
-0.23833695
-0.23826708
-0.23817943
-0.23806883
-0.23793137
-0.2377659
-0.23756798
-0.23733138
-0.23705041
-0.23672164
-0.23634391
-0.23591552
-0.2354308
-0.23488271
-0.23425759
-0.23352195
-0.2326054
-0.23138371
-0.22968088
-0.22731001
-0.22415912
-0.22023695
-0.21554555
-0.21093013
-0.20578384
-0.19976396
-0.19408495
-0.18889991
-0.18373474
-0.17875788
-0.1739467
-0.16929209
-0.16477137
-0.16028175
-0.15579598
-0.15110609
-0.14627297
-0.14087059
-0.13528574
-0.1285641
-0.12201253
-0.11336573
-0.10622559
-0.095078988
-0.088841216
-0.074328186
-0.24226454
-0.2422643
-0.24226377
-0.24226283
-0.24226135
-0.24225914
-0.242256
-0.24225166
-0.24224577
-0.24223792
-0.24222756
-0.24221403
-0.24219653
-0.24217403
-0.24214531
-0.24210884
-0.24206283
-0.24200508
-0.241933
-0.24184357
-0.2417333
-0.24159823
-0.24143392
-0.24123569
-0.24099861
-0.24071738
-0.24038763
-0.24000682
-0.23957316
-0.23908404
-0.23853788
-0.23793253
-0.23725772
-0.23648468
-0.23554941
-0.2343367
-0.23267945
-0.23039139
-0.22733769
-0.22347759
-0.21880608
-0.21385838
-0.20856
-0.2020602
-0.19594583
-0.18995174
-0.18391263
-0.17809018
-0.17245411
-0.16702248
-0.16178912
-0.15674214
-0.15179595
-0.14694026
-0.14197603
-0.13698341
-0.13154088
-0.12605385
-0.11957404
-0.11340891
-0.10531195
-0.098824525
-0.088502927
-0.083083844
-0.069541762
-0.24707308
-0.24706966
-0.24706529
-0.24706011
-0.2470538
-0.24704608
-0.24703661
-0.247025
-0.24701075
-0.24699326
-0.24697177
-0.24694538
-0.24691297
-0.2468732
-0.24682444
-0.24676473
-0.24669176
-0.24660277
-0.24649457
-0.24636345
-0.24620522
-0.24601522
-0.24578831
-0.24551915
-0.2452028
-0.24483499
-0.24441159
-0.24392902
-0.24338525
-0.24277904
-0.24210686
-0.24135765
-0.2405026
-0.23948056
-0.23818434
-0.23646015
-0.23413274
-0.23106621
-0.22719709
-0.22250381
-0.21736712
-0.21182847
-0.20514143
-0.1983585
-0.19181456
-0.18507817
-0.17847262
-0.17203427
-0.16579526
-0.15979623
-0.15403658
-0.1485239
-0.14318229
-0.13801714
-0.13283658
-0.12773668
-0.12229904
-0.11694349
-0.11072679
-0.10495136
-0.09739286
-0.091526584
-0.081986821
-0.07733754
-0.064701444
-0.25333499
-0.25332626
-0.25331551
-0.25330338
-0.25328929
-0.25327274
-0.25325331
-0.25323041
-0.25320337
-0.25317137
-0.2531334
-0.25308827
-0.25303454
-0.25297049
-0.25289408
-0.25280291
-0.25269415
-0.25256451
-0.25241021
-0.25222694
-0.25200998
-0.25175433
-0.25145479
-0.2511061
-0.25070288
-0.25024029
-0.24971442
-0.24912186
-0.24845869
-0.24771792
-0.24688409
-0.24592408
-0.24477506
-0.24333324
-0.24145562
-0.23897981
-0.23577465
-0.2317747
-0.22693952
-0.22155874
-0.21574212
-0.20880902
-0.20162331
-0.19450156
-0.18717001
-0.17984226
-0.17261083
-0.16556066
-0.15874789
-0.15222098
-0.14598837
-0.14006846
-0.13439312
-0.12898005
-0.12364184
-0.11848774
-0.11310101
-0.10791149
-0.10198112
-0.096601055
-0.089574944
-0.084302269
-0.075512139
-0.071589804
-0.059818572
-0.26136839
-0.26135197
-0.26133199
-0.26130987
-0.26128464
-0.26125558
-0.26122209
-0.26118342
-0.26113866
-0.26108674
-0.26102638
-0.2609561
-0.26087415
-0.26077836
-0.26066625
-0.26053502
-0.26038138
-0.26020162
-0.25999155
-0.25974655
-0.25946159
-0.25913126
-0.25875004
-0.25831247
-0.25781326
-0.25724722
-0.25660877
-0.25589065
-0.25508094
-0.25415773
-0.25308085
-0.25178166
-0.25015559
-0.24806306
-0.24535381
-0.24189731
-0.23763529
-0.23252989
-0.22678537
-0.22059011
-0.21335112
-0.20572219
-0.19803653
-0.19007987
-0.18206765
-0.17408347
-0.16622965
-0.15859714
-0.15124866
-0.14424235
-0.13759234
-0.13132618
-0.12538045
-0.1197823
-0.11434671
-0.10919277
-0.1039042
-0.098916724
-0.093298336
-0.088321844
-0.081827764
-0.077123792
-0.06906227
-0.065831461
-0.054845221
-0.27151853
-0.27149193
-0.27145981
-0.27142462
-0.2713849
-0.27133969
-0.27128816
-0.27122933
-0.27116201
-0.27108467
-0.27099609
-0.27089787
-0.27078453
-0.27064648
-0.27048772
-0.27030915
-0.27010318
-0.26986547
-0.26959168
-0.26927689
-0.26891574
-0.2685026
-0.26803154
-0.26749629
-0.26688988
-0.26620379
-0.26542612
-0.26453835
-0.26350996
-0.26229118
-0.26080484
-0.25894155
-0.25656443
-0.25352656
-0.24971324
-0.24504819
-0.23954242
-0.23331353
-0.22662458
-0.21895346
-0.21078231
-0.20246908
-0.19387225
-0.18515202
-0.17641129
-0.16775242
-0.15927857
-0.15108309
-0.14323559
-0.13579889
-0.12879021
-0.12224202
-0.11609282
-0.11037574
-0.10490589
-0.099808884
-0.094668122