/*--------------------------------*- C++ -*----------------------------------*\
  =========                 |
  \\      /  F ield         | OpenFOAM: The Open Source CFD Toolbox
   \\    /   O peration     | Website:  https://openfoam.org
    \\  /    A nd           | Version:  13
     \\/     M anipulation  |
\*---------------------------------------------------------------------------*/
FoamFile
{
    format      ascii;
    class       volScalarField;
    location    "13.003422";
    object      pMean;
}
// * * * * * * * * * * * * * * * * * * * * * * * * * * * * * * * * * * * * * //

dimensions      [0 2 -2 0 0 0 0];

internalField   nonuniform List<scalar> 
17140
(
3.6265818
3.6264059
3.6261938
3.625979
3.6257475
3.6254962
3.625225
3.6249336
3.6246218
3.6242893
3.6239358
3.623561
3.6231642
3.6227436
3.6222959
3.6218151
3.6212914
3.6207092
3.6200452
3.6192662
3.6183256
3.6171611
3.6156896
3.6138021
3.6113855
3.6083799
3.6047533
3.6003774
3.5950276
3.5884853
3.5805322
3.5709183
3.5593703
3.5455934
3.5292745
3.5100908
3.4877273
3.4619043
3.4324196
3.3992089
3.3624222
3.3225242
3.2804273
3.2375643
3.1959693
3.1582353
3.1269901
3.1049155
3.0946037
3.0980706
3.1164558
3.1502371
3.1991841
3.261752
3.3355992
3.4169334
3.5005841
3.5802925
3.6491463
3.6978069
3.7205109
3.7156363
3.6914989
3.6527377
3.6119687
3.6233901
3.623218
3.6230107
3.6228004
3.6225737
3.6223275
3.6220618
3.6217764
3.621471
3.6211452
3.620799
3.6204322
3.6200439
3.6196328
3.6191955
3.6187264
3.6182158
3.6176485
3.6170017
3.6162423
3.6153243
3.6141857
3.6127439
3.6108907
3.6085109
3.6055408
3.6019496
3.5976132
3.592306
3.5858072
3.577898
3.5683272
3.5568205
3.5430811
3.526794
3.5076339
3.4852832
3.4594588
3.4299554
3.3967056
3.359857
3.3198747
3.2776685
3.234678
3.192966
3.1550749
3.123667
3.1015097
3.0911375
3.0945193
3.112843
3.1465842
3.1954309
3.2579491
3.3317328
3.4129421
3.4965807
3.5764184
3.6456149
3.6948006
3.7180534
3.7136985
3.6900083
3.6516243
3.6112504
3.6156802
3.6155173
3.6153214
3.6151218
3.6149066
3.6146727
3.6144204
3.6141492
3.6138589
3.6135494
3.6132206
3.6128726
3.6125048
3.6121159
3.6117033
3.6112617
3.610782
3.61025
3.6096434
3.6089303
3.6080654
3.6069879
3.6056165
3.6038443
3.6015522
3.5986672
3.5951605
3.5909173
3.5857114
3.5793168
3.5715128
3.5620461
3.5506387
3.5369902
3.5207806
3.5016791
3.4793614
3.4535373
3.4239941
3.3906572
3.3536699
3.3134972
3.2710511
3.2277954
3.1858185
3.1476318
3.1159423
3.0935506
3.0830191
3.0862948
3.1045179
3.1381313
3.1868331
3.2492297
3.3229155
3.404029
3.487676
3.5678058
3.6377181
3.6879748
3.7123421
3.70904
3.6863267
3.6488143
3.6092207
3.6036145
3.603466
3.603288
3.6031055
3.6029083
3.6026941
3.6024626
3.6022138
3.6019475
3.6016636
3.6013623
3.6010438
3.600708
3.600354
3.5999797
3.5995806
3.5991488
3.5986709
3.5981262
3.5974839
3.5967007
3.5957168
3.5944531
3.5928055
3.5906499
3.5878996
3.5845239
3.5804222
3.5753726
3.569141
3.5615018
3.5521986
3.5409485
3.527445
3.5113608
3.4923568
3.4700986
3.4442852
3.4146927
3.3812363
3.3440536
3.3036096
3.2608215
3.2171897
3.1748322
3.1362222
3.1041487
3.0814502
3.0707029
3.0738381
3.0919554
3.12544
3.1739678
3.2361825
3.3096601
3.3905583
3.4741457
3.5546139
3.6254768
3.6771893
3.7031541
3.7014445
3.680271
3.6442607
3.6060596
3.5876026
3.5874734
3.5873194
3.5871597
3.586987
3.586799
3.5865958
3.5863772
3.5861431
3.5858937
3.5856293
3.5853503
3.5850571
3.5847493
3.5844255
3.5840824
3.583713
3.5833056
3.582841
3.5822906
3.5816127
3.5807499
3.5796256
3.578139
3.5761638
3.5735954
3.5703921
3.5664714
3.5616259
3.5556103
3.5481902
3.5391055
3.5280673
3.5147612
3.4988509
3.4799863
3.4578207
3.4320394
3.4024042
3.368818
3.3314116
3.2906502
3.2474649
3.2034059
3.1605893
3.1214967
3.0889989
3.0659588
3.054999
3.0580236
3.0760623
3.1094338
3.1578016
3.2198293
3.2930761
3.3737209
3.4571968
3.5380186
3.609965
3.6633535
3.6911987
3.6914471
3.6723191
3.6383728
3.6020397
3.5683156
3.56821
3.5680853
3.5679537
3.567811
3.5676554
3.567487
3.5673055
3.5671111
3.566904
3.5666847
3.566454
3.5662125
3.5659605
3.5656975
3.5654208
3.5651252
3.5648004
3.5644294
3.5639856
3.56343
3.5627079
3.5617453
3.5604456
3.5586861
3.5563417
3.5533436
3.5496301
3.5450237
3.5392668
3.5321099
3.5232902
3.5125114
3.4994506
3.4837608
3.4650796
3.4430462
3.41733
3.3876765
3.3539746
3.3163475
3.2752616
3.231671
3.1871777
3.1438768
3.1043123
3.0713967
3.0480303
3.0368911
3.0398575
3.0578749
3.0911809
3.1394182
3.2012605
3.2742383
3.3545756
3.4378966
3.519041
3.5921037
3.6471999
3.6771129
3.6796257
3.6629958
3.6316017
3.597592
3.5466555
3.5465766
3.5464834
3.5463842
3.5462762
3.5461582
3.5460299
3.5458914
3.5457428
3.5455845
3.5454172
3.5452418
3.5450593
3.5448705
3.5446754
3.5444727
3.5442581
3.5440232
3.5437531
3.5434238
3.542999
3.542427
3.5416374
3.5405379
3.5390108
3.5369188
3.5341565
3.5306667
3.5263133
3.5208408
3.513978
3.5054569
3.4949743
3.4821982
3.4667708
3.4483168
3.4264602
3.4008535
3.3712251
3.3374492
3.2996407
3.2582692
3.214321
3.1694313
3.125697
3.0857228
3.0524144
3.0287369
3.0174383
3.0203879
3.0384478
3.0717736
3.1199641
3.1816852
3.2544346
3.3344811
3.4176619
3.4991457
3.5732554
3.630018
3.661924
3.6668131
3.6529653
3.6244343
3.5930191
3.5237061
3.5236564
3.5235971
3.5235336
3.5234638
3.5233869
3.5233028
3.5232116
3.5231134
3.5230087
3.5228983
3.5227832
3.5226646
3.5225437
3.5224209
3.5222956
3.5221649
3.5220218
3.5218534
3.5216382
3.5213429
3.5209192
3.5203005
3.5193985
3.5181014
3.5162735
3.5137761
3.5105175
3.5064031
3.5012154
3.4946622
3.4864578
3.4762951
3.4638329
3.4487033
3.4305183
3.4088871
3.3834461
3.3539062
3.3201271
3.2822154
3.2406476
3.1964458
3.1512478
3.1071845
3.0668861
3.0332176
3.0092245
2.9977556
3.0007093
3.0188701
3.052284
3.1005135
3.1622104
3.2348305
3.3146602
3.397766
3.4796011
3.5545504
3.6125309
3.646246
3.6536988
3.6427721
3.6172376
3.5885663
3.5006678
3.5006484
3.5006246
3.5005982
3.5005683
3.5005346
3.500497
3.5004555
3.5004103
3.5003621
3.5003114
3.5002594
3.5002072
3.5001561
3.5001069
3.5000593
3.5000111
3.4999566
3.4998845
3.4997757
3.4995996
3.4993115
3.4988486
3.4981271
3.4970401
3.4954574
3.4932316
3.4902227
3.4863249
3.481388
3.4751375
3.4672506
3.4574141
3.4452821
3.4304775
3.4126013
3.3912496
3.3660437
3.3366788
3.3030009
3.2651095
3.2234893
3.1791929
3.1338454
3.0896204
3.0491183
3.0151492
2.9908593
2.9792317
2.9821898
3.0004319
3.033957
3.0822985
3.1440464
3.2165881
3.2962195
3.3792318
3.4612637
3.5367664
3.5958164
3.63135
3.6408784
3.6328704
3.6102757
3.5843552
3.4787651
3.4787757
3.478787
3.4787976
3.4788076
3.4788171
3.4788261
3.4788346
3.4788429
3.4788515
3.478861
3.4788723
3.4788865
3.4789045
3.4789272
3.4789544
3.4789841
3.4790112
3.4790256
3.4790097
3.4789357
3.4787616
3.4784286
3.4778574
3.4769462
3.4755696
3.4735822
3.4708286
3.4671565
3.4624182
3.4564106
3.4488281
3.4393192
3.4275262
3.4130678
3.3955388
3.3745263
3.3496408
3.3205649
3.2871331
3.2494405
3.2079815
3.1638213
3.1185787
3.0744426
3.0339337
2.9998286
2.9753755
2.9636503
2.9665912
2.9849088
3.0185749
3.067025
3.1287715
3.2011891
3.2805966
3.3636064
3.4459961
3.5221178
3.5816096
3.6178877
3.6287007
3.6235469
3.603717
3.5804593
3.4591403
3.4591789
3.4592233
3.4592687
3.4593164
3.459367
3.4594204
3.4594767
3.4595363
3.4595996
3.459667
3.4597392
3.4598171
3.4599012
3.4599919
3.4600887
3.4601894
3.4602888
3.4603774
3.4604386
3.4604461
3.4603605
3.4601261
3.4596679
3.4588887
3.4576685
3.455865
3.4533202
3.4498684
3.4453384
3.4395273
3.4321744
3.4229567
3.4115034
3.3974149
3.3802818
3.359687
3.335234
3.3065994
3.2736117
3.2363659
3.1953672
3.1516592
3.1068799
3.0632066
3.023045
2.9891576
2.9648086
2.9531041
2.956078
2.974393
3.0079256
3.0562376
3.1177993
3.1899514
3.2691054
3.3520014
3.4343425
3.5100707
3.5687303
3.6054113
3.617585
3.6149813
3.5976623
3.5769258
3.4427438
3.4428068
3.4428801
3.4429561
3.4430372
3.4431242
3.4432173
3.4433167
3.4434227
3.4435356
3.4436559
3.443784
3.4439203
3.444065
3.4442178
3.4443775
3.4445414
3.4447038
3.4448547
3.444978
3.4450479
3.4450269
3.4448615
3.4444797
3.4437887
3.4426733
3.4409965
3.4385997
3.4353138
3.4309606
3.4253375
3.4181991
3.4092396
3.3981037
3.3843987
3.3677139
3.3476313
3.3237549
3.2957577
3.2634699
3.226989
3.1868243
3.1440032
3.1001645
3.0574173
3.0180876
2.9848836
2.9609955
2.9495359
2.9523537
2.970225
3.0031891
3.0509124
3.1118677
3.1833627
3.2618605
3.3442651
3.4258646
3.5003461
3.557984
3.5945309
3.6077681
3.6072676
3.5921866
3.5738128
3.4302278
3.43031
3.430406
3.4305064
3.4306142
3.4307307
3.4308562
3.4309911
3.4311356
3.4312903
3.4314555
3.4316315
3.4318182
3.4320156
3.4322228
3.4324379
3.4326574
3.4328748
3.4330796
3.4332551
3.4333759
3.4334049
3.4332901
3.4329617
3.4323295
3.4312822
3.4296877
3.4273952
3.4242314
3.4200099
3.4145428
3.4075981
3.3988886
3.3880808
3.3747935
3.3586246
3.3391622
3.3160223
3.288901
3.2576237
3.2222906
3.1834033
3.1419822
3.099614
3.0583012
3.0203007
2.9882434
2.9652089
2.9539095
2.9562909
2.9733181
3.0053245
3.0519905
3.1118268
3.1821513
3.2596293
3.3412245
3.4216415
3.4943101
3.5499092
3.585213
3.5991849
3.6004538
3.5873413
3.5711677
3.4218753
3.42197
3.422081
3.4221978
3.4223238
3.4224608
3.4226092
3.4227694
3.4229421
3.4231277
3.4233268
3.4235395
3.4237659
3.4240054
3.424257
3.4245184
3.4247853
3.4250509
3.425304
3.4255275
3.4256962
3.4257731
3.4257072
3.4254297
3.424852
3.4238648
3.4223384
3.4201248
3.4170605
3.4129765
3.407614
3.4008589
3.3924132
3.3819585
3.3691396
3.3535817
3.334903
3.3127333
3.2867496
3.2568223
3.2230576
3.1859324
3.1464235
3.1060206
3.0666197
3.0303851
2.9998579
2.9776623
2.9664203
2.9681736
2.9840521
3.0146571
3.059818
3.1180435
3.1867662
3.2628821
3.3429552
3.4211902
3.4908263
3.5435167
3.5775123
3.5918544
3.5945897
3.5831851
3.5690651
3.4175397
3.4176395
3.4177572
3.4178812
3.4180158
3.4181627
3.4183227
3.4184964
3.4186846
3.4188882
3.4191076
3.4193433
3.4195956
3.419864
3.4201474
3.4204436
3.4207484
3.4210551
3.4213526
3.4216242
3.4218453
3.42198
3.4219787
3.421774
3.421279
3.4203848
3.4189629
3.4168682
3.4139369
3.4099996
3.4049453
3.39842
3.390149
3.3801045
3.3678567
3.3530447
3.3352965
3.3142757
3.2897166
3.2615079
3.2297261
3.1948222
3.1576869
3.1196773
3.082562
3.0484035
3.0193628
2.9979325
2.9866645
2.9874999
3.0019678
3.0308729
3.0741248
3.130264
3.1969519
3.271141
3.3489244
3.4240319
3.4897251
3.5390927
3.5713724
3.5857703
3.5897055
3.5797682
3.5675567
3.4167328
3.4168304
3.4169468
3.4170689
3.4172019
3.417348
3.4175078
3.4176824
3.4178727
3.4180797
3.4183044
3.4185475
3.4188096
3.4190908
3.4193905
3.4197069
3.4200368
3.4203743
3.4207098
3.4210282
3.4213071
3.4215136
3.4216012
3.421506
3.4211439
3.4204084
3.4191712
3.417284
3.4145824
3.4108982
3.406059
3.3997767
3.3920859
3.3825459
3.370862
3.3569142
3.3403003
3.3207142
3.2979222
3.2717736
3.2423589
3.2100672
3.1756647
3.1403684
3.105775
3.0736314
3.0459804
3.0252257
3.0136419
3.013443
3.0263362
3.0533131
3.0943281
3.1480138
3.2122808
3.2839502
3.3585687
3.4293824
3.4905816
3.5360695
3.5666807
3.5809298
3.5858322
3.5771472
3.5667123
3.4186265
3.4187159
3.4188234
3.4189356
3.4190583
3.4191938
3.4193429
3.4195066
3.4196862
3.419883
3.4200982
3.4203329
3.4205882
3.4208648
3.4211629
3.4214819
3.4218198
3.4221724
3.4225326
3.4228885
3.4232214
3.4235034
3.4236942
3.4237371
3.4235542
3.4230445
3.4220803
3.4205111
3.418171
3.4148843
3.4104622
3.4047854
3.3976256
3.3887045
3.3780316
3.3651412
3.349844
3.3319407
3.3111699
3.2873931
3.260663
3.2312703
3.1998568
3.1674395
3.1353123
3.1050755
3.0786986
3.0582896
3.046265
3.0449224
3.0561757
3.0810604
3.1195561
3.1705223
3.2320189
3.3005375
3.370942
3.436646
3.4928709
3.5346889
3.5633889
3.5773321
3.5829954
3.5753663
3.5665767
3.4223344
3.4224108
3.4225036
3.4225998
3.4227057
3.4228231
3.422953
3.4230966
3.4232551
3.4234301
3.423623
3.4238353
3.4240685
3.424324
3.4246028
3.4249056
3.425232
3.4255801
3.4259459
3.4263216
3.4266942
3.4270431
3.4273369
3.4275302
3.4275585
3.4273327
3.426738
3.4256318
3.4238454
3.4211959
3.417487
3.4125528
3.4061966
3.3983192
3.3886596
3.3770865
3.3635264
3.347531
3.3290218
3.3078688
3.2840515
3.2577597
3.229448
3.199861
3.1700977
3.1416267
3.1161799
3.0959408
3.0833553
3.0808498
3.0903786
3.1129805
3.1488128
3.1969427
3.255324
3.3198246
3.3851239
3.4453559
3.4961718
3.5345647
3.5614697
3.5749658
3.5812151
3.5744664
3.5672055
3.4269395
3.4270006
3.4270751
3.4271523
3.4272375
3.4273326
3.4274385
3.4275562
3.4276872
3.4278327
3.4279946
3.4281744
3.428374
3.4285953
3.4288399
3.4291096
3.4294055
3.4297279
3.4300757
3.4304454
3.4308302
3.4312175
3.4315867
3.4319061
3.4321285
3.4321867
3.431987
3.4314059
3.4302905
3.4284614
3.4257199
3.4218731
3.4167227
3.4101435
3.401983
3.3921454
3.3803489
3.3665912
3.3507213
3.3324322
3.3117172
3.2886213
3.2633819
3.2365351
3.2089661
3.1819369
3.1571708
3.1368654
3.1236231
3.1198817
3.1275577
3.1477769
3.1809401
3.2261518
3.28113
3.3408515
3.400588
3.4546691
3.5007721
3.5356678
3.560881
3.5738185
3.5805059
3.5744773
3.5686342
3.4317346
3.43178
3.4318349
3.4318927
3.431957
3.432029
3.4321096
3.4321999
3.432301
3.4324144
3.4325416
3.4326842
3.4328442
3.4330236
3.4332246
3.4334494
3.4337003
3.4339791
3.434287
3.4346241
3.4349886
3.4353752
3.4357736
3.4361661
3.4365241
3.4368036
3.4369413
3.4368482
3.436405
3.4354618
3.4338404
3.4313475
3.4277827
3.4229749
3.4167517
3.4089937
3.3996099
3.3885157
3.3754107
3.3601898
3.3426985
3.3228002
3.30056
3.2762599
3.2505672
3.2246555
3.2002611
3.1797397
3.1656932
3.1605767
3.166326
3.1843037
3.2150875
3.2575191
3.3084721
3.3629392
3.4165607
3.4646628
3.5062805
3.5380162
3.5615788
3.5738712
3.580875
3.5754266
3.5709037
3.4362151
3.4362465
3.4362841
3.4363247
3.4363699
3.436421
3.4364785
3.4365433
3.4366165
3.4366992
3.4367928
3.4368989
3.437019
3.4371554
3.43731
3.4374855
3.4376844
3.4379095
3.4381634
3.4384483
3.4387657
3.4391156
3.4394956
3.4398992
3.440314
3.4407183
3.4410777
3.4413419
3.4414388
3.4412701
3.4407084
3.4395992
3.4377674
3.4350329
3.4312179
3.4261572
3.4196775
3.4115968
3.4017538
3.3899133
3.3757614
3.3590633
3.3396523
3.3175919
3.2934078
3.2682536
3.2439969
3.2230788
3.2080858
3.2016039
3.2057435
3.2220035
3.250807
3.2902393
3.3365571
3.3852803
3.4323573
3.4753137
3.5126746
3.5415259
3.5635049
3.5750963
3.582322
3.5773341
3.5740383
3.4401539
3.4401744
3.4401989
3.4402256
3.4402556
3.4402896
3.4403281
3.4403719
3.4404216
3.4404783
3.440543
3.4406172
3.4407025
3.4408004
3.4409126
3.4410412
3.4411887
3.4413579
3.4415515
3.4417725
3.4420244
3.442311
3.4426345
3.4429955
3.4433927
3.4438211
3.4442709
3.444725
3.4451561
3.4455229
3.4457662
3.4458033
3.4455288
3.4448097
3.4434828
3.4413561
3.4382014
3.4337561
3.4276904
3.4196005
3.4090469
3.3955648
3.3787801
3.3586403
3.3356183
3.3109689
3.2866157
3.265127
3.2492028
3.241699
3.2449373
3.2602556
3.2872842
3.3231496
3.3640884
3.4067712
3.4481907
3.4863543
3.5199635
3.5461614
3.5666188
3.5774685
3.5848417
3.5802155
3.5780661
3.4435221
3.4435343
3.443549
3.443565
3.4435831
3.4436038
3.4436275
3.4436544
3.4436852
3.4437209
3.4437625
3.4438102
3.443864
3.4439246
3.4439949
3.4440782
3.4441775
3.4442956
3.4444353
3.444598
3.4447842
3.444997
3.4452431
3.445529
3.4458604
3.4462437
3.4466852
3.4471906
3.4477665
3.4484182
3.4491462
3.4499496
3.4508151
3.4517043
3.4525324
3.453146
3.4532903
3.4525808
3.450514
3.4464797
3.4397234
3.4294822
3.4152679
3.3969529
3.374981
3.3506765
3.3261583
3.304147
3.2877575
3.2801987
3.2836427
3.2983913
3.3231689
3.3544508
3.3904674
3.4273357
3.4639966
3.4978658
3.5281023
3.5518493
3.5708649
3.5809575
3.5884215
3.5840728
3.5829984
3.4464868
3.4464923
3.4464988
3.4465061
3.4465143
3.446524
3.4465351
3.4465481
3.4465633
3.4465811
3.4466018
3.4466256
3.4466531
3.4466862
3.4467269
3.4467771
3.4468369
3.4469067
3.4469891
3.4470894
3.4472123
3.4473588
3.4475314
3.4477363
3.4479818
3.4482836
3.4486602
3.4491295
3.4497165
3.4504563
3.4513924
3.452588
3.4541092
3.4560024
3.4582953
3.4609376
3.4637198
3.4662378
3.4678381
3.4675963
3.4644795
3.4575203
3.4459722
3.4295061
3.4086267
3.3847225
3.3601856
3.338754
3.323581
3.3175421
3.3216674
3.3354348
3.3567856
3.3843785
3.4150603
3.4473755
3.4797096
3.5097968
3.5370261
3.5585288
3.5761932
3.5855309
3.5930452
3.5889056
3.5888477
3.4492048
3.4492024
3.4491997
3.4491966
3.4491932
3.44919
3.4491874
3.4491855
3.4491844
3.4491844
3.4491856
3.449189
3.4491953
3.4492033
3.449212
3.4492224
3.4492364
3.4492574
3.4492899
3.4493375
3.4494041
3.4494897
3.4495942
3.4497272
3.4499015
3.450131
3.4504373
3.4508498
3.451407
3.4521558
3.4531599
3.4545112
3.4563165
3.4586916
3.4617488
3.4655086
3.4698545
3.4744162
3.4785267
3.4812371
3.4812803
3.4773461
3.468405
3.4539291
3.4342799
3.4115993
3.3891523
3.3703941
3.3577134
3.3534863
3.3576645
3.3696827
3.3883567
3.4119359
3.4384996
3.4667627
3.4953775
3.522144
3.5466853
3.5661409
3.582552
3.5911536
3.5986937
3.5947089
3.5956282
3.4517495
3.4517377
3.4517238
3.4517093
3.4516935
3.4516761
3.4516573
3.4516373
3.4516165
3.4515949
3.4515726
3.4515499
3.4515271
3.4515047
3.451483
3.4514627
3.4514453
3.4514339
3.451431
3.4514394
3.4514641
3.4515088
3.4515755
3.4516706
3.451805
3.4519912
3.4522484
3.4526076
3.4531148
3.4538284
3.4548094
3.4561421
3.4579554
3.460385
3.4635752
3.4676257
3.4725268
3.4780361
3.483581
3.4881817
3.4904597
3.4889136
3.4821105
3.4695627
3.4526895
3.4335334
3.4147716
3.3992259
3.3894313
3.3861594
3.39055
3.4010908
3.4174353
3.4374827
3.4607472
3.4856278
3.5110206
3.5348677
3.5570259
3.5746304
3.5898924
3.597792
3.6053448
3.6014802
3.6033489
3.4536249
3.4536048
3.4535811
3.4535563
3.4535292
3.453499
3.4534654
3.4534296
3.4533936
3.4533572
3.4533193
3.4532796
3.4532386
3.4531966
3.4531537
3.4531107
3.4530683
3.4530281
3.4529926
3.4529663
3.4529546
3.4529625
3.4529942
3.4530536
3.4531521
3.4533102
3.4535467
3.4538807
3.4543475
3.4549986
3.4559076
3.4571746
3.4589047
3.4612221
3.4642867
3.4682437
3.4731148
3.4787515
3.4846941
3.4900347
3.4934122
3.4933905
3.4890091
3.4798191
3.4667807
3.4514721
3.4368223
3.4250921
3.4175523
3.4158461
3.4202231
3.4299716
3.4438084
3.4615054
3.4820482
3.5040312
3.5266506
3.5479517
3.5680067
3.5839486
3.598167
3.6054088
3.6129718
3.6091999
3.612008
3.4543914
3.4543681
3.4543407
3.4543119
3.4542807
3.4542468
3.4542101
3.4541704
3.4541279
3.4540827
3.454035
3.4539852
3.4539337
3.453881
3.453828
3.4537757
3.4537255
3.4536794
3.4536391
3.4536072
3.4535887
3.4535927
3.4536248
3.4536821
3.4537677
3.453902
3.4541061
3.4544026
3.4548255
3.4554106
3.4562126
3.4573266
3.4588642
3.4609425
3.4636748
3.4671984
3.4716603
3.4769952
3.4828601
3.488494
3.4928662
3.4947142
3.4927816
3.4867413
3.4774296
3.4664965
3.4561174
3.4478389
3.4428037
3.4429019
3.4473063
3.4558787
3.4684523
3.4842
3.5024734
3.5220354
3.5422855
3.5613756
3.5795891
3.5940504
3.6073294
3.6139716
3.6215547
3.6178856
3.6216091
3.4535274
3.4535085
3.4534863
3.4534629
3.4534376
3.4534101
3.4533804
3.4533485
3.4533144
3.4532782
3.45324
3.4532
3.4531587
3.4531164
3.4530739
3.4530321
3.4529923
3.4529552
3.4529231
3.4529007
3.4528915
3.452897
3.4529211
3.4529692
3.45305
3.4531798
3.4533741
3.4536487
3.4540309
3.4545581
3.4552783
3.4562687
3.4576315
3.4594743
3.4619524
3.465208
3.4693585
3.4744305
3.4802076
3.4861741
3.4913318
3.4945517
3.4947872
3.4917814
3.4862618
3.4794601
3.4732282
3.4680434
3.4655965
3.4669101
3.471649
3.4799562
3.4914868
3.5057198
3.5221713
3.5397071
3.5579452
3.5751299
3.5917407
3.6048934
3.6173422
3.6234476
3.6310663
3.6275105
3.6321145
3.4515478
3.4515372
3.4515248
3.4515118
3.4514977
3.4514824
3.451466
3.4514484
3.4514298
3.4514101
3.4513895
3.4513682
3.4513465
3.451325
3.4513043
3.4512853
3.4512692
3.4512575
3.4512523
3.4512561
3.4512711
3.4513013
3.4513523
3.4514301
3.4515422
3.4516988
3.4519166
3.4522096
3.452593
3.4531056
3.4538065
3.4547811
3.4561159
3.4578918
3.46025
3.4633881
3.4674426
3.4724478
3.4782695
3.4844549
3.4902319
3.4945983
3.4967102
3.4964204
3.4942791
3.4913603
3.4882758
3.485968
3.4861499
3.4888016
3.4941646
3.5023195
3.5131818
3.5262683
3.5412469
3.5571074
3.5736536
3.5892055
3.6044346
3.6164463
3.6281705
3.6338063
3.6414787
3.6380548
3.6435309
3.4488621
3.4488592
3.4488559
3.4488525
3.4488489
3.4488452
3.4488414
3.4488377
3.4488341
3.448831
3.4488284
3.4488268
3.4488263
3.4488276
3.4488316
3.4488394
3.4488526
3.448873
3.4489028
3.448945
3.4490032
3.4490824
3.4491875
3.4493237
3.4494972
3.4497197
3.4500093
3.450388
3.4508909
3.4515502
3.4523897
3.4534727
3.4549091
3.4568108
3.4593091
3.4625618
3.4667063
3.4717943
3.4777277
3.4841327
3.4903744
3.4956621
3.499351
3.5014007
3.5022268
3.5023086
3.5020734
3.5028793
3.5050227
3.5089794
3.5150531
3.5233268
3.5337739
3.5459998
3.5598162
3.5743033
3.5894379
3.6036009
3.6176544
3.6286662
3.639772
3.6450027
3.6527753
3.6494584
3.6559237
3.4459078
3.4459094
3.4459114
3.4459138
3.4459166
3.4459202
3.4459245
3.4459298
3.4459364
3.4459446
3.4459549
3.4459677
3.4459838
3.4460041
3.4460297
3.4460622
3.4461033
3.4461555
3.4462218
3.4463059
3.446412
3.4465453
3.4467142
3.4469298
3.4472003
3.4475437
3.4479843
3.4485303
3.4491989
3.4500348
3.4510924
3.4524375
3.4541449
3.4563075
3.4590746
3.462599
3.4669964
3.4723212
3.4784837
3.4851855
3.4918727
3.4979717
3.5030877
3.5071773
3.5104698
3.5130135
3.5155832
3.5186397
3.5226069
3.52788
3.5347335
3.5432462
3.5534743
3.5650789
3.5779875
3.5913589
3.6053267
3.6183166
3.6313764
3.6415226
3.652125
3.6569982
3.6649369
3.6617039
3.669196
3.4425292
3.4425329
3.4425375
3.4425428
3.442549
3.4425564
3.4425653
3.442576
3.4425889
3.4426046
3.4426236
3.4426469
3.4426753
3.4427102
3.4427532
3.4428063
3.4428721
3.4429536
3.443055
3.4431812
3.4433384
3.4435338
3.443778
3.4440841
3.4444651
3.4449357
3.4455155
3.4462292
3.4471101
3.4481994
3.4495457
3.4512022
3.4532502
3.4558198
3.4590416
3.4630329
3.4679059
3.4736903
3.4802707
3.4873895
3.4946277
3.5015309
3.5079457
3.5138142
3.5191379
3.5239119
3.5287321
3.5337541
3.539356
3.5458436
3.553478
3.5623261
3.5724835
3.5836535
3.5958657
3.6083393
3.6213512
3.6333582
3.6455896
3.6549957
3.6652067
3.6697553
3.6779376
3.6747806
3.6833092
3.4383552
3.438361
3.4383683
3.4383765
3.4383861
3.4383975
3.4384111
3.4384274
3.4384468
3.4384702
3.4384984
3.4385325
3.4385738
3.438624
3.4386853
3.4387601
3.4388517
3.438964
3.4391021
3.439272
3.4394813
3.4397393
3.4400581
3.4404512
3.440934
3.4415279
3.4422592
3.4431613
3.4442695
3.4456227
3.4472751
3.4493185
3.4518579
3.4549918
3.4588425
3.4635222
3.4691008
3.4755497
3.4827583
3.4904774
3.4983832
3.5062394
3.5139839
3.5214006
3.5284162
3.5351793
3.5417998
3.5484995
3.5555486
3.5631616
3.5715622
3.5807938
3.5909841
3.601865
3.613551
3.6253077
3.6375429
3.6487327
3.6602799
3.6690658
3.6789722
3.6832768
3.6917323
3.6886772
3.6982528
3.4328907
3.4329005
3.4329126
3.4329261
3.4329416
3.4329599
3.4329813
3.4330064
3.433036
3.433071
3.4331126
3.4331621
3.4332213
3.4332921
3.4333771
3.4334795
3.433603
3.4337524
3.4339336
3.4341535
3.434421
3.4347468
3.4351446
3.4356307
3.4362283
3.4369632
3.4378605
3.438956
3.4403025
3.4419694
3.4440362
3.4465947
3.4497522
3.453625
3.4583182
3.4639027
3.4703894
3.4776993
3.4857156
3.4941916
3.5029689
3.5119977
3.521034
3.5299107
3.5384182
3.5467454
3.5549413
3.5631175
3.5714522
3.5800885
3.5892143
3.5988502
3.6091432
3.6198433
3.6311375
3.6423255
3.6539342
3.6644497
3.6754406
3.6837059
3.6934054
3.6975026
3.7062904
3.7033494
3.7139654
3.4257371
3.4257534
3.4257733
3.4257952
3.4258202
3.425849
3.4258823
3.4259208
3.4259655
3.4260176
3.4260783
3.4261496
3.4262333
3.4263319
3.4264485
3.4265867
3.4267508
3.4269465
3.4271806
3.4274607
3.4277975
3.4282057
3.4286999
3.4292979
3.4300223
3.4309064
3.4319971
3.4333477
3.435024
3.4371099
3.4397075
3.4429322
3.4469035
3.4517259
3.4574699
3.4641512
3.471714
3.4800621
3.4890332
3.4984915
3.5084724
3.5187064
3.5289142
3.5390366
3.5489737
3.5587367
3.5683308
3.5778066
3.5872817
3.5968421
3.6066423
3.6166795
3.6271151
3.6377104
3.6487148
3.6594523
3.6705571
3.6805191
3.6910575
3.6989162
3.7084516
3.7124322
3.7215489
3.7187814
3.7303878
3.4165948
3.4166201
3.4166508
3.4166842
3.416722
3.4167651
3.4168144
3.4168708
3.4169354
3.4170098
3.4170956
3.4171949
3.4173101
3.4174442
3.4176003
3.4177808
3.4179923
3.4182454
3.418546
3.4188994
3.4193167
3.4198147
3.420416
3.421146
3.422036
3.4231292
3.4244818
3.426167
3.4282776
3.4309255
3.4342374
3.4383424
3.4433558
3.4493519
3.4563494
3.4642988
3.4731086
3.4826429
3.492761
3.503549
3.5147877
3.5261442
3.5375656
3.5489622
3.5602144
3.5712707
3.5821121
3.5927415
3.6032286
3.6136147
3.6240276
3.6344448
3.6450386
3.6555775
3.6663646
3.6767423
3.6874402
3.6969531
3.7071345
3.7146655
3.724109
3.7280359
3.7374845
3.7348767
3.7475336
3.4051737
3.4052103
3.4052545
3.4053024
3.4053563
3.4054176
3.4054871
3.4055657
3.4056546
3.4057542
3.4058655
3.4059941
3.4061488
3.4063293
3.4065314
3.4067614
3.4070298
3.4073444
3.4077147
3.4081524
3.408671
3.4092886
3.410031
3.410933
3.4120398
3.413412
3.4151289
3.4172911
3.4200209
3.4234574
3.4277441
3.4330076
3.4393357
3.4467457
3.4551966
3.4645878
3.474783
3.4856521
3.4972348
3.5094053
3.5218093
3.5344011
3.5470891
3.5597329
3.5722209
3.5844717
3.5964384
3.6080924
3.6194703
3.6305825
3.6415366
3.6522944
3.6630382
3.6735435
3.6841594
3.694247
3.7046139
3.7137584
3.7236522
3.7309452
3.7403482
3.7443192
3.7540573
3.751922
3.765118
3.3915274
3.3915777
3.391637
3.3916986
3.3917656
3.391844
3.3919393
3.3920481
3.392164
3.3922905
3.3924347
3.3926008
3.3927918
3.3930116
3.3932654
3.3935588
3.3938979
3.3942901
3.3947461
3.3952825
3.39592
3.3966855
3.3976153
3.3987582
3.4001794
3.4019644
3.4042219
3.4070842
3.4107008
3.415227
3.4207991
3.4275124
3.4353954
3.4444035
3.4544559
3.4653837
3.4770499
3.4895025
3.5026063
3.516055
3.529778
3.5436953
3.5576488
3.571511
3.5851648
3.5985105
3.6114851
3.6240398
3.6361893
3.6479234
3.6593363
3.6703812
3.6812477
3.6917201
3.7021861
3.7120255
3.7221105
3.7309546
3.7406115
3.7477304
3.757112
3.7611977
3.7712066
3.7693612
3.7831814
3.3757713
3.375837
3.3759087
3.3759834
3.3760691
3.3761669
3.3762777
3.3764033
3.3765459
3.3767083
3.3768936
3.3771062
3.3773514
3.3776308
3.3779427
3.3782928
3.3786947
3.3791617
3.3797087
3.3803557
3.3811299
3.3820682
3.3832206
3.3846546
3.3864594
3.3887497
3.391667
3.3953754
3.4000497
3.4058552
3.4129107
3.4212801
3.4309451
3.4418015
3.4536508
3.4663625
3.4799142
3.4941353
3.5087405
3.5236623
3.5388282
3.5540837
3.5692997
3.5843442
3.5990959
3.6134465
3.6273235
3.6406666
3.6534769
3.6657318
3.6775195
3.6887882
3.6997365
3.7101614
3.7204794
3.7300961
3.7399289
3.7485193
3.7579795
3.765
3.7743809
3.7787902
3.7890049
3.7884007
3.8033506
3.3579209
3.3579965
3.3580903
3.3581921
3.358305
3.3584313
3.3585719
3.3587279
3.3589014
3.3590953
3.359313
3.359558
3.3598349
3.3601492
3.360508
3.3609207
3.3613994
3.3619603
3.3626253
3.3634238
3.3643959
3.3655958
3.3670959
3.3689916
3.3714046
3.3744844
3.3784045
3.3833513
3.3895038
3.397002
3.4059185
3.4162694
3.427924
3.4407522
3.4545663
3.4693259
3.4847837
3.5006357
3.5168396
3.5333243
3.5499351
3.566544
3.5830131
3.5992051
3.6149934
3.6302686
3.6449515
3.658979
3.6723428
3.6850182
3.6970845
3.7085006
3.7194683
3.7298057
3.7399503
3.7493387
3.7589233
3.767285
3.7765647
3.7835311
3.7929064
3.7977554
3.8079301
3.8097688
3.8216293
3.3401543
3.3402457
3.3403574
3.3404728
3.3405999
3.3407416
3.3408991
3.3410745
3.3412701
3.341489
3.3417347
3.342012
3.3423265
3.342686
3.3431003
3.3435829
3.3441516
3.3448307
3.3456532
3.3466634
3.3479214
3.3495065
3.351522
3.3540989
3.3573962
3.3615976
3.3668995
3.3734906
3.381523
3.391078
3.4021803
3.4146982
3.4284795
3.4433671
3.4591959
3.475747
3.4927449
3.5101805
3.5279593
3.5459143
3.5639055
3.5817856
3.599406
3.6166237
3.6333104
3.6493555
3.6646806
3.6792233
3.6929738
3.7059107
3.7181132
3.7295542
3.7404374
3.7506176
3.7605249
3.7696676
3.7789662
3.7871296
3.7961954
3.8031846
3.8125136
3.8178169
3.8281143
3.8311255
3.8427993
3.3248592
3.3249593
3.3250813
3.3252072
3.3253455
3.3254992
3.3256699
3.3258597
3.3260715
3.3263088
3.3265763
3.3268798
3.3272272
3.3276289
3.3280989
3.3286563
3.3293269
3.3301457
3.3311597
3.3324321
3.3340459
3.3361087
3.3387562
3.3421528
3.3464889
3.3519705
3.3588001
3.3671489
3.3771247
3.3887579
3.4019753
3.4166025
3.4325158
3.4492848
3.4668274
3.4849415
3.503576
3.5225947
3.5418213
3.5611167
3.5803256
3.5992921
3.617864
3.6358973
3.6532661
3.6698644
3.6856174
3.7004687
3.7144105
3.7274315
3.739611
3.7509456
3.7616355
3.7715815
3.7811905
3.7900625
3.7990449
3.8070323
3.8158569
3.8229389
3.8321388
3.8380747
3.8482438
3.8530222
3.8640814
3.3153266
3.3154301
3.3155559
3.3156855
3.3158278
3.3159857
3.3161612
3.3163566
3.3165753
3.3168219
3.317102
3.3174236
3.317797
3.3182366
3.3187616
3.3193985
3.3201826
3.3211619
3.3224001
3.3239809
3.3260119
3.3286286
3.3319957
3.3363047
3.3417655
3.3485898
3.3569658
3.367028
3.3788284
3.3923272
3.4073888
3.4238767
3.4412918
3.4595637
3.4786589
3.4983213
3.5183879
3.5387096
3.559137
3.579512
3.5996735
3.6194597
3.6387161
3.6573009
3.6750925
3.6919915
3.707929
3.7228578
3.7367753
3.7496843
3.7616671
3.7727479
3.7831194
3.7927372
3.8019707
3.8105267
3.8191511
3.8269525
3.8355108
3.8426876
3.8517495
3.8582526
3.8683776
3.8743035
3.8854437
3.3132823
3.3133841
3.3135073
3.3136346
3.3137743
3.3139295
3.3141023
3.3142956
3.3145135
3.3147617
3.3150474
3.3153809
3.315776
3.3162515
3.3168332
3.3175558
3.3184658
3.3196253
3.3211152
3.3230399
3.3255304
3.3287465
3.3328754
3.3381254
3.3447119
3.3528361
3.362657
3.3742617
3.3876423
3.4027014
3.4192819
3.4370153
3.4557162
3.4754438
3.4957784
3.5165814
3.5377084
3.5590001
3.580293
3.601419
3.6222086
3.6424956
3.6621254
3.6809604
3.6988849
3.7158076
3.7316665
3.7464262
3.7600919
3.7726849
3.7842919
3.7949654
3.8048908
3.8140753
3.8228516
3.831031
3.8392525
3.8468411
3.8551136
3.8623749
3.871303
3.8783734
3.8884826
3.8957024
3.9069872
3.3209043
3.3209998
3.321114
3.3212334
3.3213646
3.3215107
3.321674
3.3218582
3.3220682
3.3223108
3.3225954
3.3229346
3.3233461
3.3238538
3.3244901
3.3252985
3.3263368
3.3276808
3.3294278
3.3317006
3.3346494
3.338452
3.3433093
3.3494349
3.3570372
3.366295
3.3773285
3.3901751
3.4047754
3.420989
3.4385878
3.4573302
3.4771329
3.4976571
3.5187583
3.5402736
3.5620397
3.5838882
3.6056438
3.6271283