/*--------------------------------*- C++ -*----------------------------------*\
  =========                 |
  \\      /  F ield         | OpenFOAM: The Open Source CFD Toolbox
   \\    /   O peration     | Website:  https://openfoam.org
    \\  /    A nd           | Version:  13
     \\/     M anipulation  |
\*---------------------------------------------------------------------------*/
FoamFile
{
    format      ascii;
    class       volVectorField;
    location    "13.003422";
    object      UMean;
}
// * * * * * * * * * * * * * * * * * * * * * * * * * * * * * * * * * * * * * //

dimensions      [0 1 -1 0 0 0 0];

internalField   nonuniform List<vector> 
17140
(
(-4.1597378e-06 0.00018028657 -3.3539446e-22)
(-5.2686178e-05 0.00055408555 -2.7015397e-23)
(-0.00015719417 0.00096152943 1.7852561e-21)
(-0.0003395041 0.0014040349 -1.9632699e-21)
(-0.00061906697 0.0018829817 2.2960751e-22)
(-0.0010224996 0.0023992979 -7.5166826e-22)
(-0.0015823778 0.0029533432 -1.266102e-21)
(-0.0023378152 0.0035447238 6.1895999e-22)
(-0.0033355775 0.0041720783 2.0270106e-21)
(-0.004631111 0.0048328341 4.9767621e-21)
(-0.0062894925 0.0055229417 -7.3913503e-21)
(-0.008386224 0.0062366016 6.5983328e-21)
(-0.011007772 0.0069660045 1.0112425e-21)
(-0.014251686 0.0077011163 -5.7406684e-21)
(-0.018226106 0.0084295636 6.3912949e-22)
(-0.023048481 0.0091366716 -5.0836778e-21)
(-0.028843317 0.0098057484 1.9085381e-22)
(-0.03573884 0.010418688 -4.1849749e-23)
(-0.043862639 0.010956978 -3.0483877e-21)
(-0.053336564 0.011403142 3.9769091e-21)
(-0.064271447 0.011742572 -1.9224223e-21)
(-0.076762446 0.011965566 3.7093934e-22)
(-0.09088745 0.012069168 2.730303e-21)
(-0.10671285 0.012058241 -2.7249243e-21)
(-0.12428829 0.011945359 -4.3437791e-21)
(-0.14364056 0.011748432 3.4993437e-21)
(-0.16482443 0.011484259 1.7146468e-20)
(-0.18792556 0.011166261 2.0054744e-21)
(-0.21299343 0.010807181 -1.7692741e-20)
(-0.24008199 0.010415717 -4.1159779e-21)
(-0.26926889 0.009996208 -1.4693034e-20)
(-0.30061372 0.0095504485 1.9365879e-20)
(-0.33416398 0.0090784226 -5.0268772e-21)
(-0.36994659 0.0085789521 -2.4123032e-21)
(-0.40795813 0.0080496873 -2.3599251e-20)
(-0.44815225 0.0074868915 1.0395423e-20)
(-0.49042294 0.0068851686 -1.5590835e-20)
(-0.53458169 0.0062371305 -1.0522641e-20)
(-0.58032765 0.0055331402 -4.7932109e-21)
(-0.62721096 0.0047618345 1.4526497e-20)
(-0.67459166 0.003910148 2.7224935e-20)
(-0.72159246 0.0029650857 2.453202e-20)
(-0.76705583 0.0019156614 1.063442e-20)
(-0.80953871 0.0007544831 -5.0978193e-20)
(-0.84728015 -0.00051522401 -3.680989e-20)
(-0.87830062 -0.0018666245 8.9444994e-21)
(-0.90064159 -0.0032799935 -5.9991551e-20)
(-0.91203451 -0.0047289862 -2.0129369e-20)
(-0.91044158 -0.0061741217 2.0304957e-20)
(-0.8943043 -0.0075593992 4.9320742e-20)
(-0.86235119 -0.008819328 -3.0254893e-20)
(-0.81353881 -0.0099245899 -1.9110324e-20)
(-0.7471385 -0.010947646 4.9867705e-20)
(-0.66277115 -0.011895632 2.3705147e-20)
(-0.5599461 -0.012649549 1.707145e-20)
(-0.43987035 -0.013154674 -1.346234e-20)
(-0.30332637 -0.013358594 3.7150049e-20)
(-0.15293947 -0.013184423 3.1382721e-20)
(0.0071223988 -0.012459433 7.9739548e-21)
(0.1694053 -0.011069221 -2.0641958e-20)
(0.32487076 -0.008974937 -1.625073e-20)
(0.46368557 -0.0064353772 -6.02115e-20)
(0.58208874 -0.003744082 -8.8103253e-21)
(0.67544915 -0.001214737 7.38011e-20)
(0.75046136 0.00067028285 -5.6882515e-20)
(-4.1414926e-05 0.00096724409 9.5192118e-23)
(-0.00016624396 0.0029728401 -9.350833e-21)
(-0.00035300316 0.0051597282 8.3226242e-21)
(-0.00062331248 0.0075375499 -2.2699842e-21)
(-0.00099665227 0.010115009 -4.6901219e-21)
(-0.0014994041 0.012898745 8.965267e-21)
(-0.0021637131 0.015892606 -9.3518955e-21)
(-0.0030280291 0.019096704 8.2364117e-22)
(-0.0041381735 0.022506267 -2.5735754e-21)
(-0.0055483166 0.026110347 -4.3114489e-23)
(-0.0073218843 0.029890395 -8.6135728e-21)
(-0.0095323173 0.033818764 1.3712278e-20)
(-0.012263589 0.037857261 1.1346573e-21)
(-0.015610323 0.041955909 -1.1225835e-20)
(-0.019677342 0.046052182 3.4583427e-21)
(-0.024578468 0.050071038 2.2020526e-21)
(-0.030434402 0.053926182 -1.4003216e-20)
(-0.03736959 0.057523023 4.5770893e-20)
(-0.045508119 0.060763755 -2.874955e-20)
(-0.054968905 0.063554801 3.4535718e-20)
(-0.065860717 0.065816458 -5.1172209e-20)
(-0.078277782 0.067493809 1.2579739e-20)
(-0.092298158 0.068567016 5.1994846e-21)
(-0.10798915 0.069058042 -1.6989234e-20)
(-0.12540376 0.069031006 6.1217753e-20)
(-0.14457118 0.068580425 9.0967075e-21)
(-0.16554522 0.06779822 -4.7384847e-20)
(-0.18841483 0.066759688 5.306196e-20)
(-0.21323109 0.065532896 -7.3661529e-21)
(-0.24004551 0.064167027 -7.1433326e-20)
(-0.2689349 0.062689624 7.4576092e-21)
(-0.29995686 0.061113477 5.6689082e-20)
(-0.33315628 0.059440839 1.3528716e-21)
(-0.36855658 0.057665983 -4.2293264e-20)
(-0.40614982 0.055775413 4.7264683e-20)
(-0.44588356 0.053746478 -2.124934e-20)
(-0.48764395 0.051545331 2.5160523e-20)
(-0.5312325 0.049125009 7.9681311e-20)
(-0.57633549 0.046424209 1.7732622e-20)
(-0.62248681 0.043367652 6.9251353e-20)
(-0.66902592 0.039868217 -8.860152e-20)
(-0.71505006 0.035833588 -8.0797494e-20)
(-0.75937215 0.031177271 -1.3579189e-20)
(-0.80050545 0.025833136 1.0910716e-19)
(-0.83663855 0.019781097 -5.0723305e-20)
(-0.86577982 0.013079809 -1.7343739e-20)
(-0.88580118 0.0058055987 9.3485814e-21)
(-0.89454591 -0.0019248112 2.8572862e-20)
(-0.8900212 -0.0098560427 -1.3880349e-20)
(-0.87054041 -0.017763427 2.4914202e-20)
(-0.83482247 -0.025482478 1.4969742e-19)
(-0.78195393 -0.032888017 7.1712729e-21)
(-0.7113127 -0.039919987 -3.2426968e-20)
(-0.62260422 -0.046530594 7.2596717e-20)
(-0.51591361 -0.052480123 -6.2560319e-20)
(-0.39189908 -0.057576505 1.7966465e-19)
(-0.2518835 -0.061572475 5.1799033e-20)
(-0.098618009 -0.063897999 -1.4837654e-19)
(0.063521407 -0.06375706 2.5329464e-20)
(0.22685228 -0.060356015 2.9327556e-20)
(0.38215518 -0.053487308 5.9239173e-21)
(0.51944721 -0.044304577 -7.8581972e-20)
(0.63508095 -0.034132995 1.5304064e-19)
(0.725454 -0.024663509 4.5633015e-20)
(0.79709244 -0.016938074 7.5718545e-20)
(-0.00012162123 0.0017365028 5.242608e-21)
(-0.00041055286 0.0053379589 -2.8161214e-21)
(-0.00077399428 0.0092660155 -7.4902681e-22)
(-0.0012330697 0.013538784 7.1064274e-22)
(-0.0018072655 0.018172544 -3.4440839e-21)
(-0.0025223739 0.023180038 -2.5572202e-22)
(-0.0034095129 0.028569164 -3.2752186e-21)
(-0.0045055899 0.034341278 -3.5311137e-21)
(-0.0058542596 0.040489156 2.890001e-20)
(-0.0075067948 0.046994675 -2.5835051e-20)
(-0.0095228995 0.053826234 1.2382396e-20)
(-0.01197139 0.060936034 1.8172195e-20)
(-0.01493067 0.068257405 -3.6118274e-20)
(-0.018488857 0.075702475 -4.4792275e-21)
(-0.02274341 0.083160623 1.7357102e-20)
(-0.027800117 0.090498329 1.1968945e-20)
(-0.033771274 0.097561165 -1.3931038e-20)
(-0.040772979 0.1041788 5.0618997e-20)
(-0.048921581 0.1101738 -3.0054049e-20)
(-0.058329496 0.11537485 1.4913483e-20)
(-0.069100878 0.11963397 -5.0530294e-20)
(-0.081327775 0.12284643 -1.3194998e-20)
(-0.095088417 0.12496992 2.7640363e-20)
(-0.11045181 0.12603775 -4.1705022e-20)
(-0.12747793 0.12616053 -1.6416113e-20)
(-0.14620069 0.12550723 1.9872075e-20)
(-0.16667216 0.12424915 1.1271059e-19)
(-0.18898772 0.12252618 5.0921836e-20)
(-0.21320118 0.12045942 -2.5635239e-20)
(-0.23935889 0.11814123 2.7177781e-20)
(-0.26753479 0.11562504 -1.7282678e-20)
(-0.2977818 0.11293562 -9.7041426e-20)
(-0.33013846 0.11007776 3.2558421e-20)
(-0.36461985 0.10704088 9.720998e-20)
(-0.40120715 0.10379973 -3.2818636e-20)
(-0.43983404 0.10031198 -4.5748409e-20)
(-0.48036858 0.096514387 7.9327862e-20)
(-0.5225889 0.092319224 2.4076579e-20)
(-0.56615162 0.087611898 -4.3258655e-20)
(-0.61055307 0.082250952 -1.7427534e-20)
(-0.65508496 0.076072671 8.3150032e-20)
(-0.69878611 0.068902545 -2.3796308e-20)
(-0.7404009 0.060574349 -3.4158424e-20)
(-0.77835711 0.050959916 -9.0302492e-20)
(-0.81076521 0.040019539 1.7119447e-19)
(-0.8355813 0.02785278 -1.0995019e-19)
(-0.85065768 0.014639228 -2.7314439e-20)
(-0.85386711 0.00060161104 -1.0858633e-19)
(-0.84325256 -0.013858741 -1.2993951e-19)
(-0.81728165 -0.028301145 -6.5839262e-21)
(-0.77490807 -0.042369993 2.7764161e-20)
(-0.7154805 -0.05585913 -2.0606169e-19)
(-0.63861428 -0.068678561 -8.8583883e-20)
(-0.54423671 -0.080702543 -9.198953e-20)
(-0.43263573 -0.091626117 -3.0446002e-20)
(-0.30466836 -0.10106949 -2.3998979e-19)
(-0.16199912 -0.10850936 9.620134e-20)
(-0.0075180605 -0.11300618 -2.9880952e-20)
(0.15429843 -0.11310043 -2.4784552e-19)
(0.31544352 -0.10731647 -9.9431006e-20)
(0.46646259 -0.095281967 1.1933905e-19)
(0.59744276 -0.079101792 4.1177769e-19)
(0.70525109 -0.061379455 -1.315991e-19)
(0.78763249 -0.045056289 -2.1143983e-19)
(0.85055814 -0.031418501 -9.0340639e-20)
(-0.0002420223 0.0024605135 -1.7484518e-20)
(-0.00077731141 0.007565496 2.0189682e-20)
(-0.0014059731 0.013135849 -7.3021764e-21)
(-0.0021483967 0.019198335 7.9425879e-22)
(-0.0030240809 0.025777146 -1.5704517e-20)
(-0.0040579356 0.032891757 1.6260429e-20)
(-0.0052795411 0.040555067 -2.468035e-20)
(-0.0067234911 0.048771025 1.1626536e-20)
(-0.0084301876 0.057531763 4.4243255e-20)
(-0.010446548 0.066814305 -1.0657139e-20)
(-0.012826675 0.076576887 -4.0647298e-20)
(-0.015632411 0.086755022 1.2438743e-20)
(-0.018933739 0.09725756 8.3622449e-22)
(-0.022808912 0.10796315 -3.2723644e-20)
(-0.027344188 0.11871771 1.0275685e-19)
(-0.032633071 0.12933375 -6.3351682e-20)
(-0.038774923 0.13959261 -6.0607622e-22)
(-0.045872887 0.14925093 3.5390886e-20)
(-0.054031161 0.15805252 -9.0392358e-20)
(-0.06335176 0.1657466 4.2940059e-20)
(-0.073931188 0.17211226 6.4462903e-20)
(-0.085857457 0.17698725 2.6248236e-20)
(-0.099208469 0.18029665 -1.3091018e-19)
(-0.11405538 0.18207397 -6.8821855e-20)
(-0.13046721 0.18246582 4.4901996e-20)
(-0.14848619 0.18170986 -2.6243835e-20)
(-0.1681641 0.18006281 9.9161823e-20)
(-0.18960221 0.17773197 -2.8589224e-20)
(-0.21285911 0.17488831 7.7520891e-20)
(-0.23797547 0.17167186 -4.4095216e-20)
(-0.26501919 0.16816627 2.7271539e-20)
(-0.29403681 0.16441003 -1.0085738e-19)
(-0.32505695 0.16041097 1.4624826e-20)
(-0.35808201 0.15615332 -7.7005061e-20)
(-0.39307682 0.15159921 7.421061e-20)
(-0.42995409 0.14668544 2.3554541e-20)
(-0.4685548 0.14131793 -2.9899198e-19)
(-0.50862263 0.13536635 -7.805415e-20)
(-0.54977073 0.12866063 6.5151194e-20)
(-0.59144125 0.12099107 -6.415869e-20)
(-0.63285947 0.11211512 1.6326207e-20)
(-0.67298573 0.10177447 1.0352938e-19)
(-0.71047637 0.089723139 -4.8910933e-21)
(-0.74365915 0.075777232 -3.4267176e-20)
(-0.77058971 0.059899249 1.6921147e-20)
(-0.78926304 0.042248528 -7.7237508e-21)
(-0.79754632 0.02309583 -2.3554353e-20)
(-0.79342095 0.0028091598 3.6849438e-19)
(-0.77516918 -0.018005593 -4.0936562e-20)
(-0.74154551 -0.038701082 3.7992863e-20)
(-0.69180193 -0.058771565 -3.5784361e-19)
(-0.62556957 -0.077937883 1.9735055e-19)
(-0.54270433 -0.096084116 1.6289353e-19)
(-0.44334011 -0.1130482 1.5703235e-19)
(-0.32801477 -0.12844841 1.5291891e-19)
(-0.19791675 -0.14176753 2.4315917e-19)
(-0.054956065 -0.15226694 -4.9118712e-19)
(0.097804267 -0.15864131 3.0623424e-19)
(0.25578975 -0.15872668 4.7102904e-19)
(0.41053206 -0.15031676 -3.4843161e-19)
(0.55220691 -0.13295143 -1.122327e-19)
(0.67155181 -0.10980341 -9.8556117e-20)
(0.76644937 -0.084850612 4.9885998e-19)
(0.83615119 -0.062039405 3.6574382e-19)
(0.88642161 -0.043149647 -1.5934656e-20)
(-0.00039678469 0.0031119208 1.2243993e-20)
(-0.0012488871 0.0095719079 -2.9439745e-20)
(-0.0022187267 0.016625065 2.4009635e-20)
(-0.0033258167 0.024306966 -9.077527e-21)
(-0.004589722 0.03265008 -3.2809754e-21)
(-0.0060342891 0.041681407 2.8255151e-20)
(-0.0076871992 0.051420122 -7.1653616e-21)
(-0.0095801615 0.061874632 -1.5228857e-20)
(-0.011749493 0.073038981 -1.1709614e-21)
(-0.01423661 0.084888701 -9.9595438e-21)
(-0.0170885 0.097376104 1.3975198e-20)
(-0.020358106 0.11042518 -9.7411984e-21)
(-0.024104604 0.12392636 -3.6001651e-20)
(-0.028393503 0.13773165 -1.0476749e-21)
(-0.033296484 0.15165082 2.7760758e-20)
(-0.038890916 0.16544976 1.9765454e-20)
(-0.045258985 0.17885231 -1.710668e-20)
(-0.052486385 0.19154724 1.6629119e-21)
(-0.060660615 0.20320222 3.3858421e-20)
(-0.069868991 0.213486 4.1564173e-20)
(-0.080196642 0.22209915 -4.7846723e-20)
(-0.091724784 0.22881152 -4.8569599e-20)
(-0.1045296 0.23350097 6.5930573e-20)
(-0.11868434 0.23618419 -8.2212253e-20)
(-0.13426661 0.23702727 -1.4335835e-19)
(-0.15133312 0.23632581 3.4028436e-19)
(-0.16993792 0.23442756 -1.8830504e-19)
(-0.19018205 0.23160978 2.7976319e-19)
(-0.212135 0.22809139 -3.5074425e-19)
(-0.2358338 0.22406616 3.9230385e-19)
(-0.26133551 0.219654 -4.0637745e-19)
(-0.28867965 0.21490982 6.8729921e-20)
(-0.31788189 0.2098456 2.3689851e-19)
(-0.3489284 0.20444017 -1.3389105e-19)
(-0.38176321 0.19864198 4.2008912e-20)
(-0.41627233 0.19236543 1.2452802e-20)
(-0.45226308 0.18548396 1.5152949e-19)
(-0.4894372 0.17782292 4.9208246e-20)
(-0.5273562 0.16915488 4.9301909e-20)
(-0.56539888 0.15919959 4.939928e-20)
(-0.60271477 0.14763382 -2.5183468e-19)
(-0.63818012 0.13411446 1.1043125e-19)
(-0.67036394 0.11831944 1.7023459e-20)
(-0.69751831 0.10002658 -2.009982e-19)
(-0.71772413 0.079233337 -1.0101699e-19)
(-0.72906467 0.056192925 4.9878898e-20)
(-0.72956235 0.031252612 1.7841087e-19)
(-0.71741664 0.0049557113 -7.7969865e-20)
(-0.69118073 -0.021894964 2.2450099e-19)
(-0.64984844 -0.048450605 1.2183095e-19)
(-0.59291478 -0.074065158 1.6889295e-19)
(-0.52024975 -0.098423843 4.5271775e-19)
(-0.43191183 -0.12141529 -3.5285574e-19)
(-0.32826576 -0.1428363 1.146211e-19)
(-0.21017898 -0.16221504 -2.0174713e-19)
(-0.079286154 -0.17890463 -1.9347658e-19)
(0.062128863 -0.19200307 -7.6183048e-20)
(0.21075687 -0.1999013 -7.1066811e-19)
(0.3618639 -0.19968226 -1.9405604e-19)
(0.50639424 -0.18834823 4.4809753e-19)
(0.63422041 -0.16556791 1.7009002e-19)
(0.73758563 -0.13569556 -1.2816074e-19)
(0.81591258 -0.10411043 -2.648571e-19)
(0.87031197 -0.075576876 -4.1067565e-19)
(0.90727091 -0.052430079 3.1232227e-20)
(-0.00057697938 0.003664488 3.7058937e-20)
(-0.0017982563 0.011276963 9.4471299e-21)
(-0.0031658811 0.019595012 -7.6553512e-21)
(-0.0046984911 0.028663062 -2.8275088e-20)
(-0.0064158222 0.038522187 1.550049e-20)
(-0.0083406186 0.049207768 -2.2329122e-20)
(-0.010498507 0.060746729 9.6714216e-21)
(-0.012918014 0.073154159 2.3062224e-21)
(-0.015630895 0.086429158 -1.3075648e-20)
(-0.018672363 0.10054997 -2.823609e-20)
(-0.022081318 0.11546836 -1.4171324e-21)
(-0.025900497 0.13110348 4.6682421e-20)
(-0.030176585 0.14733531 -6.481956e-20)
(-0.034960215 0.16399833 1.0516098e-19)
(-0.040305866 0.1808762 -2.763572e-20)
(-0.046271634 0.19769855 5.9085853e-20)
(-0.052918852 0.21414158 -7.1999839e-20)
(-0.060311619 0.2298345 4.7167504e-20)
(-0.068516231 0.24437407 -7.5323894e-21)
(-0.077600653 0.25734921 -3.0868935e-20)
(-0.087634151 0.26837674 7.5873819e-20)
(-0.098687209 0.27714655 -1.0838971e-19)
(-0.11083165 0.2834709 1.1928873e-19)
(-0.12414187 0.28732698 2.0649506e-20)
(-0.13870012 0.2888777 -2.0578272e-19)
(-0.15458641 0.28845696 2.1007986e-19)
(-0.17185844 0.28649564 -1.3791387e-19)
(-0.19060595 0.2833593 1.5580696e-19)
(-0.21092402 0.27931559 1.4658015e-20)
(-0.23284908 0.27461134 9.1348566e-21)
(-0.25641993 0.26941143 -6.3050492e-20)
(-0.28166946 0.26379265 4.0414978e-21)
(-0.30859809 0.25777334 -2.3926179e-19)
(-0.337173 0.25132701 6.5257124e-20)
(-0.36731403 0.24438749 1.9504857e-19)
(-0.39887693 0.23684564 -9.1483425e-20)
(-0.43163177 0.22854141 7.5618585e-20)
(-0.46523458 0.21925464 -7.5842181e-20)
(-0.49919088 0.20869861 -4.2387703e-19)
(-0.5328131 0.19652101 2.3477791e-19)
(-0.56517612 0.18231777 5.7336067e-20)
(-0.59508064 0.16566431 -3.2468384e-19)
(-0.62103091 0.14617384 1.9342903e-20)
(-0.64126461 0.12361288 3.9857079e-20)
(-0.65399891 0.098051363 4.2451439e-19)
(-0.65745806 0.069842355 9.7662533e-20)
(-0.64994179 0.039406901 -1.5225567e-19)
(-0.62989784 0.0074478913 -1.5466797e-19)
(-0.59603592 -0.025067039 -2.1853045e-19)
(-0.54742459 -0.057090674 -2.6864124e-19)
(-0.48371912 -0.087818045 -1.6386881e-19)
(-0.40501279 -0.11689022 -2.5661042e-19)
(-0.31159463 -0.14420289 8.8569448e-20)
(-0.20413824 -0.1695064 -5.4910975e-19)
(-0.083960756 -0.19222731 -3.7067758e-20)
(0.046732768 -0.21162139 -3.2427987e-20)
(0.18516835 -0.22670686 -1.7718019e-20)
(0.32770751 -0.23565879 7.6578975e-19)
(0.46927971 -0.23477553 3.0410149e-19)
(0.60008564 -0.22026801 -4.7348655e-19)
(0.71038111 -0.19214718 -6.8543763e-19)
(0.79460134 -0.15614735 -3.0809195e-19)
(0.85445499 -0.11890318 -1.0024123e-19)
(0.89320269 -0.085802013 5.8394087e-19)
(0.91836771 -0.059631232 -1.4658712e-19)
(-0.00077071406 0.0040950939 -6.9472005e-21)
(-0.0023900718 0.012609504 -1.5902954e-20)
(-0.0041863554 0.021922386 3.8402917e-20)
(-0.0061783316 0.032086694 -1.4300256e-21)
(-0.0083857377 0.043152341 -1.8725826e-20)
(-0.010830366 0.055163847 -8.2610006e-21)
(-0.013535876 0.068157361 -6.1070841e-21)
(-0.016527643 0.08215702 1.2053965e-20)
(-0.019832804 0.097170415 -6.2519082e-20)
(-0.023480213 0.11318321 4.7295058e-20)
(-0.027500369 0.13015285 -2.2916891e-21)
(-0.031925298 0.14800142 -2.8807036e-20)
(-0.036788408 0.16660795 1.0824836e-19)
(-0.042124332 0.18580058 -1.0845563e-19)
(-0.047968776 0.20534938 1.4548163e-20)
(-0.054358438 0.22496112 9.0619774e-20)
(-0.061331049 0.24427777 -8.5954016e-20)
(-0.068925638 0.26288096 3.0358124e-20)
(-0.077183127 0.2803055 -5.9586062e-20)
(-0.086147319 0.29606432 7.738441e-20)
(-0.095866424 0.30968713 1.4711829e-19)
(-0.10639495 0.32077187 -1.4753653e-19)
(-0.1177957 0.32904421 -2.1874769e-19)
(-0.13014129 0.33441366 4.2697128e-19)
(-0.14351649 0.33700882 -3.4594613e-19)
(-0.15801933 0.33717173 2.0250412e-19)
(-0.1737249 0.33539368 -5.2649296e-20)
(-0.190709 0.33215904 1.2493481e-19)
(-0.20908634 0.32780072 -1.2873271e-19)
(-0.22890989 0.32259485 -1.7377653e-19)
(-0.25019349 0.31676375 1.1612704e-19)
(-0.27296143 0.31041878 1.9234597e-19)
(-0.29719824 0.30358875 -1.7116188e-20)
(-0.32285006 0.29624324 -7.1700157e-21)
(-0.34981044 0.2883013 -1.2495502e-19)
(-0.3779032 0.27962986 5.4223739e-20)
(-0.4068594 0.27003454 1.9911388e-19)
(-0.43628739 0.25924834 1.001184e-19)
(-0.46563651 0.24692452 -1.5379771e-19)
(-0.4941558 0.23263934 1.2191586e-19)
(-0.52085452 0.21591091 -1.0322355e-19)
(-0.54447867 0.19624171 3.4863563e-20)
(-0.56350873 0.17320221 1.3125935e-19)
(-0.57625633 0.14658631 -3.1313541e-19)
(-0.58115675 0.11655915 -1.8563545e-19)
(-0.57668027 0.083552092 -1.1987537e-19)
(-0.56141997 0.048055451 3.744403e-19)
(-0.53397954 0.010837471 2.4143528e-19)
(-0.49300205 -0.027009841 2.8195001e-19)
(-0.43753928 -0.064194924 4.9046737e-19)
(-0.36745434 -0.099685853 -1.6943243e-19)
(-0.28309944 -0.13305744 3.5544912e-20)
(-0.18504008 -0.16421594 2.8548731e-19)
(-0.074336309 -0.19285064 8.4501992e-19)
(0.047141511 -0.21826714 5.6362895e-19)
(0.17657211 -0.23965554 2.2508086e-19)
(0.31070519 -0.25602987 6.666362e-19)
(0.44547262 -0.26541344 -4.587328e-19)
(0.57508329 -0.26334977 4.836753e-20)
(0.68904483 -0.2453864 7.6435923e-19)
(0.77909332 -0.21225048 5.2252553e-19)
(0.84237815 -0.17104602 2.4200348e-20)
(0.88369225 -0.12944592 -8.3826969e-19)
(0.90830221 -0.09318172 8.8730174e-20)
(0.92446075 -0.06518458 -1.2596026e-19)
(-0.00096419464 0.0043850413 -2.7211516e-20)
(-0.0029817417 0.013511832 1.3180329e-20)
(-0.0052071729 0.023506601 -1.7813696e-20)
(-0.0076597303 0.034430312 -1.0130901e-20)
(-0.010359314 0.046341633 2.8295476e-20)
(-0.013327032 0.059294729 2.6440722e-20)
(-0.016584882 0.073336222 -2.7167974e-20)
(-0.020155446 0.088501501 3.2731129e-21)
(-0.024061639 0.10481004 7.5972931e-22)
(-0.028326381 0.12225974 5.4133547e-20)
(-0.032972199 0.14082019 -5.9589342e-21)
(-0.038020794 0.16042485 -1.0990486e-19)
(-0.043492579 0.18096229 8.8270371e-20)
(-0.049406257 0.20226693 -3.0610615e-21)
(-0.055778502 0.22410994 -5.9877405e-20)
(-0.062623852 0.24619146 -5.1959052e-21)
(-0.06995498 0.26813616 1.3331685e-20)
(-0.0777835 0.28949448 6.0700337e-20)
(-0.086121525 0.30975299 -1.1246209e-19)
(-0.094984142 0.32835736 2.0019508e-19)
(-0.10439284 0.34475105 -4.3780993e-20)
(-0.11437969 0.35843055 3.2568067e-20)
(-0.12499179 0.36901355 -2.7210872e-20)
(-0.13629456 0.37630946 1.109276e-21)
(-0.14837289 0.38037301 -1.6519589e-19)
(-0.1613307 0.38151625 -1.6656485e-19)
(-0.17527601 0.38025802 3.3291076e-19)
(-0.19028449 0.37719286 5.5830163e-20)
(-0.20645502 0.37278103 -1.960218e-19)
(-0.22387762 0.36731162 -7.0068671e-20)
(-0.24256194 0.36105004 -1.5901146e-19)
(-0.26250651 0.35416383 1.8050549e-19)
(-0.28368187 0.34670255 7.9257859e-20)
(-0.3060111 0.33863471 -1.8499912e-19)
(-0.32936115 0.32986567 7.8153163e-20)
(-0.35352305 0.32023869 3.6798364e-20)
(-0.37818771 0.30952469 -1.099647e-19)
(-0.40291586 0.29741011 -2.8823565e-19)
(-0.42710293 0.28348971 -8.76502e-20)
(-0.44994069 0.26727142 5.8713416e-20)
(-0.4703871 0.24820278 1.3946112e-19)
(-0.48716016 0.22572899 1.4393891e-19)
(-0.49876449 0.19940641 1.5886477e-19)
(-0.50367314 0.16909584 3.3204478e-19)
(-0.50057419 0.13507912 -9.2624231e-21)
(-0.48824554 0.097821747 1.3870482e-19)
(-0.46547954 0.057812913 -7.4754032e-19)
(-0.43084152 0.015779447 -2.0610315e-19)
(-0.38280655 -0.027065422 -2.3435473e-19)
(-0.32062036 -0.069094267 -6.4838473e-19)
(-0.2444936 -0.1089906 7.5838609e-19)
(-0.15505363 -0.14627409 -1.6990387e-19)
(-0.053143881 -0.18083628 -5.4993889e-19)
(0.059762423 -0.21227685 -6.8270487e-19)
(0.18122197 -0.23978287 -8.7927121e-20)
(0.30786114 -0.26252563 2.2435738e-19)
(0.43604939 -0.27955168 3.6681305e-19)
(0.56127695 -0.28871053 -1.5724219e-19)
(0.67659397 -0.28489338 2.8647144e-19)
(0.77124696 -0.26344725 -2.4019582e-19)
(0.83920766 -0.22585451 -8.1326808e-20)
(0.88128295 -0.18061809 -2.3990398e-19)
(0.90560856 -0.13621441 1.0462752e-18)
(0.9187712 -0.098271597 3.4293923e-20)
(0.92891697 -0.069502636 4.1288603e-19)
(-0.0011421181 0.0045217286 2.5352522e-20)
(-0.0035264306 0.013944695 4.8606808e-21)
(-0.0061477207 0.024278595 -5.3438565e-21)
(-0.0090258708 0.035591528 -2.6280109e-20)
(-0.012181199 0.04795041 3.1540398e-20)
(-0.015634491 0.061419093 -2.6806995e-20)
(-0.019406584 0.076055446 -1.2824735e-20)
(-0.023517905 0.091907817 6.8884237e-22)
(-0.027987965 0.10901046 1.0860711e-20)
(-0.032834731 0.1273779 6.1887267e-20)
(-0.038073924 0.14699805 -1.041692e-19)
(-0.04371822 0.16782402 1.2553795e-19)
(-0.049776435 0.18976465 -3.7002787e-20)
(-0.056252736 0.21267399 -5.0437035e-20)
(-0.063146003 0.23634027 7.7768528e-20)
(-0.0704495 0.26047554 -1.5426256e-19)
(-0.078151072 0.28470749 1.88346e-19)
(-0.086234198 0.30857627 2.9827165e-21)
(-0.094680132 0.33153983 1.0996193e-19)
(-0.10347156 0.352992 -4.4138918e-19)
(-0.11259776 0.37229782 1.0820224e-19)
(-0.12206124 0.38884884 4.5337892e-19)
(-0.13188494 0.402137 -2.1724709e-19)
(-0.14211849 0.41183845 -2.6255474e-19)
(-0.1528412 0.41788854 6.6904161e-20)
(-0.16415918 0.42051975 3.5386781e-19)
(-0.17619562 0.42023329 -5.4197289e-19)
(-0.18906287 0.41768595 6.0634396e-19)
(-0.20283423 0.4134952 -4.8104196e-19)
(-0.21760192 0.40806187 9.2710417e-20)
(-0.23341667 0.40164005 -1.5977088e-19)
(-0.25024673 0.39443727 -2.2855358e-19)
(-0.26804847 0.38655182 9.0741031e-20)
(-0.28671962 0.37796776 2.3663178e-20)
(-0.30609743 0.36857985 3.3847448e-19)
(-0.32593871 0.35820735 -6.6224191e-20)
(-0.34589381 0.34658659 1.7013322e-19)
(-0.36547666 0.33335899 -1.4447976e-19)
(-0.38403131 0.31806437 8.6070458e-20)
(-0.400699 0.30014872 5.6092227e-20)
(-0.41440059 0.27900103 4.8113645e-20)
(-0.42385144 0.25403025 4.7695068e-20)
(-0.42762395 0.22481295 -2.904957e-19)
(-0.42440751 0.19131456 -2.2791837e-19)
(-0.41311271 0.15393189 6.3877341e-20)
(-0.39277821 0.11310825 -4.0411701e-20)
(-0.36224297 0.069227413 1.6768955e-19)
(-0.31991972 0.022909711 -3.3109526e-19)
(-0.26442975 -0.024449063 -3.8381385e-19)
(-0.19557118 -0.070842613 -1.1127321e-19)
(-0.11396384 -0.1147162 -2.9302616e-19)
(-0.020415694 -0.1555078 9.4520991e-21)
(0.084023716 -0.19308673 1.4329018e-19)
(0.19748359 -0.22693017 7.016711e-19)
(0.31700104 -0.25609722 -3.542619e-19)
(0.43879593 -0.27976224 1.4471248e-19)
(0.55901497 -0.29703018 -4.2844447e-19)
(0.67271934 -0.30544253 7.2739493e-19)
(0.77154756 -0.29937347 -4.2082748e-19)
(0.84485545 -0.27429251 1.4586975e-19)
(0.8900973 -0.23306188 -5.5308796e-22)
(0.91224791 -0.18543566 1.1479294e-19)
(0.92228709 -0.13987654 4.2468099e-19)
(0.92713459 -0.1016208 -7.9827991e-19)
(0.9337501 -0.072868162 8.0992904e-19)
(-0.0012889407 0.0045002899 -5.620598e-20)
(-0.0039765984 0.013892223 -2.7591646e-20)
(-0.0069259209 0.024209331 4.3341243e-20)
(-0.01015754 0.035525515 -1.1416838e-21)
(-0.013692419 0.047914892 -3.9252105e-20)
(-0.017551427 0.061450409 -2.0547368e-20)
(-0.02175484 0.076201211 4.3374028e-20)
(-0.026321781 0.092229467 -7.1333971e-21)
(-0.03126948 0.10958616 1.0082115e-19)
(-0.036612402 0.1283058 -1.9706084e-20)
(-0.042361236 0.14839976 -5.0563149e-22)
(-0.048521769 0.16984811 7.3026799e-20)
(-0.055093671 0.19258985 -2.3523322e-19)
(-0.062069271 0.21651156 1.1029077e-19)
(-0.069432464 0.24143485 1.9906894e-19)
(-0.077157929 0.26710333 -2.1400438e-19)
(-0.085210954 0.29317059 2.6598288e-20)
(-0.093548242 0.31919177 -1.5294504e-19)
(-0.1021202 0.34462203 -1.1511035e-19)
(-0.11087511 0.36882716 3.6735426e-19)
(-0.11976565 0.39111147 -2.8013181e-19)
(-0.12875768 0.41076828 3.7473537e-19)
(-0.13784053 0.4271546 -4.4789539e-20)
(-0.14703701 0.43978473 1.8578298e-19)
(-0.15641001 0.44842651 -4.1013957e-19)
(-0.16606173 0.45317111 9.8483867e-20)
(-0.17612198 0.45443962 2.5155408e-19)
(-0.18672427 0.45289701 -6.1447865e-19)
(-0.19797641 0.44927349 2.6956136e-19)
(-0.20993736 0.4441537 2.9207382e-19)
(-0.22265782 0.43787837 -2.4305413e-19)
(-0.23614638 0.43066308 -3.2460192e-20)
(-0.25032239 0.42261919 1.6497372e-19)
(-0.26506158 0.41375738 -9.1795647e-20)
(-0.28017431 0.40398297 1.4157369e-19)
(-0.29538113 0.3930987 -5.0059153e-19)
(-0.31028884 0.38081039 2.6424986e-19)
(-0.32436301 0.3667184 1.5980623e-19)
(-0.3368972 0.35031249 3.2927422e-19)
(-0.3469885 0.33098626 4.3732879e-20)
(-0.35353283 0.30808546 -3.5483429e-19)
(-0.35526316 0.28100786 1.4291856e-19)
(-0.35084993 0.24938493 2.1080517e-19)
(-0.33918497 0.21329443 3.2852049e-20)
(-0.31934407 0.17322217 -2.0370139e-19)
(-0.29050242 0.12956206 -1.7827959e-19)
(-0.25144753 0.082515131 5.3989004e-19)
(-0.20066665 0.032635103 2.848542e-19)
(-0.13746484 -0.018478116 6.1704e-19)
(-0.062368014 -0.068514156 2.1657178e-19)
(0.023731289 -0.11575937 8.4169222e-20)
(0.11997062 -0.159633 6.2684486e-19)
(0.22515307 -0.19990667 2.4848573e-19)
(0.33708788 -0.23585549 -8.4015247e-19)
(0.45242062 -0.26638685 6.7953666e-19)
(0.56710787 -0.29072649 -6.2921009e-19)
(0.67739916 -0.30793208 3.0356934e-19)
(0.77757469 -0.31511494 -1.4730641e-18)
(0.85777154 -0.30635416 -7.3768283e-19)
(0.90846502 -0.27824432 2.9700527e-19)
(0.93162501 -0.23480898 4.6157664e-19)
(0.93647254 -0.18628587 7.6453674e-19)
(0.93565087 -0.14110987 1.3248669e-19)
(0.93511204 -0.10365601 1.0361728e-19)
(0.93978603 -0.0754643 -1.0821152e-18)
(-0.0013903798 0.0043248344 -1.0123709e-21)
(-0.0042884198 0.013365846 5.1264373e-20)
(-0.0074658925 0.02331669 -6.0468824e-20)
(-0.010944182 0.034255248 -2.912043e-20)
(-0.01474503 0.046261177 5.8374379e-20)
(-0.018889736 0.059415157 1.8927889e-20)
(-0.023398618 0.073796676 -9.1918063e-20)
(-0.02829041 0.089481419 9.9076653e-20)
(-0.033581338 0.10653768 2.094295e-20)
(-0.039284073 0.12502169 8.3516572e-20)
(-0.045406476 0.14497162 -2.2243451e-19)
(-0.051950171 0.16639984 -2.723533e-21)
(-0.058908955 0.18928345 2.0138625e-19)
(-0.066267124 0.21355268 -2.1733158e-19)
(-0.073997815 0.23907736 1.5658055e-19)
(-0.082061593 0.26565184 5.8500256e-20)
(-0.090405591 0.29297943 -1.2330525e-19)
(-0.098963622 0.32065834 1.1241943e-19)
(-0.1076579 0.34817257 1.513809e-19)
(-0.11640309 0.37489254 -3.2576048e-21)
(-0.12511321 0.40009199 -2.4506642e-19)
(-0.1337119 0.42298787 1.5367166e-19)
(-0.14214544 0.44280865 -8.6853793e-20)
(-0.15039693 0.45889053 -4.2607747e-19)
(-0.15849809 0.4707907 -1.4424874e-19)
(-0.16653355 0.4783908 3.9700125e-19)
(-0.17463218 0.48195034 -4.0100681e-20)
(-0.18294202 0.482067 4.5794325e-19)
(-0.19159447 0.47952231 -2.739154e-19)
(-0.20067328 0.47506015 1.4590237e-19)
(-0.21021921 0.46921425 -2.1351579e-19)
(-0.2202118 0.46226649 -5.2456302e-20)
(-0.2305761 0.45434993 2.6663319e-19)
(-0.24118592 0.44549281 -2.7766446e-19)
(-0.25181641 0.43560411 -4.103095e-19)
(-0.26215157 0.4244749 4.1945219e-20)
(-0.27175381 0.41178594 4.5232579e-19)
(-0.28003973 0.39710231 -5.8419696e-19)
(-0.28625378 0.3798768 1.2737721e-19)
(-0.28945364 0.3594632 -2.7396596e-19)
(-0.28852235 0.3351807 4.2494665e-20)
(-0.2822243 0.30643585 -4.3181672e-19)
(-0.26934963 0.27292453 -2.0750829e-19)
(-0.24891742 0.23485177 -2.5742616e-19)
(-0.22012789 0.19275767 1.0370475e-18)
(-0.18219748 0.1469676 3.3761722e-19)
(-0.13393491 0.097541845 -4.4916621e-19)
(-0.074401773 0.0450132 3.6485571e-19)
(-0.0038842331 -0.0088393232 3.0513773e-19)
(0.076526057 -0.061605044 -3.447534e-19)
(0.16582404 -0.1115997 -1.808567e-19)
(0.26313133 -0.15817433 -4.2605754e-19)
(0.36718176 -0.20086505 -2.0782714e-19)
(0.47556788 -0.23869939 7.1246406e-19)
(0.58464012 -0.27044317 4.0240547e-19)
(0.69037732 -0.29538176 6.4931814e-20)
(0.78916747 -0.31246912 -2.9134684e-21)
(0.87396172 -0.31826407 3.6530983e-19)
(0.93358242 -0.30698577 -5.2527609e-19)
(0.96128766 -0.27634639 -6.7749737e-19)
(0.96429701 -0.23185907 -1.8871379e-19)
(0.95545676 -0.18407763 -1.4137427e-18)
(0.94734205 -0.14055127 -1.109209e-18)
(0.9436349 -0.10466694 -2.7991268e-19)
(0.94707955 -0.077361124 -1.4758419e-19)
(-0.0014351383 0.0040093792 3.4236064e-20)
(-0.0044270495 0.012407272 2.151847e-20)
(-0.007707026 0.021670821 -4.4774492e-20)
(-0.011297049 0.031879601 7.6786226e-20)
(-0.015219604 0.043116515 1.9236202e-20)
(-0.019496613 0.055467767 -8.2498144e-20)
(-0.02414891 0.069021163 4.2219445e-22)
(-0.02919564 0.08386421 -4.9492588e-20)
(-0.034653246 0.10008134 1.479389e-20)
(-0.040534318 0.11775018 -3.3274159e-22)
(-0.046846186 0.13693648 8.0934187e-20)
(-0.053589281 0.15768741 1.8617969e-20)