/*--------------------------------*- C++ -*----------------------------------*\
  =========                 |
  \\      /  F ield         | OpenFOAM: The Open Source CFD Toolbox
   \\    /   O peration     | Website:  https://openfoam.org
    \\  /    A nd           | Version:  13
     \\/     M anipulation  |
\*---------------------------------------------------------------------------*/
FoamFile
{
    format      ascii;
    class       volVectorField;
    location    "11.298222";
    object      UMean;
}
// * * * * * * * * * * * * * * * * * * * * * * * * * * * * * * * * * * * * * //

dimensions      [0 1 -1 0 0 0 0];

internalField   nonuniform List<vector> 
17140
(
(-3.5396692e-06 0.00015796087 -3.28419e-22)
(-4.3797455e-05 0.0004860436 -2.7570798e-23)
(-0.0001303129 0.00084451478 1.8218734e-21)
(-0.00028124835 0.0012350932 -2.0036932e-21)
(-0.00051288871 0.0016595568 2.3435801e-22)
(-0.00084759609 0.0021194028 -7.6734494e-22)
(-0.001312855 0.0026157614 -1.29273e-21)
(-0.0019418524 0.003149248 6.3202861e-22)
(-0.0027745227 0.0037197873 2.0704354e-21)
(-0.0038585668 0.0043264066 5.0849524e-21)
(-0.0052504596 0.0049670002 -7.5545069e-21)
(-0.0070163998 0.0056380702 6.7469288e-21)
(-0.0092331211 0.0063344569 1.0346966e-21)
(-0.01198844 0.0070490721 -5.8766978e-21)
(-0.015381385 0.0077726737 6.5484175e-22)
(-0.019521725 0.0084937155 -5.2137035e-21)
(-0.024528702 0.0091983446 1.958334e-22)
(-0.030528793 0.009870603 -4.3218753e-23)
(-0.037652391 0.010492927 -3.141588e-21)
(-0.046029423 0.011047014 4.1075493e-21)
(-0.055784165 0.011515105 -1.991993e-21)
(-0.067029832 0.011881664 3.8504258e-22)
(-0.079863681 0.012135282 2.8494564e-21)
(-0.094364413 0.012270522 -2.8584688e-21)
(-0.11059535 0.012289191 -4.5813905e-21)
(-0.12860508 0.012200579 3.7108354e-21)
(-0.14841738 0.012019996 1.8308877e-20)
(-0.17007698 0.011763799 2.1586559e-21)
(-0.19364785 0.011446391 -1.9139365e-20)
(-0.21916474 0.011080825 -4.4859581e-21)
(-0.24667485 0.010676125 -1.611129e-20)
(-0.27623153 0.010237001 2.1352193e-20)
(-0.30787109 0.0097650522 -5.5773186e-21)
(-0.34161126 0.0092595112 -2.6875096e-21)
(-0.37744055 0.0087179185 -2.6445283e-20)
(-0.41530561 0.0081361099 1.1690472e-20)
(-0.4550954 0.0075080429 -1.762011e-20)
(-0.49661958 0.0068256302 -1.194139e-20)
(-0.53958 0.0060783048 -5.4626263e-21)
(-0.58353507 0.0052537107 1.6599362e-20)
(-0.6278582 0.0043374253 3.1225014e-20)
(-0.67169366 0.0033152076 2.8227889e-20)
(-0.71390981 0.0021743728 1.2271184e-20)
(-0.75307814 0.0009071133 -5.9074279e-20)
(-0.78747974 -0.00048468762 -4.2797281e-20)
(-0.81512014 -0.0019777428 1.0428453e-20)
(-0.83394132 -0.0035401043 -7.0156607e-20)
(-0.84181989 -0.0051400794 -2.3603842e-20)
(-0.83656138 -0.0067373603 2.3860837e-20)
(-0.81680193 -0.0082637314 5.8051501e-20)
(-0.78126578 -0.0096338514 -3.5638251e-20)
(-0.72911396 -0.010803229 -2.2509429e-20)
(-0.65963213 -0.011851927 5.8707339e-20)
(-0.57227845 -0.012773387 2.7868513e-20)
(-0.46722101 -0.013386434 2.0024231e-20)
(-0.34528677 -0.013670082 -1.5770688e-20)
(-0.20786942 -0.013610094 4.3317889e-20)
(-0.058191128 -0.013046175 3.64772e-20)
(0.098588653 -0.011840576 9.2275674e-21)
(0.25403829 -0.0099470696 -2.3827822e-20)
(0.39957817 -0.0074871793 -1.869182e-20)
(0.5269573 -0.0047413168 -6.9104062e-20)
(0.63357001 -0.0020780312 -1.0105051e-20)
(0.71739562 0.00026315358 8.4677986e-20)
(0.78408344 0.0019332106 -6.5303923e-20)
(-3.4475429e-05 0.00080597769 9.3257779e-23)
(-0.00013821436 0.0024803031 -9.545362e-21)
(-0.00029329527 0.0043100838 8.4964434e-21)
(-0.00051777927 0.0063050435 -2.3175078e-21)
(-0.00082803592 0.008474533 -4.7889798e-21)
(-0.0012463081 0.010826645 9.155537e-21)
(-0.0017998105 0.013367707 -9.551681e-21)
(-0.0025212797 0.016101552 8.4139697e-22)
(-0.0034499752 0.019028653 -2.629691e-21)
(-0.004632656 0.022145084 -4.4144342e-23)
(-0.006124546 0.025441364 -8.8069676e-21)
(-0.0079902432 0.028901147 1.4025697e-20)
(-0.010304502 0.032499878 1.1612121e-21)
(-0.013152763 0.036203453 -1.1495923e-20)
(-0.016631289 0.039967078 3.5441522e-21)
(-0.020846728 0.04373452 2.2590519e-21)
(-0.025914931 0.047438047 -1.4384489e-20)
(-0.031958839 0.050999446 4.7088406e-20)
(-0.039105346 0.054332512 -2.9633971e-20)
(-0.047481148 0.057347395 3.5686264e-20)
(-0.057207832 0.059957071 -5.3030068e-20)
(-0.068396698 0.062085758 1.3081655e-20)
(-0.081144112 0.063678592 5.4281709e-21)
(-0.095528882 0.064710921 -1.7831756e-20)
(-0.11161516 0.065194757 6.4590381e-20)
(-0.12945399 0.065179815 9.6667238e-21)
(-0.14907101 0.064745469 -5.062538e-20)
(-0.17051097 0.063976383 5.7086646e-20)
(-0.19383998 0.062946896 -7.9591489e-21)
(-0.21909328 0.06172308 -7.7865682e-20)
(-0.24631606 0.060351904 8.170273e-21)
(-0.27556018 0.058859035 6.2586657e-20)
(-0.30685944 0.057254145 1.5197767e-21)
(-0.34022823 0.055534955 -4.7205233e-20)
(-0.37565062 0.053689729 5.2998613e-20)
(-0.41306758 0.051697225 -2.3944004e-20)
(-0.45236056 0.049525218 2.8432126e-20)
(-0.49332958 0.047128705 9.0462306e-20)
(-0.53566427 0.044448283 2.0227352e-20)
(-0.57890788 0.041410155 7.9241386e-20)
(-0.6224149 0.037927996 -1.0166439e-19)
(-0.66530571 0.033908594 -9.3084665e-20)
(-0.70642128 0.029262508 -1.5733711e-20)
(-0.74429794 0.023918756 1.2642548e-19)
(-0.77716973 0.017846487 -5.9050444e-20)
(-0.80300684 0.01108152 -2.0266277e-20)
(-0.81964661 0.0037160955 1.0917668e-20)
(-0.8249305 -0.0041092493 3.3517484e-20)
(-0.81692205 -0.012125967 -1.6312951e-20)
(-0.79400198 -0.020071627 2.9343499e-20)
(-0.75495324 -0.027771108 1.7641563e-19)
(-0.69894081 -0.035093077 8.4465266e-21)
(-0.62543671 -0.042011202 -3.8176957e-20)
(-0.53425229 -0.048385049 8.5360078e-20)
(-0.42556654 -0.053976773 -7.3413531e-20)
(-0.30012463 -0.058600973 2.1028682e-19)
(-0.15971341 -0.061880343 6.0471607e-20)
(-0.0077361516 -0.06313412 -1.7248326e-19)
(0.15042469 -0.061549536 2.9377357e-20)
(0.30604867 -0.056618069 3.3837536e-20)
(0.45047739 -0.048748574 6.8093926e-21)
(0.57551721 -0.039176939 -9.0223637e-20)
(0.67889266 -0.029408715 1.7556696e-19)
(0.75916332 -0.02071975 5.2376059e-20)
(0.82205321 -0.013809464 8.6932702e-20)
(-0.00010075703 0.0014390556 5.1379221e-21)
(-0.00034036742 0.0044291547 -2.8774334e-21)
(-0.00064202233 0.0076976217 -7.6540728e-22)
(-0.0010235045 0.011262325 7.2620365e-22)
(-0.0015013098 0.015140324 -3.5200573e-21)
(-0.0020973467 0.019346549 -2.6148104e-22)
(-0.0028381571 0.023892885 -3.3484996e-21)
(-0.003755401 0.028786891 -3.6108461e-21)
(-0.0048867646 0.034030256 2.9557028e-20)
(-0.0062768418 0.039616979 -2.6429396e-20)
(-0.007978009 0.04553128 1.2671283e-20)
(-0.010051252 0.051745284 1.8604252e-20)
(-0.01256688 0.058216568 -3.6994515e-20)
(-0.015605029 0.064885748 -4.5911137e-21)
(-0.019255805 0.071674335 1.780301e-20)
(-0.023618947 0.07848328 1.2288728e-20)
(-0.028802809 0.085192716 -1.4320383e-20)
(-0.034922544 0.09166355 5.2115484e-20)
(-0.042097358 0.097741671 -3.0999912e-20)
(-0.050446868 0.10326551 1.5422304e-20)
(-0.060086743 0.10807737 -5.2402581e-20)
(-0.071124097 0.11203852 -1.3733589e-20)
(-0.083653278 0.11504658 2.8886562e-20)
(-0.097753241 0.1170527 -4.380672e-20)
(-0.11348976 0.11807387 -1.7352104e-20)
(-0.1309188 0.11819557 2.110334e-20)
(-0.15007019 0.11755887 1.2057703e-19)
(-0.17098826 0.11631939 5.4879041e-20)
(-0.19374276 0.11461233 -2.776266e-20)
(-0.21837019 0.11255666 2.9702384e-20)
(-0.24491069 0.11024005 -1.8946195e-20)
(-0.27341224 0.10771121 -1.0725953e-19)
(-0.30390273 0.10498875 3.6186115e-20)
(-0.33638855 0.10206907 1.0865471e-19)
(-0.37084347 0.098930737 -3.6786716e-20)
(-0.40719521 0.09553475 -5.1579868e-20)
(-0.4453081 0.091821945 8.983156e-20)
(-0.48496032 0.087709324 2.7408729e-20)
(-0.52581381 0.08308733 -4.9342787e-20)
(-0.56737689 0.077818988 -1.993379e-20)
(-0.60896018 0.071743611 9.5551934e-20)
(-0.64962984 0.064685947 -2.7360574e-20)
(-0.68816138 0.056475773 -3.946234e-20)
(-0.72301644 0.046975981 -1.0479099e-19)
(-0.75234367 0.036121869 1.9919238e-19)
(-0.77404505 0.023969943 -1.2837965e-19)
(-0.78594493 0.010715013 -3.2055569e-20)
(-0.78591241 -0.0033489448 -1.2750518e-19)
(-0.77204451 -0.017807215 -1.5288049e-19)
(-0.74284064 -0.032192746 -7.766928e-21)
(-0.69732414 -0.046127238 3.279566e-20)
(-0.63494083 -0.059385726 -2.4305848e-19)
(-0.55543061 -0.071905668 -1.0439139e-19)
(-0.45881439 -0.083521757 -1.0823113e-19)
(-0.34545297 -0.093876938 -3.5771206e-20)
(-0.21642873 -0.10253684 -2.8098093e-19)
(-0.073785466 -0.10880503 1.1239712e-19)
(0.078891443 -0.11150938 -3.4742307e-20)
(0.2360266 -0.10914139 -2.8724898e-19)
(0.38849374 -0.10075297 -1.1482076e-19)
(0.52762992 -0.08710462 1.3731797e-19)
(0.64565219 -0.070459918 4.7283764e-19)
(0.74097177 -0.053554248 -1.5097764e-19)
(0.81299692 -0.038613269 -2.4266802e-19)
(0.86730383 -0.026473919 -1.0373642e-19)
(-0.00020007625 0.0020344258 -1.7152142e-20)
(-0.00064328372 0.0062630627 2.0660622e-20)
(-0.001164542 0.010887148 -7.472993e-21)
(-0.0017812153 0.015932716 8.12868e-22)
(-0.0025099832 0.021424657 -1.6075026e-20)
(-0.003372245 0.027385075 1.664561e-20)
(-0.0043935249 0.033831982 -2.5269154e-20)
(-0.0056038571 0.040777525 1.1905272e-20)
(-0.0070385545 0.048225833 4.5315408e-20)
(-0.0087389447 0.056170448 -1.091751e-20)
(-0.010753108 0.06459139 -4.1655736e-20)
(-0.013136571 0.073451845 1.2751818e-20)
(-0.015952927 0.082694643 8.5721121e-22)
(-0.019274268 0.092238705 -3.3584121e-20)
(-0.023181353 0.10197583 1.0553587e-19)
(-0.027763386 0.11176833 -6.5124831e-20)
(-0.033117255 0.12144832 -6.2370655e-22)
(-0.039346119 0.13081938 3.6479174e-20)
(-0.04655726 0.13966208 -9.335011e-20)
(-0.054859187 0.14774405 4.4448979e-20)
(-0.064358135 0.15483567 6.6925567e-20)
(-0.075154315 0.16073129 2.735721e-20)
(-0.087338415 0.16527436 -1.3698119e-19)
(-0.10098911 0.16838293 -7.2387385e-20)
(-0.11617432 0.1700689 4.7457933e-20)
(-0.13295628 0.17044395 -2.7940587e-20)
(-0.15137247 0.16970499 1.0621804e-19)
(-0.17146702 0.16808217 -3.0846555e-20)
(-0.19331277 0.16577165 8.4187614e-20)
(-0.21694953 0.16294483 -4.81968e-20)
(-0.24241016 0.15973466 3.0034169e-20)
(-0.26973611 0.15621651 -1.1167052e-19)
(-0.29894645 0.15241952 1.6266409e-20)
(-0.33003534 0.14833915 -8.6209045e-20)
(-0.36296086 0.1439438 8.3441432e-20)
(-0.39763068 0.1391759 2.6669754e-20)
(-0.43388363 0.13394811 -3.3896819e-19)
(-0.47146555 0.12813813 -8.8884701e-20)
(-0.50999781 0.1215844 7.4395114e-20)
(-0.54893837 0.11408482 -7.3508925e-20)
(-0.58753641 0.10540188 1.8807582e-20)
(-0.6247849 0.095277207 1.1939246e-19)
(-0.65937756 0.083459575 -5.6410705e-21)
(-0.68968899 0.069749155 -3.9849644e-20)
(-0.71378735 0.054058259 1.9649401e-20)
(-0.72955248 0.036487685 -9.173129e-21)
(-0.73483959 0.017341784 -2.7704325e-20)
(-0.72761952 -0.0029256328 4.3292422e-19)
(-0.70620013 -0.023680501 -4.821706e-20)
(-0.66939965 -0.044240169 4.4798072e-20)
(-0.61658305 -0.06406535 -4.222699e-19)
(-0.54751599 -0.082857412 2.3278732e-19)
(-0.46219142 -0.10052858 1.9208622e-19)
(-0.36083632 -0.11688374 1.8485644e-19)
(-0.24407485 -0.13148576 1.7962183e-19)
(-0.11331086 -0.14371183 2.8482956e-19)
(0.029163797 -0.15257069 -5.7386687e-19)
(0.17955488 -0.15640629 3.5656879e-19)
(0.33209536 -0.1529478 5.4618874e-19)
(0.47708873 -0.1408209 -4.0257938e-19)
(0.60600907 -0.12129557 -1.2917635e-19)
(0.7121489 -0.097713738 -1.1308079e-19)
(0.7948251 -0.074052826 5.7271783e-19)
(0.85471981 -0.053280919 4.1992635e-19)
(0.89737059 -0.036556867 -1.8338126e-20)
(-0.00032758725 0.0025695357 1.2027044e-20)
(-0.0010322801 0.0079130122 -3.0188384e-20)
(-0.0018356429 0.013759343 2.4621619e-20)
(-0.0027545456 0.020142669 -9.3095747e-21)
(-0.0038059331 0.027095776 -3.3652e-21)
(-0.0050105928 0.034648316 2.8983314e-20)
(-0.0063927884 0.042825148 -7.3505404e-21)
(-0.0079805206 0.051644166 -1.5625549e-20)
(-0.0098061119 0.061113604 -1.2015056e-21)
(-0.011906755 0.07122886 -1.0222942e-20)
(-0.014325068 0.081968761 1.4349515e-20)
(-0.017109608 0.093291358 -1.0005208e-20)
(-0.020315348 0.10512935 -3.6995746e-20)
(-0.024004011 0.11738542 -1.0770782e-21)
(-0.028244239 0.12992776 2.8561486e-20)
(-0.033111481 0.14258667 2.0354129e-20)
(-0.03868752 0.1551528 -1.7637058e-20)
(-0.045059558 0.16737863 1.7148324e-21)
(-0.05231879 0.17898415 3.5018504e-20)
(-0.060558456 0.18966884 4.3094635e-20)
(-0.069871459 0.19913054 -4.9752163e-20)
(-0.080347781 0.20709215 -5.0680548e-20)
(-0.092072011 0.21333411 6.9082724e-20)
(-0.10512136 0.21772859 -8.6575448e-20)
(-0.11956592 0.22026752 -1.5184737e-19)
(-0.13547345 0.22107401 3.625888e-19)
(-0.15289533 0.22038967 -2.0200051e-19)
(-0.17187478 0.21851833 3.0226904e-19)
(-0.1924833 0.21572142 -3.8147527e-19)
(-0.21477137 0.21222221 4.2962599e-19)
(-0.23876243 0.20820423 -4.4794366e-19)
(-0.26448825 0.20377496 7.6161444e-20)
(-0.291957 0.19897679 2.6418538e-19)
(-0.32114691 0.1938052 -1.5005833e-19)
(-0.35199605 0.18821828 4.7282753e-20)
(-0.38438671 0.18213886 1.4039976e-20)
(-0.41812581 0.17545026 1.7203405e-19)
(-0.4529194 0.1679894 5.6140979e-20)
(-0.48833977 0.1595411 5.651653e-20)
(-0.52378583 0.14983651 5.6684722e-20)
(-0.55843724 0.13856029 -2.898509e-19)
(-0.591208 0.12537011 1.2748959e-19)
(-0.62070934 0.10993575 1.984047e-20)
(-0.64524073 0.092001847 -2.3358398e-19)
(-0.66283075 0.071477207 -1.1784399e-19)
(-0.6714113 0.048536291 5.8260222e-20)
(-0.66896321 0.023621865 2.0930676e-19)
(-0.65370196 -0.0026326288 -9.1547968e-20)
(-0.62424776 -0.02937193 2.6452348e-19)
(-0.57975341 -0.055698116 1.4377452e-19)
(-0.51988048 -0.080928325 1.9937073e-19)
(-0.44464331 -0.10473558 5.3483558e-19)
(-0.35420943 -0.12705583 -4.1640532e-19)
(-0.2489822 -0.14767211 1.3533805e-19)
(-0.12990577 -0.16602733 -2.3725423e-19)
(0.0011658639 -0.18131459 -2.2705582e-19)
(0.14152586 -0.19230961 -8.9260948e-20)
(0.28706488 -0.1969129 -8.2808701e-19)
(0.43177685 -0.19201742 -2.2509518e-19)
(0.56533682 -0.17588626 5.1769077e-19)
(0.67985744 -0.15053332 1.9595719e-19)
(0.77021738 -0.12040346 -1.4715538e-19)
(0.8372131 -0.09064795 -3.0395191e-19)
(0.88312299 -0.064826983 -4.7164253e-19)
(0.9141108 -0.044478257 3.5881938e-20)
(-0.0004759159 0.0030228984 3.6460639e-20)
(-0.0014849778 0.0093131687 9.7119268e-21)
(-0.0026168565 0.016200232 -7.8697726e-21)
(-0.0038879328 0.023726126 -2.9070218e-20)
(-0.0053155237 0.031931496 1.5937869e-20)
(-0.0069197928 0.040853882 -2.296117e-20)
(-0.0087236381 0.050525763 9.9462642e-21)
(-0.010752809 0.060972098 2.3721037e-21)
(-0.013036279 0.072207242 -1.3451324e-20)
(-0.015606564 0.084231253 -2.9053113e-20)
(-0.018500054 0.097025525 -1.4590565e-21)
(-0.021757317 0.1105478 4.8060554e-20)
(-0.02542336 0.12472661 -6.6760296e-20)
(-0.029547839 0.13945547 1.083609e-19)
(-0.034185162 0.1545872 -2.8494929e-20)
(-0.039394456 0.16992899 6.0974572e-20)
(-0.045239373 0.18523946 -7.4377217e-20)
(-0.051787668 0.20022885 4.8790796e-20)
(-0.059110562 0.21456426 -7.8046376e-21)
(-0.067281865 0.22788196 -3.2056596e-20)
(-0.076376915 0.23980836 7.9021399e-20)
(-0.086471436 0.24999074 -1.1327939e-19)
(-0.09764045 0.25813644 1.2519899e-19)
(-0.10995728 0.26405595 2.1804645e-20)
(-0.12349319 0.26770119 -2.1828284e-19)
(-0.13831991 0.26918614 2.2424684e-19)
(-0.15450581 0.26877813 -1.4818865e-19)
(-0.17209595 0.26684388 1.6863415e-19)
(-0.19115647 0.26372667 1.6043805e-20)
(-0.21175416 0.25969938 1.0084961e-20)
(-0.23390567 0.25499729 -6.9587068e-20)
(-0.2576275 0.24976891 4.5406326e-21)
(-0.28291613 0.24407508 -2.6726022e-19)
(-0.30973097 0.23791356 7.3192968e-20)
(-0.33798683 0.23123236 2.2002487e-19)
(-0.36753692 0.22393415 -1.0358574e-19)
(-0.39815206 0.21587183 8.5907165e-20)
(-0.42949389 0.20684053 -8.6567479e-20)
(-0.46108202 0.1965708 -4.8525e-19)
(-0.49225363 0.18472667 2.6961495e-19)
(-0.5221184 0.17091462 6.6104701e-20)
(-0.5495167 0.15471009 -3.7549079e-19)
(-0.57299427 0.13571024 2.2224083e-20)
(-0.59081273 0.11361887 4.6210217e-20)
(-0.60103567 0.088368134 4.954853e-19)
(-0.60175057 0.060233229 1.142993e-19)
(-0.59118395 0.029808174 -1.7875886e-19)
(-0.56787997 -0.0020885186 -1.8196345e-19)
(-0.53075079 -0.034403523 -2.5767971e-19)
(-0.479136 -0.066051624 -3.1737641e-19)
(-0.41283924 -0.096220196 -1.9377705e-19)
(-0.33203934 -0.12455729 -3.0314502e-19)
(-0.23705205 -0.1510209 1.043905e-19)
(-0.12851561 -0.17534649 -6.4758135e-19)
(-0.0078363036 -0.19683839 -4.3808776e-20)
(0.12249747 -0.21453227 -3.8044833e-20)
(0.2592125 -0.22704443 -2.0963401e-20)
(0.39772311 -0.23193549 8.9292068e-19)
(0.53158274 -0.22525193 3.5330133e-19)
(0.65021295 -0.20495266 -5.4798159e-19)
(0.74707832 -0.17404067 -7.9020432e-19)
(0.8190497 -0.13809601 -3.5434228e-19)
(0.86915061 -0.10328714 -1.1511099e-19)
(0.90135983 -0.073565925 6.7101658e-19)
(0.92254757 -0.050714482 -1.6850568e-19)
(-0.00063532083 0.0033757464 -6.8475078e-21)
(-0.0019722392 0.010405729 -1.6395216e-20)
(-0.0034578135 0.018109499 3.9593453e-20)
(-0.0051085835 0.026536462 -1.474188e-21)
(-0.0069421524 0.035734949 -1.9308454e-20)
(-0.0089781636 0.045750576 -8.5189506e-21)
(-0.011238206 0.056624136 -6.2984043e-21)
(-0.013745786 0.068388977 1.2432886e-20)
(-0.016526464 0.081067682 -6.4493923e-20)
(-0.019607935 0.09466804 4.8796669e-20)
(-0.023020101 0.10917822 -2.3654513e-21)
(-0.026795111 0.12456116 -2.9736207e-20)
(-0.030967385 0.14074819 1.1177885e-19)
(-0.035573617 0.15763213 -1.120423e-19)
(-0.040652746 0.17506031 1.5036196e-20)
(-0.046245937 0.19282808 9.3739527e-20)
(-0.052396558 0.21067396 -8.8997737e-20)
(-0.059150203 0.22827804 3.1467981e-20)
(-0.066554785 0.24526545 -6.1875721e-20)
(-0.074660755 0.26121764 8.0534398e-20)
(-0.083521451 0.27569354 1.5352941e-19)
(-0.093193644 0.28826261 -1.5448991e-19)
(-0.10373814 0.29854918 -2.3003934e-19)
(-0.11522028 0.30628425 4.5120009e-19)
(-0.12770989 0.3113552 -3.6762556e-19)
(-0.14128145 0.31383906 2.165431e-19)
(-0.15601506 0.31400231 -5.6658062e-20)
(-0.17197119 0.31225511 1.3544823e-19)
(-0.18920653 0.30903583 -1.4044493e-19)
(-0.20779642 0.30467843 -1.9099838e-19)
(-0.22776779 0.29945913 1.2840136e-19)
(-0.24911393 0.29357953 2.1412141e-19)
(-0.27181846 0.28712891 -1.9108026e-20)
(-0.29582058 0.28011141 -8.0319671e-21)
(-0.32100947 0.27246664 -1.4114346e-19)
(-0.34720666 0.26407696 6.1530124e-20)
(-0.37414437 0.25476449 2.2676676e-19)
(-0.40143847 0.24428267 1.1452352e-19)
(-0.42855513 0.23230804 -1.763993e-19)
(-0.45477136 0.21843809 1.4012921e-19)
(-0.47913317 0.20220336 -1.1918275e-19)
(-0.50042303 0.18310298 4.0139963e-20)
(-0.51715336 0.16067335 1.5235259e-19)
(-0.52760672 0.13460029 -3.6473543e-19)
(-0.52997948 0.10487086 -2.1670734e-19)
(-0.52262202 0.071882038 -1.4048246e-19)
(-0.50410609 0.036365936 4.4036426e-19)
(-0.47328841 -0.00072242788 2.8461649e-19)
(-0.42920402 -0.038200945 3.3299299e-19)
(-0.37115953 -0.074802584 5.8012722e-19)
(-0.2990392 -0.10953954 -2.0066693e-19)
(-0.21319583 -0.14200585 4.214079e-20)
(-0.11413122 -0.17217644 3.3757075e-19)
(-0.0028219197 -0.19970042 9.9757987e-19)
(0.11871356 -0.22369422 6.6394699e-19)
(0.24721006 -0.24307602 2.6445535e-19)
(0.37880577 -0.2563828 7.8082359e-19)
(0.50831669 -0.26090081 -5.3581229e-19)
(0.62852255 -0.25197412 5.6596046e-20)
(0.7294491 -0.227482 8.8502819e-19)
(0.80632437 -0.19158851 6.0263995e-19)
(0.85881055 -0.15084907 2.773567e-20)
(0.89258159 -0.11229989 -9.6397326e-19)
(0.91298743 -0.079980529 1.02242e-19)
(0.92715442 -0.055662093 -1.4495606e-19)
(-0.00079446196 0.0036131289 -2.6873485e-20)
(-0.0024592571 0.011144461 1.3630317e-20)
(-0.0042986658 0.019406483 -1.8422534e-20)
(-0.0063297789 0.028455209 -1.0477659e-20)
(-0.0085705253 0.038346205 2.9265487e-20)
(-0.011040205 0.049133102 2.7348996e-20)
(-0.013759297 0.06086545 -2.8103333e-20)
(-0.016749293 0.073586106 3.3865054e-21)
(-0.020032594 0.087327837 7.8596187e-22)
(-0.023632351 0.10210917 5.601751e-20)
(-0.027572252 0.11792933 -6.1669681e-21)
(-0.031876286 0.1347622 -1.1377611e-19)
(-0.036568471 0.15254933 9.1406742e-20)
(-0.04167259 0.1711922 -3.1714098e-21)
(-0.047211956 0.19054385 -6.2060368e-20)
(-0.053209273 0.21040077 -5.3878108e-21)
(-0.059686654 0.23049589 1.3837476e-20)
(-0.066665927 0.25049429 6.3076801e-20)
(-0.074169294 0.2699939 -1.170591e-19)
(-0.082220504 0.28853396 2.0881849e-19)
(-0.090846638 0.30561431 -4.5785282e-20)
(-0.10008033 0.32072824 3.418114e-20)
(-0.10996243 0.33340982 -2.8658309e-20)
(-0.12054452 0.34329283 1.1909826e-21)
(-0.13189018 0.35017255 -1.7590144e-19)
(-0.14407453 0.35405469 -1.7845807e-19)
(-0.15718214 0.35517112 3.5907384e-19)
(-0.17129753 0.35394519 6.0659106e-20)
(-0.18647626 0.35089326 -2.1431878e-19)
(-0.20278205 0.34645625 -7.7126987e-20)
(-0.22026525 0.34094164 -1.7635188e-19)
(-0.23890827 0.3345984 2.0125117e-19)
(-0.2586709 0.32756406 8.8881809e-20)
(-0.27947265 0.31985757 -2.0839527e-19)
(-0.30117471 0.31141307 8.839206e-20)
(-0.32356575 0.30209386 4.2037359e-20)
(-0.34633853 0.29169211 -1.2523774e-19)
(-0.36906302 0.27992079 -3.2977071e-19)
(-0.39115308 0.26640394 -1.0074828e-19)
(-0.41182959 0.25067566 6.7570663e-20)
(-0.43008562 0.23219674 1.6103857e-19)
(-0.44466797 0.21040122 1.6684686e-19)
(-0.45409586 0.18478442 1.8473278e-19)
(-0.45673896 0.15504346 3.8715594e-19)
(-0.45101875 0.12125147 -1.0899089e-20)
(-0.43560849 0.083935028 1.6244871e-19)
(-0.4094403 0.043908318 -8.8005214e-19)
(-0.37154396 0.0021625091 -2.4316567e-19)
(-0.32085515 -0.040059583 -2.7702775e-19)
(-0.25666829 -0.081271356 -7.6756921e-19)
(-0.17909101 -0.12023551 8.9863267e-19)
(-0.088709907 -0.15647837 -2.0127404e-19)
(0.013750313 -0.18996319 -6.5090719e-19)
(0.12688251 -0.22019718 -8.0646819e-19)
(0.247965 -0.24608271 -1.0342522e-19)
(0.37295328 -0.26647375 2.6423838e-19)
(0.49754187 -0.27988377 4.3065805e-19)
(0.61598522 -0.28333122 -1.8427378e-19)
(0.72016385 -0.27180321 3.3398017e-19)
(0.80118924 -0.2433278 -2.7791451e-19)
(0.85686434 -0.20316709 -9.393527e-20)
(0.89032781 -0.15901235 -2.7636173e-19)
(0.90974742 -0.11821792 1.2034555e-18)
(0.92110092 -0.08462057 3.9721827e-20)
(0.93092938 -0.059694315 4.7485951e-19)
(-0.00094097235 0.003725357 2.5087195e-20)
(-0.0029080122 0.011499162 5.0424948e-21)
(-0.0050739521 0.02003798 -5.5438501e-21)
(-0.0074565153 0.0294034 -2.7264622e-20)
(-0.0100741 0.039657424 3.272342e-20)
(-0.012945883 0.050861243 -2.7813742e-20)
(-0.016091543 0.063073206 -1.3307415e-20)
(-0.019530975 0.076346344 7.1491837e-22)
(-0.023283965 0.090725116 1.1271243e-20)
(-0.027369782 0.10624134 6.423378e-20)
(-0.031806712 0.12290914 -1.081343e-19)
(-0.036611509 0.14071878 1.3034073e-19)
(-0.041798815 0.15962938 -3.8427464e-20)
(-0.04738057 0.17956045 -5.2396414e-20)
(-0.053365472 0.20038254 8.0822929e-20)
(-0.059758589 0.22190741 -1.6041572e-19)
(-0.066561244 0.24387874 1.960198e-19)
(-0.073771331 0.26596466 3.1082811e-21)
(-0.081384307 0.28775459 1.1473696e-19)
(-0.08939503 0.30876327 -4.6146849e-19)
(-0.097800661 0.32844576 1.1341742e-19)
(-0.10660461 0.34622716 4.7682831e-19)
(-0.11582134 0.3615496 -2.293961e-19)
(-0.12548123 0.37393562 -2.7860394e-19)
(-0.13563435 0.38306085 7.1371857e-20)
(-0.14635115 0.38882081 3.7996991e-19)
(-0.15771859 0.39136862 -5.8575735e-19)
(-0.16983135 0.39109967 6.5984066e-19)
(-0.18277109 0.38856792 -5.269966e-19)
(-0.19658427 0.38433294 1.0225873e-19)
(-0.21131767 0.37880139 -1.7747084e-19)
(-0.22697638 0.37224118 -2.5542424e-19)
(-0.24349263 0.3648321 1.0176992e-19)
(-0.26076452 0.35663108 2.6582657e-20)
(-0.27862438 0.34757875 3.8358353e-19)
(-0.29682482 0.33752308 -7.517211e-20)
(-0.31501875 0.32622776 1.9426323e-19)
(-0.33273029 0.31336677 -1.6578741e-19)
(-0.34932275 0.29851515 9.8679521e-20)
(-0.36396625 0.28114974 6.4748385e-20)
(-0.3756127 0.26067208 5.5809586e-20)
(-0.38299596 0.2364683 5.5336497e-20)
(-0.38467958 0.208019 -3.3830051e-19)
(-0.37917244 0.17506601 -2.6658186e-19)
(-0.365165 0.13779136 7.4775715e-20)
(-0.3416355 0.096830895 -4.7676876e-20)
(-0.30777875 0.053001387 1.9729264e-19)
(-0.26261758 0.0072168122 -3.9147441e-19)
(-0.20503704 -0.039232749 -4.5491949e-19)
(-0.13467888 -0.084587471 -1.3213184e-19)
(-0.052052409 -0.12736089 -3.4741021e-19)
(0.042050602 -0.16699552 1.1172227e-20)
(0.14672586 -0.20341576 1.6952094e-19)
(0.26005649 -0.23595207 8.3019099e-19)
(0.37862134 -0.2632594 -4.1852939e-19)
(0.49780838 -0.2841975 1.7092583e-19)
(0.61317179 -0.29727874 -5.0257004e-19)
(0.71836124 -0.29915257 8.5050318e-19)
(0.80439387 -0.28472136 -4.8961986e-19)
(0.86407928 -0.25248996 1.6910367e-19)
(0.8986418 -0.20929151 -7.7508175e-22)
(0.91488281 -0.16323011 1.320611e-19)
(0.92285655 -0.12167373 4.8909368e-19)
(0.92802839 -0.087937057 -9.1853178e-19)
(0.93549571 -0.063005963 9.3215882e-19)
(-0.0010623747 0.0037091896 -5.5722882e-20)
(-0.0032803058 0.011459196 -2.8710286e-20)
(-0.0057176631 0.019984408 4.5099411e-20)
(-0.0083928247 0.029350622 -1.187995e-21)
(-0.011324759 0.039625061 -4.0846264e-20)
(-0.014532741 0.050875546 -2.138258e-20)
(-0.018036018 0.063168678 4.5139107e-20)
(-0.021853436 0.07656767 -7.4240575e-21)
(-0.026002907 0.091129397 1.0493708e-19)
(-0.030500815 0.10690066 -2.0512155e-20)
(-0.035361282 0.12391341 -5.2691252e-22)
(-0.040595352 0.14217879 7.6034491e-20)
(-0.046210082 0.16167983 -2.4496641e-19)
(-0.052207599 0.18236276 1.1488609e-19)
(-0.058584181 0.20412693 2.0743779e-19)
(-0.065329482 0.22681362 -2.2311952e-19)
(-0.072426072 0.25019451 2.7758073e-20)
(-0.079849504 0.2739609 -1.5974217e-19)
(-0.087569221 0.297716 -1.2039312e-19)
(-0.095550661 0.32097309 3.8497627e-19)
(-0.10375879 0.34316395 -2.9430836e-19)
(-0.11216348 0.36366204 3.9499434e-19)
(-0.12074622 0.3818251 -4.7392822e-20)
(-0.12950787 0.39705845 1.9758239e-19)
(-0.13847537 0.40889541 -4.385742e-19)
(-0.14770543 0.41708132 1.0597004e-19)
(-0.15728179 0.42163779 2.7250665e-19)
(-0.16730444 0.42287708 -6.7008848e-19)
(-0.17786996 0.42134226 2.9582426e-19)
(-0.18904703 0.4176693 3.2281851e-19)
(-0.20085928 0.41240822 -2.7033862e-19)
(-0.21330504 0.40591354 -3.6376097e-20)
(-0.22633379 0.39839712 1.8558699e-19)
(-0.23981144 0.38994094 -1.0372007e-19)
(-0.25353993 0.38050186 1.6072326e-19)
(-0.26723855 0.36992717 -5.703938e-19)
(-0.2805188 0.3579593 3.0228418e-19)
(-0.29285777 0.34423789 1.8348505e-19)
(-0.30356911 0.32829436 3.7948003e-19)
(-0.31177691 0.30955747 5.0918423e-20)
(-0.316403 0.28738357 -4.1088462e-19)
(-0.31618738 0.26113167 1.6598872e-19)
(-0.30976404 0.23029499 2.4542366e-19)
(-0.2958062 0.19468668 3.8068538e-20)
(-0.27324876 0.15460274 -2.3917816e-19)
(-0.2412989 0.1107544 -2.0993625e-19)
(-0.19928172 0.06388753 6.373515e-19)
(-0.14620917 0.014799942 3.3704429e-19)
(-0.081352575 -0.03514273 7.3153209e-19)
(-0.0050325038 -0.083927652 2.571067e-19)
(0.081842993 -0.129905 1.0005209e-19)
(0.17839317 -0.17248486 7.4453375e-19)
(0.28354588 -0.21149866 2.944139e-19)
(0.39490278 -0.24599629 -9.9531302e-19)
(0.50841924 -0.27440205 8.0336809e-19)
(0.61937688 -0.29560089 -7.4138441e-19)
(0.72338314 -0.30801319 3.5684248e-19)
(0.81318465 -0.30790802 -1.7239739e-18)
(0.87933112 -0.29047008 -8.5938683e-19)
(0.91721227 -0.25547943 3.4452413e-19)
(0.93211927 -0.21057486 5.3335331e-19)
(0.93401904 -0.16423912 8.8179367e-19)
(0.93381098 -0.12326049 1.5298638e-19)
(0.93518749 -0.090255619 1.192146e-19)
(0.9413446 -0.06570974 -1.2455985e-18)
(-0.001147366 0.003568845 -1.005321e-21)
(-0.0035414361 0.011036669 5.3488457e-20)
(-0.0061696836 0.019265386 -6.3092894e-20)
(-0.009051069 0.02832329 -3.0384222e-20)
(-0.012205142 0.038281182 6.0909346e-20)
(-0.015651448 0.049212028 1.9750101e-20)
(-0.019409153 0.061189449 -9.5913565e-20)
(-0.023496622 0.074285977 1.0338666e-19)
(-0.027930742 0.088570602 2.1854611e-20)
(-0.032726167 0.10410556 8.7156358e-20)
(-0.037894385 0.12094212 -2.3214811e-19)
(-0.043442666 0.13911512 -2.840726e-21)
(-0.049372856 0.15863616 2.1022857e-19)
(-0.055680074 0.17948501 -2.2692101e-19)
(-0.062351387 0.20159944 1.6353794e-19)
(-0.069364541 0.22486311 6.112606e-20)
(-0.076686973 0.24909235 -1.2892839e-19)
(-0.084275345 0.27402232 1.1765529e-19)
(-0.092075968 0.29929454 1.5865576e-19)
(-0.10002655 0.32444854 -3.4235231e-21)
(-0.10805989 0.34892177 -2.5799362e-19)
(-0.11610975 0.37206325 1.6232056e-19)
(-0.12411927 0.39316688 -9.2122231e-20)
(-0.13205106 0.41152868 -4.5408495e-19)
(-0.13989765 0.42652859 -1.5464395e-19)
(-0.14768942 0.43772763 4.2811573e-19)
(-0.15549565 0.44495949 -4.3540198e-20)
(-0.16341531 0.44838349 5.0048033e-19)
(-0.17155564 0.44846435 -3.0122609e-19)
(-0.18000231 0.44585803 1.6159154e-19)
(-0.18879292 0.44123077 -2.3793745e-19)
(-0.19791472 0.43509501 -5.8837645e-20)
(-0.20729346 0.42774032 3.0047638e-19)
(-0.21678429 0.41928491 -3.1431076e-19)
(-0.22617129 0.4097093 -4.6685492e-19)
(-0.23513818 0.39886153 4.7401161e-20)
(-0.24325399 0.38646726 5.1816605e-19)
(-0.24994947 0.37213832 -6.7141182e-19)
(-0.25448965 0.35537149 1.4669531e-19)
(-0.25595743 0.33555965 -3.1674269e-19)
(-0.25325494 0.31203105 4.9398933e-20)
(-0.24514547 0.28413884 -5.022112e-19)
(-0.23035002 0.25141039 -2.4195556e-19)
(-0.20770734 0.21374093 -3.0169331e-19)
(-0.17632682 0.17153276 1.219032e-18)
(-0.13558072 0.12553119 3.98419e-19)
(-0.084888872 0.076402585 -5.3099905e-19)
(-0.023531514 0.024870461 4.3259099e-19)
(0.048411835 -0.027618008 3.6257999e-19)
(0.12992449 -0.078934439 -4.1009829e-19)
(0.2198308 -0.12742936 -2.1518321e-19)
(0.31725254 -0.17253177 -5.0653282e-19)
(0.42097304 -0.21382452 -2.4669321e-19)
(0.52817003 -0.24999679 8.4508523e-19)
(0.63434534 -0.27933942 4.7632123e-19)
(0.73514732 -0.30075739 7.6770549e-20)
(0.82607763 -0.31244555 -3.1053332e-21)
(0.89872834 -0.31031291 4.271444e-19)
(0.94374944 -0.2903708 -6.1211115e-19)
(0.96024665 -0.25334455 -7.8574301e-19)
(0.95820168 -0.20802318 -2.1802231e-19)
(0.94941251 -0.16284476 -1.6315511e-18)
(0.9440288 -0.12345928 -1.2781974e-18)
(0.94318502 -0.091747555 -3.2252018e-19)
(0.94831954 -0.067815593 -1.7014346e-19)
(-0.0011871565 0.0033164707 3.4045997e-20)
(-0.003664291 0.01026799 2.250282e-20)
(-0.0063828558 0.017942585 -4.6822618e-20)
(-0.0093621994 0.026409055 8.0298991e-20)
(-0.012622334 0.03573973 2.0115718e-20)
(-0.016183123 0.04601068 -8.6273367e-20)
(-0.020063898 0.057300569 4.4152881e-22)
(-0.024283028 0.069689432 -5.1757519e-20)
(-0.028857166 0.083256839 1.5471748e-20)
(-0.033800385 0.098079394 -3.4724005e-22)
(-0.03912313 0.11422729 8.4645773e-20)