/*--------------------------------*- C++ -*----------------------------------*\
  =========                 |
  \\      /  F ield         | OpenFOAM: The Open Source CFD Toolbox
   \\    /   O peration     | Website:  https://openfoam.org
    \\  /    A nd           | Version:  13
     \\/     M anipulation  |
\*---------------------------------------------------------------------------*/
FoamFile
{
    format      ascii;
    class       volScalarField;
    location    "22.601229";
    object      nut;
}
// * * * * * * * * * * * * * * * * * * * * * * * * * * * * * * * * * * * * * //

dimensions      [0 2 -1 0 0 0 0];

internalField   nonuniform List<scalar> 
17140
(
7.547359e-18
1.4678602e-15
3.9096622e-14
3.9634092e-13
2.3966854e-12
1.0616659e-11
3.8327005e-11
1.1989754e-10
3.3766894e-10
8.7803512e-10
2.1452071e-09
4.9868621e-09
1.1133651e-08
2.4042472e-08
5.0494038e-08
1.0358663e-07
2.0829286e-07
4.1168542e-07
8.0160644e-07
1.5404937e-06
2.9262008e-06
5.5004547e-06
1.0240398e-05
1.8892646e-05
3.4545421e-05
6.2580549e-05
0.00011218078
0.00019850838
0.00034532459
0.00058691578
0.00096690312
0.001531165
0.0023149138
0.0033292164
0.0045541884
0.0059418688
0.0074257226
0.0089321808
0.010391359
0.011745662
0.012955816
0.014003838
0.014892853
0.015633836
0.016264708
0.016845938
0.017400124
0.017942796
0.018495583
0.01906929
0.019666127
0.020281822
0.02090614
0.021522086
0.022104462
0.022617937
0.023020491
0.023225941
0.023139543
0.022804243
0.022112544
0.021085076
0.019859439
0.01848754
0.01696515
7.4485577e-18
1.4486435e-15
3.8584822e-14
3.9115371e-13
2.3653294e-12
1.0477821e-11
3.7826047e-11
1.1833132e-10
3.3326087e-10
8.6658109e-10
2.1172445e-09
4.9219129e-09
1.0988776e-08
2.3729927e-08
4.9838324e-08
1.0224302e-07
2.0559463e-07
4.0636037e-07
7.9125587e-07
1.5206436e-06
2.8885896e-06
5.4299722e-06
1.0109673e-05
1.8652603e-05
3.4109125e-05
6.1796384e-05
0.00011078944
0.00019608023
0.00034118471
0.00058011223
0.00095627831
0.0015155691
0.0022935408
0.0033019306
0.0045216961
0.005905662
0.007387898
0.0088952208
0.010357816
0.011717872
0.012935645
0.013992593
0.01489128
0.015641934
0.016281974
0.01687201
0.017434587
0.017985473
0.018546458
0.019128499
0.019733667
0.020357202
0.020988433
0.021608749
0.022191006
0.022698477
0.023087594
0.023292125
0.023257938
0.023037322
0.022577062
0.022005849
0.02152169
0.020957588
0.019846917
7.2770562e-18
1.4152886e-15
3.7696404e-14
3.8214753e-13
2.3108709e-12
1.0236602e-11
3.6955317e-11
1.1560778e-10
3.2559166e-10
8.4664221e-10
2.0685385e-09
4.8087089e-09
1.0736083e-08
2.3184348e-08
4.8692684e-08
9.9893122e-08
2.0086999e-07
3.9702307e-07
7.7307591e-07
1.485707e-06
2.8222273e-06
5.3052315e-06
9.8774586e-06
1.8224309e-05
3.3326561e-05
6.0381204e-05
0.00010826385
0.00019165399
0.0003336254
0.00056765235
0.00093668716
0.0014865307
0.0022532976
0.0032499011
0.0044588204
0.0058343048
0.0073114508
0.0088175805
0.010282915
0.011649254
0.012876138
0.013944108
0.014854811
0.01561747
0.016268151
0.016869425
0.017441805
0.018002734
0.018574708
0.019169735
0.019791217
0.020435752
0.021093567
0.02174684
0.022368276
0.022923761
0.023378104
0.023694671
0.023862231
0.023900141
0.023953877
0.023996313
0.024068722
0.023802666
0.022652047
7.0339785e-18
1.3680131e-15
3.643721e-14
3.6938257e-13
2.2336827e-12
9.8946937e-12
3.5721067e-11
1.1174696e-10
3.1471919e-10
8.1837277e-10
1.9994753e-09
4.6481686e-09
1.0377668e-08
2.2410354e-08
4.7067016e-08
9.6557628e-08
1.9416135e-07
3.83759e-07
7.4723682e-07
1.4360203e-06
2.7277761e-06
5.1275376e-06
9.546346e-06
1.7612978e-05
3.2208454e-05
5.8357586e-05
0.00010464778
0.00018530181
0.00032273401
0.00054961131
0.00090817274
0.0014440321
0.002194043
0.0031727956
0.0043649086
0.0057266446
0.0071945657
0.0086967609
0.010163524
0.011536127
0.01277312
0.013853765
0.014778347
0.015555048
0.016218466
0.016832649
0.017415754
0.017987891
0.018572638
0.0191837
0.019826732
0.020501171
0.021200728
0.021911193
0.022609448
0.023268604
0.023868115
0.024398783
0.024875145
0.02531745
0.025773701
0.026173787
0.026387369
0.026046551
0.024229694
6.7228933e-18
1.3075112e-15
3.4825736e-14
3.5304644e-13
2.1349e-12
9.4571294e-12
3.4141501e-11
1.0680593e-10
3.0080456e-10
7.8219301e-10
1.9110859e-09
4.442701e-09
9.9189446e-09
2.1419729e-08
4.4986297e-08
9.2288344e-08
1.855742e-07
3.6677973e-07
7.1415705e-07
1.372401e-06
2.6068141e-06
4.8998979e-06
9.1219782e-06
1.6828982e-05
3.077328e-05
5.575684e-05
9.9992896e-05
0.00017710815
0.00030864924
0.00052620464
0.00087102306
0.001388377
0.0021159729
0.0030705097
0.0042393973
0.0055815692
0.0070355635
0.0085305262
0.0099968985
0.01137531
0.012623065
0.013717787
0.014657642
0.015449214
0.016130088
0.01675707
0.017351381
0.01793527
0.0185336
0.019162271
0.019829972
0.020540076
0.021291102
0.022073507
0.022868657
0.023657237
0.024433222
0.025209511
0.026007356
0.02680004
0.027501889
0.02800543
0.028033811
0.027157583
0.02476279
6.3489323e-18
1.2347809e-15
3.288856e-14
3.3340849e-13
2.0161508e-12
8.9311191e-12
3.2242639e-11
1.0086604e-10
2.8407684e-10
7.3869825e-10
1.8048239e-09
4.1956827e-09
9.3674437e-09
2.0228721e-08
4.2484625e-08
8.7155172e-08
1.7524905e-07
3.4636286e-07
6.7437733e-07
1.2958895e-06
2.461322e-06
4.6260499e-06
8.6113538e-06
1.588534e-05
2.9045106e-05
5.2623185e-05
9.4379071e-05
0.00016721289
0.00029160386
0.00049779011
0.00082573004
0.0013201436
0.0020196272
0.0029433604
0.0040821787
0.0053983822
0.0068330602
0.0083167774
0.0097802547
0.01116341
0.012422067
0.013531894
0.014488741
0.015297516
0.015994764
0.016636463
0.017242206
0.017837155
0.018448125
0.019093362
0.019784963
0.020530779
0.021334635
0.022191415
0.02308534
0.024001506
0.024943298
0.025936412
0.026999717
0.028037212
0.028803328
0.029180775
0.028768074
0.027217648
0.023874632
5.9196392e-18
1.1512894e-15
3.0664762e-14
3.1086487e-13
1.8798306e-12
8.3272729e-12
3.0062781e-11
9.4047115e-11
2.6487339e-10
6.8876568e-10
1.6828322e-09
3.9120959e-09
8.7342926e-09
1.8861372e-08
3.9612536e-08
8.1261919e-08
1.63395e-07
3.2292282e-07
6.2870752e-07
1.2080494e-06
2.2942878e-06
4.3116511e-06
8.0250968e-06
1.4801839e-05
2.7060461e-05
4.9023267e-05
8.7925844e-05
0.00015582482
0.00027194747
0.00046491705
0.00077308167
0.0012403322
0.0019060871
0.002792283
0.0038937741
0.0051769538
0.0065861135
0.0080536852
0.0095108791
0.010896887
0.012165858
0.013291177
0.014266153
0.015093354
0.015807115
0.01646359
0.017079929
0.017684581
0.018304347
0.018961815
0.01967171
0.020446342
0.02129448
0.022213948
0.023188519
0.024202913
0.025059385
0.025165323
0.026378746
0.02877915
0.029443095
0.029487721
0.028465793
0.026322109
0.021150438
5.4448301e-18
1.0589456e-15
2.8205181e-14
2.8593099e-13
1.7290561e-12
7.6593969e-12
2.7651761e-11
8.6505021e-11
2.436332e-10
6.3353675e-10
1.5478998e-09
3.5984252e-09
8.0339736e-09
1.7348972e-08
3.64358e-08
7.4743674e-08
1.5028418e-07
2.9699871e-07
5.7820062e-07
1.1109126e-06
2.1095911e-06
3.9640405e-06
7.3769713e-06
1.3604079e-05
2.4866527e-05
4.504309e-05
8.0787543e-05
0.0001432144
0.00025013709
0.00042831599
0.00071415677
0.0011503761
0.001777021
0.002618924
0.0036754738
0.0049178961
0.0062944134
0.0077398769
0.0091862937
0.010572192
0.011849894
0.012990177
0.013983569
0.014829718
0.015559931
0.016229853
0.016854664
0.017464885
0.018089317
0.018749459
0.019466446
0.020255282
0.021128512
0.022084613
0.023102952
0.023911007
0.023551971
0.023799999
0.02546307
0.028805049
0.029227819
0.028741689
0.027147027
0.024285968
0.016277301
4.9362389e-18
9.6003136e-16
2.5570582e-14
2.5922287e-13
1.5675527e-12
6.9439928e-12
2.5069149e-11
7.8426097e-11
2.2088103e-10
5.7437597e-10
1.4033608e-09
3.2624219e-09
7.2837958e-09
1.5728914e-08
3.3033002e-08
6.7761811e-08
1.3624154e-07
2.6923401e-07
5.2411279e-07
1.0069014e-06
1.9118525e-06
3.5919492e-06
6.6833341e-06
1.2322448e-05
2.2519265e-05
4.0784625e-05
7.3147384e-05
0.00012970404
0.00022672213
0.00038887894
0.00065030586
0.0010521376
0.0016347149
0.0024257282
0.0034294882
0.0046227688
0.0059585234
0.0073746905
0.0088045021
0.010185985
0.01146955
0.012623064
0.01363398
0.014498672
0.015244493
0.015925078
0.016554607
0.017164411
0.017784049
0.01843756
0.019143282
0.019921659
0.020789827
0.021742601
0.022752768
0.022270082
0.021962286
0.022613818
0.024986352
0.027984721
0.027984237
0.026878181
0.024810182
0.020670737
0.010180695
4.4070305e-18
8.5710751e-16
2.2829192e-14
2.3143212e-13
1.3995023e-12
6.1995839e-12
2.2381815e-11
7.001953e-11
1.9720597e-10
5.1281519e-10
1.2529578e-09
2.9127872e-09
6.5031896e-09
1.4043172e-08
2.9492337e-08
6.049739e-08
1.2163152e-07
2.4035011e-07
4.678515e-07
8.9872756e-07
1.7062406e-06
3.2051339e-06
5.9624414e-06
1.0990824e-05
2.0081002e-05
3.6361429e-05
6.5209638e-05
0.00011565455
0.00020232269
0.00034762788
0.00058311341
0.00094787752
0.0014820759
0.0022160054
0.003159097
0.0042943108
0.0055801766
0.0069585087
0.0083643323
0.0097354639
0.011020418
0.012183944
0.013209775
0.014091284
0.014850586
0.015537366
0.016165747
0.016766296
0.017368156
0.01799569
0.018669809
0.019410688
0.020232735
0.021128341
0.021263901
0.020455298
0.02044915
0.021704197
0.024664409
0.026122584
0.025524994
0.0238694
0.021084942
0.014105097
0.0057073202
3.8712009e-18
7.5289594e-16
2.0053504e-14
2.0329364e-13
1.2293485e-12
5.445855e-12
1.9660821e-11
6.150761e-11
1.7323407e-10
4.504822e-10
1.1006678e-09
2.5587666e-09
5.7127988e-09
1.2336331e-08
2.5907478e-08
5.3142671e-08
1.06841e-07
2.1111243e-07
4.1090913e-07
7.8926438e-07
1.4982266e-06
2.8139104e-06
5.2335724e-06
9.6449361e-06
1.7617412e-05
3.1893109e-05
5.7189703e-05
0.0001014479
0.00017760066
0.00030567028
0.00051433789
0.00084019109
0.0013225923
0.0019939553
0.0028687743
0.0039366794
0.0051626175
0.0064931748
0.0078658934
0.0092188227
0.010498716
0.011667035
0.012703268
0.013597823
0.014366569
0.01505299
0.015671609
0.016250518
0.016817076
0.017394213
0.018001925
0.018661793
0.019387941
0.020166486
0.019207037
0.018575994
0.019065976
0.021026101
0.02328677
0.023077033
0.021860814
0.019663573
0.015739667
0.0066163622
0.0035091184
3.3428588e-18
6.5014055e-16
1.7316597e-14
1.7554828e-13
1.0615714e-12
4.70265e-12
1.6977803e-11
5.3114433e-11
1.4959642e-10
3.8901805e-10
9.5050013e-10
2.2096808e-09
4.9334331e-09
1.0653335e-08
2.2372824e-08
4.5891354e-08
9.2259604e-08
1.8229143e-07
3.5478694e-07
6.8139982e-07
1.2933036e-06
2.4286233e-06
4.5160324e-06
8.3205138e-06
1.5194079e-05
2.7499032e-05
4.9302718e-05
8.7466943e-05
0.0001532251
0.00026414296
0.0004458292
0.00073190459
0.0011602353
0.0017646238
0.0025642547
0.0035556617
0.0047109632
0.0059824824
0.0073111555
0.0086358804
0.0099019315
0.011067408
0.012107118
0.013008201
0.013779637
0.014456397
0.015053032
0.015593221
0.016100731
0.016595103
0.017094672
0.017622736
0.01818878
0.018009375
0.016910206
0.016740813
0.017940335
0.019941619
0.01982449
0.018829192
0.017076683
0.014345885
0.0073805485
0.0032371104
0.0024393623
2.83542e-18
5.5145061e-16
1.4687975e-14
1.4890061e-13
9.0043162e-13
3.9888431e-12
1.4400896e-11
4.5053141e-11
1.268933e-10
3.2998355e-10
8.0626814e-10
1.874394e-09
4.1848823e-09
9.0369148e-09
1.8978116e-08
3.8927528e-08
7.8257476e-08
1.5461863e-07
3.0090926e-07
5.7787119e-07
1.096672e-06
2.0590521e-06
3.8280432e-06
7.0512216e-06
1.2872705e-05
2.3291406e-05
4.1751055e-05
7.4073132e-05
0.00012983308
0.00022414612
0.00037942473
0.00062592969
0.00099929001
0.0015337614
0.0022524932
0.0031588031
0.0042325339
0.0054327012
0.0067046393
0.0079888906
0.0092297058
0.01038188
0.011415186
0.012312769
0.01307643
0.013730446
0.014288212
0.014766307
0.015182806
0.015552085
0.015893382
0.01623505
0.016576557
0.015347724
0.014636994
0.015180784
0.016498267
0.016198885
0.015278796
0.013659255
0.011543403
0.0063655732
0.0027816843
0.0021090657
0.0015487125
2.3608459e-18
4.5915227e-16
1.2229593e-14
1.2397871e-13
7.4972701e-13
3.3212573e-12
1.1990834e-11
3.751372e-11
1.0565974e-10
2.7476994e-10
6.7137067e-10
1.5608066e-09
3.4847826e-09
7.5251485e-09
1.5803302e-08
3.2415138e-08
6.5164106e-08
1.2874481e-07
2.5054213e-07
4.8110887e-07
9.1294276e-07
1.7138518e-06
3.1856965e-06
5.866719e-06
1.0707524e-05
1.936868e-05
3.4712227e-05
6.1584466e-05
0.00010799003
0.0001866733
0.0003168316
0.00052508148
0.0008441108
0.0013075562
0.0019414626
0.002755372
0.0037370605
0.0048530578
0.0060541556
0.0072834973
0.0084849514
0.0096102219
0.010623771
0.011503634
0.012244171
0.012857051
0.01335341
0.013737753
0.014021091
0.014213667
0.014346304
0.014450426
0.013808023
0.012685208
0.012695121
0.013267267
0.012554299
0.011598661
0.010048799
0.0081209138
0.0044274086
0.0022956593
0.0017961703
0.0013538245
0.0009922361
1.9288707e-18
3.7513889e-16
9.9918818e-15
1.0129384e-13
6.1254939e-13
2.7135889e-12
9.7970615e-12
3.0650855e-11
8.6331403e-11
2.2451e-10
5.4857517e-10
1.2753513e-09
2.8474922e-09
6.1490305e-09
1.2913443e-08
2.6487553e-08
5.3247386e-08
1.051987e-07
2.0471308e-07
3.9308269e-07
7.4584607e-07
1.4000093e-06
2.6019474e-06
4.7908094e-06
8.7419161e-06
1.580937e-05
2.8327593e-05
5.0254675e-05
8.8150944e-05
0.00015253945
0.00025949698
0.00043186225
0.00069880051
0.0010922264
0.0016397365
0.002356066
0.0032366472
0.0042560366
0.0053714671
0.0065297339
0.0076751301
0.0087566465
0.0097332743
0.010576641
0.011272378
0.011818741
0.012224792
0.012473661
0.012572532
0.012539547
0.012429309
0.012204114
0.010864225
0.010474825
0.010312959
0.0093140924
0.0080606175
0.0067312454
0.0045939179
0.0025877588
0.0016452184
0.001467965
0.0011927968
0.00088917589
0.00073212408
1.5464886e-18
3.0077084e-16
8.0110804e-15
8.1213402e-14
4.9112062e-13
2.1756806e-12
7.8551137e-12
2.4575709e-11
6.9221349e-11
1.8001778e-10
4.3987027e-10
1.0226499e-09
2.2833258e-09
4.9308212e-09
1.0355247e-08
2.1240464e-08
4.2699367e-08
8.4358889e-08
1.6415673e-07
3.1519809e-07
5.9803644e-07
1.1224792e-06
2.0859447e-06
3.8402197e-06
7.0062025e-06
1.2668068e-05
2.269511e-05
4.025977e-05
7.0634503e-05
0.00012232853
0.00020849988
0.00034824734
0.00056683529
0.0008934791
0.0013558452
0.001972395
0.0027453519
0.0036573103
0.0046726586
0.0057428526
0.0068135067
0.0078313937
0.0087500137
0.0095329997
0.010155533
0.010603736
0.010881354
0.010944496
0.010814374
0.010537589
0.010163366
0.0091124332
0.0085236288
0.007638825
0.0065140309
0.0051946718
0.0038725971
0.0022429132
0.0014098977
0.0010913159
0.001083713
0.00097689977
0.0007989132
0.00065912972
0.00065315068
1.2176931e-18
2.3682473e-16
6.3078694e-15
6.3947013e-14
3.867082e-13
1.7131483e-12
6.1852694e-12
1.935174e-11
5.4508354e-11
1.4175826e-10
3.4639222e-10
8.0534391e-10
1.79818e-09
3.8832479e-09
8.1554196e-09
1.6728573e-08
3.3629784e-08
6.6441529e-08
1.2929194e-07
2.4825477e-07
4.7101995e-07
8.8406214e-07
1.6428341e-06
3.0243036e-06
5.5172346e-06
9.9749731e-06
1.7868957e-05
3.1698103e-05
5.5623947e-05
9.6394895e-05
0.0001645484
0.00027565599
0.0004509442
0.00071615767
0.0010976316
0.0016158256
0.002278319
0.0030750936
0.0039779067
0.0049436235
0.0059199996
0.0068520661
0.0076876628
0.0083812998
0.0088961978
0.0092106173
0.0093124672
0.0091484306
0.008791324
0.008275036
0.007513462
0.0066800379
0.0055093223
0.0042131504
0.0030091755
0.0017556851
0.0011040811
0.00073406623
0.000721789
0.00074709515
0.00073233421
0.00066189441
0.0006018924
0.00058818824
0.00064964773
9.4328537e-19
1.8345618e-16
4.8863902e-15
4.9536667e-14
2.995663e-13
1.3271187e-12
4.7916014e-12
1.499171e-11
4.2228414e-11
1.0982517e-10
2.6837033e-10
6.2396669e-10
1.3932449e-09
3.0088753e-09
6.3193236e-09
1.2962801e-08
2.6060354e-08
5.148882e-08
1.0019891e-07
1.9240165e-07
3.6506642e-07
6.8523348e-07
1.2734275e-06
2.3443996e-06
4.2771417e-06
7.7333963e-06
1.3854435e-05
2.4579538e-05
4.3143012e-05
7.4807878e-05
0.0001278525
0.00021468243
0.00035262741
0.00056355643
0.00087128441
0.001296491
0.0018502552
0.0025286233
0.0033102222
0.0041575403
0.0050209724
0.0058441063
0.0065688778
0.0071398933
0.0075078121
0.0076516877
0.0075318134
0.007163058
0.0066094289
0.0058401257
0.0048635817
0.003765265
0.0025587931
0.0014856566
0.00085191921
0.00051810211
0.00040980247
0.00045042527
0.0004920425
0.0005153019
0.00052164382
0.00052191823
0.00054727993
0.0005901263
0.00069216202
7.2122464e-19
1.4026832e-16
3.7360732e-15
3.7875235e-14
2.2904718e-13
1.0147233e-12
3.6637583e-12
1.1463248e-11
3.2290409e-11
8.3981689e-11
2.0522614e-10
4.7717361e-10
1.0655178e-09
2.3012145e-09
4.8333123e-09
9.9150887e-09
1.9934453e-08
3.9388273e-08
7.6657028e-08
1.4721071e-07
2.7935258e-07
5.2442113e-07
9.7474083e-07
1.7948722e-06
3.2753408e-06
5.9236252e-06
1.0615331e-05
1.8839187e-05
3.3080785e-05
5.7395135e-05
9.8192593e-05
0.00016517486
0.00027214341
0.00043706135
0.000680481
0.0010217483
0.0014734357
0.002035737
0.0026928531
0.0034123101
0.0041470042
0.0048389725
0.005423961
0.0058367892
0.006020322
0.0059599063
0.0056120396
0.005100249
0.0043720836
0.0034067246
0.0023553844
0.0013865018
0.00073833255
0.0004183434
0.00026567575
0.00023894957
0.00027586105
0.00031761933
0.00036339871
0.00040760853
0.00045153461
0.00046392406
0.00047910124
0.00058141146
0.00068728346
5.4718873e-19
1.0642071e-16
2.834537e-15
2.8735819e-14
1.737789e-13
7.6988583e-13
2.7798082e-12
8.6977611e-12
2.4501204e-11
6.3725715e-11
1.5573317e-10
3.6211401e-10
8.0863469e-10
1.7465223e-09
3.6685165e-09
7.5261837e-09
1.5132838e-08
2.9903896e-08
5.8205858e-08
1.1179437e-07
2.1218483e-07
3.9842099e-07
7.4075619e-07
1.3644959e-06
2.4910408e-06
4.5074891e-06
8.0824741e-06
1.435427e-05
2.5226146e-05
4.3807672e-05
7.5028712e-05
0.00012639222
0.00020869177
0.00033630313
0.00052622442
0.00079533811
0.0011558601
0.0016099744
0.0021454368
0.0027332705
0.0033278293
0.0038689459
0.0042862443
0.0045074693
0.0044919126
0.0042028126
0.003717939
0.0031056077
0.0022853987
0.001368552
0.00067929663
0.00037993551
0.00021215373
0.00014258038
0.00014851701
0.00017645181
0.00021926469
0.00027222177
0.00033300524
0.00039043709
0.00035769082
0.00036968548
0.00039888916
0.00051088204
0.00062629771
4.1522096e-19
8.075482e-17
2.1509231e-15
2.1805602e-14
1.3186994e-13
5.8422789e-13
2.1095068e-12
6.6006473e-12
1.8594401e-11
4.8364632e-11
1.1819946e-10
2.7485516e-10
6.138165e-10
1.3258427e-09
2.7851268e-09
5.7144216e-09
1.1491294e-08
2.2711091e-08
4.4213243e-08
8.4937376e-08
1.6125351e-07
3.0288757e-07
5.6337014e-07
1.038273e-06
1.896656e-06
3.4344962e-06
6.1637875e-06
1.0957545e-05
1.927814e-05
3.3520436e-05
5.7492522e-05
9.7014898e-05
0.00016051002
0.00025923539
0.0004067097
0.00061668607
0.00089966228
0.0012575957
0.0016793275
0.0021369917
0.0025845071
0.0029588204
0.0031858978
0.0032062846
0.0029928821
0.0025700713
0.0020448614
0.0014209963
0.00072281442
0.00035725597
0.00019136899
0.00011266137
8.1722571e-05
9.6760608e-05
0.00012398784
0.00016553665
0.0002219209
0.0002865958
0.00033811679
0.00030867058
0.00029273718
0.00031064634
0.00034978977
0.00046342793
0.00058920564
3.1840469e-19
6.1925377e-17
1.649398e-15
1.6721316e-14
1.011236e-13
4.4801892e-13
1.6177276e-12
5.062027e-12
1.4260564e-11
3.7093884e-11
9.0659512e-11
2.1082849e-10
4.7086483e-10
1.0171564e-09
2.1369081e-09
4.3849765e-09
8.8192059e-09
1.7433264e-08
3.3946258e-08
6.5232049e-08
1.238865e-07
2.3280175e-07
4.3324548e-07
7.989897e-07
1.4607277e-06
2.6476579e-06
4.756989e-06
8.4672767e-06
1.4917099e-05
2.5973576e-05
4.4607955e-05
7.5362735e-05
0.00012481479
0.00020178394
0.00031684593
0.00048057075
0.00070007356
0.00097508652
0.0012931785
0.0016247641
0.001921568
0.0021194707
0.0021557352
0.0020049495
0.0016791612
0.0012657621
0.00080175755
0.00036864067
0.00018872636
0.00010297993
6.2001259e-05
5.0597225e-05
6.5852377e-05
9.3821175e-05
0.00013643447
0.00019230361
0.00025729352
0.0003231429
0.00028701443
0.000259092
0.00025412299
0.00027939429
0.00032446678
0.00043347833
0.00055717684
2.4931632e-19
4.8488621e-17
1.2915075e-15
1.3093136e-14
7.9182585e-14
3.5081655e-13
1.2667722e-12
3.9639674e-12
1.1167556e-11
2.9049806e-11
7.1003232e-11
1.6512885e-10
3.6882888e-10
7.9681767e-10
1.6742064e-09
3.4360068e-09
6.9118531e-09
1.3665969e-08
2.6617881e-08
5.1167157e-08
9.7216209e-08
1.8278014e-07
3.4037467e-07
6.2821174e-07
1.1495945e-06
2.0860309e-06
3.7527017e-06
6.6890074e-06
1.1801126e-05
2.0574871e-05
3.5368261e-05
5.9759222e-05
9.8886046e-05
0.00015954998
0.0002496994
0.00037677516
0.00054445277
0.00074808733
0.00097118587
0.0011807114
0.0013279559
0.0013607952
0.0012552007
0.0010222089
0.00073303012
0.00041712519
0.00019351898
0.0001002817
5.6641696e-05
3.6885863e-05
3.3820464e-05
4.833756e-05
7.5865928e-05
0.00011871742
0.00017303914
0.00023445974
0.00029855822
0.0002867191
0.00024923623
0.00023457491
0.00023691936
0.00026322244
0.00030700471
0.00040926728
0.00053647103
2.003697e-19
3.8969179e-17
1.0379559e-15
1.05227e-14
6.3637927e-14
2.8194932e-13
1.0181138e-12
3.1859375e-12
8.9758946e-12
2.334958e-11
5.7073537e-11
1.3274133e-10
2.9651169e-10
6.4064629e-10
1.3462377e-09
2.7633358e-09
5.5597814e-09
1.0995316e-08
2.1422486e-08
4.1195248e-08
7.8305157e-08
1.4730571e-07
2.7449635e-07
5.0702587e-07
9.2869526e-07
1.6869882e-06
3.0383982e-06
5.4223586e-06
9.577044e-06
1.670978e-05
2.8722683e-05
4.8476687e-05
7.9982249e-05
0.00012830824
0.000198852
0.00029550323
0.00041762771
0.00055612747
0.00068945855
0.00078408538
0.00080368217
0.00073045286
0.00057757078
0.00038871728
0.00020475603
9.904107e-05
5.4395752e-05
3.2162048e-05
2.314058e-05
2.4457888e-05
3.8215777e-05
6.3693737e-05
0.00010551486
0.00015896395
0.0002171418
0.00027869966
0.00029879352
0.00025986193
0.00023558655
0.00022595033
0.00022989338
0.00025376378
0.00029718894
0.00039666023
0.00052469443
1.6406018e-19
3.1907487e-17
8.4986663e-16
8.615885e-15
5.2106254e-14
2.308588e-13
8.3363169e-13
2.6086695e-12
7.3496321e-12
1.9119474e-11
4.6735252e-11
1.0870111e-10
2.4282535e-10
5.2469023e-10
1.102678e-09
2.2636796e-09
4.5552027e-09
9.0103855e-09
1.7559452e-08
3.377662e-08
6.4226242e-08
1.2087092e-07
2.2534422e-07
4.1645969e-07
7.6325173e-07
1.3872743e-06
2.4999234e-06
4.4630113e-06
7.8826261e-06
1.3744153e-05
2.3582573e-05
3.9652542e-05
6.4980056e-05
0.00010300127
0.00015650126
0.0002255937
0.00030478958
0.00038158645
0.00043460445
0.00044168378
0.00039279517
0.00030079886
0.00019090981
9.896335e-05
5.0607386e-05
2.9277326e-05
1.9114667e-05
1.5341591e-05
1.871501e-05
3.1215854e-05
5.4713774e-05
9.3714367e-05
0.00014589035
0.00020188754
0.00026208589
0.00030639092
0.00027580305
0.00024856129
0.0002306139
0.00022409827
0.00022741313
0.00024978251
0.0002929137
0.00038902689
0.00052043648
1.3369683e-19
2.6002234e-17
6.9257858e-16
7.0213067e-15
4.2462607e-14
1.8813123e-13
6.7933736e-13
2.1258217e-12
5.989217e-12
1.5580373e-11
3.8084244e-11
8.8579979e-11
1.9787874e-10
4.2757744e-10
8.9860921e-10
1.8448084e-09
3.7124603e-09
7.3437529e-09
1.4312225e-08
2.7531606e-08
5.2352723e-08
9.8524395e-08
1.8366846e-07
3.3937455e-07
6.2175024e-07
1.1293651e-06
2.0330245e-06
3.6233917e-06
6.3829124e-06
1.1084382e-05
1.8902668e-05
3.1472809e-05
5.0761048e-05
7.8501021e-05
0.00011493306
0.00015714007
0.00019750086
0.00022397037
0.00022421138
0.00019508439
0.00014382107
8.7279337e-05
4.6175826e-05
2.5383501e-05
1.6163119e-05
1.1620009e-05
1.0922125e-05
1.4599362e-05
2.6023183e-05
4.7913459e-05
8.5287572e-05
0.00013555283
0.00019068338
0.00024748184
0.0002992395
0.00028332055
0.00026251346
0.00024424398
0.00023082742
0.0002248829
0.00022852006
0.00025068454
0.00029290888
0.00038646654
0.00052182662
1.047036e-19
2.0363437e-17
5.4238698e-16
5.4986577e-15
3.3253819e-14
1.473293e-13
5.319909e-13
1.6646894e-12
4.6898748e-12
1.2199746e-11
2.9819242e-11
6.9352321e-11
1.5491499e-10
3.3471179e-10
7.0336303e-10
1.4437742e-09
2.9048979e-09
5.7449024e-09
1.1192619e-08
2.1521206e-08
4.089935e-08
7.6907515e-08
1.4321165e-07
2.6421983e-07
4.8306323e-07
8.7497579e-07
1.5690189e-06
2.781659e-06
4.8645741e-06
8.3627871e-06
1.4060417e-05
2.2945288e-05
3.5945755e-05
5.3335307e-05
7.3736098e-05
9.306128e-05
0.00010505115
0.00010386953
8.8463204e-05
6.2994013e-05
3.7790142e-05
2.1284717e-05
1.2690636e-05
8.9509455e-06
7.5942692e-06
7.8568303e-06
1.1998759e-05
2.1922108e-05
4.2897579e-05
7.9692453e-05
0.00012579155
0.00017572684
0.00022692291
0.00027714162
0.00027635434
0.00026735716
0.00025381127
0.00024048621
0.00022994051
0.00022756122
0.00023238267
0.0002534131
0.00029403775
0.00038705276
0.00052798848
7.589053e-20
1.4759679e-17
3.9312816e-16
3.9854609e-15
2.41022e-14
1.0678074e-13
3.8555959e-13
1.2064187e-12
3.398573e-12
8.8399164e-12
2.1604559e-11
5.0239801e-11
1.1220217e-10
2.4236919e-10
5.0916118e-10
1.0447346e-09
2.1009604e-09
4.152247e-09
8.0827216e-09
1.5523929e-08
2.9458287e-08
5.5285909e-08
1.0268663e-07
1.8881788e-07
3.4368984e-07
6.1892935e-07
1.1014285e-06
1.9330581e-06
3.3353594e-06
5.6308967e-06
9.2361789e-06
1.4571372e-05
2.1805373e-05
3.0380431e-05
3.85409e-05
4.3471199e-05
4.2674509e-05
3.6134107e-05
2.5324128e-05
1.5600252e-05
9.570529e-06
6.371714e-06
5.2599004e-06
4.9574676e-06
6.0949923e-06
9.6984184e-06
1.9294115e-05
4.0412718e-05
7.3788832e-05
0.00011581407
0.00016099869
0.00020882217
0.00024876591
0.00025819855
0.00025890766
0.00025280282
0.00024383076
0.00023647527
0.00023149696
0.00023144271
0.00023632793
0.00025793497
0.00029914867
0.00039262271
0.00053806091
4.935583e-20
9.5990323e-18
2.5567189e-16
2.5919256e-15
1.5674397e-14
6.9440183e-14
2.5071795e-13
7.8443774e-13
2.2095906e-12
5.7464996e-12
1.4041769e-11
3.2645352e-11
7.2885404e-11
1.5737732e-10
3.3044029e-10
6.7756093e-10
1.3613697e-09
2.687457e-09
5.2235469e-09
1.0012974e-08
1.895255e-08
3.5452096e-08
6.5565844e-08
1.198898e-07
2.1664558e-07
3.8646631e-07
6.7929273e-07
1.173023e-06
1.9811761e-06
3.2511968e-06
5.1346773e-06
7.6997552e-06
1.0766374e-05
1.3723238e-05
1.5541471e-05
1.5257274e-05
1.2935886e-05
9.3277837e-06
6.2710521e-06
4.2785302e-06
3.3772556e-06
3.1314682e-06
3.5378037e-06
4.684221e-06
8.2769618e-06
1.8330961e-05
3.7327746e-05
6.8218956e-05
0.00010630749
0.00014784716
0.0001930099
0.00022156063
0.00023384634
0.00024031896
0.00024090878
0.00023948339
0.00023685391
0.0002343601
0.00023167541
0.00023419636
0.00024151951
0.00026429972
0.00030397517
0.00039718736
0.0005506263
2.8143294e-20
5.4734779e-18
1.4578619e-16
1.4779138e-15
8.9372528e-15
3.9591528e-14
1.429369e-13
4.471689e-13
1.2593954e-12
3.2746823e-12
7.9997275e-12
1.8592009e-11
4.1490685e-11
8.9535881e-11
1.8785163e-10
3.8480127e-10
7.721466e-10
1.521709e-09
2.9512298e-09
5.6411121e-09
1.0638161e-08
1.9804471e-08
3.6400384e-08
6.6026587e-08
1.1807433e-07
2.0779128e-07
3.5883464e-07
6.0547831e-07
9.9201897e-07
1.5640642e-06
2.3432033e-06
3.2790484e-06
4.1930936e-06
4.7701646e-06
4.7320703e-06
4.1335316e-06
3.2859117e-06
2.5125305e-06
1.9904905e-06
1.8453149e-06
2.0798342e-06
2.5355907e-06
3.8759169e-06
7.8742916e-06
1.7177765e-05
3.4455515e-05
6.2776451e-05
9.7492914e-05
0.0001360486
0.00017820506
0.00019753676
0.00020950521
0.00021780221
0.00022336653
0.00022739573
0.00022979605
0.00022974219
0.0002303108
0.00023180217
0.00023813949
0.00024658551
0.0002703059
0.00031041659
0.00040840747
0.00056495368
1.3852809e-20
2.6941742e-18
7.1758817e-17
7.2744271e-16
4.3988211e-15
1.9485257e-14
7.0340575e-14
2.2002551e-13
6.1955615e-13
1.6105549e-12
3.933069e-12
9.1365869e-12
2.0377301e-11
4.3939008e-11
9.2091646e-11
1.8839021e-10
3.7736639e-10
7.4201177e-10
1.4348497e-09
2.7322211e-09
5.1271874e-09
9.4843742e-09
1.7289014e-08
3.1027402e-08
5.4722883e-08
9.458673e-08
1.5956173e-07
2.6113885e-07
4.1114121e-07
6.1548927e-07
8.6251353e-07
1.1089084e-06
1.2831579e-06
1.3371198e-06
1.2870307e-06
1.1752609e-06
1.0548946e-06
1.0225767e-06
1.1180649e-06
1.42495e-06
2.0487785e-06
3.634799e-06
7.566015e-06
1.5733305e-05
3.1562153e-05
5.759562e-05
8.9249722e-05
0.00012484947
0.00016352797
0.00017698132
0.00018742943
0.0001957896
0.00020323758
0.00021024506
0.00021546759
0.00021957071
0.00022316909
0.00022793491
0.00023223958
0.00024066141
0.00025138049
0.00027774789
0.00031769707
0.00041674944
0.00057898617
5.875702e-21
1.1427381e-18
3.043629e-17
3.0853452e-16
1.8656055e-15
8.2633271e-15
2.9826544e-14
9.3281677e-14
2.6260444e-13
6.8243085e-13
1.6658259e-12
3.867556e-12
8.6193818e-12
1.8567632e-11
3.8866422e-11
7.9377099e-11
1.586609e-10
3.1111002e-10
5.9945289e-10
1.1362113e-09
2.1195227e-09
3.8908048e-09
7.022916e-09
1.244463e-08
2.1593375e-08
3.6549879e-08
6.0027297e-08
9.4956008e-08
1.4328299e-07
2.0374675e-07
2.6975779e-07
3.3246431e-07
3.8586476e-07
4.2851949e-07
4.7304681e-07
5.1930239e-07
5.853492e-07
7.8989521e-07
1.1682333e-06
1.9271401e-06
3.5299653e-06
6.998766e-06
1.418716e-05
2.8600062e-05
5.2440716e-05
8.1358783e-05
0.00011432912
0.00014992496
0.00015945089
0.00016822967
0.00017563098
0.00018331617
0.00019095536
0.00019809549
0.00020486945
0.00021193141
0.00021781896
0.0002246087
0.00023148948
0.00024362156
0.00025645983
0.00028439302
0.00032453297
0.00042989717
0.00059397105
2.2724149e-21
4.4195052e-19
1.1771029e-17
1.1932085e-16
7.2146283e-16
3.1953593e-15
1.1532511e-14
3.6062403e-14
1.0150171e-13
2.6370082e-13
6.4346287e-13
1.4932062e-12
3.3256966e-12
7.1581784e-12
1.4967661e-11
3.0526295e-11
6.0908796e-11
1.1916393e-10
2.2895218e-10
4.3239887e-10
8.0297953e-10
1.4657919e-09
2.6276096e-09
4.6175651e-09
7.9341705e-09
1.3283052e-08
2.1572155e-08
3.381936e-08
5.097844e-08
7.3789205e-08
1.0268283e-07
1.370128e-07
1.7878135e-07
2.3706501e-07
3.1873489e-07
4.403615e-07
6.8373464e-07
1.0998115e-06
1.8498554e-06
3.3068654e-06
6.3153204e-06
1.2720342e-05
2.6045469e-05
4.7550053e-05
7.4087762e-05
0.00010487106
0.00013781554
0.0001444847
0.00015161072
0.0001578234
0.00016468978
0.00017213485
0.00017977524
0.00018805945
0.00019622208
0.00020414602
0.00021195895
0.00022178599
0.00023158892
0.00024586404
0.0002605878
0.0002915245
0.00033275899
0.0004413988
0.00060654659
1.0499559e-21
2.0420076e-19
5.4387556e-18
5.5132376e-17
3.3336236e-16
1.4765341e-15
5.3294137e-15
1.6666898e-14
4.6917402e-14
1.2191379e-13
2.9755841e-13
6.9073487e-13
1.5390932e-12
3.3146714e-12
6.936435e-12
1.4161934e-11
2.8298403e-11
5.5474192e-11
1.068746e-10
2.0260077e-10
3.7818608e-10
6.953166e-10
1.2589149e-09
2.2433198e-09
3.9305525e-09
6.7632045e-09
1.1415702e-08
1.8885176e-08
3.0600191e-08
4.8453964e-08
7.4998768e-08
1.1393834e-07
1.7202737e-07
2.6071594e-07
4.0452791e-07
6.4395015e-07
1.0394957e-06
1.7241284e-06