/*--------------------------------*- C++ -*----------------------------------*\
  =========                 |
  \\      /  F ield         | OpenFOAM: The Open Source CFD Toolbox
   \\    /   O peration     | Website:  https://openfoam.org
    \\  /    A nd           | Version:  13
     \\/     M anipulation  |
\*---------------------------------------------------------------------------*/
FoamFile
{
    format      ascii;
    class       volScalarField;
    location    "41.903174";
    object      k;
}
// * * * * * * * * * * * * * * * * * * * * * * * * * * * * * * * * * * * * * //

dimensions      [0 2 -2 0 0 0 0];

internalField   nonuniform List<scalar> 
17140
(
5.0773518e-12
1.5954803e-10
1.3046758e-09
5.6109332e-09
1.7266708e-08
4.357303e-08
9.6628333e-08
1.9584853e-07
3.7169144e-07
6.7112007e-07
1.1655699e-06
1.9625091e-06
3.2221355e-06
5.1813881e-06
8.1883273e-06
1.2751143e-05
1.9607666e-05
2.9823414e-05
4.492892e-05
6.7110439e-05
9.9471767e-05
0.0001463881
0.00021397371
0.00031067976
0.00044801835
0.00064135916
0.00091063865
0.0012806196
0.0017799999
0.0024382207
0.0032785518
0.0043068695
0.0054990379
0.0067958136
0.0081157274
0.0093834952
0.010553707
0.011614689
0.012578561
0.013468968
0.014313737
0.015141937
0.015983313
0.016868977
0.017830558
0.018898638
0.020105006
0.021482789
0.02306464
0.024881817
0.026962252
0.029320215
0.031937107
0.034764847
0.037720364
0.040626214
0.043127312
0.044651353
0.044982988
0.045621653
0.053411754
0.065615947
0.056132364
0.016427348
0.0089431748
5.0828665e-12
1.5972133e-10
1.3060968e-09
5.6170834e-09
1.7285841e-08
4.3622049e-08
9.6739129e-08
1.9607822e-07
3.7213868e-07
6.7195078e-07
1.1670574e-06
1.9650965e-06
3.2265316e-06
5.1887134e-06
8.200337e-06
1.2770562e-05
1.9638693e-05
2.9872468e-05
4.5005745e-05
6.7229717e-05
9.9655432e-05
0.00014666861
0.00021439855
0.00031131741
0.00044896572
0.00064274998
0.00091265087
0.0012834774
0.0017839616
0.0024435362
0.0032853648
0.004315075
0.0055081932
0.0068051583
0.00812412
0.0093902046
0.010558414
0.011617612
0.012579723
0.013468156
0.014310486
0.015135492
0.015972778
0.01685348
0.017809327
0.018871438
0.020072515
0.021447273
0.023031027
0.024859411
0.026967046
0.029382722
0.03212737
0.035176904
0.03851422
0.042045219
0.045529253
0.048410118
0.050189708
0.052158664
0.057036438
0.06271288
0.040074534
0.015492675
0.0086172805
5.0541943e-12
1.5882034e-10
1.2987295e-09
5.5854131e-09
1.7188484e-08
4.3376804e-08
9.619664e-08
1.9498224e-07
3.7006681e-07
6.6822695e-07
1.1606239e-06
1.9543283e-06
3.2089683e-06
5.1606772e-06
8.1563879e-06
1.270273e-05
1.9535403e-05
2.9717042e-05
4.4774341e-05
6.6888509e-05
9.9156815e-05
0.00014594616
0.00021336046
0.00030983823
0.0004468764
0.00063982671
0.00090860455
0.0012779471
0.0017765205
0.0024337354
0.0032727209
0.0042990397
0.0054880723
0.0067805032
0.0080956092
0.0093584708
0.010524013
0.011580768
0.012540408
0.013425978
0.014264684
0.015084959
0.015916193
0.016789458
0.017736541
0.018788907
0.019980027
0.021346027
0.022924711
0.024756203
0.026883804
0.029353053
0.032203302
0.03548231
0.03920798
0.043375966
0.047825342
0.051920945
0.055010722
0.057123639
0.058617305
0.057536364
0.032704835
0.019426634
0.0092301816
4.9877412e-12
1.5673215e-10
1.2816541e-09
5.5119906e-09
1.696264e-08
4.2807309e-08
9.4935058e-08
1.924287e-07
3.6522853e-07
6.5950779e-07
1.1455141e-06
1.9289499e-06
3.1674155e-06
5.094061e-06
8.0514655e-06
1.2539946e-05
1.928611e-05
2.933958e-05
4.4208546e-05
6.6048107e-05
9.7918981e-05
0.00014413742
0.00021073804
0.00030606614
0.00044149613
0.00063222439
0.00089798025
0.0012632883
0.0017565682
0.0024069755
0.003237645
0.0042546619
0.0054346319
0.0067191976
0.0080278563
0.0092858575
0.010447739
0.011501377
0.01245782
0.013339567
0.014173362
0.014987247
0.01581032
0.016673492
0.017608483
0.018646907
0.019822784
0.021173373
0.022738712
0.024563332
0.026699281
0.029208274
0.032159251
0.035635679
0.039756131
0.044564789
0.049988032
0.055380955
0.059605471
0.06163692
0.060225675
0.052843222
0.034033354
0.023950626
0.010167586
4.8813288e-12
1.5338831e-10
1.2543109e-09
5.3944094e-09
1.6600898e-08
4.1894842e-08
9.2912798e-08
1.8833316e-07
3.5746318e-07
6.4550232e-07
1.1212207e-06
1.8881043e-06
3.1004589e-06
4.9865781e-06
7.8819328e-06
1.2276504e-05
1.8881961e-05
2.872647e-05
4.32876e-05
6.4677034e-05
9.5894431e-05
0.00014117096
0.00020642411
0.00029984041
0.0004325838
0.00061957736
0.00088020263
0.0012385887
0.0017228275
0.0023619494
0.003179394
0.0041820921
0.0053478766
0.0066200053
0.0079190398
0.0091702429
0.010327301
0.011376976
0.012329351
0.013206196
0.014033688
0.014839399
0.015652053
0.016502281
0.017421562
0.018441423
0.019596144
0.020923736
0.022466066
0.02427169
0.026400913
0.028930884
0.031959641
0.035620248
0.040095316
0.045544812
0.051957759
0.058632836
0.06406276
0.066678929
0.063342588
0.053246956
0.041950999
0.027071627
0.010682966
4.7346966e-12
1.4878062e-10
1.2166327e-09
5.2323796e-09
1.6102357e-08
4.0637106e-08
9.0124695e-08
1.8268496e-07
3.4675008e-07
6.2617231e-07
1.0876757e-06
1.8316735e-06
3.0078994e-06
4.8378993e-06
7.6472545e-06
1.1911546e-05
1.8321601e-05
2.7875601e-05
4.200824e-05
6.2770305e-05
9.3075617e-05
0.00013703546
0.00020040178
0.00029113592
0.00042010129
0.0006018369
0.00085527201
0.0012040463
0.0016758025
0.0022993853
0.0030984763
0.0040810447
0.0052269242
0.0064817285
0.007767587
0.0090097385
0.010160582
0.011205278
0.012152589
0.013023335
0.013843007
0.014638635
0.015438469
0.016272699
0.017172367
0.01816863
0.019295665
0.020591747
0.022099999
0.023872322
0.025976315
0.028503049
0.031578023
0.035381767
0.040163921
0.046186506
0.053593374
0.061572684
0.068490225
0.072189448
0.06933111
0.05802596
0.049995149
0.028449929
0.010241995
4.5492663e-12
1.4295377e-10
1.168985e-09
5.0274712e-09
1.5471844e-08
3.9046246e-08
8.6597594e-08
1.7553826e-07
3.3319154e-07
6.0170136e-07
1.0451957e-06
1.7601864e-06
2.8905982e-06
4.6493968e-06
7.3495794e-06
1.1448388e-05
1.7610089e-05
2.6794626e-05
4.0381987e-05
6.0345247e-05
8.9488716e-05
0.00013177089
0.00019273331
0.00028005255
0.00040421686
0.00057928656
0.00082360797
0.0011601743
0.0016160257
0.0022196487
0.0029950233
0.0039514875
0.0050714552
0.0063036516
0.0075723459
0.0088028173
0.0099457915
0.010984301
0.011925385
0.012788689
0.013598899
0.014382407
0.015166886
0.015981867
0.016857739
0.017824977
0.01891721
0.020172389
0.021634155
0.023356806
0.025413726
0.027907571
0.030988013
0.034875728
0.039881114
0.046329689
0.054508662
0.063705196
0.072346125
0.07750424
0.0757772
0.067590271
0.055391188
0.026106103
0.0083057582
4.3288772e-12
1.3602839e-10
1.1123542e-09
4.7839286e-09
1.4722431e-08
3.7155302e-08
8.2404905e-08
1.6704224e-07
3.1707155e-07
5.7260421e-07
9.946788e-07
1.675163e-06
2.7510657e-06
4.4251344e-06
6.9953759e-06
1.0897182e-05
1.676316e-05
2.5507659e-05
3.844541e-05
5.7456718e-05
8.521505e-05
0.00012549612
0.00018358923
0.00026682849
0.00038524723
0.00055232087
0.00078568008
0.0011075124
0.0015440859
0.0021234206
0.0028697858
0.0037941038
0.0048818965
0.0060857677
0.0073328002
0.0085484983
0.0096815765
0.010712417
0.011645914
0.012500282
0.013299244
0.014068446
0.014834891
0.01562724
0.016474843
0.017407264
0.018457051
0.01966115
0.021062857
0.022717657
0.024702793
0.027130025
0.030166813
0.034056605
0.039140719
0.045788526
0.054353141
0.064183484
0.073961863
0.080300351
0.079019856
0.072772363
0.054239263
0.020512882
0.0056210305
4.077938e-12
1.28143e-10
1.0478727e-09
4.5066199e-09
1.3869088e-08
3.5001994e-08
7.7630093e-08
1.5736561e-07
2.987092e-07
5.3945468e-07
9.3711677e-07
1.5782642e-06
2.5920111e-06
4.1694362e-06
6.5914194e-06
1.0268373e-05
1.579669e-05
2.4038525e-05
3.6233835e-05
5.4156514e-05
8.0329739e-05
0.0001183189
0.00017312237
0.00025167803
0.00036349091
0.00052135363
0.00074205532
0.0010468254
0.0014609942
0.0020119656
0.0027242309
0.0036104217
0.0046595995
0.0058289842
0.0070492373
0.0082464462
0.0093671075
0.010388454
0.011312771
0.01215653
0.012942312
0.013694884
0.014440413
0.015206545
0.016021235
0.016912712
0.017911958
0.019054185
0.020381417
0.021948866
0.023836221
0.026162787
0.029101576
0.032891844
0.037854638
0.044315091
0.052564898
0.062194121
0.072139696
0.078578249
0.077291682
0.069774722
0.043477879
0.012228423
0.0031948787
3.8012113e-12
1.1944728e-10
9.7676483e-10
4.2008109e-09
1.2928018e-08
3.262721e-08
7.2363841e-08
1.4669215e-07
2.7845329e-07
5.0288253e-07
8.7360322e-07
1.4713309e-06
2.4164563e-06
3.8871598e-06
6.1453818e-06
9.573899e-06
1.4729018e-05
2.2415075e-05
3.378914e-05
5.050703e-05
7.4924951e-05
0.00011037427
0.00016152901
0.00023488411
0.00033935196
0.00048695522
0.00069352674
0.00097919272
0.001368175
0.001887084
0.0025605015
0.0034027826
0.0044068301
0.0055351479
0.0067228263
0.0078971021
0.0090022227
0.010011818
0.010925058
0.011756314
0.012526803
0.013260255
0.013981827
0.014717917
0.015494858
0.016339006
0.017279285
0.018348498
0.019586568
0.021046784
0.022813407
0.025010022
0.027796326
0.031374513
0.03596857
0.041739134
0.048828881
0.057099244
0.065791648
0.07064241
0.068567562
0.057091547
0.02166145
0.0057126341
0.0015325373
3.5045521e-12
1.1012522e-10
9.0053506e-10
3.8729715e-09
1.1919132e-08
3.0081199e-08
6.6717594e-08
1.3524779e-07
2.5673266e-07
4.6366217e-07
8.0548342e-07
1.3566286e-06
2.2281216e-06
3.5842891e-06
5.6667217e-06
8.828491e-06
1.3582793e-05
2.0671754e-05
3.1163186e-05
4.6585648e-05
6.9115184e-05
0.00010183027
0.00014905374
0.00021679963
0.0003133345
0.00044983735
0.00064108425
0.00090596484
0.0012674225
0.0017510748
0.002381397
0.0031743585
0.0041268413
0.0052071826
0.0063558003
0.0075018689
0.0085875849
0.009582616
0.010482492
0.011299063
0.012051907
0.012763555
0.013457949
0.014159957
0.014894091
0.015684321
0.016557024
0.017542145
0.018677043
0.020012618
0.021645137
0.023689797
0.026274699
0.029527169
0.033480519
0.037921256
0.042671234
0.047607099
0.052410748
0.052918702
0.047395031
0.025402842
0.0076230601
0.0021430053
0.00064193175
3.1946369e-12
1.0038661e-10
8.208988e-10
3.5304794e-09
1.0865134e-08
2.7421264e-08
6.0818452e-08
1.2329019e-07
2.3403642e-07
4.2267703e-07
7.3429216e-07
1.2367425e-06
2.0312532e-06
3.2676544e-06
5.1662371e-06
8.0489692e-06
1.2383887e-05
1.8847913e-05
2.8415247e-05
4.2480855e-05
6.3031444e-05
9.2879313e-05
0.00013597689
0.00019782961
0.00028601821
0.00041082062
0.00058587403
0.00082871521
0.0011608479
0.0016066829
0.0021903326
0.0029291447
0.0038239252
0.0048492145
0.0059516402
0.0070633156
0.0081248733
0.0091018221
0.0099855351
0.01078486
0.011517402
0.012204295
0.012868074
0.013531746
0.014217739
0.014947293
0.015743817
0.016634372
0.017653912
0.018857435
0.020352481
0.022228022
0.024559049
0.027304339
0.030044179
0.031812909
0.031764919
0.029842871
0.026867833
0.022590482
0.014755195
0.0068729356
0.0022278263
0.00071640576
0.00027673905
2.8786087e-12
9.0455901e-11
7.3969174e-10
3.1812299e-09
9.7903247e-09
2.4708739e-08
5.4802456e-08
1.1109516e-07
2.1088824e-07
3.8087304e-07
6.6167311e-07
1.1144415e-06
1.8303999e-06
2.9445756e-06
4.6555034e-06
7.253371e-06
1.1160053e-05
1.698579e-05
2.5608979e-05
3.8287754e-05
5.6814664e-05
8.372864e-05
0.0001226009
0.0001784119
0.00025803156
0.00037079822
0.00052915034
0.00074917871
0.0010508035
0.0014570129
0.0019912546
0.0026718976
0.0035034068
0.0044666536
0.0055152462
0.0065854019
0.0076170092
0.0085714697
0.0094355457
0.010214562
0.010923754
0.011582587
0.012211983
0.012832808
0.013465015
0.014126932
0.014838815
0.015625601
0.01652103
0.017600647
0.018954429
0.020628857
0.022557834
0.024197232
0.024035881
0.0209123
0.014441361
0.0093397076
0.0074774248
0.0059638556
0.0038025745
0.0018036592
0.00068407047
0.00028011841
0.00015843644
2.5637194e-12
8.0560973e-11
6.5877707e-10
2.8332359e-09
8.719365e-09
2.2005871e-08
4.8807696e-08
9.8942701e-08
1.878198e-07
3.3921075e-07
5.8929563e-07
9.925386e-07
1.6301841e-06
2.6224922e-06
4.1462892e-06
6.460042e-06
9.9395342e-06
1.5128389e-05
2.2809238e-05
3.4103318e-05
5.0608708e-05
7.4590102e-05
0.00010923549
0.00015899599
0.0002300218
0.00033069391
0.00047221791
0.00066917432
0.00093978279
0.0013054054
0.0017884986
0.0024079961
0.0031715479
0.0040661886
0.0050530542
0.0060736928
0.0070684085
0.0079948886
0.0088349799
0.0095899524
0.010272215
0.010899212
0.01148998
0.012063041
0.012635404
0.013222376
0.01384122
0.014516361
0.015287299
0.016252208
0.017435243
0.018762967
0.019674918
0.018543949
0.014222441
0.0073242397
0.0042895897
0.002656103
0.0019709307
0.0014714893
0.00094671237
0.00052183711
0.00025962807
0.00015770292
0.00012480164
2.2569356e-12
7.092075e-11
5.7994516e-10
2.4941979e-09
7.6759567e-09
1.937249e-08
4.2966908e-08
8.7101998e-08
1.6534228e-07
2.9861384e-07
5.1876532e-07
8.7373981e-07
1.4350534e-06
2.3085649e-06
3.6499254e-06
5.6866525e-06
8.7495432e-06
1.3317172e-05
2.0078601e-05
3.0021202e-05
4.4552676e-05
6.5668848e-05
9.6181173e-05
0.00014001915
0.00020262072
0.0002914136
0.00041636411
0.00059051177
0.00083029456
0.0011552743
0.0015865902
0.0021432194
0.0028353387
0.0036556577
0.0045730468
0.005535518
0.0064852307
0.007376969
0.0081876174
0.0089139146
0.0095649458
0.010155683
0.010702867
0.011222595
0.011728348
0.012232352
0.012749263
0.013303473
0.013959127
0.014781625
0.015644699
0.016025877
0.014512353
0.0099167145
0.0045839686
0.0022362373
0.0012597214
0.00078488214
0.00056732235
0.00040494487
0.00028683283
0.0002050712
0.00014600676
0.00012267963
0.00011416905
1.9645643e-12
6.1733429e-11
5.0481697e-10
2.1710882e-09
6.6815615e-09
1.6862776e-08
3.7400299e-08
7.581684e-08
1.4391872e-07
2.5991913e-07
4.5153702e-07
7.6049755e-07
1.2490395e-06
2.0092865e-06
3.17669e-06
4.9492371e-06
7.6147874e-06
1.1589805e-05
1.7473957e-05
2.6126626e-05
3.8773298e-05
5.7152073e-05
8.3712739e-05
0.00012188231
0.00017640971
0.00025379492
0.0003627871
0.00051489019
0.00072472247
0.0010099155
0.0013899953
0.0018834397
0.0025021615
0.0032437494
0.0040845861
0.0049799949
0.0058755624
0.006724416
0.0074988086
0.0081906137
0.0088050923
0.009354228
0.0098519675
0.010311536
0.010742621
0.011154042
0.011558156
0.011980617
0.012507752
0.013043448
0.013011022
0.011424559
0.006897601
0.0031672019
0.0014279233
0.00071463797
0.00042284859
0.00028604145
0.0002184461
0.00017315205
0.00014629492
0.00012792576
0.00011513823
0.00011157116
0.00010836724
1.6918873e-12
5.3164978e-11
4.3474956e-10
1.869743e-09
5.7541424e-09
1.4522076e-08
3.2208497e-08
6.5291338e-08
1.2393684e-07
2.2382744e-07
3.888294e-07
6.5486659e-07
1.0755215e-06
1.7301004e-06
2.7352023e-06
4.2612482e-06
6.5560064e-06
9.9779251e-06
1.5043132e-05
2.2491311e-05
3.3377377e-05
4.9197829e-05
7.2062751e-05
0.00010492586
0.00015188449
0.00021855612
0.00031252196
0.00044379218
0.00062517433
0.00087229597
0.0012028303
0.0016342422
0.002179327
0.0028395105
0.0035980028
0.0044178146
0.0052494283
0.006045915
0.0067756952
0.0074257077
0.0079969035
0.0084976771
0.0089386727
0.0093292383
0.009674972
0.0099803422
0.010252521
0.010527209
0.010799058
0.010566599
0.0089404666
0.0048493257
0.0022164492
0.0010029883
0.0004873305
0.00028166123
0.00019610994
0.00015586359
0.00013423149
0.00012023027
0.00011213189
0.00010783458
0.00010571693
0.00010561413
0.00010360001
1.4428745e-12
4.5340133e-11
3.7076275e-10
1.5945487e-09
4.9072025e-09
1.2384483e-08
2.7467158e-08
5.5678972e-08
1.0568824e-07
1.9086597e-07
3.3155941e-07
5.5839348e-07
9.1704342e-07
1.4751065e-06
2.3319576e-06
3.6328293e-06
5.5888486e-06
8.5054251e-06
1.2822278e-05
1.9169549e-05
2.8445901e-05
4.1926242e-05
6.1408503e-05
8.9410337e-05
0.00012942649
0.00018625375
0.00026637819
0.00037839154
0.00053334603
0.00074485371
0.0010285715
0.0014005103
0.0018735128
0.0024516546
0.003123877
0.0038606567
0.0046184545
0.0053520231
0.0060272156
0.0066263656
0.0071457012
0.0075892952
0.0079636627
0.0082729613
0.0085175279
0.0086946476
0.0088035749
0.0088289384
0.0084715385
0.0069743076
0.0035918666
0.0015952742
0.00072584507
0.00036446032
0.00021885884
0.00016099154
0.00013526067
0.00012175594
0.00011268625
0.00010658764
0.00010297034
0.00010189581
0.0001012664
0.00010114296
9.9301488e-05
1.2199442e-12
3.8334877e-11
3.1347792e-10
1.3481783e-09
4.1489706e-09
1.0470777e-08
2.3222406e-08
4.7073336e-08
8.9350825e-08
1.6135645e-07
2.8028697e-07
4.7202311e-07
7.751606e-07
1.2468131e-06
1.9709332e-06
3.0701977e-06
4.7229174e-06
7.1869889e-06
1.083366e-05
1.6194851e-05
2.4029018e-05
3.5411992e-05
5.1860793e-05
7.5499699e-05
0.00010927791
0.00015724538
0.00022488394
0.00031946936
0.00045039492
0.00062930624
0.00086976588
0.0011859971
0.0015901448
0.0020877362
0.0026720487
0.0033201871
0.0039950535
0.0046546344
0.0052637853
0.0058009778
0.0062574815
0.0066321813
0.0069257718
0.0071355255
0.0072535085
0.0072605893
0.0071380303
0.0066449801
0.005190852
0.0026708457
0.001193096
0.00054601262
0.00028544537
0.00018369568
0.00014430025
0.00012787714
0.00011848461
0.00011237424
0.00010679633
0.00010264932
0.00010007663
9.9361092e-05
9.734436e-05
9.72562e-05
9.5707381e-05
1.0238784e-12
3.2173806e-11
2.6309644e-10
1.1314981e-09
3.4821147e-09
8.7877008e-09
1.9489227e-08
3.9504892e-08
7.4982588e-08
1.3540403e-07
2.3519546e-07
3.9606576e-07
6.5038536e-07
1.0460493e-06
1.6534489e-06
2.5754264e-06
3.9614325e-06
6.0275728e-06
9.0848518e-06
1.3578737e-05
2.014419e-05
2.968151e-05
4.3459661e-05
6.3254763e-05
9.1531609e-05
0.00013167382
0.00018826095
0.00026737376
0.0003768739
0.00052654089
0.00072784662
0.00099301215
0.0013328887
0.0017533259
0.0022504446
0.002806655
0.0033910354
0.0039658421
0.0044964751
0.0049585388
0.005338276
0.0056281334
0.0058207691
0.0059030937
0.0058550756
0.0056485463
0.0050923516
0.0036922748
0.0018991205
0.0008891517
0.0004239752
0.00023353642
0.0001609058
0.00013429793
0.00012424842
0.00011893023
0.00011448246
0.00010987324
0.00010494228
0.00010105044
9.8144251e-05
9.6494339e-05
9.4716384e-05
9.4298745e-05
9.2560134e-05
8.5381152e-13
2.6829717e-11
2.1939585e-10
9.4355146e-10
2.9036928e-09
7.3278364e-09
1.6251188e-08
3.2940371e-08
6.252049e-08
1.1289509e-07
1.9608799e-07
3.3019072e-07
5.4217623e-07
8.7194736e-07
1.3781386e-06
2.1463974e-06
3.3011555e-06
5.0222857e-06
7.5685529e-06
1.1310432e-05
1.6775694e-05
2.4712157e-05
3.6172988e-05
5.2630814e-05
7.6126878e-05
0.0001094596
0.0001564109
0.00022199483
0.00031268533
0.00043653022
0.00060297905
0.00082214727
0.0011031533
0.0014512387
0.0018638907
0.0023273196
0.0028158632
0.0032963209
0.0037357819
0.0041079232
0.0043938627
0.0045782282
0.0046424117
0.0045666162
0.004315086
0.0037693597
0.0025243678
0.0012975478
0.00063899521
0.00032925215
0.00019659443
0.00014523817
0.0001272748
0.00012156806
0.00011879731
0.00011655784
0.000112444
0.00010713597
0.0001022342
9.8230707e-05
9.5808757e-05
9.4330647e-05
9.2421207e-05
9.1891106e-05
9.0005704e-05
7.0725948e-13
2.2224542e-11
1.817376e-10
7.815922e-10
2.4052535e-09
6.0698569e-09
1.3460996e-08
2.7283932e-08
5.1782648e-08
9.3501239e-08
1.6239426e-07
2.7343781e-07
4.4895677e-07
7.2197205e-07
1.1409957e-06
1.7768714e-06
2.7324916e-06
4.156535e-06
6.2627853e-06
9.3571247e-06
1.3874959e-05
2.0432595e-05
2.9896853e-05
4.3477777e-05
6.28491e-05
9.0299349e-05
0.00012891119
0.00018275507
0.00025706086
0.00035829166
0.00049398299
0.00067213117
0.00089985189
0.001181087
0.0015134977
0.0018855106
0.0022754062
0.0026541311
0.0029909888
0.0032584189
0.0034324614
0.0034887424
0.0034072577
0.0031453616
0.0026128036
0.0016422122
0.00085876558
0.00044823949
0.00025104869
0.00016727304
0.00013328879
0.00012161873
0.00011889933
0.00011844956
0.00011747024
0.00011435834
0.00010837138
0.00010339088
9.9442709e-05
9.6724321e-05
9.4234483e-05
9.2599194e-05
9.0611022e-05
8.9916042e-05
8.7917097e-05
5.8058286e-13
1.8243919e-11
1.4918655e-10
6.4159849e-10
1.9744199e-09
4.9825255e-09
1.1049371e-08
2.2395127e-08
4.2502455e-08
7.6740963e-08
1.3327768e-07
2.2439783e-07
3.6841203e-07
5.9239853e-07
9.3612929e-07
1.4576672e-06
2.2413093e-06
3.4088038e-06
5.1350964e-06
7.6702853e-06
1.1369969e-05
1.6736738e-05
2.4476096e-05
3.5570372e-05
5.1373788e-05
7.3729941e-05
0.00010510813
0.00014874487
0.00020875826
0.00029017129
0.00039873351
0.00054037378
0.00072007733
0.00094003638
0.0011971989
0.0014809424
0.0017722391
0.0020454774
0.0022722826
0.0024244665
0.0024741322
0.0024016492
0.0021722183
0.0017023833
0.0010390773
0.00056153143
0.00030865285
0.0001922535
0.00014113117
0.00012360167
0.00011671235
0.00011722975
0.00011841909
0.00011808271
0.00011586967
0.00010982896
0.00010476147
0.00010109829
9.8075071e-05
9.4967881e-05
9.252122e-05
9.0719007e-05
8.894815e-05
8.8225914e-05
8.6031342e-05
4.6955936e-13
1.4755177e-11
1.2065787e-10
5.1890475e-10
1.5968329e-09
4.0296008e-09
8.9359241e-09
1.8110971e-08
3.4370466e-08
6.2055256e-08
1.0776683e-07
1.8143397e-07
2.9785243e-07
4.7889755e-07
7.5668998e-07
1.1781046e-06
1.8111614e-06
2.7540339e-06
4.1476666e-06
6.1933087e-06
9.1766445e-06
1.3500584e-05
1.9729087e-05
2.8644402e-05
4.1319454e-05
5.9205034e-05
8.4226826e-05
0.00011887824
0.00016627918
0.00023014547
0.0003145787
0.00042354805
0.00055992445
0.00072398771
0.00091153879
0.0011122136
0.0013089324
0.0014791279
0.0015970975
0.0016358122
0.0015769639
0.001392824
0.0010330724
0.00062589547
0.00035582795
0.00021381023
0.00014580584
0.00012161891
0.00011227035
0.00011274216
0.00011546034
0.00011945804
0.00011927018
0.00011734187
0.00011139308
0.0001061014
0.00010266221
9.9254257e-05
9.5798901e-05
9.3083407e-05
9.1013818e-05
8.9431282e-05
8.7608218e-05
8.6748495e-05
8.4714459e-05
3.7030871e-13
1.1636379e-11
9.5154399e-11
4.0922216e-10
1.2592925e-09
3.1777643e-09
7.0467425e-09
1.4281593e-08
2.7102089e-08
4.8929927e-08
8.4967986e-08
1.4304008e-07
2.3480245e-07
3.7748348e-07
5.9637046e-07
9.2834659e-07
1.4268951e-06
2.1691351e-06
3.2656417e-06
4.874028e-06
7.2175122e-06
1.0609919e-05
1.548866e-05
2.2457022e-05
3.2336174e-05
4.6225097e-05
6.5562166e-05
9.2173968e-05
0.00012828353
0.00017643034
0.0002392298
0.00031888063
0.00041634835
0.00053018269
0.00065517616
0.0007813038
0.00089353188
0.00097278639
0.00099747472
0.00095339911
0.00081527238
0.00058018958
0.00035577757
0.0002200623
0.00014523971
0.00011389808
0.00010190112
0.00010386418
0.00010751732
0.00011646586
0.00012043433
0.00012041386
0.00011860458
0.00011286916
0.0001073159
0.0001040495
0.00010045968
9.7004072e-05
9.4246995e-05
9.1925635e-05
8.9719917e-05
8.7964107e-05
8.6368618e-05
8.5417412e-05
8.3480696e-05
2.8043071e-13
8.8121008e-12
7.2059297e-11
3.0989763e-10
9.5363221e-10
2.4063998e-09
5.3360835e-09
1.0814215e-08
2.0521108e-08
3.7046493e-08
6.4327419e-08
1.0828268e-07
1.7772738e-07
2.8568486e-07
4.5125904e-07
7.0229235e-07
1.0791154e-06
1.6397995e-06
2.4674485e-06
3.6802127e-06
5.4448404e-06
7.9946715e-06
1.1652898e-05
1.6861505e-05
2.4215233e-05
3.4497626e-05
4.87121e-05
6.809392e-05
9.4078417e-05
0.00012818669
0.00017177641
0.00022560312
0.00028916405
0.00035986615
0.00043220069
0.00049727245
0.00054297499
0.00055492891
0.00052367033
0.000434714
0.00030593882
0.00019943124
0.00013232678
0.00010069761
8.7166093e-05
8.7954257e-05
9.3504784e-05
0.00010515294
0.00011897466
0.0001219106
0.00012184872
0.00012014321
0.00011456151
0.00010863196
0.0001053565
0.00010170151
9.8343702e-05
9.5457616e-05
9.2778866e-05
9.0256217e-05
8.8406288e-05
8.6882014e-05
8.5278772e-05
8.4254414e-05
8.243461e-05
1.9993932e-13
6.2827813e-12
5.1376172e-11
2.2094658e-10
6.7989826e-10
1.7156184e-09
3.804177e-09
7.7092636e-09
1.4628244e-08
2.6406098e-08
4.584684e-08
7.7164265e-08
1.2663093e-07
2.0350751e-07
3.2136615e-07
4.9996311e-07
7.6786961e-07
1.1661355e-06
1.7533356e-06
2.6124239e-06
3.8598684e-06
5.6575162e-06
8.2274442e-06
1.1869529e-05
1.6980352e-05
2.4069983e-05
3.3769641e-05
4.6817871e-05
6.4005605e-05
8.6052197e-05
0.00011338209
0.00014578547
0.00018195223
0.00021900529
0.00025214274
0.00027461638
0.0002780946
0.00025878956
0.00020970776
0.00015132911
0.00010719281
8.1475015e-05
6.9514077e-05
6.9089825e-05
7.4096797e-05
8.6050659e-05
0.0001081952
0.0001202938
0.00012357644
0.0001233937
0.00012174453
0.00011626277
0.00010990589
0.00010659621
0.00010290291
9.972586e-05
9.6674966e-05
9.3761668e-05
9.1188118e-05
8.9252547e-05
8.7361352e-05
8.5748633e-05
8.4228674e-05
8.3137977e-05
8.1594299e-05
1.3116821e-13
4.1217543e-12
3.3704711e-11
1.44948e-10
4.4602645e-10
1.1254432e-09
2.4954177e-09
5.0567015e-09
9.5942049e-09
1.7316959e-08
3.0061625e-08
5.0586646e-08
8.2994924e-08
1.3333754e-07
2.1047043e-07
3.2726089e-07
5.0227184e-07
7.6208682e-07
1.1444747e-06
1.7026165e-06
2.5106077e-06
3.6703603e-06
5.3197879e-06
7.6416386e-06
1.0871367e-05
1.530078e-05
2.1271636e-05
2.9149803e-05
3.9266873e-05
5.1814974e-05
6.6681376e-05
8.3228677e-05
0.0001000574
0.00011482681
0.00012423386
0.00012423613
0.00011393493
9.3411146e-05
7.283321e-05
5.8170592e-05
5.0094394e-05
5.0046385e-05
5.3976893e-05
6.4101069e-05
8.5335866e-05
0.00011082544
0.00012193981
0.00012512309
0.00012494836
0.00012337287
0.00011800891
0.00011133469
0.00010778101
0.00010416236
0.00010102841
9.7911429e-05
9.4879762e-05
9.2302751e-05
9.0135732e-05
8.7951739e-05
8.6230785e-05
8.479835e-05
8.3364868e-05
8.2387634e-05
8.0913608e-05
7.7292352e-14
2.4287881e-12
1.986077e-11
8.5410612e-11
2.6281392e-10
6.6311951e-10
1.4702211e-09
2.9789725e-09
5.6513712e-09
1.0198691e-08
1.7700711e-08
2.977768e-08
4.8836698e-08
7.8422276e-08
1.237112e-07
1.9220462e-07
2.9468513e-07
4.46521e-07
6.6941001e-07
9.9365042e-07
1.4609897e-06
2.1279986e-06
3.0697e-06
4.3827689e-06
6.186916e-06
8.6219838e-06
1.1836795e-05
1.5964244e-05
2.1076236e-05
2.7113932e-05
3.3795159e-05
4.05154e-05
4.6275239e-05
4.9674729e-05
4.9333205e-05
4.5606079e-05
4.0164163e-05
3.5373096e-05
3.2260487e-05
3.3059154e-05
3.6358295e-05
4.4323631e-05
5.9766242e-05
8.6607727e-05
0.00011049061
0.00012238345
0.00012667426
0.00012656922
0.00012508476
0.0001199502
0.00011283948
0.00010911919
0.00010533224
0.00010232369
9.9119477e-05
9.6170305e-05
9.3468484e-05
9.107077e-05
8.8750593e-05
8.7015851e-05
8.5380805e-05
8.3920467e-05
8.2549256e-05
8.138592e-05
8.0132524e-05
4.0054648e-14
1.2586513e-12
1.0292214e-11
4.4260491e-11
1.3618719e-10
3.435997e-10
7.6173473e-10
1.5432338e-09
2.9271379e-09
5.2811992e-09
9.1631633e-09
1.540888e-08
2.5258025e-08
4.0531998e-08
6.3883196e-08
9.9140196e-08
1.5177865e-07
2.2955121e-07
3.433078e-07
5.0802381e-07
7.4401549e-07
1.0782412e-06
1.5454353e-06
2.1885633e-06
3.0576909e-06
4.2058465e-06
5.6798485e-06
7.5039332e-06
9.6547448e-06
1.2029032e-05
1.4410792e-05
1.6452235e-05
1.7711031e-05
1.8077402e-05
1.7939624e-05
1.7722001e-05
1.8095301e-05
1.9781658e-05
2.2522725e-05
2.8946825e-05
4.0280448e-05
5.9519853e-05
8.6396883e-05
0.00010903504
0.00012182561
0.0001277905
0.00012825715
0.00012688772
0.00012204244
0.00011451249
0.00011052952
0.00010660899
0.00010348657
0.00010041883
9.7440596e-05
9.4693731e-05
9.2043456e-05
8.9739967e-05
8.786873e-05
8.6004348e-05
8.4429658e-05
8.307991e-05
8.1736537e-05
8.085029e-05
7.9735765e-05
1.8135316e-14
5.698714e-13
4.6598964e-12
2.0038856e-11
6.1655577e-11
1.5554478e-10
3.4479175e-10
6.9841743e-10
1.3244366e-09
2.3888713e-09
4.1432061e-09
6.9637064e-09
1.1407223e-08
1.82896e-08
2.8794503e-08
4.4622214e-08
6.8189103e-08
1.0288804e-07
1.5341584e-07
2.2616241e-07
3.2963158e-07
4.7481779e-07
6.7538548e-07
9.4738264e-07
1.3080638e-06
1.7732763e-06
2.3528255e-06
3.043611e-06
3.8214344e-06
4.6344338e-06
5.4045055e-06
6.0985411e-06
6.8195541e-06
7.6911401e-06
8.8938591e-06
1.0414565e-05
1.3182392e-05
1.8007046e-05
2.642961e-05
4.0009829e-05
5.9536249e-05
8.379979e-05
0.00010563358
0.00012105102
0.00012888518
0.00012992458
0.00012872022
0.00012432315
0.00011632186
0.00011209964
0.00010793906
0.00010472676
0.00010160098
9.8789917e-05
9.5880485e-05
9.322527e-05
9.0811774e-05
8.8791224e-05
8.6742581e-05
8.5160072e-05
8.3682788e-05
8.2399553e-05
8.1147775e-05
8.0151779e-05
7.9081194e-05
7.5724071e-15
2.3794957e-13
1.9457206e-12
8.3669655e-12
2.5742516e-11
6.4939347e-11
1.4393637e-10
2.9152345e-10
5.5273018e-10
9.9671562e-10
1.7281329e-09
2.9033512e-09
4.7533839e-09
7.6159253e-09
1.1979505e-08
1.8543304e-08
2.8296383e-08
4.2619514e-08
6.3410573e-08
9.3229353e-08
1.3544785e-07
1.9437582e-07
2.7530769e-07
3.844125e-07
5.2837498e-07
7.1374289e-07
9.4611925e-07
1.2298e-06
1.5694185e-06
1.9762908e-06
2.4762359e-06
3.1133266e-06
4.046822e-06
5.452321e-06
7.6253055e-06
1.1078094e-05
1.7012258e-05
2.6342356e-05
3.9819138e-05
5.7991003e-05
8.0197376e-05
0.00010251072
0.00012128889
0.00013015472
0.0001316302
0.00013057175
0.00012675225
0.00011833224
0.00011380172
0.00010941482
0.00010600247
0.00010283038
0.00010000423
9.7215422e-05
9.4420808e-05
9.200559e-05
8.9690278e-05
8.76624e-05
8.5959612e-05
8.4353912e-05
8.2938954e-05
8.1665938e-05
8.0453733e-05
7.957407e-05
7.86958e-05
3.7407148e-15
1.1754542e-13
9.611752e-13
4.1332939e-12
1.271729e-11
3.2083236e-11
7.1118109e-11
1.4405792e-10
2.7317954e-10
4.9271876e-10
8.545265e-10
1.4361682e-09
2.3524242e-09
3.7714689e-09
5.9373963e-09
9.2012043e-09
1.4062813e-08
2.1227105e-08
3.1677225e-08
4.6768441e-08
6.8345831e-08
9.8889941e-08
1.4169906e-07
2.0113157e-07
2.8297115e-07
3.9505531e-07
5.4855677e-07
7.6054903e-07
1.0590843e-06
1.4887994e-06
2.1235903e-06
3.0906052e-06
4.6255922e-06
7.0866594e-06
1.1002012e-05
1.7145595e-05
2.6203652e-05
3.8862367e-05
5.5936554e-05
7.737418e-05
0.00010045317
0.00012124323
0.00013136435
0.00013339146
0.0001324642
0.0001290556
0.00012061421
0.00011570787
0.00011100394
0.00010741007
0.00010407196
0.00010124012
9.8455103e-05
9.5786119e-05
9.3145734e-05
9.0794673e-05
8.8628998e-05
8.6846561e-05
8.5054392e-05
8.3609551e-05
8.2253931e-05
8.1095344e-05
7.9956998e-05
7.91762e-05
7.8304554e-05
3.2590234e-15
1.0240946e-13
8.3742316e-13
3.6013265e-12
1.1081792e-11
2.7962444e-11
6.2000868e-11
1.2563851e-10
2.3837492e-10
4.302412e-10
7.4684887e-10
1.2566871e-09
2.0616153e-09
3.3118774e-09
5.2274943e-09
8.1286282e-09
1.2478558e-08
1.8944423e-08
2.8483214e-08
4.2464165e-08
6.2845136e-08
9.243228e-08
1.3527534e-07
1.972978e-07
2.8730108e-07
4.1853636e-07
6.1149546e-07
8.985993e-07
1.332079e-06
1.9965776e-06
3.0284398e-06
4.64295e-06
7.1675089e-06
1.1087202e-05
1.7039837e-05
2.5700854e-05
3.7829333e-05
5.4303473e-05
7.5334072e-05
9.8668027e-05
0.00012005614
0.00013232549
0.0001351722