/*--------------------------------*- C++ -*----------------------------------*\
  =========                 |
  \\      /  F ield         | OpenFOAM: The Open Source CFD Toolbox
   \\    /   O peration     | Website:  https://openfoam.org
    \\  /    A nd           | Version:  13
     \\/     M anipulation  |
\*---------------------------------------------------------------------------*/
FoamFile
{
    format      ascii;
    class       volVectorField;
    location    "41.903174";
    object      wallShearStress;
}
// * * * * * * * * * * * * * * * * * * * * * * * * * * * * * * * * * * * * * //

dimensions      [0 2 -2 0 0 0 0];

internalField   uniform (0 0 0);

boundaryField
{
    inlet
    {
        type            calculated;
        value           uniform (0 0 0);
    }
    outlet
    {
        type            calculated;
        value           uniform (0 0 0);
    }
    cylinder
    {
        type            calculated;
        value           nonuniform List<vector> 
132
(
(-2.1853191e-05 0.0018773504 -2.9243949e-22)
(-6.1116256e-05 0.0015815645 8.3285567e-23)
(-8.3829589e-05 0.0012702999 4.597014e-21)
(-8.8565587e-05 0.00094693336 -1.5415447e-20)
(-7.4434169e-05 0.00061718174 1.0872087e-20)
(-4.0995581e-05 0.00028631985 3.3188852e-20)
(1.1317307e-05 -3.974315e-05 -6.2824578e-21)
(8.1537811e-05 -0.00035518393 -2.4868452e-20)
(0.00016844824 -0.00065375232 2.3423852e-20)
(0.00026947195 -0.00092961203 -5.2496149e-20)
(0.00038160072 -0.001177442 -9.5513493e-22)
(0.00050140344 -0.0013926981 3.2614795e-20)
(0.00062511878 -0.0015718987 5.3218152e-20)
(0.00074882508 -0.0017128385 -4.3264796e-20)
(0.00086880326 -0.0018149326 4.5609938e-20)
(0.00098176229 -0.0018791431 7.3516428e-20)
(0.0010854004 -0.0019084737 -4.8253939e-20)
(0.0011784548 -0.0019073212 7.7545873e-20)
(0.0012616657 -0.0018823763 1.0272677e-19)
(0.0013373256 -0.0018410481 -6.6764836e-20)
(0.0014106736 -0.0017927487 -8.5257934e-20)
(0.0014893184 -0.0017471729 3.0060056e-23)
(0.0015831012 -0.0017135313 1.2411818e-20)
(0.0017042931 -0.0017003206 -1.4884333e-20)
(0.0018649029 -0.001712355 -2.5358482e-20)
(0.0020753797 -0.0017502246 5.4305303e-21)
(0.0023406465 -0.0018080719 -4.908546e-20)
(0.0026598545 -0.001875465 1.3125852e-20)
(0.003018287 -0.0019339869 1.0313428e-20)
(0.0033886177 -0.0019619125 -7.1056714e-20)
(0.0037468943 -0.0019459145 9.2734512e-20)
(0.0040593297 -0.0018735249 2.806756e-21)
(0.0042739789 -0.0017321163 2.0232512e-20)
(0.004311462 -0.0015103383 -2.3973163e-20)
(0.0040571376 -0.0012029128 7.6152228e-20)
(0.0033511842 -0.00081740394 -4.8128854e-21)
(0.0020140149 -0.00039115455 1.9386202e-20)
(-0.0001766749 5.5776576e-06 -2.6551873e-21)
(-0.0034143862 0.00025391223 3.7937295e-21)
(-0.0078263643 0.00017655257 -2.3529699e-21)
(-0.013793133 -0.0004566186 4.3598004e-21)
(-0.021189121 -0.0019666588 -1.331527e-22)
(-0.029331728 -0.0045099875 4.8311222e-20)
(-0.037767859 -0.0081556629 -1.8422114e-20)
(-0.045919869 -0.012850891 1.6462567e-20)
(-0.053324411 -0.018451843 -1.0485723e-19)
(-0.059546911 -0.024714055 -1.6794666e-20)
(-0.064335797 -0.03136876 1.4670728e-19)
(-0.067505208 -0.038109925 -1.2473638e-19)
(-0.069022199 -0.044655306 -2.3799713e-21)
(-0.068886991 -0.050708528 3.8051494e-20)
(-0.06725345 -0.056059957 -3.4933252e-20)
(-0.0642034 -0.060437757 -6.96582e-21)
(-0.059975281 -0.063702707 -4.6180067e-21)
(-0.054822061 -0.065759273 -8.2194583e-21)
(-0.048907315 -0.066431192 -1.1635055e-21)
(-0.042524817 -0.065721267 5.2465418e-22)
(-0.035904866 -0.063592683 4.582734e-20)
(-0.029295029 -0.06007739 -7.199898e-20)
(-0.022926935 -0.055236454 -7.7923934e-20)
(-0.017016575 -0.049165578 -3.1893747e-20)
(-0.011759934 -0.041993752 -7.3501571e-20)
(-0.0073274214 -0.033876434 1.6455974e-20)
(-0.0038586762 -0.024994784 2.3999014e-20)
(-0.0014675955 -0.015561323 -3.7354765e-20)
(-0.00021613028 -0.0057588783 -4.9944008e-21)
(3.2795124e-05 0.0021560916 -1.3444003e-21)
(0.00010221708 0.0024185383 -7.9993425e-23)
(0.00018658192 0.0026624107 -4.5848352e-21)
(0.00028407472 0.0028828464 1.5341398e-20)
(0.00039272605 0.003075428 -1.0802217e-20)
(0.00051006588 0.0032360574 -3.2916034e-20)
(0.0006331859 0.0033612432 6.2182539e-21)
(0.00075877305 0.0034483081 2.4558883e-20)
(0.000883362 0.0034954151 -2.3074603e-20)
(0.001003404 0.0035019784 5.1571322e-20)
(0.0011153572 0.0034683724 9.3555067e-22)
(0.0012160868 0.003396657 -3.1840509e-20)
(0.001302812 0.0032897541 -5.1776194e-20)
(0.0013736977 0.0031524502 4.1940743e-20)
(0.0014277507 0.0029904181 -4.4050268e-20)
(0.0014652073 0.0028105041 -7.0735939e-20)
(0.001487886 0.002620801 4.6256074e-20)
(0.0014990077 0.0024296687 -7.4065569e-20)
(0.0015037899 0.0022462637 -9.7777723e-20)
(0.0015093534 0.0020797678 6.3343945e-20)
(0.001525043 0.0019393473 8.0654265e-20)
(0.0015627801 0.0018340323 7.2171961e-20)
(0.0016364384 0.0017714345 5.9255339e-20)
(0.0017616696 0.0017573023 1.399014e-20)
(0.0019527586 0.0017924512 2.3805368e-20)
(0.0022185296 0.0018702088 -5.0940985e-21)
(0.0025600406 0.0019768265 4.6033504e-20)
(0.0029635262 0.0020890502 -1.2312833e-20)
(0.0033998422 0.0021782131 -9.6814398e-21)
(0.0038278217 0.002216259 6.6775804e-20)
(0.0042093627 0.0021864134 -8.7270286e-20)
(0.0045139557 0.0020837951 -2.6304032e-21)
(0.0046952935 0.0019033881 4.3482785e-20)
(0.0046634934 0.0016343145 2.2707829e-20)
(0.004291633 0.0012733251 -7.2375398e-20)
(0.0034067814 0.0008323559 4.5930181e-21)
(0.0018195577 0.00035649713 1.3556992e-20)
(-0.00069740342 -7.3367067e-05 2.5598025e-21)
(-0.0043399119 -0.00032647705 -3.677894e-21)
(-0.0091870913 -0.00021106717 2.2937995e-21)
(-0.015621652 0.00051461911 -4.2722604e-21)
(-0.02345156 0.0021743213 3.455108e-20)
(-0.03191121 0.0049041388 -4.7660529e-20)
(-0.040545063 0.0087528089 1.8193968e-20)
(-0.048752855 0.01364126 -1.6253138e-20)
(-0.056082288 0.019403672 1.0335271e-19)
(-0.06213018 0.025783132 1.6506089e-20)
(-0.066670769 0.032504219 -1.4359835e-19)
(-0.069541533 0.039256596 1.2142389e-19)
(-0.07074147 0.045764774 2.2999894e-21)
(-0.070272775 0.051725851 -3.6399063e-20)
(-0.068333701 0.056957751 3.2936205e-20)
(-0.064973463 0.061159793 -5.1591667e-20)
(-0.060469171 0.064224712 4.0346782e-21)
(-0.05509625 0.066085442 -8.2083474e-21)
(-0.048975599 0.066521014 3.2088859e-21)
(-0.042434658 0.065578823 -6.3401052e-22)
(-0.035693423 0.063214715 -5.0751199e-20)
(-0.029001349 0.059471123 7.7039885e-20)
(-0.022588093 0.054415269 8.1805844e-20)
(-0.016666519 0.048147977 3.3064824e-20)
(-0.011429258 0.040804356 7.5500853e-20)
(-0.0070419811 0.032543502 -1.6780042e-20)
(-0.0036392531 0.02355157 4.8233413e-20)
(-0.0013293079 0.014038363 3.7644452e-20)
(-0.00017043017 0.0042089694 5.0100138e-21)
)
;
    }
    frontAndBack
    {
        type            empty;
    }
}


// ************************************************************************* //
