/*--------------------------------*- C++ -*----------------------------------*\
  =========                 |
  \\      /  F ield         | OpenFOAM: The Open Source CFD Toolbox
   \\    /   O peration     | Website:  https://openfoam.org
    \\  /    A nd           | Version:  13
     \\/     M anipulation  |
\*---------------------------------------------------------------------------*/
FoamFile
{
    format      ascii;
    class       volScalarField;
    location    "954";
    object      p;
}
// * * * * * * * * * * * * * * * * * * * * * * * * * * * * * * * * * * * * * //

dimensions      [0 2 -2 0 0 0 0];

internalField   nonuniform List<scalar> 
2694
(
-1.4353222
-1.4352417
-1.4351758
-1.4350811
-1.4349591
-1.4348046
-1.4346069
-1.4343529
-1.4340253
-1.4336022
-1.4330564
-1.4323555
-1.4314646
-1.430351
-1.4289952
-1.4274078
-1.4256513
-1.42386
-1.4222406
-1.4210626
-1.420693
-1.4207364
-1.4200932
-1.4190708
-1.4189609
-1.4200326
-1.4221591
-1.4255799
-1.4303466
-1.4360878
-1.4405658
-1.440645
-1.4300853
-1.4053136
-1.3567361
-1.2926412
-1.2011465
-1.1071146
-0.9875675
-1.3668752
-1.366947
-1.3669862
-1.3670404
-1.3671246
-1.3672488
-1.3674304
-1.367694
-1.3680734
-1.3686145
-1.3693787
-1.3704449
-1.3719106
-1.373887
-1.3764879
-1.3798061
-1.3838817
-1.3886639
-1.3939776
-1.3995644
-1.4051935
-1.4106768
-1.4153279
-1.418659
-1.4213477
-1.4241497
-1.4275805
-1.4322617
-1.4383998
-1.4452886
-1.4498181
-1.4477273
-1.4321459
-1.3998038
-1.341989
-1.2693185
-1.16869
-1.0724437
-0.94401687
-1.3938186
-1.3939004
-1.393988
-1.3940932
-1.394219
-1.3943699
-1.3945509
-1.3947676
-1.395027
-1.3953375
-1.3957094
-1.3961557
-1.3966938
-1.3973485
-1.3981569
-1.3991738
-1.4004869
-1.4022489
-1.4046198
-1.4076474
-1.4113256
-1.4156681
-1.4205247
-1.4256304
-1.4310203
-1.4370383
-1.4442264
-1.4530878
-1.4631284
-1.471887
-1.4739756
-1.4626908
-1.4303159
-1.375382
-1.2929816
-1.1978647
-1.0771426
-0.97323116
-0.82985477
-1.4151702
-1.4152696
-1.4153752
-1.4155028
-1.4156558
-1.4158393
-1.4160592
-1.4163228
-1.4166387
-1.4170172
-1.4174705
-1.4180131
-1.418662
-1.4194373
-1.4203631
-1.421469
-1.4227929
-1.424393
-1.4263612
-1.4288073
-1.4318546
-1.4356717
-1.4404505
-1.4463961
-1.4538182
-1.4632034
-1.4750571
-1.4891249
-1.5028244
-1.5104499
-1.5031788
-1.472303
-1.4115621
-1.3234277
-1.2089899
-1.0869676
-0.94623731
-0.83459791
-0.67990412
-1.4351019
-1.4352302
-1.4353668
-1.4355324
-1.4357312
-1.4359699
-1.4362566
-1.436601
-1.4370148
-1.4375123
-1.4381107
-1.4388308
-1.4396983
-1.4407442
-1.4420066
-1.4435327
-1.4453807
-1.4476233
-1.4503541
-1.4536963
-1.4578166
-1.4629511
-1.4694426
-1.4777972
-1.4887306
-1.5030225
-1.5207469
-1.5396091
-1.5533109
-1.551574
-1.5226449
-1.4587471
-1.358728
-1.2312875
-1.0843789
-0.93886287
-0.78573992
-0.67153643
-0.51547924
-1.4566661
-1.4568402
-1.4570263
-1.4572519
-1.4575231
-1.457849
-1.4582408
-1.4587121
-1.4592794
-1.4599627
-1.4607865
-1.4617806
-1.4629819
-1.4644358
-1.4661988
-1.4683416
-1.4709536
-1.4741489
-1.4780751
-1.4829271
-1.4889692
-1.4965772
-1.5063122
-1.5190052
-1.5356696
-1.5567889
-1.5804904
-1.6003825
-1.6047286
-1.579186
-1.512664
-1.4030904
-1.257938
-1.0931018
-0.92185679
-0.76392273
-0.61127008
-0.50323742
-0.35885344
-1.4814775
-1.4817154
-1.4819709
-1.4822806
-1.482653
-1.4831008
-1.4836396
-1.4842883
-1.48507
-1.4860128
-1.4871511
-1.4885273
-1.490194
-1.4922164
-1.4946762
-1.497677
-1.5013509
-1.5058691
-1.5114574
-1.5184205
-1.5271861
-1.5383816
-1.5529305
-1.572012
-1.59642
-1.6247351
-1.6505986
-1.6612185
-1.6397637
-1.5718937
-1.45312
-1.2918264
-1.1054504
-0.91504933
-0.73509594
-0.580485
-0.44238404
-0.34929117
-0.22747092
-1.5106496
-1.5109715
-1.5113195
-1.511741
-1.512248
-1.512858
-1.5135925
-1.5144775
-1.5155448
-1.5168334
-1.5183913
-1.5202778
-1.5225666
-1.5253502
-1.5287451
-1.5329004
-1.5380086
-1.5443231
-1.5521852
-1.5620713
-1.5746752
-1.5910139
-1.6124148
-1.6399323
-1.6725161
-1.703964
-1.7207126
-1.703589
-1.6350487
-1.5080336
-1.3307309
-1.1237638
-0.91169219
-0.71549885
-0.54592097
-0.40997292
-0.29692272
-0.22415139
-0.12964303
-1.5451601
-1.5455902
-1.5460588
-1.546626
-1.5473085
-1.5481302
-1.5491201
-1.5503138
-1.5517547
-1.5534963
-1.5556047
-1.558162
-1.5612708
-1.5650609
-1.5696974
-1.5753937
-1.5824302
-1.5911837
-1.6021794
-1.6161772
-1.6342851
-1.6579591
-1.6884527
-1.7249981
-1.7614767
-1.7836972
-1.770632
-1.7015895
-1.5667881
-1.3740806
-1.1466771
-0.91359231
-0.69981069
-0.51981663
-0.37688716
-0.26941398
-0.18522399
-0.13314814
-0.06394489
-1.5860346
-1.5866034
-1.5872285
-1.5879851
-1.5888959
-1.589993
-1.5913157
-1.592912
-1.5948411
-1.5971757
-1.6000065
-1.6034467
-1.6076391
-1.6127655
-1.6190607
-1.6268332
-1.6364979
-1.6486321
-1.6640677
-1.6840087
-1.710027
-1.7435072
-1.7838237
-1.8247847
-1.8515598
-1.8414947
-1.7712626
-1.628489
-1.4205967
-1.1732282
-0.91971956
-0.68907387
-0.49826257
-0.35139351
-0.24318075
-0.16607151
-0.1078181
-0.072580767
-0.022777036
-1.6344981
-1.6352451
-1.6360743
-1.6370784
-1.6382877
-1.6397456
-1.6415048
-1.6436303
-1.6462024
-1.6493206
-1.6531094
-1.6577257
-1.6633696
-1.6702995
-1.6788553
-1.6894955
-1.7028588
-1.7198622
-1.7418142
-1.7703985
-1.8070547
-1.8511023
-1.8960121
-1.9261163
-1.9172973
-1.8440969
-1.6921186
-1.468527
-1.2014431
-0.92846578
-0.68207332
-0.48147309
-0.33056271
-0.2232999
-0.14862922
-0.096888397
-0.057853701
-0.03398208
0.0026594383
-1.6920589
-1.6930387
-1.6941389
-1.6954728
-1.6970802
-1.6990199
-1.7013635
-1.7041994
-1.7076373
-1.7118147
-1.7169048
-1.7231288
-1.7307732
-1.740216
-1.7519694
-1.7667493
-1.785579
-1.8098901
-1.8414462
-1.881683
-1.9296087
-1.977879
-2.0096572
-1.9994375
-1.9201954
-1.7564012
-1.5157241
-1.2288494
-0.93718375
-0.67678725
-0.46793226
-0.31401831
-0.20746404
-0.13582761
-0.087111552
-0.052881033
-0.026109583
-0.0089455551
0.019029625
-1.7608981
-1.7621871
-1.7636534
-1.7654362
-1.7675866
-1.7701848
-1.7733293
-1.7771421
-1.7817762
-1.7874252
-1.7943368
-1.8028334
-1.8133433
-1.8264503
-1.8429729
-1.864071
-1.8913213
-1.9265429
-1.9709025
-2.0227938
-2.0737383
-2.1049793
-2.0894549
-1.9994165
-1.8195412
-1.5591686
-1.2520437
-0.94309606
-0.67068979
-0.45569261
-0.30036971
-0.19503526
-0.12593394
-0.080179931
-0.04827632
-0.02455598
-0.0050094028
0.0083242862
0.030203666
-1.8438485
-1.8455582
-1.8475335
-1.8499447
-1.8528579
-1.856385
-1.8606645
-1.8658706
-1.872224
-1.8800093
-1.8895997
-1.9014951
-1.9163821
-1.9352202
-1.9593416
-1.9904748
-2.0304027
-2.0797928
-2.1356879
-2.1877204
-2.2149178
-2.1885607
-2.0808348
-1.8786428
-1.5947244
-1.2665341
-0.9421746
-0.66091827
-0.44283444
-0.28811979
-0.18503227
-0.11839081
-0.0749472
-0.045081331
-0.022839859
-0.0051016111
0.010079526
0.0209845
0.038136785
-1.9450396
-1.9473588
-1.9500886
-1.9534396
-1.9574992
-1.9624294
-1.9684355
-1.9757791
-1.9847997
-1.9959471
-2.0098291
-2.0272824
-2.0494595
-2.0778886
-2.1143746
-2.1604869
-2.2158776
-2.2753544
-2.3253682
-2.3424033
-2.2967369
-2.1617081
-1.9287259
-1.6164108
-1.2666811
-0.92947973
-0.64400428
-0.42712801
-0.27593499
-0.17648345
-0.11261245
-0.071044761
-0.042625055
-0.021616205
-0.004825423
0.0092759723
0.021511103
0.030596206
0.043862451
-2.0722926
-2.0755398
-2.0794478
-2.0842836
-2.0901681
-2.0973509
-2.1061584
-2.1170177
-2.1304993
-2.1473765
-2.1687
-2.1958625
-2.2305642
-2.2744582
-2.3281498
-2.3895164
-2.4503282
-2.4922947
-2.4890896
-2.41106
-2.2354172
-1.961082
-1.6150089
-1.2446638
-0.89994765
-0.61657991
-0.40632994
-0.26258665
-0.1686435
-0.10804591
-0.068169238
-0.040697923
-0.020514683
-0.0045487661
0.0088546772
0.020429641
0.030449497
0.038006745
0.048033806
-2.2368271
-2.2415883
-2.2474809
-2.2548531
-2.2638972
-2.2750364
-2.2888462
-2.3060937
-2.3277989
-2.3552837
-2.3901391
-2.4339825
-2.4877705
-2.550221
-2.6154706
-2.6699494
-2.6913273
-2.6512101
-2.5216676
-2.288291
-1.9614987
-1.5780958
-1.1906936
-0.84724834
-0.57542407
-0.37921914
-0.24719892
-0.16096225
-0.10427936
-0.066009233
-0.039155563
-0.019413823
-0.0040483804
0.0086741666
0.01967988
0.02931186
0.037560376
0.043769915
0.051118178
-2.4598699
-2.4674051
-2.477052
-2.4893314
-2.5045892
-2.5236068
-2.5474377
-2.5773895
-2.6149551
-2.6615673
-2.7178839
-2.782588
-2.8505256
-2.9099613
-2.9412117
-2.9183989
-2.8136266
-2.6064658
-2.2963111
-1.9087246
-1.4906932
-1.0959188
-0.76655355
-0.51834401
-0.3452597
-0.22968866
-0.15305893
-0.10093165
-0.064260835
-0.037807442
-0.018242476
-0.0032310279
0.0089096083
0.019288093
0.028449836
0.03650827
0.04329216
0.048292098
0.053459983
-2.7853005
-2.7985052
-2.8160757
-2.8388688
-2.8674004
-2.9028404
-2.9464726
-2.9991905
-3.0607402
-3.1289663
-3.1978773
-3.2550751
-3.2816272
-3.2535726
-3.1449503
-2.9353749
-2.6204448
-2.2189946
-1.7725463
-1.3352243
-0.95562104
-0.65932452
-0.44755891
-0.30551143
-0.21053139
-0.14485035
-0.097530647
-0.062516769
-0.036401544
-0.016879084
-0.0020465967
0.0096645854
0.019434461
0.028007052
0.035684519
0.042428661
0.047973327
0.05188708
0.055311979
-3.2997477
-3.3258072
-3.3612146
-3.4065392
-3.4608187
-3.5232683
-3.5918986
-3.6619583
-3.7241009
-3.7638828
-3.7621509
-3.6962794
-3.5437961
-3.2889851
-2.9308145
-2.4888791
-2.0028807
-1.524812
-1.1042777
-0.77151371
-0.53173395
-0.37064131
-0.26412677
-0.19063499
-0.1359767
-0.093399465
-0.060129809
-0.034536726
-0.015122152
-0.0004033355
0.011004747
0.020256067
0.028195378
0.035315715
0.041755202
0.04737527
0.051854019
0.054797508
0.056838747
-4.2359718
-4.280769
-4.3387727
-4.4045595
-4.4680754
-4.5182589
-4.5414046
-4.5206217
-4.4367478
-4.2708369
-4.0082613
-3.6439685
-3.1877033
-2.6666465
-2.1226792
-1.6056441
-1.1605844
-0.81311468
-0.56575992
-0.40259036
-0.29741135
-0.22538528
-0.17041234
-0.12510053
-0.087148131
-0.056116873
-0.031573085
-0.012617175
0.0018789094
0.013032631
0.021859152
0.029199959
0.035660836
0.041564264
0.04693888
0.051579304
0.055128115
0.057199293
0.058107201
-5.9610312
-5.9547586
-5.9276834
-5.8608642
-5.7361746
-5.5370698
-5.2504295
-4.8691554
-4.3950964
-3.8416695
-3.2348479
-2.6114254
-2.014591
-1.4861994
-1.0565545
-0.73685132
-0.51937513
-0.38200585
-0.29611812
-0.23713062
-0.18980832
-0.14766154
-0.10968056
-0.07666129
-0.049033906
-0.026587552
-0.0087587536
0.0051714497
0.015970715
0.024404054
0.031199033
0.036978822
0.042186749
0.047030149
0.051463453
0.055235745
0.0579648
0.059261395
0.059280359
-7.807601
-7.5056413
-7.0602256
-6.479248
-5.801331
-5.0597893
-4.2870504
-3.5166133
-2.7827171
-2.1182279
-1.5505415
-1.0965343
-0.75980823
-0.53047009
-0.38735874
-0.30336551
-0.2524038
-0.21523805
-0.18132488
-0.14744896
-0.11468943
-0.08492325
-0.058948383
-0.036734295
-0.017968796
-0.0023703479
0.01030071
0.020360842
0.028243362
0.034461684
0.03954712
0.043970009
0.048058196
0.051938619
0.055514536
0.058504748
0.060516143
0.06119669
0.060832467
-5.1443272
-4.7725671
-4.2420455
-3.5920707
-2.9000512
-2.2283933
-1.6241809
-1.1187571
-0.72782563
-0.45227031
-0.28002358
-0.18937395
-0.15367666
-0.14685674
-0.14793661
-0.14407416
-0.13097397
-0.11082117
-0.088337322
-0.067018721
-0.048153437
-0.031681821
-0.017001643
-0.0037424695
0.0080899839
0.018332174
0.026869689
0.033751707
0.039190678
0.043514826
0.047102984
0.05030764
0.053370591
0.056362597
0.059152663
0.061441678
0.062837422
0.063035903
0.06245336
5.3092377
4.918229
4.3587006
3.670534
2.9342035
2.2153037
1.5644216
1.0165545
0.59075598
0.29050735
0.10508854
0.01268716
-0.014853135
-0.006593742
0.01289049
0.027642515
0.031633405
0.026907534
0.019427143
0.014374373
0.01370182
0.016700416
0.021815363
0.027669714
0.033437054
0.038728836
0.043331351
0.047152646
0.050218943
0.052680173
0.054769198
0.056731839
0.058736823
0.060812417
0.062803758
0.064400413
0.065203173
0.064842314
0.062737504
7.4909869
7.2463388
6.8811781
6.3958322
5.8149874
5.1597464
4.4523003
3.7185255
2.9886521
2.2959822
1.6738715
1.1506367
0.74358011
0.45550512
0.27436865
0.17658338
0.13311702
0.11684006
0.10870705
0.099223717
0.087067791
0.075391595
0.066998706
0.062342616
0.060447195
0.060188197
0.060642305
0.061286153
0.061874781
0.062370092
0.062860715
0.063489932
0.064357689
0.065457548
0.066616549
0.067517258
0.067756065
0.066959594
0.064594277
5.1440837
5.1680701
5.1887722
5.1911052
5.1576891
5.0717584
4.917399
4.6810058
4.3538137
3.9349813
3.4346042
2.8754159
2.2920031
1.7271561
1.224928
0.81954365
0.52536013
0.33600933
0.2294472
0.1760061
0.14906696
0.13187411
0.11695347
0.10331532
0.092398311
0.084768797
0.079750439
0.07647631
0.074207789
0.072531885
0.071292812
0.070492882
0.070149001
0.070221041
0.070520583
0.070726569
0.070425001
0.069177778
0.066170811
3.4846861
3.5214489
3.5703096
3.6296027
3.6949494
3.7614749
3.8217602
3.8650621
3.8770217
3.8400645
3.7351351
3.5449827
3.2590894
2.8793662
2.4247
1.9306712
1.4444899
1.0152263
0.6778821
0.44230584
0.29677781
0.21634357
0.17310893
0.14753739
0.12950113
0.11517456
0.1038176
0.095347526
0.089124304
0.084512928
0.081044827
0.078484922
0.076694463
0.075567526
0.074885165
0.074320071
0.073451972
0.071814449
0.068526598
2.6615033
2.6783074
2.7008087
2.7298801
2.7657816
2.8093137
2.8609889
2.9204583
2.9859047
3.0524667
3.1103492
3.1446638
3.1361795
3.0629976
2.9048023
2.6499138
2.3032972
1.8913041
1.457454
1.0531428
0.72162874
0.48066835
0.32460391
0.23364035
0.18269639
0.15279406
0.13314664
0.11892626
0.10800946
0.099634902
0.093191022
0.088288999
0.084615585
0.081967971
0.080066106
0.078561199
0.077017221
0.074926374
0.071306968
2.2104505
2.2183284
2.2284402
2.2413406
2.2573922
2.277389
2.3023661
2.3335462
2.3722104
2.4193252
2.4748467
2.5371577
2.6011945
2.6555376
2.6823189
2.6592525
2.56288
2.3755857
2.0954453
1.7434576
1.3603639
0.99616143
0.69343178
0.47024132
0.32256842
0.23376758
0.18239379
0.15211527
0.13262366
0.11902435
0.10877528
0.10090142
0.094801935
0.090175387
0.086676249
0.083933303
0.081497507
0.078836599
0.074882897
1.9264389
1.9306794
1.9358897
1.9423973
1.9503789
1.9602087
1.9723895
1.9875839
2.0066611
2.0307297
2.0611211
2.0992552
2.1460725
2.200952
2.2608117
2.3172211
2.3534122
2.3469145
2.2739371
2.1156871
1.8696762
1.5567312
1.2165748
0.89562315
0.63098639
0.43599518
0.30564793
0.22567936
0.17784411
0.14910095
0.13051337
0.11767002
0.10815163
0.10093826
0.095381971
0.091018928
0.087377907
0.083923503
0.079512567
1.7337322
1.7362081
1.739144
1.7427655
1.7471675
1.7525351
1.7591074
1.7671946
1.7772071
1.7896949
1.8054009
1.8253175
1.8507093
1.8830227
1.9235325
1.9721449
2.0263764
2.078538
2.1119783
2.1042845
2.0326214
1.8806486
1.6501419
1.3649959
1.0638043
0.78649047
0.56220079
0.39781777
0.28670287
0.21682411
0.17340609
0.14632531
0.12851501
0.11621315
0.10726143
0.10048422
0.095105419
0.090497473
0.085422295
1.5954289
1.5969454
1.598692
1.6008321
1.6034214
1.6065615
1.6103796
1.6150365
1.6207387
1.6277552
1.6364433
1.6472862
1.660947
1.678333
1.7006414
1.7292854
1.7655619
1.8093398
1.8578341
1.902581
1.9259333
1.9062774
1.823712
1.6675408
1.4461968
1.186714
0.9245983
0.69052535
0.50435666
0.36780606
0.27372496
0.21212194
0.17205354
0.14583722
0.12814851
0.11574353
0.10662774
0.099591675
0.093057926
1.4928675
1.4938127
1.4948756
1.4961737
1.4977402
1.4996343
1.5019282
1.5047126
1.5081007
1.512237
1.517307
1.5235537
1.5313012
1.540992
1.5532412
1.5689053
1.5891286
1.6152386
1.6483509
1.6879269
1.7298599
1.7636947
1.771461
1.7338956
1.635897
1.4749974
1.2657627
1.0353205
0.8129356
0.61955523
0.46646525
0.35243741
0.27132201
0.21533112
0.17691105
0.15034
0.13153331
0.11793982
0.10705032
1.4157994
1.4163864
1.4170337
1.4178232
1.4187745
1.4199223
1.421309
1.422987
1.4250211
1.4274925
1.4305037
1.4341854
1.4387067
1.4442902
1.4512357
1.4599569
1.4710377
1.4852982
1.5038269
1.5277969
1.5578689
1.5923636
1.6254943
1.6448066
1.6334274
1.5764464
1.465735
1.3069343
1.1172874
0.92009979
0.73630245
0.57859528
0.4524201
0.3556743
0.28378366
0.23128718
0.19290725
0.16487618
0.14342052
1.357249
1.3576072
1.3579961
1.3584702
1.3590408
1.3597283
1.3605573
1.3615582
1.3627683
1.3642337
1.3660119
1.368175
1.3708145
1.3740477
1.3780274
1.3829566
1.3891119
1.3968815
1.4068203
1.4197085
1.4365332
1.4581213
1.4841297
1.5115204
1.532835
1.5347028
1.5038731
1.4317346
1.3172296
1.1704302
1.0074019
0.8452163
0.69689398
0.56933309
0.46507258
0.38232782
0.31767824
0.26800166
0.22907214
1.3124836
1.3126928
1.3129171
1.3131907
1.3135197
1.3139157
1.3143925
1.3149674
1.315661
1.316499
1.317513
1.3187422
1.3202357
1.3220553
1.32428
1.3270119
1.3303854
1.3345798
1.3398435
1.3465324
1.3551622
1.366427
1.3810448
1.3993655
1.4196719
1.437271
1.4439704
1.4289031
1.3835806
1.3052543
1.1981086
1.0722613
0.93988655
0.81163771
0.69509759
0.5937531
0.50847818
0.43842802
0.38069545
1.2786246
1.2787332
1.2788486
1.2789896
1.2791592
1.2793634
1.2796095
1.2799062
1.2802644
1.2806972
1.2812208
1.281855
1.2826245
1.28356
1.2847003
1.2860954
1.2878082
1.2899217
1.2925518
1.2958609
1.300083
1.3055596
1.3127646
1.3222756
1.3343777
1.3482608
1.3611413
1.3681106
1.3616081
1.3345551
1.2835053
1.209635
1.1184709
1.0176947
0.91523682
0.81692707
0.72665935
0.64639883
0.57644641
1.2557494
1.2557502
1.2557454
1.2557409
1.2557398
1.2557438
1.2557563
1.2557821
1.2558283
1.2559052
1.2560275
1.2562156
1.2564981
1.2569138
1.2575142
1.2583654
1.2595499
1.2611666
1.2633169
1.2660868
1.2695555
1.2737955
1.2788651
1.2848565
1.291928
1.3001918
1.309597
1.3185072
1.3229995
1.3185055
1.3005801
1.266389
1.2154752
1.1500843
1.07444
0.99303054
0.91025093
0.83023631
0.75702785
1.3214574
1.321421
1.3213711
1.3213005
1.3212142
1.3211097
1.3209821
1.320826
1.3206346
1.3203991
1.3201089
1.3197503
1.3193067
1.318758
1.3180804
1.3172475
1.3162322
1.3150114
1.3135734
1.3119284
1.3101225
1.3082503
1.3064635
1.3050255
1.3042001
1.3042124
1.305332
1.3066912
1.3067394
1.3037882
1.2945887
1.2750732
1.242056
1.1947046
1.1343531
1.0638049
0.98717991
0.91074395
0.84014515
-0.89754033
-0.810998
-0.73611449
-0.66458697
-0.60303797
-0.54681337
-0.49710994
-0.45229146
-0.41213701
-0.37611777
-0.34353721
-0.31462081
-0.28793934
-0.26519452
-0.24296524
-0.85582506
-0.77173336
-0.70094046
-0.6329705
-0.57470951
-0.52132859
-0.47414095
-0.43157385
-0.39341163
-0.35919655
-0.32819699
-0.30076944
-0.27528383
-0.25384273
-0.23220288
-0.75209123
-0.67415664
-0.61289217
-0.55328474
-0.50267274
-0.45619591
-0.41510825
-0.37805981
-0.34482303
-0.31507066
-0.28805827
-0.26432156
-0.241974
-0.22379161
-0.20404363
-0.61795942
-0.54849396
-0.49934725
-0.45007135
-0.4088283
-0.37092535
-0.33744734
-0.30731964
-0.28030481
-0.25620894
-0.23430168
-0.21528514
-0.19704773
-0.18309325
-0.16602431
-0.4723255
-0.41269616
-0.37672276
-0.33847992
-0.30700269
-0.27808255
-0.25257902
-0.22970828
-0.20923898
-0.19109705
-0.17459347
-0.16055961
-0.14674164
-0.13725194
-0.1232394
-0.33437728
-0.28472714
-0.26111998
-0.23320671
-0.21070905
-0.19003195
-0.17181854
-0.15556766
-0.14107212
-0.12835237
-0.11678545
-0.10727201
-0.097534345
-0.092035586
-0.081046918
-0.21868001
-0.17796619
-0.16441749
-0.14507427
-0.12986835
-0.11589684
-0.10358699
-0.092678819
-0.08299881
-0.07462891
-0.067028619
-0.061097468
-0.05466275
-0.052211312
-0.043888715
-0.13179827
-0.098277666
-0.091762962
-0.078764609
-0.068830737
-0.059744358
-0.051724143
-0.04468817
-0.038494634
-0.033251804
-0.028506338
-0.025091556
-0.021047472
-0.020573404
-0.014408388
-0.072218802
-0.044153884
-0.041877696
-0.033146659
-0.026668113
-0.020835959
-0.015681163
-0.011234307
-0.0073759958
-0.0042105198
-0.0013658856
0.00043709305
0.0028804648
0.0022764079
0.0067801213
-0.03360069
-0.009683847
-0.0096420899
-0.0036396911
0.00069570653
0.0044555688
0.0077624152
0.010527886
0.012859811
0.014678162
0.016285042
0.017092822
0.018486787
0.017395195
0.020634433
-0.0087727698
0.011816056
0.01079339
0.015015118
0.017992155
0.020394515
0.022460739
0.02408566
0.025374226
0.026279195
0.027044292
0.027211652
0.027886951
0.026610579
0.028873441
0.0077726462
0.025540898
0.024045561
0.027001152
0.029017638
0.030434113
0.031575916
0.032349984
0.032862317
0.033095994
0.033244045
0.03295886
0.033103425
0.031756659
0.033249536
0.019403449
0.034725397
0.033037825
0.034987048
0.036214711
0.036821985
0.037201994
0.037289803
0.037188873
0.036901497
0.036573101
0.035941281
0.035668839
0.03427447
0.035147387
0.027972964
0.041159575
0.039394823
0.040455585
0.040955839
0.040848474
0.040576181
0.040101711
0.039513954
0.038818997
0.038115748
0.037205549
0.03659063
0.035138239
0.035497711
0.034533194
0.045817719
0.04397645
0.044187329
0.043986273
0.04324676
0.042431117
0.041512652
0.040549221
0.039537334
0.038532741
0.037387628
0.036477059
0.034947744
0.034864402
0.03974346
0.049248733
0.047244419
0.046615677
0.045755365
0.044487902
0.043249634
0.041998525
0.040748998
0.039482613
0.038220586
0.036861578
0.035680096
0.034055274
0.033574038
0.044036803
0.051764494
0.049465929
0.048029823
0.046595939
0.044927725
0.043384369
0.041887537
0.040407745
0.03891622
0.037413073
0.035843839
0.034402668
0.032668859
0.031822178
0.047688434
0.053542309
0.050829728
0.048674586
0.04679349
0.044851545
0.043092799
0.04139784
0.039706425
0.037990798
0.036244906
0.034461502
0.032769066
0.030921635
0.029741369
0.050856694
0.054697285
0.051511652
0.048782888
0.046592431
0.044473555
0.042544863
0.040658939
0.038746166
0.036791877
0.034796805
0.032797753
0.030868207
0.028912995
0.027437074
0.053603869
0.055318358
0.051690978
0.048563927
0.046178375
0.043932036
0.041836014
0.039738307
0.037581493
0.035372226
0.033127394
0.030919855
0.028776806
0.026728898
0.025002163
0.055940127
0.05547449
0.051527191
0.048180731
0.045672523
0.04330409
0.041015063
0.038673221
0.036249818
0.033776336
0.031291824
0.028892523
0.026568237
0.024448446
0.022519464
0.05818276
0.055436207
0.051277009
0.047826454
0.045198886
0.042664391
0.040130467
0.03750372
0.034792915
0.032053412
0.029348521
0.026780689
0.024313023
0.022143777
0.020061381
0.061673441
0.056409712
0.051751304
0.047999963
0.045038305
0.042166405
0.039266763
0.03628278
0.033253814
0.030248614
0.02734862
0.024639958
0.022071507
0.019875911
0.017690142
0.066430021
0.05882287
0.053083201
0.048653162
0.045038647
0.041635635
0.038270445
0.034891868
0.031550285
0.028311438
0.025264547
0.022459103
0.019844837
0.017652971
0.015426165
-0.2249589
-0.20478971
-0.18819747
-0.17053581
-0.15433112
-0.13855033
-0.12354591
-0.10914894
-0.09532878
-0.081985711
-0.068927617
-0.056037545
-0.042517104
-0.028232294
-0.010533506
-0.21557352
-0.19656678
-0.18124015
-0.16465461
-0.14935692
-0.13438339
-0.12006139
-0.10625324
-0.092938495
-0.080031448
-0.067351975
-0.054793653
-0.041588558
-0.027620226
-0.010303915
-0.19149461
-0.17526271
-0.1629766
-0.14907626
-0.13604937
-0.12312485
-0.11056653
-0.098298849
-0.086324192
-0.074586475
-0.062936488
-0.051291227
-0.038965212
-0.025877954
-0.009643873
-0.15892777
-0.14624766
-0.13791806
-0.12757363
-0.11757498
-0.10739913
-0.097236345
-0.087077543
-0.07695364
-0.066843116
-0.056638791
-0.046286119
-0.035211638
-0.023371345
-0.0086873791
-0.12183331
-0.1128064
-0.10865419
-0.10219199
-0.095554427
-0.088476539
-0.081063725
-0.073360735
-0.065422826
-0.057258669
-0.048806547
-0.040039327
-0.030514705
-0.020216774
-0.0074756771
-0.084488092
-0.078588102
-0.078126111
-0.075288847
-0.071878305
-0.067858245
-0.06323412
-0.058078053
-0.052455499
-0.046391987
-0.039866077
-0.032870737
-0.025103227
-0.01656079
-0.0060631985
-0.050597637
-0.046917654
-0.049138564
-0.049187327
-0.048462092
-0.047103418
-0.045004931
-0.042233846
-0.038845966
-0.034864655
-0.030296558
-0.025142482
-0.019237544
-0.012573509
-0.0045148944
-0.022608696
-0.020181118
-0.023880971
-0.025817999
-0.026981006
-0.027635663
-0.027566006
-0.026807813
-0.025389184
-0.023312389
-0.020596859
-0.017236929
-0.013195478
-0.0084397941
-0.0029027209
-0.0014421638
0.00049124999
-0.0036155156
-0.0064499664
-0.0086490475
-0.010568403
-0.011905726
-0.012654625
-0.012807041
-0.012331884
-0.01124805
-0.0095309522
-0.0072555019
-0.0043485631
-0.0013014023
0.013282709
0.01515044
0.011367268
0.0084078247
0.0058978328
0.0034091907
0.0012895887
-0.00042050745
-0.0016822253
-0.0024301524
-0.0026758588
-0.0023690329
-0.0016785177
-0.00048103553
0.00021620522
0.022716974
0.024653516
0.021541299
0.018917402
0.0165864
0.014058472
0.011680747
0.0095067174
0.007588816
0.0060159191
0.0047819458
0.0039617057
0.003309944
0.0030011478
0.0015838481
0.028229277
0.030195074
0.027805406
0.02569069
0.023777446
0.021529568
0.019257397
0.017004612
0.014815265
0.012783125
0.010898413
0.0092512291
0.0075350089
0.0059669139
0.0027464629
0.031034002
0.032934087
0.031157174
0.029532726
0.028079669
0.026239158
0.024266659
0.02218136
0.020001001
0.017804821
0.015566979
0.013378262
0.010883234
0.0083245369
0.0036640945
0.032042777
0.033797615
0.032475518
0.031234052
0.03017054
0.028730343
0.027113196
0.025311214
0.023307713
0.021153549
0.018796465
0.016312177
0.013307331
0.010026964
0.0043145844
0.031871622
0.033438851
0.032430657
0.03145228
0.030669034
0.029553654
0.028259442
0.02675852
0.025002259
0.023008107
0.020692994
0.018104978
0.014824118
0.011072936
0.0046946816
0.03091412
0.032282658
0.031486437
0.030676273
0.030072444
0.029190126
0.028147846
0.0269085
0.025401037
0.023612853
0.0214329
0.018875061
0.015506072
0.011503691
0.0048193956
0.029421173
0.030598162
0.02994851
0.02924521
0.028747367
0.028019429
0.027154495
0.026115736
0.024821235
0.023236648
0.021231467
0.018785506
0.015467726
0.011395279
0.0047193881
0.027561486
0.028561782
0.028019263
0.027389013
0.026951952
0.026322785
0.025574984
0.024677751
0.023548168
0.022139593
0.020313252
0.018020277
0.014848639
0.010847583
0.004436792
0.025459043
0.026299315
0.025840047
0.025266558
0.02486616
0.024301778
0.023630397
0.022829002
0.021820071
0.020552601
0.018890396
0.016764319
0.013797421
0.0099727363
0.0040202609
0.02321357
0.02390947
0.023517285
0.022993459
0.022618336
0.022100104
0.021481256
0.020745697
0.01982433
0.018667009
0.017148473
0.015188389
0.012458021
0.0088837435
0.0035197105
0.020908525
0.021474357
0.021136485
0.020658892
0.02030405
0.019822246
0.019243424
0.018556455
0.017701469
0.016631925
0.015238636
0.013438119
0.010958337
0.0076840224
0.0029813218
0.018613869
0.019062735
0.018768265
0.018334481
0.017997325
0.017546309
0.01700118
0.016353772
0.015553074
0.014557509
0.013276279
0.01162882
0.0094030684
0.0064597702
0.0024436644
0.016389264
0.016733067
0.016470811
0.016078043
0.015756166
0.015331328
0.014815822
0.014203033
0.013450149
0.012521129
0.011343845
0.0098449159
0.0078707582
0.0052758483
0.0019354687
0.014260411
0.014504028
0.01425581
0.013897318
0.013584623
0.013178487
0.012686593
0.012103023
0.011392903
0.010526211
0.0094488354
0.0080978181
0.006374689
0.0041440509
0.001461659
0.053129864
0.05134435
0.044377685
0.032921068
0.018010577
0.0077711801
0.0014147679
-0.00078109243
-0.028209414
0.058323644
0.054670565
0.04636776
0.033869009
0.018481985
0.0078204335
0.00155464
-0.00058531462
-0.029912143
0.059556146
0.054985709
0.046905548
0.034600553
0.019483676
0.0084564941
0.0021252533
-0.0001175221
-0.03171032
0.062184858
0.056591094
0.048263759
0.03583238
0.020977424
0.0092328652
0.0029097296
0.00089151949
-0.032850913
0.064894203
0.058400616
0.049829143
0.037291144
0.023120829
0.010342812
0.0040134077
0.0023574525
-0.03416041
0.068297612
0.06091468
0.051913821
0.039044401
0.025818946
0.01189418
0.0054631097
0.0043098708
-0.034673266
0.072595727
0.064318844
0.054706837
0.04145548
0.028984188
0.014110388
0.0073461289
0.0068146314
-0.034466398
0.078007861
0.068765958
0.058277492
0.044629251
0.032214845
0.017042788
0.0096026463
0.0096801691
-0.033378778
0.084628817
0.074085525
0.062214592
0.047823941
0.034463225
0.020208005
0.012197025
0.01221852
-0.031249165
0.095573592
0.082433564
0.068138111
0.052272149
0.037044527
0.02294889
0.016120538
0.014710495
-0.026963595
0.12411224
0.10512199
0.086163231
0.067188246
0.04918589
0.033220036
0.024197552
0.021100421
-0.017643183
0.19573905
0.16555904
0.13733371
0.11089032
0.085930138
0.062913832
0.046154122
0.037546212
-0.0010201622
0.3305294
0.28367828
0.23851563
0.19575937
0.15452945
0.11609837
0.08540433
0.063203801
0.023065981
0.51288227
0.44611875
0.37611424
0.30790884
0.24155136
0.18039606
0.13042432
0.092012454
0.048787632
0.68566808
0.59878141
0.50225823
0.40775058
0.31646495
0.2339747
0.1669408
0.11498673
0.069073603
0.76400512
0.66372417
0.55501103
0.45017676
0.34922382
0.25827701
0.18425605
0.12664038
0.080478845
0.059484279
0.049879394
0.045690208
0.043312845
0.040800591
0.03803907
0.035066383
0.031924394
0.028741436
0.025627921
0.022710583
0.020021087
0.017539848
0.015470938
0.013358818
0.057501628
0.047380254
0.043675752
0.041503872
0.038239421
0.034788414
0.031431541
0.028136676
0.024995839
0.022059288
0.019396635
0.016990133
0.014826925
0.013048789
0.01123745
0.047098923
0.038399188
0.034966454
0.032956503
0.030025154
0.027213924
0.02461512
0.022036878
0.019588647
0.017309996
0.015184016
0.013227594
0.011510838
0.010223565
0.0088789191
0.033599978
0.028550108
0.026182196
0.024457034
0.022030444
0.019537197
0.017166418
0.015012798
0.013198042
0.011643268
0.010240317
0.0090643185
0.0080445592
0.0072674448
0.0063004459
0.017611948
0.015318723
0.013785535
0.012498959
0.011174791
0.010005661
0.0090211441
0.0081670044
0.00736818
0.0065826069
0.0058318391
0.005184488
0.004588736
0.0041352602
0.0034983466
0.0072020362
0.0068118214
0.0062462663
0.0056621596
0.0051270674
0.0046276236
0.0041504087
0.00369334
0.0032557087
0.0028416302
0.002452916
0.0021020916
0.0017576683
0.0015079431
0.0010877128
0.0011519598
0.0016051599
0.0014215113
0.0011266456
0.00095072718
0.00078597464
0.00060549051
0.00043293044
0.00027206018
0.00012044951
-2.2539222e-05
-0.0001489251
-0.0002759445
-0.00034512698
-0.00052867374
-0.00045794288
-0.00024503475
-0.00037087611
-0.00054682826
-0.00067021501
-0.00079912233
-0.00094481801
-0.0010946362
-0.0012471075
-0.0014032767
-0.0015625803
-0.0017194334
-0.0018810179
-0.0020133349
-0.0022055063
-0.026528546
-0.026201764
-0.026061717
-0.025895061
-0.025691103
-0.025470695
-0.025230869
-0.024966921
-0.0246766
-0.02435735
-0.024006154
-0.023619412
-0.023194959
-0.022723845
-0.022223956
0.012412847