/*--------------------------------*- C++ -*----------------------------------*\
  =========                 |
  \\      /  F ield         | OpenFOAM: The Open Source CFD Toolbox
   \\    /   O peration     | Website:  https://openfoam.org
    \\  /    A nd           | Version:  13
     \\/     M anipulation  |
\*---------------------------------------------------------------------------*/
FoamFile
{
    format      ascii;
    class       volVectorField;
    location    "954";
    object      U;
}
// * * * * * * * * * * * * * * * * * * * * * * * * * * * * * * * * * * * * * //

dimensions      [0 1 -1 0 0 0 0];

internalField   nonuniform List<vector> 
2694
(
(5.4715365e-08 1.4416317e-05 1.6584247e-23)
(5.2485683e-08 3.0111121e-05 -1.4050159e-23)
(1.4256069e-07 4.3238932e-05 3.8153734e-24)
(2.6045255e-07 6.2065372e-05 -1.2711884e-24)
(4.560866e-07 8.9046364e-05 -3.4104004e-23)
(7.8527422e-07 0.00012767981 6.7961934e-23)
(1.3340386e-06 0.00018293648 -1.8318849e-23)
(2.2490642e-06 0.00026185718 -4.8402964e-23)
(3.7723313e-06 0.00037437227 -2.8355125e-24)
(6.2987223e-06 0.00053440961 2.9110891e-23)
(1.0463624e-05 0.00076136068 -7.8345039e-23)
(1.7268096e-05 0.0010819629 4.3503193e-24)
(2.8242351e-05 0.0015326103 1.6170303e-22)
(4.5626209e-05 0.0021620016 -8.5996698e-23)
(7.2496206e-05 0.0030338321 5.7279459e-23)
(0.00011268709 0.0042289265 -2.1210598e-22)
(0.00017026051 0.0058457914 2.602757e-22)
(0.00024828666 0.0079981947 4.9758644e-22)
(0.00034713839 0.010808347 -3.4581802e-22)
(0.00046277737 0.014395479 -4.3955905e-22)
(0.00057828095 0.018862151 -2.0281261e-22)
(0.00069743128 0.024275171 1.6604159e-22)
(0.00079122651 0.030648473 4.3923592e-22)
(0.00078483684 0.03797193 -1.057405e-21)
(0.00066837816 0.046257831 -1.5749016e-21)
(0.00044941782 0.055544728 1.7179678e-22)
(8.8108976e-05 0.065922412 3.5643309e-21)
(-0.00046038233 0.077572356 1.5185739e-21)
(-0.0012738326 0.090762681 -9.9949804e-21)
(-0.0024825546 0.10581953 1.1511881e-20)
(-0.004051122 0.1229699 1.6692771e-20)
(-0.0058961085 0.14231459 -2.4952754e-20)
(-0.0070212024 0.16350566 1.6567266e-21)
(-0.0068741524 0.18616641 -3.0380626e-20)
(-0.0023399631 0.20857963 -6.1794199e-20)
(0.0052011334 0.23085749 -7.4212758e-20)
(0.022806698 0.24886916 -4.0422409e-20)
(0.042791397 0.26676281 6.7265465e-20)
(0.076312903 0.27353665 1.4898007e-19)
(-3.6716092e-08 -2.13538e-07 -1.1534289e-23)
(-2.8201693e-08 -4.4337735e-07 8.3490411e-23)
(-1.1180786e-07 -6.3553306e-07 -7.6633601e-23)
(-2.4555394e-07 -9.0683513e-07 8.4202897e-23)
(-4.6696954e-07 -1.2911429e-06 -5.8506697e-23)
(-8.497835e-07 -1.8339699e-06 3.2708929e-23)
(-1.5069745e-06 -2.5968013e-06 -1.1202097e-22)
(-2.6303064e-06 -3.6620725e-06 -1.3792964e-22)
(-4.5413965e-06 -5.1374956e-06 2.6557845e-22)
(-7.7727758e-06 -7.1589114e-06 -1.6053616e-22)
(-1.3192517e-05 -9.8887481e-06 1.2913794e-22)
(-2.2185072e-05 -1.350505e-05 1.333766e-22)
(-3.6891389e-05 -1.8173454e-05 -1.2762557e-23)
(-6.0479479e-05 -2.399235e-05 -4.5450958e-22)
(-9.7345072e-05 -3.0903067e-05 5.0544858e-22)
(-0.00015302515 -3.8568299e-05 -1.9361745e-22)
(-0.00023353102 -4.6230518e-05 -3.9599206e-22)
(-0.00034377439 -5.2548335e-05 2.4513169e-22)
(-0.00048522884 -5.5652223e-05 4.0517518e-22)
(-0.0006549226 -5.3809343e-05 -1.9800511e-21)
(-0.00084558089 -4.6433805e-05 2.6284021e-21)
(-0.0010523305 -2.9681145e-05 -3.5254249e-21)
(-0.0012446593 6.4699357e-06 -3.0917388e-21)
(-0.0014244969 6.4026606e-05 4.4767283e-21)
(-0.0016264704 0.00013465961 5.2740372e-21)
(-0.0018993442 0.00021833328 -1.2231175e-21)
(-0.0023277109 0.00032428457 -1.5999215e-21)
(-0.0030127381 0.00046082727 6.3608702e-21)
(-0.0040568111 0.00062429216 1.0673203e-22)
(-0.0054893515 0.00077327781 -8.6756955e-21)
(-0.0070511766 0.00081645218 3.7863923e-21)
(-0.0082669687 0.0006019531 2.6130681e-20)
(-0.0077952186 -2.9363334e-05 6.0660336e-21)
(-0.0045049801 -0.0011772335 -1.8506062e-20)
(0.0042723061 -0.00283138 5.1679286e-20)
(0.01765293 -0.0048417505 1.5787303e-19)
(0.041302041 -0.0073032628 -1.0863516e-19)
(0.066992279 -0.0091605901 -1.1819998e-19)
(0.10949693 -0.012416688 -1.8683763e-19)
(-4.7047165e-08 2.3438435e-07 -2.5981968e-23)
(-4.9466484e-08 4.9307894e-07 -4.7868755e-23)
(-7.2954313e-08 7.083773e-07 1.8386534e-22)
(-9.9583417e-08 1.0181367e-06 -1.2277124e-22)
(-1.3540836e-07 1.4623474e-06 -5.6102498e-23)
(-1.8262623e-07 2.0984284e-06 1.6443472e-22)
(-2.4172438e-07 3.0069776e-06 -3.5737e-22)
(-3.1252111e-07 4.300108e-06 4.1336213e-22)
(-3.9013004e-07 6.1313632e-06 -4.9753166e-22)
(-4.6204723e-07 8.7061842e-06 6.0273876e-22)
(-5.0382124e-07 1.2290306e-05 -9.1169282e-22)
(-4.764412e-07 1.7210304e-05 8.1212462e-22)
(-3.3486759e-07 2.3836474e-05 -1.2343418e-21)
(-7.211063e-08 3.2534376e-05 1.7246692e-21)
(1.5113123e-07 4.3572471e-05 -1.0455364e-21)
(-2.4191632e-07 5.6994296e-05 1.8227981e-21)
(-2.8380192e-06 7.2511428e-05 3.7990302e-23)
(-1.1510062e-05 8.9502262e-05 -1.3124444e-21)
(-3.1791548e-05 0.00010727111 -7.8639301e-23)
(-7.076763e-05 0.00012560373 2.9937522e-21)
(-0.00013961029 0.00014534379 -8.9972657e-22)
(-0.00025101543 0.00016902736 2.0861918e-22)
(-0.00041420616 0.00020565193 2.8177595e-21)
(-0.00063595083 0.00026901854 -6.1479199e-21)
(-0.00092800137 0.00036766222 6.6435899e-21)
(-0.0013297189 0.00051103106 -2.7073795e-21)
(-0.001915863 0.00071270834 -2.2562117e-21)
(-0.0027817811 0.00097389779 -5.2752429e-22)
(-0.0039614406 0.0012535116 2.2666105e-21)
(-0.0052628383 0.0014343956 5.3475016e-21)
(-0.0060567454 0.0013188685 -1.7483015e-20)
(-0.0051079698 0.00064660175 -1.0731132e-21)
(-0.00053109743 -0.00079126367 1.4623632e-20)
(0.009098899 -0.0030779107 3.4474484e-20)
(0.026343541 -0.006061594 1.0264525e-19)
(0.049776112 -0.009529126 1.3217565e-19)
(0.084760605 -0.013340119 3.454208e-20)
(0.11990608 -0.016484899 1.3172181e-19)
(0.1758791 -0.020913463 2.1811137e-19)
(-5.8193683e-08 1.9435993e-07 2.1433052e-23)
(-6.2320905e-08 4.1198774e-07 1.0071814e-23)
(-9.6051473e-08 5.9126961e-07 1.3466341e-22)
(-1.3642358e-07 8.498858e-07 2.2000627e-23)
(-1.9435877e-07 1.2211653e-06 2.2260428e-23)
(-2.7665828e-07 1.7539733e-06 -2.7396574e-23)
(-3.9338926e-07 2.5179608e-06 -2.0508253e-22)
(-5.5849934e-07 3.6122233e-06 -1.5977991e-23)
(-7.9143554e-07 5.1771397e-06 2.7040604e-22)
(-1.1191674e-06 7.4104394e-06 -7.6548291e-23)
(-1.5790713e-06 1.0588389e-05 -2.5846222e-22)
(-2.223105e-06 1.5092601e-05 5.4948916e-22)
(-3.1242201e-06 2.1441665e-05 -1.115654e-21)
(-4.3873627e-06 3.0323698e-05 1.3571611e-21)
(-6.172232e-06 4.2620072e-05 -1.252297e-21)
(-8.7442269e-06 5.9403176e-05 -1.4208675e-21)
(-1.2568177e-05 8.1869954e-05 2.8328082e-21)
(-1.867376e-05 0.00011112601 -2.0882608e-21)
(-2.9447457e-05 0.00014799265 2.9204793e-21)
(-4.9352568e-05 0.00019326152 -8.9085771e-22)
(-8.670609e-05 0.00024802744 -1.1204666e-21)
(-0.00015516497 0.0003141042 4.9521639e-21)
(-0.00027475997 0.00039648298 1.4919219e-21)
(-0.00047256749 0.00050619856 6.9236582e-22)
(-0.00078596086 0.00065966246 -6.0087172e-21)
(-0.0012768426 0.00087698704 -1.064181e-20)
(-0.0020283985 0.0011703842 1.1493941e-20)
(-0.0030779431 0.0015099395 1.3499031e-20)
(-0.0042190395 0.0017821368 3.2345584e-20)
(-0.004802412 0.0017651345 3.1680554e-20)
(-0.0033476497 0.0011659711 3.1196327e-20)
(0.0021806168 -0.00028429828 1.880372e-20)
(0.014139019 -0.0026783725 4.9221474e-20)
(0.033996693 -0.0059439526 -2.9527082e-20)
(0.06364248 -0.0097265999 -2.1835729e-19)
(0.10076193 -0.013781504 -1.5646233e-19)
(0.14982601 -0.017678918 2.1760986e-19)
(0.19697019 -0.021021956 -1.1137111e-19)
(0.26721909 -0.024779293 3.9069057e-19)
(-7.5818795e-08 1.8959158e-07 1.1894845e-22)
(-8.305736e-08 4.060716e-07 1.5688005e-22)
(-1.3014694e-07 5.8260788e-07 -3.3663699e-22)
(-1.8756633e-07 8.3831695e-07 7.7577711e-23)
(-2.7159395e-07 1.2058926e-06 4.9420707e-22)
(-3.9347118e-07 1.7343894e-06 -6.6857341e-22)
(-5.7064937e-07 2.4939561e-06 -1.3436177e-22)
(-8.2865102e-07 3.5849507e-06 -3.2594518e-22)
(-1.2052417e-06 5.1505502e-06 9.2169975e-22)
(-1.7564477e-06 7.3942321e-06 2.586773e-22)
(-2.5658689e-06 1.0603588e-05 -1.5921484e-21)
(-3.7590428e-06 1.5182049e-05 9.7302756e-22)
(-5.5258642e-06 2.1689832e-05 1.5297656e-21)
(-8.1558914e-06 3.0894477e-05 -1.9222585e-21)
(-1.2094429e-05 4.3829283e-05 9.2190427e-22)
(-1.8032343e-05 6.1854517e-05 -4.3560582e-22)
(-2.7049139e-05 8.6712349e-05 1.3444363e-21)
(-4.0844421e-05 0.00012055072 -3.6605558e-21)
(-6.2163951e-05 0.00016589669 4.0200758e-21)
(-9.5583802e-05 0.00022571253 -1.2457566e-21)
(-0.00014884144 0.0003036356 -2.6506681e-21)
(-0.00023499212 0.0004044761 4.9462076e-21)
(-0.00037632762 0.00053576001 -3.9268503e-21)
(-0.00061098633 0.00071047551 3.9993438e-21)
(-0.0010018791 0.00094791018 -1.4957133e-20)
(-0.0016368144 0.0012642973 -3.7128942e-21)
(-0.0025685152 0.0016398529 2.6298695e-21)
(-0.0036221586 0.0019676683 -1.6652294e-20)
(-0.0041081431 0.0020195187 3.7743777e-21)
(-0.0024658424 0.0014698464 -7.5442172e-20)
(0.0037374618 2.150012e-05 5.7548361e-20)
(0.01713146 -0.0024465381 1.5071482e-20)
(0.040096529 -0.005780793 -1.6140175e-19)
(0.073474965 -0.0096751108 1.1932905e-19)
(0.11783091 -0.013606878 -1.3928739e-19)
(0.16980779 -0.017375406 8.8920544e-20)
(0.23241491 -0.020398101 -1.4681793e-19)
(0.29093316 -0.023023753 -2.8994381e-20)
(0.37176895 -0.024964121 -4.5142967e-19)
(-1.0335501e-07 2.0586854e-07 -8.1532695e-23)
(-1.1540505e-07 4.4670229e-07 2.8072411e-22)
(-1.807703e-07 6.4048842e-07 -2.2813123e-22)
(-2.6149227e-07 9.2241821e-07 3.288217e-22)
(-3.8002436e-07 1.3281061e-06 -3.2469396e-22)
(-5.5270822e-07 1.9123022e-06 4.3224819e-22)
(-8.0500535e-07 2.7534872e-06 -9.5870401e-22)
(-1.1744717e-06 3.9644332e-06 1.8912061e-24)
(-1.7171267e-06 5.7068777e-06 -9.7782169e-23)
(-2.5167631e-06 8.2121593e-06 1.8050783e-21)
(-3.6993537e-06 1.1809803e-05 -1.160891e-21)
(-5.4552416e-06 1.6966446e-05 7.1272795e-22)
(-8.0735556e-06 2.4337503e-05 -8.9949296e-22)
(-1.1995886e-05 3.4833457e-05 -1.2462342e-22)
(-1.7900606e-05 4.9701159e-05 3.108503e-22)
(-2.6836512e-05 7.0618284e-05 -4.5439344e-22)
(-4.0436839e-05 9.979759e-05 2.3616973e-21)
(-6.1265168e-05 0.00014010097 -4.3221882e-22)
(-9.3381241e-05 0.00019517791 4.7317416e-21)
(-0.00014328817 0.0002696939 -8.1694338e-21)
(-0.00022158735 0.00036982556 3.9473272e-21)
(-0.00034613133 0.00050434588 -7.0775144e-21)
(-0.00054839804 0.00068655152 -6.5217179e-21)
(-0.00088402312 0.00093539687 1.0548102e-20)
(-0.001436958 0.001268269 5.1075367e-21)
(-0.0022733045 0.0016711947 -1.2637663e-20)
(-0.0032557216 0.0020431421 -4.3859713e-21)
(-0.0037104456 0.0021490524 -2.9394776e-20)
(-0.0020221377 0.001642133 -5.4379301e-20)
(0.0044495789 0.00018791497 2.3689481e-20)
(0.018819538 -0.0023394047 -1.1243237e-19)
(0.043762111 -0.0057622011 -9.7156091e-20)
(0.0807469 -0.0096299466 9.8865081e-20)
(0.12923726 -0.013451684 -1.9027217e-20)
(0.18805368 -0.016702083 1.2424943e-19)
(0.25299188 -0.019338025 -1.8595556e-19)
(0.3254278 -0.020832116 1.0311291e-20)
(0.39154239 -0.022174964 -2.9494749e-19)
(0.47660534 -0.021948827 1.5476229e-21)
(-1.4177866e-07 2.330515e-07 6.8628366e-25)
(-1.6172018e-07 5.1372515e-07 -6.5784925e-23)
(-2.5185166e-07 7.3584522e-07 -2.4140804e-22)
(-3.6464774e-07 1.0604332e-06 1.4701769e-22)
(-5.3016415e-07 1.5278351e-06 5.3586977e-22)
(-7.714497e-07 2.2016381e-06 -5.4830732e-22)
(-1.1242244e-06 3.1731449e-06 -9.1185289e-23)
(-1.6412436e-06 4.5739684e-06 3.7274352e-22)
(-2.4012682e-06 6.5936e-06 1.3819402e-22)
(-3.5222338e-06 9.5043758e-06 -8.111107e-22)
(-5.1816001e-06 1.3696516e-05 2.211168e-22)
(-7.647712e-06 1.9726666e-05 1.2437979e-21)
(-1.1328386e-05 2.8383835e-05 -1.4577232e-21)
(-1.6846595e-05 4.0776684e-05 2.1072009e-21)
(-2.5159176e-05 5.8445406e-05 2.4284395e-22)
(-3.7744793e-05 8.3500117e-05 -5.3198078e-21)
(-5.6905679e-05 0.00011878754 -2.9947944e-21)
(-8.6261514e-05 0.00016809508 1.2184471e-20)
(-0.00013157982 0.00023643273 -1.2096979e-20)
(-0.00020224158 0.0003305247 1.4637794e-20)
(-0.00031404776 0.00045981239 -1.2942092e-20)
(-0.00049487753 0.00063824038 4.9765253e-21)
(-0.00079449804 0.00088555733 1.5073496e-20)
(-0.0012910251 0.0012214159 -2.3186931e-20)
(-0.0020546326 0.0016378438 -3.5093492e-20)
(-0.0029818363 0.0020414194 2.8975518e-20)
(-0.0034297466 0.0021959454 1.9765023e-20)
(-0.0017987997 0.0017324193 -9.9898664e-20)
(0.00470237 0.00028506975 5.4966671e-20)
(0.019528145 -0.0022925351 9.6574026e-20)
(0.045793236 -0.0057821271 1.0980091e-20)
(0.085115838 -0.0096582822 1.7662856e-19)
(0.13716731 -0.013276687 2.0635677e-21)
(0.19962524 -0.016168936 -1.6983516e-19)
(0.26971765 -0.018017987 -5.1582884e-20)
(0.34293011 -0.019035405 2.3482927e-19)
(0.419586 -0.018891385 2.3589198e-19)
(0.48820629 -0.018936272 2.4632792e-19)
(0.57074919 -0.017055431 -2.5295347e-20)
(-1.9292885e-07 2.6760358e-07 -2.7546774e-22)
(-2.2559579e-07 6.0115628e-07 6.2051384e-22)
(-3.4882006e-07 8.6006263e-07 -6.7750853e-22)
(-5.0521823e-07 1.2400993e-06 -5.668239e-22)
(-7.3443999e-07 1.7876567e-06 1.8792799e-22)
(-1.0685766e-06 2.5777201e-06 2.3592502e-22)
(-1.557101e-06 3.7181051e-06 1.1814391e-21)
(-2.2730862e-06 5.3646482e-06 -1.7267902e-22)
(-3.3256333e-06 7.7424531e-06 -7.0321164e-22)
(-4.8781653e-06 1.1176363e-05 -2.6475563e-23)
(-7.1767068e-06 1.6134224e-05 2.2877126e-21)
(-1.0593579e-05 2.3287719e-05 -3.2201106e-21)
(-1.5695312e-05 3.3596691e-05 -3.7029747e-22)
(-2.3349012e-05 4.8423906e-05 5.5122298e-22)
(-3.4890567e-05 6.9687948e-05 3.5491531e-21)
(-5.2394249e-05 0.00010006301 -1.6483865e-21)
(-7.91134e-05 0.00014323897 1.6748261e-21)
(-0.00012022272 0.00020427532 2.3146219e-21)
(-0.0001841354 0.00029014888 -7.375279e-21)
(-0.00028504107 0.00041073659 -2.6258665e-21)
(-0.00044804582 0.00058047968 3.3510017e-22)
(-0.00071826453 0.00081973029 1.3429566e-20)
(-0.0011681517 0.0011499404 5.4479491e-21)
(-0.0018691423 0.0015685918 -1.3186308e-20)
(-0.0027427188 0.0019909109 6.3940065e-21)
(-0.003190942 0.0021839401 7.1480542e-21)
(-0.0016532013 0.0017662552 2.1535097e-20)
(0.0047212513 0.00034004804 8.5504688e-20)
(0.01964075 -0.0022650567 -6.5329805e-21)
(0.046575328 -0.0058069823 -7.4139734e-20)
(0.087393971 -0.0096726299 5.1043096e-20)
(0.14165279 -0.013136547 -9.8074044e-20)
(0.20686816 -0.015623803 6.9015354e-20)
(0.27915489 -0.016942455 3.7240647e-20)
(0.35517114 -0.01711308 8.4463934e-20)
(0.43082777 -0.016594852 -3.6856449e-19)
(0.50615229 -0.015252506 -1.3045808e-19)
(0.57250908 -0.014439632 -2.6496401e-20)
(0.64788022 -0.011862972 -9.1040559e-21)
(-2.5980634e-07 3.0865364e-07 1.5690702e-22)
(-3.1256767e-07 7.0903199e-07 -2.7844744e-22)
(-4.7982057e-07 1.0132278e-06 9.0043496e-23)
(-6.9511738e-07 1.4616871e-06 -2.1512939e-23)
(-1.0104306e-06 2.1081816e-06 5.5671209e-22)
(-1.4700935e-06 3.0418234e-06 8.4861794e-23)
(-2.1422348e-06 4.3908996e-06 -1.395912e-21)
(-3.1275797e-06 6.34134e-06 2.5535133e-22)
(-4.5766296e-06 9.1625943e-06 -1.7972597e-22)
(-6.7151433e-06 1.3245107e-05 5.2111009e-22)
(-9.8836702e-06 1.9154125e-05 5.5181297e-22)
(-1.4598997e-05 2.7706525e-05 -1.6880925e-21)
(-2.1650499e-05 4.0079503e-05 4.8015935e-21)
(-3.225282e-05 5.7962718e-05 -3.5990622e-21)
(-4.8291236e-05 8.3769141e-05 6.1993981e-21)
(-7.272399e-05 0.00012092674 -2.9641824e-21)
(-0.00011026282 0.00017429165 -6.8171119e-21)
(-0.00016858608 0.0002507765 8.7664061e-21)
(-0.00026067139 0.00036039642 -5.418017e-21)
(-0.00040949948 0.00051792922 1.4278818e-21)
(-0.00065637078 0.00074428879 2.4049759e-20)
(-0.0010680918 0.0010624173 -2.8478162e-20)
(-0.0017137238 0.0014744396 4.2701422e-21)
(-0.0025317797 0.001904054 -2.2439529e-20)
(-0.0029645685 0.002125139 4.5071484e-20)
(-0.0015130719 0.0017501378 -5.2992649e-20)
(0.0046609123 0.00035572634 3.7507617e-20)
(0.019444973 -0.0022545887 3.2138702e-20)
(0.046566754 -0.0058251455 1.2732011e-20)
(0.088115436 -0.0096732673 4.7675087e-20)
(0.14361899 -0.012979348 -1.009166e-19)
(0.21022585 -0.01513311 -1.5768e-19)
(0.2837645 -0.015926316 -4.8413026e-20)
(0.36011533 -0.015555835 1.0700196e-19)
(0.43629123 -0.014360289 1.2299e-19)
(0.50923038 -0.012873627 1.3521836e-19)
(0.57924522 -0.011053528 3.0533587e-21)
(0.64053461 -0.0099870047 2.5132829e-20)
(0.70732942 -0.0075582799 -1.0596346e-19)
(-3.471051e-07 3.5682972e-07 -5.3685548e-24)
(-4.3136537e-07 8.4126008e-07 -4.7327298e-22)
(-6.5774131e-07 1.2010918e-06 3.1805733e-22)
(-9.5314803e-07 1.7336757e-06 1.9749197e-22)
(-1.3858085e-06 2.5018895e-06 5.8963798e-22)
(-2.0168274e-06 3.6124231e-06 1.6378692e-22)
(-2.9400957e-06 5.2190236e-06 -3.0381775e-22)
(-4.2947088e-06 7.5452177e-06 -1.2568925e-21)
(-6.2889386e-06 1.0916132e-05 -9.5386067e-22)
(-9.2361602e-06 1.5805089e-05 2.6380367e-21)
(-1.3610986e-05 2.2901364e-05 -2.6162492e-21)
(-2.013748e-05 3.3208615e-05 1.226312e-21)
(-2.992951e-05 4.8187415e-05 1.4493076e-21)
(-4.4717536e-05 6.9961291e-05 9.9868015e-22)
(-6.7222961e-05 0.00010161594 -4.2520321e-21)
(-0.00010179645 0.000147643 1.0394153e-21)
(-0.0001555647 0.00021463009 -1.0204369e-22)
(-0.00024063285 0.00031238549 8.0865058e-21)
(-0.00037843304 0.00045565006 -2.0171161e-20)
(-0.00060732736 0.00066555522 3.2953966e-20)
(-0.00098894159 0.00096597468 -4.5759986e-21)
(-0.0015870409 0.0013625456 -2.2529719e-20)
(-0.0023475121 0.0017868037 -4.3802688e-21)
(-0.002743411 0.0020214996 -7.3026962e-21)
(-0.0013374492 0.0016801149 5.2476279e-21)
(0.0046512864 0.00032270341 1.4449703e-20)
(0.019188675 -0.0022740356 -2.2801744e-20)
(0.046183353 -0.0058507623 -2.3367739e-20)
(0.087875794 -0.0096670341 -7.3417086e-20)
(0.14378444 -0.012822116 -1.0043236e-19)
(0.21075124 -0.014670555 5.6005018e-20)
(0.28437534 -0.015030108 1.8889752e-19)
(0.36020214 -0.014174892 -7.3925163e-20)
(0.43513748 -0.012587056 1.9854478e-20)
(0.50689036 -0.010728144 -3.9257759e-20)
(0.57408416 -0.0090049894 -1.8510858e-20)
(0.63737526 -0.0073429638 -1.3172978e-20)
(0.69302606 -0.0064769415 3.1234801e-20)
(0.7521939 -0.0045947224 9.6898051e-20)
(-4.6189794e-07 4.137393e-07 1.2150616e-22)
(-5.9534935e-07 1.0049231e-06 3.4186849e-22)
(-9.0255956e-07 1.4342019e-06 -6.6974128e-22)
(-1.308428e-06 2.0716342e-06 2.7619035e-22)
(-1.9034442e-06 2.9916709e-06 -4.373377e-23)
(-2.7721571e-06 4.3233547e-06 8.4476827e-22)
(-4.044779e-06 6.2527644e-06 -1.3911399e-21)
(-5.9149835e-06 9.0514753e-06 1.0429429e-21)
(-8.6738744e-06 1.3116325e-05 -5.0051467e-22)
(-1.2761763e-05 1.9028369e-05 8.4813996e-22)
(-1.8850008e-05 2.7640027e-05 3.3336515e-22)
(-2.7971854e-05 4.0204369e-05 -2.7729477e-21)
(-4.1735317e-05 5.8567922e-05 3.8999181e-21)
(-6.2677902e-05 8.5461415e-05 2.6110253e-21)
(-9.4878561e-05 0.00012494876 6.7120055e-22)
(-0.00014506919 0.00018314683 -1.1957676e-20)
(-0.0002247696 0.00026940133 -4.1145443e-21)
(-0.00035439781 0.00039802707 5.0956332e-21)
(-0.00057000139 0.00058976705 1.2064792e-20)
(-0.00092860875 0.00086855941 -4.032947e-21)
(-0.0014864313 0.0012418167 -1.1481709e-20)
(-0.0021859684 0.0016468085 2.8038804e-20)
(-0.0025171287 0.0018760525 -1.5423778e-20)
(-0.0010900375 0.0015507696 -2.0018925e-20)
(0.0047917436 0.00022536035 1.0078443e-20)
(0.019097815 -0.0023429187 -5.7220059e-20)
(0.045806935 -0.005898954 6.0191039e-20)
(0.08724661 -0.0096620008 8.3910964e-21)
(0.14288629 -0.01266865 -9.7546613e-21)
(0.20938764 -0.014237959 3.4061942e-20)
(0.28211921 -0.014229245 2.466953e-20)
(0.35658552 -0.012992732 -4.6515408e-20)
(0.42955254 -0.011096612 -1.8260083e-20)
(0.49912534 -0.0090769103 -1.7770498e-20)
(0.56449814 -0.0072667811 -5.7161948e-20)
(0.62537715 -0.0058524196 5.2375384e-20)
(0.68250469 -0.0046609658 -1.5670047e-20)
(0.73337797 -0.004152437 -3.3254679e-20)
(0.78668269 -0.0028110353 -8.8092914e-21)
(-6.1598036e-07 4.8281911e-07 2.4897723e-22)
(-8.2710482e-07 1.2130273e-06 -6.1383026e-22)
(-1.2484023e-06 1.7319986e-06 6.4109444e-22)
(-1.8109529e-06 2.5042267e-06 -1.7789313e-22)
(-2.6372035e-06 3.6195663e-06 3.2739558e-22)
(-3.8456902e-06 5.2365796e-06 -1.3527371e-22)
(-5.6197224e-06 7.5839152e-06 -1.7238799e-24)
(-8.2336313e-06 1.0996925e-05 1.6554619e-22)
(-1.2102255e-05 1.5968598e-05 1.5526195e-21)
(-1.7858123e-05 2.3226272e-05 -3.8379968e-21)
(-2.6475717e-05 3.3847498e-05 -1.0134538e-21)
(-3.9475338e-05 4.9437071e-05 3.2329534e-22)
(-5.9266846e-05 7.2402239e-05 -2.7288294e-21)
(-8.9751286e-05 0.00010639214 8.236682e-21)
(-0.00013742608 0.00015702103 -1.4243812e-22)
(-0.0002135009 0.0002330548 8.8624121e-22)
(-0.00033784282 0.0003481138 3.4090911e-21)
(-0.00054490529 0.00052194539 -6.5064017e-21)
(-0.00088632577 0.0007771628 -1.5409877e-20)
(-0.0014090235 0.0011206678 2.6027028e-20)
(-0.0020401574 0.0014927784 -2.2375652e-20)
(-0.0022692485 0.0016943467 -1.4432418e-20)
(-0.00073120524 0.001359677 3.0970996e-20)
(0.0051839322 5.1223492e-05 -2.4498104e-20)
(0.019383776 -0.0024805289 4.0393527e-20)
(0.045809798 -0.0059855316 1.178795e-20)
(0.086774179 -0.0096609562 -8.058676e-20)
(0.1416757 -0.012501844 -1.460101e-20)
(0.20702384 -0.013811418 7.6156461e-20)
(0.27805582 -0.013490214 -4.8852697e-20)
(0.35040574 -0.011958422 2.4820548e-20)
(0.42080064 -0.0098606729 5.3133838e-21)
(0.48775929 -0.0077501574 2.0170592e-20)
(0.55083343 -0.0059780022 3.5006932e-21)
(0.61008122 -0.0046380351 5.6876793e-20)
(0.66563342 -0.0037200875 -5.7434685e-21)
(0.71798515 -0.002998786 6.0269125e-21)
(0.76529048 -0.0027788388 -4.094611e-21)
(0.81421531 -0.0017970707 5.8088008e-21)
(-8.2902017e-07 5.6894018e-07 -8.8975619e-23)
(-1.1614649e-06 1.4844754e-06 8.3963177e-22)
(-1.7512521e-06 2.1232805e-06 9.5507099e-23)
(-2.5422847e-06 3.0746514e-06 -3.5708583e-22)
(-3.707546e-06 4.4491682e-06 -1.5955413e-22)
(-5.4165682e-06 6.4462789e-06 -2.2118182e-21)
(-7.9330738e-06 9.3529849e-06 2.0259658e-21)
(-1.1655422e-05 1.3592998e-05 -2.292899e-21)
(-1.7191821e-05 1.979457e-05 3.0164917e-21)
(-2.5481427e-05 2.8894887e-05 -3.8724197e-21)
(-3.799551e-05 4.2302986e-05 7.0625823e-21)
(-5.7081769e-05 6.2159743e-05 -9.9583496e-21)
(-8.6576758e-05 9.1764092e-05 2.9661338e-21)
(-0.00013293888 0.00013628501 -2.5522432e-21)
(-0.00020737997 0.00020391774 -1.7314626e-21)
(-0.0003296393 0.00030745879 1.3665969e-20)
(-0.00053293501 0.00046518578 3.6344884e-21)
(-0.0008636689 0.00069686381 -8.9723099e-21)
(-0.0013517138 0.0010057455 3.6030141e-21)
(-0.0019010908 0.0013318948 -1.5284603e-20)
(-0.0019783703 0.0014822455 2.7049372e-21)
(-0.00020642481 0.0011068282 2.0002495e-20)
(0.0059438711 -0.00020927894 2.4843563e-20)
(0.020260643 -0.0027018262 -2.2926578e-20)
(0.046542352 -0.006120771 1.653238e-20)
(0.086970698 -0.0096592725 -6.2986139e-20)
(0.14080459 -0.012298704 4.4415084e-20)
(0.20444496 -0.013350423 1.5171634e-21)
(0.27312443 -0.012757439 -4.9178187e-20)
(0.34264241 -0.01101036 6.0133873e-20)
(0.40997219 -0.0087986485 -7.1732599e-20)
(0.47394521 -0.0066845679 8.9696991e-21)
(0.53448565 -0.0049821749 4.2381483e-20)
(0.59186591 -0.0037676739 -2.5669403e-20)
(0.64633421 -0.0029607917 -1.2566252e-20)
(0.6979436 -0.0024569014 -1.2554672e-20)
(0.74680311 -0.0020532005 -1.1185842e-21)
(0.79145639 -0.0019841194 1.1942618e-20)
(0.8369159 -0.001196948 1.0656779e-20)
(-1.1301238e-06 6.794569e-07 5.2627602e-22)
(-1.6617818e-06 1.8492381e-06 -4.4333421e-22)
(-2.5087131e-06 2.6546927e-06 4.4528923e-22)
(-3.6484413e-06 3.8532201e-06 -1.4649086e-21)
(-5.3335673e-06 5.5857467e-06 1.780525e-21)
(-7.8162087e-06 8.111243e-06 -8.9541599e-23)
(-1.1490793e-05 1.18019e-05 -3.5139002e-22)
(-1.6961759e-05 1.7212691e-05 -1.1587361e-21)
(-2.5167138e-05 2.5177818e-05 4.3420545e-22)
(-3.7586474e-05 3.6964073e-05 3.2076647e-21)
(-5.6602859e-05 5.4521113e-05 -3.3973078e-21)
(-8.6154645e-05 8.0898475e-05 -1.4344535e-22)
(-0.00013293387 0.00012093878 -6.4637553e-21)
(-0.00020854113 0.0001823562 7.2752891e-22)
(-0.00033292161 0.00027705248 1.155435e-20)
(-0.00053793751 0.0004213681 6.6724022e-22)
(-0.00086260867 0.00063095993 -5.0165862e-22)
(-0.0013153179 0.00090186921 -2.2386732e-21)
(-0.0017505584 0.0011680752 -6.7585532e-23)
(-0.001591279 0.0012413035 3.2923891e-21)
(0.00056715963 0.00079164863 -9.7725372e-21)
(0.0072226398 -0.00056127095 1.0752384e-20)
(0.021971156 -0.0030158678 -6.8236367e-20)
(0.048356123 -0.0063061987 -1.8989859e-20)
(0.088299324 -0.0096394576 7.0024668e-20)
(0.1408381 -0.012023247 1.1533876e-20)
(0.20230805 -0.012799964 2.5163553e-20)
(0.26802195 -0.011972986 3.0600424e-21)
(0.33411013 -0.010081355 1.1966858e-20)
(0.3978974 -0.0078394106 9.4682716e-21)
(0.45858538 -0.005793991 4.4673145e-20)
(0.51636489 -0.0042077473 -3.1398069e-20)
(0.57170658 -0.0031158122 -6.8500025e-21)
(0.62489635 -0.0024258205 -2.6414528e-21)
(0.67595955 -0.0020035524 5.2865442e-21)
(0.72470143 -0.0017442771 -6.1130979e-22)
(0.77091589 -0.001506911 6.1795242e-23)
(0.81344728 -0.0014863607 1.9852694e-21)
(0.85596724 -0.00080699184 -5.286063e-20)
(-1.5842742e-06 8.3326797e-07 -5.0324724e-22)
(-2.4618203e-06 2.3766336e-06 -6.0158258e-22)
(-3.7324897e-06 3.4331528e-06 1.9208655e-23)
(-5.4471363e-06 5.0009627e-06 -4.744722e-22)
(-7.9940304e-06 7.2695622e-06 1.6315341e-21)
(-1.1772485e-05 1.0592566e-05 5.6791423e-22)
(-1.7411417e-05 1.5479268e-05 4.2659187e-23)
(-2.5895507e-05 2.2700903e-05 1.01947e-22)
(-3.8792799e-05 3.3441718e-05 2.7190163e-22)
(-5.8655865e-05 4.9547332e-05 -5.7720094e-21)
(-8.9743136e-05 7.3937852e-05 7.42388e-21)
(-0.00013930448 0.00011127043 -1.6436034e-21)
(-0.00021970167 0.00016886751 -2.3250048e-21)
(-0.00035110663 0.00025755523 7.1123951e-21)
(-0.00056217006 0.00039099436 8.8828481e-22)
(-0.00088049286 0.00057902616 -6.3572023e-21)
(-0.0012806743 0.00080731462 -1.6080441e-20)
(-0.0015483365 0.00099777134 1.5476278e-20)
(-0.0010145885 0.00096448335 -5.9702043e-21)
(0.0017451224 0.00040585606 3.1962723e-21)
(0.0092396747 -0.0010096645 9.3996393e-21)
(0.024814975 -0.0034231495 -3.3714042e-20)
(0.051628956 -0.0065332936 6.6057834e-20)
(0.091187174 -0.0095717168 -4.3842279e-20)
(0.14222836 -0.011619966 5.3002162e-20)
(0.20109034 -0.012093386 -2.9700964e-20)
(0.26328487 -0.011063847 9.6901219e-21)
(0.32540424 -0.0091050558 -3.0458272e-20)
(0.38521944 -0.0069213812 3.8296688e-20)
(0.4423294 -0.0050121276 8.3453842e-21)
(0.49715836 -0.0035835321 -1.1031488e-20)
(0.55026626 -0.0026247031 -2.5611283e-21)
(0.60197038 -0.0020306109 1.0526997e-20)
(0.65224628 -0.0016787395 -6.7797045e-21)
(0.70083733 -0.0014642092 2.3416761e-21)
(0.74735746 -0.0013186341 4.6914274e-21)
(0.79142447 -0.0011576264 -5.0973924e-21)
(0.83213251 -0.0011374624 6.8171885e-21)
(0.87207536 -0.00053654052 1.3554955e-20)
(-2.3069705e-06 1.0586223e-06 4.3384232e-22)
(-3.8174562e-06 3.1795082e-06 1.7716274e-22)
(-5.8354877e-06 4.637962e-06 -1.5067258e-21)
(-8.566734e-06 6.7932257e-06 1.2011827e-21)
(-1.2649069e-05 9.9189839e-06 6.7137586e-22)
(-1.8771528e-05 1.4532814e-05 3.7611256e-22)
(-2.8032653e-05 2.1387766e-05 -1.2220533e-21)
(-4.2205235e-05 3.1649728e-05 1.5423423e-21)
(-6.4204124e-05 4.7153616e-05 -6.0515446e-22)
(-9.8898232e-05 7.080913e-05 -4.0897622e-21)
(-0.00015443836 0.00010719427 3.6185167e-21)
(-0.0002440844 0.00016322061 5.1357889e-21)
(-0.00038748418 0.00024820919 -8.0066191e-21)
(-0.00060677016 0.00037148506 9.6347524e-21)
(-0.00090462437 0.00053455575 1.1251593e-21)
(-0.0012099673 0.0007105812 -6.442062e-21)
(-0.001208687 0.00080622144 8.895071e-21)
(-0.00010371649 0.00063564244 -1.2515746e-20)
(0.0035763915 -6.5999285e-05 6.825018e-21)
(0.012323462 -0.0015614554 -1.1608876e-20)
(0.029166499 -0.0039117677 -1.9557167e-20)
(0.056745215 -0.0067717723 -2.1084901e-20)
(0.096001475 -0.0094087423 5.8767595e-20)
(0.14528938 -0.011019338 -3.5632228e-20)
(0.20105946 -0.011154742 -1.2540442e-20)
(0.25927841 -0.0099614998 1.1430428e-20)
(0.31687468 -0.0080235817 -9.6041105e-21)
(0.37235316 -0.0059896212 -1.1611336e-21)
(0.425642 -0.0042909202 -3.1941987e-21)
(0.47734641 -0.0030584488 -3.3640029e-21)
(0.52804842 -0.0022445911 -1.6997692e-20)
(0.57803079 -0.0017379567 1.1208046e-20)
(0.62724563 -0.0014341807 -4.2028314e-21)
(0.67539154 -0.001251954 2.8436118e-21)
(0.72204136 -0.0011314563 -7.4048976e-22)
(0.76671739 -0.0010336674 -2.9705133e-21)
(0.80896035 -0.00090920908 7.6128428e-21)
(0.84805083 -0.00087406477 -7.1535986e-21)
(0.88572978 -0.00034654532 5.9992488e-20)
(-3.5372918e-06 1.4114373e-06 -2.7768235e-22)
(-6.3180054e-06 4.4906465e-06 -1.3288052e-21)
(-9.7841802e-06 6.6487665e-06 2.3084526e-21)
(-1.452162e-05 9.8251313e-06 -1.7730855e-21)
(-2.1679835e-05 1.4461407e-05 -1.0171373e-22)
(-3.2607404e-05 2.1391967e-05 5.044801e-22)
(-4.9483328e-05 3.1848825e-05 2.3856213e-21)
(-7.5880956e-05 4.7754886e-05 -5.1806888e-21)
(-0.00011763189 7.2095901e-05 3.781376e-21)
(-0.0001839585 0.00010933629 -3.0945488e-21)
(-0.00028823443 0.00016558374 -2.0829931e-23)
(-0.00044610531 0.00024764938 6.6079235e-21)
(-0.00066498964 0.00035880396 -1.2437131e-20)
(-0.00090720939 0.00048817462 1.3715207e-20)
(-0.0010136351 0.00059056985 -9.8743461e-21)
(-0.00054127464 0.00056157817 7.3172301e-21)
(0.0014173947 0.00022581283 -1.6645049e-20)
(0.006472077 -0.00064013554 1.6245182e-20)
(0.016970265 -0.0022107643 -9.4982144e-21)
(0.035528024 -0.0044426961 2.5948041e-20)
(0.064119815 -0.0069521576 -1.6252686e-20)
(0.10302279 -0.0090721867 -7.6954226e-21)
(0.15020216 -0.010147656 7.4523978e-21)
(0.2022888 -0.0099137464 2.2905589e-20)
(0.25599565 -0.0086127366 1.2227474e-20)
(0.3086367 -0.0067997337 -9.765246e-21)
(0.35947199 -0.0050179143 1.670268e-20)
(0.40879311 -0.0035999531 -1.0315181e-20)
(0.45725659 -0.0026004158 -4.6675472e-21)
(0.50540448 -0.0019404211 -3.4120517e-21)
(0.55344953 -0.0015172306 1.0168415e-20)
(0.60130902 -0.0012498582 -9.5950603e-22)
(0.64868447 -0.0010837907 3.2810322e-21)
(0.69513722 -0.0009784115 8.2830914e-23)
(0.74016927 -0.00090064295 -9.0641658e-21)
(0.78326674 -0.00082512409 1.8037749e-20)
(0.82393828 -0.00072082626 -2.1867342e-20)
(0.86158638 -0.00066836644 3.4749852e-20)
(0.89729865 -0.0002155706 -7.8396138e-20)
(-5.9240531e-06 2.0340413e-06 1.1484407e-22)
(-1.1523752e-05 6.8996078e-06 -7.9964441e-22)
(-1.8270538e-05 1.0442854e-05 4.5089698e-22)
(-2.7616748e-05 1.5653723e-05 -4.3837347e-22)
(-4.1929719e-05 2.3318968e-05 7.6677959e-22)
(-6.4142099e-05 3.4898477e-05 1.9930034e-21)
(-9.8783211e-05 5.2465833e-05 -1.4644649e-22)
(-0.00015263611 7.8990058e-05 -4.5321616e-21)
(-0.00023489647 0.00011839168 6.1986129e-22)