/*--------------------------------*- C++ -*----------------------------------*\
  =========                 |
  \\      /  F ield         | OpenFOAM: The Open Source CFD Toolbox
   \\    /   O peration     | Website:  https://openfoam.org
    \\  /    A nd           | Version:  13
     \\/     M anipulation  |
\*---------------------------------------------------------------------------*/
FoamFile
{
    format      ascii;
    class       volScalarField;
    location    "0.06";
    object      p;
}
// * * * * * * * * * * * * * * * * * * * * * * * * * * * * * * * * * * * * * //

dimensions      [1 -1 -2 0 0 0 0];

internalField   nonuniform List<scalar> 
1000
(
8656.76
8656.72
8656.55
8656.24
8655.84
8655.42
8655.01
8654.74
8654.76
8654.82
8654.91
8655.02
8655.03
8655.02
8655
8654.97
8654.98
8655.02
8655.12
8655.31
8655.45
8655.85
8656.04
8656.57
8656.94
8657.03
8657.22
8658.03
8659.21
8659.71
8659.89
8659
8660.3
8662
8661.12
8660.54
8664.62
8666.03
8663.38
8662.81
8667.95
8668.57
8663.93
8667.44
8676.03
8672.4
8668.49
8673.44
8674.2
8673.49
8674.72
8674.14
8676.53
8676.91
8676.7
8679.76
8678.68
8680.21
8682.93
8681.45
8684.04
8685.4
8684.19
8687.9
8688.02
8687.51
8691.59
8690.81
8691.21
8695.16
8693.68
8694.98
8698.87
8696.85
8698.71
8702.74
8700.24
8702.37
8706.78
8703.87
8705.9
8710.88
8707.82
8709.24
8714.88
8711.9
8712.56
8718.95
8715.91
8716.02
8723.47
8720.6
8719.68
8727.66
8725.61
8723.57
8731.59
8730.56
8727.65
8736.14
8735.48
8731.61
8742.82
8741.97
8735.79
8750.85
8751.83
8741.72
8755.6
8761.56
8749.05
8757.8
8770.28
8758.35
8758.9
8777.12
8769.46
8761.54
8780.6
8781.38
8767.55
8780.99
8792.01
8777.92
8779.66
8799.98
8792.05
8781.27
8801.99
8807.63
8790.39
8796.87
8818.26
8807.95
8795.46
8817.42
8826.9
8808.23
8807.26
8833.93
8831.69
8811.94
8822.97
8845.94
8834.74
8818.99
8839.34
8855.23
8838.09
8828.67
8854.97
8862.83
8842.49
8840.94
8869.41
8869.24
8848.29
8855.86
8881.97
8873.96
8856.08
8872.83
8891.97
8879.52
8864.62
8873.42
8906.31
8907.12
8882.47
8874.82
8902.83
8921.4
8905.9
8888.47
8906.3
8929.77
8917.69
8900.51
8920.22
8939.22
8923.73
8912
8937.88
8948.26
8928.71
8926
8955.05
8955.29
8934.77
8944.09
8969.53
8959.86
8943.52
8964.62
8980.92
8963.86
8955.94
8984.28
8989.69
8969.2
8972.84
9001.12
8995.8
8976.92
8993.51
9014.71
9000.61
8987.98
9014.29
9025.99
9006.43
9002.2
9032.9
9035.71
9014.05
9019.08
9049.09
9044.33
9023.51
9037.22
9063.47
9052.78
9034.56
9055.23
9076.83
9061.68
9046.75
9072.7
9089.62
9071.15
9059.82
9089.61
9102.03
9081.17
9073.71
9106.04
9114.15
9091.7
9088.4
9122.03
9126.04
9102.77
9103.8
9137.57
9137.86
9114.41
9119.71
9152.72
9149.76
9126.68
9135.78
9167.64
9162.08
9139.5
9151.57
9182.46
9175.17
9152.96
9166.47
9197.24
9189.62
9167.11
9179.69
9211.95
9206.03
9182.37
9190.33
9225.99
9224.72
9199.61
9198.89
9237.64
9244.81
9219.81
9210.8
9245.84
9261.5
9240.49
9226.49
9256.56
9275.58
9256.82
9242.74
9272.83
9289.26
9269.38
9259.43
9292.49
9302.49
9280.54
9278.04
9312.81
9314.73
9291.95
9299.7
9331.98
9325.63
9304.81
9323.72
9349.41
9335.9
9319.82
9347.92
9365.57
9346.74
9336.84
9370.8
9380.85
9358.64
9355.6
9391.95
9395.43
9371.59
9375.38
9411.51
9409.82
9385.87
9395.39
9430.27
9424.92
9401.45
9415.3
9448.77
9441.29
9418.58
9434.54
9467.61
9459.89
9437.37
9452.92
9487.04
9480.57
9457.48
9469.91
9506.54
9503.09
9478.11
9489.63
9522.27
9511.97
9500.57
9512.32
9517.97
9515.83
9520.92
9525
9523.37
9536.43
9540.07
9537.01
9550.69
9557.51
9553.69
9561.56
9574.59
9568.58
9575.9
9595.74
9598.48
9592.68
9582.58
9621.47
9637.98
9617.58
9607.11
9608.08
9656.12
9667.35
9642.5
9627.97
9653.06
9688.33
9681.87
9655.93
9661.92
9704.9
9707.3
9681.58
9682
9723.58
9727.54
9703.43
9705.81
9745.42
9746.46
9723.16
9731.81
9768.56
9764.8
9742.61
9759.45
9791.64
9782.9
9762.83
9787.67
9814.45
9801.28
9784.19
9815.45
9837.09
9820.51
9806.52
9842.35
9859.84
9840.79
9829.47
9868.14
9882.9
9862.31
9852.63
9893.07
9906.4
9884.99
9875.79
9917.02
9930.5
9908.91
9898.81
9940.08
9955.13
9934.09
9921.87
9961.96
9980.13
9960.65
9945.38
9982.27
10005.3
9988.69
9969.82
10000.7
10030.2
10018.1
9995.65
10017.4
10054.5
10048.5
10023.1
10033.4
10077.5
10078.7
10052.2
10050.7
10098.1
10107.9
10083.2
10071.7
10114.5
10135.2
10116.5
10097
10126.4
10160.3
10151.3
10125.7
10136.2
10182.8
10185.1
10157.2
10151.9
10199.9
10214.5
10191.7
10175.1
10211.3
10237.7
10222.5
10202.7
10211.3
10261.9
10265.5
10237.4
10225.8
10262.1
10296.5
10285.1
10258
10259.8
10312.4
10323.4
10295
10279.2
10317.1
10348.4
10333.7
10306.8
10322
10368.8
10367.8
10336.1
10334.1
10385.2
10396.3
10366.3
10352.7
10397.5
10421.1
10397.5
10375.2
10406.4
10443
10429.4
10399.8
10414.1
10462.4
10460.4
10426.2
10424.5
10477.1
10487.9
10454.7
10440.4
10485.9
10511.3
10485.7
10461.3
10491.2
10530.8
10516.6
10484.2
10497.1
10547.2
10545.2
10508.3
10507
10560.5
10569.9
10533.3
10521.3
10570.8
10591.2
10558.9
10538.5
10579.4
10610.4
10584.9
10557.2
10586.9
10627.8
10610.9
10577.1
10594
10643.4
10636.5
10597.9
10602
10656.7
10660.5
10620
10612.4
10666.5
10682.2
10644.1
10626
10672
10700.9
10670.5
10642.6
10673
10716.3
10698.9
10661.6
10672.4
10727.3
10726.5
10682.8
10675.6
10731.5
10748.9
10708
10686.3
10726.8
10764.3
10738.3
10702.8
10716.9
10772.3
10769.3
10722.9
10713.8
10769.5
10791.3
10749.8
10723.9
10753.9
10801.6
10784.3
10741.1
10739.3
10799.2
10812.8
10765.1
10743.5
10779.5
10824.2
10801.2
10759.5
10758.1
10819.2
10832.7
10783.4
10761.4
10792.5
10842.1
10822.5
10777.8
10770.3
10829.2
10852.1
10805.4
10778.5
10794.5
10853.8
10847.1
10796
10781.2
10824
10866.7
10834.9
10796.3
10788.9
10849
10874.4
10826.3
10796.2
10810.1
10871.4
10866.4
10812.2
10795.9
10836.9
10882
10849
10810.7
10797.8
10843.6
10886.4
10850
10812.8
10799.6
10843.4
10888.9
10854.7
10813.5
10800.2
10846.8
10890.5
10853.3
10811.7
10800.2
10855.3
10890.8
10844.7
10807.8
10802.4
10867.1
10888.2
10830
10801.7
10812.1
10877.9
10877.9
10814.6
10795
10831.7
10884.2
10856.1
10803
10792.9
10854.3
10883.8
10828.8
10794.2
10803.1
10870.7
10872.1
10806.7
10786.2
10825.2
10878.1
10846.9
10794
10784.4
10848.5
10877.2
10819.4
10785.4
10793
10863
10865.6
10798.7
10777.4
10810
10869.8
10844.9
10787
10772.2
10827.7
10870.3
10821.9
10779.2
10771.4
10840.5
10865.9
10803.1
10772.2
10773.9
10847.8
10857.8
10789.4
10765.7
10777.2
10850.6
10848.3
10779.9
10759.5
10780.1
10850.8
10837.8
10772.4
10753.7
10778.4
10848.2
10831.4
10766.3
10747.9
10777.5
10844.9
10821.1
10761
10744.1
10760.8
10836.1
10829.4
10758.2
10737.8
10759.5
10832.4
10816.6
10751.4
10734.1
10740.8
10820
10820.9
10752.3
10735.1
10720.6
10784.7
10829.8
10773.7
10728.1
10715.4
10785.4
10822.6
10758.9
10720.8
10709.1
10782.4
10811.9
10749.7
10727.1
10711.8
10717.3
10797.7
10795.3
10724
10705.1
10699.3
10780.8
10804.4
10730.2
10699.5
10693.5
10775.1
10800.1
10724.7
10690.6
10698.7
10782
10787
10705.6
10679.1
10723.6
10789.5
10753.6
10685.3
10676.6
10756.6
10784.6
10707.8
10669.1
10701.5
10775.6
10751.5
10675.3
10661.9
10739
10774.2
10700.7
10657.5
10678.1
10759.6
10747.7
10666.3
10644.8
10706.2
10762.2
10706.6
10649
10642.5
10727.5
10752.6
10671.2
10634.6
10655
10739.4
10729.1
10645
10622.3
10681.4
10742.2
10689.9
10626.7
10620.9
10707.8
10732.5
10648.6
10611.2
10640.6
10722.7
10702.1
10619.4
10600.1
10672.5
10723.1
10656.2
10601.2
10605.5
10696.4
10706.1
10616.4
10585.5
10630.7
10705.5
10668.8
10592.1
10577.6
10660.1
10701
10623.6
10575.5
10585.6
10678.2
10680.7
10589.6
10560.8
10605.5
10683.4
10645.7
10568.7
10549.7
10623.6
10678.2
10610
10554
10544.2
10635
10667.2
10581
10540.3
10543.2
10639.7
10651.1
10558.1
10526.3
10546.5
10640.1
10629.6
10538.7
10512.2
10551.5
10637.2
10605.7
10521.6
10499.3
10560.7
10631.3
10576
10506.6
10488.6
10569.4
10622.2
10546.3
10491.6
10480.4
10573.8
10609
10520.3
10477.9
10472.2
10570.3
10595.2
10502.1
10464.7
10461
10561.3
10583.1
10488.2
10452.9
10448.6
10549.6
10572.7
10477.3
10441.5
10435.9
10537.2
10562.4
10467.2
10430.5
10424
10525.6
10551.5
10457.1
10421.9
10408.8
10505.8
10545
10456.5
10415.5
10395.2
10474.8
10538.3
10466.5
10409.6
10387.1
10438.4
10526.5
10482.1
10404.9
10382.3
10406.6
10510.1
10494.9
10401.2
10376.3
10384.1
10493.2
10498.2
10399.8
10371.4
10364.8
10471.7
10499.3
10402.4
10365
10351.1
10452.1
10491.5
10402.7
10366
10342.9
10386.4
10483.5
10449.5
10357
10330.9
10391.7
10473.1
10417.2
10361.3
10345.5
10324.4
10418
10461.5
10375.3
10339.2
10315.7
10346.5
10450.6
10424.9
10330.7
10304.7
10326.7
10437.1
10434.5
10321.9
10289.6
10362.6
10439.3
10373.4
10286.7
10310.2
10413.4
10392.6
10289.4
10294.4
10372.9
10366.8
10314
10269.8
)
;

boundaryField
{
    sides
    {
        type            zeroGradient;
    }
    empty
    {
        type            empty;
    }
}


// ************************************************************************* //
