/*--------------------------------*- C++ -*----------------------------------*\
  =========                 |
  \\      /  F ield         | OpenFOAM: The Open Source CFD Toolbox
   \\    /   O peration     | Website:  https://openfoam.org
    \\  /    A nd           | Version:  13
     \\/     M anipulation  |
\*---------------------------------------------------------------------------*/
FoamFile
{
    format      ascii;
    class       surfaceScalarField;
    location    "0.06";
    object      phi;
}
// * * * * * * * * * * * * * * * * * * * * * * * * * * * * * * * * * * * * * //

dimensions      [1 0 -1 0 0 0 0];

internalField   nonuniform List<scalar> 
999
(
23.6171
23.6496
23.682
23.7143
23.7467
23.779
23.8114
23.844
23.8766
23.9092
23.9417
23.9742
24.0068
24.0395
24.072
24.1047
24.1376
24.1698
24.2038
24.2332
24.2688
24.3006
24.3328
24.3728
24.3997
24.4233
24.4605
24.5174
24.5523
24.5785
24.5792
24.5829
24.6827
24.7039
24.655
24.7476
24.8598
24.85
24.7548
24.8815
24.9969
24.9092
24.8085
25.1751
25.2298
24.9908
25.051
25.1885
25.1599
25.1869
25.2001
25.2145
25.2985
25.259
25.3425
25.3784
25.3299
25.4726
25.4599
25.4416
25.5643
25.5218
25.5605
25.6574
25.5922
25.6857
25.7478
25.6739
25.8075
25.8333
25.7567
25.9224
25.9235
25.8414
26.0306
26.0188
25.9252
26.1359
26.1194
26.0086
26.235
26.2258
26.0951
26.3208
26.3315
26.1808
26.4001
26.4344
26.2586
26.4852
26.5492
26.353
26.5497
26.6562
26.456
26.6024
26.7526
26.5541
26.6676
26.8621
26.6279
26.7651
27.036
26.7109
26.8523
27.275
26.9073
26.8638
27.449
27.1654
26.8808
27.5716
27.4519
26.9804
27.5474
27.7214
27.1472
27.3853
27.8931
27.422
27.2569
28.0047
27.8013
27.3027
27.9625
28.1624
27.5052
27.6532
28.3491
27.9564
27.5063
28.3567
28.491
27.7404
27.8421
28.6777
28.3705
27.758
28.4081
28.891
28.1978
27.8502
28.8648
28.999
28.15
28.0977
29.1135
28.9938
28.2127
28.4741
29.2934
28.9221
28.2867
28.9292
29.4821
28.834
28.3797
29.3613
29.6172
28.78
28.5978
29.6442
29.6549
28.8643
28.5576
29.6765
30.1274
29.488
28.9171
28.9841
30.1619
30.1912
29.2148
29.025
30.2217
30.323
29.4019
29.2758
30.3897
30.3391
29.494
29.6568
30.5773
30.2622
29.5734
30.1874
30.7727
30.123
29.6704
30.7136
30.8968
30.033
29.9542
31.0206
30.8691
30.0834
30.4506
31.2254
30.7416
30.1476
31.0475
31.4118
30.6004
30.3407
31.4764
31.4685
30.6012
30.7356
31.719
31.4247
30.683
31.2548
31.9416
31.3514
30.7709
31.7614
32.1477
31.3063
30.9371
32.1401
32.2944
31.3468
31.1751
32.4102
32.4009
31.449
31.4616
32.6288
32.4806
31.5781
31.7844
32.8315
32.5435
31.713
32.1326
33.0333
32.5972
31.8428
32.492
33.2352
32.6499
31.9715
32.8461
33.4361
32.7092
32.1122
33.1747
33.6316
32.7854
32.272
33.4659
33.8178
32.8901
32.4433
33.7208
34.0057
33.0299
32.6159
33.9369
34.2057
33.2128
32.7805
34.1046
34.424
33.4599
32.9498
34.1658
34.6415
33.8215
33.1914
33.9901
34.8212
34.3453
33.4953
33.753
34.9669
34.7819
33.758
33.7942
35.111
34.9907
33.9643
34.0461
35.279
35.0596
34.1175
34.4475
35.4646
35.0414
34.2296
34.9719
35.6665
34.9664
34.3346
35.5153
35.8462
34.8918
34.5495
35.9108
35.9374
34.9143
34.9045
36.1674
35.962
35.0113
35.363
36.3915
35.9579
35.1189
35.859
36.6223
35.9554
35.229
36.3178
36.8478
35.9844
35.3799
36.6881
37.0603
36.0691
35.559
36.9888
37.2572
36.2145
35.7487
37.2325
37.4656
36.4212
35.9427
37.4371
37.699
36.6818
36.1454
37.5866
37.9547
36.9962
36.3799
37.7447
37.8977
37.0502
37.0078
37.3938
37.2917
37.1488
37.3528
37.1723
37.2359
37.5215
37.327
37.2994
37.73
37.6127
37.3383
37.914
37.8369
37.3977
38.2177
38.302
38.2177
37.5424
37.7007
39.1032
38.7609
37.9207
37.5003
38.4309
39.4648
39.0714
38.0192
37.682
39.4692
39.6935
38.5664
37.914
39.1828
39.7932
39.033
38.1964
39.1647
39.8971
39.2074
38.3748
39.4413
40.0338
39.2448
38.514
39.8277
40.1859
39.2334
38.6862
40.1814
40.3158
39.2451
38.9213
40.4526
40.4188
39.3077
39.2111
40.6686
40.5099
39.4109
39.5247
40.8675
40.6068
39.5402
39.8196
41.0641
40.7311
39.6826
40.071
41.2585
40.8868
39.8452
40.2609
41.4547
41.0846
40.0227
40.3821
41.6468
41.3265
40.2222
40.4344
41.8351
41.6063
40.4431
40.4431
42.0201
41.911
40.6912
40.4487
42.1862
42.2193
40.9902
40.5079
42.2797
42.4927
41.3743
40.6777
42.2026
42.7035
41.8625
40.9789
41.8984
42.8801
42.3984
41.3126
41.5246
43.0585
42.9178
41.6487
41.321
43.1949
43.3308
42.1003
41.435
43.0211
43.5844
42.7577
41.827
42.4946
43.7385
43.4488
42.2156
42.1089
43.8526
43.7929
42.6012
42.0313
43.5838
44.2999
43.4871
42.618
42.4028
44.4468
44.6029
43.231
42.5896
43.7635
44.8223
44.3424
43.1219
42.9942
44.9669
45.0632
43.6168
43.0218
44.8641
45.3874
44.3171
43.4139
44.4244
45.5877
45.0434
43.8233
44.039
45.8089
45.6799
44.2108
43.9102
45.9891
46.1873
44.6876
44.0567
45.9386
46.5421
45.3607
44.4511
45.5482
46.7749
46.1572
44.901
45.1159
47.0104
46.9156
45.3322
44.996
47.1879
47.4688
45.8606
45.2082
47.1175
47.8277
46.5715
45.6309
46.8293
48.084
47.3306
46.0769
46.5814
48.3549
48.0323
46.4918
46.4874
48.63
48.6434
46.915
46.5678
48.8539
49.1632
47.4179
46.8046
48.9278
49.5819
48.0488
47.1878
48.8072
49.9016
48.8171
47.6675
48.5461
50.2006
49.644
48.142
48.3195
50.5049
50.4543
48.6263
48.2872
50.7282
51.128
49.2504
48.5699
50.6013
51.5706
50.1984
49.1354
50.0704
51.8613
51.3571
49.7112
49.642
52.1417
52.3864
50.3418
49.7639
52.0096
52.973
51.4292
50.4087
51.1968
53.2425
52.9106
51.0637
50.7298
53.3974
53.9888
51.9202
51.2143
52.6105
54.3368
53.5814
51.9717
51.76
54.5238
55.0169
52.7985
52.1782
53.6327
55.4202
54.6219
53.0016
52.68
55.5222
56.1801
53.9471
53.3079
54.2149
56.4849
56.103
54.143
53.6414
56.2256
57.3589
55.4517
54.5622
54.5149
57.4723
57.8456
55.4621
54.9807
55.8933
58.328
58.0728
55.8808
55.3644
57.9542
59.2338
57.3164
56.3189
56.2147
59.3029
59.7044
57.2727
56.8754
56.909
60.0353
60.3575
57.8873
57.5129
57.4772
60.686
61.1517
58.5407
58.124
58.1968
61.3982
61.8058
59.1191
58.6816
59.1554
62.1665
62.2717
59.6354
59.1644
60.5251
62.9832
62.352
60.141
59.6091
62.2603
63.889
61.9947
60.6307
60.4081
63.7993
64.6136
61.6892
61.0517
61.955
64.842
64.6177
61.986
61.4305
64.0871
65.8567
63.9541
62.4753
62.279
65.8213
66.6123
63.5427
62.9114
63.9512
66.907
66.5642
63.9107
63.3368
66.0242
67.9419
66.0137
64.4644
64.0925
67.7515
68.8032
65.7205
64.9988
65.3319
68.9141
69.1714
66.0592
65.5324
66.8904
69.8784
69.2147
66.6738
66.0893
68.4649
70.8323
69.2229
67.3412
66.7229
69.8412
71.7656
69.4082
68.0186
67.4378
71.0446
72.6359
69.728
68.7197
68.1771
71.9765
73.4612
70.3629
69.4301
68.9327
72.9224
74.2139
70.9275
70.2291
69.602
73.1907
75.0625
72.2955
70.9679
70.3526
74.1886
75.828
72.691
71.7742
71.1033
74.1626
76.4878
74.1563
72.758
72.2753
72.7918
76.9094
77.1175
73.5005
72.942
73.882
77.7643
77.4639
74.1929
73.6221
74.7851
78.5113
77.6831
75.3707
75.133
74.2725
77.4744
79.9025
77.1797
75.7646
75.1233
77.1295
80.5384
79.3742
76.5415
75.8881
77.8929
81.3533
80.2764
77.207
76.4481
79.8666
82.4198
79.9781
77.7506
77.4138
82.171
83.3367
79.0666
78.0895
79.9361
83.5867
82.6458
79.1929
78.5939
83.246
84.8615
80.7713
79.5028
80.8725
84.9389
84.3863
80.58
79.8133
84.1463
86.2672
82.6157
80.9904
81.1875
86.0993
86.635
82.1475
81.3405
83.5489
87.2775
85.9558
82.5913
81.7857
86.2416
88.49
84.7991
83.0441
83.0758
88.2407
88.9936
84.25
83.3622
85.7251
89.5243
88.0804
84.5971
83.8459
88.8248
90.7912
86.4708
84.981
85.6473
90.6713
90.8212
86.1433
85.2362
88.7932
91.9821
89.4048
86.5715
86.0844
91.5681
93.0104
88.0793
86.9244
88.3209
93.0697
92.602
88.1645
87.2312
91.3812
94.3772
91.1652
88.6624
88.1043
93.7904
95.3088
90.2276
89.1147
89.708
95.1803
95.3656
90.4295
89.5735
91.7016
96.2718
95.0304
91.0107
90.059
93.75
97.3496
94.6172
91.6139
90.651
95.7266
98.4224
94.1715
92.209
91.4926
97.3823
99.2775
94.0823
92.7809
92.6538
98.7901
99.7806
94.2391
93.3037
94.2218
99.9217
99.8599
94.7189
93.8249
95.9536
100.932
99.7021
95.3554
94.4053
97.3712
101.872
99.8314
96.0464
95.0883
98.286
102.703
100.435
96.7838
95.8093
98.9553
103.48
101.302
97.5323
96.5457
99.5709
104.254
102.191
98.2795
97.2799
100.225
105.019
102.96
99.0922
98.1407
100.148
105.665
104.452
99.9667
99.1297
99.5794
106.186
106.388
100.9
100.137
99.45
106.373
107.996
102.116
101.107
99.9678
106.004
108.962
103.918
102.008
100.816
105.631
109.58
105.753
102.907
101.818
104.977
110.104
107.884
103.743
102.72
104.8
110.678
109.185
104.894
104.18
103.203
110.298
112.539
106.363
104.761
104.22
111.513
112.41
107.065
106.616
105.438
106.88
113.148
111.69
107.427
106.763
105.529
112.29
115.104
109.182
107.453
106.217
112.5
116.055
111.286
107.936
107.996
115.427
116.561
109.324
108.008
114.279
117.532
111.37
108.791
114.593
118.499
111.869
109.035
)
;

boundaryField
{
    sides
    {
        type            calculated;
        value           nonuniform List<scalar> 2(112.811 -23.5847);
    }
    empty
    {
        type            empty;
    }
}


// ************************************************************************* //
