/*--------------------------------*- C++ -*----------------------------------*\
  =========                 |
  \\      /  F ield         | OpenFOAM: The Open Source CFD Toolbox
   \\    /   O peration     | Website:  https://openfoam.org
    \\  /    A nd           | Version:  13
     \\/     M anipulation  |
\*---------------------------------------------------------------------------*/
FoamFile
{
    format      ascii;
    class       volScalarField;
    location    "0.06";
    object      T;
}
// * * * * * * * * * * * * * * * * * * * * * * * * * * * * * * * * * * * * * //

dimensions      [0 0 0 1 0 0 0];

internalField   nonuniform List<scalar> 
1000
(
171.314
171.314
171.313
171.312
171.311
171.31
171.31
171.31
171.31
171.31
171.311
171.311
171.311
171.312
171.312
171.313
171.314
171.315
171.316
171.318
171.319
171.32
171.322
171.324
171.326
171.328
171.33
171.333
171.335
171.338
171.34
171.344
171.347
171.35
171.354
171.359
171.365
171.369
171.372
171.376
171.382
171.389
171.394
171.401
171.405
171.406
171.409
171.421
171.425
171.422
171.43
171.45
171.458
171.464
171.456
171.45
171.475
171.492
171.499
171.488
171.482
171.513
171.534
171.529
171.508
171.525
171.568
171.579
171.554
171.538
171.59
171.62
171.593
171.576
171.617
171.641
171.626
171.614
171.645
171.665
171.644
171.65
171.71
171.707
171.659
171.689
171.768
171.757
171.691
171.707
171.826
171.868
171.874
171.784
171.756
171.804
171.854
171.845
171.819
171.835
171.868
171.871
171.861
171.879
171.902
171.901
171.897
171.927
171.941
171.932
171.939
171.978
171.983
171.963
171.989
172.038
172.028
171.997
172.049
172.101
172.073
172.039
172.111
172.162
172.117
172.084
172.178
172.231
172.167
172.124
172.225
172.3
172.239
172.164
172.21
172.338
172.345
172.256
172.226
172.28
172.369
172.384
172.336
172.311
172.377
172.422
172.396
172.367
172.438
172.484
172.445
172.418
172.513
172.554
172.494
172.465
172.574
172.624
172.554
172.504
172.603
172.689
172.644
172.556
172.564
172.719
172.766
172.685
172.607
172.631
172.785
172.82
172.728
172.659
172.711
172.85
172.855
172.751
172.71
172.722
172.89
172.943
172.881
172.787
172.786
172.935
172.986
172.916
172.843
172.895
173.017
173.013
172.921
172.91
173.039
173.079
173.003
172.953
173.05
173.135
173.095
173.012
173.049
173.18
173.187
173.091
173.064
173.196
173.261
173.199
173.12
173.167
173.307
173.316
173.213
173.174
173.294
173.385
173.348
173.249
173.25
173.406
173.452
173.373
173.301
173.359
173.495
173.5
173.399
173.368
173.496
173.569
173.518
173.437
173.48
173.617
173.624
173.53
173.504
173.635
173.695
173.634
173.576
173.647
173.722
173.702
173.657
173.681
173.743
173.754
173.749
173.731
173.784
173.826
173.836
173.84
173.827
173.843
173.898
173.909
173.902
173.9
173.964
173.984
173.987
173.971
174.004
174.057
174.066
174.057
174.052
174.119
174.143
174.14
174.116
174.178
174.229
174.225
174.184
174.23
174.32
174.32
174.261
174.272
174.395
174.417
174.357
174.324
174.44
174.505
174.472
174.403
174.453
174.581
174.589
174.51
174.484
174.619
174.684
174.645
174.569
174.609
174.755
174.773
174.695
174.649
174.764
174.862
174.847
174.76
174.754
174.91
174.963
174.917
174.842
174.882
175.038
175.062
174.989
174.937
175.031
175.131
175.127
175.061
175.027
175.099
175.251
175.262
175.189
175.157
175.217
175.29
175.303
175.31
175.295
175.295
175.383
175.41
175.422
175.432
175.433
175.413
175.48
175.546
175.561
175.56
175.519
175.595
175.683
175.66
175.605
175.617
175.715
175.74
175.751
175.756
175.738
175.767
175.848
175.865
175.874
175.876
175.857
175.915
175.975
175.987
175.995
175.986
175.989
176.065
176.087
176.091
176.076
176.121
176.18
176.191
176.188
176.182
176.252
176.28
176.282
176.27
176.337
176.38
176.389
176.377
176.395
176.481
176.5
176.508
176.491
176.514
176.614
176.637
176.651
176.663
176.668
176.654
176.692
176.758
176.768
176.76
176.774
176.849
176.864
176.856
176.873
176.943
176.954
176.942
176.987
177.041
177.044
177.034
177.102
177.14
177.14
177.132
177.207
177.24
177.242
177.231
177.303
177.343
177.349
177.334
177.385
177.449
177.459
177.452
177.455
177.544
177.569
177.577
177.563
177.592
177.674
177.691
177.696
177.678
177.723
177.8
177.814
177.821
177.806
177.829
177.914
177.931
177.939
177.924
177.949
178.031
178.048
178.053
178.037
178.082
178.156
178.169
178.173
178.153
178.218
178.285
178.298
178.306
178.294
178.31
178.391
178.406
178.404
178.401
178.47
178.49
178.479
178.513
178.579
178.586
178.57
178.623
178.678
178.684
178.67
178.708
178.773
178.786
178.777
178.779
178.868
178.892
178.901
178.885
178.907
179.003
179.012
179.021
179.023
179.001
179.072
179.12
179.13
179.143
179.154
179.138
179.163
179.235
179.244
179.254
179.246
179.24
179.317
179.354
179.357
179.351
179.338
179.412
179.437
179.448
179.444
179.432
179.497
179.532
179.536
179.539
179.52
179.556
179.628
179.642
179.644
179.62
179.636
179.7
179.711
179.721
179.699
179.696
179.768
179.803
179.813
179.809
179.781
179.823
179.87
179.876
179.888
179.887
179.861
179.908
179.949
179.962
179.973
179.973
179.942
179.992
180.031
180.029
180.044
180.034
180.011
180.062
180.116
180.117
180.126
180.095
180.072
180.143
180.19
180.205
180.203
180.141
180.14
180.242
180.276
180.295
180.264
180.184
180.215
180.342
180.376
180.387
180.29
180.239
180.337
180.436
180.464
180.479
180.381
180.314
180.42
180.553
180.586
180.524
180.398
180.413
180.599
180.653
180.623
180.505
180.496
180.571
180.594
180.562
180.559
180.623
180.625
180.588
180.602
180.645
180.636
180.611
180.67
180.705
180.664
180.633
180.711
180.759
180.714
180.661
180.765
180.843
180.764
180.676
180.815
180.976
181.015
180.862
180.716
180.713
180.955
181.051
181.043
180.822
180.749
180.826
181.055
181.107
181
180.844
180.807
180.922
181.095
181.104
180.944
180.886
181.045
181.156
181.059
180.924
181.016
181.221
181.195
180.989
180.928
181.048
181.275
181.301
181.096
180.993
180.986
181.243
181.348
181.319
181.091
181.025
181.071
181.326
181.392
181.431
181.253
181.1
181.056
181.2
181.418
181.457
181.27
181.136
181.093
181.256
181.464
181.493
181.285
181.168
181.134
181.343
181.509
181.462
181.242
181.184
181.214
181.488
181.563
181.415
181.24
181.246
181.501
181.58
181.409
181.258
181.318
181.572
181.613
181.398
181.286
181.243
181.418
181.624
181.624
181.381
181.297
181.279
181.536
181.664
181.586
181.358
181.303
181.337
181.618
181.697
181.573
181.367
181.319
181.355
181.634
181.713
181.664
181.409
181.348
181.319
181.556
181.711
181.657
181.414
181.356
181.333
181.586
181.727
181.708
181.436
181.355
181.44
181.697
181.721
181.475
181.368
181.485
181.713
181.694
181.444
181.368
181.427
181.703
181.752
181.536
181.401
181.481
181.712
181.711
181.489
181.438
181.626
181.725
181.584
181.465
181.584
181.73
181.631
181.474
181.561
181.761
181.706
181.481
181.464
181.731
181.834
181.665
181.485
181.442
181.639
181.846
181.817
181.55
181.475
181.606
181.851
181.846
181.586
181.504
181.676
181.877
181.817
181.571
181.541
181.79
181.904
181.737
181.558
181.616
181.884
181.911
181.661
181.552
181.655
181.923
181.944
181.683
181.57
181.628
181.914
181.962
181.724
181.588
181.672
181.933
181.943
181.688
181.602
181.783
181.957
181.856
181.64
181.661
181.909
181.944
181.716
181.633
181.82
181.962
181.823
181.642
181.715
181.951
181.936
181.681
181.626
181.864
182.004
181.854
181.647
181.596
181.642
181.95
182.023
181.826
181.646
181.598
181.674
181.975
182.043
181.876
181.653
181.602
181.751
182.006
182.008
181.727
181.63
181.771
182.006
181.972
181.705
181.655
181.886
182.021
181.865
181.667
181.713
181.986
182.027
181.782
181.664
181.777
182.006
181.98
181.733
181.695
181.923
182.025
181.83
181.669
181.762
182.022
182.032
181.783
181.692
181.653
181.773
182.01
182.04
181.845
181.733
181.812
181.984
181.946
181.769
181.788
181.988
181.985
181.76
181.696
181.855
182.011
181.996
181.848
181.825
181.931
181.968
181.851
181.824
182
182.032
181.815
181.72
181.787
182.072
182.129
181.961
181.792
181.817
182.034
182.064
181.892
181.832
181.978
182.062
181.934
181.838
181.963
182.088
181.97
181.822
181.939
182.13
182.024
181.795
181.869
182.154
182.141
181.842
181.786
181.803
182.104
182.219
182.037
181.783
181.768
182.015
182.187
182.138
181.868
181.767
181.917
182.208
182.197
181.885
181.806
181.9
182.173
182.216
181.96
181.798
181.823
182.151
182.231
182.043
181.892
181.833
181.859
182.148
182.238
182.033
181.902
181.833
181.864
182.19
182.249
182.031
181.901
181.808
181.92
182.255
182.269
181.988
181.889
181.815
182.054
182.294
182.221
181.898
181.875
181.875
182.175
182.302
182.131
181.897
181.915
181.971
182.206
182.327
182.163
181.884
181.944
182.266
)
;

boundaryField
{
    sides
    {
        type            zeroGradient;
    }
    empty
    {
        type            empty;
    }
}


// ************************************************************************* //
