/*--------------------------------*- C++ -*----------------------------------*\
  =========                 |
  \\      /  F ield         | OpenFOAM: The Open Source CFD Toolbox
   \\    /   O peration     | Website:  https://openfoam.org
    \\  /    A nd           | Version:  13
     \\/     M anipulation  |
\*---------------------------------------------------------------------------*/
FoamFile
{
    format      ascii;
    class       volScalarField;
    location    "0.06";
    object      T;
}
// * * * * * * * * * * * * * * * * * * * * * * * * * * * * * * * * * * * * * //

dimensions      [0 0 0 1 0 0 0];

internalField   nonuniform List<scalar> 
1000
(
172.283
172.283
172.282
172.281
172.28
172.278
172.276
172.276
172.277
172.278
172.279
172.281
172.282
172.283
172.284
172.285
172.287
172.288
172.29
172.293
172.295
172.299
172.302
172.307
172.311
172.313
172.316
172.322
172.331
172.336
172.339
172.335
172.344
172.356
172.354
172.352
172.377
172.388
172.375
172.373
172.405
172.411
172.387
172.407
172.46
172.443
172.422
172.452
172.459
172.458
172.467
172.466
172.482
172.487
172.488
172.509
172.505
172.516
172.535
172.529
172.546
172.557
172.552
172.576
172.58
172.579
172.605
172.604
172.608
172.634
172.629
172.638
172.664
172.655
172.668
172.695
172.683
172.698
172.727
172.713
172.727
172.759
172.745
172.755
172.791
172.778
172.783
172.824
172.81
172.812
172.859
172.846
172.843
172.892
172.884
172.874
172.923
172.922
172.907
172.959
172.959
172.939
173.006
173.006
172.972
173.061
173.072
173.017
173.097
173.138
173.07
173.119
173.197
173.134
173.137
173.246
173.208
173.164
173.275
173.287
173.21
173.287
173.357
173.281
173.29
173.412
173.373
173.312
173.432
173.471
173.377
173.413
173.541
173.489
173.418
173.544
173.606
173.504
173.498
173.654
173.649
173.539
173.601
173.739
173.683
173.594
173.71
173.808
173.717
173.664
173.816
173.869
173.758
173.749
173.916
173.923
173.808
173.85
174.005
173.968
173.868
173.964
174.081
174.018
173.936
173.985
174.179
174.192
174.057
174.015
174.175
174.289
174.21
174.113
174.214
174.356
174.296
174.201
174.313
174.429
174.35
174.284
174.433
174.501
174.397
174.381
174.55
174.56
174.448
174.5
174.651
174.605
174.514
174.633
174.733
174.643
174.597
174.759
174.797
174.685
174.703
174.867
174.844
174.738
174.828
174.953
174.879
174.806
174.952
175.024
174.917
174.889
175.062
175.083
174.962
174.985
175.156
175.134
175.015
175.087
175.238
175.182
175.077
175.188
175.313
175.232
175.144
175.285
175.384
175.284
175.216
175.38
175.453
175.339
175.292
175.471
175.521
175.397
175.373
175.561
175.587
175.458
175.458
175.647
175.654
175.522
175.546
175.732
175.72
175.59
175.635
175.815
175.789
175.661
175.722
175.898
175.862
175.736
175.805
175.979
175.942
175.814
175.878
176.061
176.032
175.899
175.937
176.137
176.134
175.994
175.985
176.2
176.243
176.106
176.052
176.242
176.333
176.22
176.139
176.3
176.41
176.309
176.227
176.389
176.484
176.377
176.317
176.497
176.557
176.437
176.417
176.609
176.624
176.498
176.534
176.714
176.684
176.567
176.664
176.81
176.739
176.647
176.797
176.898
176.798
176.738
176.922
176.981
176.861
176.839
177.038
177.062
176.931
176.945
177.145
177.14
177.008
177.053
177.246
177.222
177.092
177.16
177.347
177.311
177.184
177.264
177.448
177.411
177.285
177.363
177.552
177.521
177.394
177.454
177.656
177.642
177.505
177.56
177.741
177.689
177.624
177.686
177.718
177.707
177.733
177.756
177.746
177.816
177.837
177.82
177.892
177.93
177.91
177.949
178.021
177.99
178.024
178.134
178.149
178.12
178.061
178.266
178.36
178.253
178.195
178.195
178.453
178.517
178.387
178.305
178.433
178.627
178.597
178.456
178.481
178.714
178.731
178.594
178.589
178.813
178.839
178.711
178.716
178.929
178.94
178.815
178.853
179.053
179.037
178.917
178.999
179.175
179.133
179.023
179.149
179.296
179.23
179.135
179.295
179.415
179.331
179.252
179.437
179.535
179.437
179.372
179.573
179.656
179.55
179.493
179.703
179.778
179.668
179.614
179.829
179.904
179.793
179.734
179.949
180.032
179.925
179.855
180.061
180.162
180.063
179.978
180.166
180.292
180.209
180.106
180.261
180.42
180.362
180.241
180.347
180.546
180.519
180.384
180.429
180.663
180.673
180.535
180.52
180.767
180.822
180.696
180.631
180.849
180.961
180.869
180.763
180.908
181.09
181.048
180.913
180.959
181.204
181.22
181.076
181.043
181.289
181.369
181.255
181.164
181.345
181.486
181.412
181.307
181.344
181.608
181.631
181.486
181.424
181.603
181.785
181.732
181.59
181.592
181.863
181.924
181.781
181.695
181.883
182.049
181.979
181.838
181.907
182.151
182.151
181.988
181.971
182.231
182.293
182.143
182.068
182.291
182.417
182.302
182.184
182.334
182.526
182.464
182.31
182.374
182.623
182.62
182.445
182.429
182.696
182.757
182.591
182.513
182.738
182.872
182.749
182.62
182.763
182.969
182.904
182.736
182.792
183.05
183.046
182.859
182.844
183.115
183.168
182.986
182.919
183.165
183.274
183.116
183.007
183.206
183.368
183.247
183.102
183.243
183.455
183.377
183.203
183.279
183.532
183.505
183.309
183.321
183.597
183.624
183.421
183.376
183.644
183.73
183.542
183.446
183.669
183.82
183.675
183.529
183.672
183.895
183.816
183.625
183.669
183.948
183.951
183.732
183.689
183.965
184.059
183.859
183.745
183.938
184.132
184.011
183.828
183.889
184.169
184.163
183.929
183.877
184.151
184.267
184.066
183.931
184.07
184.313
184.237
184.016
184
184.296
184.371
184.137
184.025
184.193
184.423
184.318
184.105
184.09
184.392
184.468
184.226
184.112
184.255
184.508
184.421
184.193
184.15
184.438
184.559
184.333
184.194
184.263
184.562
184.538
184.282
184.205
184.406
184.627
184.479
184.28
184.238
184.531
184.665
184.434
184.278
184.336
184.644
184.63
184.357
184.274
184.465
184.697
184.544
184.346
184.281
184.497
184.718
184.547
184.356
184.289
184.494
184.728
184.57
184.359
184.291
184.512
184.737
184.565
184.351
184.291
184.556
184.742
184.523
184.334
184.301
184.618
184.733
184.452
184.306
184.346
184.677
184.689
184.373
184.272
184.442
184.711
184.586
184.314
184.259
184.556
184.712
184.449
184.27
184.302
184.641
184.66
184.335
184.229
184.409
184.681
184.541
184.269
184.216
184.527
184.681
184.402
184.227
184.253
184.604
184.629
184.296
184.186
184.334
184.64
184.531
184.235
184.158
184.422
184.645
184.417
184.196
184.15
184.488
184.626
184.322
184.162
184.159
184.527
184.59
184.251
184.129
184.172
184.542
184.545
184.202
184.098
184.186
184.545
184.496
184.164
184.07
184.177
184.533
184.467
184.135
184.042
184.174
184.519
184.418
184.109
184.026
184.094
184.475
184.459
184.099
183.996
184.088
184.459
184.398
184.065
183.979
183.999
184.397
184.418
184.073
183.985
183.909
184.216
184.454
184.189
183.951
183.883
184.223
184.422
184.116
183.917
183.853
184.21
184.373
184.07
183.951
183.878
183.89
184.294
184.301
183.941
183.845
183.806
184.209
184.343
183.979
183.818
183.779
184.182
184.323
183.954
183.776
183.802
184.223
184.266
183.858
183.72
183.924
184.267
184.109
183.754
183.702
184.096
184.253
183.878
183.675
183.818
184.201
184.101
183.709
183.634
184.011
184.203
183.848
183.621
183.706
184.124
184.085
183.669
183.556
183.847
184.144
183.884
183.582
183.54
183.962
184.105
183.705
183.513
183.596
184.029
183.999
183.569
183.45
183.729
184.05
183.809
183.477
183.436
183.869
184.011
183.598
183.402
183.529
183.953
183.872
183.446
183.343
183.692
183.964
183.646
183.356
183.363
183.822
183.891
183.441
183.278
183.485
183.876
183.716
183.316
183.234
183.639
183.864
183.489
183.235
183.268
183.74
183.775
183.313
183.161
183.365
183.773
183.608
183.205
183.104
183.46
183.755
183.431
183.134
183.074
183.524
183.708
183.284
183.068
183.066
183.556
183.636
183.167
183
183.08
183.564
183.536
183.068
182.93
183.105
183.555
183.421
182.981
182.864
183.154
183.531
183.276
182.908
182.81
183.205
183.492
183.128
182.835
182.767
183.232
183.432
182.995
182.768
182.725
183.219
183.369
182.903
182.704
182.67
183.177
183.312
182.835
182.647
182.609
183.12
183.261
182.782
182.591
182.548
183.059
183.212
182.735
182.538
182.49
183.003
183.159
182.686
182.497
182.419
182.902
183.126
182.688
182.466
182.358
182.743
183.089
182.746
182.438
182.324
182.558
183.028
182.83
182.418
182.303
182.401
182.942
182.894
182.404
182.275
182.293
182.855
182.909
182.403
182.252
182.202
182.744
182.911
182.423
182.222
182.139
182.643
182.87
182.428
182.228
182.111
182.304
182.821
182.678
182.187
182.049
182.334
182.774
182.512
182.208
182.131
182.012
182.475
182.726
182.295
182.098
181.979
182.107
182.658
182.558
182.058
181.924
182.009
182.589
182.606
182.02
181.842
182.192
182.61
182.303
181.833
181.928
182.472
182.399
181.853
181.848
182.261
182.267
181.992
181.738
)
;

boundaryField
{
    sides
    {
        type            zeroGradient;
    }
    empty
    {
        type            empty;
    }
}


// ************************************************************************* //
