/*--------------------------------*- C++ -*----------------------------------*\
  =========                 |
  \\      /  F ield         | OpenFOAM: The Open Source CFD Toolbox
   \\    /   O peration     | Website:  https://openfoam.org
    \\  /    A nd           | Version:  13
     \\/     M anipulation  |
\*---------------------------------------------------------------------------*/
FoamFile
{
    format      ascii;
    class       volVectorField;
    location    "0.06";
    object      U_0;
}
// * * * * * * * * * * * * * * * * * * * * * * * * * * * * * * * * * * * * * //

dimensions      [0 1 -1 0 0 0 0];

internalField   nonuniform List<vector> 
1000
(
(33.7593 0 0)
(33.7691 0 0)
(33.7991 0 0)
(33.854 0 0)
(33.9296 0 0)
(34.0203 0 0)
(34.1073 0 0)
(34.1728 0 0)
(34.22 0 0)
(34.2453 0 0)
(34.2591 0 0)
(34.28 0 0)
(34.3172 0 0)
(34.3686 0 0)
(34.4302 0 0)
(34.4975 0 0)
(34.5643 0 0)
(34.6264 0 0)
(34.6817 0 0)
(34.7302 0 0)
(34.7763 0 0)
(34.8246 0 0)
(34.8759 0 0)
(34.9307 0 0)
(34.9872 0 0)
(35.043 0 0)
(35.0992 0 0)
(35.158 0 0)
(35.2165 0 0)
(35.2684 0 0)
(35.311 0 0)
(35.3496 0 0)
(35.401 0 0)
(35.4554 0 0)
(35.4911 0 0)
(35.5347 0 0)
(35.6022 0 0)
(35.6544 0 0)
(35.6752 0 0)
(35.7145 0 0)
(35.7863 0 0)
(35.8287 0 0)
(35.8432 0 0)
(35.9159 0 0)
(36.0138 0 0)
(36.034 0 0)
(36.0485 0 0)
(36.1125 0 0)
(36.1627 0 0)
(36.1966 0 0)
(36.2359 0 0)
(36.2752 0 0)
(36.3242 0 0)
(36.3651 0 0)
(36.4061 0 0)
(36.4566 0 0)
(36.4925 0 0)
(36.5406 0 0)
(36.592 0 0)
(36.6259 0 0)
(36.6755 0 0)
(36.7198 0 0)
(36.7553 0 0)
(36.8086 0 0)
(36.8471 0 0)
(36.8855 0 0)
(36.9398 0 0)
(36.9735 0 0)
(37.0149 0 0)
(37.0683 0 0)
(37.0978 0 0)
(37.1426 0 0)
(37.1958 0 0)
(37.2217 0 0)
(37.2684 0 0)
(37.3218 0 0)
(37.3444 0 0)
(37.392 0 0)
(37.4469 0 0)
(37.4663 0 0)
(37.5129 0 0)
(37.5702 0 0)
(37.5876 0 0)
(37.6313 0 0)
(37.6913 0 0)
(37.7082 0 0)
(37.7489 0 0)
(37.8116 0 0)
(37.8287 0 0)
(37.8685 0 0)
(37.9371 0 0)
(37.9547 0 0)
(37.9892 0 0)
(38.0608 0 0)
(38.0827 0 0)
(38.1112 0 0)
(38.1826 0 0)
(38.2093 0 0)
(38.2351 0 0)
(38.3087 0 0)
(38.3367 0 0)
(38.364 0 0)
(38.4528 0 0)
(38.4807 0 0)
(38.5026 0 0)
(38.6158 0 0)
(38.656 0 0)
(38.6505 0 0)
(38.7602 0 0)
(38.8264 0 0)
(38.7994 0 0)
(38.8873 0 0)
(38.9871 0 0)
(38.956 0 0)
(39.0061 0 0)
(39.1334 0 0)
(39.1232 0 0)
(39.1271 0 0)
(39.2605 0 0)
(39.2963 0 0)
(39.2622 0 0)
(39.3724 0 0)
(39.4665 0 0)
(39.4205 0 0)
(39.4784 0 0)
(39.6201 0 0)
(39.6049 0 0)
(39.5914 0 0)
(39.7391 0 0)
(39.8032 0 0)
(39.738 0 0)
(39.8222 0 0)
(39.9751 0 0)
(39.9405 0 0)
(39.9114 0 0)
(40.0721 0 0)
(40.1603 0 0)
(40.0755 0 0)
(40.12 0 0)
(40.3054 0 0)
(40.3163 0 0)
(40.2289 0 0)
(40.3416 0 0)
(40.5118 0 0)
(40.4643 0 0)
(40.4044 0 0)
(40.5643 0 0)
(40.6962 0 0)
(40.6132 0 0)
(40.5995 0 0)
(40.7871 0 0)
(40.8675 0 0)
(40.7684 0 0)
(40.8101 0 0)
(41.0085 0 0)
(41.0337 0 0)
(40.9355 0 0)
(41.0318 0 0)
(41.2194 0 0)
(41.1938 0 0)
(41.1189 0 0)
(41.2601 0 0)
(41.417 0 0)
(41.3597 0 0)
(41.269 0 0)
(41.4108 0 0)
(41.6647 0 0)
(41.6866 0 0)
(41.5379 0 0)
(41.522 0 0)
(41.7468 0 0)
(41.9212 0 0)
(41.8335 0 0)
(41.741 0 0)
(41.903 0 0)
(42.0908 0 0)
(42.0342 0 0)
(41.9605 0 0)
(42.1197 0 0)
(42.273 0 0)
(42.2015 0 0)
(42.1742 0 0)
(42.3569 0 0)
(42.4549 0 0)
(42.3641 0 0)
(42.3999 0 0)
(42.5958 0 0)
(42.6259 0 0)
(42.5371 0 0)
(42.6407 0 0)
(42.8206 0 0)
(42.7875 0 0)
(42.7314 0 0)
(42.8908 0 0)
(43.0237 0 0)
(42.9474 0 0)
(42.9507 0 0)
(43.1419 0 0)
(43.2069 0 0)
(43.1164 0 0)
(43.1906 0 0)
(43.3825 0 0)
(43.3775 0 0)
(43.3049 0 0)
(43.4441 0 0)
(43.6037 0 0)
(43.5439 0 0)
(43.5166 0 0)
(43.7003 0 0)
(43.8062 0 0)
(43.7158 0 0)
(43.7454 0 0)
(43.95 0 0)
(43.997 0 0)
(43.8983 0 0)
(43.9829 0 0)
(44.1874 0 0)
(44.183 0 0)
(44.0923 0 0)
(44.2224 0 0)
(44.4118 0 0)
(44.3681 0 0)
(44.2959 0 0)
(44.4593 0 0)
(44.626 0 0)
(44.5544 0 0)
(44.5055 0 0)
(44.6922 0 0)
(44.8324 0 0)
(44.7415 0 0)
(44.7191 0 0)
(44.9221 0 0)
(45.0334 0 0)
(44.9295 0 0)
(44.9352 0 0)
(45.1489 0 0)
(45.2303 0 0)
(45.1187 0 0)
(45.1532 0 0)
(45.3725 0 0)
(45.4249 0 0)
(45.31 0 0)
(45.3719 0 0)
(45.5924 0 0)
(45.6184 0 0)
(45.5038 0 0)
(45.5905 0 0)
(45.8094 0 0)
(45.8123 0 0)
(45.7005 0 0)
(45.8083 0 0)
(46.0234 0 0)
(46.0082 0 0)
(45.8998 0 0)
(46.0237 0 0)
(46.2362 0 0)
(46.2086 0 0)
(46.1009 0 0)
(46.2335 0 0)
(46.4475 0 0)
(46.4166 0 0)
(46.304 0 0)
(46.4346 0 0)
(46.658 0 0)
(46.6364 0 0)
(46.5117 0 0)
(46.622 0 0)
(46.862 0 0)
(46.8716 0 0)
(46.7326 0 0)
(46.7924 0 0)
(47.0452 0 0)
(47.1197 0 0)
(46.9834 0 0)
(46.9731 0 0)
(47.2072 0 0)
(47.345 0 0)
(47.2326 0 0)
(47.1833 0 0)
(47.3898 0 0)
(47.544 0 0)
(47.4484 0 0)
(47.4046 0 0)
(47.6034 0 0)
(47.7364 0 0)
(47.6385 0 0)
(47.6279 0 0)
(47.8335 0 0)
(47.9236 0 0)
(47.818 0 0)
(47.8557 0 0)
(48.0661 0 0)
(48.1019 0 0)
(47.9978 0 0)
(48.09 0 0)
(48.2906 0 0)
(48.2719 0 0)
(48.1857 0 0)
(48.328 0 0)
(48.5012 0 0)
(48.4385 0 0)
(48.387 0 0)
(48.5672 0 0)
(48.7 0 0)
(48.6072 0 0)
(48.5984 0 0)
(48.8029 0 0)
(48.8905 0 0)
(48.7818 0 0)
(48.8171 0 0)
(49.0337 0 0)
(49.0784 0 0)
(48.9645 0 0)
(49.0396 0 0)
(49.2592 0 0)
(49.2692 0 0)
(49.1567 0 0)
(49.2631 0 0)
(49.4815 0 0)
(49.4672 0 0)
(49.359 0 0)
(49.4885 0 0)
(49.7053 0 0)
(49.6772 0 0)
(49.5724 0 0)
(49.7133 0 0)
(49.9307 0 0)
(49.8988 0 0)
(49.7923 0 0)
(49.9326 0 0)
(50.1555 0 0)
(50.1294 0 0)
(50.0142 0 0)
(50.14 0 0)
(50.3725 0 0)
(50.3616 0 0)
(50.2393 0 0)
(50.3441 0 0)
(50.5303 0 0)
(50.4976 0 0)
(50.4343 0 0)
(50.4923 0 0)
(50.5408 0 0)
(50.54 0 0)
(50.5698 0 0)
(50.5967 0 0)
(50.6218 0 0)
(50.6959 0 0)
(50.7332 0 0)
(50.7483 0 0)
(50.8291 0 0)
(50.8869 0 0)
(50.8856 0 0)
(50.9496 0 0)
(51.0241 0 0)
(51.0182 0 0)
(51.0889 0 0)
(51.2099 0 0)
(51.2349 0 0)
(51.1804 0 0)
(51.2011 0 0)
(51.4268 0 0)
(51.5463 0 0)
(51.4297 0 0)
(51.3131 0 0)
(51.4116 0 0)
(51.6866 0 0)
(51.7766 0 0)
(51.6229 0 0)
(51.5247 0 0)
(51.7123 0 0)
(51.9426 0 0)
(51.8909 0 0)
(51.7314 0 0)
(51.8135 0 0)
(52.0518 0 0)
(52.0712 0 0)
(51.9226 0 0)
(51.9644 0 0)
(52.1841 0 0)
(52.2154 0 0)
(52.0807 0 0)
(52.1308 0 0)
(52.3373 0 0)
(52.3479 0 0)
(52.2236 0 0)
(52.3024 0 0)
(52.4976 0 0)
(52.4756 0 0)
(52.3641 0 0)
(52.4769 0 0)
(52.6559 0 0)
(52.6007 0 0)
(52.5077 0 0)
(52.6509 0 0)
(52.8087 0 0)
(52.7258 0 0)
(52.6548 0 0)
(52.8222 0 0)
(52.957 0 0)
(52.8538 0 0)
(52.8047 0 0)
(52.9889 0 0)
(53.1019 0 0)
(52.9852 0 0)
(52.9536 0 0)
(53.1492 0 0)
(53.2469 0 0)
(53.1216 0 0)
(53.101 0 0)
(53.3038 0 0)
(53.3932 0 0)
(53.2623 0 0)
(53.2445 0 0)
(53.4517 0 0)
(53.542 0 0)
(53.4087 0 0)
(53.3846 0 0)
(53.5928 0 0)
(53.6932 0 0)
(53.5611 0 0)
(53.5213 0 0)
(53.7262 0 0)
(53.8466 0 0)
(53.7209 0 0)
(53.657 0 0)
(53.8518 0 0)
(53.9997 0 0)
(53.8879 0 0)
(53.7946 0 0)
(53.9699 0 0)
(54.1502 0 0)
(54.063 0 0)
(53.9383 0 0)
(54.0819 0 0)
(54.2933 0 0)
(54.2434 0 0)
(54.0947 0 0)
(54.1913 0 0)
(54.4248 0 0)
(54.4265 0 0)
(54.2673 0 0)
(54.3023 0 0)
(54.5416 0 0)
(54.6094 0 0)
(54.4579 0 0)
(54.4225 0 0)
(54.6444 0 0)
(54.7863 0 0)
(54.6639 0 0)
(54.5603 0 0)
(54.7392 0 0)
(54.9467 0 0)
(54.8788 0 0)
(54.7275 0 0)
(54.8338 0 0)
(55.084 0 0)
(55.0968 0 0)
(54.9326 0 0)
(54.9477 0 0)
(55.1938 0 0)
(55.3026 0 0)
(55.1653 0 0)
(55.0928 0 0)
(55.2942 0 0)
(55.4666 0 0)
(55.3753 0 0)
(55.2397 0 0)
(55.3628 0 0)
(55.6351 0 0)
(55.6664 0 0)
(55.5026 0 0)
(55.4515 0 0)
(55.6821 0 0)
(55.9101 0 0)
(55.8365 0 0)
(55.6674 0 0)
(55.7488 0 0)
(56.0305 0 0)
(56.1172 0 0)
(55.9622 0 0)
(55.8961 0 0)
(56.1246 0 0)
(56.3371 0 0)
(56.2519 0 0)
(56.1091 0 0)
(56.2521 0 0)
(56.5195 0 0)
(56.5218 0 0)
(56.3607 0 0)
(56.4138 0 0)
(56.6882 0 0)
(56.7791 0 0)
(56.6315 0 0)
(56.6048 0 0)
(56.8585 0 0)
(57.0305 0 0)
(56.9156 0 0)
(56.8235 0 0)
(57.0344 0 0)
(57.2719 0 0)
(57.2096 0 0)
(57.0719 0 0)
(57.2211 0 0)
(57.5029 0 0)
(57.5117 0 0)
(57.3542 0 0)
(57.4221 0 0)
(57.7159 0 0)
(57.8136 0 0)
(57.6668 0 0)
(57.6482 0 0)
(57.9212 0 0)
(58.1135 0 0)
(58.0053 0 0)
(57.9124 0 0)
(58.1347 0 0)
(58.3965 0 0)
(58.3467 0 0)
(58.2104 0 0)
(58.3666 0 0)
(58.6668 0 0)
(58.6895 0 0)
(58.5401 0 0)
(58.6224 0 0)
(58.9309 0 0)
(59.0293 0 0)
(58.8875 0 0)
(58.9024 0 0)
(59.1991 0 0)
(59.3674 0 0)
(59.2471 0 0)
(59.2043 0 0)
(59.4743 0 0)
(59.7018 0 0)
(59.6147 0 0)
(59.5263 0 0)
(59.7593 0 0)
(60.0346 0 0)
(59.9899 0 0)
(59.8683 0 0)
(60.0538 0 0)
(60.3627 0 0)
(60.3716 0 0)
(60.2318 0 0)
(60.359 0 0)
(60.6859 0 0)
(60.7595 0 0)
(60.6175 0 0)
(60.6774 0 0)
(61.004 0 0)
(61.1534 0 0)
(61.0257 0 0)
(61.0141 0 0)
(61.3181 0 0)
(61.5478 0 0)
(61.4556 0 0)
(61.3773 0 0)
(61.6342 0 0)
(61.9358 0 0)
(61.904 0 0)
(61.7772 0 0)
(61.9588 0 0)
(62.3078 0 0)
(62.366 0 0)
(62.2239 0 0)
(62.3045 0 0)
(62.6588 0 0)
(62.8325 0 0)
(62.7123 0 0)
(62.6858 0 0)
(62.9974 0 0)
(63.2881 0 0)
(63.2329 0 0)
(63.1221 0 0)
(63.3412 0 0)
(63.7096 0 0)
(63.7683 0 0)
(63.6289 0 0)
(63.7131 0 0)
(64.0874 0 0)
(64.3006 0 0)
(64.196 0 0)
(64.1433 0 0)
(64.4421 0 0)
(64.7942 0 0)
(64.7924 0 0)
(64.6617 0 0)
(64.8169 0 0)
(65.2171 0 0)
(65.3873 0 0)
(65.2698 0 0)
(65.2546 0 0)
(65.5891 0 0)
(65.9377 0 0)
(65.9211 0 0)
(65.7981 0 0)
(65.9725 0 0)
(66.3877 0 0)
(66.566 0 0)
(66.4541 0 0)
(66.4362 0 0)
(66.7701 0 0)
(67.1481 0 0)
(67.1582 0 0)
(67.0352 0 0)
(67.1779 0 0)
(67.5985 0 0)
(67.8402 0 0)
(67.7516 0 0)
(67.6955 0 0)
(67.9865 0 0)
(68.4068 0 0)
(68.4856 0 0)
(68.3656 0 0)
(68.4274 0 0)
(68.8157 0 0)
(69.1694 0 0)
(69.147 0 0)
(69.0424 0 0)
(69.2124 0 0)
(69.6514 0 0)
(69.9171 0 0)
(69.835 0 0)
(69.7728 0 0)
(70.0653 0 0)
(70.5023 0 0)
(70.5987 0 0)
(70.4809 0 0)
(70.5383 0 0)
(70.9316 0 0)
(71.2976 0 0)
(71.2859 0 0)
(71.1896 0 0)
(71.3082 0 0)
(71.7216 0 0)
(72.0799 0 0)
(72.0571 0 0)
(71.9622 0 0)
(72.0797 0 0)
(72.4911 0 0)
(72.8658 0 0)
(72.8495 0 0)
(72.7441 0 0)
(72.8652 0 0)
(73.2855 0 0)
(73.6506 0 0)
(73.6239 0 0)
(73.5172 0 0)
(73.6685 0 0)
(74.111 0 0)
(74.4358 0 0)
(74.3792 0 0)
(74.2867 0 0)
(74.5015 0 0)
(74.9691 0 0)
(75.2127 0 0)
(75.1166 0 0)
(75.0685 0 0)
(75.374 0 0)
(75.8435 0 0)
(75.9716 0 0)
(75.8496 0 0)
(75.8909 0 0)
(76.2902 0 0)
(76.7067 0 0)
(76.7194 0 0)
(76.6029 0 0)
(76.7709 0 0)
(77.2388 0 0)
(77.5367 0 0)
(77.4641 0 0)
(77.4045 0 0)
(77.7086 0 0)
(78.1927 0 0)
(78.3379 0 0)
(78.2233 0 0)
(78.2734 0 0)
(78.6902 0 0)
(79.1146 0 0)
(79.1278 0 0)
(79.0197 0 0)
(79.2069 0 0)
(79.6937 0 0)
(79.9937 0 0)
(79.9228 0 0)
(79.8717 0 0)
(80.1839 0 0)
(80.6839 0 0)
(80.8449 0 0)
(80.7369 0 0)
(80.7777 0 0)
(81.1884 0 0)
(81.6474 0 0)
(81.6938 0 0)
(81.5857 0 0)
(81.7288 0 0)
(82.2038 0 0)
(82.5815 0 0)
(82.552 0 0)
(82.4711 0 0)
(82.705 0 0)
(83.2154 0 0)
(83.5025 0 0)
(83.4295 0 0)
(83.3908 0 0)
(83.6962 0 0)
(84.2162 0 0)
(84.4233 0 0)
(84.3293 0 0)
(84.3334 0 0)
(84.6887 0 0)
(85.2047 0 0)
(85.3538 0 0)
(85.2509 0 0)
(85.2894 0 0)
(85.6813 0 0)
(86.1858 0 0)
(86.2906 0 0)
(86.187 0 0)
(86.2509 0 0)
(86.6595 0 0)
(87.1593 0 0)
(87.2488 0 0)
(87.1431 0 0)
(87.2183 0 0)
(87.6416 0 0)
(88.1308 0 0)
(88.1999 0 0)
(88.1034 0 0)
(88.1753 0 0)
(88.5641 0 0)
(89.0873 0 0)
(89.2167 0 0)
(89.1053 0 0)
(89.1495 0 0)
(89.5502 0 0)
(90.0602 0 0)
(90.1613 0 0)
(90.0628 0 0)
(90.1105 0 0)
(90.4654 0 0)
(90.9985 0 0)
(91.1762 0 0)
(91.0943 0 0)
(91.1109 0 0)
(91.3383 0 0)
(91.8488 0 0)
(92.2361 0 0)
(92.1951 0 0)
(92.1073 0 0)
(92.3265 0 0)
(92.853 0 0)
(93.2006 0 0)
(93.143 0 0)
(93.0764 0 0)
(93.3167 0 0)
(93.8467 0 0)
(94.1644 0 0)
(94.1295 0 0)
(94.1324 0 0)
(94.2581 0 0)
(94.6141 0 0)
(95.1396 0 0)
(95.3005 0 0)
(95.2063 0 0)
(95.2277 0 0)
(95.5325 0 0)
(96.0871 0 0)
(96.3656 0 0)
(96.2759 0 0)
(96.237 0 0)
(96.5278 0 0)
(97.082 0 0)
(97.3647 0 0)
(97.2707 0 0)
(97.2345 0 0)
(97.5846 0 0)
(98.1383 0 0)
(98.3181 0 0)
(98.1935 0 0)
(98.2432 0 0)
(98.7061 0 0)
(99.1868 0 0)
(99.2066 0 0)
(99.0841 0 0)
(99.31 0 0)
(99.8566 0 0)
(100.148 0 0)
(100.047 0 0)
(100.028 0 0)
(100.446 0 0)
(100.956 0 0)
(101.016 0 0)
(100.883 0 0)
(101.067 0 0)
(101.605 0 0)
(101.931 0 0)
(101.841 0 0)
(101.792 0 0)
(102.174 0 0)
(102.709 0 0)
(102.815 0 0)
(102.677 0 0)
(102.785 0 0)
(103.291 0 0)
(103.717 0 0)
(103.681 0 0)
(103.57 0 0)
(103.831 0 0)
(104.39 0 0)
(104.663 0 0)
(104.552 0 0)
(104.522 0 0)
(104.915 0 0)
(105.461 0 0)
(105.574 0 0)
(105.433 0 0)
(105.531 0 0)
(106.035 0 0)
(106.483 0 0)
(106.459 0 0)
(106.342 0 0)
(106.604 0 0)
(107.17 0 0)
(107.441 0 0)
(107.326 0 0)
(107.31 0 0)
(107.733 0 0)
(108.269 0 0)
(108.347 0 0)
(108.208 0 0)
(108.356 0 0)
(108.896 0 0)
(109.297 0 0)
(109.238 0 0)
(109.149 0 0)
(109.476 0 0)
(110.05 0 0)
(110.252 0 0)
(110.119 0 0)
(110.155 0 0)
(110.63 0 0)
(111.141 0 0)
(111.169 0 0)
(111.034 0 0)
(111.238 0 0)
(111.804 0 0)
(112.158 0 0)
(112.072 0 0)
(112.003 0 0)
(112.364 0 0)
(112.943 0 0)
(113.117 0 0)
(112.98 0 0)
(113.026 0 0)
(113.506 0 0)
(114.022 0 0)
(114.05 0 0)
(113.912 0 0)
(114.082 0 0)
(114.635 0 0)
(115.049 0 0)
(114.991 0 0)
(114.886 0 0)
(115.154 0 0)
(115.741 0 0)
(116.051 0 0)
(115.945 0 0)
(115.889 0 0)
(116.238 0 0)
(116.832 0 0)
(117.046 0 0)
(116.915 0 0)
(116.913 0 0)
(117.332 0 0)
(117.912 0 0)
(118.035 0 0)
(117.892 0 0)
(117.953 0 0)
(118.433 0 0)
(118.976 0 0)
(119.03 0 0)
(118.887 0 0)
(119.016 0 0)
(119.548 0 0)
(120.033 0 0)
(120.018 0 0)
(119.888 0 0)
(120.093 0 0)
(120.667 0 0)
(121.072 0 0)
(121.002 0 0)
(120.901 0 0)
(121.175 0 0)
(121.773 0 0)
(122.097 0 0)
(121.992 0 0)
(121.926 0 0)
(122.244 0 0)
(122.852 0 0)
(123.124 0 0)
(123.004 0 0)
(122.96 0 0)
(123.296 0 0)
(123.904 0 0)
(124.164 0 0)
(124.043 0 0)
(124.003 0 0)
(124.338 0 0)
(124.947 0 0)
(125.216 0 0)
(125.095 0 0)
(125.05 0 0)
(125.38 0 0)
(125.993 0 0)
(126.272 0 0)
(126.154 0 0)
(126.105 0 0)
(126.43 0 0)
(127.045 0 0)
(127.33 0 0)
(127.217 0 0)
(127.167 0 0)
(127.456 0 0)
(128.069 0 0)
(128.415 0 0)
(128.321 0 0)
(128.251 0 0)
(128.474 0 0)
(129.054 0 0)
(129.501 0 0)
(129.455 0 0)
(129.351 0 0)
(129.5 0 0)
(130.024 0 0)
(130.566 0 0)
(130.594 0 0)
(130.463 0 0)
(130.545 0 0)
(131 0 0)
(131.6 0 0)
(131.721 0 0)
(131.581 0 0)
(131.607 0 0)
(132.003 0 0)
(132.622 0 0)
(132.815 0 0)
(132.682 0 0)
(132.672 0 0)
(133.01 0 0)
(133.636 0 0)
(133.92 0 0)
(133.799 0 0)
(133.743 0 0)
(134.033 0 0)
(134.647 0 0)
(134.986 0 0)
(134.9 0 0)
(134.851 0 0)
(135.01 0 0)
(135.519 0 0)
(136.091 0 0)
(136.14 0 0)
(135.978 0 0)
(136.085 0 0)
(136.624 0 0)
(137.135 0 0)
(137.157 0 0)
(137.098 0 0)
(137.185 0 0)
(137.461 0 0)
(138.042 0 0)
(138.388 0 0)
(138.32 0 0)
(138.284 0 0)
(138.429 0 0)
(138.91 0 0)
(139.501 0 0)
(139.588 0 0)
(139.44 0 0)
(139.496 0 0)
(139.953 0 0)
(140.587 0 0)
(140.737 0 0)
(140.564 0 0)
(140.651 0 0)
(141.221 0 0)
(141.727 0 0)
(141.691 0 0)
(141.587 0 0)
(141.991 0 0)
(142.597 0 0)
(142.705 0 0)
(142.586 0 0)
(142.889 0 0)
(143.571 0 0)
(143.593 0 0)
(143.26 0 0)
(143.587 0 0)
)
;

boundaryField
{
    sides
    {
        type            calculated;
        value           nonuniform List<vector> 2((143.587 0 0) (33.7593 0 0));
    }
    empty
    {
        type            empty;
    }
}


// ************************************************************************* //
