/*--------------------------------*- C++ -*----------------------------------*\
  =========                 |
  \\      /  F ield         | OpenFOAM: The Open Source CFD Toolbox
   \\    /   O peration     | Website:  https://openfoam.org
    \\  /    A nd           | Version:  13
     \\/     M anipulation  |
\*---------------------------------------------------------------------------*/
FoamFile
{
    format      ascii;
    class       volScalarField;
    location    "500";
    object      p;
}
// * * * * * * * * * * * * * * * * * * * * * * * * * * * * * * * * * * * * * //

dimensions      [0 2 -2 0 0 0 0];

internalField   nonuniform List<scalar> 
2694
(
-1.2191349
-1.2190668
-1.219011
-1.2189307
-1.2188273
-1.2186962
-1.2185285
-1.2183129
-1.2180347
-1.2176754
-1.2172116
-1.216616
-1.2158586
-1.2149116
-1.2137582
-1.212407
-1.2109107
-1.2093826
-1.2079971
-1.2069819
-1.206646
-1.2066554
-1.2060774
-1.2051666
-1.2050172
-1.2058561
-1.2075662
-1.2103349
-1.21419
-1.2188262
-1.2223681
-1.2222725
-1.2132418
-1.1924551
-1.1516167
-1.0979776
-1.0207048
-0.94143059
-0.83962349
-1.1612006
-1.1612613
-1.1612944
-1.16134
-1.1614108
-1.1615155
-1.1616685
-1.1618907
-1.1622106
-1.1626669
-1.1633115
-1.164211
-1.1654474
-1.1671145
-1.1693078
-1.172105
-1.1755386
-1.1795649
-1.184036
-1.1887321
-1.1934555
-1.1980486
-1.2019321
-1.2046908
-1.2068942
-1.2091757
-1.2119604
-1.2157545
-1.2207175
-1.226274
-1.2298319
-1.2279219
-1.2147002
-1.1875801
-1.1389119
-1.0779921
-0.99278575
-0.91158347
-0.80194
-1.1838466
-1.183915
-1.1839884
-1.1840765
-1.1841817
-1.1843078
-1.1844589
-1.1846397
-1.184856
-1.1851145
-1.1854238
-1.1857946
-1.186241
-1.1867834
-1.1874527
-1.1882945
-1.1893817
-1.1908423
-1.1928121
-1.1953311
-1.1983905
-1.2020002
-1.2060303
-1.2102541
-1.214696
-1.2196281
-1.2254891
-1.2326897
-1.2408176
-1.247863
-1.2493519
-1.239761
-1.2124956
-1.1664108
-1.0968769
-1.0167967
-0.91404826
-0.82608409
-0.7029389
-1.2016133
-1.2016959
-1.2017837
-1.2018898
-1.2020169
-1.2021692
-1.2023517
-1.2025704
-1.2028322
-1.2031456
-1.2035207
-1.2039691
-1.2045049
-1.2051442
-1.2059066
-1.206816
-1.2079028
-1.209215
-1.2108296
-1.2128365
-1.2153368
-1.2184698
-1.2223919
-1.2272665
-1.2333408
-1.2410004
-1.2506475
-1.2620698
-1.2731491
-1.2791979
-1.2728853
-1.2469441
-1.1958948
-1.1218061
-1.0249564
-0.92173259
-0.80129013
-0.70637443
-0.57247616
-1.21807
-1.2181761
-1.2182891
-1.218426
-1.2185903
-1.2187876
-1.2190244
-1.2193088
-1.2196504
-1.2200608
-1.2205541
-1.2211475
-1.2218617
-1.2227219
-1.2237593
-1.2250121
-1.2265276
-1.228365
-1.2306006
-1.2333349
-1.2367034
-1.2408985
-1.2461987
-1.2530133
-1.2619197
-1.2735444
-1.2879409
-1.3032334
-1.3142582
-1.3125224
-1.2881925
-1.2346273
-1.1504942
-1.0430223
-0.91822428
-0.79446322
-0.66256879
-0.56496071
-0.4285257
-1.2357893
-1.2359326
-1.2360859
-1.2362718
-1.2364951
-1.2367634
-1.2370859
-1.2374738
-1.2379405
-1.2385024
-1.2391795
-1.2399963
-1.2409827
-1.2421758
-1.2436217
-1.245378
-1.2475176
-1.2501335
-1.2533459
-1.2573132
-1.2622495
-1.2684591
-1.2763952
-1.2867285
-1.3002765
-1.3174282
-1.3366583
-1.3527449
-1.3560256
-1.3345515
-1.2788713
-1.1869088
-1.0644862
-0.92487791
-0.778679
-0.64347406
-0.51088049
-0.41784765
-0.28982566
-1.2561112
-1.2563064
-1.2565163
-1.2567707
-1.2570765
-1.2574443
-1.2578867
-1.2584193
-1.2590608
-1.2598345
-1.2607683
-1.2618971
-1.2632636
-1.2649213
-1.2669369
-1.2693947
-1.2724025
-1.2760996
-1.2806693
-1.2863587
-1.2935138
-1.3026411
-1.3144857
-1.3299985
-1.3498203
-1.372801
-1.3937622
-1.4022136
-1.3841814
-1.3275133
-1.2280334
-1.0922458
-0.93439053
-0.77216519
-0.61747969
-0.48393827
-0.36261137
-0.28152675
-0.1713032
-1.2799795
-1.2802431
-1.2805284
-1.2808739
-1.2812894
-1.2817894
-1.2823913
-1.2831165
-1.283991
-1.2850466
-1.2863226
-1.2878675
-1.2897415
-1.29202
-1.2947982
-1.2981975
-1.3023747
-1.3075355
-1.3139567
-1.3220238
-1.332297
-1.3455963
-1.3629921
-1.3853359
-1.4117816
-1.4372962
-1.450789
-1.4364135
-1.3793592
-1.2732404
-1.124273
-0.94921605
-0.76853173
-0.59995551
-0.45273179
-0.33379892
-0.23289215
-0.1684189
-0.080516081
-1.3081939
-1.3085456
-1.308929
-1.3093932
-1.3099518
-1.3106241
-1.3114341
-1.3124107
-1.3135894
-1.315014
-1.3167383
-1.3188294
-1.3213711
-1.324469
-1.3282576
-1.3329106
-1.3386557
-1.3457985
-1.3547641
-1.3661662
-1.3808981
-1.4001329
-1.4248835
-1.4545371
-1.4841442
-1.5021411
-1.4911963
-1.4339397
-1.3216344
-1.1600669
-0.96799616
-0.76955826
-0.58582852
-0.42938771
-0.30345346
-0.20769419
-0.13083666
-0.083637244
-0.017018126
-1.3415807
-1.3420452
-1.3425559
-1.3431741
-1.3439183
-1.3448147
-1.3458953
-1.3471994
-1.3487751
-1.3506819
-1.3529937
-1.3558027
-1.3592251
-1.3634088
-1.3685448
-1.3748833
-1.3827606
-1.392644
-1.4052052
-1.4214144
-1.4425376
-1.4696941
-1.5023913
-1.5356373
-1.5573834
-1.5490209
-1.491022
-1.3724791
-1.1985962
-0.99000775
-0.77424772
-0.5759662
-0.40988205
-0.28015491
-0.1828009
-0.1123646
-0.057609927
-0.024794942
0.024952021
-1.3811263
-1.3817354
-1.382412
-1.3832312
-1.3842178
-1.3854072
-1.3868423
-1.3885761
-1.3906739
-1.3932168
-1.3963061
-1.4000693
-1.404669
-1.4103149
-1.4172827
-1.4259438
-1.4368145
-1.4506346
-1.4684579
-1.4916395
-1.5213436
-1.557041
-1.5934856
-1.6179851
-1.6107838
-1.5506386
-1.4249004
-1.2384561
-1.0136787
-0.78146065
-0.5694703
-0.39448781
-0.26074116
-0.16375727
-0.094715627
-0.045974131
-0.0081009274
0.014700426
0.052514044
-1.428051
-1.4288485
-1.4297445
-1.4308308
-1.4321398
-1.4337194
-1.4356277
-1.4379365
-1.4407353
-1.4441354
-1.4482777
-1.4533417
-1.4595595
-1.4672374
-1.4767898
-1.4887946
-1.5040762
-1.5237858
-1.5493422
-1.581907
-1.6207074
-1.6598687
-1.6857872
-1.6776137
-1.612844
-1.4778487
-1.2777228
-1.0368203
-0.78907575
-0.5647719
-0.38211561
-0.24506709
-0.14817252
-0.081380382
-0.034846415
-0.0015647195
0.025094504
0.041751123
0.071320455
-1.4840811
-1.4851286
-1.4863208
-1.4877704
-1.4895188
-1.4916312
-1.4941874
-1.4972866
-1.5010527
-1.5056428
-1.5112576
-1.518158
-1.5266902
-1.5373256
-1.5507233
-1.5678154
-1.5898675
-1.6183412
-1.6541877
-1.6961575
-1.7374723
-1.7630243
-1.7507468
-1.677525
-1.5298221
-1.3139427
-1.0565518
-0.79432763
-0.55968577
-0.37115216
-0.23205401
-0.13557231
-0.070601776
-0.026415948
0.0050116729
0.028617386
0.048336473
0.061332647
0.084819345
-1.5515694
-1.5529559
-1.5545584
-1.5565149
-1.5588784
-1.5617396
-1.5652108
-1.5694328
-1.5745842
-1.5808951
-1.5886665
-1.5983013
-1.6103519
-1.6255882
-1.6450779
-1.6702048
-1.7024028
-1.7422283
-1.7873673
-1.829573
-1.8519761
-1.8311681
-1.7439571
-1.578496
-1.3437277
-1.069187
-0.79404626
-0.55152173
-0.35971782
-0.22043749
-0.12515145
-0.061888016
-0.019520594
0.010222916
0.032561735
0.050379228
0.065693533
0.07628311
0.094847123
-1.6336957
-1.635572
-1.6377813
-1.6404934
-1.6437786
-1.6477676
-1.6526261
-1.6585647
-1.665857
-1.6748643
-1.6860743
-1.7001569
-1.7180332
-1.7409241
-1.770275
-1.8073465
-1.8519057
-1.899881
-1.9405103
-1.9549061
-1.9188341
-1.8099494
-1.6198966
-1.3622471
-1.0700062
-0.78411205
-0.53745212
-0.34590735
-0.20886958
-0.11608769
-0.054736518
-0.013796147
0.014749135
0.03603198
0.05297785
0.067107452
0.079335137
0.088066549
0.10242133
-1.736786
-1.7394021
-1.7425517
-1.7464489
-1.7511906
-1.756977
-1.76407
-1.7728118
-1.7836586
-1.7972276
-1.8143561
-1.8361525
-1.8639716
-1.8991416
-1.9421907
-1.9914767
-2.0405096
-2.0748107
-2.0732585
-2.0115978
-1.8704396
-1.6473084
-1.3623531
-1.0529195
-0.76003235
-0.514423
-0.32773405
-0.1962279
-0.10758642
-0.048679416
-0.0089638665
0.018823253
0.039394436
0.055612775
0.06906186
0.080536899
0.090379195
0.097499822
0.10821013
-1.8692909
-1.8731156
-1.8778497
-1.883772
-1.8910348
-1.8999756
-1.9110527
-1.9248754
-1.9422532
-1.9642335
-1.9920788
-2.027079
-2.0700213
-2.1199465
-2.1723035
-2.2164493
-2.2346504
-2.2040535
-2.1016376
-1.9144827
-1.6491448
-1.3336855
-1.0099359
-0.71711896
-0.47983783
-0.3037648
-0.18157964
-0.099049045
-0.043240332
-0.0047549219
0.022596613
0.042798999
0.058488515
0.071322757
0.082218376
0.091592007
0.099479666
0.10512809
0.11271184
-2.048834
-2.0548558
-2.0625634
-2.0723691
-2.0845425
-2.0996986
-2.118667
-2.1424768
-2.1723055
-2.2092912
-2.253982
-2.3053956
-2.3595746
-2.4074017
-2.4333897
-2.416935
-2.3354144
-2.1714806
-1.9229303
-1.6082849
-1.2637526
-0.93262434
-0.65020351
-0.43141542
-0.27357364
-0.16456341
-0.089992827
-0.037980085
-0.00081856169
0.026240967
0.046337295
0.06172015
0.074035546
0.08435132
0.093228226
0.10085285
0.10708504
0.11136411
0.11631229
-2.3090517
-2.3194825
-2.3333511
-2.3513237
-2.3737929
-2.4016695
-2.4359603
-2.4773818
-2.5257775
-2.579533
-2.634072
-2.6798249
-2.702029
-2.681765
-2.5981555
-2.4341381
-2.1846798
-1.8628105
-1.4999878
-1.1385286
-0.81751473
-0.55999708
-0.36986071
-0.2373219
-0.14534695
-0.080075073
-0.032342908
0.0033017421
0.030048733
0.050131407
0.065383036
0.077315846
0.087080633
0.095400447
0.10260827
0.10873441
0.11353305
0.11654051
0.1193108
-2.7158421
-2.736034
-2.7634544
-2.7985461
-2.8405748
-2.888969
-2.9422533
-2.9968554
-3.0456751
-3.0776292
-3.0778653
-3.0286008
-2.9117757
-2.7140687
-2.433138
-2.0824818
-1.6918686
-1.3011639
-0.94966527
-0.66392662
-0.45085795
-0.30122711
-0.19794937
-0.12435111
-0.068853233
-0.025560995
0.0083015536
0.034472928
0.054428087
0.069584071
0.081254769
0.09054652
0.098284282
0.10495544
0.11073714
0.11555212
0.11908985
0.12092544
0.12191194
-3.4413591
-3.4753356
-3.5193801
-3.5694639
-3.6180439
-3.6568008
-3.6753588
-3.6608044
-3.5982874
-3.4728155
-3.2723057
-2.991599
-2.6366014
-2.2266817
-1.7930959
-1.3738207
-1.0045602
-0.70785783
-0.4883985
-0.33600297
-0.23227087
-0.1583756
-0.10141883
-0.054870429
-0.016248546
0.015238106
0.040231778
0.059655029
0.074557636
0.085979996
0.094879026
0.10206093
0.1081183
0.11337651
0.11790591
0.12155445
0.12396751
0.12471718
0.12419954
-4.7465115
-4.7413594
-4.7206772
-4.6704082
-4.5769535
-4.4276293
-4.2120104
-3.9238642
-3.5633932
-3.1393451
-2.6700329
-2.182329
-1.7084401
-1.2807011
-0.92411559
-0.64968013
-0.45381078
-0.32181574
-0.23332387
-0.16970726
-0.11867376
-0.074481169
-0.035667675
-0.0022970499
0.025606746
0.048361593
0.066521573
0.080757019
0.091769827
0.10026665
0.10692768
0.11234491
0.11694984
0.12095652
0.12436075
0.12695734
0.12835867
0.12811995
0.12641109
-6.0662581
-5.8424979
-5.5123573
-5.0809527
-4.5759257
-4.0208188
-3.4385484
-2.8530585
-2.2892752
-1.7716819
-1.3214531
-0.95270708
-0.67005978
-0.46819696
-0.33330101
-0.24644915
-0.1884353
-0.14450183
-0.10610581
-0.070147932
-0.036723836
-0.0067329706
0.019379189
0.041723404
0.060618977
0.076340447
0.089121585
0.099254691
0.10712501
0.11319136
0.11793651
0.12179814
0.12509115
0.12795031
0.13031855
0.13195453
0.13245676
0.13142844
0.12925556
-3.8747624
-3.6033512
-3.215685
-2.7393731
-2.2298261
-1.7317345
-1.2790919
-0.895006
-0.59175324
-0.37123382
-0.22607668
-0.14177974
-0.099865583
-0.081726087
-0.072075396
-0.061092759
-0.044976064
-0.024655862
-0.00305807
0.017397778
0.035676916
0.051825251
0.066278602
0.07930968
0.090910473
0.10093885
0.10928391
0.11596641
0.12114714
0.12509464
0.12813371
0.13058007
0.13265931
0.13444884
0.13585484
0.13661474
0.1363307
0.13467316
0.13223598
4.1428799
3.8574209
3.448614
2.9444629
2.4025745
1.8699156
1.3829947
0.96757413
0.63840224
0.39934721
0.24414234
0.15834113
0.12250685
0.11602636
0.12104521
0.12549485
0.12422807
0.1180101
0.11065518
0.10570084
0.10450663
0.10652529
0.11055644
0.11545591
0.12046246
0.12514652
0.12923638
0.13258027
0.1351445
0.13701396
0.1383604
0.13938668
0.14023968
0.14095073
0.14139879
0.14130811
0.14027625
0.13788171
0.13322534
5.9894842
5.8077126
5.5364146
5.1752897
4.7418865
4.2508812
3.7176908
3.1605633
2.6012646
2.0642766
1.5747642
1.1550353
0.81988261
0.57357777
0.40933199
0.31119949
0.25837307
0.23055181
0.2129402
0.19763557
0.18274852
0.16978943
0.16039419
0.15466004
0.15169165
0.15044712
0.15004056
0.14991247
0.14975641
0.14945763
0.14903122
0.14856874
0.14813968
0.14773418
0.14720903
0.14628135
0.14455029
0.1415967
0.13653243
4.2657127
4.2836938
4.2993832
4.3015908
4.277286
4.2137321
4.0986059
3.9210425
3.673522
3.3542349
2.9694897
2.5352981
2.077072
1.6269524
1.2190478
0.88142383
0.62777126
0.45581022
0.35087793
0.29147776
0.25698661
0.23375042
0.21517796
0.19963776
0.18749503
0.17877471
0.1727144
0.16843868
0.16520103
0.16253473
0.16020989
0.15817173
0.15639674
0.15483198
0.15331296
0.15155337
0.14914641
0.14559409
0.13964794
2.9933946
3.021686
3.0593191
3.10507
3.1556466
3.2074174
3.2548033
3.2896425
3.3009214
3.2749918
3.1967997
3.0523268
2.8323347
2.5368405
2.1789053
1.7850448
1.3912614
1.0363621
0.75012065
0.5429424
0.40785847
0.32727207
0.28003666
0.25022936
0.22904013
0.21273859
0.20010136
0.19050827
0.18320377
0.17748552
0.17281264
0.16890262
0.16557413
0.16270098
0.16008239
0.1574273
0.15433274
0.15028414
0.14398147
2.3443718
2.3576358
2.3753844
2.3982991
2.4265806
2.4608717
2.5016126
2.5485777
2.600424
2.653512
2.7003513
2.7293752
2.7254708
2.6711543
2.549745
2.3508768
2.0768533
1.7468456
1.394315
1.0599463
0.77936147
0.5692332
0.42744257
0.33992023
0.28767627
0.25527589
0.23337916
0.21739012
0.20514603
0.19555945
0.18784708
0.18154341
0.17627753
0.17181609
0.1678913
0.16419341
0.16031506
0.155721
0.14904654
1.9814565
1.9878017
1.9959424
2.0063184
2.019213
2.0352574
2.0552735
2.0802336
2.1111676
2.148875
2.1933783
2.2434977
2.2953832
2.3401598
2.3637443
2.3483276
2.2747951
2.1281127
1.9053107
1.6214864
1.3082111
1.0054907
0.74844664
0.55397428
0.42090334
0.33707537
0.28600717
0.2543332
0.23325078
0.21811299
0.20642542
0.19707759
0.18935986
0.18289887
0.17733652
0.17233613
0.16748734
0.16226168
0.15527641
1.7501417
1.7535978
1.7578444
1.7631468
1.7696465
1.7776452
1.7875474
1.7998858
1.8153577
1.834853
1.8594441
1.8902856
1.928172
1.9726702
2.0214554
2.0680029
2.0990134
2.0963969
2.0407064
1.9159613
1.7187907
1.4644255
1.1841398
0.91561351
0.68968161
0.5193118
0.40211009
0.32731501
0.28068491
0.25126456
0.23138728
0.21701538
0.20582689
0.19675426
0.18911205
0.18245422
0.1763464
0.17028735
0.162904
1.592009
1.594043
1.5964555
1.5994311
1.603047
1.6074543
1.6128484
1.6194818
1.6276882
1.6379136
1.6507593
1.6670281
1.6877441
1.7140843
1.7471061
1.7868102
1.8313095
1.8745888
1.9033744
1.8994864
1.8440832
1.7230597
1.5365897
1.3027763
1.0525305
0.81891184
0.62636963
0.48227387
0.3824757
0.31759913
0.27571351
0.24833736
0.22935405
0.21538748
0.20441438
0.19534439
0.18746358
0.18022047
0.17224073
1.4776993
1.4789535
1.4803986
1.4821691
1.4843108
1.4869075
1.490064
1.4939127
1.498623
1.5044158
1.5115835
1.5205209
1.5317681
1.5460635
1.5643821
1.5878815
1.6176438
1.653634
1.6936977
1.7311509
1.7518136
1.7379513
1.6728974
1.5470309
1.3662713
1.1517435
0.93214422
0.73350539
0.57308408
0.4532876
0.36884207
0.31196171
0.27361148
0.24733281
0.22847945
0.21422428
0.20281724
0.19325096
0.18393422
1.3924391
1.3932258
1.3941108
1.3951915
1.3964957
1.398072
1.3999809
1.4022971
1.4051147
1.4085531
1.4127656
1.4179527
1.4243813
1.4324148
1.4425571
1.455509
1.4722082
1.4937499
1.521075
1.5537885
1.5886906
1.6174823
1.6254368
1.5965353
1.5179955
1.3868436
1.2142955
1.0222385
0.834791
0.66982748
0.53749346
0.43742969
0.36478142
0.31340243
0.27690087
0.25046417
0.23060329
0.21526809
0.20216701
1.3278771
1.3283687
1.3289111
1.3295725
1.3303693
1.3313307
1.3324919
1.3338968
1.3355995
1.3376677
1.3401867
1.3432655
1.3470445
1.3517083
1.3575051
1.3647765
1.3740028
1.3858588
1.4012406
1.4211196
1.446084
1.4748424
1.5027269
1.5196999
1.5118299
1.4665109
1.3765216
1.2457549
1.0880775
0.92261054
0.76688144
0.63185236
0.52260526
0.43781469
0.37364657
0.3256848
0.28944455
0.26200244
0.24010324
1.2785654
1.2788671
1.2791946
1.279594
1.2800746
1.2806536
1.2813518
1.2821947
1.2832136
1.2844473
1.2859441
1.2877645
1.2899851
1.2927041
1.2960492
1.3001894
1.3053545
1.3118657
1.3201813
1.3309448
1.3449755
1.3629697
1.3846953
1.4077355
1.4260588
1.4286895
1.404491
1.34601
1.2518954
1.1299705
0.99348726
0.85656988
0.73030703
0.62082397
0.53052244
0.45795782
0.40023857
0.35505176
0.31891759
1.2406072
1.2407848
1.2409753
1.2412077
1.2414871
1.2418234
1.2422284
1.2427165
1.2433054
1.2440168
1.2448776
1.2459207
1.2471878
1.248731
1.2506167
1.2529303
1.2557847
1.2593307
1.2637742
1.2694088
1.2766617
1.2861092
1.2983573
1.3137007
1.3308017
1.3458583
1.3521516
1.3406438
1.3040486
1.239723
1.150851
1.0455347
0.93394933
0.82502025
0.72545176
0.63821333
0.563938
0.50225153
0.45097079
1.2116
1.211693
1.2117918
1.2119125
1.2120577
1.2122326
1.2124434
1.2126976
1.2130044
1.2133752
1.2138238
1.2143672
1.2150264
1.2158275
1.2168031
1.2179962
1.2194627
1.2212721
1.2235188
1.2263407
1.2299359
1.2345915
1.2407073
1.2487686
1.2590339
1.2708519
1.2819518
1.288334
1.2836992
1.2619934
1.2201338
1.1588211
1.082527
0.99749211
0.91048209
0.82651582
0.74874824
0.67902483
0.61803156
1.1919871
1.1919841
1.1919755
1.1919663
1.1919593
1.1919558
1.191959
1.191973
1.1920044
1.1920621
1.1921596
1.1923157
1.1925566
1.1929178
1.1934469
1.1942053
1.1952681
1.1967245
1.1986717
1.2011941
1.2043508
1.2081893
1.2127528
1.2181038
1.2243581
1.2316021
1.2397854
1.247573
1.2517378
1.2484784
1.2339809
1.2057776
1.163383
1.1084375
1.0444571
0.97521447
0.90426677
0.83529828
0.77246018
1.2553878
1.2553525
1.2553042
1.2552363
1.2551531
1.2550524
1.2549294
1.254779
1.2545944
1.2543674
1.2540875
1.2537416
1.2533137
1.2527842
1.2521301
1.2513257
1.2503445
1.2491635
1.2477704
1.2461737
1.2444142
1.2425781
1.2408039
1.2393043
1.2383491
1.2381716
1.2389511
1.2399274
1.2398071
1.2372876
1.2296611
1.2134225
1.185861
1.146127
1.0951743
1.0352626
0.96979095
0.90453059
0.8451563
-0.76276863
-0.68882363
-0.62464442
-0.56326125
-0.51027488
-0.46173084
-0.41871936
-0.37982275
-0.34488705
-0.31347962
-0.28497632
-0.25965454
-0.23617538
-0.21617167
-0.19650907
-0.72660086
-0.65473025
-0.59398992
-0.53561413
-0.48543276
-0.43930824
-0.39845366
-0.36148882
-0.32826552
-0.29841521
-0.27127301
-0.24724635
-0.22479546
-0.20595014
-0.18678162
-0.63630128
-0.5696137
-0.51688252
-0.465562
-0.42189663
-0.38164901
-0.3460231
-0.31380429
-0.28483044
-0.25885061
-0.23517139
-0.21438148
-0.19467044
-0.17874053
-0.16120304
-0.51908156
-0.45954864
-0.41705156
-0.37444849
-0.33877067
-0.30583487
-0.27673863
-0.25048169
-0.22688741
-0.20582604
-0.18659733
-0.16996445
-0.15386015
-0.14172816
-0.12651643
-0.39092165
-0.33969632
-0.30842512
-0.27514274
-0.24782127
-0.22258579
-0.20035811
-0.18038217
-0.16247871
-0.14662675
-0.13214567
-0.11993777
-0.10774417
-0.099676508
-0.087140923
-0.26811813
-0.22530427
-0.20467361
-0.18018256
-0.16060839
-0.14249993
-0.12660648
-0.11241831
-0.09976736
-0.088720464
-0.078639974
-0.070512856
-0.061993016
-0.057644406
-0.047782274
-0.16321423
-0.1279344
-0.11610723
-0.099010339
-0.085819735
-0.073600349
-0.062920962
-0.053490683
-0.045160805
-0.03805729
-0.031602037
-0.026802275
-0.021341323
-0.019945304
-0.012480335
-0.082316885
-0.053086276
-0.047594163
-0.036099203
-0.027635495
-0.019819912
-0.013035843
-0.0071622026
-0.0020690476
0.0020908728
0.0058291866
0.0081810279
0.011329631
0.010678159
0.016154661
-0.024816311
-0.00016149723
0.0013265207
0.0089164473
0.014164303
0.018922486
0.022985988
0.026361381
0.029166937
0.031252928
0.033066775
0.033734471
0.035234135
0.033325949
0.037219717
0.014130931
0.035303068
0.034502454
0.039464726
0.042604421
0.045291646
0.047479541
0.049110341
0.050300081
0.050924144
0.051373226
0.050891058
0.051217143
0.048599183
0.051237433
0.04038348
0.058733615
0.056681193
0.059814421
0.061514415
0.062728253
0.06354229
0.063875831
0.06385097
0.063379812
0.06280383
0.061489411
0.060935518
0.057913169
0.059534124
0.058661821
0.074569293
0.07181228
0.073548662
0.074140105
0.074181443
0.073872846
0.073142849
0.072123384
0.070763741
0.069359793
0.067389459
0.06612846
0.062840767
0.063615957
0.071994987
0.085717897
0.082524977
0.083068335
0.082673981
0.081669347
0.080355923
0.078691265
0.076812597
0.074696995
0.072593671
0.070074189
0.068216018
0.064716423
0.06477286
0.082135412
0.093874594
0.090353103
0.089770522
0.088405985
0.086409309
0.084167714
0.081669782
0.079043553
0.076278775
0.073575135
0.070582137
0.068204315
0.064512724
0.06394384
0.090125904
0.10000759
0.096142614
0.094420713
0.092068194
0.089130344
0.086048019
0.082823736
0.079556126
0.076233853
0.073007328
0.069595942
0.066753457
0.062880033
0.06175119
0.096648329
0.10468466
0.10036165
0.097459675
0.094124005
0.090329238
0.086516871
0.082675349
0.078857566
0.075045995
0.071348635
0.067554703
0.064284778
0.060239532
0.058596446
0.10216997
0.10824075
0.10328928
0.09919588
0.09493736
0.09040511
0.08597895
0.081609758
0.077301874
0.073038245
0.068897314
0.064742055
0.061072309
0.056870779
0.054751605
0.10700202
0.11087636
0.10513296
0.099906978
0.094839866
0.089697773
0.084749476
0.079902841
0.075127391
0.070421801
0.065849387
0.061349324
0.057308394
0.052975773
0.050422116
0.11133231
0.1127311
0.10609845
0.099872287
0.094131795
0.08847909
0.083053832
0.077736597
0.072487085
0.067336293
0.062343195
0.057520401
0.053146294
0.048718678
0.045781381
0.11523588
0.11391482
0.10640279
0.099353161
0.093054379
0.086939802
0.081035611
0.075224262
0.06948279
0.063885816
0.058492321
0.053380075
0.048723252
0.044245154
0.040984452
0.11872907
0.11451179
0.10624478
0.09856553
0.091781594
0.085205338
0.078788403
0.072447453
0.066199582
0.060166223
0.054404969
0.049047447
0.044168928
0.039687796
0.036169643
0.12229352
0.1149472
0.10602399
0.09783295
0.090546684
0.083437842
0.076431651
0.069507756
0.062737187
0.056281394
0.050190876
0.044638651
0.039605371
0.035165675
0.031459433
0.12790581
0.11711925
0.10710104
0.098068625
0.089926296
0.081989753
0.074180143
0.066545988
0.059202317
0.052324156
0.045941001
0.040250564
0.035134742
0.030779125
0.026963388
0.13546139
0.12155182
0.1096077
0.099152975
0.089638192
0.080530855
0.071730609
0.06331777
0.055413718
0.048168837
0.041576637
0.035843911
0.03074343
0.026532789
0.02272136
-0.18056137
-0.16279431
-0.14825918
-0.1326981
-0.11866042
-0.10501959
-0.092260357
-0.08020344
-0.068888584
-0.058263126
-0.048219025
-0.038690659
-0.029065249
-0.019349318
-0.0073058619
-0.17210853
-0.1553538
-0.14197064
-0.12736656
-0.11414474
-0.10123364
-0.089090898
-0.077569213
-0.066714809
-0.056487615
-0.046790044
-0.037566924
-0.028232309
-0.018803664
-0.0071014669
-0.15024295
-0.1359306
-0.12533476
-0.11314829
-0.10198484
-0.090943827
-0.080409042
-0.070298877
-0.060674583
-0.05152315
-0.042773656
-0.034394499
-0.025871958
-0.017245398
-0.0065123469
-0.12055134
-0.10937262
-0.10242344
-0.093462903
-0.085056885
-0.076537676
-0.068197607
-0.06002742
-0.052107967
-0.044457805
-0.03704255
-0.029858778
-0.022491322
-0.015001581
-0.0056586168
-0.086489379
-0.078542638
-0.075495236
-0.070102883
-0.064785628
-0.059134579
-0.053334627
-0.047438913
-0.041544919
-0.035699018
-0.029906771
-0.02419178
-0.018254986
-0.012173885
-0.0045762395
-0.051833362
-0.046663358
-0.047143463
-0.045153446
-0.042847032
-0.040067266
-0.03687506
-0.033362229
-0.029631914
-0.025746574
-0.021747679
-0.017678999
-0.013365866
-0.0088908089
-0.00331248
-0.019954941
-0.016752241
-0.019899847
-0.020710397
-0.020968937
-0.020741307
-0.019952839
-0.018703339
-0.017085659
-0.015161293
-0.012997254
-0.010646115
-0.008056903
-0.005302688
-0.0019240056
0.0067785623
0.00890447
0.0041694298
0.0014206839
-0.00070906911
-0.0024735697
-0.0036647695
-0.0043628208
-0.0046352236
-0.004524929
-0.0041108667
-0.0034409746
-0.0025796123
-0.0015747534
-0.00047425401
0.027284219
0.029061652
0.023753101
0.019966765
0.016740696
0.013660451
0.011045445
0.0088504284
0.0070409216
0.0056049763
0.0044643609
0.0035879927
0.0028099843
0.0021215365
0.00096987341
0.041646614
0.043515719
0.038379229
0.034302412
0.030674382
0.026936931
0.023481088
0.020295274
0.017374232
0.014739955
0.01232245
0.010115136
0.0078670763
0.0056183736
0.0023417828
0.050718225
0.052840251
0.048287507
0.044411508
0.040887019
0.037026203
0.033244673
0.029550203
0.025952241
0.022498964
0.019128766
0.015860289
0.012374049
0.0087619918
0.0035792094
0.05565498
0.058006398
0.05416777
0.050726901
0.047590236
0.043960993
0.040238455
0.036431172
0.032543548
0.028634288
0.024643394
0.020608107
0.016155073
0.011422818
0.0046283382
0.057567259
0.060047031
0.056879649
0.053918994
0.051266314
0.048046551
0.044617045
0.04097341
0.037097558
0.033040817
0.028734223
0.024221432
0.019087533
0.013504295
0.0054476207
0.057348782
0.05985181
0.057242973
0.05470655
0.052512643
0.049744537
0.046708774
0.043384063
0.039720419
0.035747592
0.031377754
0.026646726
0.021108754
0.014949216
0.0060107714
0.055647689
0.058094685
0.055928548
0.05373092
0.051916914
0.049563585
0.046928917
0.043979496
0.040634108
0.036894201
0.032647852
0.027910791
0.022217015
0.015742778
0.006308653
0.052913966
0.055253452
0.053438464
0.051504512
0.049984557
0.047978477
0.045702562
0.043120142
0.040126801
0.036696713
0.032694888
0.0281095
0.022466666
0.015911742
0.0063496513
0.049463612
0.051664005
0.050136146
0.048414456
0.047118496
0.045391942
0.043416257
0.041160003
0.038506659
0.035409595
0.031717363
0.027388955
0.021957039
0.015518881
0.0061581083
0.045530403
0.047571347
0.046287366
0.04474857
0.043628093
0.042127368
0.040397615
0.038417857
0.036070039
0.033295387
0.029936002
0.02592544
0.020818606
0.014654599
0.0057712779
0.041299594
0.043166545
0.042095822
0.040724726
0.039748754
0.038436204
0.036910752
0.035163149
0.033081431
0.030602622
0.027572813
0.023907372
0.019199109
0.013427226
0.0052352312
0.036927255
0.03860816
0.037725292
0.036514032
0.035662807
0.034513053
0.033163042
0.03161354
0.029762983
0.027549931
0.024833082
0.021518101
0.017249168
0.011951796
0.0045998596
0.032546557
0.034031937
0.03331246
0.032255582
0.031515551
0.030510449
0.029316135
0.027940288
0.026293316
0.024318898
0.021893993
0.018922534
0.015109495
0.010339042
0.0039137802
0.028268919
0.029552587
0.028973318
0.028065198
0.02742534
0.026550181
0.025496468
0.024275905
0.022811374
0.021053239
0.018899478
0.016258869
0.012901607
0.0086864848
0.0032200219
0.024189397
0.025268803
0.024806157
0.024039583
0.023488934
0.02272924
0.021802269
0.020721379
0.019421912
0.017861469
0.015959615
0.013634942
0.01072236
0.0070723708
0.0025529304
0.020344551
0.021211274
0.020831473
0.020192076
0.019714285
0.019051213
0.018234124
0.017276258
0.016125545
0.014747264
0.013082028
0.011062582
0.0085858019
0.005510379
0.0019188254
0.11726499
0.10875999
0.088464241
0.057331237
0.027948598
0.0064595524
-0.0014066996
-0.0026148497
-0.02810659
0.12507948
0.11433884
0.092309666
0.059575973
0.029095327
0.0065105877
-0.0012826414
-0.0024062038
-0.029904254
0.12778332
0.11580499
0.093987564
0.061301586
0.031112756
0.007382453
-0.00062961635
-0.001939557
-0.031922117
0.13262896
0.11945801
0.097365154
0.064257665
0.03395554
0.0087432179
0.00035656845
-0.00090129049
-0.033324204
0.13781509
0.12369419
0.10142282
0.06811008
0.037572259
0.010812147
0.0018216488
0.00058672714
-0.034904359
0.14412078
0.12920167
0.10667031
0.07333334
0.042065957
0.013625021
0.0038125096
0.0026458016
-0.035806276
0.151709
0.13613344
0.11329703
0.08012667
0.047784918
0.017701424
0.0064337508
0.005529888
-0.036122733
0.16087301
0.14472631
0.12148521
0.088378403
0.054579975
0.023593064
0.009755769
0.0091564662
-0.035420785
0.17192504
0.15505894
0.13115827
0.097773708
0.061868789
0.030891426
0.013773041
0.012424512
-0.033569597
0.18780144
0.16926616
0.14408307
0.11008262
0.071879074
0.03975541
0.018841151
0.015904882
-0.028975127
0.21948822
0.19676306
0.1688839
0.13370472
0.093659291
0.058279477
0.033260771
0.025643472
-0.017617088
0.28713246
0.25611772
0.2224213
0.1836844
0.14008662
0.098558959
0.066068653
0.048175907
0.0034339201
0.40591595
0.362439
0.31711178
0.26854111
0.21539793
0.16223827
0.1163771
0.082608531
0.034148257
0.56275226
0.50403874
0.43985256
0.37372686
0.30452605
0.23497246
0.17199022
0.12023987
0.067018265
0.71173642
0.63621596
0.5496368
0.46384316
0.37802763
0.29335712
0.21585889
0.14983447
0.092926225
0.78036291
0.69172461
0.59380996
0.50033474
0.4086626
0.3188085
0.23610682
0.16463074
0.10742412
0.1248344
0.10709306
0.096499671
0.088540835
0.080474537
0.072342297
0.064290481
0.056493767
0.049129007
0.042368875
0.036226459
0.03094162
0.026232623
0.022414646
0.018906677
0.11674207
0.097246026
0.08740673
0.080288097
0.071665388
0.063073992
0.055066325
0.047688484
0.040966271
0.034947193
0.029595721
0.025085323
0.0211091
0.017938647
0.015057029
0.092458221
0.074723037
0.066020591
0.060114612
0.052662949
0.045719551
0.03984257
0.034631445
0.029833373
0.025426917
0.021553456
0.018274239
0.015314049
0.012999268
0.01101247
0.058717709
0.047814552
0.04244157
0.038807454
0.034131483
0.029774731
0.025904527
0.022074264
0.018368613
0.015169429
0.012636476
0.01065952
0.0091009915
0.0079438492
0.0067919852
0.027729749
0.022564322
0.019129663
0.016471963
0.01388414
0.011635181
0.0097669773
0.0082076797
0.0069088911
0.0059130483
0.0051112751
0.0043824396
0.0037054822
0.0032488437
0.0026110386
0.0057407731
0.0047276194
0.0041299315
0.0036496597
0.003116694
0.0025999068
0.002105869
0.001652165
0.001254594
0.00090382666
0.0005796198
0.00029188664
8.1038766e-06
-0.00015257159
-0.00054296313
-0.0016080579
-0.00087763226
-0.00094241097
-0.0011755641
-0.0012661557
-0.0013431162
-0.0014437251
-0.0015386885
-0.0016228592
-0.0017002808
-0.0017725318
-0.0018278571
-0.0018903795
-0.001877721
-0.002032706
-0.0021895603
-0.0017263189
-0.0017681233
-0.0019021239
-0.0019518608
-0.0020046892
-0.0020815781
-0.0021632488
-0.0022472168
-0.0023358603
-0.0024289555
-0.0025199374
-0.0026187436
-0.0026838788
-0.0028291814
-0.026536022
-0.026194599
-0.026040847
-0.025864129
-0.025648262
-0.025415159
-0.025162542
-0.024885704
-0.024582566
-0.0242508
-0.023887621
-0.023489628
-0.023055109
-0.022574854
-0.022068885
0.017064901
0.017688497
0.017325025
0.016765308
0.016318108
0.015708975
0.014962158
0.014090226
0.013053515
0.011825314
0.010365853
0.0086257801
0.0065584103
0.0040469736
0.001335377
0.013912989
0.014257976
0.013923854
0.013454287
0.013046247
0.012502913
0.011838742
0.011064876
0.010153064