/*--------------------------------*- C++ -*----------------------------------*\
  =========                 |
  \\      /  F ield         | OpenFOAM: The Open Source CFD Toolbox
   \\    /   O peration     | Website:  https://openfoam.org
    \\  /    A nd           | Version:  13
     \\/     M anipulation  |
\*---------------------------------------------------------------------------*/
FoamFile
{
    format      ascii;
    class       surfaceScalarField;
    location    "500";
    object      phi;
}
// * * * * * * * * * * * * * * * * * * * * * * * * * * * * * * * * * * * * * //

dimensions      [0 3 -1 0 0 0 0];

internalField   nonuniform List<scalar> 
5270
(
3.4207116e-10
-3.420563e-10
1.1925911e-09
-8.5529544e-10
2.6478665e-09
-1.4707783e-09
5.1469099e-09
-2.5257215e-09
9.4322804e-09
-4.3312164e-09
1.676774e-08
-7.4141073e-09
2.9293762e-08
-1.266063e-08
5.0613179e-08
-2.1549086e-08
8.6738326e-08
-3.6515372e-08
1.4758382e-07
-6.1504755e-08
2.4923169e-07
-1.0275309e-07
4.1717453e-07
-1.697766e-07
6.9054045e-07
-2.7636661e-07
1.126712e-06
-4.4099305e-07
1.8045227e-06
-6.8537673e-07
2.8223098e-06
-1.0293075e-06
4.2853028e-06
-1.4798846e-06
6.2776486e-06
-2.0159844e-06
8.8220013e-06
-2.5755903e-06
1.1842075e-05
-3.0585343e-06
1.5165197e-05
-3.366491e-06
1.837747e-05
-3.2560204e-06
2.0529343e-05
-2.1912141e-06
2.0449461e-05
4.6443167e-08
1.7233213e-05
3.1867658e-06
9.7756223e-06
7.426061e-06
-4.0622462e-06
1.3797256e-05
-2.8215433e-05
2.4103134e-05
-6.9345768e-05
4.1078971e-05
-0.0001360092
6.6622797e-05
-0.00023247784
9.6451647e-05
-0.00034544158
0.0001129879
-0.00041956338
7.4203394e-05
-0.00033723671
-8.2193411e-05
0.00013126605
-0.00046833232
0.0012713337
-0.0011398241
0.003687517
-0.0024160084
0.0075823062
-0.0038943235
-0.0070792694
0.014661823
-4.77118e-10
1.3125344e-10
-1.6742102e-09
3.2697734e-10
-3.739971e-09
5.6569748e-10
-7.2951555e-09
9.7916638e-10
-1.3405822e-08
1.6931862e-09
-2.3892661e-08
2.9250583e-09
-4.1851134e-08
5.0457051e-09
-7.2513079e-08
8.6839e-09
-1.2464802e-07
1.489336e-08
-2.1278422e-07
2.5410193e-08
-3.6059687e-07
4.3024342e-08
-6.0578187e-07
7.2057793e-08
-1.0064273e-06
1.1885144e-07
-1.6479998e-06
1.9197342e-07
-2.6482346e-06
3.0158342e-07
-4.1545086e-06
4.5720099e-07
-6.3265824e-06
6.6404155e-07
-9.3024894e-06
9.2200317e-07
-1.3157168e-05
1.2313803e-06
-1.7874883e-05
1.6039081e-06
-2.3387629e-05
2.0877171e-06
-2.9520299e-05
2.8205937e-06
-3.5986359e-05
4.2266541e-06
-4.3136428e-05
7.1557854e-06
-5.2509397e-05
1.2521082e-05
-6.6780328e-05
2.1656334e-05
-9.014397e-05
3.7120514e-05
-0.00012878943
6.2718839e-05
-0.00018982041
0.00010210359
-0.00027634785
0.00015317381
-0.00037804905
0.00019819965
-0.00045221917
0.00018721021
-0.000398366
2.0382493e-05
-3.9162261e-05
-0.00044140894
0.00089587821
-0.001403561
0.0027798156
-0.0030238892
0.0061535034
-0.0057901052
0.011544763
-0.0092858888
-0.015682845
0.020148057
2.6596641e-11
9.9992219e-11
8.792733e-11
2.4737468e-10
1.9113553e-10
4.2623287e-10
3.7404016e-10
7.3405536e-10
6.9699181e-10
1.2637399e-09
1.2657224e-09
2.1745667e-09
2.2633512e-09
3.7391377e-09
4.0017097e-09
6.4234048e-09
6.9982354e-09
1.1021134e-08
1.2075593e-08
1.8879287e-08
2.0448612e-08
3.2271575e-08
3.3671022e-08
5.5008635e-08
5.3095098e-08
9.3413729e-08
7.8055447e-08
1.5783148e-07
1.0127109e-07
2.6483692e-07
9.9152179e-08
4.4021194e-07
1.527143e-08
7.2227396e-07
-2.588519e-07
1.1637003e-06
-8.9719166e-07
1.8314776e-06
-2.1517744e-06
2.8168125e-06
-4.3659655e-06
4.2597108e-06
-7.9700453e-06
6.3837277e-06
-1.340984e-05
9.6269475e-06
-2.1184431e-05
1.4890417e-05
-3.2453018e-05
2.3747186e-05
-4.9748015e-05
3.8907449e-05
-7.7373766e-05
6.4705698e-05
-0.00012079733
0.00010611086
-0.00018220006
0.00016348809
-0.00025045026
0.00022142218
-0.00028120786
0.00022897552
-0.0001729347
7.8979545e-05
0.00025016737
-0.00040264557
0.0012524037
-0.001443534
0.0031956552
-0.0033467299
0.0065349903
-0.0063630114
0.011859296
-0.011114332
0.019778955
-0.017205322
-0.027438997
0.03153512
5.8699053e-12
9.1663559e-11
1.8611912e-11
2.2504239e-10
3.7380502e-11
3.8840222e-10
6.8799727e-11
6.6984607e-10
1.2117029e-10
1.155047e-09
2.0794343e-10
1.9912553e-09
3.5029537e-10
3.4317981e-09
5.8099995e-10
5.9118655e-09
9.4893297e-10
1.0177831e-08
1.5230049e-09
1.7506686e-08
2.3909925e-09
3.0076129e-08
3.6400831e-09
5.1583645e-08
5.2822863e-09
8.8271157e-08
7.0206841e-09
1.5059882e-07
7.5672025e-09
2.5593453e-07
2.7733523e-09
4.3278766e-07
-1.9317114e-08
7.2732374e-07
-9.1073308e-08
1.2129738e-06
-2.9096258e-07
2.0035108e-06
-7.8015778e-07
3.273645e-06
-1.852173e-06
5.2960553e-06
-4.0090244e-06
8.5023904e-06
-8.037777e-06
1.361525e-05
-1.5123403e-05
2.1933373e-05
-2.7244576e-05
3.5825144e-05
-4.7709444e-05
5.9333002e-05
-8.075888e-05
9.7724521e-05
-0.00012764739
0.00015297796
-0.0001764565
0.0002122817
-0.00018165936
0.00022661363
-3.7150983e-05
8.4464151e-05
0.00044263269
-0.000400793
0.0015326067
-0.0014925832
0.003597548
-0.0035084066
0.0070875225
-0.00683668
0.012534859
-0.011810185
0.020569329
-0.019148867
0.031882259
-0.028518071
-0.04318565
0.047628517
-1.0254032e-11
9.8770535e-11
-3.497784e-11
2.4093202e-10
-7.6418668e-11
4.1658113e-10
-1.4878537e-10
7.1945447e-10
-2.7529572e-10
1.2425974e-09
-4.9672442e-10
2.1462246e-09
-8.8484512e-10
3.7071016e-09
-1.5661952e-09
6.4029684e-09
-2.7642794e-09
1.1057919e-08
-4.8746959e-09
1.9091659e-08
-8.5993925e-09
3.2945175e-08
-1.5187806e-08
5.6803303e-08
-2.6872238e-08
9.7811359e-08
-4.7656655e-08
1.6810231e-07
-8.474701e-08
2.8813149e-07
-1.5114621e-07
4.9208442e-07
-2.7037386e-07
8.3653139e-07
-4.8529776e-07
1.4141744e-06
-8.7571774e-07
2.3757307e-06
-1.5910242e-06
3.9655752e-06
-2.9071073e-06
6.5827956e-06
-5.333006e-06
1.0892345e-05
-9.8041841e-06
1.8044666e-05
-1.8012445e-05
3.0097159e-05
-3.2828864e-05
5.0599956e-05
-5.805366e-05
8.4525122e-05
-9.5034748e-05
0.00013468418
-0.00013272141
0.00019064957
-0.0001272123
0.00020675618
2.6747632e-05
7.263494e-05
0.00051793449
-0.00040673487
0.0016282924
-0.0015111489
0.0037274028
-0.0035916677
0.007256651
-0.0070375935
0.012718961
-0.012298983
0.020685587
-0.019776664
0.031799221
-0.030262632
0.046801981
-0.043520623
-0.063083828
0.066699614
-1.7356589e-11
1.1443316e-10
-5.792191e-11
2.7722799e-10
-1.2698748e-10
4.799553e-10
-2.4701456e-10
8.2966655e-10
-4.5575489e-10
1.4344691e-09
-8.1906777e-10
2.4806939e-09
-1.4520608e-09
4.2911184e-09
-2.5561654e-09
7.4246981e-09
-4.4844497e-09
1.284941e-08
-7.8569351e-09
2.2240753e-08
-1.3764941e-08
3.8496059e-08
-2.4135005e-08
6.661704e-08
-4.2380784e-08
1.152154e-07
-7.4577769e-08
1.9906153e-07
-1.3158815e-07
3.4335735e-07
-2.3290341e-07
5.9082412e-07
-4.1355634e-07
1.0133513e-06
-7.36449e-07
1.7310743e-06
-1.3142978e-06
2.9439029e-06
-2.3493975e-06
4.9852542e-06
-4.2091138e-06
8.4192131e-06
-7.5774937e-06
1.4228483e-05
-1.3747777e-05
2.4175752e-05
-2.5037549e-05
4.1346633e-05
-4.4735156e-05
7.0263974e-05
-7.4411608e-05
0.00011418003
-0.0001046257
0.00016488745
-9.5289441e-05
0.00018130464
5.3166713e-05
5.8284805e-05
0.00052501993
-0.00039923766
0.0015988443
-0.001480571
0.0036380856
-0.0035503885
0.0070658845
-0.0070194511
0.012346441
-0.012318103
0.01998198
-0.019934537
0.030531029
-0.030325619
0.044610972
-0.044342735
0.062998724
-0.061908177
-0.086659656
0.086574059
-2.1699923e-11
1.3727279e-10
-6.9947328e-11
3.3057888e-10
-1.5224186e-10
5.7287468e-10
-2.9543736e-10
9.9093199e-10
-5.4491764e-10
1.7145552e-09
-9.8022622e-10
2.9675678e-09
-1.7412927e-09
5.1384403e-09
-3.0750441e-09
8.9013224e-09
-5.4188945e-09
1.542676e-08
-9.5508222e-09
2.6747392e-08
-1.6860106e-08
4.6392028e-08
-2.9836657e-08
8.0482402e-08
-5.2955714e-08
1.3962339e-07
-9.4275779e-08
2.4214476e-07
-1.6832257e-07
4.1962756e-07
-3.012963e-07
7.2626716e-07
-5.4049702e-07
1.2546726e-06
-9.714758e-07
2.1626041e-06
-1.7496914e-06
3.719065e-06
-3.1610631e-06
6.3873432e-06
-5.7433991e-06
1.0983792e-05
-1.0524633e-05
1.8983277e-05
-1.9383161e-05
3.3002686e-05
-3.5093644e-05
5.7027386e-05
-5.9239165e-05
9.4388784e-05
-8.398133e-05
0.00013891326
-7.3932755e-05
0.00015483775
6.2062277e-05
4.5307218e-05
0.00049808297
-0.00037774658
0.0015013351
-0.0014025043
0.0034184288
-0.0033976741
0.0066443159
-0.0067762802
0.011592829
-0.011967976
0.018691288
-0.019416548
0.028392129
-0.029635431
0.041214921
-0.043148413
0.057757095
-0.060885068
0.07881107
-0.082962043
-0.11302967
0.10518077
-2.8511108e-11
1.6674444e-10
-9.1934445e-11
3.9877157e-10
-2.0040013e-10
6.9170459e-10
-3.8903203e-10
1.1972484e-09
-7.1743687e-10
2.0730756e-09
-1.2898765e-09
3.5911792e-09
-2.289332e-09
6.2245959e-09
-4.0377919e-09
1.0796095e-08
-7.103832e-09
1.8738294e-08
-1.2495547e-08
3.2547455e-08
-2.2008789e-08
5.6575519e-08
-3.8859784e-08
9.8411242e-08
-6.8841021e-08
1.7128494e-07
-1.2244183e-07
2.9824659e-07
-2.1874609e-07
5.1940921e-07
-3.9260668e-07
9.0449559e-07
-7.0792398e-07
1.574649e-06
-1.2826551e-06
2.7408959e-06
-2.3376403e-06
4.7742762e-06
-4.2958267e-06
8.3398632e-06
-7.9791272e-06
1.4653959e-05
-1.4916981e-05
2.5901541e-05
-2.743862e-05
4.5502621e-05
-4.705121e-05
7.6622363e-05
-6.7318864e-05
0.00011464755
-5.7509519e-05
0.00012910418
6.3973632e-05
3.3360465e-05
0.00045749895
-0.00034821325
0.0013731305
-0.0012933805
0.0031344251
-0.0031638065
0.0061008911
-0.0063641519
0.010633388
-0.011308803
0.01707722
-0.018411873
0.025789339
-0.028128706
0.037168607
-0.041014796
0.051709826
-0.057689745
0.069998995
-0.079174359
0.092838874
-0.10580196
-0.14124968
0.12105878
-3.6416448e-11
2.0425004e-10
-1.1822279e-10
4.8506389e-10
-2.6008883e-10
8.4228189e-10
-5.0691328e-10
1.4588674e-09
-9.3691548e-10
2.5281352e-09
-1.6870379e-09
4.3836161e-09
-2.9979396e-09
7.606688e-09
-5.2938048e-09
1.3211145e-08
-9.3251009e-09
2.2967788e-08
-1.6425377e-08
3.9974189e-08
-2.8976229e-08
6.9656671e-08
-5.1255357e-08
1.2153437e-07
-9.0995123e-08
2.1232809e-07
-1.6226987e-07
3.7144661e-07
-2.9089282e-07
6.5069396e-07
-5.2462745e-07
1.1415556e-06
-9.529116e-07
2.0064432e-06
-1.7462439e-06
3.5368229e-06
-3.2373162e-06
6.2653182e-06
-6.0832561e-06
1.1181366e-05
-1.1523633e-05
2.0084746e-05
-2.1479544e-05
3.5844066e-05
-3.727267e-05
6.1281993e-05
-5.3531559e-05
9.2871073e-05
-4.3753543e-05
0.00010486548
6.3983797e-05
2.1369678e-05
0.00041472361
-0.00031736989
0.0012381148
-0.0011715919
0.0028304843
-0.0028857425
0.0055134428
-0.0058467675
0.0095931692
-0.010443899
0.015342418
-0.017058109
0.023022997
-0.026092578
0.032940586
-0.038046392
0.045464103
-0.05353846
0.061087695
-0.073313538
0.080416181
-0.098502918
0.10430208
-0.12968803
-0.17059172
0.13364415
-4.7132388e-11
2.5261899e-10
-1.5421695e-10
5.9644749e-10
-3.4181029e-10
1.0371267e-09
-6.6845819e-10
1.7977383e-09
-1.2381803e-09
3.1183725e-09
-2.2334353e-09
5.4131383e-09
-3.9756334e-09
9.4057723e-09
-7.0329782e-09
1.6362165e-08
-1.2414357e-08
2.8501749e-08
-2.1920258e-08
4.9724916e-08
-3.8782939e-08
8.6904016e-08
-6.8844817e-08
1.5218303e-07
-1.227506e-07
2.6709257e-07
-2.2007854e-07
4.6995968e-07
-3.9726794e-07
8.2938655e-07
-7.2324189e-07
1.4692028e-06
-1.3312832e-06
2.6159471e-06
-2.4855655e-06
4.6916805e-06
-4.7140348e-06
8.4925548e-06
-9.0195768e-06
1.5482959e-05
-1.6956677e-05
2.8014716e-05
-2.9567954e-05
4.8445379e-05
-4.2181612e-05
7.3883992e-05
-3.1782008e-05
8.2459908e-05
6.4620166e-05
8.4546358e-06
0.00037642931
-0.0002904412
0.001111192
-0.0010521238
0.0025359936
-0.0025963766
0.0049342302
-0.0052839657
0.0085597467
-0.0094722866
0.013620774
-0.015504961
0.020300788
-0.023738207
0.028816506
-0.034608476
0.039453285
-0.048683308
0.052589949
-0.066675321
0.068763424
-0.089487267
0.088622479
-0.11836203
0.11307147
-0.1541373
-0.20058872
0.14306851
-6.3065626e-11
3.161421e-10
-2.0814899e-10
7.4362227e-10
-4.6291103e-10
1.295676e-09
-9.0697971e-10
2.2480737e-09
-1.6825593e-09
3.9042634e-09
-3.0396685e-09
6.7871307e-09
-5.4198863e-09
1.1813488e-08
-9.606482e-09
2.0593289e-08
-1.6995989e-08
3.5962874e-08
-3.0093785e-08
6.2936873e-08
-5.3428359e-08
1.1041819e-07
-9.5260638e-08
1.9429213e-07
-1.7083485e-07
3.4307998e-07
-3.0870361e-07
6.0841567e-07
-5.6341116e-07
1.0848697e-06
-1.0417837e-06
1.9484926e-06
-1.9580757e-06
3.5331402e-06
-3.7424393e-06
6.4766041e-06
-7.2050119e-06
1.1954783e-05
-1.3578611e-05
2.1854401e-05
-2.3559512e-05
3.799028e-05
-3.2820982e-05
5.7696641e-05
-2.1011447e-05
6.2058401e-05
6.7128787e-05
-5.7008596e-06
0.00034610307
-0.0002705398
0.001001
-0.0009453503
0.0022690492
-0.0023201714
0.0043958263
-0.0047231419
0.0075877724
-0.0084759044
0.011996934
-0.013881458
0.017745484
-0.021253556
0.02497599
-0.030968817
0.033901496
-0.043534194
0.044828493
-0.059610464
0.058193915
-0.080041002
0.074577673
-0.10587131
0.094667644
-0.1384521
0.11940397
-0.17887398
-0.23094093
0.14975609
-8.6785768e-11
4.026119e-10
-2.8812094e-10
9.4575921e-10
-6.4262338e-10
1.6534027e-09
-1.261567e-09
2.8723125e-09
-2.3446638e-09
4.9960035e-09
-4.2445154e-09
8.7010521e-09
-7.5865669e-09
1.5178424e-08
-1.3486463e-08
2.6530483e-08
-2.3947549e-08
4.6485102e-08
-4.2596907e-08
8.1687395e-08
-7.6069824e-08
1.4406035e-07
-1.3666777e-07
2.5517575e-07
-2.4759827e-07
4.5449348e-07
-4.5363578e-07
8.1526044e-07
-8.4341557e-07
1.4759591e-06
-1.595883e-06
2.7029748e-06
-3.0686143e-06
5.0087232e-06
-5.918785e-06
9.3303127e-06
-1.1077061e-05
1.7116505e-05
-1.8846568e-05
2.9625495e-05
-2.4956785e-05
4.4097295e-05
-1.0893196e-05
4.3621571e-05
7.2314379e-05
-2.1170855e-05
0.00032563351
-0.00025904986
0.00091227106
-0.00085720919
0.0020396878
-0.0020727919
0.0039170898
-0.0041975859
0.00670835
-0.007514406
0.010517846
-0.01228541
0.015419732
-0.018783369
0.02150107
-0.027334948
0.028915702
-0.038383562
0.037914641
-0.052533365
0.048861255
-0.07055725
0.062236555
-0.093416639
0.078645179
-0.12228024
0.098791718
-0.15859888
0.12362468
-0.20370739
-0.26139632
0.15407976
-1.2105767e-10
5.2349314e-10
-4.0557524e-10
1.232607e-09
-9.1084671e-10
2.1659353e-09
-1.7956893e-09
3.7693495e-09
-3.3491124e-09
6.5698239e-09
-6.0851697e-09
1.147115e-08
-1.0922726e-08
2.0072694e-08
-1.951718e-08
3.5219338e-08
-3.4879407e-08
6.2004445e-08
-6.2551779e-08
1.0962134e-07
-1.1289525e-07
1.9483917e-07
-2.056622e-07
3.4866525e-07
-3.7939517e-07
6.2941592e-07
-7.1100789e-07
1.1487981e-06
-1.3554369e-06
2.1234106e-06
-2.6162121e-06
3.9682735e-06
-5.0239976e-06
7.4228072e-06
-9.2374428e-06
1.3551636e-05
-1.5090086e-05
2.2977448e-05
-1.8069769e-05
3.2611372e-05
-8.1038419e-07
2.6838285e-05
8.0887949e-05
-3.8086051e-05
0.00031608732
-0.00025639147
0.00084719426
-0.00079018896
0.0018526046
-0.0018626584
0.0035067148
-0.0037269412
0.0059351977
-0.0066261012
0.009203381
-0.010782616
0.013347981
-0.016430041
0.018417359
-0.023852789
0.024520204
-0.033437857
0.031862476
-0.045725957
0.04074721
-0.061418347
0.051574761
-0.081384997
0.064842876
-0.10668518
0.081154372
-0.13859208
0.10120885
-0.17865377
0.12593916
-0.2284382
-0.29168331
0.15622564
-1.7447805e-10
6.9877023e-10
-5.9527125e-10
1.6584746e-09
-1.3546707e-09
2.936426e-09
-2.6922302e-09
5.1256025e-09
-5.0542002e-09
8.9631732e-09
-9.2440594e-09
1.571353e-08
-1.6716724e-08
2.7633021e-08
-3.0136238e-08
4.8784761e-08
-5.4448372e-08
8.6558715e-08
-9.8992818e-08
1.5456617e-07
-1.8176607e-07
2.7827106e-07
-3.3816817e-07
5.0614179e-07
-6.3877023e-07
9.3174693e-07
-1.2229854e-06
1.7357355e-06
-2.3510978e-06
3.2556711e-06
-4.4389198e-06
6.0621254e-06
-7.8660707e-06
1.0858164e-05
-1.1923064e-05
1.7618857e-05
-1.1495196e-05
2.2560864e-05
1.0207283e-05
1.0919197e-05
9.3876626e-05
-5.6824686e-05
0.00031834697
-0.00026255765
0.0008065606
-0.00074461768
0.001708741
-0.0016923956
0.0031657807
-0.0033197387
0.0052696023
-0.005830815
0.0080536569
-0.0094102099
0.011527416
-0.014256427
0.0157133
-0.020615977
0.020689423
-0.028828973
0.026623383
-0.039371895
0.033767412
-0.05287013
0.042451602
-0.070102805
0.053082718
-0.092016343
0.066148921
-0.11975189
0.082233356
-0.15467688
0.10201847
-0.19843944
0.12640579
-0.25282604
-0.3214967
0.15621855
-2.7306723e-10
9.7342292e-10
-9.5591013e-10
2.3469734e-09
-2.211003e-09
4.2002437e-09
-4.43797e-09
7.3670742e-09
-8.3987784e-09
1.2947951e-08
-1.5486976e-08
2.2841191e-08
-2.826984e-08
4.0480652e-08
-5.154862e-08
7.2169585e-08
-9.4460057e-08
1.2964355e-07
-1.7469748e-07
2.3508701e-07
-3.2695108e-07
4.3098777e-07
-6.1904983e-07
7.9899606e-07
-1.1789672e-06
1.4928901e-06
-2.2241394e-06
2.7828715e-06
-4.0327832e-06
5.0673934e-06
-6.6603522e-06
8.6943752e-06
-8.7410304e-06
1.2945657e-05
-4.264715e-06
1.3151909e-05
2.3568803e-05
-5.2604997e-06
0.0001128475
-7.8344895e-05
0.00033356737
-0.00027752942
0.00079034985
-0.00071932872
0.001606308
-0.0015605742
0.0028897952
-0.0029758975
0.004702975
-0.0051329533
0.0070552698
-0.0081831655
0.0099370937
-0.012292102
0.013355948
-0.017675354
0.017370056
-0.024630161
0.022116055
-0.033575056
0.027801483
-0.045057427
0.034695223
-0.05976404
0.04312415
-0.078532014
0.053478945
-0.10237138
0.066224759
-0.13249823
0.081918231
-0.17037067
0.10121875
-0.21774053
0.12498582
-0.27659354
-0.35050356
0.15399212
-4.4928836e-10
1.4235212e-09
-1.628836e-09
3.5287226e-09
-3.8406129e-09
6.4126866e-09
-7.8170928e-09
1.1344067e-08
-1.4983849e-08
2.0114431e-08
-2.8011167e-08
3.5866161e-08
-5.1939281e-08
6.4401907e-08
-9.6405153e-08
1.1661992e-07
-1.7998014e-07
2.1318811e-07
-3.3826212e-07
3.9331646e-07
-6.3737879e-07
7.3002629e-07
-1.1906868e-06
1.3522133e-06
-2.1582334e-06
2.46039e-06
-3.6411567e-06
4.2659425e-06
-5.2456177e-06
6.6725118e-06
-4.7447262e-06
8.1952464e-06
4.9055748e-06
3.2992801e-06
4.1142993e-05
-2.3077875e-05
0.00013991284
-0.00010401737
0.00036313853
-0.0003015517
0.00079783697
-0.00071220509
0.0015409039
-0.001462375
0.002669862
-0.0026895205
0.0042201523
-0.0045261916
0.006186202
-0.0070990268
0.0085459989
-0.01054301
0.011300242
-0.015046416
0.014495883
-0.020871081
0.018245441
-0.028379817
0.022716675
-0.038046403
0.028124113
-0.050464995
0.034725747
-0.066365863
0.042828203
-0.086634732
0.052797633
-0.11234104
0.065072405
-0.14477346
0.080180033
-0.1854785
0.09875114
-0.2363121
0.12159394
-0.29943654
-0.37834732
0.14943734
-8.3370663e-10
2.255475e-09
-3.1382224e-09
5.8311502e-09
-7.570574e-09
1.0843156e-08
-1.5696327e-08
1.9465744e-08
-3.0600889e-08
3.5010406e-08
-5.8144522e-08
6.3392506e-08
-1.0937209e-07
1.1559608e-07
-2.0480462e-07
2.1199046e-07
-3.8118632e-07
3.894596e-07
-6.9922762e-07
7.1117119e-07
-1.2411885e-06
1.2716893e-06
-2.0616476e-06
2.172232e-06
-2.9849639e-06
3.3831243e-06
-2.9940336e-06
4.2743889e-06
1.1906744e-06
2.4874635e-06
1.7959096e-05
-8.5724978e-06
6.5542591e-05
-4.4281095e-05
0.00017778945
-0.00013531718
0.00040836797
-0.0003345823
0.00082695126
-0.00072011572
0.0015048465
-0.0013900784
0.0024920255
-0.0024495341
0.0038012193
-0.0039986987
0.0054177187
-0.0061426823
0.007316198
-0.0089975149
0.0094950566
-0.012721907
0.011997116
-0.017548549
0.014914839
-0.023788905
0.018381304
-0.031846403
0.022562683
-0.042227916
0.027657538
-0.055559991
0.033901703
-0.072610208
0.041577545
-0.094310778
0.051025128
-0.12178877
0.062654003
-0.15640264
0.0769587
-0.1997832
0.094533307
-0.25388697
0.116126
-0.32102914
-0.40464659
0.14242518
-1.7352686e-09
3.9867698e-09
-6.8190689e-09
1.0915431e-08
-1.691938e-08
2.0958321e-08
-3.5754659e-08
3.8325195e-08
-7.041887e-08
6.9713066e-08
-1.3360621e-07
1.2663993e-07
-2.4662707e-07
2.2870896e-07
-4.4122883e-07
4.0672955e-07
-7.5284454e-07
7.0127361e-07
-1.188785e-06
1.1473864e-06
-1.6022892e-06
1.6855536e-06
-1.357356e-06
1.9277386e-06
1.4013424e-06
6.2493949e-07
1.1239417e-05
-5.5630428e-06
3.8018596e-05
-2.4290668e-05
0.00010044566
-7.0997388e-05
0.00022964216
-0.00017347311
0.00046994478
-0.00037561196
0.00087347066
-0.00073809721
0.0014870211
-0.0013336536
0.0023366345
-0.0022396785
0.0034201448
-0.0035330304
0.0047166142
-0.0052951515
0.0062057193
-0.0076317685
0.0078882546
-0.010680048
0.0098057153
-0.014639406
0.012033164
-0.019776084
0.014672849
-0.026428713
0.017849111
-0.035022804
0.021709645
-0.046088594
0.026431195
-0.060281676
0.032226722
-0.078405884
0.039353995
-0.10143817
0.048125006
-0.13055983
0.058916497
-0.16719427
0.072184004
-0.21305053
0.088475882
-0.27017889
0.10847201
-0.34102493
-0.42899235
0.13281793
-4.1512791e-09
8.1353772e-09
-1.6881751e-08
2.3660448e-08
-4.2188692e-08
4.6314187e-08
-8.7513825e-08
8.3731361e-08
-1.6415223e-07
1.4648284e-07
-2.851479e-07
2.4784444e-07
-4.5571454e-07
3.9959995e-07
-6.3802459e-07
5.8952856e-07
-6.5807552e-07
7.2203312e-07
1.1139053e-09
4.8917621e-07
2.6427352e-06
-9.5478603e-07
1.0196142e-05
-5.6240879e-06
2.8624118e-05
-1.7801165e-05
6.8905389e-05
-4.584204e-05
0.00014924552
-0.00010462773
0.00029635591
-0.00021810327
0.00054374535
-0.00042085619
0.00092583211
-0.00075769145
0.0014679604
-0.00128022
0.00217752
-0.0020432109
0.0030434916
-0.0031056446
0.0040459382
-0.0045354575
0.0051728054
-0.0064219833
0.0064314589
-0.0088903843
0.0078602249
-0.012108802
0.0095190408
-0.016298265
0.011482659
-0.021739802
0.013839741
-0.02878593
0.016695899
-0.037879111
0.020179085
-0.049571926
0.024445397
-0.064548119
0.029684868
-0.083645479
0.036128411
-0.10788177
0.044055834
-0.13848723
0.053805404
-0.17694383
0.065786413
-0.22503121
0.080491757
-0.28488411
0.098524816
-0.35905749
-0.45094696
0.1204797
-9.2644702e-09
1.7400878e-08
-3.6017505e-08
5.0439111e-08
-8.1322601e-08
9.1674843e-08
-1.3995296e-07
1.4245206e-07
-1.8479422e-07
1.9146494e-07
-1.3161394e-07
1.9487553e-07
2.3821812e-07
3.0072439e-08
1.4336868e-06
-6.0552141e-07
4.5447647e-06
-2.3885016e-06
1.1748103e-05
-6.7135003e-06
2.7082256e-05
-1.6288161e-05
5.7496302e-05
-3.6037167e-05
0.00011401798
-7.4321409e-05
0.00021248181
-0.00014430336
0.00037296531
-0.00026510678
0.00061695325
-0.00046208444
0.00096230677
-0.00076620199
0.0014176997
-0.0012130792
0.0019792002
-0.0018417201
0.0026336641
-0.0026976765
0.0033677954
-0.0038397668
0.0041786713
-0.0053462982
0.0050816804
-0.0073249338
0.0061086816
-0.0099173285
0.0073036766
-0.013303774
0.008718103
-0.017712722
0.010411425
-0.023433205
0.012455563
-0.030830179
0.014939402
-0.040363081
0.017972844
-0.052605511
0.021690797
-0.068266216
0.026257727
-0.088212548
0.0318736
-0.1134977
0.038780829
-0.14539443
0.047272814
-0.18543575
0.057704737
-0.23546278
0.070504184
-0.29768341
0.086189531
-0.37474234
-0.47004575
0.10528857
2.1646253e-09
1.523675e-08
3.2732094e-08
1.9872993e-08
1.5384426e-07
-2.9471767e-08
5.0199015e-07
-2.0574891e-07
1.356265e-06
-6.6290356e-07
3.2570518e-06
-1.7060723e-06
7.2018044e-06
-3.9149509e-06
1.4942069e-05
-8.3462189e-06
2.9396377e-05
-1.6843446e-05
5.5161193e-05
-3.2479127e-05
9.8999139e-05
-6.0126889e-05
0.00017008201
-0.00010712026
0.00027960065
-0.00018383875
0.00043931384
-0.00030401263
0.00065918656
-0.00048497263
0.00094458218
-0.00074747203
0.0012940958
-0.001115711
0.001700307
-0.0016192943
0.0021543105
-0.0022957359
0.0026519573
-0.0031953328
0.003198521
-0.0043863207
0.0038107853
-0.0059585231
0.0045130848
-0.0080271739
0.0053336657
-0.010737853
0.0063043427
-0.014274417
0.0074624537
-0.018870826
0.0088541939
-0.024824959
0.01053795
-0.032513969
0.012586837
-0.042412037
0.01509124
-0.055110031
0.018161927
-0.071337064
0.021933953
-0.091984757
0.026571671
-0.11813552
0.032274516
-0.15109733
0.039284211
-0.19244544
0.047893599
-0.24407192
0.058455154
-0.30824494
0.071392949
-0.38767981
-0.48579348
0.087140754
1.4893315e-07
-1.3368911e-07
7.2941683e-07
-5.6066385e-07
2.0568108e-06
-1.3570619e-06
4.6659941e-06
-2.8152386e-06
9.4294156e-06
-5.4267908e-06
1.7713115e-05
-9.9904557e-06
3.1562438e-05
-1.7765231e-05
5.3888783e-05
-3.067381e-05
8.8596018e-05
-5.1552128e-05
0.00014052977
-8.4414228e-05
0.00021514957
-0.0001347473
0.00031784551
-0.0002098151
0.00045282012
-0.00031880949
0.00062187825
-0.00047306364
0.00082373103
-0.00068681636
0.0010545435
-0.00097827742
0.0013098259
-0.001370993
0.0015872034
-0.0018966797
0.0018894971
-0.0025980413
0.002225449
-0.0035312902
0.0026078571
-0.0047687204
0.0030513494
-0.0064019949
0.0035712505
-0.0085470529
0.0041846936
-0.011351279
0.0049130432
-0.015002746
0.0057838686
-0.019741614
0.0068323869
-0.025873418
0.0081029414
-0.03378446
0.0096506424
-0.043959711
0.011543396
-0.057002835
0.013864425
-0.073658231
0.01671536
-0.094835895
0.0202201
-0.12164044
0.024529221
-0.15540662
0.029825607
-0.19774196
0.036331172
-0.25057744
0.044312776
-0.31622678
0.05408603
-0.3974531
-0.49764499
0.065937362
5.2508795e-07
-6.5869933e-07
2.4325772e-06
-2.4681797e-06
6.4045569e-06
-5.3292585e-06
1.3360023e-05
-9.7711028e-06
2.4492922e-05
-1.6560336e-05
4.1289863e-05
-2.6788355e-05
6.5505514e-05
-4.1982175e-05
9.9066005e-05
-6.4235856e-05
0.00014386854
-9.6356225e-05
0.00020148141
-0.00014202813
0.00027281042
-0.00020607598
0.00035780801
-0.00029481007
0.00045541912
-0.00041641517
0.00056398978
-0.00058162658
0.00068201257
-0.00080483118
0.00080919228
-0.0011054518
0.00094760516
-0.0015094048
0.0011016445
-0.0020507198
0.0012772195
-0.0027736124
0.0014806513
-0.0037347091
0.0017180366
-0.0050060865
0.0019957498
-0.0066796941
0.0023216894
-0.0088729949
0.0027064662
-0.011736072
0.0031641549
-0.015460446
0.0037127115
-0.020290147
0.0043745485
-0.026535183
0.0051775416
-0.034587346
0.0061562403
-0.044938312
0.0073532491
-0.058199807
0.0088208731
-0.07512591
0.010623191
-0.096638358
0.012838594
-0.123856
0.015562672
-0.15813094
0.018912028
-0.2010916
0.023028549
-0.2546942
0.028081368
-0.32128021
0.034256486
-0.40362878
-0.50501447
0.041625554
3.8432046e-07
-1.0429514e-06
1.750143e-06
-3.8339837e-06
4.5174769e-06
-8.0965743e-06
9.1930024e-06
-1.4446676e-05
1.6341968e-05
-2.3709438e-05
2.6538565e-05
-3.6985191e-05
4.0287666e-05
-5.5731623e-05
5.7925518e-05
-8.1874141e-05
7.9507644e-05
-0.00011793884
0.00010473242
-0.00016725342
0.00013294531
-0.00023428952
0.00016326466
-0.00032513046
0.00019490218
-0.00044805458
0.00022756596
-0.00061429348
0.00026182211
-0.00083909115
0.0002992568
-0.0011428887
0.00034217245
-0.0015523168
0.00039280623
-0.0021013399
0.000452715
-0.0028334963
0.00052297566
-0.0038049382
0.00060477433
-0.0050878559
0.00070002073
-0.0067749216
0.00081178633
-0.0089847544
0.00094429371
-0.011868582
0.0011028037
-0.015618957
0.001293696
-0.020481027
0.0015247063
-0.026766152
0.0018053519
-0.034867919
0.0021473842
-0.045280252
0.0025653049
-0.058617643
0.0030770261
-0.075637585
0.0037048133
-0.097266153
0.0044763677
-0.12462761
0.0054260447
-0.15908081
0.0065965768
-0.20226248
0.0080407254
-0.2561388
0.0098195708
-0.32306003
0.01198402
-0.40579438
-0.50744176
0.014410445
-4.3435485e-07
-6.0881337e-07
-1.981568e-06
-2.2870452e-06
-5.1278637e-06
-4.9504384e-06
-1.0470686e-05
-9.1039146e-06
-1.8692816e-05
-1.5487176e-05
-3.0512677e-05
-2.5164867e-05
-4.659859e-05
-3.9644738e-05
-6.7444199e-05
-6.1026868e-05
-9.3213522e-05
-9.2167053e-05
-0.00012360472
-0.00013685908
-0.00015785124
-0.00020003973
-0.00019486139
-0.00028811809
-0.00023350922
-0.00040940738
-0.00027320694
-0.00057460128
-0.00031450746
-0.00079780224
-0.00035936643
-0.001098046
-0.00041087632
-0.0015008229
-0.00047234378
-0.0020398794
-0.00054614125
-0.0027596882
-0.00063329606
-0.0037177518
-0.00073447685
-0.0049866288
-0.00085137563
-0.0066579742
-0.0009869641
-0.0088491241
-0.0011457035
-0.011709806
-0.001333435
-0.015431184
-0.0015573806
-0.020257032
-0.0018267127
-0.026496768
-0.0021530823
-0.034541501
-0.0025511585
-0.044882125
-0.0030390855
-0.05812965
-0.0036389558
-0.075037629
-0.0043771186
-0.096527888
-0.0052847827
-0.12371985
-0.0063986759
-0.157967
-0.0077617056
-0.20089977
-0.0094238929
-0.25447719
-0.0114447
-0.32104038
-0.013878515
-0.40336217
-0.50481365
-0.016508579
-5.185192e-07
-9.0333461e-08
-2.4121572e-06
-3.9334885e-07
-6.3825825e-06
-9.7985118e-07
-1.3400437e-05
-2.0858107e-06
-2.4768967e-05
-4.1183013e-06
-4.2178516e-05
-7.7548752e-06
-6.7730417e-05
-1.4092307e-05
-0.00010390144
-2.4855241e-05
-0.00015339751
-4.2670276e-05
-0.00021885317
-7.140253e-05
-0.00030239278
-0.00011649881
-0.00040513421
-0.00018537451
-0.00052673198
-0.00028780618
-0.0006652826
-0.00043604586
-0.00081814417
-0.00064493554
-0.00098321726
-0.00093297033
-0.0011604225
-0.0013236215
-0.0013535697
-0.0018467453
-0.0015699924
-0.0025432843
-0.0018192399
-0.0034685171
-0.0021112213
-0.004694639
-0.0024547907
-0.006314367
-0.0028584661
-0.0084453854
-0.0033334201
-0.011234773
-0.0038956036
-0.014868909
-0.0045662644
-0.019586259
-0.0053730242
-0.02568988
-0.0063505964
-0.033563805
-0.0075421673
-0.043690458
-0.0090009483
-0.056670798
-0.010792026
-0.073246484
-0.012994088
-0.094325736
-0.015701934
-0.1210119
-0.019029205
-0.15463978
-0.023111754
-0.19681755
-0.028111419
-0.24947812
-0.034221548
-0.31493124
-0.041664074
-0.395921
-0.49584144
-0.050636908
-1.093301e-07
1.9072713e-08
-5.4591703e-07
4.3435617e-08
-1.5697656e-06
4.4278109e-08
-3.6388016e-06
-1.6374823e-08
-7.5301852e-06
-2.2637064e-07
-1.4510849e-05
-7.7350648e-07
-2.6566085e-05
-2.0362423e-06
-4.6679039e-05
-4.7414566e-06
-7.9119722e-05
-1.0229011e-05
-0.00012965628
-2.0866048e-05
-0.00020551258
-4.0643752e-05
-0.00031492534
-7.5964498e-05
-0.00046616848
-0.00013656702
-0.00066583619
-0.00023638175
-0.00091690568
-0.00039386594
-0.0012175462
-0.00063232167
-0.0015614453
-0.00097970374
-0.0019412247
-0.0014669398
-0.0023530926
-0.0021313935
-0.0028008193
-0.0030207831
-0.003298639
-0.00419683
-0.003867697
-0.0057453207
-0.004532251
-0.007780816
-0.0053172225
-0.01044974
-0.0062493837
-0.013936635
-0.0073616755
-0.018473807
-0.0086978343
-0.024353516
-0.010314171
-0.031947238
-0.012281802
-0.041722609
-0.014688663
-0.054263772
-0.01764249
-0.07029256
-0.02127375
-0.090694426
-0.02574015
-0.11654548
-0.031231335
-0.14914876
-0.037975018
-0.1900743
-0.046243331
-0.24121046
-0.056360069
-0.30481524
-0.068698913
-0.38358358
-0.48086833
-0.083673403
7.0707227e-09
1.203977e-08
1.5582765e-08
3.5005049e-08
-6.0744283e-09
6.6047065e-08
-1.3365927e-07
1.1139654e-07
-5.3501061e-07
1.7528854e-07
-1.5592881e-06
2.5126422e-07
-3.8965788e-06
3.0180433e-07
-8.8479428e-06
2.1099298e-07
-1.8754764e-05
-3.2077548e-07
-3.7617779e-05
-2.0014764e-06
-7.189638e-05
-6.363988e-06
-0.0001313852
-1.6475972e-05
-0.00022984238
-3.8113168e-05
-0.00038480993
-8.1422058e-05
-0.00061574684
-0.0001629412
-0.00094058862