/*--------------------------------*- C++ -*----------------------------------*\
  =========                 |
  \\      /  F ield         | OpenFOAM: The Open Source CFD Toolbox
   \\    /   O peration     | Website:  https://openfoam.org
    \\  /    A nd           | Version:  13
     \\/     M anipulation  |
\*---------------------------------------------------------------------------*/
FoamFile
{
    format      ascii;
    class       volScalarField;
    location    "39.502951";
    object      omega;
}
// * * * * * * * * * * * * * * * * * * * * * * * * * * * * * * * * * * * * * //

dimensions      [0 0 -1 0 0 0 0];

internalField   nonuniform List<scalar> 
17140
(
4528389.9
731657.66
224626.36
95289.492
48487.731
27617.648
16960.891
10985.531
7400.0525
5136.1132
3649.1195
2641.4608
1941.2071
1444.4368
1085.9384
823.4862
629.00023
483.37771
373.36544
289.61078
225.4151
175.91795
137.55223
107.67378
84.305335
65.957249
51.500361
40.075067
31.025857
23.853849
18.181753
13.726372
10.274069
7.6560593
5.7251287
4.3412679
3.3719985
2.7021169
2.2414499
1.9252666
1.7096138
1.5654555
1.4742649
1.4249185
1.4066165
1.4097071
1.4341253
1.4764474
1.5341732
1.6057332
1.6903953
1.787996
1.8977474
2.0178482
2.1497348
2.3009655
2.4844538
2.7208155
3.0484758
3.4778682
3.7855919
3.8012207
3.5733208
3.1922111
2.857559
4528420.9
731663.27
224628.43
95290.557
48488.374
27618.078
16961.2
10985.765
7400.2375
5136.2652
3649.2483
2641.5732
1941.3079
1444.5295
1086.0256
823.56997
629.08222
483.45926
373.44764
289.69454
225.50114
176.00682
137.64431
107.76924
84.404145
66.059092
51.6046
40.180672
31.131323
23.957125
18.28023
13.817018
10.353839
7.7226096
5.7775708
4.3804437
3.4000115
2.721496
2.2545004
1.9338055
1.7149697
1.5685703
1.4757333
1.4252274
1.4063074
1.4090518
1.4333378
1.4758082
1.5339674
1.6062572
1.6919855
1.79106
1.9026616
2.0249781
2.1602966
2.3187809
2.5191922
2.7894322
3.1880569
3.7559531
4.1811173
4.1460148
3.8484021
3.3975405
2.8662047
4528451.2
731668.25
224629.97
95291.218
48488.718
27618.281
16961.333
10985.861
7400.3122
5136.3282
3649.3054
2641.6279
1941.3627
1444.5861
1086.0854
823.63393
629.1511
483.5337
373.52812
289.78143
225.59467
176.10709
137.75129
107.88271
84.523661
66.183949
51.733748
40.312622
31.26404
24.087921
18.405713
13.933234
10.456762
7.8090374
5.8461366
4.4320348
3.4372208
2.7475449
2.2723708
1.9458686
1.7229699
1.5737527
1.4789201
1.4270697
1.407433
1.4099604
1.4343125
1.4772613
1.5362953
1.6099542
1.6977753
1.7998227
1.9152682
2.0422625
2.1845306
2.3550152
2.578198
2.8872964
3.3858277
4.1484531
4.6125428
4.3434794
4.0639291
3.6517688
3.0082432
4528483
731673.42
224631.58
95291.909
48489.077
27618.494
16961.474
10985.962
7400.3923
5136.3965
3649.368
2641.6887
1941.4241
1444.6501
1086.1535
823.70711
629.23033
483.61969
373.62149
289.88263
225.70404
176.22481
137.87736
108.01693
84.665558
66.332738
51.888228
40.471072
31.424077
24.246362
18.558496
14.075552
10.583613
7.9163097
5.9318684
4.4970326
3.4844797
2.7809497
2.2955925
1.9618606
1.7339217
1.5812369
1.4839966
1.4305439
1.4100582
1.4124701
1.4371297
1.4809613
1.5415081
1.6174775
1.7085897
1.8150068
1.9356494
2.0688609
2.2203842
2.4061562
2.6589398
3.0158912
3.6557999
4.6317558
4.7796086
4.3692885
4.1356589
3.8616037
3.2247626
4528516.9
731678.93
224633.28
95292.631
48489.45
27618.717
16961.622
10986.07
7400.4784
5136.471
3649.437
2641.7562
1941.4931
1444.7225
1086.2307
823.79043
629.32074
483.71802
373.72839
289.99865
225.82957
176.36008
138.02242
108.17159
84.829357
66.504847
52.067359
40.655346
31.61085
24.43205
18.738458
14.244194
10.734983
8.045325
6.0358397
4.5765222
3.5427603
2.8225152
2.3248036
1.9822806
1.7482181
1.591339
1.4912282
1.4358766
1.4143028
1.4167457
1.442161
1.4873289
1.5499687
1.6289196
1.7240704
1.8356351
1.9622944
2.1032122
2.2668498
2.4726698
2.7606284
3.1757735
3.9913704
4.8892381
4.828664
4.0655933
4.026837
3.9286035
3.4588316
4528552.1
731684.6
224635.02
95293.378
48489.839
27618.949
16961.776
10986.184
7400.57
5136.5509
3649.5117
2641.8299
1941.5687
1444.8021
1086.3161
823.88277
629.42113
483.82736
373.84744
290.12801
225.96971
176.51129
138.1848
108.345
85.013347
66.698588
52.269523
40.863951
31.823067
24.643983
18.944974
14.438997
10.911205
8.1968626
6.1591284
4.6716795
3.6131664
2.8731835
2.3607685
2.0077383
1.7663487
1.6044611
1.5009689
1.4434634
1.4208628
1.4230548
1.4495882
1.4965023
1.561791
1.6444559
1.7444783
1.8619427
1.9960521
2.1470732
2.3267217
2.5591032
2.8833719
3.3705532
4.3995168
5.0515848
4.8160706
3.5018981
3.4079894
3.8097757
3.6049629
4528588.7
731690.46
224636.81
95294.148
48490.243
27619.191
16961.938
10986.303
7400.6663
5136.6354
3649.5912
2641.9087
1941.6499
1444.8879
1086.4081
823.98254
629.52978
483.94586
373.97663
290.26857
226.12218
176.67606
138.36203
108.53462
85.214978
66.911441
52.492285
41.094612
32.058698
24.880475
19.176821
14.659303
11.112247
8.3714908
6.3027511
4.7837361
3.6969239
2.9340413
2.4043923
2.0389708
1.788918
1.6211143
1.513671
1.4536934
1.4299547
1.4323588
1.4599084
1.509022
1.577659
1.6649212
1.7707291
1.8956568
2.039852
2.2046498
2.4063325
2.6720272
3.0301979
3.6237156
4.8080322
5.159802
4.7440198
3.1748619
2.4956614
3.3367677
3.5784019
4528626.6
731696.52
224638.66
95294.946
48490.662
27619.441
16962.106
10986.427
7400.7668
5136.7238
3649.6745
2641.9915
1941.7352
1444.9782
1086.5052
824.08789
629.64462
484.07126
374.11349
290.41769
226.28417
176.8514
138.551
108.73725
85.430979
67.140128
52.732431
41.344263
32.314928
25.139087
19.432071
14.903834
11.337586
8.569445
6.4675665
4.913919
3.7953558
3.0063184
2.4567325
2.0768603
1.8166649
1.6419355
1.5299081
1.4670935
1.4420591
1.4447797
1.4738107
1.5257777
1.5987141
1.691769
1.804896
1.9403135
2.0983104
2.2831776
2.5164571
2.8198882
3.2132598
3.9966996
5.1966033
5.2401092
4.6109923
2.7918214
1.7443515
2.3738933
3.3576856
4528664.7
731702.77
224640.59
95295.774
48491.093
27619.7
16962.279
10986.555
7400.8706
5136.8151
3649.7604
2642.0768
1941.8233
1445.0714
1086.6054
824.19666
629.76327
484.20093
374.25519
290.57227
226.45238
177.0338
138.748
108.94901
85.657374
67.380625
52.98596
41.60902
32.588106
25.416539
19.707979
15.170559
11.586049
8.7904705
6.6541403
5.0633554
3.9098307
3.0913722
2.5190053
2.1224522
1.8504872
1.6677178
1.5504188
1.4843894
1.4579425
1.4612243
1.4923592
1.5481543
1.6268056
1.7275115
1.8510417
2.0017786
2.1798446
2.3958803
2.6741352
3.0177622
3.480282
4.568672
5.5746044
5.3258812
4.0683808
2.297606
1.2532288
1.3461563
2.606154
4528704.9
731709.27
224642.6
95296.633
48491.54
27619.967
16962.458
10986.687
7400.9769
5136.9081
3649.8477
2642.1633
1941.9122
1445.1654
1086.7065
824.30638
629.88302
484.33191
374.39846
290.72879
226.62299
177.21921
138.94874
109.16541
85.889496
67.628153
53.248061
41.884137
32.873672
25.708616
20.000863
15.456531
11.855632
9.033629
6.8625643
5.2329323
4.0416765
3.1906489
2.5925805
2.17697
1.89147
1.6994501
1.5761603
1.5065651
1.4786845
1.4829872
1.5171703
1.5783204
1.6649543
1.7766776
1.9163511
2.0899181
2.2996796
2.5654174
2.9047119
3.2991387
3.947485
5.3843566
5.9333939
5.3666619
3.3359815
1.705237
0.91234114
0.79101495
1.1513539
4528746.8
731716.02
224644.67
95297.524
48492.003
27620.243
16962.641
10986.822
7401.0846
5137.0018
3649.935
2642.2492
1942.0003
1445.2582
1086.8061
824.41443
630.00094
484.46095
374.53976
290.88339
226.79183
177.40311
139.14841
109.38137
86.122033
67.877218
53.51313
42.163997
33.166127
26.010097
20.305981
15.757736
12.143297
9.2970688
7.0922251
5.4230991
4.1920433
3.30561
2.6789573
2.2418248
1.9409174
1.7383701
1.6083781
1.534959
1.5058252
1.5119694
1.5507222
1.6197231
1.7181616
1.8469822
2.0127083
2.2218337
2.4845977
2.8277278
3.2498313
3.759193
4.8568026
6.2977013
6.1052426
4.9591879
2.407804
1.1880118
0.65952112
0.51096623
0.57190764
4528789.6
731722.96
224646.82
95298.443
48492.482
27620.527
16962.829
10986.958
7401.1927
5137.0946
3650.0206
2642.3328
1942.0855
1445.3476
1086.9017
824.51798
630.11388
484.58458
374.67528
291.0319
226.95436
177.58062
139.34176
109.5913
86.34908
68.121651
53.774798
42.442123
33.459009
26.314699
20.617446
16.068942
12.444776
9.5777728
7.3415278
5.6336094
4.3617024
3.4376069
2.7797075
2.3186102
2.000387
1.7860329
1.6487101
1.571417
1.5416154
1.5510409
1.596897
1.6779905
1.7950116
1.9523383
2.1599368
2.4271241
2.7794216
3.2388467
3.8071537
4.667811
6.3695553
6.8087621
6.1134648
3.6757225
1.6440512
0.80392518
0.50298061
0.39504342
0.33485846
4528834.7
731730.24
224649.07
95299.399
48492.978
27620.821
16963.021
10987.096
7401.3004
5137.1857
3650.1033
2642.4125
1942.1659
1445.4313
1086.9908
824.6142
630.21868
484.6993
374.80113
291.17004
227.1059
177.74665
139.52328
109.78927
86.564318
68.35477
54.026076
42.711299
33.744986
26.615128
20.928209
16.383628
12.75442
9.8713348
7.6076075
5.8632124
4.5507748
3.5876874
2.8963702
2.4090741
2.0717247
1.8444009
1.6993469
1.6185409
1.5894571
1.6046761
1.6619346
1.7626103
1.9107284
2.1165584
2.3902024
2.757529
3.2551577
3.9179777
4.8529595
6.5133898
7.3976481
6.9575127
5.2131227
2.2378868
1.0075999
0.58481294
0.40804379
0.33764469
0.25536545
4528880.1
731737.66
224651.36
95300.382
48493.488
27621.12
16963.216
10987.234
7401.4062
5137.2735
3650.1815
2642.4864
1942.2393
1445.507
1087.0708
824.70015
630.31209
484.80146
374.91329
291.29339
227.24161
177.89589
139.68724
109.96909
86.761095
68.569488
54.259474
42.963692
34.015974
26.903187
21.230151
16.694015
13.065142
10.17181
7.8860873
6.1093184
4.7583783
3.7563104
3.0302763
2.5150561
2.1571061
1.9159937
1.7632604
1.6801124
1.654674
1.6798346
1.7564981
1.8902463
2.0923649
2.3764016
2.7610236
3.3015985
4.0624488
5.189409
7.0239838
7.9952224
7.6982328
6.4336963
3.0332825
1.3050032
0.68838472
0.44980084
0.33648307
0.2831438
0.2180619
4528926.9
731745.31
224653.72
95301.4
48494.013
27621.427
16963.413
10987.371
7401.5092
5137.3567
3650.2535
2642.5529
1942.3039
1445.5724
1087.1391
824.77299
630.39088
484.88751
375.0078
291.39756
227.35666
178.02306
139.82782
110.12443
86.932577
68.758451
54.467139
43.190986
34.263262
27.169877
21.514154
16.991108
13.368409
10.471527
8.1706398
6.3674687
4.9821319
3.9429428
3.182283
2.638382
2.2590993
2.0041202
1.8447265
1.7621317
1.7455254
1.7883038
1.8993769
2.0916589
2.3894038
2.7968568
3.381458
4.2507987
5.5916464
7.7552716
8.6996911
8.4197772
7.2505074
3.8034963
1.6398406
0.83804481
0.52307581
0.38127669
0.29596954
0.2403742
0.19143863
4528977.9
731753.51
224656.22
95302.458
48494.555
27621.742
16963.613
10987.508
7401.6089
5137.4345
3650.3183
2642.6103
1942.3579
1445.6255
1087.1934
824.83006
630.45208
484.95406
375.08086
291.47831
227.4463
178.12288
139.93921
110.2489
87.071735
68.913999
54.640776
43.384268
34.477359
27.4052
21.769828
17.264316
13.653731
10.760614
8.4527212
6.6310589
5.2177405
4.145614
3.3524407
2.7807387
2.3808123
2.1134076
1.9504172
1.8740972
1.8756746
1.9511973
2.12559
2.426841
2.8825852
3.5093871
4.4953453
6.0723646
8.5612702
9.459699
9.1556102
7.9539467
4.5270819
1.9910795
0.98246407
0.58268557
0.40855612
0.31971645
0.25384871
0.21202323
0.16668915
4529031.7
731762.02
224658.81
95303.556
48495.115
27622.064
16963.814
10987.642
7401.7039
5137.5056
3650.3745
2642.6573
1942.3994
1445.6643
1087.2313
824.86873
630.49271
484.99778
375.12876
291.53147
227.5059
178.1902
140.01568
110.33614
87.171576
69.028443
54.771969
43.534381
34.648378
27.598584
21.986019
17.502081
13.909455
11.027749
8.7218579
6.8911665
5.4585976
4.3604835
3.5396689
2.9436064
2.5262269
2.250686
2.0909915
2.0325033
2.06821
2.2095562
2.5038706
3.0036032
3.7130004
4.8157184
6.6577467
9.40964
10.247361
9.8986589
8.5888246
5.0831497
2.3079757
1.1377781
0.66139514
0.45827046
0.35105019
0.28019495
0.22480837
0.18396548
0.14807568
4529085.9
731770.7
224661.47
95304.689
48495.691
27622.392
16964.016
10987.774
7401.7936
5137.5689
3650.4208
2642.6924
1942.427
1445.6869
1087.2509
824.88659
630.51003
485.01554
375.14793
291.55302
227.53092
178.21992
140.05155
110.37986
87.225128
69.094078
54.85223
43.632029
34.766208
27.739117
22.151035
17.692014
14.122659
11.259837
8.9654625
7.1366189
5.6958379
4.5817348
3.7416934
3.1285363
2.7011371
2.4269981
2.2848293
2.2665066
2.3695616
2.6444637
3.1724957
3.9861562
5.2318646
7.3525628
10.257336
11.046803
10.650551
9.216113
5.5497211
2.5885445
1.2944338
0.74206126
0.50447832
0.38403815
0.30625646
0.24735545
0.20047311
0.16763596
0.13397112
4529139.6
731779.57
224664.21
95305.845
48496.278
27622.725
16964.218
10987.902
7401.877
5137.6236
3650.4562
2642.7143
1942.4391
1445.6918
1087.2502
824.88163
630.50175
485.00478
375.13545
291.53964
227.51752
178.20757
140.04155
110.37381
87.225054
69.102555
54.872328
43.667257
34.820375
27.815943
22.253398
17.821985
14.280636
11.443761
9.1703949
7.355025
5.918995
4.8021611
3.955798
3.3384735
2.9156666
2.6623077
2.567006
2.6277802
2.8760742
3.4234434
4.3491677
5.7588666
8.136798
11.143818
11.866244
11.425838
9.8724327
6.0264581
2.8688748
1.4534694
0.83114674
0.55391997
0.4113974
0.32204428
0.25778199
0.21213422
0.17308247
0.1457991
0.12231266
4529196.7
731788.84
224667.05
95307.047
48496.886
27623.066
16964.421
10988.027
7401.954
5137.6692
3650.48
2642.7221
1942.4347
1445.6776
1087.2278
824.85212
630.46598
484.96343
375.08914
291.48903
227.46339
178.15089
139.98354
110.31605
87.169481
69.051534
54.82872
43.634477
34.802427
27.817551
22.280344
17.879118
14.370775
11.566799
9.3239853
7.5344058
6.1180129
5.0154243
4.1815901
3.5816806
3.1904927
2.9958366
3.0043713
3.2268314
3.789312
4.8300659
6.4146682
9.012809
12.063353
12.720009
12.238282
10.574091
6.5370722
3.1664783
1.6236508
0.92891646
0.61122847
0.44406263
0.34002966
0.27383448
0.22787396
0.19167405
0.1599734
0.13480886
0.11244927
4529258.1
731798.6
224670.03
95308.297
48497.514
27623.414
16964.626
10988.148
7402.024
5137.7048
3650.4911
2642.7148
1942.4126
1445.6429
1087.1821
824.79636
630.40082
484.88937
375.00664
291.3986
227.36566
178.04671
139.87409
110.2029
87.054679
68.9377
54.719093
43.532942
34.71347
27.74608
22.231251
17.8578
14.383345
11.619165
9.4172806
7.6669891
6.2877216
5.2214878
4.4279455
3.8813873
3.5715309
3.5101281
3.7150514
4.3019059
5.4562793
7.2110531
9.9809452
13.017598
13.623889
13.101354
11.328998
7.100434
3.4933655
1.8125562
1.0386042
0.67762782
0.48433822
0.36700276
0.2955542
0.24531046
0.20434408
0.16924999
0.14132674
0.12284612
0.10562972
4529319.5
731808.54
224673.07
95309.581
48498.157
27623.767
16964.829
10988.265
7402.0862
5137.7298
3650.489
2642.6915
1942.3718
1445.5869
1087.1122
824.71334
630.30522
484.78153
374.88686
291.26722
227.2232
177.89395
139.71214
110.03333
86.87965
68.760026
54.542349
43.361511
34.55254
27.601551
22.109545
17.7656
14.327059
11.604876
9.453001
7.7568761
6.4366224
5.4376178
4.7275775
4.2961897
4.1600136
4.3500088
4.9740581
6.2446243
8.16692
11.029687
14.017026
14.587994
14.023537
12.142813
7.7179267
3.8675773
2.0297292
1.1665476
0.75571722
0.53227567
0.39988977
0.31841153
0.25985022
0.2123612
0.17718794
0.1521061
0.13002128
0.11413369
0.1004942
4529381.2
731818.66
224676.2
95310.899
48498.815
27624.127
16965.033
10988.378
7402.1408
5137.7443
3650.4737
2642.6525
1942.3127
1445.5099
1087.0185
824.6037
630.18002
484.64099
374.73117
291.09664
227.03818
177.69521
139.50082
109.81108
86.648756
68.523558
54.304264
43.126747
34.327065
27.392346
21.924498
17.613312
14.216549
11.545306
9.4533084
7.8308926
6.6012932
5.7176561
5.1633142
4.9562544
5.1389999
5.8138826
7.2034193
9.289121
12.167796
15.067747
15.612898
15.006136
13.017478
8.3960484
4.3119384
2.2962165
1.3205501
0.84475955
0.58610869
0.43686507
0.34451081
0.27607165
0.22406053
0.18965871
0.16345052
0.14059635
0.12196803
0.10842415
0.096012957
4529447.3
731829.36
224679.47
95312.269
48499.498
27624.498
16965.239
10988.488
7402.1897
5137.7503
3650.4474
2642.6002
1942.238
1445.415
1086.9047
824.47165
630.03008
484.47336
374.54602
290.89425
226.81902
177.46008
139.25098
109.54836
86.375708
68.24361
54.021865
42.847514
34.057896
27.141493
21.701598
17.429386
14.084
11.478045
9.4670135
7.9526685
6.8672373
6.1806099
5.9053278
6.0884586
6.8249715
8.3374885
10.57309
13.415061
16.186896
16.706411
16.055977
13.957214
9.141582
4.832528
2.6035292
1.4837333
0.93244381
0.64372722
0.48030846
0.37571345
0.29713228
0.24167677
0.20527878
0.17475097
0.14901189
0.12856846
0.11262627
0.10181709
0.092531642
4529517.1
731840.53
224682.88
95313.7
48500.207
27624.881
16965.451
10988.6
7402.2367
5137.7522
3650.4153
2642.5405
1942.1546
1445.3101
1086.7797
824.32741
629.86696
484.29166
374.34604
290.6764
226.58398
177.20888
138.98513
109.27004
86.087895
67.950259
53.728113
42.559874
33.784468
26.892163
21.488258
17.266288
13.98795
11.470728
9.5859753
8.2431164
7.3942313
7.039587
7.2199569
8.0122368
9.6378673
12.013674
14.803968
17.404639
17.878473
17.181011
14.964272
9.9542261
5.4233734
2.9424177
1.6576274
1.0345855
0.71947916
0.53680039
0.41310212
0.32320275
0.26285565
0.21981514
0.18348434
0.15560033
0.13575405
0.12083312
0.10816947
0.098725539
0.090174024
4529588.1
731851.95
224686.39
95315.179
48500.94
27625.278
16965.671
10988.717
7402.288
5137.7573
3650.3859
2642.4833
1942.0739
1445.2084
1086.6586
824.18779
629.7096
484.11714
374.15496
290.46955
226.36239
176.97402
138.73901
109.01536
85.828274
67.690396
53.47407
42.319385
33.567292
26.710447
21.356683
17.204764
14.026988
11.654904
9.9690965
8.8999925
8.4303264
8.5861454
9.4090139
11.115173
13.600883
16.382177
18.771077
19.139593
18.388204
16.043158
10.823675
6.0852367
3.3177066
1.854681
1.157602
0.80894426
0.59540078
0.44980974
0.35089295
0.28590502
0.23588031
0.19548547
0.16685729
0.14614524
0.12879656
0.11343877
0.10206834
0.094386316
0.08757663
4529661.3
731863.83
224690.02
95316.712
48501.706
27625.697
16965.909
10988.85
7402.3545
5137.7787
3650.3741
2642.4459
1942.0153
1445.1317
1086.5656
824.08015
629.5884
483.98343
374.00987
290.31437
226.19877
176.80402
138.56531
108.8414
85.658434
67.530201
53.330563
42.201915
33.48849
26.687969
21.416763
17.38339
14.36997
12.2219
10.842369
10.190601
10.271993
11.074684
12.81162
15.337638
18.160563
20.344425
20.526335
19.678282
17.182871
11.760085
6.8128761
3.7319587
2.0772672
1.2983874
0.90552066
0.65839461
0.49433881
0.38877887
0.31547979
0.25666978
0.21131386
0.18014245
0.15607578
0.13556121
0.11952832
0.10816256
0.099059277
0.092351413
0.086335233
4529737.4
731876.13
224693.81
95318.307
48502.508
27626.144
16966.173
10989.008
7402.448
5137.8297
3650.3956
2642.4458
1941.999
1445.1026
1086.5266
824.0331
629.53516
483.92574
373.94953
290.25342
226.13957
176.74949
138.51908
108.80813
85.644245
67.54342
53.382487
42.307435
33.667511
26.967254
21.832134
17.982774
15.217476
13.403259
12.468512
12.402596
13.114784
14.791696
17.306156
20.108138
22.159222
22.076867
21.083071
18.339224
12.773691
7.6054892
4.1905834
2.3304068
1.4579687
1.0126665
0.73154434
0.55040766
0.43138571
0.34502808
0.27743101
0.2291503
0.19456498
0.16596813
0.14284754
0.12625867
0.11389818
0.10302417
0.094914031
0.089180598
0.084387656
4529816
731888.84
224697.73
95319.968
48503.352
27626.624
16966.467
10989.198
7402.5759
5137.9188
3650.46
2642.4944
1942.0379
1445.1363
1086.5584
824.06605
629.57207
483.96942
374.00302
290.32015
226.22357
176.85561
138.65327
108.97782
85.858819
67.814815
53.72623
42.744357
34.225842
27.685054
22.759236
19.184848
16.780439
15.435488
15.097783
15.65331
17.162556
19.557045
22.339826
24.16218
23.843278
22.62223
19.527067
13.853899
8.4534799
4.6912902
2.6135502
1.6354499
1.1309236
0.81566398
0.6143929
0.47784093
0.37752902
0.30487765
0.25270556
0.21235541
0.17806719
0.15325248
0.1355273
0.12100063
0.10876881
0.099915995
0.093051875
0.087824066
0.083486637
4529897.8
731902.1
224701.79
95321.702
48504.243
27627.141
16966.795
10989.424
7402.7425
5138.0511
3650.5733
2642.5986
1942.1399
1445.2416
1086.6716
824.19124
629.71326
484.13084
374.1893
290.53653
226.47619
177.15177
139.00188
109.38991
86.348309
68.39964
54.429974
43.597723
35.268593
28.968436
24.349169
21.164394
19.250494
18.509534
18.81389
20.032216
22.19464
24.781786
26.371897
25.878207
24.334819
20.768652
14.995528
9.3534865
5.2382998
2.9322339
1.8346781
1.2641666
0.9123227
0.68757273
0.53081047
0.41717039
0.33681366
0.27841334
0.2301481
0.19219035
0.16523217
0.14474198
0.12713639
0.1137856
0.10382756
0.095967714
0.090228847
0.086074272
0.082544258
4529983.7
731915.9
224706.02
95323.512
48505.178
27627.692
16967.155
10989.681
7402.9434
5138.222
3650.7303
2642.7527
1942.2993
1445.4128
1086.8604
824.40315
629.95396
484.40641
374.50655
290.90331
226.90174
177.64718
139.58067
110.06881
87.148545
69.347755
55.559314
44.950384
36.897334
30.938736
26.740358
24.06763
22.760229
22.702431
23.504669
25.30976
27.521821
28.736055
28.012269
26.159835
22.096976
16.194352
10.296566
5.8289484
3.286591
2.055889
1.4123537
1.0213698
0.76948871
0.5913778
0.46308589
0.37286901
0.30556504
0.25192376
0.2104974
0.18051037
0.1552001
0.13536248
0.12090435
0.10990344
0.10096025
0.094004078
0.088390807
0.084511229
0.081522995
4530071.7
731930.11
224710.41
95325.389
48506.155
27628.273
16967.542
10989.965
7403.173
5138.425
3650.9242
2642.9498
1942.5089
1445.6428
1087.1182
824.69621
630.29007
484.79425
374.95602
291.42595
227.51123
178.35996
140.41675
111.05262
88.309872
70.723306
57.193907
46.89848
39.223989
33.718587
30.052708
27.984235
27.323753
27.728343
28.958351
30.65956
31.255371
30.318543
28.073375
23.550043
17.433449
11.25528
6.455004
3.6788407
2.3041523
1.5794503
1.1448608
0.86225768
0.66088367
0.51690942
0.41412634
0.33707652
0.27741315
0.23275908
0.19658284
0.16709745
0.14488444
0.12909097
0.11579166
0.10535064
0.097232012
0.091430257
0.087082332
0.083784694
0.081083738
4530163.2
731944.94
224714.97
95327.344
48507.18
27628.893
16967.965
10990.288
7403.4451
5138.676
3651.1733
2643.2107
1942.7925
1445.9589
1087.4761
825.10549
630.76128
485.3392
375.58834
292.16165
228.36932
179.36324
141.5926
112.43409
89.936621
72.642621
59.461198
49.576867
42.380992
37.417707
34.336486
32.845512
32.673915
33.20586
34.254545
33.955561
32.688901
29.912902
24.986848
18.6247
12.191985
7.1218221
4.125839
2.5903989
1.7691953
1.2827314
0.96598127
0.74037231
0.57898396
0.46191084
0.37323348
0.30691261
0.25667443
0.21541369
0.18154267
0.15765733
0.13827062
0.12279408
0.11080659
0.10201087
0.095063648
0.089594821
0.085425905
0.082627403
0.08038308
4530257.7
731960.23
224719.69
95329.39
48508.27
27629.571
16968.446
10990.672
7403.7855
5139.0049
3651.5118
2643.5745
1943.1946
1446.4111
1087.9901
825.69377
631.43754
486.11903
376.48981
293.20602
229.58184
180.77403
143.23761
114.35598
92.185397
75.27185
62.519299
53.122703
46.460724
42.045559
39.463423
38.303711
38.149862
37.992053
37.039236
35.01489
31.744363
26.452565
19.8354
13.172635
7.886411
4.6517893
2.9165652
1.9763887
1.432282
1.0814288
0.83162749
0.65068872
0.51673
0.41556731
0.34048284
0.28363868
0.23698839
0.20043314
0.17185156
0.14902837
0.13074888
0.11783919
0.10723868
0.099209204
0.092790103
0.088225132
0.084398134
0.081869797
0.079832785
4530355.2
731976.04
224724.59
95331.534
48509.438
27630.32
16969
10991.138
7404.2195
5139.4411
3651.9738
2644.0801
1943.7592
1447.0492
1088.7165
826.52428
632.38976
487.21311
377.74924
294.65851
231.2603
182.71776
145.49256
116.97176
95.208345
78.734906
66.455418
57.559313
51.383409
47.370888
45.028156
43.676085
42.284139
40.186012
37.592363
33.693616
27.961707
21.055649
14.196428
8.7121033
5.2177313
3.2619764
2.1995498
1.6005517
1.2163319
0.93859817
0.73374236
0.58017763
0.4651993
0.37995451
0.31424394
0.26240167
0.22175809
0.18878922
0.16106869
0.14131373
0.12557671
0.11350303
0.10366801
0.096523598
0.090682499
0.086608368
0.083481393
0.081371048
0.079500361
4530457.6
731992.59
224729.73
95333.803
48510.695
27631.152
16969.643
10991.701
7404.765
5140.0055
3652.583
2644.7546
1944.5172
1447.9082
1089.6945
827.64093
633.66704
488.67622
379.42736
296.58521
233.47354
185.25855
148.4031
120.29487
98.984712
82.998308
71.200951
62.704596
56.795859
52.759837
49.777566
46.948999
43.892957
40.501101
35.813776
29.555989
22.353445
15.323384
9.64327
5.8709366
3.676672
2.4761319
1.8049194
1.3718086
1.0577044
0.8255289
0.65241416
0.52294955
0.4255577
0.34975487
0.29100389
0.24581636
0.20785915
0.17715494
0.15351489
0.13558459
0.12048608
0.1097016
0.10086134
0.094537371
0.089460287
0.085760335
0.082590301
0.080615634
0.078906787
4530563.2
732009.73
224735.09
95336.192
48512.045
27632.077
16970.384
10992.376
7405.4369
5140.7148
3653.3581
2645.6187
1945.4911
1449.0122
1090.9496
829.06962
635.29402
490.52852
381.53433
298.97837
236.18554
188.32133
151.84431
124.13116
103.21434
87.595908
76.071461
67.647594
61.428805
56.508488
52.180539
48.090924
43.715503
38.137139
31.311418
23.802991
16.589402
10.685571
6.6081304
4.1486226
2.7824428
2.0187904
1.5318581
1.1859037
0.93191293
0.73942354
0.59266189
0.47948684
0.39182491
0.32496275
0.27302555
0.23066359
0.19619796
0.16888838
0.14610987
0.12946668
0.1161676
0.10656073
0.098447853
0.092612046
0.08768861
0.084488028
0.081868787
0.080264878
0.078653628
4530672.5
732027.48
224740.65
95338.697
48513.488
27633.089
16971.221
10993.158
7406.2302
5141.5626
3654.2913
2646.6625
1946.668
1450.3443
1092.4592
830.7801
637.23004
492.71591
383.99932
301.74567
239.27509
191.74303
155.58982
128.16226
107.44715
91.880802
80.216018
71.337365
64.285824
58.347929
52.936042
47.311508
40.77451
33.337818
25.482943
18.037727
11.869439
7.462875
4.7121452
3.1502897
2.2742207
1.7275047
1.346631
1.0630017
0.84251139
0.67144109
0.54053939
0.44033476
0.36416059
0.30408439
0.25592128
0.21804315
0.1861019
0.16006309
0.13991509
0.12542358
0.11274337
0.10365379
0.096071393
0.09108203
0.086903046
0.083912394
0.081324348
0.079814876
0.078303372
4530784.7
732045.81
224746.41
95341.314
48515.015
27634.178
16972.134
10994.022
7407.1151
5142.5129
3655.3395
2647.8352
1947.9889
1451.8362
1094.145
832.68266
639.37215
495.11914
386.68169
304.71843
242.53761
195.27539
159.34303
132.04643
111.31911
95.533243
83.369261
73.737031
65.734719
58.627513
51.51899
43.901257
35.759986
27.476073
19.727026
13.243608
8.4758809
5.3924031
3.5878683
2.566224
1.943298
1.5184275
1.2003614
0.95205429
0.7606175
0.61358406
0.50042771
0.41168795
0.34142672
0.28626037
0.24304483
0.20720094
0.17719393
0.15393019
0.13482293
0.12070882
0.1091743
0.10138661
0.094558583
0.089650579
0.085529567
0.082941472
0.080692676
0.079364912
0.077981014
4530901
732061.39
224749.52
95341.821
48514.982
27634.095
16972.151
10994.189
7407.4554
5143.0377
3656.0581
2648.7571
1949.1249
1453.1981
1095.7455
834.53432
641.48576
497.50127
389.33127
307.62153
245.66073
198.55741
162.68656
135.31041
114.31597
98.035776
85.127873
74.551284
65.298607
56.475139
47.633239
38.680049
29.872708
21.740351
14.880033
9.7006858
6.2258101
4.1198136
2.913997
2.1964499
1.7205143
1.3669922
1.0907265
0.8748256
0.70488876
0.57071073
0.46598034
0.38397718
0.32101024
0.27100351
0.23007571
0.19722155
0.16960092
0.14727683
0.12980813
0.11767637
0.10680394
0.099091198
0.092526038
0.088531996
0.084888051
0.082499275
0.080381704
0.07916923
0.077815055
4531685.4
732195.47
224794.66
95363.22
48527.137
27641.893
16977.629
10998.333
7410.794
5145.8828
3658.606
2651.1387
1951.4323
1455.4986
1098.0888
836.95682
644.01111
500.1395
392.07591
310.44508
248.50899
201.34357
165.28693
137.56444
116.03448
99.035769
85.173681
73.233094
62.368322
52.05385
42.089387
32.599765
23.967074
16.664691
11.041184
7.1511
4.7156398
3.3029709
2.4751407
1.9392317
1.5462018
1.2387343
0.99462179
0.79995573
0.64692699
0.52801537
0.43590579
0.36281281
0.30426164
0.25725055
0.22014472
0.18907767
0.16254521
0.14241787
0.12596229
0.11393599
0.10380642
0.097398109
0.091519428
0.087321059
0.083772201
0.081676963
0.079769639
0.078720604
0.077621992
4531684.6
732191.79
224791.69
95361.048
48525.663
27640.925
16977.038
10998.041
7410.7562
5146.0715
3659.0053
2651.7403
1952.2317
1456.493
1099.2746
838.32669
645.55038
501.82197
393.85875
312.26338
250.27063
202.92601
166.53944
138.316
116.06496
98.02189
82.845905
69.542024
57.444651
46.219867
35.850927
26.572826
18.735444
12.616581
8.2694809
5.4572407
3.7884313
2.8105599
2.1926388
1.7522152
1.4113887
1.1387372
0.91933987
0.74522602
0.60738619
0.49752784
0.41063119
0.34132524
0.28776178
0.24492376
0.20942075
0.18053577
0.15633459
0.13705125
0.1217528
0.11144947
0.10194235
0.09549427
0.089758556
0.08648157
0.083343558
0.081354677
0.079519938
0.078419873
0.077475046
4531684.8
732191.91
224791.81
95361.209
48525.874
27641.189
16977.361
10998.429
7411.2163
5146.6099
3659.6283
2652.4529
1953.0376
1457.3922
1100.2624
839.39045
646.66689
502.95352
394.94937
313.23585
251.02562
203.3328
166.42577
137.45542
114.24749
95.136328
78.877369
64.604172
51.805588
40.294743
30.143143
21.566552
14.769836
9.7997707
6.4663889
4.4222694
3.2197251
2.4865569
1.9882183
1.6097951
1.3048801
1.0563176
0.8557152
0.69487409
0.56710125
0.46668223
0.38839129
0.32565945
0.27540447
0.23451846
0.20197457
0.17466287
0.15101851
0.13332793
0.11886115
0.10863487
0.09960822
0.094103137
0.088948172
0.085590714
0.082631142
0.080816706
0.079227591
0.078273291
0.077333223
4531684.9
732191.99
224791.87
95361.285
48525.972
27641.313
16977.515
10998.618
7411.4433
5146.8784
3659.9406
2652.81
1953.4375
1457.8289
1100.7235
839.85494
647.10197
503.31103
395.16142
313.20899
250.63305
202.42776
164.85895
135.10819
111.04094
91.061808
74.028104
59.195338
46.16834
34.833614
25.258508
17.564075
11.790952
7.785663
5.2504732
3.7465261
2.8549151
2.276074
1.847781
1.5038968
1.222283
0.99273966
0.80695432
0.65850438
0.54035431
0.44579158
0.37072815
0.3101892
0.2632533
0.22541062
0.19397034
0.16823086
0.14648099
0.12951434
0.11572715
0.10676885
0.098288853
0.092903357
0.087836643
0.084838945
0.081994709
0.080398822
0.078862294
0.078014372
0.07720593
4531686.1
732192.09
224791.88
95361.274
48525.958
27641.3
16977.504
10998.61
7411.4395
5146.8794
3659.9455
2652.8155
1953.4364
1457.8088
1100.6642
839.72591
646.85948
502.89547
394.49596
312.20145
249.18347
200.43308
162.22731
131.77883
107.00852
86.400369
68.906541
53.874855
40.97442
30.102957
21.27152
14.484364
9.6250709
6.430465
4.4827416
3.3325712
2.6186597
2.1191835
1.7307315
1.4139197
1.1526518
0.9380245
0.76380945
0.62373949