/*--------------------------------*- C++ -*----------------------------------*\
  =========                 |
  \\      /  F ield         | OpenFOAM: The Open Source CFD Toolbox
   \\    /   O peration     | Website:  https://openfoam.org
    \\  /    A nd           | Version:  13
     \\/     M anipulation  |
\*---------------------------------------------------------------------------*/
FoamFile
{
    format      ascii;
    class       volScalarField;
    location    "3.897";
    object      p;
}
// * * * * * * * * * * * * * * * * * * * * * * * * * * * * * * * * * * * * * //

dimensions      [0 2 -2 0 0 0 0];

internalField   nonuniform List<scalar> 
17140
(
-0.17916025
-0.17938836
-0.17966373
-0.17994296
-0.18024443
-0.18057227
-0.18092665
-0.18130818
-0.18171757
-0.18215531
-0.18262177
-0.18311734
-0.18364282
-0.18419984
-0.18479167
-0.18542438
-0.18610833
-0.18686027
-0.18770589
-0.1886829
-0.18984458
-0.19126365
-0.19303618
-0.19528828
-0.19818125
-0.20185988
-0.20638976
-0.21189217
-0.21866447
-0.22702514
-0.23728088
-0.24979995
-0.2649933
-0.28331482
-0.30525745
-0.33133699
-0.36205904
-0.39786275
-0.43903462
-0.48558028
-0.53705421
-0.59239074
-0.64965958
-0.70559034
-0.75603552
-0.79650198
-0.8174935
-0.8155539
-0.78568891
-0.72112368
-0.62732393
-0.50648493
-0.36195634
-0.19512875
-0.029438289
0.10176439
0.1755737
0.19207437
0.17039011
0.13472169
0.1005742
0.073146451
0.054286412
0.03885183
0.031264866
-0.18310793
-0.18333044
-0.18359878
-0.18387133
-0.18416569
-0.18448585
-0.184832
-0.18520475
-0.18560479
-0.18603257
-0.18648844
-0.18697276
-0.18748624
-0.18803041
-0.18860842
-0.18922614
-0.18989369
-0.19062751
-0.19145293
-0.19240722
-0.19354323
-0.19493317
-0.19667264
-0.19888685
-0.20173651
-0.20537191
-0.20986177
-0.21531957
-0.22204177
-0.23035171
-0.24055629
-0.25302532
-0.26817175
-0.28645209
-0.30836262
-0.33442333
-0.36514468
-0.40097108
-0.44219387
-0.48882249
-0.5404145
-0.5959003
-0.65333617
-0.70950607
-0.76022544
-0.8005601
-0.82263844
-0.82075618
-0.78992587
-0.72577255
-0.63203695
-0.5119387
-0.36845629
-0.20215369
-0.036178664
0.095646193
0.17056025
0.18793657
0.16741359
0.13287575
0.099596454
0.072583646
0.05398672
0.038538401
0.030987926
-0.19275922
-0.19296812
-0.19321955
-0.19347599
-0.19375316
-0.19405477
-0.19438107
-0.19473265
-0.19511014
-0.19551397
-0.1959444
-0.19640168
-0.19688637
-0.19739978
-0.19794472
-0.19852662
-0.19915499
-0.19984555
-0.2006227
-0.20152271
-0.20259728
-0.20391746
-0.20557766
-0.20770103
-0.21044644
-0.21397664
-0.21836855
-0.22372086
-0.23032426
-0.23851382
-0.24859741
-0.26094873
-0.27598604
-0.29417241
-0.31601223
-0.34203517
-0.3727628
-0.40865124
-0.4500024
-0.49683374
-0.54870815
-0.60454861
-0.66238873
-0.7190743
-0.77037415
-0.81100336
-0.83369048
-0.83246637
-0.80137379
-0.73684558
-0.64347218
-0.52503843
-0.38405141
-0.21896858
-0.052291195
0.081185511
0.15849759
0.17817176
0.1603371
0.12827845
0.096885942
0.071061733
0.052915362
0.03775173
0.030315946
-0.20784391
-0.2080314
-0.2082563
-0.20848732
-0.20873737
-0.20900972
-0.20930468
-0.20962283
-0.20996474
-0.21033077
-0.21072107
-0.21113577
-0.21157522
-0.21204039
-0.21253365
-0.21305974
-0.21362734
-0.21425102
-0.21495385
-0.21577051
-0.21675093
-0.21796436
-0.21950329
-0.22148779
-0.22407353
-0.22744103
-0.23168174
-0.23687241
-0.24329305
-0.2512965
-0.2611929
-0.27336134
-0.28822826
-0.30626677
-0.32799338
-0.3539521
-0.38468048
-0.420651
-0.46217982
-0.50929412
-0.56156044
-0.61789092
-0.67629942
-0.73367352
-0.78574193
-0.82708432
-0.85064243
-0.84982293
-0.81846857
-0.75378242
-0.66046009
-0.54454268
-0.4073644
-0.24427752
-0.076666647
0.059143984
0.13996102
0.16306177
0.14922882
0.12091974
0.092488876
0.068680768
0.051319177
0.036654
0.0293687
-0.22774525
-0.22790414
-0.22809372
-0.22829069
-0.22850438
-0.22873746
-0.22899035
-0.2292636
-0.22955772
-0.22987298
-0.23020944
-0.2305671
-0.23094607
-0.23134699
-0.23177168
-0.23222417
-0.23271206
-0.2332486
-0.23385516
-0.2345644
-0.23542399
-0.23650069
-0.23788446
-0.2396924
-0.2420755
-0.2452173
-0.24924522
-0.25424104
-0.26043938
-0.26819428
-0.27784381
-0.28976907
-0.30440705
-0.32224307
-0.34380853
-0.36966469
-0.40036807
-0.43640979
-0.47812118
-0.52553791
-0.57822585
-0.63508296
-0.69410865
-0.75221334
-0.80511253
-0.84732101
-0.87189018
-0.8716952
-0.83999142
-0.77429082
-0.68109898
-0.56817337
-0.43578068
-0.27550177
-0.10690451
0.031470057
0.11629333
0.14368328
0.13488727
0.11126864
0.086550977
0.065044164
0.049249637
0.035158352
0.028136029
-0.25148333
-0.25160756
-0.25175447
-0.25190999
-0.25207934
-0.2522645
-0.25246601
-0.25268439
-0.25292007
-0.25317324
-0.25344393
-0.25373201
-0.25403742
-0.2543605
-0.2547026
-0.255067
-0.25546027
-0.25589419
-0.2563883
-0.25697297
-0.25769319
-0.25861271
-0.2598183
-0.26142373
-0.26357446
-0.26645059
-0.27022229
-0.2749912
-0.28093629
-0.28839771
-0.29775335
-0.30938472
-0.32374033
-0.34131883
-0.36266761
-0.38836619
-0.41899057
-0.45505023
-0.49689018
-0.54455175
-0.59759649
-0.65490885
-0.71448498
-0.77326355
-0.82700417
-0.87021271
-0.89591094
-0.89643997
-0.86430657
-0.79710743
-0.70346718
-0.59359422
-0.46653829
-0.30964901
-0.14083306
0.00015227117
0.088985717
0.12112703
0.11809588
0.099887685
0.079435028
0.060783897
0.046507664
0.033303651
0.026665006
-0.27778185
-0.27786745
-0.27796894
-0.27807728
-0.278196
-0.27832654
-0.27846941
-0.27862506
-0.27879388
-0.27897602
-0.27917148
-0.27938009
-0.27960171
-0.27983652
-0.28008553
-0.28035145
-0.28063994
-0.28096148
-0.28133376
-0.28178484
-0.28235684
-0.28311013
-0.28412777
-0.28551956
-0.28742545
-0.29001936
-0.29349937
-0.2980097
-0.30369095
-0.31084548
-0.31987207
-0.33117047
-0.34519702
-0.36246382
-0.38353328
-0.40900185
-0.43946327
-0.47544309
-0.51729724
-0.56507007
-0.61831808
-0.67591901
-0.73588658
-0.79521651
-0.84977622
-0.89413852
-0.92124773
-0.92282613
-0.89029193
-0.82109193
-0.72634787
-0.61903607
-0.49682169
-0.34431128
-0.1755856
-0.032444159
0.059738138
0.0965922
0.099745847
0.08732466
0.071373828
0.055678186
0.043205468
0.031031534
0.024908276
-0.30514832
-0.30519268
-0.30524593
-0.30530371
-0.30536801
-0.30543974
-0.30551934
-0.30560722
-0.30570367
-0.30580885
-0.30592279
-0.30604537
-0.30617651
-0.30631639
-0.30646593
-0.30662755
-0.30680632
-0.30701173
-0.30725995
-0.30757693
-0.30800201
-0.30859217
-0.3094264
-0.31061001
-0.31227809
-0.31459738
-0.31776519
-0.3219872
-0.32742056
-0.3342787
-0.34295356
-0.35389696
-0.36755734
-0.3844605
-0.40518146
-0.43033069
-0.4605165
-0.4962772
-0.53797719
-0.58566383
-0.63889404
-0.69655484
-0.75670853
-0.81645975
-0.87185497
-0.91760341
-0.94655171
-0.94971632
-0.91709464
-0.84565146
-0.74919872
-0.64359886
-0.52516851
-0.37724184
-0.20868216
-0.067024466
0.03014594
0.071278209
0.080595038
0.074028397
0.062621758
0.049916168
0.039367712
0.028366315
0.022903572
-0.33199368
-0.33199648
-0.33200099
-0.33200753
-0.33201652
-0.33202832
-0.33204327
-0.33206167
-0.33208377
-0.33210973
-0.33213961
-0.33217346
-0.33221137
-0.33225372
-0.33230161
-0.33235751
-0.33242634
-0.33251706
-0.33264488
-0.33283408
-0.33312166
-0.33356143
-0.33422841
-0.33522319
-0.3366756
-0.33874692
-0.34162896
-0.3455371
-0.35069166
-0.35730269
-0.36566429
-0.37622441
-0.38948746
-0.40597882
-0.42627915
-0.45100689
-0.48078062
-0.51614869
-0.55748353
-0.60483934
-0.65778537
-0.71524095
-0.77535235
-0.83538732
-0.89162564
-0.93895613
-0.97011698
-0.97541982
-0.94309225
-0.86946608
-0.77142694
-0.66629285
-0.55099149
-0.4060232
-0.24036992
-0.097335014
0.00039644594
0.046070931
0.061266732
0.060348996
0.05330879
0.043591175
0.034975008
0.025287219
0.02061867
-0.35676907
-0.35673251
-0.35669075
-0.35664847
-0.35660456
-0.35655881
-0.35651143
-0.35646258
-0.35641241
-0.35636106
-0.35630868
-0.35625544
-0.35620172
-0.35614824
-0.35609647
-0.35604924
-0.35601176
-0.35599299
-0.35600772
-0.35607932
-0.3562431
-0.35655038
-0.35707281
-0.35790666
-0.35917642
-0.3610375
-0.36367665
-0.36730797
-0.37216567
-0.37849792
-0.38659236
-0.39682272
-0.40967313
-0.42569909
-0.44549628
-0.4696829
-0.49888522
-0.53365724
-0.57437981
-0.62112111
-0.67347773
-0.73042548
-0.79022122
-0.85031761
-0.90723181
-0.95602893
-0.98936325
-0.99689245
-0.9649291
-0.89014311
-0.79087549
-0.68631471
-0.57284262
-0.4298815
-0.26589276
-0.12203474
-0.028664328
0.021810027
0.04226306
0.046536007
0.043587154
0.036726714
0.030142954
0.021861124
0.018086119
-0.37813702
-0.37806591
-0.3779834
-0.3778979
-0.37780692
-0.37770967
-0.37760619
-0.37749646
-0.37738049
-0.37725831
-0.37713008
-0.37699613
-0.37685703
-0.3767139
-0.37656865
-0.37642468
-0.37628768
-0.376167
-0.37607755
-0.37604231
-0.37609557
-0.37628685
-0.37668512
-0.37738297
-0.37850029
-0.38018686
-0.38262378
-0.3860222
-0.39061891
-0.39667268
-0.40447249
-0.41437872
-0.42683137
-0.44236607
-0.46157866
-0.4850933
-0.5135436
-0.54748635
-0.58731508
-0.63311854
-0.68453372
-0.74060793
-0.79971397
-0.85946793
-0.91657145
-0.96620122
-1.0009015
-1.0098134
-0.9786666
-0.90398406
-0.80514796
-0.7024829
-0.58979694
-0.44792056
-0.28701053
-0.14617272
-0.054192195
-0.00099754518
0.02390689
0.032775574
0.033567423
0.02946871
0.024907617
0.018101927
0.015320225
-0.39510699
-0.39500851
-0.39489356
-0.39477339
-0.39464435
-0.39450516
-0.39435559
-0.39419541
-0.39402438
-0.39384238
-0.39364946
-0.39344595
-0.39323254
-0.39301058
-0.39278236
-0.39255173
-0.39232491
-0.39211174
-0.39192739
-0.39179481
-0.3917477
-0.39183427
-0.3921214
-0.39269882
-0.39368274
-0.39521842
-0.39748137
-0.40067654
-0.40503638
-0.41085025
-0.41834805
-0.42789051
-0.43990789
-0.45490972
-0.4734677
-0.49617865
-0.52367271
-0.55651141
-0.59511107
-0.63959126
-0.6896403
-0.74438061
-0.80228579
-0.86108101
-0.91755714
-0.96691394
-1.001737
-1.0109276
-0.98083237
-0.90796728
-0.81264322
-0.7129384
-0.60046999
-0.45802005
-0.30378817
-0.16668365
-0.076846529
-0.022252099
0.0063931564
0.019214837
0.023387965
0.021909299
0.019376345
0.014082917
0.012355935
-0.40716094
-0.40704417
-0.40690733
-0.40676345
-0.40660806
-0.40643941
-0.40625701
-0.40606034
-0.40584884
-0.40562213
-0.40538002
-0.40512264
-0.40485057
-0.40456509
-0.40426857
-0.40396497
-0.40366065
-0.40336557
-0.40309489
-0.40287122
-0.4027275
-0.40271062
-0.40288545
-0.40333912
-0.40418478
-0.40556414
-0.40764882
-0.41064074
-0.414755
-0.42021942
-0.42739602
-0.43668821
-0.44819242
-0.46253216
-0.48024687
-0.50194567
-0.5282785
-0.55974259
-0.59676558
-0.63949971
-0.68769406
-0.74055143
-0.79662807
-0.8537136
-0.90860994
-0.95650943
-0.99010579
-0.99876457
-0.96957927
-0.90102857
-0.812167
-0.71660996
-0.60348624
-0.46323659
-0.31249714
-0.18419833
-0.096991238
-0.041703959
-0.010142086
0.0059944992
0.013188147
0.014175888
0.013629466
0.0098494497
0.0092228921
-0.41428084
-0.4141559
-0.41400894
-0.41385372
-0.41368526
-0.41350147
-0.41330161
-0.4130848
-0.41285019
-0.41259699
-0.41232464
-0.41203288
-0.4117219
-0.41139259
-0.41104689
-0.41068831
-0.41032271
-0.40995936
-0.4096125
-0.40930343
-0.40906325
-0.40893638
-0.40898457
-0.40929134
-0.40996608
-0.41114692
-0.41300182
-0.41572779
-0.41954533
-0.42470429
-0.43150743
-0.4400663
-0.45105859
-0.4649112
-0.48187262
-0.5023516
-0.5271231
-0.55675528
-0.59171562
-0.63217005
-0.6779184
-0.72823796
-0.781755
-0.83630377
-0.88868942
-0.93413627
-0.96557506
-0.9729355
-0.94553328
-0.88379508
-0.80371765
-0.7124616
-0.59935605
-0.46248445
-0.31703599
-0.19814933
-0.11448049
-0.059304618
-0.02559995
-0.0067458165
0.0031139507
0.0063933227
0.0077601472
0.0054651743
0.0059602856
-0.41698374
-0.41686056
-0.41671476
-0.41656053
-0.41639241
-0.41620809
-0.41600658
-0.41578673
-0.41554733
-0.41528721
-0.41500535
-0.41470095
-0.41437359
-0.41402342
-0.41365155
-0.41326044
-0.41285464
-0.41244178
-0.41203397
-0.4116497
-0.4113165
-0.41107422
-0.41097914
-0.41110859
-0.41156562
-0.41248282
-0.41402422
-0.41638421
-0.41978355
-0.42446741
-0.43066606
-0.43866485
-0.44900944
-0.46165228
-0.4769149
-0.49592311
-0.5193745
-0.54706262
-0.57960479
-0.61727071
-0.65995135
-0.70703204
-0.75723465
-0.80846556
-0.85756221
-0.89986453
-0.92864881
-0.93482698
-0.91066767
-0.858176
-0.78752908
-0.70020281
-0.5873257
-0.45385118
-0.31885983
-0.20902947
-0.12951674
-0.075048643
-0.039906085
-0.018881161
-0.0067016144
-0.0013283902
0.0018509694
0.00098542847
0.0026031737
-0.41611537
-0.41600214
-0.41586671
-0.41572431
-0.41556845
-0.41539667
-0.41520788
-0.41500072
-0.41477371
-0.41452533
-0.41425414
-0.41395877
-0.41363811
-0.41329144
-0.4129187
-0.41252092
-0.41210075
-0.41166335
-0.41121754
-0.41077754
-0.41036529
-0.41001348
-0.40976958
-0.40970049
-0.40989782
-0.41048286
-0.41161021
-0.41346849
-0.4162769
-0.42027992
-0.42572895
-0.43290552
-0.44200364
-0.45344258
-0.46770473
-0.48544365
-0.50645625
-0.53134383
-0.56087346
-0.59511715
-0.63405149
-0.6771707
-0.72332224
-0.77054065
-0.81579496
-0.85462633
-0.88085756
-0.88695775
-0.86833738
-0.82646282
-0.76419043
-0.68005519
-0.56820744
-0.44193612
-0.31770457
-0.21710702
-0.14220976
-0.088965181
-0.052998427
-0.030295907
-0.016136194
-0.0088866346
-0.004022263
-0.0035313321
-0.00080919071
-0.41278956
-0.41269227
-0.41257487
-0.41245212
-0.4123172
-0.41216772
-0.41200255
-0.41182027
-0.41161923
-0.41139773
-0.41115398
-0.4108862
-0.41059267
-0.41027185
-0.40992258
-0.40954435
-0.40913779
-0.40870525
-0.4082518
-0.40778656
-0.40732465
-0.40688983
-0.40651799
-0.40626169
-0.40619559
-0.40642238
-0.40707847
-0.40833785
-0.41041247
-0.41354793
-0.4180126
-0.42409727
-0.43209713
-0.4422707
-0.45485018
-0.47007734
-0.4882759
-0.51022939
-0.53622165
-0.56649073
-0.60107862
-0.63960166
-0.68110108
-0.72382815
-0.76502268
-0.80056862
-0.82516235
-0.83325569
-0.82243375
-0.79032719
-0.73422807
-0.65190898
-0.54372176
-0.42588805
-0.31526181
-0.22293229
-0.15271318
-0.10111355
-0.064840936
-0.040897071
-0.025082579
-0.016182356
-0.0097829618
-0.0080332954
-0.0042397007
-0.40804239
-0.40796432
-0.40786925
-0.4077704
-0.40766129
-0.40753974
-0.40740471
-0.4072548
-0.40708839
-0.40690372
-0.4066989
-0.40647192
-0.40622068
-0.40594307
-0.40563709
-0.405301
-0.40493364
-0.40453483
-0.40410609
-0.40365151
-0.40317927
-0.40270354
-0.40224732
-0.40184612
-0.40155279
-0.40144333
-0.40162338
-0.40223437
-0.40345767
-0.40551432
-0.40865886
-0.41316408
-0.41931868
-0.4273629
-0.43761915
-0.45041523
-0.46597276
-0.48463905
-0.50678589
-0.53270662
-0.56252799
-0.596046
-0.63258084
-0.6707155
-0.70807435
-0.74111262
-0.76582537
-0.77826734
-0.77584465
-0.75074283
-0.69752865
-0.61777095
-0.51572888
-0.40914475
-0.31043758
-0.2269312
-0.16124299
-0.11156262
-0.075414568
-0.05061877
-0.033462667
-0.023141346
-0.015358101
-0.012461791
-0.0076499486
-0.40282819
-0.40276968
-0.40269804
-0.4026236
-0.40254105
-0.4024486
-0.40234532
-0.40222996
-0.40210107
-0.40195699
-0.40179592
-0.40161588
-0.4014147
-0.40119006
-0.40093952
-0.40066065
-0.40035115
-0.40000911
-0.3996334
-0.39922428
-0.39878425
-0.3983194
-0.39784128
-0.39736945
-0.3969351
-0.39658571
-0.39639075
-0.39644842
-0.39689217
-0.39789521
-0.39967231
-0.40247371
-0.40657843
-0.41226292
-0.41981297
-0.42951706
-0.44164581
-0.45648753
-0.47436882
-0.49560521
-0.52042266
-0.54883731
-0.58046702
-0.61435768
-0.64859618
-0.68053865
-0.70754882
-0.72562694
-0.72985359
-0.70760761
-0.65607104
-0.58219938
-0.48658604
-0.39215274
-0.30460982
-0.22903553
-0.16786519
-0.12036165
-0.08470674
-0.059417132
-0.041222137
-0.029710444
-0.020699803
-0.016765132
-0.01100322
-0.39776787
-0.39772654
-0.39767615
-0.39762361
-0.39756504
-0.39749913
-0.39742508
-0.3973419
-0.39724836
-0.39714307
-0.3970245
-0.39689088
-0.39674027
-0.3965705
-0.39637918
-0.39616377
-0.39592159
-0.39564994
-0.39534631
-0.39500863
-0.39463582
-0.39422839
-0.39378955
-0.39332666
-0.39285324
-0.39239182
-0.3919777
-0.39166385
-0.39152722
-0.39167316
-0.3922443
-0.39342658
-0.3954455
-0.39855943
-0.4030542
-0.40923126
-0.41740251
-0.42790469
-0.44110607
-0.45740352
-0.47717213
-0.50065542
-0.52783583
-0.55815917
-0.59048503
-0.62337754
-0.65412813
-0.67702915
-0.68488611
-0.66064276
-0.61176797
-0.54201251
-0.46175672
-0.37511052
-0.2979923
-0.22956347
-0.17277724
-0.12760883
-0.092740305
-0.067268033
-0.048312131
-0.035832865
-0.025761915
-0.020903156
-0.014262995
-0.39324581
-0.39321897
-0.39318703
-0.39315228
-0.39311335
-0.39306941
-0.39301984
-0.39296385
-0.39290055
-0.3928289
-0.39274777
-0.39265574
-0.39255117
-0.39243214
-0.39229654
-0.39214205
-0.39196631
-0.39176691
-0.39154119
-0.39128642
-0.39099979
-0.39067865
-0.39032107
-0.3899266
-0.38949678
-0.38903613
-0.38855298
-0.3880662
-0.38761412
-0.38721947
-0.38692548
-0.38684299
-0.38709423
-0.38785397
-0.38935988
-0.39191432
-0.39588628
-0.40171369
-0.40990617
-0.42105202
-0.43577109
-0.45462439
-0.47794593
-0.50591043
-0.53818537
-0.57343757
-0.60741895
-0.63231406
-0.63749366
-0.61299685
-0.56630542
-0.50252302
-0.4337022
-0.35916024
-0.29056809
-0.22866905
-0.17613842
-0.13339804
-0.099548434
-0.074164021
-0.054701823
-0.041467224
-0.030498041
-0.024835816
-0.017394139
-0.38928481
-0.38926922
-0.38925046
-0.38922998
-0.38920695
-0.38918086
-0.38915138
-0.38911804
-0.38907913
-0.38903263
-0.38897733
-0.38891369
-0.3888427
-0.38876385
-0.38867655
-0.38858024
-0.38847307
-0.38835185
-0.38821297
-0.38805189
-0.38786251
-0.38764025
-0.38738464
-0.38709452
-0.38676505
-0.38638936
-0.38596144
-0.38548656
-0.38493121
-0.38425049
-0.38347583
-0.38262201
-0.38168441
-0.38071424
-0.37983766
-0.3792839
-0.37942239
-0.38078825
-0.38409249
-0.39020042
-0.40015366
-0.41490981
-0.43542966
-0.46238116
-0.49569512
-0.53315421
-0.56725479
-0.58961028
-0.58858501
-0.56471275
-0.51872202
-0.4700268
-0.40698671
-0.34317464
-0.28243355
-0.22656195
-0.17810161
-0.13783487
-0.10518251
-0.080114541
-0.060372547
-0.04658027
-0.034871207
-0.028526911
-0.020364918
-0.3857693
-0.38576438
-0.38575839
-0.3857517
-0.38574401
-0.38573554
-0.38572609
-0.38570885
-0.38567906
-0.38565487
-0.38565662
-0.38567326
-0.38567908
-0.38566258
-0.38561868
-0.38554037
-0.38544459
-0.38535953
-0.38528422
-0.38520726
-0.38512278
-0.38501788
-0.38488054
-0.38470788
-0.38449572
-0.38423164
-0.3838963
-0.38346839
-0.38291155
-0.3821778
-0.38123866
-0.38002781
-0.37844519
-0.37644377
-0.37404247
-0.37136641
-0.36871724
-0.36666002
-0.3660473
-0.36807638
-0.37406417
-0.38552199
-0.404215
-0.4314188
-0.46537258
-0.5005885
-0.5300282
-0.54517004
-0.54063397
-0.519822
-0.4788599
-0.43745432
-0.38366333
-0.32805547
-0.27395624
-0.22347905
-0.17883988
-0.1410342
-0.10970387
-0.085140081
-0.065317039
-0.051149567
-0.038849749
-0.031944717
-0.02314126
-0.38248165
-0.38248774
-0.38249485
-0.38250228
-0.38251024
-0.38251868
-0.38252697
-0.38253548
-0.3825508
-0.3825759
-0.38260066
-0.38261572
-0.38261871
-0.38261022
-0.38259154
-0.38257564
-0.38257429
-0.38257111
-0.38256275
-0.38256268
-0.38254502
-0.38247155
-0.38236885
-0.38228096
-0.38218164
-0.38203303
-0.38181159
-0.38148006
-0.38100716
-0.38034136
-0.37940077
-0.37808767
-0.37628626
-0.37390832
-0.37083984
-0.36711437
-0.36295535
-0.35888053
-0.35579602
-0.35496554
-0.35839361
-0.36860498
-0.38710813
-0.41217879
-0.44213684
-0.4716903
-0.49537535
-0.50406335
-0.50007855
-0.47631788
-0.44672989
-0.40834148
-0.36191144
-0.31325419
-0.26511003
-0.2195392
-0.17848672
-0.14310091
-0.11317782
-0.089270528
-0.069537689
-0.055160376
-0.042409298
-0.035061618
-0.025698603
-0.37959588
-0.37961501
-0.37963754
-0.37966135
-0.37968718
-0.37971527
-0.37974566
-0.37977825
-0.3798131
-0.37985122
-0.37989354
-0.37993959
-0.37998568
-0.38002636
-0.3800614
-0.38009439
-0.38012413
-0.38014774
-0.38017167
-0.38020717
-0.38024268
-0.38024907
-0.38022874
-0.3802155
-0.38022139
-0.3801757
-0.37997261
-0.37961937
-0.37917256
-0.37856113
-0.37765894
-0.37636869
-0.37454042
-0.37197973
-0.36867217
-0.36470556
-0.36013961
-0.35549842
-0.35165335
-0.35037491
-0.35335411
-0.36208216
-0.37692377
-0.39762035
-0.42269917
-0.44641247
-0.46359727
-0.4683606
-0.46115438
-0.44290844
-0.41545894
-0.38195537
-0.34192811
-0.29912331
-0.25613568
-0.21493206
-0.17719436
-0.14414696
-0.11567572
-0.092542066
-0.073044219
-0.058605479
-0.045530766
-0.037854505
-0.028008344
-0.37712786
-0.37715925
-0.37719614
-0.37723512
-0.3772774
-0.37732342
-0.37737328
-0.37742705
-0.3774848
-0.37754648
-0.37761196
-0.37768095
-0.37775306
-0.37782779
-0.37790438
-0.37798174
-0.37805834
-0.37813169
-0.37819811
-0.37825422
-0.37829971
-0.37832918
-0.37831966
-0.37825612
-0.37816863
-0.3780854
-0.37795143
-0.37770173
-0.37733607
-0.37682729
-0.37605472
-0.3748146
-0.37308687
-0.37105238
-0.3684085
-0.36485188
-0.36081336
-0.3567768
-0.35355264
-0.35185997
-0.35334306
-0.35978216
-0.37139905
-0.38833664
-0.40663765
-0.42275275
-0.43103935
-0.43822966
-0.42674776
-0.41137498
-0.38822218
-0.35862098
-0.32345898
-0.28555864
-0.24706234
-0.20975842
-0.17507648
-0.14426912
-0.11726655
-0.094995007
-0.075852657
-0.061483136
-0.048201215
-0.040303223
-0.030045197
-0.37657828
-0.3766118
-0.37665135
-0.37669294
-0.37673801
-0.37678707
-0.37684023
-0.37689758
-0.37695921
-0.3770251
-0.37709515
-0.37716914
-0.3772467
-0.37732727
-0.37741011
-0.37749424
-0.37757846
-0.37766121
-0.37774049
-0.37781402
-0.37787888
-0.37793151
-0.37796709
-0.37797738
-0.37795121
-0.37788107
-0.37775995
-0.37756328
-0.37724131
-0.3767399
-0.37608114
-0.37526996
-0.37412906
-0.37248179
-0.37024286
-0.36748394
-0.3643953
-0.36099561
-0.35794147
-0.3562339
-0.35709916
-0.3613891
-0.36962407
-0.38092859
-0.39299194
-0.40323327
-0.40943798
-0.40550001
-0.40055776
-0.38549361
-0.36414127
-0.33756241
-0.3063948
-0.27261957
-0.23799786
-0.20414232
-0.17225024
-0.14356407
-0.11802012
-0.096672387
-0.077983568
-0.063796794
-0.050412507
-0.042393827
-0.031782174
-0.37769075
-0.37771694
-0.37774775
-0.3777803
-0.37781561
-0.37785407
-0.37789581
-0.37794092
-0.3779895
-0.37804156
-0.37809707
-0.37815589
-0.37821776
-0.37828228
-0.37834888
-0.37841669
-0.37848489
-0.37855372
-0.37862038
-0.3786812
-0.37873554
-0.37878129
-0.37881539
-0.37883451
-0.37883412
-0.3788064
-0.37875763
-0.37865811
-0.37855372
-0.37839978
-0.37794327
-0.37724851
-0.37644347
-0.37539406
-0.37385601
-0.37177905
-0.36919797
-0.36635614
-0.36362712
-0.36163612
-0.36127676
-0.36333263
-0.36806357
-0.37466412
-0.38184812
-0.38689199
-0.38884499
-0.38442863
-0.37613713
-0.36179021
-0.34246499
-0.31846796
-0.29054958
-0.26023848
-0.2289641
-0.19815761
-0.16880484
-0.14211414
-0.11800097
-0.097617415
-0.079460573
-0.065553739
-0.052162763
-0.044115121
-0.033222161
-0.38050792
-0.38052221
-0.38053903
-0.3805568
-0.38057609
-0.38059712
-0.38061996
-0.38064468
-0.38067132
-0.38069991
-0.38073042
-0.38076275
-0.38079675
-0.3808321
-0.38086818
-0.38090486
-0.38094583
-0.38098647
-0.38101627
-0.38104165
-0.38106784
-0.38108812
-0.38109928
-0.38110833
-0.38110783
-0.38112913
-0.3811609
-0.38107923
-0.38090201
-0.38072089
-0.38047155
-0.3800514
-0.37942377
-0.37850938
-0.37721324
-0.37551204
-0.37340947
-0.37096791
-0.36840999
-0.36613461
-0.36475832
-0.36466875
-0.36620924
-0.36877939
-0.3714056
-0.3730211
-0.369141
-0.36389192
-0.35510276
-0.34134043
-0.32320123
-0.30114796
-0.27583214
-0.248407
-0.2200041
-0.1918784
-0.16482327
-0.13999623
-0.11727092
-0.097873295
-0.080309556
-0.066765047
-0.05345392
-0.045463902
-0.034359957
-0.38403277
-0.38403761
-0.38404326
-0.38404917
-0.38405551
-0.38406233
-0.38406962
-0.38407734
-0.38408545
-0.38409386
-0.38410245
-0.38411103
-0.38411932
-0.38412699
-0.38413356
-0.38413849
-0.38414097
-0.38413892
-0.38413214
-0.3841209
-0.38410259
-0.38407471
-0.38403731
-0.38399692
-0.38393864
-0.38383126
-0.38367005
-0.38348028
-0.3832735
-0.38303002
-0.38273277
-0.38231918
-0.38173664
-0.38094851
-0.37990369
-0.37853357
-0.37677279
-0.37457619
-0.37197981
-0.3691791
-0.36655378
-0.3642364
-0.36301137
-0.36179335
-0.36164762
-0.35822562
-0.35385814
-0.34688763
-0.33674391
-0.3229546
-0.30570598
-0.28523582
-0.2620489
-0.23704662
-0.21111481
-0.18534808
-0.16036837
-0.13727487
-0.11588554
-0.097481471
-0.080557381
-0.067444207
-0.054290578
-0.046436701
-0.035193217
-0.38788299
-0.38788388
-0.38788476
-0.38788547
-0.38788595
-0.38788612
-0.38788583
-0.38788494
-0.38788322
-0.38788039
-0.38787608
-0.38786984
-0.38786108
-0.38784906
-0.38783283
-0.38781126
-0.38778294
-0.38774612
-0.38769867
-0.38763827
-0.38756228
-0.38746758
-0.38735018
-0.38720608
-0.38704452
-0.38685455
-0.38661053
-0.38631653
-0.38596369
-0.3855517
-0.38509214
-0.38457775
-0.38397655
-0.38324451
-0.38232184
-0.38110212
-0.37943651
-0.37715258
-0.37418563
-0.37065592
-0.36670055
-0.36284355
-0.35943496
-0.35568289
-0.35077942
-0.34656961
-0.33975084
-0.33112915
-0.32021329
-0.30642336
-0.28980559
-0.27056223
-0.24909298
-0.22611196
-0.20229907
-0.17860365
-0.15549373
-0.13400681
-0.11389554
-0.096481471
-0.080231579
-0.067607054
-0.054680992
-0.047034651
-0.035725431
-0.39242006
-0.39241934
-0.39241822
-0.39241658
-0.39241425
-0.39241102
-0.39240665
-0.3924008
-0.3923931
-0.39238302
-0.39236995
-0.3923531
-0.39233149
-0.39230392
-0.39226892
-0.39222468
-0.39216902
-0.39209936
-0.39201262
-0.39190529
-0.39177333
-0.39161232
-0.39141752
-0.39118411
-0.39090684
-0.39057936
-0.39019883
-0.38976579
-0.38928468
-0.38875879
-0.38818744
-0.38757194
-0.38689771
-0.38611979
-0.38513926
-0.3837801
-0.38181938
-0.3790184
-0.37536298
-0.37081507
-0.36567399
-0.36067535
-0.35494464
-0.34913626
-0.34233738
-0.33528527
-0.32692656
-0.31707844
-0.30531587
-0.29133807
-0.27514118
-0.2568653
-0.23680181
-0.21552097
-0.19353355
-0.17166198
-0.15023794
-0.13023837
-0.11134541
-0.094909942
-0.079359159
-0.06727025
-0.054633057
-0.047257804
-0.035943565
-0.3981056
-0.39810229
-0.39809795
-0.39809268
-0.39808612
-0.39807793
-0.39806773
-0.39805505
-0.3980393
-0.39801976
-0.39799553
-0.3979655
-0.39792833
-0.39788238
-0.39782564
-0.39775573
-0.39766979
-0.39756445
-0.39743579
-0.39727937
-0.39709021
-0.39686294
-0.39659199
-0.39627192
-0.39589771
-0.39546562
-0.39497533
-0.39442919
-0.39382978
-0.39318234
-0.39249369
-0.39175832
-0.39094252
-0.38995984
-0.38865053
-0.38678183
-0.38410726
-0.38044301
-0.37584313
-0.37013123
-0.3642641
-0.3572532
-0.34964557
-0.34173731
-0.33349982
-0.32479933
-0.3150195
-0.30401024
-0.2915355
-0.27736892
-0.26147308
-0.24396332
-0.22505318
-0.20520584
-0.1847946
-0.16453254
-0.14463041
-0.12600782
-0.10827402
-0.092800505
-0.077966524
-0.066451066
-0.05415819
-0.047109238
-0.035855899
-0.40559891
-0.40559021
-0.40557935
-0.40556693
-0.40555228
-0.40553488
-0.40551421
-0.40548962
-0.4054603
-0.40542529
-0.40538339
-0.40533319
-0.40527297
-0.40520064
-0.40511375
-0.40500935
-0.404884
-0.40473373
-0.40455396
-0.4043396
-0.40408507
-0.40378446
-0.40343191
-0.40302244
-0.40255238
-0.40201916
-0.401422
-0.40076326
-0.40004716
-0.39927528
-0.39843878
-0.39750322
-0.39638739
-0.39494313
-0.3929556
-0.3901725
-0.38639398
-0.3815279
-0.37554286
-0.36890987
-0.36134374
-0.35273436
-0.34379094
-0.33475297
-0.32507408
-0.31482555
-0.30378091
-0.29178349
-0.27865454
-0.26425781
-0.24856097
-0.23166178
-0.21370979
-0.19508381
-0.17604439
-0.15721164
-0.13868947
-0.1213447
-0.10471416
-0.090183042
-0.076078181
-0.065166115
-0.053266203
-0.04659174
-0.03546098
-0.41532478
-0.41530772
-0.41528682
-0.41526349
-0.41523664
-0.41520551
-0.4151694
-0.41512744
-0.41507859
-0.41502161
-0.414955
-0.41487698
-0.41478547
-0.41467795
-0.41455152
-0.41440274
-0.41422767
-0.4140217
-0.41377988
-0.41349686
-0.41316706
-0.41278485
-0.41234483
-0.41184204
-0.41127277
-0.41063506
-0.40992813
-0.40915088
-0.40829808
-0.40735249
-0.40627177
-0.40497115
-0.40330777
-0.40107992
-0.39805498
-0.39402358
-0.38889121
-0.38256306
-0.37527589
-0.36731763
-0.35783619
-0.34817802
-0.33818076
-0.32768371
-0.31665137
-0.30512165
-0.29296297
-0.280078
-0.26636407
-0.25174384
-0.23619061
-0.21979201
-0.20264955
-0.18507699
-0.16724288
-0.14968912
-0.13242571
-0.11627145
-0.10069327
-0.08708383
-0.073717075
-0.063431386
-0.051968945
-0.045712915
-0.034763577
-0.42780095
-0.42777277
-0.42773859
-0.42770088
-0.42765804
-0.427609
-0.42755286
-0.42748852
-0.42741467
-0.42732976
-0.42723194
-0.42711906
-0.42698858
-0.42683764
-0.42666293
-0.42646067
-0.42622675
-0.42595603
-0.42564328
-0.42528312
-0.42486969
-0.4243973
-0.42386063
-0.42325483
-0.42257541
-0.42181757
-0.42097414
-0.4200314
-0.41896148
-0.41771098
-0.41618687
-0.41424532
-0.41169248
-0.40830971
-0.40390174
-0.39835744
-0.3916323
-0.38377774
-0.37526606
-0.36534364
-0.35485902
-0.34402893
-0.3324983
-0.32059668
-0.30828175
-0.29555524
-0.28237498
-0.26869314
-0.25445126
-0.23961527
-0.22416882
-0.20819265
-0.19175003
-0.17510256
-0.1583427
-0.14194644
-0.12584151
-0.11080321
-0.096233015
-0.083524821
-0.070903137
-0.061258893
-0.050273595
-0.044462081
-0.033763591
-0.44335848
-0.44331655
-0.44326597
-0.44321062
-0.44314825
-0.44307749
-0.44299722
-0.44290612
-0.44280254
-0.44268463
-0.44255035
-0.44239739
-0.44222267
-0.44202226
-0.4417931
-0.44153995
-0.4412497
-0.44089948
-0.44050119
-0.44005915
-0.43955709
-0.43898848
-0.43834729
-0.43762605
-0.43681514
-0.43590038
-0.43485841
-0.43364947
-0.43220734
-0.43042796
-0.42816178
-0.42521678
-0.42138074
-0.41646837
-0.41036463
-0.40302986
-0.39452723
-0.38532821
-0.37473949
-0.363417
-0.35164592
-0.33923727
-0.32641061
-0.31322306
-0.29970337
-0.28589191
-0.27179142
-0.25739722
-0.24268904
-0.22766423
-0.21231447
-0.19671439
-0.18089653
-0.16508023
-0.1492949
-0.13396072
-0.11893394
-0.10494988
-0.091350844
-0.079525143
-0.067655984
-0.058666016
-0.048200901
-0.042880845
-0.032492168
-0.46232557
-0.46226682
-0.46219696
-0.46212099
-0.46203589
-0.46193991
-0.46183142
-0.46170969
-0.46157719
-0.46143955
-0.46128829
-0.46109282
-0.46084621
-0.4605759
-0.46028847
-0.45996673
-0.45960042
-0.45918529
-0.4587157
-0.45818485
-0.45758494
-0.45690682
-0.45613902
-0.45526597
-0.45426505
-0.45310184
-0.45172322
-0.4500487
-0.44796159
-0.44530406
-0.44188356
-0.43749139
-0.43194835
-0.42514579
-0.41703187
-0.40770446
-0.39754694
-0.3862832
-0.37397835
-0.3612547
-0.34790363
-0.33409947
-0.31991887
-0.30545521
-0.2907809
-0.27595522
-0.26101552
-0.24598799