/*--------------------------------*- C++ -*----------------------------------*\
  =========                 |
  \\      /  F ield         | OpenFOAM: The Open Source CFD Toolbox
   \\    /   O peration     | Website:  https://openfoam.org
    \\  /    A nd           | Version:  13
     \\/     M anipulation  |
\*---------------------------------------------------------------------------*/
FoamFile
{
    format      ascii;
    class       volScalarField;
    location    "3900";
    object      epsilon;
}
// * * * * * * * * * * * * * * * * * * * * * * * * * * * * * * * * * * * * * //

dimensions      [0 2 -3 0 0 0 0];

internalField   nonuniform List<scalar> 
800
(
18.8996
18.8999
18.9002
18.9003
18.9004
18.9003
18.9001
18.8999
18.8998
18.8996
18.8995
18.8994
18.8992
18.8992
18.8991
18.8992
18.8991
18.8993
18.8994
18.8994
7.33428
7.33445
7.33442
7.3342
7.33423
7.33421
7.33435
7.33419
7.334
7.33393
7.33405
7.33422
7.33414
7.33403
7.33416
7.33399
7.33395
7.33399
7.33434
7.33452
4.07836
4.07842
4.07846
4.07848
4.0784
4.07839
4.07836
4.07832
4.07823
4.07826
4.07829
4.07839
4.07854
4.07864
4.07863
4.07863
4.07858
4.07859
4.07862
4.07861
2.71784
2.71786
2.71788
2.71788
2.71787
2.7179
2.71787
2.71791
2.7179
2.71797
2.71798
2.71799
2.71798
2.71809
2.71807
2.71816
2.71823
2.71823
2.71822
2.71819
1.99864
1.99865
1.99866
1.99863
1.99862
1.99863
1.99864
1.99867
1.99872
1.99873
1.99872
1.99874
1.99873
1.99876
1.99878
1.99886
1.99888
1.99889
1.99888
1.99891
1.56244
1.56245
1.56245
1.56246
1.56243
1.56242
1.56245
1.56244
1.56247
1.56245
1.56245
1.56243
1.56246
1.56247
1.56252
1.56256
1.56256
1.56259
1.56259
1.56258
1.27356
1.27356
1.27355
1.27356
1.27357
1.27357
1.27357
1.27357
1.27359
1.2736
1.27362
1.27362
1.27362
1.27361
1.27362
1.27364
1.27367
1.27369
1.27371
1.27368
1.07049
1.0705
1.07051
1.07052
1.07053
1.07054
1.07054
1.07054
1.07055
1.07057
1.07058
1.07061
1.07061
1.0706
1.07059
1.07059
1.0706
1.0706
1.0706
1.0706
0.921662
0.921666
0.921683
0.921692
0.921686
0.921695
0.9217
0.921708
0.921717
0.921726
0.921738
0.921763
0.921771
0.921788
0.921787
0.921774
0.921767
0.921764
0.921759
0.921758
0.809289
0.809295
0.8093
0.809306
0.809301
0.809316
0.80932
0.809325
0.809332
0.80934
0.809347
0.809343
0.809348
0.809365
0.809371
0.809371
0.809362
0.809366
0.809373
0.809366
0.722642
0.722643
0.722643
0.722651
0.722662
0.722669
0.72268
0.722686
0.72269
0.722683
0.722684
0.722675
0.722671
0.722671
0.722672
0.722685
0.72269
0.722689
0.722697
0.722696
0.654944
0.654948
0.654947
0.654953
0.654964
0.65497
0.654975
0.654979
0.654977
0.654968
0.654966
0.654967
0.654967
0.654966
0.654968
0.654974
0.654985
0.654982
0.654984
0.654983
0.60175
0.601762
0.601768
0.601771
0.601775
0.601775
0.601771
0.601773
0.601768
0.601771
0.601771
0.601772
0.601776
0.601775
0.601783
0.601776
0.601779
0.601779
0.601781
0.601779
0.560068
0.560069
0.560078
0.560082
0.560086
0.560085
0.56009
0.560089
0.560093
0.5601
0.560101
0.560101
0.560105
0.560102
0.560102
0.560098
0.560095
0.560097
0.560097
0.560092
0.527874
0.527876
0.527876
0.52788
0.527884
0.527888
0.527899
0.527901
0.527909
0.527911
0.527912
0.527915
0.527913
0.527915
0.527909
0.527913
0.52791
0.527911
0.527908
0.527904
0.503843
0.503849
0.503852
0.503856
0.503862
0.503869
0.503871
0.503875
0.503876
0.503875
0.503875
0.503876
0.503871
0.503872
0.503873
0.503876
0.503875
0.503872
0.503871
0.503872
0.487175
0.487177
0.487182
0.487185
0.487188
0.487189
0.48719
0.487192
0.487192
0.487193
0.487194
0.487193
0.487196
0.487193
0.487196
0.487194
0.487194
0.487192
0.48719
0.487187
0.477505
0.477505
0.477502
0.477501
0.477496
0.477496
0.477496
0.477498
0.477499
0.477502
0.477504
0.477504
0.47751
0.477509
0.477508
0.477508
0.47751
0.477512
0.477511
0.477511
0.474911
0.47491
0.474908
0.474905
0.474901
0.4749
0.474894
0.474893
0.474893
0.474894
0.474895
0.474898
0.474898
0.474903
0.474905
0.474909
0.47491
0.474913
0.474914
0.474917
0.479997
0.479993
0.479992
0.479989
0.479986
0.479981
0.479979
0.479976
0.479976
0.479976
0.479976
0.479978
0.47998
0.479984
0.479988
0.479991
0.479993
0.479995
0.479995
0.479995
0.493636
0.493631
0.49363
0.493626
0.493626
0.493625
0.493628
0.493628
0.493625
0.493625
0.493624
0.493621
0.493624
0.493623
0.493625
0.493626
0.49363
0.49363
0.493632
0.493631
0.515624
0.515628
0.515631
0.515631
0.515633
0.515634
0.515631
0.515631
0.515628
0.515625
0.515622
0.515623
0.515621
0.51562
0.515619
0.51562
0.515619
0.515617
0.515619
0.515619
0.545336
0.545343
0.545345
0.54535
0.54535
0.54535
0.545348
0.545345
0.545347
0.545345
0.545341
0.545337
0.54533
0.545329
0.545324
0.545321
0.545317
0.545315
0.545314
0.545319
0.583042
0.583044
0.583041
0.583044
0.583044
0.583047
0.583051
0.583055
0.583055
0.583055
0.583055
0.583047
0.583041
0.583035
0.583029
0.583026
0.583021
0.583018
0.583016
0.583019
0.629464
0.629459
0.629459
0.629456
0.629458
0.629459
0.62946
0.629465
0.629465
0.629461
0.629462
0.629463
0.629465
0.629461
0.629457
0.629448
0.629448
0.629444
0.629437
0.629437
0.685784
0.685776
0.685777
0.68577
0.685771
0.685768
0.685767
0.685766
0.685768
0.685768
0.685765
0.685765
0.685764
0.685762
0.685764
0.685757
0.68576
0.685759
0.685757
0.685753
0.753706
0.753699
0.753695
0.753692
0.753689
0.753684
0.753682
0.753676
0.753677
0.753683
0.753683
0.753683
0.753683
0.753683
0.753686
0.753682
0.753679
0.753671
0.753672
0.753669
0.835683
0.835673
0.835663
0.835661
0.835653
0.835645
0.835635
0.835623
0.835623
0.835623
0.835633
0.83564
0.835648
0.835654
0.835652
0.835648
0.835635
0.835622
0.835618
0.835619
0.935158
0.935151
0.935137
0.935121
0.935103
0.935088
0.93508
0.935077
0.935071
0.935071
0.93507
0.935081
0.935086
0.935092
0.93509
0.935091
0.935093
0.935092
0.935086
0.93509
1.05702
1.05702
1.05701
1.057
1.05698
1.05697
1.05696
1.05695
1.05694
1.05694
1.05694
1.05693
1.05693
1.05693
1.05692
1.05693
1.05692
1.05694
1.05693
1.05694
1.20841
1.2084
1.2084
1.20841
1.20842
1.20841
1.2084
1.20838
1.20836
1.20834
1.20833
1.20832
1.2083
1.20829
1.20829
1.20829
1.20828
1.20828
1.20829
1.2083
1.40009
1.40008
1.40006
1.40006
1.40007
1.40005
1.40006
1.40006
1.40006
1.40003
1.4
1.39998
1.39997
1.39996
1.39995
1.39994
1.39995
1.39996
1.39997
1.39998
1.64891
1.64889
1.64888
1.64886
1.64888
1.64889
1.64891
1.64891
1.6489
1.64889
1.64887
1.64882
1.64879
1.64878
1.64876
1.64875
1.64876
1.64876
1.64877
1.64877
1.98283
1.98285
1.98287
1.98286
1.98287
1.98289
1.98291
1.98291
1.98289
1.98288
1.98283
1.98279
1.98273
1.98266
1.98264
1.98261
1.98263
1.98262
1.98263
1.98265
2.45161
2.45165
2.45167
2.45169
2.45166
2.45166
2.45163
2.45163
2.45162
2.45159
2.45155
2.45154
2.4515
2.45145
2.45143
2.45139
2.45137
2.45138
2.45137
2.45138
3.15185
3.15182
3.15182
3.15182
3.15178
3.15175
3.15172
3.15168
3.1517
3.1517
3.15178
3.15182
3.15185
3.15188
3.15181
3.15179
3.15172
3.15168
3.15161
3.1516
4.29659
4.29646
4.29634
4.29625
4.29626
4.29621
4.29615
4.29609
4.29613
4.29618
4.29626
4.2964
4.29652
4.29658
4.29662
4.29658
4.29656
4.29653
4.29652
4.2964
6.4492
6.44897
6.44881
6.44875
6.44869
6.44879
6.4487
6.44861
6.44853
6.44857
6.4485
6.44852
6.44865
6.44886
6.44906
6.44913
6.44914
6.44907
6.44912
6.44894
11.5833
11.5831
11.5829
11.5829
11.5827
11.5824
11.5824
11.5822
11.5821
11.5819
11.582
11.5819
11.5818
11.5821
11.582
11.582
11.5818
11.5819
11.5819
11.5822
29.6358
29.6358
29.6358
29.6357
29.6356
29.6357
29.6357
29.6356
29.6356
29.6355
29.6355
29.6355
29.6355
29.6357
29.6358
29.6358
29.6358
29.6358
29.6359
29.6359
)
;

boundaryField
{
    movingWall
    {
        type            epsilonWallFunction;
        value           nonuniform List<scalar> 
20
(
29.6358
29.6358
29.6358
29.6357
29.6356
29.6357
29.6357
29.6356
29.6356
29.6355
29.6355
29.6355
29.6355
29.6357
29.6358
29.6358
29.6358
29.6358
29.6359
29.6359
)
;
    }
    bottomWall
    {
        type            epsilonWallFunction;
        value           nonuniform List<scalar> 
20
(
18.8996
18.8999
18.9002
18.9003
18.9004
18.9003
18.9001
18.8999
18.8998
18.8996
18.8995
18.8994
18.8992
18.8992
18.8991
18.8992
18.8991
18.8993
18.8994
18.8994
)
;
    }
    cyc_half0
    {
        type            cyclic;
    }
    cyc_half1
    {
        type            cyclic;
    }
    frontAndBack
    {
        type            empty;
    }
}


// ************************************************************************* //
