/*--------------------------------*- C++ -*----------------------------------*\
  =========                 |
  \\      /  F ield         | OpenFOAM: The Open Source CFD Toolbox
   \\    /   O peration     | Website:  https://openfoam.org
    \\  /    A nd           | Version:  13
     \\/     M anipulation  |
\*---------------------------------------------------------------------------*/
FoamFile
{
    format      ascii;
    class       volScalarField;
    location    "3900";
    object      k;
}
// * * * * * * * * * * * * * * * * * * * * * * * * * * * * * * * * * * * * * //

dimensions      [0 2 -2 0 0 0 0];

internalField   nonuniform List<scalar> 
800
(
0.101248
0.101249
0.101249
0.10125
0.101251
0.101251
0.10125
0.101249
0.101249
0.101249
0.101248
0.101247
0.101247
0.101247
0.101247
0.101247
0.101247
0.101247
0.101247
0.101247
0.107005
0.107006
0.107005
0.107002
0.107001
0.106999
0.106999
0.106997
0.106995
0.106993
0.106993
0.106995
0.106995
0.106994
0.106996
0.106995
0.106995
0.106995
0.106998
0.107
0.104763
0.104764
0.104765
0.104765
0.104763
0.104762
0.10476
0.104759
0.104757
0.104756
0.104756
0.104758
0.10476
0.104762
0.104761
0.104761
0.104761
0.104761
0.104761
0.104761
0.103901
0.103902
0.103902
0.103902
0.103901
0.103901
0.103899
0.1039
0.103899
0.1039
0.103899
0.103899
0.103898
0.103901
0.1039
0.103901
0.103903
0.103903
0.103903
0.103903
0.103708
0.103708
0.103708
0.103706
0.103706
0.103705
0.103705
0.103705
0.103706
0.103705
0.103705
0.103705
0.103704
0.103705
0.103705
0.103707
0.103707
0.103708
0.103707
0.103708
0.103868
0.103868
0.103868
0.103868
0.103866
0.103865
0.103866
0.103865
0.103865
0.103864
0.103864
0.103863
0.103864
0.103864
0.103865
0.103866
0.103866
0.103868
0.103867
0.103867
0.104238
0.104237
0.104236
0.104237
0.104237
0.104236
0.104236
0.104235
0.104235
0.104236
0.104236
0.104236
0.104236
0.104235
0.104236
0.104236
0.104237
0.104238
0.104239
0.104237
0.104744
0.104744
0.104745
0.104744
0.104745
0.104745
0.104744
0.104744
0.104743
0.104744
0.104745
0.104747
0.104746
0.104746
0.104745
0.104744
0.104745
0.104745
0.104744
0.104744
0.10535
0.10535
0.10535
0.105351
0.10535
0.10535
0.10535
0.10535
0.10535
0.10535
0.105351
0.105352
0.105353
0.105354
0.105353
0.105352
0.105351
0.105351
0.10535
0.105351
0.106032
0.106033
0.106032
0.106033
0.106032
0.106033
0.106033
0.106033
0.106033
0.106034
0.106034
0.106033
0.106033
0.106034
0.106034
0.106034
0.106033
0.106033
0.106034
0.106033
0.106777
0.106777
0.106777
0.106778
0.106778
0.106779
0.10678
0.10678
0.10678
0.106779
0.106779
0.106778
0.106777
0.106777
0.106777
0.106778
0.106778
0.106777
0.106778
0.106778
0.107578
0.107578
0.107577
0.107578
0.107579
0.107579
0.10758
0.10758
0.10758
0.107578
0.107578
0.107578
0.107578
0.107577
0.107577
0.107578
0.107579
0.107578
0.107578
0.107578
0.108429
0.10843
0.10843
0.10843
0.10843
0.10843
0.10843
0.10843
0.108429
0.108429
0.108429
0.108429
0.108429
0.108429
0.10843
0.108429
0.108429
0.108429
0.108429
0.108429
0.109329
0.109329
0.109329
0.10933
0.10933
0.109329
0.10933
0.109329
0.10933
0.109331
0.109331
0.10933
0.109331
0.10933
0.10933
0.10933
0.109329
0.109329
0.109329
0.109329
0.110278
0.110278
0.110277
0.110277
0.110278
0.110278
0.110279
0.110279
0.11028
0.11028
0.11028
0.11028
0.11028
0.11028
0.110279
0.11028
0.110279
0.110279
0.110279
0.110278
0.111278
0.111278
0.111278
0.111278
0.111279
0.11128
0.11128
0.11128
0.11128
0.11128
0.11128
0.11128
0.111279
0.111279
0.111279
0.111279
0.111279
0.111279
0.111278
0.111279
0.112333
0.112333
0.112334
0.112334
0.112334
0.112334
0.112334
0.112334
0.112334
0.112334
0.112334
0.112334
0.112334
0.112334
0.112334
0.112334
0.112333
0.112333
0.112333
0.112332
0.113448
0.113448
0.113448
0.113448
0.113447
0.113447
0.113447
0.113447
0.113447
0.113447
0.113447
0.113447
0.113448
0.113448
0.113447
0.113447
0.113448
0.113448
0.113448
0.113448
0.11463
0.11463
0.114629
0.114629
0.114628
0.114628
0.114627
0.114627
0.114627
0.114627
0.114627
0.114627
0.114627
0.114628
0.114628
0.114629
0.114629
0.114629
0.114629
0.11463
0.115887
0.115887
0.115886
0.115886
0.115886
0.115885
0.115885
0.115884
0.115884
0.115884
0.115884
0.115885
0.115885
0.115885
0.115886
0.115886
0.115887
0.115887
0.115887
0.115887
0.117195
0.117194
0.117194
0.117193
0.117193
0.117193
0.117194
0.117194
0.117194
0.117194
0.117193
0.117193
0.117194
0.117193
0.117194
0.117194
0.117195
0.117195
0.117195
0.117195
0.118485
0.118486
0.118486
0.118486
0.118487
0.118487
0.118486
0.118486
0.118486
0.118486
0.118485
0.118486
0.118485
0.118485
0.118485
0.118486
0.118486
0.118486
0.118486
0.118486
0.11973
0.119732
0.119732
0.119732
0.119732
0.119732
0.119732
0.119732
0.119732
0.119732
0.119731
0.119731
0.11973
0.11973
0.11973
0.11973
0.11973
0.11973
0.11973
0.11973
0.120938
0.120938
0.120938
0.120938
0.120938
0.120939
0.120939
0.12094
0.12094
0.12094
0.12094
0.120939
0.120939
0.120938
0.120938
0.120937
0.120937
0.120937
0.120937
0.120937
0.122113
0.122113
0.122113
0.122113
0.122113
0.122113
0.122114
0.122114
0.122115
0.122114
0.122114
0.122115
0.122115
0.122115
0.122114
0.122114
0.122114
0.122113
0.122113
0.122113
0.123261
0.123261
0.123261
0.123261
0.123261
0.123261
0.123261
0.123261
0.123262
0.123262
0.123262
0.123262
0.123262
0.123262
0.123262
0.123262
0.123262
0.123262
0.123262
0.123262
0.124384
0.124384
0.124383
0.124384
0.124384
0.124383
0.124383
0.124383
0.124383
0.124384
0.124384
0.124384
0.124384
0.124385
0.124385
0.124385
0.124385
0.124385
0.124385
0.124384
0.125485
0.125485
0.125484
0.125485
0.125484
0.125484
0.125483
0.125482
0.125482
0.125483
0.125484
0.125484
0.125485
0.125486
0.125486
0.125486
0.125485
0.125485
0.125485
0.125484
0.12657
0.12657
0.126569
0.126568
0.126567
0.126566
0.126566
0.126566
0.126565
0.126566
0.126566
0.126567
0.126568
0.126569
0.126569
0.126569
0.126569
0.126569
0.126569
0.126569
0.127641
0.127642
0.127642
0.127641
0.12764
0.127639
0.127639
0.127639
0.127638
0.127639
0.127638
0.127639
0.127638
0.127639
0.127638
0.127639
0.127639
0.127641
0.12764
0.127641
0.128706
0.128706
0.128707
0.128707
0.128708
0.128708
0.128707
0.128707
0.128705
0.128705
0.128705
0.128704
0.128704
0.128703
0.128703
0.128704
0.128703
0.128704
0.128704
0.128705
0.129777
0.129776
0.129775
0.129776
0.129777
0.129776
0.129777
0.129777
0.129777
0.129776
0.129775
0.129774
0.129774
0.129774
0.129774
0.129774
0.129775
0.129775
0.129776
0.129777
0.130869
0.130868
0.130868
0.130867
0.130868
0.130869
0.130871
0.130871
0.130871
0.130871
0.13087
0.130868
0.130867
0.130867
0.130867
0.130867
0.130868
0.130868
0.130869
0.130869
0.132012
0.132013
0.132014
0.132014
0.132014
0.132016
0.132017
0.132017
0.132017
0.132016
0.132015
0.132013
0.132011
0.132009
0.132009
0.132009
0.13201
0.13201
0.132011
0.132012
0.133261
0.133262
0.133263
0.133264
0.133264
0.133264
0.133263
0.133264
0.133264
0.133263
0.133262
0.133262
0.133261
0.133259
0.133259
0.133259
0.133259
0.133259
0.133259
0.13326
0.134709
0.134709
0.13471
0.13471
0.13471
0.134709
0.134709
0.134708
0.134709
0.134709
0.134712
0.134713
0.134714
0.134715
0.134713
0.134713
0.134711
0.134711
0.134709
0.134709
0.136551
0.136549
0.136548
0.136547
0.136547
0.136546
0.136545
0.136545
0.136546
0.136548
0.13655
0.136553
0.136556
0.136557
0.136557
0.136557
0.136556
0.136556
0.136555
0.136553
0.139216
0.139214
0.139212
0.139212
0.139211
0.139213
0.139212
0.139211
0.139211
0.139212
0.139212
0.139213
0.139215
0.139218
0.139221
0.139222
0.139222
0.139221
0.139221
0.139218
0.143723
0.143722
0.143722
0.143722
0.14372
0.143718
0.143718
0.143718
0.143717
0.143716
0.143717
0.143717
0.143717
0.143719
0.143718
0.143719
0.143718
0.143719
0.14372
0.143722
0.136582
0.136582
0.136582
0.136581
0.136581
0.136581
0.136581
0.136581
0.136581
0.136581
0.136581
0.136581
0.13658
0.13658
0.136581
0.136581
0.136582
0.136582
0.136582
0.136582
)
;

boundaryField
{
    movingWall
    {
        type            kqRWallFunction;
        value           nonuniform List<scalar> 
20
(
0.136582
0.136582
0.136582
0.136581
0.136581
0.136581
0.136581
0.136581
0.136581
0.136581
0.136581
0.136581
0.13658
0.13658
0.136581
0.136581
0.136582
0.136582
0.136582
0.136582
)
;
    }
    bottomWall
    {
        type            kqRWallFunction;
        value           nonuniform List<scalar> 
20
(
0.101248
0.101249
0.101249
0.10125
0.101251
0.101251
0.10125
0.101249
0.101249
0.101249
0.101248
0.101247
0.101247
0.101247
0.101247
0.101247
0.101247
0.101247
0.101247
0.101247
)
;
    }
    cyc_half0
    {
        type            cyclic;
    }
    cyc_half1
    {
        type            cyclic;
    }
    frontAndBack
    {
        type            empty;
    }
}


// ************************************************************************* //
