/*--------------------------------*- C++ -*----------------------------------*\
  =========                 |
  \\      /  F ield         | OpenFOAM: The Open Source CFD Toolbox
   \\    /   O peration     | Website:  https://openfoam.org
    \\  /    A nd           | Version:  13
     \\/     M anipulation  |
\*---------------------------------------------------------------------------*/
FoamFile
{
    format      ascii;
    class       volScalarField;
    location    "3900";
    object      p;
}
// * * * * * * * * * * * * * * * * * * * * * * * * * * * * * * * * * * * * * //

dimensions      [0 2 -2 0 0 0 0];

internalField   nonuniform List<scalar> 
800
(
1.92529e-06
3.00816e-05
1.50676e-05
-3.33651e-05
-3.13778e-05
5.49724e-06
-6.99607e-06
1.02748e-05
2.23732e-05
1.47653e-05
2.63745e-05
1.83829e-05
1.58391e-05
-8.71331e-06
-3.15992e-06
8.53439e-07
-1.48691e-05
-1.7313e-05
-2.01392e-05
-2.68887e-05
-1.45352e-06
2.82971e-05
2.2486e-05
-3.71491e-05
-3.089e-05
-1.83176e-06
-1.13634e-05
1.42057e-05
2.52347e-05
1.19614e-05
2.49285e-05
3.08889e-05
1.09668e-05
-8.50435e-06
4.33882e-06
6.98704e-06
-1.40614e-05
-1.98636e-05
-2.29155e-05
-2.98652e-05
3.03542e-07
2.07379e-05
2.2269e-05
-3.39126e-05
-3.01133e-05
5.55307e-06
-8.01921e-06
1.53511e-05
1.55824e-05
1.04834e-05
2.83639e-05
3.02009e-05
1.2644e-05
-5.53583e-06
2.51214e-06
1.91633e-05
-1.62347e-05
-3.23965e-05
-1.96011e-05
-2.57172e-05
3.80325e-06
3.92315e-06
1.40552e-05
-3.29645e-05
-3.48935e-05
6.28264e-07
-3.9143e-06
1.42957e-05
1.72521e-05
9.86973e-06
3.61177e-05
2.65419e-05
3.93795e-06
-3.91463e-06
4.28572e-06
6.63101e-06
-2.17683e-05
-3.72181e-05
-1.68001e-05
-1.67237e-05
1.42344e-05
6.21759e-07
1.56501e-05
-3.15535e-05
-4.04383e-05
-4.21999e-06
-2.49338e-06
9.2825e-06
2.2965e-05
1.42756e-05
3.24171e-05
2.60349e-05
2.39139e-06
1.55433e-06
-3.37072e-06
-2.83469e-05
-1.60121e-05
-2.20302e-05
-2.30478e-05
-6.68858e-06
1.2852e-05
7.67011e-06
1.77467e-05
-1.97734e-05
-4.8079e-05
-1.5756e-05
-2.18931e-06
7.87043e-06
2.55339e-05
3.22348e-05
3.598e-05
9.81272e-06
7.05456e-06
6.94602e-06
-3.50336e-05
-3.55682e-05
-5.14906e-06
-2.24373e-05
-2.70926e-05
-3.13701e-06
1.48944e-05
1.28487e-05
2.23316e-05
-5.05721e-06
-4.21558e-05
-2.73983e-05
-9.909e-06
3.1351e-06
2.61348e-05
4.23813e-05
4.57374e-05
1.52633e-05
5.38325e-06
3.82543e-06
-4.98067e-05
-4.89621e-05
-2.99882e-05
-3.36744e-05
-2.16982e-06
1.00823e-05
2.12669e-05
1.99525e-05
1.52598e-05
-4.21262e-06
-3.25652e-05
-1.23855e-05
-6.73601e-06
9.63478e-07
1.68254e-05
2.48196e-05
5.16438e-05
3.23386e-05
1.5258e-05
2.25644e-07
-5.82211e-05
-6.62084e-05
-6.74606e-05
-3.35039e-05
6.04889e-06
1.00715e-05
3.61521e-05
7.4797e-06
-1.12724e-05
5.58555e-06
-1.78083e-05
8.46696e-07
-1.09328e-05
2.18996e-06
5.64232e-06
2.74359e-05
2.82737e-05
4.39491e-05
3.91819e-05
9.24565e-06
-4.61328e-05
-7.59958e-05
-9.0687e-05
-2.28978e-05
2.34577e-07
1.14779e-05
8.35418e-05
-5.21825e-07
-3.90623e-05
-6.12362e-08
-1.25856e-05
-1.37991e-05
-2.5585e-05
-5.23672e-06
6.77871e-07
4.81468e-06
1.53443e-05
4.55837e-05
4.02146e-05
-1.07844e-05
-2.81643e-05
-6.76428e-05
-0.000110161
-5.2846e-05
-6.62013e-06
2.99742e-05
0.000101149
-9.38057e-06
-6.33518e-05
-3.62218e-05
-1.73791e-06
-3.41079e-05
-2.46226e-05
-5.90379e-06
-3.19239e-06
-1.65026e-05
1.35898e-05
6.54186e-05
2.85316e-05
7.43422e-06
2.70538e-07
-6.86199e-05
-0.00010915
-7.58366e-05
-1.22217e-05
6.23945e-05
0.000141525
-9.68382e-06
-8.9973e-05
-8.10106e-05
-3.3619e-05
-1.42201e-05
-1.54119e-05
-1.67284e-05
1.03326e-05
-1.89097e-05
6.7025e-06
8.30292e-05
5.6952e-05
2.06605e-05
-1.75242e-05
-6.11183e-05
-6.41165e-05
-7.99783e-05
-2.54275e-05
8.91115e-05
0.000115082
-1.67058e-05
-9.40735e-05
-8.31479e-05
-4.49889e-05
-6.52094e-07
4.41441e-06
-2.72347e-06
1.59953e-05
-4.74388e-05
-4.91596e-06
5.07685e-05
5.69027e-05
3.99208e-05
2.26172e-05
-5.44223e-05
-6.88468e-05
-7.12761e-05
-1.72691e-05
9.95967e-05
7.14671e-05
-3.51517e-05
-8.13097e-05
-6.85804e-05
-2.71853e-05
5.79113e-07
-2.78077e-05
6.93796e-06
1.31933e-05
-4.98663e-05
-2.28832e-05
8.46081e-06
7.36988e-05
5.54843e-05
4.58969e-05
3.6003e-06
-6.61958e-05
-8.14244e-05
-8.35712e-06
0.00010045
6.37533e-05
-5.38982e-06
-7.09911e-05
-5.54057e-05
-1.31289e-05
-3.20483e-05
-3.44187e-05
-6.62091e-06
-4.72899e-05
-3.95937e-05
-1.83771e-05
6.2439e-06
5.97469e-05
9.07856e-05
4.95399e-05
-1.1191e-05
-7.08233e-05
-5.26503e-05
1.12231e-05
7.40969e-05
5.45487e-05
1.14893e-05
-2.42035e-05
-6.06033e-05
-3.79525e-05
-5.58324e-05
-3.6804e-05
-5.89575e-05
-5.02084e-05
-2.26786e-05
-1.88672e-05
3.44198e-05
6.10782e-05
6.20459e-05
1.78279e-05
-1.26567e-05
-1.94845e-05
-2.42796e-05
2.1706e-05
6.94383e-05
5.73613e-05
-1.57554e-05
-4.38796e-05
-7.31461e-05
-5.3216e-05
-5.01067e-05
-4.10073e-05
-6.34022e-05
-7.4798e-05
-4.42086e-05
1.62501e-05
8.64819e-05
2.90155e-05
2.26844e-05
4.03785e-05
-1.57389e-05
-1.79237e-05
3.40644e-07
4.36069e-05
7.34863e-05
-1.84125e-05
-2.40965e-05
-4.06013e-05
-5.21296e-05
-3.27155e-05
-8.10789e-05
-5.24681e-05
-5.15031e-05
-8.26213e-05
-5.64085e-05
2.36111e-06
4.94843e-05
3.61213e-05
4.47026e-05
5.15825e-05
1.08165e-05
-6.71939e-06
5.09073e-05
9.13506e-05
3.82286e-05
-3.98422e-06
-1.28298e-06
-8.18342e-06
-5.41515e-05
-3.05763e-05
-8.67776e-05
-6.74597e-05
-9.66539e-05
-7.47704e-05
-2.26268e-05
1.87502e-05
4.31945e-05
4.21819e-05
0.000101351
8.54705e-05
-3.91555e-05
-4.59282e-05
2.26756e-05
5.73248e-05
6.36386e-05
2.21107e-05
2.71095e-07
-6.57038e-05
-7.10313e-05
-3.08183e-05
-3.53909e-05
-3.80791e-05
-0.000116904
-4.77375e-05
1.68246e-05
5.00038e-06
1.88349e-05
3.84144e-06
9.3451e-05
0.000132559
-1.12533e-05
-6.5897e-05
-2.6451e-05
3.06465e-05
6.59584e-05
5.56279e-05
6.12312e-05
-6.60839e-05
-9.62436e-05
-2.81896e-05
-4.76326e-05
-8.89586e-05
-0.000100445
-4.70883e-05
-1.2669e-05
1.5536e-05
-3.01163e-08
-2.26687e-05
9.70028e-05
0.000166694
-1.61707e-05
-7.79492e-05
-2.23464e-05
3.13985e-05
1.37636e-05
7.28592e-05
5.1458e-05
-8.23516e-05
-0.000113118
-7.69112e-05
-4.16131e-05
-4.08988e-05
-4.88978e-05
-6.19874e-05
-3.77719e-05
1.29021e-05
-1.96544e-06
-1.42815e-05
5.40756e-05
7.24414e-05
-4.80131e-05
-3.99061e-05
1.22278e-05
3.01374e-05
7.30226e-05
7.89577e-05
5.8448e-06
-5.08517e-05
-8.05941e-05
-8.10919e-05
-1.00851e-05
2.34973e-05
-3.24661e-05
-6.20829e-05
-3.32227e-05
-2.96365e-05
-3.09042e-05
-1.48145e-05
2.16311e-05
4.21439e-05
-5.30813e-05
-3.28724e-05
4.7485e-06
2.99735e-05
0.000110351
0.000102444
3.61525e-05
-3.04771e-05
-7.08035e-05
-7.49265e-05
-1.41708e-05
7.70697e-08
-5.3876e-05
-7.81972e-05
-5.29277e-05
-2.50796e-05
-4.06057e-07
-2.61452e-05
2.26408e-05
7.68467e-06
-5.29296e-05
-3.36016e-05
3.77626e-06
-1.02865e-06
7.30201e-05
0.000111009
4.37593e-05
1.28531e-05
-4.87486e-05
-7.3514e-05
-3.59333e-05
-5.54251e-05
-4.53587e-05
-3.6201e-05
-8.18801e-05
-3.03039e-05
2.71052e-05
5.53072e-06
1.87449e-05
-8.97799e-06
-3.51823e-05
-2.19788e-05
1.83519e-05
-9.55009e-06
5.69017e-05
9.46308e-05
3.83268e-05
-1.05569e-05
-2.03263e-05
-7.02255e-05
-5.75855e-05
-5.06367e-05
-4.51732e-05
-1.1716e-05
-9.93886e-05
-6.50011e-05
6.9241e-06
4.03423e-05
5.06474e-05
0.000102427
-8.40584e-07
-2.51458e-05
2.10327e-05
-2.35278e-05
4.93715e-05
7.30432e-05
2.08608e-05
1.51429e-05
-6.36917e-06
-7.53074e-05
-5.90665e-05
-1.62407e-05
-3.45322e-05
-4.1672e-05
-0.000106861
-8.3426e-05
-6.82543e-06
6.44342e-05
7.80458e-05
0.000129883
1.41445e-05
-4.66578e-05
-1.65046e-05
-2.71614e-05
7.2101e-05
7.43315e-05
-4.59616e-07
7.11262e-06
-1.19638e-05
-4.29265e-05
-4.65908e-05
-3.38841e-05
-4.67744e-05
-5.64063e-05
-8.14589e-05
-8.47387e-05
-5.63099e-06
5.60538e-05
8.18428e-05
0.000135559
7.18902e-05
-3.91709e-05
-5.49311e-05
-5.35674e-05
5.89658e-05
7.01879e-05
3.21713e-05
1.47243e-05
5.44067e-06
-2.46081e-05
-4.69045e-05
-3.46549e-05
-2.69219e-05
-6.57304e-05
-9.51192e-05
-7.70352e-05
-1.01879e-05
4.7199e-05
9.17689e-05
0.00014203
7.91163e-05
1.01204e-05
-8.48649e-05
-8.26094e-05
9.74637e-06
6.02041e-05
3.22702e-05
5.64118e-05
6.63245e-05
2.7991e-05
-6.9959e-05
-7.20758e-05
-4.2689e-05
-6.03238e-05
-7.69224e-05
-7.03687e-05
-3.34244e-06
3.32625e-05
6.09269e-05
0.000125282
5.72021e-05
1.76197e-05
-5.54265e-05
-9.82373e-05
-1.14752e-05
4.51407e-05
4.48191e-05
6.92609e-05
0.000114895
3.80133e-05
-7.11094e-05
-7.60161e-05
-3.93356e-05
-6.12285e-05
-7.83862e-05
-6.38503e-05
2.87742e-06
3.00055e-05
4.95042e-05
8.88623e-05
6.12093e-05
2.44933e-05
-7.09807e-05
-9.95197e-05
-2.1029e-05
3.7447e-05
5.48087e-05
7.52051e-05
0.000100703
6.49913e-05
-4.36817e-05
-6.86771e-05
-4.056e-05
-3.37919e-05
-7.42621e-05
-6.29449e-05
2.69912e-06
2.01255e-05
3.25276e-05
7.23914e-05
5.96576e-05
1.13509e-05
-7.34221e-05
-9.63475e-05
-3.49896e-05
2.73806e-05
6.97926e-05
6.59776e-05
8.71063e-05
8.85713e-05
-2.05266e-05
-6.09708e-05
-1.81482e-05
-2.295e-05
-6.55403e-05
-4.0093e-05
-2.58156e-05
-1.48233e-06
3.2382e-05
4.79726e-05
8.69895e-06
-3.16953e-05
-7.32725e-05
-6.69186e-05
-2.1559e-05
1.44126e-05
7.32154e-05
6.62099e-05
9.05242e-05
7.5799e-05
-6.58152e-06
-4.41314e-05
1.09321e-05
-3.79464e-05
-6.80107e-05
-1.67555e-05
-8.94532e-06
-9.55849e-06
1.53887e-05
1.36964e-05
-1.68549e-05
-3.52876e-05
-6.11353e-05
-4.80422e-05
-1.90933e-05
1.91529e-06
5.92566e-05
8.30987e-05
0.000101137
7.76885e-05
1.5837e-05
-3.17058e-05
2.31486e-05
-1.31685e-05
-5.58916e-05
-3.63065e-05
-4.3785e-05
6.53729e-06
-3.50672e-06
-6.59543e-06
-3.36805e-05
-5.84744e-05
-4.03387e-05
-2.84006e-05
-4.1161e-05
-2.04103e-06
4.3493e-05
8.29326e-05
0.000108734
7.92462e-05
3.56976e-05
-1.01317e-05
8.89992e-06
1.61157e-05
-3.89681e-05
-5.51067e-05
-5.85402e-05
9.61603e-06
-1.30602e-05
-1.03108e-05
-5.21297e-05
-6.50255e-05
-3.54734e-05
-3.08594e-05
-4.21609e-05
-1.84779e-05
2.66943e-05
8.14806e-05
0.000115456
8.36674e-05
3.08864e-05
-1.75119e-05
-1.04869e-05
1.45465e-05
-2.66908e-05
-4.69523e-05
-4.5694e-05
4.23348e-08
5.31226e-06
-2.08053e-05
-6.30042e-05
-6.5125e-05
-3.21915e-05
1.21807e-06
-2.71318e-05
-2.88368e-05
1.04442e-05
7.37783e-05
0.000104878
8.95351e-05
5.35909e-05
-1.94032e-05
-3.4092e-05
7.28458e-06
-9.75338e-06
-4.09107e-05
-5.91919e-05
-1.79339e-05
4.59596e-06
-3.05158e-05
-5.84911e-05
-7.68678e-05
-2.58133e-05
3.30877e-05
1.17252e-05
-2.04741e-05
1.38112e-05
7.40402e-05
9.83367e-05
9.47009e-05
6.90888e-05
-3.56357e-05
-3.83372e-05
2.15057e-06
-4.09771e-06
-3.82238e-05
-6.26377e-05
-2.70142e-05
7.76319e-06
-3.33054e-05
-5.41548e-05
-7.23393e-05
-3.47334e-05
2.61109e-05
1.5367e-05
-1.99127e-05
1.42118e-05
7.2935e-05
9.90045e-05
0.000137741
7.78556e-05
-4.37513e-05
-3.48472e-05
2.86664e-06
-1.27002e-07
-4.2418e-05
-5.95265e-05
-2.76675e-05
2.70176e-05
-3.06919e-05
-5.78339e-05
-7.66018e-05
-3.67861e-05
2.12214e-05
1.92076e-05
)
;

boundaryField
{
    movingWall
    {
        type            zeroGradient;
    }
    bottomWall
    {
        type            zeroGradient;
    }
    cyc_half0
    {
        type            cyclic;
    }
    cyc_half1
    {
        type            cyclic;
    }
    frontAndBack
    {
        type            empty;
    }
}


// ************************************************************************* //
