/*--------------------------------*- C++ -*----------------------------------*\
  =========                 |
  \\      /  F ield         | OpenFOAM: The Open Source CFD Toolbox
   \\    /   O peration     | Website:  https://openfoam.org
    \\  /    A nd           | Version:  13
     \\/     M anipulation  |
\*---------------------------------------------------------------------------*/
FoamFile
{
    format      ascii;
    class       volVectorField;
    location    "3900";
    object      U;
}
// * * * * * * * * * * * * * * * * * * * * * * * * * * * * * * * * * * * * * //

dimensions      [0 1 -1 0 0 0 0];

internalField   nonuniform List<vector> 
800
(
(2.69506 -3.1711e-06 0)
(2.6951 -8.20791e-06 0)
(2.69512 -1.16421e-05 0)
(2.69518 -5.99628e-06 0)
(2.6952 2.17361e-06 0)
(2.69516 3.03918e-06 0)
(2.6951 3.44423e-06 0)
(2.69515 -4.76284e-06 0)
(2.69517 -1.48775e-06 0)
(2.69514 2.10248e-06 0)
(2.69512 4.89383e-06 0)
(2.69507 -3.92765e-06 0)
(2.69517 -8.47519e-06 0)
(2.69514 9.51717e-06 0)
(2.69514 4.10855e-06 0)
(2.69516 -5.58831e-06 0)
(2.69516 1.92421e-06 0)
(2.69517 3.40548e-06 0)
(2.69508 6.59576e-06 0)
(2.69512 5.1187e-06 0)
(3.13798 -1.71551e-06 0)
(3.13798 -1.07388e-05 0)
(3.13798 -1.16969e-05 0)
(3.13795 -6.71034e-06 0)
(3.13803 -1.43493e-06 0)
(3.13803 1.00318e-05 0)
(3.13804 7.11042e-07 0)
(3.13803 -4.45056e-06 0)
(3.13801 1.00855e-07 0)
(3.13801 1.01556e-05 0)
(3.13801 1.45008e-05 0)
(3.13791 4.49189e-07 0)
(3.1379 -2.70818e-06 0)
(3.13787 1.03179e-06 0)
(3.13797 -4.75528e-06 0)
(3.13789 -1.74681e-06 0)
(3.13794 2.24846e-06 0)
(3.13795 5.92398e-06 0)
(3.13795 4.21299e-06 0)
(3.13796 2.66476e-06 0)
(3.37147 -5.06603e-06 0)
(3.37146 -1.12086e-05 0)
(3.37144 -1.10176e-05 0)
(3.37141 -1.41706e-05 0)
(3.3715 -6.88754e-06 0)
(3.37143 1.01329e-05 0)
(3.37149 5.79162e-06 0)
(3.37147 -8.62021e-06 0)
(3.37147 4.36518e-06 0)
(3.37142 1.59542e-05 0)
(3.37147 1.16755e-05 0)
(3.37149 1.52425e-05 0)
(3.37149 4.53135e-06 0)
(3.37139 -5.68563e-06 0)
(3.37147 -3.19553e-06 0)
(3.37138 3.69757e-06 0)
(3.37135 -2.11113e-06 0)
(3.3714 -1.74352e-06 0)
(3.37143 2.76387e-06 0)
(3.37145 3.94514e-06 0)
(3.52999 -1.41256e-05 0)
(3.53003 -1.46263e-05 0)
(3.53005 -1.30977e-05 0)
(3.53005 -1.87004e-05 0)
(3.53005 -6.38859e-06 0)
(3.53004 -1.52238e-06 0)
(3.53004 5.94408e-06 0)
(3.53002 1.32111e-05 0)
(3.52991 1.11856e-05 0)
(3.52998 8.41393e-06 0)
(3.52995 5.02339e-06 0)
(3.52992 -3.9969e-07 0)
(3.53003 6.78008e-06 0)
(3.53001 3.36287e-06 0)
(3.53002 9.30723e-06 0)
(3.52994 1.83218e-05 0)
(3.52993 3.16503e-07 0)
(3.52996 -1.0142e-05 0)
(3.52994 1.91768e-06 0)
(3.52992 -1.24679e-05 0)
(3.65009 -1.48891e-05 0)
(3.65014 -1.8702e-05 0)
(3.65012 -1.468e-05 0)
(3.65009 -2.17959e-05 0)
(3.65016 -1.09341e-05 0)
(3.65016 4.06145e-06 0)
(3.6501 1.31397e-05 0)
(3.65017 1.46448e-05 0)
(3.6501 1.88397e-05 0)
(3.65017 3.416e-06 0)
(3.65017 1.05598e-05 0)
(3.65018 5.45884e-07 0)
(3.65009 -1.63341e-06 0)
(3.65018 3.45211e-06 0)
(3.65009 7.11283e-06 0)
(3.65015 2.38455e-05 0)
(3.65016 4.44056e-06 0)
(3.65011 -3.78709e-06 0)
(3.65015 -5.40661e-06 0)
(3.65016 -5.41431e-06 0)
(3.74749 -1.95654e-05 0)
(3.74751 -2.28051e-05 0)
(3.74752 -8.16219e-06 0)
(3.74743 -1.92975e-05 0)
(3.74748 -2.16161e-05 0)
(3.74749 6.01584e-06 0)
(3.74749 9.44988e-06 0)
(3.7475 1.45461e-05 0)
(3.74749 9.80018e-06 0)
(3.74749 6.86563e-06 0)
(3.74741 5.21575e-06 0)
(3.74747 7.16385e-07 0)
(3.74748 -1.97154e-07 0)
(3.7475 4.59813e-06 0)
(3.74749 1.99093e-05 0)
(3.74752 2.12534e-05 0)
(3.74743 1.7375e-06 0)
(3.74748 -1.00814e-05 0)
(3.74742 -4.75221e-06 0)
(3.7475 -4.20076e-06 0)
(3.83 -1.9218e-05 0)
(3.83001 -2.20547e-05 0)
(3.82994 -4.28885e-06 0)
(3.82998 -4.35128e-06 0)
(3.82991 -1.04949e-05 0)
(3.82989 -6.22923e-06 0)
(3.82996 2.5628e-06 0)
(3.82996 9.73821e-06 0)
(3.82998 2.00527e-05 0)
(3.82989 1.70506e-05 0)
(3.82994 9.92694e-06 0)
(3.82988 -3.38028e-06 0)
(3.82993 -1.93798e-05 0)
(3.82997 -1.7507e-06 0)
(3.82998 9.19229e-06 0)
(3.83001 2.1753e-05 0)
(3.83 1.55423e-05 0)
(3.83002 8.47499e-07 0)
(3.82994 -1.03459e-05 0)
(3.83 -1.65134e-05 0)
(3.90225 -2.73352e-05 0)
(3.90221 -1.34572e-05 0)
(3.90218 3.8642e-06 0)
(3.90215 -2.25777e-06 0)
(3.9022 -8.68019e-06 0)
(3.90219 -5.71868e-06 0)
(3.90215 6.04228e-06 0)
(3.90215 1.68035e-05 0)
(3.90214 2.58117e-05 0)
(3.90221 1.61269e-05 0)
(3.90216 1.96428e-05 0)
(3.90214 -2.55592e-06 0)
(3.90216 -2.3265e-05 0)
(3.90211 -1.45425e-05 0)
(3.90219 4.59973e-06 0)
(3.90223 1.04549e-05 0)
(3.90225 9.46354e-06 0)
(3.90227 3.40076e-06 0)
(3.90226 -1.78524e-06 0)
(3.90219 -8.82856e-06 0)
(3.96713 -2.78561e-05 0)
(3.96711 4.55466e-06 0)
(3.96712 1.38309e-05 0)
(3.9671 -1.28707e-05 0)
(3.9671 -2.56953e-06 0)
(3.967 5.74917e-06 0)
(3.96705 -3.21228e-08 0)
(3.96705 1.02172e-05 0)
(3.96705 9.92471e-06 0)
(3.96705 2.27446e-05 0)
(3.96703 1.516e-05 0)
(3.96712 -4.4257e-06 0)
(3.96706 -6.71301e-06 0)
(3.96703 -6.31031e-06 0)
(3.967 -1.81191e-05 0)
(3.96709 -3.97621e-06 0)
(3.96712 1.94832e-06 0)
(3.96712 9.96073e-06 0)
(3.96705 -4.47759e-06 0)
(3.96711 -2.2984e-05 0)
(4.02659 -2.59351e-05 0)
(4.02652 -1.4303e-05 0)
(4.0266 2.05673e-05 0)
(4.02655 1.01859e-05 0)
(4.02647 7.27871e-06 0)
(4.02653 7.68192e-06 0)
(4.02647 1.36162e-05 0)
(4.02649 1.14684e-05 0)
(4.02648 6.16189e-06 0)
(4.02652 9.16297e-06 0)
(4.02651 -5.32837e-07 0)
(4.02661 -2.38197e-05 0)
(4.02655 5.19635e-06 0)
(4.02661 -8.47681e-06 0)
(4.02661 -1.59778e-05 0)
(4.02656 -1.67022e-05 0)
(4.02659 -6.30765e-06 0)
(4.02661 1.42057e-05 0)
(4.02659 1.04302e-05 0)
(4.02661 -2.0503e-05 0)
(4.08204 -2.0804e-05 0)
(4.08206 -2.64236e-06 0)
(4.08207 1.41998e-05 0)
(4.08208 2.72543e-05 0)
(4.08198 2.05046e-05 0)
(4.08204 1.11142e-05 0)
(4.082 1.48762e-05 0)
(4.082 1.71027e-06 0)
(4.08202 -7.14696e-06 0)
(4.08207 8.56131e-06 0)
(4.08208 -7.85975e-06 0)
(4.08205 -1.17e-05 0)
(4.08201 1.17823e-06 0)
(4.08211 -2.04723e-05 0)
(4.08201 -1.67847e-06 0)
(4.08208 -8.0878e-06 0)
(4.08203 -1.02599e-05 0)
(4.08209 7.42293e-06 0)
(4.08209 5.39068e-06 0)
(4.0821 -1.50203e-05 0)
(4.13459 -5.08743e-06 0)
(4.13452 -2.97562e-06 0)
(4.13459 1.25356e-05 0)
(4.13462 2.78525e-05 0)
(4.13462 1.45569e-05 0)
(4.13464 1.24923e-05 0)
(4.13464 1.82435e-05 0)
(4.13465 2.23379e-06 0)
(4.13466 -1.06431e-05 0)
(4.13458 -4.17368e-06 0)
(4.13465 1.8688e-06 0)
(4.13464 -1.46034e-05 0)
(4.13458 2.24026e-07 0)
(4.1346 -1.75137e-06 0)
(4.13456 -1.24659e-05 0)
(4.13466 -1.14644e-05 0)
(4.13462 -1.21142e-05 0)
(4.13458 -5.91576e-06 0)
(4.13465 1.5237e-06 0)
(4.13466 -4.72965e-06 0)
(4.18509 1.4272e-05 0)
(4.18512 2.18293e-07 0)
(4.18505 7.94923e-06 0)
(4.18512 1.10455e-05 0)
(4.18513 3.79354e-06 0)
(4.18515 3.01464e-06 0)
(4.18514 1.40642e-05 0)
(4.18515 4.4694e-06 0)
(4.18514 9.46981e-06 0)
(4.18506 -3.69318e-06 0)
(4.18512 -4.29181e-06 0)
(4.18513 -3.73738e-06 0)
(4.18507 5.18148e-06 0)
(4.18516 -1.2732e-05 0)
(4.18506 -1.56535e-05 0)
(4.18514 -1.69379e-05 0)
(4.18515 -4.53573e-06 0)
(4.18508 -7.85465e-06 0)
(4.18513 -7.36055e-06 0)
(4.18514 4.87553e-06 0)
(4.2343 1.23923e-05 0)
(4.2343 6.13815e-06 0)
(4.23429 4.85429e-06 0)
(4.2343 4.30331e-06 0)
(4.2343 -5.6031e-06 0)
(4.23429 1.765e-05 0)
(4.23422 5.90819e-06 0)
(4.23429 1.81532e-05 0)
(4.23419 6.89062e-06 0)
(4.23425 2.6654e-06 0)
(4.23426 -1.10001e-05 0)
(4.23426 -3.56392e-06 0)
(4.23423 -1.26425e-06 0)
(4.23422 -1.73082e-05 0)
(4.2343 -3.42155e-05 0)
(4.23421 -1.61011e-05 0)
(4.23427 -1.07803e-06 0)
(4.23421 -3.1798e-06 0)
(4.23428 -1.88515e-05 0)
(4.23429 2.00734e-06 0)
(4.28273 1.08226e-05 0)
(4.28265 1.39801e-05 0)
(4.2827 4.18037e-06 0)
(4.28271 2.38503e-06 0)
(4.28268 9.99424e-06 0)
(4.28264 1.83917e-05 0)
(4.28272 2.47064e-05 0)
(4.28264 3.19978e-06 0)
(4.28271 1.14305e-05 0)
(4.28272 -4.16204e-06 0)
(4.28271 -5.49388e-06 0)
(4.28269 -4.65462e-06 0)
(4.28273 8.55881e-06 0)
(4.28273 -1.53557e-05 0)
(4.28265 -1.46126e-05 0)
(4.28265 -2.91739e-06 0)
(4.28269 -9.60657e-06 0)
(4.28271 -1.49334e-05 0)
(4.28272 -1.95215e-05 0)
(4.28266 -3.82421e-06 0)
(4.33104 1.74147e-05 0)
(4.33103 2.5388e-05 0)
(4.33095 1.31142e-06 0)
(4.331 2.95718e-06 0)
(4.331 9.16167e-06 0)
(4.33096 9.98666e-06 0)
(4.33106 1.33743e-05 0)
(4.33104 9.39039e-06 0)
(4.33106 3.87262e-06 0)
(4.33101 7.52144e-07 0)
(4.33104 -5.98878e-06 0)
(4.33106 -6.67614e-06 0)
(4.33098 -1.4676e-05 0)
(4.33107 4.8647e-06 0)
(4.33098 -2.66227e-06 0)
(4.33106 -2.28095e-05 0)
(4.33104 -1.58654e-05 0)
(4.33104 -2.01488e-05 0)
(4.33105 -1.30095e-05 0)
(4.33105 -6.75016e-06 0)
(4.37977 1.05336e-05 0)
(4.37984 2.9332e-05 0)
(4.37986 7.31169e-06 0)
(4.37988 -2.60626e-06 0)
(4.3799 6.48689e-06 0)
(4.37991 -4.20892e-06 0)
(4.37991 7.58127e-06 0)
(4.37989 7.48252e-06 0)
(4.3799 6.27551e-06 0)
(4.37988 3.61273e-07 0)
(4.37988 -2.53322e-06 0)
(4.37988 5.73812e-06 0)
(4.37979 -8.28941e-06 0)
(4.37989 -5.16018e-06 0)
(4.37987 -1.46241e-05 0)
(4.37988 -1.37378e-05 0)
(4.37986 -4.24006e-06 0)
(4.37983 -1.62371e-05 0)
(4.37985 -2.03674e-05 0)
(4.37986 9.26215e-06 0)
(4.42979 8.67967e-06 0)
(4.42983 5.00676e-07 0)
(4.42983 -5.94144e-06 0)
(4.42985 -1.18042e-05 0)
(4.42985 -3.66111e-06 0)
(4.42978 -8.66472e-07 0)
(4.42987 3.74663e-06 0)
(4.42986 1.25161e-05 0)
(4.42987 1.27052e-05 0)
(4.42986 5.83138e-06 0)
(4.42987 -3.69259e-06 0)
(4.42987 9.40479e-06 0)
(4.42987 4.79326e-06 0)
(4.42986 -1.15286e-05 0)
(4.42986 -2.01463e-05 0)
(4.42984 -5.26173e-06 0)
(4.42983 6.8129e-06 0)
(4.42979 -1.83629e-06 0)
(4.42974 -4.21856e-06 0)
(4.4297 -4.58504e-06 0)
(4.48165 -1.47203e-05 0)
(4.48167 -1.02318e-05 0)
(4.48165 -4.5131e-06 0)
(4.48167 -3.10645e-06 0)
(4.48158 -3.16014e-08 0)
(4.48166 -1.80335e-05 0)
(4.48167 -1.43861e-05 0)
(4.48167 5.76923e-06 0)
(4.48168 1.12337e-05 0)
(4.48168 4.71569e-06 0)
(4.4817 -2.69736e-06 0)
(4.48162 6.84024e-07 0)
(4.48169 8.92794e-06 0)
(4.48166 7.88861e-06 0)
(4.4816 -9.37213e-06 0)
(4.48157 -2.76189e-06 0)
(4.48164 1.47225e-05 0)
(4.48166 1.61276e-05 0)
(4.48158 8.12449e-06 0)
(4.48167 3.92557e-07 0)
(4.53622 -1.85223e-05 0)
(4.53624 -1.02632e-05 0)
(4.53623 1.95202e-06 0)
(4.53624 6.62711e-06 0)
(4.53623 6.63765e-07 0)
(4.53623 -6.98847e-06 0)
(4.53613 -3.48742e-06 0)
(4.5362 -1.06348e-05 0)
(4.53622 2.09523e-06 0)
(4.53622 -2.03628e-06 0)
(4.53624 -1.3529e-06 0)
(4.53625 1.33792e-05 0)
(4.53616 1.36668e-05 0)
(4.53625 2.10895e-05 0)
(4.53623 1.0239e-05 0)
(4.53624 5.87793e-06 0)
(4.53617 -2.03037e-06 0)
(4.53623 1.41176e-05 0)
(4.53615 -2.491e-06 0)
(4.53624 -1.38721e-05 0)
(4.59296 -2.64897e-05 0)
(4.59286 -9.87917e-06 0)
(4.59292 1.7896e-06 0)
(4.59293 1.60834e-05 0)
(4.59286 9.81498e-06 0)
(4.59286 1.05519e-06 0)
(4.59291 -1.52411e-05 0)
(4.59286 -1.72607e-05 0)
(4.59294 -2.295e-05 0)
(4.59293 -1.16725e-06 0)
(4.59291 1.67763e-06 0)
(4.59288 1.98103e-06 0)
(4.59293 6.73407e-06 0)
(4.59296 8.45724e-06 0)
(4.59291 1.0566e-05 0)
(4.59286 2.05626e-05 0)
(4.59293 2.03872e-05 0)
(4.59295 1.1477e-05 0)
(4.59289 -6.26152e-06 0)
(4.59294 -2.95119e-05 0)
(4.64964 -4.84944e-06 0)
(4.64952 1.1024e-05 0)
(4.6496 2.69114e-06 0)
(4.64955 8.66227e-06 0)
(4.64962 2.69987e-05 0)
(4.64962 -7.35218e-06 0)
(4.64964 -2.10873e-05 0)
(4.64965 -3.39485e-05 0)
(4.64958 -1.63863e-05 0)
(4.64964 -4.46787e-06 0)
(4.64966 2.07298e-05 0)
(4.64957 -4.31633e-07 0)
(4.64965 -4.82193e-06 0)
(4.64965 4.27884e-06 0)
(4.64966 2.41131e-05 0)
(4.64967 1.65868e-05 0)
(4.64967 9.89027e-06 0)
(4.64966 1.27792e-05 0)
(4.64967 3.47386e-07 0)
(4.64964 -1.89107e-05 0)
(4.70527 9.72835e-06 0)
(4.70534 3.70006e-06 0)
(4.70536 -9.48391e-07 0)
(4.70534 1.70362e-06 0)
(4.70535 4.25247e-07 0)
(4.70537 -6.71472e-06 0)
(4.70529 -2.11792e-05 0)
(4.70533 -1.8894e-05 0)
(4.70529 -1.87973e-05 0)
(4.70528 -1.34029e-05 0)
(4.70527 -5.80753e-06 0)
(4.70537 -1.97248e-05 0)
(4.70536 -7.25771e-06 0)
(4.70538 1.46139e-06 0)
(4.70538 1.12621e-05 0)
(4.7054 1.28876e-05 0)
(4.7054 1.04612e-05 0)
(4.7054 1.63344e-05 0)
(4.7054 1.80275e-05 0)
(4.70535 1.26912e-05 0)
(4.76081 1.60216e-05 0)
(4.76081 -8.52071e-06 0)
(4.76081 -3.65682e-06 0)
(4.76082 1.75703e-06 0)
(4.76082 3.14871e-06 0)
(4.76082 5.93103e-06 0)
(4.7608 -2.67188e-06 0)
(4.76074 -1.2879e-05 0)
(4.7608 -8.19713e-06 0)
(4.76079 -8.88468e-06 0)
(4.76078 -1.00513e-05 0)
(4.76073 -1.13379e-05 0)
(4.76069 -6.62327e-06 0)
(4.76079 -3.07398e-05 0)
(4.76079 -1.88603e-06 0)
(4.7608 1.32178e-05 0)
(4.7608 1.14643e-05 0)
(4.76081 1.33024e-05 0)
(4.76082 2.39043e-05 0)
(4.76082 3.52315e-05 0)
(4.81651 1.205e-05 0)
(4.81652 1.60814e-06 0)
(4.81643 -2.06084e-06 0)
(4.8165 -2.62439e-06 0)
(4.81644 -4.7349e-06 0)
(4.81652 6.84114e-06 0)
(4.81652 7.8479e-06 0)
(4.81653 -5.39714e-06 0)
(4.81645 -2.04662e-05 0)
(4.81651 -5.74163e-06 0)
(4.8165 8.28312e-06 0)
(4.81648 6.50305e-07 0)
(4.81648 -2.59473e-05 0)
(4.81649 -3.24994e-05 0)
(4.81641 6.33961e-06 0)
(4.81651 5.37312e-06 0)
(4.81649 6.9298e-06 0)
(4.8165 -2.27144e-08 0)
(4.81651 2.26591e-05 0)
(4.81652 2.57119e-05 0)
(4.87303 1.04064e-05 0)
(4.87303 1.31579e-05 0)
(4.87304 1.92154e-06 0)
(4.87304 -4.94852e-06 0)
(4.87305 -8.05892e-06 0)
(4.87306 -5.75779e-06 0)
(4.87306 1.3369e-06 0)
(4.87308 -2.14809e-06 0)
(4.87306 -6.59934e-06 0)
(4.87296 -2.70814e-06 0)
(4.87304 6.30613e-06 0)
(4.87303 1.94733e-06 0)
(4.87303 -1.29799e-05 0)
(4.87302 -2.46949e-05 0)
(4.87298 -4.90631e-06 0)
(4.87294 -5.16121e-06 0)
(4.87303 2.92272e-06 0)
(4.87298 7.01003e-07 0)
(4.87294 5.76303e-06 0)
(4.87302 2.13929e-05 0)
(4.9309 1.31543e-05 0)
(4.93089 1.33161e-05 0)
(4.93092 5.95129e-06 0)
(4.93085 -1.11383e-05 0)
(4.93092 -1.83508e-05 0)
(4.93094 -1.18202e-05 0)
(4.93094 -5.33261e-06 0)
(4.93095 1.78121e-06 0)
(4.93094 9.64084e-06 0)
(4.93093 2.20297e-06 0)
(4.93092 -1.53922e-06 0)
(4.93091 -1.75903e-06 0)
(4.93089 -5.64352e-06 0)
(4.93084 6.67647e-06 0)
(4.93084 -7.98849e-07 0)
(4.93081 -2.42795e-05 0)
(4.93092 -1.44431e-05 0)
(4.93092 1.88028e-05 0)
(4.93091 1.78181e-05 0)
(4.93089 4.82786e-06 0)
(4.99057 9.74186e-06 0)
(4.99063 1.03214e-08 0)
(4.99067 -1.28284e-06 0)
(4.99069 -1.57621e-05 0)
(4.9907 -2.48766e-05 0)
(4.9907 -1.61122e-05 0)
(4.99071 -1.31303e-05 0)
(4.9907 6.90969e-06 0)
(4.99071 1.00659e-05 0)
(4.99071 6.38002e-06 0)
(4.99071 6.60852e-06 0)
(4.9907 4.12645e-06 0)
(4.99069 5.93234e-06 0)
(4.99068 9.20476e-06 0)
(4.99071 2.60155e-06 0)
(4.9906 -2.30628e-05 0)
(4.99069 -2.49835e-05 0)
(4.99059 -1.33024e-06 0)
(4.99066 2.84725e-05 0)
(4.99064 2.35876e-05 0)
(5.05292 1.47574e-05 0)
(5.05286 4.6182e-07 0)
(5.05292 -3.11579e-05 0)
(5.05294 -3.14007e-05 0)
(5.05294 -2.72712e-05 0)
(5.05295 -8.19456e-06 0)
(5.0529 -1.22228e-07 0)
(5.05283 -3.1909e-07 0)
(5.05293 4.40359e-08 0)
(5.05289 4.67049e-06 0)
(5.05296 7.36499e-06 0)
(5.05296 3.36436e-06 0)
(5.05297 1.12559e-05 0)
(5.05294 3.62988e-06 0)
(5.05292 -7.30859e-06 0)
(5.05288 -5.4474e-06 0)
(5.05286 -1.15977e-06 0)
(5.05279 1.6477e-06 0)
(5.05289 2.20063e-05 0)
(5.05285 2.15927e-05 0)
(5.11844 7.53906e-06 0)
(5.11845 -3.19958e-06 0)
(5.11841 -3.35491e-06 0)
(5.11837 -2.04718e-05 0)
(5.11833 -2.34441e-05 0)
(5.1183 -1.34852e-05 0)
(5.11838 8.96276e-06 0)
(5.1184 -1.44853e-05 0)
(5.11841 -4.16004e-06 0)
(5.11839 -1.01198e-05 0)
(5.11838 -6.28084e-06 0)
(5.11846 -6.10734e-06 0)
(5.11843 2.71561e-06 0)
(5.11848 2.26062e-05 0)
(5.11848 2.64946e-05 0)
(5.11839 7.27336e-06 0)
(5.11849 1.09861e-05 0)
(5.11837 4.14461e-06 0)
(5.11843 1.6739e-05 0)
(5.11843 1.81426e-05 0)
(5.18806 8.27355e-06 0)
(5.18806 1.33637e-06 0)
(5.18807 -5.60255e-06 0)
(5.188 2.53377e-06 0)
(5.18793 -1.0028e-05 0)
(5.18801 -1.33612e-05 0)
(5.18796 -9.04462e-06 0)
(5.18797 -4.48145e-06 0)
(5.18795 -1.87889e-05 0)
(5.18805 -9.16914e-06 0)
(5.18806 -2.6669e-05 0)
(5.18808 -1.25888e-05 0)
(5.18806 -9.82018e-07 0)
(5.18808 2.18186e-05 0)
(5.18801 1.62258e-05 0)
(5.18804 6.81393e-06 0)
(5.18797 5.82251e-06 0)
(5.18804 1.45763e-05 0)
(5.18797 7.48396e-06 0)
(5.18804 1.21515e-05 0)
(5.2629 -6.41019e-07 0)
(5.26292 -5.34488e-06 0)
(5.26293 1.53836e-06 0)
(5.26295 1.53191e-05 0)
(5.26295 -1.96725e-05 0)
(5.26291 -2.89309e-06 0)
(5.2629 1.30991e-06 0)
(5.2629 -1.00047e-05 0)
(5.26283 -2.54003e-05 0)
(5.26288 -3.5035e-05 0)
(5.2629 -3.53838e-05 0)
(5.26291 -1.04156e-05 0)
(5.26287 1.06472e-05 0)
(5.26284 1.29699e-05 0)
(5.26291 4.13918e-05 0)
(5.26288 2.11776e-05 0)
(5.26283 1.61713e-05 0)
(5.26278 1.15815e-05 0)
(5.26286 -2.35124e-06 0)
(5.26289 -1.76182e-06 0)
(5.34456 -2.74577e-06 0)
(5.34454 -2.30383e-06 0)
(5.34447 4.74133e-06 0)
(5.34455 5.77457e-06 0)
(5.34449 8.50119e-06 0)
(5.34441 2.10573e-06 0)
(5.34451 -2.52065e-07 0)
(5.34453 -9.65957e-06 0)
(5.34453 -2.00505e-05 0)
(5.34452 -3.10339e-05 0)
(5.34444 -2.61488e-05 0)
(5.3445 -1.42198e-05 0)
(5.34453 8.49927e-06 0)
(5.34455 1.74608e-05 0)
(5.3445 1.61648e-05 0)
(5.3445 2.47449e-05 0)
(5.34448 2.93147e-05 0)
(5.34456 9.79553e-07 0)
(5.34453 -5.38868e-06 0)
(5.34455 -8.17572e-06 0)
(5.43515 1.06337e-05 0)
(5.43506 1.59976e-05 0)
(5.4351 -2.18467e-06 0)
(5.43506 -2.55934e-07 0)
(5.43517 2.23348e-06 0)
(5.43514 -4.70877e-06 0)
(5.43516 -7.56903e-06 0)
(5.43514 -5.47238e-06 0)
(5.43506 -2.67053e-05 0)
(5.43513 -2.47121e-05 0)
(5.43511 -2.52644e-05 0)
(5.43501 -7.28936e-06 0)
(5.43508 -1.77021e-05 0)
(5.43511 1.63576e-05 0)
(5.43512 3.64494e-05 0)
(5.43514 4.19211e-05 0)
(5.43515 1.64323e-05 0)
(5.43507 8.96178e-06 0)
(5.43516 -1.78348e-05 0)
(5.43514 -5.77411e-06 0)
(5.53796 1.94975e-05 0)
(5.53795 2.37018e-05 0)
(5.53791 3.77453e-06 0)
(5.53788 -1.21194e-05 0)
(5.5379 7.16498e-06 0)
(5.53789 4.76393e-06 0)
(5.53798 -7.70264e-06 0)
(5.53798 -4.30023e-06 0)
(5.53794 -1.21414e-05 0)
(5.53794 -1.99323e-05 0)
(5.53782 -1.61711e-05 0)
(5.53785 -1.23002e-05 0)
(5.53779 -4.89296e-06 0)
(5.53774 1.18164e-07 0)
(5.53787 2.30046e-05 0)
(5.53781 1.05403e-05 0)
(5.53794 2.48725e-05 0)
(5.53793 -5.86462e-06 0)
(5.53795 -1.76614e-05 0)
(5.53795 -2.5309e-06 0)
(5.65818 1.89944e-05 0)
(5.65819 2.36665e-05 0)
(5.65821 1.44975e-05 0)
(5.65818 -2.92597e-06 0)
(5.6582 -2.3704e-05 0)
(5.65822 -1.52498e-05 0)
(5.65814 -8.62385e-06 0)
(5.6582 7.13388e-06 0)
(5.65809 3.87114e-06 0)
(5.65813 -1.96425e-06 0)
(5.65806 4.36331e-06 0)
(5.65803 5.5576e-06 0)
(5.65802 -4.32361e-06 0)
(5.65799 -1.11447e-05 0)
(5.65811 5.46771e-06 0)
(5.65811 1.05643e-05 0)
(5.65814 7.70504e-06 0)
(5.65816 -1.0234e-05 0)
(5.65817 -3.00328e-05 0)
(5.65817 -2.33693e-06 0)
(5.80491 2.54002e-06 0)
(5.80493 1.26841e-05 0)
(5.80495 9.71511e-06 0)
(5.80494 -3.36944e-06 0)
(5.80488 -4.73214e-07 0)
(5.80484 -2.15283e-05 0)
(5.80493 -1.03698e-05 0)
(5.80492 5.57911e-06 0)
(5.80493 1.66839e-06 0)
(5.80486 8.62216e-06 0)
(5.8049 2.29191e-05 0)
(5.8049 1.46726e-05 0)
(5.80485 -1.57614e-06 0)
(5.80482 -1.44034e-05 0)
(5.8048 -6.64288e-06 0)
(5.80486 -1.43736e-06 0)
(5.80488 2.16394e-06 0)
(5.8049 -8.31886e-06 0)
(5.80481 -9.50134e-06 0)
(5.80489 -8.98535e-06 0)
(5.99598 5.8462e-06 0)
(5.99601 1.04582e-05 0)
(5.99601 9.46888e-06 0)
(5.99594 4.94312e-06 0)
(5.99605 -3.34941e-06 0)
(5.99596 -1.138e-05 0)
(5.99589 -5.60969e-06 0)
(5.99596 7.37044e-06 0)
(5.99595 1.2686e-05 0)
(5.99598 6.56011e-06 0)
(5.99595 -3.32567e-06 0)
(5.99603 1.77549e-05 0)
(5.99604 1.41636e-05 0)
(5.99595 -7.84779e-06 0)
(5.99605 -1.62989e-05 0)
(5.99596 1.37969e-06 0)
(5.99604 -1.61397e-06 0)
(5.99604 -9.1632e-07 0)
(5.99605 -2.82707e-05 0)
(5.99591 -1.00409e-05 0)
(6.27337 2.81984e-06 0)
(6.27333 2.84237e-06 0)
(6.27338 1.68898e-05 0)
(6.27342 -2.77967e-06 0)
(6.27334 -1.45641e-05 0)
(6.27348 1.70038e-05 0)
(6.27341 -1.37064e-05 0)
(6.27341 -3.50776e-06 0)
(6.27341 -4.37941e-06 0)
(6.27345 4.53273e-06 0)
(6.27335 -1.76221e-06 0)
(6.27341 7.25527e-06 0)
(6.27344 1.28775e-05 0)
(6.27346 -1.00132e-05 0)
(6.27348 -1.79322e-05 0)
(6.27347 -1.45472e-05 0)
(6.27346 5.84877e-07 0)
(6.27341 1.31713e-07 0)
(6.27342 -1.99854e-06 0)
(6.27329 3.58791e-06 0)
(6.79361 2.31131e-06 0)
(6.79359 3.27323e-06 0)
(6.7936 6.07843e-06 0)
(6.79364 2.97887e-06 0)
(6.79361 -7.27637e-06 0)
(6.79351 -6.07521e-06 0)
(6.79358 3.25392e-06 0)
(6.79356 1.85458e-06 0)
(6.79358 -8.92894e-07 0)
(6.79353 1.61332e-06 0)
(6.79362 4.33623e-06 0)
(6.7936 -2.04112e-07 0)
(6.79362 1.06947e-06 0)
(6.79362 -7.81297e-06 0)
(6.79354 -4.00486e-06 0)
(6.79352 4.07862e-06 0)
(6.7935 4.08306e-06 0)
(6.79356 7.39635e-06 0)
(6.79359 3.50475e-06 0)
(6.79353 5.57162e-06 0)
)
;

boundaryField
{
    movingWall
    {
        type            fixedValue;
        value           uniform (10 0 0);
    }
    bottomWall
    {
        type            noSlip;
    }
    cyc_half0
    {
        type            cyclic;
    }
    cyc_half1
    {
        type            cyclic;
    }
    frontAndBack
    {
        type            empty;
    }
}


// ************************************************************************* //
