/*--------------------------------*- C++ -*----------------------------------*\
  =========                 |
  \\      /  F ield         | OpenFOAM: The Open Source CFD Toolbox
   \\    /   O peration     | Website:  https://openfoam.org
    \\  /    A nd           | Version:  13
     \\/     M anipulation  |
\*---------------------------------------------------------------------------*/
FoamFile
{
    format      ascii;
    class       volVectorField;
    location    "3900";
    object      wallShearStress;
}
// * * * * * * * * * * * * * * * * * * * * * * * * * * * * * * * * * * * * * //

dimensions      [0 2 -2 0 0 0 0];

internalField   uniform (0 0 0);

boundaryField
{
    movingWall
    {
        type            calculated;
        value           nonuniform List<vector> 
20
(
(0.0404076 -6.98288e-08 0)
(0.0404078 -5.38951e-08 0)
(0.0404076 -1.33912e-07 0)
(0.040407 -5.31731e-08 0)
(0.0404074 2.00813e-07 0)
(0.0404088 1.20098e-07 0)
(0.0404079 -8.83042e-08 0)
(0.040408 -3.05248e-08 0)
(0.0404078 3.35007e-08 0)
(0.0404084 -4.95972e-08 0)
(0.0404073 -1.11409e-07 0)
(0.0404075 9.394e-10 0)
(0.0404072 -3.06187e-08 0)
(0.0404072 1.78807e-07 0)
(0.0404083 1.24174e-07 0)
(0.0404086 -4.53771e-08 0)
(0.0404089 -8.86407e-08 0)
(0.0404082 -1.74426e-07 0)
(0.0404078 -4.51903e-08 0)
(0.0404085 -1.05816e-07 0)
)
;
    }
    bottomWall
    {
        type            calculated;
        value           nonuniform List<vector> 
20
(
(-0.0299195 3.82785e-08 0)
(-0.02992 1.53236e-07 0)
(-0.0299204 2.1577e-07 0)
(-0.0299212 1.26598e-07 0)
(-0.0299215 -4.32865e-08 0)
(-0.029921 -9.62457e-08 0)
(-0.0299202 -5.78839e-08 0)
(-0.0299207 1.07813e-07 0)
(-0.0299209 1.9593e-08 0)
(-0.0299206 -5.87851e-08 0)
(-0.0299202 -1.10121e-07 0)
(-0.0299196 8.56362e-08 0)
(-0.0299207 1.6373e-07 0)
(-0.0299204 -1.57821e-07 0)
(-0.0299203 -5.11319e-08 0)
(-0.0299206 9.24215e-08 0)
(-0.0299205 -2.4338e-08 0)
(-0.0299207 -8.90142e-08 0)
(-0.0299197 -1.26393e-07 0)
(-0.0299201 -8.53866e-08 0)
)
;
    }
    cyc_half0
    {
        type            cyclic;
    }
    cyc_half1
    {
        type            cyclic;
    }
    frontAndBack
    {
        type            empty;
    }
}


// ************************************************************************* //
