/*--------------------------------*- C++ -*----------------------------------*\
  =========                 |
  \\      /  F ield         | OpenFOAM: The Open Source CFD Toolbox
   \\    /   O peration     | Website:  https://openfoam.org
    \\  /    A nd           | Version:  13
     \\/     M anipulation  |
\*---------------------------------------------------------------------------*/
FoamFile
{
    format      ascii;
    class       volScalarField;
    location    "2.103129";
    object      k;
}
// * * * * * * * * * * * * * * * * * * * * * * * * * * * * * * * * * * * * * //

dimensions      [0 2 -2 0 0 0 0];

internalField   nonuniform List<scalar> 
17140
(
3.584513e-12
1.1263819e-10
9.2109248e-10
3.9614271e-09
1.2191348e-08
3.0767439e-08
6.8234885e-08
1.3830347e-07
2.6246217e-07
4.7378799e-07
8.2243694e-07
1.3834664e-06
2.2678138e-06
3.6374031e-06
5.7253643e-06
8.8620122e-06
1.3506145e-05
2.0278706e-05
2.9990926e-05
4.3650653e-05
6.2418345e-05
8.7470505e-05
0.0001197219
0.00015937588
0.00020533643
0.00025463035
0.00030212935
0.00034152751
0.0003717311
0.00039446552
0.00041331152
0.00043180739
0.00045210067
0.000474832
0.00049988268
0.00052701718
0.00055615103
0.00058748189
0.00062160716
0.00065961994
0.00070321765
0.00075462289
0.00081697385
0.00090867814
0.0010230574
0.0011647785
0.0013081536
0.0014050005
0.0014443603
0.0013572002
0.0011605835
0.00092494453
0.00071216396
0.00054659325
0.00042758719
0.00034382357
0.00028342181
0.00023706533
0.00019978144
0.00016975853
0.00014611407
0.00012929913
0.00011777578
0.00011084053
0.00010715767
3.5410144e-12
1.1127131e-10
9.0991728e-10
3.9133845e-09
1.2043579e-08
3.0394769e-08
6.7409069e-08
1.366313e-07
2.5929267e-07
4.6807493e-07
8.1253808e-07
1.3668541e-06
2.2406651e-06
3.5940319e-06
5.657456e-06
8.757636e-06
1.3348558e-05
2.0045056e-05
2.965114e-05
4.31671e-05
6.1747259e-05
8.6566617e-05
0.0001185478
0.00015791708
0.00020362128
0.00025275185
0.0003002619
0.00033975388
0.00037006567
0.00039284887
0.00041161237
0.00042987827
0.00044979801
0.00047201349
0.00049636194
0.00052251405
0.00055024265
0.00057954492
0.00061077211
0.00064476065
0.00068290022
0.00072707172
0.00077986308
0.00085746408
0.00095495285
0.0010731157
0.0011963163
0.0012822911
0.0013182877
0.0012698921
0.0011126839
0.00090669578
0.00070729605
0.00054470338
0.00042458945
0.00033929646
0.00027830414
0.00023243157
0.0001963215
0.0001676278
0.00014504787
0.00012888348
0.00011767818
0.00011084712
0.00010721033
3.4394586e-12
1.0808006e-10
8.8382095e-10
3.8011502e-09
1.1698184e-08
2.9523134e-08
6.5476195e-08
1.3271438e-07
2.5186192e-07
4.5466851e-07
7.8928598e-07
1.3277908e-06
2.1767535e-06
3.491806e-06
5.4971858e-06
8.5109451e-06
1.2975513e-05
1.9490959e-05
2.8843682e-05
4.2015208e-05
6.0143978e-05
8.4399365e-05
0.00011571974
0.00015438185
0.00019942932
0.00024810081
0.0002955354
0.00033520617
0.00036566176
0.00038836693
0.00040673745
0.00042428407
0.00044318826
0.00046405176
0.00048658568
0.00051023574
0.00053444104
0.0005587452
0.00058294237
0.00060731673
0.00063261919
0.00066010547
0.00069172809
0.00074024266
0.00080191549
0.0008760871
0.00095648024
0.0010218126
0.0010541453
0.0010586511
0.00097730933
0.00083769202
0.0006758735
0.00052907562
0.00041345949
0.00032879891
0.00026825842
0.00022379624
0.00018990894
0.00016360716
0.00014296785
0.0001280286
0.00011743718
0.00011082323
0.00010726234
3.2795938e-12
1.0305654e-10
8.4274124e-10
3.6244745e-09
1.1154466e-08
2.8150987e-08
6.2433314e-08
1.2654775e-07
2.4016243e-07
4.335584e-07
7.526676e-07
1.2662608e-06
2.0760585e-06
3.3306903e-06
5.2444718e-06
8.1217218e-06
1.238644e-05
1.8615012e-05
2.7565292e-05
4.0187822e-05
5.7593583e-05
8.093917e-05
0.00011118183
0.00014866952
0.0001925872
0.00024039069
0.00028749677
0.00032765606
0.00035842785
0.0003810624
0.00039882696
0.0004152008
0.00043238097
0.00045091983
0.00047034723
0.00048980379
0.00050833905
0.00052502059
0.00053897008
0.00054972455
0.000557412
0.00056274107
0.00056799206
0.00058150275
0.00060152553
0.00062921374
0.00066693379
0.00071512217
0.00076570179
0.00079290229
0.00078427483
0.00072138787
0.00061101679
0.00049224115
0.0003903456
0.00031222265
0.00025532574
0.00021373011
0.00018263228
0.00015896526
0.00014044762
0.00012690443
0.00011705391
0.0001107333
0.00010727517
3.0658201e-12
9.6339008e-11
7.8780894e-10
3.3882214e-09
1.0427396e-08
2.6316106e-08
5.8364204e-08
1.1830116e-07
2.2451615e-07
4.0532509e-07
7.0368859e-07
1.1839504e-06
1.9413312e-06
3.1150655e-06
4.9061374e-06
7.6003709e-06
1.1596868e-05
1.7439861e-05
2.5848157e-05
3.7729347e-05
5.4155256e-05
7.6261836e-05
0.00010502716
0.00014089017
0.00018322297
0.00022977501
0.00027634587
0.00031708538
0.00034832749
0.00037096009
0.00038800463
0.00040288888
0.00041786311
0.00043348935
0.00044920923
0.00046408575
0.00047597101
0.00048147576
0.00048288311
0.00047993513
0.00046885585
0.00045132392
0.00043130945
0.00041441634
0.00040333394
0.00039865768
0.00041007555
0.00044930924
0.00052234516
0.00058206778
0.00061205114
0.00059628028
0.00053520489
0.00044321495
0.00035850146
0.00029089363
0.00024043182
0.00020310016
0.00017522405
0.00015418277
0.00013771654
0.00012557749
0.00011651962
0.00011055583
0.0001072302
2.8060587e-12
8.8176382e-11
7.2105944e-10
3.1011442e-09
9.5439099e-09
2.408647e-08
5.3419609e-08
1.0828006e-07
2.055024e-07
3.7101327e-07
6.4415943e-07
1.0838973e-06
1.7775312e-06
2.8528412e-06
4.4945288e-06
6.9657775e-06
1.0635102e-05
1.6007033e-05
2.3751766e-05
3.4722694e-05
4.9940824e-05
7.0512335e-05
9.7434794e-05
0.00013125227
0.00017156176
0.00021647157
0.00026225119
0.00030353995
0.00033539099
0.00035817762
0.00037454367
0.00038783178
0.0004003887
0.00041288484
0.00042472708
0.00043246527
0.00043511288
0.00043355666
0.00042348547
0.00040497785
0.00037728432
0.00034157458
0.00030382573
0.00026795931
0.00023930119
0.00022246928
0.00021639859
0.00024551632
0.00032050883
0.00042534393
0.00049529154
0.00049524473
0.00046822206
0.00039924916
0.00032756669
0.00026918238
0.00022525203
0.00019246611
0.00016789822
0.00014938189
0.00013485666
0.00012408441
0.00011584218
0.00011028231
0.00010712218
2.5105204e-12
7.888952e-11
6.4511654e-10
2.7745274e-09
8.5387357e-09
2.154971e-08
4.7793826e-08
9.6878101e-08
1.8386763e-07
3.3196879e-07
5.7641168e-07
9.7001172e-07
1.5910399e-06
2.5541854e-06
4.0255008e-06
6.2421558e-06
9.5373578e-06
1.4369484e-05
2.1351612e-05
3.1272249e-05
4.5089239e-05
6.3866676e-05
8.8613046e-05
0.00011997871
0.00015780334
0.00020059118
0.0002451289
0.00028658613
0.00031950759
0.00034282585
0.00035876769
0.00037055863
0.00038066472
0.00038984357
0.00039557895
0.00039728742
0.00039438062
0.0003836024
0.00036328496
0.00033254679
0.00029262692
0.00024607499
0.00020075537
0.00015975378
0.00012861195
0.00011055429
0.00010411464
0.00011978478
0.00016832607
0.0002862803
0.00040413526
0.0004311236
0.0004189668
0.00037127247
0.00030482022
0.00025137941
0.00021188503
0.00018268493
0.0001609755
0.0001447174
0.00013197059
0.00012249008
0.00011505215
0.00010993166
0.00010695844
2.1910086e-12
6.8849321e-11
5.6301315e-10
2.4214146e-09
7.4520139e-09
1.8807119e-08
4.1711448e-08
8.4550303e-08
1.6047475e-07
2.8974741e-07
5.0314101e-07
8.4681544e-07
1.3892386e-06
2.2308659e-06
3.5174161e-06
5.4575808e-06
8.3456889e-06
1.2588854e-05
1.8735852e-05
2.7500509e-05
3.9764744e-05
5.6535283e-05
7.8815834e-05
0.00010735191
0.00014222717
0.00018236302
0.00022510423
0.0002662108
0.00030062876
0.0003249385
0.00034088434
0.00035146725
0.00035922976
0.00036398526
0.00036544367
0.00036284694
0.0003535511
0.00033535147
0.00030695704
0.00026826907
0.00022191643
0.00017220972
0.00012801141
9.1865763e-05
7.0087323e-05
5.9079377e-05
5.5594437e-05
6.5642434e-05
9.6205081e-05
0.00018063876
0.00031928478
0.00038266112
0.00037949096
0.00035044826
0.00028903174
0.0002381626
0.00020114742
0.00017428396
0.00015472977
0.00014035464
0.00012916389
0.00012088356
0.00011419516
0.00010952472
0.00010674861
1.8610698e-12
5.8481458e-11
4.7823005e-10
2.0567763e-09
6.3298172e-09
1.5974971e-08
3.5430322e-08
7.1819204e-08
1.3631503e-07
2.4613757e-07
4.2744882e-07
7.1951735e-07
1.1806453e-06
1.8964955e-06
2.9915883e-06
4.644792e-06
7.1094547e-06
1.0738136e-05
1.6010184e-05
2.3556883e-05
3.4172576e-05
4.8790352e-05
6.8388719e-05
9.378728e-05
0.00012530021
0.0001622714
0.00020263265
0.00024277504
0.00027809231
0.00030443482
0.00032115565
0.00033097917
0.00033616184
0.00033789933
0.00033635064
0.00032945364
0.00031516552
0.00029163063
0.0002580751
0.00021549265
0.00016751244
0.00012095794
8.2663441e-05
5.6410278e-05
4.309275e-05
3.7455927e-05
3.6278248e-05
4.3303941e-05
6.4451498e-05
0.00012580527
0.00025341231
0.00034017977
0.00034676492
0.00033022992
0.00027653329
0.00022764896
0.00019240132
0.00016716109
0.00014922291
0.0001363939
0.0001265136
0.00011933699
0.00011331488
0.0001090828
0.00010648761
1.5348887e-12
4.8231675e-11
3.9441246e-10
1.6962894e-09
5.2203934e-09
1.3175035e-08
2.9220525e-08
5.9232233e-08
1.1242732e-07
2.0301422e-07
3.5258872e-07
5.9358695e-07
9.7421581e-07
1.565413e-06
2.4705245e-06
3.8384817e-06
5.8812028e-06
8.8955232e-06
1.3288773e-05
1.960452e-05
2.8540033e-05
4.0938818e-05
5.7730198e-05
7.9776957e-05
0.00010759304
0.00014092867
0.00017831591
0.00021681762
0.00025233291
0.00028071825
0.00029932163
0.00030890884
0.00031248892
0.00031256068
0.00030826244
0.00029829817
0.00028082243
0.00025430295
0.00021845767
0.00017511362
0.00012916458
8.8464605e-05
5.7426712e-05
3.9942315e-05
3.1718706e-05
2.887678e-05
2.9318697e-05
3.4463763e-05
5.0698082e-05
9.8907143e-05
0.00021459927
0.00030762835
0.00032328906
0.00031132823
0.0002646628
0.00021794496
0.00018456218
0.00016086663
0.00014435622
0.00013285792
0.00012407089
0.00011789823
0.00011244913
0.0001086048
0.00010619796
1.2259245e-12
3.8522901e-11
3.1501876e-10
1.3548273e-09
4.1695169e-09
1.0522846e-08
2.3338317e-08
4.730887e-08
8.9797622e-08
1.621576e-07
2.8165157e-07
4.7422451e-07
7.7847556e-07
1.2512923e-06
1.9757418e-06
3.0719316e-06
4.7115843e-06
7.1368715e-06
1.068332e-05
1.580483e-05
2.3095224e-05
3.329431e-05
4.7256522e-05
6.5848411e-05
8.9734625e-05
0.00011902837
0.00015284936
0.00018896587
0.00022384359
0.00025341282
0.00027444731
0.00028592064
0.00028987793
0.00028878501
0.00028268917
0.00027086783
0.00025178303
0.00022410459
0.00018783753
0.00014597166
0.00010425385
6.9221335e-05
4.4991645e-05
3.2541188e-05
2.7477745e-05
2.6133955e-05
2.7161796e-05
3.1350065e-05
4.5009725e-05
8.6823708e-05
0.00019504966
0.00028187131
0.00030378825
0.00029373652
0.00025095565
0.00020762766
0.00017677158
0.0001549628
0.00013998047
0.00012970958
0.00012192153
0.0001165905
0.00011161094
0.00010810905
0.0001058909
9.4581731e-13
2.9720922e-11
2.4304052e-10
1.0452594e-09
3.2167965e-09
8.1183672e-09
1.8005417e-08
3.649863e-08
6.9279346e-08
1.2510928e-07
2.1731583e-07
3.6594155e-07
6.0083328e-07
9.6604524e-07
1.52605e-06
2.3743765e-06
3.6453861e-06
5.5298545e-06
8.2946598e-06
1.2305797e-05
1.8051523e-05
2.615778e-05
3.7380137e-05
5.2545428e-05
7.240533e-05
9.7365151e-05
0.0001270878
0.00016007392
0.00019347568
0.00022349417
0.00024650904
0.00026052304
0.0002660503
0.00026515245
0.00025852416
0.00024612684
0.00022684225
0.00019970456
0.00016527047
0.00012682634
8.9906229e-05
5.9610575e-05
3.9927097e-05
3.0156376e-05
2.6199281e-05
2.5692321e-05
2.6681809e-05
3.0544076e-05
4.318955e-05
8.2471739e-05
0.00018611327
0.00026763676
0.00028636818
0.00027600985
0.00023494545
0.00019623725
0.0001686984
0.00014923514
0.000135979
0.00012690191
0.00012009523
0.00011540105
0.00011081086
0.00010761717
0.00010558911
7.0316217e-13
2.2095828e-11
1.8068643e-10
7.7708492e-10
2.3914691e-09
6.035398e-09
1.3385549e-08
2.7133539e-08
5.1503145e-08
9.3009232e-08
1.6156445e-07
2.7208379e-07
4.4679724e-07
7.1856087e-07
1.1355585e-06
1.7679058e-06
2.7167852e-06
4.1268015e-06
6.2021305e-06
9.2264863e-06
1.3585512e-05
1.9787152e-05
2.8469899e-05
4.0379724e-05
5.628472e-05
7.678803e-05
0.00010201077
0.00013117663
0.0001622616
0.00019202937
0.00021676652
0.00023360621
0.00024171845
0.00024209414
0.00023628508
0.00022432299
0.00020613086
0.000181094
0.00014997893
0.00011581967
8.316903e-05
5.7679349e-05
4.0475611e-05
3.1417911e-05
2.8077403e-05
2.7694814e-05
2.8564523e-05
3.2286142e-05
4.4188562e-05
8.1805822e-05
0.00018282341
0.00025680636
0.00027022403
0.00025748644
0.00021746016
0.00018423386
0.00016051492
0.00014371732
0.00013229182
0.0001245516
0.00011854351
0.00011431552
0.00011005205
0.00010716
0.00010526937
5.0271738e-13
1.5797136e-11
1.2917912e-10
5.555618e-10
1.7097175e-09
4.3147897e-09
9.5693586e-09
1.9397496e-08
3.6818566e-08
6.6490092e-08
1.1550008e-07
1.9451754e-07
3.1945467e-07
5.1385588e-07
8.1230989e-07
1.2652843e-06
1.9459007e-06
2.9592764e-06
4.4550949e-06
6.6438812e-06
9.8167614e-06
1.4366759e-05
2.0806084e-05
2.9767397e-05
4.1966993e-05
5.8096097e-05
7.8601307e-05
0.00010333766
0.00013115994
0.00015967054
0.0001854709
0.00020519153
0.00021674252
0.00021979838
0.00021633417
0.00020600762
0.00018980988
0.00016778026
0.00014066613
0.00011096993
8.3413875e-05
5.9833415e-05
4.3972271e-05
3.6099639e-05
3.3777639e-05
3.2862569e-05
3.3425834e-05
3.6989936e-05
5.0166939e-05
9.238756e-05
0.00018466121
0.00024543462
0.00025357703
0.00023664399
0.00019989236
0.00017229501
0.00015257284
0.00013854184
0.0001292662
0.00012262427
0.00011719522
0.00011332643
0.00010933929
0.00010672485
0.00010494917
3.4524941e-13
1.0848934e-11
8.8715519e-11
3.8153678e-10
1.1741485e-09
2.9631294e-09
6.571489e-09
1.3320324e-08
2.5282687e-08
4.5656366e-08
7.9308255e-08
1.3356563e-07
2.1936146e-07
3.5288526e-07
5.5795204e-07
8.6938297e-07
1.3377942e-06
2.0363076e-06
3.0698007e-06
4.5873328e-06
6.79815e-06
9.9908738e-06
1.4553525e-05
2.0988061e-05
2.9906056e-05
4.1981634e-05
5.7826443e-05
7.7749882e-05
0.00010140042
0.00012738383
0.00015311586
0.00017528219
0.00019084002
0.00019810456
0.00019755599
0.00019119988
0.00017734272
0.00015879283
0.00013601646
0.00011127175
8.673269e-05
6.6356712e-05
5.1969303e-05
4.5799044e-05
4.4299986e-05
4.0729044e-05
3.9674442e-05
4.2472617e-05
5.7069818e-05
0.00010668069
0.00019183754
0.0002354351
0.0002365762
0.00021392603
0.00018325704
0.00016076383
0.00014549094
0.00013457338
0.00012689357
0.00012099312
0.00011599875
0.0001124224
0.00010866161
0.00010631759
0.0001046286
2.2767213e-13
7.1542433e-12
5.850256e-11
2.5159862e-10
7.7426326e-10
1.9539204e-09
4.3331857e-09
8.7829855e-09
1.6669837e-08
3.0101474e-08
5.2285613e-08
8.8051689e-08
1.4460683e-07
2.3262765e-07
3.6783198e-07
5.7323363e-07
8.8236271e-07
1.3438348e-06
2.0277695e-06
3.0346618e-06
4.5073227e-06
6.6462547e-06
9.7279811e-06
1.4123801e-05
2.0312289e-05
2.8871627e-05
4.042729e-05
5.5520132e-05
7.4361334e-05
9.6480561e-05
0.00012038177
0.00014348339
0.0001625851
0.00017497548
0.00017923354
0.00017714667
0.00016876241
0.00015369549
0.00013514386
0.00011414936
9.3565445e-05
7.6092752e-05
6.3842778e-05
6.0057073e-05
5.7699154e-05
4.8642019e-05
4.4906058e-05
4.8363092e-05
6.610673e-05
0.00012616502
0.00019746278
0.00022381166
0.0002184474
0.00019117975
0.00016788157
0.00015214898
0.00014054187
0.0001315374
0.00012494542
0.00011955745
0.00011492023
0.00011157875
0.0001080263
0.00010592798
0.0001043291
1.4430846e-13
4.5346672e-12
3.7081329e-11
1.5947223e-10
4.9074807e-10
1.238415e-09
2.7463242e-09
5.5663063e-09
1.0564077e-08
1.9074704e-08
3.3129648e-08
5.5786922e-08
9.1609632e-08
1.4735765e-07
2.3298511e-07
3.6307585e-07
5.5890449e-07
8.5138601e-07
1.2852745e-06
1.9250852e-06
2.8633174e-06
4.2315752e-06
6.2149442e-06
9.0691647e-06
1.3138135e-05
1.8865031e-05
2.6783587e-05
3.746586e-05
5.139368e-05
6.8724688e-05
8.8966682e-05
0.0001106799
0.00013143605
0.00014833167
0.00015894887
0.00016184429
0.00015925058
0.0001502091
0.00013557086
0.000119058
0.00010256097
8.7080346e-05
7.835237e-05
7.5516347e-05
6.5593226e-05
5.1191075e-05
4.8586378e-05
5.5293449e-05
7.9771116e-05
0.00015034922
0.00019969587
0.00021009484
0.00019618046
0.00017378463
0.00015851193
0.00014621723
0.00013676432
0.00012909568
0.00012327976
0.00011825193
0.00011393066
0.00011078054
0.00010743067
0.00010556159
0.00010404993
8.8184459e-14
2.7710567e-12
2.2659687e-11
9.744961e-11
2.9987938e-10
7.5673369e-10
1.6780804e-09
3.4009992e-09
6.4542052e-09
1.1652875e-08
2.0237055e-08
3.4072842e-08
5.5943847e-08
8.9972406e-08
1.4222717e-07
2.2159851e-07
3.4105861e-07
5.1947352e-07
7.842042e-07
1.1748249e-06
1.7483962e-06
2.5868286e-06
3.8068905e-06
5.5731889e-06
8.1136725e-06
1.1735471e-05
1.6835087e-05
2.3890726e-05
3.3414176e-05
4.5834513e-05
6.129004e-05
7.9346263e-05
9.8742457e-05
0.00011738953
0.00013282193
0.00014300266
0.00014554631
0.0001431185
0.00013448826
0.00012260591
0.00011055814
9.753015e-05
9.1784614e-05
8.4309235e-05
6.5640225e-05
5.15245e-05
5.1965359e-05
6.3774422e-05
0.00010534454
0.00016671887
0.00019519576
0.00019377916
0.00017855199
0.00016351426
0.00015155263
0.00014172456
0.00013379742
0.00012706573
0.0001218017
0.00011703087
0.00011300956
0.00011001695
0.00010686707
0.00010521859
0.00010380188
5.2237291e-14
1.6414727e-12
1.3422726e-11
5.7724966e-11
1.7763292e-10
4.4823845e-10
9.9394693e-10
2.0143521e-09
3.8224578e-09
6.9007306e-09
1.1982856e-08
2.0172474e-08
3.3115032e-08
5.3245887e-08
8.4147845e-08
1.3106595e-07
2.0164846e-07
3.0701386e-07
4.6328762e-07
6.9381485e-07
1.032337e-06
1.5275207e-06
2.2493173e-06
3.2976524e-06
4.8137328e-06
6.9935427e-06
1.0101369e-05
1.4477973e-05
2.0533525e-05
2.8707836e-05
3.9372822e-05
5.2658989e-05
6.82261e-05
8.5073102e-05
0.00010155631
0.00011590488
0.00012542136
0.00012896349
0.00012739616
0.00012104214
0.00011168668
0.00010225285
9.5401897e-05
7.9016231e-05
5.5298793e-05
5.0890519e-05
5.6961962e-05
7.8611512e-05
0.0001342769
0.00017466145
0.00018612505
0.00018113239
0.0001676425
0.00015619401
0.00014646141
0.00013826779
0.00013135298
0.0001253083
0.00012044077
0.00011586708
0.00011214235
0.00010927064
0.00010633924
0.00010490722
0.00010357211
3.0281184e-14
9.5153689e-13
7.780933e-12
3.3462004e-11
1.0296888e-10
2.5982583e-10
5.7613297e-10
1.1675505e-09
2.2154232e-09
3.9992057e-09
6.9437199e-09
1.1687716e-08
1.9182975e-08
3.0837159e-08
4.8719284e-08
7.5854949e-08
1.1665041e-07
1.775021e-07
2.6767387e-07
4.0056134e-07
5.9551532e-07
8.8046708e-07
1.2956832e-06
1.8990564e-06
2.7733482e-06
4.0356099e-06
5.8483497e-06
8.4305162e-06
1.206353e-05
1.7083016e-05
2.3843314e-05
3.2639702e-05
4.3580348e-05
5.6412554e-05
7.0390389e-05
8.4399693e-05
9.6894944e-05
0.00010509978
0.00010927471
0.0001083225
0.00010376878
9.5743698e-05
8.0911124e-05
5.5606748e-05
4.874077e-05
5.2617741e-05
6.7330066e-05
0.00010993509
0.00015364904
0.00017792035
0.00017841792
0.00017197609
0.00016010036
0.00015067317
0.00014245183
0.0001354569
0.0001292365
0.0001237328
0.0001191429
0.00011474879
0.00011131283
0.00010853511
0.00010585796
0.00010462664
0.00010336698
1.7462091e-14
5.487177e-13
4.4869843e-12
1.9296264e-11
5.9377715e-11
1.4982813e-10
3.3221875e-10
6.7322955e-10
1.277393e-09
2.3057611e-09
4.0030892e-09
6.7372336e-09
1.105602e-08
1.7769056e-08
2.8065135e-08
4.3680397e-08
6.7138992e-08
1.0209751e-07
1.5383841e-07
2.2997804e-07
3.414846e-07
5.0414306e-07
7.406601e-07
1.0836683e-06
1.5799479e-06
2.2961889e-06
3.3264794e-06
4.8010384e-06
6.8944528e-06
9.829182e-06
1.3866604e-05
1.9273116e-05
2.6254598e-05
3.4858842e-05
4.4868398e-05
5.5745801e-05
6.6633395e-05
7.5751316e-05
8.1255092e-05
8.11874e-05
7.8365249e-05
6.7668386e-05
4.953426e-05
4.4468757e-05
4.8206961e-05
6.1369811e-05
9.490216e-05
0.00013549202
0.00016382209
0.00017264082
0.00017144547
0.00016386414
0.00015421809
0.00014636377
0.00013922613
0.0001330865
0.00012732915
0.00012227974
0.00011786622
0.00011367585
0.00011051566
0.00010780739
0.00010544008
0.00010435772
0.00010320581
1.0303382e-14
3.2376701e-13
2.6475147e-12
1.1385638e-11
3.5035423e-11
8.8404911e-11
1.9602228e-10
3.9722924e-10
7.5369711e-10
1.3604323e-09
2.361795e-09
3.974696e-09
6.5220393e-09
1.0480752e-08
1.6550539e-08
2.575203e-08
3.9566611e-08
6.0135359e-08
9.0541887e-08
1.3521462e-07
2.0049941e-07
2.9547546e-07
4.3311832e-07
6.3195407e-07
9.1839432e-07
1.3299777e-06
1.9196893e-06
2.7614182e-06
3.95599e-06
5.6363472e-06
7.9685285e-06
1.1142047e-05
1.5339371e-05
2.0679598e-05
2.7129883e-05
3.4435905e-05
4.2046218e-05
4.9112447e-05
5.2922091e-05
5.2107574e-05
4.6737042e-05
3.8291435e-05
3.7949352e-05
4.2972901e-05
5.8988222e-05
8.7332364e-05
0.00012062632
0.00015336929
0.00016758792
0.00017016654
0.00016692862
0.0001574326
0.00014953825
0.00014282469
0.00013649298
0.00013097939
0.00012554863
0.00012090247
0.00011658378
0.0001126641
0.00010975065
0.00010708812
0.00010508964
0.00010404592
0.00010312747
6.4829085e-15
2.0371497e-13
1.6658282e-12
7.1639571e-12
2.2044945e-11
5.5627179e-11
1.2334697e-10
2.4996562e-10
4.7430259e-10
8.5616678e-10
1.4864447e-09
2.5017055e-09
4.1052436e-09
6.5972648e-09
1.0418009e-08
1.6209113e-08
2.490061e-08
3.7833834e-08
5.6934477e-08
8.4955585e-08
1.2581782e-07
1.850851e-07
2.7062867e-07
3.9355219e-07
5.6947047e-07
8.2025152e-07
1.1763389e-06
1.6797085e-06
2.387358e-06
3.3746915e-06
4.7371852e-06
6.5882149e-06
9.0457937e-06
1.2203213e-05
1.607404e-05
2.0506442e-05
2.5067406e-05
2.8986568e-05
2.9912922e-05
2.8210457e-05
2.7571317e-05
2.9763494e-05
3.7375683e-05
5.7854256e-05
8.4017492e-05
0.0001095367
0.00014290973
0.00016209542
0.00016815228
0.00016733914
0.00016095011
0.00015267242
0.00014580065
0.00013980442
0.00013408624
0.00012902937
0.00012385057
0.00011956451
0.00011529537
0.00011173973
0.00010900845
0.00010638559
0.00010477525
0.0001036477
0.00010305389
4.4945692e-15
1.412348e-13
1.1549197e-12
4.9668555e-12
1.528445e-11
3.8569726e-11
8.5529186e-11
1.7334089e-10
3.2894295e-10
5.9385177e-10
1.0311781e-09
1.7357878e-09
2.8489425e-09
4.5792922e-09
7.2328259e-09
1.1255384e-08
1.7292664e-08
2.6274412e-08
3.9531725e-08
5.8959231e-08
8.7237307e-08
1.2813383e-07
1.8691014e-07
2.7085993e-07
3.9000954e-07
5.5802029e-07
7.9332476e-07
1.1205202e-06
1.5719726e-06
2.1892853e-06
3.0237828e-06
4.1342627e-06
5.578023e-06
7.3898591e-06
9.5429482e-06
1.1888594e-05
1.4101542e-05
1.5722112e-05
1.714763e-05
1.8987768e-05
2.376485e-05
3.4275009e-05
5.6304403e-05
8.0671624e-05
0.00010232298
0.00013287596
0.00015708649
0.00016522679
0.00016659771
0.00016381855
0.00015542029
0.0001484407
0.00014254597
0.00013717225
0.00013192361
0.00012718004
0.00012221995
0.00011824284
0.00011403374
0.0001109189
0.00010826173
0.00010573594
0.00010439971
0.00010319251
0.00010305132
3.4227782e-15
1.0755561e-13
8.7952091e-13
3.7825377e-12
1.1640319e-11
2.9375288e-11
6.5144638e-11
1.3203935e-10
2.5059433e-10
4.5246842e-10
7.8580593e-10
1.3230051e-09
2.1719142e-09
3.4918815e-09
5.516631e-09
8.58666e-09
1.3194782e-08
2.0049575e-08
3.016282e-08
4.4968338e-08
6.6480732e-08
9.7502852e-08
1.4188952e-07
2.0487055e-07
2.9342905e-07
4.1672048e-07
5.8650093e-07
8.1752714e-07
1.1279078e-06
1.539066e-06
2.0750335e-06
2.7604031e-06
3.6150622e-06
4.6535139e-06
5.8606734e-06
7.2247378e-06
8.8160304e-06
1.1032882e-05
1.5027387e-05
2.1905733e-05
3.3864149e-05
5.2811503e-05
7.3710125e-05
9.6973073e-05
0.00012416917
0.00015178749
0.00016332342
0.00016640937
0.00016493645
0.00015852334
0.00015088367
0.00014502572
0.00013969588
0.00013478162
0.00012990454
0.00012538421
0.00012065029
0.00011693166
0.00011285033
0.00011018584
0.00010748642
0.0001051958
0.00010382813
0.00010283958
0.00010316944
2.7804898e-15
8.7372748e-14
7.1448124e-13
3.0727852e-12
9.4563089e-12
2.3864423e-11
5.2925396e-11
1.0727795e-10
2.0361289e-10
3.6766696e-10
6.3858552e-10
1.0752438e-09
1.7653556e-09
2.8385213e-09
4.484801e-09
6.9809535e-09
1.0727171e-08
1.6297925e-08
2.4511328e-08
3.6521981e-08
5.3942209e-08
7.8995161e-08
1.146994e-07
1.6507757e-07
2.3537119e-07
3.3223596e-07
4.6386858e-07
6.4006691e-07
8.7228475e-07
1.173939e-06
1.5609552e-06
2.0547281e-06
2.6891022e-06
3.5240526e-06
4.6648015e-06
6.3291113e-06
8.9185637e-06
1.3263632e-05
2.0367057e-05
3.1490688e-05
4.6936474e-05
6.5691168e-05
9.1511505e-05
0.00011861445
0.00014630421
0.00016189783
0.0001660872
0.00016569009
0.00016164969
0.00015286799
0.00014701938
0.00014196711
0.00013716546
0.00013260105
0.00012798698
0.00012362951
0.00011914448
0.00011564553
0.00011178724
0.00010949257
0.00010670165
0.00010478824
0.00010303191
0.00010251592
0.00010317111
2.3815564e-15
7.4836857e-14
6.1197026e-13
2.6319132e-12
8.099547e-12
2.0440412e-11
4.5331738e-11
9.1885757e-11
1.7439838e-10
3.1491341e-10
5.4695914e-10
9.2096221e-10
1.5120482e-09
2.4312153e-09
3.8412361e-09
5.9791189e-09
9.1875438e-09
1.3958361e-08
2.0991902e-08
3.1276344e-08
4.6191328e-08
6.7638979e-08
9.8202924e-08
1.4133166e-07
2.0153885e-07
2.8461653e-07
3.9789224e-07
5.5058927e-07
7.5462367e-07
1.0264378e-06
1.3911265e-06
1.8891808e-06
2.5897109e-06
3.6203184e-06
5.2174484e-06
7.7261443e-06
1.1653031e-05
1.8025481e-05
2.7688334e-05
4.1286918e-05
5.9308509e-05
8.5662777e-05
0.00011401379
0.00014025719
0.00016051473
0.00016654548
0.00016682492
0.00016402824
0.00015539244
0.00014930213
0.00014414364
0.00013937952
0.00013488644
0.00013056917
0.00012614279
0.0001219277
0.00011771149
0.00011441517
0.00011085074
0.00010879795
0.00010597527
0.00010446874
0.00010239291
0.00010202168
0.00010281351
2.1735209e-15
6.8299596e-14
5.5851018e-13
2.4019708e-12
7.3917701e-12
1.8653676e-11
4.1367521e-11
8.3846083e-11
1.5912908e-10
2.8732009e-10
4.9899148e-10
8.4011786e-10
1.3791863e-09
2.2173882e-09
3.5031445e-09
5.4526721e-09
8.3788865e-09
1.2731656e-08
1.9153262e-08
2.8553822e-08
4.2212321e-08
6.1909396e-08
9.0101099e-08
1.3013613e-07
1.8653881e-07
2.6538264e-07
3.7483947e-07
5.260864e-07
7.3506621e-07
1.0258087e-06
1.4370963e-06
2.0371256e-06
2.9510388e-06
4.3809521e-06
6.6371229e-06
1.01581e-05
1.5777395e-05
2.4431321e-05
3.706304e-05
5.4419743e-05
7.9894939e-05
0.00010834737
0.00013543757
0.0001585048
0.00016721579
0.00016799924
0.00016590663
0.00015856471
0.00015163329
0.00014620091
0.00014136014
0.00013696219
0.00013276483
0.00012862241
0.00012434313
0.00012028878
0.00011635813
0.00011326942
0.00011001423
0.00010810738
0.00010537399
0.00010416137
0.00010193702
0.00010136265
0.00010198463
2.1608246e-15
6.7900552e-14
5.5524376e-13
2.3878868e-12
7.3482248e-12
1.8543e-11
4.1119676e-11
8.333744e-11
1.5814896e-10
2.8551848e-10
4.9579826e-10
8.3462002e-10
1.3699455e-09
2.2021799e-09
3.4786068e-09
5.4138866e-09
8.3190061e-09
1.2641924e-08
1.9024274e-08
2.837997e-08
4.2003498e-08
6.1718816e-08
9.0082295e-08
1.3067059e-07
1.8849008e-07
2.7059213e-07
3.8707241e-07
5.5281542e-07
7.90745e-07
1.1388217e-06
1.6623879e-06
2.4707608e-06
3.7399285e-06
5.7699162e-06
8.9987051e-06
1.4097373e-05
2.2082641e-05
3.3949086e-05
5.0408054e-05
7.4211996e-05
0.00010223708
0.00013048615
0.00015586924
0.00016761015
0.00016961959
0.00016817164
0.00016244904
0.00015405421
0.00014813548
0.00014315832
0.00013876983
0.00013472045
0.00013076783
0.00012675276
0.00012260652
0.00011873793
0.00011509857
0.00011222295
0.00010925054
0.00010745898
0.00010491143
0.00010382329
0.0001015505
0.0001010047
0.00010169897
2.4072818e-15
7.5644985e-14
6.1856855e-13
2.6601808e-12
8.1859227e-12
2.0656022e-11
4.580268e-11
9.2821492e-11
1.7613037e-10
3.1794648e-10
5.5203875e-10
9.2916412e-10
1.5249065e-09
2.4509326e-09
3.8710927e-09
6.024371e-09
9.2575024e-09
1.4071223e-08
2.1185784e-08
3.1633829e-08
4.6892536e-08
6.9073454e-08
1.0119874e-07
1.4761756e-07
2.1470643e-07
3.1196085e-07
4.5389715e-07
6.6343468e-07
9.7801286e-07
1.4591242e-06
2.2060697e-06
3.3846783e-06
5.2708342e-06
8.2971741e-06
1.3053485e-05
2.052581e-05
3.1663634e-05
4.7292501e-05
6.9372451e-05
9.6737678e-05
0.00012578644
0.00015242549
0.00016788289
0.00017134684
0.00017031003
0.00016610799
0.00015632693
0.00015022971
0.00014526261
0.00014083358
0.00013669382
0.00013277621
0.00012890594
0.00012494892
0.00012094274
0.00011729159
0.00011394578
0.00011126969
0.00010855785
0.00010687065
0.00010453242
0.00010347799
0.00010128485
0.00010089137
0.00010166071
3.0674886e-15
9.6390869e-14
7.8821024e-13
3.3897021e-12
1.0430649e-11
2.6319674e-11
5.8359506e-11
1.1826417e-10
2.2439873e-10
4.0506087e-10
7.0326082e-10
1.18365e-09
1.9425235e-09
3.1222097e-09
4.9317201e-09
7.6763287e-09
1.1799928e-08
1.794576e-08
2.7044524e-08
4.0445482e-08
6.0107044e-08
8.8886161e-08
1.3098622e-07
1.9266786e-07
2.8336397e-07
4.1760756e-07
6.1828202e-07
9.2209385e-07
1.387981e-06
2.1121257e-06
3.2532175e-06
5.0665463e-06
7.9550691e-06
1.2522387e-05
1.9592801e-05
3.004508e-05
4.4862693e-05
6.5470711e-05
9.1608937e-05
0.00012101945
0.00014852395
0.00016780812
0.00017323391
0.00017253002
0.00016927269
0.00015972487
0.00015328352
0.00014783169
0.00014288734
0.00013845562
0.00013450063
0.00013081443
0.00012708379
0.00012320915
0.00011937531
0.00011596823
0.0001129032
0.00011039767
0.00010794544
0.00010631707
0.00010418267
0.00010323028
0.00010109175
0.00010087572
0.00010187126
4.3479286e-15
1.3662663e-13
1.1172275e-12
4.8046459e-12
1.4784691e-11
3.7306432e-11
8.2721629e-11
1.6763632e-10
3.1808839e-10
5.7420608e-10
9.9700001e-10
1.6782228e-09
2.7546325e-09
4.4285772e-09
6.997665e-09
1.0897537e-08
1.6764045e-08
2.5524744e-08
3.8531639e-08
5.7756436e-08
8.6088435e-08
1.2779054e-07
1.8921499e-07
2.7995229e-07
4.147156e-07
6.1641472e-07
9.2121546e-07
1.387112e-06
2.1084284e-06
3.2373651e-06
5.0156047e-06
7.8142354e-06
1.2195126e-05
1.8901167e-05
2.8783136e-05
4.2811869e-05
6.2172963e-05
8.7051955e-05
0.00011596283
0.00014451739
0.00016656249
0.00017486733
0.00017500528
0.00017241637
0.00016390734
0.00015641541
0.00015017619
0.00014481359
0.00014028585
0.0001363065
0.00013259602
0.00012900897
0.00012533466
0.00012155072
0.00011792616
0.00011477585
0.00011195919
0.00010960619
0.00010739504
0.0001057811
0.00010388298
0.0001030513
0.00010106213
0.00010117708
0.00010290301
6.4565642e-15
2.0288715e-13
1.659057e-12
7.1348123e-12
2.195516e-11
5.5400483e-11
1.2284503e-10
2.489544e-10
4.7240996e-10
8.5283989e-10
1.4809349e-09
2.4931541e-09
4.0930444e-09
6.5821002e-09
1.0404429e-08
1.6211516e-08
2.4957166e-08
3.8035224e-08
5.7484572e-08
8.6296099e-08
1.2888072e-07
1.9179694e-07
2.8489675e-07
4.2313828e-07
6.2960596e-07
9.4051023e-07
1.413387e-06
2.1400393e-06
3.2663643e-06
5.020561e-06
7.7541475e-06