/*--------------------------------*- C++ -*----------------------------------*\
  =========                 |
  \\      /  F ield         | OpenFOAM: The Open Source CFD Toolbox
   \\    /   O peration     | Website:  https://openfoam.org
    \\  /    A nd           | Version:  13
     \\/     M anipulation  |
\*---------------------------------------------------------------------------*/
FoamFile
{
    format      ascii;
    class       volScalarField;
    location    "24.197006";
    object      yPlus;
}
// * * * * * * * * * * * * * * * * * * * * * * * * * * * * * * * * * * * * * //

dimensions      [];

internalField   uniform 0;

boundaryField
{
    inlet
    {
        type            calculated;
        value           uniform 0;
    }
    outlet
    {
        type            calculated;
        value           uniform 0;
    }
    cylinder
    {
        type            calculated;
        value           nonuniform List<scalar> 
132
(
2.4459955e-07
2.4391593e-07
2.422083e-07
2.3939782e-07
2.3547655e-07
2.3043408e-07
2.2427513e-07
2.1702378e-07
2.0872568e-07
1.9944943e-07
1.8928827e-07
1.7836063e-07
1.6681023e-07
1.5480495e-07
1.425344e-07
1.3020392e-07
1.1802962e-07
1.0623797e-07
9.5051168e-08
8.467162e-08
7.5261644e-08
6.691598e-08
5.9623914e-08
5.3232167e-08
4.7436762e-08
4.1838378e-08
3.6074515e-08
2.9978111e-08
2.3671229e-08
1.7539682e-08
1.2085897e-08
7.7542386e-09
4.8537068e-09
3.5300405e-09
3.5551862e-09
4.2327175e-09
5.2158202e-09
6.4470015e-09
7.9453981e-09
9.7484394e-09
1.1930247e-08
1.4582623e-08
1.7484779e-08
2.0599495e-08
2.3846827e-08
2.7152783e-08
3.0452603e-08
3.3691014e-08
3.6827802e-08
3.9833185e-08
4.2685665e-08
4.5373923e-08
4.7884557e-08
5.0208785e-08
5.2374709e-08
5.434874e-08
5.6145302e-08
5.7755173e-08
5.919878e-08
6.0463159e-08
6.1552998e-08
6.2457927e-08
6.3186509e-08
6.373623e-08
6.4114958e-08
6.4315971e-08
2.442573e-07
2.4284648e-07
2.4041682e-07
2.3691958e-07
2.3233972e-07
2.2668008e-07
2.1996111e-07
2.1222207e-07
2.0352241e-07
1.9394262e-07
1.8358514e-07
1.7257394e-07
1.6105306e-07
1.4918312e-07
1.3714431e-07
1.2513226e-07
1.1334563e-07
1.0198339e-07
9.1237246e-08
8.1282046e-08
7.2259783e-08
6.4255905e-08
5.726313e-08
5.1140189e-08
4.5592798e-08
4.0216749e-08
3.4635289e-08
2.8677837e-08
2.248629e-08
1.6484665e-08
1.1209701e-08
7.1129544e-09
4.4953879e-09
3.4706545e-09
3.6780313e-09
4.4384375e-09
5.4819395e-09
6.777024e-09
8.3476709e-09
1.0230903e-08
1.2498051e-08
1.5237407e-08
1.8213741e-08
2.1385097e-08
2.4670507e-08
2.7999211e-08
3.1305279e-08
3.4535568e-08
3.7653883e-08
4.0632311e-08
4.3451333e-08
4.6102617e-08
4.8570798e-08
5.0844926e-08
5.2973304e-08
5.4895925e-08
5.6642544e-08
5.8203985e-08
5.9597145e-08
6.0811921e-08
6.1845025e-08
6.2698292e-08
6.3370406e-08
6.3868615e-08
6.419173e-08
6.433971e-08
)
;
    }
    frontAndBack
    {
        type            empty;
    }
}


// ************************************************************************* //
