/*--------------------------------*- C++ -*----------------------------------*\
  =========                 |
  \\      /  F ield         | OpenFOAM: The Open Source CFD Toolbox
   \\    /   O peration     | Website:  https://openfoam.org
    \\  /    A nd           | Version:  13
     \\/     M anipulation  |
\*---------------------------------------------------------------------------*/
FoamFile
{
    format      ascii;
    class       volScalarField;
    location    "21.098408";
    object      pMean;
}
// * * * * * * * * * * * * * * * * * * * * * * * * * * * * * * * * * * * * * //

dimensions      [0 2 -2 0 0 0 0];

internalField   nonuniform List<scalar> 
17140
(
2.1689589
2.1688204
2.1686532
2.1684835
2.1683003
2.1681011
2.1678858
2.1676542
2.1674057
2.1671403
2.1668577
2.1665575
2.1662392
2.1659016
2.1655423
2.165157
2.1647387
2.1642759
2.1637516
2.1631404
2.1624064
2.1614998
2.1603519
2.1588691
2.1569431
2.1544848
2.1514416
2.1477554
2.1433207
2.1379994
2.1316399
2.1240686
2.1150887
2.1044804
2.0920047
2.0774127
2.0604616
2.0409366
2.0186818
1.9936409
1.9659054
1.9357712
1.9038189
1.8709636
1.8385114
1.808152
1.7815889
1.7605373
1.7467005
1.7414676
1.745748
1.7600838
1.7846166
1.8188398
1.8617421
1.9114881
1.9658909
2.0219599
2.0776418
2.1285665
2.174233
2.2078018
2.2346217
2.242503
2.2489893
2.1666556
2.1665198
2.1663561
2.1661897
2.1660101
2.1658147
2.1656036
2.1653764
2.1651327
2.1648723
2.1645951
2.1643008
2.163989
2.1636583
2.1633067
2.1629299
2.1625212
2.1620693
2.1615573
2.1609603
2.1602427
2.159355
2.158229
2.1567719
2.1548747
2.1524463
2.1494341
2.1457809
2.1413808
2.1360946
2.1297702
2.1222336
2.1132869
2.1027094
2.090261
2.0756916
2.058757
2.0392406
2.0169846
1.9919307
1.9641682
1.9339917
1.9019795
1.8690514
1.8365313
1.8060705
1.7793983
1.7582945
1.7444151
1.7391182
1.7433428
1.7576317
1.7820884
1.8162276
1.8590336
1.9086572
1.9629553
2.018958
2.074631
2.1256204
2.1714434
2.2053186
2.2325324
2.2406626
2.2477377
2.1610367
2.1609078
2.1607526
2.1605943
2.1604234
2.1602374
2.1600363
2.1598198
2.1595877
2.1593397
2.1590757
2.1587957
2.1584993
2.1581855
2.1578523
2.1574962
2.1571104
2.1566846
2.1562024
2.1556396
2.1549614
2.1541192
2.1530462
2.1516512
2.1498237
2.1474685
2.1445307
2.1409543
2.1366344
2.1314312
2.1251902
2.1177361
2.1088692
2.0983663
2.0859846
2.071471
2.0545776
2.035084
2.012828
1.987747
1.9599261
1.9296588
1.8975245
1.8644594
1.8318023
1.801171
1.7743258
1.7530814
1.7391039
1.7337375
1.7378808
1.7520531
1.7763703
1.8103546
1.8529751
1.9023778
1.9564482
2.0122539
2.0678327
2.1188643
2.1648735
2.1990643
2.226798
2.2356181
2.2436949
2.1522117
2.1520937
2.1519521
2.1518067
2.1516496
2.1514785
2.1512934
2.151094
2.1508802
2.1506518
2.1504088
2.1501513
2.1498792
2.1495919
2.1492878
2.1489637
2.1486139
2.1482286
2.1477926
2.1472827
2.1466654
2.1458936
2.1449024
2.1436035
2.1418853
2.1396459
2.1368248
2.1333666
2.129171
2.1240975
2.1179874
2.1106636
2.1019235
2.0915403
2.0792669
2.0648457
2.0480235
2.0285737
2.0063279
1.9812166
1.9533201
1.9229306
1.8906307
1.8573804
1.8245318
1.7936735
1.7666171
1.7451985
1.7310965
1.7256424
1.7296958
1.7437317
1.7678547
1.8015969
1.8439172
1.8929401
1.9466041
2.0020319
2.0573713
2.1083576
2.1545999
2.1893426
2.2178874
2.2277756
2.2372091
2.140471
2.1403677
2.1402443
2.1401164
2.1399779
2.1398269
2.1396634
2.1394872
2.1392981
2.1390961
2.1388814
2.1386543
2.1384148
2.1381629
2.1378973
2.1376157
2.1373132
2.136981
2.1366052
2.1361642
2.1356262
2.134946
2.1340614
2.1328876
2.1313138
2.1292303
2.126565
2.1232626
2.1192312
2.11433
2.1083951
2.1012468
2.0926787
2.0824595
2.0703371
2.0560479
2.0393318
2.0199548
1.9977399
1.9726097
1.9446383
1.9141164
1.8816355
1.8481845
1.8151128
1.7840154
1.7567469
1.7351562
1.7209519
1.7154362
1.7194188
1.7333237
1.7572442
1.7907109
1.8326616
1.8812042
1.9343627
1.9893249
2.0443487
2.0952682
2.1417597
2.1771118
2.2066072
2.217896
2.2288548
2.1262931
2.1262078
2.1261068
2.1260003
2.1258848
2.1257587
2.1256219
2.1254743
2.1253157
2.1251463
2.1249665
2.1247766
2.124577
2.1243679
2.124149
2.1239183
2.123672
2.1234026
2.1230977
2.1227375
2.1222921
2.1217191
2.120959
2.1199315
2.1185304
2.1166373
2.1141609
2.1110451
2.1072104
2.1025168
2.096795
2.0898617
2.0815064
2.071493
2.0595634
2.0454472
2.0288767
2.0096087
1.9874566
1.9623329
1.9343051
1.903663
1.8710119
1.8373707
1.8040795
1.772771
1.7453178
1.7235866
1.7093172
1.7037904
1.7077555
1.7215786
1.7453297
1.7785202
1.8200589
1.8680428
1.9205875
1.9750043
2.0296719
2.0805113
2.1272785
2.1633711
2.1939711
2.2068924
2.2195324
2.110325
2.1102603
2.1101836
2.1101021
2.1100133
2.1099161
2.1098103
2.1096958
2.1095727
2.1094411
2.1093015
2.1091545
2.1090006
2.1088405
2.1086742
2.1085005
2.1083166
2.1081163
2.1078886
2.1076157
2.1072704
2.1068128
2.1061869
2.105317
2.1041033
2.1024232
2.100166
2.0972636
2.0936454
2.0891824
2.0837024
2.0770151
2.0689063
2.0591347
2.0474365
2.0335343
2.0171518
1.9980361
1.9759892
1.9509133
1.9228686
1.8921455
1.8593679
1.825576
1.7921132
1.7606485
1.7330473
1.7112089
1.6969093
1.6914155
1.6954179
1.7092246
1.7328728
1.7658504
1.8070373
1.8545043
1.9064282
1.9602783
2.0146118
2.0654218
2.1124884
2.1493423
2.1810801
2.1956423
2.2097563
2.0933496
2.0933073
2.0932569
2.0932028
2.0931435
2.0930781
2.0930065
2.0929287
2.0928448
2.092755
2.0926597
2.0925597
2.0924558
2.0923487
2.0922388
2.0921256
2.092007
2.0918779
2.0917291
2.0915445
2.0912995
2.0909571
2.0904652
2.0897528
2.0887264
2.0872689
2.085253
2.0825811
2.0791871
2.0749646
2.069742
2.0633205
2.0554823
2.0459811
2.0345478
2.0208981
2.0047474
1.9858324
1.9639438
1.9389725
1.9109718
1.880235
1.8474079
1.8135338
1.7799774
1.7484243
1.7207121
1.6987822
1.6844641
1.6790356
1.6831307
1.6969811
1.7205983
1.7534463
1.7943721
1.8414224
1.8928361
1.9461597
2.0001461
2.0508555
2.0982055
2.1358982
2.1688372
2.185176
2.200704
2.0762377
2.0762188
2.0761959
2.0761707
2.0761424
2.0761106
2.0760753
2.0760363
2.0759938
2.0759482
2.0758998
2.0758494
2.0757977
2.0757456
2.0756937
2.0756419
2.0755884
2.0755292
2.0754563
2.0753554
2.0752041
2.0749687
2.0746008
2.0740342
2.0731817
2.0719334
2.070161
2.0677383
2.0645731
2.060581
2.0556145
2.0494657
2.0419089
2.0326963
2.0215538
2.0081914
1.9923164
1.9736557
1.9519889
1.9271967
1.899326
1.868675
1.8359083
1.8020624
1.768529
1.7369762
1.7092045
1.6872092
1.6728935
1.6675457
1.6717406
1.6856703
1.7093243
1.7421197
1.7828547
1.8295581
1.8805362
1.9333788
1.9870391
2.0379507
2.0859025
2.1246199
2.1586728
2.1763888
2.192642
2.0598857
2.0598903
2.0598949
2.0598987
2.0599017
2.0599038
2.059905
2.0599054
2.0599051
2.0599043
2.0599035
2.0599032
2.0599043
2.0599073
2.0599129
2.0599208
2.0599298
2.0599361
2.0599326
2.0599065
2.0598373
2.0596938
2.0594315
2.0589889
2.0582849
2.0572164
2.0556608
2.0534851
2.0505632
2.0467899
2.0420495
2.0361625
2.0288919
2.0199784
2.0091454
1.9960996
1.9805429
1.962195
1.9408266
1.9163103
1.8886891
1.8582666
1.8257154
1.7920678
1.7587253
1.7273074
1.6995909
1.6776254
1.6633612
1.6580913
1.6623973
1.6764498
1.7001671
1.7329148
1.7734815
1.8199067
1.8705723
1.9232168
1.9769347
2.0280891
2.0763585
2.1156513
2.1503342
2.1687636
2.1855077
2.0451405
2.0451673
2.045198
2.0452294
2.0452623
2.045297
2.0453335
2.045372
2.0454125
2.0454553
2.0455008
2.0455493
2.0456015
2.0456578
2.0457183
2.0457828
2.0458497
2.0459154
2.0459729
2.0460104
2.0460087
2.0459389
2.0457594
2.0454131
2.0448244
2.0438972
2.042515
2.0405464
2.0378562
2.0343158
2.0297924
2.024126
2.0171109
2.008492
1.997982
1.9852832
1.970095
1.9521323
1.9311617
1.9070516
1.8798451
1.8498508
1.8177254
1.7845104
1.7516019
1.7205496
1.6931168
1.6713544
1.6572241
1.6520746
1.6564581
1.6704887
1.6941527
1.7267852
1.7671708
1.8133694
1.8637347
1.9161631
1.9697729
2.0209043
2.0693165
2.1089995
2.1440672
2.1627505
2.179877
2.0327208
2.0327673
2.0328213
2.0328773
2.0329371
2.0330012
2.0330698
2.033143
2.0332209
2.0333039
2.0333922
2.0334861
2.0335858
2.0336915
2.033803
2.0339194
2.0340388
2.0341571
2.0342672
2.0343575
2.0344096
2.0343958
2.0342768
2.033999
2.0334914
2.0326645
2.0314088
2.0295964
2.0270903
2.0237529
2.0194424
2.0139996
2.0072265
1.9988841
1.9886976
1.9763725
1.9616086
1.9441214
1.9236751
1.9001389
1.8735568
1.8442385
1.8128263
1.7803568
1.7481765
1.7177914
1.6909364
1.6696027
1.6557507
1.6506167
1.6548236
1.66859
1.6919584
1.7242794
1.7643182
1.8100799
1.860045
1.9121842
1.9656862
2.01697
2.0655903
2.1053455
2.1398789
2.1583399
2.1747036
2.0231402
2.0232026
2.0232754
2.0233516
2.0234335
2.023522
2.0236174
2.0237198
2.0238296
2.023947
2.0240723
2.0242057
2.0243472
2.0244966
2.0246534
2.0248162
2.0249824
2.0251475
2.0253039
2.0254396
2.0255363
2.0255672
2.0254944
2.0252663
2.0248158
2.0240579
2.0228902
2.0211935
2.0188304
2.0156547
2.0115286
2.0062953
1.9997626
1.9917077
1.9818673
1.9699569
1.9556835
1.9387718
1.9190009
1.8962365
1.8705235
1.8421647
1.8117951
1.7804141
1.7492911
1.7198828
1.6938894
1.6732269
1.6596046
1.6543235
1.6581273
1.6714187
1.6942509
1.7260186
1.7654365
1.8105792
1.8601821
1.9122063
1.9657294
2.0168094
2.0649465
2.1036621
2.1372579
2.1546574
2.1705465
2.0166481
2.0167214
2.0168074
2.0168978
2.0169955
2.0171017
2.0172166
2.0173408
2.0174746
2.0176185
2.0177726
2.0179373
2.0181124
2.0182977
2.0184923
2.0186944
2.0189012
2.0191076
2.0193056
2.019483
2.0196214
2.0196942
2.0196646
2.0194822
2.0190818
2.0183821
2.0172847
2.0156755
2.0134284
2.0104105
2.0064249
2.0013881
1.995107
1.9873564
1.9778954
1.9664611
1.9527821
1.9365936
1.9176634
1.8958851
1.8713057
1.8442109
1.8152058
1.785226
1.7554718
1.7273247
1.702427
1.6824224
1.668968
1.6634356
1.6666751
1.6792511
1.7013345
1.7322887
1.7708335
1.8152836
1.8644108
1.916222
1.9693185
2.0197501
2.0665091
2.1038331
2.1356853
2.1517151
2.1670743
2.0131829
2.0132615
2.0133542
2.013452
2.0135581
2.0136739
2.0138
2.013937
2.0140853
2.0142456
2.0144183
2.0146038
2.0148021
2.0150129
2.0152356
2.0154682
2.015708
2.0159497
2.0161856
2.0164035
2.0165856
2.0167059
2.0167285
2.0166047
2.0162708
2.015647
2.0146378
2.0131335
2.0110095
2.0081371
2.0044262
1.9996052
1.9935019
1.9860972
1.9770819
1.9662088
1.9532178
1.9378668
1.9199604
1.8994027
1.8762214
1.8506835
1.8233377
1.7950326
1.7668846
1.7402054
1.7163827
1.6969856
1.683653
1.6777092
1.6802443
1.6919698
1.713092
1.7429489
1.7804263
1.8240509
1.8727168
1.9239896
1.9762802
2.0250781
2.0699324
2.1049756
2.1346871
2.1495424
2.164328
2.0124221
2.0125003
2.0125934
2.0126914
2.0127981
2.0129152
2.0130434
2.0131832
2.0133356
2.0135012
2.0136808
2.013875
2.014084
2.014308
2.0145465
2.0147982
2.0150607
2.0153295
2.0155976
2.015854
2.0160823
2.0162586
2.0163491
2.0163074
2.0160725
2.0155666
2.0146955
2.0133497
2.0114061
2.0087367
2.0052136
2.0006403
1.9949852
1.9879554
1.9793854
1.9691556
1.9569876
1.9426597
1.9259989
1.9068849
1.8853522
1.8616268
1.836176
1.8097556
1.7833681
1.7581284
1.7353225
1.7164784
1.7030994
1.6966887
1.698446
1.7092107
1.7291732
1.7577435
1.7940725
1.8368882
1.8847435
1.9349859
1.9856014
2.0321781
2.074372
2.1066051
2.1344092
2.1479887
2.1623235
2.0137851
2.0138581
2.0139458
2.0140374
2.0141377
2.0142483
2.01437
2.0145034
2.0146497
2.0148097
2.0149844
2.0151747
2.0153813
2.0156047
2.0158451
2.0161019
2.0163736
2.016657
2.0169468
2.0172341
2.017505
2.0177392
2.0179072
2.0179673
2.0178631
2.017521
2.016848
2.015734
2.0140568
2.0116855
2.0084788
2.0043436
1.9991018
1.9925884
1.984747
1.9752635
1.9640406
1.9509052
1.9356666
1.9182097
1.8985432
1.876828
1.8534496
1.8290334
1.804386
1.7805254
1.758667
1.7401799
1.7266927
1.7197485
1.7207088
1.7304098
1.7490586
1.7763181
1.8114748
1.8532286
1.8998543
1.9485216
1.9966745
2.040243
2.0792039
2.1087481
2.134678
2.1471573
2.1610798
2.0166209
2.0166846
2.0167618
2.0168421
2.0169303
2.0170281
2.0171362
2.0172555
2.017387
2.0175319
2.0176912
2.0178662
2.018058
2.0182674
2.0184955
2.0187424
2.0190078
2.0192903
2.0195867
2.0198909
2.0201934
2.0204785
2.0207231
2.0208935
2.0209423
2.0208044
2.0203958
2.0196125
2.0183311
2.016417
2.013726
2.0101302
2.0054967
1.9997195
1.9926104
1.9841262
1.9741374
1.9623421
1.9486933
1.9330747
1.9154436
1.8958919
1.8746818
1.8522613
1.8293095
1.8067444
1.7856346
1.7674069
1.7537271
1.7462564
1.7463575
1.7548839
1.7722301
1.7981076
1.83201
1.8724257
1.9175556
1.9636362
2.0085823
2.0486216
2.0842075
2.1114019
2.1356315
2.1470412
2.1605977
2.0202389
2.020291
2.0203545
2.0204204
2.0204931
2.0205742
2.0206642
2.0207641
2.020875
2.020998
2.0211343
2.0212853
2.0214524
2.0216368
2.02184
2.0220632
2.022307
2.0225717
2.0228561
2.0231576
2.0234707
2.0237856
2.0240869
2.0243506
2.0245414
2.0246095
2.0244858
2.0240794
2.0232783
2.0219508
2.0199514
2.017136
2.0133618
2.0085267
2.0025098
1.995219
1.9865092
1.9763481
1.9645727
1.9509813
1.9355436
1.9182526
1.8992271
1.8787748
1.8574342
1.8359753
1.8154723
1.7973729
1.7834511
1.7753913
1.774561
1.7818522
1.7977674
1.8223207
1.8550372
1.8940292
1.9367219
1.9793922
2.0207587
2.0567979
2.0896843
2.1145868
2.1372477
2.1476603
2.160883
2.0240831
2.0241229
2.0241712
2.0242219
2.0242781
2.024341
2.0244112
2.0244897
2.0245773
2.0246753
2.0247847
2.0249069
2.0250434
2.0251958
2.0253658
2.0255549
2.0257647
2.0259967
2.0262516
2.0265292
2.0268278
2.0271432
2.0274672
2.0277859
2.0280774
2.0283086
2.0284315
2.0283798
2.0280648
2.0273754
2.02618
2.0243351
2.0216931
2.0181219
2.0135007
2.0077346
2.0007503
1.9924757
1.9827109
1.971333
1.9582137
1.9432312
1.9263865
1.9078172
1.8879128
1.8673813
1.847314
1.8292569
1.8150103
1.8062703
1.804332
1.81032
1.8250541
1.848627
1.8801456
1.917026
1.9561938
1.9952763
2.0323532
2.0653496
2.0955076
2.1183374
2.1395628
2.1490143
2.1619332
2.0277364
2.0277649
2.0277992
2.0278357
2.0278764
2.0279222
2.0279736
2.0280314
2.0280964
2.0281696
2.028252
2.0283448
2.0284495
2.0285676
2.0287009
2.0288511
2.0290203
2.0292104
2.0294235
2.0296609
2.0299237
2.0302115
2.030522
2.0308498
2.0311848
2.03151
2.0317987
2.0320122
2.0320956
2.0319745
2.0315531
2.0307155
2.0293313
2.0272649
2.0243864
2.020569
2.0156804
2.009604
2.0021931
1.9932757
1.9826166
1.9700009
1.9552795
1.9384409
1.9197693
1.8999577
1.8801773
1.8620649
1.8473505
1.8377208
1.8347106
1.8397784
1.8537996
1.8765376
1.9063946
1.9398936
1.9756965
2.0104041
2.044152
2.0740216
2.1017696
2.1226697
2.1425584
2.1511043
2.1637455
2.0309944
2.0310134
2.0310362
2.031061
2.0310887
2.0311199
2.0311553
2.0311952
2.0312405
2.0312918
2.03135
2.0314163
2.031492
2.0315782
2.0316765
2.0317883
2.0319158
2.0320609
2.0322258
2.0324127
2.032624
2.0328623
2.0331289
2.0334239
2.0337457
2.0340896
2.0344472
2.0348044
2.0351389
2.0354181
2.0355953
2.0356069
2.0353718
2.0347877
2.0337323
2.0320632
2.0296148
2.0261918
2.0215545
2.015423
2.0074521
1.997287
1.9846232
1.9693553
1.9517147
1.9324608
1.9128139
1.8944117
1.8789496
1.8685383
1.8649309
1.8697797
1.8836253
1.9051413
1.9320162
1.9625554
1.9942587
2.0253916
2.0558256
2.0829736
2.1084839
2.1275841
2.1462457
2.153929
2.1663156
2.0337918
2.0338035
2.0338176
2.0338329
2.0338502
2.0338698
2.0338921
2.0339174
2.0339462
2.0339793
2.0340174
2.034061
2.0341101
2.0341655
2.0342293
2.0343037
2.034391
2.0344935
2.0346132
2.0347515
2.0349091
2.0350883
2.0352936
2.0355295
2.0357996
2.0361081
2.0364589
2.0368551
2.0373003
2.0377962
2.0383418
2.0389341
2.0395595
2.0401851
2.0407455
2.0411245
2.0411355
2.0405018
2.0388638
2.0357792
2.0307059
2.02308
2.0124978
1.9987768
1.9821086
1.9632722
1.9435115
1.9245107
1.9084888
1.8979158
1.894755
1.9002995
1.9135603
1.9331701
1.9570583
1.9842211
2.0121387
2.0399927
2.067576
2.0921995
2.1156582
2.1330889
2.150614
2.1574782
2.1696353
2.0362447
2.0362503
2.0362572
2.0362647
2.0362732
2.0362829
2.0362942
2.0363072
2.0363223
2.0363398
2.0363601
2.0363833
2.0364102
2.0364421
2.0364804
2.0365264
2.0365804
2.0366427
2.0367154
2.036802
2.0369056
2.0370274
2.0371696
2.0373366
2.037535
2.0377763
2.0380734
2.0384387
2.0388899
2.0394524
2.0401585
2.0410551
2.042189
2.0435924
2.0452837
2.0472258
2.049266
2.0511115
2.0522928
2.0521498
2.0499347
2.0449278
2.0365214
2.0243543
2.0086007
1.9899668
1.9698622
1.9509144
1.9356237
1.926338
1.9247783
1.9303459
1.9424399
1.9595968
1.981297
2.0043354
2.0293754
2.0544043
2.0793768
2.1017114
2.1232905
2.1391731
2.1556533
2.1617429
2.173696
2.0384563
2.0384555
2.0384545
2.0384534
2.0384523
2.0384515
2.0384513
2.0384517
2.038453
2.0384552
2.0384587
2.038465
2.0384738
2.0384822
2.0384886
2.0384963
2.0385082
2.0385275
2.0385586
2.0386036
2.0386626
2.0387342
2.0388192
2.0389252
2.0390621
2.0392401
2.039475
2.0397884
2.0402087
2.0407725
2.0415287
2.0425473
2.0439077
2.0456972
2.0480051
2.0508527
2.0541577
2.057657
2.060869
2.0630971
2.0634139
2.0608301
2.0545013
2.0438318
2.0287768
2.0106635
1.9917423
1.9747084
1.9614325
1.954524
1.9535588
1.9587647
1.9693921
1.9847395
2.0030383
2.0237615
2.0461598
2.0686131
2.0912635
2.1115112
2.1313748
2.1458298
2.1613502
2.16671
2.1784912
2.0405153
2.0405065
2.0404962
2.0404854
2.0404738
2.0404611
2.0404473
2.0404329
2.040418
2.0404025
2.0403864
2.0403699
2.0403531
2.0403359
2.040319
2.040303
2.0402897
2.0402811
2.0402783
2.0402837
2.0403026
2.040337
2.0403857
2.0404535
2.0405501
2.0406851
2.0408729
2.0411363
2.0415099
2.0420386
2.0427707
2.0437728
2.0451454
2.0469979
2.0494463
2.0525701
2.0563762
2.0606959
2.0651146
2.0689033
2.0710202
2.070285
2.0654645
2.0559407
2.0426642
2.0269998
2.0108602
1.9963099
1.9861601
1.9804105
1.9796428
1.9849961
1.9945096
2.0076484
2.0240114
2.042384
2.0624592
2.0826721
2.1032375
2.121598
2.1399036
2.1530466
2.1676897
2.1723681
2.1840117
2.0420864
2.04207
2.0420507
2.0420305
2.0420083
2.0419835
2.0419556
2.0419256
2.0418956
2.0418657
2.0418348
2.0418025
2.041769
2.0417344
2.0416984
2.0416614
2.0416241
2.0415872
2.0415527
2.0415244
2.041507
2.0415047
2.0415193
2.0415516
2.0416117
2.0417178
2.0418832
2.0421199
2.042457
2.0429385
2.0436209
2.0445783
2.0458978
2.0476837
2.0500682
2.0531698
2.057007
2.0614748
2.0662332
2.070582
2.0734371
2.0736639
2.0704612
2.0633822
2.0529731
2.0402231
2.0272322
2.0162855
2.0083395
2.0034211
2.0040965
2.0088577
2.0175766
2.0292241
2.0437868
2.060279
2.0783794
2.0966003
2.1153122
2.1319723
2.1488669
2.1608099
2.1746534
2.1786967
2.1902438
2.0428481
2.0428274
2.042803
2.0427773
2.0427494
2.0427191
2.0426862
2.0426506
2.0426121
2.0425712
2.0425279
2.0424824
2.042435
2.0423862
2.0423365
2.0422868
2.0422382
2.0421922
2.0421501
2.0421138
2.0420878
2.0420802
2.0420944
2.042124
2.0421718
2.0422574
2.0423982
2.0426089
2.0429102
2.0433328
2.0439292
2.044772
2.0459429
2.0475433
2.0496633
2.0523925
2.0558577
2.0600222
2.064622
2.0690631
2.0725543
2.0741432
2.0727772
2.0680745
2.0604923
2.0511563
2.0417629
2.0338916
2.0274806
2.0250383
2.0265891
2.0310247
2.0388837
2.0494954
2.062698
2.0775708
2.0939475
2.1104266
2.1274968
2.1426322
2.1582533
2.169107
2.1822278
2.1856987
2.197178
2.0422448
2.0422261
2.0422041
2.0421808
2.0421556
2.0421282
2.0420986
2.0420666
2.0420323
2.0419957
2.041957
2.0419162
2.0418736
2.0418297
2.0417849
2.0417401
2.0416961
2.0416538
2.0416147
2.0415823
2.0415592
2.0415467
2.041548
2.0415672
2.0416106
2.0416894
2.0418162
2.0420051
2.0422759
2.0426523
2.0431681
2.0438889
2.0448964
2.0462636
2.0481209
2.0505824
2.0537261
2.0575818
2.0619986
2.0666116
2.0706624
2.0732654
2.0735601
2.071209
2.0666116
2.0605554
2.0545418
2.0491077
2.045436
2.0448425
2.0467167
2.0513656
2.0588797
2.0687125
2.0807799
2.0943054
2.1092195
2.1241782
2.1398012
2.1535751
2.1680549
2.1779243
2.1903948
2.1933505
2.2047809
2.0406126
2.0406002
2.0405856
2.0405701
2.0405534
2.0405352
2.0405155
2.0404943
2.0404716
2.0404475
2.0404219
2.0403951
2.0403673
2.0403389
2.0403104
2.0402824
2.0402559
2.0402321
2.0402124
2.0401986
2.0401926
2.0401971
2.0402161
2.0402532
2.0403138
2.0404049
2.0405418
2.0407296
2.0409711
2.0413024
2.041771
2.0424414
2.0433892
2.0446623
2.0463575
2.0486411
2.0516324
2.0553618
2.0597481
2.0644819
2.0689934
2.072507
2.0742874
2.0740862
2.0720708
2.0690794
2.065944
2.0631837
2.0619864
2.0626234
2.0654396
2.0704257
2.0777186
2.0869834
2.0981727
2.1105788
2.1242444
2.1378826
2.1522365
2.164803
2.1782639
2.1872493
2.1991363
2.2016334
2.2130474
2.0382237
2.0382183
2.0382119
2.0382052
2.038198
2.0381902
2.0381819
2.0381732
2.038164
2.0381546
2.038145
2.0381355
2.0381262
2.0381176
2.0381104
2.0381053
2.0381034
2.0381061
2.0381148
2.0381318
2.0381593
2.0382005
2.0382593
2.0383386
2.0384402
2.03857
2.0387424
2.038978
2.0393035
2.0397429
2.0403045
2.0410291
2.042007
2.0433277
2.0450915
2.0474196
2.0504208
2.0541549
2.0585866
2.0634855
2.0683842
2.0726425
2.0756928
2.0772263
2.0775403
2.0773721
2.0766773
2.0763978
2.0771356
2.0792141
2.0828978
2.0883049
2.0955878
2.1044729
2.1149728
2.1264573
2.1390712
2.1515677
2.1648172
2.1763087
2.1888668
2.1970598
2.2084414
2.2105048
2.2220096
2.0355271
2.0355264
2.0355256
2.035525
2.0355244
2.0355241
2.035524
2.0355244
2.0355254
2.0355273
2.0355302
2.0355347
2.0355411
2.0355502
2.0355628
2.03558
2.035603
2.0356335
2.0356739
2.0357265
2.0357937
2.0358792
2.0359892
2.0361317
2.0363097
2.0365379
2.0368398
2.0372133
2.0376623
2.0382246
2.0389437
2.0398635
2.0410377
2.0425347
2.044462
2.0469384
2.0500719
2.0539447
2.0585479
2.0636994
2.0689812
2.0739289
2.0780087
2.0811041
2.0837468
2.0855527
2.0870663
2.0889789
2.0914361
2.0948073
2.0993975
2.1053031
2.1126766
2.1213149
2.13129
2.1420212
2.1537501
2.1652624
2.1775522
2.1880912
2.1998616
2.2073374
2.2182981
2.2199487
2.2316004
2.0324651
2.0324666
2.0324686
2.0324709
2.0324739
2.0324775
2.0324821
2.0324878
2.0324951
2.0325041
2.0325155
2.0325298
2.0325478
2.0325705
2.0325991
2.0326351
2.0326804
2.0327373
2.032809
2.032899
2.0330118
2.0331523
2.0333287
2.0335522
2.0338302
2.0341703
2.0345864
2.0350965
2.0357232
2.0364931
2.0374372
2.0385897
2.0400069
2.0417787
2.0440027
2.0467849
2.0502477
2.0544735
2.0594353
2.0649559
2.070729
2.0762645
2.0812825
2.0860534
2.0902915
2.0939262
2.0975306
2.1011544
2.1051204
2.1097124
2.1151716
2.1215936
2.1291417
2.1376435
2.1472231
2.157341
2.1683292
2.1789958
2.190456
2.2001548
2.2112451
2.2180645
2.2286902
2.2299542
2.2417886
2.0287556
2.0287587
2.0287627
2.0287673
2.0287729
2.0287798
2.0287881
2.0287984
2.0288109
2.0288264
2.0288455
2.028869
2.028898
2.0289339
2.0289783
2.0290332
2.0291013
2.0291855
2.0292899
2.029419
2.0295786
2.0297759
2.0300206
2.0303213
2.0306882
2.031137
2.0316853
2.0323546
2.0331664
2.0341438
2.0353213
2.0367568
2.0385192
2.040682
2.0433486
2.0466374
2.0506564
2.0554471
2.0609566
2.0670186
2.0733232
2.0794946
2.085773
2.0918502
2.0974993
2.1028643
2.1080078
2.1131375
2.1184567
2.1241504
2.1304323
2.1373757
2.1451438
2.1535848
2.1628703
2.1724892
2.182857
2.1927971
2.2035403
2.2125028
2.2229995
2.2292477
2.2395901
2.2405101
2.2525613
2.0239161
2.0239222
2.0239299
2.0239385
2.0239487
2.0239609
2.0239753
2.0239926
2.0240134
2.0240383
2.0240684
2.0241047
2.0241487
2.024202
2.0242668
2.0243456
2.0244415
2.0245585
2.0247011
2.0248749
2.0250869
2.0253451
2.0256597
2.0260426
2.0265097
2.0270783
2.0277647
2.0285912
2.0295907
2.0308056
2.0322849
2.0340886
2.0362934
2.0389957
2.0423039
2.0463208
2.0511121
2.0566585
2.0628914
2.0696125
2.0765149
2.0838003
2.0912704
2.0984978
2.105407
2.1121139
2.1186588
2.1251185
2.1316304
2.1383228
2.1453669
2.152812
2.1608227
2.1692556
2.1783228
2.1875334
2.19738
2.2066952
2.2168198
2.2251331
2.2351246
2.2408556
2.2509796
2.2515877
2.2638748
2.0175408
2.0175523
2.0175664
2.017582
2.0176001
2.0176211
2.0176456
2.0176742
2.0177078
2.0177474
2.017794
2.0178492
2.0179146
2.0179924
2.0180851
2.0181957
2.0183281
2.0184866
2.0186769
2.0189051
2.0191795
2.0195109
2.0199102
2.0203901
2.020966
2.0216598
2.0225014
2.0235243
2.0247692
2.026289
2.0281512
2.0304388
2.0332492
2.0366873
2.0408496
2.0457999
2.0515368
2.0580106
2.0651037
2.0725669
2.0805883
2.0890493
2.0974142
2.1057104
2.1138504
2.1218203
2.1296063
2.1372429
2.1448176
2.1524054
2.1601438
2.1680586
2.1763133
2.1847671
2.1936683
2.2025398
2.2119436
2.2207182
2.2303033
2.2380592
2.2475953
2.2528934
2.2628202
2.2631768
2.2756821
2.0092958
2.0093151
2.0093387
2.0093645
2.0093939
2.0094275
2.0094663
2.0095109
2.0095623
2.009622
2.0096912
2.0097717
2.0098658
2.0099759
2.0101048
2.010255
2.0104317
2.0106428
2.0108934
2.0111885
2.0115365
2.0119497
2.0124438
2.0130363
2.0137481
2.014607
2.0156491
2.0169209
2.0184829
2.0204111
2.0227979
2.025749
2.029375
2.033772
2.0390016
2.0450669
2.0519216
2.059473
2.067508
2.0761816
2.0854619
2.0948186
2.104221
2.1136365
2.1229332
2.1320503
2.1409583
2.1496487
2.1581683
2.1665532
2.1749134
2.1832533
2.1917361
2.2002211
2.2089879
2.2175693
2.2265897
2.2348942
2.2440101
2.2512749
2.2604187
2.2653476
2.2750974
2.275211
2.2880037
1.9988519
1.9988816
1.9989174
1.9989564
1.9990006
1.9990508
1.999108
1.9991731
1.9992471
1.9993308
1.9994253
1.9995347
1.9996652
1.9998174
1.9999899
2.0001875
2.000418
2.0006879
2.0010043
2.0013764
2.0018144
2.002331
2.0029444
2.0036775
2.0045604
2.0056327
2.0069465
2.0085699
2.0105886
2.013107
2.0162424
2.020114
2.0248254
2.0304336
2.0369471
2.0443157
2.0524381
2.0611381
2.0704965
2.0805565
2.0908222
2.1012374
2.111784
2.1223127
2.1327148
2.1429088
2.1528403
2.1624742
2.1718294
2.1809136
2.1898161
2.1985247
2.2072032
2.2157111
2.2243555
2.2326799
2.2413598
2.2492468
2.2579437
2.2647873
2.2735854
2.2782327
2.2877939
2.2879188
2.300651
1.9861126
1.986155
1.9862051
1.9862573
1.9863136
1.9863786
1.9864592
1.9865545
1.9866575
1.9867689
1.9868951
1.9870404
1.9872075
1.9873999
1.9876218
1.987878
1.9881736
1.9885147
1.9889098
1.989371
1.989913
1.9905548
1.9913213
1.9922456
1.9933721
1.9947596
1.9964847
1.9986436
2.0013514
2.0047362
2.0089239
2.014021
2.0200874
2.0271258
2.0351024
2.0438834
2.0532862
2.0634218
2.074294
2.0854787
2.0968976
2.1085381
2.1202355
2.1318725
2.1433385
2.1545356
2.1653965
2.1758686
2.1859517
2.1956346
2.2049927
2.2140031
2.2228304
2.2313365
2.2398519
2.2479318
2.2562937
2.2638041
2.2721164
2.2785881
2.2870613
2.2914862
2.3008442
2.3008421
2.3135323
1.9710789
1.9711351
1.9711977
1.9712643
1.9713404
1.9714269
1.9715245
1.9716347
1.9717595
1.9719014
1.9720643
1.972254
1.9724767
1.9727322
1.9730144
1.9733272
1.9736837
1.9740954
1.9745732
1.9751314
1.9757891
1.9765722
1.9775153
1.9786651
1.9800844
1.9818558
1.9840843
1.9868977
1.9904412
1.9948641
2.0002936
2.0068214
2.0144677
2.0231921
2.0328331
2.043211
2.054397
2.0663066
2.0785671
2.0910912
2.1038758
2.1167611
2.1296318
2.1423676
2.154854
2.1669872
2.1786916
2.1899047
2.2006149
2.2107996
2.2205268
2.229767
2.2386883
2.2471584
2.2555259
2.2633624
2.2714155
2.2785749
2.2865289
2.2926837
2.3008554
2.3052197
2.3143744
2.3150129
2.3284075
1.9534772
1.9535439
1.953629
1.9537219
1.9538253
1.9539413
1.9540706
1.9542139
1.9543728
1.9545504
1.9547498
1.9549743
1.9552274
1.955514
1.9558396
1.9562117
1.9566396
1.9571356
1.9577157
1.9584013
1.9592214
1.9602149
1.9614344
1.9629497
1.9648517
1.9672551
1.9702981
1.9741363
1.9789304
1.9848211
1.9919061
2.0002291
2.009719
2.0202885
2.0317209
2.0440998
2.0572156
2.0706667
2.0844051
2.0984324
2.1125854
2.1267532
2.140812
2.1546357
2.1681059
2.1811168
2.1935876
2.2054527
2.2166933
2.2272836
2.2372843
2.2466711
2.2556127
2.2639898
2.2721641
2.2797287
2.2874531
2.2942606
2.3018505
2.3077075
2.3155556
2.319936
2.32862
2.3308163
2.3409534
1.9350146
1.9350999
1.9352042
1.9353121
1.9354312
1.9355639
1.9357117
1.9358762
1.9360597
1.9362648
1.9364948
1.9367534
1.9370455
1.9373773
1.9377567
1.9381942
1.9387033
1.9393027
1.9400172
1.9408802
1.9419369
1.9432478
1.9448923
1.9469725
1.9496156
1.9529722
1.9572101
1.9624989
1.9689873
1.9767743
1.9859069
1.9962945
2.0078472
2.0204015
2.033878
2.0480787
2.0626287
2.0775518
2.0928251
2.1082672
2.1237563
2.1391588
2.1543381
2.169162
2.1835092
2.1972723
2.2103709
2.2227398
2.2343596
2.2452067
2.2553418
2.2647499
2.2736006
2.2817993
2.2897028
2.2969535
2.3042991
2.3107542
2.3179447
2.3235392
2.3310428
2.3354126
2.3438191
2.3464068
2.356098
1.9179939
1.9180897
1.9182065
1.918327
1.9184596
1.9186069
1.9187706
1.9189524
1.919155
1.9193814
1.9196355
1.9199222
1.9202481
1.9206213
1.9210532
1.9215587
1.9221579
1.9228783
1.9237565
1.9248419
1.9262002
1.9279169
1.9301015
1.9328891
1.9364395
1.940931
1.9465456
1.9534474
1.9617535
1.9715181
1.9826873
1.9951466
2.0088606
2.0233606
2.0385872
2.0542433
2.0703864
2.0869121
2.1036247
2.1204066
2.1371158
2.1536099
2.1697489
2.1853985
2.2004385
2.214765
2.2283009
2.2409865
2.2528048
2.2637409
2.2738565
2.2831535
2.2918005
2.2997344
2.3072968
2.3141936
2.3211233
2.3272299
2.3339956
2.3393799
2.3464784
2.350992
2.3589163
2.3625332
2.371196
1.9055152
1.9056162
1.9057391
1.9058658
1.9060048
1.9061591
1.9063303
1.9065206
1.906733
1.9069713
1.9072404
1.9075467
1.9078989
1.9083086
1.9087913
1.9093684
1.9100685
1.91093
1.9120047
1.9133607
1.9150863
1.9172939
1.9201222
1.9237349
1.9283158
1.9340559
1.9411323
1.9496823
1.9597764
1.9713942
1.9844283
1.9988926
2.014133
2.0301084
2.0468187
2.0640892
2.0817284
2.0995893
2.1175435
2.1354458
2.1531498
2.1705075
2.1873753
2.2036194
2.2191226
2.2337864
2.247539
2.2603289
2.2721453
2.2829857
2.2929138
2.3019542
2.3102704
2.3178393
2.3249767
2.3314657
2.3379303
2.3436726
2.3499869
2.3551637
2.3618496
2.3664574
2.3739846
2.3780549
2.3863731
1.8994103
1.8995115
1.8996343
1.8997609
1.8998996
1.9000537
1.9002248
1.9004156
1.9006297
1.9008718
1.9011482
1.9014673
1.9018408
1.9022843
1.902819
1.9034737
1.9042871
1.9053108
1.9066125
1.9082801
1.9104249
1.9131838
1.91672
1.9212173
1.9268708
1.9338682
1.9423654
1.9524591
1.9641619
1.9773919
1.9921009
2.0078084
2.0242922
2.0418231
2.0599134
2.0784072
2.0971838
2.1160969
2.1349972
2.1537318
2.172145
2.1900833
2.2074017
2.2239689
2.2396726
2.254421
2.2681482
2.2808142
2.2924158
2.3029638
2.3125325
2.3211648
2.3290216
2.3361189
2.3427446
2.3487616
2.3547105
2.3600603
2.3658992
2.3708643
2.3771388
2.3818624
2.3890139
2.3937439
2.4017379
1.9019682
1.9020647
1.9021804
1.902301
1.9024333
1.9025803
1.9027441
1.9029279
1.903136
1.9033742
1.9036506
1.9039759
1.9043652
1.9048387
1.9054238
1.9061576
1.9070893
1.9082836
1.9098243
1.9118175
1.9143943
1.9177114
1.9219479
1.9272976
1.9339536
1.9420869
1.9518199
1.9632023
1.9761924
1.990688
2.0064509
2.0232043
2.0410338
2.059494
2.0784618
2.0977891
2.1173231