/*--------------------------------*- C++ -*----------------------------------*\
  =========                 |
  \\      /  F ield         | OpenFOAM: The Open Source CFD Toolbox
   \\    /   O peration     | Website:  https://openfoam.org
    \\  /    A nd           | Version:  13
     \\/     M anipulation  |
\*---------------------------------------------------------------------------*/
FoamFile
{
    format      ascii;
    class       surfaceScalarField;
    location    "0.05";
    object      phi;
}
// * * * * * * * * * * * * * * * * * * * * * * * * * * * * * * * * * * * * * //

dimensions      [1 0 -1 0 0 0 0];

internalField   nonuniform List<scalar> 
999
(
24.0632
24.1856
24.3078
24.4301
24.5523
24.6744
24.7965
24.9185
25.0405
25.1624
25.2843
25.4061
25.5279
25.6496
25.7713
25.8929
26.0144
26.1359
26.2574
26.3788
26.5002
26.6214
26.7427
26.8639
26.985
27.1061
27.2271
27.348
27.4689
27.5898
27.7106
27.8313
27.952
28.0726
28.1932
28.3137
28.4341
28.5545
28.6748
28.7951
28.9153
29.0355
29.1556
29.2756
29.3956
29.5155
29.6353
29.7551
29.8749
29.9945
30.1142
30.2337
30.3532
30.4726
30.592
30.7113
30.8306
30.9497
31.0689
31.1879
31.3069
31.4259
31.5447
31.6636
31.7823
31.901
32.0196
32.1382
32.2567
32.3751
32.4935
32.6118
32.7301
32.8483
32.9664
33.0845
33.2025
33.3204
33.4383
33.5561
33.6739
33.7916
33.9092
34.0268
34.1443
34.2618
34.3792
34.4965
34.6138
34.731
34.8482
34.9653
35.0823
35.1993
35.3163
35.4331
35.55
35.6668
35.7835
35.9002
36.0168
36.1333
36.2498
36.3662
36.4826
36.5989
36.7151
36.8313
36.9474
37.0634
37.1794
37.2953
37.4111
37.5269
37.6426
37.7582
37.8738
37.9893
38.1048
38.2201
38.3355
38.4508
38.566
38.6811
38.7962
38.9113
39.0263
39.1412
39.2561
39.3709
39.4857
39.6004
39.7151
39.8297
39.9443
40.0588
40.1732
40.2876
40.402
40.5163
40.6306
40.7448
40.8589
40.973
41.0871
41.201
41.315
41.4289
41.5427
41.6564
41.7701
41.8838
41.9974
42.1109
42.2244
42.3378
42.4512
42.5645
42.6777
42.7909
42.904
43.0171
43.1301
43.243
43.3559
43.4687
43.5814
43.6941
43.8067
43.9193
44.0318
44.1442
44.2565
44.3688
44.4811
44.5932
44.7053
44.8174
44.9294
45.0413
45.1531
45.2649
45.3766
45.4883
45.5999
45.7114
45.8228
45.9342
46.0456
46.1568
46.268
46.3792
46.4902
46.6012
46.7122
46.8231
46.9339
47.0446
47.1553
47.266
47.3765
47.487
47.5975
47.7078
47.8182
47.9284
48.0386
48.1487
48.2588
48.3688
48.4787
48.5886
48.6984
48.8082
48.9179
49.0275
49.1371
49.2466
49.3561
49.4655
49.5748
49.6841
49.7933
49.9024
50.0115
50.1206
50.2295
50.3385
50.4473
50.5561
50.6649
50.7735
50.8822
50.9907
51.0993
51.2077
51.3161
51.4244
51.5327
51.6409
51.7491
51.8572
51.9653
52.0733
52.1812
52.2891
52.397
52.5047
52.6125
52.7201
52.8277
52.9353
53.0428
53.1502
53.2576
53.365
53.4723
53.5795
53.6867
53.7938
53.9009
54.0079
54.1149
54.2218
54.3287
54.4355
54.5422
54.6489
54.7556
54.8622
54.9688
55.0753
55.1817
55.2881
55.3945
55.5008
55.607
55.7132
55.8194
55.9255
56.0316
56.1376
56.2435
56.3494
56.4553
56.5611
56.6669
56.7726
56.8783
56.9839
57.0895
57.195
57.3005
57.4059
57.5113
57.6166
57.7219
57.8272
57.9324
58.0375
58.1426
58.2477
58.3527
58.4577
58.5626
58.6675
58.7724
58.8772
58.9819
59.0866
59.1913
59.2959
59.4005
59.505
59.6095
59.714
59.8184
59.9227
60.0271
60.1313
60.2356
60.3398
60.4439
60.548
60.6521
60.7561
60.8601
60.9641
61.068
61.1718
61.2757
61.3794
61.4832
61.5869
61.6905
61.7942
61.8977
62.0013
62.1048
62.2083
62.3117
62.4151
62.5184
62.6217
62.725
62.8282
62.9314
63.0346
63.1377
63.2408
63.3438
63.4468
63.5498
63.6527
63.7556
63.8584
63.9612
64.064
64.1668
64.2695
64.3721
64.4748
64.5774
64.6799
64.7824
64.8849
64.9874
65.0898
65.1922
65.2945
65.3968
65.4991
65.6013
65.7036
65.8057
65.9079
66.01
66.112
66.2141
66.316
66.418
66.5199
66.6218
66.7237
66.8255
66.9273
67.0291
67.1308
67.2325
67.3341
67.4358
67.5374
67.6389
67.7405
67.842
67.9434
68.0449
68.1463
68.2476
68.349
68.4503
68.5515
68.6528
68.754
68.8552
68.9563
69.0574
69.1585
69.2596
69.3606
69.4616
69.5626
69.6635
69.7644
69.8653
69.9661
70.067
70.1678
70.2685
70.3693
70.47
70.5706
70.6713
70.7719
70.8725
70.9731
71.0736
71.1741
71.2746
71.3751
71.4755
71.5759
71.6763
71.7767
71.877
71.9773
72.0776
72.1779
72.2781
72.3783
72.4785
72.5787
72.6788
72.779
72.8791
72.9791
73.0792
73.1792
73.2793
73.3793
73.4792
73.5792
73.6792
73.7791
73.879
73.9789
74.0787
74.1786
74.2784
74.3783
74.4781
74.5779
74.6776
74.7774
74.8772
74.9769
75.0766
75.1764
75.2761
75.3758
75.4755
75.5751
75.6748
75.7745
75.8741
75.9738
76.0734
76.1731
76.2727
76.3723
76.472
76.5716
76.6712
76.7709
76.8705
76.9701
77.0698
77.1694
77.269
77.3687
77.4683
77.568
77.6677
77.7673
77.867
77.9667
78.0664
78.1662
78.2659
78.3657
78.4654
78.5652
78.665
78.7648
78.8647
78.9646
79.0644
79.1644
79.2643
79.3643
79.4643
79.5643
79.6644
79.7645
79.8646
79.9648
80.065
80.1652
80.2655
80.3658
80.4662
80.5666
80.6671
80.7676
80.8681
80.9687
81.0694
81.1701
81.2709
81.3717
81.4726
81.5736
81.6746
81.7757
81.8768
81.9781
82.0794
82.1807
82.2822
82.3837
82.4853
82.587
82.6888
82.7907
82.8926
82.9947
83.0968
83.199
83.3014
83.4038
83.5064
83.609
83.7118
83.8146
83.9176
84.0207
84.1239
84.2272
84.3307
84.4343
84.538
84.6419
84.7458
84.85
84.9542
85.0586
85.1632
85.2679
85.3727
85.4777
85.5829
85.6882
85.7937
85.8994
86.0052
86.1112
86.2174
86.3238
86.4303
86.537
86.644
86.7511
86.8584
86.9659
87.0736
87.1816
87.2897
87.398
87.5066
87.6154
87.7244
87.8337
87.9431
88.0528
88.1628
88.273
88.3834
88.4941
88.6051
88.7163
88.8277
88.9395
89.0515
89.1637
89.2763
89.3891
89.5022
89.6156
89.7293
89.8433
89.9576
90.0722
90.1871
90.3024
90.4179
90.5337
90.6499
90.7664
90.8833
91.0004
91.1179
91.2358
91.354
91.4726
91.5915
91.7107
91.8304
91.9504
92.0707
92.1915
92.3126
92.4341
92.556
92.6783
92.8009
92.924
93.0475
93.1713
93.2956
93.4203
93.5454
93.6709
93.7969
93.9233
94.0501
94.1773
94.305
94.4331
94.5616
94.6906
94.8201
94.95
95.0803
95.2111
95.3424
95.4741
95.6063
95.739
95.8721
96.0058
96.1399
96.2744
96.4095
96.5451
96.6811
96.8176
96.9546
97.0921
97.2302
97.3687
97.5077
97.6472
97.7872
97.9277
98.0688
98.2103
98.3524
98.4949
98.638
98.7816
98.9258
99.0704
99.2156
99.3612
99.5074
99.6542
99.8014
99.9492
100.097
100.246
100.396
100.546
100.696
100.847
100.998
101.15
101.303
101.456
101.61
101.764
101.918
102.073
102.229
102.385
102.542
102.699
102.857
103.015
103.174
103.334
103.494
103.654
103.815
103.976
104.138
104.301
104.464
104.627
104.791
104.956
105.121
105.286
105.452
105.619
105.786
105.954
106.122
106.29
106.459
106.629
106.799
106.969
107.14
107.312
107.484
107.656
107.829
108.002
108.176
108.351
108.525
108.701
108.876
109.053
109.229
109.406
109.584
109.762
109.94
110.119
110.298
110.478
110.658
110.839
111.02
111.201
111.383
111.565
111.748
111.931
112.114
112.298
112.482
112.667
112.852
113.038
113.224
113.41
113.596
113.783
113.971
114.158
114.347
114.535
114.724
114.913
115.103
115.292
115.483
115.673
115.864
116.055
116.247
116.439
116.631
116.824
117.017
117.21
117.403
117.597
117.791
117.986
118.181
118.376
118.571
118.767
118.963
119.159
119.355
119.552
119.749
119.947
120.144
120.342
120.54
120.739
120.937
121.136
121.335
121.535
121.734
121.934
122.134
122.335
122.535
122.736
122.937
123.139
123.34
123.542
123.744
123.946
124.149
124.351
124.554
124.757
124.96
125.164
125.368
125.571
125.775
125.98
126.184
126.389
126.593
126.798
127.003
127.209
127.414
127.62
127.826
128.032
128.238
128.444
128.651
128.857
129.064
129.271
129.478
129.685
129.893
130.1
130.308
130.516
130.724
130.932
131.14
131.349
131.557
131.766
131.974
132.183
132.392
132.601
132.811
133.02
133.23
133.439
133.649
133.859
134.069
134.279
134.489
134.699
134.909
135.12
135.33
135.541
135.752
135.963
136.174
136.385
136.596
136.807
137.018
137.23
137.441
137.653
137.864
138.076
138.288
138.5
138.712
138.924
139.136
139.348
139.56
139.772
139.985
140.197
140.41
140.622
140.835
141.048
141.26
141.473
141.686
141.899
142.112
142.325
142.538
142.752
142.965
143.178
143.391
143.605
143.818
144.032
144.245
144.459
144.673
144.886
145.1
145.314
145.527
145.741
145.955
146.169
146.383
146.597
146.811
147.025
147.239
147.454
147.668
147.882
148.096
148.311
148.525
148.739
148.954
149.168
149.383
149.597
149.812
150.026
150.241
150.455
150.67
150.885
151.099
151.314
151.529
151.743
151.958
152.173
152.388
152.603
152.817
153.032
153.247
153.462
153.677
153.892
154.107
154.322
154.537
154.752
154.967
155.182
155.397
155.612
155.827
156.042
156.257
156.473
156.688
156.903
157.118
157.333
157.549
157.764
157.979
158.194
158.409
158.625
158.84
159.055
159.271
159.486
159.701
159.917
160.132
160.347
160.563
160.778
160.993
161.209
161.424
)
;

boundaryField
{
    sides
    {
        type            calculated;
        value           nonuniform List<scalar> 2(161.639 -23.9409);
    }
    empty
    {
        type            empty;
    }
}


// ************************************************************************* //
