/*--------------------------------*- C++ -*----------------------------------*\
  =========                 |
  \\      /  F ield         | OpenFOAM: The Open Source CFD Toolbox
   \\    /   O peration     | Website:  https://openfoam.org
    \\  /    A nd           | Version:  13
     \\/     M anipulation  |
\*---------------------------------------------------------------------------*/
FoamFile
{
    format      ascii;
    class       volScalarField;
    location    "11.801748";
    object      pMean;
}
// * * * * * * * * * * * * * * * * * * * * * * * * * * * * * * * * * * * * * //

dimensions      [0 2 -2 0 0 0 0];

internalField   nonuniform List<scalar> 
17140
(
3.9869797
3.9868053
3.9865944
3.9863803
3.9861489
3.985897
3.9856241
3.9853298
3.9850135
3.9846747
3.9843133
3.9839287
3.9835207
3.9830883
3.9826296
3.9821414
3.9816173
3.9810472
3.9804154
3.9796984
3.978863
3.977863
3.9766376
3.9751072
3.9731699
3.9707108
3.9676445
3.9639045
3.9593519
3.9537768
3.9469682
3.9387065
3.9287444
3.9168147
3.9026331
3.8859063
3.866345
3.8436889
3.8177429
3.7884316
3.755872
3.720462
3.6829935
3.6447522
3.6075434
3.57373
3.5459573
3.5266737
3.5182209
3.5224408
3.5403051
3.5722188
3.618022
3.676414
3.7454074
3.8214735
3.8993864
3.9726217
4.0339223
4.0737588
4.0884998
4.0774512
4.0494484
4.0084533
3.9659455
3.9840869
3.9839162
3.9837102
3.9835007
3.9832742
3.9830275
3.9827602
3.982472
3.9821622
3.9818303
3.9814762
3.9810996
3.9807001
3.9802768
3.9798281
3.9793505
3.9788383
3.9782813
3.9776642
3.9769639
3.9761471
3.9751684
3.9739668
3.9724635
3.9705567
3.9681303
3.9650965
3.9613888
3.9568708
3.951332
3.9445598
3.9363335
3.9264048
3.9145048
3.9003475
3.8836373
3.8640825
3.8414197
3.8154511
3.7860979
3.7534749
3.7179793
3.680403
3.6420334
3.6046953
3.5707422
3.5427983
3.5234202
3.5149202
3.5190592
3.5368539
3.5687081
3.6144064
3.6727607
3.7417165
3.8176791
3.8956246
3.9690469
4.0307304
4.0710586
4.0862982
4.0757221
4.0481221
4.0074664
3.9653476
3.9772022
3.9770407
3.9768461
3.9766474
3.9764325
3.9761982
3.9759444
3.9756706
3.9753761
3.9750607
3.9747241
3.9743661
3.9739865
3.9735846
3.973159
3.9727068
3.9722222
3.9716958
3.971113
3.9704511
3.9696778
3.9687483
3.9676025
3.9661623
3.9643269
3.961978
3.9590212
3.9553899
3.9509531
3.9455006
3.9388154
3.9306743
3.9208264
3.9089992
3.8949025
3.8782355
3.8587006
3.8360278
3.8100121
3.7805681
3.747805
3.7121184
3.6743036
3.6356566
3.5980321
3.5638032
3.5355852
3.5159722
3.5073078
3.5113268
3.5290008
3.560694
3.6062082
3.6644357
3.733314
3.8092143
3.8872524
3.9610649
4.0235283
4.0648466
4.0810966
4.0714781
4.0447744
4.0049495
3.9635646
3.9664668
3.9663196
3.9661429
3.9659612
3.9657645
3.96555
3.9653174
3.9650662
3.9647959
3.9645062
3.9641971
3.9638684
3.9635201
3.9631518
3.9627624
3.9623492
3.9619074
3.9614285
3.9608982
3.9602954
3.9595888
3.9587348
3.9576744
3.9563306
3.9546045
3.9523754
3.9495394
3.946026
3.9417137
3.936395
3.9298463
3.9218394
3.9121197
3.9004093
3.8864115
3.8698178
3.8503216
3.827643
3.8015664
3.7719961
3.7390337
3.7030732
3.6649147
3.6258705
3.5878349
3.5532021
3.5246077
3.5047003
3.4958173
3.4996721
3.5172016
3.548721
3.5940265
3.6520725
3.7207834
3.7965351
3.8746276
3.9489069
4.012384
4.0550441
4.0727283
4.0645686
4.039317
4.0009216
3.9608393
3.9522397
3.9521117
3.9519588
3.9518
3.9516277
3.9514397
3.9512356
3.9510148
3.950777
3.950522
3.9502498
3.9499604
3.9496539
3.9493303
3.9489888
3.9486275
3.9482421
3.947825
3.9473634
3.9468373
3.9462172
3.9454607
3.9445106
3.9432916
3.941707
3.9396362
3.9369621
3.9336035
3.9294518
3.9243094
3.9179421
3.9101148
3.9005682
3.8890177
3.8751582
3.8586712
3.8392392
3.8165696
3.7904332
3.7607223
3.7275285
3.6912444
3.6526783
3.6131674
3.5746545
3.5395558
3.5105445
3.4903144
3.4812118
3.4849265
3.5023325
3.53369
3.5788018
3.6366745
3.7052202
3.7808105
3.8589243
3.9336935
3.9982919
4.0424681
4.0618441
4.055489
4.0321754
3.9957247
3.9573936
3.9351068
3.9350022
3.9348782
3.9347475
3.9346053
3.9344498
3.9342806
3.9340973
3.9338994
3.933687
3.9334601
3.9332188
3.9329635
3.9326944
3.9324111
3.9321122
3.9317943
3.9314508
3.9310703
3.9306344
3.9301152
3.9294726
3.9286512
3.9275778
3.9261581
3.9242744
3.9217966
3.9186239
3.91466
3.9097257
3.9035772
3.8959678
3.886634
3.8752831
3.8616006
3.8452571
3.825922
3.8032885
3.7771124
3.7472713
3.7138469
3.6772302
3.6382404
3.5982477
3.5592459
3.5236801
3.4942712
3.4737419
3.4644563
3.4680798
3.4854154
3.5166592
3.5616195
3.6193416
3.6877168
3.7631173
3.8412128
3.9164387
3.9821071
4.0278296
4.0490605
4.044802
4.0238637
3.9898198
3.953647
3.915856
3.915778
3.9156855
3.9155871
3.9154795
3.9153614
3.9152325
3.9150923
3.9149407
3.9147774
3.9146027
3.9144169
3.9142203
3.9140134
3.9137963
3.9135678
3.9133254
3.9130636
3.9127722
3.9124345
3.9120247
3.9115048
3.9108219
3.9099051
3.9086629
3.9069813
3.9047236
3.901765
3.8980065
3.8932949
3.8873895
3.8800273
3.8709377
3.8598206
3.8463516
3.8301898
3.8109914
3.7884345
3.7622589
3.7323273
3.6987107
3.6617993
3.622426
3.5820002
3.54256
3.506584
3.4768329
3.4560432
3.4466077
3.4501756
3.4674877
3.4986847
3.543572
3.6012138
3.669473
3.7447211
3.8228058
3.8984555
3.9650701
4.0122607
4.0352626
4.0332533
4.0149751
3.9836121
3.9498416
3.8954342
3.8953848
3.8953259
3.8952627
3.895193
3.8951159
3.895031
3.8949382
3.8948373
3.894728
3.8946106
3.8944856
3.8943533
3.8942142
3.8940685
3.8939156
3.8937534
3.8935773
3.8933783
3.8931413
3.8928423
3.8924458
3.8919016
3.8911415
3.8900769
3.8885972
3.8865686
3.8838444
3.8803009
3.8758092
3.8701538
3.8630561
3.8542318
3.8433753
3.8301528
3.8142123
3.7951972
3.772771
3.7466581
3.7167066
3.6829774
3.64586
3.6062038
3.5654576
3.5256851
3.489401
3.4593795
3.4383494
3.4287595
3.4322743
3.4495936
3.480784
3.5256521
3.5832914
3.6515175
3.7267074
3.804852
3.8808534
3.9481741
3.9964127
4.0211526
4.0214815
4.0060035
3.9774439
3.9462074
3.8748845
3.8748648
3.8748406
3.874814
3.8747837
3.8747494
3.8747108
3.8746676
3.8746197
3.8745671
3.8745101
3.8744489
3.8743838
3.8743154
3.874244
3.8741688
3.8740883
3.8739982
3.8738905
3.8737512
3.8735585
3.8732788
3.8728647
3.872251
3.8713522
3.870061
3.8682473
3.865761
3.8624471
3.8581648
3.8527399
3.8459086
3.8373605
3.826782
3.8138341
3.7981552
3.7793775
3.7571517
3.7311885
3.7013228
3.6676067
3.6304297
3.5906569
3.5497683
3.5098349
3.4733904
3.4431833
3.4219365
3.4121811
3.4156198
3.4329103
3.4640846
3.5089903
3.566695
3.6349296
3.7100601
3.7882105
3.8643856
3.9320417
3.9812852
4.0076415
4.0099751
3.9973295
3.9715264
3.942827
3.8552702
3.8552797
3.8552899
3.8552994
3.8553082
3.8553164
3.8553239
3.8553303
3.8553357
3.8553401
3.8553437
3.8553467
3.8553494
3.8553521
3.8553546
3.8553566
3.855356
3.855349
3.8553279
3.8552798
3.8551839
3.8550088
3.8547093
3.8542232
3.8534685
3.8523412
3.8507149
3.8484416
3.8453574
3.8412923
3.8360706
3.8294721
3.8212002
3.8109167
3.7982713
3.7828974
3.7644203
3.7424816
3.7167824
3.6871475
3.6536222
3.616597
3.5769488
3.5361694
3.4963258
3.4599391
3.4296963
3.4083325
3.3984413
3.4017645
3.4190008
3.4502098
3.495197
3.5529555
3.6211694
3.6962145
3.7744006
3.8507968
3.9187602
3.9682443
3.9951085
3.999157
3.9892119
3.9660136
3.9397798
3.8375753
3.8376118
3.837654
3.8376973
3.8377428
3.8377911
3.8378421
3.8378956
3.8379519
3.8380109
3.8380728
3.8381376
3.8382056
3.8382767
3.8383506
3.8384264
3.8385019
3.8385729
3.8386318
3.8386661
3.8386559
3.838571
3.8383684
3.8379882
3.8373517
3.8363584
3.8348855
3.8327878
3.8299012
3.8260478
3.8210374
3.8146513
3.8066217
3.7966277
3.7843116
3.7692948
3.7511975
3.7296576
3.7043709
3.6751573
3.6420596
3.6054693
3.5662702
3.5259404
3.4865346
3.4505223
3.4205171
3.3992454
3.389315
3.3925598
3.4097329
3.4408061
3.4856513
3.5432714
3.6112829
3.6861307
3.7641804
3.8403221
3.9075478
3.9565044
3.9835551
3.9893466
3.9817981
3.9609845
3.9370981
3.8226188
3.8226788
3.8227487
3.8228215
3.8228992
3.8229829
3.8230724
3.823168
3.8232699
3.8233781
3.8234928
3.8236141
3.823742
3.8238761
3.8240158
3.8241598
3.8243054
3.824448
3.8245795
3.8246875
3.8247521
3.8247445
3.8246224
3.8243287
3.8237868
3.8228996
3.8215478
3.8195903
3.8168646
3.8131913
3.8083778
3.8022064
3.7944228
3.7847206
3.7727528
3.758146
3.7405218
3.7195169
3.6948274
3.6662741
3.6339006
3.5980982
3.5597448
3.520286
3.4817385
3.4464945
3.4170872
3.3961951
3.3864336
3.3895807
3.406315
3.4368722
3.4812028
3.5382923
3.6057041
3.6799303
3.7573574
3.8325299
3.8982914
3.946518
3.9735768
3.9806362
3.9751784
3.9565107
3.9348482
3.8109609
3.8110392
3.8111308
3.8112269
3.8113302
3.8114422
3.811563
3.811693
3.8118324
3.8119816
3.8121408
3.8123101
3.8124894
3.8126782
3.8128758
3.8130803
3.8132886
3.8134957
3.8136932
3.8138683
3.8140012
3.8140635
3.8140143
3.8137973
3.8133382
3.8125426
3.8112938
3.8094547
3.8068678
3.8033543
3.7987193
3.7927578
3.7852276
3.7758406
3.7642727
3.7501547
3.7331162
3.7128028
3.6889254
3.6613091
3.6300006
3.5953839
3.5583121
3.5201879
3.4829503
3.4488859
3.4204395
3.4002541
3.3906936
3.3934702
3.4094568
3.4392042
3.4826753
3.538797
3.6051628
3.6783635
3.7547645
3.8284764
3.8922975
3.9385943
3.9651089
3.9730476
3.9694057
3.9526414
3.9330742
3.8028546
3.802945
3.803051
3.8031628
3.8032836
3.8034152
3.8035579
3.8037123
3.8038789
3.8040582
3.8042506
3.8044564
3.8046756
3.8049078
3.8051521
3.8054065
3.8056679
3.805931
3.8061875
3.8064243
3.8066223
3.8067532
3.8067774
3.8066403
3.8062691
3.8055708
3.8044311
3.8027152
3.80027
3.7969258
3.792502
3.7867348
3.7794933
3.7704727
3.7593551
3.7458096
3.7295016
3.7100789
3.6872595
3.6608842
3.6310042
3.5979877
3.5626466
3.5263109
3.4907966
3.4582623
3.4311157
3.4116774
3.4021851
3.4043928
3.4194704
3.4480743
3.4902966
3.5449983
3.609866
3.6816192
3.7563072
3.8276147
3.8884368
3.93228
3.9580705
3.9666146
3.9645244
3.9494374
3.9318526
3.7982043
3.7982997
3.7984122
3.7985311
3.7986602
3.7988015
3.7989554
3.7991228
3.7993045
3.7995012
3.7997135
3.799942
3.800187
3.8004483
3.8007253
3.8010165
3.8013189
3.8016276
3.8019348
3.8022283
3.8024899
3.802693
3.8027997
3.802758
3.8024979
3.801929
3.8009398
3.799397
3.7971488
3.7940226
3.7898418
3.7844781
3.7775761
3.7688701
3.7583234
3.745502
3.7300636
3.7117087
3.6901942
3.6653682
3.6372742
3.6062541
3.5730564
3.5388877
3.5054128
3.4747174
3.4488736
3.4300908
3.4205552
3.4220416
3.4359448
3.4631599
3.5037619
3.5566116
3.619554
3.6893236
3.7615557
3.829602
3.8867509
3.9277034
3.9524883
3.9613472
3.9605718
3.9469502
3.9312325
3.7966329
3.7967268
3.7968384
3.7969559
3.7970842
3.7972252
3.7973794
3.7975481
3.7977321
3.7979325
3.7981502
3.7983862
3.7986411
3.7989152
3.7992084
3.79952
3.7998478
3.8001878
3.8005338
3.8008752
3.8011962
3.8014731
3.8016718
3.8017448
3.8016266
3.8012312
3.8004506
3.7991523
3.7971841
3.7943778
3.7905582
3.7855481
3.7790645
3.7711048
3.7612069
3.7491047
3.7347267
3.7177078
3.6977897
3.6748246
3.6488539
3.620178
3.5894424
3.5577098
3.5265423
3.4976632
3.4730367
3.4548197
3.4450268
3.4456399
3.4582399
3.4838285
3.5224871
3.5731421
3.6337953
3.7010058
3.7699448
3.8336744
3.8867592
3.924575
3.9482606
3.957251
3.9575827
3.9452379
3.9312828
3.7974927
3.7975795
3.7976835
3.7977924
3.7979117
3.7980434
3.7981883
3.7983475
3.7985221
3.7987135
3.7989227
3.7991512
3.7994
3.79967
3.7999618
3.8002756
3.8006102
3.8009635
3.8013309
3.8017047
3.8020728
3.8024157
3.802705
3.8029
3.8029436
3.8027584
3.8022425
3.8012701
3.7996921
3.7973385
3.7940297
3.7895687
3.7838225
3.7765478
3.7674629
3.756619
3.7435332
3.7279973
3.7098938
3.6890566
3.6654902
3.6394162
3.6113578
3.582273
3.5533686
3.5262207
3.5027314
3.4848129
3.4746286
3.4742576
3.4854328
3.5092008
3.5456446
3.5938645
3.6519181
3.7159727
3.7806068
3.8396199
3.8880631
3.9229482
3.9453798
3.9543374
3.9555877
3.944346
3.9320471
3.8000763
3.8001516
3.8002427
3.8003375
3.8004418
3.8005573
3.8006851
3.8008262
3.8009819
3.8011536
3.8013427
3.8015507
3.8017792
3.8020295
3.802303
3.8026007
3.8029229
3.8032691
3.8036373
3.8040228
3.804418
3.8048093
3.8051761
3.805487
3.8056969
3.8057417
3.8055355
3.8049657
3.8038919
3.8021488
3.7995543
3.7959095
3.791043
3.7847577
3.7769304
3.7672839
3.7556813
3.7420527
3.7260497
3.7075894
3.6866452
3.6633464
3.6381256
3.6116351
3.5849048
3.559405
3.5367519
3.5189673
3.5082569
3.506836
3.5164627
3.5382181
3.5723352
3.6180717
3.673218
3.7331905
3.792892
3.8466232
3.8907004
3.9225903
3.943814
3.952603
3.9546125
3.9443171
3.9335809
3.803634
3.8036955
3.8037703
3.803848
3.8039336
3.8040291
3.8041351
3.8042528
3.8043834
3.8045284
3.8046892
3.8048676
3.8050651
3.8052836
3.805525
3.805791
3.8060832
3.8064024
3.806749
3.8071216
3.8075166
3.8079269
3.8083399
3.8087353
3.8090819
3.8093341
3.8094262
3.8092683
3.8087437
3.8077056
3.8059818
3.8033796
3.7997065
3.7947571
3.7883826
3.7804234
3.7707809
3.75918
3.7455368
3.729708
3.7115532
3.6911652
3.6687357
3.6447439
3.6200809
3.5959033
3.5738698
3.5559974
3.5446156
3.5420463
3.5500003
3.5696969
3.601555
3.6447836
3.6966091
3.751939
3.8062931
3.854303
3.8944153
3.9235264
3.9435344
3.9520419
3.9546771
3.9451859
3.9359202
3.8075668
3.8076141
3.8076717
3.8077315
3.8077978
3.807872
3.8079548
3.8080472
3.8081504
3.8082657
3.8083944
3.8085384
3.8086992
3.8088788
3.8090793
3.8093031
3.8095521
3.8098286
3.8101346
3.8104711
3.8108382
3.8112339
3.8116534
3.8120865
3.8125164
3.812916
3.8132443
3.8134415
3.8134247
3.8130831
3.8122773
3.8108395
3.8085854
3.8053162
3.8008541
3.7949998
3.7875736
3.778458
3.7675031
3.7544747
3.7392692
3.7217813
3.7020609
3.6804375
3.6574927
3.6343547
3.6126462
3.5945243
3.5823492
3.5785241
3.5848519
3.6027687
3.6327376
3.6735366
3.7213377
3.7715576
3.8199472
3.8629728
3.8990834
3.9256868
3.9444985
3.9526399
3.9557913
3.9469839
3.939108
3.8114224
3.8114563
3.8114972
3.8115406
3.8115889
3.8116432
3.811704
3.8117723
3.811849
3.8119353
3.8120322
3.8121415
3.8122647
3.8124035
3.8125602
3.8127371
3.8129366
3.8131613
3.8134143
3.813698
3.8140151
3.8143672
3.8147546
3.8151756
3.8156259
3.8160954
3.8165653
3.817006
3.8173724
3.8176006
3.8176022
3.8172594
3.8164261
3.8149281
3.8125754
3.8091597
3.8044698
3.7982817
3.7903591
3.7804819
3.7683724
3.7537996
3.7366916
3.7171073
3.6955724
3.6731588
3.6515672
3.633048
3.6200504
3.6151708
3.6203658
3.6371325
3.6654889
3.7032798
3.7465422
3.7913037
3.8338335
3.872254
3.9048039
3.9290521
3.9466793
3.9543859
3.9579595
3.9497306
3.9431732
3.8149633
3.814986
3.8150131
3.8150425
3.8150753
3.8151123
3.815154
3.8152011
3.8152544
3.815315
3.8153842
3.8154627
3.8155515
3.8156522
3.8157663
3.8158958
3.8160435
3.8162124
3.8164057
3.8166269
3.8168795
3.8171676
3.8174954
3.8178668
3.8182852
3.8187525
3.819268
3.8198271
3.8204198
3.8210283
3.8216195
3.8221401
3.8225127
3.8226247
3.8223212
3.821397
3.8195979
3.8166197
3.812105
3.8056481
3.7968192
3.7852298
3.7705465
3.7527716
3.7324047
3.7105178
3.6889552
3.6700435
3.6564107
3.6510925
3.6559896
3.6722194
3.6988279
3.7329363
3.7713614
3.810196
3.8480157
3.8821232
3.9114751
3.9335415
3.9500284
3.9572588
3.9611817
3.9534411
3.9481439
3.8181261
3.8181393
3.8181553
3.8181725
3.818192
3.8182141
3.8182392
3.8182688
3.8183036
3.8183418
3.8183816
3.8184248
3.8184753
3.8185373
3.8186144
3.8187072
3.8188142
3.8189359
3.819074
3.8192311
3.8194131
3.8196266
3.8198781
3.820176
3.8205285
3.8209447
3.8214363
3.8220178
3.8227034
3.8235076
3.8244459
3.825529
3.8267509
3.8280787
3.8294341
3.8306645
3.8315205
3.8316241
3.8304831
3.8275015
3.8220089
3.813343
3.8010503
3.7850587
3.7657985
3.7444192
3.7229181
3.7038696
3.690665
3.6860647
3.6914663
3.7071448
3.7313738
3.7612804
3.7949359
3.8288464
3.8622433
3.8925717
3.9190666
3.9391098
3.954507
3.9612362
3.9654543
3.9581252
3.9540306
3.8209608
3.8209653
3.8209708
3.8209769
3.8209839
3.8209924
3.8210032
3.8210163
3.821032
3.8210501
3.8210704
3.8210936
3.8211207
3.821153
3.8211907
3.8212338
3.8212857
3.8213539
3.8214406
3.8215419
3.8216593
3.8218024
3.8219837
3.8222134
3.8224975
3.8228454
3.8232785
3.8238238
3.8245112
3.8253769
3.8264658
3.8278356
3.8295386
3.8316123
3.8340601
3.8368033
3.8396345
3.8421847
3.84388
3.843932
3.841462
3.8356089
3.8256862
3.8115118
3.7934216
3.7727838
3.7521773
3.7345517
3.7233821
3.7202474
3.7262005
3.7408425
3.7618569
3.7882991
3.8170722
3.8469524
3.8765587
3.9035732
3.927505
3.9456913
3.960068
3.9662914
3.9707676
3.9637865
3.9608484
3.8234957
3.8234909
3.8234853
3.8234794
3.8234731
3.8234665
3.82346
3.823454
3.8234486
3.8234441
3.8234412
3.8234411
3.8234437
3.8234472
3.82345
3.8234537
3.8234639
3.8234898
3.8235369
3.8235978
3.8236685
3.8237589
3.823881
3.8240438
3.8242577
3.8245382
3.824908
3.8254018
3.8260618
3.8269344
3.8280767
3.8295589
3.8314657
3.8338792
3.8368572
3.8403917
3.8443371
3.8483661
3.8519258
3.8542086
3.8541986
3.8507949
3.843143
3.8308109
3.8144764
3.7959488
3.7779834
3.7632293
3.7544473
3.7528902
3.7589897
3.7718789
3.7906133
3.813121
3.8384102
3.8647241
3.8909976
3.9150949
3.9367436
3.953238
3.9666707
3.9723981
3.9771084
3.9704249
3.9686163
3.8256107
3.8255967
3.8255803
3.825563
3.825544
3.825523
3.8255004
3.8254768
3.825453
3.8254287
3.8254039
3.825379
3.8253549
3.8253318
3.82531
3.8252898
3.825273
3.8252624
3.8252601
3.8252693
3.8252958
3.8253478
3.8254334
3.8255608
3.8257403
3.8259892
3.8263299
3.8267921
3.8274174
3.8282541
3.8293607
3.8308132
3.8327052
3.8351433
3.8382259
3.8419902
3.8463524
3.8510599
3.8556521
3.8593274
3.8610144
3.8595105
3.8538438
3.8439789
3.8306308
3.8154442
3.8008627
3.7895989
3.783307
3.7827844
3.788994
3.8005044
3.8169717
3.8365804
3.8588337
3.8821175
3.9055482
3.9271009
3.9467293
3.9616974
3.9742712
3.979528
3.9844595
3.9780426
3.977347
3.8268396
3.8268191
3.826795
3.8267696
3.8267422
3.8267125
3.8266804
3.8266459
3.826609
3.8265698
3.8265285
3.8264852
3.8264406
3.8263955
3.8263513
3.8263098
3.8262731
3.826244
3.8262254
3.8262201
3.8262319
3.8262656
3.8263275
3.8264248
3.8265693
3.8267792
3.8270812
3.8275051
3.8280806
3.8288541
3.8299016
3.8312967
3.8331095
3.8354503
3.8384159
3.8420502
3.8463621
3.8512013
3.8561553
3.8604962
3.8632621
3.8634639
3.8602364
3.8533534
3.8433229
3.8319793
3.8214358
3.8134336
3.8091001
3.8101096
3.8161983
3.8269382
3.8412595
3.8587076
3.8785206
3.8992525
3.9202345
3.9395699
3.9574223
3.9710258
3.9828292
3.987651
3.9927992
3.9866236
3.9870424
3.8268043
3.8267829
3.826758
3.8267317
3.8267032
3.8266724
3.8266392
3.8266035
3.8265655
3.8265252
3.8264829
3.8264388
3.8263935
3.8263477
3.8263022
3.8262585
3.8262179
3.8261826
3.8261555
3.8261399
3.8261402
3.8261618
3.826213
3.8263052
3.826448
3.8266486
3.8269248
3.827312
3.8278423
3.8285482
3.8294968
3.8307617
3.8323872
3.8344665
3.8371543
3.8405483
3.8446715
3.8494384
3.8545335
3.859413
3.8632877
3.8651413
3.8642461
3.8602376
3.8538058
3.8463887
3.8395339
3.8344829
3.8325868
3.8350579
3.8411754
3.850913
3.8640508
3.8797886
3.8975697
3.9161527
3.9350555
3.9524779
3.9687849
3.9811819
3.9923029
3.9967402
4.0021131
3.9961921
3.99771
3.8253045
3.8252886
3.82527
3.8252503
3.8252291
3.8252062
3.8251814
3.825155
3.8251268
3.8250971
3.8250659
3.8250337
3.8250009
3.824968
3.824936
3.824906
3.8248795
3.8248581
3.8248446
3.824842
3.8248536
3.8248844
3.8249413
3.8250327
3.8251708
3.8253688
3.8256405
3.8260085
3.8265005
3.8271502
3.8280091
3.829152
3.8306687
3.8326505
3.8351978
3.8384167
3.8423975
3.8471456
3.8524466
3.8578371
3.8626401
3.8659788
3.867163
3.865942
3.8628801
3.8590998
3.8558001
3.8536196
3.8539989
3.8574372
3.8638706
3.8733458
3.8855515
3.8999337
3.9160862
3.9328857
3.9500325
3.9658142
3.9807864
3.9921269
4.0026601
4.006768
4.0123797
4.0067255
4.0093098
3.8227533
3.8227454
3.8227362
3.8227266
3.8227163
3.8227053
3.8226935
3.8226812
3.8226683
3.8226551
3.8226417
3.8226286
3.8226162
3.8226051
3.8225962
3.8225904
3.8225892
3.8225946
3.8226089
3.8226351
3.822677
3.82274
3.8228304
3.8229559
3.8231256
3.8233515
3.8236504
3.8240412
3.824548
3.82522
3.8261212
3.8272958
3.8287971
3.8307421
3.8332811
3.8365325
3.8405752
3.8454411
3.8509941
3.8568711
3.8624692
3.8671006
3.8701119
3.8713824
3.8713907
3.8709521
3.8705317
3.8708806
3.8734068
3.8780538
3.8850305
3.8943649
3.905962
3.9193276
3.9341742
3.9495013
3.9651801
3.9795664
3.9934009
4.0038336
4.0138706
4.0177082
4.0235734
4.0182049
4.0218554
3.8195108
3.8195099
3.8195091
3.8195083
3.8195078
3.8195074
3.8195075
3.8195081
3.8195096
3.8195121
3.819516
3.8195219
3.8195301
3.8195418
3.8195578
3.8195795
3.8196081
3.8196458
3.8196958
3.819762
3.8198492
3.8199631
3.8201095
3.8202958
3.8205315
3.8208284
3.8212118
3.821718
3.8223651
3.8231666
3.824174
3.825464
3.827121
3.8292471
3.8319549
3.8353738
3.8396208
3.8447423
3.8506211
3.8569769
3.8633054
3.8690368
3.8736681
3.8771712
3.8798953
3.8820767
3.8841853
3.8872108
3.8914623
3.8972549
3.9048515
3.9142825
3.9255068
3.9381098
3.9519304
3.9660583
3.980523
3.9937319
4.0066138
4.0162611
4.0258951
4.0295191
4.0356841
4.0305735
4.0354194
3.8158129
3.8158165
3.8158211
3.8158262
3.8158321
3.8158391
3.8158474
3.8158574
3.8158693
3.8158836
3.815901
3.815922
3.8159475
3.8159787
3.8160169
3.8160639
3.8161221
3.8161941
3.8162836
3.8163951
3.8165341
3.8167073
3.8169219
3.8171885
3.8175255
3.8179515
3.8184781
3.8191237
3.8199228
3.8209134
3.8221448
3.8236845
3.8256111
3.828016
3.8310287
3.8347992
3.8394319
3.8449658
3.8513138
3.8582224
3.8652936
3.8720787
3.8781726
3.8836455
3.8885379
3.8930721
3.8975691
3.9026013
3.9084512
3.9154071
3.9236944
3.9333375
3.9443673
3.9564251
3.9694528
3.9826131
3.9960843
4.0083091
4.020401
4.0293812
4.0387169
4.0421642
4.0486931
4.0438157
4.049896
3.811477
3.8114837
3.811492
3.8115012
3.8115119
3.8115243
3.8115389
3.8115562
3.8115764
3.8116005
3.8116289
3.811663
3.8117038
3.8117528
3.8118119
3.8118835
3.8119703
3.8120761
3.8122051
3.8123632
3.8125569
3.8127949
3.8130884
3.813451
3.8138961
3.8144414
3.8151105
3.8159289
3.8169311
3.8181601
3.8196723
3.8215277
3.8238025
3.8266287
3.8301438
3.8344624
3.8396861
3.8458455
3.8528358
3.8604467
3.8683261
3.876146
3.8836526
3.890834
3.8975722
3.9041002
3.9106746
3.9174686
3.9247767
3.9328206
3.9418071
3.9517527
3.9627255
3.9744071
3.9868338
3.9992237
4.0118918
4.0233029
4.0347524
4.0431768
4.0523153
4.0556102
4.0625824
4.0579204
4.0652559
3.806134
3.8061444
3.8061571
3.8061713
3.8061875
3.8062063
3.8062283
3.8062538
3.8062838
3.8063189
3.8063604
3.8064094
3.8064675
3.8065366
3.8066192
3.806718
3.8068368
3.8069796
3.8071522
3.807361
3.8076141
3.8079217
3.8082959
3.8087514
3.8093056
3.8099804
3.8108039
3.8118117
3.8130433
3.8145421
3.8163654
3.8186093
3.8213896
3.8248157
3.8290167
3.834111
3.8401674
3.8471751
3.8549906
3.8634501
3.8722394
3.8811036
3.890003
3.8986805
3.9072373
3.9155295
3.9237551
3.9320765
3.9406915
3.9497532
3.9594339
3.9697309
3.9807437
3.9921819
4.0041627
4.0159461
4.0279729
4.0387188
4.0496543
4.0576283
4.0666499
4.0698648
4.0773018
4.0728846
4.0814832
3.7993734
3.7993895
3.7994091
3.7994306
3.7994552
3.7994835
3.7995161
3.7995536
3.7995971
3.7996477
3.7997066
3.7997754
3.7998561
3.7999508
3.8000627
3.8001949
3.8003517
3.8005384
3.800761
3.8010272
3.8013462
3.8017294
3.8021915
3.8027492
3.8034269
3.8042512
3.8052493
3.80646
3.8079386
3.8097588
3.8120075
3.8147867
3.8182163
3.8224289
3.8275459
3.8336506
3.8407617
3.84881
3.8576519
3.8670996
3.8769076
3.8870363
3.8972898
3.9074316
3.9174371
3.9272372
3.9369498
3.9466403
3.9564372
3.9664367
3.9767823
3.9874541
3.9985731
4.0098668
4.0215238
4.0328348
4.044356
4.054565
4.0650984
4.0727122
4.0817019
4.0848659
4.0928272
4.0886626
4.09852
3.7908563
3.7908805
3.7909099
3.7909419
3.790978
3.7910193
3.7910664
3.7911202
3.791182
3.7912529
3.7913348
3.7914293
3.7915388
3.7916662
3.7918146
3.7919879
3.7921911
3.7924301
3.7927123
3.7930448
3.7934394
3.7939127
3.7944793
3.7951568
3.795969
3.7969513
3.7981531
3.799629
3.8014493
3.8037038
3.8065043
3.8099813
3.814273
3.8195077
3.8257782
3.8331157
3.8414757
3.8507439
3.8607697
3.8713264
3.8824312
3.8938888
3.9054006
3.9168799
3.9282265
3.939418
3.9504562
3.9613634
3.9722197
3.9830733
3.9940425
4.0050898
4.0163533
4.0275725
4.0389976
4.0499426
4.0610682
4.0708473
4.0810732
4.0884268
4.0974176
4.1006173
4.1090917
4.1052387
4.1163002
3.7803847
3.7804194
3.7804614
3.7805067
3.7805576
3.7806152
3.7806806
3.7807548
3.7808391
3.7809353
3.7810452
3.781171
3.7813156
3.7814822
3.7816735
3.7818909
3.7821437
3.7824457
3.7827999
3.7832097
3.7836885
3.7842555
3.7849341
3.7857496
3.7867341
3.7879325
3.7894033
3.7912229
3.7934898
3.7963247
3.7998684
3.804271
3.8096736
3.8161826
3.8238389
3.8326065
3.8423929
3.8530445
3.8643736
3.8763141
3.8888369
3.9015265
3.9143059
3.9270613
3.9397117
3.9521712
3.9644099
3.9764119
3.9882183
3.9998416
4.0113817
4.022787
4.0342101
4.045399
4.056657
4.0673159
4.0781316
4.0875778
4.0975771
4.1047423
4.1137964
4.117091
4.1260746
4.1225197
4.1348473
3.7677798
3.767827
3.7678838
3.7679449
3.7680136
3.7680913
3.768179
3.7682775
3.7683878
3.7685098
3.7686443
3.7688006
3.7689897
3.7692063
3.7694443
3.7697136
3.770026
3.7703898
3.7708151
3.7713133
3.7718979
3.7725875
3.7734092
3.774399
3.7756032
3.7770843
3.778924
3.7812274
3.7841246
3.7877681
3.7923223
3.7979424
3.8047509
3.8128011
3.8220598
3.8324436
3.8437899
3.8559218
3.868752
3.8822416
3.8960531
3.9100334
3.9241088
3.9381449
3.9520248
3.9656565
3.9789828
3.9919611
4.0046077
4.0169105
4.0289561
4.0406826
4.0522566
4.0634353
4.0745661
4.0850018
4.0955727
4.1047552
4.1145905
4.1216479
4.1308105
4.1342922
4.1437281
4.1407951
4.1538251
3.753307
3.753369
3.7534414
3.753516
3.7535989
3.7536986
3.7538171
3.7539441
3.7540762
3.7542232
3.7543926
3.754587
3.7548097
3.7550647
3.7553574
3.7556937
3.7560797
3.7565222
3.7570321
3.7576269
3.7583284
3.7591642
3.7601709
3.761398
3.7629115
3.7647985
3.767171
3.7701675
3.7739501
3.778694
3.7845681
3.7917038
3.800173
3.8099518
3.8209646
3.8330665
3.8460224
3.8597787
3.8742611
3.8891625
3.9043278
3.9196679
3.9350396
3.9503045
3.9653437
3.9800509
3.9943531
4.0081914
4.0215669
4.0344525
4.0469265
4.0589242
4.0706202
4.0817864
4.0928065
4.1030528
4.1134209
4.1224003
4.1321107
4.139119
4.1483996
4.1521389
4.1620099
4.1595072
4.1733864
3.7372109
3.7372912
3.7373755
3.7374602
3.7375582
3.7376714
3.7378005
3.7379474
3.738115
3.7383066
3.7385254
3.7387725
3.7390477
3.7393525
3.7396943
3.7400832
3.7405291
3.7410436
3.7416421
3.7423454
3.7431808
3.7441857
3.7454104
3.7469222
3.748811
3.751193
3.7542136
3.7580463
3.762883
3.7689162
3.7763106
3.785159
3.795481
3.8072217
3.8201907
3.8341572
3.8490454
3.864676
3.8807797
3.8971793
3.9138065
3.9305125
3.9471584
3.9636076
3.9797335
3.995423
4.0105953
4.0251836
4.0391807
4.0525519
4.0653734
4.0775787
4.0893547
4.1004901
4.1113968
4.1214753
4.1316627
4.1404786
4.150098
4.157127
4.1665376
4.1707491
4.1809591
4.1798945
4.1949634
3.7197722
3.7198616
3.719968
3.7200824
3.7202086
3.7203491
3.7205055
3.7206795
3.7208734
3.7210899
3.7213319
3.7216033
3.7219088
3.722254
3.7226462
3.7230951
3.7236126
3.7242153
3.7249246
3.7257703
3.7267917
3.7280423
3.7295937
3.7315404
3.7340039
3.7371361
3.741118
3.7461517
3.7524433
3.7601763
3.7694729
3.7803645
3.7928244
3.8066504
3.8216432
3.837659
3.8544919
3.8718318
3.8895102
3.907466
3.9255426
3.9435987
3.961489
3.9790707
3.9962102
4.0127927
4.0287341
4.0439661
4.0584774
4.0722358
4.0853082
4.0976448
4.109436
4.1204979
4.1312635
4.1411665
4.1511761
4.1598512
4.1693928
4.1764864
4.186022
4.1908282
4.2011495
4.2027716
4.2148612
3.7033881
3.7034889
3.7036121
3.7037393
3.7038793
3.704035
3.7042079
3.7044
3.7046139
3.7048524
3.7051196
3.7054198
3.705759
3.7061446
3.7065867
3.7070983
3.7076969
3.7084062
3.7092578
3.7102946
3.7115744
3.7131737
3.7151927
3.7177597
3.7210333
3.725202
3.7304758
3.73707
3.7451787
3.7549414
3.7664053
3.7795556
3.7942151
3.8101391
3.8271794
3.8450353
3.8634571
3.8823259
3.9015498
3.9209529
3.9403825
3.9596795
3.9786903
3.9972621
4.0152598
4.0325685
4.0491063
4.0648087
4.0796651
4.0936483
4.1068276
4.1191696
4.1308689
4.1417834
4.1523396
4.1620473
4.1718352
4.1803979
4.1898194
4.1970571
4.2066651
4.2120875
4.2226647
4.2257037
4.2376895
3.690303
3.6904112
3.690543
3.6906788
3.690828
3.6909937
3.6911775
3.6913815
3.6916086
3.6918624
3.6921475
3.6924696
3.6928363
3.6932577
3.6937474
3.6943233
3.6950101
3.6958406
3.6968594
3.6981259
3.699719
3.7017409
3.7043222
3.7076242
3.7118387
3.7171812
3.7238764
3.7321346
3.742119
3.7539101
3.7674967
3.7827719
3.7995003
3.8174149
3.8361465
3.8555432
3.8755428
3.8959467
3.9165696
3.9372608
3.9578557
3.9781883
3.9980978
4.0174319
4.0360572
4.0538646
4.0707782
4.086741
4.1017448
4.1157733
4.1288969
4.1411105
4.1526061
4.1632929
4.1735744
4.1830562
4.1925855
4.2010515
4.2103173
4.2177631
4.2273501
4.2335617
4.2441376
4.2491404
4.260654
3.683646
3.6837561
3.68389
3.6840279
3.6841793
3.6843472
3.6845334
3.6847405
3.6849716
3.6852312
3.6855247
3.6858596
3.6862458
3.6866965
3.6872298
3.68787
3.6886503
3.6896145
3.690822
3.6923504
3.6943007
3.6968014
3.7000112
3.7041193
3.7093411
3.7159057
3.7240342
3.7339117
3.7456532
3.7592754
3.7746971
3.791746
3.810079
3.8294068
3.8495881
3.8705176
3.8918794
3.9135123
3.9352608
3.9569565
3.9784297
3.9995093
4.0200315
4.0398467
4.058827
4.0768716
4.0939125
4.1099013
4.1248339
4.1387072
4.1515973
4.163531
4.1746958
4.1850589
4.1949851
4.2041893
4.2134113
4.2217619
4.2308399
4.2384877
4.2480407
4.2549695
4.2656198
4.2719771
4.2837044
3.684865
3.6849722
3.6851017
3.6852359
3.685383
3.6855462
3.6857276
3.68593
3.6861573
3.6864146
3.686709
3.6870496
3.6874492
3.6879251
3.6885005
3.6892071
3.6900872
3.6911974
3.6926121
3.6944273
3.6967658
3.6997793
3.7036498
3.7085868
3.7148171
3.7225683
3.7320434
3.7433884
3.7566625
3.7718175
3.7887209
3.8070951
3.8266607
3.8472853
3.8687249
3.8906737
3.9129822
3.9354778
3.9579866
3.980333
4.002338
4.0238256
4.0446321
4.0646133
4.0836488
4.1016469
4.1185478
4.1343126
4.148942
4.1624518
4.1749247
4.1864217
4.1971269
4.2070596
4.2165457
4.2254056
4.2342698
4.2424711
4.2513373
4.2591687
4.2686877
4.276319
4.2870733
4.2948971
4.3069144
3.695928
3.6960278
3.6961467
3.6962717
3.6964087
3.6965611
3.696731
3.6969217
3.6971378
3.6973856
3.6976734
3.6980126
3.6984192
3.6989144
3.6995274
3.7002971
3.7012757
3.7025317
3.7041538
3.7062555
3.7089776
3.7124905
3.7169925
3.7227034
3.7298507
3.7386492
3.7492718
3.7618209
3.7763027
3.7926189
3.810581
3.8299247
3.8504336
3.8718326
3.8938918
3.9164257
3.9392487
3.9621803
3.9850362
4.0076295
4.0297742