/*--------------------------------*- C++ -*----------------------------------*\
  =========                 |
  \\      /  F ield         | OpenFOAM: The Open Source CFD Toolbox
   \\    /   O peration     | Website:  https://openfoam.org
    \\  /    A nd           | Version:  13
     \\/     M anipulation  |
\*---------------------------------------------------------------------------*/
FoamFile
{
    format      ascii;
    class       volScalarField;
    location    "32.2038";
    object      nut;
}
// * * * * * * * * * * * * * * * * * * * * * * * * * * * * * * * * * * * * * //

dimensions      [0 2 -1 0 0 0 0];

internalField   nonuniform List<scalar> 
17140
(
2.7098325e-18
5.2702644e-16
1.4037492e-14
1.4230869e-13
8.606041e-13
3.8126814e-12
1.3766331e-11
4.3073891e-11
1.2134023e-10
3.1561289e-10
7.713667e-10
1.7938607e-09
4.0067452e-09
8.6567012e-09
1.8191317e-08
3.7343698e-08
7.51496e-08
1.4866881e-07
2.8980144e-07
5.5769126e-07
1.061155e-06
1.9989928e-06
3.7319638e-06
6.910339e-06
1.2697783e-05
2.3158931e-05
4.1915893e-05
7.521966e-05
0.00013358505
0.00023398398
0.00040206186
0.00067281529
0.0010872924
0.0016839119
0.0024867693
0.0034968249
0.0046899535
0.0060214089
0.0074334244
0.0088631491
0.010249945
0.01154168
0.012699658
0.013693979
0.01451129
0.015195207
0.015770144
0.016242817
0.016644868
0.01700397
0.017341175
0.017670323
0.018000848
0.018346662
0.018737891
0.019203013
0.019756768
0.020420214
0.021259546
0.022334621
0.023307171
0.023367872
0.022304498
0.020712728
0.021370396
2.7041445e-18
5.2591976e-16
1.4008026e-14
1.4201023e-13
8.5880087e-13
3.8046964e-12
1.3737501e-11
4.2983645e-11
1.2108578e-10
3.1495007e-10
7.6974353e-10
1.790076e-09
3.9982629e-09
8.6382952e-09
1.8152422e-08
3.7263283e-08
7.4986296e-08
1.4834195e-07
2.8915476e-07
5.5642313e-07
1.0586844e-06
1.994201e-06
3.7226954e-06
6.8924396e-06
1.2663251e-05
2.3092415e-05
4.1788191e-05
7.4976155e-05
0.00013312658
0.00023313926
0.0004005576
0.00067026399
0.0010832239
0.0016778604
0.0024784134
0.0034860049
0.004676631
0.0060055769
0.0074149175
0.0088415699
0.010224633
0.011511708
0.012663872
0.013650275
0.014456864
0.015130727
0.015690976
0.016145182
0.016524001
0.016853354
0.01715202
0.017431214
0.017698002
0.01796778
0.018278033
0.018663118
0.019150275
0.019804134
0.020750506
0.022168401
0.023870861
0.024896834
0.02500648
0.023963585
0.024369173
2.6798523e-18
5.2119517e-16
1.388218e-14
1.4073432e-13
8.51083e-13
3.7704908e-12
1.3613927e-11
4.2596711e-11
1.199948e-10
3.1210934e-10
7.627919e-10
1.7738853e-09
3.9620355e-09
8.5598601e-09
1.7987181e-08
3.6923032e-08
7.4299018e-08
1.4697604e-07
2.8647697e-07
5.5123359e-07
1.0487237e-06
1.9752362e-06
3.6868296e-06
6.8249987e-06
1.2537088e-05
2.2857607e-05
4.1353809e-05
7.4179224e-05
0.00013168285
0.00023057485
0.00039613743
0.00066296399
0.0010718164
0.0016611405
0.0024554792
0.003456415
0.0046403644
0.0059628351
0.0073659131
0.0087863107
0.010162776
0.01144249
0.012586133
0.013561596
0.0143535
0.015013666
0.01555367
0.015982915
0.016330544
0.016620522
0.016869049
0.017084284
0.017270927
0.017448156
0.017661891
0.017946081
0.01833606
0.018929527
0.019900175
0.021568435
0.023833752
0.025739501
0.026998733
0.026652541
0.026543873
2.6358604e-18
5.1263925e-16
1.3654286e-14
1.3842384e-13
8.3710872e-13
3.7085677e-12
1.3390272e-11
4.1896622e-11
1.1802163e-10
3.0697382e-10
7.502312e-10
1.7446486e-09
3.8966631e-09
8.418439e-09
1.7689532e-08
3.6310836e-08
7.3064123e-08
1.4452582e-07
2.8168313e-07
5.4196591e-07
1.0309885e-06
1.9415905e-06
3.6234735e-06
6.7064703e-06
1.2316652e-05
2.2450052e-05
4.06053e-05
7.281644e-05
0.00012923294
0.00022625498
0.00038873892
0.00065080598
0.0010528796
0.0016334278
0.002417468
0.0034073454
0.0045802193
0.0058920785
0.0072851465
0.0086959484
0.010062793
0.011332256
0.012464359
0.013425658
0.014200032
0.014842314
0.015356453
0.015754161
0.016062741
0.016303895
0.016490945
0.016628701
0.016720402
0.01679338
0.016899799
0.01706375
0.01732379
0.01780152
0.01871127
0.02047992
0.023071959
0.025755751
0.028007948
0.028565586
0.028246104
2.5719714e-18
5.0021368e-16
1.3323324e-14
1.3506852e-13
8.1681595e-13
3.6186527e-12
1.306555e-11
4.0880309e-11
1.1515766e-10
2.9952134e-10
7.3200781e-10
1.7022428e-09
3.8018748e-09
8.2134576e-09
1.7258293e-08
3.5424331e-08
7.1277006e-08
1.4098256e-07
2.7475703e-07
5.2859086e-07
1.0054278e-06
1.8931784e-06
3.5324913e-06
6.5366547e-06
1.2001687e-05
2.1869503e-05
3.9542624e-05
7.0888386e-05
0.00012577865
0.00022018265
0.00037836346
0.0006337787
0.0010263629
0.001594586
0.0023641025
0.0033383261
0.0044955005
0.0057923711
0.0071714528
0.0085691115
0.0099231284
0.011179257
0.012296349
0.013238544
0.013996619
0.014614595
0.015096944
0.015456421
0.015718048
0.015901029
0.01601564
0.016063434
0.016048955
0.016013279
0.016005939
0.016031847
0.016129051
0.016431899
0.017173733
0.018809351
0.021392884
0.024697692
0.027846199
0.029174357
0.02894884
2.4885287e-18
4.8398521e-16
1.2891073e-14
1.3068635e-13
7.9031333e-13
3.5012277e-12
1.2641504e-11
3.9553237e-11
1.1141834e-10
2.8979216e-10
7.082205e-10
1.6468985e-09
3.6781887e-09
7.9460428e-09
1.6695854e-08
3.4268475e-08
6.8947777e-08
1.3636658e-07
2.6573912e-07
5.1118824e-07
9.7219795e-07
1.8303052e-06
3.4144773e-06
6.3167056e-06
1.1594425e-05
2.1120257e-05
3.8173971e-05
6.8410388e-05
0.00012134773
0.00021240553
0.00036508597
0.00061198476
0.00099237847
0.0015446918
0.0022953559
0.0032491553
0.004385776
0.0056630224
0.0070238832
0.0084046146
0.0097424011
0.010982034
0.012081176
0.013002041
0.013736997
0.014327638
0.014772528
0.01508698
0.015293695
0.015409301
0.015441057
0.015388068
0.015262172
0.015121312
0.014996333
0.014869085
0.014774674
0.014841912
0.015287585
0.016561208
0.018831696
0.022244602
0.025978057
0.028166068
0.028386778
2.3864078e-18
4.6412414e-16
1.2362068e-14
1.2532331e-13
7.578791e-13
3.3575253e-12
1.2122587e-11
3.792935e-11
1.0684297e-10
2.7788867e-10
6.7911985e-10
1.5791995e-09
3.5269113e-09
7.6190257e-09
1.6008185e-08
3.2855581e-08
6.6101356e-08
1.3072754e-07
2.5472711e-07
4.8994829e-07
9.3166631e-07
1.7536753e-06
3.2707745e-06
6.0491721e-06
1.1099682e-05
2.0211363e-05
3.6516192e-05
6.541339e-05
0.00011599567
0.00020301915
0.00034906096
0.0005856517
0.00095122045
0.0014840632
0.0022114918
0.0031399487
0.0042509341
0.0055036447
0.0068417586
0.0082014969
0.0095193935
0.010739132
0.011817031
0.012713149
0.013420259
0.013978794
0.014380357
0.014642805
0.014786544
0.014825708
0.014764827
0.014602934
0.014369323
0.014132097
0.01388672
0.01359699
0.013294539
0.013092209
0.013177478
0.013880295
0.01548651
0.01862312
0.022576455
0.025200873
0.025851435
2.2670313e-18
4.4090706e-16
1.1743675e-14
1.190541e-13
7.1996501e-13
3.1895477e-12
1.1516028e-11
3.6031277e-11
1.0149534e-10
2.6397686e-10
6.4511185e-10
1.500091e-09
3.350157e-09
7.2369818e-09
1.5204922e-08
3.1205487e-08
6.2777818e-08
1.2414512e-07
2.4187726e-07
4.6517411e-07
8.844154e-07
1.6643996e-06
3.1034883e-06
5.7380221e-06
1.0524898e-05
1.915668e-05
3.4594908e-05
6.1944155e-05
0.00010980606
0.00019216798
0.00033052511
0.00055513825
0.00090337807
0.0014132844
0.002113103
0.0030111929
0.0040912467
0.0053142191
0.0066247319
0.0079590769
0.0092530958
0.010449188
0.011501962
0.012369235
0.013045302
0.013565104
0.013917247
0.014120389
0.014192852
0.014146515
0.013983888
0.013709916
0.013382612
0.013057883
0.012690726
0.012238779
0.011730211
0.011244945
0.010885131
0.010799206
0.011274296
0.013501231
0.017333041
0.02008365
0.020723424
2.1323632e-18
4.1471584e-16
1.1046061e-14
1.1198178e-13
6.7719458e-13
3.0000576e-12
1.0831806e-11
3.3890238e-11
9.5463429e-11
2.4828566e-10
6.0675636e-10
1.4108758e-09
3.1508381e-09
6.8062108e-09
1.4299324e-08
2.9345466e-08
5.9032193e-08
1.1672856e-07
2.274035e-07
4.3727984e-07
8.3123906e-07
1.5639875e-06
2.9154688e-06
5.3886052e-06
9.880055e-06
1.7974728e-05
3.2444203e-05
5.8064692e-05
0.00010288964
0.000180044
0.00030979607
0.00052093523
0.00084954298
0.0013332249
0.0020011485
0.0028638001
0.0039074384
0.0050951719
0.0063728654
0.0076770256
0.0089427878
0.010111114
0.011134231
0.011968294
0.012609782
0.013083464
0.013379549
0.013515526
0.013507929
0.013366774
0.013094328
0.012714426
0.012313632
0.011905354
0.011417867
0.01081574
0.010121914
0.0093566679
0.0084899652
0.0075918286
0.0068556747
0.0074634823
0.010069511
0.012739957
0.012938115
1.984876e-18
3.8603155e-16
1.0282045e-14
1.0423632e-13
6.303537e-13
2.7925366e-12
1.0082491e-11
3.1545583e-11
8.8858094e-11
2.3110351e-10
5.6475854e-10
1.3131947e-09
2.9326216e-09
6.3346421e-09
1.3308073e-08
2.7309814e-08
5.493363e-08
1.0861501e-07
2.1157411e-07
4.0678396e-07
7.7312941e-07
1.4543213e-06
2.7102608e-06
5.0075538e-06
9.1774899e-06
1.6688309e-05
3.0105904e-05
5.3850911e-05
9.5381932e-05
0.00016688283
0.00028726698
0.00048366005
0.00079060802
0.0012450506
0.0018769833
0.0026991621
0.0037007613
0.0048474637
0.0060867223
0.0073554486
0.0085880952
0.0097241067
0.010712374
0.011508601
0.012110288
0.012530639
0.012762966
0.012823003
0.012725714
0.012479808
0.012092729
0.011626791
0.011167952
0.010673729
0.010071012
0.00933922
0.0084824043
0.0074061725
0.0061586375
0.0045476845
0.0025001278
0.0024253002
0.0032892823
0.0044633488
0.0046928445
1.8274917e-18
3.5542245e-16
9.4667627e-15
9.5971137e-14
5.8037011e-13
2.5710952e-12
9.2829283e-12
2.9043756e-11
8.1810188e-11
2.1277079e-10
5.1995045e-10
1.208983e-09
2.6998322e-09
5.831624e-09
1.2250828e-08
2.5138927e-08
5.0563533e-08
9.9965803e-08
1.947043e-07
3.7429501e-07
7.1124908e-07
1.3376024e-06
2.492001e-06
4.6025887e-06
8.4315219e-06
1.5323812e-05
2.762829e-05
4.9390272e-05
8.743906e-05
0.00015295681
0.00026339615
0.00044404355
0.00072765544
0.0011502214
0.0017423782
0.0025191983
0.0034730728
0.0045726888
0.0057674769
0.0069949879
0.0081890322
0.0092873839
0.010235383
0.010988278
0.011543497
0.011902623
0.012062257
0.012036256
0.011838323
0.011477227
0.01098146
0.010458194
0.0099419196
0.0093545471
0.0086438298
0.0077972173
0.0067433153
0.005439158
0.0040487444
0.0017167154
0.00097325307
0.0011193702
0.0017821783
0.0023243443
0.0030038685
1.6634945e-18
3.2352718e-16
8.6172215e-15
8.7358675e-14
5.2828666e-13
2.3403533e-12
8.449797e-12
2.6436949e-11
7.446674e-11
1.9366996e-10
4.7326691e-10
1.1004151e-09
2.4573271e-09
5.307654e-09
1.1149657e-08
2.2878135e-08
4.6013199e-08
9.0961761e-08
1.7714708e-07
3.404937e-07
6.4689677e-07
1.2162859e-06
2.2652927e-06
4.1822802e-06
7.6580023e-06
1.3910365e-05
2.5064502e-05
4.477885e-05
7.9232481e-05
0.00013856591
0.00023869233
0.00040290916
0.00066193276
0.0010504735
0.0015995216
0.0023263916
0.0032269106
0.0042731852
0.0054170484
0.0065969712
0.0077461902
0.0088006692
0.0097022708
0.010405409
0.010905822
0.011194595
0.011271006
0.011147063
0.010835834
0.01035232
0.0097749596
0.0092114957
0.0086214799
0.00793415
0.0071202468
0.0061247531
0.0048326316
0.0037828594
0.0015932683
0.00069315207
0.00058025835
0.00070927224
0.0011169314
0.0014297306
0.0018079699
1.4963968e-18
2.9102894e-16
7.7516217e-15
7.8583443e-14
4.7521918e-13
2.1052541e-12
7.600945e-12
2.3781002e-11
6.6985043e-11
1.7421012e-10
4.2570774e-10
9.8981607e-10
2.2103e-09
4.7739532e-09
1.0028142e-08
2.0575859e-08
4.1380094e-08
8.1795783e-08
1.5927875e-07
3.0610483e-07
5.8145337e-07
1.0929775e-06
2.0350127e-06
3.7556861e-06
6.8736399e-06
1.2478588e-05
2.2470259e-05
4.0117206e-05
7.0941666e-05
0.00012402516
0.00021369444
0.00036114286
0.00059481424
0.00094777986
0.0014509961
0.0021238013
0.002965554
0.0039521453
0.0050382504
0.0061635822
0.0072608991
0.0082642108
0.0091121922
0.0097581066
0.01019321
0.010400846
0.010381517
0.010145516
0.0097075537
0.0091129815
0.0084925179
0.0078765612
0.0071928768
0.0064022801
0.0054625683
0.0042298547
0.003330677
0.0015187331
0.00061377386
0.00043653932
0.00039246867
0.0004591588
0.00063477294
0.00078805704
0.0009310721
1.3298116e-18
2.586303e-16
6.888674e-15
6.9835101e-14
4.2231453e-13
1.8708784e-12
6.754716e-12
2.1133309e-11
5.9526761e-11
1.5481173e-10
3.7830042e-10
8.7957504e-10
1.9640863e-09
4.2420483e-09
8.9105045e-09
1.8281812e-08
3.6764254e-08
7.2665764e-08
1.4148503e-07
2.7187073e-07
5.1633161e-07
9.703395e-07
1.8061334e-06
3.3320222e-06
6.0953918e-06
1.1059469e-05
1.9901808e-05
3.5506647e-05
6.2747329e-05
0.00010965253
0.00018895022
0.00031965764
0.0005277482
0.00084428648
0.001299721
0.0019150371
0.0026930541
0.0036137108
0.0046349441
0.0056980539
0.0067354301
0.0076789384
0.0084644169
0.0090445312
0.0094010014
0.0095148565
0.0093851164
0.0090208762
0.0084516869
0.0077921719
0.007139993
0.0064424311
0.0056545564
0.0047522692
0.0035941194
0.0027851233
0.0013336799
0.00053897801
0.00035661616
0.00030001259
0.00030424155
0.00036276118
0.00046164
0.00055079963
0.00063559808
1.1672463e-18
2.270135e-16
6.0465509e-15
6.1297885e-14
3.7068687e-13
1.6421618e-12
5.9289286e-12
1.8549614e-11
5.2248902e-11
1.3588309e-10
3.3204261e-10
7.7201152e-10
1.7238652e-09
3.7231243e-09
7.8202369e-09
1.6044196e-08
3.2262615e-08
6.3763313e-08
1.2413907e-07
2.3850864e-07
4.5289425e-07
8.5093474e-07
1.5834309e-06
2.9201145e-06
5.3394447e-06
9.6824829e-06
1.7412448e-05
3.1042883e-05
5.4820004e-05
9.574887e-05
0.00016498256
0.00027933941
0.00046217765
0.00074221173
0.0011488488
0.001704182
0.0024142133
0.0032630294
0.0042121737
0.0052048682
0.006173257
0.0070468732
0.0077592827
0.0082611446
0.0085242853
0.0085298849
0.0082734823
0.0077669749
0.0071019551
0.0064205383
0.0057109576
0.0049144628
0.0040253193
0.0029471103
0.0022148706
0.0010661397
0.0004503098
0.00028488798
0.00024908142
0.00025032603
0.00029271262
0.00035745168
0.00043426974
0.00049901402
0.0005921933
1.0119174e-18
1.9680415e-16
5.2419189e-15
5.3140779e-14
3.2135814e-13
1.4236311e-12
5.1399259e-12
1.6081041e-11
4.5295445e-11
1.1779858e-10
2.8784896e-10
6.6925161e-10
1.4943829e-09
3.2274283e-09
6.7788538e-09
1.3907127e-08
2.7963831e-08
5.5263508e-08
1.0758139e-07
2.0667201e-07
3.9238042e-07
7.3708768e-07
1.371223e-06
2.5279118e-06
4.6203105e-06
8.3739211e-06
1.5049478e-05
2.6810464e-05
4.7309942e-05
8.2579633e-05
0.00014225722
0.00024099714
0.0003994717
0.00064374915
0.0010016299
0.0014956445
0.0021344785
0.0029062299
0.0037762329
0.0046898967
0.0055792398
0.0063714104
0.0069976583
0.0074035273
0.0075594056
0.0074391696
0.0070421479
0.0064083357
0.0057161073
0.0050032715
0.0042158819
0.003330033
0.0023249721
0.0016797356
0.00078053537
0.00034756489
0.00022138625
0.00020376674
0.00021322827
0.00025603424
0.00031951615
0.00038858042
0.00046558376
0.00053003101
0.00063596666
8.6667631e-19
1.6855681e-16
4.4895462e-15
4.5513469e-14
2.7523341e-13
1.2192957e-12
4.4021815e-12
1.377287e-11
3.8793909e-11
1.0088977e-10
2.4652949e-10
5.7317808e-10
1.279842e-09
2.7640333e-09
5.8054032e-09
1.190966e-08
2.3946372e-08
4.7321275e-08
9.2113229e-08
1.7693866e-07
3.3588504e-07
6.3085048e-07
1.1733173e-06
2.1624138e-06
3.9507476e-06
7.1568608e-06
1.2854365e-05
2.2883511e-05
4.0349219e-05
7.0379918e-05
0.00012119205
0.00020536454
0.00034087818
0.00055093097
0.00086121612
0.0012939504
0.0018597528
0.0025502896
0.0033346091
0.0041603978
0.0049595711
0.0056568488
0.006179993
0.0064707307
0.0065033899
0.0062391142
0.005698352
0.0050088512
0.0043133926
0.0035536505
0.0027017843
0.0017812442
0.0011806156
0.00053632285
0.00025028954
0.00016434746
0.00016152443
0.0001798187
0.00022487525
0.00028874439
0.00036189308
0.00044711733
0.0005413342
0.00061677115
0.00070995405
7.33827e-19
1.4271943e-16
3.801362e-15
3.8536884e-14
2.3304393e-13
1.0323945e-12
3.7273872e-12
1.166167e-11
3.2847266e-11
8.5424347e-11
2.0873802e-10
4.8531019e-10
1.0836325e-09
2.340254e-09
4.9152307e-09
1.0083232e-08
2.0273332e-08
4.0061009e-08
7.7975997e-08
1.4977057e-07
2.8428089e-07
5.3385253e-07
9.9272191e-07
1.8291148e-06
3.3406895e-06
6.049087e-06
1.0858664e-05
1.9317594e-05
3.4035175e-05
5.931996e-05
0.00010208578
0.00017297238
0.00028735974
0.000465489
0.00073050065
0.0011034874
0.0015960636
0.0022026936
0.0028956871
0.0036247688
0.0043215172
0.0049079568
0.0053081493
0.005467528
0.0053550581
0.0049388882
0.0042896329
0.0036266159
0.0029339569
0.0021305826
0.0013291442
0.00076686131
0.00035763834
0.00017199381
0.00011746612
0.0001243233
0.00014913168
0.00019663584
0.00025940403
0.00033217179
0.00042041841
0.00051151295
0.00060331304
0.00066697307
0.00075032543
6.1505214e-19
1.1961927e-16
3.1860825e-15
3.2299398e-14
1.9532408e-13
8.6529462e-13
3.1240883e-12
9.7741724e-12
2.7530795e-11
7.159805e-11
1.749527e-10
4.0675918e-10
9.0823437e-10
1.961443e-09
4.1195692e-09
8.4508583e-09
1.6990915e-08
3.3573816e-08
6.5346515e-08
1.2550603e-07
2.382068e-07
4.4728537e-07
8.3163348e-07
1.5320188e-06
2.7973549e-06
5.0634802e-06
9.0851566e-06
1.6152761e-05
2.8438182e-05
4.9524443e-05
8.5163434e-05
0.00014423492
0.00023967772
0.00038878342
0.00061182828
0.00092805295
0.0013489997
0.0018708069
0.0024681111
0.0030919639
0.0036730902
0.0041308193
0.0043873522
0.0044015284
0.0041290566
0.0035838697
0.0029420097
0.0023191954
0.00163496
0.00095283817
0.00047281503
0.0002282979
0.00011504366
8.2416246e-05
9.4450834e-05
0.00012301961
0.00017120767
0.00023289951
0.00030222045
0.0003418477
0.00038341783
0.00050399079
0.00063498254
0.00070490289
0.00079926335
5.112443e-19
9.9430042e-17
2.6483383e-15
2.6847941e-14
1.6235766e-13
7.1925324e-13
2.5968224e-12
8.124568e-12
2.288445e-11
5.9514712e-11
1.4542701e-10
3.3811374e-10
7.549601e-10
1.6304288e-09
3.4243433e-09
7.0246511e-09
1.4123359e-08
2.7907291e-08
5.4316668e-08
1.0431964e-07
1.979895e-07
3.717514e-07
6.9114545e-07
1.2730782e-06
2.3241681e-06
4.2059305e-06
7.5437833e-06
1.3405562e-05
2.358572e-05
4.1039968e-05
7.05089e-05
0.0001193177
0.00019818693
0.00032158453
0.00050676007
0.00077047753
0.0011230961
0.0015610046
0.0020597044
0.0025703243
0.0030220841
0.0033324885
0.003433553
0.0032919139
0.0028795814
0.0023117104
0.0017571741
0.0011914552
0.00064822427
0.00029970706
0.00014300027
7.5298652e-05
5.7690958e-05
7.2062576e-05
0.00010197572
0.00014969981
0.00020899811
0.00026628907
0.00025802836
0.00027569599
0.00033141005
0.00044935987
0.00069152212
0.00076927152
0.00084293185
4.2252772e-19
8.2175904e-17
2.1887718e-15
2.2189031e-14
1.3418407e-13
5.9444458e-13
2.1462174e-12
6.7148157e-12
1.8913725e-11
4.9188551e-11
1.2019548e-10
2.7945345e-10
6.2398546e-10
1.3475855e-09
2.8303238e-09
5.8061497e-09
1.1673647e-08
2.3067041e-08
4.4896611e-08
8.6228985e-08
1.6365759e-07
3.0729285e-07
5.7131035e-07
1.052334e-06
1.921093e-06
3.4761684e-06
6.2336567e-06
1.10735e-05
1.9471517e-05
3.3852623e-05
5.8097412e-05
9.8193168e-05
0.00016290114
0.00026407705
0.00041592269
0.00063224031
0.00092111014
0.0012775167
0.0016759059
0.0020659318
0.0023755089
0.0025252148
0.0024757433
0.0021935582
0.0017364443
0.0012801867
0.00082922037
0.00040357726
0.00018498572
9.1254866e-05
4.9681915e-05
4.080892e-05
5.5945249e-05
8.5579519e-05
0.00013169319
0.00018828911
0.00022285572
0.00020767329
0.00021376095
0.00024203055
0.00029493636
0.00040231502
0.00064031943
0.00079541419
0.00086619781
3.4826581e-19
6.7732968e-17
1.8040815e-15
1.8289189e-14
1.1060078e-13
4.8997125e-13
1.7690321e-12
5.5347713e-12
1.5590031e-11
4.0545159e-11
9.9076113e-11
2.3035466e-10
5.1436294e-10
1.1108627e-09
2.3331916e-09
4.7864613e-09
9.6238123e-09
1.9017327e-08
3.7016164e-08
7.1097633e-08
1.3494785e-07
2.5340412e-07
4.7115802e-07
8.6792008e-07
1.5845214e-06
2.8671841e-06
5.1412566e-06
9.1312167e-06
1.6050047e-05
2.7885265e-05
4.780215e-05
8.0653112e-05
0.00013349404
0.00021582694
0.0003388722
0.00051309613
0.00074324315
0.0010211167
0.0013180579
0.0015813608
0.001741018
0.0017437047
0.0015646812
0.0012322842
0.00088172689
0.00054443659
0.00023705581
0.00011196973
5.7464849e-05
3.3639869e-05
2.9792517e-05
4.4563376e-05
7.2983394e-05
0.00011647037
0.00017010019
0.00019341472
0.00017739245
0.00017744321
0.00019115246
0.00021793683
0.00027120726
0.00038435997
0.00061187989
0.00083023592
0.00089980326
2.8706556e-19
5.5830331e-17
1.4870522e-15
1.5075271e-14
9.1165486e-14
4.0387363e-13
1.458191e-12
4.5622945e-12
1.2850995e-11
3.3422289e-11
8.1672328e-11
1.8989492e-10
4.2403164e-10
9.1580593e-10
1.9235819e-09
3.9463477e-09
7.9351021e-09
1.5681383e-08
3.0525419e-08
5.863641e-08
1.1130826e-07
2.0904091e-07
3.8872795e-07
7.1617931e-07
1.3076644e-06
2.3664059e-06
4.2432197e-06
7.5347943e-06
1.3237718e-05
2.2978608e-05
3.9333361e-05
6.6215978e-05
0.00010922951
0.00017569072
0.00027392421
0.00041073098
0.00058650853
0.00078828024
0.00098321389
0.0011188907
0.0011438623
0.0010359896
0.00081392688
0.00056676465
0.00032835124
0.00013824428
6.6705544e-05
3.6127854e-05
2.3073596e-05
2.2613025e-05
3.6450023e-05
6.3118195e-05
0.00010369667
0.00015398007
0.00017256806
0.00015836369
0.00015658079
0.00016268887
0.00017686733
0.00020651741
0.00026312366
0.00036667276
0.00056734266
0.00086657346
0.00092206918
2.368162e-19
4.605752e-17
1.2267521e-15
1.2436459e-14
7.5208013e-14
3.3318281e-13
1.2029745e-12
3.7638455e-12
1.0602135e-11
2.7574186e-11
6.7383479e-11
1.5667733e-10
3.4987117e-10
7.5567258e-10
1.5873222e-09
3.2567061e-09
6.5489249e-09
1.2943224e-08
2.5198087e-08
4.8409318e-08
9.1907837e-08
1.726342e-07
3.2108163e-07
5.916471e-07
1.0804223e-06
1.9552715e-06
3.5056205e-06
6.222605e-06
1.0923217e-05
1.8932061e-05
3.2324428e-05
5.4200077e-05
8.8873349e-05
0.000141704
0.00021807073
0.00032073636
0.00044498853
0.00057266834
0.00066945062
0.00069568757
0.00063318241
0.00049457088
0.00033518655
0.00017978981
7.7302584e-05
3.956376e-05
2.2793014e-05
1.6258606e-05
1.7656362e-05
3.0587307e-05
5.477436e-05
9.2591458e-05
0.00013905175
0.0001579372
0.00014640055
0.00014493767
0.00014802756
0.00015568291
0.00017306051
0.00020411906
0.00025584476
0.00035495594
0.00054440906
0.00087915436
0.00093850074
1.9479574e-19
3.7885129e-17
1.0090797e-15
1.0229786e-14
6.1863777e-14
2.7406842e-13
9.8955214e-13
3.0961481e-12
8.7215348e-12
2.2683712e-11
5.5434372e-11
1.2889881e-10
2.8785323e-10
6.2175663e-10
1.30611e-09
2.6799438e-09
5.389576e-09
1.0652947e-08
2.0741621e-08
3.9852552e-08
7.5671768e-08
1.4215438e-07
2.6441809e-07
4.8725689e-07
8.8974199e-07
1.6098091e-06
2.8846766e-06
5.1151267e-06
8.9629969e-06
1.5488565e-05
2.6320816e-05
4.3815172e-05
7.1069259e-05
0.00011152077
0.00016759774
0.00023783879
0.00031283275
0.00037239952
0.00039091931
0.00035554694
0.00027513013
0.00017899797
9.1276866e-05
4.207562e-05
2.2882468e-05
1.4687093e-05
1.1662172e-05
1.4270986e-05
2.5884589e-05
4.7955303e-05
8.2640896e-05
0.00012561494
0.00014764624
0.00013976058
0.00013879152
0.0001409546
0.00014548295
0.000155977
0.00017395479
0.00020343343
0.00025545881
0.00035078681
0.00052161919
0.00087042079
0.00096004302
1.5801197e-19
3.073119e-17
8.1853337e-16
8.2980984e-15
5.0182352e-14
2.2231959e-13
8.0271847e-13
2.5116197e-12
7.0751311e-12
1.8402086e-11
4.497233e-11
1.0457565e-10
2.3354485e-10
5.0447444e-10
1.0597899e-09
2.1746444e-09
4.3736076e-09
8.6452183e-09
1.6833143e-08
3.2343393e-08
6.1412024e-08
1.1535638e-07
2.1453035e-07
3.9518446e-07
7.2117198e-07
1.3035014e-06
2.3320501e-06
4.1248797e-06
7.2001231e-06
1.2369862e-05
2.0837445e-05
3.4237458e-05
5.4479708e-05
8.3085031e-05
0.00011961634
0.00015934815
0.00019144335
0.00020169263
0.00018254529
0.00013933636
8.6499273e-05
4.4401923e-05
2.2095623e-05
1.3297721e-05
9.4225633e-06
8.7512172e-06
1.1492897e-05
2.213789e-05
4.1924764e-05
7.3781386e-05
0.00011373128
0.00014082253
0.00013622787
0.00013536139
0.00013718375
0.00014057205
0.00014735999
0.00015861483
0.00017667329
0.00020735914
0.00025721638
0.00034589053
0.00050157875
0.00082045415
0.00096984892
1.2392517e-19
2.4101767e-17
6.4195725e-16
6.5080235e-15
3.9357125e-14
1.743625e-13
6.2956798e-13
1.9698729e-12
5.549124e-12
1.443321e-11
3.5273384e-11
8.2023334e-11
1.8318102e-10
3.9568491e-10
8.3123729e-10
1.7056114e-09
3.4300914e-09
6.7794912e-09
1.319818e-08
2.5352577e-08
4.8119377e-08
9.0334936e-08
1.6785441e-07
3.0882059e-07
5.6256057e-07
1.0142068e-06
1.8078096e-06
3.1807588e-06
5.5101481e-06
9.36373e-06
1.5528254e-05
2.4940103e-05
3.8367173e-05
5.5656734e-05
7.4543282e-05
8.9748373e-05
9.4361046e-05
8.4965371e-05
6.3720676e-05
3.8157971e-05
2.0390894e-05
1.1421676e-05
7.6419991e-06
6.3560148e-06
6.428344e-06
9.6154346e-06
1.8709217e-05
3.7228081e-05
6.7583044e-05
0.00010508885
0.00013624559
0.00013340666
0.00013244603
0.0001346933
0.00013755507
0.00014254043
0.00015000259
0.00016232029
0.00018178192
0.00021216966
0.00025988852
0.00034490834
0.00048935083
0.00077303814
0.00098409268
9.1414474e-20
1.7778875e-17
4.7354501e-16
4.8006958e-15
2.9032105e-14
1.2861993e-13
4.6440555e-13
1.4530865e-12
4.0933057e-12
1.0646479e-11
2.6018294e-11
6.0499365e-11
1.3510324e-10
2.9180507e-10
6.1292471e-10
1.2574024e-09
2.5279886e-09
4.9944907e-09
9.7177029e-09
1.8652307e-08
3.5364084e-08
6.6290985e-08
1.2292736e-07
2.2553452e-07
4.09281e-07
7.3403065e-07
1.2990858e-06
2.2633427e-06
3.867903e-06
6.4487988e-06
1.0406524e-05
1.6069974e-05
2.3368017e-05
3.130788e-05
3.7606503e-05
3.9300259e-05
3.5120491e-05
2.5779473e-05
1.5706285e-05
9.1681503e-06
5.7768151e-06
4.5934243e-06
4.2426265e-06
5.0044809e-06
7.8567325e-06
1.6440238e-05
3.4608122e-05
6.2156709e-05
9.6837562e-05
0.00013240881
0.00013023343
0.00012977653
0.0001323076
0.00013482273
0.00013837215
0.00014403507
0.00015299458
0.00016698844
0.00018670044
0.00021711856
0.00026359538
0.00034435086
0.00047673084
0.00074370455
0.00099280589
6.1437215e-20
1.1948699e-17
3.182561e-16
3.2263973e-15
1.9511434e-14
8.6439839e-14
3.1210099e-13
9.7651014e-13
2.7506835e-12
7.1539295e-12
1.7481443e-11
4.0643603e-11
9.0745938e-11
1.9594919e-10
4.1143907e-10
8.4365501e-10
1.6950545e-09
3.3459436e-09
6.5024618e-09
1.2461139e-08
2.3575706e-08
4.4067943e-08
8.1408285e-08
1.4860439e-07
2.67853e-07
4.7603722e-07
8.3221727e-07
1.425947e-06
2.3816771e-06
3.8469525e-06
5.9401269e-06
8.6264211e-06
1.1526687e-05
1.3788615e-05
1.4318291e-05
1.273477e-05
9.3902525e-06
6.1566094e-06
4.0452404e-06
3.0517279e-06
2.7698672e-06
3.0344068e-06
3.83568e-06
6.7280822e-06
1.5507796e-05
3.1689199e-05
5.7313453e-05
8.8646311e-05
0.00012249029
0.00012684539
0.00012660957
0.00012902966
0.0001309563
0.00013394569
0.00013858588
0.00014599981
0.00015625963
0.00017085747
0.00019145101
0.00022269457
0.00026777872
0.00034516222
0.00046931817
0.00072126179
0.00099919807
3.6442001e-20
7.0874642e-18
1.8877531e-16
1.9137364e-15
1.1573e-14
5.1269445e-14
1.8510623e-13
5.791281e-13
1.6311647e-12
4.2417387e-12
1.0363238e-11
2.4087873e-11
5.3762618e-11
1.1603504e-10
2.4348469e-10
4.9883436e-10
1.0010947e-09
1.9730815e-09
3.8266783e-09
7.3136455e-09
1.3787861e-08
2.5651673e-08
4.7094288e-08
8.5265147e-08
1.5202766e-07
2.6632002e-07
4.5670518e-07
7.6253745e-07
1.2297745e-06
1.8939056e-06
2.7409338e-06
3.6485472e-06
4.3488811e-06
4.4928455e-06
4.0374888e-06
3.1931682e-06
2.3947348e-06
1.8320727e-06
1.634916e-06
1.8246771e-06
2.1628623e-06
3.1496602e-06
6.4172991e-06
1.4472918e-05
2.9140643e-05
5.2799051e-05
8.1212092e-05
0.00011196932
0.00012349528
0.00012292851
0.00012492231
0.00012641862
0.00012918808
0.00013345882
0.00013936702
0.00014752951
0.00015850438
0.00017465927
0.00019631512
0.00022782423
0.00027141939
0.00034614432
0.00046221227
0.00070491784
0.0010068207
1.8577511e-20
3.6130638e-18
9.623365e-17
9.7556581e-16
5.8993934e-15
2.6133576e-14
9.4347176e-14
2.9514464e-13
8.3117001e-13
2.1609277e-12
5.2778796e-12
1.2262579e-11
2.7353914e-11
5.8992975e-11
1.2366454e-10
2.5301645e-10
5.0687251e-10
9.9667747e-10
1.92707e-09
3.6682364e-09
6.8789471e-09
1.2709478e-08
2.3122236e-08
4.13664e-08
7.2606613e-08
1.2458082e-07
2.0784831e-07
3.3457853e-07
5.1397705e-07
7.4222763e-07
9.8789712e-07
1.1830234e-06
1.2535654e-06
1.2078923e-06
1.0956152e-06
9.6751887e-07
9.1380923e-07
9.7316986e-07
1.223391e-06
1.7301932e-06
2.9376247e-06
6.2028615e-06
1.3223541e-05
2.6655179e-05
4.8559517e-05
7.4370037e-05
0.00010243373
0.00011947602
0.00011807347
0.00011983741
0.00012118317
0.0001237751
0.00012756242
0.00013259648
0.00013916688
0.00014851315
0.00016099588
0.00017808107
0.00020015153
0.00023219107
0.00027528344
0.000348163
0.00045859287
0.00069645663
0.0010090223
8.066037e-21
1.5687271e-18
4.1782479e-17
4.235583e-16
2.5612085e-15
1.1345032e-14
4.0953325e-14
1.2809351e-13
3.606496e-13
9.3734895e-13
2.2884219e-12
5.3138408e-12
1.1844335e-11
2.5517871e-11
5.3419164e-11
1.0909877e-10
2.1804414e-10
4.2742298e-10
8.2309048e-10
1.5585563e-09
2.9027758e-09
5.3156064e-09
9.5593859e-09
1.6846805e-08
2.899736e-08
4.850841e-08
7.8320289e-08
1.2089638e-07
1.7623801e-07
2.3912661e-07
2.9856787e-07
3.4705989e-07
3.8600629e-07
4.2375296e-07
4.5933718e-07
5.1191211e-07
6.7397041e-07
9.9342551e-07
1.6058131e-06
2.8715815e-06
5.7781692e-06
1.1932375e-05
2.4263281e-05
4.457849e-05
6.8199311e-05
9.4021988e-05
0.0001144208
0.00011223435
0.00011414766
0.00011545059
0.0001177932
0.00012111513
0.00012563883
0.00013153452
0.00013927089
0.00014961339
0.00016260886
0.00018062411
0.00020381136
0.00023682095
0.00027890378
0.00034979741
0.00045491996
0.00068771073
0.0010141374
3.1745479e-21
6.174021e-19
1.6444109e-17
1.6669349e-16
1.0079318e-15
4.4643811e-15
1.6113828e-14
5.0393024e-14
1.4185212e-13
3.6857339e-13
8.9946868e-13
2.0875057e-12
4.6496949e-12
1.0008236e-11
2.0926097e-11
4.2671231e-11
8.5111778e-11
1.6641371e-10
3.1941876e-10
6.0233831e-10
1.1160321e-09
2.0305316e-09
3.6227608e-09
6.3238032e-09
1.0764646e-08
1.7791775e-08
2.8403576e-08
4.354923e-08
6.3762903e-08
8.9054827e-08
1.1951199e-07
1.5677791e-07
2.0864299e-07
2.7941446e-07
3.7997563e-07
5.8232703e-07
9.3263377e-07
1.5400027e-06
2.7183026e-06
5.2525568e-06
1.0744598e-05
2.2345444e-05
4.0963194e-05
6.248878e-05
8.6224095e-05
0.00010920951
0.00010643887
0.00010815734
0.00010928507
0.00011129943
0.00011421244
0.00011836974
0.00012370051
0.00013035041
0.0001386866
0.00014978378
0.00016399203
0.00018322973
0.00020691558
0.0002400073
0.00028175042
0.00035198598
0.00045375109
0.00068547777
0.0010142971
1.5289488e-21
2.973578e-19
7.9199489e-18
8.02847e-17
4.8545608e-16
2.1502491e-15
7.7614194e-15
2.4273756e-14
6.8334509e-14
1.7757646e-13
4.3344347e-13
1.006233e-12
2.2422056e-12
4.8291052e-12
1.0105657e-11
2.0631499e-11
4.1220782e-11
8.0786916e-11
1.5557768e-10
2.9473569e-10
5.4962981e-10
1.0090631e-09
1.8231178e-09
3.2387018e-09