/*--------------------------------*- C++ -*----------------------------------*\
  =========                 |
  \\      /  F ield         | OpenFOAM: The Open Source CFD Toolbox
   \\    /   O peration     | Website:  https://openfoam.org
    \\  /    A nd           | Version:  13
     \\/     M anipulation  |
\*---------------------------------------------------------------------------*/
FoamFile
{
    format      ascii;
    class       volScalarField;
    location    "49.6001";
    object      omega;
}
// * * * * * * * * * * * * * * * * * * * * * * * * * * * * * * * * * * * * * //

dimensions      [0 0 -1 0 0 0 0];

internalField   nonuniform List<scalar> 
17140
(
3736295.3
603677.93
185335.27
78621.666
40006.34
22786.787
13994.07
9063.892
6105.5619
4237.6098
3010.7008
2179.2813
1601.4948
1191.5972
895.78347
679.21365
518.71926
398.5386
307.73629
238.59521
185.58798
144.7039
112.99954
88.29327
68.9544
53.755714
41.769302
32.29241
24.794188
18.876445
14.242421
10.668113
7.9734296
5.9971672
4.585178
3.5948989
2.9064861
2.4288053
2.097592
1.8695509
1.7161415
1.6195187
1.5688465
1.5521843
1.5626692
1.5996716
1.6602907
1.7426201
1.8456252
1.9691337
2.1135884
2.2782064
2.4598736
2.6619794
2.9000121
3.1946849
3.5699135
4.0365494
4.3640217
4.4731
4.268222
3.9811157
3.5238077
2.9625789
2.2015161
3736320.9
603682.56
185336.97
78622.548
40006.875
22787.149
13994.334
9064.096
6105.7278
4237.7508
3010.8251
2179.3948
1601.6016
1191.7004
895.88549
679.31634
518.8241
398.64675
307.84864
238.71235
185.71021
144.83119
113.13151
88.429148
69.092981
53.895321
41.907773
32.427103
24.922039
18.99412
14.346643
10.756219
8.0440941
6.0508994
4.6241529
3.6221619
2.9250861
2.441291
2.1058918
1.8750566
1.7198479
1.6221094
1.5708024
1.5539532
1.5647249
1.6023229
1.6638989
1.7476061
1.8525204
1.9786328
2.1265492
2.2953092
2.4816252
2.690746
2.9421495
3.2647235
3.6999188
4.3007428
4.7592942
4.8506368
4.5640783
4.2271176
3.5468405
2.8636243
2.296495
3736345.9
603686.67
185338.25
78623.098
40007.166
22787.325
13994.455
9064.1874
6105.8041
4237.82
3010.8922
2179.463
1601.6731
1191.7769
895.96832
679.4065
518.9224
398.75379
307.9648
238.83781
185.84489
144.9747
113.28313
88.587742
69.256959
54.06258
42.075642
32.592311
25.080722
19.141947
14.479161
10.869569
8.1360024
6.1214728
4.6757978
3.6585978
2.9501733
2.4583093
2.1173393
1.882738
1.7250504
1.6257013
1.5733734
1.5561334
1.5670585
1.6052016
1.6677559
1.7529484
1.8599882
1.989075
2.1410261
2.3146294
2.5064564
2.7240697
2.9918665
3.3480685
3.8631424
4.6638703
5.3063206
5.1476231
4.8472129
4.5034703
3.7456637
2.8722162
2.4094711
3736372.1
603690.94
185339.58
78623.672
40007.468
22787.509
13994.582
9064.2848
6105.8863
4237.8953
3010.9657
2179.5382
1601.7524
1191.8621
896.06091
679.50758
519.0329
398.87443
308.0961
238.98007
185.99813
145.13864
113.4571
88.770637
69.447154
54.257844
42.273052
32.788176
25.27054
19.32049
14.640846
11.009296
8.2504368
6.210164
4.7412502
3.7051363
2.9824645
2.4803945
2.1323257
1.8928789
1.7319535
1.6304387
1.5766492
1.558774
1.5697162
1.6083447
1.6719
1.7586944
1.8680927
2.0005451
2.1571075
2.3361915
2.5343598
2.7621729
3.0499881
3.4463922
4.076629
5.135992
5.6320446
5.2379621
4.9611974
4.7422246
4.0351761
3.0179188
2.5299151
3736400.1
603695.48
185340.98
78624.274
40007.784
22787.703
13994.716
9064.3885
6105.9747
4237.977
3011.0462
2179.6209
1601.84
1191.9566
896.1637
679.61998
519.15592
399.00889
308.24262
239.13904
186.16968
145.32257
113.65284
88.977129
69.662786
54.480329
42.499308
33.014191
25.491277
19.529913
14.832284
11.176384
8.3886593
6.3183274
4.821778
3.7628512
3.022813
2.5082027
2.1513506
1.905862
1.7408535
1.6365594
1.5808335
1.5620519
1.5728628
1.6119184
1.6765152
1.7650585
1.877085
2.0133231
2.1750505
2.360137
2.5655147
2.8057814
3.117683
3.5601242
4.3424796
5.5233247
5.7274814
5.1335909
4.9377969
4.8256032
4.3012679
3.3246589
2.6960781
3736429.1
603700.17
185342.42
78624.895
40008.113
22787.904
13994.856
9064.4977
6106.0686
4238.0643
3011.1326
2179.7102
1601.9348
1192.059
896.27536
679.74221
519.28985
399.15546
308.40255
239.31283
186.35757
145.52449
113.8683
89.205197
69.901907
54.728229
42.752821
33.269081
25.742069
19.769861
15.05369
11.371609
8.5518843
6.447396
4.9187997
3.8329882
3.0722339
2.5425301
2.175032
1.9221699
1.7521322
1.6443708
1.5862363
1.5662325
1.5767755
1.6162044
1.6819226
1.7724186
1.8874025
2.0278731
2.1952466
2.3867392
2.6004375
2.8560875
3.1962888
3.6879531
4.6571427
5.77074
5.7472827
4.6896649
4.4278158
4.7533362
4.4589668
3.6359343
2.9784228
3736459.3
603705
185343.9
78625.536
40008.454
22788.114
13995.002
9064.612
6106.167
4238.1563
3011.2239
2179.8047
1602.0354
1192.1678
896.39405
679.87229
519.43254
399.31177
308.57334
239.49874
186.55897
145.74145
114.10052
89.451865
70.161615
54.998794
43.031097
33.550717
26.021283
20.039319
15.304771
11.595415
8.7411804
6.5988222
5.0338622
3.9169677
3.131919
2.5843317
2.2041242
1.9424033
1.7662789
1.6543005
1.5932569
1.5716854
1.581834
1.6216268
1.6886171
1.7813657
1.899724
2.0448812
2.2183387
2.4170709
2.6413389
2.9175255
3.2895059
3.8376978
5.0614157
5.9626159
5.7287347
4.4034695
3.4195293
4.2800687
4.453249
3.9291389
3.3552862
3736490.6
603710
185345.44
78626.201
40008.808
22788.332
13995.154
9064.7306
6106.2693
4238.2519
3011.3188
2179.903
1602.14
1192.281
896.51764
680.00782
519.58132
399.47496
308.75191
239.69345
186.77037
145.9698
114.3457
89.713294
70.438094
55.288335
43.330685
33.85603
26.326387
20.336462
15.58455
11.847743
8.9573309
6.7739808
5.1685904
4.0163712
3.2032448
2.634738
2.239538
1.9673026
1.7839157
1.6669126
1.6024039
1.5789041
1.5885597
1.6287925
1.6973307
1.7927882
1.9150537
2.0655024
2.2465818
2.4550749
2.6942218
2.9986293
3.4037828
4.0452476
5.5226716
6.1165836
5.7090272
4.1524237
2.4863286
3.1784248
4.234141
4.0811597
3.6659668
3736522
603715.16
185347.03
78626.889
40009.172
22788.555
13995.311
9064.8526
6106.3741
4238.3496
3011.4157
2180.0033
1602.2467
1192.3963
896.6436
680.14599
519.73313
399.64166
308.93458
239.89303
186.98758
146.20512
114.59926
89.984778
70.726604
55.592178
43.647111
34.180905
26.653813
20.658478
15.891173
12.127831
9.2006445
6.9740234
5.3245993
4.1329041
3.2877683
2.6950678
2.2823597
1.9977677
1.8058126
1.6829119
1.6143465
1.5885458
1.5976292
1.6385563
1.7091338
1.8080061
1.9349735
2.0926591
2.2846611
2.5073875
2.7707725
3.1135439
3.5554212
4.4045472
6.038154
6.2907479
5.6173487
3.5452238
1.9416105
1.9525754
3.5156373
3.9885161
3.8514043
3736555.2
603720.53
185348.69
78627.604
40009.548
22788.786
13995.471
9064.9771
6106.4805
4238.4483
3011.513
2180.1036
1602.3531
1192.5113
896.76914
680.28372
519.88455
399.8081
309.11727
240.09304
187.20584
146.44233
114.85584
90.26076
71.021457
55.90461
43.974775
34.520028
26.998753
21.001318
16.221623
12.433912
9.4706742
7.1996537
5.5033466
4.2683205
3.3872017
2.7668309
2.3338674
2.0348808
1.832913
1.7031797
1.6299567
1.6015
1.6097863
1.6521292
1.725608
1.8290333
1.96264
2.1316416
2.3399431
2.585906
2.8904441
3.2846546
3.803737
5.056947
6.5939673
6.4251772
5.1258347
2.8109694
1.5955043
1.2213799
2.0717381
3.5335188
3.6741613
3736589.7
603726.1
185350.41
78628.347
40009.939
22789.025
13995.635
9065.1033
6106.5872
4238.5462
3011.6089
2180.2019
1602.457
1192.6232
896.8911
680.4175
520.03169
399.97003
309.29532
240.28845
187.41972
146.67565
115.10934
90.534838
71.316032
56.218889
44.30695
34.866862
27.355084
21.359553
16.571485
12.762923
9.7659245
7.4508695
5.7059376
4.4243023
3.5033561
2.8517144
2.3955411
2.0799292
1.8663647
1.7288135
1.6503805
1.6191452
1.6274362
1.6713513
1.7491567
1.8592546
2.0036324
2.1911947
2.4255899
2.7128853
3.0861678
3.5559903
4.2867343
6.1249211
7.1200992
6.5257359
4.3009861
2.1093221
1.1857097
0.77538358
0.96879005
2.2147127
2.768767
3736625.1
603731.84
185352.19
78629.113
40010.343
22789.27
13995.802
9065.2297
6106.6926
4238.6418
3011.7015
2180.2959
1602.5559
1192.7294
897.00655
680.54402
520.17088
400.1234
309.46428
240.47437
187.62393
146.89936
115.35362
90.80051
71.603519
56.527988
44.63652
35.214386
27.716116
21.72712
16.935653
13.111017
10.084068
7.7269189
5.9329665
4.6023045
3.6380417
2.9515394
2.4690601
2.1344302
1.9075737
1.7611401
1.6770503
1.6432708
1.6520299
1.69889
1.783554
1.9044171
2.067761
2.2865567
2.5657308
2.9296052
3.4166043
4.0304241
5.335112
7.4551916
7.3660026
6.1907706
3.0609432
1.5145628
0.83360798
0.56634476
0.54838248
0.86015891
1.0332542
3736662.3
603737.84
185354.04
78629.907
40010.759
22789.52
13995.971
9065.3555
6106.7957
4238.7335
3011.7888
2180.3836
1602.6472
1192.8268
897.11221
680.65964
520.29807
400.26368
309.61917
240.64537
187.81252
147.10701
115.58175
91.050373
71.876079
56.823708
44.955033
35.55405
28.073426
22.096023
17.306966
13.472365
10.420963
8.0255505
6.1839586
4.8031795
3.7928487
3.0681562
2.5562735
2.200153
1.9582598
1.8019019
1.7120163
1.6763001
1.6867151
1.7390404
1.8350368
1.9747927
2.1727628
2.4445306
2.8054649
3.3107409
3.9838405
5.0199893
7.3205524
8.1492595
7.413702
4.7092683
2.1288636
1.0356281
0.61964567
0.46915118
0.38204138
0.41433422
0.40308119
3736699.8
603743.97
185355.94
78630.722
40011.185
22789.774
13996.14
9065.4789
6106.8944
4238.8193
3011.8688
2180.4625
1602.7282
1192.9125
897.20459
680.76043
520.40887
400.38604
309.75462
240.79549
187.97896
147.29147
115.78595
91.276005
72.124677
57.096435
45.252381
35.875385
28.416379
22.455752
17.675431
13.838
10.769371
8.3418655
6.4565223
5.0266129
3.9688014
3.2032581
2.6591295
2.2791367
2.0205699
1.8535152
1.7580856
1.7218151
1.7362652
1.7988284
1.9146198
2.0897493
2.3501236
2.7127752
3.2301055
3.9779735
5.0911076
7.3000489
8.7790893
8.353029
6.6056798
2.8728469
1.3008742
0.72992726
0.51091609
0.40636361
0.31912753
0.28035503
0.22924725
3736738.4
603750.28
185357.89
78631.564
40011.622
22790.032
13996.308
9065.5994
6106.988
4238.898
3011.9399
2180.5307
1602.7968
1192.984
897.28083
680.84314
520.4996
400.48629
309.86593
240.91949
188.11738
147.4462
115.95899
91.469463
72.340622
57.33675
45.518463
36.167712
28.733899
22.795114
18.030154
14.197895
11.120795
8.6694999
6.7466389
5.2708903
4.1660072
3.3581133
2.7795385
2.3736793
2.0971761
1.9192041
1.8193583
1.7854465
1.8083838
1.8903072
2.0420384
2.2855845
2.6526809
3.1846045
3.989587
5.2739611
7.6586778
9.4151131
9.2255285
7.8796039
3.9567586
1.7373515
0.90098075
0.56785885
0.42346789
0.33720878
0.27670563
0.23247221
0.17825222
3736780.4
603757.05
185359.95
78632.439
40012.071
22790.295
13996.477
9065.7162
6107.0754
4238.9682
3012.0004
2180.5863
1602.8507
1193.0386
897.33804
680.90453
520.56662
400.56038
309.94857
241.0123
188.22215
147.56493
116.09392
91.62302
72.515386
57.535292
45.743086
36.420049
29.014324
23.101962
18.358823
14.540055
11.464212
8.9991662
7.0475989
5.5320932
4.3830175
3.5331135
2.9191322
2.4863117
2.1914814
2.0035247
1.902156
1.8764424
1.9163857
2.0356309
2.2574234
2.6293843
3.1831732
4.0430112
5.4964566
8.2295548
10.143292
10.062067
8.8810106
5.1370959
2.1871045
1.077538
0.65364369
0.47934271
0.36610573
0.29553624
0.2352221
0.19816159
0.15531106
3736824.8
603764.07
185362.09
78633.346
40012.535
22790.561
13996.644
9065.8284
6107.1554
4239.0287
3012.049
2180.6277
1602.8882
1193.0744
897.37386
680.94189
520.60684
400.60477
309.99853
241.06937
188.28811
147.64182
116.18412
91.729232
72.640617
57.682729
45.915889
36.620987
29.245231
23.362975
18.64745
14.850239
11.785793
9.3183957
7.3493036
5.8032291
4.6160174
3.7271552
3.078924
2.6197974
2.3080472
2.1133934
2.0169537
2.0105964
2.0852706
2.2794587
2.6475064
3.242092
4.1584459
5.783868
8.9002844
10.936898
10.887908
9.783725
6.2585951
2.6902233
1.2939506
0.75578914
0.52193021
0.39933423
0.31694324
0.25510599
0.20583445
0.1706237
0.13490113
3736869.6
603771.23
185364.29
78634.28
40013.009
22790.831
13996.809
9065.9353
6107.2274
4239.0787
3012.0846
2180.6537
1602.9077
1193.0895
897.38632
680.95292
520.61758
400.61636
310.01219
241.0865
188.31039
147.6713
116.22328
91.781008
72.708379
57.770119
46.026811
36.759275
29.414137
23.564449
18.881233
15.112847
12.069713
9.6120506
7.6384428
6.0739123
4.8581926
3.9370196
3.2589832
2.7773306
2.4535684
2.2603015
2.1830684
2.2144923
2.3668524
2.7194064
3.3666556
4.3709062
6.1561306
9.664526
11.774117
11.72834
10.651125
7.2214408
3.1845458
1.5245652
0.86315127
0.58478097
0.45069953
0.35468831
0.28490477
0.2281341
0.17984193
0.1500867
0.12203771
3736913.9
603778.55
185366.54
78635.231
40013.491
22791.102
13996.972
9066.0363
6107.2907
4239.1174
3012.1064
2180.6633
1602.9082
1193.083
897.37408
680.93611
520.59715
400.59319
309.98727
241.06097
188.28566
147.64915
116.20591
91.771239
72.709742
57.787087
46.064383
36.822694
29.508214
23.692515
19.04511
15.311673
12.298927
9.8629459
7.8988359
6.3303776
5.0994545
4.1570705
3.4585184
2.9634815
2.6392881
2.4650457
2.4360525
2.547357
2.8733682
3.5622329
4.6819056
6.6642844
10.502041
12.658864
12.598324
11.52284
8.1049826
3.6559267
1.7678705
0.98311077
0.65282358
0.49064747
0.38040612
0.30124013
0.23969935
0.19759111
0.16090823
0.13248724
0.10974915
3736961
603786.19
185368.89
78636.22
40013.988
22791.379
13997.133
9066.132
6107.3454
4239.1447
3012.1141
2180.6561
1602.8891
1193.0538
897.33622
680.8904
520.54432
400.53393
309.92235
240.99134
188.21256
147.57418
116.13119
91.699424
72.64408
57.731376
46.023156
36.801253
29.51282
23.730505
19.122032
15.429577
12.455632
10.052791
8.1125278
6.5564687
5.3272588
4.3801571
3.677469
3.1874497
2.8875339
2.7710419
2.8403419
3.1432275
3.8597774
5.1242104
7.3049995
11.454908
13.591606
13.504376
12.422145
8.9823653
4.1332322
2.0215064
1.1180286
0.72563424
0.527092
0.40374882
0.32384268
0.26664374
0.21772103
0.17608538
0.14362186
0.12263379
0.10326527
3737011.6
603794.25
185371.34
78637.247
40014.501
22791.659
13997.293
9066.2221
6107.3911
4239.16
3012.107
2180.6314
1602.8496
1193.0013
897.27169
680.8146
520.45774
400.43702
309.81562
240.87549
188.0886
147.44355
115.99584
91.561957
72.507846
57.600507
45.902566
36.696515
29.429831
23.674971
19.100153
15.448412
12.520834
10.16348
8.2620798
6.7365047
5.5298972
4.6016201
3.92217
3.4722237
3.2476397
3.26634
3.5515594
4.3061592
5.7393857
8.1300171
12.497535
14.592759
14.462293
13.366714
9.8870069
4.6274459
2.2898987
1.2673533
0.81002779
0.57486505
0.43557382
0.35211078
0.28902903
0.23457376
0.19129399
0.15744239
0.12893813
0.11108074
0.096043775
3737062.3
603802.44
185373.84
78638.301
40015.024
22791.942
13997.45
9066.3055
6107.4271
4239.1628
3012.0846
2180.5885
1602.789
1192.9246
897.17973
680.70787
520.3365
400.30147
309.66602
240.7123
187.91257
147.25588
115.79832
91.357091
72.298972
57.391901
45.699474
36.505098
29.256972
23.52794
18.986131
15.373543
12.490321
10.183549
8.3368446
6.8622843
5.7049354
4.8301622
4.2206409
3.8783038
3.8360685
4.1202796
4.9373348
6.5635635
9.1723851
13.628132
15.662845
15.478372
14.359409
10.821489
5.1546876
2.5808626
1.433386
0.90942468
0.63573959
0.47616526
0.37912753
0.3042661
0.24555059
0.20263022
0.16749195
0.14043352
0.1186029
0.1040352
0.092015912
3737113.2
603810.79
185376.42
78639.381
40015.558
22792.227
13997.605
9066.3825
6107.4534
4239.1528
3012.0466
2180.5272
1602.707
1192.8234
897.06004
680.56999
520.18049
400.12731
309.47374
240.50213
187.68506
147.01206
115.53982
91.086311
72.019248
57.107632
45.416214
36.229567
28.996955
23.292043
18.783378
15.212832
12.379935
10.130589
8.3487045
6.948323
5.8772846
5.1119188
4.6572714
4.5570142
4.8596273
5.7703693
7.6023484
10.409033
14.828065
16.819358
16.562267
15.403249
11.769445
5.7271925
2.9057204
1.6198496
1.0251095
0.70850738
0.52279913
0.40787106
0.32387284
0.26558682
0.22305366
0.18597761
0.15510807
0.1306215
0.111664
0.099486725
0.088916848
3737167.7
603819.61
185379.11
78640.502
40016.109
22792.519
13997.759
9066.4541
6107.4707
4239.1309
3011.9939
2180.4484
1602.6047
1192.699
896.91424
680.40292
519.99207
399.91739
309.24223
240.24913
187.41103
146.71791
115.22713
90.757503
71.677738
56.758028
45.064454
35.883012
28.66439
22.98356
18.510154
14.986812
12.213534
10.036538
8.3404585
7.0512958
6.1294367
5.5742879
5.4352801
5.7784416
6.8137034
8.8395561
11.810584
16.098164
18.052907
17.743353
16.503369
12.705674
6.3635993
3.2775179
1.836655
1.157787
0.7910403
0.57590078
0.44242579
0.35069647
0.28741749
0.23822938
0.19588951
0.16270759
0.13791862
0.11844067
0.10317764
0.093427342
0.085387527
3737225.4
603828.82
185381.92
78641.674
40016.683
22792.82
13997.914
9066.5228
6107.4818
4239.1001
3011.9298
2180.3561
1602.4868
1192.5569
896.74865
680.21393
519.77959
399.68126
308.98236
239.96566
187.10443
146.38919
114.878
90.390552
71.296659
56.367833
44.671688
35.495937
28.293125
22.640169
18.208702
14.743467
12.04681
9.9678069
8.4040277
7.3017257
6.6470877
6.4861584
6.8905281
8.0719297
10.285479
13.364108
17.453046
19.375961
19.013295
17.649356
13.660605
7.1073116
3.7336425
2.0965515
1.3029111
0.87982691
0.63609217
0.4854927
0.38300711
0.31093796
0.25447278
0.20971658
0.17710187
0.15177187
0.13005771
0.1128686
0.099402102
0.090872268
0.083586479
3737283.9
603838.24
185384.81
78642.885
40017.274
22793.13
13998.074
9066.5925
6107.4919
4239.0666
3011.862
2180.2589
1602.3633
1192.4087
896.57634
680.01789
519.5599
399.43794
308.71552
239.67567
186.79205
146.05575
114.52556
90.022148
70.916534
55.981715
44.287094
35.122492
27.942911
22.328129
17.95325
14.566975
11.977652
10.055899
8.7222943
7.9445852
7.759839
8.2293627
9.5462044
11.931918
15.0875
18.936911
20.811861
20.384128
18.866459
14.656525
7.9312163
4.2292098
2.3516408
1.4376995
0.97109224
0.70842146
0.53851793
0.42050073
0.33691255
0.27421335
0.22706081
0.19240215
0.16253411
0.13741903
0.11871318
0.10474732
0.094874522
0.087881439
0.081817782
3737344.3
603848.04
185387.8
78644.139
40017.891
22793.455
13998.245
9066.6719
6107.511
4239.0425
3011.8042
2180.173
1602.2525
1192.2749
896.42074
679.84115
519.36249
399.2203
308.47825
239.41963
186.51855
145.76669
114.22368
89.711224
70.601705
55.669842
43.987204
34.846284
27.705239
22.147163
17.85517
14.592776
12.19147
10.53833
9.5830119
9.3443963
9.8567562
11.289798
13.79575
17.019154
20.610283
22.386969
21.878237
20.167126
15.683095
8.8185387
4.7600855
2.6297991
1.6033535
1.0987878
0.80488478
0.60288582
0.46159132
0.36652043
0.2979995
0.24763815
0.20738369
0.1731868
0.14716675
0.12854405
0.11341448
0.10098531
0.091217233
0.085049547
0.08010458
3737407.1
603858.18
185390.92
78645.444
40018.538
22793.805
13998.438
9066.7733
6107.5537
4239.0445
3011.7757
2180.1203
1602.1796
1192.1842
896.31405
679.71978
519.2276
399.07304
308.31995
239.25192
186.34352
145.58707
114.04297
89.534023
70.434144
55.520192
43.866795
34.77103
27.698424
22.244885
18.106817
15.064314
12.968723
11.741565
11.373358
11.871446
13.353881
15.928533
19.203389
22.542812
24.120889
23.512667
21.560978
16.735781
9.7641721
5.3380635
2.9409659
1.7952265
1.235969
0.89613343
0.65957214
0.50389137
0.40083342
0.32698322
0.27030034
0.22393296
0.18694299
0.1602564
0.13898783
0.12046726
0.10580409
0.095779281
0.088515391
0.083688432
0.079218206
3737471.9
603868.67
185394.15
78646.807
40019.224
22794.187
13998.663
9066.9087
6107.6341
4239.0888
3011.7954
2180.1225
1602.1688
1192.164
896.28702
679.6881
519.1933
399.03823
308.28692
239.22336
186.32275
145.57832
114.05189
89.568244
70.503961
55.639597
44.054937
35.054263
28.11299
22.840287
18.950914
16.248553
14.616275
14.010938
14.406869
15.824801
18.414327
21.689668
24.792997
26.02517
25.289724
23.053137
17.814098
10.763086
5.9633451
3.2845366
2.0045224
1.3817745
0.99574093
0.73569
0.56785393
0.45091025
0.36138445
0.29516703
0.24287403
0.20397107
0.17365935
0.14828367
0.12779483
0.11301396
0.10226421
0.093461297
0.086534793
0.081700836
0.077989687
3737539.4
603879.61
185397.5
78648.234
40019.952
22794.606
13998.924
9067.0834
6107.7581
4239.1828
3011.8716
2180.1892
1602.2319
1192.2278
896.35539
679.76457
519.28142
399.14177
308.41017
239.3713
186.5014
145.7951
114.31612
89.891856
70.902618
56.134264
44.674189
35.83723
29.112655
24.126778
20.617225
18.415213
17.433616
17.617074
18.823572
21.288214
24.577695
27.415489
28.136799
27.203131
24.642343
18.921552
11.804385
6.633286
3.6571581
2.2330696
1.5400285
1.1120125
0.82594787
0.63697519
0.49550058
0.39137021
0.31852105
0.26544734
0.22351655
0.18871279
0.1594102
0.13810785
0.12179264
0.10871215
0.09774669
0.089728805
0.084122361
0.080380622
0.077278666
3737610.3
603890.99
185400.99
78649.726
40020.723
22795.058
13999.219
9067.293
6107.9211
4239.3211
3011.9989
2180.3146
1602.3625
1192.3696
896.51348
679.94424
519.48818
399.3817
308.69023
239.69972
186.88807
146.25217
114.85879
90.539478
71.680191
57.074607
45.820059
37.244556
30.854038
26.295226
23.32827
21.804042
21.638389
22.532019
24.643462
27.67346
30.370748
30.450589
29.265529
26.224217
20.075506
12.879629
7.3406335
4.0589351
2.4824771
1.7159037
1.2427058
0.9275753
0.7100782
0.54863196
0.4348671
0.3570102
0.2957745
0.24692386
0.20514406
0.17332623
0.14960605
0.13052731
0.1146741
0.10280038
0.093986149
0.087840709
0.083026054
0.079481048
0.076648014
3737682.9
603902.72
185404.61
78651.276
40021.53
22795.541
13999.542
9067.5333
6108.1183
4239.4983
3012.1712
2180.4926
1602.5547
1192.5833
896.75597
680.22283
519.81091
399.75773
309.13025
240.21647
187.497
146.97233
115.71402
91.559716
72.903273
58.548357
47.605006
39.416299
33.505369
29.535386
27.275497
26.564548
27.091357
28.677768
31.004551
33.373109
33.005874
31.459776
27.776729
21.281224
13.966324
8.0670752
4.4854349
2.7567722
1.909982
1.388421
1.0382571
0.79367748
0.61229599
0.48781583
0.39493016
0.32164267
0.26540326
0.22308101
0.18935963
0.16293156
0.13992935
0.12264549
0.10966946
0.10002788
0.092000889
0.085817864
0.081229837
0.07824564
0.075907803
3737758.4
603914.96
185408.37
78652.892
40022.381
22796.06
13999.902
9067.8123
6108.3589
4239.7257
3012.4018
2180.7388
1602.8267
1192.8906
897.10805
680.62985
520.28428
400.31063
309.77825
240.97829
188.39553
148.03556
116.97645
93.064095
74.702455
60.70705
50.201249
42.541095
37.258135
34.011024
32.537236
32.580772
33.450429
35.088267
36.579048
35.854387
33.79838
29.358186
22.538981
15.03044
8.8000886
4.9473475
3.0665609
2.1282291
1.5485487
1.1617592
0.88855887
0.68857666
0.54564062
0.43748314
0.35390385
0.29534271
0.24931082
0.21168956
0.17796504
0.15189085
0.13224353
0.11779567
0.10556597
0.095866366
0.088872376
0.084020958
0.080257535
0.077732984
0.075587919
3737836.4
603927.57
185412.26
78654.582
40023.288
22796.631
14000.316
9068.1524
6108.6695
4240.034
3012.7264
2181.0943
1603.2257
1193.3451
897.63062
681.23432
520.98634
401.12858
310.73386
242.09776
189.71052
149.58469
118.80658
95.231654
77.274235
63.759026
53.817531
46.804583
42.232805
39.711831
38.893818
39.246955
40.233081
40.045579
38.820482
36.108352
30.990621
23.797172
16.031114
9.526071
5.4546166
3.4190601
2.3668045
1.7207387
1.2964511
0.99717496
0.77440035
0.61190763
0.48625267
0.39554322
0.32777965
0.27359108
0.22845812
0.19319783
0.16442369
0.14364654
0.1257938
0.11171641
0.10088894
0.093642806
0.087499817
0.082874826
0.079300453
0.076951
0.075022509
3737916.9
603940.62
185416.32
78656.37
40024.276
22797.281
14000.814
9068.5865
6109.0881
4240.467
3013.1954
2181.6164
1603.8164
1194.02
898.40617
682.12886
522.02091
402.32794
312.12753
243.72125
191.60676
151.80554
121.41433
98.29392
80.850706
67.902045
58.590439
52.235812
48.279056
46.202267
45.517269
45.127617
43.920553
41.659044
38.253465
32.505306
24.935003
16.950263
10.292121
6.0510496
3.8305774
2.6305828
1.9091359
1.4501096
1.1219768
0.87382272
0.6873245
0.54636531
0.4426511
0.36450741
0.30009682
0.25297443
0.21551672
0.18494144
0.1576216
0.13654052
0.11979559
0.10845977
0.098743779
0.091121233
0.085168555
0.081360533
0.078297237
0.076329783
0.074643494
3738001.3
603954.29
185420.58
78658.276
40025.359
22798.025
14001.415
9069.1387
6109.6433
4241.0584
3013.8473
2182.3493
1604.6495
1194.9729
899.50005
683.38749
523.47189
404.00384
314.06727
245.9713
194.22098
154.84346
124.93504
102.35308
85.492791
73.146595
64.40329
58.547136
54.884076
52.578974
50.471308
47.854014
44.798016
40.472403
34.051974
26.107658
17.968274
11.210458
6.7649144
4.2873837
2.9065624
2.1113579
1.620037
1.2610192
0.98299594
0.7740502
0.61512255
0.49777356
0.40490085
0.33459142
0.28082985
0.2384843
0.20115798
0.1710152
0.14671325
0.12958281
0.11530128
0.1039401
0.095045669
0.088864612
0.084145803
0.080702681
0.077842768
0.076001706
0.074375003
3738088.5
603968.47
185425.04
78660.301
40026.542
22798.876
14002.136
9069.8283
6110.3573
4241.8334
3014.7109
2183.3255
1605.7613
1196.2439
900.9561
685.05753
525.38881
406.205
316.59424
248.86898
197.53691
158.62509
129.22615
107.18575
90.882171
79.027822
70.594358
64.630369
60.165919
56.269946
52.413096
48.302828
42.888288
35.728126
27.403149
19.111749
12.22364
7.5185245
4.7525449
3.2024975
2.346965
1.8185714
1.4194991
1.1097017
0.87613872
0.69823408
0.56132012
0.45524862
0.37424547
0.31358876
0.26180125
0.22254327
0.19044802
0.16487083
0.14202348
0.12500854
0.1107202
0.10129806
0.093445726
0.087604166
0.082752715
0.079532729
0.076986324
0.075446033
0.074023007
3738178.6
603983.15
185429.68
78662.441
40027.829
22799.834
14002.977
9070.6556
6111.2299
4242.791
3015.7843
2184.5416
1607.146
1197.8238
902.75927
687.11458
527.7328
408.87107
319.61842
252.28538
201.37189
162.88852
133.89842
112.20019
96.105099
84.266802
75.453827
68.594833
62.838171
57.592436
52.169123
45.553131
37.617029
28.899374
20.432109
13.369435
8.3800367
5.3210894
3.5939734
2.6442291
2.0430661
1.5907301
1.2498209
0.99277845
0.79130542
0.63486288
0.5126611
0.4215996
0.34867483
0.29184339
0.24684401
0.21209381
0.18034323
0.15440422
0.13363425
0.11924087
0.10747527
0.09846012
0.090635531
0.085678746
0.08157199
0.07892554
0.076536471
0.075220787
0.073865625
3738271.2
603998.33
185434.51
78664.695
40029.213
22800.888
14003.922
9071.5996
6112.2349
4243.8991
3017.0283
2185.9501
1608.7467
1199.6446
904.82915
689.46338
530.39062
411.86636
322.97405
256.01286
205.46248
167.3007
138.54159
116.9154
100.64347
88.282371
78.626358
70.651633
63.601833
56.512593
48.621265
39.872178
30.720303
22.016953
14.71424
9.3968602
6.0069117
4.0468149
2.9510438
2.262129
1.7714807
1.4116198
1.1302279
0.90181446
0.72240657
0.58424598
0.47696984
0.39299935
0.32641339
0.27664292
0.23328908
0.19988088
0.17164191
0.1497301
0.13014671
0.11619798
0.10407769
0.095924727
0.089442479
0.084864185
0.08087971
0.078312497
0.076203797
0.07482254
0.07358672
3738367.1
604011.25
185437.16
78665.226
40029.334
22801.006
14004.163
9072.0117
6112.8411
4244.7147
3018.0673
2187.2277
1610.2792
1201.4501
906.92658
691.87099
533.12343
414.932
326.36717
259.70677
209.39868
171.37692
142.60044
120.7378
103.95355
90.769597
80.023462
70.677145
61.629788
52.329692
42.673776
32.991535
23.953487
16.323819
10.617105
6.8419049
4.5886912
3.3127441
2.5347878
2.006675
1.6134148
1.2908763
1.0282602
0.82467161
0.66619836
0.54203994
0.44298585
0.36835619
0.30791868
0.26042607
0.22150199
0.19199103
0.16426002
0.14179416
0.12376334
0.11170086
0.10139085
0.094205171
0.087631591
0.083332182
0.079806085
0.077594821
0.07566039
0.074631208
0.073491122
3739014.3
604121.95
185474.48
78682.993
40039.506
22807.621
14008.906
9075.6982
6115.9139
4247.4363
3020.6055
2189.6969
1612.762
1204.0081
909.60591
694.70419
536.12825
418.10791
329.68952
263.11917
212.80452
174.63226
145.51199
123.07027
105.4632
91.180895
78.888851
67.575526
56.652914
45.917686
35.55664
26.068147
18.050599
11.934694
7.763648
5.1917559
3.7146408
2.8325093
2.2476585
1.8072917
1.4479204
1.1629661
0.9407612
0.76141944
0.61748375
0.50472748
0.41644433
0.3472047
0.29056685
0.24844594
0.21099322
0.18212077
0.15707835
0.13819066
0.12108641
0.10950471
0.09906381
0.091784028
0.086178837
0.082646222
0.079372079
0.077293001
0.075409911
0.074346504
0.073370634
3739013.7
604118.96
185472.1
78681.294
40038.413
22806.976
14008.607
9075.6864
6116.1555
4247.9137
3021.311
2190.6289
1613.9217
1205.3968
911.22132
696.53651
538.15471
420.28623
331.95052
265.35941
214.88084
176.36174
146.68613
123.43351
104.65862
88.840205
74.87189
62.027738
49.966531
38.72006
28.615458
20.101373
13.513184
8.895909
5.944599
4.2120009
3.1844019
2.5207038
2.0340556
1.6479935
1.3391818
1.0854047
0.87488291
0.70716313
0.57616847
0.47335517
0.3902696
0.32730849
0.27556291
0.23513158
0.20100928
0.17569895
0.15111009
0.13145805
0.11588294
0.10548314
0.096814055
0.090739605
0.085288144
0.081597659
0.078558028
0.076714283
0.075098335
0.074083575
0.073254419
3739013.8
604119.1
185472.25
78681.497
40038.678
22807.309
14009.017
9076.1807
6116.7437
4248.605
3022.114
2191.5507
1614.9663
1206.5629
912.49929
697.90423
539.57281
421.69281
333.25643
266.44654
215.59787
176.51146
146.00029
121.6353
101.56877
84.429385
69.275848
55.57547
43.171194
32.201917
22.959664
15.694846
10.446488
6.9594531
4.8532414
3.6077735
2.8348993
2.2941835
1.8723669
1.525889
1.2349785
0.99775237
0.8109747
0.66162531
0.54129197
0.44589954
0.37036522
0.31154374
0.26225295
0.22588598
0.19296201
0.16790377
0.14565053
0.1289181
0.11396937
0.10394928
0.094995237
0.088749442
0.083887191
0.080887579
0.078025669
0.076349461
0.074858831
0.073988293
0.073187557
3739014
604119.18
185472.32
78681.588
40038.798
22807.465
14009.212
9076.4226
6117.0376
4248.9561
3022.5261
2192.0248
1615.4989
1207.1434
913.10727
698.50526
540.1141
422.09803
333.41952
266.22248
214.80465
174.95658
143.5252
118.13813
97.035041
78.97024
63.153266
49.194106
37.021893
26.759366
18.566657
12.483501
8.3100517
5.7008982
4.1535226
3.2261484
2.6079656
2.1367866
1.749834
1.4273512
1.1638947
0.94856496
0.77047062
0.62649407
0.51307127
0.42390851
0.35148202
0.29674208
0.25087438
0.2157768
0.18534917
0.16329774
0.14114228
0.12391202
0.11002097
0.1010585
0.09326997
0.087803255
0.083375733
0.080300103
0.077699786
0.076108761
0.074630667
0.073812948
0.073118885
3739014.9
604119.26
185472.32
78681.573
40038.781
22807.45
14009.203
9076.4221
6117.0486
4248.9799
3022.5619
2192.0678
1615.5384
1207.16
913.06915
698.3644
539.80257
421.52553
332.47418
264.77898
212.73616
172.14824
139.89899
113.68316
91.837644
73.233254
57.191934
43.398656
31.788062
22.402981
15.252168
10.187187
6.8958659
4.9021298
3.7218647
2.973957
2.4344187
2.0038995
1.6461423
1.3466058
1.0951179
0.88849374
0.72409526