/*--------------------------------*- C++ -*----------------------------------*\
  =========                 |
  \\      /  F ield         | OpenFOAM: The Open Source CFD Toolbox
   \\    /   O peration     | Website:  https://openfoam.org
    \\  /    A nd           | Version:  13
     \\/     M anipulation  |
\*---------------------------------------------------------------------------*/
FoamFile
{
    format      ascii;
    class       surfaceScalarField;
    location    "17.896469";
    object      phi;
}
// * * * * * * * * * * * * * * * * * * * * * * * * * * * * * * * * * * * * * //

dimensions      [0 3 -1 0 0 0 0];

internalField   nonuniform List<scalar> 
34068
(
-8.8176231e-08
1.2629975e-07
-3.8123515e-08
-3.9167018e-07
4.3417132e-07
-1.3067738e-07
-9.8096848e-07
8.4285543e-07
-2.5355713e-07
-1.9438047e-06
1.3781266e-06
-4.1529036e-07
-3.3887343e-06
2.0715635e-06
-6.2663391e-07
-5.4492918e-06
2.9616319e-06
-9.0107433e-07
-8.2888038e-06
4.0949335e-06
-1.2554215e-06
-1.210589e-05
5.5275766e-06
-1.7104904e-06
-1.7140676e-05
7.3266494e-06
-2.2918632e-06
-2.3681699e-05
9.5717428e-06
-3.0307197e-06
-3.2073415e-05
1.2356416e-05
-3.9646998e-06
-4.2724159e-05
1.5789491e-05
-5.1387471e-06
-5.6114272e-05
1.9995952e-05
-6.6058389e-06
-7.2803968e-05
2.5117183e-05
-8.4274871e-06
-9.344033e-05
3.1310167e-05
-1.0673804e-05
-0.00011876256
3.8745151e-05
-1.3422919e-05
-0.00014960438
4.7601199e-05
-1.6759378e-05
-0.00018689214
5.8058931e-05
-2.0771176e-05
-0.00023163693
7.0289684e-05
-2.5544892e-05
-0.00028491898
8.4440591e-05
-3.1158545e-05
-0.00034786265
0.00010061552
-3.7671848e-05
-0.00042160198
0.0001188537
-4.5114368e-05
-0.00050723979
0.0001391117
-5.3473884e-05
-0.00060581106
0.00016126224
-6.2690975e-05
-0.00071827239
0.00018513232
-7.267098e-05
-0.00084554857
0.00021060091
-8.3324733e-05
-0.00098865394
0.00023773795
-9.463258e-05
-0.0011488622
0.0002669029
-0.00010669468
-0.0013278665
0.00029873382
-0.00011972947
-0.0015279358
0.00033410843
-0.00013403915
-0.0017520854
0.00037412678
-0.00014997721
-0.0020040073
0.00041977014
-0.00016784825
-0.0022867604
0.00047015177
-0.00018739864
-0.0026024849
0.00052398933
-0.00020826485
-0.0029534921
0.00058105465
-0.00023004738
-0.0033423676
0.000640919
-0.00025204358
-0.0037716598
0.00070240602
-0.00027311373
-0.0042438012
0.00076374695
-0.00029160556
-0.0047612471
0.00082259988
-0.00030515399
-0.0053267984
0.00087611332
-0.00031056204
-0.0059445229
0.00092163513
-0.0003039106
-0.0066215118
0.00095787147
-0.00028088255
-0.0073702683
0.00098709453
-0.00023833812
-0.0082104333
0.0010172129
-0.00017704784
-0.0091618289
0.0010501619
-9.8766295e-05
-0.010242549
0.0010661964
1.452404e-05
-0.011470853
0.0010479117
0.00018039239
-0.012867557
0.00098127718
0.00041542639
-0.014457838
0.00085368136
0.00073659916
-0.016272309
0.00065550529
0.0011589665
-0.018347115
0.00037784421
0.0016969612
-0.020723043
1.058491e-05
0.0023653429
-0.023441897
-0.00045728147
0.003176136
-0.026537912
-0.0010362537
0.0041322684
-0.030024923
-0.0017401756
0.0052271866
-0.033882571
-0.0025715494
0.006429198
-0.038026432
-0.0034894165
0.0076332771
-0.042262525
-0.0044184587
0.0086545515
-0.046379704
-0.0051269164
0.0092440957
-0.049609808
-0.0055253965
0.0087555
-0.050560524
-0.0054998398
0.0064505568
-0.047404968
-0.004619341
0.0014637849
-0.037541402
-0.0031116424
-0.0067519242
-0.019514686
-0.0024223245
-0.015604392
-0.0037762585
0.005210993
-0.02094942
-8.8008427e-08
2.1430817e-07
-3.9093449e-07
7.3709739e-07
-9.7915008e-07
1.431071e-06
-1.9402984e-06
2.3392749e-06
-3.3828575e-06
3.5141226e-06
-5.440319e-06
5.0190934e-06
-8.276025e-06
6.9306395e-06
-1.2088709e-05
9.3402608e-06
-1.711877e-05
1.2356711e-05
-2.365525e-05
1.6108222e-05
-3.2043459e-05
2.0744625e-05
-4.2693067e-05
2.6439099e-05
-5.6086437e-05
3.3389322e-05
-7.278672e-05
4.1817466e-05
-9.3445152e-05
5.1968599e-05
-0.00011880668
6.410668e-05
-0.00014971276
7.8507276e-05
-0.00018709987
9.5446046e-05
-0.00023199213
0.00011518194
-0.00028548589
0.00013793435
-0.00034872481
0.00016385443
-0.00042286476
0.00019299365
-0.00050903137
0.00022527831
-0.0006082798
0.00026051067
-0.00072157812
0.00029843064
-0.00084984497
0.00033886776
-0.00099406163
0.00038195461
-0.0011554368
0.00042827805
-0.0013355619
0.00047885898
-0.0015365106
0.0005350571
-0.0017609252
0.0005985414
-0.0020122139
0.0006710588
-0.0022949107
0.0007528486
-0.0026111306
0.00084020923
-0.0029625544
0.0009324784
-0.0033514542
0.0010298188
-0.0037802567
0.0011312085
-0.0042512511
0.0012347414
-0.0047667773
0.0013381261
-0.0053297057
0.0014390417
-0.0059443388
0.0015362682
-0.0066180743
0.001631607
-0.0073634611
0.0017324814
-0.008199992
0.0018537437
-0.0091445503
0.0019947202
-0.010213073
0.0021347186
-0.011422208
0.0022570474
-0.012790577
0.0023496455
-0.014340123
0.0024032278
-0.016097064
0.002412446
-0.018092016
0.0023727966
-0.020358235
0.0022768034
-0.022928053
0.0021125366
-0.025827588
0.0018632821
-0.029069445
0.0015016804
-0.032636513
0.00099551952
-0.036459707
0.00033377737
-0.040424065
-0.00045410144
-0.044224958
-0.0013260229
-0.047161985
-0.0025883698
-0.04796731
-0.0046945146
-0.044510776
-0.0080758745
-0.03410226
-0.013520159
-0.014949893
-0.021574691
-0.029998255
0.011272104
-8.6014039e-08
3.0032221e-07
-3.8213323e-07
1.0332166e-06
-9.5724284e-07
2.0061806e-06
-1.897186e-06
3.2792181e-06
-3.3082862e-06
4.9252229e-06
-5.3214885e-06
7.0322957e-06
-8.097156e-06
9.706307e-06
-1.1830603e-05
1.3073708e-05
-1.675835e-05
1.7284457e-05
-2.3165147e-05
2.251502e-05
-3.139166e-05
2.8971138e-05
-4.1842723e-05
3.6890162e-05
-5.4995866e-05
4.6542465e-05
-7.140978e-05
5.8231379e-05
-9.1732052e-05
7.2290871e-05
-0.00011670542
8.9080048e-05
-0.00014717135
0.0001089732
-0.0001840695
0.0001323442
-0.00022843128
0.00015954373
-0.00028136544
0.0001908685
-0.00034403365
0.00022652264
-0.0004176151
0.0002665751
-0.00050326166
0.00031092487
-0.00060205184
0.00035930085
-0.00071496305
0.00041134186
-0.00084289272
0.00046679743
-0.00098675292
0.0005258148
-0.0011476247
0.00058914979
-0.0013269096
0.00065814395
-0.0015264117
0.00073455916
-0.0017484507
0.00082058043
-0.0019961885
0.00091879657
-0.0022744751
0.0010311352
-0.0025861105
0.0011518447
-0.0029326478
0.0012790157
-0.0033158504
0.0014130214
-0.0037377071
0.0015530652
-0.0042001599
0.0016971941
-0.0047053645
0.0018433307
-0.0052563702
0.0019900474
-0.0058579187
0.0021378166
-0.0065176001
0.0022912885
-0.0072476081
0.0024624894
-0.0080651522
0.0026712877
-0.0089826882
0.0029122563
-0.01001284
0.0031648707
-0.011169258
0.0034134649
-0.012466439
0.0036468266
-0.013920391
0.0038571801
-0.015549366
0.0040414209
-0.017373436
0.0041968664
-0.01941106
0.0043144279
-0.021675428
0.0043769041
-0.024171194
0.0043590479
-0.026891886
0.0042223733
-0.029807103
0.0039107363
-0.032838675
0.0033653492
-0.035859015
0.0025662381
-0.03856716
0.0013821222
-0.040319613
-0.00083591692
-0.039862483
-0.0051516442
-0.035004443
-0.012933915
-0.023045959
-0.025478643
-0.0019910497
-0.042629601
-0.05788054
0.025891235
-8.2089642e-08
3.8241186e-07
-3.6478968e-07
1.3159166e-06
-9.14009e-07
2.5553999e-06
-1.811957e-06
4.177166e-06
-3.1605668e-06
6.2738327e-06
-5.0855233e-06
8.9572522e-06
-7.7409709e-06
1.2361755e-05
-1.1314926e-05
1.6647663e-05
-1.6035485e-05
2.2005016e-05
-2.2177787e-05
2.8657321e-05
-3.0071746e-05
3.6865097e-05
-4.0110402e-05
4.6928817e-05
-5.2758717e-05
5.9190781e-05
-6.8562432e-05
7.4035094e-05
-8.8156463e-05
9.1884902e-05
-0.00011227204
0.00011319563
-0.00014174151
0.00013844267
-0.00017749928
0.00016810198
-0.00022057719
0.00020262163
-0.0002720918
0.00024238312
-0.00033322172
0.00028765256
-0.00040517258
0.00033852595
-0.00048913032
0.00039488261
-0.00058620873
0.00045637926
-0.00069740771
0.00052254084
-0.00082361287
0.00059300258
-0.00096566654
0.00066786847
-0.0011245068
0.00074799002
-0.0013013148
0.00083495195
-0.0014975966
0.00093084099
-0.0017152359
0.0010382197
-0.0019567156
0.0011602763
-0.0022254724
0.001299892
-0.0025264826
0.0014528549
-0.0028619678
0.001614501
-0.0032331685
0.001784222
-0.0036412422
0.0019611389
-0.0040874982
0.0021434502
-0.0045738766
0.0023297091
-0.0051036742
0.002519845
-0.005682058
0.0027162004
-0.0063169971
0.0029262275
-0.0070206152
0.0031661075
-0.0078037007
0.0034543732
-0.0086741154
0.003782671
-0.0096410431
0.0041317984
-0.010714209
0.004486631
-0.011902879
0.0048354966
-0.013216013
0.005170314
-0.014663043
0.0054884504
-0.016252748
0.0057865712
-0.017987707
0.006049387
-0.01986003
0.006249227
-0.021848708
0.0063477261
-0.023920284
0.0062939497
-0.026026172
0.0060166245
-0.028071868
0.0054110452
-0.029897612
0.0043919813
-0.031189878
0.0026743882
-0.031334164
-0.00069163012
-0.029154292
-0.0073315171
-0.022439618
-0.019648588
-0.0083970531
-0.039521208
0.014459351
-0.065486005
-0.086683939
0.04326275
-7.6105877e-08
4.5851773e-07
-3.3831983e-07
1.5781306e-06
-8.4796836e-07
3.0650485e-06
-1.6816495e-06
5.0108472e-06
-2.9344822e-06
7.5266653e-06
-4.7239591e-06
1.0746729e-05
-7.1944468e-06
1.4832242e-05
-1.0522442e-05
1.9975658e-05
-1.4922581e-05
2.6405155e-05
-2.0654522e-05
3.4389263e-05
-2.8030601e-05
4.4241176e-05
-3.742429e-05
5.6322507e-05
-4.9279204e-05
7.1045695e-05
-6.4118496e-05
8.8874387e-05
-8.2554037e-05
0.00011032044
-0.0001052948
0.00013593639
-0.00013315329
0.00016630116
-0.00016704877
0.00020199746
-0.00020800529
0.00024357815
-0.00025714217
0.00029152
-0.00031565422
0.00034616461
-0.00038477899
0.00040765072
-0.00046574963
0.00047585326
-0.00055973652
0.00055036614
-0.00066779004
0.00063059436
-0.00079081327
0.00071602581
-0.00092960129
0.00080665649
-0.0010849577
0.00090334643
-0.0012578399
0.0010078341
-0.0014494443
0.0011224454
-0.0016610759
0.0012498513
-0.0018938695
0.00139307
-0.0021493518
0.0015553742
-0.0024334906
0.0017369937
-0.0027507429
0.0019317532
-0.0031025557
0.0021360349
-0.0034893138
0.002347897
-0.0039115605
0.0025656969
-0.0043709255
0.0027890741
-0.0048709333
0.0030198527
-0.0054172517
0.0032625189
-0.0060181125
0.0035270883
-0.0066833717
0.0038313668
-0.0074163789
0.0041873804
-0.0082205966
0.0045868887
-0.0091017146
0.0050129164
-0.010065097
0.0054500134
-0.01111443
0.0058848294
-0.012251684
0.006307568
-0.013478179
0.0067149454
-0.014793292
0.0071016839
-0.01618645
0.0074425458
-0.017627245
0.0076900217
-0.019065546
0.007786027
-0.02043725
0.0076656538
-0.021663926
0.0072433
-0.022641097
0.0063882162
-0.02318574
0.0049366247
-0.022943454
0.0024321026
-0.021282513
-0.0023525712
-0.01710518
-0.01150885
-0.0082095959
-0.028544172
0.0082020149
-0.055932818
0.032702917
-0.089986907
-0.11539435
0.061413323
-6.7851305e-08
5.2636904e-07
-3.0180382e-07
1.8120831e-06
-7.5684233e-07
3.520087e-06
-1.5017682e-06
5.755773e-06
-2.6222027e-06
8.6470998e-06
-4.2241523e-06
1.2348679e-05
-6.4382324e-06
1.7046322e-05
-9.4245976e-06
2.2962023e-05
-1.3378713e-05
3.035927e-05
-1.8537958e-05
3.9548509e-05
-2.5189158e-05
5.0892375e-05
-3.3677011e-05
6.481036e-05
-4.4413356e-05
8.178204e-05
-5.788703e-05
0.00010234806
-7.4674023e-05
0.00012710744
-9.5447327e-05
0.00015670969
-0.00012098559
0.00019183942
-0.0001521792
0.00023319108
-0.00019003211
0.00028143106
-0.00023565674
0.00033714463
-0.00029025891
0.00040076678
-0.00035510922
0.00047250103
-0.00043149734
0.00055224139
-0.00052066844
0.00063953724
-0.00062374912
0.00073367504
-0.00074168699
0.00083396368
-0.00087524781
0.00094021731
-0.0010251019
0.0010532005
-0.0011919642
0.0011746965
-0.0013766866
0.0013071678
-0.0015801995
0.0014533642
-0.0018032727
0.0016161432
-0.002046104
0.0017982055
-0.0023106514
0.0020015411
-0.0026028581
0.0022239599
-0.0029265767
0.0024597534
-0.0032828769
0.0027041972
-0.0036726396
0.0029554596
-0.0040975724
0.0032140069
-0.0045608444
0.0034831248
-0.0050682097
0.0037698841
-0.0056268733
0.0040857519
-0.0062401856
0.0044446791
-0.0069067829
0.0048539776
-0.0076268725
0.0053069783
-0.0084020931
0.005788137
-0.009233093
0.0062810134
-0.010117944
0.0067696801
-0.011052095
0.0072417194
-0.012029884
0.007692734
-0.013041301
0.0081131014
-0.014058223
0.0084594676
-0.015028403
0.0086602015
-0.0158836
0.0086412243
-0.016538721
0.008320775
-0.016883134
0.0075877123
-0.016779584
0.006284667
-0.016018967
0.0041760072
-0.014213536
0.00062667214
-0.010658086
-0.0059080217
-0.0042662616
-0.017900675
0.0071354929
-0.039945927
0.026032136
-0.074829462
0.051615562
-0.11557033
-0.14261146
0.078832672
-5.7090293e-08
5.8345933e-07
-2.541826e-07
2.0091754e-06
-6.3795963e-07
3.903864e-06
-1.2669919e-06
6.3848053e-06
-2.2143902e-06
9.5944982e-06
-3.5709924e-06
1.3705281e-05
-5.4491545e-06
1.8924484e-05
-7.9872627e-06
2.5500132e-05
-1.1355054e-05
3.3727062e-05
-1.5759847e-05
4.3953302e-05
-2.1453762e-05
5.658629e-05
-2.8742029e-05
7.2098626e-05
-3.7992291e-05
9.1032303e-05
-4.9645019e-05
0.00011400079
-6.4224619e-05
0.00014168704
-8.2350964e-05
0.00017483603
-0.00010475059
0.00021423905
-0.0001322664
0.00026070689
-0.00016586404
0.0003150287
-0.00020663267
0.00037791326
-0.00025577636
0.00044991047
-0.00031459144
0.00053131612
-0.0003844245
0.00062207444
-0.0004666054
0.00072171814
-0.00056235573
0.00082942537
-0.00067269089
0.00094429884
-0.00079836398
0.0010658904
-0.0009399116
0.0011947481
-0.001097796
0.0013325809
-0.0012725406
0.0014819124
-0.0014647398
0.0016455635
-0.0016749085
0.0018263119
-0.0019033618
0.0020266588
-0.0021501008
0.0022482801
-0.0024170417
0.0024909008
-0.0027076605
0.0027503722
-0.003026049
0.0030225857
-0.0033757629
0.0033051736
-0.00375993
0.003598174
-0.0041814948
0.0039046895
-0.004643462
0.0042318514
-0.0051483174
0.0045906073
-0.0056950427
0.0049914045
-0.0062799235
0.0054388584
-0.0068995831
0.0059266378
-0.0075512353
0.0064397892
-0.0082305623
0.0069603403
-0.0089299728
0.0074690907
-0.0096381536
0.0079499002
-0.010342242
0.0083968219
-0.011017912
0.0087887717
-0.01161646
0.0090580161
-0.012074988
0.0091187296
-0.012318168
0.0088844042
-0.012246367
0.0082489734
-0.011723884
0.0070652301
-0.010569153
0.0051299359
-0.0085340206
0.0021408744
-0.0051784963
-0.0027288521
0.00029855066
-0.011385069
0.0090895825
-0.026691706
0.023299652
-0.054155996
0.044600723
-0.096130532
0.070116718
-0.14108633
-0.16660078
0.094106046
-4.3664483e-08
6.2712381e-07
-1.9474297e-07
2.1602539e-06
-4.8951455e-07
4.1986356e-06
-9.7370165e-07
6.8689924e-06
-1.7046704e-06
1.0325467e-05
-2.7540961e-06
1.4754707e-05
-4.2112001e-06
2.0381588e-05
-6.186674e-06
2.7475606e-05
-8.8173733e-06
3.6357761e-05
-1.2271976e-05
4.7407904e-05
-1.6757702e-05
6.1072016e-05
-2.2528232e-05
7.7869157e-05
-2.9893028e-05
9.8397098e-05
-3.9227966e-05
0.00012333573
-5.0987474e-05
0.00015344654
-6.5717726e-05
0.00018956629
-8.4070615e-05
0.00023259194
-0.00010681752
0.00028345379
-0.00013486132
0.00034307249
-0.00016924398
0.00041229592
-0.00021114637
0.00049181286
-0.00026187422
0.00058204397
-0.00032282278
0.000683023
-0.00039540992
0.00079430528
-0.00048097038
0.00091498583
-0.00058061856
0.001043947
-0.00069512929
0.0011804011
-0.00082492344
0.0013245423
-0.00097019862
0.001477856
-0.0011311125
0.0016428263
-0.0013078741
0.001822325
-0.0015006801
0.0020191179
-0.0017095813
0.00223556
-0.0019345181
0.0024732169
-0.0021758549
0.0027322375
-0.0024360935
0.0030106108
-0.0027189967
0.003305489
-0.0030284669
0.0036146437
-0.0033679305
0.0039376376
-0.0037399886
0.0042767476
-0.0041459213
0.0046377841
-0.004584633
0.0050293189
-0.0050520524
0.0054588239
-0.0055416863
0.0059284923
-0.0060465368
0.0064314884
-0.0065592205
0.006952473
-0.007070225
0.0074713447
-0.0075663289
0.0079651946
-0.0080288547
0.008412426
-0.0084336924
0.0088016596
-0.0087409642
0.0090960435
-0.0088942497
0.0092113017
-0.0088257835
0.0090502634
-0.0084458982
0.0085045188
-0.0076345226
0.0074375977
-0.0062344682
0.0056651757
-0.0040550438
0.0029505115
-0.00080159709
-0.0011125723
0.0040893522
-0.0076198014
0.011511369
-0.018807085
0.022864702
-0.038045039
0.040129182
-0.071420477
0.063268579
-0.11926993
0.086876784
-0.16469453
-0.18583744
0.10611344
-2.7740662e-08
6.5486447e-07
-1.2420262e-07
2.2567158e-06
-3.1325377e-07
4.3876867e-06
-6.2526321e-07
7.1810018e-06
-1.0987294e-06
1.0798933e-05
-1.7823103e-06
1.5438288e-05
-2.737361e-06
2.1336639e-05
-4.0410603e-06
2.8779305e-05
-5.7903262e-06
3.8107027e-05
-8.1066374e-06
4.9724216e-05
-1.1142003e-05
6.4107382e-05
-1.5086289e-05
8.1813443e-05
-2.0176164e-05
0.00010348697
-2.6705809e-05
0.00012986537
-3.5039756e-05
0.00016178049
-4.562774e-05
0.00020015427
-5.902151e-05
0.00024598571
-7.5892888e-05
0.00030032517
-9.7052125e-05
0.00036423172
-0.00012346396
0.00043870776
-0.00015625769
0.00052460658
-0.0001967253
0.00062251158
-0.00024629746
0.00073259517
-0.00030648368
0.0008544915
-0.00037875953
0.00098726168
-0.00046439591
0.0011295834
-0.00056427029
0.0012802755
-0.00067876855
0.0014390405
-0.00080787619
0.0016069637
-0.0009514029
0.001786353
-0.0011091647
0.0019800868
-0.0012810235
0.0021909767
-0.0014668382
0.0024213747
-0.0016665076
0.0026728863
-0.001880288
0.0029460179
-0.0021096143
0.0032399371
-0.0023569879
0.0035528626
-0.0026253239
0.0038829797
-0.0029171989
0.0042295126
-0.0032341319
0.0045936806
-0.0035756668
0.004979319
-0.0039384242
0.0053920764
-0.0043158687
0.0058362684
-0.0046987773
0.0063114009
-0.0050764728
0.0068091839
-0.0054369381
0.0073129382
-0.0057652973
0.0077997039
-0.0060422736
0.0082421709
-0.0062413619
0.0086115143
-0.0063263133
0.008886611
-0.0062480869
0.0090178171
-0.0059475918
0.0089108067
-0.0053465479
0.0084492195
-0.0043386536
0.0074966245
-0.0027806455
0.0058795897
-0.0005002426
0.0033847728
0.0026805685
-0.00023029964
0.0071357093
-0.0055677131
0.013577645
-0.014061737
0.023034198
-0.028263639
0.037179348
-0.052190189
0.057490507
-0.091731636
0.08098171
-0.14276113
0.1005268
-0.18423962
-0.199651
0.11434036
-9.8454e-09
6.6470987e-07
-4.487356e-08
2.291744e-06
-1.1490327e-07
4.4577164e-06
-2.3288411e-07
7.2989827e-06
-4.1586367e-07
1.0981913e-05
-6.8625509e-07
1.5708679e-05
-1.0735168e-06
2.1723901e-05
-1.6163365e-06
2.9322125e-05
-2.3655309e-06
3.8856221e-05
-3.3877903e-06
5.0746475e-05
-4.7706401e-06
6.5490232e-05
-6.6287695e-06
8.3671572e-05
-9.1122632e-06
0.00010597047
-1.2417035e-05
0.00013317014
-1.6797923e-05
0.00016616138
-2.2584839e-05
0.00020594119
-3.0202137e-05
0.00025360301
-4.0191268e-05
0.0003103143
-5.3235721e-05
0.00037727618
-7.0186783e-05
0.00045565882
-9.2086464e-05
0.00054650626
-0.00012018131
0.00065060643
-0.0001559164
0.00076833026
-0.00020089157
0.00089946667
-0.00025675479
0.0010431249
-0.00032501028
0.0011978389
-0.00040676225
0.0013620275
-0.0005025084
0.0015347867
-0.00061214577
0.0017166011
-0.00073520827
0.0019094155
-0.00087114625
0.0021160248
-0.001019474
0.0023393044
-0.0011797913
0.0025816921
-0.001351815
0.00284491
-0.0015355563
0.0031297592
-0.0017316099
0.0034359908
-0.0019412017
0.0037624543
-0.0021658351
0.0041076132
-0.0024066353
0.0044703128
-0.0026635312
0.0048505765
-0.0029342616
0.0052500493
-0.003213452
0.0056712668
-0.0034922975
0.0061151139
-0.0037589352
0.0065780386
-0.003999128
0.0070493766
-0.0041962896
0.0075100999
-0.004330139
0.0079335533
-0.0043748225
0.0082868543
-0.0042966028
0.0085332946
-0.0040505372
0.0086405455
-0.0035822272
0.0085495071
-0.0028251715
0.008153751
-0.0016890673
0.0073131152
-4.9694076e-05
0.0058572512
0.0022560918
0.0035738038
0.0053978616
0.00024300299
0.0095673651
-0.0043998031
0.0152661
-0.011266448
0.023335933
-0.02213157
0.035062971
-0.039990676
0.052318248
-0.069445466
0.074883516
-0.1142969
0.096303825
-0.16418144
0.11034494
-0.19828073
-0.2084437
0.11913764
9.1686891e-09
6.5554119e-07
3.9496733e-08
2.261416e-06
9.6225538e-08
4.4009876e-06
1.8512908e-07
7.2100791e-06
3.1228516e-07
1.0854757e-05
4.8366607e-07
1.5537298e-05
7.0445383e-07
2.1503113e-05
9.7794283e-07
2.9048636e-05
1.3038874e-06
3.8530277e-05
1.6760396e-06
5.0374323e-05
2.0786066e-06
6.5087665e-05
2.4811849e-06
8.3268994e-05
2.8317974e-06
0.00010561985
3.0472747e-06
0.00013295467
3.0005422e-06
0.00016620811
2.5038355e-06
0.00020643789
1.2872807e-06
0.00025481956
-1.0275534e-06
0.00031262914
-4.9593492e-06
0.00038120797
-1.1202889e-05
0.00046190236
-2.0666544e-05
0.00055596992
-3.4505459e-05
0.00066444534
-5.4140011e-05
0.00078796481
-8.1239224e-05
0.00092656588
-0.00011763678
0.0010795225
-0.00016514006
0.0012453422
-0.00022522052
0.0014221079
-0.00029868152
0.0016082477
-0.00038551811
0.0018034376
-0.00048510196
0.0020089994
-0.00059654234
0.0022274652
-0.00071895743
0.0024617195
-0.00085157058
0.0027143052
-0.00099372875
0.0029870681
-0.0011449522
0.0032809826
-0.0013050213
0.0035960599
-0.0014739641
0.0039313971
-0.001651797
0.0042854461
-0.0018379784
0.0046564943
-0.0020306162
0.0050432143
-0.0022254987
0.0054449318
-0.0024151937
0.0058609617
-0.0025886584
0.0062885787
-0.00273136
0.0067207402
-0.0028256289
0.0071436456
-0.00285054
0.0075350109
-0.0027807162
0.0078637295
-0.0025843079
0.0080904461
-0.0022219056
0.0081708922
-0.0016408281
0.008059468
-0.00078081347
0.0076894925
0.00043485035
0.0069380871
0.0021101506
0.005637815
0.0043873976
0.0035800043
0.0074362585
0.00052494287
0.011409023
-0.0037297614
0.016589377
-0.0095801574
0.023624513
-0.018301584
0.033538183
-0.032045239
0.047975825
-0.054428318
0.068333899
-0.089803541
0.090987364
-0.13695037
0.10765203
-0.18084611
0.11620842
-0.20683712
-0.21382075
0.12158547
2.8199458e-08
6.2734173e-07
1.2404333e-07
2.1655721e-06
3.0802118e-07
4.2170098e-06
6.0491673e-07
6.9131836e-06
1.0443851e-06
1.0415288e-05
1.6614514e-06
1.4920232e-05
2.4969198e-06
2.0667645e-05
3.5975147e-06
2.7948041e-05
5.0156287e-06
3.7112163e-05
6.8084335e-06
4.8581518e-05
9.0360035e-06
6.2860095e-05
1.1758079e-05
8.0546918e-05
1.5028796e-05
0.00010234914
1.8888718e-05
0.00012909474
2.3353244e-05
0.00016174358
2.8396266e-05
0.00020139487
3.3927986e-05
0.00024928784
3.9765598e-05
0.00030679153
4.5595982e-05
0.00037537759
5.0930264e-05
0.00045656808
5.505137e-05
0.00055184881
5.6958986e-05
0.00066253773
5.5321766e-05
0.00078960203
4.8456539e-05
0.00093343111
3.437135e-05
0.0010936076
1.0927308e-05
0.0012687862
-2.3834392e-05
0.0014568696
-7.1243741e-05
0.001655657
-0.00013165428
0.0018638482
-0.00020447332
0.0020818184
-0.0002885308
0.0023115227
-0.00038249255
0.0025556812
-0.00048506155
0.0028168742
-0.00059503878
0.0030970454
-0.00071131097
0.0033972548
-0.0008327975
0.0037175464
-0.00095834776
0.0040569474
-0.0010864867
0.004413585
-0.0012149256
0.0047849332
-0.0013398294
0.0051681181
-0.0014549147
0.0055600171
-0.0015506098
0.0059566568
-0.0016135885
0.0063515574
-0.0016266162
0.0067337679
-0.0015686707
0.0070857001
-0.0014147914
0.0073811315
-0.0011349986
0.0075839367
-0.00069239443
0.0076478419
-4.2692905e-05
0.0075211907
0.00087397806
0.007142797
0.0021273277
0.0064361428
0.0038066607
0.0052587542
0.0060309341
0.0034135415
0.0089523718
0.0006585666
0.012722334
-0.0032450193
0.017519302
-0.0085267296
0.023794529
-0.015855384
0.032354056
-0.026861111
0.044566389
-0.044257572
0.062198949
-0.072060878
0.0842975
-0.11190209
0.10365864
-0.15631151
0.11434739
-0.19153485
0.11895667
-0.21144641
-0.21776568
0.12290159
4.5946739e-08
5.8139499e-07
2.030088e-07
2.00851e-06
5.0610172e-07
3.9139169e-06
9.9808445e-07
6.4212009e-06
1.7311182e-06
9.6822545e-06
2.7681445e-06
1.3883205e-05
4.1843949e-06
1.9251394e-05
6.0688753e-06
2.606356e-05
8.525649e-06
3.4655389e-05
1.1674715e-05
4.5432452e-05
1.5652173e-05
5.8882636e-05
2.0609153e-05
7.5589938e-05
2.6708984e-05
9.6249306e-05
3.412164e-05
0.00012168209
4.3014433e-05
0.00015285079
5.3537545e-05
0.00019087176
6.5802695e-05
0.00023702269
7.9853003e-05
0.00029274122
9.5622279e-05
0.00035960831
0.00011288184
0.00043930852
0.00013117457
0.00053355608
0.00014973811
0.00064397418
0.00016742448
0.00077191567
0.00018263413
0.00091822145
0.0001933009
0.0010829409
0.00019699263
0.0012650945
0.00019120855
0.0014626537
0.00017389879
0.0016729668
0.00014404742
0.0018936996
0.00010192062
0.0021239452
4.8681433e-05
0.0023647619
-1.391851e-05
0.0026182812
-8.3846889e-05
0.0028868026
-0.00015923006
0.0031724285
-0.00023817488
0.0034761997
-0.00031867162
0.0037980431
-0.00039838383
0.0041366596
-0.0004743552
0.0044895563
-0.00054253461
0.0048531127
-0.00059709402
0.0052226775
-0.00062959053
0.0055925136
-0.0006281843
0.0059552506
-0.00057714329
0.0063005164
-0.00045652993
0.0066131546
-0.00024208854
0.0068712587
9.4945524e-05
0.0070440975
0.00058870154
0.0070901807
0.001280283
0.0069562605
0.0022189864
0.0065824873
0.0034723652
0.0058894182
0.0051234732
0.0047850348
0.007275605
0.0031066224
0.010058592
0.00063055426
0.013615324
-0.0028981652
0.018078795
-0.0077084901
0.023756198
-0.014204133
0.031306372
-0.023405558
0.041820092
-0.037374831
0.057017093
-0.059454573
0.077356518
-0.092400303
0.097918186
-0.13246376
0.11119103
-0.16958435
0.11693006
-0.19727388
0.11992746
-0.21444381
-0.22184535
0.12400713
6.110436e-08
5.2029063e-07
2.706033e-07
1.7990111e-06
6.759875e-07
3.5085327e-06
1.3359554e-06
5.7612329e-06
2.3225342e-06
8.6956757e-06
3.723462e-06
1.2482278e-05
5.6448315e-06
1.7330025e-05
8.2138821e-06
2.349451e-05
1.1581912e-05
3.1287359e-05
1.5927041e-05
4.1087323e-05
2.1456606e-05
5.3353071e-05
2.8408722e-05
6.8637822e-05
3.7052399e-05
8.7605629e-05
4.7685318e-05
0.00011104917
6.0628051e-05
0.00013990806
7.6213126e-05
0.00017528669
9.4766887e-05
0.00021846893
0.00011658147
0.00027092663
0.00014187409
0.0003343157
0.00017073027
0.00041045234
0.00020302849
0.00050125786
0.00023834506
0.00060865761
0.00027584272
0.00073441801
0.00031415575
0.00087990842
0.00035130433
0.0010457923
0.0003847024
0.0012316964
0.00041136281
0.0014359933
0.00042839207
0.0016559375
0.00043372792
0.0018883637
0.00042691826
0.0021307549
0.00040849261
0.0023831875
0.00038094426
0.0026458295
0.00034686222
0.0029208846
0.00030884358
0.0032104472
0.00026967904
0.0035153642
0.00023241253
0.0038353096
0.00020062742
0.0041684447
0.00017877194
0.0045114118
0.00017266058
0.004859224
0.00019013483
0.0052052032
0.00024185256
0.0055407959
0.00034204686
0.0058550563
0.00050901307
0.0061335502
0.00076546556
0.0063567021
0.0011388273
0.0064978969
0.0016614429
0.0065214819
0.0023712605
0.0063803631
0.003312546
0.006014975
0.0045420466
0.0053529867
0.0061361789
0.0042952858
0.0081920666
0.0027291471
0.010824376
0.00047431287
0.014159448
-0.0027045173
0.018315922
-0.0070546395
0.023496801
-0.012889369
0.030239234
-0.020946566
0.039477099
-0.032643423
0.052691361
-0.050589093
0.070965633
-0.077728846
0.091271456
-0.11270613
0.10651063
-0.14770294
0.11432108
-0.17739479
0.11774491
-0.20069771
0.12023599
-0.2169349
-0.22673669
0.12512733
7.2516814e-08
4.4777381e-07
3.2165488e-07
1.549873e-06
8.0465571e-07
3.0255318e-06
1.592614e-06
4.9732747e-06
2.7732479e-06
7.5150418e-06
4.4541197e-06
1.0801406e-05
6.7662522e-06
1.5017892e-05
9.868215e-06
2.0392547e-05
1.3950547e-05
2.7205028e-05
1.9240441e-05
3.5797428e-05
2.6006464e-05
4.6587049e-05
3.4562973e-05
6.0081313e-05
4.5273589e-05
7.6895013e-05
5.8553082e-05
9.7769677e-05
7.4866254e-05
0.00012359489
9.4722332e-05
0.00015543061
0.00011866239
0.00019452887
0.00014723711
0.00024235191
0.00018097049
0.00030058232
0.00022030557
0.00037111726
0.00026552668
0.00045603676
0.00031665392
0.00055753037
0.00037330837
0.00067776356
0.00043455365
0.00081866314
0.00049873692
0.00098160902
0.00056338547
0.0011670479
0.00062526643
0.0013741124
0.00068076356
0.0016004404
0.00072662605
0.0018425012
0.0007607588
0.0020966221
0.00078302537
0.0023609209
0.00079499608
0.0026338588
0.00080047183
0.0029154089
0.00080276291
0.0032081561
0.00080577701
0.0035123501
0.00081380723
0.0038272794
0.00083168733
0.0041505646
0.00086536446
0.0044777347
0.00092241277
0.0048021757
0.0010126939
0.0051149221
0.0011491117
0.0054043781
0.0013483702
0.0056557978
0.001631488
0.0058504324
0.0020240609
0.0059641292
0.0025565782
0.0059653796
0.0032647607
0.0058132995
0.0041901353
0.0054549884
0.0053808462
0.0048242641
0.0069042483
0.0038295847
0.0088452033
0.0023543308
0.011310545
0.00026380578
0.014414215
-0.0026293572
0.018264806
-0.0065551091
0.023022132
-0.011811965
0.029102843
-0.018970081
0.037343972
-0.029187695
0.049037362
-0.044336812
0.065350907
-0.066902639
0.084576049
-0.096953987
0.10060457
-0.12873464
0.10991073
-0.1570091
0.11470321
-0.18218727
0.11737757
-0.20337207
0.12063808
-0.22019541
-0.23243571
0.1263371
7.9225381e-08
3.6854843e-07
3.5188955e-07
1.2772089e-06
8.8134819e-07
2.4960732e-06
1.7465978e-06
4.1080251e-06
3.0455614e-06
6.2160781e-06
4.8989251e-06
8.9480421e-06
7.4546115e-06
1.2462206e-05
1.0892894e-05
1.6954264e-05
1.5432179e-05
2.2665744e-05
2.1335427e-05
2.989418e-05
2.891708e-05
3.9005396e-05
3.8550261e-05
5.0448132e-05
5.0673874e-05
6.47714e-05
6.5798838e-05
8.2644713e-05
8.4512558e-05
0.00010488117
0.00010747994
0.00013246323
0.00013543881
0.00016657
0.00016918644
0.00020860428
0.00020955315
0.00026021561
0.00025735698
0.00032331342
0.00031333296
0.00040006077
0.0003780288
0.00049283453
0.00045166018
0.00060413217
0.00053392275
0.00073640058
0.00062377057
0.0008917612
0.00071919885
0.0010716196
0.00081712076
0.0012761904
0.00091349754
0.0015040636
0.0010039231
0.0017520756
0.0010847544
0.0020157908
0.0011550753
0.0022906001
0.001214231
0.0025747031
0.001264803
0.0028648369
0.0013118886
0.0031610704
0.0013603011
0.0034639377
0.0014159071
0.0037716734
0.0014850662
0.0040814055
0.0015753346
0.0043874663
0.0016960494
0.004681461
0.0018590953
0.0049518761
0.0020796355
0.0051838379
0.0023768625
0.0053585708
0.0027746214
0.0054526736
0.0033015706
0.0054371799
0.003991212
0.0052757382
0.0048824125
0.004922099
0.0060205672
0.0043168338
0.0074613305
0.0033835007
0.009281178
0.0020097372
0.011569817
6.5692316e-05
0.01443242
-0.002598798
0.017971663
-0.0061685999
0.022332432
-0.010915878
0.027862943
-0.017342476
0.035311138
-0.026418275
0.045857133
-0.03973369
0.060522055
-0.059001735
0.078262156
-0.084642739
0.094207407
-0.11289924
0.10435772
-0.13888495
0.11021773
-0.16286911
0.1138996
-0.18586915
0.11689134
-0.2063638
0.12101731
-0.22432138
-0.23876825
0.12734985
8.082711e-08
2.8772132e-07
3.5943726e-07
9.9859871e-07
9.0122389e-07
1.9542866e-06
1.7880232e-06
3.2212258e-06
3.1216908e-06
4.8824105e-06
5.0283599e-06
7.0413731e-06
7.6634516e-06