/*--------------------------------*- C++ -*----------------------------------*\
  =========                 |
  \\      /  F ield         | OpenFOAM: The Open Source CFD Toolbox
   \\    /   O peration     | Website:  https://openfoam.org
    \\  /    A nd           | Version:  13
     \\/     M anipulation  |
\*---------------------------------------------------------------------------*/
FoamFile
{
    format      ascii;
    class       volScalarField;
    location    "18.596313";
    object      p;
}
// * * * * * * * * * * * * * * * * * * * * * * * * * * * * * * * * * * * * * //

dimensions      [0 2 -2 0 0 0 0];

internalField   nonuniform List<scalar> 
17140
(
-0.21236442
-0.21240824
-0.21246101
-0.21251574
-0.21257542
-0.21264096
-0.21271258
-0.21279053
-0.21287512
-0.21296661
-0.2130652
-0.21317108
-0.2132844
-0.21340531
-0.21353403
-0.21367091
-0.21381667
-0.21397267
-0.21414143
-0.21432755
-0.21453908
-0.21478995
-0.2151036
-0.21551827
-0.21609341
-0.21691453
-0.2180905
-0.21973688
-0.22194467
-0.22474664
-0.22810982
-0.23198207
-0.23612778
-0.2399557
-0.24324137
-0.2466128
-0.25041373
-0.25452613
-0.2589568
-0.26369195
-0.26827442
-0.2726752
-0.27745138
-0.28299659
-0.28922872
-0.2962323
-0.30403833
-0.31268737
-0.32221563
-0.33265984
-0.3440385
-0.3563389
-0.36945771
-0.38320161
-0.39697684
-0.41011777
-0.42086012
-0.42747657
-0.42872194
-0.42153219
-0.39485098
-0.34774647
-0.25633763
-0.13820705
0.0074341131
-0.21368361
-0.21372675
-0.21377911
-0.21383284
-0.21389142
-0.21395579
-0.21402614
-0.2141027
-0.21418578
-0.21427561
-0.21437239
-0.21447627
-0.21458739
-0.21470586
-0.21483183
-0.21496561
-0.21510784
-0.21525976
-0.21542378
-0.21560432
-0.21580924
-0.21605216
-0.21635612
-0.21675881
-0.21731887
-0.21812072
-0.21927189
-0.22088631
-0.22305317
-0.22580317
-0.22909605
-0.23285973
-0.23693841
-0.2407893
-0.24413989
-0.2474796
-0.25124845
-0.25534042
-0.25973912
-0.26437472
-0.26896647
-0.27348316
-0.27839799
-0.28403952
-0.2903673
-0.2974692
-0.30538176
-0.31415234
-0.32381359
-0.33439424
-0.34589972
-0.35830694
-0.3715072
-0.38530016
-0.39908232
-0.41215985
-0.4227886
-0.42948385
-0.43021387
-0.42194942
-0.39455483
-0.34630465
-0.25447224
-0.13737132
0.0072260666
-0.21553646
-0.21557803
-0.21562838
-0.21568023
-0.21573676
-0.21579889
-0.21586679
-0.2159407
-0.21602089
-0.21610759
-0.21620098
-0.21630117
-0.21640826
-0.21652231
-0.21664342
-0.21677182
-0.21690802
-0.21705315
-0.21720942
-0.217381
-0.21757541
-0.21780577
-0.21809441
-0.2184779
-0.21901335
-0.21978303
-0.22089189
-0.22245113
-0.22454743
-0.22720957
-0.23039166
-0.23399699
-0.23791619
-0.24174921
-0.24514863
-0.24845982
-0.25212815
-0.25614085
-0.26044985
-0.26498127
-0.26964273
-0.2742983
-0.27937509
-0.28511211
-0.29153073
-0.29871947
-0.30672734
-0.31560481
-0.32538274
-0.33608298
-0.34770233
-0.36021205
-0.37350476
-0.38738
-0.40123534
-0.41438188
-0.42496272
-0.43147807
-0.43202851
-0.42433903
-0.39801713
-0.35054365
-0.25998595
-0.1446055
-0.00013852293
-0.21791748
-0.2179566
-0.21800386
-0.21805275
-0.21810608
-0.21816471
-0.2182288
-0.21829858
-0.2183743
-0.21845617
-0.21854433
-0.21863888
-0.21873986
-0.2188473
-0.21896122
-0.21908177
-0.21920934
-0.21934491
-0.21949047
-0.21964989
-0.21983025
-0.220044
-0.22031243
-0.22067053
-0.22117299
-0.22189884
-0.22294917
-0.22443146
-0.22642971
-0.22897176
-0.23201129
-0.23543772
-0.23911502
-0.24285142
-0.24631533
-0.24959947
-0.25307136
-0.25694734
-0.26117118
-0.26567889
-0.27039194
-0.27517142
-0.28038543
-0.28620184
-0.29269299
-0.2999512
-0.30803658
-0.31699922
-0.32687033
-0.3376655
-0.34937452
-0.36197137
-0.37535159
-0.38933019
-0.40330929
-0.41660934
-0.42730738
-0.43400635
-0.43474254
-0.42788626
-0.40299227
-0.3580447
-0.27073077
-0.15699814
-0.012439608
-0.22079499
-0.22083064
-0.22087355
-0.22091824
-0.22096704
-0.22102071
-0.22107942
-0.22114337
-0.2212128
-0.22128789
-0.22136875
-0.22145546
-0.22154802
-0.22164642
-0.22175062
-0.2218607
-0.22197696
-0.22210021
-0.22223224
-0.2223766
-0.22253985
-0.22273366
-0.22297797
-0.22330568
-0.22376831
-0.22444046
-0.2254181
-0.22680423
-0.22868086
-0.23107763
-0.23395401
-0.23720569
-0.24069141
-0.24424909
-0.24768426
-0.25102347
-0.25445724
-0.25817482
-0.26225162
-0.26667911
-0.27132773
-0.27615355
-0.28142583
-0.28728533
-0.29381982
-0.30112421
-0.30926119
-0.31828138
-0.32821624
-0.3390755
-0.35084348
-0.36350553
-0.37696702
-0.39104337
-0.40517848
-0.41875812
-0.42963346
-0.43648309
-0.43764377
-0.43204504
-0.40917432
-0.36730034
-0.28400464
-0.17250764
-0.028941026
-0.2241081
-0.22413915
-0.22417631
-0.22421543
-0.22425821
-0.22430529
-0.22435684
-0.22441307
-0.22447416
-0.22454028
-0.22461153
-0.22468794
-0.22476952
-0.22485621
-0.22494794
-0.22504473
-0.22514681
-0.22525488
-0.22537052
-0.22549695
-0.22564017
-0.22581091
-0.22602752
-0.2263203
-0.22673669
-0.2273457
-0.22823675
-0.22950731
-0.23123768
-0.23346173
-0.23614931
-0.23921116
-0.24252287
-0.24595098
-0.24936657
-0.25271353
-0.25613151
-0.25976445
-0.26369205
-0.26791579
-0.27239196
-0.27718237
-0.28245423
-0.2883182
-0.29486504
-0.30218617
-0.3103439
-0.3193894
-0.32935401
-0.34024134
-0.35203346
-0.36473217
-0.37820564
-0.39241503
-0.40679013
-0.42052723
-0.43171316
-0.4389016
-0.44052599
-0.43623931
-0.41534856
-0.37686235
-0.29766219
-0.18856585
-0.046160148
-0.22775685
-0.22778217
-0.22781223
-0.22784435
-0.22787958
-0.2279184
-0.22796099
-0.22800753
-0.22805819
-0.2281131
-0.22817234
-0.22823595
-0.2283039
-0.22837614
-0.22845258
-0.22853322
-0.22861824
-0.22870825
-0.22880464
-0.22891032
-0.22903069
-0.2291754
-0.22936096
-0.22961457
-0.22997887
-0.23051612
-0.23130781
-0.2324446
-0.2340046
-0.23602679
-0.2384935
-0.24133278
-0.24443917
-0.24770111
-0.2510243
-0.25436319
-0.25775944
-0.26129401
-0.26504933
-0.26908512
-0.27343596
-0.2781684
-0.28340554
-0.28924217
-0.29577084
-0.30307574
-0.3112205
-0.32025598
-0.33021352
-0.34109132
-0.35286855
-0.36552031
-0.37914554
-0.39364731
-0.40805601
-0.42163662
-0.43285192
-0.44068843
-0.44301201
-0.44000309
-0.42091368
-0.38535483
-0.31000684
-0.20298233
-0.066382306
-0.23160977
-0.23162844
-0.23165065
-0.23167449
-0.23170072
-0.23172975
-0.2317617
-0.23179674
-0.231835
-0.2318766
-0.2319216
-0.23197004
-0.2320219
-0.23207711
-0.23213562
-0.23219743
-0.23226269
-0.23233197
-0.23240653
-0.23248893
-0.23258399
-0.23270022
-0.23285213
-0.23306352
-0.23337171
-0.23383143
-0.23451523
-0.23550586
-0.23687843
-0.23867708
-0.24089762
-0.24348668
-0.24635801
-0.24941694
-0.25258383
-0.25581647
-0.25912708
-0.26256796
-0.26621041
-0.27012487
-0.27437241
-0.27903251
-0.28420907
-0.28999121
-0.29647046
-0.30372571
-0.31182229
-0.32081101
-0.33072406
-0.34155152
-0.35323726
-0.36599413
-0.37995713
-0.39456162
-0.40872652
-0.42209729
-0.43290293
-0.4413833
-0.44480888
-0.442824
-0.42500774
-0.39174314
-0.31821057
-0.21543546
-0.080767741
-0.23550795
-0.23551916
-0.23553258
-0.23554711
-0.23556324
-0.23558124
-0.23560121
-0.23562327
-0.23564754
-0.23567411
-0.23570304
-0.23573435
-0.23576805
-0.23580409
-0.23584246
-0.23588319
-0.23592647
-0.23597283
-0.23602344
-0.23608062
-0.23614858
-0.23623473
-0.23635154
-0.23651936
-0.23676998
-0.23715029
-0.2377233
-0.23856296
-0.23974032
-0.24130382
-0.24326266
-0.24558263
-0.24819745
-0.25102922
-0.25400956
-0.25709754
-0.26029173
-0.26362696
-0.26716311
-0.27097022
-0.27511872
-0.27969376
-0.28478963
-0.29049289
-0.29689156
-0.30406441
-0.31207791
-0.32098387
-0.33081714
-0.34154517
-0.35321394
-0.36622878
-0.3803269
-0.39471802
-0.40867938
-0.42176124
-0.43214534
-0.44110928
-0.44558804
-0.44416236
-0.42691957
-0.39511004
-0.32017812
-0.22123898
-0.086903874
-0.2392768
-0.23928007
-0.23928413
-0.23928874
-0.23929408
-0.23930026
-0.23930739
-0.23931553
-0.23932476
-0.23933515
-0.23934675
-0.2393596
-0.2393737
-0.23938907
-0.23940574
-0.2394238
-0.23944351
-0.23946542
-0.23949067
-0.23952138
-0.23956127
-0.23961673
-0.23969835
-0.23982314
-0.24001757
-0.24032077
-0.24078609
-0.24147808
-0.24246239
-0.24379011
-0.24548241
-0.24752359
-0.24986741
-0.25245302
-0.25522317
-0.25814002
-0.26119543
-0.26441248
-0.26784013
-0.27154317
-0.27559256
-0.28007109
-0.28506854
-0.29067112
-0.29696233
-0.30402023
-0.31191547
-0.32070501
-0.33042126
-0.34101012
-0.35284526
-0.36600254
-0.37995227
-0.39410867
-0.40784314
-0.42048832
-0.43072988
-0.43987909
-0.4450176
-0.4435535
-0.42603995
-0.39331548
-0.31690608
-0.22559422
-0.094779301
-0.24274061
-0.24273586
-0.24273045
-0.24272499
-0.24271936
-0.24271354
-0.24270756
-0.24270146
-0.24269529
-0.24268907
-0.24268286
-0.24267668
-0.24267058
-0.2426646
-0.24265885
-0.24265351
-0.24264891
-0.2426457
-0.24264504
-0.24264893
-0.24266067
-0.2426859
-0.24273348
-0.2428175
-0.2429596
-0.24319169
-0.24355787
-0.24411304
-0.24491628
-0.24601926
-0.24745227
-0.24921592
-0.25128361
-0.25361212
-0.25615626
-0.25888294
-0.26178131
-0.26486639
-0.26817736
-0.27177142
-0.27571539
-0.28008518
-0.28496638
-0.29044629
-0.29660559
-0.30352145
-0.31126873
-0.31991267
-0.32947156
-0.33999714
-0.35192431
-0.36509082
-0.37876965
-0.39267339
-0.40605877
-0.41805538
-0.42845256
-0.43779341
-0.44274398
-0.44017738
-0.42184592
-0.38451879
-0.30868354
-0.22323045
-0.1007048
-0.24573635
-0.24572394
-0.24570946
-0.24569435
-0.24567817
-0.24566075
-0.24564209
-0.24562219
-0.24560102
-0.2455786
-0.24555494
-0.24553007
-0.24550405
-0.24547698
-0.24544901
-0.24542043
-0.24539166
-0.24536348
-0.24533709
-0.24531448
-0.24529877
-0.24529488
-0.24531044
-0.24535709
-0.24545234
-0.24562178
-0.24590095
-0.24633527
-0.24697582
-0.24787315
-0.24906526
-0.25056428
-0.25236053
-0.25442933
-0.25673868
-0.25926195
-0.26198825
-0.26492713
-0.26810932
-0.27158369
-0.27541086
-0.27965817
-0.28440586
-0.28974107
-0.29574315
-0.30249153
-0.31006495
-0.31853242
-0.32787762
-0.33845831
-0.35037306
-0.36333354
-0.37673164
-0.39030922
-0.40313878
-0.41472659
-0.4249529
-0.43435313
-0.43809612
-0.43391881
-0.41168059
-0.37097372
-0.29590652
-0.21287156
-0.10848673
-0.24812806
-0.24810881
-0.24808622
-0.24806244
-0.24803675
-0.24800885
-0.24797868
-0.24794617
-0.24791128
-0.24787394
-0.24783414
-0.2477919
-0.24774726
-0.24770036
-0.24765139
-0.2476007
-0.24754884
-0.24749666
-0.24744548
-0.24739732
-0.24735521
-0.24732367
-0.2473094
-0.24732223
-0.24737642
-0.24749241
-0.24769848
-0.24803105
-0.24853139
-0.24926495
-0.2502513
-0.2514983
-0.25303155
-0.25484246
-0.25691185
-0.25922047
-0.26175994
-0.26453642
-0.26757375
-0.27091255
-0.27460629
-0.27871488
-0.2833116
-0.28848157
-0.29430408
-0.3008589
-0.30823559
-0.31649012
-0.32565043
-0.33620721
-0.34806456
-0.36069841
-0.37377203
-0.38688877
-0.39911069
-0.41050893
-0.42033705
-0.42891359
-0.43059459
-0.42312304
-0.39582197
-0.35369567
-0.27891546
-0.20661568
-0.11203889
-0.24983028
-0.24980545
-0.24977621
-0.24974529
-0.24971173
-0.2496751
-0.2496353
-0.2495922
-0.24954567
-0.24949561
-0.24944195
-0.24938466
-0.24932377
-0.24925938
-0.24919172
-0.24912116
-0.24904829
-0.24897406
-0.24889984
-0.24882768
-0.24876058
-0.2487028
-0.24866042
-0.24864203
-0.24865955
-0.24872949
-0.24887473
-0.24912636
-0.24950488
-0.25003678
-0.25086542
-0.2519511
-0.25322264
-0.25478563
-0.25661851
-0.25870598
-0.26104534
-0.26364161
-0.26651388
-0.26969588
-0.27323399
-0.27718295
-0.28160945
-0.2865925
-0.29221475
-0.29855841
-0.30572181
-0.31372887
-0.32279438
-0.33320542
-0.34485062
-0.35713717
-0.36980465
-0.38229074
-0.39410734
-0.40499276
-0.41426995
-0.42079719
-0.41954622
-0.40680775
-0.37707156
-0.33318095
-0.26219783
-0.19820548
-0.1154176
-0.25080529
-0.25077648
-0.25074247
-0.2507064
-0.25066712
-0.25062409
-0.25057716
-0.25052613
-0.25047082
-0.25041104
-0.25034667
-0.25027761
-0.25020383
-0.25012538
-0.25004245
-0.24995538
-0.24986475
-0.24977147
-0.24967694
-0.24958316
-0.24949303
-0.24941061
-0.24934153
-0.24929347
-0.24927679
-0.24930531
-0.2493972
-0.24957686
-0.24987514
-0.25030279
-0.25089107
-0.25177285
-0.25290415
-0.25421825
-0.25582288
-0.25768215
-0.25980615
-0.26220032
-0.26488126
-0.2678781
-0.27123186
-0.27499328
-0.2792244
-0.28399873
-0.28940191
-0.29552055
-0.30245047
-0.31021361
-0.31916447
-0.32941003
-0.34070921
-0.35260883
-0.36471298
-0.376677
-0.38794425
-0.39808358
-0.40562013
-0.40967077
-0.40388622
-0.38747301
-0.35569227
-0.31076103
-0.2485286
-0.191005
-0.11730408
-0.25108499
-0.25105409
-0.25101751
-0.2509786
-0.2509361
-0.25088942
-0.25083833
-0.25078258
-0.25072192
-0.2506561
-0.2505849
-0.25050815
-0.25042572
-0.25033759
-0.25024383
-0.25014469
-0.25004065
-0.2499325
-0.24982149
-0.24970949
-0.24959915
-0.24949426
-0.24939996
-0.24932323
-0.24927325
-0.24926202
-0.24930488
-0.24942119
-0.24963573
-0.24997762
-0.25046058
-0.25112941
-0.25198721
-0.25311226
-0.25451434
-0.25614028
-0.25803012
-0.26019341
-0.26264732
-0.26542004
-0.26855022
-0.27208672
-0.27608918
-0.28063033
-0.28579558
-0.29168209
-0.29836632
-0.30594242
-0.31468109
-0.3246968
-0.3356065
-0.34703446
-0.35860212
-0.36995758
-0.3803218
-0.38890316
-0.39458775
-0.39548482
-0.38513773
-0.36575456
-0.33233258
-0.29236256
-0.23435244
-0.18438999
-0.11855496
-0.25074659
-0.25071548
-0.2506784
-0.25063911
-0.25059609
-0.25054869
-0.25049664
-0.25043966
-0.25037742
-0.2503096
-0.25023591
-0.25015608
-0.25006988
-0.24997715
-0.24987783
-0.24977198
-0.24965991
-0.24954216
-0.24941972
-0.24929409
-0.24916753
-0.24904328
-0.24892584
-0.24882129
-0.24873768
-0.24868539
-0.24867758
-0.24873054
-0.24886407
-0.24910181
-0.24947248
-0.24999049
-0.25074704
-0.25167891
-0.25272763
-0.25409198
-0.25573089
-0.25762893
-0.25981005
-0.26230727
-0.26516106
-0.26842222
-0.27215092
-0.27642456
-0.28132653
-0.28697099
-0.29341719
-0.30083855
-0.30934003
-0.31902743
-0.32952643
-0.34042003
-0.35140567
-0.36162466
-0.37068333
-0.37786209
-0.3812046
-0.37712524
-0.3643378
-0.34307222
-0.31062499
-0.27463358
-0.22263612
-0.17822217
-0.11893629
-0.24992282
-0.24989328
-0.24985778
-0.24982041
-0.2497794
-0.24973405
-0.24968412
-0.24962925
-0.2495691
-0.24950328
-0.24943143
-0.24935319
-0.24926823
-0.24917624
-0.24907701
-0.24897041
-0.24885646
-0.24873543
-0.2486079
-0.24847489
-0.24833807
-0.24819993
-0.24806405
-0.24793539
-0.24782063
-0.24772847
-0.24767002
-0.24765906
-0.24771234
-0.2478495
-0.2480945
-0.24847016
-0.24897961
-0.24969481
-0.25066081
-0.25171102
-0.25297818
-0.25456116
-0.25640635
-0.25855892
-0.26106642
-0.26398528
-0.26738025
-0.27133718
-0.27594047
-0.2813133
-0.28752903
-0.29475503
-0.30308417
-0.31243587
-0.32236175
-0.33272034
-0.34242508
-0.35173193
-0.3597316
-0.36466688
-0.36392419
-0.35732536
-0.34290656
-0.32043403
-0.29220264
-0.25843128
-0.21142315
-0.17215635
-0.11870571
-0.24876679
-0.24874033
-0.24870831
-0.24867481
-0.24863795
-0.24859706
-0.24855189
-0.24850208
-0.24844726
-0.24838701
-0.24832091
-0.24824855
-0.2481695
-0.24808334
-0.24798969
-0.24788821
-0.24777867
-0.24766098
-0.24753528
-0.24740204
-0.24726217
-0.24711723
-0.24696964
-0.24682288
-0.24668183
-0.24655301
-0.2464449
-0.24636819
-0.24633605
-0.24636414
-0.24647069
-0.24667664
-0.24699917
-0.24745888
-0.24811015
-0.24893116
-0.24989315
-0.25106463
-0.25250747
-0.25423622
-0.25631333
-0.25880754
-0.26179319
-0.26536955
-0.26962484
-0.27467887
-0.28064251
-0.28760825
-0.29570483
-0.30467032
-0.31390845
-0.3231405
-0.33241627
-0.34109016
-0.34689448
-0.34879981
-0.34524356
-0.33762244
-0.32120467
-0.30233355
-0.27448604
-0.24378076
-0.2013743
-0.16638201
-0.1179054
-0.24743119
-0.24740885
-0.24738163
-0.24735332
-0.24732209
-0.24728734
-0.24724881
-0.24720619
-0.24715907
-0.24710707
-0.24704973
-0.24698662
-0.24691724
-0.24684111
-0.24675773
-0.24666661
-0.24656729
-0.24645939
-0.24634263
-0.24621696
-0.24608257
-0.24594008
-0.24579065
-0.24563617
-0.24547949
-0.24532456
-0.24517674
-0.24504292
-0.24493186
-0.24485435
-0.24482331
-0.24485336
-0.24496103
-0.24516093
-0.24547395
-0.24593738
-0.24651917
-0.24727259
-0.24823639
-0.24945876
-0.25101555
-0.2529945
-0.25548567
-0.25861096
-0.26245833
-0.26715925
-0.27282273
-0.27944556
-0.28709943
-0.29533136
-0.30381727
-0.31315212
-0.32209279
-0.32869934
-0.33206319
-0.33136227
-0.32717904
-0.31781031
-0.30310007
-0.28429676
-0.25857149
-0.23038179
-0.19184527
-0.16066875
-0.11661551
-0.24606668
-0.24604887
-0.24602715
-0.24600463
-0.24597972
-0.24595191
-0.24592098
-0.24588664
-0.24584854
-0.24580628
-0.24575948
-0.24570767
-0.24565039
-0.24558711
-0.24551729
-0.24544036
-0.24535574
-0.24526283
-0.24516109
-0.24505002
-0.24492922
-0.24479849
-0.24465784
-0.24450765
-0.24434876
-0.24418248
-0.24401074
-0.2438361
-0.24366178
-0.24349201
-0.24333248
-0.24318909
-0.24307204
-0.24299415
-0.24296868
-0.24301119
-0.2431451
-0.24339293
-0.24380137
-0.24443396
-0.24538192
-0.24675729
-0.24867017
-0.25127419
-0.25463775
-0.25896629
-0.26427103
-0.27047212
-0.27724567
-0.28528407
-0.2944319
-0.30327939
-0.31039946
-0.31457449
-0.31606167
-0.31480924
-0.30910997
-0.29970295
-0.2855279
-0.26809864
-0.24380562
-0.21799671
-0.18300777
-0.15512257
-0.11491563
-0.24474958
-0.24473653
-0.24472103
-0.24470429
-0.24468572
-0.24466497
-0.24464182
-0.24461602
-0.24458729
-0.24455529
-0.24451968
-0.24448007
-0.24443601
-0.24438703
-0.24433262
-0.24427219
-0.24420515
-0.24413083
-0.24404852
-0.24395754
-0.2438572
-0.24374675
-0.2436252
-0.24349162
-0.2433451
-0.24318452
-0.24300851
-0.24281514
-0.24260137
-0.24236791
-0.24211331
-0.24182432
-0.24149859
-0.24114477
-0.24076741
-0.24038221
-0.24001278
-0.23969359
-0.23948228
-0.23945684
-0.2397303
-0.24043661
-0.24169455
-0.24371059
-0.24654641
-0.25040362
-0.25519324
-0.26047787
-0.26805304
-0.27685093
-0.28504542
-0.2926589
-0.29720821
-0.30012674
-0.30140993
-0.29810618
-0.29178383
-0.28303368
-0.26945138
-0.25277021
-0.23011322
-0.2065064
-0.17459628
-0.14962979
-0.11284335
-0.24356093
-0.24355222
-0.24354181
-0.24353054
-0.24351796
-0.24350385
-0.24348813
-0.24347057
-0.24345094
-0.243429
-0.24340448
-0.24337707
-0.24334645
-0.24331228
-0.24327414
-0.24323162
-0.24318427
-0.24313159
-0.24307317
-0.24300895
-0.24293791
-0.24285587
-0.24276011
-0.24265149
-0.24252896
-0.24238938
-0.24222875
-0.24204139
-0.24182136
-0.24156416
-0.24124325
-0.24083162
-0.2403343
-0.23974927
-0.23905162
-0.2382541
-0.23738395
-0.23648653
-0.23563563
-0.23492142
-0.23448417
-0.23447512
-0.23502443
-0.23637041
-0.23842039
-0.24161004
-0.24597014
-0.25255151
-0.26073637
-0.26816018
-0.27579573
-0.28052601
-0.28417146
-0.2874516
-0.28572536
-0.28195429
-0.27622166
-0.2672973
-0.25416267
-0.23850692
-0.21733274
-0.1957335
-0.16660398
-0.14422033
-0.11045368
-0.24247522
-0.24247078
-0.24246542
-0.2424591
-0.24245196
-0.24244493
-0.24243729
-0.24242814
-0.24241767
-0.24240595
-0.24239285
-0.24237799
-0.24236077
-0.24234066
-0.24231854
-0.24229552
-0.24227086
-0.24224286
-0.24220908
-0.24216793
-0.24212064
-0.24206814
-0.24200687
-0.24193266
-0.24184328
-0.24173483
-0.24160244
-0.24143815
-0.24123101
-0.24096569
-0.24060716
-0.24014343
-0.23957311
-0.23883678
-0.23789968
-0.23677281
-0.2354761
-0.23405394
-0.23260071
-0.23122196
-0.23010716
-0.22935318
-0.22900871
-0.22958724
-0.23108664
-0.23477549
-0.23995365
-0.24647738
-0.25338071
-0.26037898
-0.2648612
-0.26886793
-0.27315634
-0.2729965
-0.27084245
-0.26753572
-0.26121696
-0.25243493
-0.23986651
-0.22508149
-0.20534306
-0.18559606
-0.15892891
-0.13883725
-0.10777115
-0.241511
-0.24151107
-0.24151111
-0.24151082
-0.24150998
-0.24150881
-0.24150743
-0.24150584
-0.24150415
-0.24150213
-0.24149771
-0.24149222
-0.24149286
-0.24149751
-0.241498
-0.24149782
-0.24150222
-0.24150556
-0.24149499
-0.24146224
-0.24142019
-0.24138703
-0.2413574
-0.24131933
-0.2412679
-0.24119619
-0.24109915
-0.24096768
-0.24078646
-0.24053645
-0.24019323
-0.23972376
-0.23910049
-0.23827624
-0.23721332
-0.23590245
-0.23434603
-0.23257574
-0.23067978
-0.22870683
-0.22686416
-0.22527022
-0.22446427
-0.22494622
-0.22700285
-0.23067928
-0.23516779
-0.24084135
-0.24692647
-0.25085668
-0.25464785
-0.25947494
-0.26031815
-0.25936794
-0.25750604
-0.25345323
-0.24705226
-0.23840394
-0.22632445
-0.21244114
-0.19404556
-0.17598562
-0.15153486
-0.13349064
-0.1048386
-0.2406582
-0.24066375
-0.24067206
-0.24068211
-0.24068936
-0.24069335
-0.24069729
-0.24070211
-0.24070772
-0.24071416
-0.24072158
-0.24073089
-0.24074349
-0.2407604
-0.24077906
-0.24079674
-0.24081517
-0.24083309
-0.24084481
-0.24084903
-0.2408502
-0.24085167
-0.24086004
-0.24087144
-0.24084905
-0.24077964
-0.24069512
-0.240589
-0.24042791
-0.24019976
-0.23988231
-0.23944318
-0.23884966
-0.23805613
-0.23696187
-0.23555288
-0.23390176
-0.23192198
-0.22967391
-0.22720026
-0.22513034
-0.22350139
-0.22273065
-0.22312103
-0.22478362
-0.22764097
-0.23136418
-0.23595318
-0.23913868
-0.24222609
-0.24678741
-0.24836925
-0.2479144
-0.24714401
-0.24443377
-0.24012934
-0.23357625
-0.22508256
-0.21352704
-0.20048332
-0.18334404
-0.16683252
-0.14436753
-0.12815638
-0.10167724
-0.24003862
-0.24005024
-0.24006392
-0.24007866
-0.24009515
-0.24011333
-0.240133
-0.24015422
-0.24017704
-0.24020146
-0.24022743
-0.24025486
-0.2402836
-0.24031339
-0.24034381
-0.24037417
-0.24040386
-0.24043272
-0.24046098
-0.24048797
-0.24050864
-0.24051912
-0.24052527
-0.2405318
-0.24052647
-0.24050255
-0.24047038
-0.24041648
-0.2402994
-0.24009875
-0.23980645
-0.23940749
-0.23884884
-0.23801022
-0.23693551
-0.23568754
-0.23406435
-0.23217096
-0.23003177
-0.22776717
-0.22569145
-0.22403539
-0.22308692
-0.22282618
-0.2236631
-0.225391
-0.22779832
-0.22996856
-0.23211112
-0.23583364
-0.23754399
-0.2371908
-0.23689704
-0.2351477
-0.2320059
-0.2273692
-0.22072757
-0.21242328
-0.20136143
-0.18912805
-0.17316087
-0.15806481
-0.13739283
-0.12283312
-0.098315116
-0.23997754
-0.23999299
-0.24001129
-0.24003052
-0.2400514
-0.24007422
-0.24009904
-0.24012592
-0.24015493
-0.24018612
-0.24021948
-0.24025499
-0.24029255
-0.24033199
-0.24037305
-0.24041537
-0.24045842
-0.24050153
-0.24054386
-0.24058448
-0.24062207
-0.24065392
-0.24067649
-0.24068901
-0.24069168
-0.24067091
-0.24061343
-0.24053641
-0.2404506
-0.24031882
-0.24006791
-0.23968081
-0.23925081
-0.23870915
-0.23786921
-0.23675649
-0.23536005
-0.23370726
-0.23187484
-0.22982911
-0.22766856
-0.2257157
-0.22411892
-0.22310446
-0.22274368
-0.22312391
-0.22387425
-0.22475085
-0.2272262
-0.22831923
-0.22758151
-0.22738241
-0.22600257
-0.22366822
-0.22005087
-0.21514621
-0.20844875
-0.20034162
-0.18976936
-0.17830194
-0.1634246
-0.14962705
-0.13057586
-0.11750854
-0.094769556
-0.24061388
-0.24062953
-0.24064799
-0.24066755
-0.2406888
-0.24071203
-0.2407373
-0.24076468
-0.24079423
-0.24082597
-0.24085992
-0.240896
-0.2409341
-0.24097405
-0.24101557
-0.2410583
-0.24110175
-0.24114533
-0.2411883
-0.24122977
-0.24126873
-0.24130386
-0.24133367
-0.24135642
-0.24137006
-0.24137226
-0.24136044
-0.24131519
-0.24123236
-0.24113107
-0.24103163
-0.24087228
-0.24052526
-0.24000748
-0.23937607
-0.23854199
-0.23741852
-0.23597532
-0.23423424
-0.23215814
-0.22986562
-0.22747136
-0.22516466
-0.22311213
-0.22147831
-0.22080873
-0.22030866
-0.22090339
-0.22122266
-0.21957004
-0.21902552
-0.21760714
-0.21551163
-0.2125827
-0.20853757
-0.20339638
-0.1966704
-0.18877568
-0.17867524
-0.16793559
-0.15407273
-0.14146745
-0.12388906
-0.11217812
-0.091057107
-0.24202317
-0.24203533
-0.24204966
-0.24206487
-0.2420814
-0.24209948
-0.24211917
-0.24214051
-0.24216355
-0.24218832
-0.24221481
-0.24224297
-0.24227271
-0.24230386
-0.24233621
-0.24236945
-0.24240319
-0.24243693
-0.24247001
-0.24250167
-0.24253196
-0.24256079
-0.24258558
-0.24260354
-0.24261428
-0.24261691
-0.24260926
-0.24260477
-0.24261451
-0.24256156
-0.24239374
-0.24221584
-0.24201983
-0.24167593
-0.24115695
-0.2404116
-0.23938518
-0.23804182
-0.23632956
-0.23417554
-0.23155355
-0.22858133
-0.22547628
-0.22237707
-0.22021964
-0.21852656
-0.21703963
-0.21583071
-0.21355229
-0.21217236
-0.21033097
-0.20810686
-0.20531582
-0.20183285
-0.19740222
-0.19206114
-0.18533317
-0.17765865
-0.16801799
-0.15796779
-0.14504972
-0.13354243
-0.11730662
-0.10683433
-0.087189898
-0.24396121
-0.24396847
-0.24397704
-0.24398612
-0.24399598
-0.24400676
-0.24401847
-0.24403115
-0.24404479
-0.24405939
-0.24407493
-0.24409131
-0.24410844
-0.24412615
-0.24414419
-0.24416226
-0.24417997
-0.24419669
-0.24421176
-0.24422649
-0.2442409
-0.24424814
-0.24424512
-0.24424377
-0.24423746
-0.24424411
-0.24425672
-0.24419584
-0.24409452
-0.24401718
-0.24390647
-0.2437272
-0.24346949
-0.24309405
-0.24257376
-0.24186069
-0.24088865
-0.23956427
-0.23775691
-0.2353337
-0.23227269
-0.22871631
-0.22480202
-0.22144905
-0.21867359
-0.21540167
-0.21253117
-0.20946418
-0.20713397
-0.20449054
-0.20178111
-0.19878875
-0.19534256
-0.19136146
-0.18658851
-0.18108169
-0.17437535
-0.16693028
-0.15773611
-0.14834075
-0.13630509
-0.12581209
-0.1108066
-0.10147207
-0.083179001
-0.24622627
-0.24622987
-0.24623409
-0.2462385
-0.24624322
-0.24624829
-0.24625369
-0.24625938
-0.24626531
-0.24627141
-0.24627755
-0.24628357
-0.24628925
-0.2462943
-0.24629834
-0.24630088
-0.24630131
-0.24629888
-0.24629269
-0.2462817
-0.24626392
-0.24623776
-0.24620499
-0.24616954
-0.24611508
-0.24602823
-0.24593078
-0.24582019
-0.2456765
-0.24549945
-0.24527863
-0.24500228
-0.24466469
-0.24423824
-0.24368962
-0.2429616
-0.24194988
-0.24049513
-0.23840401
-0.23556301
-0.23198881
-0.22776846
-0.22368386
-0.21997854
-0.21554092
-0.21119261
-0.20724189
-0.20377771
-0.20024738
-0.19679038
-0.1932726
-0.1895699
-0.18553786
-0.1811081
-0.1760363
-0.17039934
-0.16373889
-0.1565318
-0.14777399
-0.13900221
-0.12779375
-0.11824162
-0.10436863
-0.096086256
-0.079033068
-0.24876939
-0.24877145
-0.24877378
-0.24877609
-0.24877839
-0.24878067
-0.24878282
-0.24878474
-0.24878629
-0.24878726
-0.2487874
-0.24878639
-0.24878381
-0.24877911
-0.24877162
-0.24876049
-0.24874469
-0.24872293
-0.24869366
-0.24865506
-0.24860545
-0.24854219
-0.24846156
-0.24835422
-0.24822331
-0.24807286
-0.24789203
-0.24767589
-0.24741888
-0.24712331
-0.24679154
-0.24641422
-0.24597985
-0.24546999
-0.24483775
-0.24398705
-0.24275651
-0.24093811
-0.23835728
-0.23498075
-0.23076245
-0.22635301
-0.22209025
-0.21687341
-0.21149647
-0.20659508
-0.20205776
-0.19756524
-0.19325105
-0.18899514
-0.18473643
-0.18039762
-0.17583729
-0.17101264
-0.16568795
-0.15995697
-0.15336692
-0.14640785
-0.13807861
-0.12990336
-0.11947446
-0.11079875
-0.097975112
-0.090671414
-0.074761611
-0.25185505
-0.25185644
-0.25185788
-0.2518591
-0.25186007
-0.25186066
-0.25186073
-0.25186005
-0.25185837
-0.25185534
-0.25185054
-0.25184341
-0.25183329
-0.25181931
-0.25180042
-0.25177533
-0.25174246
-0.25169991
-0.25164543
-0.25157638
-0.25148971
-0.25138127
-0.25124786
-0.25108599
-0.25089121
-0.25065924
-0.25038549
-0.25006827
-0.249709
-0.24930648
-0.24885871
-0.24836418
-0.24780968
-0.24715643
-0.24631895
-0.24515018
-0.24345251
-0.24103937
-0.23783684
-0.23378586
-0.22922293
-0.2246814
-0.21899947
-0.21289011
-0.20723163
-0.20174983
-0.19634006
-0.19111081
-0.18601562
-0.18103517
-0.17611699
-0.17120667
-0.16618095
-0.16101625
-0.15548542
-0.14969811
-0.14320474
-0.13650551
-0.12860066
-0.12099929
-0.11130978
-0.10345462
-0.091609299
-0.085223798
-0.070370942
-0.25589946
-0.25589905
-0.25589828
-0.25589701
-0.25589507
-0.25589225
-0.25588829
-0.25588287
-0.25587559
-0.25586592
-0.25585325
-0.25583679
-0.25581556
-0.2557884
-0.25575384
-0.25571015
-0.25565525
-0.25558663
-0.2555014
-0.25539619
-0.2552672
-0.25511018
-0.25492059
-0.25469355
-0.25442441
-0.25410977
-0.25374772
-0.25333569
-0.25287218
-0.25235793
-0.25179015
-0.25115561
-0.25041722
-0.2494961
-0.24825955
-0.24653007
-0.24413021
-0.24097066
-0.23699855
-0.2323461
-0.22759522
-0.22166297
-0.21510626
-0.20883245
-0.20260881
-0.19636867
-0.19026051
-0.18429684
-0.17849862
-0.17286363
-0.1673518
-0.161937
-0.15650824
-0.15105996
-0.14537211
-0.13956802
-0.13319959
-0.12677455
-0.11929373
-0.11224812
-0.10326542
-0.096181323
-0.085256472
-0.079733963
-0.065868271
-0.26128816
-0.26128381
-0.26127827
-0.26127177
-0.26126391
-0.26125434
-0.26124269
-0.26122848
-0.26121112
-0.26118992
-0.26116399
-0.26113228
-0.26109352
-0.26104615
-0.26098833
-0.26091785
-0.26083212
-0.2607281
-0.26060231
-0.26045078
-0.26026906
-0.2600524
-0.25979612
-0.25949575
-0.259147
-0.2587458
-0.25828912
-0.25777519
-0.25720127
-0.25656064
-0.25583529
-0.25498437
-0.25392952
-0.25254655
-0.25067577
-0.248156
-0.24489453
-0.24085335
-0.23606578
-0.23101975
-0.224934
-0.21797696
-0.21124278
-0.20440313
-0.19745761
-0.19054628
-0.18373756
-0.17709507
-0.17064852
-0.16441814
-0.15838033
-0.15252718
-0.14675916
-0.14108577
-0.13529209
-0.12951318
-0.1233009
-0.11716752
-0.11011474
-0.1036114
-0.09531043
-0.088953607
-0.078903303
-0.074192026
-0.061272316
-0.26838125
-0.26837053
-0.26835736
-0.26834255
-0.2683254
-0.26830533
-0.26828182
-0.26825422
-0.26822173
-0.2681834
-0.2681381
-0.26808445
-0.26802082
-0.26794529
-0.26785558
-0.26774901
-0.2676225
-0.2674725
-0.26729512
-0.26708607
-0.26684079
-0.26655447
-0.26622211
-0.26583892
-0.26540062
-0.26490325
-0.26434248
-0.2637119
-0.26299922
-0.26217924
-0.26120358
-0.25998984
-0.25841484
-0.25632941
-0.25358477
-0.25008433
-0.24580332
-0.24074677
-0.23530873
-0.22900154
-0.22172445
-0.21450047
-0.20713009
-0.19950694
-0.19184734
-0.18422914
-0.1767396
-0.16945009
-0.16240481
-0.15563947
-0.14914104
-0.14291647
-0.13687443
-0.13103652
-0.12519096
-0.119482
-0.11346017
-0.1076393
-0.10102323
-0.095053424
-0.087417039
-0.081749032
-0.072540227
-0.068605012
-0.056543726
-0.27757466
-0.27755503
-0.27753119
-0.27750486
-0.27747489
-0.27744049
-0.27740092
-0.27735528
-0.27730254
-0.27724149
-0.27717068
-0.27708838
-0.2769926
-0.2768811
-0.27675124
-0.2766
-0.27642394
-0.27621922
-0.27598156
-0.27570635
-0.27538874
-0.27502374
-0.27460626
-0.27413103
-0.2735922
-0.27298221
-0.27228955
-0.27149445
-0.27056221
-0.26943441
-0.2680209
-0.26619763
-0.26381758
-0.26074922
-0.25688429
-0.25220735
-0.24675543
-0.24081767
-0.23412624
-0.2264595
-0.21871103
-0.21075701
-0.20246949
-0.19407604
-0.18566722
-0.17734011
-0.16918687
-0.16128772
-0.15369589
-0.14645714
-0.13956631
-0.13304033
-0.12679314
-0.12085506
-0.11501536
-0.10942459