/*--------------------------------*- C++ -*----------------------------------*\
  =========                 |
  \\      /  F ield         | OpenFOAM: The Open Source CFD Toolbox
   \\    /   O peration     | Website:  https://openfoam.org
    \\  /    A nd           | Version:  13
     \\/     M anipulation  |
\*---------------------------------------------------------------------------*/
FoamFile
{
    format      ascii;
    class       volScalarField;
    location    "0.0045";
    object      p;
}
// * * * * * * * * * * * * * * * * * * * * * * * * * * * * * * * * * * * * * //

dimensions      [1 -1 -2 0 0 0 0];

internalField   nonuniform List<scalar> 
1000
(
100000
100000
100000
100000
100000
100000
100000
100000
100000
100000
100000
100000
100000
100000
100000
100000
100000
100000
100000
100000
100000
100000
100000
100000
100000
100000
100000
100000
100000
100000
100000
100000
100000
100000
100000
100000
100000
100000
100000
100000
100000
100000
100000
100000
100000
100000
100000
100000
100000
100000
100000
100000
100000
100000
100000
100000
100000
100000
100000
100000
100000
100000
100000
100000
100000
100000
100000
100000
100000
100000
100000
100000
100000
100000
100000
100000
100000
100000
100000
100000
100000
100000
100000
100000
100000
100000
100000
100000
100000
100000
100000
100000
100000
100000
100000
100000
100000
100000
100000
100000
100000
100000
100000
100000
100000
100000
100000
100000
100000
100000
100000
100000
100000
100000
100000
100000
100000
100000
100000
100000
100000
100000
100000
100000
100000
100000
100000
100000
100000
100000
100000
100000
100000
100000
100000
100000
100000
100000
100000
100000
100000
100000
100000
100000
100000
100000
100000
100000
100000
100000
100000
100000
100000
100000
100000
100000
100000
100000
100000
100000
100000
100000
100000
100000
100000
100000
100000
100000
100000
100000
100000
100000
100000
100000
100000
100000
100000
100000
100000
100000
100000
100000
100000
100000
100000
100000
100000
100000
100000
100000
100000
100000
100000
100000
100000
100000
100000
100000
100000
100000
100000
100000
100000
100000
100000
100000
100000
100000
100000
100000
100000
100000
100000
100000
100000
100000
100000
100000
100000
100000
100000
100000
100000
100000
100000
100000
100000
100000
100000
100000
100000
100000
100000
100000
100000
100000
100000
100000
100000
100000
100000
100000
100000
100000
100000
100000
100000
100000
100000
100000
100000
100000
100000
100000
100000
100000
100000
100000
100000
100000
100000
100000
100000
100000
100000
100000
100000
100000
100000
100000
100000
100000
100000
100000
100000
100000
100000
100000
100000
100000
100000
100000
100000
100000
100000
100000
100000
100000
100000
99999.9
99999.9
99999.8
99999.7
99999.6
99999.3
99999
99998.5
99997.8
99996.8
99995.3
99993.2
99990.2
99986.1
99980.4
99972.5
99961.9
99947.6
99928.6
99903.6
99871.1
99829.3
99776.1
99709.2
99626.1
99524
99400.2
99252
99076.9
98872.9
98638.4
98372.9
98076.2
97749.3
97393.8
97011.9
96606.2
96179.7
95735.5
95276.5
94805.6
94325.1
93837.3
93343.8
92846.1
92345.4
91842.5
91338
90832.4
90326.1
89819.4
89312.6
88805.6
88298.8
87792.3
87286
86780.3
86275
85770.3
85266.4
84763.2
84260.8
83759.4
83258.9
82759.5
82261.2
81764
81268.1
80773.4
80280
79788
79297.4
78808.2
78320.5
77834.4
77349.8
76866.7
76385.4
75905.7
75427.7
74951.4
74476.8
74004.1
73533.1
73064
72596.7
72131.3
71667.8
71206.2
70746.6
70288.9
69833.1
69379.4
68927.7
68478
68030.4
67584.8
67141.3
66699.9
66260.5
65823.3
65388.2
64955.3
64524.4
64095.8
63669.3
63245
62822.8
62402.9
61985.2
61569.6
61156.3
60745.3
60336.4
59929.8
59525.5
59123.4
58723.6
58326
57930.7
57537.7
57147
56758.5
56372.4
55988.6
55607.1
55227.8
54851
54476.4
54104.2
53734.3
53366.7
53001.5
52638.6
52278.1
51919.9
51564.2
51210.8
50859.7
50511.1
50164.8
49821
49479.5
49140.5
48803.8
48469.6
48137.9
47808.5
47481.6
47157.2
46835.3
46515.8
46198.8
45884.3
45572.3
45262.9
44955.9
44651.5
44349.7
44050.4
43753.7
43459.6
43168.2
42879.3
42593.1
42309.6
42028.8
41750.6
41475.2
41202.5
40932.6
40665.5
40401.1
40139.6
39881
39625.3
39372.4
39122.6
38875.6
38631.7
38390.8
38153
37918.2
37686.6
37458.2
37232.9
37010.9
36792.1
36576.6
36364.5
36155.8
35950.5
35748.6
35550.2
35355.4
35164.2
34976.6
34792.6
34612.3
34435.8
34263
34094
33928.9
33767.7
33610.3
33456.9
33307.5
33162.1
33020.7
32883.4
32750.1
32620.8
32495.7
32374.6
32257.7
32144.8
32036
31931.3
31830.6
31734
31641.3
31552.7
31467.9
31387.1
31310
31236.7
31167.2
31101.2
31038.9
30980
30924.5
30872.3
30823.3
30777.4
30734.6
30694.6
30657.4
30622.9
30590.9
30561.4
30534.3
30509.3
30486.4
30465.5
30446.5
30429.2
30413.6
30399.5
30386.8
30375.4
30365.3
30356.2
30348.3
30341.2
30335
30329.6
30325
30320.9
30317.5
30314.5
30312.1
30310
30308.3
30306.9
30305.8
30305
30304.3
30303.9
30303.6
30303.4
30303.4
30303.4
30303.6
30303.8
30304.1
30304.4
30304.7
30305.1
30305.5
30305.9
30306.3
30306.7
30307.1
30307.6
30308
30308.4
30308.8
30309.2
30309.6
30310
30310.4
30310.8
30311.2
30311.6
30311.9
30312.3
30312.6
30313
30313.3
30313.6
30313.9
30314.2
30314.5
30314.8
30315.1
30315.4
30315.7
30316
30316.2
30316.5
30316.7
30317
30317.2
30317.5
30317.7
30318
30318.2
30318.4
30318.6
30318.8
30319.1
30319.3
30319.5
30319.7
30319.9
30320.1
30320.3
30320.4
30320.6
30320.8
30321
30321.2
30321.4
30321.5
30321.7
30321.9
30322.1
30322.2
30322.4
30322.6
30322.7
30322.9
30323.1
30323.2
30323.4
30323.6
30323.7
30323.9
30324.1
30324.2
30324.4
30324.5
30324.7
30324.8
30325
30325.1
30325.3
30325.4
30325.5
30325.7
30325.8
30325.9
30326.1
30326.2
30326.3
30326.4
30326.6
30326.7
30326.8
30326.9
30327
30327.2
30327.3
30327.4
30327.5
30327.7
30327.8
30327.9
30328
30328.2
30328.3
30328.4
30328.6
30328.7
30328.9
30329
30329.1
30329.3
30329.4
30329.6
30329.7
30329.9
30330
30330.2
30330.3
30330.5
30330.6
30330.8
30330.9
30331.1
30331.3
30331.4
30331.6
30331.7
30331.9
30332
30332.1
30332.3
30332.4
30332.5
30332.5
30332.6
30332.6
30332.6
30332.6
30332.5
30332.4
30332.2
30331.9
30331.5
30331.1
30330.4
30329.6
30328.6
30327.4
30325.9
30324.1
30321.8
30319.1
30315.9
30311.9
30307.2
30301.5
30294.7
30286.6
30276.9
30265.4
30251.6
30235.2
30215.6
30192.3
30164.6
30131.7
30092.5
30045.8
29990.2
29924
29845.1
29750.9
29638.5
29503.9
29342.7
29149.1
28916
28634.6
28293.4
27878.1
27369.7
26743.3
25965.2
24988.4
23744
22128.4
20001.3
17270.8
14219.8
11781
10568
10154.1
10039.1
10009.7
10002.4
10000.6
10000.1
10000
10000
10000
10000
10000
10000
10000
10000
10000
10000
10000
10000
10000
10000
10000
10000
10000
10000
10000
10000
10000
10000
10000
10000
10000
10000
10000
10000
10000
10000
10000
10000
10000
10000
10000
10000
10000
10000
10000
10000
10000
10000
10000
10000
10000
10000
10000
10000
10000
10000
10000
10000
10000
10000
10000
10000
10000
10000
10000
10000
10000
10000
10000
10000
10000
10000
10000
10000
10000
10000
10000
10000
10000
10000
10000
10000
10000
10000
10000
10000
10000
10000
10000
10000
10000
10000
10000
10000
10000
10000
10000
10000
10000
10000
10000
10000
10000
10000
10000
10000
10000
10000
10000
10000
10000
10000
10000
10000
10000
10000
10000
10000
10000
10000
10000
10000
10000
10000
10000
10000
10000
10000
10000
10000
10000
10000
10000
10000
10000
10000
10000
10000
10000
10000
10000
10000
10000
10000
10000
10000
10000
10000
10000
10000
10000
10000
10000
10000
10000
10000
10000
10000
10000
10000
10000
10000
10000
10000
10000
10000
10000
10000
10000
10000
10000
10000
10000
10000
10000
10000
10000
10000
10000
10000
10000
10000
10000
10000
10000
10000
10000
10000
10000
10000
10000
10000
10000
10000
10000
10000
10000
10000
10000
10000
10000
10000
10000
10000
10000
10000
10000
10000
10000
10000
10000
10000
10000
10000
10000
10000
10000
10000
10000
10000
10000
10000
10000
10000
10000
10000
10000
10000
10000
10000
10000
10000
10000
10000
10000
10000
10000
10000
10000
10000
10000
10000
10000
)
;

boundaryField
{
    sides
    {
        type            zeroGradient;
    }
    empty
    {
        type            empty;
    }
}


// ************************************************************************* //
