/*--------------------------------*- C++ -*----------------------------------*\
  =========                 |
  \\      /  F ield         | OpenFOAM: The Open Source CFD Toolbox
   \\    /   O peration     | Website:  https://openfoam.org
    \\  /    A nd           | Version:  13
     \\/     M anipulation  |
\*---------------------------------------------------------------------------*/
FoamFile
{
    format      ascii;
    class       volScalarField;
    location    "0.05";
    object      T;
}
// * * * * * * * * * * * * * * * * * * * * * * * * * * * * * * * * * * * * * //

dimensions      [0 0 0 1 0 0 0];

internalField   nonuniform List<scalar> 
1000
(
177.616
177.615
177.611
177.606
177.602
177.6
177.598
177.597
177.595
177.594
177.593
177.591
177.59
177.589
177.589
177.588
177.588
177.587
177.587
177.588
177.588
177.588
177.589
177.589
177.59
177.591
177.592
177.593
177.595
177.596
177.598
177.599
177.601
177.603
177.605
177.608
177.61
177.613
177.615
177.618
177.621
177.625
177.629
177.633
177.637
177.641
177.646
177.65
177.655
177.659
177.664
177.669
177.673
177.677
177.682
177.688
177.692
177.696
177.701
177.708
177.713
177.719
177.722
177.728
177.735
177.74
177.745
177.748
177.76
177.768
177.773
177.777
177.785
177.793
177.794
177.797
177.815
177.825
177.831
177.827
177.833
177.858
177.868
177.869
177.861
177.878
177.906
177.915
177.916
177.903
177.922
177.954
177.965
177.964
177.95
177.972
178.008
178.017
178.003
177.997
178.043
178.069
178.069
178.043
178.061
178.116
178.127
178.104
178.095
178.141
178.166
178.166
178.146
178.162
178.203
178.212
178.196
178.188
178.235
178.254
178.215
178.219
178.315
178.324
178.241
178.226
178.357
178.416
178.447
178.452
178.32
178.269
178.389
178.499
178.453
178.327
178.321
178.504
178.577
178.503
178.374
178.362
178.545
178.628
178.555
178.428
178.421
178.614
178.689
178.601
178.481
178.482
178.683
178.751
178.653
178.539
178.551
178.754
178.808
178.693
178.596
178.646
178.843
178.867
178.726
178.654
178.739
178.927
178.937
178.787
178.723
178.806
178.999
179.014
178.866
178.797
178.9
179.074
179.069
178.917
178.869
179.028
179.156
179.107
178.965
178.952
179.156
179.236
179.139
179.022
179.047
179.265
179.312
179.182
179.089
179.161
179.35
179.348
179.226
179.194
179.272
179.345
179.357
179.365
179.356
179.333
179.387
179.428
179.434
179.417
179.44
179.504
179.513
179.499
179.504
179.58
179.596
179.585
179.572
179.652
179.683
179.669
179.643
179.729
179.777
179.756
179.713
179.804
179.878
179.851
179.787
179.869
179.977
179.956
179.871
179.918
180.07
180.071
179.97
179.963
180.144
180.188
180.094
180.028
180.174
180.296
180.25
180.13
180.159
180.371
180.407
180.288
180.209
180.316
180.509
180.511
180.372
180.314
180.407
180.62
180.637
180.504
180.437
180.485
180.716
180.751
180.639
180.567
180.552
180.777
180.88
180.821
180.706
180.669
180.787
180.991
181
180.866
180.806
180.832
181.079
181.137
181.04
180.941
180.924
181.149
181.257
181.209
181.077
181.071
181.255
181.309
181.266
181.203
181.232
181.349
181.371
181.381
181.383
181.366
181.428
181.481
181.476
181.45
181.565
181.633
181.635
181.561
181.588
181.778
181.791
181.684
181.632
181.668
181.92
181.973
181.886
181.786
181.765
181.988
182.106
182.08
181.943
181.9
182.066
182.234
182.239
182.106
182.042
182.163
182.363
182.383
182.264
182.185
182.275
182.493
182.521
182.418
182.329
182.397
182.623
182.66
182.572
182.471
182.521
182.755
182.798
182.725
182.615
182.65
182.885
182.934
182.876
182.761
182.783
183.014
183.071
183.024
182.902
182.915
183.149
183.208
183.168
183.045
183.047
183.279
183.351
183.319
183.189
183.176
183.407
183.487
183.432
183.338
183.369
183.495
183.515
183.521
183.493
183.521
183.627
183.646
183.65
183.635
183.682
183.743
183.738
183.737
183.828
183.851
183.836
183.857
183.958
183.972
183.956
183.967
184.06
184.09
184.089
184.077
184.177
184.231
184.237
184.247
184.227
184.26
184.386
184.406
184.417
184.388
184.395
184.546
184.582
184.558
184.475
184.525
184.722
184.751
184.767
184.721
184.662
184.75
184.873
184.884
184.904
184.913
184.865
184.902
185.059
185.094
185.1
185.019
184.967
185.162
185.296
185.317
185.224
185.138
185.189
185.397
185.42
185.393
185.317
185.333
185.489
185.528
185.545
185.559
185.557
185.534
185.638
185.711
185.727
185.739
185.734
185.72
185.832
185.883
185.898
185.9
185.877
185.964
186.036
186.048
186.041
186.032
186.148
186.192
186.203
186.191
186.19
186.319
186.357
186.372
186.373
186.348
186.437
186.523
186.538
186.547
186.526
186.552
186.678
186.704
186.715
186.702
186.698
186.827
186.865
186.869
186.829
186.885
187
187.016
187.003
186.955
187.05
187.171
187.193
187.209
187.222
187.212
187.201
187.338
187.394
187.413
187.428
187.428
187.401
187.512
187.595
187.614
187.631
187.636
187.608
187.685
187.804
187.829
187.843
187.857
187.846
187.842
187.981
188.024
188.04
188.049
188.025
188.073
188.201
188.225
188.238
188.237
188.212
188.322
188.406
188.423
188.436
188.425
188.421
188.555
188.6
188.614
188.618
188.599
188.672
188.746
188.753
188.734
188.807
188.885
188.892
188.871
188.934
189.031
189.045
189.039
189.031
189.156
189.202
189.214
189.2
189.208
189.345
189.383
189.396
189.392
189.37
189.495
189.572
189.591
189.604
189.6
189.579
189.703
189.774
189.792
189.802
189.784
189.806
189.942
189.972
189.984
189.974
189.97
190.112
190.16
190.176
190.181
190.15
190.237
190.358
190.381
190.399
190.412
190.399
190.394
190.549
190.605
190.625
190.64
190.644
190.613
190.71
190.825
190.847
190.866
190.879
190.861
190.867
191.028
191.076
191.097
191.115
191.124
191.098
191.15
191.297
191.324
191.34
191.353
191.34
191.34
191.486
191.535
191.549
191.554
191.525
191.604
191.741
191.767
191.782
191.794
191.774
191.79
191.957
191.993
192.008
192.028
192.042
192.021
192.042
192.211
192.256
192.269
192.282
192.286
192.256
192.358
192.469
192.493
192.507
192.511
192.481
192.543
192.681
192.709
192.723
192.732
192.711
192.745
192.907
192.929
192.94
192.959
192.948
192.944
193.094
193.14
193.161
193.189
193.196
193.168
193.219
193.342
193.388
193.391
193.392
193.361
193.447
193.557
193.563
193.569
193.537
193.621
193.716
193.723
193.725
193.705
193.781
193.89
193.897
193.905
193.873
193.917
194.057
194.065
194.073
194.047
194.063
194.184
194.232
194.24
194.235
194.228
194.351
194.374
194.391
194.376
194.373
194.5
194.545
194.558
194.558
194.532
194.626
194.702
194.713
194.72
194.691
194.723
194.842
194.867
194.879
194.875
194.849
194.945
195.056
195.054
195.06
195.051
195.033
195.153
195.185
195.186
195.209
195.205
195.191
195.294
195.324
195.323
195.354
195.368
195.347
195.414
195.463
195.459
195.485
195.518
195.5
195.518
195.584
195.587
195.587
195.643
195.662
195.638
195.661
195.773
195.788
195.795
195.807
195.798
195.766
195.839
195.907
195.911
195.919
195.926
195.894
195.914
195.994
196.012
196.029
196.035
196.016
196.003
196.084
196.125
196.129
196.106
196.079
196.152
196.203
196.211
196.177
196.15
196.232
196.282
196.293
196.25
196.215
196.304
196.365
196.38
196.328
196.276
196.364
196.454
196.474
196.422
196.327
196.378
196.527
196.563
196.554
196.411
196.379
196.547
196.646
196.678
196.6
196.443
196.455
196.666
196.732
196.768
196.693
196.517
196.519
196.721
196.787
196.821
196.858
196.711
196.566
196.633
196.88
196.937
196.981
196.842
196.636
196.639
196.922
197.027
197.072
196.916
196.703
196.7
196.967
197.069
197.107
196.985
196.838
196.836
196.952
196.99
196.937
196.889
196.992
197.056
196.947
196.874
197.042
197.177
197.216
197.256
197.049
196.883
196.949
197.204
197.248
197.3
197.191
196.97
196.953
197.149
197.252
197.281
197.155
197.047
197.077
197.212
197.228
197.147
197.113
197.187
197.235
197.196
197.152
197.199
197.25
197.227
197.186
197.217
197.266
197.258
197.225
197.239
197.284
197.285
197.258
197.26
197.314
197.322
197.292
197.273
197.339
197.382
197.35
197.291
197.337
197.423
197.374
197.283
197.388
197.533
197.424
197.245
197.312
197.6
197.646
197.377
197.205
197.237
197.605
197.704
197.663
197.345
197.244
197.273
197.633
197.742
197.591
197.32
197.266
197.443
197.725
197.791
197.635
197.356
197.326
197.553
197.686
197.716
197.789
197.705
197.381
197.344
197.577
197.778
197.866
197.72
197.392
197.363
197.412
197.75
197.867
197.754
197.431
197.391
197.545
197.741
197.778
197.844
197.813
197.478
197.419
197.434
197.774
197.911
197.797
197.469
197.431
197.51
197.827
197.9
197.685
197.473
197.48
197.788
197.896
197.787
197.544
197.481
197.684
197.915
197.881
197.59
197.538
197.714
197.874
197.823
197.632
197.605
197.797
197.888
197.751
197.609
197.71
197.908
197.85
197.629
197.662
197.917
197.905
197.666
197.673
197.888
197.901
197.764
)
;

boundaryField
{
    sides
    {
        type            zeroGradient;
    }
    empty
    {
        type            empty;
    }
}


// ************************************************************************* //
