/*--------------------------------*- C++ -*----------------------------------*\
  =========                 |
  \\      /  F ield         | OpenFOAM: The Open Source CFD Toolbox
   \\    /   O peration     | Website:  https://openfoam.org
    \\  /    A nd           | Version:  13
     \\/     M anipulation  |
\*---------------------------------------------------------------------------*/
FoamFile
{
    format      ascii;
    class       volScalarField;
    location    "23.202689";
    object      omega;
}
// * * * * * * * * * * * * * * * * * * * * * * * * * * * * * * * * * * * * * //

dimensions      [0 0 -1 0 0 0 0];

internalField   nonuniform List<scalar> 
17140
(
3736295.3
603677.89
185335.22
78621.559
40006.187
22786.586
13993.817
9063.586
6105.1998
4237.1876
3010.2138
2178.7245
1600.8628
1190.8845
894.98413
678.32149
517.72783
397.44116
306.52589
237.26483
184.13087
143.11433
111.27425
86.434037
66.972303
51.677481
39.645469
30.204929
22.857667
17.224484
12.994826
9.890212
7.6531159
6.0569426
4.9187381
4.1020911
3.5107616
3.0788474
2.7616615
2.5287768
2.3591828
2.2380171
2.1544257
2.1002673
2.0700491
2.0576079
2.0558414
2.0638399
2.079162
2.0997506
2.1244735
2.1529253
2.1852032
2.221505
2.2616841
2.3051507
2.3511736
2.3985832
2.4464895
2.492366
2.534873
2.5721704
2.6060048
2.6406586
2.6991019
3736320.9
603682.52
185336.91
78622.434
40006.712
22786.935
13994.065
9063.7704
6105.3423
4237.301
3010.3061
2178.8011
1600.9275
1190.9399
895.03229
678.36392
517.76574
397.47554
306.55758
237.29456
184.15929
143.14203
111.30174
86.461756
67.000508
51.706199
39.674388
30.233341
22.884522
17.248638
13.01542
9.9069664
7.6663267
6.0672199
4.926741
4.1083819
3.5157708
3.0828916
2.7649695
2.5315131
2.3614531
2.2399058
2.1560129
2.1016384
2.0713041
2.0588325
2.0571436
2.0653663
2.0810121
2.1020139
2.1271957
2.1560785
2.1886498
2.224968
2.2647447
2.3072439
2.3516939
2.3970858
2.4426313
2.4873285
2.5316305
2.5775608
2.6324671
2.7078075
2.8236758
3736345.9
603686.63
185338.19
78622.979
40006.996
22787.102
13994.174
9063.848
6105.4022
4237.3508
3010.3505
2178.843
1600.9688
1190.9818
895.07595
678.40998
517.81473
397.52787
306.61357
237.35443
184.2232
143.21003
111.37376
86.537495
67.07935
51.787035
39.755445
30.312098
22.957902
17.313625
13.069965
9.9505994
7.7000387
6.0927917
4.9460626
4.1230763
3.5270828
3.0917164
2.7719452
2.5371022
2.3660094
2.243708
2.1592986
2.1046659
2.0743124
2.0619937
2.0607325
2.0697422
2.0864475
2.1088074
2.1356464
2.1664727
2.201242
2.2399247
2.2820545
2.3268081
2.3735151
2.4216467
2.470699
2.5209541
2.5741818
2.6380638
2.7212679
2.8296789
2.9647071
3736372.1
603690.9
185339.52
78623.551
40007.295
22787.282
13994.295
9063.9381
6105.4755
4237.4155
3010.4115
2178.9034
1601.0309
1191.0471
895.14553
678.48474
517.89535
397.61488
306.70736
237.45529
184.33124
143.3252
111.49577
86.665674
67.212499
51.923162
39.891518
30.443933
23.08047
17.422028
13.160851
10.023186
7.7559594
6.1350155
4.9777614
4.1469791
3.5452965
3.1057887
2.7829895
2.5459241
2.3732095
2.2497586
2.1646003
2.1096529
2.0793676
2.0673634
2.0668968
2.0772561
2.0957652
2.1204471
2.1501695
2.1844867
2.2233939
2.2668268
2.314171
2.3645598
2.4175669
2.4731285
2.5311031
2.5926973
2.6592216
2.7401778
2.8358617
2.9521611
3.0817762
3736400.1
603695.44
185340.92
78624.153
40007.611
22787.475
13994.429
9064.0412
6105.563
4237.4959
3010.49
2178.9836
1601.1149
1191.1369
895.24232
678.58955
518.00899
397.73797
306.84034
237.59844
184.48464
143.48869
111.66881
86.847244
67.40083
52.115427
40.083497
30.629857
23.253417
17.575207
13.289531
10.126146
7.8353655
6.1949683
5.0227151
4.1808071
3.57101
3.1256045
2.798508
2.5583065
2.3833226
2.2582826
2.1721092
2.1167585
2.0865884
2.0750805
2.0758011
2.0880681
2.1091512
2.1371654
2.1710638
2.2105029
2.2555679
2.306131
2.3612886
2.4200802
2.4822984
2.5482139
2.617422
2.6909028
2.7669278
2.8571695
2.9527634
3.0667453
3.1803402
3736429.1
603700.13
185342.36
78624.776
40007.943
22787.681
13994.575
9064.1569
6105.6642
4237.5915
3010.5855
2179.0827
1601.2204
1191.2505
895.36557
678.72365
518.15486
397.89634
307.01175
237.78318
184.68278
143.69996
111.89251
87.082018
67.644404
52.364208
40.332153
30.871101
23.478453
17.775269
13.458313
10.261739
7.9402684
6.2743239
5.0822619
4.2256108
3.6050446
3.1518115
2.8190181
2.5746695
2.3966951
2.269571
2.1820749
2.1262022
2.096191
2.0853153
2.0876664
2.1024156
2.1268998
2.1593507
2.1988577
2.2452423
2.2987048
2.3589211
2.4244586
2.4941944
2.5679697
2.645994
2.7268315
2.8104032
2.891099
2.9841222
3.074039
3.1826466
3.2733452
3736459.3
603704.96
185343.85
78625.422
40008.291
22787.9
13994.732
9064.2844
6105.7782
4237.7012
3010.6969
2179.1997
1601.3457
1191.3863
895.5136
678.88522
518.33105
398.08801
307.21952
238.00744
184.92361
143.95704
112.16501
87.368351
67.941881
52.668586
40.637123
31.167992
23.756664
18.024011
13.669481
10.432407
8.0729642
6.3750598
5.1580172
4.2826761
3.6484167
3.1852174
2.8451698
2.5955441
2.4137693
2.2839999
2.1948256
2.1382762
2.1084504
2.0983757
2.1027947
2.1206817
2.1495126
2.1876938
2.2345303
2.2900976
2.3547015
2.4275326
2.5063481
2.5899252
2.6779168
2.7698783
2.8626269
2.9542002
3.0359017
3.128377
3.2125914
3.3172315
3.3664521
3736490.6
603709.97
185345.38
78626.094
40008.655
22788.131
13994.901
9064.423
6105.9038
4237.8237
3010.8225
2179.3325
1601.4888
1191.5421
895.68387
679.07149
518.5346
398.30983
307.46038
238.26782
185.20367
144.2565
112.48298
87.703105
68.290454
53.026248
40.996778
31.519781
24.088337
18.322753
13.925168
10.640697
8.2360079
6.4994654
5.2518984
4.3535545
3.7023669
3.2268167
2.8777694
2.6215956
2.4351058
2.3020543
2.2107949
2.153381
2.1237629
2.1146928
2.1216806
2.143499
2.1778473
2.2234101
2.2798487
2.347635
2.427075
2.5163501
2.6122867
2.7139463
2.8204844
2.9297741
3.0368894
3.1345213
3.215349
3.3064219
3.3911629
3.4761552
3.4678046
3736522
603715.12
185346.98
78626.792
40009.032
22788.372
13995.079
9064.5711
6106.0393
4237.957
3010.96
2179.4787
1601.6469
1191.7146
895.87283
679.27864
518.76136
398.5574
307.72968
238.55949
185.51798
144.59329
112.84142
88.081463
68.685639
53.433244
41.407954
31.924364
24.472659
18.672057
14.227129
10.889117
8.4321408
6.6501233
5.3661369
4.440088
3.7683884
3.2778191
2.9178076
2.6536502
2.4614111
2.3243583
2.2305564
2.1720682
2.1426992
2.1349121
2.1451087
2.1718997
2.2133382
2.2685732
2.3378782
2.4223272
2.5218183
2.6327865
2.7516361
2.8784451
3.011408
3.1453565
3.2703362
3.3743802
3.4530358
3.5424631
3.62139
3.657304
3.5281991
3736555.2
603720.5
185348.65
78627.517
40009.424
22788.624
13995.265
9064.7271
6106.1828
4238.0986
3011.1065
2179.6349
1601.8162
1191.8997
896.07599
679.50175
519.00603
398.82499
308.02133
238.87605
185.85993
144.96064
113.23353
88.496715
69.121021
53.883701
41.865618
32.377897
24.907313
19.071329
14.57639
11.179875
8.6641388
6.8298427
5.5032642
4.5444222
3.8482517
3.3396783
2.9664893
2.6927267
2.4935719
2.3517132
2.2548705
2.1950988
2.1660797
2.1600006
2.1743031
2.2075363
2.2583293
2.3266283
2.4137723
2.5215711
2.6483903
2.7886862
2.9400657
3.104247
3.2775075
3.4467961
3.594728
3.7108629
3.7826111
3.864946
3.9118085
3.8052469
3.4174659
3736589.7
603726.07
185350.37
78628.27
40009.832
22788.885
13995.459
9064.8887
6106.3315
4238.2455
3011.2587
2179.7972
1601.9923
1192.0925
896.28789
679.7348
519.26205
399.10558
308.32783
239.20954
186.22117
145.34992
113.6505
88.940067
69.588018
54.369519
42.362505
32.87437
25.387988
19.518295
14.972761
11.514487
8.9345453
7.0415106
5.6660472
4.6689916
3.9440149
3.4141145
3.0252625
2.7400695
2.5326935
2.3851465
2.2847472
2.2235237
2.1950737
2.1914015
2.2111507
2.2530192
2.3165958
2.4032184
2.5159896
2.6568598
2.8209449
3.003163
3.2042133
3.4269486
3.6638863
3.8821378
4.0636965
4.1961397
4.242023
4.2842117
4.1610953
3.839158
2.8163428
3736625.1
603731.81
185352.15
78629.047
40010.253
22789.154
13995.657
9065.0535
6106.4825
4238.3942
3011.4124
2179.961
1602.17
1192.2872
896.50212
679.97077
519.52176
399.39081
308.64019
239.55041
186.59161
145.7506
114.08148
89.40049
70.075657
54.88008
42.888733
33.405126
25.907803
20.008359
15.414176
11.893195
9.2452346
7.2878147
5.8573387
4.8164519
4.0580043
3.5031212
3.0958401
2.7971821
2.5801452
2.4259716
2.3215325
2.2588088
2.2313305
2.2312717
2.2585518
2.3124592
2.3942095
2.5075674
2.6579396
2.8447388
3.0612571
3.3092812
3.5914177
3.9084657
4.246793
4.5311763
4.7466587
4.878486
4.8207591
4.6052607
4.179652
3.2327588
1.3919376
3736662.3
603737.81
185354.01
78629.852
40010.687
22789.429
13995.858
9065.219
6106.6327
4238.541
3011.5634
2180.1214
1602.3438
1192.4775
896.71157
680.20178
519.77649
399.67126
308.9482
239.88765
186.95954
146.15031
114.51356
89.864702
70.570492
55.402066
43.431516
33.958431
26.456725
20.533876
15.895881
12.31417
9.5967523
7.5707737
6.079785
4.9895189
4.1927364
3.6089372
3.1802039
2.865853
2.6376065
2.4758605
2.3670241
2.3030533
2.2771329
2.2828775
2.3209939
2.3923892
2.5010589
2.6547135
2.859221
3.1090353
3.4074806
3.7686042
4.1882832
4.6541681
5.1409462
5.4860645
5.6686514
5.4801352
5.0997631
4.4611902
3.127152
1.4540032
0.64003729
3736699.8
603743.95
185355.91
78630.683
40011.134
22789.71
13996.06
9065.3823
6106.7787
4238.6819
3011.707
2180.2731
1602.5076
1192.6566
896.90871
680.41946
520.01698
399.93675
309.24075
240.20924
187.312
146.53523
114.93211
90.317403
71.056735
55.919475
43.975024
34.519164
27.021054
21.083413
16.409513
12.772515
9.9873895
7.8910068
6.3353208
5.190652
4.3507342
3.7339508
3.2805666
2.9481623
2.707113
2.5369264
2.423577
2.3589919
2.3362173
2.3510888
2.4055379
2.5034327
2.6535929
2.8678766
3.1466211
3.4915642
3.9342658
4.4986787
5.1474211
5.8211548
6.4417905
6.4772486
6.2026173
5.5437361
4.4268485
2.6283039
1.2767242
0.63839969
0.34424621
3736738.4
603750.27
185357.87
78631.541
40011.592
22789.994
13996.26
9065.5406
6106.9169
4238.8127
3011.8384
2180.4106
1602.6552
1192.8175
897.08577
680.61514
520.23365
400.1767
309.50625
240.50253
187.63527
146.89056
115.32132
90.741807
71.516773
56.414079
44.500731
35.068988
27.583337
21.641339
16.942324
13.259216
10.412041
8.2467031
6.6243686
5.4214944
4.5341651
3.8804812
3.3992579
3.0464489
2.7910999
2.6118504
2.494415
2.4306012
2.4140939
2.4435483
2.5236746
2.6634923
2.8787962
3.1785408
3.5660061
4.0798448
4.7905951
5.711914
6.6872964
7.3964589
7.2347284
6.7942223
5.7176021
3.8069911
1.9462297
1.0291984
0.56320678
0.35015169
0.23852237
3736780.4
603757.04
185359.94
78632.43
40012.06
22790.279
13996.457
9065.6918
6107.045
4238.9306
3011.9542
2180.5297
1602.7818
1192.9548
897.23641
680.78162
520.41835
400.38195
309.73443
240.75607
187.91666
147.20231
115.66586
91.12128
71.932704
56.866826
44.988667
35.587385
28.123114
22.188154
17.47697
13.760364
10.861017
8.6323142
6.9446672
5.68196
4.7441912
4.0503508
3.5384722
3.1632075
2.8924477
2.7041408
2.583973
2.5237845
2.5193514
2.5726408
2.6949809
2.9033452
3.2148262
3.6371019
4.2209671
5.0589944
6.253654
7.694624
8.3175508
8.0829988
7.2830193
5.4184118
2.9114733
1.5367008
0.84257804
0.50447269
0.33064931
0.25211373
0.19726925
3736824.8
603764.07
185362.09
78633.349
40012.539
22790.566
13996.649
9065.8334
6107.1598
4239.032
3012.0503
2180.626
1602.8822
1193.0624
897.35381
680.91121
520.5624
400.54276
309.9144
240.95772
188.14268
147.45555
115.94926
91.437751
72.284815
57.256379
45.415964
36.0502
28.615421
22.698944
17.989919
14.255358
11.31815
9.0366484
7.2895205
5.9687865
4.9798791
4.2441262
3.6997957
3.3008663
3.0145011
2.8183691
2.6985225
2.6480386
2.665724
2.7595757
2.9543761
3.2693121
3.7189303
4.3649461
5.3452637
6.7919163
8.6713136
9.173356
8.8279762
7.6424064
4.9688954
2.455241
1.301018
0.74725729
0.47082285
0.330713
0.25004377
0.21191035
0.17744142
3736869.6
603771.24
185364.3
78634.292
40013.025
22790.851
13996.833
9065.9631
6107.2589
4239.114
3012.1233
2180.6954
1602.9517
1193.135
897.43201
680.99712
520.65812
400.65044
310.03632
241.09638
188.30084
147.63624
116.1558
91.673639
72.553552
57.561105
45.758864
36.431606
29.032607
23.144812
18.452144
14.716867
11.759703
9.4409798
7.645654
6.2735566
5.2365907
4.4599351
3.8834429
3.4614445
3.1611893
2.9608743
2.8480615
2.8190043
2.8760302
3.0437797
3.3574517
3.8285172
4.5371028
5.6596083
7.4059145
9.5960262
10.031981
9.5644158
8.0020528
4.5582057
2.2602175
1.2078347
0.71316317
0.46836893
0.33560147
0.26194361
0.21444168
0.18879642
0.15733002
3736913.9
603778.56
185366.56
78635.251
40013.516
22791.133
13997.009
9066.0803
6107.3416
4239.1756
3012.172
2180.7365
1602.9888
1193.1708
897.46854
681.03632
520.7018
400.70048
310.09476
241.16552
188.38332
147.73509
116.27446
91.815978
72.723752
57.763417
45.997158
36.708629
29.348916
23.497467
18.833465
15.113929
12.155714
9.8188858
7.9919538
6.5808987
5.504168
4.6919754
4.0872788
3.6462195
3.3375339
3.1415332
3.0495136
3.0632311
3.1943406
3.4990049
3.9870627
4.7608839
6.0586957
8.1348915
10.490262
10.874566
10.301324
8.4274513
4.3724074
2.1885013
1.1885365
0.7178704
0.48217244
0.35302862
0.27551113
0.2281434
0.18855203
0.16589575
0.14439942
3736961
603786.21
185368.9
78636.243
40014.018
22791.416
13997.178
9066.1854
6107.4077
4239.2165
3012.1959
2180.7484
1602.9922
1193.1679
897.46133
681.02626
520.69031
400.689
310.08488
241.15911
188.38263
147.74289
116.29413
91.851531
72.77986
57.845293
46.11023
36.857851
29.537477
23.726282
19.0998
15.410425
12.470375
10.136976
8.2993434
6.8674831
5.7655238
4.9292346
4.3061072
3.8559804
3.5513548
3.3776711
3.3343486
3.4292445
3.7145476
4.2522273
5.0779554
6.570116
9.0904759
11.453264
11.709501
11.03944
8.8788842
4.3785767
2.2131001
1.217713
0.74728843
0.50973203
0.37821208
0.29680854
0.23765048
0.19562164
0.16531225
0.15246924
0.13441256
3737011.6
603794.26
185371.36
78637.272
40014.532
22791.698
13997.341
9066.2788
6107.4576
4239.237
3012.1952
2180.7316
1602.9623
1193.1271
897.411
680.9676
520.62433
400.61673
310.00752
241.0781
188.29976
147.6604
116.21478
91.778717
72.717652
57.798444
46.084173
36.858713
29.572378
23.801053
19.217678
15.570433
12.665591
10.356919
8.5322242
7.1028898
5.9970694
5.1559425
4.5328138
4.0937076
3.8187472
3.7046808
3.7613369
4.0286088
4.6246747
5.5665746
7.2261192
10.237559
12.439868
12.566231
11.805157
9.3763498
4.5581391
2.3135183
1.2824769
0.79606111
0.5483839
0.41058184
0.31825682
0.24979123
0.20120597
0.1736833
0.15369776
0.14140649
0.12594223
3737062.3
603802.45
185373.86
78638.324
40015.054
22791.979
13997.496
9066.3602
6107.4914
4239.2374
3012.1704
2180.6863
1602.8994
1193.0485
897.31774
680.86042
520.50383
400.4835
309.86228
240.92183
188.13384
147.48672
116.03587
91.597871
72.538989
57.626959
45.925641
36.719413
29.458385
23.718379
19.171638
15.565257
12.705263
10.440926
8.6553526
7.2561907
6.1746572
5.3573737
4.7651758
4.3742159
4.1795549
4.1990825
4.4605627
5.1141348
6.2335954
8.0928456
11.493369
13.505461
13.474166
12.622377
9.9404484
4.8555211
2.4716611
1.3758434
0.85961903
0.59864638
0.44849148
0.34155898
0.26357736
0.21295179
0.18252308
0.16121666
0.14172555
0.13172436
0.11907129
3737113.2
603810.8
185376.43
78639.401
40015.584
22792.26
13997.645
9066.4299
6107.5091
4239.2177
3012.1213
2180.6126
1602.8038
1192.9323
897.18188
680.70523
520.32949
400.29018
309.65024
240.6916
187.88635
147.22343
115.75895
91.310313
72.244788
57.331193
45.63451
36.440153
29.199016
23.487308
18.97702
15.414051
12.601747
10.387898
8.6551049
7.3137782
6.2900404
5.5365153
5.0252111
4.750258
4.7367778
5.0163627
5.7570061
7.0878008
9.1916006
12.841014
14.661434
14.465174
13.507025
10.547981
5.2189525
2.6721526
1.4943611
0.93673818
0.65703941
0.48794071
0.36647565
0.28211199
0.22968431
0.19482456
0.16667454
0.14642892
0.13225336
0.12460637
0.11367362
3737167.7
603819.61
185379.12
78640.515
40016.128
22792.542
13997.788
9066.4891
6107.512
4239.1791
3012.0496
2180.5122
1602.6773
1192.7811
897.0063
680.50543
520.10534
400.0415
309.37697
240.39392
187.56483
146.87919
115.39382
90.927049
71.847218
56.924405
45.224979
36.0358
28.809145
23.122381
18.648212
15.132547
12.377629
10.228959
8.5683374
7.3069165
6.3784555
5.7460151
5.4002011
5.3707441
5.6996414
6.5749987
8.1623909
10.516407
14.234786
15.877137
15.58
14.444791
11.172477
5.6541293
2.9138129
1.6357397
1.0302276
0.7233869
0.53195031
0.39655414
0.30774795
0.25022648
0.20782879
0.17378707
0.1515865
0.13803824
0.1262291
0.11909402
0.10919749
3737225.4
603828.82
185381.92
78641.68
40016.692
22792.832
13997.929
9066.5412
6107.5037
4239.1258
3011.9597
2180.3906
1602.5263
1192.6019
896.79945
680.27082
519.8427
399.7505
309.05739
240.04577
187.18853
146.4757
114.96485
90.475212
71.37629
56.439517
44.732845
35.5449
28.329866
22.667095
18.231369
14.771088
12.085058
10.01864
8.4557317
7.3137509
6.5466701
6.1361141
6.1127158
6.5273973
7.5829109
9.4518773
12.019561
15.653476
17.137411
16.760992
15.423342
11.811612
6.1525766
3.2019406
1.8023532
1.1386948
0.79706766
0.57997503
0.43288966
0.33823347
0.27323194
0.22187272
0.18389334
0.16026399
0.14410215
0.13047089
0.11973664
0.1134226
0.10494554
3737283.9
603838.24
185384.81
78642.885
40017.275
22793.131
13998.075
9066.5938
6107.4935
4239.0688
3011.8647
2180.2625
1602.3679
1192.4143
896.58321
680.02595
519.569
399.44771
308.72535
239.68457
186.79862
146.05811
114.52132
90.008406
70.890024
55.939014
44.224994
35.03852
27.835903
22.19869
17.803672
14.400592
11.794858
9.8403858
8.4317238
7.4959625
7.0108502
7.0066966
7.5332204
8.8053232
10.934398
13.656793
17.103009
18.456837
17.999641
16.454556
12.501995
6.7213229
3.5503928
2.0047415
1.2633732
0.87618824
0.63357755
0.47526186
0.37328567
0.29738641
0.23843049
0.19717917
0.17144626
0.15072592
0.13438497
0.12338669
0.11508447
0.10969939
0.10202502
3737344.3
603848.04
185387.8
78644.135
40017.885
22793.448
13998.236
9066.6608
6107.498
4239.0275
3011.787
2180.1537
1602.2309
1192.251
896.39418
679.81162
519.32948
399.18305
308.43568
239.37026
186.4604
145.69723
114.13972
89.608915
70.476615
55.517097
43.801781
34.623467
27.441242
21.839952
17.499963
14.174194
11.687054
9.9032288
8.7322083
8.1381419
8.140818
8.77834
10.258132
12.599055
15.429767
18.641993
19.857982
19.315444
17.552393
13.246257
7.3573985
3.9369914
2.2147792
1.3821986
0.95528715
0.69372129
0.52650648
0.41252093
0.3248767
0.25901069
0.21530294
0.18442311
0.15884116
0.13999867
0.1282544
0.1188809
0.11137735
0.10591761
0.099110541
3737407.1
603858.18
185390.92
78645.44
40018.531
22793.796
13998.427
9066.7597
6107.5374
4239.0254
3011.7536
2180.0949
1602.1505
1192.151
896.27625
679.67662
519.17809
399.0159
308.25347
239.17391
186.25116
145.47682
113.91051
89.374099
70.240461
55.285384
43.582316
34.426823
27.281929
21.738615
17.486983
14.297886
12.002562
10.493502
9.7146761
9.6761914
10.368025
11.977734
14.491888
17.403971
20.367368
21.365026
20.728183
18.725634
14.038401
8.0444652
4.3504672
2.4334438
1.5140154
1.0543591
0.7749734
0.58843789
0.45591562
0.35466048
0.2840632
0.23532014
0.19817735
0.16769188
0.14795396
0.13423047
0.12303084
0.11414323
0.10751273
0.10286373
0.097044282
3737471.9
603868.67
185394.15
78646.806
40019.222
22794.185
13998.659
9066.9038
6107.6277
4239.0808
3011.7852
2180.1097
1602.153
1192.1443
896.26246
679.6575
519.15511
398.99043
308.22696
239.148
186.22785
145.4587
113.90102
89.377996
70.264394
55.33851
43.677304
34.581277
27.520392
22.095054
18.008934
15.047805
13.067365
11.988983
11.795613
12.438343
14.059764
16.647189
19.732918
22.380653
23.014257
22.24287
19.977558
14.872801
8.7767892
4.7957403
2.6770258
1.6705455
1.1754019
0.86480002
0.65060503
0.49710312
0.38829488
0.31347533
0.25890631
0.21391677
0.18045475
0.15837465
0.14166764
0.1273402
0.11762418
0.11032911
0.1048539
0.10035196
0.095066073
3737539.4
603879.61
185397.5
78648.238
40019.958
22794.613
13998.933
9067.093
6107.7683
4239.1932
3011.8818
2180.1984
1602.2393
1192.2324
896.35556
679.75851
519.26677
399.11554
308.36853
239.30946
186.4133
145.67311
114.15062
89.670767
70.610684
55.752145
44.177104
35.193316
28.280778
23.052984
19.230115
16.620158
15.106541
14.638275
15.137089
16.636024
19.168591
22.278799
24.705075
24.844096
23.873416
21.272002
15.748389
9.5501957
5.2754107
2.9446251
1.8447868
1.3020613
0.95504502
0.7135712
0.54746548
0.43151197
0.3504179
0.28489811
0.233126
0.19580522
0.17077623
0.14933944
0.13340301
0.122488
0.11448654
0.10761302
0.10234258
0.098058776
0.093647442
3737610.3
603891
185400.99
78649.734
40020.733
22795.071
13999.234
9067.3104
6107.9399
4239.3407
3012.0185
2180.3333
1602.3789
1192.382
896.51982
679.94172
519.47332
399.35013
308.63642
239.61673
186.76711
146.08216
114.62565
90.225275
71.262033
56.523211
45.097971
36.303453
29.63212
24.713669
21.288392
19.187244
18.314882
18.574729
19.815361
22.154898
25.112686
27.215846
26.923142
25.64416
22.51009
16.677183
10.36347
5.7865956
3.2345835
2.0342813
1.4400517
1.0563362
0.79353075
0.61209795
0.4840377
0.38769636
0.31200493
0.25410309
0.21454815
0.18390668
0.15892036
0.14092491
0.12886494
0.11838524
0.11043359
0.10433875
0.099983168
0.096290188
0.092371104
3737682.9
603902.72
185404.61
78651.28
40021.536
22795.547
13999.548
9067.5389
6108.1226
4239.5003
3012.1694
2180.4856
1602.5403
1192.5589
896.71841
680.16806
519.73392
399.65227
308.98845
240.02847
187.25038
146.65131
115.29844
91.024162
72.215142
57.665951
46.475378
37.972636
31.664849
27.19877
24.331479
22.904185
22.81186
23.684646
25.686019
28.259065
29.898384
29.304372
27.587515
23.767521
17.673229
11.204644
6.3150332
3.5431229
2.241296
1.5923319
1.1715181
0.88372936
0.68354271
0.53580636
0.4261798
0.34224818
0.28256708
0.23704929
0.20058966
0.17081717
0.15149674
0.13600755
0.12363426
0.11425607
0.10794508
0.10249751
0.098281822
0.09454666
0.091245252
3737758.4
603914.96
185408.37
78652.886
40022.371
22796.045
13999.881
9067.7852
6108.3238
4239.6808
3012.3449
2180.6673
1602.7374
1192.7794
896.97022
680.45948
520.07413
400.05175
309.45952
240.58585
187.91187
147.43884
116.23887
92.150521
73.56853
59.297169
48.446765
40.359651
34.555859
30.69088
28.518573
27.854361
28.342437
29.779447
31.850432
32.696972
31.795692
29.59443
25.117071
18.715153
12.035612
6.8446828
3.8762314
2.47585
1.7636522
1.3001369
0.98432099
0.76143574
0.59546612
0.47207991
0.38279832
0.31569707
0.26255821
0.21750111
0.18559733
0.16261218
0.14425235
0.12927944
0.11951307
0.11150498
0.10525056
0.1001547
0.096524333
0.093397885
0.090389392
3737836.4
603927.56
185412.25
78654.558
40023.253
22796.584
14000.255
9068.0759
6108.5752
4239.919
3012.5875
2180.9272
1603.0255
1193.106
897.34564
680.89493
520.58219
400.64702
310.15931
241.4109
188.88729
148.59511
117.61329
93.788433
75.524679
61.636608
51.244442
43.698039
38.51564
35.332418
33.850275
33.801171
34.502238
35.823106
35.594619
34.350856
31.567596
26.472099
19.717403
12.8025
7.3812833
4.2560893
2.7476628
1.95272
1.438136
1.0940394
0.84887998
0.66437094
0.5285799
0.42775205
0.35135495
0.28755014
0.23904814
0.2032086
0.1770891
0.15383225
0.13796444
0.12583357
0.11637309
0.10838806
0.10299892
0.098521494
0.095142604
0.092040951
0.089520041
3737916.9
603940.59
185416.28
78656.316
40024.204
22797.189
14000.699
9068.4452
6108.9169
4240.2614
3012.9504
2181.3261
1603.4738
1193.6167
897.93241
681.57268
521.36791
401.56055
311.22415
242.65526
190.34523
150.3078
119.63037
96.169171
78.331792
64.92489
55.087215
48.15473
43.610412
41.017297
39.935734
39.927455
39.833061
38.886942
36.799685
33.356545
27.723492
20.64452
13.532141
7.9784694
4.7106479
3.0576794
2.1530258
1.5860282
1.2173417
0.95057811
0.74540219
0.59290115
0.47772684
0.38802002
0.31920704
0.26625487
0.2271375
0.19288383
0.1665427
0.1473572
0.13339295
0.1210734
0.11281131
0.10621336
0.1013023
0.097002032
0.093872701
0.091243469
0.088922572
3738001.3
603954.24
185420.52
78658.19
40025.245
22797.881
14001.235
9068.9196
6109.3794
4240.7437
3013.4748
2181.9109
1604.1358
1194.3725
898.79955
682.57086
522.5197
402.8924
312.76758
244.44815
192.43339
152.74429
122.47319
99.473624
82.144396
69.286344
60.018009
53.643424
49.566429
47.268372
45.941377
44.425296
42.182331
39.427326
35.199692
29.004861
21.598095
14.339232
8.6823113
5.2349221
3.3879239
2.3608045
1.7500644
1.3597495
1.065901
0.83638654
0.66424045
0.53367209
0.43352503
0.35743117
0.29974146
0.25009626
0.21042598
0.17992651
0.15966249
0.14144766
0.12830521
0.1180665
0.11062672
0.10394642
0.099321661
0.095579138
0.092807737
0.090280525
0.088210534
3738088.5
603968.4
185424.95
78660.177
40026.38
22798.669
14001.88
9069.5175
6109.9847
4241.3911
3014.1898
2182.7152
1605.0494
1195.4161
899.99521
683.94342
524.09766
404.70874
314.86032
246.86026
195.21121
155.93768
126.13332
103.65037
86.88018
74.580795
65.786974
59.693646
55.517557
52.314683
49.265495
46.028303
42.346656
37.163203
30.335446
22.606731
15.227837
9.4563664
5.7917818
3.7329127
2.5934367
1.9442401
1.5227257
1.1935412
0.93774112
0.74742086
0.6006991
0.48826165
0.40156549
0.33267452
0.27717209
0.23261956
0.20130497
0.1741835
0.1532253
0.13647872
0.12523515
0.11499961
0.1079344
0.10220006
0.098175802
0.094533829
0.091848294
0.089643034
0.087765397
3738178.6
603983.06
185429.56
78662.276
40027.613
22799.56
14002.64
9070.2467
6110.7413
4242.213
3015.1058
2183.7498
1606.2262
1196.759
901.52989
685.69762
526.10191
406.99645
317.46733
249.82358
198.56656
159.71354
130.34261
108.27924
91.876554
79.850666
71.060723
64.511321
59.285027
54.681637
50.2948
45.434059
39.244625
31.79311
23.770278
16.271376
10.35313
6.4403123
4.1555924
2.8909974
2.176551
1.7008077
1.3322482
1.0540733
0.84478825
0.67938275
0.54997617
0.45023855
0.37152407
0.31001773
0.26291475
0.22246614
0.19020583
0.16408913
0.14702566
0.13208573
0.12114369
0.11217863
0.1061185
0.1004834
0.096589644
0.093345727
0.091017827
0.088969398
0.087256088
3738271.2
603998.22
185434.36
78664.494
40028.95
22800.556
14003.513
9071.1052
6111.645
4243.2024
3016.2119
2184.9995
1607.6449
1198.3725
903.36511
687.7831
528.46747
409.67216
320.48124
253.19761
202.30998
163.81289
134.74753
112.88347
96.493229
84.192389
74.818413
67.370225
61.028809
55.174239
48.908
41.666643
33.567352
25.214611
17.530943
11.395931
7.1896445
4.6468102
3.2219857
2.4132993
1.8795693
1.4843709
1.1899723
0.95784222
0.76899139
0.62201272
0.50792474
0.41943188
0.34960002
0.2936855
0.24756959
0.20922374
0.18291425
0.15990667
0.1430663
0.12837738
0.11897903
0.11022738
0.1041937
0.099107041
0.095712587
0.09262384
0.090335729
0.088424134
0.086926334
3738367.1
604011.12
185436.99
78664.994
40029.03
22800.623
14003.693
9071.4441
6112.1652
4243.9182
3017.1363
2186.1462
1609.0296
1200.0126
905.27969
689.99203
530.98966
412.52277
323.66722
256.7113
206.12023
167.85388
138.90629
116.98858
100.30941
87.427855
77.161184
68.590987
60.834467
52.94392
44.552848
35.737099
26.980556
19.033591
12.617252
8.0802872
5.2451056
3.6214749
2.6960361
2.1029507
1.6788645
1.3551998
1.0886128
0.87268638
0.70697563
0.57740406
0.47454749
0.39393416
0.32890577
0.27702996
0.23632238
0.20199712
0.17504726
0.15247485
0.13775717
0.12486951
0.11570711
0.10773896
0.10265616
0.097788016
0.0945109
0.091623062
0.089686908
0.087984224
0.086575348
3739014.3
604121.8
185474.3
78682.746
40039.184
22807.215
14008.408
9075.0977
6115.1997
4246.5956
3019.6242
2188.5595
1611.4513
1202.5058
907.89341
692.76357
533.94458
415.67235
327.00387
260.20172
209.697
171.4068
142.27589
119.96638
102.64918
88.888857
77.478149
67.294566
57.543643
47.844701
38.189871
28.926504
20.642173
13.914217
9.0433933
5.9048406
4.0580101
2.9975774
2.3365404
1.8736762
1.5143124
1.2188884
0.98521243
0.80338438
0.65615579
0.5378992
0.44441314
0.3711762
0.3121117
0.26470017
0.2255009
0.19177804
0.16918421
0.14934049
0.13531548
0.12215624
0.11403586
0.10634438
0.10114668
0.096623877
0.093701325
0.091080875
0.089093628
0.087449285
0.086307207
3739013.7
604118.82
185471.93
78681.059
40038.106
22806.588
14008.13
9075.1098
6115.4681
4247.1029
3020.363
2189.5286
1612.6535
1203.945
909.5717
694.67814
536.08293
418.00664
329.48388
262.74727
212.19082
173.69034
144.15167
121.21807
103.02015
88.008865
74.977216
63.093132
51.876346
41.20461
31.285315
22.544512
15.431357
10.183678
6.6992195
4.5858297
3.3579949
2.6100152
2.0991998
1.7058792
1.3871301
1.132017
0.92317926
0.75000763
0.61283609
0.50534239
0.41985743
0.3521903
0.29675024
0.25193407
0.21582195
0.18574208
0.16357824
0.14314402
0.13041463
0.11904106
0.11128955
0.10417075
0.099898266
0.095594662
0.092882911
0.090244043
0.088693545
0.087137443
0.086092829
3739013.8
604118.98
185472.1
78681.289
40038.405
22806.964
14008.59
9075.6626
6116.1236
4247.8707
3021.2527
2190.5489
1613.811
1205.2422
911.00476
696.23307
537.73128
419.70023
331.14938
264.28175
213.46116
174.53576
144.36536
120.51668
101.1143
84.74195
70.378583
57.379301
45.463624
34.673981
25.273479
17.579099
11.778377
7.7938918
5.292082
3.8148526
2.9340882
2.3554015
1.9216702
1.572314
1.2855509
1.046385
0.85176651
0.69905256
0.57713273
0.47824871
0.39880842
0.3359161
0.28416389
0.24267187
0.20858738
0.17867596
0.15811293
0.14041139
0.12867199
0.11690312
0.10989667
0.10303146
0.098569263
0.094574045
0.092050287
0.089765087
0.088122533
0.086759569
0.085873747
3739014
604119.09
185472.2
78681.422
40038.578
22807.183
14008.861
9075.9927
6116.5185
4248.3365
3021.7944
2191.1694
1614.5095
1206.0122
911.83112
697.0885
538.57276
420.46563
331.75169
264.60335
213.34495
173.77755
142.75822
117.90697
97.430933
80.022131
64.801532
51.279732
39.303039
28.959556
20.440074
13.87775
9.2264806
6.2096115
4.3960146
3.3318424
2.6620451
2.1788357
1.7935833
1.4742107
1.2081396
0.99141675
0.81487714
0.66861115
0.55041144
0.4566059
0.38185669
0.3226082
0.27358617
0.23375618
0.20118834
0.17391518
0.15521303
0.13660412
0.12531083
0.11480935
0.10804066
0.10156055
0.097815628
0.093903322
0.091619633
0.089277492
0.087903166
0.086508368
0.085702806
3739014.9
604119.19
185472.23
78681.448
40038.613
22807.233
14008.928
9076.0807
6116.6307
4248.4751
3021.9599
2191.3593
1614.7164
1206.2217
912.01859
697.2158
538.5833
420.27843
331.2612
263.68193
211.85414
171.59038
139.77089
114.06733
92.770182
74.68227
59.045824
45.473044
33.855813
24.244434
16.707017
11.202066
7.5025154
5.2117246
3.8607076
3.0388081
2.477545
2.0448477
1.6886134
1.3906939
1.1429909
0.93645976
0.76664529
0.63175241
0.52453575
0.43755993
0.36719716
0.31119747
0.26447812
0.22707057