/*--------------------------------*- C++ -*----------------------------------*\
  =========                 |
  \\      /  F ield         | OpenFOAM: The Open Source CFD Toolbox
   \\    /   O peration     | Website:  https://openfoam.org
    \\  /    A nd           | Version:  13
     \\/     M anipulation  |
\*---------------------------------------------------------------------------*/
FoamFile
{
    format      ascii;
    class       volVectorField;
    location    "23.202689";
    object      UMean;
}
// * * * * * * * * * * * * * * * * * * * * * * * * * * * * * * * * * * * * * //

dimensions      [0 1 -1 0 0 0 0];

internalField   nonuniform List<vector> 
17140
(
(-2.9070169e-06 0.0001219187 -1.7868191e-22)
(-3.7772771e-05 0.00037514798 -1.4109373e-23)
(-0.00011329654 0.00065171534 9.3265794e-22)
(-0.00024522878 0.00095274322 -1.0257249e-21)
(-0.0004478002 0.0012793777 1.1996943e-22)
(-0.00074039913 0.0016325142 -3.9274811e-22)
(-0.0011467901 0.0020127318 -6.6158466e-22)
(-0.0016955424 0.002420183 3.2355373e-22)
(-0.0024208673 0.002854464 1.0596056e-21)
(-0.0033634035 0.0033144656 2.6019803e-21)
(-0.0045709647 0.0037982071 -3.8656633e-21)
(-0.0060991956 0.0043026624 3.4520363e-21)
(-0.0080120699 0.0048235864 5.290776e-22)
(-0.010382114 0.0053553589 -3.0065181e-21)
(-0.013290229 0.0058908759 3.3487793e-22)
(-0.016824968 0.0064215126 -2.6662199e-21)
(-0.021081134 0.006937211 1.0036001e-22)
(-0.026157597 0.0074267277 -2.1813959e-23)
(-0.032154312 0.007878088 -1.6040196e-21)
(-0.039168682 0.0082792652 2.0965013e-21)
(-0.047291568 0.0086190746 -1.0147346e-21)
(-0.056603484 0.0088882102 1.9666025e-22)
(-0.067172404 0.0090802887 1.4480975e-21)
(-0.079055848 0.0091927567 -1.4480948e-21)
(-0.092298372 0.0092276274 -2.3144661e-21)
(-0.10693198 0.009191493 1.8716945e-21)
(-0.12298888 0.0090936948 9.193352e-21)
(-0.14052113 0.0089457069 1.0758934e-21)
(-0.15958185 0.008761601 -9.5414503e-21)
(-0.1802133 0.0085517225 -2.2220697e-21)
(-0.20246721 0.0083202201 -7.951359e-21)
(-0.22639127 0.0080669093 1.0501374e-20)
(-0.25202425 0.0077892433 -2.7257547e-21)
(-0.2793903 0.0074834903 -1.3103356e-21)
(-0.30849065 0.0071451625 -1.2799646e-20)
(-0.33929345 0.00676939 5.6415821e-21)
(-0.37172188 0.0063511449 -8.4448143e-21)
(-0.40563919 0.0058853598 -5.6907126e-21)
(-0.44083079 0.0053673273 -2.5861675e-21)
(-0.47698543 0.0047940255 7.8316575e-21)
(-0.5136778 0.0041647684 1.4640134e-20)
(-0.55035043 0.003481024 1.3160231e-20)
(-0.58629574 0.0027443283 5.6920096e-21)
(-0.62065479 0.0019529444 -2.7161552e-20)
(-0.65240166 0.0011041377 -1.9539215e-20)
(-0.68040114 0.00020263016 4.7315949e-21)
(-0.70356921 -0.00075379287 -3.1607516e-20)
(-0.72061219 -0.0017606643 -1.0557531e-20)
(-0.73026855 -0.0027974511 1.0604011e-20)
(-0.73156053 -0.0038272892 2.5650871e-20)
(-0.72367753 -0.004806729 -1.5678103e-20)
(-0.70590237 -0.005709936 -9.8698609e-21)
(-0.67765012 -0.0065654279 2.5703701e-20)
(-0.63845923 -0.0073617859 1.2199338e-20)
(-0.58787265 -0.0080303451 8.7829991e-21)
(-0.52583554 -0.0085348723 -6.9234825e-21)
(-0.45227298 -0.0088293659 1.9169426e-20)
(-0.36754141 -0.0088798264 1.6248994e-20)
(-0.27199831 -0.0086620285 4.158736e-21)
(-0.16740455 -0.0082232194 -1.0815666e-20)
(-0.05485311 -0.0076213382 -8.6395094e-21)
(0.061235343 -0.0070270601 -3.2460075e-20)
(0.18129592 -0.0066925461 -4.8249745e-21)
(0.29597402 -0.0068237965 4.0876675e-20)
(0.4144903 -0.0074565215 -3.193418e-20)
(-2.964675e-05 0.00069198837 5.0673204e-23)
(-0.0001194185 0.0021285402 -4.8833206e-21)
(-0.00025420362 0.0036968285 4.3464278e-21)
(-0.0004496845 0.0054040269 -1.1856292e-21)
(-0.00072011848 0.0072567481 -2.4496586e-21)
(-0.0010847598 0.0092602751 4.6827907e-21)
(-0.0015671064 0.011418083 -4.8854358e-21)
(-0.0021953023 0.013731206 4.3032497e-22)
(-0.0030029422 0.01619747 -1.3447971e-21)
(-0.0040298208 0.018810622 -2.2443516e-23)
(-0.0053226494 0.021559359 -4.5030867e-21)
(-0.0069356834 0.024426291 7.1717809e-21)
(-0.0089312022 0.027386921 5.9366277e-22)
(-0.011379727 0.030408717 -5.8769495e-21)
(-0.01435986 0.033450464 1.8121225e-21)
(-0.017957607 0.036462068 1.1547786e-21)
(-0.022265058 0.039385111 -7.3487047e-21)
(-0.027378323 0.042154421 2.4050252e-20)
(-0.033394713 0.044700977 -1.512758e-20)
(-0.040409288 0.046956314 1.8198517e-20)
(-0.048511079 0.048858429 -2.7014732e-20)
(-0.057779465 0.050358766 6.6550613e-21)
(-0.068282023 0.051429401 2.7576481e-21)
(-0.080076473 0.052068964 -9.0262569e-21)
(-0.09320913 0.0523058 3.2622262e-20)
(-0.10771334 0.052194583 4.8529419e-21)
(-0.12362184 0.051800357 -2.540838e-20)
(-0.14098834 0.051186965 2.8526124e-20)
(-0.15986642 0.050408985 -3.9851228e-21)
(-0.18029774 0.04950964 -3.8600017e-20)
(-0.20233282 0.04851569 4.0450959e-21)
(-0.22601778 0.047439454 3.0716917e-20)
(-0.25138907 0.046282771 7.2227318e-22)
(-0.27846768 0.045039444 -2.2938674e-20)
(-0.307251 0.043696429 2.5636085e-20)
(-0.33770255 0.042234538 -1.1511837e-20)
(-0.36973981 0.040628783 1.363957e-20)
(-0.40321921 0.038848738 4.3094079e-20)
(-0.43791812 0.036859668 9.5613996e-21)
(-0.47351567 0.034625686 3.728557e-20)
(-0.50957468 0.032112551 -4.7632062e-20)
(-0.54552258 0.029288716 -4.3283539e-20)
(-0.58063145 0.026124394 -7.2281004e-21)
(-0.6140099 0.022594274 5.8148079e-20)
(-0.64459207 0.018692765 -2.6877961e-20)
(-0.67122006 0.014452953 -9.1446914e-21)
(-0.69267915 0.0099048827 4.9321681e-21)
(-0.70771695 0.0050739225 1.4977359e-20)
(-0.7151148 7.9512836e-05 -7.2459527e-21)
(-0.71381079 -0.0049380803 1.294604e-20)
(-0.7029714 -0.0098825014 7.754433e-20)
(-0.6819396 -0.014688136 3.7094446e-21)
(-0.65017942 -0.019323645 -1.6712301e-20)
(-0.60728042 -0.023758706 3.734621e-20)
(-0.55293781 -0.027916904 -3.2173108e-20)
(-0.48708494 -0.031729134 9.2446284e-20)
(-0.40972642 -0.035125478 2.6690233e-20)
(-0.32135943 -0.037991575 -7.6802351e-20)
(-0.22240939 -0.040179858 1.3152426e-20)
(-0.11476469 -0.041560836 1.5398979e-20)
(0.00047311445 -0.042005672 3.1527416e-21)
(0.11866983 -0.041727827 -4.2262088e-20)
(0.24022146 -0.040676496 8.3706445e-20)
(0.35579816 -0.039791587 2.5190184e-20)
(0.47490597 -0.038139723 4.2485721e-20)
(-8.7575786e-05 0.0012503621 2.790614e-21)
(-0.00029610775 0.0038464525 -1.469284e-21)
(-0.00055893963 0.0066810927 -3.9078874e-22)
(-0.00089149998 0.0097676711 3.708213e-22)
(-0.0013080648 0.013118434 -1.7970821e-21)
(-0.0018275278 0.016743307 -1.3333846e-22)
(-0.0024727217 0.020649021 -1.7091582e-21)
(-0.0032707697 0.024837971 -1.8428477e-21)
(-0.0042538143 0.029306836 1.5087889e-20)
(-0.0054596909 0.034045001 -1.3491009e-20)
(-0.0069325754 0.039032782 6.4681383e-21)
(-0.0087235527 0.044239545 9.4954065e-21)
(-0.010891057 0.049621794 -1.8882557e-20)
(-0.013501085 0.055121454 -2.3424159e-21)
(-0.016627074 0.060664587 9.0862835e-21)
(-0.020349332 0.066160941 6.2705507e-21)
(-0.024753902 0.071504801 -7.3061359e-21)
(-0.029930766 0.076577704 2.657783e-20)
(-0.035971386 0.081253566 -1.5804448e-20)
(-0.042965666 0.085406625 7.8527664e-21)
(-0.050998621 0.088922217 -2.6660575e-20)
(-0.060147155 0.091709729 -6.9751271e-21)
(-0.070477981 0.09371611 1.4647229e-20)
(-0.082049218 0.094937267 -2.2149749e-20)
(-0.094910836 0.095424135 -8.7326703e-21)
(-0.10909861 0.095277239 1.0627062e-20)
(-0.12464738 0.094618649 6.0387917e-20)
(-0.14161314 0.093565803 2.7337643e-20)
(-0.16004949 0.092213948 -1.3839143e-20)
(-0.17999815 0.090640668 1.4649648e-20)
(-0.20150608 0.088896912 -9.3807106e-21)
(-0.22461586 0.087008237 -5.2570644e-20)
(-0.24935849 0.084981145 1.7654334e-20)
(-0.27574778 0.082806988 5.2687264e-20)
(-0.30377203 0.080464227 -1.7827439e-20)
(-0.33338364 0.077919231 -2.478984e-20)
(-0.36448661 0.075126591 4.2927188e-20)
(-0.39692067 0.072030066 1.2988522e-20)
(-0.43044316 0.068564446 -2.3342006e-20)
(-0.46470945 0.064659967 -9.3914181e-21)
(-0.49925299 0.060247061 4.463847e-20)
(-0.53346362 0.055258116 -1.279228e-20)
(-0.56656569 0.049627793 -1.8262438e-20)
(-0.59760511 0.043303904 -4.8037333e-20)
(-0.62545242 0.036277289 9.0806201e-20)
(-0.64889375 0.028609908 -5.8069084e-20)
(-0.66664785 0.020389854 -1.431943e-20)
(-0.67743103 0.011695178 -5.6861941e-20)
(-0.6800607 0.0027163454 -6.775626e-20)
(-0.67356268 -0.0062939772 -3.408156e-21)
(-0.65720871 -0.015137205 1.4320218e-20)
(-0.63046912 -0.023711836 -1.0638669e-19)
(-0.59291921 -0.031988829 -4.562886e-20)
(-0.54425039 -0.039921739 -4.7315245e-20)
(-0.4842636 -0.04741136 -1.5643136e-20)
(-0.41302547 -0.054349298 -1.2345506e-19)
(-0.33071179 -0.060623279 4.9517349e-20)
(-0.23796118 -0.066065691 -1.5451777e-20)
(-0.135299 -0.070412075 -1.2880888e-19)
(-0.024799444 -0.073373549 -5.2063361e-20)
(0.092411573 -0.074589645 6.3285969e-20)
(0.21134677 -0.074287994 2.2134023e-19)
(0.33256568 -0.07217766 -7.1964653e-20)
(0.44608489 -0.070078049 -1.1674593e-19)
(0.56173555 -0.06561309 -5.0499225e-20)
(-0.0001748646 0.0017777723 -9.2974091e-21)
(-0.00056230605 0.00547013 1.0517469e-20)
(-0.0010180499 0.0095032738 -3.8040904e-21)
(-0.0015570774 0.013896917 4.1382076e-22)
(-0.0021937214 0.018669147 -8.1819669e-21)
(-0.0029463196 0.023834931 8.4727643e-21)
(-0.0038366953 0.029404872 -1.2860887e-20)
(-0.0048904245 0.035383604 6.0602814e-21)
(-0.0061374504 0.04176784 2.3063609e-20)
(-0.0076126399 0.048544126 -5.5575633e-21)
(-0.0093563256 0.05568631 -2.120094e-20)
(-0.01141478 0.063152803 6.4910413e-21)
(-0.013840593 0.070883785 4.3714e-22)
(-0.016692866 0.078798611 -1.7092806e-20)
(-0.020037147 0.086793781 5.3716574e-20)
(-0.023945008 0.094742015 -3.31481e-20)
(-0.028493169 0.10249311 -3.1725362e-22)
(-0.033762111 0.10987744 1.8560329e-20)
(-0.039834141 0.1167128 -4.7473307e-20)
(-0.046790992 0.12281555 2.2591181e-20)
(-0.054711173 0.1280158 3.3975601e-20)
(-0.063667382 0.13217629 1.3856863e-20)
(-0.073724647 0.13521244 -6.9297068e-20)
(-0.084941411 0.13710994 -3.6509855e-20)
(-0.097372282 0.13793471 2.3910255e-20)
(-0.11105727 0.13782788 -1.3992107e-20)
(-0.12603553 0.13696976 5.3092419e-20)
(-0.14236454 0.13553227 -1.5343793e-20)
(-0.16009844 0.13365259 4.1725869e-20)
(-0.17928028 0.1314446 -2.3804004e-20)
(-0.19995094 0.1289856 1.4727381e-20)
(-0.22214787 0.12631567 -5.4581333e-20)
(-0.24589372 0.12344655 7.9320262e-21)
(-0.27119166 0.12036727 -4.1699017e-20)
(-0.2980164 0.1170475 4.0196394e-20)
(-0.32630361 0.11343899 1.2707135e-20)
(-0.35593695 0.10947581 -1.616995e-19)
(-0.38673173 0.10507516 -4.2117579e-20)
(-0.41841594 0.10014061 3.5132634e-20)
(-0.45061031 0.094567615 -3.4529875e-20)
(-0.48280679 0.088249178 8.7475398e-21)
(-0.51434453 0.081078656 5.543456e-20)
(-0.54438683 0.072953419 -2.6181691e-21)
(-0.57190737 0.063796403 -1.818491e-20)
(-0.5957262 0.05360505 9.0209602e-21)
(-0.61461865 0.042477665 -3.9892037e-21)
(-0.62726922 0.030551119 -1.2323597e-20)
(-0.63242503 0.017992984 1.9289626e-19)
(-0.62901336 0.0051144276 -2.1360281e-20)
(-0.61622056 -0.0077333836 1.9734403e-20)
(-0.59347044 -0.020277152 -1.8520383e-19)
(-0.56036937 -0.032383707 1.0186099e-19)
(-0.516604 -0.044021758 8.3850167e-20)
(-0.46197471 -0.055143939 8.0717935e-20)
(-0.39641523 -0.065633282 7.8558693e-20)
(-0.3201926 -0.075355635 1.2502238e-19)
(-0.23365534 -0.084180185 -2.5290567e-19)
(-0.13763076 -0.091897393 1.5811749e-19)
(-0.032736907 -0.098116176 2.4459418e-19)
(0.078670085 -0.1024076 -1.8205769e-19)
(0.19541434 -0.10415768 -5.944718e-20)
(0.312042 -0.10370218 -5.3298023e-20)
(0.42957122 -0.10032832 2.7142908e-19)
(0.5372512 -0.096769733 2.0142288e-19)
(0.64466331 -0.089460252 -8.9302807e-21)
(-0.00028751741 0.0022549747 6.5016848e-21)
(-0.00090594163 0.0069407565 -1.5303531e-20)
(-0.0016108184 0.01206181 1.2481432e-20)
(-0.0024165842 0.01764426 -4.7192359e-21)
(-0.00333768 0.023712253 -1.7057678e-21)
(-0.0043917676 0.030286304 1.4691578e-20)
(-0.0055994153 0.037381712 -3.7266809e-21)
(-0.0069842567 0.045006563 -7.9210302e-21)
(-0.008573455 0.053159282 -6.0932473e-22)
(-0.010398106 0.061825796 -5.1828087e-21)
(-0.012493635 0.070976289 7.2746423e-21)
(-0.014900143 0.080561662 -5.0730718e-21)
(-0.017662686 0.090509833 -1.8757115e-20)
(-0.020831428 0.1007222 -5.4527954e-22)
(-0.024461621 0.11107071 1.448599e-20)
(-0.028613344 0.12139615 1.0323001e-20)
(-0.033350942 0.13150863 -8.9431934e-21)
(-0.038742121 0.14119126 8.7226175e-22)
(-0.044856686 0.15020811 1.7754074e-20)
(-0.051764963 0.15831769 2.1827574e-20)
(-0.059536062 0.16529212 -2.5177095e-20)
(-0.068236177 0.1709414 -2.561299e-20)
(-0.077927242 0.17514032 3.4853726e-20)
(-0.088667517 0.17785307 -4.3568513e-20)
(-0.10051578 0.1791487 -7.6161026e-20)
(-0.11351945 0.17919978 1.8138601e-19)
(-0.12772368 0.17824452 -1.0069699e-19)
(-0.143185 0.17650945 1.5000947e-19)
(-0.15996115 0.17417751 -1.8861892e-19)
(-0.17809794 0.17140073 2.1144309e-19)
(-0.19762799 0.16828542 -2.194406e-19)
(-0.21858217 0.16488845 3.7201427e-20)
(-0.24097259 0.16122792 1.2818185e-19)
(-0.26478886 0.15729087 -7.247998e-20)
(-0.28998882 0.15303823 2.2749604e-20)
(-0.3164876 0.14840682 6.7592741e-21)
(-0.34414369 0.14330975 8.186777e-20)
(-0.37274263 0.13763734 2.6505285e-20)
(-0.40197813 0.13126143 2.6480196e-20)
(-0.43143127 0.12404155 2.6546348e-20)
(-0.46054748 0.1158314 -1.3507057e-19)
(-0.48861239 0.10648299 5.9084459e-20)
(-0.51472965 0.095856598 9.0028539e-21)
(-0.5378171 0.083859019 -1.0681721e-19)
(-0.55668925 0.07051165 -5.3419823e-20)
(-0.57014165 0.055963735 2.6315901e-20)
(-0.57691993 0.040398828 9.3648126e-20)
(-0.57587743 0.024094198 -4.0805371e-20)
(-0.56607685 0.0074752374 1.1700913e-19)
(-0.5468178 -0.008998855 6.3228467e-20)
(-0.51764401 -0.024990155 8.7329928e-20)
(-0.47827171 -0.040357137 2.3335976e-19)
(-0.42846714 -0.055083405 -1.8149933e-19)
(-0.36813352 -0.069114413 5.88101e-20)
(-0.29736539 -0.082298169 -1.0353888e-19)
(-0.21666798 -0.094464403 -9.9335192e-20)
(-0.12663779 -0.10547324 -3.9073619e-20)
(-0.028393997 -0.11512425 -3.6645662e-19)
(0.077358076 -0.12289068 -1.0069743e-19)
(0.18788255 -0.12822745 2.3423736e-19)
(0.3019909 -0.13020768 8.9747397e-20)
(0.41376093 -0.1294048 -6.9075912e-20)
(0.52471487 -0.12465332 -1.4467848e-19)
(0.62409629 -0.11936075 -2.2567637e-19)
(0.72013668 -0.10924576 1.7649161e-20)
(-0.00041936451 0.0026634609 1.9644794e-20)
(-0.0013083248 0.0082016834 4.8976364e-21)
(-0.0023051417 0.014258743 -3.9695704e-21)
(-0.0034237077 0.020867176 -1.4661237e-20)
(-0.0046786512 0.028057374 8.0377681e-21)
(-0.0060869328 0.035855937 -1.1580256e-20)
(-0.0076677533 0.04428381 5.0164892e-21)
(-0.0094425896 0.053353986 1.1963656e-21)
(-0.01143548 0.063068668 -6.7850029e-21)
(-0.013673241 0.073415936 -1.4655845e-20)
(-0.016185686 0.084365896 -7.3490404e-22)
(-0.019005804 0.095866389 2.4250912e-20)
(-0.022169901 0.10783842 -3.3690112e-20)
(-0.02571767 0.1201716 5.4697709e-20)
(-0.029692185 0.13272017 -1.4386603e-20)
(-0.034139771 0.14530015 3.0786061e-20)
(-0.03910976 0.15768898 -3.7562933e-20)
(-0.044654096 0.16962858 2.4640602e-20)
(-0.050826821 0.1808336 -3.9431034e-21)
(-0.057683457 0.19100619 -1.6184242e-20)
(-0.065280382 0.19985812 3.9854002e-20)
(-0.073674278 0.20713988 -5.7064167e-20)
(-0.082921747 0.21267434 6.2951483e-20)
(-0.093079725 0.21638934 1.0908497e-20)
(-0.10420855 0.21834095 -1.0918017e-19)
(-0.11636788 0.21871772 1.1178338e-19)
(-0.12960821 0.21780646 -7.3634698e-20)
(-0.1439829 0.21589603 8.3410029e-20)
(-0.15956025 0.21322261 7.8140097e-21)
(-0.17638738 0.20997363 4.8675822e-21)
(-0.19448881 0.20628785 -3.4031062e-20)
(-0.21388717 0.20224321 2.1484666e-21)
(-0.23458278 0.19786628 -1.2931755e-19)
(-0.25654993 0.19314319 3.5325675e-20)
(-0.27972746 0.18802639 1.054187e-19)
(-0.30400729 0.18243758 -4.9441539e-20)
(-0.32922052 0.17626874 4.085536e-20)
(-0.35512114 0.16938363 -4.0875013e-20)
(-0.38136711 0.16162221 -2.2814222e-19)
(-0.40749941 0.15280742 1.2613537e-19)
(-0.43291872 0.14275242 3.0696944e-20)
(-0.45686304 0.13126786 -1.7341367e-19)
(-0.47839119 0.1181816 1.0422503e-20)
(-0.49640178 0.10339819 2.1250427e-20)
(-0.50976506 0.086980678 2.2450465e-19)
(-0.51733661 0.069134179 5.14484e-20)
(-0.5180028 0.05009279 -7.9869135e-20)
(-0.51074356 0.030235378 -8.0843542e-20)
(-0.49469532 0.010083778 -1.1373959e-19)
(-0.46918221 -0.0098004581 -1.3918867e-19)
(-0.43382054 -0.029003824 -8.4554404e-20)
(-0.38842863 -0.047374712 -1.3223221e-19)
(-0.33287049 -0.064912961 4.5527501e-20)
(-0.26717719 -0.081548197 -2.8174205e-19)
(-0.19164358 -0.097080634 -1.8934939e-20)
(-0.107057 -0.11130671 -1.6624008e-20)
(-0.01428967 -0.12408663 -8.9685169e-21)
(0.085241786 -0.13526439 3.9444086e-19)
(0.1906468 -0.14418541 1.5725498e-19)
(0.29879214 -0.15022736 -2.46298e-19)
(0.40845295 -0.15215424 -3.6086627e-19)
(0.51360116 -0.15078117 -1.6438143e-19)
(0.61578742 -0.14466512 -5.4492397e-20)
(0.70528561 -0.13740555 3.2006114e-19)
(0.78840229 -0.12456128 -8.129098e-20)
(-0.0005621383 0.002986697 -3.6753239e-21)
(-0.0017447762 0.009202035 -8.2196112e-21)
(-0.0030583757 0.01600588 1.9850175e-20)
(-0.0045168835 0.023436943 -7.3951837e-22)
(-0.0061350352 0.031531974 -9.6811577e-21)
(-0.0079291849 0.040324132 -4.2712737e-21)
(-0.0099172139 0.049840957 -3.158048e-21)
(-0.012118444 0.060101893 6.234653e-21)
(-0.014553723 0.071115186 -3.2344299e-20)
(-0.017245444 0.082874203 2.4477074e-20)
(-0.020217551 0.09535309 -1.185968e-21)
(-0.023495514 0.10850185 -1.4921105e-20)
(-0.027106285 0.12224097 5.610456e-20)
(-0.031078242 0.13645583 -5.6253117e-20)
(-0.035441117 0.15099147 7.5543465e-21)
(-0.040225944 0.16564844 4.7093472e-20)
(-0.045465058 0.18018085 -4.4725953e-20)
(-0.051192177 0.19429813 1.5823531e-20)
(-0.057442617 0.20767242 -3.1103505e-20)
(-0.064253692 0.21995328 4.0471138e-20)
(-0.071665346 0.23079137 7.7100644e-20)
(-0.079720979 0.23987132 -7.7504822e-20)
(-0.088468403 0.2469515 -1.1518194e-19)
(-0.097960769 0.2519054 2.2544171e-19)
(-0.10825829 0.2547548 -1.8318857e-19)
(-0.11942998 0.25568187 1.0755085e-19)
(-0.13153593 0.25500386 -2.8068307e-20)
(-0.14463213 0.25308345 6.6762367e-20)
(-0.15879053 0.25021757 -6.9057971e-20)
(-0.17406315 0.24662657 -9.3377182e-20)
(-0.19047208 0.24248549 6.2572596e-20)
(-0.20802737 0.2378995 1.0368438e-19)
(-0.22671794 0.23290733 -9.2659762e-21)
(-0.24650163 0.22749618 -3.8873774e-21)
(-0.2672969 0.22161069 -6.7473145e-20)
(-0.28897171 0.21515798 2.9254724e-20)
(-0.3113296 0.20800945 1.0732151e-19)
(-0.33409332 0.20000264 5.3831796e-20)
(-0.35688659 0.19094584 -8.2644616e-20)
(-0.37921334 0.1806254 6.5471538e-20)
(-0.40043564 0.16881419 -5.5206266e-20)
(-0.4197565 0.15528438 1.8717427e-20)
(-0.43621442 0.13984197 6.9855317e-20)
(-0.44873731 0.12240904 -1.6605819e-19)
(-0.45630156 0.10310205 -9.8136925e-20)
(-0.45788617 0.082174568 -6.3114927e-20)
(-0.45253373 0.059908081 1.9606101e-19)
(-0.43930205 0.036730766 1.2595434e-19)
(-0.41727722 0.013237839 1.4649178e-19)
(-0.38575848 -0.0098804867 2.5382867e-19)
(-0.34445931 -0.032096555 -8.7237347e-20)
(-0.29332107 -0.053238867 1.8332372e-20)
(-0.23232961 -0.073331465 1.464713e-19)
(-0.16169435 -0.092284269 4.3292067e-19)
(-0.081967967 -0.10983535 2.885959e-19)
(0.0057446211 -0.12575326 1.1526974e-19)
(0.10035483 -0.13990535 3.4190114e-19)
(0.2001961 -0.15220453 -2.3568577e-19)
(0.30412785 -0.16186743 2.4663187e-20)
(0.40865942 -0.16822661 3.9707746e-19)
(0.51243044 -0.16983473 2.7480511e-19)
(0.60982112 -0.16765761 1.3081169e-20)
(0.70199207 -0.16020966 -4.5275054e-19)
(0.78054286 -0.15098571 4.7745276e-20)
(0.85000237 -0.1354642 -6.9520849e-20)
(-0.00070610468 0.003211092 -1.4364243e-20)
(-0.0021853899 0.0098998438 6.7893205e-21)
(-0.003819155 0.017230092 -9.1766415e-21)
(-0.0056217394 0.025246318 -5.2192377e-21)
(-0.0076080542 0.033991543 1.4579184e-20)
(-0.0097940245 0.043505778 1.3625223e-20)
(-0.012196406 0.053823966 -1.4002772e-20)
(-0.014832586 0.064973443 1.6870774e-21)
(-0.01772046 0.076970741 3.9170245e-22)
(-0.020878244 0.089817714 2.7923975e-20)
(-0.024324252 0.10349689 -3.0762651e-21)
(-0.028076638 0.11796608 -5.6748207e-20)
(-0.032153123 0.13315231 4.560633e-20)
(-0.036570738 0.14894529 -1.5834791e-21)
(-0.041345619 0.16519085 -3.0990365e-20)
(-0.046492916 0.18168519 -2.6928457e-21)
(-0.052026915 0.19817089 6.9177195e-21)
(-0.057961453 0.21433654 3.154602e-20)
(-0.064310761 0.22982189 -5.8546379e-20)
(-0.071090821 0.24423108 1.0441938e-19)
(-0.078321274 0.257156 -2.2891126e-20)
(-0.086027808 0.26821102 1.7060433e-20)
(-0.094244777 0.27707784 -1.4306022e-20)
(-0.10301753 0.28355546 5.7223179e-22)
(-0.11240392 0.28760517 -8.7275347e-20)
(-0.12247512 0.28937529 -8.8268391e-20)
(-0.13330868 0.28918778 1.7698762e-19)
(-0.14496795 0.28746547 2.975395e-20)
(-0.15751548 0.28459131 -1.0489185e-19)
(-0.17101782 0.28083017 -3.7596718e-20)
(-0.18550148 0.27638364 -8.5397169e-20)
(-0.20096172 0.27139188 9.7188622e-20)
(-0.21737515 0.2659134 4.269526e-20)
(-0.23468244 0.25993916 -9.9754413e-20)
(-0.25278204 0.2534081 4.2157171e-20)
(-0.27151843 0.24621426 1.9705373e-20)
(-0.29066838 0.23820948 -5.931099e-20)
(-0.30992517 0.22920599 -1.5505878e-19)
(-0.32888113 0.21898139 -4.70029e-20)
(-0.34700745 0.20728631 3.1504564e-20)
(-0.36363582 0.19385581 7.4600243e-20)
(-0.37794939 0.17843035 7.6718606e-20)
(-0.3889932 0.1608083 8.4407447e-20)
(-0.39577338 0.14094968 1.7586862e-19)
(-0.39739511 0.11903806 -4.7940971e-21)
(-0.39299844 0.095352693 7.3059346e-20)
(-0.38173041 0.070184775 -3.9086559e-19)
(-0.36262003 0.04395088 -1.072958e-19)
(-0.33464932 0.017317683 -1.2164055e-19)
(-0.29721118 -0.008844604 -3.351093e-19)
(-0.25019457 -0.033864022 3.9045329e-19)
(-0.19366873 -0.057556285 -8.7212901e-20)
(-0.12774371 -0.079956175 -2.8168328e-19)
(-0.05282698 -0.10094053 -3.4928293e-19)
(0.030255853 -0.12018351 -4.501069e-20)
(0.12011428 -0.13745205 1.1460711e-19)
(0.21548891 -0.15263679 1.8760744e-19)
(0.31450869 -0.16571668 -8.0442296e-20)
(0.4158359 -0.17577106 1.4720492e-19)
(0.51568769 -0.18212831 -1.249257e-19)
(0.61256724 -0.18322827 -4.2668338e-20)
(0.70145531 -0.18004901 -1.2765741e-19)
(0.78304791 -0.17118668 5.6456709e-19)
(0.84984793 -0.1599101 1.8321155e-20)
(0.90465236 -0.14179804 2.2892452e-19)
(-0.00084042497 0.0033270956 1.3352213e-20)
(-0.0025968871 0.010265412 2.4948201e-21)
(-0.0045301946 0.017879206 -2.7431332e-21)
(-0.0066551946 0.026218098 -1.3491326e-20)
(-0.0089871392 0.035331 1.6193752e-20)
(-0.011541761 0.045264778 -1.3765704e-20)
(-0.014335011 0.056062257 -6.5867048e-21)
(-0.017382752 0.067759796 3.5397813e-22)
(-0.020700449 0.080384144 5.5813418e-21)
(-0.024302769 0.093948572 3.1815073e-20)
(-0.028203133 0.10844815 -5.3576419e-20)
(-0.032413204 0.12385407 6.4603628e-20)
(-0.036942358 0.14010715 -1.9056038e-20)
(-0.041797157 0.15711045 -2.5995403e-20)
(-0.046980922 0.17472152 4.0123264e-20)
(-0.052493463 0.19274482 -7.9684604e-20)
(-0.058331144 0.21092546 9.7425875e-20)
(-0.064487431 0.22894579 1.5434359e-21)
(-0.070954117 0.24642726 5.7076557e-20)
(-0.077723436 0.26294025 -2.2959469e-19)
(-0.084791116 0.27802491 5.6414792e-20)
(-0.092160386 0.29122535 2.3693742e-19)
(-0.099846489 0.30213725 -1.1384834e-19)
(-0.10788104 0.31046536 -1.3796015e-19)
(-0.11631498 0.31608124 3.5270996e-20)
(-0.12521863 0.31906488 1.8703399e-19)
(-0.13467721 0.31970834 -2.8742522e-19)
(-0.1447749 0.31845876 3.2258563e-19)
(-0.15557216 0.31579156 -2.5674313e-19)
(-0.1671289 0.31206747 4.9635805e-20)
(-0.17948835 0.30751155 -8.5665823e-20)
(-0.19264096 0.30228315 -1.2272907e-19)
(-0.20654911 0.29647176 4.8899185e-20)
(-0.22113707 0.290084 1.2806765e-20)
(-0.23628239 0.28305701 1.8224724e-19)
(-0.25180643 0.27527331 -3.5736041e-20)
(-0.26746049 0.26656646 9.1513353e-20)
(-0.2829103 0.25672469 -7.7496369e-20)
(-0.29771902 0.24549635 4.6299842e-20)
(-0.3113288 0.23259851 2.9993563e-20)
(-0.32304794 0.21773359 2.5627508e-20)
(-0.33205273 0.20062062 2.5404691e-20)
(-0.33741832 0.18106799 -1.5408328e-19)
(-0.3382617 0.15909406 -1.2027701e-19)
(-0.33380198 0.13494984 3.3743482e-20)
(-0.3233158 0.1089099 -2.1098084e-20)
(-0.30596865 0.081218804 8.7685837e-20)
(-0.28069796 0.052246019 -1.7203928e-19)
(-0.2465588 0.02276311 -1.9857942e-19)
(-0.20323916 -0.0061571963 -5.7281071e-20)
(-0.15083708 -0.033724616 -1.5060799e-19)
(-0.089493879 -0.059728187 4.8367753e-21)
(-0.019400818 -0.084209827 7.3337039e-20)
(0.05884171 -0.10699719 3.5824528e-19)
(0.14416157 -0.1276921 -1.8077094e-19)
(0.23495797 -0.14607164 7.3753288e-20)
(0.32986703 -0.16205307 -2.191437e-19)
(0.42693041 -0.17566677 3.7298847e-19)
(0.52456305 -0.18586404 -2.1696508e-19)
(0.61879606 -0.19185366 7.5669898e-20)
(0.7082063 -0.19218086 -1.0918496e-22)
(0.78825385 -0.18784612 6.1167357e-20)
(0.85890937 -0.17754051 2.2855425e-19)
(0.9128013 -0.16431223 -4.3497235e-19)
(0.95102123 -0.14406825 4.4708471e-19)
(-0.0009539056 0.003330306 -2.9534174e-20)
(-0.0029450089 0.010284617 -1.4111689e-20)
(-0.0051323152 0.017927735 2.2168846e-20)
(-0.0075312501 0.026313481 -5.8401484e-22)
(-0.010157554 0.035495923 -2.008227e-20)
(-0.01302703 0.045528351 -1.0514184e-20)
(-0.016155212 0.056461483 2.220002e-20)
(-0.019556997 0.068341268 -3.6518211e-21)
(-0.023246152 0.081205993 5.1632994e-20)
(-0.027234742 0.095082632 -1.0096253e-20)
(-0.031532463 0.10998227 -2.5894601e-22)
(-0.036145886 0.12589447 3.7454612e-20)
(-0.041077649 0.14278055 -1.2074055e-19)
(-0.046325632 0.16056573 5.6660865e-20)
(-0.051882194 0.17913032 1.0237891e-19)
(-0.057733606 0.19830053 -1.1019991e-19)
(-0.063859841 0.21783965 1.3713109e-20)
(-0.070234968 0.23744125 -7.9006828e-20)
(-0.076828438 0.2567266 -5.957772e-20)
(-0.083607552 0.27524943 1.9053773e-19)
(-0.090541389 0.29251176 -1.4564039e-19)
(-0.097606193 0.30799426 1.9530839e-19)
(-0.10479194 0.32120343 -2.3412844e-20)
(-0.11210912 0.33173386 9.7350914e-20)
(-0.11959423 0.33933782 -2.1557806e-19)
(-0.12731158 0.34398629 5.1918294e-20)
(-0.13534846 0.34589667 1.330142e-19)
(-0.14380099 0.34549894 -3.2603001e-19)
(-0.15275332 0.34332507 1.4353466e-19)
(-0.16225584 0.33985293 1.5590235e-19)
(-0.17234213 0.33539861 -1.3010953e-19)
(-0.18302279 0.33015053 -1.7377365e-20)
(-0.19424819 0.32420518 8.8580571e-20)
(-0.20592415 0.31758363 -4.9352754e-20)
(-0.21791236 0.31023393 7.6085712e-20)
(-0.23001274 0.30203382 -2.690502e-19)
(-0.24195063 0.29280221 1.4187431e-19)
(-0.25336386 0.2823059 8.5654301e-20)
(-0.26378626 0.27026591 1.7611679e-19)
(-0.27263292 0.25636952 2.3159565e-20)
(-0.27919347 0.24029351 -1.8924882e-19)
(-0.28264666 0.2217489 7.6064104e-20)
(-0.28211382 0.20057365 1.118988e-19)
(-0.27681728 0.17684884 1.7537259e-20)
(-0.26606127 0.15087775 -1.070272e-19)
(-0.24919154 0.1229153 -9.3336449e-20)
(-0.22533602 0.093118184 2.814288e-19)
(-0.19346743 0.061832936 1.4786965e-19)
(-0.15301557 0.02994868 3.1898061e-19)
(-0.10405901 -0.0013020171 1.1157446e-19)
(-0.046823333 -0.031057066 4.3213087e-20)
(0.018548795 -0.0591144 3.2054926e-19)
(0.091818368 -0.085479028 1.2673865e-19)
(0.17223526 -0.10988611 -4.2825007e-19)
(0.25854365 -0.13185116 3.4622155e-19)
(0.34901742 -0.15116889 -3.2086024e-19)
(0.44232391 -0.16777906 1.5509953e-19)
(0.5364531 -0.18170869 -7.5490792e-19)
(0.62947515 -0.19179449 -3.7981427e-19)
(0.71768297 -0.19735423 1.5414697e-19)
(0.79955443 -0.19691935 2.4211791e-19)
(0.87050731 -0.19133963 4.0566511e-19)
(0.92921798 -0.17944383 7.1216483e-20)
(0.96764636 -0.16413926 5.6298029e-20)
(0.98670729 -0.14228619 -5.9713628e-19)
(-0.0010360298 0.0032223859 -5.3084981e-22)
(-0.0031974731 0.0099617844 2.6130943e-20)
(-0.0055696097 0.017381908 -3.0825805e-20)
(-0.0081684374 0.025539512 -1.4846994e-20)
(-0.011010268 0.034492669 2.9766328e-20)
(-0.014111197 0.044300159 9.6536294e-21)
(-0.017486747 0.055019962 -4.6890976e-20)
(-0.021151447 0.066707433 5.0557462e-20)
(-0.02511822 0.079412815 1.0690818e-20)
(-0.029397668 0.093178025 4.26518e-20)
(-0.033997228 0.10803248 -1.1365624e-19)
(-0.038920208 0.12398782 -1.3935118e-21)
(-0.044164707 0.14103134 1.0305076e-19)
(-0.049722469 0.159118 -1.1131495e-19)
(-0.055577751 0.17816107 8.0290181e-20)
(-0.061706314 0.19802159 3.0037126e-20)
(-0.068074758 0.21849729 -6.3408316e-20)
(-0.074640453 0.23931225 5.7914534e-20)
(-0.081352456 0.26010929 7.8135593e-20)
(-0.088153883 0.28044837 -1.6853976e-21)
(-0.094986069 0.29981492 -1.2707524e-19)
(-0.10179491 0.31764296 7.9879619e-20)
(-0.10853916 0.3333571 -4.5264248e-20)
(-0.11519984 0.34643474 -2.2270983e-19)
(-0.12178911 0.35648408 -7.5585166e-20)
(-0.12835551 0.36332439 2.0873256e-19)
(-0.13498191 0.36704337 -2.1142679e-20)
(-0.14177179 0.36799803 2.4226879e-19)
(-0.1488248 0.36672893 -1.4543051e-19)
(-0.15621115 0.36380465 7.764645e-20)
(-0.16396661 0.35967557 -1.1397259e-19)
(-0.17208024 0.35460879 -2.8036602e-20)
(-0.18049911 0.34873209 1.4283006e-19)
(-0.18913335 0.34208361 -1.489361e-19)
(-0.1978263 0.33461613 -2.1994273e-19)
(-0.20635588 0.3262021 2.2749806e-20)
(-0.2144227 0.31664783 2.4242719e-19)
(-0.22163619 0.30570124 -3.1276858e-19)
(-0.2275002 0.29306203 6.8176443e-20)
(-0.23140324 0.27839354 -1.4620326e-19)
(-0.23262074 0.26135545 2.2556752e-20)
(-0.23034037 0.24166198 -2.2930886e-19)
(-0.22374144 0.21918751 -1.0991998e-19)
(-0.21211065 0.19408607 -1.3558948e-19)
(-0.19481701 0.16669499 5.4417067e-19)
(-0.17122706 0.13723482 1.7618079e-19)
(-0.14047012 0.10579684 -2.3371831e-19)
(-0.10183279 0.072734658 1.8907051e-19)
(-0.055285059 0.039041702 1.5738307e-19)
(-0.001201424 0.0059955713 -1.7721725e-19)
(0.06015865 -0.025574526 -9.2625164e-20)
(0.12867951 -0.055447083 -2.1745355e-19)
(0.20411485 -0.083510908 -1.0585202e-19)
(0.28562902 -0.10938232 3.627772e-19)
(0.37183495 -0.13249309 2.0501054e-19)
(0.46099996 -0.15265917 3.3089259e-20)
(0.55185996 -0.16986181 -1.4550893e-21)
(0.64237513 -0.1840528 1.8711782e-19)
(0.73051625 -0.19402306 -2.7074438e-19)
(0.81283246 -0.19883705 -3.5171201e-19)
(0.88727309 -0.19719276 -9.877471e-20)
(0.94819073 -0.19000557 -7.4981766e-19)
(0.99205763 -0.17643321 -5.966712e-19)
(1.0107646 -0.15972583 -1.5218156e-19)
(1.0096182 -0.13761147 -8.1048941e-20)
(-0.0010781326 0.0030117757 1.7917389e-20)
(-0.0033275691 0.0093219582 1.0935942e-20)
(-0.0057956434 0.016283721 -2.2757555e-20)
(-0.0084988116 0.023955171 3.9033434e-20)
(-0.011453926 0.032396811 9.7805382e-21)
(-0.014677506 0.041671413 -4.1952541e-20)
(-0.018185374 0.051842867 2.1474124e-22)
(-0.021992242 0.062974828 -2.5183216e-20)