/*--------------------------------*- C++ -*----------------------------------*\
  =========                 |
  \\      /  F ield         | OpenFOAM: The Open Source CFD Toolbox
   \\    /   O peration     | Website:  https://openfoam.org
    \\  /    A nd           | Version:  13
     \\/     M anipulation  |
\*---------------------------------------------------------------------------*/
FoamFile
{
    format      ascii;
    class       volScalarField;
    location    "39.699946";
    object      k;
}
// * * * * * * * * * * * * * * * * * * * * * * * * * * * * * * * * * * * * * //

dimensions      [0 2 -2 0 0 0 0];

internalField   nonuniform List<scalar> 
17140
(
7.000081e-12
2.1996683e-10
1.7987378e-09
7.7356689e-09
2.3804891e-08
6.007088e-08
1.3320967e-07
2.6998015e-07
5.1235294e-07
9.2503102e-07
1.6064122e-06
2.7044855e-06
4.4397712e-06
7.1382711e-06
1.1278574e-05
1.7558845e-05
2.6991554e-05
4.1036478e-05
6.1785834e-05
9.2219027e-05
0.00013654774
0.00020067307
0.00029277091
0.00042400201
0.00060929233
0.00086802127
0.0012242469
0.0017057482
0.0023407073
0.0031506205
0.0041390267
0.0052794421
0.0065117999
0.0077567946
0.0089433544
0.010029475
0.011004192
0.011877266
0.01266812
0.013399241
0.014093559
0.014773771
0.015462837
0.016184845
0.016965069
0.017829124
0.018803581
0.01991753
0.021201564
0.022687674
0.024408712
0.02639608
0.028673888
0.031242925
0.034085433
0.037169518
0.040422228
0.04362264
0.046218186
0.047711049
0.047999061
0.050655275
0.06122829
0.072114166
0.051435827
6.9012685e-12
2.168618e-10
1.7733511e-09
7.6265194e-09
2.3469098e-08
5.9223702e-08
1.3133133e-07
2.6617374e-07
5.0512996e-07
9.1199094e-07
1.5837675e-06
2.6663629e-06
4.37719e-06
7.0376593e-06
1.1119624e-05
1.7311439e-05
2.6611376e-05
4.0458814e-05
6.0916879e-05
9.0923873e-05
0.00013463403
0.00019786931
0.00028869869
0.00041814246
0.0006009496
0.0008562912
0.0012080089
0.001683714
0.0023115799
0.0031134177
0.0040935638
0.0052267852
0.0064542834
0.0076973358
0.0088844512
0.0099726372
0.010950019
0.011825827
0.01261935
0.013353156
0.014050297
0.014733678
0.015426394
0.016152586
0.016937594
0.017806878
0.018786789
0.019906057
0.021194573
0.022683222
0.024402781
0.026380232
0.028628091
0.031129128
0.033832555
0.036652945
0.039445012
0.041940829
0.043309525
0.043340407
0.041643876
0.041745108
0.055024785
0.075054266
0.068626669
6.7565149e-12
2.1231312e-10
1.7361545e-09
7.4665441e-09
2.2976757e-08
5.7981086e-08
1.2857514e-07
2.6058607e-07
4.9452238e-07
8.9283204e-07
1.5504821e-06
2.6103003e-06
4.2851142e-06
6.8895551e-06
1.0885525e-05
1.6946872e-05
2.6050864e-05
3.9606674e-05
5.963433e-05
8.9011168e-05
0.00013180613
0.00019372347
0.00028267285
0.0004094645
0.0005885814
0.00083887876
0.0011838642
0.0016508775
0.0022680401
0.0030575724
0.0040249229
0.0051466532
0.0063658423
0.0076047112
0.0087912679
0.009881137
0.010861116
0.011739636
0.012535686
0.013271839
0.013971251
0.014656964
0.015352193
0.016081135
0.016869134
0.017741606
0.01872464
0.019846542
0.021136617
0.022624655
0.024339669
0.026305468
0.028527634
0.030974007
0.033568731
0.036188203
0.03863649
0.040486909
0.040806883
0.039389704
0.034588256
0.028359896
0.041807083
0.073815253
0.079886246
6.5653952e-12
2.0630746e-10
1.6870437e-09
7.25533e-09
2.2326739e-08
5.6340577e-08
1.249366e-07
2.532101e-07
4.8052106e-07
8.6754585e-07
1.506556e-06
2.5363232e-06
4.1636297e-06
6.6941683e-06
1.0576722e-05
1.6466017e-05
2.5311628e-05
3.8482904e-05
5.7943028e-05
8.6488896e-05
0.00012807682
0.00018825548
0.00027472355
0.00039801242
0.0005722505
0.00081586901
0.0011519212
0.0016073639
0.0022102097
0.00298316
0.0039330625
0.0050388062
0.006245985
0.0074781913
0.0086629121
0.0097540114
0.010736515
0.011617732
0.012416178
0.013154339
0.013855453
0.014542684
0.015239343
0.015969651
0.016758906
0.017632422
0.018616022
0.019737546
0.021025761
0.022509902
0.024218182
0.026172603
0.028373717
0.030779678
0.033303047
0.035800701
0.038013272
0.039459162
0.038917329
0.036418624
0.028552054
0.016321606
0.023719015
0.062035293
0.085230236
6.3298126e-12
1.9890463e-10
1.626508e-09
6.9949826e-09
2.1525528e-08
5.4318548e-08
1.2045206e-07
2.4411961e-07
4.6326622e-07
8.3638603e-07
1.4524307e-06
2.4451773e-06
4.0139642e-06
6.4534799e-06
1.0196358e-05
1.5873784e-05
2.4401244e-05
3.7099062e-05
5.5860421e-05
8.3383127e-05
0.00012348465
0.00018152172
0.00026493223
0.00038390209
0.00055211865
0.00078748216
0.0011124694
0.0015535355
0.0021385089
0.0028906114
0.0038183356
0.0049034017
0.0060945772
0.0073173364
0.0084987153
0.0095904735
0.010575394
0.011459301
0.012260021
0.012999852
0.013702073
0.014389946
0.015086854
0.015817012
0.016605623
0.017477842
0.018459245
0.019577253
0.020860234
0.02233722
0.024036401
0.025979289
0.028162953
0.030543133
0.033035006
0.035505185
0.037650886
0.038926424
0.03785622
0.034979523
0.026468128
0.012821957
0.011844682
0.036829984
0.083236263
6.0529831e-12
1.9020569e-10
1.5553736e-09
6.6890549e-09
2.0584054e-08
5.1942588e-08
1.1518272e-07
2.3343869e-07
4.4299349e-07
7.9977827e-07
1.3888459e-06
2.3381086e-06
3.8381644e-06
6.1707822e-06
9.7496362e-06
1.5178275e-05
2.3332165e-05
3.5474058e-05
5.3414925e-05
7.973613e-05
0.00011809188
0.0001736129
0.00025342957
0.00036731929
0.00052844562
0.00075407386
0.0010659822
0.0014899975
0.0020536677
0.0027807339
0.0036815212
0.0047410358
0.0059118883
0.0071220377
0.0082982595
0.0093899253
0.010377088
0.011263668
0.012066548
0.012807709
0.013510411
0.014197979
0.01489384
0.015622168
0.016408036
0.017276398
0.018252545
0.019363575
0.020637582
0.022103738
0.023790882
0.025720813
0.027887456
0.030253524
0.032749636
0.035287548
0.037614496
0.038861119
0.037733925
0.034930263
0.026215881
0.011240734
0.0058458275
0.017703276
0.065851078
5.7392669e-12
1.8034765e-10
1.4747611e-09
6.3423655e-09
1.9517149e-08
4.9250126e-08
1.092116e-07
2.2133565e-07
4.2002237e-07
7.5829959e-07
1.316804e-06
2.2168051e-06
3.6390022e-06
5.8505327e-06
9.2435992e-06
1.4390451e-05
2.2121225e-05
3.3633455e-05
5.0644939e-05
7.5605012e-05
0.00011198261
0.00016465164
0.0002403924
0.00034851582
0.0005015847
0.00071613032
0.0010131118
0.0014175951
0.0019567284
0.0026547228
0.0035238506
0.0045527873
0.0056986454
0.0068925694
0.0080614151
0.0091519777
0.010141089
0.011030294
0.01183522
0.012577365
0.013279884
0.013966123
0.014659513
0.015384144
0.016164909
0.017026544
0.017994028
0.019094144
0.020354853
0.021805755
0.023476874
0.02538995
0.027541566
0.029905708
0.032460573
0.035160547
0.037784044
0.039124857
0.038199922
0.035300935
0.025137878
0.0097730093
0.0032317941
0.0086679144
0.034501062
5.3940424e-12
1.6949951e-10
1.3860522e-09
5.9608578e-09
1.8343104e-08
4.6287329e-08
1.0264109e-07
2.0801801e-07
3.9474679e-07
7.1266135e-07
1.2375406e-06
2.0833474e-06
3.4198937e-06
5.4982239e-06
8.686924e-06
1.3523816e-05
2.0789167e-05
3.1608744e-05
4.7597777e-05
7.1060166e-05
0.00010526055
0.00015478931
0.00022603932
0.00032780374
0.00047197507
0.00067425895
0.00095467933
0.0013374037
0.0018490389
0.0025141643
0.0033470272
0.0043402584
0.0054560938
0.0066296519
0.0077883904
0.0088764773
0.0098670551
0.010758766
0.011565605
0.012308372
0.013010003
0.0136938
0.014383148
0.015102002
0.015875015
0.016726662
0.017681593
0.018766236
0.020008508
0.021438667
0.023087993
0.024976438
0.027113069
0.029501382
0.032167126
0.035115833
0.038134863
0.039655055
0.038770783
0.035165808
0.021188103
0.0068700313
0.0018936482
0.0037204764
0.014758811
5.0235552e-12
1.578575e-10
1.2908513e-09
5.5514312e-09
1.7083154e-08
4.3107786e-08
9.5590026e-08
1.9372669e-07
3.6762396e-07
6.6368914e-07
1.1524897e-06
1.94015e-06
3.1848025e-06
5.120228e-06
8.0896769e-06
1.2594033e-05
1.9360052e-05
2.9436464e-05
4.4328353e-05
6.618332e-05
9.8046239e-05
0.00014420196
0.00021062498
0.0003055473
0.00044013107
0.00062917439
0.00089165711
0.0012507096
0.0017322352
0.002361026
0.0031532348
0.0041056118
0.0051860612
0.00633453
0.0074797994
0.0085635486
0.0095548229
0.01044879
0.011257358
0.012000351
0.012700334
0.013380473
0.014064045
0.014774802
0.015537078
0.016375016
0.017312894
0.01837672
0.019594377
0.020996963
0.02261638
0.024475651
0.026595303
0.029028192
0.031840202
0.035084119
0.038501835
0.04010714
0.038879553
0.03349367
0.014690492
0.0041165892
0.0012077677
0.0015475881
0.0064974098
4.6347173e-12
1.4563886e-10
1.1909352e-09
5.1217279e-09
1.5760815e-08
3.9770841e-08
8.8190024e-08
1.7872843e-07
3.3916015e-07
6.1229709e-07
1.0632387e-06
1.7898856e-06
2.9381164e-06
4.7235991e-06
7.4630013e-06
1.1618446e-05
1.7860522e-05
2.7157079e-05
4.0897492e-05
6.1065052e-05
9.0473325e-05
0.00013308506
0.00019443257
0.00028215254
0.00040662793
0.00058167964
0.00082514509
0.0011589819
0.0016082121
0.0021976337
0.0029451332
0.0038515976
0.0048910244
0.0060090658
0.0071367528
0.0082136588
0.0092044404
0.010100194
0.010910202
0.011652959
0.012350458
0.013025604
0.013701476
0.01440154
0.015149707
0.015969686
0.01688529
0.017922
0.019107624
0.020474061
0.022051862
0.023875946
0.025976544
0.028453648
0.031409164
0.034939321
0.038507682
0.039914251
0.037356919
0.027041385
0.0079340005
0.0022790264
0.00074370519
0.00057524992
0.0020781342
4.2348884e-12
1.3307485e-10
1.0881951e-09
4.6798802e-09
1.4401111e-08
3.6339644e-08
8.0581128e-08
1.6330707e-07
3.0989402e-07
5.5945771e-07
9.7147654e-07
1.6353974e-06
2.6845025e-06
4.3158402e-06
6.8187495e-06
1.06155e-05
1.6318917e-05
2.4813638e-05
3.7369935e-05
5.5801819e-05
8.2684265e-05
0.00012164718
0.00017776476
0.00025805451
0.00037208408
0.00053264217
0.00075633976
0.0010638344
0.0014790804
0.002026631
0.0027258327
0.0035815636
0.0045741697
0.005655845
0.0067609788
0.0078277165
0.0088162236
0.009712942
0.010523913
0.011265857
0.011959922
0.012628589
0.013294619
0.013981076
0.014711324
0.01550848
0.016395748
0.017397902
0.018542622
0.019862158
0.021385737
0.023158863
0.025228388
0.027721961
0.030792646
0.034487348
0.037804484
0.037907747
0.032529085
0.013987618
0.003907146
0.0011652673
0.00043132159
0.00027284881
0.00054800915
3.8316105e-12
1.2040245e-10
9.8456868e-10
4.2342218e-09
1.302969e-08
3.287891e-08
7.2906839e-08
1.4775345e-07
2.803775e-07
5.0616745e-07
8.789336e-07
1.4795984e-06
2.4287423e-06
3.9046382e-06
6.1690645e-06
9.6040941e-06
1.4764278e-05
2.2450273e-05
3.3812073e-05
5.0492596e-05
7.4825364e-05
0.00011010283
0.00016093341
0.00023370258
0.00033714065
0.00048296596
0.00068649698
0.00096697828
0.0013471104
0.001850919
0.0024988451
0.00329944
0.0042394371
0.0052782855
0.0063549701
0.0074072114
0.0083908572
0.0092871908
0.010098332
0.010838683
0.011528192
0.012188694
0.012842473
0.013512043
0.014220054
0.01498881
0.015840688
0.016799476
0.017892516
0.019151465
0.02061146
0.022304592
0.024313467
0.026799892
0.029860176
0.033273344
0.034955975
0.032292549
0.018527764
0.0055396498
0.0016327849
0.00055411659
0.00025257321
0.00017738517
0.00020575861
3.4323179e-12
1.078553e-10
8.8196649e-10
3.7929696e-09
1.1671835e-08
2.9452444e-08
6.530864e-08
1.3235429e-07
2.5115465e-07
4.534085e-07
7.8731536e-07
1.3253596e-06
2.1755485e-06
3.4975687e-06
5.5259142e-06
8.6028571e-06
1.3225234e-05
2.0110494e-05
3.0289393e-05
4.5235081e-05
6.704118e-05
9.8664221e-05
0.00014424769
0.00020954355
0.00030243762
0.00043355834
0.00061688691
0.00087016272
0.001214658
0.0016735717
0.002268
0.0030096836
0.0038915292
0.0048807386
0.005922158
0.0069544067
0.007929552
0.0088233866
0.0096334057
0.010371048
0.011054609
0.01170498
0.012343757
0.012992708
0.013673564
0.014407516
0.015215746
0.016120715
0.017148417
0.018329073
0.019708359
0.021295645
0.023234574
0.025615197
0.028269728
0.030090284
0.028148355
0.018532632
0.0061018889
0.0018993314
0.00064082499
0.0002780998
0.00017136535
0.00014612477
0.00014208768
3.0440429e-12
9.5654343e-11
7.821952e-10
3.3638926e-09
1.0351454e-08
2.6120569e-08
5.7920287e-08
1.1738065e-07
2.2273982e-07
4.0210939e-07
6.9823404e-07
1.1753947e-06
1.9293755e-06
3.1017927e-06
4.9006118e-06
7.6294007e-06
1.1728856e-05
1.7835463e-05
2.6863876e-05
4.0121803e-05
5.9468773e-05
8.7532895e-05
0.00012800184
0.00018600394
0.00026858857
0.00038529441
0.00054874483
0.0007751085
0.0010840775
0.0014977288
0.0020373262
0.0027171704
0.0035358575
0.0044685339
0.0054670737
0.0064725676
0.0074342684
0.0083224337
0.0091292837
0.0098625639
0.010538353
0.011176216
0.011796771
0.01242078
0.013068766
0.01376041
0.014515209
0.015353857
0.016298813
0.01738793
0.01865653
0.020142852
0.02195408
0.023886883
0.02474942
0.022737088
0.014370083
0.0056863855
0.0018895745
0.00065708452
0.000285629
0.00017467528
0.00014022733
0.00013396866
0.00012470057
2.6731254e-12
8.3998823e-11
6.8688416e-10
2.9539982e-09
9.0901077e-09
2.2937694e-08
5.0862418e-08
1.03077e-07
1.9559687e-07
3.5310737e-07
6.1314333e-07
1.0321508e-06
1.6942392e-06
2.7237658e-06
4.3033556e-06
6.6996005e-06
1.0299552e-05
1.5662294e-05
2.359143e-05
3.5236277e-05
5.2231962e-05
7.6891174e-05
0.00011246261
0.00016347158
0.00023615382
0.00033897814
0.00048321525
0.0006834289
0.0009576129
0.0013264506
0.0018108742
0.0024270108
0.0031784078
0.0040479786
0.0049955065
0.0059662331
0.0069080172
0.0077859498
0.0085864896
0.0093129229
0.009978438
0.010600773
0.011199193
0.011793099
0.012401341
0.013041611
0.013730876
0.01448731
0.015331387
0.01632373
0.017467752
0.01880206
0.020196547
0.020030945
0.017488867
0.0094769279
0.0042553362
0.0016793774
0.00062981431
0.00028124312
0.00017215358
0.00013989312
0.00012809088
0.00012442536
0.00011798003
2.3250521e-12
7.3061158e-11
5.9744352e-10
2.5693514e-09
7.9064617e-09
1.9950908e-08
4.4239438e-08
8.9654885e-08
1.701271e-07
3.0712679e-07
5.3330069e-07
8.9774386e-07
1.4736124e-06
2.3690699e-06
3.7429633e-06
5.8271833e-06
8.9584239e-06
1.3623085e-05
2.0520423e-05
3.0650805e-05
4.5438055e-05
6.6897317e-05
9.7862079e-05
0.00014228504
0.00020562483
0.0002953195
0.00042131839
0.00059658075
0.00083732658
0.0011626188
0.0015925813
0.0021443857
0.0028255878
0.003626269
0.0045145793
0.0054414795
0.0063552155
0.0072166106
0.0080061795
0.0087220358
0.0093737143
0.0099764996
0.010547781
0.01110509
0.0116649
0.012242143
0.01284995
0.013501358
0.014238072
0.015116072
0.01608794
0.016889453
0.016184723
0.013229554
0.0063494277
0.0028349183
0.0012492382
0.00054459931
0.00026421269
0.00016867085
0.00013665689
0.00012711247
0.00012052599
0.00011655546
0.00011086599
2.0043336e-12
6.2983087e-11
5.1503217e-10
2.2149351e-09
6.8158461e-09
1.7198893e-08
3.8137105e-08
7.7288059e-08
1.4666019e-07
2.6476266e-07
4.5973904e-07
7.7391249e-07
1.2703485e-06
2.0422919e-06
3.2266826e-06
5.0234358e-06
7.7228336e-06
1.1744264e-05
1.7690729e-05
2.6425082e-05
3.9175849e-05
5.7682678e-05
8.4393654e-05
0.00012272801
0.0001774165
0.0002549237
0.0003639352
0.00051584341
0.00072506982
0.0010088933
0.0013862135
0.0018744699
0.0024841238
0.0032114005
0.0040326838
0.0049060329
0.0057820145
0.0066185468
0.0073904761
0.0080902202
0.0087228707
0.0093004888
0.0098378602
0.010349831
0.01084953
0.011347448
0.011850829
0.012371043
0.01299497
0.0136763
0.014025094
0.01291225
0.0090895893
0.0042406288
0.0019081039
0.00086555984
0.00042089279
0.00023325055
0.00015928661
0.00013352309
0.00012371339
0.00011893863
0.00011330851
0.00011079917
0.0001056291
1.7142655e-12
5.3868147e-11
4.4049651e-10
1.8943892e-09
5.8294606e-09
1.4709903e-08
3.2618048e-08
6.6103398e-08
1.2543678e-07
2.2644915e-07
3.9321192e-07
6.6192448e-07
1.0865275e-06
1.7467746e-06
2.7597933e-06
4.2965782e-06
6.6054246e-06
1.0045077e-05
1.5131391e-05
2.2602623e-05
3.3510145e-05
4.9343304e-05
7.2199192e-05
0.00010500952
0.00015183639
0.00021824334
0.00031173223
0.00044219978
0.00062229305
0.00086740983
0.0011948884
0.0016217183
0.0021601328
0.0028112574
0.0035590708
0.0043692655
0.00519652
0.0059976909
0.0067428009
0.0074183833
0.0080243588
0.0085686563
0.0090624231
0.0095164554
0.0099391588
0.010332994
0.010695009
0.01106595
0.011485575
0.011438199
0.010055607
0.0059827876
0.0028363676
0.0012910478
0.0006097815
0.00031906352
0.00019819784
0.00014800905
0.00012819979
0.00012104185
0.0001164208
0.00011308595
0.00010833115
0.00010477201
0.00010118493
1.4568237e-12
4.5778427e-11
3.7434425e-10
1.6098973e-09
4.9540234e-09
1.2500884e-08
2.7719834e-08
5.6177007e-08
1.0660121e-07
1.9244675e-07
3.3417143e-07
5.6254057e-07
9.2339772e-07
1.4845248e-06
2.3454677e-06
3.6515537e-06
5.6138086e-06
8.5371336e-06
1.2859971e-05
1.9209829e-05
2.8480453e-05
4.1938153e-05
6.1366564e-05
8.9260625e-05
0.00012908055
0.00018557305
0.00026515545
0.00037633071
0.00053004494
0.00073979483
0.0010211292
0.0013899948
0.001859313
0.002433646
0.0031033198
0.0038415547
0.0046084803
0.0053617901
0.0060680053
0.0067080501
0.0072761188
0.0077749504
0.0082105429
0.0085877699
0.008907042
0.0091575665
0.0093421112
0.0094648929
0.0091497265
0.0075948627
0.0039575713
0.0018709021
0.00088085208
0.00043907041
0.00025043602
0.00017134944
0.0001380842
0.00012371318
0.00011785518
0.00011464642
0.00011112945
0.00010770879
0.00010421433
0.00010186235
9.7746467e-05
1.2325674e-12
3.8731517e-11
3.1671952e-10
1.3620789e-09
4.19144e-09
1.0576643e-08
2.3453107e-08
4.7530419e-08
9.0194278e-08
1.6282895e-07
2.8274491e-07
4.759747e-07
7.8130983e-07
1.2561056e-06
1.9845949e-06
3.0897483e-06
4.7501248e-06
7.2237089e-06
1.0881466e-05
1.6254309e-05
2.4098384e-05
3.5485033e-05
5.1923346e-05
7.5524569e-05
0.00010921788
0.00015702461
0.00022438942
0.00031854624
0.00044885375
0.00062695553
0.00086649065
0.0011819135
0.0015858821
0.0020849214
0.0026740969
0.0033332623
0.0040284797
0.0047198651
0.005372024
0.0059609942
0.0064749104
0.0069100445
0.0072650501
0.007536314
0.0077101545
0.0077655457
0.0076876023
0.0071341165
0.0052986862
0.0026633816
0.0012572072
0.00060823475
0.0003257788
0.00020465939
0.00015356204
0.00013138798
0.00012101515
0.00011591805
0.00011223572
0.00010910027
0.00010628024
0.00010360757
9.9931674e-05
9.7672853e-05
9.4817184e-05
1.0406516e-12
3.2700868e-11
2.6740519e-10
1.1500001e-09
3.5388359e-09
8.9299202e-09
1.9801757e-08
4.0130949e-08
7.6153873e-08
1.3748346e-07
2.3873707e-07
4.0189757e-07
6.5972239e-07
1.0606453e-06
1.6757965e-06
2.6090153e-06
4.0110753e-06
6.0998008e-06
9.1883766e-06
1.3724959e-05
2.0347705e-05
2.996057e-05
4.3836498e-05
6.3755807e-05
9.2187843e-05
0.00013252212
0.00018934864
0.00026877103
0.00037870303
0.00052903752
0.00073147669
0.00099867859
0.001342268
0.0017693709
0.0022780056
0.0028531098
0.0034662076
0.0040806836
0.0046606578
0.0051782324
0.005615264
0.0059599626
0.0062011488
0.0063215602
0.0062896361
0.0060926942
0.0053916136
0.0034862001
0.0017489989
0.00085753616
0.00043427825
0.00025115366
0.00017449678
0.00014191298
0.00012744246
0.00011995713
0.00011555165
0.00011177173
0.00010845507
0.00010552466
0.00010208783
9.9766503e-05
9.7179539e-05
9.4725207e-05
9.1762262e-05
8.7882255e-13
2.761564e-11
2.2582177e-10
9.7116861e-10
2.9885399e-09
7.541355e-09
1.6722836e-08
3.3891529e-08
6.4314697e-08
1.161117e-07
2.0162916e-07
3.3943543e-07
5.5720032e-07
8.9583551e-07
1.4154233e-06
2.2036717e-06
3.3879225e-06
5.1521254e-06
7.7607121e-06
1.1591971e-05
1.7184367e-05
2.5300235e-05
3.7012352e-05
5.3819749e-05
7.7799322e-05
0.00011179818
0.00015966627
0.00022651586
0.00031896842
0.0004453012
0.00061532738
0.00083973686
0.0011285307
0.0014882378
0.0019180574
0.0024060758
0.002927972
0.0034503183
0.0039376219
0.0043588701
0.0046893957
0.0049079049
0.0049901426
0.004910998
0.004620136
0.0038754885
0.0022172721
0.0011438256
0.00058323421
0.00031958632
0.00020271069
0.00015450293
0.00013455237
0.00012502614
0.00012006102
0.00011637575
0.00011199853
0.00010844181
0.00010487435
0.00010169391
9.9355656e-05
9.6816176e-05
9.4200132e-05
9.2373407e-05
8.9987397e-05
7.4331927e-13
2.3357656e-11
1.9100293e-10
8.2142852e-10
2.527763e-09
6.3786715e-09
1.4144765e-08
2.8667065e-08
5.4401355e-08
9.8216374e-08
1.7055735e-07
2.8713356e-07
4.7135478e-07
7.5783403e-07
1.1974024e-06
1.8642586e-06
2.8661184e-06
4.358552e-06
6.5651289e-06
9.8055419e-06
1.4534561e-05
2.1395459e-05
3.1292364e-05
4.5486572e-05
6.572182e-05
9.4381817e-05
0.00013467844
0.00019085794
0.00026839074
0.00037407169
0.00051589556
0.00070248899
0.00094180527
0.00123882
0.0015922952
0.0019914577
0.0024143903
0.0028300707
0.0032036963
0.0035016793
0.0036933275
0.0037470603
0.0036425396
0.003317486
0.0025334471
0.0014191667
0.00073874493
0.00040126512
0.00024114051
0.00017029129
0.00014071159
0.00012964383
0.00012398553
0.00012090017
0.00011765952
0.0001126365
0.00010865226
0.00010505779
0.00010206784
9.9688895e-05
9.6790108e-05
9.4619801e-05
9.2138153e-05
9.0188554e-05
8.8178628e-05
6.2882e-13
1.9759695e-11
1.6158136e-10
6.9489957e-10
2.1384094e-09
5.3962046e-09
1.1966276e-08
2.42523e-08
4.6024284e-08
8.3094044e-08
1.4429986e-07
2.4293457e-07
3.9880726e-07
6.4120681e-07
1.0131435e-06
1.5773936e-06
2.4250743e-06
3.6877441e-06
5.554379e-06
8.2950202e-06
1.2293428e-05
1.809167e-05
2.6450135e-05
3.8426751e-05
5.5478764e-05
7.9588518e-05
0.00011340972
0.00016042047
0.00022505029
0.00031271578
0.00042965016
0.0005823482
0.00077639591
0.0010144917
0.001293735
0.0016028511
0.0019208276
0.0022183405
0.0024616066
0.0026159193
0.0026460582
0.0025340593
0.002216788
0.0015318695
0.00085833363
0.0004770968
0.00027855625
0.00018800281
0.0001475171
0.0001308713
0.0001251674
0.00012345695
0.00012179347
0.00011930018
0.00011355553
0.00010934293
0.00010569327
0.00010286541
9.9955939e-05
9.7075284e-05
9.460699e-05
9.2478618e-05
9.0309751e-05
8.8467711e-05
8.6493105e-05
5.2866954e-13
1.6612626e-11
1.3584688e-10
5.8422672e-10
1.7978453e-09
4.5368366e-09
1.0060702e-08
2.0390497e-08
3.8696218e-08
6.9864852e-08
1.2132842e-07
2.0426482e-07
3.3533125e-07
5.3915503e-07
8.5189718e-07
1.326327e-06
2.0390129e-06
3.1004529e-06
4.6692543e-06
6.9718173e-06
1.0329382e-05
1.5194709e-05
2.2200956e-05
3.2225285e-05
4.6468896e-05
6.6552787e-05
9.4623321e-05
0.00013345163
0.00018649342
0.00025784814
0.00035201743
0.00047331938
0.00062478681
0.00080644903
0.0010131253
0.0012323717
0.0014437051
0.0016199322
0.001729709
0.0017381319
0.0016345494
0.0013514481
0.00088314419
0.00051314526
0.00030267645
0.00019658368
0.0001493347
0.00013116714
0.0001232503
0.00012271769
0.000123253
0.00012284131
0.0001208487
0.00011514332
0.00011020732
0.00010663836
0.00010361393
0.00010050331
9.7561392e-05
9.526972e-05
9.2993187e-05
9.085926e-05
8.8715355e-05
8.7168747e-05
8.5616028e-05
4.3584449e-13
1.3695743e-11
1.1199464e-10
4.8164788e-10
1.4821835e-09
3.740288e-09
8.2943631e-09
1.6810707e-08
3.1902913e-08
5.7600207e-08
1.0003005e-07
1.6840791e-07
2.7646541e-07
4.4450151e-07
7.0231457e-07
1.0933727e-06
1.680712e-06
2.5552252e-06
3.8472188e-06
5.7423697e-06
8.5034842e-06
1.2499682e-05
1.8244674e-05
2.6445416e-05
3.8061159e-05
5.4370045e-05
7.7034759e-05
0.00010814884
0.00015022934
0.00020609842
0.00027856876
0.00036983199
0.00048045057
0.00060797522
0.0007452669
0.00087946421
0.00099185101
0.0010590917
0.0010540333
0.00096576443
0.00074834239
0.00048132982
0.00029840865
0.00019291674
0.00014169376
0.00012050945
0.0001159972
0.00011768763
0.00012079643
0.00012464318
0.00012427605
0.00012252781
0.0001168331
0.0001111167
0.00010742826
0.00010451157
0.00010120215
9.8446251e-05
9.5958307e-05
9.3559032e-05
9.1141952e-05
8.9365076e-05
8.7436068e-05
8.5987955e-05
8.4577744e-05
3.4503656e-13
1.0842243e-11
8.8660626e-11
3.8129696e-10
1.1733724e-09
2.9610048e-09
6.5662428e-09
1.3308189e-08
2.5255799e-08
4.5598481e-08
7.9186109e-08
1.3331163e-07
2.1883955e-07
3.5182509e-07
5.558252e-07
8.651786e-07
1.329631e-06
2.0208068e-06
3.0411781e-06
4.5363435e-06
6.7115669e-06
9.8535755e-06
1.4358418e-05
2.0765501e-05
2.9796301e-05
4.2393077e-05
5.9747204e-05
8.3297638e-05
0.00011466681
0.00015548492
0.0002070413
0.0002697021
0.00034212079
0.00042020887
0.00049633419
0.00055894332
0.00059273921
0.00058228834
0.00051650223
0.00038229883
0.00025394722
0.00016997658
0.00012453867
0.00010426607
9.9270089e-05
0.00010341041
0.00011206572
0.00012281612
0.00012643284
0.00012608498
0.00012432027
0.00011854839
0.00011202538
0.00010860782
0.00010553787
0.00010231035
9.9384486e-05
9.6764244e-05
9.4084037e-05
9.1964913e-05
9.005971e-05
8.8176743e-05
8.6299029e-05
8.492005e-05
8.3626089e-05
2.5529693e-13
8.0223117e-12
6.5601049e-11
2.8212555e-10
8.6818678e-10
2.1908531e-09
4.8583186e-09
9.8464591e-09
1.8685736e-08
3.3735078e-08
5.8580704e-08
9.8613595e-08
1.618611e-07
2.6017796e-07
4.109419e-07
6.3945175e-07
9.8229222e-07
1.4920098e-06
2.2435306e-06
3.342828e-06
4.9383731e-06
7.2358022e-06
1.0515866e-05
1.5154855e-05
2.1644969e-05
3.0608984e-05
4.2798633e-05
5.905898e-05
8.0232571e-05
0.00010696893
0.00013940765
0.00017674919
0.00021669964
0.00025499995
0.00028515868
0.00029882283
0.00028741998
0.00024487481
0.0001817668
0.00012989944
9.7736908e-05
8.2537203e-05
7.8312009e-05
8.2289649e-05
9.2935118e-05
0.00011281673
0.00012575468
0.00012850475
0.000128064
0.00012622128
0.00012017076
0.00011344584
0.00010981158
0.00010667381
0.00010323478
0.00010041101
9.7479434e-05
9.4948797e-05
9.2750978e-05
9.0701276e-05
8.8522798e-05
8.6867368e-05
8.517967e-05
8.4086478e-05
8.3110703e-05
1.7135042e-13
5.3844194e-12
4.403004e-11
1.893556e-10
5.8269888e-10
1.4704031e-09
3.2605959e-09
6.6080439e-09
1.25394e-08
2.2636587e-08
3.9303537e-08
6.6151799e-08
1.0855466e-07
1.7443833e-07
2.7540377e-07
4.2830426e-07
6.5744186e-07
9.9758698e-07
1.4980613e-06
2.2281352e-06
3.2839409e-06
4.7969188e-06
6.943386e-06
9.9539612e-06
1.4120059e-05
1.9792224e-05
2.7361591e-05
3.7211449e-05
4.9622583e-05
6.4618721e-05
8.1750447e-05
9.9827538e-05
0.00011670097
0.00012918296
0.00013310904
0.0001255252
0.00010548421
8.3407168e-05
6.6964726e-05
5.7056756e-05
5.6250587e-05
6.0546862e-05
6.9510348e-05
8.8939467e-05
0.00011659158
0.00012764626
0.00013058494
0.00013010104
0.00012820187
0.00012203064
0.00011492191
0.00011118375
0.00010752817
0.00010433546
0.00010141912
9.8590136e-05
9.5899002e-05
9.3666269e-05
9.1295684e-05
8.9366911e-05
8.7607494e-05
8.6091303e-05
8.4460695e-05
8.3410168e-05
8.2433485e-05
1.0132577e-13
3.1840009e-12
2.6036429e-11
1.1197106e-10
3.4455858e-10
8.69443e-10
1.9278797e-09
3.906825e-09
7.4127985e-09
1.3379889e-08
2.322657e-08
3.908183e-08
6.4109028e-08
1.0296618e-07
1.624545e-07
2.5242265e-07
3.8701105e-07
5.8633483e-07
8.7870775e-07
1.3034859e-06
1.9145301e-06
2.7841001e-06
4.0066248e-06
5.7011402e-06
8.0101396e-06
1.1091072e-05
1.5094942e-05
2.0125406e-05
2.6172252e-05
3.3018171e-05
4.0133431e-05
4.6587474e-05
5.1026456e-05
5.1709138e-05
4.8706009e-05
4.3447347e-05
3.8712263e-05
3.5301282e-05
3.622764e-05
3.9806978e-05
4.8338826e-05
6.2702829e-05
9.0956111e-05
0.00011733138
0.00012901173
0.00013250368
0.00013204799
0.00013019602
0.0001240763
0.00011662215
0.00011259038
0.00010870189
0.00010542964
0.00010277355
9.9681632e-05
9.7033913e-05
9.4408295e-05
9.2146307e-05
9.0113356e-05
8.8381895e-05
8.6551006e-05
8.4992901e-05
8.3503048e-05
8.2602957e-05
8.1814984e-05
5.1573674e-14
1.6206183e-12
1.3252136e-11
5.6990527e-11
1.7536633e-10
4.4248853e-10
9.8108595e-10
1.9879333e-09
3.7712916e-09
6.8055495e-09
1.1810344e-08
1.9864247e-08
3.2566771e-08
5.2267107e-08
8.2383504e-08
1.2784312e-07
1.9567703e-07
2.9580602e-07
4.4204358e-07
6.5331298e-07
9.550069e-07
1.3802844e-06
1.9708633e-06
2.7764879e-06
3.8517245e-06
5.2481794e-06
6.9996844e-06
9.0988298e-06
1.1465318e-05
1.3912098e-05
1.6123879e-05
1.7666055e-05
1.8246454e-05
1.8275907e-05
1.8317093e-05
1.8991898e-05
2.1115048e-05
2.4194072e-05
3.1350215e-05
4.3512761e-05
6.3102058e-05
9.2796615e-05
0.00011701912
0.00012953638
0.00013429581
0.00013404888
0.00013227393
0.00012635942
0.00011841399
0.00011419931
0.00010996036
0.00010670098
0.00010378752
0.0001008523
9.796385e-05
9.5456233e-05
9.3030256e-05
9.1086839e-05
8.9039079e-05
8.7285955e-05
8.5592247e-05
8.4301979e-05
8.2946684e-05
8.2182076e-05
8.1458691e-05
2.2527652e-14
7.0789312e-13
5.7885317e-12
2.4892848e-11
7.6594759e-11
1.9325206e-10
4.2843293e-10
8.6798153e-10
1.6462821e-09
2.9699345e-09
5.1519176e-09
8.6604474e-09
1.4188164e-08
2.2748988e-08
3.5811802e-08
5.5481685e-08
8.4739759e-08
1.2775017e-07
1.9023413e-07
2.7989093e-07
4.0680724e-07
5.8372754e-07
8.2595335e-07
1.1504975e-06
1.5739508e-06
2.1085406e-06
2.7560225e-06
3.500142e-06
4.3005408e-06
5.0945586e-06
5.8338154e-06
6.6191452e-06
7.6228202e-06
8.9717422e-06
1.0629045e-05
1.4050142e-05
1.9509475e-05
2.8993731e-05
4.3720561e-05
6.4393118e-05
9.1050132e-05
0.00011401878
0.00012884022
0.00013582262
0.00013616543
0.00013447147
0.00012877128
0.00012041305
0.00011588812
0.00011145384
0.00010796997
0.00010491806
0.00010193641
9.937464e-05
9.6587825e-05
9.4215136e-05
9.1863185e-05
8.9876442e-05
8.7958474e-05
8.6455753e-05
8.4901068e-05
8.3580282e-05
8.2263288e-05
8.155981e-05
8.0866935e-05
9.173963e-15
2.8827561e-13
2.3572439e-12
1.0136801e-11
3.1189449e-11
7.8687326e-11
1.7443036e-10
3.5333852e-10
6.7004489e-10
1.2084746e-09
2.0956323e-09
3.5212561e-09
5.7655325e-09
9.2376887e-09
1.4528903e-08
2.2483429e-08
3.4291746e-08
5.1608289e-08
7.6692798e-08
1.1256713e-07
1.6316682e-07
2.3344842e-07
3.2939215e-07
4.5783177e-07
6.2608252e-07
8.4150965e-07
1.1110023e-06
1.4414347e-06
1.8421787e-06
2.3477781e-06
3.0457347e-06
4.1029809e-06
5.7067714e-06
8.2098323e-06
1.2296777e-05
1.9041639e-05
2.9473742e-05
4.412849e-05
6.3552658e-05
8.7787692e-05
0.00011107611
0.00012967081
0.00013754597
0.00013829981
0.00013673515
0.00013138992
0.00012255068
0.00011778238
0.00011303054
0.0001094185
0.00010605255
0.00010317223
0.00010055162
9.7856081e-05
9.5100446e-05
9.2884035e-05
9.0682273e-05
8.8947644e-05
8.714598e-05
8.5622687e-05
8.4042038e-05
8.2863493e-05
8.1689509e-05
8.110392e-05
8.0473475e-05
4.8860265e-15
1.5353491e-13
1.2554677e-12
5.3989111e-12
1.6611965e-11
4.1911416e-11
9.2912405e-11
1.8822686e-10
3.5698945e-10
6.4399333e-10
1.1171104e-09
1.8779279e-09
3.0768723e-09
4.9345246e-09
7.7713758e-09
1.2048914e-08
1.8425679e-08
2.7832742e-08
4.1573996e-08
6.1458015e-08
8.9970914e-08
1.305065e-07
1.8768782e-07
2.6785826e-07
3.7992353e-07
5.3696928e-07
7.5929266e-07
1.0796841e-06
1.5529123e-06
2.2693662e-06
3.3880987e-06
5.1686155e-06
8.0125407e-06
1.250879e-05
1.9487573e-05
2.9612185e-05
4.3529008e-05
6.203335e-05
8.5389359e-05
0.00010977371
0.00013066691
0.0001392499
0.00014044768
0.0001390469
0.00013420758
0.00012490054