/*--------------------------------*- C++ -*----------------------------------*\
  =========                 |
  \\      /  F ield         | OpenFOAM: The Open Source CFD Toolbox
   \\    /   O peration     | Website:  https://openfoam.org
    \\  /    A nd           | Version:  13
     \\/     M anipulation  |
\*---------------------------------------------------------------------------*/
FoamFile
{
    format      ascii;
    class       volScalarField;
    location    "35.798906";
    object      omega;
}
// * * * * * * * * * * * * * * * * * * * * * * * * * * * * * * * * * * * * * //

dimensions      [0 0 -1 0 0 0 0];

internalField   nonuniform List<scalar> 
17140
(
4528389.9
731657.66
224626.36
95289.488
48487.726
27617.64
16960.881
10985.519
7400.0387
5136.0972
3649.1013
2641.4402
1941.1841
1444.4112
1085.9102
823.45523
628.96638
483.34085
373.32542
289.56744
225.36824
175.86737
137.49774
107.61523
84.242726
65.890827
51.430791
40.003655
30.954787
23.786375
18.122173
13.679527
10.244136
7.6448314
5.7308012
4.3589319
3.3956286
2.7264735
2.2628477
1.9414024
1.7190692
1.5672577
1.4670366
1.4075357
1.3805218
1.3735318
1.3853007
1.4141478
1.4575151
1.5139669
1.5831804
1.6659188
1.7634861
1.8759846
2.0032153
2.1483777
2.3148159
2.4962914
2.6710653
2.7824671
2.8247624
2.8074872
2.8771563
3.1155007
2.8954898
4528420.9
731663.27
224628.42
95290.546
48488.357
27618.056
16961.173
10985.733
7400.1992
5136.2204
3649.1967
2641.5143
1941.2411
1444.4543
1085.9416
823.4765
628.97886
483.34556
373.32319
289.559
225.35429
175.84858
137.47483
107.589
84.214026
65.860621
51.400123
39.973627
30.926504
23.760873
18.100291
13.661775
10.230605
7.6351921
5.7244245
4.355062
3.3935373
2.7255535
2.2626437
1.94158
1.7193951
1.5675866
1.4672545
1.4075353
1.3802264
1.3729598
1.38428
1.4125606
1.4551722
1.5105486
1.5781558
1.6583863
1.7520583
1.8589472
1.9781661
2.1110346
2.2584575
2.4130706
2.5556216
2.6476432
2.689648
2.736848
3.0098739
3.2945402
2.8725157
4528451.2
731668.24
224629.96
95291.199
48488.692
27618.247
16961.289
10985.808
7400.2494
5136.2548
3649.2206
2641.5309
1941.2525
1444.4618
1085.946
823.47849
628.97877
483.34368
373.31973
289.55416
225.34826
175.84159
137.46719
107.58105
84.206237
65.853518
51.394294
39.969659
30.924896
23.761899
18.103898
13.667541
10.237764
7.6428212
5.7317187
4.3615375
3.3990504
2.7301595
2.2664912
1.9448448
1.7222068
1.5699703
1.4692696
1.4092505
1.3817046
1.3742977
1.3854772
1.4136363
1.456083
1.5111519
1.5781639
1.6573202
1.7491443
1.8530227
1.9674253
2.0923943
2.2276933
2.366209
2.4918519
2.5800679
2.6409468
2.7763356
3.3149358
3.3683676
2.7657693
4528483
731673.42
224631.57
95291.883
48489.04
27618.446
16961.414
10985.889
7400.3057
5136.2953
3649.2509
2641.5545
1941.2716
1444.4779
1085.9601
823.49128
628.99079
483.3553
373.33128
289.56589
225.36041
175.85442
137.48096
107.59606
84.22281
65.871997
51.414999
39.992825
30.950572
23.789826
18.133372
13.697339
10.266285
7.6684766
5.7534284
4.3790155
3.4127225
2.7408517
2.274952
1.9516176
1.7277073
1.5745744
1.4732558
1.4128657
1.3851973
1.3778258
1.3892656
1.4178711
1.4609186
1.5166939
1.5844418
1.6642437
1.756436
1.8600754
1.9732195
2.0954444
2.2261758
2.3604151
2.4863608
2.5846516
2.6727775
2.9300928
3.5326088
3.4261351
2.7228212
4528516.9
731678.92
224633.26
95292.599
48489.405
27618.657
16961.546
10985.979
7400.3696
5136.3436
3649.2896
2641.5872
1941.3007
1444.5049
1085.9863
823.51736
629.0174
483.38291
373.36025
289.59653
225.393
175.88921
137.51819
107.63597
84.265621
65.917894
51.464081
40.045019
31.005509
23.846681
18.190708
13.753072
10.317923
7.7137133
5.7908715
4.4086859
3.4356552
2.7583749
2.2883786
1.9620933
1.7361372
1.5816359
1.4794677
1.418677
1.39095
1.3838755
1.3960766
1.4258205
1.4704053
1.5281385
1.5982937
1.680993
1.7765092
1.8835159
1.9996602
2.1240785
2.2568511
2.3974523
2.5341816
2.6504185
2.7928136
3.2583033
3.6720407
3.4821904
2.6581956
4528552.1
731684.59
224635
95293.34
48489.785
27618.877
16961.686
10986.075
7400.4406
5136.3994
3649.3363
2641.6286
1941.3395
1444.5428
1086.0244
823.55676
629.0587
483.42666
373.40688
289.64642
225.44644
175.94647
137.57949
107.70149
84.335481
65.992128
51.542566
40.127374
31.090942
23.933795
18.277328
13.83622
10.394168
7.7799968
5.8455313
4.4517141
3.4684613
2.7830769
2.3071157
1.9766317
1.7478156
1.5914638
1.4882535
1.4271902
1.3992012
1.3929077
1.4065191
1.4382818
1.4856073
1.546929
1.6217014
1.7103008
1.8130521
1.9281081
2.052988
2.1874631
2.3351695
2.5010001
2.6637616
2.8062944
3.0081099
3.5791782
3.7991206
3.5286457
2.4729609
4528588.7
731690.44
224636.79
95294.105
48490.181
27619.109
16961.835
10986.179
7400.5183
5136.4621
3649.3905
2641.6784
1941.3874
1444.5908
1086.074
823.60879
629.11403
483.48592
373.47059
289.715
225.52026
176.0258
137.66454
107.79241
84.432302
66.094747
51.650656
40.240265
31.207439
24.051953
18.394249
13.94803
10.496426
7.8686782
5.9182864
4.5086531
3.511677
2.8155376
2.3316952
1.9956863
1.763145
1.6044321
1.4999442
1.4386157
1.4107518
1.4056095
1.4214504
1.456392
1.5080727
1.5752109
1.6576725
1.7563763
1.8716367
2.0007761
2.1419898
2.2971473
2.480311
2.6833718
2.8679153
3.0183869
3.2865776
3.8700374
3.9400497
3.5475931
2.147298
4528626.6
731696.5
224638.64
95294.898
48490.594
27619.351
16961.992
10986.289
7400.6029
5136.5319
3649.4522
2641.7362
1941.4442
1444.6487
1086.1344
823.67288
629.18269
483.55987
373.55044
289.80122
225.61325
176.12585
137.77186
107.90708
84.554289
66.223802
51.786258
40.38148
31.352719
24.198892
18.539353
14.086686
10.623354
7.9790628
6.0092454
4.5801479
3.5661267
2.8565207
2.36277
2.0198217
1.7826341
1.621023
1.5150125
1.4534944
1.4264285
1.4229172
1.4420716
1.4817734
1.5400578
1.6161857
1.7107919
1.8256299
1.9603275
2.1112519
2.279261
2.4716298
2.7034674
2.937436
3.1277478
3.2861869
3.6536785
4.1765954
4.0732661
3.4116449
1.6920549
4528664.7
731702.75
224640.57
95295.723
48491.02
27619.602
16962.156
10986.407
7400.6938
5136.608
3649.5205
2641.8013
1941.5091
1444.7154
1086.2046
823.74788
629.26344
483.6472
373.64501
289.90359
225.72385
176.24502
137.8998
108.04387
84.699798
66.37769
51.94785
40.549623
31.525575
24.373665
18.712036
14.252005
10.77523
8.1118278
6.1193364
4.6672384
3.6328183
2.9069302
2.4011288
2.0497351
1.8069283
1.6418801
1.53419
1.4727383
1.4471021
1.4460923
1.470071
1.5167559
1.5848797
1.6746872
1.7881024
1.92754
2.0902947
2.2736448
2.4844237
2.7374031
3.0185788
3.2798086
3.4807861
3.6951367
4.1892008
4.5331789
4.1865723
2.8449824
1.263972
4528704.9
731709.25
224642.57
95296.579
48491.462
27619.865
16962.329
10986.531
7400.7907
5136.6899
3649.5948
2641.8727
1941.5808
1444.7898
1086.2833
823.83229
629.35465
483.74611
373.75238
290.02004
225.84988
176.381
138.04597
108.20028
84.866326
66.553918
52.132998
40.742388
31.723904
24.57447
18.910907
14.443121
10.951788
8.2673065
6.249356
4.7709686
3.7128499
2.9678018
2.4477077
2.0862787
1.8368367
1.6678196
1.5584884
1.4975627
1.4738949
1.4769412
1.5078543
1.5647286
1.6474889
1.7581491
1.9003489
2.0751925
2.2774515
2.5111239
2.7898247
3.1242667
3.4713669
3.7965494
4.0439141
4.3727189
4.9006963
4.784608
4.0907608
1.9744047
0.80086697
4528746.8
731716
224644.65
95297.468
48491.923
27620.137
16962.508
10986.66
7400.8925
5136.7767
3649.674
2641.9492
1941.6581
1444.8702
1086.3688
823.92417
629.45418
483.85427
373.87001
290.14785
225.98844
176.53074
138.20717
108.37303
85.050497
66.749084
52.338335
40.956514
31.944648
24.798567
19.133686
14.658359
11.152084
8.4453208
6.3997929
4.8922716
3.8073507
3.0402843
2.5035982
2.1304852
1.8733725
1.6998899
1.5891974
1.5294693
1.5086282
1.5179668
1.5589043
1.6307147
1.7354259
1.878179
2.062825
2.286113
2.5487415
2.867898
3.2606866
3.7216848
4.2007899
4.6744978
5.0071811
5.4638746
5.4254185
4.8607598
2.9630196
1.1748495
0.52418703
4528789.6
731722.95
224646.8
95298.387
48492.401
27620.421
16962.695
10986.795
7400.9985
5136.867
3649.7567
2642.0294
1941.7392
1444.9549
1086.4588
824.02121
629.55946
483.96888
373.99487
290.28375
226.13601
176.69049
138.37945
108.55799
85.24805
66.958846
52.559508
41.187724
32.183713
25.042181
19.377075
14.895083
11.374314
8.6449979
6.5706579
5.0318315
3.9173926
3.1256006
2.5700487
2.183604
1.9178303
1.7395267
1.6279289
1.5704904
1.5540268
1.5727762
1.6283928
1.7223532
1.8604559
2.052241
2.294883
2.5890287
2.9569968
3.4324692
4.0331041
4.7259328
5.4397456
6.1337412
6.3862159
6.1940223
5.5800325
3.7192452
1.4815832
0.64714553
0.3590901
4528834.7
731730.22
224649.03
95299.342
48492.896
27620.714
16962.888
10986.934
7401.1079
5136.9601
3649.8417
2642.1116
1941.8223
1445.0415
1086.5511
824.1207
629.66752
484.08666
374.12337
290.42381
226.28839
176.85577
138.55805
108.75016
85.453802
67.177885
52.791129
41.430656
32.435878
25.300376
19.636609
15.14951
11.615599
8.8645338
6.7612498
5.1898859
4.043854
3.2249776
2.6484516
2.2471348
1.9718523
1.7886113
1.676941
1.6235209
1.6140105
1.6468252
1.7242742
1.851662
2.0412967
2.3027634
2.6257239
3.0422474
3.6060675
4.3713102
5.3398826
6.3817177
7.225713
7.2514305
6.9672431
6.0874987
3.9636851
1.7189587
0.76519554
0.41441733
0.27544429
4528880.1
731737.63
224651.32
95300.324
48493.408
27621.016
16963.086
10987.076
7401.2191
5137.0542
3649.9272
2642.1939
1941.9053
1445.1279
1086.6429
824.21963
629.77501
484.20391
374.25145
290.56366
226.4408
177.02143
138.7375
108.94377
85.661696
67.399922
53.026777
41.678837
32.69474
25.566975
19.906527
15.416536
11.871762
9.1009233
6.9698685
5.3659635
4.1872213
3.3395316
2.740311
2.3228703
2.0375555
1.8497503
1.7395276
1.6926236
1.6945418
1.7486524
1.8593081
2.0383792
2.3071396
2.6605774
3.1178549
3.7634619
4.685381
5.943369
7.4184772
8.1397775
8.0088309
7.5034852
6.2086265
3.5499739
1.6878811
0.82975639
0.45634589
0.30865129
0.23316277
4528926.9
731745.29
224653.69
95301.343
48493.935
27621.327
16963.289
10987.221
7401.3311
5137.148
3650.0114
2642.2744
1941.9858
1445.2112
1086.7312
824.31467
629.87821
484.31655
374.37461
290.69835
226.58791
177.18173
138.91164
109.13224
85.864813
67.617737
53.258994
41.924666
32.952676
25.834487
20.179671
15.689585
12.137111
9.3496854
7.193495
5.5585631
4.3473247
3.4701005
2.8471861
2.4129485
2.1176829
1.9267253
1.8208118
1.7835002
1.8051876
1.892215
2.0549863
2.3165351
2.699964
3.1923737
3.9047202
4.9727503
6.4884115
8.3442083
8.9224359
8.6904465
7.8586857
5.8976019
3.005576
1.5463271
0.82169704
0.48732655
0.32702008
0.2583829
0.20373229
4528977.9
731753.48
224656.18
95302.403
48494.481
27621.648
16963.497
10987.368
7401.4429
5137.2401
3650.0928
2642.3509
1942.0615
1445.2889
1086.813
824.40241
629.97333
484.42031
374.48816
290.82273
226.72405
177.3305
139.07381
109.30845
86.05557
67.823334
53.479439
42.15954
33.200934
26.09416
20.447481
15.960544
12.404308
9.6046433
7.4274908
5.7648134
4.5230287
3.6170378
2.9706325
2.5199526
2.2158073
2.02485
1.9277475
1.9070018
1.9612728
2.1013815
2.3493908
2.7458581
3.290727
4.0479273
5.2418554
7.0221268
9.1426829
9.6538968
9.3270461
8.1956707
5.574528
2.8042541
1.4600186
0.81277706
0.49888603
0.34832937
0.26887835
0.2249432
0.18078115
4529031.7
731761.99
224658.77
95303.505
48495.048
27621.978
16963.708
10987.515
7401.553
5137.3288
3650.1695
2642.4214
1942.1298
1445.358
1086.8851
824.47918
630.05625
484.51065
374.58706
290.93123
226.84316
177.46114
139.21685
109.46471
86.225747
68.008002
53.678956
42.373934
33.429716
26.336055
20.700056
16.219794
12.664341
9.8578145
7.665391
5.9801901
4.7119484
3.7800359
3.1122511
2.6473523
2.3376001
2.1520732
2.0713971
2.0808553
2.1897195
2.4190807
2.8125896
3.4148907
4.2343362
5.5190345
7.535427
9.8573171
10.363604
9.964524
8.6080122
5.5113795
2.7418604
1.4387443
0.81994571
0.51771379
0.36318432
0.28396214
0.23201985
0.19665431
0.16094945
4529085.9
731770.68
224661.44
95304.643
48495.631
27622.316
16963.923
10987.661
7401.66
5137.4125
3650.2394
2642.4836
1942.1884
1445.4158
1086.9443
824.54146
630.12301
484.58311
374.66635
291.01839
226.93918
177.56701
139.33354
109.59317
86.366901
68.162718
53.84798
42.557795
33.628567
26.549423
20.926505
16.456509
12.906759
10.099567
7.8989474
6.198449
4.9103393
3.9580981
3.2738838
2.8000136
2.4917317
2.3216567
2.2705932
2.336222
2.5397959
2.9254427
3.5668837
4.4744524
5.8492312
8.0568098
10.556284
11.056432
10.610974
9.1045465
5.671745
2.8143678
1.4784024
0.85131517
0.54577326
0.38606159
0.29870409
0.2412566
0.1985456
0.17491006
0.14699082
4529139.6
731779.55
224664.18
95305.806
48496.227
27622.66
16964.138
10987.805
7401.7626
5137.4897
3650.3008
2642.5355
1942.2347
1445.4595
1086.9874
824.58565
630.16959
484.63322
374.72104
291.07865
227.00601
177.64141
139.41654
109.68587
86.470439
68.278258
53.976681
42.700733
33.786599
26.722976
21.115269
16.65904
13.120081
10.319012
8.1185437
6.4120325
5.1134915
4.1500347
3.4584286
2.9855995
2.692335
2.5550939
2.5622875
2.7300698
3.1046335
3.769884
4.7771286
6.2545831
8.6078829
11.274075
11.772009
11.295796
9.6902431
6.0123064
2.9844915
1.569581
0.90707984
0.58500858
0.41766923
0.32072986
0.25137657
0.20619362
0.1773561
0.15638337
0.13314501
4529196.7
731788.82
224667.03
95307.014
48496.844
27623.012
16964.355
10987.947
7401.8597
5137.5588
3650.3519
2642.5747
1942.2663
1445.4861
1087.0112
824.608
630.19178
484.65629
374.74594
291.10631
227.03737
177.67748
139.45843
109.7348
86.527743
68.34541
54.055276
42.792436
33.893043
26.84558
21.254964
16.815931
13.293087
10.505598
8.314768
6.613568
5.3172453
4.3562416
3.6723882
3.2189873
2.964375
2.8937046
3.0139549
3.371117
4.0586272
5.1657566
6.7584013
9.2306689
12.013268
12.533332
12.035731
10.360874
6.4922364
3.2368135
1.7050102
0.98608271
0.6375461
0.4560572
0.34520188
0.26522373
0.21503492
0.18351475
0.15824218
0.14332071
0.12303495
4529258.1
731798.59
224670.01
95308.272
48497.481
27623.372
16964.574
10988.086
7401.9506
5137.6188
3650.3914
2642.6
1942.2814
1445.4938
1087.0134
824.60606
630.1868
484.64918
374.73751
291.09737
227.02876
177.67014
139.45343
109.73342
86.531542
68.356242
54.075301
42.824105
33.93901
26.908496
21.336986
16.918756
13.417596
10.651587
8.4810951
6.7988422
5.5213904
4.5827208
3.9308484
3.5282729
3.3561646
3.4181215
3.7501485
4.4641497
5.670655
7.3830407
9.949202
12.804319
13.368784
12.84884
11.111235
7.0749486
3.5665816
1.8857827
1.0895741
0.70415735
0.50090248
0.37262173
0.28405956
0.22923666
0.19165541
0.16483307
0.14462694
0.13023256
0.115373
4529319.5
731808.53
224673.06
95309.564
48498.134
27623.738
16964.793
10988.221
7402.0339
5137.6685
3650.4179
2642.6098
1942.2784
1445.4808
1086.992
824.57771
630.15242
484.60957
374.6934
291.0495
226.97796
177.61737
139.39985
109.68043
86.480813
68.309774
54.035457
42.793644
33.921128
26.906926
21.356324
16.963326
13.490465
10.755329
8.6181691
6.972264
5.7364268
4.8497096
4.2692834
3.9726819
3.9650608
4.2701588
5.0101875
6.312483
8.1569854
10.776012
13.66669
14.270027
13.72744
11.930471
7.7399627
3.9805751
2.1250383
1.2236928
0.7830824
0.54810951
0.40284239
0.30755129
0.24780124
0.20347762
0.17167484
0.14999631
0.13335523
0.12207925
0.10740828
4529381.2
731818.66
224676.19
95310.89
48498.802
27624.11
16965.011
10988.352
7402.1097
5137.7079
3650.4314
2642.6039
1942.2572
1445.4468
1086.947
824.52286
630.08859
484.53747
374.61367
290.96285
226.88521
177.51956
139.29828
109.57674
86.377066
68.208486
53.939666
42.706939
33.847652
26.851319
21.323532
16.959071
13.521865
10.829073
8.7420818
7.1564098
5.9955198
5.2073366
4.7647453
4.6715784
4.9524442
5.7192233
7.1206817
9.1017948
11.730552
14.612016
15.245768
14.67695
12.815584
8.4795619
4.4603191
2.3942712
1.3620966
0.85788264
0.59512494
0.43811191
0.33821296
0.270543
0.21833426
0.18120682
0.15648529
0.13846141
0.12398834
0.11415813
0.10291101
4529447.3
731829.36
224679.47
95312.267
48499.494
27624.492
16965.232
10988.48
7402.1797
5137.7385
3650.4338
2642.5845
1942.2201
1445.3945
1086.8813
824.44489
629.99913
484.43718
374.5032
290.8429
226.75669
177.38362
139.15645
109.43096
86.22984
68.06292
53.799568
42.576885
33.73304
26.758398
21.259415
16.931794
13.540423
10.906727
8.895021
7.4061183
6.3729367
5.7597446
5.5666464
5.8187826
6.6106494
8.1048415
10.226041
12.836472
15.655983
16.30411
15.703333
13.765048
9.2817207
5.0027832
2.6983559
1.5187148
0.94952565
0.66039209
0.48897687
0.37630579
0.29630556
0.23482844
0.19379716
0.16522094
0.14434162
0.1290607
0.11711643
0.10822033
0.098623857
4529517.1
731840.53
224682.89
95313.703
48500.211
27624.887
16965.458
10988.608
7402.2464
5137.7635
3650.4284
2642.5555
1942.1717
1445.3295
1086.8012
824.35091
629.89213
484.31789
374.37234
290.70134
226.6055
177.22421
138.99068
109.26125
86.059242
67.895284
53.639641
42.430441
33.607004
26.661001
21.200345
16.922511
13.598259
11.053326
9.1586741
7.8262577
7.006574
6.6914166
6.9028909
7.7111138
9.2861699
11.536817
14.124375
16.822318
17.453479
16.813379
14.780097
10.136668
5.6100841
3.0418044
1.6985837
1.0591021
0.73788671
0.54287437
0.4124504
0.32016299
0.25392172
0.20972715
0.17721888
0.15251003
0.13470647
0.12132216
0.1107748
0.10363321
0.0947121
4529588.1
731851.96
224686.39
95315.187
48500.952
27625.294
16965.69
10988.74
7402.3154
5137.7893
3650.4229
2642.5257
1942.1221
1445.2628
1086.7194
824.25528
629.78371
484.19759
374.24115
290.56039
226.45621
177.06844
138.83077
109.10022
85.900907
67.744427
53.502177
42.313602
33.519478
26.613733
21.208531
17.007926
13.787196
11.379731
9.6698473
8.5884223
8.1133156
8.2578328
9.0499328
10.681678
13.04637
15.64012
18.150387
18.700764
18.012607
15.864235
11.035534
6.2832596
3.4264962
1.9034931
1.1846159
0.8232278
0.59881372
0.45075019
0.35053337
0.28052718
0.23153632
0.19178926
0.1627023
0.14136317
0.12654598
0.11505775
0.10605833
0.099030647
0.092244764
4529661.3
731863.83
224690.03
95316.724
48501.723
27625.719
16965.938
10988.884
7402.3951
5137.8261
3650.4289
2642.5085
1942.0864
1445.2118
1086.6553
824.17972
629.69806
484.10316
374.13932
290.45277
226.34477
176.95559
138.71956
108.99444
85.805243
67.664819
53.446285
42.291517
33.545021
26.70531
21.389184
17.30749
14.244978
12.049728
10.625745
9.9298498
9.9663248
10.693816
12.326376
14.748156
17.431427
19.687665
20.07297
19.299527
17.018088
11.97917
7.0188737
3.8526776
2.1356516
1.3263518
0.91781274
0.66305954
0.49899964
0.39057072
0.31266623
0.25393851
0.20682982
0.17333323
0.14998112
0.13295492
0.1198532
0.10969148
0.10189636
0.096390827
0.089958177
4529737.4
731876.13
224693.82
95318.32
48502.528
27626.17
16966.205
10989.047
7402.4941
5137.8834
3650.4575
2642.5166
1942.0792
1445.193
1086.6275
824.14514
629.65862
484.06075
374.09595
290.41073
226.3068
176.92505
138.70069
108.99265
85.827653
67.720535
53.546944
42.452008
33.784372
27.04837
21.869719
17.969165
15.146623
13.269464
12.265132
12.116026
12.742707
14.290268
16.677674
19.433758
21.502281
21.598306
20.696908
18.201043
12.980606
7.8161411
4.3256572
2.3986188
1.4864287
1.0233151
0.73769181
0.55573373
0.4330879
0.34278188
0.27452099
0.22341751
0.18813761
0.16174152
0.14179628
0.12569826
0.11439814
0.10546589
0.098714638
0.093229982
0.087929527
4529816
731888.84
224697.73
95319.981
48503.371
27626.648
16966.496
10989.234
7402.618
5137.9678
3650.5165
2642.5589
1942.1108
1445.2182
1086.6498
824.16743
629.6837
484.09146
374.13542
290.46257
226.37528
177.01538
138.81925
109.1474
86.028479
67.979992
53.881223
42.882278
34.338588
27.763123
22.792279
19.161598
16.688848
15.261213
14.828059
15.286257
16.653774
18.924099
21.616507
23.514221
23.326651
22.22261
19.400851
14.039318
8.6713963
4.8445735
2.6910901
1.66257
1.1404083
0.82244997
0.62014968
0.47941212
0.37680048
0.30308288
0.24934126
0.20886832
0.17648258
0.15108382
0.13270652
0.11946961
0.10957997
0.10175617
0.095481788
0.091082123
0.086675362
4529897.8
731902.1
224701.79
95321.711
48504.256
27627.158
16966.816
10989.449
7402.7725
5138.086
3650.6133
2642.6441
1942.1913
1445.2992
1086.7357
824.2621
629.79107
484.21567
374.28106
290.63493
226.58063
177.26129
139.11498
109.50442
86.461253
68.506944
54.526134
43.675628
35.319407
28.981413
24.311676
21.061728
19.066167
18.224389
18.431723
19.505759
21.541966
24.060524
25.717581
25.245967
23.893707
20.659802
15.162742
9.5794712
5.4080288
3.0144787
1.8598408
1.2742108
0.92136362
0.69339099
0.53275718
0.41716696
0.33652436
0.27596788
0.22685975
0.1883732
0.160935
0.14082872
0.12644487
0.11456957
0.1057217
0.098668835
0.093646735
0.089327253
0.085285447
4529983.7
731915.9
224706.02
95323.517
48505.185
27627.701
16967.166
10989.694
7402.9586
5138.2395
3650.7503
2642.7753
1942.3245
1445.4407
1086.8911
824.43661
629.99015
484.44519
374.54767
290.94634
226.946
177.69166
139.62389
110.10865
87.181873
69.37033
55.565393
44.93239
36.845619
30.841271
26.582518
23.83214
22.427691
22.253481
22.961235
24.624041
26.760428
28.08476
27.453292
25.73283
21.970664
16.328486
10.519421
6.0078828
3.3713536
2.0820309
1.4256974
1.0312384
0.77361749
0.59208665
0.46400602
0.3729835
0.30383299
0.24879089
0.20738645
0.17762162
0.1538559
0.13532009
0.12094631
0.11002043
0.10233899
0.096089217
0.091087974
0.087510628
0.084360851
4530071.7
731930.11
224710.41
95325.39
48506.156
27628.275
16967.544
10989.968
7403.1762
5138.4284
3650.9277
2642.9532
1942.5122
1445.6458
1087.1206
824.6977
630.29031
484.79275
374.95215
291.41889
227.49987
178.34282
140.39178
111.01709
88.260045
70.654183
57.098898
46.76901
39.049129
33.484763
29.743671
27.581562
26.807937
27.124767
28.23666
29.86262
30.586236
29.71905
27.627833
23.416103
17.55636
11.492455
6.6518781
3.7729418
2.3365034
1.5958222
1.1532421
0.86401256
0.66241651
0.51932802
0.41522334
0.33550501
0.2758041
0.2302961
0.19409026
0.16479298
0.14279707
0.12705194
0.11539726
0.10642854
0.099359115
0.093774638
0.08986914
0.086535583
0.083599794
4530163.2
731944.94
224714.97
95327.342
48507.178
27628.891
16967.961
10990.283
7403.4391
5138.6685
3651.164
2643.1992
1942.7786
1445.9421
1087.4559
825.0812
630.73215
485.30431
375.54655
292.11154
228.30909
179.29061
141.50463
112.32701
89.805529
72.481205
59.261402
49.328245
42.071311
37.032833
33.861434
32.266398
31.97695
32.428947
33.461386
33.271024
32.095309
29.531845
24.892502
18.763807
12.434875
7.3221093
4.2181443
2.6219425
1.7835814
1.2874969
0.96712262
0.74328745
0.5818739
0.46179173
0.37199811
0.30575925
0.25493541
0.21240397
0.17916604
0.15570559
0.13774252
0.123373
0.11225316
0.10321929
0.097162957
0.092117949
0.088006861
0.085147212
0.08270359
4530257.7
731960.23
224719.68
95329.385
48508.264
27629.563
16968.436
10990.659
7403.7702
5138.9864
3651.4897
2643.5482
1943.1635
1446.3745
1087.9471
825.64349
631.37872
486.05023
376.40929
293.11167
229.47104
180.64356
143.08347
114.17325
91.968116
75.011208
62.203748
52.741877
46.002885
41.499612
38.822142
37.572199
37.342998
37.211981
36.329429
34.41389
31.363901
26.338872
19.944853
13.390083
8.0713443
4.7442867
2.9580586
1.9976279
1.4398512
1.0850905
0.83595726
0.65239937
0.51632349
0.41545197
0.34084823
0.28204196
0.23509182
0.19812616
0.17034881
0.14798806
0.12997184
0.11725272
0.10763653
0.10049009
0.094773348
0.09012207
0.08705101
0.084517033
0.082264178
4530355.2
731976.03
224724.58
95331.526
48509.426
27630.305
16968.982
10991.115
7404.1925
5139.4088
3651.9355
2644.0351
1943.7066
1446.9879
1088.6453
826.4417
632.29411
487.10236
377.62093
294.50965
231.0873
182.51623
145.25663
116.69434
94.881133
78.350636
66.004033
57.029855
50.768224
46.666602
44.23347
42.844103
41.513314
39.518679
37.006104
33.333511
27.86318
21.17747
14.428442
8.9197356
5.3388258
3.3236641
2.2244773
1.6042005
1.2161387
0.93943189
0.73334439
0.57989636
0.46640325
0.37992534
0.31271616
0.26060847
0.22017882
0.1864768
0.15973554
0.14029739
0.12590527
0.11456102
0.10558183
0.098210337
0.093181078
0.089164217
0.085931578
0.083483461
0.081546387
4530457.6
731992.58
224729.72
95333.789
48510.677
27631.129
16969.614
10991.666
7404.7227
5139.9553
3652.5238
2644.6854
1944.4367
1447.815
1089.5869
827.51697
633.52438
488.51211
379.23837
296.3672
233.22147
184.96638
148.06421
119.90188
98.529878
82.474564
70.601657
62.025526
56.040994
51.95427
48.974265
46.203882
43.203762
39.929665
35.481461
29.479935
22.482803
15.550968
9.8459877
5.9889576
3.7290948
2.4879632
1.8017115
1.3717805
1.0604249
0.82755472
0.65474022
0.52454769
0.425285
0.34865295
0.29078513
0.24450245
0.20628392
0.17523166
0.1529476
0.1354215
0.1205901
0.11001076
0.10196721
0.096035919
0.091449628
0.087570204
0.084902065
0.083035699
0.081231168
4530563.2
732009.72
224735.07
95336.172
48512.019
27632.042
16970.342
10992.324
7405.3754
5140.6421
3653.2729
2645.5196
1945.3763
1448.8799
1090.7975
828.89528
635.09437
490.30002
381.27291
298.67927
235.84331
187.92995
151.39737
123.6224
102.63839
86.949097
75.359625
66.882629
60.636949
55.738856
51.467077
47.436868
43.216825
37.864442
31.271527
23.944647
16.815481
10.892883
6.7413742
4.217876
2.8107046
2.0314624
1.54139
1.1903548
0.93221536
0.739498
0.59213356
0.47830528
0.39190679
0.32491378
0.2718503
0.22882521
0.19490762
0.16739422
0.14577807
0.12922361
0.11708071
0.10801172
0.10042504
0.094570801
0.090199988
0.086872171
0.084355513
0.08238518
0.080648037
4530672.5
732027.47
224740.63
95338.669
48513.451
27633.043
16971.164
10993.089
7406.1482
5141.466
3654.1783
2646.5314
1946.5167
1450.1703
1092.2599
830.55246
636.97051
492.42053
383.66367
301.36491
238.84418
191.25708
155.04482
127.55615
106.78138
91.162292
79.459328
70.568853
63.536923
57.643696
52.31033
46.854765
40.531501
33.309472
25.621947
18.257201
12.079397
7.6080623
4.7891618
3.1783877
2.2792834
1.7236817
1.3387725
1.0576901
0.84186058
0.67244746
0.54185296
0.44169952
0.36445119
0.30300046
0.25555146
0.21707413
0.18509494
0.15870128
0.14017213
0.12586466
0.11355029
0.10455601
0.097675491
0.092682559
0.088910443
0.085701614
0.083461141
0.081809045
0.080364382
4530784.7
732045.79
224746.38
95341.279
48514.969
27634.12
16972.063
10993.936
7407.0127
5142.3925
3655.1992
2647.6726
1947.8019
1451.6219
1093.9003
832.40425
639.05625
494.76157
386.27817
304.26479
242.03023
194.71186
158.72323
131.37386
110.60245
94.787793
82.617579
73.006712
65.051697
58.042959
51.113111
43.701242
35.759607
27.629448
19.956338
13.46631
8.6378875
5.4813125
3.6230723
2.576637
1.9456414
1.5201218
1.2053308
0.95764518
0.76324572
0.61447499
0.50027281
0.41064831
0.34114931
0.28620048
0.24233888
0.20562204
0.17633542
0.15312978
0.13533717
0.1210018
0.11040944
0.10302183
0.096516809
0.091731524
0.087925314
0.085190822
0.083084342
0.081518829
0.080078714
4530901
732061.36
224749.49
95341.779
48514.927
27634.026
16972.066
10994.087
7407.3338
5142.8949
3655.892
2648.5652
1948.9046
1452.9464
1095.4592
834.21016
641.12015
497.09066
388.87245
307.11204
245.09961
197.94611
162.03012
134.61869
113.60477
97.327131
84.450395
73.931414
64.800862
56.14117
47.48218
38.703927
30.031295
21.967129
15.10302
9.8689506
6.3230599
4.1613097
2.9274665
2.1975246
1.7171324
1.362774
1.0852575
0.86969668
0.70266271
0.57082161
0.46679128
0.38526607
0.32183066
0.27034575
0.22994734
0.19666517
0.16919582
0.14653347
0.13071734
0.11854972
0.10815045
0.10044102
0.094400015
0.090199751
0.086955416
0.084242771
0.082425481
0.08098734
0.079749578
4531685.4
732195.45
224794.63
95363.173
48527.076
27641.817
16977.536
10998.22
7410.6605
5145.7262
3658.4238
2650.9285
1951.1914
1455.224
1097.7775
836.60566
643.61724
499.70047
391.59019
309.91266
247.93222
200.72814
164.64284
136.90698
115.38391
98.413167
84.618369
72.799849
62.085983
51.93632
42.128252
32.760282
24.192719
16.89247
11.222743
7.2664499
4.7716051
3.3241533
2.4781596
1.9361396
1.5437637
1.2387244
0.9982356
0.80577697
0.65116069
0.53015002
0.43645707
0.36235906
0.30422399
0.25741632
0.21994637
0.1878606
0.16221221
0.14217701
0.12715065
0.11457257
0.10524045
0.099121163
0.093486816
0.089517146
0.08621919
0.083792649
0.082136345
0.080730407
0.07960313
4531684.6
732191.76
224791.66
95361
48525.602
27640.848
16976.943
10997.926
7410.6199
5145.9116
3658.8193
2651.5255
1951.9856
1456.2127
1098.9574
837.9701
645.15244
501.38167
393.37663
311.74217
249.71606
202.34742
165.94966
137.73674
115.52554
97.563211
82.498144
69.328108
57.375177
46.286605
36.023762
26.803388
18.968655
12.807477
8.3962272
5.5203236
3.8113707
2.8118974
2.1873246
1.7475028
1.4081141
1.136293
0.91633445
0.74144112
0.60486195
0.49726771
0.41135144
0.34281867
0.28912242
0.24483674
0.20982211
0.1804917
0.15651907
0.13685074
0.12320236
0.11265255
0.10372629
0.097120505
0.091709058
0.088202836
0.085326329
0.083191725
0.08156339
0.080287493
0.07940675
4531684.8
732191.88
224791.78
95361.164
48525.815
27641.114
16977.269
10998.318
7411.0842
5146.4546
3659.4472
2652.2438
1952.7978
1457.1194
1099.9542
839.04538
646.28416
502.53382
394.49543
312.75303
250.52315
202.82592
165.93657
137.00775
113.86784
94.850243
78.705425
64.556433
51.876351
40.460036
30.363335
21.794927
14.965421
9.9390553
6.5445699
4.4569984
3.2281716
2.4845471
1.9841618
1.6063091
1.3030635
1.0566084
0.85878336
0.70015225
0.57190583
0.46992808
0.38990363
0.32622879
0.27614251
0.23513137
0.20241198
0.17397407
0.15126956
0.1335279
0.12054292
0.10953305
0.1012036
0.096014434
0.091030576
0.087698912
0.084805027
0.082683167
0.081321919
0.080129303
0.079263842
4531684.9
732191.97
224791.84
95361.243
48525.917
27641.244
16977.43
10998.515
7411.3203
5146.7332
3659.7709
2652.6136
1953.212
1457.5723
1100.4343
839.53235
646.74667
502.92563
394.75128
312.78323
250.20486
202.0137
164.47932
134.78576
110.79831
90.917695
73.992691
59.265918
46.326898
35.048139
25.488938
17.771849
11.949404
7.8843115
5.2984154
3.759893
2.8518469
2.268411
1.841001
1.4997943
1.2203644
0.9920211
0.80621616
0.65695239
0.53912372
0.446258
0.37191586
0.31209368
0.26514609
0.2259615
0.19501398
0.16859756
0.14715415
0.12966551
0.1176217
0.1082155
0.10024124
0.094547606
0.089696944
0.086713997
0.084174398
0.082380317
0.081006836
0.079828506
0.079119221
4531686.1
732192.07
224791.85
95361.238
48525.91
27641.239
16977.428
10998.518
7411.3286
5146.748
3659.7914
2652.6366
1953.2309
1457.5753
1100.4019
839.43543
646.54286
502.55706
394.14293
311.84425
248.83611
200.1128
161.95363
131.57147
106.88446
86.37007
68.970236
54.020099
41.176258
30.327674
21.483705
14.655382
9.740266
6.4924529
4.5054642
3.3342462
2.6129379
2.1132464
1.7268702
1.4119896
1.1523703
0.9394806
0.76741277
0.62905752
0.51708514