/*--------------------------------*- C++ -*----------------------------------*\
  =========                 |
  \\      /  F ield         | OpenFOAM: The Open Source CFD Toolbox
   \\    /   O peration     | Website:  https://openfoam.org
    \\  /    A nd           | Version:  13
     \\/     M anipulation  |
\*---------------------------------------------------------------------------*/
FoamFile
{
    format      ascii;
    class       volVectorField;
    location    "35.798906";
    object      U;
}
// * * * * * * * * * * * * * * * * * * * * * * * * * * * * * * * * * * * * * //

dimensions      [0 1 -1 0 0 0 0];

internalField   nonuniform List<vector> 
17140
(
(1.9903649e-06 -0.00015298766 2.6811582e-23)
(4.7925799e-06 -0.00047447507 2.9697196e-24)
(5.8642324e-06 -0.00083058557 -1.9597136e-22)
(4.5383924e-06 -0.0012249992 2.1535843e-22)
(1.8991849e-08 -0.0016617052 -2.5164759e-23)
(-8.7293121e-06 -0.0021449972 8.2318471e-23)
(-2.3020181e-05 -0.0026794536 1.3849799e-22)
(-4.4486139e-05 -0.0032699083 -6.7542013e-23)
(-7.5155929e-05 -0.0039214047 -2.208754e-22)
(-0.00011753416 -0.0046391319 -5.4107609e-22)
(-0.00017470052 -0.0054283371 8.0100007e-22)
(-0.00025042214 -0.0062942097 -7.1244045e-22)
(-0.00034928403 -0.007241732 -1.0883378e-22)
(-0.00047683631 -0.0082754893 6.1334186e-22)
(-0.0006397587 -0.0093994317 -6.7878034e-23)
(-0.00084603997 -0.010616582 5.3515293e-22)
(-0.0011051687 -0.01192868 -1.9780762e-23)
(-0.0014283279 -0.013335756 4.4385336e-24)
(-0.0018285836 -0.01483563 3.1024872e-22)
(-0.0023210492 -0.016423333 -3.9821022e-22)
(-0.0029230048 -0.018090459 1.8958669e-22)
(-0.0036539377 -0.01982445 -3.558621e-23)
(-0.0045354637 -0.021607871 -2.5859692e-22)
(-0.005591074 -0.023417707 2.5303093e-22)
(-0.0068456428 -0.025224797 3.9487806e-22)
(-0.0083246153 -0.026993564 -3.1042943e-22)
(-0.01005279 -0.028682284 -1.490755e-21)
(-0.012052618 -0.030244297 -1.7181579e-22)
(-0.014341965 -0.031630744 1.4717876e-21)
(-0.01693142 -0.032795603 3.3599218e-22)
(-0.019821434 -0.033703755 1.1678036e-21)
(-0.023000014 -0.034341726 -1.492252e-21)
(-0.026442198 -0.034727791 3.7600932e-22)
(-0.030112636 -0.034914272 1.7223928e-22)
(-0.033971499 -0.034976044 1.6250349e-21)
(-0.037981332 -0.034989788 -6.7833529e-22)
(-0.042111188 -0.035017732 9.7395205e-22)
(-0.04633681 -0.035104182 6.2961303e-22)
(-0.05063875 -0.035281199 2.7736885e-22)
(-0.055001007 -0.035576181 -8.1320809e-22)
(-0.059411148 -0.036017412 -1.5004672e-21)
(-0.063862282 -0.036636858 -1.3424525e-21)
(-0.068355823 -0.037470417 -5.8247802e-22)
(-0.07290544 -0.038556619 2.8392308e-21)
(-0.077546824 -0.039931164 2.089739e-21)
(-0.082336186 -0.0416127 -5.186176e-22)
(-0.087355259 -0.043596194 3.5593699e-21)
(-0.092722216 -0.045842724 1.2230814e-21)
(-0.09858947 -0.048249747 -1.2604552e-21)
(-0.10515389 -0.050613601 -3.1161712e-21)
(-0.11264278 -0.052569792 1.9388567e-21)
(-0.12133962 -0.053483247 1.2342817e-21)
(-0.13151327 -0.052294294 -3.2433657e-21)
(-0.14344733 -0.04722567 -1.5398824e-21)
(-0.15711675 -0.035549986 -1.1077242e-21)
(-0.17215559 -0.013061692 8.6447688e-22)
(-0.18687686 0.02559799 -2.2988188e-21)
(-0.19755317 0.085887925 -1.8682386e-21)
(-0.19757807 0.16711164 -4.3864948e-22)
(-0.17670895 0.25639961 1.0541629e-21)
(-0.13407238 0.32194245 7.563882e-22)
(-0.085504538 0.32754925 2.7547149e-21)
(-0.0268457 0.21047361 4.5028307e-22)
(0.11458281 -0.063521204 -3.669608e-21)
(0.31603859 -0.32320926 1.5888862e-21)
(4.9603077e-06 -0.00012304966 -7.6277855e-24)
(1.3984702e-05 -0.00038174701 1.027372e-21)
(2.1921775e-05 -0.00066850355 -9.1399392e-22)
(2.8168451e-05 -0.0009863955 2.4906345e-22)
(3.1996943e-05 -0.0013387705 5.1431336e-22)
(3.2442785e-05 -0.0017292514 -9.8223939e-22)
(2.8258919e-05 -0.0021617534 1.0231591e-21)
(1.7880081e-05 -0.0026403023 -8.9971691e-23)
(-6.527395e-07 -0.0031692281 2.8060234e-22)
(-2.9780547e-05 -0.0037529949 4.7542366e-24)
(-7.2533176e-05 -0.0043961312 9.3407401e-22)
(-0.00013264251 -0.0051031471 -1.4809623e-21)
(-0.00021467929 -0.0058784156 -1.2202045e-22)
(-0.00032420689 -0.0067260192 1.2002087e-21)
(-0.00046795414 -0.007649556 -3.6695352e-22)
(-0.00065400372 -0.0086519018 -2.3173715e-22)
(-0.00089199312 -0.0097349191 1.4609182e-21)
(-0.0011933204 -0.010899108 -4.7195005e-21)
(-0.0015713435 -0.012143195 2.9251986e-21)
(-0.0020415572 -0.013463653 -3.4631687e-21)
(-0.0026217213 -0.014854167 5.0453066e-21)
(-0.0033319108 -0.016305047 -1.2172584e-21)
(-0.0041944414 -0.017802624 -4.9294297e-22)
(-0.0052336164 -0.019328684 1.5815794e-21)
(-0.0064752254 -0.020860019 -5.5750918e-21)
(-0.0079457143 -0.022368258 -8.1523028e-22)
(-0.0096709342 -0.023820183 4.1348284e-21)
(-0.011674386 -0.02517887 -4.5398568e-21)
(-0.013974913 -0.026406141 6.0977035e-22)
(-0.016583891 -0.027466895 5.8503753e-21)
(-0.019502244 -0.028335742 -5.9212573e-22)
(-0.022718009 -0.029005378 -4.4183167e-21)
(-0.026205766 -0.029493761 -1.0913229e-22)
(-0.029929349 -0.029844527 3.0750002e-21)
(-0.033847966 -0.0301168 -3.2867963e-21)
(-0.037923373 -0.030369055 1.4139711e-21)
(-0.042124254 -0.030647748 -1.5838267e-21)
(-0.046426389 -0.030986004 -4.828216e-21)
(-0.050810707 -0.03140872 -1.0429272e-21)
(-0.055261837 -0.031938409 -3.9540646e-21)
(-0.05976815 -0.032599184 4.9597307e-21)
(-0.06432369 -0.033418494 4.5109733e-21)
(-0.068930866 -0.034426787 7.7013199e-22)
(-0.073604156 -0.03565553 -6.1586867e-21)
(-0.078379792 -0.037132354 2.9316445e-21)
(-0.083313788 -0.038869052 1.026447e-21)
(-0.088485263 -0.04085307 -5.6503796e-22)
(-0.094006119 -0.043036849 -1.7585213e-21)
(-0.10001663 -0.045310632 8.7279798e-22)
(-0.10669215 -0.04746548 -1.5741586e-21)
(-0.11422283 -0.049134016 -9.6457522e-21)
(-0.12283504 -0.04968551 -4.7836463e-22)
(-0.13270339 -0.048081544 2.1364562e-21)
(-0.14398203 -0.0426108 -4.6432494e-21)
(-0.15643581 -0.030687663 4.0067102e-21)
(-0.1694442 -0.0083711901 -1.1219522e-20)
(-0.18112473 0.029239635 -2.974e-21)
(-0.18816865 0.086828872 8.4326596e-21)
(-0.18405453 0.16317218 -1.3439547e-21)
(-0.16060556 0.24607698 -1.4829875e-21)
(-0.11549127 0.30766745 -2.6792499e-22)
(-0.061411272 0.31077381 4.0635956e-21)
(0.022980481 0.17849142 -8.7890392e-21)
(0.21341387 -0.11370322 -3.3731673e-21)
(0.41373552 -0.36325983 -2.2368805e-21)
(6.2792622e-06 -9.2252758e-05 -4.1988484e-22)
(1.8079645e-05 -0.00028636499 3.1027035e-22)
(2.9101883e-05 -0.00050178565 8.2499469e-23)
(3.8785179e-05 -0.00074096133 -7.8191243e-23)
(4.6341878e-05 -0.001006581 3.7878258e-22)
(5.1128222e-05 -0.001301462 2.8171811e-23)
(5.1697373e-05 -0.0016286394 3.5947991e-22)
(4.6387671e-05 -0.0019917214 3.8702679e-22)
(3.3829414e-05 -0.0023942701 -3.1593715e-21)
(1.1179757e-05 -0.0028398299 2.8172042e-21)
(-2.4423116e-05 -0.0033321881 -1.345968e-21)
(-7.6666e-05 -0.0038751435 -1.968295e-21)
(-0.00015008859 -0.0044724301 3.8931056e-21)
(-0.00025024279 -0.0051276038 4.8055742e-22)
(-0.00038385291 -0.0058438958 -1.8472603e-21)
(-0.00055902275 -0.0066240309 -1.2637012e-21)
(-0.00078543723 -0.007470006 1.4565094e-21)
(-0.0010745766 -0.0083828206 -5.233418e-21)
(-0.0014399219 -0.009362158 3.0652296e-21)
(-0.0018971388 -0.010406013 -1.5003209e-21)
(-0.0024642134 -0.01151027 4.9968321e-21)
(-0.003161508 -0.012668244 1.2824114e-21)
(-0.0040116915 -0.013870207 -2.6333583e-21)
(-0.0050394886 -0.015102947 3.8984652e-21)
(-0.0062711764 -0.016349444 1.508797e-21)
(-0.0077337469 -0.017588786 -1.7777529e-21)
(-0.00945364 -0.018796514 -9.9178178e-21)
(-0.011454962 -0.019945693 -4.4070507e-21)
(-0.013757133 -0.021009044 2.1555657e-21)
(-0.016372037 -0.021962542 -2.267465e-21)
(-0.01930096 -0.022790587 1.3831114e-21)
(-0.022532126 -0.023491985 7.6644324e-21)
(-0.02604009 -0.024084196 -2.4914516e-21)
(-0.029788482 -0.024601908 -7.1977971e-21)
(-0.033736269 -0.025088203 2.3018526e-21)
(-0.037845028 -0.025583028 3.0930789e-21)
(-0.042083374 -0.026116749 -5.129988e-21)
(-0.046427134 -0.026711043 -1.5038972e-21)
(-0.050857383 -0.02738336 2.5861527e-21)
(-0.05535895 -0.028151123 1.0127426e-21)
(-0.059920385 -0.029034174 -4.7792024e-21)
(-0.064535757 -0.030055437 1.3367811e-21)
(-0.069207248 -0.03123993 1.9449742e-21)
(-0.073948636 -0.032612267 5.2327219e-21)
(-0.078794564 -0.034192421 -1.0069464e-20)
(-0.083797684 -0.035986211 6.6046183e-21)
(-0.089030265 -0.037975196 1.6838628e-21)
(-0.09459212 -0.040105421 6.8024931e-21)
(-0.100603 -0.042263249 8.2802293e-21)
(-0.10720523 -0.044239434 4.3317813e-22)
(-0.11453665 -0.045670768 -1.7498156e-21)
(-0.12274741 -0.045940894 1.3453781e-20)
(-0.13189491 -0.044046464 5.7716719e-21)
(-0.14198025 -0.038361052 5.9858096e-21)
(-0.15253508 -0.026461015 1.8796981e-21)
(-0.16268684 -0.0046636543 1.4833114e-20)
(-0.17035329 0.031520229 -5.261227e-21)
(-0.17245083 0.08622464 1.2330418e-21)
(-0.16231483 0.15765426 1.2311882e-20)
(-0.13197257 0.23456744 4.6597781e-21)
(-0.078691192 0.2923448 -5.4977029e-21)
(-0.012924685 0.28957599 -2.1350631e-20)
(0.11729456 0.13951719 7.7277315e-21)
(0.33867049 -0.16315734 1.3285509e-20)
(0.52175082 -0.39589716 3.571506e-21)
(5.861964e-06 -6.0944411e-05 1.4053662e-21)
(1.6818779e-05 -0.00018939993 -2.2358467e-21)
(2.6959694e-05 -0.00033229381 8.0823706e-22)
(3.5649143e-05 -0.00049142963 -8.7833632e-23)
(4.2352453e-05 -0.00066886743 1.735913e-21)
(4.6195222e-05 -0.00086684674 -1.7951888e-21)
(4.5852795e-05 -0.001087674 2.7217063e-21)
(3.9784277e-05 -0.0013340313 -1.2794763e-21)
(2.623375e-05 -0.0016083353 -4.8607978e-21)
(3.0333921e-06 -0.001913237 1.1673636e-21)
(-3.3144549e-05 -0.0022520253 4.4405537e-21)
(-8.5777971e-05 -0.0026277915 -1.3531785e-21)
(-0.00015932435 -0.0030435964 -9.0135821e-23)
(-0.0002593017 -0.0035024411 3.5246746e-21)
(-0.00039238761 -0.0040071627 -1.0989378e-20)
(-0.00056662684 -0.0045603132 6.7185524e-21)
(-0.00079164702 -0.0051640086 6.3820785e-23)
(-0.0010788714 -0.005819743 -3.6751697e-21)
(-0.0014417269 -0.0065281647 9.2656229e-21)
(-0.0018958297 -0.0072888116 -4.3357788e-21)
(-0.0024591247 -0.0080998088 -6.4057365e-21)
(-0.0031519451 -0.0089575351 -2.566915e-21)
(-0.0039969473 -0.0098562814 1.2547424e-20)
(-0.0050188645 -0.010787939 6.4782158e-21)
(-0.0062440095 -0.01174179 -4.1314729e-21)
(-0.0076994402 -0.012704505 2.3809198e-21)
(-0.0094116967 -0.013660523 -8.8014594e-21)
(-0.011405019 -0.014593021 2.4963031e-21)
(-0.013698997 -0.01548574 -6.640153e-21)
(-0.016305713 -0.01632584 3.6978976e-21)
(-0.019226698 -0.017107641 -2.2521684e-21)
(-0.02245047 -0.017836247 8.1024007e-21)
(-0.025951976 -0.018528883 -1.133742e-21)
(-0.029695351 -0.019211506 5.8133665e-21)
(-0.033640102 -0.019911195 -5.3674088e-21)
(-0.037748263 -0.020649214 -1.6579478e-21)
(-0.041988721 -0.021439492 1.9771481e-20)
(-0.04633742 -0.022291817 4.9751621e-21)
(-0.050775375 -0.023215864 -3.9895905e-21)
(-0.055287104 -0.024223763 3.8279093e-21)
(-0.059860595 -0.025330978 -9.6752603e-22)
(-0.064489096 -0.026555891 -6.0434965e-21)
(-0.069173437 -0.0279182 2.8265058e-22)
(-0.073925163 -0.029435922 2.044919e-21)
(-0.07877531 -0.031121957 -1.0042556e-21)
(-0.083770016 -0.032977341 5.0008784e-22)
(-0.08897056 -0.034979608 1.4898721e-21)
(-0.094459109 -0.037071066 -2.3549674e-20)
(-0.10032683 -0.039138124 2.6548384e-21)
(-0.10667205 -0.040976696 -2.4975528e-21)
(-0.11356559 -0.042235112 2.3653718e-20)
(-0.12106342 -0.042321292 -1.3077218e-20)
(-0.12908491 -0.040279212 -1.064917e-20)
(-0.13745888 -0.034583787 -1.0055788e-20)
(-0.14546555 -0.02298819 -9.489661e-21)
(-0.15199684 -0.0020662618 -1.4507732e-20)
(-0.15484428 0.032432825 2.7765115e-20)
(-0.15104161 0.083855131 -1.6089973e-20)
(-0.1318798 0.15007962 -2.3186194e-20)
(-0.090087729 0.22090276 1.5393157e-20)
(-0.022184595 0.27482658 5.1830254e-21)
(0.064984343 0.26179816 4.9394823e-21)
(0.24631466 0.095828897 -3.4836557e-20)
(0.47908238 -0.20593974 -2.5131018e-20)
(0.63753361 -0.41813511 1.9825477e-22)
(3.6928214e-06 -2.9784642e-05 -9.8928244e-22)
(1.0144912e-05 -9.2893933e-05 3.2841434e-21)
(1.53695e-05 -0.00016359624 -2.676902e-21)
(1.8795961e-05 -0.00024302659 1.0113926e-21)
(1.9734634e-05 -0.00033245975 3.6530468e-22)
(1.726833e-05 -0.00043329614 -3.1423011e-21)
(1.0215865e-05 -0.00054714213 7.954368e-22)
(-2.9056749e-06 -0.00067579153 1.68831e-21)
(-2.396772e-05 -0.0008212149 1.2944148e-22)
(-5.5309662e-05 -0.00098538421 1.0989642e-21)
(-9.9847622e-05 -0.0011704263 -1.5373729e-21)
(-0.00016118663 -0.0013786124 1.0672145e-21)
(-0.00024375803 -0.0016122999 3.9266786e-21)
(-0.0003529751 -0.0018738919 1.1429681e-22)
(-0.00049540668 -0.0021657905 -2.9878962e-21)
(-0.00067896793 -0.0024903349 -2.1101303e-21)
(-0.00091312434 -0.002849721 1.8092941e-21)
(-0.0012091018 -0.0032458993 -1.7259973e-22)
(-0.0015800916 -0.0036804475 -3.4921896e-21)
(-0.0020414342 -0.0041544148 -4.2279007e-21)
(-0.0026107579 -0.0046681391 4.7878399e-21)
(-0.0033080389 -0.0052210416 4.7762349e-21)
(-0.004155541 -0.0058114163 -6.3638562e-21)
(-0.0051775773 -0.006436246 7.7908334e-21)
(-0.0064000244 -0.0070911058 1.3346593e-20)
(-0.0078495049 -0.0077702468 -3.1066941e-20)
(-0.0095521465 -0.0084669964 1.6884989e-20)
(-0.011531827 -0.0091746447 -2.468766e-20)
(-0.013807862 -0.009887968 3.041048e-20)
(-0.016392195 -0.010605389 -3.3427564e-20)
(-0.019286429 -0.011331344 3.395784e-20)
(-0.022479474 -0.012077633 -5.5901365e-21)
(-0.025947086 -0.012861864 -1.8833942e-20)
(-0.029654602 -0.013702016 1.0286219e-20)
(-0.033562888 -0.014609726 -3.0942769e-21)
(-0.037635122 -0.015587613 -8.6598225e-22)
(-0.041840886 -0.016632785 -1.0278612e-20)
(-0.046156258 -0.017742622 -3.2336215e-21)
(-0.050561867 -0.018918614 -3.1464908e-21)
(-0.055041445 -0.020167315 -3.0364289e-21)
(-0.05958182 -0.02149962 1.5206276e-20)
(-0.064174605 -0.022929326 -6.620207e-21)
(-0.068818121 -0.024471022 -1.0540433e-21)
(-0.073520293 -0.026136532 1.2222012e-20)
(-0.078306327 -0.02793227 6.2630245e-21)
(-0.083212811 -0.029856095 -3.1274611e-21)
(-0.088286258 -0.031883451 -1.1464438e-20)
(-0.093585647 -0.033956029 5.079435e-21)
(-0.099165666 -0.035964745 -1.4898944e-20)
(-0.10506968 -0.03771669 -8.1472379e-21)
(-0.11128666 -0.038879422 -1.1337039e-20)
(-0.11775957 -0.038894526 -3.0194074e-20)
(-0.124247 -0.036863546 2.3230348e-20)
(-0.13038371 -0.031375008 -7.3458528e-21)
(-0.1351748 -0.020362311 1.2514229e-20)
(-0.13723954 -0.00056360422 1.1611582e-20)
(-0.1344537 0.031785056 3.6163682e-21)
(-0.12169155 0.079377241 3.5719406e-20)
(-0.089116442 0.13982434 9.436116e-21)
(-0.031761491 0.20426046 -2.0361438e-20)
(0.053529342 0.2535121 -7.8091474e-21)
(0.17188152 0.22809299 7.3764985e-21)
(0.39005196 0.050751463 1.8428723e-20)
(0.62617738 -0.23988374 2.9222732e-20)
(0.75597412 -0.42702893 -5.1988326e-22)
(-2.1313472e-07 8.0143833e-07 -3.0141752e-21)
(-1.8889725e-06 1.8463862e-06 -1.0638097e-21)
(-5.551322e-06 2.035801e-06 8.610803e-22)
(-1.1818018e-05 8.9771569e-07 3.1792021e-21)
(-2.1423189e-05 -2.1352957e-06 -1.7415057e-21)
(-3.5320771e-05 -7.7452542e-06 2.5057736e-21)
(-5.4723998e-05 -1.6731905e-05 -1.0838163e-21)
(-8.1145945e-05 -3.0016336e-05 -2.5805299e-22)
(-0.00011647638 -4.8647643e-05 1.4596754e-21)
(-0.00016306142 -7.3808192e-05 3.1439088e-21)
(-0.00022379978 -0.00010681908 1.5797357e-22)
(-0.00030225581 -0.00014914557 -5.1595025e-21)
(-0.00040279087 -0.00020240183 7.1303616e-21)
(-0.00053071161 -0.00026835424 -1.1497729e-20)
(-0.00069243638 -0.00034892223 2.9997922e-21)
(-0.00089567761 -0.00044617493 -6.3622432e-21)
(-0.0011496369 -0.00056232164 7.6731721e-21)
(-0.001465206 -0.00069969287 -4.970053e-21)
(-0.0018551633 -0.00086070895 7.8186906e-22)
(-0.00233435 -0.0010478331 3.1610389e-21)
(-0.0029198035 -0.0012635078 -7.6502803e-21)
(-0.0036308162 -0.0015100778 1.0739467e-20)
(-0.0044888784 -0.0017897105 -1.1611237e-20)
(-0.00551745 -0.0021043408 -1.9844666e-21)
(-0.0067414933 -0.0024556892 1.9322034e-20)
(-0.0081866842 -0.0028454306 -1.938966e-20)
(-0.0098782107 -0.0032756249 1.2506663e-20)
(-0.011839072 -0.0037495288 -1.3924909e-20)
(-0.014087839 -0.004272849 -1.3210308e-21)
(-0.016635943 -0.0048552684 -8.1769926e-22)
(-0.019484856 -0.0055115523 5.3416447e-21)
(-0.022623921 -0.0062607772 -3.5842629e-22)
(-0.026030048 -0.0071219711 1.9401458e-20)
(-0.029670428 -0.0081064437 -5.0967315e-21)
(-0.033508064 -0.0092114405 -1.4778868e-20)
(-0.037507983 -0.010421349 6.6336303e-21)
(-0.04164085 -0.011716151 -5.2388761e-21)
(-0.045882905 -0.013080232 5.0818451e-21)
(-0.050214203 -0.014506261 2.7423708e-20)
(-0.054617316 -0.015994735 -1.4799702e-20)
(-0.05907731 -0.017551759 -3.5752478e-21)
(-0.063583297 -0.019186574 2.0093381e-20)
(-0.068129943 -0.020908878 -1.1434792e-21)
(-0.072720351 -0.022724871 -2.4554061e-21)
(-0.077371374 -0.024635396 -2.6981434e-20)
(-0.082107164 -0.026636356 -6.3105349e-21)
(-0.086956038 -0.028703601 1.0031318e-20)
(-0.091948054 -0.03078176 1.0351705e-20)
(-0.097093451 -0.032771258 1.4825495e-20)
(-0.10236916 -0.034496979 1.834042e-20)
(-0.10766596 -0.035653809 1.1142687e-20)
(-0.11279163 -0.035726375 1.7510004e-20)
(-0.11731329 -0.033882155 -5.8931751e-21)
(-0.12063297 -0.028835341 3.5527724e-20)
(-0.12139476 -0.018704679 2.0337722e-21)
(-0.11796127 -0.0003667364 1.6632699e-21)
(-0.10721091 0.029239865 3.925058e-22)
(-0.080644608 0.072103271 -3.8367928e-20)
(-0.031378501 0.12654784 -1.3360621e-20)
(0.043598459 0.18502188 1.9740921e-20)
(0.14540976 0.22769306 3.1299557e-20)
(0.29688953 0.19042314 1.8082261e-20)
(0.53799127 0.0069951925 7.2700119e-21)
(0.7731264 -0.26436375 -4.0521432e-20)
(0.86903572 -0.42376435 6.7660356e-21)
(-5.7529733e-06 3.0286002e-05 5.6947199e-22)
(-1.9053633e-05 9.3166014e-05 1.8097421e-21)
(-3.5372012e-05 0.00016172283 -4.3676302e-21)
(-5.5503845e-05 0.0002361185 1.6229144e-22)
(-8.0222414e-05 0.00031649766 2.1260185e-21)
(-0.00011055897 0.00040292713 9.3694734e-22)
(-0.00014779399 0.0004953978 6.9171356e-22)
(-0.00019349796 0.00059381495 -1.3627377e-21)
(-0.00024960109 0.00069798259 7.0527897e-21)
(-0.00031847098 0.00080758474 -5.3198961e-21)
(-0.00040300366 0.00092216222 2.5733203e-22)
(-0.00050672893 0.0010410844 3.2168551e-21)
(-0.00063393214 0.0011635148 -1.2026177e-20)
(-0.00078979249 0.0012883704 1.1976462e-20)
(-0.00098053772 0.0014142738 -1.5934068e-21)
(-0.0012136138 0.0015395 -9.8492509e-21)
(-0.0014978659 0.0016619174 9.2472081e-21)
(-0.0018437252 0.0017789255 -3.2253169e-21)
(-0.0022633912 0.001887393 6.2519098e-21)
(-0.0027709946 0.0019835979 -7.9994591e-21)
(-0.0033827215 0.002063174 -1.4966704e-20)
(-0.0041168664 0.0021210606 1.4748853e-20)
(-0.0049937771 0.0021514515 2.1495003e-20)
(-0.0060356379 0.002147721 -4.1198669e-20)
(-0.0072660264 0.0021022893 3.2794161e-20)
(-0.0087091625 0.0020063628 -1.8878914e-20)
(-0.010388763 0.0018494642 4.8210367e-21)
(-0.012326421 0.001618674 -1.1293575e-20)
(-0.014539466 0.0012976029 1.1432544e-20)
(-0.017038408 0.0008654135 1.5248523e-20)
(-0.019824311 0.00029681248 -9.9937797e-21)
(-0.022886881 -0.00043527615 -1.6310856e-20)
(-0.026204403 -0.0013527106 1.394958e-21)
(-0.029746413 -0.0024620265 5.6286753e-22)
(-0.0334788 -0.0037478106 9.6749236e-21)
(-0.037369123 -0.0051770126 -4.0442689e-21)
(-0.041389549 -0.0067122802 -1.4263133e-20)
(-0.045516695 -0.0083242049 -6.9449042e-21)
(-0.049729947 -0.0099958188 1.027424e-20)
(-0.05401033 -0.011721024 -7.8982065e-21)
(-0.058340505 -0.013500883 6.6377648e-21)
(-0.062706221 -0.015340062 -2.1618938e-21)
(-0.067097318 -0.017243561 -8.3625693e-21)
(-0.071510587 -0.019212619 2.018519e-20)
(-0.075952656 -0.02124387 1.2097341e-20)
(-0.080432151 -0.023332063 7.9798189e-21)
(-0.084955266 -0.025456327 -2.5414082e-20)
(-0.08951756 -0.027568362 -1.6640079e-20)
(-0.094076249 -0.029583705 -1.9629862e-20)
(-0.09852905 -0.03135251 -3.4328456e-20)
(-0.10264926 -0.032605852 1.1706534e-20)
(-0.10608051 -0.032881691 -2.524997e-21)
(-0.10815517 -0.031422075 -1.9214644e-20)
(-0.10797849 -0.027086049 -5.4838176e-20)
(-0.10368839 -0.018115114 -3.455577e-20)
(-0.093395121 -0.0019027034 -1.2735792e-20)
(-0.070242678 0.024042571 -3.5124738e-20)
(-0.027419118 0.061615265 2.2381339e-20)
(0.039578965 0.11027786 -1.363456e-21)
(0.12950891 0.16314322 -3.1266727e-20)
(0.2473242 0.19822339 -2.3851874e-20)
(0.42705113 0.14971033 -1.428804e-21)
(0.6875064 -0.03422679 6.0216818e-20)
(0.91323651 -0.27946495 -5.2804101e-21)
(0.96699635 -0.40468423 4.0636662e-21)
(-1.283468e-05 5.8137485e-05 2.2499038e-21)
(-4.0875643e-05 0.00017944898 -1.5176351e-21)
(-7.3360308e-05 0.00031261707 2.0498864e-21)
(-0.00011117013 0.00045844692 1.1649932e-21)
(-0.0001551947 0.00061777047 -3.2504339e-21)
(-0.0002065679 0.00079138944 -3.033924e-21)
(-0.00026666615 0.00098007362 3.112481e-21)
(-0.00033714558 0.0011845463 -3.745364e-22)
(-0.00042000625 0.0014054603 -8.6743656e-23)
(-0.00051766302 0.001643368 -6.1595949e-21)
(-0.00063302865 0.0018986822 6.7475979e-22)
(-0.00076960943 0.002171627 1.2408752e-20)
(-0.00093161551 0.0024621759 -9.9154856e-21)
(-0.0011240857 0.0027699764 3.4111338e-22)
(-0.001353027 0.0030942588 6.6347549e-21)
(-0.0016255666 0.0034337295 5.7023923e-22)
(-0.0019501148 0.0037864467 -1.4486897e-21)
(-0.0023365312 0.0041496821 -6.5177147e-21)
(-0.0027962882 0.004519769 1.1915989e-20)
(-0.0033426153 0.0048919398 -2.0901233e-20)
(-0.0039906076 0.005260158 4.4927516e-21)
(-0.0047572707 0.0056169449 -3.2918257e-21)
(-0.0056614642 0.005953198 2.6908125e-21)
(-0.0067236965 0.0062579879 -1.1614001e-22)
(-0.0079657087 0.0065183038 1.5817705e-20)
(-0.0094097702 0.0067186963 1.5684495e-20)
(-0.011077603 0.0068407536 -3.0872707e-20)
(-0.012988856 0.0068623685 -5.1134593e-21)
(-0.015159103 0.0067568819 1.7657045e-20)
(-0.017597465 0.0064925395 6.2172032e-21)
(-0.020304234 0.0060333856 1.3980342e-20)
(-0.023269273 0.0053435485 -1.5532921e-20)
(-0.026472251 0.0043966413 -6.6862188e-21)
(-0.029885379 0.003188454 1.5144827e-20)
(-0.033477973 0.0017446459 -6.176131e-21)
(-0.037220819 0.00011439093 -2.9046539e-21)
(-0.04108822 -0.0016476022 8.0100504e-21)
(-0.045057447 -0.003497267 2.0390337e-20)
(-0.049107165 -0.0054070575 6.057512e-21)
(-0.053216476 -0.0073635973 -3.917422e-21)
(-0.057364994 -0.0093625591 -9.1882526e-21)
(-0.061534189 -0.011404011 -9.4624611e-21)
(-0.065707834 -0.013488463 -1.0472156e-20)
(-0.069874764 -0.015612716 -2.205493e-20)
(-0.074029828 -0.017770523 6.3280537e-22)
(-0.078162749 -0.019957118 -9.4476852e-21)
(-0.082253072 -0.022157074 5.2216762e-20)
(-0.086255909 -0.024334077 1.4582144e-20)
(-0.090065593 -0.026425128 1.678003e-20)
(-0.093485257 -0.028314074 4.6529477e-20)
(-0.096146056 -0.0297794 -5.4098869e-20)
(-0.097488562 -0.030423418 1.189341e-20)
(-0.096551675 -0.029574592 3.7547857e-20)
(-0.092026872 -0.026248061 4.4849852e-20)
(-0.08151311 -0.01886382 5.6062183e-21)
(-0.061808537 -0.0056663 -1.2462076e-20)
(-0.023217399 0.015773679 -1.8379784e-20)
(0.035245015 0.04769702 7.0028397e-21)
(0.1165862 0.09130563 -1.0821933e-20)
(0.21698049 0.1388326 9.7448758e-21)
(0.35372036 0.16530822 3.865845e-21)
(0.55979419 0.10648803 1.4842227e-20)
(0.84025795 -0.070842469 -7.3545968e-20)
(1.0386781 -0.28363629 4.5044764e-22)
(1.0400785 -0.37677862 -1.4412788e-20)
(-2.1235941e-05 8.3857344e-05 -2.1152055e-21)
(-6.6773416e-05 0.0002591564 -5.6661645e-22)
(-0.00011846003 0.00045205532 6.2244594e-22)
(-0.00017728687 0.00066397376 3.0588612e-21)
(-0.00024428974 0.0008964023 -3.6675038e-21)
(-0.00032073477 0.0011508511 3.1131923e-21)
(-0.00040812416 0.0014288445 1.487297e-21)
(-0.00050822928 0.001731903 -7.9614314e-23)
(-0.00062314842 0.0020615122 -1.2538945e-21)
(-0.00075536951 0.0024190837 -7.125238e-21)
(-0.00090784379 0.002805902 1.1950545e-20)
(-0.0010840698 0.0032230571 -1.4339536e-20)
(-0.0012881897 0.0036713589 4.2038012e-21)
(-0.001525098 0.0041512304 5.6945547e-21)
(-0.0018005621 0.0046625773 -8.7134186e-21)
(-0.0021213534 0.0052046328 1.712897e-20)
(-0.0024953863 0.0057757741 -2.0695711e-20)
(-0.0029318608 0.0063733131 -3.255738e-22)
(-0.0034413998 0.0069932604 -1.177697e-20)
(-0.0040361703 0.0076300668 4.6549741e-20)
(-0.0047299716 0.0082763457 -1.1222189e-20)
(-0.0055382655 0.0089225805 -4.6241115e-20)
(-0.006478116 0.0095568156 2.1756661e-20)
(-0.0075679938 0.010164324 2.5845507e-20)
(-0.0088273878 0.010727229 -6.4662222e-21)
(-0.010276152 0.01122404 -3.3716772e-20)
(-0.011933507 0.01162906 5.084304e-20)
(-0.013816628 0.011911643 -5.6124923e-20)
(-0.015938794 0.012035447 4.3942976e-20)
(-0.018307216 0.011958196 -8.3544597e-21)
(-0.020920941 0.011633255 1.4240447e-20)
(-0.023769609 0.011015178 2.0064958e-20)
(-0.026834054 0.010071185 -7.7231125e-21)
(-0.030089194 0.0087965023 -1.9245396e-21)
(-0.033508179 0.0072239937 -2.7427866e-20)
(-0.037065677 0.0054169366 5.1075789e-21)
(-0.040738765 0.00344708 -1.2826533e-20)
(-0.044505769 0.0013739468 1.0612043e-20)
(-0.048344652 -0.00076324757 -5.9902171e-21)
(-0.052232252 -0.0029430016 -3.8950351e-21)
(-0.056144482 -0.0051551369 -3.3256429e-21)
(-0.060057541 -0.0073950442 -3.2275958e-21)
(-0.063947808 -0.0096589409 1.9774179e-20)
(-0.067794599 -0.011939533 1.5749726e-20)
(-0.071578665 -0.014228953 -4.4371354e-21)
(-0.075267231 -0.016525055 2.9015637e-21)
(-0.078808027 -0.018820194 -1.1997539e-20)
(-0.082108421 -0.021094962 2.4199125e-20)
(-0.084987272 -0.023315161 2.8325296e-20)
(-0.08713352 -0.025408346 8.1692321e-21)
(-0.088002208 -0.027212859 2.1429372e-20)
(-0.086778005 -0.028410299 -6.8170518e-22)
(-0.082132146 -0.028437797 -1.0142362e-20)
(-0.072203075 -0.026459695 -4.6151108e-20)
(-0.053949393 -0.021328326 2.2317934e-20)
(-0.022010955 -0.01207192 -7.6866338e-21)
(0.030401858 0.0044697454 2.2541448e-20)
(0.10108698 0.031449009 -3.2634724e-20)
(0.19265964 0.070044699 1.7841242e-20)
(0.30685439 0.11175556 -5.6276423e-21)
(0.46765519 0.12916765 -2.9052891e-22)
(0.7054741 0.062135432 -7.3907854e-21)
(0.99588538 -0.099498307 -2.6171748e-20)
(1.1380122 -0.27477232 4.7472505e-20)
(1.0837268 -0.33916518 -2.4496539e-20)
(-3.0709019e-05 0.00010700027 4.7316169e-21)
(-9.5984675e-05 0.00033090457 3.2554022e-21)
(-0.0001693452 0.00057761726 -5.1100235e-21)
(-0.00025191415 0.00084913516 1.3452851e-22)
(-0.00034490039 0.0011475674 4.6193692e-21)
(-0.00044972954 0.0014750942 2.4151977e-21)
(-0.00056805775 0.0018339579 -5.0893907e-21)
(-0.00070180022 0.0022264424 8.3567387e-22)
(-0.00085318169 0.0026548377 -1.1779082e-20)
(-0.0010247902 0.0031213923 2.295236e-21)
(-0.0012196398 0.0036282505 5.8821632e-23)
(-0.0014412418 0.004177369 -8.438567e-21)
(-0.001693685 0.0047704114 2.7033213e-20)
(-0.0019817255 0.0054086148 -1.2592062e-20)
(-0.0023108861 0.0060926261 -2.2553205e-20)
(-0.0026875624 0.0068223037 2.4023099e-20)
(-0.003119135 0.0075964824 -2.9568132e-21)
(-0.0036140824 0.0084126994 1.6781437e-20)
(-0.0041820888 0.0092668835 1.2457395e-20)
(-0.0048341356 0.010153007 -3.9151059e-20)
(-0.005582564 0.011062708 2.9368106e-20)
(-0.006441085 0.011984881 -3.8618493e-20)
(-0.0074247106 0.012905248 4.5300374e-21)
(-0.0085495634 0.013805896 -1.8494384e-20)
(-0.009832514 0.014664772 4.0128174e-20)
(-0.011290579 0.015455106 -9.4911673e-21)
(-0.012940007 0.016144724 -2.3912752e-20)
(-0.01479498 0.016695269 5.7623485e-20)
(-0.016865932 0.017061487 -2.4937323e-20)
(-0.019157595 0.017191177 -2.6748462e-20)
(-0.021667196 0.017027189 2.1956874e-20)
(-0.024383592 0.016513856 2.9183708e-21)
(-0.027288305 0.015610118 -1.4424965e-20)
(-0.030358684 0.014307444 7.8249039e-21)
(-0.033571798 0.012642185 -1.1758623e-20)
(-0.036906687 0.01068898 4.0188905e-20)
(-0.040343866 0.0085357377 -2.0537601e-20)
(-0.043863213 0.0062580793 -1.2039145e-20)
(-0.04744211 0.0039080703 -2.4170656e-20)
(-0.051054819 0.0015163475 -3.26328e-21)
(-0.054672854 -0.00090045727 2.491928e-20)
(-0.058265979 -0.0033328588 -9.9801294e-21)
(-0.06180179 -0.0057729097 -1.4707941e-20)
(-0.065248317 -0.0082095421 -2.2333431e-21)
(-0.068568478 -0.010634454 1.4703499e-20)
(-0.071703292 -0.013050179 1.3070826e-20)
(-0.074562104 -0.015459444 -4.0157016e-20)
(-0.076993801 -0.017864732 -2.144906e-20)
(-0.07872469 -0.020268865 -4.6832624e-20)
(-0.079300252 -0.022654814 -1.6492914e-20)
(-0.077950517 -0.024934096 -6.3693283e-21)
(-0.07354272 -0.026882839 -4.5877943e-20)
(-0.064310956 -0.028073326 -1.7204356e-20)
(-0.047823941 -0.02786392 5.6516474e-20)
(-0.020181106 -0.025583361 -4.2186038e-20)
(0.024143873 -0.020347217 3.6169499e-20)
(0.087856453 -0.0085481268 -1.471785e-20)
(0.17054471 0.013905318 6.3173845e-20)
(0.27597001 0.047806733 2.862601e-20)
(0.41249057 0.083139433 -1.1310744e-20)
(0.60352837 0.091199475 -2.0856482e-20)
(0.87690659 0.02289829 -4.2220611e-20)
(1.1391969 -0.1158862 -4.5200858e-21)
(1.1972477 -0.25418269 -6.9209669e-21)
(1.1016872 -0.29725875 3.1518823e-20)
(-4.0962906e-05 0.00012718541 8.5944007e-23)
(-0.00012761418 0.00039351567 -6.1175356e-21)
(-0.00022445936 0.00068724452 7.210867e-21)
(-0.00033277468 0.0010108984 3.4695566e-21)
(-0.00045396481 0.0013671543 -6.9475603e-21)
(-0.00058963899 0.0017588124 -2.2497329e-21)
(-0.00074163282 0.002188784 1.0907424e-20)
(-0.00091203194 0.00266007 -1.173289e-20)
(-0.0011032149 0.003175722 -2.4739343e-21)
(-0.0013178972 0.0037387907 -9.8351513e-21)
(-0.0015591826 0.0043522536 2.6096619e-20)
(-0.0018306198 0.0050189218 3.1767082e-22)
(-0.0021362658 0.0057413177 -2.3388216e-20)
(-0.0024807553 0.0065215211 2.50726e-20)
(-0.0028693757 0.0073609775 -1.7920051e-20)
(-0.0033081467 0.0082602651 -6.6331135e-21)
(-0.0038039015 0.0092188147 1.3829095e-20)
(-0.004364367 0.010234582 -1.2450904e-20)
(-0.0049982366 0.011303671 -1.6538344e-20)
(-0.005715228 0.012419903 3.4832902e-22)
(-0.0065261133 0.013574352 2.5932194e-20)
(-0.007442704 0.014754827 -1.5993046e-20)
(-0.0084777658 0.015945326 8.8856441e-21)
(-0.0096448283 0.017125447 4.2835283e-20)
(-0.010957842 0.01826976 1.429384e-20)
(-0.012430626 0.019347097 -3.8697465e-20)
(-0.014076027 0.020319766 3.8613388e-21)
(-0.01590475 0.021142693 -4.3523382e-20)
(-0.017923831 0.021762682 2.570496e-20)
(-0.020134911 0.022118415 -1.3574223e-20)
(-0.02253272 0.022142641 1.9626617e-20)
(-0.025104592 0.021769079 4.7779733e-21)
(-0.027831963 0.020946677 -2.3792108e-20)
(-0.03069396 0.019659852 2.4229058e-20)
(-0.033671277 0.017944193 3.507039e-20)
(-0.03674755 0.015882088 -3.2571914e-21)
(-0.039907328 0.013575979 -3.6185854e-20)
(-0.043132608 0.011117896 4.5271691e-20)
(-0.046400401 0.0085739407 -9.5405e-21)