/*--------------------------------*- C++ -*----------------------------------*\
  =========                 |
  \\      /  F ield         | OpenFOAM: The Open Source CFD Toolbox
   \\    /   O peration     | Website:  https://openfoam.org
    \\  /    A nd           | Version:  13
     \\/     M anipulation  |
\*---------------------------------------------------------------------------*/
FoamFile
{
    format      ascii;
    class       volScalarField;
    location    "33.303076";
    object      pMean;
}
// * * * * * * * * * * * * * * * * * * * * * * * * * * * * * * * * * * * * * //

dimensions      [0 2 -2 0 0 0 0];

internalField   nonuniform List<scalar> 
17140
(
1.2746855
1.2745935
1.2744825
1.2743691
1.2742463
1.2741123
1.2739668
1.2738095
1.27364
1.2734579
1.273263
1.2730551
1.2728339
1.2725989
1.2723493
1.2720836
1.271799
1.2714912
1.2711529
1.2707737
1.2703378
1.2698235
1.2692007
1.2684288
1.2674539
1.2662092
1.264628
1.2626514
1.2602231
1.2572778
1.2537267
1.2494626
1.244369
1.2383173
1.2311711
1.2227902
1.2130373
1.2017874
1.1889413
1.1744462
1.1583225
1.1406959
1.12184
1.1022176
1.0824985
1.0635993
1.0466042
1.0324776
1.0221978
1.016615
1.0163516
1.0218315
1.0333896
1.0510157
1.0745356
1.103132
1.1361885
1.1716178
1.2095867
1.2459755
1.2834874
1.312355
1.3435809
1.356204
1.3796149
1.2732733
1.2731831
1.2730743
1.2729633
1.272843
1.2727117
1.2725691
1.2724149
1.2722487
1.2720702
1.2718792
1.2716753
1.2714585
1.2712282
1.2709837
1.2707234
1.2704449
1.2701436
1.2698127
1.2694416
1.269015
1.2685111
1.2679001
1.2671418
1.2661824
1.2649552
1.263393
1.261437
1.2590301
1.2561065
1.2525764
1.2483325
1.243258
1.2372239
1.2300933
1.2217252
1.2119815
1.2007361
1.1878891
1.1733864
1.1572473
1.1395966
1.1207073
1.101042
1.0812778
1.0623295
1.0452653
1.0310987
1.0207939
1.0151728
1.0148683
1.0203076
1.0318085
1.0493693
1.0728287
1.1013528
1.1343558
1.1697902
1.207866
1.2445008
1.282359
1.3115171
1.3427733
1.3549513
1.3781452
1.269982
1.2698964
1.2697932
1.2696877
1.2695732
1.2694482
1.2693124
1.2691655
1.2690071
1.268837
1.2686548
1.2684605
1.2682538
1.2680344
1.2678015
1.267554
1.2672893
1.2670033
1.2666893
1.2663371
1.2659318
1.265452
1.2648683
1.2641412
1.2632177
1.262031
1.2605126
1.2586023
1.2562427
1.253367
1.2498852
1.2456887
1.2406601
1.2346693
1.2275776
1.2192423
1.209523
1.1982914
1.1854449
1.1709268
1.1547539
1.1370494
1.1180871
1.0983324
1.0784753
1.0594429
1.0422808
1.0280236
1.0176536
1.0119804
1.0116141
1.016966
1.0283547
1.0457865
1.0691086
1.097479
1.1303373
1.165665
1.2037375
1.2405603
1.2787558
1.3082968
1.3397692
1.3518181
1.3751659
1.2648726
1.2647941
1.2646998
1.2646028
1.2644975
1.2643824
1.2642573
1.2641219
1.2639757
1.2638187
1.2636505
1.263471
1.2632803
1.2630779
1.2628634
1.2626356
1.2623924
1.2621299
1.261842
1.2615189
1.2611462
1.2607033
1.2601616
1.2594822
1.2586136
1.2574891
1.2560384
1.2541987
1.2519111
1.2491092
1.2457024
1.2415806
1.236625
1.2307038
1.2236758
1.2153952
1.2057184
1.1945135
1.1816737
1.1671384
1.1509205
1.133142
1.114078
1.0942001
1.0742173
1.0550694
1.0377832
1.0234231
1.0129747
1.0072372
1.0067986
1.0120446
1.0232835
1.0405281
1.0636343
1.0917405
1.1243052
1.159381
1.1973424
1.2342949
1.2728646
1.3029082
1.3347688
1.3470538
1.3708598
1.2581065
1.2580377
1.2579552
1.2578696
1.2577766
1.2576749
1.2575642
1.2574441
1.2573145
1.257175
1.2570256
1.2568662
1.2566967
1.256517
1.2563269
1.2561253
1.2559105
1.2556791
1.2554253
1.2551402
1.2548101
1.2544152
1.2539279
1.2533105
1.2525132
1.2514705
1.2501095
1.2483626
1.24617
1.2434655
1.2401586
1.2361376
1.2312813
1.2254558
1.2185167
1.2103145
1.2007014
1.1895405
1.1767203
1.1621745
1.1459116
1.1280527
1.1088756
1.0888627
1.0687473
1.0494717
1.0320598
1.0176062
1.0070944
1.0013117
1.0008101
1.0059476
1.0170222
1.0340487
1.0568867
1.0846653
1.1168713
1.151598
1.1893804
1.2264847
1.2654515
1.2960886
1.3284442
1.341263
1.3656143
1.2499483
1.2498912
1.2498233
1.2497518
1.2496739
1.2495886
1.2494955
1.2493945
1.2492851
1.2491673
1.249041
1.2489062
1.2487628
1.248611
1.2484506
1.2482808
1.2481003
1.247906
1.247693
1.2474529
1.247173
1.2468345
1.246411
1.2458664
1.2451525
1.2442065
1.2429531
1.2413188
1.2392409
1.2366537
1.2334677
1.2295705
1.2248376
1.2191325
1.2123074
1.2042086
1.1946832
1.1835889
1.1708079
1.1562681
1.1399732
1.1220435
1.1027612
1.0826232
1.062389
1.042994
1.0254835
1.0109667
1.0004217
0.99462399
0.99408824
0.99913908
1.0100618
1.0268642
1.0494039
1.076794
1.1085696
1.1429098
1.1804967
1.217778
1.2572108
1.288599
1.3215548
1.3350386
1.3600535
1.2407563
1.2407126
1.2406607
1.2406055
1.2405451
1.2404787
1.2404061
1.240327
1.2402412
1.2401486
1.240049
1.2399426
1.2398294
1.2397096
1.2395832
1.2394496
1.2393078
1.2391552
1.2389875
1.238797
1.2385721
1.2382951
1.2379411
1.2374754
1.2368521
1.2360111
1.2348774
1.2333717
1.231424
1.2289681
1.2259187
1.2221639
1.2175746
1.212012
1.2053245
1.1973542
1.1879431
1.1769426
1.1642283
1.1497217
1.1334222
1.1154497
1.0960922
1.0758636
1.0555437
1.0360661
1.0185004
1.0039533
0.99340648
0.9876218
0.98707962
0.99207234
1.0028724
1.0194822
1.0417544
1.0687704
1.100109
1.1341112
1.1715796
1.2091611
1.2491018
1.2813081
1.3148383
1.3290613
1.3546065
1.2309638
1.2309346
1.2308997
1.2308623
1.2308212
1.2307757
1.2307256
1.2306707
1.2306109
1.2305459
1.2304759
1.2304009
1.2303209
1.2302363
1.2301469
1.2300526
1.2299523
1.2298441
1.229724
1.2295852
1.229417
1.2292029
1.2289195
1.2285339
1.2280022
1.2272676
1.2262583
1.2248903
1.223083
1.2207673
1.217864
1.2142629
1.2098325
1.2044303
1.1979018
1.1900846
1.1808157
1.1699404
1.1573276
1.1428927
1.1266311
1.1086628
1.0892833
1.0690236
1.0486698
1.029165
1.0115906
0.99703862
0.98650637
0.98074951
0.98022187
0.98517962
0.99588776
1.0123485
1.0343982
1.0611196
1.0921062
1.1258692
1.1633461
1.2012958
1.241738
1.2748167
1.3088773
1.3239668
1.3499085
1.2210514
1.2210373
1.2210202
1.2210015
1.2209805
1.220957
1.2209306
1.2209013
1.2208688
1.2208332
1.2207945
1.2207526
1.2207078
1.2206601
1.2206096
1.2205561
1.2204987
1.2204358
1.2203636
1.2202761
1.2201633
1.22001
1.2197941
1.2194847
1.2190403
1.2184066
1.2175156
1.2162854
1.2146263
1.212456
1.2096986
1.2062554
1.2019931
1.1967639
1.1904119
1.182771
1.1736733
1.1629586
1.15049
1.1361775
1.1200133
1.1021178
1.0827934
1.0625852
1.0422719
1.0228106
1.0052774
0.99074615
0.98023959
0.97451416
0.97399926
0.9789323
0.98958759
1.0059519
1.0278348
1.0543329
1.0850673
1.1187345
1.156388
1.1949677
1.2361115
1.2700006
1.3044487
1.3201721
1.3460282
1.2115143
1.2115152
1.2115158
1.2115158
1.2115151
1.2115135
1.2115111
1.2115075
1.2115028
1.211497
1.21149
1.2114818
1.2114726
1.2114624
1.2114512
1.2114387
1.2114241
1.2114056
1.2113799
1.2113413
1.2112804
1.211183
1.2110284
1.2107873
1.2104205
1.2098767
1.2090914
1.2079861
1.2064712
1.2044528
1.201842
1.1985483
1.1944541
1.1894089
1.1832489
1.1758061
1.1669096
1.1563955
1.1441226
1.129997
1.1140083
1.0962775
1.0771114
1.057061
1.0368937
1.0175713
1.000148
0.98568721
0.97522879
0.96953232
0.96903473
0.97398186
0.98463008
1.0009361
1.0227177
1.0490897
1.079745
1.1136264
1.1518032
1.1910813
1.2325951
1.2668052
1.3010434
1.3170435
1.3427049
1.2028183
1.2028334
1.2028507
1.2028684
1.202887
1.2029065
1.2029269
1.2029482
1.2029704
1.2029934
1.2030172
1.2030419
1.2030675
1.2030939
1.203121
1.2031483
1.203175
1.203199
1.2032172
1.2032239
1.2032103
1.2031627
1.2030615
1.2028791
1.2025781
1.2021101
1.2014138
1.2004147
1.1990258
1.1971517
1.1946945
1.1915538
1.1876177
1.1827513
1.1767944
1.1695728
1.1609124
1.1506472
1.1386335
1.1247751
1.1090607
1.0916117
1.0727379
1.0529796
1.0330982
1.0140451
0.99684089
0.98253741
0.97217229
0.96652915
0.96606367
0.97099579
0.98159834
0.99785218
1.0195706
1.0459033
1.0766604
1.1109105
1.1496036
1.1893038
1.2308731
1.2648518
1.2986532
1.3150858
1.3401079
1.1953612
1.1953889
1.1954211
1.1954546
1.1954904
1.1955289
1.1955701
1.1956139
1.1956606
1.19571
1.1957624
1.1958175
1.1958755
1.1959361
1.1959991
1.1960639
1.1961291
1.1961929
1.1962517
1.1962998
1.1963285
1.1963248
1.1962697
1.1961367
1.1958903
1.1954842
1.1948605
1.1939485
1.1926646
1.1909151
1.1886001
1.1856147
1.1818464
1.1771642
1.1714166
1.1644354
1.1560475
1.1460859
1.1344063
1.1209122
1.1055917
1.0885659
1.0701422
1.0508425
1.0314152
1.012784
0.99593751
0.98190502
0.97171686
0.96613524
0.96559625
0.97041828
0.98090254
0.99706016
1.0186886
1.0450189
1.075967
1.1106887
1.149873
1.1898562
1.2311153
1.2647272
1.29762
1.3140818
1.3378361
1.1894291
1.189467
1.1895113
1.1895578
1.1896078
1.189662
1.1897205
1.1897834
1.1898508
1.1899229
1.1899998
1.1900815
1.1901679
1.1902589
1.190354
1.1904524
1.1905528
1.1906528
1.1907489
1.1908351
1.1909029
1.1909393
1.1909259
1.1908371
1.1906386
1.1902862
1.1897242
1.1888856
1.1876915
1.1860509
1.1838639
1.1810261
1.1774273
1.1729423
1.167427
1.1607177
1.1526463
1.1430495
1.1317885
1.1187678
1.103976
1.0875298
1.0697256
1.0510688
1.032279
1.0142285
0.99787566
0.98423941
0.97424796
0.9686522
0.96796767
0.97262497
0.98294905
0.99896693
1.0204972
1.0468767
1.0781779
1.1134775
1.1530456
1.1928764
1.2332321
1.2657409
1.2975141
1.3137147
1.3360246
1.185171
1.1852161
1.185269
1.1853248
1.1853852
1.185451
1.1855223
1.1855994
1.1856827
1.1857722
1.1858683
1.185971
1.1860803
1.1861961
1.1863178
1.1864448
1.1865754
1.1867074
1.1868369
1.1869583
1.1870627
1.1871377
1.1871653
1.1871206
1.1869705
1.1866719
1.1861712
1.1854038
1.1842947
1.1827588
1.1807053
1.1780064
1.1745839
1.1703114
1.1650514
1.1586482
1.1509513
1.141799
1.1310546
1.1186277
1.1045079
1.0888043
1.0717958
1.0539604
1.0359709
1.0186427
1.0029147
0.98969439
0.97986841
0.97421829
0.97337366
0.97781059
0.98793333
1.003783
1.0252032
1.0517069
1.0833506
1.1191195
1.1585904
1.1977651
1.2366047
1.267964
1.2981656
1.3136644
1.334703
1.1825762
1.182625
1.1826827
1.1827437
1.1828099
1.1828824
1.1829613
1.1830472
1.1831403
1.183241
1.1833498
1.1834667
1.1835919
1.1837255
1.1838669
1.1840157
1.1841704
1.1843288
1.1844872
1.1846404
1.1847798
1.1848937
1.1849648
1.1849694
1.1848757
1.1846423
1.1842171
1.1835376
1.1825308
1.1811127
1.1791957
1.1767108
1.1734944
1.1694136
1.164446
1.1584091
1.1511424
1.1425056
1.1323767
1.1206675
1.1073631
1.092561
1.076514
1.0596525
1.0425905
1.0261121
1.0110268
0.99819808
0.98852293
0.98280266
0.98175218
0.98595897
0.9958533
1.0115017
1.0327992
1.0594357
1.0914914
1.1273352
1.1662481
1.2039965
1.2412136
1.2707662
1.2990615
1.3138983
1.333634
1.1814989
1.1815482
1.1816068
1.1816686
1.1817361
1.1818102
1.1818913
1.1819799
1.1820765
1.1821817
1.1822957
1.1824192
1.1825524
1.1826955
1.1828484
1.1830107
1.1831814
1.1833588
1.1835398
1.1837196
1.1838911
1.1840432
1.1841606
1.1842215
1.1841961
1.1840449
1.1837181
1.1831543
1.1822818
1.1810199
1.1792828
1.1769817
1.1739887
1.1702777
1.1656416
1.159964
1.1532074
1.1451971
1.1358035
1.1249405
1.112591
1.0988352
1.0838849
1.0681146
1.0520951
1.036477
1.02202
1.0095727
1.0000018
0.99420003
0.99295135
0.9969234
1.0065744
1.0219526
1.043192
1.0700973
1.1021776
1.1375172
1.1753503
1.2114278
1.2462789
1.2738319
1.3003277
1.3143335
1.3329712
1.181661
1.1817079
1.1817639
1.1818228
1.1818872
1.1819583
1.1820365
1.1821222
1.1822162
1.182319
1.1824312
1.1825535
1.1826864
1.1828303
1.1829855
1.183152
1.1833293
1.1835163
1.1837109
1.1839094
1.1841062
1.1842922
1.1844544
1.1845738
1.1846244
1.1845705
1.1843654
1.1839507
1.1832571
1.1822045
1.1807065
1.1786692
1.1760206
1.1726448
1.168412
1.1633325
1.1571737
1.1498455
1.1412829
1.1313847
1.1201167
1.1075258
1.093776
1.0791983
1.0642303
1.0494647
1.0356283
1.0235015
1.0140215
1.0081334
1.0067068
1.0104322
1.0197397
1.0349683
1.0562544
1.0831661
1.1147159
1.1494378
1.1854482
1.2192382
1.2516612
1.2771024
1.3018488
1.3150823
1.3327473
1.1827398
1.1827817
1.1828322
1.182885
1.182943
1.1830071
1.183078
1.1831562
1.1832422
1.1833369
1.1834409
1.183555
1.1836799
1.1838163
1.1839648
1.1841259
1.1842996
1.1844858
1.1846833
1.1848899
1.1851019
1.1853128
1.1855128
1.1856873
1.1858151
1.1858667
1.1858021
1.1855691
1.1851026
1.1843255
1.183152
1.1814879
1.1792474
1.1763361
1.1726857
1.1681587
1.1627006
1.1562646
1.1486573
1.1398335
1.1297523
1.118419
1.1059587
1.0925866
1.0786689
1.0647522
1.051464
1.0396345
1.0302348
1.02427
1.0226292
1.0260219
1.0351411
1.050281
1.071496
1.0979708
1.1291953
1.1621591
1.1959098
1.2273127
1.2570334
1.280626
1.3037549
1.3162219
1.3330176
1.1843805
1.1844159
1.1844588
1.1845034
1.1845526
1.1846073
1.184668
1.1847352
1.1848096
1.1848918
1.1849827
1.1850832
1.185194
1.185316
1.1854501
1.1855972
1.1857579
1.1859327
1.1861215
1.1863236
1.1865371
1.1867585
1.1869817
1.1871967
1.1873887
1.1875361
1.187608
1.1875621
1.187344
1.1868849
1.1861041
1.1849102
1.1832115
1.180909
1.1779275
1.1741837
1.1696205
1.1641011
1.1575888
1.149988
1.141198
1.1312112
1.1200643
1.1079021
1.0950328
1.0818842
1.069112
1.0575288
1.0481836
1.0420648
1.0401756
1.0433356
1.0523002
1.0673527
1.088282
1.1145821
1.1444163
1.1751156
1.2066239
1.2350968
1.2626188
1.2844225
1.306069
1.3177731
1.3337876
1.186283
1.1863112
1.1863455
1.1863811
1.1864206
1.1864646
1.1865136
1.1865681
1.1866287
1.1866962
1.1867712
1.1868547
1.1869474
1.1870504
1.1871647
1.1872913
1.1874314
1.1875858
1.1877555
1.1879409
1.1881418
1.1883571
1.1885841
1.1888178
1.1890498
1.1892667
1.1894486
1.1895669
1.189582
1.1894412
1.1890784
1.1884139
1.1873597
1.18582
1.1837072
1.180924
1.1773839
1.1730274
1.1677645
1.1614738
1.1540733
1.1454748
1.1356574
1.124702
1.1127932
1.1003509
1.0879984
1.0766244
1.067219
1.0609434
1.0588341
1.0618365
1.0708321
1.0857715
1.1066366
1.1319946
1.1596065
1.1882973
1.216756
1.2429883
1.2683697
1.2885354
1.3088185
1.3197649
1.335078
1.1882071
1.1882281
1.1882536
1.1882804
1.1883102
1.1883436
1.1883809
1.1884226
1.1884691
1.1885213
1.1885796
1.1886448
1.1887179
1.1887997
1.1888913
1.1889939
1.1891087
1.189237
1.18938
1.1895391
1.1897154
1.1899095
1.1901213
1.1903497
1.1905921
1.1908431
1.1910932
1.1913274
1.1915235
1.19165
1.1916637
1.1915075
1.1911109
1.1903899
1.1892528
1.1875996
1.1853312
1.1823345
1.1784903
1.173692
1.1677858
1.1606356
1.1521616
1.1423326
1.1313071
1.1194529
1.1074208
1.096123
1.0866621
1.080265
1.0780823
1.0812953
1.0903764
1.1054604
1.1258642
1.1492646
1.1750423
1.2008472
1.2269336
1.2508942
1.2743506
1.2929905
1.3120118
1.3222069
1.3368914
1.1900112
1.1900258
1.1900433
1.1900621
1.1900831
1.1901066
1.1901331
1.1901628
1.1901962
1.1902339
1.1902764
1.1903244
1.1903784
1.1904392
1.1905076
1.1905847
1.1906719
1.1907706
1.1908824
1.1910089
1.1911518
1.1913131
1.1914946
1.191698
1.1919245
1.1921748
1.1924478
1.1927406
1.1930475
1.1933582
1.1936554
1.193912
1.1940891
1.1941302
1.1939596
1.1934791
1.1925698
1.1910894
1.1888728
1.1857294
1.1814508
1.1758309
1.1686823
1.159927
1.1496856
1.1382941
1.1264862
1.1152392
1.1056946
1.0993832
1.0976633
1.1012544
1.1108745
1.1259243
1.1448991
1.166318
1.1898494
1.2131212
1.2369118
1.2588927
1.2805857
1.2977969
1.3156542
1.3251115
1.3392328
1.1916321
1.191641
1.1916517
1.1916633
1.1916763
1.191691
1.1917076
1.1917266
1.1917486
1.1917729
1.191799
1.1918279
1.191861
1.1919001
1.1919468
1.1920016
1.1920644
1.1921356
1.1922163
1.192308
1.1924133
1.1925352
1.1926768
1.1928419
1.1930345
1.1932589
1.1935203
1.1938253
1.19418
1.1945905
1.1950627
1.1956
1.196197
1.1968366
1.1974782
1.1980486
1.1984314
1.1984543
1.1978949
1.1964823
1.1939007
1.1898429
1.1840193
1.1763164
1.1667741
1.1557822
1.1441404
1.1328817
1.1236719
1.1182206
1.1172485
1.1218135
1.1318484
1.1460013
1.1631082
1.1829985
1.2037566
1.2250404
1.2468549
1.2670041
1.2870828
1.3029643
1.3197478
1.3284788
1.3420941
1.1930753
1.1930788
1.1930831
1.1930877
1.1930928
1.1930988
1.193106
1.1931147
1.1931249
1.1931367
1.1931504
1.1931665
1.1931853
1.1932071
1.1932321
1.1932604
1.1932932
1.1933335
1.1933828
1.1934404
1.1935077
1.1935892
1.1936905
1.1938166
1.1939705
1.1941576
1.1943878
1.1946738
1.1950301
1.195474
1.196026
1.1967157
1.1975697
1.1985989
1.1998041
1.2011523
1.2025497
1.2038291
1.2047313
1.2049022
1.2039258
1.2013598
1.1968334
1.1901216
1.1812346
1.1706431
1.1593807
1.1488662
1.1410975
1.1367964
1.1371787
1.1425829
1.1522764
1.1649024
1.1808105
1.19827
1.2173531
1.2367727
1.2567544
1.2752424
1.293845
1.3084881
1.324287
1.3323132
1.3454765
1.1943328
1.1943307
1.1943282
1.1943257
1.194323
1.1943203
1.1943176
1.1943153
1.1943141
1.1943142
1.1943144
1.1943134
1.1943115
1.1943098
1.19431
1.1943143
1.1943246
1.1943429
1.1943697
1.1944027
1.1944413
1.1944902
1.194555
1.1946411
1.1947545
1.1949031
1.1950982
1.1953562
1.1956976
1.196146
1.1967299
1.1974892
1.1984633
1.1996875
1.2011993
1.2029985
1.2050241
1.2071292
1.2090714
1.2104509
1.210784
1.2095086
1.2061538
1.2003518
1.1922529
1.182589
1.1727042
1.1640596
1.1578631
1.1552644
1.156884
1.1623011
1.171195
1.1830459
1.1971898
1.2131765
1.23054
1.2482797
1.2666481
1.2836208
1.3008768
1.3143716
1.3292625
1.3366102
1.3493714
1.1953506
1.1953427
1.1953332
1.1953234
1.1953127
1.195301
1.1952885
1.1952754
1.1952619
1.1952478
1.195233
1.1952173
1.1952014
1.1951864
1.1951733
1.1951623
1.1951529
1.1951447
1.1951397
1.1951416
1.1951537
1.1951793
1.1952209
1.1952814
1.1953689
1.1954943
1.1956687
1.1959063
1.1962279
1.1966573
1.1972314
1.1979895
1.1989735
1.2002436
1.2018521
1.2038244
1.206136
1.2086678
1.2111976
1.2133451
1.2145674
1.2142294
1.2117847
1.2070656
1.200414
1.1926015
1.1848544
1.1782668
1.174111
1.1731045
1.1750719
1.1806973
1.1889286
1.1999804
1.2128833
1.2274426
1.2433779
1.2596446
1.2765517
1.2921475
1.3081786
1.3206096
1.33467
1.3413667
1.3537729
1.1958944
1.1958816
1.1958665
1.1958506
1.1958334
1.1958147
1.1957944
1.1957726
1.1957491
1.1957241
1.1956976
1.1956697
1.1956411
1.1956119
1.195583
1.1955553
1.1955299
1.1955082
1.1954911
1.1954798
1.1954766
1.1954845
1.1955065
1.1955463
1.1956117
1.1957162
1.1958736
1.1960956
1.1963991
1.1968092
1.1973616
1.198099
1.1990638
1.2003158
1.2019069
1.2038601
1.2061858
1.2088254
1.2115497
1.2140033
1.2156797
1.2160917
1.2148153
1.2116919
1.2069629
1.2014712
1.1960256
1.1916085
1.1895158
1.1892996
1.1921486
1.1977578
1.2058452
1.2158703
1.2278332
1.2412606
1.2559319
1.2708757
1.2864821
1.3008316
1.3157503
1.3271993
1.3404981
1.3465728
1.3586739
1.1957502
1.1957351
1.1957174
1.1956987
1.1956784
1.1956564
1.1956326
1.195607
1.1955795
1.1955503
1.1955193
1.1954868
1.1954531
1.1954185
1.1953836
1.1953491
1.1953159
1.1952854
1.1952591
1.1952392
1.195228
1.1952301
1.1952515
1.1952962
1.1953658
1.1954657
1.1956101
1.195816
1.1960919
1.1964603
1.1969716
1.197665
1.1985583
1.1996904
1.2011289
1.2029476
1.2051532
1.2077037
1.2104429
1.2130864
1.2152829
1.2165798
1.2165965
1.2151829
1.2126055
1.209423
1.2060905
1.2041049
1.2033509
1.2044731
1.2082598
1.2138087
1.2214598
1.2310077
1.2422179
1.254651
1.2682313
1.2820126
1.296458
1.3096807
1.3235901
1.3341363
1.3467407
1.3522337
1.3640672
1.1946721
1.1946586
1.1946427
1.194626
1.1946078
1.1945881
1.1945668
1.1945439
1.1945194
1.1944933
1.1944658
1.1944369
1.1944071
1.1943766
1.1943461
1.1943162
1.1942879
1.1942623
1.194241
1.1942259
1.1942193
1.1942241
1.1942445
1.1942855
1.1943537
1.1944539
1.1945924
1.1947839
1.1950582
1.1954263
1.1958968
1.1965131
1.1973185
1.1983699
1.199728
1.2014336
1.2035157
1.2059824
1.2087619
1.2116601
1.2143885
1.2165898
1.2179281
1.2182631
1.2177544
1.2165013
1.215629
1.2156128
1.2163235
1.2188405
1.2229401
1.2287644
1.2363774
1.2455028
1.256081
1.267692
1.2803291
1.2930817
1.3064948
1.3187013
1.3316984
1.3414167
1.3533883
1.3583372
1.3699311
1.1928002
1.1927908
1.1927797
1.192768
1.1927554
1.1927418
1.1927272
1.1927115
1.1926949
1.1926773
1.192659
1.1926401
1.192621
1.192602
1.1925837
1.1925668
1.1925523
1.1925414
1.1925356
1.192537
1.1925478
1.1925712
1.1926111
1.1926702
1.1927533
1.1928677
1.1930267
1.1932429
1.1935157
1.193866
1.1943416
1.194974
1.1957776
1.1967922
1.1980978
1.1997667
1.2018399
1.2043433
1.2072581
1.2104727
1.2137853
1.2169036
1.2194895
1.2214658
1.2225348
1.2234773
1.2248917
1.2262706
1.2285116
1.2320114
1.2368371
1.2429977
1.2505781
1.259432
1.2695223
1.2804392
1.2922639
1.3041128
1.31661
1.327903
1.3400758
1.3490364
1.3604306
1.3648731
1.3762631
1.190264
1.1902591
1.1902535
1.1902476
1.1902414
1.1902348
1.1902279
1.1902207
1.1902134
1.1902061
1.190199
1.1901925
1.1901869
1.1901827
1.1901807
1.1901816
1.1901864
1.1901966
1.1902141
1.1902411
1.1902806
1.190335
1.190408
1.1905031
1.1906248
1.190785
1.1909906
1.1912597
1.1916161
1.1920574
1.192594
1.1932703
1.1941325
1.1952274
1.196611
1.1983486
1.2005083
1.2031544
1.2063132
1.2099489
1.2138989
1.217887
1.2216894
1.2248418
1.2276794
1.2307678
1.2334932
1.2363571
1.2400692
1.2445654
1.2500376
1.2565654
1.2642406
1.2729175
1.2826167
1.2929549
1.3040818
1.3151349
1.3268221
1.3372892
1.3487192
1.3569859
1.3678635
1.3718178
1.3830825
1.1872224
1.1872212
1.1872199
1.1872187
1.1872176
1.1872169
1.1872164
1.1872166
1.1872174
1.1872193
1.1872225
1.1872276
1.187235
1.1872455
1.1872601
1.1872798
1.1873062
1.1873411
1.1873867
1.1874458
1.1875216
1.1876172
1.1877374
1.1878878
1.1880786
1.1883262
1.1886339
1.1889997
1.1894429
1.1899891
1.1906582
1.1914787
1.1924858
1.1937214
1.1952487
1.1971527
1.1995248
1.2024623
1.2060327
1.2102138
1.2148507
1.2197453
1.2244336
1.2288442
1.2334979
1.2378016
1.2418534
1.2463435
1.2511797
1.2565843
1.2627309
1.2696627
1.2774725
1.2860456
1.2954433
1.3052975
1.3158242
1.326177
1.3371458
1.3468669
1.3576328
1.3652576
1.3756798
1.3791625
1.3903462
1.1835732
1.1835747
1.1835766
1.1835789
1.1835819
1.1835858
1.1835906
1.1835968
1.1836046
1.1836146
1.1836271
1.1836428
1.1836627
1.1836877
1.183719
1.1837584
1.1838077
1.1838692
1.183946
1.1840416
1.1841597
1.1843069
1.1844897
1.1847146
1.1849904
1.1853244
1.1857277
1.1862136
1.186797
1.1874959
1.1883321
1.1893302
1.1905243
1.1919743
1.1937572
1.1959681
1.1987289
1.2021617
1.206325
1.2111759
1.2165822
1.2222371
1.2277781
1.2336512
1.2394097
1.2448714
1.2504604
1.2561056
1.2620053
1.2682855
1.2750709
1.2824069
1.2903915
1.298916
1.3080781
1.3175256
1.3275343
1.3372684
1.3475993
1.3566465
1.3668196
1.3738453
1.3838734
1.3869007
1.3980371
1.1790534
1.1790577
1.1790631
1.1790694
1.1790768
1.1790857
1.1790964
1.1791093
1.1791249
1.1791438
1.1791668
1.1791948
1.1792288
1.1792703
1.1793209
1.1793828
1.1794584
1.1795508
1.1796637
1.1798013
1.179969
1.1801738
1.1804221
1.1807216
1.1810826
1.181516
1.1820346
1.1826533
1.1833876
1.1842542
1.1852759
1.1864908
1.1879511
1.1897216
1.1918991
1.1946086
1.1979832
1.2021283
1.2070432
1.2126931
1.2188691
1.2251788
1.2319501
1.2388928
1.2456833
1.2524309
1.2591272
1.2658655
1.2727321
1.2798062
1.2871979
1.2949323
1.303106
1.3116167
1.3205938
1.3296956
1.3392532
1.3484378
1.3581989
1.3666367
1.3762749
1.3827572
1.3924265
1.3950282
1.4061447
1.173286
1.1732947
1.1733055
1.1733175
1.1733314
1.1733478
1.1733669
1.1733894
1.173416
1.1734474
1.1734847
1.1735289
1.1735817
1.1736447
1.17372
1.1738103
1.1739185
1.1740483
1.1742043
1.1743914
1.1746158
1.1748847
1.1752065
1.1755906
1.1760488
1.1765936
1.1772374
1.1779958
1.1788905
1.1799498
1.1812092
1.1827167
1.1845407
1.1867774
1.1895483
1.1929857
1.1972021
1.2022406
1.2080663
1.2146075
1.221475
1.228895
1.2367744
1.2446309
1.2524908
1.2602723
1.268022
1.2757415
1.2834815
1.2912884
1.2992428
1.3073535
1.3157183
1.3242352
1.3330609
1.3418626
1.3510219
1.3597139
1.3689616
1.3768445
1.3860016
1.3919776
1.4013315
1.4035298
1.4146423
1.1659124
1.1659277
1.1659464
1.165967
1.1659905
1.1660177
1.1660489
1.1660851
1.166127
1.1661758
1.1662326
1.166299
1.1663768
1.1664681
1.1665754
1.1667018
1.166851
1.1670272
1.1672357
1.1674817
1.1677724
1.1681173
1.1685248
1.1690047
1.1695689
1.170233
1.1710174
1.1719444
1.1730428
1.1743517
1.1759255
1.1778388
1.1801904
1.1831016
1.1867024
1.191104
1.1963628
1.2024609
1.2093454
1.2167146
1.2246957
1.2333297
1.2420837
1.2509132
1.2597343
1.2685241
1.2772359
1.2858509
1.2943877
1.3028591
1.3113265
1.319783
1.3283264
1.3368541
1.3455472
1.3540797
1.3628792
1.3711231
1.3799027
1.3872837
1.3959896
1.4015139
1.410565
1.4123997
1.4234941
1.1566467
1.156671
1.1567005
1.1567327
1.1567691
1.1568106
1.156858
1.1569122
1.1569742
1.1570455
1.1571275
1.157222
1.1573313
1.157458
1.1576046
1.1577736
1.1579704
1.1582025
1.1584737
1.1587883
1.1591543
1.159582
1.1600835
1.1606713
1.1613606
1.1621711
1.1631281
1.1642653
1.1656283
1.167279
1.1693001
1.1717979
1.174898
1.1787333
1.183413
1.1889984
1.1954843
1.2028089
1.2107536
1.2192878
1.2286136
1.2382024
1.2479023
1.2576964
1.2675135
1.2772562
1.2868683
1.2963071
1.3055662
1.3146357
1.3235613
1.3323234
1.3410212
1.3495514
1.3581166
1.3663967
1.3748615
1.3826934
1.3910398
1.3979578
1.4062472
1.4113624
1.4201195
1.4216005
1.4327307
1.1452101
1.1452457
1.1452887
1.1453354
1.145388
1.1454476
1.145515
1.1455915
1.1456781
1.1457754
1.1458821
1.1460046
1.1461546
1.146329
1.1465219
1.1467405
1.146993
1.1472852
1.1476236
1.1480155
1.1484692
1.1489951
1.1496071
1.1503222
1.1511624
1.1521567
1.153344
1.154777
1.1565268
1.1586863
1.1613718
1.1647164
1.168857
1.1739054
1.1799171
1.1869032
1.194777
1.2033606
1.2125681
1.2225882
1.2329961
1.2435569
1.2543094
1.2651412
1.2759302
1.2865876
1.2970419
1.3072337
1.3171409
1.3267373
1.336058
1.3450749
1.3538898
1.3624005
1.3708287
1.3788623
1.3870051
1.3944466
1.4023834
1.4088765
1.4167738
1.421538
1.4299858
1.4313041
1.4421931
1.1316074
1.1316575
1.1317164
1.1317769
1.1318411
1.1319179
1.1320136
1.1321212
1.1322346
1.1323599
1.1325031
1.1326666
1.1328529
1.1330648
1.1333053
1.1335794
1.1338964
1.1342628
1.1346795
1.1351555
1.135706
1.1363457
1.1370934
1.1379744
1.1390222
1.1402824
1.1418159
1.1437036
1.1460487
1.1489762
1.1526261
1.1571361
1.1626203
1.1691328
1.1766831
1.1852077
1.1944579
1.204419
1.2152169
1.2264693
1.237953
1.2496844
1.2615438
1.2733949
1.2851343
1.2966614
1.307895
1.3187657
1.3292416
1.3392872
1.3489315
1.3581424
1.3670247
1.3754808
1.3837489
1.391526
1.3993459
1.40641
1.413947
1.42004
1.4275491
1.4319976
1.4401149
1.4411487
1.4518441
1.1159194
1.115988
1.116057
1.1161249
1.1162054
1.1162996
1.1164081
1.1165327
1.1166763
1.1168422
1.1170334
1.1172502
1.1174913
1.1177564
1.1180504
1.1183821
1.1187594
1.1191894
1.1196814
1.1202474
1.1209028
1.1216675
1.1225687
1.1236426
1.1249386
1.1265233
1.1284851
1.1309373
1.1340177
1.1378827
1.1426905
1.1485728
1.1556116
1.1638174
1.1731178
1.1832716
1.194279
1.206096
1.2184015
1.2309422
1.2437513
1.2567052
1.2696732
1.282544
1.2952055
1.3075531
1.3195009
1.3309752
1.3419397
1.3523545
1.3622476
1.3715856
1.3804791
1.3888377
1.3969137
1.4044176
1.4119039
1.4185934
1.4257359
1.4314563
1.4385854
1.4428342
1.4506218
1.4520235
1.4630789
1.0979764
1.0980549
1.0981491
1.0982506
1.0983627
1.0984875
1.0986265
1.0987816
1.0989545
1.0991476
1.0993634
1.099605
1.099876
1.1001805
1.100524
1.1009128
1.101355
1.1018608
1.1024433
1.10312
1.1039139
1.1048561
1.1059886
1.1073676
1.1090681
1.1111877
1.1138494
1.117201
1.1214079
1.1266378
1.1330344
1.1406873
1.1496173
1.1597363
1.1708802
1.1829864
1.1959526
1.2094093
1.223101
1.2370885
1.2512357
1.2654102
1.2794977
1.2933758
1.3069276
1.320046
1.3326431
1.3446444
1.356013
1.3667106
1.3767635
1.3861462
1.3949734
1.403168
1.4109935
1.4181787
1.4252926
1.4315831
1.4383038
1.4436443
1.4503545
1.4544342
1.4616521
1.4639943
1.472232
1.0795221
1.0796146
1.0797276
1.0798444
1.0799732
1.0801166
1.080276
1.0804531
1.0806501
1.0808696
1.0811146
1.0813886
1.0816962
1.0820426
1.0824348
1.0828817
1.0833947
1.083989
1.0846848
1.0855093
1.086499
1.0877026
1.0891854
1.0910324
1.0933529
1.0962816
1.0999771
1.1046138
1.110365
1.1173781
1.1257442
1.1354827
1.1465035
1.1586848
1.1719112
1.1858863
1.2003507
1.2151536
1.2303187
1.2456832
1.2611027
1.2764483
1.2915867
1.3063871
1.3207285
1.3345024
1.3476222
1.3600167
1.3716519
1.3824949
1.3925764
1.4018817
1.4105305
1.4184669
1.4259555
1.4327616
1.4394398
1.4453038
1.4515557
1.4565172
1.4627828
1.466653
1.4734595
1.4758644
1.4835939
1.0628038
1.0629062
1.0630311
1.0631599
1.0633015
1.0634588
1.0636332
1.0638265
1.0640413
1.0642804
1.0645474
1.0648467
1.0651838
1.065566
1.0660027
1.0665064
1.0670936
1.0677866
1.0686154
1.0696201
1.0708543
1.0723886
1.074315
1.0767495
1.0798348
1.0837379
1.088642
1.0947312
1.1021661
1.1110542
1.1214254
1.1332127
1.14633
1.1605888
1.1755122
1.1909624
1.2069523
1.2233281
1.2399123
1.2565651
1.2731511
1.2895294
1.3055624
1.3211174
1.3360735
1.3503254
1.3637914
1.3764068
1.3881427
1.398976
1.4089425
1.4180446
1.426405
1.4339945
1.4410716
1.4474465
1.4536433
1.4590651
1.4648155
1.4694229
1.4751888
1.4789514
1.4851826
1.4881326
1.4948177
1.0507177
1.0508248
1.0509553
1.0510897
1.0512371
1.0514005
1.0515816
1.0517823
1.0520054
1.0522544
1.0525335
1.0528484
1.0532063
1.0536169
1.0540932
1.0546526
1.0553184
1.0561221
1.0571058
1.0583254
1.059854
1.0617864
1.0642417
1.0673652
1.0713274
1.0763167
1.0825251
1.0901261
1.0992467
1.1099388
1.122159
1.1358224
1.1507189
1.1663566
1.1826758
1.1997583
1.2172045
1.2348752
1.2526407
1.2703564
1.2878778
1.3050591
1.321758
1.3378412
1.3531899
1.367704
1.3813079
1.3939459
1.405595
1.4162447
1.4259379
1.4346958
1.4426457
1.4497874
1.4563666
1.4622492
1.4679079
1.4728596
1.4780744
1.4823198
1.4875718
1.4911869
1.4969063
1.4999576
1.5061615
1.0448885
1.0449955
1.0451251
1.0452589
1.0454054
1.0455679
1.0457478
1.0459477
1.0461707
1.0464209
1.0467037
1.0470262
1.047398
1.0478319
1.0483455
1.048962
1.0497132
1.050641
1.0518012
1.0532667
1.0551313
1.0575125
1.0605542
1.0644253
1.0693144
1.0754177
1.0829197
1.0919667
1.1026387
1.1149254
1.1287369
1.1438923
1.1600265
1.1770105
1.1948343
1.2130651
1.2315845
1.2502459
1.2688969
1.2873859
1.3055591
1.3232639
1.3403558
1.356703
1.3721902
1.3867238
1.4002359
1.4126776
1.4240384
1.4343179
1.4435717
1.4518407
1.459254
1.4658435
1.4718362
1.4771574
1.4822212
1.4866664
1.4913138
1.4951846
1.4999132
1.5033919
1.508608
1.5119261
1.5176483
1.0474367
1.0475383
1.0476601
1.0477873
1.0479266
1.0480811
1.0482527
1.048444
1.0486588
1.048902
1.0491804
1.0495028
1.0498815
1.0503329
1.0508796
1.0515517
1.0523894
1.0534459
1.0547909
1.0565136
1.0587264
1.061567
1.065198
1.0698037
1.07558
1.0827182
1.091382
1.1016806
1.1136436
1.1272077
1.1422238
1.1584628
1.1757022
1.193782
1.2123972