/*--------------------------------*- C++ -*----------------------------------*\
  =========                 |
  \\      /  F ield         | OpenFOAM: The Open Source CFD Toolbox
   \\    /   O peration     | Website:  https://openfoam.org
    \\  /    A nd           | Version:  13
     \\/     M anipulation  |
\*---------------------------------------------------------------------------*/
FoamFile
{
    format      ascii;
    class       volSymmTensorField;
    location    "33.303076";
    object      UPrime2Mean;
}
// * * * * * * * * * * * * * * * * * * * * * * * * * * * * * * * * * * * * * //

dimensions      [0 2 -2 0 0 0 0];

internalField   nonuniform List<symmTensor> 
17140
(
(5.6273421e-12 -3.5769138e-10 -1.1315051e-27 2.4303222e-08 1.828279e-26 6.4327108e-41)
(3.850154e-10 -5.2095251e-09 -5.1721988e-28 2.3209595e-07 4.069916e-27 5.7152431e-43)
(3.3546398e-09 -2.1011886e-08 8.457365e-26 7.0627741e-07 -4.2988783e-25 2.4915294e-39)
(1.5716325e-08 -5.7716514e-08 -1.8081612e-25 1.5239887e-06 6.6394007e-25 3.0111519e-39)
(5.2580486e-08 -1.2954461e-07 3.6263951e-26 2.7783431e-06 -1.0237303e-25 4.1152254e-41)
(1.4426532e-07 -2.5698203e-07 -1.8860345e-25 4.5805611e-06 4.2562495e-25 4.4079471e-40)
(3.4726028e-07 -4.6862905e-07 -4.8018472e-25 7.0620548e-06 8.8626904e-25 1.2493872e-39)
(7.6143164e-07 -8.0337327e-07 3.4212962e-25 1.0376224e-05 -5.2433322e-25 2.9778739e-40)
(1.5566039e-06 -1.3128447e-06 1.5927431e-24 1.4699664e-05 -2.0482037e-24 3.1904183e-39)
(3.0126461e-06 -2.0639212e-06 5.4425186e-24 2.0232413e-05 -5.9207509e-24 1.9193975e-38)
(5.5785729e-06 -3.1409334e-06 -1.1058847e-23 2.7196709e-05 1.024191e-23 4.2205835e-38)
(9.9577275e-06 -4.6470136e-06 1.3327432e-23 3.5833641e-05 -1.0558688e-23 3.3520732e-38)
(1.7227656e-05 -6.7037895e-06 2.7293051e-24 4.6396943e-05 -1.8566338e-24 7.8531893e-40)
(2.9004374e-05 -9.4483134e-06 -2.0432016e-23 5.9143133e-05 1.1980525e-23 2.5120145e-38)
(4.7660861e-05 -1.3025905e-05 2.9807933e-24 7.4317196e-05 -1.5096006e-24 3.0966234e-40)
(7.6607889e-05 -1.7577478e-05 -3.0781503e-23 9.2133196e-05 1.3496077e-23 1.9429875e-38)
(0.00012064059 -2.3220259e-05 1.4801172e-24 0.00011274951 -5.6315172e-25 2.6910328e-41)
(0.00018634586 -3.0021673e-05 -4.3179925e-25 0.00013623901 1.4181195e-25 1.3473492e-42)
(0.0002825529 -3.7968006e-05 -3.8726684e-23 0.00016255543 1.1099338e-23 6.7770949e-39)
(0.00042079451 -4.6932203e-05 6.3639395e-23 0.00019149818 -1.5859313e-23 1.1362965e-38)
(0.00061573412 -5.6648697e-05 -3.857496e-23 0.00022267946 8.3576507e-24 2.6239915e-39)
(0.00088551016 -6.6706242e-05 9.1536182e-24 0.00025549917 -1.7283903e-24 9.4976719e-41)
(0.0012519659 -7.6570007e-05 8.3494895e-23 0.00028913539 -1.3690098e-23 5.1122181e-39)
(0.0017408056 -8.5640678e-05 -1.0188679e-22 0.00032256188 1.4526066e-23 5.0282765e-39)
(0.0023819071 -9.3348848e-05 -1.9637935e-22 0.00035460838 2.4333193e-23 1.2588081e-38)
(0.0032095608 -9.9248916e-05 1.889688e-22 0.00038408339 -2.0355034e-23 8.0244144e-39)
(0.0042625223 -0.00010301342 1.1021248e-21 0.00040996753 -1.030545e-22 1.9107699e-37)
(0.0055870769 -0.00010454641 1.5300115e-22 0.00043162828 -1.2397778e-23 2.6198293e-39)
(0.007238532 -0.00010397469 -1.5614956e-21 0.00044895867 1.0992367e-22 1.9979659e-37)
(0.0092819414 -0.00010096411 -4.2304456e-22 0.00046236499 2.5798981e-23 1.0835071e-38)
(0.011795553 -9.5355842e-05 -1.7343629e-21 0.00047253602 9.1636954e-23 1.3726586e-37)
(0.014871438 -8.7305364e-05 2.6069926e-21 0.00048005861 -1.1919257e-22 2.3724554e-37)
(0.018618291 -7.6288119e-05 -7.7326054e-22 0.00048534519 3.0468587e-23 1.6105984e-38)
(0.023161333 -6.1408592e-05 -4.1737087e-22 0.00048867405 1.4162868e-23 3.6855619e-39)
(0.028642215 -4.1283924e-05 -4.6305987e-21 0.00049019443 1.3404176e-22 3.5766608e-37)
(0.035217249 -1.408725e-05 2.2757795e-21 0.00048992656 -5.6068936e-23 6.9295697e-38)
(0.043053484 2.2440931e-05 -3.8339537e-21 0.00048780741 7.9472562e-23 1.5844046e-37)
(0.052321261 7.1020544e-05 -2.8832718e-21 0.00048376457 4.9800847e-23 7.3089127e-38)
(0.063181431 0.00013484375 -1.4598588e-21 0.00047784215 2.069268e-23 1.5424696e-38)
(0.075765083 0.00021763018 4.851652e-21 0.00047040696 -5.5580335e-23 1.4243863e-37)
(0.090144597 0.00032335701 9.9989696e-21 0.00046237831 -8.9863548e-23 5.090353e-37)
(0.10629677 0.00045580848 9.83853e-21 0.0004552861 -6.6772381e-23 4.1958455e-37)
(0.12406095 0.00061738431 4.6240448e-21 0.00045098455 -2.2285595e-23 7.9861591e-38)
(0.14310652 0.00080786536 -2.4125346e-20 0.00045114345 7.2838563e-23 1.8840759e-36)
(0.16292291 0.0010226068 -1.8749473e-20 0.000456919 2.6182756e-23 1.0008132e-36)
(0.18282369 0.0012497062 4.8571383e-21 0.00046895406 4.3463651e-25 5.9901058e-38)
(0.20206684 0.0014741672 -3.4565458e-20 0.00048786573 -5.110247e-23 2.737253e-36)
(0.21996753 0.0016848503 -1.2193882e-20 0.00051506988 -3.4016662e-23 3.1156696e-37)
(0.23578837 0.0018720696 1.2800656e-20 0.00055325788 5.1816659e-23 3.186559e-37)
(0.2491866 0.0020259793 3.2035371e-20 0.00060531285 1.6848596e-22 1.8789359e-36)
(0.25985093 0.0021410537 -2.0005844e-20 0.00067511146 -1.2868769e-22 7.005328e-37)
(0.26758527 0.0022234511 -1.2708684e-20 0.00076883512 -9.6392542e-23 2.7433765e-37)
(0.27218102 0.0022968299 3.3091895e-20 0.00089487582 2.9099225e-22 1.8326004e-36)
(0.27371434 0.002378434 1.5493267e-20 0.0010640314 1.5600227e-22 4.0213077e-37)
(0.27235928 0.0024636699 1.0843813e-20 0.0012934158 1.2401365e-22 2.0074822e-37)
(0.26873904 0.0025457186 -8.3211192e-21 0.0016150671 -1.0733384e-22 1.2188621e-37)
(0.26373653 0.0026310098 2.1632078e-20 0.0020799377 3.1261948e-22 8.732732e-37)
(0.25785782 0.0027214483 1.73088e-20 0.0027695465 2.7707741e-22 6.0047075e-37)
(0.2514966 0.0027894467 4.1045932e-21 0.0037731502 7.1198202e-23 3.7198053e-38)
(0.2442542 0.0027371919 -9.953298e-21 0.0051220718 -1.7885873e-22 2.4449841e-37)
(0.2353167 0.0024327675 -7.1941417e-21 0.0066053179 -1.2384908e-22 1.4855636e-37)
(0.22415223 0.0017689346 -2.4328338e-20 0.0078551571 -3.457604e-22 2.0215371e-36)
(0.20825087 0.0007822396 -3.194825e-21 0.0087854588 -2.8375368e-23 4.3321017e-38)
(0.1902254 -0.00023460565 2.381773e-20 0.0099886108 5.615494e-23 3.0595015e-36)
(0.16318522 -0.00039197153 -1.5680767e-20 0.012032464 -2.8420509e-25 1.8284699e-36)
(2.4373473e-10 -5.720528e-09 1.3722192e-27 1.343132e-07 -2.6902652e-26 5.2094256e-42)
(3.81294e-09 -6.9222398e-08 -4.5778802e-25 1.2725091e-06 7.1170392e-24 6.8578316e-38)
(1.7012049e-08 -2.520479e-07 7.8127738e-25 3.8446262e-06 -9.9450626e-24 5.4306612e-38)
(5.2878974e-08 -6.4434568e-07 -3.5391454e-25 8.2306417e-06 3.755228e-24 4.0360674e-39)
(1.3527494e-07 -1.3734309e-06 -1.1282863e-24 1.4873194e-05 1.0145874e-23 1.7223594e-38)
(3.0694158e-07 -2.6218762e-06 3.178033e-24 2.4278646e-05 -2.4520724e-23 6.2885869e-38)
(6.4142599e-07 -4.6446887e-06 -4.7318229e-24 3.7014687e-05 3.1567088e-23 6.8333543e-38)
(1.2613244e-06 -7.7902744e-06 5.8125217e-25 5.3702379e-05 -3.36963e-24 5.2927989e-40)
(2.365999e-06 -1.2525941e-05 -2.4882309e-24 7.5000558e-05 1.2580116e-23 5.1587512e-39)
(4.2726045e-06 -1.9466332e-05 -5.7200696e-26 0.00010158002 2.5291618e-25 1.4737598e-42)
(7.4757482e-06 -2.9403468e-05 -1.5011621e-23 0.00013408525 5.817476e-23 5.7495014e-38)
(1.2732462e-05 -4.3335278e-05 3.1576752e-23 0.00017308139 -1.0744957e-22 1.4513221e-37)
(2.1180605e-05 -6.248782e-05 3.4256276e-24 0.00021898571 -1.0250646e-23 9.8966844e-40)
(3.4499792e-05 -8.8324021e-05 -4.4090368e-23 0.0002719844 1.1616005e-22 9.6337504e-38)
(5.5124008e-05 -0.00012252944 1.7541234e-23 0.00033193916 -4.0726562e-23 9.0749592e-39)
(8.6513449e-05 -0.00016696391 1.4347967e-23 0.00039829258 -2.9375917e-23 3.6517257e-39)
(0.00013348867 -0.00022356778 -1.1657661e-22 0.00046998728 2.1054479e-22 1.4646957e-37)
(0.00020262236 -0.00029421514 4.8332118e-22 0.00054541963 -7.7016129e-22 1.5473967e-36)
(0.00030267249 -0.00038051549 -3.8276786e-22 0.00062245299 5.3808964e-22 6.0295406e-37)
(0.00044502652 -0.00048358123 5.7633131e-22 0.00069851452 -7.145447e-22 8.5884413e-37)
(0.00064411554 -0.0006038022 -1.0621666e-21 0.00077079012 1.1609254e-21 1.857074e-36)
(0.00091775381 -0.00074069313 3.2237419e-22 0.00083651112 -3.1044809e-22 1.1043484e-37)
(0.0012873751 -0.00089289649 1.6303472e-22 0.00089329651 -1.3824932e-22 1.8527237e-38)
(0.0017782028 -0.0010584211 -6.4919095e-22 0.0009394832 4.8433302e-22 1.9544436e-37)
(0.0024195762 -0.0012351684 2.8151877e-21 0.00097436548 -1.8471401e-21 2.4951012e-36)
(0.0032452719 -0.0014215693 5.0285028e-22 0.00099829064 -2.8989412e-22 5.4824302e-38)
(0.0042934291 -0.0016169792 -3.0803015e-21 0.0010125564 1.5612946e-21 1.455493e-36)
(0.005609638 -0.0018221855 4.0569128e-21 0.0010189642 -1.8067192e-21 1.8114502e-36)
(0.0072485123 -0.0020392118 -6.4755966e-22 0.0010196207 2.5363776e-22 3.4003295e-38)
(0.0092741106 -0.0022699982 -7.3569945e-21 0.0010169117 2.5292681e-21 3.2389272e-36)
(0.011763507 -0.0025168558 8.7491644e-22 0.0010126957 -2.642405e-22 3.475303e-38)
(0.014807264 -0.0027820223 7.6829069e-21 0.0010077983 -2.0335773e-21 2.0391322e-36)
(0.018512167 -0.0030663612 2.2417498e-22 0.0010022289 -5.1684495e-23 1.2947729e-39)
(0.02300101 -0.0033692363 -7.3782523e-21 0.00099548415 1.4956964e-21 1.1422546e-36)
(0.028412374 -0.0036881406 9.277949e-21 0.00098678658 -1.6418389e-21 1.4322332e-36)
(0.034898663 -0.0040183889 -4.6919917e-21 0.00097524777 7.2327146e-22 2.928575e-37)
(0.042621953 -0.004352546 6.1543537e-21 0.00095998866 -8.2554581e-22 4.0951148e-37)
(0.051746219 -0.0046794592 2.1782353e-20 0.0009402451 -2.5355106e-21 4.1817151e-36)
(0.062424183 -0.0049830427 5.4039148e-21 0.00091556433 -5.4463686e-22 2.1175885e-37)
(0.07477668 -0.0052410518 2.3205648e-20 0.00088616091 -2.0204443e-21 3.2628593e-36)
(0.088863428 -0.005424545 -3.2442337e-20 0.00085339014 2.4309565e-21 5.3889729e-36)
(0.1046461 -0.0054989819 -3.2462508e-20 0.0008200615 2.081593e-21 4.585138e-36)
(0.12194684 -0.0054280043 -6.0194227e-21 0.00079049067 3.2794397e-22 1.3458034e-37)
(0.14041587 -0.0051801491 5.1281594e-20 0.0007703485 -2.3498384e-21 8.6019948e-36)
(0.15951879 -0.0047380477 -2.587886e-20 0.00076636081 9.8315676e-22 1.9190477e-36)
(0.1785506 -0.0041108198 -9.4817576e-21 0.00078558113 2.9283801e-22 2.2926424e-37)
(0.19672968 -0.0033387612 5.2896006e-21 0.00083390833 -1.2892088e-22 6.5311633e-38)
(0.21333975 -0.002478573 1.7203067e-20 0.00091327818 -3.1581837e-22 6.2906408e-37)
(0.22778841 -0.0015984888 -8.6712162e-21 0.0010187479 1.1184743e-22 1.4875928e-37)
(0.23964215 -0.00075659362 1.6085124e-20 0.0011425949 -1.2584137e-22 4.823125e-37)
(0.24862878 2.8370777e-05 9.8184454e-20 0.0012796258 -3.0919695e-22 1.7233223e-35)
(0.25457621 0.00075601 4.7131563e-21 0.0014317938 6.2020254e-24 3.8754108e-38)
(0.25741116 0.0014202187 -2.1209212e-20 0.0016101262 -1.1552114e-22 7.7465764e-37)
(0.25727071 0.0019988609 4.6705446e-20 0.0018287033 4.4885333e-22 3.7749706e-36)
(0.25461206 0.0024462839 -3.9130722e-20 0.002106433 -5.3970653e-22 2.7086027e-36)
(0.25017716 0.0027284943 1.0798664e-19 0.002471492 1.9436538e-21 2.1458557e-35)
(0.24491165 0.0028837367 2.9703219e-20 0.0029685887 6.6589643e-22 1.718726e-36)
(0.23949795 0.0029635605 -7.9775722e-20 0.0036776634 -2.1437803e-21 1.3426346e-35)
(0.23428752 0.0030429373 1.2830348e-20 0.0046974092 4.0669236e-22 3.8204684e-37)
(0.22879109 0.0030727302 1.3652079e-20 0.0060691538 4.8958487e-22 4.9214969e-37)
(0.22185879 0.0029581029 2.5205056e-21 0.0075722507 9.8415929e-23 1.965421e-38)
(0.21291829 0.0025355121 -3.0514275e-20 0.0088085817 -1.2403986e-21 3.4530853e-36)
(0.19880943 0.001778456 5.2922645e-20 0.0096951363 2.1264354e-21 1.3088157e-35)
(0.18248797 0.00097166844 1.3957646e-20 0.010828505 5.5266696e-22 1.1729244e-36)
(0.15575449 0.00050272957 1.9495422e-20 0.012689829 8.6933896e-22 3.2396413e-36)
(2.003564e-09 -2.8621775e-08 1.995826e-25 4.0888265e-07 -2.6722853e-24 1.5833956e-38)
(2.283807e-08 -2.9724601e-07 -3.1627725e-25 3.8712373e-06 3.8652858e-24 6.2647856e-39)
(8.1217481e-08 -9.7345216e-07 -1.4414949e-25 1.1689062e-05 1.6099636e-24 4.4312115e-40)
(2.0640449e-07 -2.2678819e-06 2.0682988e-25 2.5008743e-05 -2.1103635e-24 3.9840782e-40)
(4.4417327e-07 -4.4657329e-06 -1.431821e-24 4.5161455e-05 1.3361626e-23 9.35611e-39)
(8.6716083e-07 -7.9587463e-06 -1.4723114e-25 7.3663859e-05 1.2574849e-24 5.1726129e-41)
(1.5886379e-06 -1.3275649e-05 -2.5381994e-24 0.00011220765 1.9823358e-23 8.4463678e-39)
(2.7826966e-06 -2.1118871e-05 -3.6341317e-24 0.00016263096 2.5914851e-23 9.8054694e-39)
(4.7139715e-06 -3.2408937e-05 3.8983042e-23 0.00022686428 -2.5333404e-22 6.5502279e-37)
(7.7800684e-06 -4.8333086e-05 -4.5275364e-23 0.00030684407 2.676068e-22 5.2217921e-37)
(1.2571651e-05 -7.0396362e-05 2.7982833e-23 0.00040438612 -1.5014361e-22 1.1957901e-37)
(1.9955969e-05 -0.00010046947 5.266223e-23 0.00052101195 -2.5603073e-22 2.5668487e-37)
(3.1190902e-05 -0.00014082525 -1.3348365e-22 0.00065772581 5.8698204e-22 1.0090736e-36)
(4.807734e-05 -0.00019415161 -2.1045139e-23 0.00081474596 8.356165e-23 1.5452042e-38)
(7.3157663e-05 -0.00026352476 1.0304374e-22 0.00099120528 -3.6880939e-22 2.3014376e-37)
(0.00010996667 -0.00035232388 8.9560465e-23 0.0011848524 -2.8846426e-22 1.0859055e-37)
(0.00016333755 -0.00046406815 -1.3082027e-22 0.0013918039 3.7853929e-22 1.4568387e-37)
(0.00023975893 -0.00060216291 5.9427252e-22 0.0016064197 -1.5421739e-21 1.902737e-36)
(0.00034776937 -0.00076955696 -4.3877701e-22 0.0018213878 1.0194009e-21 6.6181464e-37)
(0.00049836463 -0.0009683405 2.6985531e-22 0.0020281048 -5.6026721e-22 1.6092347e-37)
(0.00070538335 -0.001199353 -1.1247479e-21 0.0022174059 2.0831402e-21 1.8174379e-36)
(0.00098583631 -0.001461915 -3.593833e-22 0.0023806264 5.9269704e-22 1.2196076e-37)
(0.001360156 -0.0017538286 9.1426014e-22 0.0025108671 -1.3403735e-21 5.259884e-37)
(0.0018523961 -0.0020717861 -1.6653431e-21 0.0026042059 2.1667308e-21 1.1793864e-36)
(0.0024905802 -0.0024122914 -7.8777496e-22 0.0026605227 9.0810869e-22 1.8094049e-37)
(0.0033071885 -0.0027728583 1.123813e-21 0.0026836494 -1.1469637e-21 2.5859362e-37)
(0.0043388468 -0.0031526883 7.5379288e-21 0.0026806191 -6.8004316e-21 8.26245e-36)
(0.0056294135 -0.0035536475 3.9958538e-21 0.0026596055 -3.1839388e-21 1.6786967e-36)
(0.0072316407 -0.0039798011 -2.3105572e-21 0.0026283495 1.6262036e-21 4.1601711e-37)
(0.0092071078 -0.0044354409 2.865063e-21 0.0025937128 -1.7771575e-21 4.7486696e-37)
(0.011629915 -0.0049253598 -2.0453911e-21 0.0025604467 1.1190555e-21 1.8589826e-37)
(0.014586746 -0.0054538521 -1.3271743e-20 0.0025303854 6.3834466e-21 5.9762469e-36)
(0.018179551 -0.0060231069 5.0510954e-21 0.0025030493 -2.1343608e-21 6.7403377e-37)
(0.022525024 -0.0066326285 1.7081215e-20 0.0024764994 -6.3302936e-21 6.05764e-36)
(0.02775409 -0.0072786272 -6.4053365e-21 0.0024480422 2.0805922e-21 6.8212404e-37)
(0.03400952 -0.0079533548 -1.0093324e-20 0.0024147001 2.866273e-21 1.3542609e-36)
(0.041441244 -0.0086439588 1.9558906e-20 0.0023734204 -4.8515687e-21 4.123767e-36)
(0.050197866 -0.009330621 6.6580654e-21 0.0023212063 -1.440263e-21 3.8984731e-37)
(0.060412691 -0.009984172 -1.3079638e-20 0.0022553998 2.4659241e-21 1.2532031e-36)
(0.072182303 -0.01056377 -5.7710508e-21 0.0021743754 9.4611503e-22 2.0462857e-37)
(0.085536788 -0.011015639 3.0457596e-20 0.0020786186 -4.3271986e-21 4.7953347e-36)
(0.10040267 -0.011274865 -9.357051e-21 0.0019721584 1.1470926e-21 3.903827e-37)
(0.11656239 -0.011271945 -1.470565e-20 0.0018640486 1.548674e-21 8.2768279e-37)
(0.13362387 -0.010945138 -4.2324107e-20 0.001769627 3.7963831e-21 5.9577885e-36)
(0.15100905 -0.010258101 8.5916414e-20 0.0017105484 -6.4869339e-21 2.1722436e-35)
(0.16798411 -0.0092240727 -5.900788e-20 0.001712378 3.6921127e-21 9.1553367e-36)
(0.18378264 -0.0079229764 -1.5709773e-20 0.001796958 7.9934228e-22 5.8435437e-37)
(0.19771744 -0.0064724134 -6.4666355e-20 0.0019688898 2.5885887e-21 9.1741375e-36)
(0.20925798 -0.0049892151 -8.0176126e-20 0.002208391 2.4259582e-21 1.3180555e-35)
(0.21807405 -0.003577281 -4.1866341e-21 0.0024832549 9.1615499e-23 3.3859657e-38)
(0.22403969 -0.0022855579 1.8003175e-20 0.002765994 -2.3639562e-22 6.0442537e-37)
(0.22713788 -0.0011218747 -1.3304141e-19 0.0030515703 6.7649239e-22 3.248184e-35)
(0.22747442 -0.00010341023 -5.6584801e-20 0.0033598136 -1.2684201e-22 5.8493372e-36)
(0.22535153 0.00071149795 -5.7479875e-20 0.0037167434 -5.3928427e-22 6.1078415e-36)
(0.22143814 0.0012431988 -1.8497925e-20 0.0041429138 -3.0948493e-22 6.5098227e-37)
(0.21660705 0.0014487305 -1.3863563e-19 0.0046541402 -3.2781372e-21 3.8386775e-35)
(0.21190471 0.0014036441 5.2943348e-20 0.0052735376 1.6592674e-21 5.9738163e-36)
(0.20800094 0.0012485795 -1.528103e-20 0.0060584705 -5.9483627e-22 5.4605406e-37)
(0.20500106 0.0011832715 -1.1825102e-19 0.0071002942 -5.6071862e-21 3.6351199e-35)
(0.2022034 0.0012319944 -4.3726411e-20 0.0084440909 -2.4546998e-21 5.6972048e-36)
(0.19788265 0.0013172257 4.7631015e-20 0.0098457087 3.0477073e-21 8.0387574e-36)
(0.19146297 0.0012632589 1.4798646e-19 0.010868749 1.0463038e-20 9.4898778e-35)
(0.17893879 0.00090826516 -4.159815e-20 0.011472599 -3.1597343e-21 9.6794261e-36)
(0.16470186 0.00055904643 -5.8305491e-20 0.012316919 -4.8223478e-21 2.5150924e-35)
(0.13867837 0.00011104001 -2.0581717e-20 0.013718727 -2.0192189e-21 4.6142616e-36)
(7.8988497e-09 -8.0317204e-08 -1.3085633e-24 8.1668554e-07 1.2881562e-23 1.775775e-37)
(8.1626882e-08 -7.9454551e-07 4.2548298e-24 7.7346227e-06 -4.0055626e-23 3.2567817e-37)
(2.6748046e-07 -2.4994108e-06 -2.5190702e-24 2.3361004e-05 2.2628438e-23 4.2581973e-38)
(6.2566963e-07 -5.5915318e-06 3.9689816e-25 4.9997312e-05 -3.3951496e-24 5.0328305e-40)
(1.2420292e-06 -1.0586629e-05 -1.0770365e-23 9.0320289e-05 8.7622519e-23 1.9672255e-37)
(2.2410877e-06 -1.8161188e-05 1.4831531e-23 0.0001473862 -1.1457829e-22 2.106372e-37)
(3.8021988e-06 -2.9193016e-05 -2.9338613e-23 0.00022461224 2.1471428e-22 4.8478069e-37)
(6.182051e-06 -4.4808731e-05 1.7734804e-23 0.00032572222 -1.2259762e-22 1.0734461e-37)
(9.7463088e-06 -6.6439014e-05 8.5747888e-23 0.00045464221 -5.5812867e-22 1.5521396e-36)
(1.5013167e-05 -9.5878281e-05 -2.6011921e-23 0.00061533044 1.5888802e-22 8.9774322e-38)
(2.2712745e-05 -0.00013534487 -1.243449e-22 0.00081152563 7.1040163e-22 1.3027544e-36)
(3.3867049e-05 -0.00018753458 4.7441686e-23 0.0010463989 -2.5265786e-22 1.2147405e-37)
(4.9896143e-05 -0.00025565703 3.945104e-24 0.001322102 -1.951923e-23 5.4298771e-40)
(7.2756516e-05 -0.00034343904 -1.9241692e-22 0.0016392169 8.816318e-22 8.3237792e-37)
(0.00010511772 -0.00045507549 7.4713747e-22 0.001996134 -3.1596168e-21 8.1482993e-36)
(0.00015058196 -0.00059510381 -5.6833503e-22 0.0023884198 2.2110972e-21 3.0706409e-36)
(0.0002139488 -0.0007681797 -6.7017462e-24 0.0028082719 2.3907726e-23 2.7861335e-40)
(0.00030152194 -0.00097873836 4.7997843e-22 0.0032442125 -1.5649907e-21 9.3798911e-37)
(0.00042144877 -0.0012305467 -1.500784e-21 0.0036812027 4.4578666e-21 6.0396841e-36)
(0.00058407477 -0.0015261843 8.6929832e-22 0.0041013652 -2.3447085e-21 1.3426165e-36)
(0.00080228951 -0.0018665461 1.5850797e-21 0.0044854577 -3.8697814e-21 2.9785316e-36)
(0.0010918406 -0.002250514 7.8135113e-22 0.0048150887 -1.7211521e-21 4.8685819e-37)
(0.0014716024 -0.0026749867 -4.6747344e-21 0.0050754363 9.2636709e-21 1.1875611e-35)
(0.0019638179 -0.0031354519 -2.9385855e-21 0.0052579555 5.2232453e-21 3.2329983e-36)
(0.0025944785 -0.0036272351 2.2655913e-21 0.0053623176 -3.6031121e-21 1.346759e-36)
(0.0033940018 -0.0041472483 -1.5694264e-21 0.0053968794 2.2270732e-21 4.5739773e-37)
(0.004396746 -0.0046948601 6.9141133e-21 0.005377235 -8.7395122e-21 6.419169e-36)
(0.0056438591 -0.0052733799 -2.3217981e-21 0.0053219855 2.6088255e-21 5.3021159e-37)
(0.0071850288 -0.0058890089 7.2599823e-21 0.0052478094 -7.2410007e-21 3.8633531e-36)
(0.009078109 -0.0065485534 -4.7306305e-21 0.0051687391 4.1814934e-21 1.2406462e-36)
(0.011392514 -0.0072592965 3.362638e-21 0.005094489 -2.6283813e-21 4.7830838e-37)
(0.014208871 -0.0080274703 -1.4062485e-20 0.0050289508 9.7084104e-21 6.499137e-36)
(0.017621596 -0.0088564465 2.2912852e-21 0.0049712408 -1.3948735e-21 1.3571559e-37)
(0.021737928 -0.0097456274 -1.370381e-20 0.0049173884 7.3398745e-21 3.8280626e-36)
(0.026676989 -0.01068964 1.4773818e-20 0.0048617686 -6.9556785e-21 3.5646204e-36)
(0.032566853 -0.011677319 5.3254433e-21 0.004798038 -2.1997539e-21 3.7099341e-37)
(0.03953907 -0.012690012 -7.3913749e-20 0.004719507 2.6785705e-20 5.8846405e-35)
(0.047719307 -0.01369889 -2.1472998e-20 0.0046192788 6.8143394e-21 4.0823169e-36)
(0.057212421 -0.014661529 1.9677071e-20 0.0044906647 -5.4613545e-21 2.8597907e-36)
(0.068080273 -0.015518634 -2.1286223e-20 0.0043283722 5.1567344e-21 2.8122508e-36)
(0.080311903 -0.016192481 6.0175349e-21 0.0041306956 -1.2681997e-21 1.8939536e-37)
(0.093787623 -0.016589675 4.0895024e-20 0.0039028364 -7.4815558e-21 7.5533084e-36)
(0.10824187 -0.016611058 -2.0456556e-21 0.0036611209 3.2346935e-22 1.6551912e-38)
(0.12323781 -0.016170516 -1.6022552e-20 0.003436739 2.1659729e-21 8.7465535e-37)
(0.13816493 -0.015222836 8.2748901e-21 0.0032765549 -9.4140119e-22 2.1036328e-37)
(0.15229848 -0.013801479 -4.5168072e-21 0.0032374604 4.3252657e-22 5.3006772e-38)
(0.16494441 -0.012037365 -1.345056e-20 0.0033667862 1.0539961e-21 4.4535308e-37)
(0.17551178 -0.010115356 2.1476466e-19 0.0036717313 -1.3470033e-20 1.0631754e-34)
(0.18363705 -0.0082149746 -2.4812761e-20 0.0041053453 1.1871634e-21 1.333682e-36)
(0.18919025 -0.0064738089 2.3441834e-20 0.0045930287 -8.2707963e-22 1.1372538e-36)
(0.19222363 -0.00494335 -2.2316459e-19 0.0050728188 5.2053859e-21 1.0001106e-34)
(0.19286503 -0.0036247493 1.225717e-19 0.0055325126 -1.5040432e-21 2.977624e-35)
(0.19135815 -0.0025471457 1.0019736e-19 0.0060104805 -1.4340758e-22 1.9932979e-35)
(0.18815093 -0.0018006226 9.4003014e-20 0.0065536352 8.3530076e-22 1.7910528e-35)
(0.18404187 -0.0014856637 8.8110964e-20 0.00718652 1.6834508e-21 1.6346243e-35)
(0.17998113 -0.0016273387 1.33265e-19 0.0079048037 3.9269011e-21 3.9590246e-35)
(0.17693113 -0.0020772855 -2.5440909e-19 0.0086946608 -1.0305898e-20 1.5559741e-34)
(0.17534944 -0.0025865495 1.4801495e-19 0.0095767863 7.7258543e-21 5.8051279e-35)
(0.17487831 -0.0028166381 2.0969334e-19 0.010619595 1.359373e-20 1.3189643e-34)
(0.17445544 -0.0026591875 -1.4191637e-19 0.01185391 -1.1174586e-20 7.03319e-35)
(0.17173172 -0.0022035094 -4.1032507e-20 0.013026418 -3.781202e-21 7.1188268e-36)
(0.16633345 -0.0016162144 -3.1895406e-20 0.01364088 -3.3399172e-21 5.3993573e-36)
(0.15354036 -0.001357773 1.4089452e-19 0.013769617 1.6733901e-20 1.3987299e-34)
(0.13936879 -0.0011405398 8.8356264e-20 0.014107354 1.1962036e-20 7.5486085e-35)
(0.1137045 -0.0013947933 -3.0746074e-21 0.014843576 -5.0325516e-22 1.4654101e-37)
(2.1203275e-08 -1.6631143e-07 1.5281284e-24 1.3044928e-06 -1.1757548e-23 8.8045158e-38)
(2.1039587e-07 -1.6127501e-06 -1.0146975e-23 1.2362448e-05 7.6174226e-23 7.0306677e-37)
(6.6504801e-07 -4.9845005e-06 1.3244445e-23 3.7360635e-05 -9.6780793e-23 4.6737649e-37)
(1.4967138e-06 -1.0942644e-05 -7.0953043e-24 8.0012605e-05 5.0392143e-23 6.6764463e-38)
(2.8552263e-06 -2.0320454e-05 -3.4441762e-24 0.00014465105 2.3743514e-23 8.7165388e-39)
(4.9441796e-06 -3.4170317e-05 3.8644352e-23 0.0002362427 -2.581918e-22 6.4570075e-37)
(8.0392998e-06 -5.3810337e-05 -1.2503878e-23 0.00036036837 8.0792202e-23 4.1444239e-38)
(1.2512736e-05 -8.0876194e-05 -3.3436647e-23 0.00052314754 2.084002e-22 1.8698006e-37)
(1.886576e-05 -0.00011737876 -3.1952219e-24 0.0007310847 1.9154258e-23 1.1016618e-39)
(2.7771832e-05 -0.00016576291 -3.3573031e-23 0.00099081188 1.9297749e-22 7.9581144e-38)
(4.0133032e-05 -0.00022896236 5.7820622e-23 0.001308699 -3.1763562e-22 1.562302e-37)
(5.7153216e-05 -0.00031044191 -4.9234679e-23 0.0016903063 2.5761348e-22 7.5573676e-38)
(8.0431971e-05 -0.00041421506 -2.2175401e-22 0.002139662 1.1012679e-21 1.0276993e-36)
(0.00011208341 -0.00054481996 -7.8750194e-24 0.0026583659 3.6985609e-23 8.6911734e-40)
(0.00015488404 -0.00070723272 2.5200873e-22 0.0032445537 -1.1150224e-21 6.0255598e-37)
(0.00021245285 -0.00090669502 2.1737821e-22 0.0038918115 -9.0263261e-22 3.028773e-37)
(0.00028946535 -0.0011484335 -2.2761894e-22 0.0045881893 8.8348351e-22 2.2468057e-37)
(0.00039190036 -0.0014372598 2.6480541e-23 0.0053155556 -9.5679328e-23 2.0731304e-39)
(0.00052731457 -0.0017770609 6.5439747e-22 0.0060495947 -2.1920107e-21 8.5679757e-37)
(0.00070513569 -0.0021702293 9.6575303e-22 0.0067607926 -2.98619e-21 1.2732151e-36)
(0.00093696282 -0.0026171375 -1.330691e-21 0.00741668 3.7820046e-21 1.6592543e-36)
(0.0012368634 -0.003115826 -1.6099905e-21 0.0079854122 4.1880999e-21 1.6792289e-36)
(0.0016216649 -0.0036621183 2.5922186e-21 0.0084403672 -6.146241e-21 3.0370318e-36)
(0.0021112551 -0.0042503639 -3.8175827e-21 0.0087649601 8.2171983e-21 4.6427137e-36)
(0.0027289991 -0.0048749476 -7.8236029e-21 0.0089564059 1.5229411e-20 1.3908445e-35)
(0.0035025052 -0.0055324681 2.1641022e-20 0.0090270683 -3.796595e-20 7.7048647e-35)
(0.0044634728 -0.0062230397 -1.3886397e-20 0.0090026183 2.1885879e-20 2.328823e-35)
(0.0056493594 -0.0069516334 2.3821879e-20 0.0089156457 -3.3632742e-20 5.0999419e-35)
(0.007105517 -0.0077266946 -3.4219813e-20 0.0087952261 4.3172335e-20 7.9491715e-35)
(0.0088854892 -0.0085581314 4.3681948e-20 0.0086655817 -4.91244e-20 9.9049318e-35)
(0.011052309 -0.0094555499 -5.1375179e-20 0.0085436718 5.1377749e-20 1.0608413e-34)
(0.013678802 -0.01042695 9.779341e-21 0.0084369214 -8.6790143e-21 3.0168557e-36)
(0.01684955 -0.011476698 3.8127697e-20 0.008344466 -2.9960736e-20 3.6193686e-35)
(0.020659604 -0.01260379 -2.4149643e-20 0.0082598579 1.677621e-20 1.1606512e-35)
(0.025212966 -0.0138009 8.445973e-21 0.0081735298 -5.1791206e-21 1.1466153e-36)
(0.030619072 -0.01505304 2.7373539e-21 0.0080744133 -1.4805272e-21 9.8874607e-38)
(0.036986567 -0.016335391 3.7667353e-20 0.0079505937 -1.7928251e-20 1.5232278e-35)
(0.044413109 -0.017609912 1.3605877e-20 0.0077894862 -5.6949435e-21 1.6412895e-36)
(0.052969813 -0.018821121 1.5142487e-20 0.0075784377 -5.5628311e-21 1.6949827e-36)
(0.062679034 -0.019892239 1.6358399e-20 0.0073066274 -5.268294e-21 1.6838046e-36)
(0.073485638 -0.020723749 -9.0897798e-20 0.0069688035 2.5579742e-20 4.4399897e-35)
(0.085224129 -0.021197762 4.3262266e-20 0.0065714859 -1.0599184e-20 8.6741957e-36)
(0.097587893 -0.021192039 7.4974842e-21 0.0061411412 -1.5941114e-21 2.2230667e-37)
(0.11011314 -0.020606495 -9.1744858e-20 0.0057317408 1.6736025e-20 2.9919517e-35)
(0.12219438 -0.019403424 -4.9481191e-20 0.0054267123 7.6889183e-21 7.7460101e-36)
(0.1331794 -0.017658363 2.5575647e-20 0.0053272178 -3.3463772e-21 1.8824736e-36)
(0.14251696 -0.015571401 9.7375501e-20 0.0055123763 -1.0487812e-20 2.4934635e-35)
(0.14981247 -0.013391758 -4.3790589e-20 0.0059834933 3.8301134e-21 4.7203823e-36)
(0.15491541 -0.011344169 1.3153134e-19 0.0066505366 -8.8966704e-21 4.0207942e-35)
(0.1578823 -0.0095682649 7.2739885e-20 0.0073770278 -3.6719387e-21 1.183058e-35)
(0.15887503 -0.0080886803 1.0114598e-19 0.0080587972 -3.5485917e-21 2.2371151e-35)
(0.15808952 -0.0068858605 2.7134961e-19 0.0086849141 -5.35273e-21 1.5992474e-34)
(0.15583616 -0.0060030165 -2.0738854e-19 0.0093276033 1.1746937e-21 9.4517845e-35)
(0.15264914 -0.0055649544 6.6297205e-20 0.010063978 6.1387011e-22 9.9216488e-36)
(0.14938881 -0.0056822765 -1.1027959e-19 0.010920828 -2.4111884e-21 2.8855385e-35)
(0.14697718 -0.0063368044 -1.0048944e-19 0.011864758 -3.6419473e-21 2.5620663e-35)
(0.14614252 -0.0072772491 -3.7279176e-20 0.012831705 -1.9254574e-21 3.8564431e-36)
(0.14695951 -0.0081181866 -3.1870968e-19 0.01378661 -2.119356e-20 3.1469647e-34)
(0.14847045 -0.008390237 -7.9391295e-20 0.014768702 -6.6757234e-21 2.2452936e-35)
(0.14919814 -0.0079233759 1.6578358e-19 0.015785521 1.7257187e-20 1.1619854e-34)
(0.14628895 -0.0068909097 5.6067066e-20 0.016588777 7.0433123e-21 1.6509306e-35)
(0.13989622 -0.0054290436 -3.6825831e-20 0.01659042 -5.3905206e-21 9.1987513e-36)
(0.12537432 -0.0043794998 -6.4748664e-20 0.016107194 -1.1025273e-20 3.9325529e-35)
(0.10987922 -0.0036971974 -8.4093692e-20 0.015785375 -1.7039479e-20 9.5357312e-35)
(0.085522834 -0.0037476575 4.9439567e-21 0.015754049 1.2348379e-21 5.546103e-37)
(4.4710568e-08 -2.8398814e-07 6.9500593e-24 1.8038084e-06 -4.3584132e-23 8.1738755e-37)
(4.3488379e-07 -2.7277555e-06 4.846067e-24 1.7109612e-05 -2.995067e-23 7.3762334e-38)
(1.3497065e-06 -8.3573674e-06 -6.1968652e-24 5.1749683e-05 3.7669696e-23 4.8373238e-38)
(2.9769486e-06 -1.8171953e-05 -3.2015947e-23 0.0001109302 1.9125074e-22 6.5973015e-37)
(5.5588357e-06 -3.3404477e-05 2.3279026e-23 0.00020075139 -1.3652152e-22 1.9811997e-37)
(9.4088509e-06 -5.5569855e-05 -4.3170245e-23 0.00032824375 2.4826422e-22 4.1063534e-37)
(1.4931676e-05 -8.6514098e-05 2.3583114e-23 0.00050135928 -1.3277761e-22 7.6924723e-38)
(2.2648009e-05 -0.00012846497 6.9875169e-24 0.00072889014 -3.8439924e-23 4.3671263e-39)
(3.3226446e-05 -0.00018408392 -4.8658525e-23 0.0010202833 2.6095871e-22 1.4004691e-37)
(4.7523431e-05 -0.00025651311 -1.2799675e-22 0.0013853141 6.6754902e-22 6.5126139e-37)
(6.6633311e-05 -0.00034941105 -7.8088393e-24 0.0018335764 3.9499423e-23 1.6433373e-39)
(9.1950504e-05 -0.00046696693 3.0868587e-22 0.0023737489 -1.5098585e-21 1.7663174e-36)
(0.00012524614 -0.00061388036 -5.1484659e-22 0.0030126042 2.4276503e-21 3.3883459e-36)
(0.00016876172 -0.00079528989 1.0004265e-21 0.0037537489 -4.5325212e-21 8.8594155e-36)
(0.00022532212 -0.001016631 -3.1430698e-22 0.0045961305 1.3633936e-21 6.070998e-37)
(0.00029847036 -0.0012834035 8.0235838e-22 0.005532404 -3.3198537e-21 2.7510017e-36)
(0.00039262569 -0.0016008327 -1.1646563e-21 0.0065473649 4.5782176e-21 4.0388211e-36)
(0.00051326612 -0.0019734216 9.0763015e-22 0.0076167575 -3.3753988e-21 1.7116275e-36)
(0.00066713542 -0.0024044146 -1.7183846e-22 0.0087069073 6.0189426e-22 4.2952188e-38)
(0.00086247443 -0.0028952349 -8.3439621e-22 0.0097757008 2.7399933e-21 7.1037079e-37)
(0.0011092769 -0.00344501 2.4224663e-21 0.010775392 -7.4221682e-21 4.2200307e-36)
(0.0014195722 -0.0040503612 -4.0707456e-21 0.011657484 1.1580266e-20 8.4535858e-36)