/*--------------------------------*- C++ -*----------------------------------*\
  =========                 |
  \\      /  F ield         | OpenFOAM: The Open Source CFD Toolbox
   \\    /   O peration     | Website:  https://openfoam.org
    \\  /    A nd           | Version:  13
     \\/     M anipulation  |
\*---------------------------------------------------------------------------*/
FoamFile
{
    format      ascii;
    class       volVectorField;
    location    "30.20398";
    object      U;
}
// * * * * * * * * * * * * * * * * * * * * * * * * * * * * * * * * * * * * * //

dimensions      [0 1 -1 0 0 0 0];

internalField   nonuniform List<vector> 
17140
(
(1.4304517e-06 -0.00011243829 2.5050731e-23)
(2.9315809e-06 -0.00034923681 2.7748324e-24)
(2.3716078e-06 -0.00061171563 -1.8311332e-22)
(-1.0055575e-06 -0.00090207222 2.0123362e-22)
(-8.1000233e-06 -0.0012226103 -2.3514997e-23)
(-2.0074555e-05 -0.0015757636 7.6926537e-23)
(-3.8395807e-05 -0.0019641572 1.2943378e-22)
(-6.4879751e-05 -0.0023904956 -6.3122734e-23)
(-0.00010177582 -0.0028575572 -2.0644641e-22)
(-0.0001518525 -0.0033681666 -5.0578601e-22)
(-0.000218503 -0.0039251495 7.4884128e-22)
(-0.00030586471 -0.0045312749 -6.6614694e-22)
(-0.00041895751 -0.0051891834 -1.0178288e-22)
(-0.00056383874 -0.0059012972 5.7370409e-22)
(-0.00074777509 -0.006669709 -6.3504525e-23)
(-0.00097942813 -0.0074960455 5.0086023e-22)
(-0.0012690488 -0.0083812998 -1.8508464e-23)
(-0.001628672 -0.0093256285 4.1704008e-24)
(-0.0020722987 -0.010328105 2.9076995e-22)
(-0.0026160454 -0.011386423 -3.7340316e-22)
(-0.0032782363 -0.01249655 1.7792778e-22)
(-0.004079399 -0.013652312 -3.3419539e-23)
(-0.0050421192 -0.014844936 -2.4293698e-22)
(-0.0061906926 -0.016062539 2.3802719e-22)
(-0.0075505014 -0.017289629 3.7156745e-22)
(-0.0091470294 -0.01850668 -2.9218378e-22)
(-0.01100443 -0.019689949 -1.4038228e-21)
(-0.013143573 -0.020811839 -1.6179058e-22)
(-0.015579572 -0.021842278 1.3836215e-21)
(-0.018318944 -0.022751839 3.1533807e-22)
(-0.021356912 -0.023517237 1.0920483e-21)
(-0.024675796 -0.024128856 -1.38813e-21)
(-0.028245875 -0.024597374 3.4790504e-22)
(-0.032029641 -0.024954212 1.5832144e-22)
(-0.0359884 -0.025243145 1.4827745e-21)
(-0.040087892 -0.025508123 -6.1564587e-22)
(-0.044300127 -0.025785554 8.8284226e-22)
(-0.048602078 -0.026103659 5.7065955e-22)
(-0.052973756 -0.02648591 2.5152462e-22)
(-0.057397274 -0.026955112 -7.3860333e-22)
(-0.061857264 -0.027536583 -1.3654259e-21)
(-0.066342373 -0.028260185 -1.2235082e-21)
(-0.070847996 -0.029161133 -5.3140392e-22)
(-0.07537889 -0.030279586 2.5915017e-21)
(-0.079953295 -0.031659354 1.9074825e-21)
(-0.08460955 -0.033342935 -4.7348615e-22)
(-0.089400885 -0.035361161 3.2550336e-21)
(-0.094397358 -0.0377267 1.1187625e-21)
(-0.099686565 -0.040421988 -1.1533977e-21)
(-0.10537112 -0.043371772 -2.8538642e-21)
(-0.11155477 -0.046405748 1.7750834e-21)
(-0.11835545 -0.049191573 1.1295635e-21)
(-0.12585553 -0.051134131 -2.9664196e-21)
(-0.13417271 -0.051198867 -1.4076388e-21)
(-0.14320687 -0.047712004 -1.0082774e-21)
(-0.15288087 -0.03811556 7.8947582e-22)
(-0.16215851 -0.018883816 -2.1073598e-21)
(-0.1695431 0.014443077 -1.7337798e-21)
(-0.17092179 0.064902184 -4.115342e-22)
(-0.16208557 0.13001357 1.0153662e-21)
(-0.13308432 0.19608896 7.0586519e-22)
(-0.093247017 0.23708299 2.3526112e-21)
(-0.03932339 0.22644359 3.0966647e-22)
(0.0063904935 0.13162527 -2.7702013e-21)
(0.10854795 -0.040067076 1.7064721e-21)
(3.1816016e-06 -7.9751329e-05 -7.1352545e-24)
(8.310547e-06 -0.00024801013 9.6088138e-22)
(1.1809273e-05 -0.00043476978 -8.5486415e-22)
(1.2956383e-05 -0.00064149779 2.329559e-22)
(1.0613381e-05 -0.00086986915 4.8106948e-22)
(3.9264233e-06 -0.0011217675 -9.1879663e-22)
(-8.5099699e-06 -0.0013990576 9.5711961e-22)
(-2.8760369e-05 -0.0017035852 -8.4169858e-23)
(-5.8903726e-05 -0.0020373463 2.6253071e-22)
(-0.00010172515 -0.0024023951 4.4524451e-24)
(-0.0001606282 -0.0028008142 8.7411525e-22)
(-0.00023976675 -0.0032346825 -1.3860939e-21)
(-0.00034418706 -0.0037060365 -1.1422054e-22)
(-0.00047999139 -0.0042168221 1.1237735e-21)
(-0.00065451045 -0.004768834 -3.4366347e-22)
(-0.00087649321 -0.0053636407 -2.1712124e-22)
(-0.0011563045 -0.0060024908 1.3692349e-21)
(-0.0015061237 -0.0066861954 -4.4251034e-21)
(-0.0019401294 -0.0074149817 2.7441081e-21)
(-0.0024746532 -0.0081883109 -3.2508364e-21)
(-0.0031282727 -0.0090046526 4.7389483e-21)
(-0.0039218094 -0.0098612121 -1.1442948e-21)
(-0.0048781831 -0.010753608 -4.6360249e-22)
(-0.0060220618 -0.011675508 1.4889904e-21)
(-0.0073792331 -0.012618255 -5.2514036e-21)
(-0.0089756129 -0.013570537 -7.6858164e-22)
(-0.0108358 -0.014518224 3.8964997e-21)
(-0.012981106 -0.015444572 -4.2772325e-21)
(-0.015427052 -0.016331133 5.7376905e-22)
(-0.018180503 -0.01715977 5.493921e-21)
(-0.021236917 -0.017916143 -5.5322765e-22)
(-0.024578717 -0.018594268 -4.1146781e-21)
(-0.028176165 -0.019200309 -1.0186e-22)
(-0.031991696 -0.019752592 2.827319e-21)
(-0.035986629 -0.020276673 -3.0030873e-21)
(-0.040126809 -0.020798611 1.2865279e-21)
(-0.04438448 -0.021341032 -1.4368557e-21)
(-0.048737012 -0.021923096 -4.3796685e-21)
(-0.053164944 -0.022562615 -9.4739301e-22)
(-0.057651066 -0.023278477 -3.5979854e-21)
(-0.062180853 -0.024092566 4.5175703e-21)
(-0.066743975 -0.02503102 4.1169823e-21)
(-0.071337029 -0.026124754 7.033182e-22)
(-0.075966031 -0.027408892 -5.6310064e-21)
(-0.080650427 -0.028921268 2.6859782e-21)
(-0.085429516 -0.030698994 9.4129487e-22)
(-0.090356284 -0.032770453 -5.1171371e-22)
(-0.095498209 -0.035146588 -1.6125666e-21)
(-0.10093619 -0.037809358 7.991775e-22)
(-0.10675949 -0.040686685 -1.4565918e-21)
(-0.11304726 -0.043614304 -8.8816034e-21)
(-0.11987683 -0.046269534 -4.3396102e-22)
(-0.12726516 -0.048071525 1.9520554e-21)
(-0.13523402 -0.048017664 -4.2902425e-21)
(-0.14355177 -0.04449537 3.6822117e-21)
(-0.15197586 -0.035073789 -1.0340123e-20)
(-0.15930016 -0.016457532 -2.8135974e-21)
(-0.16413154 0.015441598 7.9273795e-21)
(-0.16240174 0.063120353 -1.2705682e-21)
(-0.15127785 0.12379405 -1.41863e-21)
(-0.12132271 0.18530226 -2.4463178e-22)
(-0.081190409 0.22312052 3.1330083e-21)
(-0.024629862 0.21148547 -5.840955e-21)
(0.032160734 0.10969171 -2.4190037e-21)
(0.1633915 -0.073700044 -2.4001595e-21)
(3.1009385e-06 -4.6229107e-05 -3.9310584e-22)
(8.0808263e-06 -0.00014419831 2.9049365e-22)
(1.1454657e-05 -0.00025341182 7.7243182e-23)
(1.2500398e-05 -0.00037479662 -7.3210622e-23)
(1.0036744e-05 -0.00050927785 3.5467109e-22)
(3.2274946e-06 -0.00065768739 2.6385057e-23)
(-9.3343854e-06 -0.00082105676 3.3664102e-22)
(-2.9740619e-05 -0.0010006601 3.6246035e-22)
(-6.0058683e-05 -0.0011976867 -2.9590009e-21)
(-0.00010308013 -0.001413398 2.6387891e-21)
(-0.00016221648 -0.0016491099 -1.2608731e-21)
(-0.00024162795 -0.001906189 -1.844161e-21)
(-0.00034636675 -0.002186049 3.6481714e-21)
(-0.00048254004 -0.0024901443 4.5043882e-22)
(-0.00065748171 -0.0028199629 -1.7318847e-21)
(-0.00087994117 -0.003177014 -1.1851751e-21)
(-0.0011602797 -0.0035628102 1.3664826e-21)
(-0.0015106677 -0.0039788387 -4.9122052e-21)
(-0.001945268 -0.0044265175 2.8784543e-21)
(-0.0024803881 -0.0049071285 -1.4098432e-21)
(-0.0031345717 -0.0054217208 4.6983673e-21)
(-0.0039285964 -0.0059709751 1.2064555e-21)
(-0.0048853278 -0.0065550249 -2.4797027e-21)
(-0.0060293715 -0.0071732354 3.673771e-21)
(-0.0073864484 -0.0078239539 1.4232033e-21)
(-0.0089824095 -0.0085042726 -1.6773792e-21)
(-0.010841801 -0.009209875 -9.3589809e-21)
(-0.012985905 -0.0099350847 -4.1579662e-21)
(-0.015430264 -0.01067327 2.0305312e-21)
(-0.018181837 -0.011417758 -2.1323161e-21)
(-0.021236302 -0.012163255 1.2946387e-21)
(-0.024576484 -0.012907419 7.1435246e-21)
(-0.028173247 -0.013651793 -2.3089936e-21)
(-0.031989756 -0.014401379 -6.6243645e-21)
(-0.035988056 -0.015163194 2.1023301e-21)
(-0.040134623 -0.015945088 2.8163551e-21)
(-0.044402187 -0.016755609 -4.6636288e-21)
(-0.048768468 -0.017604619 -1.3700914e-21)
(-0.053214297 -0.01850407 2.3517675e-21)
(-0.05772275 -0.019468741 9.2019871e-22)
(-0.062279617 -0.020516937 -4.3635275e-21)
(-0.066874844 -0.021670986 1.2264979e-21)
(-0.071505244 -0.022957427 1.7803479e-21)
(-0.07617679 -0.024406371 4.7942381e-21)
(-0.080908593 -0.026049806 -9.2345706e-21)
(-0.085738413 -0.027919867 6.0738765e-21)
(-0.090715489 -0.030043518 1.5564098e-21)
(-0.095900485 -0.032431532 6.2721545e-21)
(-0.10136148 -0.035067841 7.64147e-21)
(-0.10716574 -0.037887271 3.9591161e-22)
(-0.11335611 -0.040737064 -1.6559207e-21)
(-0.11995387 -0.043311731 1.2494925e-20)
(-0.12689066 -0.045054478 5.3568726e-21)
(-0.13406858 -0.045005617 5.5368342e-21)
(-0.14109858 -0.041623159 1.7685743e-21)
(-0.14756809 -0.032612155 1.3798153e-20)
(-0.1520723 -0.014908549 -5.0915153e-21)
(-0.15317601 0.0152474 1.2643872e-21)
(-0.14702503 0.060265046 1.1729641e-20)
(-0.13165148 0.11682478 4.4287571e-21)
(-0.097181782 0.17421823 -4.7893685e-21)
(-0.053368699 0.20906641 -1.6591647e-20)
(0.010560857 0.19535162 5.1067551e-21)
(0.089336352 0.083795004 9.8984153e-21)
(0.25942093 -0.11073612 3.7607815e-21)
(1.1204666e-06 -1.2483499e-05 1.3171938e-21)
(2.0534506e-06 -3.9683989e-05 -2.0956494e-21)
(9.3927781e-07 -7.0701416e-05 7.5757477e-22)
(-2.9929105e-06 -0.00010570531 -8.2328804e-23)
(-1.0657152e-05 -0.00014493165 1.6272139e-21)
(-2.3230429e-05 -0.000188663 -1.6828373e-21)
(-4.2197111e-05 -0.00023714869 2.5515619e-21)
(-6.9393706e-05 -0.00029070905 -1.1995429e-21)
(-0.00010708859 -0.00034972292 -4.5575696e-21)
(-0.00015807024 -0.00041463322 1.094619e-21)
(-0.00022575212 -0.00048596458 4.1644396e-21)
(-0.0003142914 -0.00056434683 -1.2692049e-21)
(-0.00042872575 -0.00065054519 -8.4533793e-23)
(-0.00057512658 -0.00074549762 3.3073196e-21)
(-0.00076076831 -0.00085035995 -1.0314367e-20)
(-0.00099431085 -0.00096655839 6.3077997e-21)
(-0.0012859901 -0.0010958479 5.9926516e-23)
(-0.0016478084 -0.0012403734 -3.4532964e-21)
(-0.0020937111 -0.0014027295 8.7108141e-21)
(-0.0026397325 -0.0015860103 -4.0785634e-21)
(-0.0033040825 -0.0017938423 -6.0296239e-21)
(-0.0041071418 -0.0020303882 -2.418349e-21)
(-0.0050713162 -0.0023003122 1.1828698e-20)
(-0.0062206945 -0.0026087009 6.1122492e-21)
(-0.0075804365 -0.002960943 -3.8997221e-21)
(-0.0091758098 -0.0033625825 2.249315e-21)
(-0.011030787 -0.0038191774 -8.3159723e-21)
(-0.013166131 -0.0043361944 2.3583124e-21)
(-0.015596991 -0.0049189337 -6.2651242e-21)
(-0.01833016 -0.0055723505 3.4819333e-21)
(-0.021361506 -0.0063004545 -2.1150691e-21)
(-0.024674522 -0.0071049128 7.5643558e-21)
(-0.028241257 -0.0079830652 -1.051613e-21)
(-0.03202642 -0.008926883 5.3613585e-21)
(-0.035993593 -0.0099248243 -4.9186823e-21)
(-0.040110451 -0.010966206 -1.5150198e-21)
(-0.044350459 -0.012045087 1.7997861e-20)
(-0.048691675 -0.013161644 4.5287619e-21)
(-0.053114998 -0.014321673 -3.6355692e-21)
(-0.057603371 -0.015535646 3.4950267e-21)
(-0.062142267 -0.016818139 -8.895828e-22)
(-0.066721158 -0.018187571 -5.5344647e-21)
(-0.071336115 -0.019666064 2.5719804e-22)
(-0.07599175 -0.021278751 1.8811902e-21)
(-0.080705306 -0.023052007 -9.2987013e-22)
(-0.085510495 -0.025013749 4.7237702e-22)
(-0.090449346 -0.02719035 1.3873079e-21)
(-0.095571467 -0.029594254 -2.1784978e-20)
(-0.10092615 -0.03221428 2.4742577e-21)
(-0.10655018 -0.034996344 -2.3199478e-21)
(-0.11243866 -0.037805092 2.2017985e-20)
(-0.11854162 -0.040360342 -1.2157684e-20)
(-0.12468571 -0.042139333 -9.9684896e-21)
(-0.13062948 -0.042235418 -9.4411533e-21)
(-0.1358021 -0.039181406 -8.9449134e-21)
(-0.13960493 -0.030817541 -1.376129e-20)
(-0.14045229 -0.014279581 2.6665306e-20)
(-0.13692814 0.013990391 -1.5522562e-20)
(-0.12546272 0.056193959 -2.2095451e-20)
(-0.10311697 0.10868484 1.4606266e-20)
(-0.060148074 0.16236489 4.560838e-21)
(-0.0079634309 0.19435724 4.0027999e-21)
(0.070247816 0.17648661 -2.226471e-20)
(0.18692421 0.0524564 -1.9416797e-20)
(0.39395723 -0.14870315 7.2263278e-22)
(-2.7618064e-06 2.0984621e-05 -9.2829084e-22)
(-9.9047964e-06 6.3981011e-05 3.0817878e-21)
(-1.9855159e-05 0.0001104997 -2.5120192e-21)
(-3.3444323e-05 0.00016103522 9.4912283e-22)
(-5.1649517e-05 0.00021610275 3.4282741e-22)
(-7.5711101e-05 0.00027621905 -2.9490716e-21)
(-0.00010717339 0.00034189613 7.4654432e-22)
(-0.00014792512 0.00041362911 1.5846644e-21)
(-0.0002002794 0.00049187465 1.2149448e-22)
(-0.00026705698 0.00057702273 1.0316546e-21)
(-0.00035168667 0.00066935806 -1.4434091e-21)
(-0.0004583184 0.00076901022 1.0021017e-21)
(-0.00059195316 0.00087588949 3.6878458e-21)
(-0.00075858823 0.00098960704 1.0737173e-22)
(-0.00096537715 0.0011093773 -2.8073178e-21)
(-0.0012208017 0.001233902 -1.9832e-21)
(-0.0015348511 0.0013612361 1.7010978e-21)
(-0.0019192 0.0014886373 -1.6220549e-22)
(-0.0023873736 0.0016124038 -3.2858521e-21)
(-0.0029548816 0.0017277073 -3.9804827e-21)
(-0.0036392968 0.0018284313 4.5103479e-21)
(-0.0044602443 0.001907028 4.5017752e-21)
(-0.0054392576 0.0019544076 -6.0015095e-21)
(-0.0065994454 0.0019598735 7.3521739e-21)
(-0.0079649007 0.0019111111 1.2603055e-20)
(-0.0095597713 0.0017942377 -2.9343397e-20)
(-0.011406912 0.0015939206 1.5948264e-20)
(-0.013526061 0.0012936123 -2.331096e-20)
(-0.01593154 0.00087607024 2.8680428e-20)
(-0.01862967 0.00032454964 -3.1460184e-20)
(-0.021616422 -0.00037467783 3.1852247e-20)
(-0.024876178 -0.0012280191 -5.2174724e-21)
(-0.028382745 -0.0022295526 -1.7482324e-20)
(-0.032103192 -0.0033590423 9.489499e-21)
(-0.036003466 -0.0045867372 -2.8390849e-21)
(-0.040053046 -0.0058832077 -7.8849582e-22)
(-0.04422642 -0.0072274907 -9.367318e-21)
(-0.048501972 -0.0086095445 -2.9451016e-21)
(-0.052860395 -0.010028604 -2.8795735e-21)
(-0.057284055 -0.011490577 -2.7742412e-21)
(-0.061757533 -0.01300613 1.3934643e-20)
(-0.066269078 -0.014589641 -6.0806873e-21)
(-0.070812971 -0.016258816 -9.7166564e-22)
(-0.075391187 -0.018033909 1.1267094e-20)
(-0.080017382 -0.019935935 5.7777858e-21)
(-0.084718904 -0.021989493 -2.8792837e-21)
(-0.089527102 -0.024221445 -1.0623485e-20)
(-0.094476001 -0.026647672 4.6897015e-21)
(-0.09959019 -0.029265217 -1.3877911e-20)
(-0.1048674 -0.032035766 -7.6151648e-21)
(-0.11024311 -0.034847791 -1.0591012e-20)
(-0.11558018 -0.037455009 -2.8446763e-20)
(-0.12057856 -0.039378869 2.193479e-20)
(-0.12482551 -0.039774528 -7.0416199e-21)
(-0.12754919 -0.037252279 1.1929291e-20)
(-0.12790805 -0.029769728 1.1148367e-20)
(-0.12416307 -0.014615201 3.7016814e-21)
(-0.11508004 0.01154581 3.4769853e-20)
(-0.09607331 0.050675754 9.0196251e-21)
(-0.062637303 0.098850593 -1.9334071e-20)
(-0.0080760317 0.14930164 -6.4878375e-21)
(0.056892996 0.17825089 5.4060505e-21)
(0.15812436 0.15290056 1.1656015e-20)
(0.32174414 0.017430507 2.3048777e-20)
(0.54884725 -0.18305493 -1.1934389e-21)
(-8.4867194e-06 5.3594766e-05 -2.8317467e-21)
(-2.7642753e-05 0.00016498169 -9.9947421e-22)
(-5.0673488e-05 0.00028707744 8.0899873e-22)
(-7.8611147e-05 0.00042103216 2.9870506e-21)
(-0.00011248577 0.00056808732 -1.6363132e-21)
(-0.00015363282 0.00072951854 2.3545042e-21)
(-0.00020368275 0.00090663225 -1.0184354e-21)
(-0.00026460305 0.0011007456 -2.4250079e-22)
(-0.00033877167 0.0013131545 1.3717967e-21)
(-0.00042905667 0.00154509 2.9548758e-21)
(-0.0005389089 0.0017976605 1.4852322e-22)
(-0.00067246693 0.0020717764 -4.8503631e-21)
(-0.00083467696 0.0023680532 6.7041742e-21)
(-0.0010314263 0.0026866912 -1.081221e-20)
(-0.0012696898 0.0030273271 2.8215009e-21)
(-0.0015576867 0.0033888577 -5.9856762e-21)
(-0.0019050432 0.0037692313 7.2207529e-21)
(-0.0023229531 0.0041652117 -4.6784171e-21)
(-0.0028243251 0.0045721146 7.3618966e-22)
(-0.0034239011 0.0049835271 2.9774422e-21)
(-0.0041383211 0.0053910179 -7.2088178e-21)
(-0.0049861046 0.0057838564 1.0123788e-20)
(-0.0059875076 0.0061487559 -1.0949315e-20)
(-0.0071642012 0.0064696628 -1.8728724e-21)
(-0.0085387087 0.0067276096 1.8232415e-20)
(-0.010133526 0.0069006569 -1.8297573e-20)
(-0.011969846 0.0069639691 1.1797779e-20)
(-0.014065844 0.0068901457 -1.3128133e-20)
(-0.016434536 0.0066501141 -1.2473763e-21)
(-0.019081421 0.0062152194 -7.7005328e-22)
(-0.022002416 0.0055614998 5.0011378e-21)
(-0.025182929 0.0046767579 -3.3634372e-22)
(-0.028598998 0.003568667 1.7981057e-20)
(-0.032220805 0.0022681805 -4.6930372e-21)
(-0.036017493 0.00082243517 -1.3549135e-20)
(-0.039960993 -0.00072032064 6.0561538e-21)
(-0.044027141 -0.002323478 -4.7736113e-21)
(-0.048194647 -0.0039660705 4.6403948e-21)
(-0.052443772 -0.0056402204 2.5041695e-20)
(-0.056755892 -0.0073468861 -1.3546011e-20)
(-0.061114092 -0.0090925996 -3.2782741e-21)
(-0.065504584 -0.010887614 1.8489277e-20)
(-0.069918741 -0.012745224 -1.0493177e-21)
(-0.074354625 -0.014680913 -2.2628693e-21)
(-0.078820629 -0.016710698 -2.4987277e-20)
(-0.083334974 -0.018856684 -5.8486632e-21)
(-0.087915 -0.021147664 9.3298574e-21)
(-0.092574544 -0.02360469 9.6420892e-21)
(-0.097306971 -0.02623665 1.3858227e-20)
(-0.10206176 -0.029026181 1.7236682e-20)
(-0.10670174 -0.031892501 1.0536915e-20)
(-0.11098433 -0.034632684 1.649222e-20)
(-0.11445589 -0.036823034 -5.5547265e-21)
(-0.11649453 -0.03768397 3.401261e-20)
(-0.11609763 -0.035914223 2.0910407e-21)
(-0.11206572 -0.02955552 1.6833213e-21)
(-0.10249229 -0.015927852 5.6433894e-22)
(-0.085921674 0.0077260194 -3.7488584e-20)
(-0.054490654 0.043338081 -1.311237e-20)
(-0.0063236546 0.087368738 1.8892922e-20)
(0.06016502 0.13462339 2.5793405e-20)
(0.14138055 0.15964997 1.2897803e-20)
(0.27373363 0.12435927 4.707197e-21)
(0.47758807 -0.018554494 -3.4221078e-20)
(0.7085423 -0.20920721 7.7874106e-21)
(-1.5992388e-05 8.4728966e-05 5.3566842e-22)
(-5.0766154e-05 0.00026143491 1.7023843e-21)
(-9.0927571e-05 0.00045572326 -4.1086228e-21)
(-0.00013760676 0.00066940542 1.5266008e-22)
(-0.00019196609 0.00090442536 2.0000489e-21)
(-0.00025546001 0.0011628031 8.8147652e-22)
(-0.00032983209 0.0014466268 6.5079314e-22)
(-0.00041715301 0.0017580263 -1.2821853e-21)
(-0.00051988792 0.0020991316 6.6363619e-21)
(-0.00064096859 0.0024720161 -5.0061406e-21)
(-0.00078387712 0.0028786206 2.4220665e-22)
(-0.00095274003 0.003320655 3.0277962e-21)
(-0.0011524352 0.0037994712 -1.1320896e-20)
(-0.0013887099 0.0043159052 1.1275914e-20)
(-0.0016683101 0.0048700816 -1.5003641e-21)
(-0.0019991173 0.0054611798 -9.2768543e-21)
(-0.0023902896 0.0060871568 8.7117994e-21)
(-0.0028523995 0.0067444276 -3.0390849e-21)
(-0.0033975588 0.0074275072 5.8930901e-21)
(-0.0040395146 0.0081286182 -7.5427194e-21)
(-0.0047936976 0.0088372782 -1.4116483e-20)
(-0.0056771916 0.0095398817 1.3915e-20)
(-0.0067085897 0.010219299 2.0286256e-20)
(-0.007907687 0.010854514 -3.8889005e-20)
(-0.0092949504 0.011420339 3.0958434e-20)
(-0.010890697 0.011887228 -1.7821392e-20)
(-0.012713913 0.012221294 4.5482518e-21)
(-0.014780668 0.012384682 -1.0646308e-20)
(-0.017102169 0.012336745 1.0758928e-20)
(-0.019682676 0.012036881 1.4322465e-20)
(-0.022517794 0.011450325 -9.3525134e-21)
(-0.02559394 0.010557764 -1.5207022e-20)
(-0.02888969 0.0093665872 1.2906679e-21)
(-0.032378959 0.0079163055 5.1550562e-22)
(-0.036034872 0.0062700506 8.8673429e-21)
(-0.039832517 0.0044946992 -3.6979009e-21)
(-0.043749495 0.0026431728 -1.3000877e-20)
(-0.047764938 0.00074826372 -6.3294917e-21)
(-0.051858478 -0.0011743017 9.3873068e-21)
(-0.056010059 -0.0031200692 -7.2320957e-21)
(-0.060200608 -0.005091188 6.0949948e-21)
(-0.064413427 -0.0070936798 -1.9807031e-21)
(-0.068635811 -0.0091364079 -7.7136818e-21)
(-0.072860554 -0.011230153 1.869219e-20)
(-0.077089002 -0.013386475 1.120463e-20)
(-0.081327059 -0.015625934 7.4336947e-21)
(-0.085574646 -0.017980382 -2.3748443e-20)
(-0.089820422 -0.020478227 -1.5606666e-20)
(-0.094018955 -0.02314399 -1.8471039e-20)
(-0.098060786 -0.025986837 -3.2442747e-20)
(-0.10172054 -0.028964453 1.1186855e-20)
(-0.10462753 -0.03192787 -2.4084013e-21)
(-0.10613827 -0.034520656 -1.8488714e-20)
(-0.10536847 -0.036031908 -5.313262e-20)
(-0.10094745 -0.035256002 -3.380718e-20)
(-0.091407489 -0.030292958 -1.2626483e-20)
(-0.074328138 -0.018579051 -3.4719248e-20)
(-0.046423499 0.0019144782 2.2308168e-20)
(0.00077339541 0.033545053 -1.5021487e-21)
(0.062743019 0.074431243 -3.0073709e-20)
(0.14051455 0.11878452 -1.9713855e-20)
(0.24357479 0.13783163 -1.0073567e-21)
(0.40999209 0.092285043 4.262623e-20)
(0.64361595 -0.05341662 -5.3742616e-21)
(0.86287886 -0.22527698 5.891849e-21)
(-2.5069893e-05 0.00011378506 2.1190175e-21)
(-7.8742069e-05 0.00035148353 -1.4294034e-21)
(-0.00013964159 0.0006132171 1.9307515e-21)
(-0.00020901921 0.00090143009 1.0973181e-21)
(-0.00028819885 0.0012187399 -3.0617028e-21)
(-0.00037878144 0.0015678841 -2.8578796e-21)
(-0.0004826503 0.0019517079 2.932002e-21)
(-0.00060200436 0.0023731331 -3.5285714e-22)
(-0.00073941824 0.0028351078 -8.1723309e-23)
(-0.00089790531 0.0033405392 -5.8036286e-21)
(-0.0010809906 0.0038922015 6.357738e-22)
(-0.001292792 0.0044926174 1.1694056e-20)
(-0.0015381111 0.0051439051 -9.3456946e-21)
(-0.0018225332 0.0058475858 3.2153507e-22)
(-0.0021525354 0.0066043469 6.2556581e-21)
(-0.0025355991 0.0074137555 5.3772051e-22)
(-0.0029803254 0.0082739182 -1.3664663e-21)
(-0.0034965448 0.0091810858 -6.1493826e-21)
(-0.004095414 0.010129205 1.1246228e-20)
(-0.0047894857 0.011109421 -1.9733053e-20)
(-0.0055927333 0.01210955 4.2427479e-21)
(-0.0065205068 0.013113522 -3.109919e-21)
(-0.0075893844 0.014100843 2.5421841e-21)
(-0.0088168791 0.015046074 -1.1021382e-22)
(-0.010220945 0.0159184 1.4952835e-20)
(-0.01181922 0.016681305 1.4824141e-20)
(-0.013627951 0.017292489 -2.9172329e-20)
(-0.015660557 0.01770423 -4.8279375e-21)
(-0.017925908 0.017864745 1.6648126e-20)
(-0.020426542 0.017721565 5.8469194e-21)
(-0.023157374 0.017228562 1.3121106e-20)
(-0.02610563 0.01635778 -1.4513836e-20)
(-0.029252497 0.01511381 -6.2159529e-21)
(-0.032576046 0.013541858 1.3991468e-20)
(-0.036054083 0.011718992 -5.670004e-21)
(-0.039665581 0.0097301656 -2.6690194e-21)
(-0.043390427 0.0076452535 7.3139936e-21)
(-0.047208347 0.0055099155 1.8621604e-20)
(-0.051098179 0.0033486233 5.5438953e-21)
(-0.055037977 0.0011718377 -3.5950421e-21)
(-0.059005803 -0.001017879 -8.4389735e-21)
(-0.062981096 -0.0032221811 -8.7184776e-21)
(-0.06694579 -0.0054454474 -9.678518e-21)
(-0.070885902 -0.0076937837 -2.0427961e-20)
(-0.074793618 -0.0099749574 5.7841539e-22)
(-0.078659019 -0.012308968 -8.7910294e-21)
(-0.082460608 -0.014731671 4.8888448e-20)
(-0.086155887 -0.017281349 1.3693777e-20)
(-0.089651299 -0.020002211 1.5836164e-20)
(-0.092764881 -0.022936035 4.4159044e-20)
(-0.095162883 -0.026086503 -5.171715e-20)
(-0.096315726 -0.029371596 1.1461148e-20)
(-0.095342629 -0.032517162 3.644311e-20)
(-0.091039651 -0.034912166 4.3742523e-20)
(-0.081601829 -0.035382946 5.4208529e-21)
(-0.065120277 -0.032168911 -1.2533507e-20)
(-0.038369609 -0.023086333 -1.8573077e-20)
(0.0039502404 -0.006353351 7.239346e-21)
(0.06489136 0.02183194 -1.0923713e-20)
(0.13830832 0.060054901 9.2401745e-21)
(0.23206686 0.10062232 3.0338647e-21)
(0.36217171 0.11249234 1.0665709e-20)
(0.56130944 0.057849918 -5.3041997e-20)
(0.81456337 -0.082920141 -1.1466117e-21)
(0.99896248 -0.22962178 -1.9095755e-20)
(-3.5471273e-05 0.00014019724 -1.9946794e-21)
(-0.00011080777 0.00043337141 -5.3435285e-22)
(-0.00019548901 0.00075649036 5.8700995e-22)
(-0.00029090802 0.0011125934 2.8848051e-21)
(-0.00039857633 0.0015049304 -3.4589249e-21)
(-0.00052026649 0.0019369173 2.9362424e-21)
(-0.00065802646 0.0024121198 1.4028396e-21)
(-0.00081420738 0.0029342183 -7.5092849e-23)
(-0.00099151543 0.0035069516 -1.1828159e-21)
(-0.0011930645 0.0041340408 -6.7219116e-21)
(-0.0014224371 0.0048190852 1.1275137e-20)
(-0.00168375 0.0055654267 -1.3530637e-20)
(-0.0019817279 0.0063759745 3.9671493e-21)
(-0.0023217821 0.007252985 5.3748981e-21)
(-0.0027100936 0.0081977882 -8.2257617e-21)
(-0.0031536992 0.0092104561 1.6173737e-20)
(-0.0036605755 0.010289407 -1.9546409e-20)
(-0.0042397168 0.011430941 -3.0773305e-22)
(-0.0049011987 0.012628715 -1.1129343e-20)
(-0.005656216 0.013873144 4.4002757e-20)
(-0.0065170798 0.015150762 -1.0611445e-20)
(-0.0074971532 0.016443547 -4.3740618e-20)
(-0.0086106963 0.017728226 2.0585482e-20)
(-0.009872583 0.01897562 2.446093e-20)
(-0.011297844 0.020150035 -6.1201953e-21)
(-0.012900977 0.021208796 -3.1917079e-20)
(-0.014694984 0.022102023 4.8110967e-20)
(-0.016690096 0.022772929 -5.3077137e-20)
(-0.018892288 0.023159226 4.1507292e-20)
(-0.021301826 0.023196842 -7.8762461e-21)
(-0.023912417 0.022827819 1.3388018e-20)
(-0.026711674 0.022013962 1.8790187e-20)
(-0.029683186 0.020754177 -7.1889887e-21)
(-0.032809333 0.019095821 -1.7764794e-21)
(-0.036073133 0.017127056 -2.526972e-20)
(-0.039458174 0.014949824 4.6756813e-21)
(-0.04294723 0.012651451 -1.1744276e-20)
(-0.046520889 0.010291622 9.7268636e-21)
(-0.050157078 0.0079046345 -5.482905e-21)
(-0.053831501 0.0055076905 -3.581028e-21)
(-0.05751858 0.0031084779 -3.0723721e-21)
(-0.0611928 0.00070988952 -2.982198e-21)
(-0.064829272 -0.0016878704 1.831356e-20)
(-0.068405452 -0.0040861995 1.4635394e-20)
(-0.071901631 -0.0064898274 -4.1446075e-21)
(-0.07528808 -0.0089191795 2.7239799e-21)
(-0.078516772 -0.011414881 -1.1219523e-20)
(-0.081506226 -0.014027802 2.2845515e-20)
(-0.0841024 -0.016826195 2.6926857e-20)
(-0.086031381 -0.019890457 7.8541729e-21)
(-0.086821842 -0.023279369 2.0533639e-20)
(-0.085741891 -0.026989072 -6.4710666e-22)
(-0.081616745 -0.030841412 -9.7632983e-21)
(-0.072872655 -0.03433395 -4.5680065e-20)
(-0.057246225 -0.036374834 2.2194463e-20)
(-0.032218479 -0.03533792 -7.9313508e-21)
(0.0061964302 -0.029389645 2.2682357e-20)
(0.062249872 -0.016315663 -3.3396311e-20)
(0.13543032 0.0087509252 1.7909305e-20)
(0.22324852 0.04413489 -5.1296167e-21)
(0.33944811 0.080242325 -1.5497866e-22)
(0.49916521 0.084797576 -5.1370637e-21)
(0.72948531 0.024388075 -2.0797459e-20)
(0.98226205 -0.10315677 4.4526853e-20)
(1.1009171 -0.22181466 -3.3451543e-20)
(-4.6887068e-05 0.00016345067 4.4676147e-21)
(-0.00014601136 0.00050550734 3.073885e-21)
(-0.00025681493 0.00088276465 -4.8251783e-21)
(-0.00038085193 0.0012988079 1.2703585e-22)
(-0.00051984335 0.0017574665 4.3621238e-21)
(-0.00067575528 0.0022627838 2.2808002e-21)
(-0.00085082241 0.0028189965 -4.8063228e-21)
(-0.0010475702 0.0034304973 7.8926385e-22)
(-0.0012688575 0.0041017755 -1.1125338e-20)
(-0.0015179184 0.0048373339 2.1680002e-21)
(-0.0017984094 0.0056415766 5.558341e-23)
(-0.0021144591 0.0065186606 -7.9725678e-21)
(-0.0024707223 0.0074723038 2.5543516e-20)
(-0.0028724348 0.0085055419 -1.1899986e-20)
(-0.0033254708 0.0096204268 -2.1317617e-20)
(-0.0038363976 0.010817657 2.2711689e-20)
(-0.0044125261 0.012096137 -2.7963887e-21)
(-0.0050619528 0.013452455 1.5873645e-20)
(-0.0057935849 0.014880281 1.1786999e-20)
(-0.006617142 0.016369695 -3.7056078e-20)
(-0.0075431204 0.017906436 2.7805744e-20)
(-0.0085827022 0.01947111 -3.6577304e-20)
(-0.0097475888 0.021038364 4.2915657e-21)
(-0.011049723 0.02257607 -1.7527583e-20)
(-0.012500865 0.024044558 3.8035853e-20)
(-0.014111967 0.025395972 -8.9975902e-21)
(-0.015892323 0.026573883 -2.2664239e-20)
(-0.017848459 0.027513444 5.45806e-20)
(-0.019982884 0.028142735 -2.3592401e-20)
(-0.022292972 0.028386575 -2.5264637e-20)
(-0.02477056 0.028174917 2.0682805e-20)
(-0.027402983 0.027457808 2.7437591e-21)
(-0.030175687 0.026225382 -1.3471206e-20)
(-0.033075143 0.024522995 7.2692239e-21)
(-0.036089861 0.022446187 -1.0864578e-20)
(-0.039208698 0.020112064 3.6990211e-20)
(-0.042417987 0.017625587 -1.8867665e-20)
(-0.045699554 0.015061668 -1.1049279e-20)
(-0.049030359 0.012465685 -2.2220179e-20)
(-0.052383272 0.009862486 -3.014764e-21)
(-0.055728212 0.0072654065 2.2997655e-20)
(-0.059033417 0.0046821209 -9.2490952e-21)
(-0.062265434 0.00211756 -1.3655017e-20)
(-0.065390942 -0.00042489037 -2.0671073e-21)
(-0.068374489 -0.0029475891 1.3743738e-20)
(-0.071161824 -0.0054724712 1.2272201e-20)
(-0.073671227 -0.0080454819 -3.781974e-20)
(-0.075770943 -0.01073299 -2.0278656e-20)
(-0.077228149 -0.013631819 -4.4506823e-20)
(-0.077648027 -0.016867076 -1.5769282e-20)
(-0.07637554 -0.020560243 -6.1603785e-21)
(-0.07241177 -0.024793735 -4.4870778e-20)
(-0.064224343 -0.029490004 -1.6974347e-20)
(-0.049792906 -0.034261817 5.6188139e-20)
(-0.026262775 -0.038067709 -4.2542944e-20)
(0.0093446069 -0.039434183 3.6596341e-20)
(0.061341852 -0.03653728 -1.5311877e-20)
(0.13206812 -0.026599461 6.5543199e-20)
(0.22136977 -0.0040291904 2.8572091e-20)
(0.32990056 0.028276806 -1.0117673e-20)
(0.4719856 0.059491229 -1.6215575e-20)
(0.66287908 0.057898461 -3.2188992e-20)
(0.91557441 -0.0018726165 -4.8628813e-21)
(1.1222411 -0.11055269 -6.2424906e-21)
(1.1565131 -0.20145806 4.3137143e-20)
(-5.895075e-05 0.00018311105 8.1247808e-23)
(-0.00018324779 0.00056653766 -5.7835325e-21)
(-0.0003216863 0.00098967667 6.8173023e-21)
(-0.00047602407 0.0014565909 3.2802735e-21)
(-0.00064819796 0.0019716291 -6.5687124e-21)
(-0.00084038617 0.0025393985 -2.1271329e-21)
(-0.0010550289 0.0031647445 1.0313488e-20)
(-0.0012948451 0.0038527129 -1.1094565e-20)
(-0.0015628659 0.0046084893 -2.3394964e-21)
(-0.0018624649 0.0054373126 -9.3013885e-21)
(-0.0021973917 0.006344358 2.4682638e-20)
(-0.002571804 0.0073345805 3.0045863e-22)
(-0.0029903013 0.0084125117 -2.2126281e-20)
(-0.0034579555 0.0095820016 2.3723539e-20)
(-0.0039803396 0.010845896 -1.695883e-20)
(-0.0045635497 0.012205638 -6.2787053e-21)
(-0.0052142198 0.013660795 1.3093297e-20)
(-0.0059395232 0.015208484 -1.179149e-20)
(-0.0067471574 0.01684272 -1.5667766e-20)
(-0.0076453035 0.018553665 3.2997167e-22)
(-0.0086425519 0.020326788 2.4583259e-20)
(-0.0097477809 0.022141969 -1.5167156e-20)
(-0.010969968 0.023972541 8.4305245e-21)
(-0.012317915 0.025784326 4.0647578e-20)
(-0.013799839 0.027534697 1.3568877e-20)
(-0.015422821 0.029171749 -3.6734777e-20)
(-0.01719204 0.030633713 3.6653065e-21)
(-0.019109835 0.031848908 -4.1289309e-20)
(-0.02117468 0.032736895 2.4361249e-20)
(-0.023380376 0.033212175 -1.2845463e-20)
(-0.025716094 0.033192665 1.8531327e-20)
(-0.028167973 0.032615397 4.4983168e-21)
(-0.030722391 0.031458683 -2.2282959e-20)
(-0.033369243 0.029761283 2.258158e-20)
(-0.036102431 0.027621494 3.2540265e-20)
(-0.03891656 0.025168814 -2.9933749e-21)
(-0.041802227 0.022525477 -3.3339892e-20)
(-0.044742973 0.019782744 4.1679001e-20)