/*--------------------------------*- C++ -*----------------------------------*\
  =========                 |
  \\      /  F ield         | OpenFOAM: The Open Source CFD Toolbox
   \\    /   O peration     | Website:  https://openfoam.org
    \\  /    A nd           | Version:  13
     \\/     M anipulation  |
\*---------------------------------------------------------------------------*/
FoamFile
{
    format      ascii;
    class       volScalarField;
    location    "0.005";
    object      mag(U);
}
// * * * * * * * * * * * * * * * * * * * * * * * * * * * * * * * * * * * * * //

dimensions      [0 1 -1 0 0 0 0];

internalField   nonuniform List<scalar> 
1000
(
3.35508e-13
3.93857e-13
4.37619e-13
3.50095e-13
3.35508e-13
2.91746e-14
2.04222e-13
5.83492e-14
1.16698e-13
4.37619e-14
1.31286e-13
3.06333e-13
3.06333e-13
2.91746e-13
2.91746e-14
2.62571e-13
1.6046e-13
7.29365e-14
1.45873e-14
1.45873e-14
1.31286e-13
1.6046e-13
1.45873e-13
2.33397e-13
1.16698e-13
1.45873e-13
1.89635e-13
1.31286e-13
3.7927e-13
2.47984e-13
7.0019e-13
2.33397e-13
4.95968e-13
3.7927e-13
7.58539e-13
7.14777e-13
8.16889e-13
8.16889e-13
7.87714e-13
1.06487e-12
8.16889e-13
7.87714e-13
5.68905e-13
6.41841e-13
3.7927e-13
2.91746e-13
5.10555e-13
8.75238e-14
1.16698e-13
1.75048e-13
7.29365e-14
5.83492e-14
1.75048e-13
2.18809e-13
1.02111e-13
3.93857e-13
4.37619e-14
2.62571e-13
5.83492e-14
4.37619e-14
5.83492e-14
1.45873e-14
2.91746e-14
1.45873e-14
2.62571e-13
1.75048e-13
2.77159e-13
2.04222e-13
2.33397e-13
5.83492e-14
1.45873e-13
1.45873e-14
2.47984e-13
1.89635e-13
3.64682e-13
1.31286e-13
5.83492e-14
1.45873e-14
4.37619e-14
1.45873e-13
1.02111e-13
8.75238e-14
2.47984e-13
4.37619e-14
2.18809e-13
1.45873e-13
2.33397e-13
1.16698e-13
2.91746e-14
1.31286e-13
7.40679e-27
1.6046e-13
8.75238e-14
5.83492e-14
8.75238e-14
5.83492e-14
8.75238e-14
1.75048e-13
2.91746e-14
2.47984e-13
1.31286e-13
4.37619e-14
4.37619e-14
8.75238e-14
2.91746e-14
1.45873e-13
2.33397e-13
1.75048e-13
2.18809e-13
1.02111e-13
2.91746e-14
1.02111e-13
8.75238e-14
2.77159e-13
1.31286e-13
1.89635e-13
7.29365e-14
1.02111e-13
5.53031e-27
1.02111e-13
2.91746e-14
3.06333e-13
3.12569e-27
1.89635e-13
1.02111e-13
2.33397e-13
5.83492e-14
2.91746e-14
5.83492e-14
7.29365e-14
1.69921e-26
8.75238e-14
1.16698e-13
1.45873e-14
5.83492e-14
5.83492e-14
1.45873e-14
5.83492e-14
1.88696e-27
1.75048e-13
2.91746e-14
1.31286e-13
2.33397e-13
1.45873e-13
1.75048e-13
1.45873e-13
8.75238e-14
1.45873e-13
2.91746e-14
4.37619e-14
5.83492e-14
7.29365e-14
1.45873e-14
8.75238e-14
1.6046e-13
1.16698e-13
5.3973e-13
3.7927e-13
7.73127e-13
4.95968e-13
5.25143e-13
5.10555e-13
5.10555e-13
6.41841e-13
6.27254e-13
6.41841e-13
7.73127e-13
9.04412e-13
3.20921e-13
8.02301e-13
1.75048e-13
8.6065e-13
4.52206e-13
8.89825e-13
6.56428e-13
9.33587e-13
8.02301e-13
7.0019e-13
7.87714e-13
7.43952e-13
8.89825e-13
9.91936e-13
9.48174e-13
9.77349e-13
9.33587e-13
7.73127e-13
5.68905e-13
6.85603e-13
3.93857e-13
6.27254e-13
2.33397e-13
5.54317e-13
7.14777e-13
4.81381e-13
8.02301e-13
4.52206e-13
7.73127e-13
4.23032e-13
8.89825e-13
5.25143e-13
8.46063e-13
5.10555e-13
7.0019e-13
5.68905e-13
8.6065e-13
5.68905e-13
6.12666e-13
6.27254e-13
6.41841e-13
6.56428e-13
8.02301e-13
4.81381e-13
9.77349e-13
4.52206e-13
7.29365e-13
5.54317e-13
6.56428e-13
5.10555e-13
4.81381e-13
4.95968e-13
6.41841e-13
4.66793e-13
6.71016e-13
7.0019e-13
5.98079e-13
6.56428e-13
6.41841e-13
5.68905e-13
8.16889e-13
7.29365e-13
7.14777e-13
1.22533e-12
1.42955e-12
2.29021e-12
3.06333e-12
5.12014e-12
8.63568e-12
1.4952e-11
2.69136e-11
4.82694e-11
8.73925e-11
1.57339e-10
2.82789e-10
5.05143e-10
8.99394e-10
1.5926e-09
2.80699e-09
4.9206e-09
8.58147e-09
1.48851e-08
2.56811e-08
4.40653e-08
7.51949e-08
1.27601e-07
2.15317e-07
3.61266e-07
6.0267e-07
9.99557e-07
1.6481e-06
2.70137e-06
4.40125e-06
7.12745e-06
1.14717e-05
1.83496e-05
2.91677e-05
4.60704e-05
7.23026e-05
0.000112737
0.000174631
0.000268714
0.000410709
0.000623475
0.000939955
0.00140721
0.0020919
0.0030875
0.00452397
0.00658017
0.00949981
0.0136116
0.0193544
0.027307
0.0382252
0.0530832
0.073122
0.0999021
0.135359
0.181858
0.242251
0.319914
0.418781
0.543348
0.698649
0.890191
1.12384
1.40566
1.74166
2.13752
2.59823
3.12769
3.72846
4.40162
5.14666
5.96149
6.84262
7.78538
8.78424
9.83318
10.926
12.0567
13.2196
14.4098
15.6227
16.8548
18.103
19.3649
20.6386
21.9227
23.216
24.5177
25.8273
27.1441
28.4678
29.7982
31.1349
32.4777
33.8264
35.1809
36.5409
37.9063
39.2769
40.6526
42.0332
43.4186
44.8086
46.2031
47.6019
49.0051
50.4123
51.8236
53.2387
54.6577
56.0804
57.5066
58.9364
60.3695
61.806
63.2456
64.6885
66.1343
67.5832
69.0349
70.4894
71.9467
73.4067
74.8692
76.3343
77.8018
79.2717
80.7439
82.2184
83.6951
85.1738
86.6547
88.1376
89.6224
91.109
92.5976
94.0878
95.5798
97.0735
98.5687
100.066
101.564
103.064
104.565
106.067
107.571
109.076
110.582
112.089
113.598
115.107
116.618
118.129
119.641
121.154
122.668
124.183
125.698
127.214
128.73
130.247
131.765
133.283
134.801
136.32
137.839
139.358
140.878
142.397
143.917
145.437
146.956
148.476
149.995
151.515
153.034
154.553
156.071
157.589
159.107
160.624
162.14
163.656
165.171
166.685
168.198
169.711
171.222
172.733
174.242
175.75
177.257
178.762
180.266
181.768
183.269
184.768
186.266
187.761
189.254
190.745
192.235
193.721
195.206
196.687
198.167
199.643
201.116
202.587
204.054
205.518
206.979
208.436
209.889
211.339
212.784
214.226
215.663
217.095
218.522
219.945
221.363
222.775
224.182
225.583
226.978
228.367
229.749
231.125
232.494
233.856
235.21
236.557
237.895
239.226
240.548
241.86
243.164
244.458
245.743
247.017
248.28
249.533
250.774
252.004
253.222
254.427
255.62
256.799
257.965
259.117
260.254
261.377
262.484
263.576
264.651
265.71
266.752
267.777
268.783
269.772
270.742
271.693
272.625
273.536
274.428
275.299
276.15
276.979
277.787
278.573
279.337
280.079
280.799
281.496
282.171
282.823
283.452
284.059
284.642
285.203
285.741
286.257
286.751
287.222
287.671
288.099
288.506
288.892
289.257
289.602
289.928
290.235
290.523
290.793
291.046
291.282
291.502
291.707
291.896
292.072
292.234
292.383
292.52
292.645
292.76
292.864
292.959
293.045
293.122
293.192
293.254
293.31
293.36
293.404
293.443
293.478
293.508
293.534
293.556
293.576
293.592
293.607
293.618
293.628
293.636
293.643
293.648
293.652
293.655
293.657
293.659
293.659
293.66
293.659
293.659
293.658
293.657
293.655
293.654
293.652
293.65
293.649
293.647
293.645
293.643
293.641
293.64
293.638
293.636
293.635
293.633
293.632
293.631
293.629
293.628
293.627
293.626
293.625
293.625
293.624
293.624
293.623
293.623
293.623
293.623
293.624
293.624
293.626
293.627
293.629
293.632
293.635
293.639
293.644
293.649
293.657
293.665
293.675
293.687
293.702
293.718
293.737
293.759
293.784
293.812
293.844
293.88
293.92
293.964
294.012
294.065
294.121
294.182
294.247
294.316
294.388
294.463
294.541
294.62
294.701
294.783
294.864
294.944
295.023
295.099
295.171
295.238
295.3
295.355
295.404
295.444
295.476
295.499
295.512
295.515
295.509
295.492
295.466
295.43
295.385
295.332
295.271
295.204
295.13
295.052
294.971
294.886
294.8
294.714
294.628
294.543
294.46
294.38
294.304
294.231
294.162
294.099
294.039
293.985
293.935
293.889
293.849
293.812
293.78
293.751
293.726
293.704
293.685
293.668
293.654
293.643
293.633
293.625
293.618
293.612
293.608
293.605
293.602
293.6
293.598
293.598
293.597
293.597
293.597
293.597
293.598
293.598
293.599
293.6
293.601
293.602
293.603
293.604
293.605
293.606
293.607
293.608
293.609
293.61
293.611
293.612
293.614
293.615
293.616
293.617
293.618
293.619
293.62
293.621
293.621
293.622
293.622
293.623
293.623
293.623
293.622
293.621
293.62
293.618
293.616
293.613
293.609
293.603
293.597
293.589
293.579
293.567
293.552
293.534
293.513
293.487
293.456
293.419
293.374
293.321
293.258
293.182
293.092
292.985
292.857
292.706
292.526
292.312
292.058
291.756
291.397
290.971
290.465
289.864
289.148
288.296
287.282
286.073
284.628
282.901
280.831
278.344
275.349
271.729
267.334
261.973
255.391
247.248
237.074
224.195
207.591
185.664
156.053
116.614
70.4674
31.4128
10.4801
2.92612
0.752024
0.187441
0.0463113
0.0114175
0.00281345
0.000693196
0.000170788
4.20777e-05
1.03667e-05
2.55404e-06
6.29229e-07
1.55018e-07
3.81905e-08
9.40754e-09
2.31733e-09
5.70029e-10
1.39936e-10
3.36529e-11
7.64375e-12
1.21075e-12
2.33397e-13
6.12667e-13
3.20921e-13
4.81381e-13
3.06334e-13
1.16699e-13
2.1881e-13
4.3762e-14
3.06334e-13
4.3762e-14
1.89635e-13
2.33397e-13
1.02111e-13
2.91746e-13
7.29366e-14
2.77159e-13
1.6046e-13
4.52207e-13
2.33397e-13
2.91746e-13
8.75239e-14
3.35508e-13
7.29366e-14
2.33397e-13
1.75048e-13
2.47984e-13
5.83493e-14
2.1881e-13
1.02111e-13
1.16699e-13
5.83493e-14
8.75239e-14
5.83493e-14
1.45873e-13
5.25143e-13
5.83493e-13
9.7735e-13
4.23032e-13
9.19001e-13
3.64683e-13
9.04414e-13
3.06334e-13
8.75239e-13
2.1881e-13
9.48176e-13
3.64683e-13
8.46064e-13
5.39731e-13
8.46064e-13
4.95969e-13
8.02302e-13
4.66794e-13
7.87715e-13
4.52207e-13
7.14779e-13
6.56429e-13
7.00191e-13
3.7927e-13
4.3762e-13
4.08445e-13
4.08445e-13
2.62572e-13
4.3762e-13
4.23032e-13
2.62572e-13
5.9808e-13
2.47984e-13
8.1689e-13
4.66794e-13
8.46064e-13
6.56429e-13
6.85604e-13
6.56429e-13
7.5854e-13
5.39731e-13
4.23032e-13
1.6046e-13
3.64683e-13
4.3762e-14
1.45873e-14
4.3762e-14
1.31286e-13
4.3762e-14
1.45873e-14
1.45873e-13
1.6046e-13
4.08445e-13
1.31286e-13
2.1881e-13
1.02111e-13
1.45873e-13
2.33397e-13
4.3762e-14
5.83493e-14
7.29366e-14
1.45873e-14
1.45873e-13
2.91746e-13
1.75048e-13
2.62572e-13
4.95969e-13
2.47984e-13
5.68905e-13
1.75048e-13
5.25143e-13
1.31286e-13
3.93858e-13
1.02111e-13
1.6046e-13
1.45873e-14
8.75239e-14
4.3762e-14
1.45873e-14
1.45873e-14
1.16699e-13
5.83493e-14
2.62572e-13
1.02111e-13
1.16699e-13
8.75239e-14
1.45873e-13
8.75239e-14
5.83493e-14
8.75239e-14
4.3762e-14
1.8371e-26
4.3762e-14
1.31286e-13
1.31286e-13
1.16699e-13
1.6046e-13
1.45873e-13
3.50096e-13
1.45873e-13
2.62572e-13
1.31286e-13
3.06334e-13
4.3762e-14
4.08445e-13
2.04222e-13
3.20921e-13
7.29366e-14
1.31286e-13
8.75239e-14
2.33397e-13
1.02111e-13
1.02111e-13
8.75239e-14
2.1881e-13
3.7927e-13
6.12667e-13
5.10556e-13
6.12667e-13
3.64683e-13
6.41842e-13
2.04222e-13
3.7927e-13
2.91746e-14
2.62572e-13
1.16699e-13
1.75048e-13
1.16699e-13
2.04222e-13
2.91746e-14
3.20921e-13
2.62572e-13
4.08445e-13
2.77159e-13
3.7927e-13
3.35508e-13
4.08445e-13
2.1881e-13
6.12667e-13
2.62572e-13
4.52207e-13
3.7927e-13
3.50096e-13
4.3762e-13
3.06334e-13
4.3762e-13
1.31286e-13
5.10556e-13
4.3762e-13
5.68905e-13
6.85604e-13
4.23032e-13
5.25143e-13
4.81381e-13
8.02302e-13
5.9808e-13
6.12667e-13
8.02302e-13
6.71017e-13
8.02302e-13
)
;

boundaryField
{
    sides
    {
        type            calculated;
        value           nonuniform List<scalar> 2(8.02302e-13 3.35508e-13);
    }
    empty
    {
        type            empty;
    }
}


// ************************************************************************* //
