/*--------------------------------*- C++ -*----------------------------------*\
  =========                 |
  \\      /  F ield         | OpenFOAM: The Open Source CFD Toolbox
   \\    /   O peration     | Website:  https://openfoam.org
    \\  /    A nd           | Version:  13
     \\/     M anipulation  |
\*---------------------------------------------------------------------------*/
FoamFile
{
    format      ascii;
    class       volScalarField;
    location    "0.005";
    object      p;
}
// * * * * * * * * * * * * * * * * * * * * * * * * * * * * * * * * * * * * * //

dimensions      [1 -1 -2 0 0 0 0];

internalField   nonuniform List<scalar> 
1000
(
100000
100000
100000
100000
100000
100000
100000
100000
100000
100000
100000
100000
100000
100000
100000
100000
100000
100000
100000
100000
100000
100000
100000
100000
100000
100000
100000
100000
100000
100000
100000
100000
100000
100000
100000
100000
100000
100000
100000
100000
100000
100000
100000
100000
100000
100000
100000
100000
100000
100000
100000
100000
100000
100000
100000
100000
100000
100000
100000
100000
100000
100000
100000
100000
100000
100000
100000
100000
100000
100000
100000
100000
100000
100000
100000
100000
100000
100000
100000
100000
100000
100000
100000
100000
100000
100000
100000
100000
100000
100000
100000
100000
100000
100000
100000
100000
100000
100000
100000
100000
100000
100000
100000
100000
100000
100000
100000
100000
100000
100000
100000
100000
100000
100000
100000
100000
100000
100000
100000
100000
100000
100000
100000
100000
100000
100000
100000
100000
100000
100000
100000
100000
100000
100000
100000
100000
100000
100000
100000
100000
100000
100000
100000
100000
100000
100000
100000
100000
100000
100000
100000
100000
100000
100000
100000
100000
100000
100000
100000
100000
100000
100000
100000
100000
100000
100000
100000
100000
100000
100000
100000
100000
100000
100000
100000
100000
100000
100000
100000
100000
100000
100000
100000
100000
100000
100000
100000
100000
100000
100000
100000
100000
100000
100000
100000
100000
100000
100000
100000
100000
100000
100000
100000
100000
100000
100000
100000
100000
100000
100000
100000
100000
100000
100000
100000
100000
100000
100000
100000
100000
100000
100000
100000
100000
100000
100000
100000
100000
100000
100000
100000
100000
100000
100000
100000
100000
100000
100000
100000
100000
100000
100000
100000
100000
100000
100000
100000
100000
100000
100000
100000
100000
100000
100000
100000
100000
100000
100000
100000
100000
100000
100000
100000
100000
100000
100000
100000
100000
99999.9
99999.9
99999.8
99999.8
99999.7
99999.5
99999.2
99998.9
99998.3
99997.6
99996.5
99995
99992.8
99989.9
99985.9
99980.4
99972.9
99963
99949.8
99932.6
99910.1
99881.3
99844.5
99798.1
99740.3
99669
99582
99477
99351.7
99204.1
99032.4
98834.9
98611
98360.1
98082.6
97779.4
97451.9
97102.1
96732.2
96344.6
95941.9
95526.5
95100.6
94666.2
94225.3
93779.1
93329.1
92876.1
92420.8
91964
91506
91047.2
90587.8
90128
89668.1
89208.1
88748.1
88288.2
87828.5
87369.2
86910.2
86451.6
85993.5
85535.9
85079
84622.8
84167.2
83712.5
83258.5
82805.5
82353.3
81902.1
81451.9
81002.8
80554.7
80107.7
79661.9
79217.2
78773.8
78331.5
77890.6
77450.9
77012.6
76575.6
76140
75705.7
75272.9
74841.5
74411.6
73983.1
73556.1
73130.7
72706.8
72284.4
71863.5
71444.3
71026.6
70610.6
70196.2
69783.4
69372.2
68962.7
68554.9
68148.8
67744.3
67341.6
66940.5
66541.2
66143.6
65747.8
65353.7
64961.4
64570.8
64182
63795
63409.7
63026.3
62644.7
62264.8
61886.8
61510.6
61136.2
60763.6
60392.9
60024
59657
59291.8
58928.4
58566.9
58207.3
57849.6
57493.7
57139.6
56787.5
56437.2
56088.8
55742.3
55397.7
55055
54714.2
54375.2
54038.2
53703.1
53369.9
53038.6
52709.2
52381.8
52056.3
51732.7
51411
51091.3
50773.5
50457.6
50143.7
49831.8
49521.8
49213.7
48907.7
48603.6
48301.5
48001.3
47703.2
47407
47112.9
46820.7
46530.6
46242.5
45956.4
45672.3
45390.3
45110.4
44832.5
44556.6
44282.9
44011.2
43741.6
43474.2
43208.8
42945.6
42684.6
42425.7
42169
41914.4
41662.1
41412
41164.1
40918.4
40675
40433.9
40195.1
39958.7
39724.5
39492.8
39263.4
39036.4
38811.8
38589.7
38370
38152.9
37938.3
37726.2
37516.7
37309.8
37105.5
36903.9
36705
36508.8
36315.4
36124.7
35936.9
35751.9
35569.8
35390.6
35214.3
35041.1
34870.8
34703.6
34539.4
34378.4
34220.5
34065.7
33914.2
33765.9
33620.9
33479.1
33340.7
33205.6
33073.9
32945.6
32820.6
32699.1
32581
32466.4
32355.2
32247.5
32143.3
32042.5
31945.1
31851.2
31760.7
31673.7
31590
31509.7
31432.8
31359.1
31288.7
31221.6
31157.5
31096.7
31038.8
30984
30932.1
30883
30836.7
30793.2
30752.2
30713.9
30677.9
30644.4
30613.1
30584
30557
30532
30508.9
30487.7
30468.1
30450.2
30433.8
30418.9
30405.3
30393
30381.8
30371.8
30362.8
30354.7
30347.6
30341.2
30335.5
30330.6
30326.2
30322.4
30319.1
30316.3
30313.9
30311.8
30310.1
30308.7
30307.5
30306.6
30305.8
30305.3
30304.8
30304.6
30304.4
30304.3
30304.4
30304.5
30304.6
30304.8
30305
30305.3
30305.6
30305.9
30306.3
30306.6
30307
30307.3
30307.7
30308.1
30308.4
30308.8
30309.2
30309.5
30309.9
30310.2
30310.5
30310.9
30311.2
30311.5
30311.8
30312.1
30312.4
30312.7
30313
30313.3
30313.5
30313.8
30314.1
30314.3
30314.6
30314.8
30315
30315.3
30315.5
30315.7
30316
30316.2
30316.4
30316.6
30316.8
30317
30317.2
30317.4
30317.6
30317.8
30318
30318.2
30318.3
30318.5
30318.7
30318.9
30319
30319.2
30319.3
30319.5
30319.7
30319.8
30320
30320.1
30320.3
30320.4
30320.6
30320.7
30320.8
30321
30321.1
30321.3
30321.4
30321.5
30321.7
30321.8
30321.9
30322
30322.2
30322.3
30322.4
30322.6
30322.7
30322.8
30323
30323.1
30323.2
30323.3
30323.5
30323.6
30323.7
30323.8
30324
30324.1
30324.2
30324.3
30324.4
30324.6
30324.7
30324.8
30324.9
30325
30325.1
30325.2
30325.3
30325.4
30325.5
30325.6
30325.7
30325.8
30325.8
30325.9
30326
30326.1
30326.2
30326.3
30326.4
30326.5
30326.6
30326.7
30326.8
30326.9
30327
30327.1
30327.2
30327.3
30327.4
30327.5
30327.7
30327.8
30327.9
30328
30328.1
30328.2
30328.3
30328.5
30328.6
30328.7
30328.8
30328.9
30329.1
30329.2
30329.3
30329.4
30329.6
30329.7
30329.8
30330
30330.1
30330.2
30330.4
30330.5
30330.6
30330.7
30330.9
30331
30331.1
30331.2
30331.4
30331.5
30331.6
30331.7
30331.7
30331.8
30331.8
30331.8
30331.8
30331.8
30331.7
30331.5
30331.3
30331.1
30330.7
30330.2
30329.6
30328.9
30328
30326.8
30325.5
30323.8
30321.7
30319.3
30316.3
30312.8
30308.5
30303.4
30297.3
30290
30281.3
30271
30258.7
30244
30226.6
30205.9
30181.3
30152.1
30117.3
30075.9
30026.7
29968.2
29898.5
29815.5
29716.4
29598.1
29456.6
29287
29083.2
28837.8
28541.2
28181.4
27742.8
27205.1
26541.5
25715.2
24674.2
23341.7
21602.9
19315.1
16443.3
13450.4
11336.2
10403.2
10106.7
10026.8
10006.6
10001.6
10000.4
10000.1
10000
10000
10000
10000
10000
10000
10000
10000
10000
10000
10000
10000
10000
10000
10000
10000
10000
10000
10000
10000
10000
10000
10000
10000
10000
10000
10000
10000
10000
10000
10000
10000
10000
10000
10000
10000
10000
10000
10000
10000
10000
10000
10000
10000
10000
10000
10000
10000
10000
10000
10000
10000
10000
10000
10000
10000
10000
10000
10000
10000
10000
10000
10000
10000
10000
10000
10000
10000
10000
10000
10000
10000
10000
10000
10000
10000
10000
10000
10000
10000
10000
10000
10000
10000
10000
10000
10000
10000
10000
10000
10000
10000
10000
10000
10000
10000
10000
10000
10000
10000
10000
10000
10000
10000
10000
10000
10000
10000
10000
10000
10000
10000
10000
10000
10000
10000
10000
10000
10000
10000
10000
10000
10000
10000
10000
10000
10000
10000
10000
10000
10000
10000
10000
10000
10000
10000
10000
10000
10000
10000
10000
10000
10000
10000
10000
10000
10000
10000
10000
10000
10000
10000
10000
10000
10000
10000
10000
10000
10000
10000
10000
10000
10000
10000
10000
10000
10000
10000
10000
10000
10000
10000
10000
10000
10000
10000
10000
10000
10000
10000
10000
10000
10000
10000
10000
10000
10000
10000
10000
10000
10000
10000
10000
10000
10000
10000
10000
10000
10000
10000
10000
10000
10000
10000
10000
10000
10000
10000
10000
)
;

boundaryField
{
    sides
    {
        type            zeroGradient;
    }
    empty
    {
        type            empty;
    }
}


// ************************************************************************* //
