/*--------------------------------*- C++ -*----------------------------------*\
  =========                 |
  \\      /  F ield         | OpenFOAM: The Open Source CFD Toolbox
   \\    /   O peration     | Website:  https://openfoam.org
    \\  /    A nd           | Version:  13
     \\/     M anipulation  |
\*---------------------------------------------------------------------------*/
FoamFile
{
    format      ascii;
    class       surfaceScalarField;
    location    "0.005";
    object      phi;
}
// * * * * * * * * * * * * * * * * * * * * * * * * * * * * * * * * * * * * * //

dimensions      [1 0 -1 0 0 0 0];

internalField   nonuniform List<scalar> 
999
(
-1.58959e-12
-1.87059e-12
-1.64988e-12
-1.55081e-12
-7.16989e-13
-5.9921e-13
-1.56634e-13
-1.22435e-13
-4.49091e-13
-5.5296e-13
5.3224e-13
1.41457e-12
1.36547e-12
5.60555e-13
3.84567e-13
7.27915e-13
4.82325e-13
1.22553e-13
3.2593e-14
-7.62921e-14
-5.96001e-14
1.67774e-13
1.63681e-13
6.42864e-13
7.56551e-13
4.66877e-13
7.27581e-13
1.25515e-12
1.29465e-12
1.68639e-12
1.85555e-12
1.66288e-12
1.77929e-12
2.40042e-12
2.52665e-12
3.45966e-12
3.05767e-12
3.40353e-12
3.97262e-12
3.57062e-12
3.35351e-12
2.74421e-12
2.55906e-12
2.01278e-12
9.91668e-13
1.86625e-12
1.50234e-12
2.77368e-13
-9.35856e-14
-4.69059e-13
-3.52216e-13
2.82383e-13
7.23221e-13
7.35553e-13
1.01633e-12
7.67465e-13
9.22454e-13
3.54019e-13
-1.1306e-13
3.99096e-14
-7.87925e-14
-7.99432e-14
2.7159e-13
6.0512e-13
7.17443e-13
9.79511e-13
9.08758e-13
9.78146e-13
7.45757e-13
4.39391e-13
3.47854e-13
5.46912e-13
9.73345e-13
9.73345e-13
1.05577e-12
5.72499e-13
1.50868e-13
-1.48837e-13
-4.20508e-13
-1.94994e-13
6.36364e-14
2.67497e-13
6.0512e-13
3.20903e-13
5.5035e-13
9.78146e-13
6.61963e-13
3.98317e-13
-2.52051e-13
-2.45672e-13
-4.49037e-13
-4.00433e-13
-1.00728e-13
-5.00504e-14
-2.18507e-13
3.99895e-13
4.97599e-13
4.64269e-13
2.62695e-13
8.29765e-13
4.22151e-13
5.95437e-14
3.65308e-13
2.1305e-14
-1.95421e-13
-8.96079e-13
-9.21665e-13
-9.27831e-13
-5.66375e-13
-4.0169e-13
1.87033e-13
6.36364e-14
3.55597e-13
2.62695e-13
3.39508e-13
-2.90521e-14
-2.26251e-13
-3.38078e-13
-1.69408e-13
-1.61664e-13
-4.45493e-13
-7.29214e-13
-4.23237e-13
-1.12564e-13
-3.31806e-13
-5.57106e-13
-5.68716e-14
4.55271e-14
-3.86576e-13
-5.5721e-14
-1.80482e-13
1.85765e-14
1.82941e-13
1.13659e-13
-3.35887e-15
-1.59698e-13
-1.39515e-13
-1.61878e-13
-3.10473e-13
-6.37021e-13
-2.54124e-13
1.23208e-13
1.57903e-13
-7.72147e-14
1.90097e-13
-8.5119e-14
-1.35583e-13
-5.24645e-13
1.27301e-13
1.95219e-13
3.16436e-13
7.45504e-14
-1.08632e-13
1.51576e-13
6.48655e-13
1.34802e-12
1.83129e-12
2.45177e-12
2.38227e-12
2.04061e-12
1.88743e-12
2.10782e-12
2.53905e-12
2.24594e-12
2.7152e-12
2.97738e-12
3.32324e-12
2.53223e-12
2.41374e-12
2.07748e-12
1.94154e-12
2.34425e-12
2.73538e-12
3.18533e-12
3.54156e-12
3.26351e-12
3.24605e-12
2.97635e-12
2.94667e-12
3.61018e-12
3.7128e-12
4.00809e-12
3.69828e-12
4.04071e-12
3.03684e-12
2.85377e-12
2.21605e-12
2.20476e-12
1.97875e-12
1.68002e-12
1.79507e-12
2.20269e-12
2.51189e-12
2.73582e-12
2.24011e-12
2.29559e-12
2.18054e-12
2.76299e-12
2.58275e-12
2.80511e-12
2.81127e-12
2.18463e-12
2.50572e-12
2.81847e-12
3.01595e-12
2.22631e-12
2.47604e-12
2.64794e-12
2.53289e-12
2.69234e-12
2.63823e-12
2.70615e-12
2.89392e-12
2.18054e-12
2.59382e-12
2.61668e-12
2.51134e-12
2.16537e-12
2.01563e-12
2.14655e-12
2.06276e-12
2.43371e-12
2.32837e-12
2.55711e-12
2.50027e-12
2.55847e-12
2.45117e-12
2.75753e-12
2.70069e-12
3.05266e-12
3.57473e-12
5.68388e-12
6.922e-12
9.76341e-12
1.53434e-11
2.56661e-11
4.42415e-11
7.7879e-11
1.40257e-10
2.52534e-10
4.56534e-10
8.21531e-10
1.47259e-09
2.62771e-09
4.66735e-09
8.24915e-09
1.45048e-08
2.53717e-08
4.41442e-08
7.63953e-08
1.31494e-07
2.25092e-07
3.83184e-07
6.48666e-07
1.09188e-06
1.82746e-06
3.04095e-06
5.03076e-06
8.2736e-06
1.35258e-05
2.19793e-05
3.54989e-05
5.6982e-05
9.08975e-05
0.000144088
0.000226951
0.000355167
0.0005522
0.000852884
0.00130851
0.001994
0.00301783
0.00453576
0.00676943
0.0100314
0.0147583
0.0215545
0.031248
0.0449621
0.0642046
0.0909777
0.127911
0.178417
0.246872
0.338817
0.461177
0.622484
0.833098
1.10541
1.45397
1.89559
2.44931
3.13619
3.97903
5.00172
6.22856
7.68313
9.387
11.3582
13.6095
16.1475
18.9724
22.0773
25.449
29.0684
32.9121
36.9534
41.1643
45.5166
49.9837
54.5409
59.1664
63.8416
68.551
73.2819
78.0244
82.7708
87.5151
92.2528
96.9804
101.695
106.396
111.08
115.747
120.395
125.024
129.632
134.219
138.784
143.326
147.846
152.341
156.812
161.259
165.679
170.074
174.442
178.784
183.098
187.384
191.643
195.873
200.074
204.247
208.39
212.504
216.588
220.642
224.666
228.66
232.623
236.555
240.456
244.326
248.165
251.973
255.749
259.493
263.206
266.887
270.537
274.154
277.739
281.292
284.814
288.303
291.759
295.184
298.576
301.936
305.264
308.56
311.823
315.054
318.253
321.419
324.553
327.655
330.725
333.762
336.768
339.741
342.683
345.592
348.469
351.315
354.129
356.911
359.661
362.38
365.067
367.722
370.347
372.94
375.501
378.032
380.532
383
385.438
387.845
390.221
392.567
394.882
397.167
399.422
401.646
403.841
406.005
408.14
410.245
412.32
414.366
416.383
418.371
420.329
422.258
424.159
426.031
427.874
429.689
431.476
433.234
434.964
436.667
438.341
439.988
441.608
443.2
444.765
446.302
447.813
449.297
450.755
452.186
453.59
454.968
456.321
457.647
458.947
460.222
461.472
462.696
463.895
465.069
466.219
467.343
468.443
469.519
470.571
471.598
472.602
473.582
474.539
475.472
476.382
477.269
478.134
478.975
479.795
480.592
481.367
482.121
482.852
483.563
484.252
484.92
485.567
486.193
486.8
487.386
487.952
488.498
489.025
489.533
490.022
490.492
490.944
491.377
491.792
492.19
492.571
492.934
493.281
493.611
493.925
494.223
494.505
494.773
495.025
495.263
495.487
495.697
495.893
496.076
496.247
496.405
496.551
496.685
496.809
496.921
497.023
497.115
497.198
497.272
497.336
497.393
497.441
497.482
497.516
497.543
497.564
497.579
497.588
497.592
497.592
497.587
497.578
497.566
497.55
497.531
497.51
497.486
497.46
497.432
497.403
497.372
497.34
497.308
497.274
497.24
497.206
497.171
497.136
497.101
497.066
497.031
496.997
496.963
496.929
496.895
496.862
496.829
496.796
496.764
496.732
496.701
496.669
496.638
496.608
496.577
496.547
496.516
496.486
496.456
496.426
496.395
496.365
496.334
496.303
496.272
496.241
496.209
496.177
496.144
496.111
496.077
496.043
496.008
495.973
495.937
495.9
495.862
495.823
495.784
495.744
495.702
495.66
495.617
495.572
495.527
495.48
495.431
495.382
495.331
495.278
495.224
495.168
495.111
495.051
494.99
494.926
494.86
494.791
494.719
494.644
494.566
494.484
494.397
494.305
494.208
494.104
493.992
493.871
493.739
493.595
493.436
493.259
493.062
492.84
492.59
492.306
491.982
491.613
491.191
490.708
490.156
489.524
488.802
487.979
487.044
485.984
484.787
483.44
481.93
480.245
478.373
476.304
474.027
471.534
468.819
465.876
462.702
459.299
455.668
451.815
447.747
443.475
439.014
434.379
429.588
424.664
419.628
414.506
409.323
404.106
398.882
393.679
388.521
383.437
378.449
373.582
368.856
364.291
359.903
355.706
351.713
347.932
344.369
341.029
337.913
335.021
332.349
329.893
327.647
325.602
323.75
322.08
320.583
319.248
318.062
317.014
316.093
315.289
314.589
313.984
313.464
313.019
312.641
312.322
312.055
311.832
311.649
311.498
311.377
311.28
311.203
311.143
311.098
311.065
311.042
311.027
311.018
311.014
311.014
311.018
311.024
311.032
311.041
311.051
311.062
311.073
311.085
311.096
311.108
311.119
311.13
311.141
311.152
311.162
311.172
311.181
311.191
311.2
311.208
311.217
311.225
311.233
311.24
311.248
311.255
311.261
311.268
311.274
311.279
311.285
311.29
311.294
311.299
311.302
311.305
311.308
311.309
311.31
311.309
311.307
311.304
311.299
311.292
311.282
311.269
311.253
311.233
311.207
311.176
311.138
311.092
311.036
310.969
310.887
310.79
310.673
310.534
310.368
310.169
309.933
309.651
309.316
308.917
308.442
307.877
307.205
306.404
305.451
304.314
302.958
301.339
299.401
297.079
294.29
290.931
286.874
281.953
275.956
268.608
259.539
248.247
234.019
215.786
191.883
159.927
118.066
70.178
30.6593
10.0628
2.74509
0.693645
0.171715
0.0423353
0.010431
0.00256995
0.000633176
0.000155999
3.84342e-05
9.46911e-06
2.3329e-06
5.7475e-07
1.41598e-07
3.48842e-08
8.59384e-09
2.11687e-09
5.2126e-10
1.28135e-10
3.12895e-11
7.40249e-12
1.54562e-12
7.17004e-14
-2.4302e-13
-2.80948e-13
-1.92643e-13
-1.89852e-13
-1.32951e-13
-7.53764e-14
-3.53112e-14
-7.01722e-14
-6.18356e-14
-5.24345e-14
2.19267e-14
2.36614e-14
3.61375e-14
6.33321e-14
4.92918e-14
3.30131e-14
4.48112e-14
6.81992e-14
2.43355e-14
6.29911e-14
1.15865e-13
1.34224e-13
7.77175e-14
1.18108e-13
1.23312e-13
5.20831e-14
5.74538e-14
3.47399e-14
6.4887e-15
2.98808e-14
-1.32634e-14
3.64786e-14
7.23508e-14
1.37872e-13
2.91067e-13
3.9816e-13
3.5883e-13
3.41146e-13
3.12724e-13
3.26049e-13
3.06634e-13
2.69206e-13
3.06463e-13
2.725e-13
3.18602e-13
2.97286e-13
3.45293e-13
3.68856e-13
3.38192e-13
3.14974e-13
3.58115e-13
3.1252e-13
2.68149e-13
3.05244e-13
3.40767e-13
3.62254e-13
2.69888e-13
1.66597e-13
2.28641e-13
1.95356e-13
1.66593e-13
1.62961e-13
2.32281e-13
1.66252e-13
2.10453e-13
2.35068e-13
2.90181e-13
2.92082e-13
3.39074e-13
3.50161e-13
3.76844e-13
3.09596e-13
3.52395e-13
3.43218e-13
2.11168e-13
1.70762e-13
1.26054e-13
8.48189e-14
-7.72216e-15
-1.34339e-14
-2.66416e-14
-2.54105e-14
-7.51421e-15
-1.64078e-14
-1.13715e-13
-1.13544e-13
-1.43538e-13
-9.47994e-14
-6.87785e-14
-6.01049e-14
-1.15783e-13
-7.41452e-14
-4.62231e-14
1.20299e-14
9.95415e-15
-4.65642e-14
-1.19593e-13
-1.0728e-13
-9.34017e-14
-1.65757e-13
-2.27475e-13
-1.75433e-13
-2.18468e-13
-1.51875e-13
-1.65415e-13
-1.68157e-13
-9.32312e-14
-9.20041e-14
-4.67347e-14
1.44802e-14
1.30825e-14
-6.24722e-16
4.92051e-15
-1.34833e-14
-6.66988e-14
-9.28901e-14
-1.11078e-13
-5.54004e-14
-3.68794e-14
-7.86793e-14
-7.00057e-14
-2.50694e-14
-4.39848e-14
-1.60627e-14
-6.16729e-16
5.9357e-15
-3.63598e-14
-9.32192e-14
-6.70398e-14
-8.50612e-14
-6.34078e-14
-1.48239e-13
-1.16286e-13
-1.01401e-13
-8.75234e-14
-1.43875e-13
-7.53804e-14
-1.12147e-13
-1.56912e-13
-1.43364e-13
-7.85088e-14
-7.95199e-14
-3.70499e-14
3.47399e-14
4.61554e-14
-2.01439e-15
-7.89269e-15
-8.02475e-14
-1.6329e-13
-2.42251e-13
-2.76218e-13
-2.73139e-13
-2.61495e-13
-2.50754e-13
-2.28032e-13
-1.55511e-13
-9.32312e-14
-5.99344e-14
-5.92069e-14
-9.57789e-16
-2.5581e-14
-1.64038e-14
-4.5553e-14
-1.10408e-13
-1.465e-13
-1.465e-13
-1.83262e-13
-1.39224e-13
-1.95576e-13
-1.72691e-13
-1.68328e-13
-1.83104e-13
-2.47618e-13
-1.99382e-13
-1.81536e-13
-2.3285e-13
-1.67828e-13
-1.82376e-13
-2.01966e-13
-1.66772e-13
-1.53621e-13
-2.38282e-13
-2.66704e-13
-2.99156e-13
-3.19578e-13
-2.34751e-13
-2.56129e-13
-3.57579e-13
-3.48906e-13
-3.4163e-13
-3.32786e-13
-3.85838e-13
-3.99944e-13
)
;

boundaryField
{
    sides
    {
        type            calculated;
        value           nonuniform List<scalar> 2(-4.07454e-13 1.33878e-12);
    }
    empty
    {
        type            empty;
    }
}


// ************************************************************************* //
