/*--------------------------------*- C++ -*----------------------------------*\
  =========                 |
  \\      /  F ield         | OpenFOAM: The Open Source CFD Toolbox
   \\    /   O peration     | Website:  https://openfoam.org
    \\  /    A nd           | Version:  13
     \\/     M anipulation  |
\*---------------------------------------------------------------------------*/
FoamFile
{
    format      ascii;
    class       volScalarField;
    location    "0.005";
    object      rho;
}
// * * * * * * * * * * * * * * * * * * * * * * * * * * * * * * * * * * * * * //

dimensions      [1 -3 0 0 0 0 0];

internalField   nonuniform List<scalar> 
1000
(
0.997575
0.997575
0.997575
0.997575
0.997575
0.997575
0.997575
0.997575
0.997575
0.997575
0.997575
0.997575
0.997575
0.997575
0.997575
0.997575
0.997575
0.997575
0.997575
0.997575
0.997575
0.997575
0.997575
0.997575
0.997575
0.997575
0.997575
0.997575
0.997575
0.997575
0.997575
0.997575
0.997575
0.997575
0.997575
0.997575
0.997575
0.997575
0.997575
0.997575
0.997575
0.997575
0.997575
0.997575
0.997575
0.997575
0.997575
0.997575
0.997575
0.997575
0.997575
0.997575
0.997575
0.997575
0.997575
0.997575
0.997575
0.997575
0.997575
0.997575
0.997575
0.997575
0.997575
0.997575
0.997575
0.997575
0.997575
0.997575
0.997575
0.997575
0.997575
0.997575
0.997575
0.997575
0.997575
0.997575
0.997575
0.997575
0.997575
0.997575
0.997575
0.997575
0.997575
0.997575
0.997575
0.997575
0.997575
0.997575
0.997575
0.997575
0.997575
0.997575
0.997575
0.997575
0.997575
0.997575
0.997575
0.997575
0.997575
0.997575
0.997575
0.997575
0.997575
0.997575
0.997575
0.997575
0.997575
0.997575
0.997575
0.997575
0.997575
0.997575
0.997575
0.997575
0.997575
0.997575
0.997575
0.997575
0.997575
0.997575
0.997575
0.997575
0.997575
0.997575
0.997575
0.997575
0.997575
0.997575
0.997575
0.997575
0.997575
0.997575
0.997575
0.997575
0.997575
0.997575
0.997575
0.997575
0.997575
0.997575
0.997575
0.997575
0.997575
0.997575
0.997575
0.997575
0.997575
0.997575
0.997575
0.997575
0.997575
0.997575
0.997575
0.997575
0.997575
0.997575
0.997575
0.997575
0.997575
0.997575
0.997575
0.997575
0.997575
0.997575
0.997575
0.997575
0.997575
0.997575
0.997575
0.997575
0.997575
0.997575
0.997575
0.997575
0.997575
0.997575
0.997575
0.997575
0.997575
0.997575
0.997575
0.997575
0.997575
0.997575
0.997575
0.997575
0.997575
0.997575
0.997575
0.997575
0.997575
0.997575
0.997575
0.997575
0.997575
0.997575
0.997575
0.997575
0.997575
0.997575
0.997575
0.997575
0.997575
0.997575
0.997575
0.997575
0.997575
0.997575
0.997575
0.997575
0.997575
0.997575
0.997575
0.997575
0.997575
0.997575
0.997575
0.997575
0.997575
0.997575
0.997575
0.997575
0.997575
0.997575
0.997575
0.997575
0.997575
0.997575
0.997575
0.997575
0.997575
0.997575
0.997575
0.997575
0.997575
0.997575
0.997575
0.997575
0.997575
0.997575
0.997575
0.997575
0.997575
0.997575
0.997575
0.997575
0.997575
0.997575
0.997575
0.997575
0.997575
0.997575
0.997575
0.997575
0.997575
0.997575
0.997575
0.997575
0.997575
0.997575
0.997575
0.997575
0.997575
0.997575
0.997574
0.997574
0.997574
0.997574
0.997574
0.997574
0.997573
0.997573
0.997572
0.997571
0.997569
0.997566
0.997563
0.997557
0.99755
0.997539
0.997524
0.997503
0.997474
0.997435
0.997382
0.997311
0.997217
0.997094
0.996935
0.996729
0.996467
0.996137
0.995725
0.995217
0.994597
0.993848
0.992955
0.991902
0.990677
0.989267
0.987667
0.985873
0.983888
0.981717
0.97937
0.97686
0.974203
0.971416
0.968517
0.965521
0.962447
0.959308
0.956116
0.952882
0.949615
0.946321
0.943007
0.939676
0.936331
0.932976
0.929612
0.926239
0.92286
0.919476
0.916086
0.912692
0.909295
0.905894
0.902491
0.899086
0.895678
0.89227
0.888861
0.885451
0.882042
0.878633
0.875224
0.871817
0.868411
0.865007
0.861604
0.858205
0.854807
0.851413
0.848022
0.844634
0.841249
0.837869
0.834493
0.831121
0.827753
0.824391
0.821033
0.81768
0.814333
0.810991
0.807655
0.804324
0.801
0.797682
0.79437
0.791064
0.787765
0.784473
0.781188
0.77791
0.774639
0.771375
0.768118
0.764869
0.761628
0.758395
0.755169
0.751952
0.748742
0.745541
0.742348
0.739164
0.735988
0.73282
0.729662
0.726512
0.723371
0.720239
0.717116
0.714002
0.710897
0.707802
0.704716
0.70164
0.698573
0.695516
0.692469
0.689431
0.686404
0.683386
0.680378
0.677381
0.674393
0.671416
0.66845
0.665493
0.662547
0.659612
0.656687
0.653773
0.65087
0.647977
0.645096
0.642225
0.639366
0.636518
0.633681
0.630855
0.628041
0.625238
0.622446
0.619667
0.616899
0.614142
0.611398
0.608665
0.605945
0.603237
0.600541
0.597857
0.595186
0.592527
0.589881
0.587248
0.584627
0.58202
0.579426
0.576844
0.574276
0.571722
0.569181
0.566654
0.56414
0.561641
0.559156
0.556685
0.554228
0.551786
0.549359
0.546946
0.544549
0.542167
0.539801
0.53745
0.535115
0.532796
0.530493
0.528207
0.525938
0.523685
0.52145
0.519232
0.517032
0.51485
0.512686
0.510541
0.508414
0.506307
0.504218
0.50215
0.500102
0.498074
0.496066
0.49408
0.492115
0.490172
0.488251
0.486352
0.484477
0.482624
0.480795
0.478991
0.477211
0.475455
0.473725
0.472021
0.470343
0.468691
0.467067
0.46547
0.4639
0.462359
0.460847
0.459363
0.457909
0.456485
0.455091
0.453728
0.452396
0.451094
0.449825
0.448587
0.447382
0.446208
0.445068
0.44396
0.442884
0.441842
0.440833
0.439857
0.438914
0.438005
0.437128
0.436284
0.435472
0.434693
0.433946
0.433231
0.432547
0.431895
0.431272
0.43068
0.430117
0.429583
0.429077
0.428599
0.428147
0.427721
0.42732
0.426944
0.426591
0.426261
0.425952
0.425664
0.425396
0.425147
0.424916
0.424702
0.424504
0.424321
0.424152
0.423997
0.423854
0.423723
0.423603
0.423493
0.423393
0.4233
0.423216
0.423139
0.423068
0.423003
0.422944
0.422889
0.422839
0.422792
0.422749
0.422708
0.422671
0.422635
0.422602
0.42257
0.422539
0.422509
0.422481
0.422453
0.422425
0.422398
0.422371
0.422344
0.422317
0.422289
0.422261
0.422233
0.422205
0.422176
0.422146
0.422115
0.422084
0.422052
0.422019
0.421985
0.42195
0.421914
0.421877
0.421838
0.421799
0.421758
0.421716
0.421672
0.421627
0.42158
0.421531
0.421481
0.421429
0.421374
0.421317
0.421258
0.421196
0.421131
0.421063
0.420991
0.420914
0.420832
0.420745
0.420651
0.420549
0.420438
0.420317
0.420182
0.420033
0.419866
0.419678
0.419466
0.419225
0.41895
0.418636
0.418278
0.417867
0.417397
0.41686
0.416246
0.415546
0.41475
0.413848
0.412829
0.411682
0.410396
0.408962
0.407368
0.405606
0.403668
0.401545
0.399233
0.396727
0.394025
0.391126
0.388035
0.384753
0.381289
0.377652
0.373852
0.369905
0.365826
0.361632
0.357344
0.352982
0.348568
0.344126
0.339677
0.335245
0.330853
0.326523
0.322276
0.318131
0.314106
0.310219
0.306482
0.302908
0.299507
0.296286
0.293252
0.290408
0.287754
0.285291
0.283015
0.280923
0.27901
0.277268
0.275691
0.274269
0.272994
0.271856
0.270845
0.269953
0.269169
0.268483
0.267887
0.267371
0.266927
0.266548
0.266226
0.265954
0.265726
0.265536
0.265379
0.265251
0.265147
0.265063
0.264997
0.264946
0.264907
0.264878
0.264858
0.264844
0.264836
0.264832
0.264832
0.264834
0.264839
0.264845
0.264852
0.26486
0.264868
0.264877
0.264886
0.264895
0.264904
0.264913
0.264922
0.26493
0.264938
0.264946
0.264954
0.264961
0.264968
0.264975
0.264981
0.264987
0.264993
0.264999
0.265005
0.26501
0.265015
0.26502
0.265024
0.265029
0.265033
0.265037
0.265041
0.265044
0.265047
0.26505
0.265053
0.265055
0.265057
0.265059
0.26506
0.26506
0.26506
0.265059
0.265057
0.265054
0.26505
0.265044
0.265037
0.265028
0.265016
0.265002
0.264984
0.264963
0.264936
0.264905
0.264867
0.264821
0.264766
0.264701
0.264623
0.264529
0.264418
0.264286
0.264128
0.263941
0.263717
0.263452
0.263136
0.26276
0.262312
0.261778
0.26114
0.260379
0.259468
0.258376
0.257063
0.255481
0.253569
0.251247
0.248415
0.244939
0.240642
0.235278
0.228495
0.219758
0.20824
0.192849
0.173128
0.151925
0.135982
0.128277
0.125659
0.124939
0.124757
0.124711
0.1247
0.124698
0.124697
0.124697
0.124697
0.124697
0.124697
0.124697
0.124697
0.124697
0.124697
0.124697
0.124697
0.124697
0.124697
0.124697
0.124697
0.124697
0.124697
0.124697
0.124697
0.124697
0.124697
0.124697
0.124697
0.124697
0.124697
0.124697
0.124697
0.124697
0.124697
0.124697
0.124697
0.124697
0.124697
0.124697
0.124697
0.124697
0.124697
0.124697
0.124697
0.124697
0.124697
0.124697
0.124697
0.124697
0.124697
0.124697
0.124697
0.124697
0.124697
0.124697
0.124697
0.124697
0.124697
0.124697
0.124697
0.124697
0.124697
0.124697
0.124697
0.124697
0.124697
0.124697
0.124697
0.124697
0.124697
0.124697
0.124697
0.124697
0.124697
0.124697
0.124697
0.124697
0.124697
0.124697
0.124697
0.124697
0.124697
0.124697
0.124697
0.124697
0.124697
0.124697
0.124697
0.124697
0.124697
0.124697
0.124697
0.124697
0.124697
0.124697
0.124697
0.124697
0.124697
0.124697
0.124697
0.124697
0.124697
0.124697
0.124697
0.124697
0.124697
0.124697
0.124697
0.124697
0.124697
0.124697
0.124697
0.124697
0.124697
0.124697
0.124697
0.124697
0.124697
0.124697
0.124697
0.124697
0.124697
0.124697
0.124697
0.124697
0.124697
0.124697
0.124697
0.124697
0.124697
0.124697
0.124697
0.124697
0.124697
0.124697
0.124697
0.124697
0.124697
0.124697
0.124697
0.124697
0.124697
0.124697
0.124697
0.124697
0.124697
0.124697
0.124697
0.124697
0.124697
0.124697
0.124697
0.124697
0.124697
0.124697
0.124697
0.124697
0.124697
0.124697
0.124697
0.124697
0.124697
0.124697
0.124697
0.124697
0.124697
0.124697
0.124697
0.124697
0.124697
0.124697
0.124697
0.124697
0.124697
0.124697
0.124697
0.124697
0.124697
0.124697
0.124697
0.124697
0.124697
0.124697
0.124697
0.124697
0.124697
0.124697
0.124697
0.124697
0.124697
0.124697
0.124697
0.124697
0.124697
0.124697
0.124697
0.124697
0.124697
0.124697
0.124697
0.124697
0.124697
0.124697
0.124697
0.124697
0.124697
0.124697
0.124697
0.124697
0.124697
0.124697
0.124697
0.124697
0.124697
)
;

boundaryField
{
    sides
    {
        type            calculated;
        value           nonuniform List<scalar> 2(0.124697 0.997575);
    }
    empty
    {
        type            empty;
    }
}


// ************************************************************************* //
