/*--------------------------------*- C++ -*----------------------------------*\
  =========                 |
  \\      /  F ield         | OpenFOAM: The Open Source CFD Toolbox
   \\    /   O peration     | Website:  https://openfoam.org
    \\  /    A nd           | Version:  13
     \\/     M anipulation  |
\*---------------------------------------------------------------------------*/
FoamFile
{
    format      ascii;
    class       volVectorField;
    location    "0.005";
    object      U;
}
// * * * * * * * * * * * * * * * * * * * * * * * * * * * * * * * * * * * * * //

dimensions      [0 1 -1 0 0 0 0];

internalField   nonuniform List<vector> 
1000
(
(-3.35508e-13 0 0)
(-3.93857e-13 0 0)
(-4.37619e-13 0 0)
(-3.50095e-13 0 0)
(-3.35508e-13 0 0)
(-2.91746e-14 0 0)
(-2.04222e-13 0 0)
(5.83492e-14 0 0)
(-1.16698e-13 0 0)
(-4.37619e-14 0 0)
(-1.31286e-13 0 0)
(3.06333e-13 0 0)
(3.06333e-13 0 0)
(2.91746e-13 0 0)
(-2.91746e-14 0 0)
(2.62571e-13 0 0)
(1.6046e-13 0 0)
(7.29365e-14 0 0)
(-1.45873e-14 0 0)
(1.45873e-14 0 0)
(-1.31286e-13 0 0)
(1.6046e-13 0 0)
(-1.45873e-13 0 0)
(2.33397e-13 0 0)
(1.16698e-13 0 0)
(1.45873e-13 0 0)
(1.89635e-13 0 0)
(1.31286e-13 0 0)
(3.7927e-13 0 0)
(2.47984e-13 0 0)
(7.0019e-13 0 0)
(2.33397e-13 0 0)
(4.95968e-13 0 0)
(3.7927e-13 0 0)
(7.58539e-13 0 0)
(7.14777e-13 0 0)
(8.16889e-13 0 0)
(8.16889e-13 0 0)
(7.87714e-13 0 0)
(1.06487e-12 0 0)
(8.16889e-13 0 0)
(7.87714e-13 0 0)
(5.68905e-13 0 0)
(6.41841e-13 0 0)
(3.7927e-13 0 0)
(2.91746e-13 0 0)
(5.10555e-13 0 0)
(8.75238e-14 0 0)
(1.16698e-13 0 0)
(-1.75048e-13 0 0)
(-7.29365e-14 0 0)
(-5.83492e-14 0 0)
(1.75048e-13 0 0)
(2.18809e-13 0 0)
(1.02111e-13 0 0)
(3.93857e-13 0 0)
(4.37619e-14 0 0)
(2.62571e-13 0 0)
(-5.83492e-14 0 0)
(4.37619e-14 0 0)
(-5.83492e-14 0 0)
(1.45873e-14 0 0)
(2.91746e-14 0 0)
(1.45873e-14 0 0)
(2.62571e-13 0 0)
(1.75048e-13 0 0)
(2.77159e-13 0 0)
(2.04222e-13 0 0)
(2.33397e-13 0 0)
(5.83492e-14 0 0)
(1.45873e-13 0 0)
(1.45873e-14 0 0)
(2.47984e-13 0 0)
(1.89635e-13 0 0)
(3.64682e-13 0 0)
(1.31286e-13 0 0)
(5.83492e-14 0 0)
(1.45873e-14 0 0)
(-4.37619e-14 0 0)
(-1.45873e-13 0 0)
(1.02111e-13 0 0)
(-8.75238e-14 0 0)
(2.47984e-13 0 0)
(-4.37619e-14 0 0)
(2.18809e-13 0 0)
(1.45873e-13 0 0)
(2.33397e-13 0 0)
(1.16698e-13 0 0)
(2.91746e-14 0 0)
(-1.31286e-13 0 0)
(-7.40679e-27 0 0)
(-1.6046e-13 0 0)
(-8.75238e-14 0 0)
(5.83492e-14 0 0)
(-8.75238e-14 0 0)
(5.83492e-14 0 0)
(8.75238e-14 0 0)
(1.75048e-13 0 0)
(-2.91746e-14 0 0)
(2.47984e-13 0 0)
(1.31286e-13 0 0)
(4.37619e-14 0 0)
(4.37619e-14 0 0)
(8.75238e-14 0 0)
(-2.91746e-14 0 0)
(-1.45873e-13 0 0)
(-2.33397e-13 0 0)
(-1.75048e-13 0 0)
(-2.18809e-13 0 0)
(-1.02111e-13 0 0)
(-2.91746e-14 0 0)
(1.02111e-13 0 0)
(-8.75238e-14 0 0)
(2.77159e-13 0 0)
(-1.31286e-13 0 0)
(1.89635e-13 0 0)
(-7.29365e-14 0 0)
(-1.02111e-13 0 0)
(5.53031e-27 0 0)
(-1.02111e-13 0 0)
(2.91746e-14 0 0)
(-3.06333e-13 0 0)
(-3.12569e-27 0 0)
(-1.89635e-13 0 0)
(1.02111e-13 0 0)
(-2.33397e-13 0 0)
(-5.83492e-14 0 0)
(2.91746e-14 0 0)
(-5.83492e-14 0 0)
(-7.29365e-14 0 0)
(1.69921e-26 0 0)
(-8.75238e-14 0 0)
(1.16698e-13 0 0)
(-1.45873e-14 0 0)
(5.83492e-14 0 0)
(-5.83492e-14 0 0)
(-1.45873e-14 0 0)
(-5.83492e-14 0 0)
(1.88696e-27 0 0)
(-1.75048e-13 0 0)
(-2.91746e-14 0 0)
(-1.31286e-13 0 0)
(2.33397e-13 0 0)
(-1.45873e-13 0 0)
(1.75048e-13 0 0)
(-1.45873e-13 0 0)
(8.75238e-14 0 0)
(-1.45873e-13 0 0)
(-2.91746e-14 0 0)
(4.37619e-14 0 0)
(5.83492e-14 0 0)
(7.29365e-14 0 0)
(-1.45873e-14 0 0)
(-8.75238e-14 0 0)
(1.6046e-13 0 0)
(1.16698e-13 0 0)
(5.3973e-13 0 0)
(3.7927e-13 0 0)
(7.73127e-13 0 0)
(4.95968e-13 0 0)
(5.25143e-13 0 0)
(5.10555e-13 0 0)
(5.10555e-13 0 0)
(6.41841e-13 0 0)
(6.27254e-13 0 0)
(6.41841e-13 0 0)
(7.73127e-13 0 0)
(9.04412e-13 0 0)
(3.20921e-13 0 0)
(8.02301e-13 0 0)
(1.75048e-13 0 0)
(8.6065e-13 0 0)
(4.52206e-13 0 0)
(8.89825e-13 0 0)
(6.56428e-13 0 0)
(9.33587e-13 0 0)
(8.02301e-13 0 0)
(7.0019e-13 0 0)
(7.87714e-13 0 0)
(7.43952e-13 0 0)
(8.89825e-13 0 0)
(9.91936e-13 0 0)
(9.48174e-13 0 0)
(9.77349e-13 0 0)
(9.33587e-13 0 0)
(7.73127e-13 0 0)
(5.68905e-13 0 0)
(6.85603e-13 0 0)
(3.93857e-13 0 0)
(6.27254e-13 0 0)
(2.33397e-13 0 0)
(5.54317e-13 0 0)
(7.14777e-13 0 0)
(4.81381e-13 0 0)
(8.02301e-13 0 0)
(4.52206e-13 0 0)
(7.73127e-13 0 0)
(4.23032e-13 0 0)
(8.89825e-13 0 0)
(5.25143e-13 0 0)
(8.46063e-13 0 0)
(5.10555e-13 0 0)
(7.0019e-13 0 0)
(5.68905e-13 0 0)
(8.6065e-13 0 0)
(5.68905e-13 0 0)
(6.12666e-13 0 0)
(6.27254e-13 0 0)
(6.41841e-13 0 0)
(6.56428e-13 0 0)
(8.02301e-13 0 0)
(4.81381e-13 0 0)
(9.77349e-13 0 0)
(4.52206e-13 0 0)
(7.29365e-13 0 0)
(5.54317e-13 0 0)
(6.56428e-13 0 0)
(5.10555e-13 0 0)
(4.81381e-13 0 0)
(4.95968e-13 0 0)
(6.41841e-13 0 0)
(4.66793e-13 0 0)
(6.71016e-13 0 0)
(7.0019e-13 0 0)
(5.98079e-13 0 0)
(6.56428e-13 0 0)
(6.41841e-13 0 0)
(5.68905e-13 0 0)
(8.16889e-13 0 0)
(7.29365e-13 0 0)
(7.14777e-13 0 0)
(1.22533e-12 0 0)
(1.42955e-12 0 0)
(2.29021e-12 0 0)
(3.06333e-12 0 0)
(5.12014e-12 0 0)
(8.63568e-12 0 0)
(1.4952e-11 0 0)
(2.69136e-11 0 0)
(4.82694e-11 0 0)
(8.73925e-11 0 0)
(1.57339e-10 0 0)
(2.82789e-10 0 0)
(5.05143e-10 0 0)
(8.99394e-10 0 0)
(1.5926e-09 0 0)
(2.80699e-09 0 0)
(4.9206e-09 0 0)
(8.58147e-09 0 0)
(1.48851e-08 0 0)
(2.56811e-08 0 0)
(4.40653e-08 0 0)
(7.51949e-08 0 0)
(1.27601e-07 0 0)
(2.15317e-07 0 0)
(3.61266e-07 0 0)
(6.0267e-07 0 0)
(9.99557e-07 0 0)
(1.6481e-06 0 0)
(2.70137e-06 0 0)
(4.40125e-06 0 0)
(7.12745e-06 0 0)
(1.14717e-05 0 0)
(1.83496e-05 0 0)
(2.91677e-05 0 0)
(4.60704e-05 0 0)
(7.23026e-05 0 0)
(0.000112737 0 0)
(0.000174631 0 0)
(0.000268714 0 0)
(0.000410709 0 0)
(0.000623475 0 0)
(0.000939955 0 0)
(0.00140721 0 0)
(0.0020919 0 0)
(0.0030875 0 0)
(0.00452397 0 0)
(0.00658017 0 0)
(0.00949981 0 0)
(0.0136116 0 0)
(0.0193544 0 0)
(0.027307 0 0)
(0.0382252 0 0)
(0.0530832 0 0)
(0.073122 0 0)
(0.0999021 0 0)
(0.135359 0 0)
(0.181858 0 0)
(0.242251 0 0)
(0.319914 0 0)
(0.418781 0 0)
(0.543348 0 0)
(0.698649 0 0)
(0.890191 0 0)
(1.12384 0 0)
(1.40566 0 0)
(1.74166 0 0)
(2.13752 0 0)
(2.59823 0 0)
(3.12769 0 0)
(3.72846 0 0)
(4.40162 0 0)
(5.14666 0 0)
(5.96149 0 0)
(6.84262 0 0)
(7.78538 0 0)
(8.78424 0 0)
(9.83318 0 0)
(10.926 0 0)
(12.0567 0 0)
(13.2196 0 0)
(14.4098 0 0)
(15.6227 0 0)
(16.8548 0 0)
(18.103 0 0)
(19.3649 0 0)
(20.6386 0 0)
(21.9227 0 0)
(23.216 0 0)
(24.5177 0 0)
(25.8273 0 0)
(27.1441 0 0)
(28.4678 0 0)
(29.7982 0 0)
(31.1349 0 0)
(32.4777 0 0)
(33.8264 0 0)
(35.1809 0 0)
(36.5409 0 0)
(37.9063 0 0)
(39.2769 0 0)
(40.6526 0 0)
(42.0332 0 0)
(43.4186 0 0)
(44.8086 0 0)
(46.2031 0 0)
(47.6019 0 0)
(49.0051 0 0)
(50.4123 0 0)
(51.8236 0 0)
(53.2387 0 0)
(54.6577 0 0)
(56.0804 0 0)
(57.5066 0 0)
(58.9364 0 0)
(60.3695 0 0)
(61.806 0 0)
(63.2456 0 0)
(64.6885 0 0)
(66.1343 0 0)
(67.5832 0 0)
(69.0349 0 0)
(70.4894 0 0)
(71.9467 0 0)
(73.4067 0 0)
(74.8692 0 0)
(76.3343 0 0)
(77.8018 0 0)
(79.2717 0 0)
(80.7439 0 0)
(82.2184 0 0)
(83.6951 0 0)
(85.1738 0 0)
(86.6547 0 0)
(88.1376 0 0)
(89.6224 0 0)
(91.109 0 0)
(92.5976 0 0)
(94.0878 0 0)
(95.5798 0 0)
(97.0735 0 0)
(98.5687 0 0)
(100.066 0 0)
(101.564 0 0)
(103.064 0 0)
(104.565 0 0)
(106.067 0 0)
(107.571 0 0)
(109.076 0 0)
(110.582 0 0)
(112.089 0 0)
(113.598 0 0)
(115.107 0 0)
(116.618 0 0)
(118.129 0 0)
(119.641 0 0)
(121.154 0 0)
(122.668 0 0)
(124.183 0 0)
(125.698 0 0)
(127.214 0 0)
(128.73 0 0)
(130.247 0 0)
(131.765 0 0)
(133.283 0 0)
(134.801 0 0)
(136.32 0 0)
(137.839 0 0)
(139.358 0 0)
(140.878 0 0)
(142.397 0 0)
(143.917 0 0)
(145.437 0 0)
(146.956 0 0)
(148.476 0 0)
(149.995 0 0)
(151.515 0 0)
(153.034 0 0)
(154.553 0 0)
(156.071 0 0)
(157.589 0 0)
(159.107 0 0)
(160.624 0 0)
(162.14 0 0)
(163.656 0 0)
(165.171 0 0)
(166.685 0 0)
(168.198 0 0)
(169.711 0 0)
(171.222 0 0)
(172.733 0 0)
(174.242 0 0)
(175.75 0 0)
(177.257 0 0)
(178.762 0 0)
(180.266 0 0)
(181.768 0 0)
(183.269 0 0)
(184.768 0 0)
(186.266 0 0)
(187.761 0 0)
(189.254 0 0)
(190.745 0 0)
(192.235 0 0)
(193.721 0 0)
(195.206 0 0)
(196.687 0 0)
(198.167 0 0)
(199.643 0 0)
(201.116 0 0)
(202.587 0 0)
(204.054 0 0)
(205.518 0 0)
(206.979 0 0)
(208.436 0 0)
(209.889 0 0)
(211.339 0 0)
(212.784 0 0)
(214.226 0 0)
(215.663 0 0)
(217.095 0 0)
(218.522 0 0)
(219.945 0 0)
(221.363 0 0)
(222.775 0 0)
(224.182 0 0)
(225.583 0 0)
(226.978 0 0)
(228.367 0 0)
(229.749 0 0)
(231.125 0 0)
(232.494 0 0)
(233.856 0 0)
(235.21 0 0)
(236.557 0 0)
(237.895 0 0)
(239.226 0 0)
(240.548 0 0)
(241.86 0 0)
(243.164 0 0)
(244.458 0 0)
(245.743 0 0)
(247.017 0 0)
(248.28 0 0)
(249.533 0 0)
(250.774 0 0)
(252.004 0 0)
(253.222 0 0)
(254.427 0 0)
(255.62 0 0)
(256.799 0 0)
(257.965 0 0)
(259.117 0 0)
(260.254 0 0)
(261.377 0 0)
(262.484 0 0)
(263.576 0 0)
(264.651 0 0)
(265.71 0 0)
(266.752 0 0)
(267.777 0 0)
(268.783 0 0)
(269.772 0 0)
(270.742 0 0)
(271.693 0 0)
(272.625 0 0)
(273.536 0 0)
(274.428 0 0)
(275.299 0 0)
(276.15 0 0)
(276.979 0 0)
(277.787 0 0)
(278.573 0 0)
(279.337 0 0)
(280.079 0 0)
(280.799 0 0)
(281.496 0 0)
(282.171 0 0)
(282.823 0 0)
(283.452 0 0)
(284.059 0 0)
(284.642 0 0)
(285.203 0 0)
(285.741 0 0)
(286.257 0 0)
(286.751 0 0)
(287.222 0 0)
(287.671 0 0)
(288.099 0 0)
(288.506 0 0)
(288.892 0 0)
(289.257 0 0)
(289.602 0 0)
(289.928 0 0)
(290.235 0 0)
(290.523 0 0)
(290.793 0 0)
(291.046 0 0)
(291.282 0 0)
(291.502 0 0)
(291.707 0 0)
(291.896 0 0)
(292.072 0 0)
(292.234 0 0)
(292.383 0 0)
(292.52 0 0)
(292.645 0 0)
(292.76 0 0)
(292.864 0 0)
(292.959 0 0)
(293.045 0 0)
(293.122 0 0)
(293.192 0 0)
(293.254 0 0)
(293.31 0 0)
(293.36 0 0)
(293.404 0 0)
(293.443 0 0)
(293.478 0 0)
(293.508 0 0)
(293.534 0 0)
(293.556 0 0)
(293.576 0 0)
(293.592 0 0)
(293.607 0 0)
(293.618 0 0)
(293.628 0 0)
(293.636 0 0)
(293.643 0 0)
(293.648 0 0)
(293.652 0 0)
(293.655 0 0)
(293.657 0 0)
(293.659 0 0)
(293.659 0 0)
(293.66 0 0)
(293.659 0 0)
(293.659 0 0)
(293.658 0 0)
(293.657 0 0)
(293.655 0 0)
(293.654 0 0)
(293.652 0 0)
(293.65 0 0)
(293.649 0 0)
(293.647 0 0)
(293.645 0 0)
(293.643 0 0)
(293.641 0 0)
(293.64 0 0)
(293.638 0 0)
(293.636 0 0)
(293.635 0 0)
(293.633 0 0)
(293.632 0 0)
(293.631 0 0)
(293.629 0 0)
(293.628 0 0)
(293.627 0 0)
(293.626 0 0)
(293.625 0 0)
(293.625 0 0)
(293.624 0 0)
(293.624 0 0)
(293.623 0 0)
(293.623 0 0)
(293.623 0 0)
(293.623 0 0)
(293.624 0 0)
(293.624 0 0)
(293.626 0 0)
(293.627 0 0)
(293.629 0 0)
(293.632 0 0)
(293.635 0 0)
(293.639 0 0)
(293.644 0 0)
(293.649 0 0)
(293.657 0 0)
(293.665 0 0)
(293.675 0 0)
(293.687 0 0)
(293.702 0 0)
(293.718 0 0)
(293.737 0 0)
(293.759 0 0)
(293.784 0 0)
(293.812 0 0)
(293.844 0 0)
(293.88 0 0)
(293.92 0 0)
(293.964 0 0)
(294.012 0 0)
(294.065 0 0)
(294.121 0 0)
(294.182 0 0)
(294.247 0 0)
(294.316 0 0)
(294.388 0 0)
(294.463 0 0)
(294.541 0 0)
(294.62 0 0)
(294.701 0 0)
(294.783 0 0)
(294.864 0 0)
(294.944 0 0)
(295.023 0 0)
(295.099 0 0)
(295.171 0 0)
(295.238 0 0)
(295.3 0 0)
(295.355 0 0)
(295.404 0 0)
(295.444 0 0)
(295.476 0 0)
(295.499 0 0)
(295.512 0 0)
(295.515 0 0)
(295.509 0 0)
(295.492 0 0)
(295.466 0 0)
(295.43 0 0)
(295.385 0 0)
(295.332 0 0)
(295.271 0 0)
(295.204 0 0)
(295.13 0 0)
(295.052 0 0)
(294.971 0 0)
(294.886 0 0)
(294.8 0 0)
(294.714 0 0)
(294.628 0 0)
(294.543 0 0)
(294.46 0 0)
(294.38 0 0)
(294.304 0 0)
(294.231 0 0)
(294.162 0 0)
(294.099 0 0)
(294.039 0 0)
(293.985 0 0)
(293.935 0 0)
(293.889 0 0)
(293.849 0 0)
(293.812 0 0)
(293.78 0 0)
(293.751 0 0)
(293.726 0 0)
(293.704 0 0)
(293.685 0 0)
(293.668 0 0)
(293.654 0 0)
(293.643 0 0)
(293.633 0 0)
(293.625 0 0)
(293.618 0 0)
(293.612 0 0)
(293.608 0 0)
(293.605 0 0)
(293.602 0 0)
(293.6 0 0)
(293.598 0 0)
(293.598 0 0)
(293.597 0 0)
(293.597 0 0)
(293.597 0 0)
(293.597 0 0)
(293.598 0 0)
(293.598 0 0)
(293.599 0 0)
(293.6 0 0)
(293.601 0 0)
(293.602 0 0)
(293.603 0 0)
(293.604 0 0)
(293.605 0 0)
(293.606 0 0)
(293.607 0 0)
(293.608 0 0)
(293.609 0 0)
(293.61 0 0)
(293.611 0 0)
(293.612 0 0)
(293.614 0 0)
(293.615 0 0)
(293.616 0 0)
(293.617 0 0)
(293.618 0 0)
(293.619 0 0)
(293.62 0 0)
(293.621 0 0)
(293.621 0 0)
(293.622 0 0)
(293.622 0 0)
(293.623 0 0)
(293.623 0 0)
(293.623 0 0)
(293.622 0 0)
(293.621 0 0)
(293.62 0 0)
(293.618 0 0)
(293.616 0 0)
(293.613 0 0)
(293.609 0 0)
(293.603 0 0)
(293.597 0 0)
(293.589 0 0)
(293.579 0 0)
(293.567 0 0)
(293.552 0 0)
(293.534 0 0)
(293.513 0 0)
(293.487 0 0)
(293.456 0 0)
(293.419 0 0)
(293.374 0 0)
(293.321 0 0)
(293.258 0 0)
(293.182 0 0)
(293.092 0 0)
(292.985 0 0)
(292.857 0 0)
(292.706 0 0)
(292.526 0 0)
(292.312 0 0)
(292.058 0 0)
(291.756 0 0)
(291.397 0 0)
(290.971 0 0)
(290.465 0 0)
(289.864 0 0)
(289.148 0 0)
(288.296 0 0)
(287.282 0 0)
(286.073 0 0)
(284.628 0 0)
(282.901 0 0)
(280.831 0 0)
(278.344 0 0)
(275.349 0 0)
(271.729 0 0)
(267.334 0 0)
(261.973 0 0)
(255.391 0 0)
(247.248 0 0)
(237.074 0 0)
(224.195 0 0)
(207.591 0 0)
(185.664 0 0)
(156.053 0 0)
(116.614 0 0)
(70.4674 0 0)
(31.4128 0 0)
(10.4801 0 0)
(2.92612 0 0)
(0.752024 0 0)
(0.187441 0 0)
(0.0463113 0 0)
(0.0114175 0 0)
(0.00281345 0 0)
(0.000693196 0 0)
(0.000170788 0 0)
(4.20777e-05 0 0)
(1.03667e-05 0 0)
(2.55404e-06 0 0)
(6.29229e-07 0 0)
(1.55018e-07 0 0)
(3.81905e-08 0 0)
(9.40754e-09 0 0)
(2.31733e-09 0 0)
(5.70029e-10 0 0)
(1.39936e-10 0 0)
(3.36529e-11 0 0)
(7.64375e-12 0 0)
(1.21075e-12 0 0)
(-2.33397e-13 0 0)
(-6.12667e-13 0 0)
(-3.20921e-13 0 0)
(-4.81381e-13 0 0)
(-3.06334e-13 0 0)
(-1.16699e-13 0 0)
(-2.1881e-13 0 0)
(4.3762e-14 0 0)
(-3.06334e-13 0 0)
(4.3762e-14 0 0)
(-1.89635e-13 0 0)
(2.33397e-13 0 0)
(-1.02111e-13 0 0)
(2.91746e-13 0 0)
(-7.29366e-14 0 0)
(2.77159e-13 0 0)
(-1.6046e-13 0 0)
(4.52207e-13 0 0)
(-2.33397e-13 0 0)
(2.91746e-13 0 0)
(8.75239e-14 0 0)
(3.35508e-13 0 0)
(7.29366e-14 0 0)
(2.33397e-13 0 0)
(1.75048e-13 0 0)
(2.47984e-13 0 0)
(5.83493e-14 0 0)
(2.1881e-13 0 0)
(-1.02111e-13 0 0)
(1.16699e-13 0 0)
(-5.83493e-14 0 0)
(8.75239e-14 0 0)
(5.83493e-14 0 0)
(1.45873e-13 0 0)
(5.25143e-13 0 0)
(5.83493e-13 0 0)
(9.7735e-13 0 0)
(4.23032e-13 0 0)
(9.19001e-13 0 0)
(3.64683e-13 0 0)
(9.04414e-13 0 0)
(3.06334e-13 0 0)
(8.75239e-13 0 0)
(2.1881e-13 0 0)
(9.48176e-13 0 0)
(3.64683e-13 0 0)
(8.46064e-13 0 0)
(5.39731e-13 0 0)
(8.46064e-13 0 0)
(4.95969e-13 0 0)
(8.02302e-13 0 0)
(4.66794e-13 0 0)
(7.87715e-13 0 0)
(4.52207e-13 0 0)
(7.14779e-13 0 0)
(6.56429e-13 0 0)
(7.00191e-13 0 0)
(3.7927e-13 0 0)
(4.3762e-13 0 0)
(4.08445e-13 0 0)
(4.08445e-13 0 0)
(2.62572e-13 0 0)
(4.3762e-13 0 0)
(4.23032e-13 0 0)
(2.62572e-13 0 0)
(5.9808e-13 0 0)
(2.47984e-13 0 0)
(8.1689e-13 0 0)
(4.66794e-13 0 0)
(8.46064e-13 0 0)
(6.56429e-13 0 0)
(6.85604e-13 0 0)
(6.56429e-13 0 0)
(7.5854e-13 0 0)
(5.39731e-13 0 0)
(4.23032e-13 0 0)
(1.6046e-13 0 0)
(3.64683e-13 0 0)
(-4.3762e-14 0 0)
(1.45873e-14 0 0)
(-4.3762e-14 0 0)
(-1.31286e-13 0 0)
(4.3762e-14 0 0)
(-1.45873e-14 0 0)
(-1.45873e-13 0 0)
(-1.6046e-13 0 0)
(-4.08445e-13 0 0)
(-1.31286e-13 0 0)
(-2.1881e-13 0 0)
(-1.02111e-13 0 0)
(-1.45873e-13 0 0)
(-2.33397e-13 0 0)
(-4.3762e-14 0 0)
(-5.83493e-14 0 0)
(7.29366e-14 0 0)
(-1.45873e-14 0 0)
(-1.45873e-13 0 0)
(-2.91746e-13 0 0)
(-1.75048e-13 0 0)
(-2.62572e-13 0 0)
(-4.95969e-13 0 0)
(-2.47984e-13 0 0)
(-5.68905e-13 0 0)
(-1.75048e-13 0 0)
(-5.25143e-13 0 0)
(-1.31286e-13 0 0)
(-3.93858e-13 0 0)
(-1.02111e-13 0 0)
(-1.6046e-13 0 0)
(-1.45873e-14 0 0)
(8.75239e-14 0 0)
(-4.3762e-14 0 0)
(1.45873e-14 0 0)
(1.45873e-14 0 0)
(-1.16699e-13 0 0)
(-5.83493e-14 0 0)
(-2.62572e-13 0 0)
(-1.02111e-13 0 0)
(-1.16699e-13 0 0)
(-8.75239e-14 0 0)
(-1.45873e-13 0 0)
(-8.75239e-14 0 0)
(-5.83493e-14 0 0)
(-8.75239e-14 0 0)
(4.3762e-14 0 0)
(1.8371e-26 0 0)
(-4.3762e-14 0 0)
(-1.31286e-13 0 0)
(-1.31286e-13 0 0)
(-1.16699e-13 0 0)
(-1.6046e-13 0 0)
(-1.45873e-13 0 0)
(-3.50096e-13 0 0)
(-1.45873e-13 0 0)
(-2.62572e-13 0 0)
(-1.31286e-13 0 0)
(-3.06334e-13 0 0)
(-4.3762e-14 0 0)
(-4.08445e-13 0 0)
(-2.04222e-13 0 0)
(-3.20921e-13 0 0)
(-7.29366e-14 0 0)
(-1.31286e-13 0 0)
(-8.75239e-14 0 0)
(2.33397e-13 0 0)
(-1.02111e-13 0 0)
(1.02111e-13 0 0)
(-8.75239e-14 0 0)
(-2.1881e-13 0 0)
(-3.7927e-13 0 0)
(-6.12667e-13 0 0)
(-5.10556e-13 0 0)
(-6.12667e-13 0 0)
(-3.64683e-13 0 0)
(-6.41842e-13 0 0)
(-2.04222e-13 0 0)
(-3.7927e-13 0 0)
(-2.91746e-14 0 0)
(-2.62572e-13 0 0)
(1.16699e-13 0 0)
(-1.75048e-13 0 0)
(1.16699e-13 0 0)
(-2.04222e-13 0 0)
(-2.91746e-14 0 0)
(-3.20921e-13 0 0)
(-2.62572e-13 0 0)
(-4.08445e-13 0 0)
(-2.77159e-13 0 0)
(-3.7927e-13 0 0)
(-3.35508e-13 0 0)
(-4.08445e-13 0 0)
(-2.1881e-13 0 0)
(-6.12667e-13 0 0)
(-2.62572e-13 0 0)
(-4.52207e-13 0 0)
(-3.7927e-13 0 0)
(-3.50096e-13 0 0)
(-4.3762e-13 0 0)
(-3.06334e-13 0 0)
(-4.3762e-13 0 0)
(-1.31286e-13 0 0)
(-5.10556e-13 0 0)
(-4.3762e-13 0 0)
(-5.68905e-13 0 0)
(-6.85604e-13 0 0)
(-4.23032e-13 0 0)
(-5.25143e-13 0 0)
(-4.81381e-13 0 0)
(-8.02302e-13 0 0)
(-5.9808e-13 0 0)
(-6.12667e-13 0 0)
(-8.02302e-13 0 0)
(-6.71017e-13 0 0)
(-8.02302e-13 0 0)
)
;

boundaryField
{
    sides
    {
        type            zeroGradient;
    }
    empty
    {
        type            empty;
    }
}


// ************************************************************************* //
