/*--------------------------------*- C++ -*----------------------------------*\
  =========                 |
  \\      /  F ield         | OpenFOAM: The Open Source CFD Toolbox
   \\    /   O peration     | Website:  https://openfoam.org
    \\  /    A nd           | Version:  13
     \\/     M anipulation  |
\*---------------------------------------------------------------------------*/
FoamFile
{
    format      ascii;
    class       surfaceScalarField;
    location    "35.395967";
    object      phi;
}
// * * * * * * * * * * * * * * * * * * * * * * * * * * * * * * * * * * * * * //

dimensions      [0 3 -1 0 0 0 0];

internalField   nonuniform List<scalar> 
34068
(
-1.1729617e-08
-3.6538998e-08
4.8268615e-08
-5.220453e-08
-1.2600304e-07
1.6647795e-07
-1.3102929e-07
-2.4542201e-07
3.2424677e-07
-2.603329e-07
-4.0291726e-07
5.3222087e-07
-4.5534275e-07
-6.0863899e-07
8.0364884e-07
-7.3505737e-07
-8.7525073e-07
1.1549654e-06
-1.1231035e-06
-1.2184619e-06
1.606508e-06
-1.6488159e-06
-1.6576107e-06
2.1833231e-06
-2.3484513e-06
-2.216488e-06
2.9161234e-06
-3.2666421e-06
-2.9242045e-06
3.8423954e-06
-4.4581148e-06
-3.8161835e-06
5.0076562e-06
-5.9897009e-06
-4.9352687e-06
6.4668548e-06
-7.9426645e-06
-6.3329246e-06
8.2858883e-06
-1.0415371e-05
-8.0704953e-06
1.0543202e-05
-1.3526283e-05
-1.0220451e-05
1.3331363e-05
-1.7417294e-05
-1.2867522e-05
1.6758532e-05
-2.2257308e-05
-1.6109569e-05
2.0949583e-05
-2.8246003e-05
-2.0057977e-05
2.6046671e-05
-3.5617561e-05
-2.4837274e-05
3.2208832e-05
-4.464414e-05
-3.0583617e-05
3.9610196e-05
-5.5638653e-05
-3.7441664e-05
4.8436176e-05
-6.8956294e-05
-4.5559334e-05
5.8876975e-05
-8.4994088e-05
-5.5079861e-05
7.1117655e-05
-0.00010418737
-6.6130777e-05
8.5324058e-05
-0.00012700199
-7.8809651e-05
0.00010162427
-0.00015392074
-9.3167349e-05
0.0001200861
-0.00018542261
-0.00010919105
0.00014069292
-0.00022195437
-0.00012679227
0.00016332404
-0.00026389652
-0.0001458097
0.00018775186
-0.00031153118
-0.00016604163
0.00021367629
-0.00036502737
-0.00018732142
0.00024081761
-0.00042446328
-0.00020962815
0.00026906406
-0.00048989272
-0.00023318149
0.00029861093
-0.00056143283
-0.00025845094
0.00032999106
-0.00063933196
-0.00028607307
0.00036397219
-0.00072399691
-0.0003167556
0.00040142055
-0.00081599247
-0.00035124194
0.0004432375
-0.00091603719
-0.00039034027
0.00049038499
-0.0010250127
-0.0004349858
0.0005439613
-0.0011439949
-0.00048631223
0.00060529445
-0.0012743132
-0.00054572121
0.00067603945
-0.001417644
-0.00061493932
0.00075827013
-0.0015761502
-0.00069604283
0.00085454909
-0.001752685
-0.00079142169
0.00096795643
-0.0019510491
-0.00090359632
0.0011019605
-0.0021762412
-0.0010347303
0.0012599224
-0.0024348431
-0.0011859538
0.0014445557
-0.0027355132
-0.0013560631
0.0016567331
-0.0030894479
-0.0015390248
0.0018929595
-0.0035108497
-0.0017197097
0.0021411116
-0.0040173655
-0.0018664182
0.002372934
-0.0046301303
-0.0019171952
0.00252996
-0.0053727195
-0.0017566389
0.0024992281
-0.0062671911
-0.0011759359
0.0020704075
-0.0073241358
0.00018304479
0.00087389995
-0.0085244599
0.0029109675
-0.0017106434
-0.0097862951
0.0078584777
-0.0065966424
-0.010923264
0.016027339
-0.01489037
-0.011593534
0.027838732
-0.027168462
-0.011442783
0.042245878
-0.04239663
-0.0104898
0.055215764
-0.056168747
-0.0084737404
0.058218797
-0.060234856
-0.0034616672
0.03437071
-0.039382783
0.0078790994
-0.030942887
0.01960212
-0.10784525
0.022398495
0.09332585
-1.2024555e-08
-2.4514442e-08
-5.351219e-08
-8.4515402e-08
-1.3429501e-07
-1.6463919e-07
-2.6676275e-07
-2.7044951e-07
-4.6646807e-07
-4.0893368e-07
-7.5289067e-07
-5.8882812e-07
-1.1503128e-06
-8.2103973e-07
-1.6888356e-06
-1.1190879e-06
-2.4056687e-06
-1.4996548e-06
-3.3466258e-06
-1.9832474e-06
-4.5678941e-06
-2.5949152e-06
-6.138108e-06
-3.3650548e-06
-8.1407417e-06
-4.330291e-06
-1.0676851e-05
-5.5343856e-06
-1.386816e-05
-7.0291419e-06
-1.786047e-05
-8.8752126e-06
-2.282734e-05
-1.1142698e-05
-2.8973936e-05
-1.3911381e-05
-3.654084e-05
-1.7270369e-05
-4.580758e-05
-2.1316877e-05
-5.7095431e-05
-2.6153813e-05
-7.0768952e-05
-3.1885813e-05
-8.7235426e-05
-3.8613387e-05
-0.00010694122
-4.642498e-05
-0.00013036376
-5.5387117e-05
-0.00015799759
-6.5533514e-05
-0.00019033329
-7.6855354e-05
-0.00022782854
-8.9297027e-05
-0.00027087367
-0.00010276457
-0.00031975936
-0.00011715594
-0.00037466225
-0.00013241853
-0.00043566829
-0.00014862211
-0.00050284041
-0.00016600937
-0.00057630706
-0.00018498429
-0.00065633125
-0.00020604887
-0.00074333915
-0.00022974771
-0.00083792031
-0.00025666078
-0.00094082411
-0.00028743646
-0.0010529695
-0.00032284038
-0.0011754768
-0.00036380498
-0.0013097263
-0.00041147167
-0.0014574515
-0.00046721416
-0.0016208739
-0.00053262043
-0.0018028996
-0.00060939593
-0.0020073628
-0.00069913313
-0.0022392404
-0.00080285278
-0.002504979
-0.00092021513
-0.0028129026
-0.0010481395
-0.003173514
-0.0011784135
-0.0035996989
-0.0012935248
-0.0041067332
-0.001359384
-0.0047116565
-0.0013122718
-0.0054312065
-0.001037089
-0.0062764261
-0.00033071629
-0.007241423
0.0011480417
-0.0082871684
0.0039567129
-0.0093181246
0.0088894339
-0.010142181
0.016851396
-0.010445312
0.028141863
-0.0098679013
0.041668467
-0.0083601821
0.053708045
-0.0053034809
0.055162096
0.0020520537
0.027015175
0.016395194
-0.045286027
-0.1235936
0.032143551
-1.2161168e-08
-1.2353274e-08
-5.4118614e-08
-4.2557955e-08
-1.3581337e-07
-8.2944436e-08
-2.6977401e-07
-1.3648887e-07
-4.7173553e-07
-2.0697216e-07
-7.614134e-07
-2.9915025e-07
-1.1634136e-06
-4.1903949e-07
-1.7082469e-06
-5.7425469e-07
-2.4336287e-06
-7.7427296e-07
-3.386018e-06
-1.0308582e-06
-4.6224241e-06
-1.3585091e-06
-6.2125152e-06
-1.7749636e-06
-8.2410643e-06
-2.3017419e-06
-1.0810742e-05
-2.9647079e-06
-1.4045269e-05
-3.794615e-06
-1.80929e-05
-4.8275816e-06
-2.3130183e-05
-6.105415e-06
-2.9365887e-05
-7.6756774e-06
-3.7044907e-05
-9.5913485e-06
-4.6451876e-05
-1.1909908e-05
-5.7914052e-05
-1.4691637e-05
-7.1802916e-05
-1.7996949e-05
-8.853368e-05
-2.1882623e-05
-0.00010856168
-2.6396984e-05
-0.00013237432
-3.1574468e-05
-0.00016047722
-3.7430619e-05
-0.00019337293
-4.3959648e-05
-0.00023153196
-5.1137991e-05
-0.00027535809
-5.8938445e-05
-0.00032515545
-6.7358583e-05
-0.00038111319
-7.6460787e-05
-0.00044332732
-8.6407982e-05
-0.00051186761
-9.7469075e-05
-0.00058686738
-0.00010998452
-0.00066859481
-0.00012432145
-0.00075748354
-0.00014085898
-0.00085413413
-0.00016001019
-0.00095931075
-0.00018225984
-0.0010739501
-0.00020820099
-0.0011991915
-0.00023856363
-0.0013364326
-0.00027423061
-0.0014874177
-0.00031622897
-0.001654365
-0.0003656732
-0.0018401465
-0.00042361436
-0.0020485079
-0.00049077176
-0.0022842323
-0.00056712835
-0.0025533917
-0.00065105579
-0.0028636269
-0.00073790431
-0.0032242427
-0.00081779765
-0.0036460848
-0.00087168266
-0.0041410336
-0.00086443513
-0.0047206066
-0.00073269888
-0.0053928027
-0.00036489289
-0.00615503
0.00043151101
-0.0069817853
0.001974797
-0.0078094691
0.0047843967
-0.0085185073
0.0095984721
-0.0088946179
0.017227506
-0.0085939694
0.027841215
-0.0072282528
0.040302751
-0.0046397195
0.051119511
0.00030770466
0.050214672
0.01113246
0.01619042
0.028610053
-0.062763621
-0.14024776
0.045264208
-1.2121963e-08
-2.3131026e-10
-5.3945326e-08
-7.3459237e-10
-1.3539317e-07
-1.4965963e-09
-2.6901173e-07
-2.8703058e-09
-4.7057198e-07
-5.4119009e-09
-7.5976713e-07
-9.9551105e-09
-1.1611328e-06
-1.7673856e-08
-1.7051754e-06
-3.0212027e-08
-2.429643e-06
-4.9805374e-08
-3.3810677e-06
-7.9433506e-08
-4.6165843e-06
-1.2299242e-07
-6.2060622e-06
-1.8548574e-07
-8.2345755e-06
-2.7322854e-07
-1.0805233e-05
-3.9404999e-07
-1.4042373e-05
-5.5747546e-07
-1.8095097e-05
-7.7485741e-07
-2.31411e-05
-1.0594121e-06
-2.9390672e-05
-1.4261051e-06
-3.7090705e-05
-1.8913156e-06
-4.6528413e-05
-2.4722002e-06
-5.8034361e-05
-3.1856896e-06
-7.1984221e-05
-4.0470884e-06
-8.8798482e-05
-5.0683628e-06
-0.00010893906
-6.2564085e-06
-0.00013290155
-7.6119793e-06
-0.00016120162
-9.1305433e-06
-0.00019435417
-1.0807103e-05
-0.00023284451
-1.2647651e-05
-0.00027709357
-1.4689384e-05
-0.00032742406
-1.7028097e-05
-0.0003840427
-1.9842145e-05
-0.00044705863
-2.3392053e-05
-0.00051654737
-2.7980329e-05
-0.0005926407
-3.3891193e-05
-0.0006756012
-4.1360948e-05
-0.00076585687
-5.0603312e-05
-0.00086400443
-6.1862626e-05
-0.00097080521
-7.5459062e-05
-0.0010871919
-9.1814283e-05
-0.0012142952
-0.00011146036
-0.0013534947
-0.00013503114
-0.0015064984
-0.00016322525
-0.0016754557
-0.00019671591
-0.0018631152
-0.00023595483
-0.0020730083
-0.00028087862
-0.002309552
-0.00033058471
-0.0025782032
-0.00038240455
-0.0028855745
-0.00043053302
-0.0032392761
-0.00046409611
-0.0036474059
-0.00046355281
-0.0041174511
-0.00039438994
-0.0046540588
-0.00019609112
-0.0052546347
0.00023568293
-0.0059008687
0.0010777451
-0.006544901
0.0026188292
-0.0070956011
0.0053350968
-0.0074070064
0.0099098774
-0.0071963792
0.017016879
-0.0060217144
0.02666655
-0.0034518687
0.037732905
0.00081865303
0.04684899
0.0087283682
0.042304957
0.023434704
0.0014840847
0.043180228
-0.082509145
-0.15715907
0.060091542
-1.1919642e-08
1.1688332e-08
-5.304599e-08
4.0391755e-08
-1.3313852e-07
7.8595934e-08
-2.6452093e-07
1.285121e-07
-4.6269418e-07
1.9276135e-07
-7.4708317e-07
2.7443388e-07
-1.1419137e-06
3.7715666e-07
-1.6772954e-06
5.0516971e-07
-2.3905111e-06
6.634103e-07
-3.327554e-06
8.5760938e-07
-4.5449443e-06
1.0943978e-06
-6.1118597e-06
1.3814297e-06
-8.1126094e-06
1.7275212e-06
-1.0649474e-05
2.1428144e-06
-1.3845916e-05
2.6389664e-06
-1.785015e-05
3.2293769e-06
-2.2839017e-05
3.9294546e-06
-2.9022058e-05
4.7569357e-06
-3.6645621e-05
5.7322481e-06
-4.5996725e-05
6.8789034e-06
-5.7406275e-05
8.2238599e-06
-7.1251079e-05
9.7977156e-06
-8.7953888e-05
1.1634446e-05
-0.00010798045
1.3770155e-05
-0.00013183232
1.623989e-05
-0.00016003392
1.9071056e-05
-0.00019311242
2.2271396e-05
-0.00023156962
2.5809553e-05
-0.00027584726
2.9588252e-05
-0.00032629198
3.3416619e-05
-0.00038313412
3.6999997e-05
-0.00044650022
3.9974055e-05
-0.00051647129
4.1990739e-05
-0.00059317122
4.2808732e-05
-0.00067684567
4.2313509e-05
-0.00076790234
4.0453356e-05
-0.00086691711
3.7152142e-05
-0.0009746292
3.225303e-05
-0.0010919445
2.5501029e-05
-0.0012199567
1.65518e-05
-0.00135999
5.0021679e-06
-0.0015136667
-9.548532e-06
-0.001683001
-2.7381602e-05
-0.0018705271
-4.8428709e-05
-0.0020794331
-7.197267e-05
-0.0023136014
-9.6416355e-05
-0.0025776365
-0.00011836948
-0.0028767835
-0.00013138598
-0.0032164722
-0.00012440748
-0.0036013598
-7.8665171e-05
-0.0040335577
3.7807937e-05
-0.0045094358
0.000279787
-0.0050141114
0.00074035848
-0.0055110418
0.0015746755
-0.0059286012
0.0030363887
-0.0061455121
0.0055520077
-0.0059575899
0.0097219552
-0.004945062
0.016004351
-0.0025924244
0.024313913
0.0015338282
0.033606652
0.0080747954
0.040308022
0.019445909
0.030933843
0.037840024
-0.01691003
0.058684754
-0.10335388
-0.1730665
0.074592187
-1.1541364e-08
2.3229696e-08
-5.1362127e-08
8.0212518e-08
-1.289166e-07
1.5615041e-07
-2.5615547e-07
2.5575097e-07
-4.4811819e-07
3.8472407e-07
-7.2365491e-07
5.4997059e-07
-1.1063021e-06
7.5980388e-07
-1.6253385e-06
1.0242061e-06
-2.3170528e-06
1.3551246e-06
-3.2262563e-06
1.7668128e-06
-4.4080736e-06
2.2762152e-06
-5.9300499e-06
2.903406e-06
-7.8746024e-06
3.6720736e-06
-1.0341842e-05
4.6100541e-06
-1.3452777e-05
5.749901e-06
-1.7352886e-05
7.1294859e-06
-2.221602e-05
8.7925891e-06
-2.8248537e-05
1.0789453e-05
-3.5693505e-05
1.3177216e-05
-4.483473e-05
1.6020128e-05
-5.600021e-05
1.938934e-05
-6.9564503e-05
2.3362008e-05
-8.5949235e-05
2.8019178e-05
-0.00010562081
3.3441726e-05
-0.00012908403
3.9703113e-05
-0.00015687024
4.6857268e-05
-0.00018951838
5.491953e-05
-0.00022754797
6.3839149e-05
-0.00027142498
7.3465258e-05
-0.0003215255
8.3517139e-05
-0.00037811004
9.3584542e-05
-0.00044132779
0.00010319181
-0.00051126598
0.00011192893
-0.00058803499
0.00011957774
-0.00067185187
0.00012613039
-0.00076308832
0.00013168981
-0.00086228129
0.00013634511
-0.0009701274
0.00014009915
-0.0010874815
0.00014285513
-0.0012153699
0.00014444024
-0.0013550226
0.00014465484
-0.0015079248
0.00014335361
-0.0016758882
0.00014058188
-0.0018611422
0.00013682523
-0.0020664033
0.00013328845
-0.0022948521
0.00013203251
-0.0025500087
0.00013678704
-0.002835421
0.00015402639
-0.003153864
0.00019403545
-0.0035058523
0.00027332313
-0.0038871146
0.00041907023
-0.0042842839
0.00067695631
-0.0046680302
0.0011241048
-0.0049807709
0.0018874162
-0.0051222323
0.0031778501
-0.004925014
0.0053547894
-0.0040537591
0.0088507004
-0.0019567754
0.013907367
0.0018210891
0.020536048
0.0076802728
0.027747469
0.016804666
0.031183629
0.031817056
0.015921453
0.053212882
-0.038305856
0.074397837
-0.12453883
-0.1864638
0.087795128
-1.0981353e-08
3.4211049e-08
-4.8873242e-08
1.1810441e-07
-1.2268087e-07
2.2995804e-07
-2.4379566e-07
3.7686576e-07
-4.265654e-07
5.6749381e-07
-6.889902e-07
8.1239539e-07
-1.0535669e-06
1.1243806e-06
-1.5483107e-06
1.5189498e-06
-2.207983e-06
2.0147969e-06
-3.0755611e-06
2.6343908e-06
-4.2039814e-06
3.4046356e-06
-5.6581983e-06
4.3576229e-06
-7.5175821e-06
5.5314574e-06
-9.8786977e-06
6.9711696e-06
-1.2858466e-05
8.7296689e-06
-1.6597713e-05
1.0868734e-05
-2.1265076e-05
1.3459951e-05
-2.7061168e-05
1.6585545e-05
-3.4222885e-05
2.0338933e-05
-4.3027596e-05
2.482484e-05
-5.3796894e-05
3.0158638e-05
-6.6899367e-05
3.6464481e-05
-8.2751733e-05
4.3871544e-05
-0.00010181738
5.2507374e-05
-0.00012460112
6.2486851e-05
-0.00015163872
7.3894868e-05
-0.00018347963
8.6760442e-05
-0.00022066167
0.00010102119
-0.00026367778
0.00011648137
-0.00031293867
0.00013277802
-0.00036874176
0.00014938763
-0.00043126506
0.00016571511
-0.00050060436
0.00018126822
-0.00057685215
0.00019582553
-0.00066018564
0.00020946388
-0.00075092435
0.00022242852
-0.00084954702
0.00023496778
-0.00095668558
0.0002472377
-0.0010731178
0.0002592873
-0.0011997707
0.0002710932
-0.0013377394
0.00028262353
-0.0014883191
0.00029393332
-0.0016530493
0.00030531203
-0.0018337641
0.00031754005
-0.0020325919
0.00033211621
-0.0022518349
0.00035127559
-0.002493703
0.00037865512
-0.0027597244
0.00042004779
-0.0030495422
0.00048385321
-0.0033588264
0.0005826073
-0.0036758075
0.00073605136
-0.0039756397
0.00097678848
-0.0042116527
0.0013601178
-0.0043018063
0.0019775698
-0.0041067101
0.0029827538
-0.0033680259
0.0046161052
-0.0016008247
0.0070834991
0.0017364597
0.010570083
0.0069603589
0.015312149
0.014630115
0.020077712
0.026518903
0.019294841
0.045123872
-0.0026835158
0.068968252
-0.062150235
0.089448969
-0.14501955
-0.19631411
0.099299284
-1.0245334e-08
4.4456383e-08
-4.5604395e-08
1.5346347e-07
-1.1449244e-07
2.9884608e-07
-2.2756397e-07
4.8993729e-07
-3.9825236e-07
7.381822e-07
-6.4342864e-07
1.0575717e-06
-9.842035e-07
1.4651555e-06
-1.4469e-06
1.9816463e-06
-2.064224e-06
2.632121e-06
-2.8766709e-06
3.4468378e-06
-3.9341991e-06
4.4621638e-06
-5.2982098e-06
5.7216336e-06
-7.0438712e-06
7.2771188e-06
-9.2628115e-06
9.19011e-06
-1.2066213e-05
1.1533071e-05
-1.5588301e-05
1.4390821e-05
-1.999021e-05
1.7861861e-05
-2.5464175e-05
2.205951e-05
-3.2237907e-05
2.7112664e-05
-4.0578959e-05
3.3165891e-05
-5.0798779e-05
4.0378458e-05
-6.3255978e-05
4.892168e-05
-7.8358181e-05
5.8973748e-05
-9.6561581e-05
7.0710774e-05
-0.00011836708
8.4292352e-05
-0.00014431159
9.9839379e-05
-0.0001749529
0.00011740175
-0.00021084656
0.00013691485
-0.00025251426
0.00015814908
-0.00030040571
0.00018066947
-0.00035486198
0.00020384391
-0.00041609723
0.00022695036
-0.0004842201
0.00024939109
-0.00055930283
0.00027090826
-0.0006414724
0.00029163344
-0.00073097946
0.00031193557
-0.00082822383
0.00033221215
-0.00093374884
0.00035276271
-0.0010482273
0.00037376581
-0.0011724536
0.0003953195
-0.0013073454
0.00041751532
-0.0014539535
0.00044054136
-0.0016134736
0.00046483218
-0.0017872541
0.00049132054
-0.0019767153
0.00052157745
-0.0021831101
0.00055767039
-0.0024071094
0.00060265439
-0.0026478919
0.00066083029
-0.002901473
0.00073743433
-0.0031578992
0.00083903345
-0.0033966158
0.000974768
-0.0035790512
0.0011592238
-0.0036375807
0.0014186473
-0.0034592417
0.0017992309
-0.0028501636
0.0023736757
-0.0014263482
0.0031922897
0.0013520566
0.0043050944
0.005869009
0.0060531306
0.012487857
0.0086933009
0.022187646
0.010377923
0.037045254
0.0044372327
0.059199687
-0.024837948
0.084646168
-0.087596716
0.10250287
-0.16287625
-0.20207763
0.10826639
-9.3452774e-09
5.380166e-08
-4.160508e-08
1.8572327e-07
-1.0447099e-07
3.6171199e-07
-2.0769224e-07
5.9315854e-07
-3.6357557e-07
8.9406553e-07
-5.875977e-07
1.2815938e-06
-8.9915347e-07
1.7767113e-06
-1.3224628e-06
2.4049557e-06
-1.8876701e-06
3.1973282e-06
-2.6321648e-06
4.1913325e-06
-3.6021624e-06
5.4321613e-06
-4.8545818e-06
6.9740531e-06
-6.4592599e-06
8.8817969e-06
-8.5015291e-06
1.1232379e-05
-1.1085203e-05
1.4116745e-05
-1.433597e-05
1.7641588e-05
-1.8405191e-05
2.1931082e-05
-2.3474059e-05
2.7128378e-05
-2.9758032e-05
3.3396638e-05
-3.7511363e-05
4.0919222e-05
-4.7031453e-05
4.9898548e-05
-5.8662658e-05
6.0552886e-05
-7.2798937e-05
7.3110027e-05
-8.9884571e-05
8.7796408e-05
-0.0001104119
0.00010481968
-0.00013491475
0.00012434223
-0.00016395585
0.00014644285
-0.00019810657
0.00017106557
-0.00023791756
0.00019796007
-0.00028388061
0.00022663251
-0.00033638668
0.00025634998
-0.00039569424
0.00028625793
-0.00046193149
0.00031562833
-0.00053515076
0.00034412754
-0.00061542002
0.0003719027
-0.00070290419
0.00039941974
-0.00079790199
0.00042720996
-0.00090084235
0.00045570308
-0.0010122633
0.00048518675
-0.0011327904
0.00051584656
-0.0012631194
0.00054784436
-0.001404
0.00058142197
-0.0015562117
0.0006170439
-0.0017205211
0.00065562988
-0.0018975085
0.00069856484
-0.0020872093
0.00074737122
-0.002288508
0.00080395314
-0.0024978683
0.00087019055
-0.0027071068
0.00094667283
-0.0028997045
0.0010316312
-0.0030447033
0.0011197668
-0.0030869849
0.0012015054
-0.00293381
0.0012654724
-0.0024321019
0.0012975228
-0.0013181552
0.001259729
0.0008648987
0.0010092359
0.0045868842
0.00058310888
0.010221072
0.00041894259
0.018448132
0.00046624081
0.03055643
-0.0017303745
0.048871689
-0.013878026
0.074301859
-0.050268118
0.099411803
-0.11270666
0.11251714
-0.17598159
-0.20393758
0.11437709
-8.2977512e-09
6.2099412e-08
-3.695034e-08
2.1437586e-07
-9.2805572e-08
4.1756722e-07
-1.8455518e-07
6.8490816e-07
-3.2318792e-07
1.0326983e-06
-5.2254578e-07
1.4809517e-06
-8.0000606e-07
2.0541715e-06
-1.1773108e-06
2.7822604e-06
-1.6815769e-06
3.7015943e-06
-2.3465117e-06
4.8562672e-06
-3.2138806e-06
6.2995302e-06
-4.3352506e-06
8.0954231e-06
-5.7740648e-06
1.0320611e-05
-7.608076e-06
1.306639e-05
-9.9321794e-06
1.6440848e-05
-1.2861668e-05
2.0571076e-05
-1.6535913e-05
2.5605328e-05
-2.1122466e-05
3.1714931e-05
-2.6821488e-05
3.9095659e-05
-3.3870411e-05
4.7968145e-05
-4.2548598e-05
5.8576735e-05
-5.3181668e-05
7.1185955e-05
-6.6145001e-05
8.607336e-05
-8.1865717e-05
0.00010351712
-0.0001008222
0.00012377617
-0.00012353986
0.00014705989
-0.00015058157
0.00017348456
-0.00018253082
0.00020301482
-0.0002199654
0.00023539465
-0.00026342031
0.00027008742
-0.00031334129
0.00030627096
-0.00037003956
0.0003429562
-0.00043367184
0.00037926061
-0.00050427437
0.00041473008
-0.00058184995
0.00044947828
-0.00066646145
0.00048403124
-0.00075828306
0.00051903157
-0.0008576012
0.00055502121
-0.00096478646
0.00059237201
-0.0010802566
0.00063131675
-0.0012044376
0.0006720253
-0.0013377166
0.00071470103
-0.0014803794
0.00075970669
-0.0016325032
0.00080775359
-0.0017936803
0.00085974196
-0.0019625375
0.0009162284
-0.0021358788
0.00097729447
-0.0023069917
0.0010413035
-0.0024627317
0.0011024129
-0.0025787067
0.0011476061
-0.0026113166
0.0011523767
-0.002485551
0.0010757397
-0.0020787791
0.00085870052
-0.0011920899
0.00041083362
0.00049764779
-0.00043000869
0.0034489085
-0.0019420248
0.00813763
-0.0041056127
0.015154833
-0.0065982605
0.025456895
-0.009835821
0.040666784
-0.016940264
0.062893781
-0.036105023
0.090158235
-0.077532573
0.11147514
-0.13402356
0.11873626
-0.18324271
-0.20328574
0.11808442
-7.1271543e-09
6.9226566e-08
-3.1747836e-08
2.3899654e-07
-7.9765304e-08
4.6558469e-07
-1.5868536e-07
7.6382822e-07
-2.7801612e-07
1.152029e-06
-4.4975996e-07
1.6526955e-06
-6.8901825e-07
2.2934298e-06
-1.0147327e-06
3.1079749e-06
-1.4505879e-06
4.1374496e-06
-2.0261089e-06
5.4317882e-06
-2.7779851e-06
7.0514064e-06
-3.7516651e-06
9.0691031e-06
-5.0032527e-06
1.1572199e-05
-6.6017645e-06
1.4664902e-05
-8.631764e-06
1.8470848e-05
-1.1196437e-05
2.3135749e-05
-1.4421114e-05
2.8830005e-05
-1.8457237e-05
3.5751054e-05
-2.3486754e-05
4.4125176e-05
-2.9726849e-05
5.4208241e-05
-3.7434864e-05
6.6284749e-05
-4.6913104e-05
8.0664196e-05
-5.8513212e-05
9.7673468e-05
-7.2639442e-05
0.00011764335
-8.9750031e-05
0.00014088676
-0.00011035555
0.00016766541
-0.00013501265
0.00019814166
-0.00016431113
0.00023231329
-0.00019885156
0.00026993508
-0.0002392104
0.00031044626
-0.00028589075
0.00035295131
-0.0003392642
0.00039632964
-0.0003995267
0.00043952311
-0.00046670606
0.00048190944
-0.00054073751
0.00052350972
-0.00062156715
0.00056486088
-0.00070922028
0.0006066847
-0.00080381015
0.00064961109
-0.00090550381
0.00069406567
-0.0010144681
0.00074028101
-0.0011308047
0.00078836191
-0.0012544698
0.0008383661
-0.0013851643
0.0008904012
-0.0015221478
0.00094473716
-0.0016638462
0.0010014404
-0.0018072245
0.0010596066
-0.0019466046
0.0011166746
-0.0020714208
0.0011661196
-0.0021623697
0.0011933618
-0.002185083
0.0011703195
-0.0020799389
0.0010472326
-0.0017474769
0.00074327769
-0.001028328
0.00013955164
0.00032965505
-0.00094714943
0.002705763
-0.0028061166
0.0066097558
-0.0058460176
0.012684133
-0.01017999
0.021751584
-0.015665711
0.034979888
-0.023064125
0.05402988
-0.035990255
0.079349188
-0.061424332
0.10449374
-0.10267712
0.11873523
-0.14826505
0.12146901
-0.18597649
-0.20214
0.12032327
-5.8652926e-09
7.5091859e-08
-2.6138484e-08
2.5926973e-07
-6.5701753e-08
5.0514796e-07
-1.3077822e-07
8.2890468e-07
-2.2927048e-07
1.2505213e-06
-3.711837e-07
1.7946087e-06
-5.6914361e-07
2.4913897e-06
-8.3903756e-07
3.3778688e-06
-1.2007995e-06
4.4992115e-06
-1.6793686e-06
5.9103574e-06
-2.3058583e-06
7.6778962e-06
-3.1189659e-06
9.8822106e-06
-4.1666753e-06
1.2619908e-05
-5.5082906e-06
1.6006517e-05
-7.216847e-06
2.0179404e-05
-9.3819503e-06
2.5300853e-05
-1.2113074e-05
3.1561128e-05
-1.5543349e-05
3.9181329e-05
-1.9833849e-05
4.8415676e-05
-2.5178309e-05
5.9552701e-05
-3.1808221e-05
7.2914662e-05
-3.9998095e-05
8.885407e-05
-5.0070582e-05
0.00010774595
-6.2401023e-05
0.0001299738
-7.7420708e-05
0.00015590644
-9.5617844e-05
0.00018586254
-0.00011753482
0.00022005863
-0.00014375958
0.00025853806
-0.00017490807
0.00030108357
-0.00021159289
0.00034713108
-0.00025437331
0.00039573174
-0.00030368655
0.00044564288
-0.00035977898
0.00049561554
-0.00042268125
0.00054481172
-0.00049226345
0.00059309192
-0.00056834304
0.00064094047
-0.00065077186
0.00068911352
-0.00073945657
0.0007382958
-0.00083432001
0.00078892911
-0.00093522827
0.00084118927
-0.0010418959
0.0008950295
-0.0011537642
0.00095023443
-0.0012698348
0.0010064718
-0.0013883838
0.0010632862
-0.001506428
0.0011194845
-0.0016188967
0.0011720754
-0.0017170018
0.0012147797
-0.0017851889
0.0012343067
-0.0017958773
0.0012040503
-0.0017010336
0.0010754757
-0.0014195759
0.00076577488
-0.00081876722
0.00014246903
0.0003160745
-0.00099529008
0.0023272732
-0.0029583482
0.0057174015
-0.0061962449
0.011164454
-0.01129307
0.019570686
-0.018586223
0.031806488
-0.027901512
0.048809555
-0.040067193
0.07098445
-0.058165149
0.095262016
-0.085701897
0.11335764
-0.12077275
0.12105991
-0.15596732
0.12212702
-0.1870436
-0.20195748
0.1219445
-4.5505371e-09
7.9642396e-08
-2.0293143e-08
2.7501234e-07
-5.1044231e-08
5.3589905e-07
-1.0168461e-07
8.7954506e-07
-1.7843665e-07
1.3272733e-06
-2.8920809e-07
1.9053802e-06
-4.4402187e-07
2.6462035e-06
-6.5554649e-07
3.5893934e-06
-9.3975362e-07
4.7834186e-06
-1.3167271e-06
6.2873309e-06
-1.8116535e-06
8.1728225e-06
-2.4560388e-06
1.0526596e-05
-3.2891796e-06
1.3453049e-05
-4.35995e-06
1.7077288e-05
-5.7289446e-06
2.1548399e-05
-7.4710355e-06
2.7042944e-05
-9.6783947e-06
3.3768488e-05
-1.2464038e-05
4.1966972e-05
-1.5965894e-05
5.1917532e-05
-2.0351451e-05
6.3938259e-05
-2.5822905e-05
7.8386116e-05
-3.2622733e-05
9.5653897e-05
-4.103949e-05
0.00011616271
-5.1413468e-05
0.00014034777
-6.4141746e-05
0.00016863472
-7.9681715e-05
0.00020140251
-9.8551873e-05
0.00023892879
-0.00012132781
0.00028131399
-0.00014862992
0.00032838567
-0.00018109718
0.00037959834
-0.00021933887
0.00043397343
-0.00026385865
0.00049016266
-0.00031496277
0.00054671966
-0.00037269861
0.00060254756
-0.00043687875
0.00065727206
-0.00050718468
0.0007112464
-0.0005832709
0.00076519974
-0.00066480103
0.00081982593
-0.00075140702
0.00087553511
-0.00084259524
0.00093237748
-0.00093761526
0.00099004953
-0.0010352863
0.0010479055
-0.0011337551
0.0011049406
-0.0012300786
0.0011596097
-0.001319504
0.0012089099
-0.0013943211
0.0012468925
-0.001441553
0.0012620116
-0.001438597
0.0012313506
-0.0013456443
0.0011110976
-0.0010945417
0.00082437317
-0.00057255089
0.00024378403
0.00040859309
-0.00083867495
0.0021709172
-0.0027576141
0.0052440828
-0.0060315138
0.010404543
-0.011356705
0.018587013
-0.01947554
0.030583355
-0.030582566
0.046595987
-0.043914144
0.066136147
-0.059607353
0.087323547
-0.079352549
0.10541797
-0.10379632
0.11614544
-0.13150022
0.12078071
-0.16060258
0.12196635
-0.18822924
-0.20361171
0.12362057
-3.2281484e-09
8.2870544e-08
-1.4412459e-08
2.8619665e-07
-3.6294265e-08
5.5778086e-07
-7.2399072e-08
9.1564986e-07
-1.2724796e-07
1.3821222e-06
-2.0662434e-07
1.9847565e-06
-3.179056e-07
2.7574848e-06
-4.7048397e-07
3.7419718e-06
-6.7628514e-07
4.9892198e-06
-9.5042049e-07
6.5614662e-06
-1.3119936e-06
8.5343956e-06
-1.7850983e-06
1.0999701e-05
-2.4000475e-06
1.4067998e-05
-3.1948827e-06
1.7872123e-05
-4.2172157e-06
2.2570732e-05
-5.5264636e-06
2.8352192e-05
-7.1965331e-06
3.5438557e-05
-9.3190416e-06
4.4089481e-05
-1.2007108e-05
5.4605598e-05
-1.5399781e-05
6.7330932e-05
-1.9667129e-05
8.2653464e-05
-2.5015951e-05
0.00010100272
-3.1696036e-05
0.0001228428
-4.0006772e-05
0.00014865851
-5.0303666e-05
0.00017893161
-6.3004266e-05
0.00021410311
-7.8592286e-05
0.00025451681
-9.7618127e-05
0.00030033983
-0.00012069232
0.00035145986
-0.00014846546
0.00040737148
-0.00018158441
0.00046709239
-0.00022061356
0.00052919181
-0.00026592339
0.00059202949
-0.00031759114
0.00065421531
-0.00037538453
0.00071506544
-0.00043884757
0.00077470945
-0.00050741579
0.00083376795
-0.00058047028
0.00089288042
-0.00065729744
0.00095236227
-0.0007369712
0.0010120512
-0.00081817614
0.0010712545
-0.00089896335
0.0011286927
-0.0009764012
0.0011823785
-0.00104597
0.0012291785
-0.0011005712
0.0012635111
-0.001128818
0.0012751393
-0.0011115847
0.0012447783
-0.0010153623
0.0011351282
-0.00078088314
0.00087661839
-0.00030835821
0.00035184823
0.00057105587
-0.00063563004
0.0021609305
-0.0024285496
0.0050103782
-0.0056070618
0.010001129
-0.011022265
0.018167462
-0.019523038
0.030182719
-0.031490797
0.045676508
-0.046076355
0.063227981
-0.061465617
0.080938168
-0.077317539
0.096486081
-0.094900462
0.10761005
-0.11492029
0.11465933
-0.1385495
0.11935986
-0.16530311
0.12201051
-0.1908799
-0.20696936
0.12536816
-1.9490708e-09
8.4819615e-08
-8.723663e-09
2.9297124e-07
-2.2022554e-08
5.7107975e-07
-4.4054246e-08
9.3768155e-07
-7.768509e-08
1.4157531e-06
-1.2662371e-07
2.0336952e-06
-1.9566391e-07
2.826525e-06
-2.9098478e-07
3.8372927e-06
-4.2053794e-07
5.118773e-06
-5.9453478e-07
6.7354631e-06
-8.2606311e-07
8.7659239e-06
-1.131857e-06
1.1305495e-05
-1.5332792e-06
1.446942e-05
-2.0575249e-06
1.8396369e-05
-2.7391418e-06
2.3252348e-05
-3.6218973e-06
2.9234947e-05
-4.7610958e-06
3.6577756e-05
-6.2263747e-06
4.555476e-05
-8.1051495e-06
5.6484373e-05
-1.0506692e-05
6.9732475e-05
-1.3566996e-05
8.5713767e-05
-1.7454436e-05
0.00010489016
-2.2376233e-05
0.00012776459
-2.8585655e-05
0.00015486793
-3.6389745e-05
0.0001867357
-4.6157114e-05
0.00022387048
-5.8325018e-05
0.00026668471
-7.340406e-05
0.00031541888
-9.1977251e-05
0.00037003305
-0.0001146869
0.00043008113
-0.00014219747
0.00049460296
-0.00017511949
0.00056211383
-0.00021388345
0.00063079345
-0.00025860612
0.00069893798
-0.00030902364
0.00076548296
-0.00036454962
0.00083023543
-0.00042438197
0.0008936003
-0.00048757566
0.0009560741
-0.00055300586
0.0010177925
-0.00061922112
0.0010782665
-0.00068420602
0.0011362394
-0.00074503691
0.0011895236
-0.00079736571
0.0012347073
-0.00083453564
0.0012663484
-0.00084612106
0.0012750966
-0.00081520572
0.001244224
-0.00071287627
0.0011424489
-0.0004874125
0.00090966443
-4.7588404e-05
0.00043679429
0.00076329416
-0.00045903433
0.0022337274
-0.0021060632
0.0049151916
-0.0051100138
0.0097675112
-0.010459381
0.017897291
-0.019152044
0.029818089
-0.031443836
0.044762752
-0.04643546
0.060708059
-0.062021662
0.075525795
-0.076283353
0.088191969
-0.089983713
0.098194409
-0.1049029
0.10627479
-0.12300066
0.11312561
-0.14540032
0.11832314
-0.17050064
0.12219376
-0.19475052
-0.21158545
0.12680985
-7.6847656e-10
8.5588092e-08
-3.4706044e-09
2.9567337e-07
-8.8389138e-09
5.7644806e-07
-1.7859881e-08
9.4670252e-07
-3.1858314e-08
1.4297515e-06
-5.2611415e-08
2.0544483e-06
-8.2494401e-08
2.856408e-06
-1.2467454e-07
3.8794728e-06
-1.8336519e-07
5.1774636e-06
-2.6415189e-07
6.8162498e-06
-3.7442128e-07
8.8761933e-06
-5.2391324e-07
1.1454987e-05
-7.2542891e-07
1.4670936e-05
-9.9575291e-07
1.8666693e-05
-1.356813e-06
2.3613409e-05
-1.8371737e-06
2.9715308e-05
-2.4739109e-06
3.7214493e-05
-3.3149925e-06
4.6395841e-05
-4.4222044e-06
5.7591585e-05
-5.8748198e-06
7.118509e-05
-7.7740351e-06
8.7612982e-05
-1.0248353e-05
0.00010736448
-1.3459944e-05
0.00013097618
-1.7612056e-05
0.00015902004
-2.2957384e-05
0.00019208103
-2.9807197e-05
0.00023072029
-3.8540626e-05
0.00027541814
-4.9612809e-05
0.00032649106
-6.3559056e-05
0.0003839793
-8.0988864e-05
0.00044751094
-0.00010255761
0.00051617171
-0.00012890257
0.00058845879
-0.00016049868
0.00066238957
-0.0001974781
0.0007359174
-0.00023957978
0.00080758464
-0.00028609099
0.00087674664
-0.00033595742
0.00094346672
-0.00038785903
0.0010079757