/*--------------------------------*- C++ -*----------------------------------*\
  =========                 |
  \\      /  F ield         | OpenFOAM: The Open Source CFD Toolbox
   \\    /   O peration     | Website:  https://openfoam.org
    \\  /    A nd           | Version:  13
     \\/     M anipulation  |
\*---------------------------------------------------------------------------*/
FoamFile
{
    format      ascii;
    class       volSymmTensorField;
    location    "31.096413";
    object      UPrime2Mean;
}
// * * * * * * * * * * * * * * * * * * * * * * * * * * * * * * * * * * * * * //

dimensions      [0 2 -2 0 0 0 0];

internalField   nonuniform List<symmTensor> 
17140
(
(5.3761879e-12 -2.9617796e-10 -1.6362196e-27 1.8002129e-08 2.359853e-26 9.6580313e-41)
(5.9997954e-10 -6.5777503e-09 -7.3843132e-28 1.7097685e-07 4.8795201e-27 8.2821707e-43)
(5.3332442e-09 -3.0501079e-08 1.2193633e-25 5.1770806e-07 -5.0332688e-25 3.609123e-39)
(2.4995273e-08 -9.110238e-08 -2.6247928e-25 1.1109679e-06 7.6607023e-25 4.3596666e-39)
(8.3373411e-08 -2.1559994e-07 5.2818404e-26 2.0129553e-06 -1.1708678e-25 5.9545425e-41)
(2.2790036e-07 -4.4356399e-07 -2.7533021e-25 3.2958816e-06 4.8425485e-25 6.3732766e-40)
(5.4638764e-07 -8.3044219e-07 -7.0192371e-25 5.0422089e-06 1.0046392e-24 1.8047551e-39)
(1.1930144e-06 -1.4517514e-06 5.0033238e-25 7.3443181e-06 -5.9246781e-25 4.2966316e-40)
(2.428007e-06 -2.4077677e-06 2.3284125e-24 1.0303323e-05 -2.3081704e-24 4.5967985e-39)
(4.676634e-06 -3.8282156e-06 7.9475858e-24 1.4026738e-05 -6.6542028e-24 2.7606994e-38)
(8.614756e-06 -5.8762468e-06 -1.6119867e-23 1.862468e-05 1.1477732e-23 6.0576473e-38)
(1.528972e-05 -8.750647e-06 1.9378062e-23 2.4204272e-05 -1.1797105e-23 4.7986508e-38)
(2.6286506e-05 -1.2684772e-05 3.9560026e-24 3.0862054e-05 -2.0678339e-24 1.1206859e-39)
(4.3948981e-05 -1.794029e-05 -2.9504853e-23 3.8674319e-05 1.3289179e-23 3.5711172e-38)
(7.1664079e-05 -2.4793629e-05 4.2854404e-24 4.7685656e-05 -1.6673415e-24 4.382083e-40)
(0.00011421156 -3.3513245e-05 -4.4026879e-23 5.7896362e-05 1.4829678e-23 2.7345492e-38)
(0.00017817277 -4.4327002e-05 2.1041093e-24 6.9249944e-05 -6.1463505e-25 3.7628615e-41)
(0.0002723785 -5.7381241e-05 -6.1019103e-25 8.1622395e-05 1.544649e-25 1.8698527e-42)
(0.00040836091 -7.2697028e-05 -5.4246813e-23 9.4815297e-05 1.1945816e-23 9.3225798e-39)
(0.00060076215 -9.0133919e-05 8.8326316e-23 0.0001085547 -1.6909702e-23 1.5474871e-38)
(0.00086765221 -0.00010937607 -5.2988685e-23 0.00012249717 8.821331e-24 3.5334817e-39)
(0.0012307277 -0.00012995595 1.2420962e-23 0.00013624367 -1.8008726e-24 1.2631237e-40)
(0.0017154846 -0.00015132901 1.1189048e-22 0.00014936146 -1.4102226e-23 6.7078669e-39)
(0.002351696 -0.00017300013 -1.3466718e-22 0.00016141565 1.4767587e-23 6.5038975e-39)
(0.0031732672 -0.00019459629 -2.5579052e-22 0.00017201621 2.4398349e-23 1.6041305e-38)
(0.0042186896 -0.00021578108 2.4243974e-22 0.00018087839 -2.0117602e-23 1.007144e-38)
(0.0055347763 -0.00023661345 1.3932509e-21 0.00018785249 -1.0042582e-22 2.361999e-37)
(0.0071783059 -0.00025703097 1.9076445e-22 0.00019294958 -1.1920894e-23 3.1908873e-39)
(0.0092155674 -0.00027641837 -1.9222418e-21 0.00019633201 1.0411406e-22 2.3998809e-37)
(0.011725614 -0.0002944898 -5.1501257e-22 0.00019829097 2.4087421e-23 1.2844569e-38)
(0.014803109 -0.00031092288 -2.0902852e-21 0.00019917611 8.4213957e-23 1.6073935e-37)
(0.018559165 -0.00032506451 3.1145047e-21 0.0001993148 -1.0770475e-22 2.7472233e-37)
(0.023122394 -0.00033611789 -9.1680857e-22 0.0001989538 2.706591e-23 1.8463232e-38)
(0.028639183 -0.00034312069 -4.9127851e-22 0.00019822414 1.2329564e-23 4.1873357e-39)
(0.035272996 -0.00034490773 -5.4164561e-21 0.00019714506 1.1442336e-22 4.0317239e-37)
(0.043201978 -0.0003400074 2.6455437e-21 0.00019567331 -4.6697819e-23 7.7576709e-38)
(0.052613507 -0.00032650833 -4.4330445e-21 0.0001937623 6.444945e-23 1.7631545e-37)
(0.063694026 -0.00030193068 -3.317316e-21 0.00019141418 3.9080522e-23 8.0913044e-38)
(0.076612026 -0.00026306912 -1.6723026e-21 0.00018874686 1.5590502e-23 1.6998797e-38)
(0.091492187 -0.00020583407 5.534827e-21 0.00018604534 -3.9575307e-23 1.5635683e-37)
(0.1083801 -0.00012538137 1.136684e-20 0.00018378681 -5.9131551e-23 5.5684367e-37)
(0.12719782 -1.6515767e-05 1.1147409e-20 0.00018258957 -3.8602485e-23 4.5759026e-37)
(0.14769659 0.00012508298 5.2224432e-21 0.00018307248 -9.9252304e-24 8.6858665e-38)
(0.16943293 0.00030154637 -2.7167334e-20 0.00018577209 1.3144109e-23 2.0441421e-36)
(0.19174822 0.00051052336 -2.1049139e-20 0.00019118863 -1.7009125e-23 1.0834421e-36)
(0.21381837 0.00074109981 5.4357779e-21 0.00019979748 1.084798e-23 6.4716298e-38)
(0.23483219 0.00098201886 -3.8565151e-20 0.00021215717 -1.1975458e-22 2.9518549e-36)
(0.25387075 0.0012218827 -1.3558622e-20 0.00022893559 -5.6266779e-23 3.354266e-37)
(0.27013373 0.0014509957 1.4180603e-20 0.00025082765 7.3000141e-23 3.4252577e-37)
(0.28314201 0.0016615411 3.5344155e-20 0.00027876353 2.1564307e-22 2.0167989e-36)
(0.29254356 0.0018505241 -2.1972164e-20 0.00031442792 -1.5401522e-22 7.5094626e-37)
(0.298059 0.0020266323 -1.3886513e-20 0.00036132365 -1.0932562e-22 2.9372617e-37)
(0.29963383 0.0022240009 3.5966172e-20 0.00042302317 3.1486105e-22 1.9599664e-36)
(0.29750344 0.0024573506 1.6739188e-20 0.000503588 1.6100702e-22 4.2964962e-37)
(0.29225013 0.0027139284 1.1641554e-20 0.00060822051 1.2140641e-22 2.1429226e-37)
(0.28485917 0.0029823876 -8.8767763e-21 0.00074338538 -9.8991314e-23 1.3000449e-37)
(0.27636254 0.0032277794 2.2910782e-20 0.0009138008 2.6638146e-22 9.3075803e-37)
(0.26739764 0.0033729829 1.8201906e-20 0.0011283228 2.1464932e-22 6.3958601e-37)
(0.2583532 0.0032974968 4.2846708e-21 0.0014022144 4.903411e-23 3.9598553e-38)
(0.24897849 0.0028817347 -1.0315155e-20 0.0017834999 -1.0917992e-22 2.6014686e-37)
(0.23850089 0.00213697 -7.4054779e-21 0.0023457825 -6.8840341e-23 1.5800172e-37)
(0.22662427 0.0012838719 -2.4889197e-20 0.0031145482 -2.0505251e-22 2.1492318e-36)
(0.21038172 0.0008669997 -3.2524383e-21 0.0038667496 -2.9136156e-23 4.6041744e-38)
(0.19318914 0.0012878829 2.4191462e-20 0.0041753742 3.1232702e-22 3.2506882e-36)
(0.16689269 0.0025152066 -1.5923594e-20 0.0040207745 -3.4734108e-22 1.9422355e-36)
(3.7217712e-10 -8.7021259e-09 2.0865899e-27 2.0351183e-07 -4.0728839e-26 7.8214111e-42)
(5.9537339e-09 -1.0665674e-07 -6.6427294e-25 1.9203458e-06 1.0344008e-23 9.9379389e-38)
(2.6791771e-08 -3.9125814e-07 1.1364683e-24 5.7804498e-06 -1.4403565e-23 7.8666222e-38)
(8.3561861e-08 -1.0054539e-06 -5.1565678e-25 1.2324741e-05 5.4223301e-24 5.8435764e-39)
(2.1383035e-07 -2.1500609e-06 -1.6463955e-24 2.2170528e-05 1.4615982e-23 2.4921718e-38)
(4.8444347e-07 -4.1114403e-06 4.6429425e-24 3.6005642e-05 -3.5250817e-23 9.0923979e-38)
(1.0096259e-06 -7.2865845e-06 -6.9175612e-24 5.457552e-05 4.5279507e-23 9.870824e-38)
(1.9783855e-06 -1.2212929e-05 8.4980211e-25 7.8659529e-05 -4.8214123e-24 7.6366804e-40)
(3.6955797e-06 -1.9602988e-05 -3.6358195e-24 0.00010903328 1.7949673e-23 7.4327283e-39)
(6.6418888e-06 -3.038091e-05 -8.3507433e-26 0.00014641382 3.5992339e-25 2.1197192e-42)
(1.1559524e-05 -4.5717276e-05 -2.1869974e-23 0.00019138533 8.2436576e-23 8.2518627e-38)
(1.9571861e-05 -6.7056181e-05 4.5892091e-23 0.00024430445 -1.5162241e-22 2.0775661e-37)
(3.2346203e-05 -9.6125943e-05 4.9634592e-24 0.00030518785 -1.4395233e-23 1.4122302e-39)
(5.2308694e-05 -0.00013492177 -6.364831e-23 0.00037358936 1.6222843e-22 1.3694495e-37)
(8.2918477e-05 -0.00018564678 2.5211349e-23 0.00044848148 -5.6518574e-23 1.284076e-38)
(0.00012900332 -0.00025059802 2.051598e-23 0.00052816422 -4.047267e-23 5.1386472e-39)
(0.00019715047 -0.00033198878 -1.6568534e-22 0.00061023279 2.8768514e-22 2.047672e-37)
(0.00029613429 -0.00043171046 6.8211193e-22 0.00069164102 -1.0424803e-21 2.1467684e-36)
(0.00043734847 -0.00055105792 -5.3582377e-22 0.00076889375 7.2069761e-22 8.2910507e-37)
(0.00063520007 -0.00069047113 7.9928945e-22 0.00083838414 -9.4591491e-22 1.1690455e-36)
(0.00090742281 -0.00084937693 -1.4574466e-21 0.0008968572 1.5172842e-21 2.4991312e-36)
(0.0012752856 -0.0010262299 4.3707853e-22 0.00094192879 -4.0021047e-22 1.4675425e-37)
(0.0017637824 -0.0012188574 2.1814035e-22 0.00097253711 -1.7566781e-22 2.4286489e-38)
(0.0024021259 -0.0014251665 -8.5658604e-22 0.00098917987 6.0653124e-22 2.5251315e-37)
(0.0032237471 -0.0016437687 3.6598712e-21 0.00099384097 -2.2792614e-21 3.1754523e-36)
(0.0042665148 -0.0018743431 6.4415971e-22 0.00098946494 -3.5271007e-22 6.8711288e-38)
(0.0055764813 -0.0021182085 -3.8869242e-21 0.00097880536 1.8729911e-21 1.7964072e-36)
(0.0072098059 -0.0023776264 5.0490169e-21 0.00096423291 -2.1392823e-21 2.2026688e-36)
(0.0092318005 -0.0026544367 -7.9578724e-22 0.00094797944 2.9651466e-22 4.0773895e-38)
(0.011720306 -0.0029508435 -8.9449141e-21 0.00093152689 2.9225131e-21 3.8329772e-36)
(0.014768475 -0.0032687371 1.0530296e-21 0.00091553533 -3.016676e-22 4.0625687e-38)
(0.018485543 -0.0036088555 9.1710377e-21 0.00090008231 -2.297352e-21 2.3572224e-36)
(0.02299778 -0.0039707856 2.6614533e-22 0.00088486352 -5.8005003e-23 1.4817948e-39)
(0.028448683 -0.0043527873 -8.6789009e-21 0.00086935355 1.6575019e-21 1.2957208e-36)
(0.03499809 -0.0047514743 1.084279e-20 0.00085289567 -1.8046091e-21 1.6120564e-36)
(0.042819574 -0.005161145 -5.4512446e-21 0.00083475174 7.8936746e-22 3.2739792e-37)
(0.052094672 -0.00557272 7.1095528e-21 0.00081413112 -8.9456115e-22 4.5512494e-37)
(0.063002318 -0.0059723541 2.5043606e-20 0.00079024447 -2.7306163e-21 4.6238519e-36)
(0.07570149 -0.0063398654 6.1870839e-21 0.0007624421 -5.8291376e-22 2.3311448e-37)
(0.090304936 -0.0066473405 2.6463897e-20 0.0007304508 -2.1467015e-21 3.5781159e-36)
(0.10684346 -0.0068587289 -3.6864312e-20 0.00069475225 2.5616961e-21 5.8897783e-36)
(0.12522151 -0.0069316824 -3.6772111e-20 0.00065710043 2.1740839e-21 4.9963631e-36)
(0.14517076 -0.006822852 -6.799317e-21 0.00062108253 3.3911568e-22 1.4626259e-37)
(0.1662226 -0.0064965801 5.7730045e-20 0.00059253063 -2.3918224e-21 9.3266618e-36)
(0.18768962 -0.0059367067 -2.9048232e-20 0.00057956696 9.8385792e-22 2.0762622e-36)
(0.20873975 -0.0051621896 -1.061019e-20 0.00059142411 2.8677276e-22 2.4756343e-37)
(0.22847662 -0.0042146961 5.8983371e-21 0.00063454167 -1.223643e-22 7.0399475e-38)
(0.24603778 -0.003148594 1.9122484e-20 0.00070743797 -2.8698276e-22 6.7696142e-37)
(0.26070504 -0.0020441588 -9.602057e-21 0.00080188598 9.4213308e-23 1.598454e-37)
(0.27195179 -0.0009619551 1.7740157e-20 0.00090797487 -8.8284924e-23 5.175403e-37)
(0.27945752 7.3835682e-05 1.0779145e-19 0.0010191824 -5.7651499e-23 1.8468441e-35)
(0.28306601 0.0010461586 5.1482719e-21 0.001138224 1.8985116e-23 4.1483574e-38)
(0.28285287 0.0019307089 -2.3035415e-20 0.0012732696 -1.7312948e-22 8.2833148e-37)
(0.27920496 0.0026848875 5.0422153e-20 0.0014331848 5.6922496e-22 4.0326142e-36)
(0.27294053 0.0032537756 -4.1976008e-20 0.0016253664 -6.2674426e-22 2.8909324e-36)
(0.26508746 0.0036182457 1.1505507e-19 0.0018534626 2.1167012e-21 2.2884971e-35)
(0.25678578 0.0037919163 3.1426187e-20 0.0021167551 6.8505326e-22 1.8316823e-36)
(0.24876661 0.0037612852 -8.3770294e-20 0.0024178439 -2.0814796e-21 1.4299748e-35)
(0.24136278 0.003521401 1.3371953e-20 0.0027605529 3.7429701e-22 4.066751e-37)
(0.23423839 0.0030279391 1.4120871e-20 0.0031658348 4.2986791e-22 5.2361837e-37)
(0.22625403 0.0024024321 2.5886363e-21 0.0036805887 8.5210936e-23 2.0902859e-38)
(0.21687983 0.0019022303 -3.1138766e-20 0.0043038924 -1.1333599e-21 3.6710764e-36)
(0.20251013 0.0020356695 5.3687397e-20 0.0048406173 2.2404546e-21 1.3909766e-35)
(0.18674116 0.0032521685 1.4110421e-20 0.0049411328 7.2389037e-22 1.2461943e-36)
(0.16060894 0.004966648 1.9663297e-20 0.0046769139 1.3450988e-21 3.4411638e-36)
(3.1838382e-09 -4.5459253e-08 3.0672867e-25 6.4908116e-07 -4.1068475e-24 2.377309e-38)
(3.6246488e-08 -4.7113191e-07 -4.6621328e-25 6.1252861e-06 5.7219651e-24 9.0785431e-39)
(1.2876015e-07 -1.5403113e-06 -2.1251327e-25 1.8439219e-05 2.3805804e-24 6.4188663e-40)
(3.2668674e-07 -3.5815701e-06 3.0484421e-25 3.9320197e-05 -3.1159424e-24 5.7683047e-40)
(7.0151584e-07 -7.0368081e-06 -2.109923e-24 7.0742546e-05 1.9700207e-23 1.3537833e-38)
(1.3659222e-06 -1.2508071e-05 -2.1689571e-25 0.0001149079 1.8511154e-24 7.4788482e-41)
(2.4943972e-06 -2.0800514e-05 -3.7364939e-24 0.00017420439 2.9120756e-23 1.2200784e-38)
(4.3531532e-06 -3.2972432e-05 -5.3441113e-24 0.00025113122 3.7976659e-23 1.4147661e-38)
(7.3433758e-06 -5.0392391e-05 5.7239184e-23 0.00034817811 -3.7017681e-22 9.4374587e-37)
(1.2062301e-05 -7.479839e-05 -6.6347607e-23 0.00046764931 3.8972901e-22 7.5103375e-37)
(1.9388035e-05 -0.0001083527 4.0906239e-23 0.00061142366 -2.178204e-22 1.7161872e-37)
(3.0595075e-05 -0.00015368224 7.6755449e-23 0.00078064761 -3.69797e-22 3.674288e-37)
(4.7508218e-05 -0.00021388992 -1.9386641e-22 0.00097536787 8.4350521e-22 1.4398309e-36)
(7.2702282e-05 -0.00029251776 -3.0438286e-23 0.0011941272 1.1938255e-22 2.196328e-38)
(0.00010975324 -0.00039343929 1.483191e-22 0.0014335691 -5.2342017e-22 3.2560277e-37)
(0.00016354238 -0.00052065947 1.2819015e-22 0.001688126 -4.0629794e-22 1.5277815e-37)
(0.00024060797 -0.00067800857 -1.8603229e-22 0.0019498957 5.2858274e-22 2.0361479e-37)
(0.00034952939 -0.00086873614 8.3878117e-22 0.0022088286 -2.1326035e-21 2.6387859e-36)
(0.00050131752 -0.0010950459 -6.1398991e-22 0.0024533439 1.39438e-21 9.0959573e-37)
(0.00070977785 -0.0013576621 3.7393684e-22 0.0026714417 -7.5720625e-22 2.1890517e-37)
(0.00099181464 -0.0016555695 -1.5413168e-21 0.0028522627 2.7785472e-21 2.4437648e-36)
(0.0013676597 -0.0019860983 -4.864576e-22 0.0029878814 7.7951841e-22 1.6190355e-37)
(0.0018610956 -0.0023455284 1.2209396e-21 0.0030749232 -1.7369004e-21 6.8863117e-37)
(0.0024999737 -0.0027303299 -2.1924665e-21 0.0031154883 2.7654611e-21 1.5215185e-36)
(0.0033165336 -0.0031384277 -1.0220606e-21 0.0031169655 1.1416572e-21 2.2989181e-37)
(0.0043470782 -0.0035697264 1.4358472e-21 0.0030902815 -1.4200026e-21 3.2349165e-37)
(0.0056358255 -0.004027055 9.4928596e-21 0.0030460057 -8.2993834e-21 1.0177292e-35)
(0.0072372775 -0.0045153095 4.9645366e-21 0.0029927781 -3.833183e-21 2.0369334e-36)
(0.0092142352 -0.0050388371 -2.8354474e-21 0.0029375559 1.9324233e-21 4.9775872e-37)
(0.011641572 -0.0056023576 3.4791585e-21 0.0028847449 -2.0867697e-21 5.6071007e-37)
(0.014608554 -0.006209983 -2.4579121e-21 0.0028359636 1.2979847e-21 2.168307e-37)
(0.018219681 -0.0068638038 -1.5818423e-20 0.0027908211 7.33004e-21 6.8935331e-36)
(0.022595293 -0.0075636955 5.9737587e-21 0.0027477345 -2.427699e-21 7.6979941e-37)
(0.027871555 -0.008306999 2.0061568e-20 0.002704554 -7.1410511e-21 6.8578677e-36)
(0.034199194 -0.0090879127 -7.4717461e-21 0.0026588392 2.3285108e-21 7.663389e-37)
(0.041740321 -0.0098962527 -1.1708214e-20 0.0026078843 3.1880202e-21 1.5113631e-36)
(0.050662036 -0.010715471 2.256918e-20 0.0025486375 -5.3638279e-21 4.5757545e-36)
(0.06112504 -0.011520054 7.6483838e-21 0.0024777186 -1.5836155e-21 4.3043304e-37)
(0.073265335 -0.012272575 -1.4956923e-20 0.0023917195 2.6937335e-21 1.3777508e-36)
(0.087167163 -0.012921085 -6.5736772e-21 0.0022879531 1.0266837e-21 2.2412935e-37)
(0.10282657 -0.013398307 3.4583276e-20 0.0021658398 -4.6642052e-21 5.2352572e-36)
(0.12010719 -0.01362501 -1.0587299e-20 0.0020291226 1.2250827e-21 4.2498256e-37)
(0.13869541 -0.013519402 -1.6591005e-20 0.0018884053 1.638534e-21 8.9875184e-37)
(0.15807145 -0.013013758 -4.7613365e-20 0.0017631286 3.9696995e-21 6.4546477e-36)
(0.17750507 -0.012078315 9.635137e-20 0.001681769 -6.6816955e-21 2.3485787e-35)
(0.19614307 -0.010749599 -6.5969642e-20 0.0016767287 3.7369685e-21 9.8800696e-36)
(0.21310055 -0.009118799 -1.7507622e-20 0.0017687276 7.9269111e-22 6.2953326e-37)
(0.22757649 -0.0073000161 -7.1805156e-20 0.0019519069 2.4889042e-21 9.8679888e-36)
(0.23895315 -0.0054328887 -8.8680565e-20 0.0021998013 2.2298605e-21 1.4156976e-35)
(0.24686718 -0.0036343283 -4.610657e-21 0.0024750925 7.8726848e-23 3.6319398e-38)
(0.25118839 -0.0019673274 1.9734749e-20 0.0027512287 -1.6597036e-22 6.475445e-37)
(0.25196168 -0.00046818982 -1.4512491e-19 0.0030301818 7.9369026e-23 3.4760261e-35)
(0.24945595 0.00080976089 -6.1372914e-20 0.0033322913 -4.0059446e-22 6.2532055e-36)
(0.24425038 0.001773608 -6.1962773e-20 0.0036770804 -8.2456743e-22 6.5234528e-36)
(0.23732034 0.0023371102 -1.9814357e-20 0.0040688321 -3.998382e-22 6.9469029e-37)
(0.22979484 0.0024844909 -1.4745989e-19 0.0044954961 -3.8864764e-21 4.0932816e-35)
(0.22283013 0.0022920016 5.591777e-20 0.0049336244 1.8499826e-21 6.3656861e-36)
(0.21703797 0.0018506419 -1.601586e-20 0.0053607737 -6.2884214e-22 5.8151664e-37)
(0.21247274 0.0012943322 -1.2297676e-19 0.0057539996 -5.6466234e-21 3.8691376e-35)
(0.20853042 0.00069169771 -4.5130286e-20 0.0060959185 -2.3814302e-21 6.0610988e-36)
(0.20348767 0.00028155189 4.8811299e-20 0.0064079187 2.916986e-21 8.5490234e-36)
(0.19666141 0.00037350559 1.506184e-19 0.006672373 1.0272549e-20 1.0088551e-34)
(0.18350833 0.0013399776 -4.2056072e-20 0.006777811 -3.3404633e-21 1.0286729e-35)
(0.16888399 0.0036353383 -5.8651866e-20 0.0064917799 -5.6859621e-21 2.6721438e-35)
(0.14261708 0.0060160566 -2.0647068e-20 0.0059344559 -2.5868873e-21 4.9012303e-36)
(1.2614858e-08 -1.282438e-07 -2.0198042e-24 1.3037415e-06 1.9887944e-23 2.6661543e-37)
(1.2994394e-07 -1.2647359e-06 6.3233758e-24 1.2309989e-05 -5.9670115e-23 4.7195341e-37)
(4.2475316e-07 -3.968197e-06 -3.7444197e-24 3.7075981e-05 3.3709838e-23 6.16825e-38)
(9.9079348e-07 -8.8522465e-06 5.8963697e-25 7.9106885e-05 -5.0545113e-24 7.2867308e-40)
(1.9608727e-06 -1.6708041e-05 -1.5988597e-23 0.00014241606 1.3032069e-22 2.8464769e-37)
(3.5262728e-06 -2.8563223e-05 2.1994652e-23 0.00023149595 -1.701725e-22 3.0454999e-37)
(5.9603838e-06 -4.5736599e-05 -4.3445677e-23 0.0003512432 3.1828394e-22 7.0026313e-37)
(9.6511919e-06 -6.9899127e-05 2.6213881e-23 0.00050681526 -1.8129605e-22 1.5487928e-37)
(1.5146343e-05 -0.00010314118 1.264605e-22 0.00070339679 -8.2297972e-22 2.2362711e-36)
(2.3214125e-05 -0.00014803867 -3.8259579e-23 0.0009458538 2.3349037e-22 1.291172e-37)
(3.4925069e-05 -0.00020770977 -1.8232375e-22 0.0012382565 1.039866e-21 1.8696495e-36)
(5.1759407e-05 -0.00028584868 6.9311729e-23 0.0015832611 -3.6816038e-22 1.7387539e-37)
(7.5746121e-05 -0.00038671851 5.7395082e-24 0.0019813601 -2.8292567e-23 7.7473052e-40)
(0.00010963884 -0.00051507949 -2.7862093e-22 0.0024300415 1.2703618e-21 1.1830193e-36)
(0.00015713252 -0.00067602601 1.0760003e-21 0.0029229456 -4.5217509e-21 1.152653e-35)
(0.00022312172 -0.00087470763 -8.134342e-22 0.0034491641 3.1397172e-21 4.3193321e-36)
(0.00031399644 -0.0011159207 -9.5228039e-24 0.0039928929 3.3643329e-23 3.8930215e-40)
(0.00043796513 -0.0014035823 6.7668116e-22 0.0045336974 -2.1807098e-21 1.3003689e-36)
(0.00060538707 -0.0017401439 -2.0966863e-21 0.0050476526 6.1426176e-21 8.2969073e-36)
(0.00082909353 -0.0021260623 1.2020844e-21 0.005509528 -3.1910551e-21 1.8252087e-36)
(0.00112468 -0.0025595154 2.1670021e-21 0.0058959763 -5.1959631e-21 4.0017517e-36)
(0.001510765 -0.0030365824 1.0549684e-21 0.0061893279 -2.2779387e-21 6.4565655e-37)
(0.0020092623 -0.0035520989 -6.2262504e-21 0.0063811869 1.2074116e-20 1.552886e-35)
(0.0026459256 -0.004101346 -3.8585331e-21 0.0064747142 6.7023049e-21 4.1649469e-36)
(0.0034510746 -0.0046820451 2.9308092e-21 0.0064845828 -4.5502199e-21 1.7083449e-36)
(0.0044586854 -0.0052947388 -2.0010401e-21 0.0064338067 2.7698802e-21 5.7116721e-37)
(0.0057101954 -0.0059442762 8.6885072e-21 0.006346098 -1.0707448e-20 7.8915986e-36)
(0.0072572992 -0.0066385237 -2.878948e-21 0.0062403337 3.1519687e-21 6.4205423e-37)
(0.0091590219 -0.0073844612 8.8952422e-21 0.0061309167 -8.6362056e-21 4.6127371e-36)
(0.011485625 -0.0081893847 -5.7327713e-21 0.0060273074 4.9258691e-21 1.4618078e-36)
(0.014320273 -0.0090595509 4.0357786e-21 0.0059330699 -3.0619723e-21 5.5671319e-37)
(0.017760116 -0.009998298 -1.6728602e-20 0.0058472969 1.1194143e-20 7.4811725e-36)
(0.021916281 -0.011005583 2.7038764e-21 0.0057664565 -1.5934807e-21 1.5468942e-37)
(0.026913596 -0.012077533 -1.6062288e-20 0.0056857485 8.3209262e-21 4.3255585e-36)
(0.032888751 -0.013205562 1.7205379e-20 0.0055997415 -7.8290751e-21 3.9975825e-36)
(0.039986391 -0.014374584 6.1695889e-21 0.0055023604 -2.4618827e-21 4.1334517e-37)
(0.048351878 -0.015560153 -8.514526e-20 0.0053866288 2.9778975e-20 6.5196973e-35)
(0.05811887 -0.016724687 -2.4625389e-20 0.0052446247 7.5337984e-21 4.5010474e-36)
(0.069389966 -0.017813285 2.2469974e-20 0.0050680474 -6.0017168e-21 3.1400212e-36)
(0.082208899 -0.018750139 -2.4218323e-20 0.0048498153 5.6324412e-21 3.076715e-36)
(0.096524336 -0.019437729 6.8262887e-21 0.0045872157 -1.3766526e-21 2.0655629e-37)
(0.1121475 -0.019762074 4.6228052e-20 0.0042869541 -8.0538034e-21 8.2150779e-36)
(0.12871132 -0.019607073 -2.3039966e-21 0.0039711885 3.4472489e-22 1.7958224e-38)
(0.14564551 -0.018880608 -1.8005613e-20 0.0036824358 2.2852018e-21 9.4689546e-37)
(0.16220358 -0.017554988 9.2687237e-21 0.0034840303 -9.7772508e-22 2.2729379e-37)
(0.17757753 -0.015703961 -5.0493687e-21 0.0034455969 4.4489066e-22 5.7168471e-38)
(0.19096334 -0.013478183 -1.4970321e-20 0.0036082122 1.0604925e-21 4.7954003e-37)
(0.20171322 -0.011069092 2.3809214e-19 0.0039572943 -1.3200932e-20 1.1430716e-34)
(0.20943209 -0.008684404 -2.7408772e-20 0.0044306985 1.1163148e-21 1.4319298e-36)
(0.21398779 -0.0064723878 2.5780399e-20 0.004943332 -7.3169904e-22 1.2194681e-36)
(0.21543877 -0.0045000067 -2.4428583e-19 0.0054385725 4.0417984e-21 1.071149e-34)
(0.21398214 -0.0028091059 1.3347328e-19 0.0059220693 -7.505328e-22 3.1856766e-35)
(0.21002488 -0.0014823392 1.0850385e-19 0.0064381326 5.4908108e-22 2.1304628e-35)
(0.20428061 -0.00065102503 1.011721e-19 0.0070236113 1.5281447e-21 1.9125709e-35)
(0.19781632 -0.00041204899 9.4214368e-20 0.0076775931 2.3463835e-21 1.7440991e-35)
(0.19176901 -0.0007449435 1.4152038e-19 0.0083611717 4.9039064e-21 4.2210517e-35)
(0.18710527 -0.0014776165 -2.6823575e-19 0.0090123029 -1.2015905e-20 1.6578606e-34)
(0.18414868 -0.00240015 1.5486594e-19 0.0095681549 8.5341305e-21 6.1816083e-35)
(0.18246352 -0.0032340677 2.1767069e-19 0.0099655537 1.4319064e-20 1.4037697e-34)
(0.1810868 -0.0037816835 -1.4620818e-19 0.010139162 -1.134339e-20 7.4819487e-35)
(0.17765048 -0.0037243514 -4.1976781e-20 0.010099491 -3.7707104e-21 7.5703222e-36)
(0.17156626 -0.0027037227 -3.2394773e-20 0.0098092144 -3.3724334e-21 5.7397508e-36)
(0.15750058 -0.00069891182 1.4227835e-19 0.0093212423 1.7721953e-20 1.4864429e-34)
(0.14182864 0.0026610847 8.8712745e-20 0.0084850299 1.3552048e-20 8.0197895e-35)
(0.11478734 0.0054809324 -3.0778682e-21 0.0075021426 -6.0851662e-22 1.5565153e-37)
(3.3844105e-08 -2.6543051e-07 2.3606404e-24 2.0817041e-06 -1.8171792e-23 1.3219158e-37)
(3.3472415e-07 -2.5660129e-06 -1.5128555e-23 1.9671347e-05 1.1371485e-22 1.0188431e-36)
(1.0552312e-06 -7.9097781e-06 1.9763386e-23 5.9291401e-05 -1.4459623e-22 6.7702256e-37)
(2.3678543e-06 -1.7314208e-05 -1.0587578e-23 0.00012661164 7.5286924e-23 9.6664194e-38)
(4.5025964e-06 -3.204953e-05 -5.1367126e-24 0.00022815097 3.5450778e-23 1.261238e-38)
(7.7693076e-06 -5.370172e-05 5.7576891e-23 0.00037124593 -3.8503193e-22 9.3358471e-37)
(1.2583841e-05 -8.4231697e-05 -1.8600962e-23 0.0005639482 1.2026182e-22 5.9865716e-38)
(1.950196e-05 -0.0001260366 -4.9641474e-23 0.00081481561 3.0947984e-22 2.697772e-37)
(2.9264295e-05 -0.00018201242 -4.7319125e-24 0.0011325608 2.8361276e-23 1.5872192e-39)
(4.2854369e-05 -0.00025560847 -4.957628e-23 0.0015255198 2.8477128e-22 1.1445492e-37)
(6.157299e-05 -0.00035086358 8.509469e-23 0.0020009054 -4.668734e-22 2.2420786e-37)
(8.7132356e-05 -0.00047240847 -7.2175019e-23 0.0025638233 3.769078e-22 1.0817017e-37)
(0.00012177355 -0.0006254149 -3.236272e-22 0.0032160544 1.6027594e-21 1.4662277e-36)
(0.00016841052 -0.00081546726 -1.1429371e-23 0.0039546583 5.3480182e-23 1.2351289e-39)
(0.00023080288 -0.0010483312 3.6376271e-22 0.0047705214 -1.6017898e-21 8.5226302e-37)
(0.00031375819 -0.0013295983 3.1169007e-22 0.0056470738 -1.2864469e-21 4.2596668e-37)
(0.00042336154 -0.0016642 -3.2390826e-22 0.0065595101 1.247871e-21 3.1386238e-37)
(0.0005672278 -0.0020558139 3.7350195e-23 0.007474946 -1.3373864e-22 2.8730564e-39)
(0.00075476904 -0.0025062365 9.1431891e-22 0.0083539777 -3.029961e-21 1.1764615e-36)
(0.00099747003 -0.0030148605 1.3348473e-21 0.0091540025 -4.0761509e-21 1.7298046e-36)
(0.0013091704 -0.0035784677 -1.8173658e-21 0.0098343404 5.0918435e-21 2.227522e-36)
(0.0017063625 -0.0041915864 -2.1703058e-21 0.010362631 5.5557354e-21 2.2247858e-36)
(0.0022085311 -0.0048476165 3.4459744e-21 0.010721255 -8.0271218e-21 3.9666691e-36)
(0.0028387264 -0.0055408783 -5.0016337e-21 0.01091191 1.0560913e-20 5.9728616e-36)
(0.0036246259 -0.0062693105 -1.0099611e-20 0.010956377 1.9259742e-20 1.7615288e-35)
(0.0045975077 -0.0070348389 2.752511e-20 0.010892422 -4.7254267e-20 9.6047953e-35)
(0.005795208 -0.0078450416 -1.7410274e-20 0.010762515 2.6828452e-20 2.8576996e-35)
(0.0072652349 -0.0087108374 2.9470669e-20 0.010599577 -4.0647947e-20 6.1636676e-35)
(0.0090622256 -0.0096423916 -4.183088e-20 0.010428404 5.1505564e-20 9.471966e-35)
(0.011250393 -0.010649671 5.2812465e-20 0.010266137 -5.7895724e-20 1.1646801e-34)
(0.013904905 -0.011740904 -6.1495957e-20 0.010119767 5.9881934e-20 1.2322348e-34)
(0.01711337 -0.012920552 1.1601232e-20 0.0099881399 -1.0014829e-20 3.4658402e-36)
(0.020974989 -0.014188362 4.4883911e-20 0.0098652261 -3.4276799e-20 4.1175174e-35)
(0.025599955 -0.015538876 -2.8230532e-20 0.0097425373 1.9044646e-20 1.3091232e-35)
(0.031107045 -0.01696029 9.8112739e-21 0.0096103334 -5.8384515e-21 1.2837087e-36)
(0.037618986 -0.018432181 3.1607441e-21 0.009457627 -1.6575893e-21 1.0999031e-37)
(0.04525427 -0.019921823 4.3302783e-20 0.0092717057 -1.9970172e-20 1.6851723e-35)
(0.0541139 -0.02137941 1.5575312e-20 0.009038014 -6.3101327e-21 1.8072484e-36)
(0.064261509 -0.022732882 1.7268998e-20 0.008741099 -6.131052e-21 1.8588281e-36)
(0.075695716 -0.023883787 1.8581346e-20 0.0083674467 -5.7693024e-21 1.8401488e-36)
(0.088315587 -0.024707018 -1.0291087e-19 0.0079111842 2.7829179e-20 4.8375758e-35)
(0.1018826 -0.025058744 4.8828964e-20 0.0073833212 -1.144422e-20 9.4258996e-36)
(0.11598742 -0.024797134 8.4420452e-21 0.0068230062 -1.7085934e-21 2.4100216e-37)
(0.13003979 -0.023821519 -1.0291692e-19 0.006307255 1.7721175e-20 3.2368087e-35)
(0.14333739 -0.022131458 -5.5327577e-20 0.0059502313 8.0452597e-21 8.3640655e-36)
(0.15518457 -0.019861787 2.8494486e-20 0.0058710271 -3.4537899e-21 2.0291813e-36)
(0.16496531 -0.017234161 1.0814634e-19 0.0061286193 -1.0635326e-20 2.6835714e-35)
(0.17226715 -0.014512233 -4.8447371e-20 0.0066880797 3.7987241e-21 5.072936e-36)
(0.17692569 -0.011938867 1.4502595e-19 0.0074301492 -8.503864e-21 4.315374e-35)
(0.17896772 -0.0096578292 7.9869753e-20 0.0082034015 -3.3194478e-21 1.2681739e-35)
(0.17855155 -0.0077124622 1.1053708e-19 0.0089180659 -2.8998066e-21 2.3953444e-35)
(0.17594336 -0.0061384231 2.9508274e-19 0.0095968384 -3.1975205e-21 1.7105791e-34)
(0.17161972 -0.0050488188 -2.2424186e-19 0.010324061 -7.1145807e-22 1.0100104e-34)
(0.16637915 -0.0046125364 7.1274149e-20 0.011159359 1.2876956e-21 1.0592988e-35)
(0.16131429 -0.0049181489 -1.1773907e-19 0.012090415 -3.5669487e-21 3.078333e-35)
(0.15745175 -0.005876155 -1.0655778e-19 0.013040174 -4.7142206e-21 2.7313014e-35)
(0.15542687 -0.0071912005 -3.924466e-20 0.013896318 -2.3153227e-21 4.1085235e-36)
(0.15516728 -0.0085163987 -3.3285705e-19 0.014542111 -2.4079757e-20 3.3507582e-34)
(0.15561868 -0.0094392281 -8.2266025e-20 0.014867576 -7.2231576e-21 2.3894868e-35)
(0.15547587 -0.0096395502 1.7054974e-19 0.01474498 1.7961976e-20 1.2360559e-34)
(0.15177265 -0.0087981173 5.7321309e-20 0.014209 7.1938543e-21 1.7555309e-35)
(0.14424461 -0.0065599669 -3.7397626e-20 0.013193007 -5.5378646e-21 9.7782826e-36)
(0.1276872 -0.003402729 -6.5324531e-20 0.011996242 -1.1693501e-20 4.1790352e-35)
(0.10953888 0.00071514311 -8.4371003e-20 0.010503443 -1.8921799e-20 1.0130729e-34)
(0.08302315 0.0035116724 4.9220898e-21 0.0090255448 1.4395661e-21 5.8908928e-37)
(7.1220243e-08 -4.5233469e-07 1.0733775e-23 2.8728736e-06 -6.7338911e-23 1.2272328e-36)
(6.9056281e-07 -4.332069e-06 7.2314732e-24 2.7176222e-05 -4.4729214e-23 1.0689202e-37)
(2.1376624e-06 -1.3238906e-05 -9.2593748e-24 8.199169e-05 5.6339138e-23 7.0071456e-38)
(4.701318e-06 -2.8705515e-05 -4.7856612e-23 0.00017527564 2.8618042e-22 9.5518187e-37)
(8.7510654e-06 -5.2604026e-05 3.4783536e-23 0.00031622499 -2.0422114e-22 2.8666874e-37)
(1.476039e-05 -8.7206121e-05 -6.4438832e-23 0.00051526111 3.7099309e-22 5.9371401e-37)
(2.3334063e-05 -0.00013524069 3.5143561e-23 0.00078392033 -1.9807455e-22 1.1111628e-37)
(3.5241166e-05 -0.00019994604 1.0389986e-23 0.001134603 -5.7211185e-23 6.3008946e-39)
(5.1456675e-05 -0.00028511479 -7.2159068e-23 0.0015801308 3.8728764e-22 2.0177014e-37)
(7.3212138e-05 -0.00039511946 -1.8921354e-22 0.0021330551 9.8733264e-22 9.3663764e-37)
(0.00010205744 -0.00053490693 -1.1500615e-23 0.0028046605 5.818604e-23 2.3583084e-39)
(0.00013993506 -0.00070994458 4.5273401e-22 0.0036036203 -2.2140461e-21 2.5280633e-36)
(0.00018926869 -0.00092609892 -7.514632e-22 0.0045342923 3.540998e-21 4.8338921e-36)
(0.00025306767 -0.0011894245 1.4522064e-21 0.0055947029 -6.5708969e-21 1.2589251e-35)
(0.0003350486 -0.0015058436 -4.5341197e-22 0.0067743674 1.9627736e-21 8.5858187e-37)
(0.00043977511 -0.0018807051 1.1493141e-21 0.0080522287 -4.7412531e-21 3.8683193e-36)
(0.00057281722 -0.002318231 -1.655037e-21 0.0093951688 6.4791958e-21 5.6405358e-36)
(0.00074093126 -0.0028208919 1.2782704e-21 0.010757715 -4.7280046e-21 2.3712611e-36)
(0.0009522644 -0.0033888057 -2.3960505e-22 0.012083663 8.3344677e-22 5.8950447e-38)
(0.0012165903 -0.0040193176 -1.1505604e-21 0.013310261 3.7457524e-21 9.6454311e-37)
(0.0015455891 -0.0047069833 3.2999863e-21 0.014375216 -1.0005823e-20 5.6610247e-36)
(0.0019531939 -0.0054442067 -5.4728406e-21 0.015226011 1.53783e-20 1.1189511e-35)