/*--------------------------------*- C++ -*----------------------------------*\
  =========                 |
  \\      /  F ield         | OpenFOAM: The Open Source CFD Toolbox
   \\    /   O peration     | Website:  https://openfoam.org
    \\  /    A nd           | Version:  13
     \\/     M anipulation  |
\*---------------------------------------------------------------------------*/
FoamFile
{
    format      ascii;
    class       volScalarField;
    location    "38.303613";
    object      omega;
}
// * * * * * * * * * * * * * * * * * * * * * * * * * * * * * * * * * * * * * //

dimensions      [0 0 -1 0 0 0 0];

internalField   nonuniform List<scalar> 
17140
(
3736295.3
603677.93
185335.27
78621.662
40006.335
22786.78
13994.061
9063.8811
6105.5489
4237.5946
3010.6831
2179.261
1601.4718
1191.5714
895.75493
679.18244
518.68565
398.50304
307.69946
238.55811
185.55193
144.67058
112.97102
88.271924
68.94278
53.756257
41.783876
32.321652
24.836668
18.927858
14.295266
10.712559
7.999782
5.998959
4.5607163
3.5462167
2.8369929
2.341427
1.9939621
1.7499058
1.5794839
1.4629554
1.3872547
1.3450804
1.328592
1.3295723
1.3483581
1.3824269
1.4298719
1.4897267
1.5619888
1.6475548
1.7475978
1.861809
1.9893748
2.1323915
2.2923829
2.4615251
2.6188135
2.7238429
2.7771018
2.8096339
2.9319007
3.1658255
3.0674449
3736320.9
603682.56
185336.97
78622.54
40006.863
22787.133
13994.314
9064.0712
6105.6983
4237.7161
3010.785
2179.3488
1601.5494
1191.6416
895.81992
679.24384
518.74472
398.56077
307.75662
238.61522
185.60935
144.72845
113.02928
88.330325
69.000845
53.813314
41.839071
32.373985
24.885058
18.971231
14.332686
10.743409
8.02395
6.0169297
4.5734738
3.5549675
2.8428854
2.3453986
1.9967142
1.7519431
1.581169
1.4645551
1.3890254
1.3471466
1.3309831
1.3326605
1.3523651
1.3875922
1.4365796
1.4985575
1.5738127
1.6636976
1.7698692
1.8923201
2.0314046
2.1920117
2.3786117
2.5849449
2.7835482
2.9109152
2.9634214
2.9492032
2.9169379
2.9671221
2.9411114
3736345.9
603686.66
185338.24
78623.085
40007.147
22787.3
13994.423
9064.1486
6105.758
4237.766
3010.8296
2179.3912
1601.5915
1191.685
895.86551
679.29245
518.79692
398.61697
307.81707
238.68003
185.67843
144.80157
113.10599
88.409973
69.082548
53.89595
41.921274
32.454155
24.961378
19.041743
14.395447
10.796793
8.0670643
6.0499536
4.5976244
3.5720589
2.8547887
2.3537027
2.0026309
1.7563515
1.5847019
1.4676808
1.3921663
1.350541
1.3347121
1.3372698
1.3583195
1.3951932
1.446377
1.5113583
1.5908266
1.6867192
1.8012071
1.9345244
2.0888711
2.2731412
2.4962004
2.7544552
3.0109287
3.1699019
3.2265556
3.1764141
3.0400691
2.9005762
2.8074315
3736372.1
603690.93
185339.57
78623.654
40007.442
22787.475
13994.538
9064.2322
6105.8238
4237.8222
3010.8811
2179.4412
1601.6421
1191.7377
895.92163
679.35281
518.86221
398.6877
307.89358
238.76251
185.76688
144.89578
113.20552
88.514123
69.190326
54.006041
42.032011
32.56349
25.066878
19.140631
14.484794
10.873941
8.1302895
6.0990664
4.6340311
3.5981714
2.8732205
2.3667274
2.0120043
1.7633557
1.5902622
1.4724827
1.3968171
1.3554423
1.3401366
1.3437885
1.3664393
1.4054902
1.4596197
1.5286346
1.6137382
1.7175868
1.8427794
1.9897534
2.1636996
2.3789567
2.6503987
2.9779571
3.3172553
3.524287
3.5826304
3.4868283
3.2721455
2.9886707
2.8102406
3736400.1
603695.47
185340.97
78624.251
40007.751
22787.66
13994.662
9064.3229
6105.8967
4237.8858
3010.9406
2179.4999
1601.7024
1191.8012
895.98963
679.42631
518.94199
398.77434
307.98751
238.86396
185.8759
145.0122
113.32889
88.643699
69.325029
54.144393
42.172084
32.702838
25.202487
19.268939
14.601887
10.976098
8.2148826
6.1654396
4.6837015
3.6341166
2.8988073
2.3849474
2.0251958
1.7732369
1.598078
1.4791566
1.4031585
1.362016
1.3473079
1.3523935
1.3770281
1.418884
1.4768451
1.55112
1.6435649
1.7576702
1.8961766
2.0599585
2.2589316
2.5145947
2.8504836
3.273985
3.729342
4.0107835
4.0621667
3.8940368
3.5909724
3.2155795
2.9326838
3736429.1
603700.16
185342.41
78624.868
40008.074
22787.853
13994.792
9064.4201
6105.9763
4237.9564
3011.0077
2179.5669
1601.7719
1191.8751
896.06912
679.51254
519.03582
398.87646
308.09842
238.98397
186.00511
145.15045
113.47577
88.798441
69.486483
54.310948
42.34158
32.872465
25.36869
19.427394
14.747704
11.104456
8.3221541
6.2503724
4.7478021
3.6808622
2.9323117
2.4089506
2.0426596
1.7863545
1.6084446
1.4879574
1.4114221
1.3705072
1.356497
1.3633243
1.390497
1.4359278
1.4988043
1.5798539
1.6817664
1.8089039
1.9636098
2.1481537
2.3794099
2.6881643
3.1106859
3.6671382
4.2804399
4.6754795
4.6948409
4.4153114
3.9935586
3.5401132
3.21283
3736459.3
603704.99
185343.89
78625.506
40008.41
22788.056
13994.929
9064.5237
6106.0622
4238.0336
3011.0819
2179.6419
1601.8501
1191.9585
896.15925
679.61058
519.14273
398.99301
308.2252
239.12138
186.15331
145.30937
113.64501
88.977267
69.673713
54.504882
42.539875
33.072004
25.56543
19.6163
14.922935
11.260064
8.4534132
6.3552669
4.8276581
3.7395457
2.9746518
2.439457
2.06496
1.8031612
1.6217415
1.4992189
1.421891
1.3812644
1.3680709
1.3770391
1.4074167
1.457388
1.5265536
1.6163277
1.7304692
1.874025
2.0483055
2.2591738
2.5328793
2.912327
3.4522677
4.1913855
5.0017648
5.5300688
5.4658071
5.0355041
4.482919
3.9255438
3.5492777
3736490.6
603709.99
185345.42
78626.167
40008.759
22788.268
13995.074
9064.6335
6106.1539
4238.1169
3011.1625
2179.7238
1601.936
1192.0504
896.25883
679.7191
519.26127
399.12243
308.36619
239.27442
186.31868
145.48706
113.83474
89.178331
69.884963
54.724586
42.765585
33.300369
25.792004
19.835421
15.127866
11.44373
8.6098896
6.4815843
4.9247395
3.8114818
3.0269179
2.477338
2.0927906
1.824222
1.6384538
1.5134085
1.4351192
1.3945699
1.3825043
1.3941467
1.4285753
1.4843384
1.5616051
1.66273
1.7928207
1.9569093
2.1552464
2.4008929
2.7317742
3.2068975
3.9059491
4.881354
5.8771024
6.1934776
5.8438923
5.3459529
4.839532
4.3248465
3.8789906
3736522
603715.15
185347.01
78626.853
40009.12
22788.488
13995.225
9064.7487
6106.2507
4238.2052
3011.2485
2179.8115
1602.0283
1192.1494
896.36623
679.8363
519.38945
399.26257
308.51907
239.44065
186.49865
145.6809
114.04225
89.398943
70.117605
54.967576
43.016449
33.555628
26.046925
20.083826
15.362223
11.655872
8.7926186
6.6307688
5.0406269
3.898158
3.0903851
2.5236359
2.126994
1.8502299
1.6591719
1.5310372
1.4515009
1.4111247
1.4004758
1.4154804
1.4550753
1.5183138
1.6061769
1.7223595
1.873497
2.0630947
2.2925048
2.5866088
2.9965287
3.6040411
4.5185687
5.7539652
6.5374134
6.4076417
5.7686061
5.1495437
4.8733679
4.5029908
4.0686914
3736555.2
603720.52
185348.67
78627.566
40009.494
22788.716
13995.382
9064.8689
6106.352
4238.2977
3011.3387
2179.9036
1602.1253
1192.2536
896.47942
679.95996
519.52484
399.41076
308.68098
239.61701
186.68997
145.88747
114.26404
89.635532
70.368088
55.230401
43.289227
33.834876
26.327763
20.35972
15.624992
11.896341
9.0022803
6.8041291
5.1769425
4.0012097
3.1665167
2.5795816
2.1685869
1.8820372
1.6846399
1.5527986
1.4717548
1.4316612
1.4228954
1.4422005
1.4884909
1.5615639
1.663624
1.8003192
1.979314
2.2009423
2.4736827
2.8375228
3.3623442
4.1612768
5.3718168
6.7085382
6.7607289
6.1958008
4.4724188
3.2725956
3.5207645
3.8789316
3.656973
3736589.7
603726.08
185350.38
78628.306
40009.883
22788.952
13995.544
9064.993
6106.4563
4238.3931
3011.4316
2179.9984
1602.2252
1192.3608
896.59591
680.08731
519.66439
399.5637
308.84834
239.79964
186.88856
146.10248
114.49563
89.883523
70.631797
55.508505
43.579539
34.134051
26.630951
20.660224
15.914174
12.164177
9.2389746
7.0026578
5.3352325
4.1223626
3.2569505
2.6466063
2.2187846
1.9206883
1.7157958
1.5795956
1.4968087
1.457182
1.4510255
1.4759622
1.5311307
1.6174904
1.7392076
1.9046088
2.119975
2.384211
2.7220146
3.1922952
3.8938142
4.9928152
6.5601578
7.1876802
6.7433783
5.0871771
2.6814273
1.5804882
1.4434362
1.7500038
1.73269
3736625.1
603731.82
185352.16
78629.069
40010.285
22789.196
13995.711
9065.1199
6106.5626
4238.4898
3011.5255
2180.0939
1602.3255
1192.4685
896.7129
680.21522
519.80465
399.7176
309.017
239.98408
187.08963
146.32083
114.73169
90.137368
70.903057
55.796185
43.881783
34.447816
26.951611
20.981154
16.226537
12.457319
9.5019312
7.2267756
5.5167791
4.2633229
3.3634528
2.7263381
2.279023
1.9674573
1.753821
1.6126064
1.527909
1.4890689
1.4866733
1.5191971
1.586491
1.6914285
1.8414961
2.0473428
2.3098829
2.6378242
3.0815133
3.7238067
4.7174979
6.3109302
7.600653
7.3383308
6.1772403
3.1945133
1.5653797
0.93760781
0.70484404
0.7209921
0.64175177
3736662.3
603737.82
185354.01
78629.863
40010.701
22789.448
13995.882
9065.2491
6106.6698
4238.5863
3011.6184
2180.1879
1602.424
1192.5739
896.82716
680.34011
519.94167
399.86809
309.18222
240.16516
187.2876
146.53658
114.96591
90.390454
71.175019
56.086451
44.188955
34.769326
27.283274
21.316692
16.557231
12.772204
9.7891006
7.475966
5.7223156
4.4255904
3.4878214
2.8205699
2.3509688
2.0238869
1.800205
1.6533824
1.5667941
1.5292707
1.5325202
1.5756015
1.6600738
1.7921047
1.9846595
2.2455687
2.5741406
3.0121868
3.6370617
4.5773292
6.0970041
7.9442775
7.9887988
7.1047746
4.2389986
1.9320406
1.0054614
0.63567213
0.46023618
0.3983642
0.31402048
3736699.8
603743.94
185355.91
78630.68
40011.131
22789.706
13996.056
9065.3788
6106.7759
4238.6806
3011.7082
2180.278
1602.5176
1192.6737
896.93518
680.45805
520.07108
400.0104
309.33875
240.33719
187.47632
146.7431
115.19121
90.635296
71.439845
56.3712
44.492807
35.090347
27.617944
21.659355
16.89964
13.103516
10.09685
7.7484194
5.9516742
4.610188
3.6317171
2.9311816
2.4365094
2.0918291
1.8568267
1.7039627
1.6158007
1.5809084
1.5926603
1.6509999
1.7609404
1.9344628
2.1905726
2.5254991
2.9688685
3.6062045
4.5602515
6.0545652
8.2155364
8.6432137
7.9656752
5.567735
2.3902262
1.1439152
0.67661955
0.47734509
0.35745225
0.29122296
0.21852213
3736738.4
603750.26
185357.86
78631.526
40011.573
22789.97
13996.232
9065.508
6106.8798
4238.7713
3011.7931
2180.362
1602.6041
1192.7653
897.03386
680.56559
520.18903
400.1402
309.48181
240.49487
187.64999
146.93408
115.40075
90.864551
71.689725
56.64222
44.784834
35.402235
27.947043
22.000915
17.246219
13.444719
10.420025
8.0407854
6.2034412
4.8173046
3.796394
3.0599863
2.5377071
2.1734904
1.9260869
1.7671012
1.6783333
1.648942
1.6735026
1.7551669
1.9048782
2.145011
2.4904076
2.9464661
3.6072058
4.6217573
6.2032274
8.5806435
9.2572966
8.7311019
6.8232091
2.920828
1.357354
0.76164435
0.51020936
0.38289481
0.29647512
0.2414873
0.18408263
3736780.4
603757.03
185359.93
78632.406
40012.028
22790.24
13996.41
9065.6358
6106.9801
4238.8567
3011.8711
2180.4375
1602.6807
1192.8454
897.11964
680.6587
520.291
400.25249
309.60584
240.63209
187.80187
147.10214
115.58654
91.06958
71.915395
56.889663
45.054671
35.694221
28.259569
22.330376
17.586343
13.786148
10.750613
8.3471522
6.4740388
5.0455685
3.9821884
3.2084349
2.6566897
2.2714893
2.0111333
1.8466835
1.7598548
1.7409993
1.7857069
1.905628
2.1212276
2.4692543
2.9466624
3.6367775
4.7293319
6.4925089
9.1081806
9.8952224
9.4335841
7.7198825
3.560394
1.6324644
0.8713182
0.56551256
0.4039523
0.30886026
0.23995059
0.19730648
0.1553513
3736824.8
603764.05
185362.07
78633.318
40012.498
22790.515
13996.587
9065.7607
6107.0751
4238.9347
3011.9399
2180.5021
1602.7445
1192.9109
897.18876
680.73313
520.37225
400.34196
309.70495
240.7423
187.92474
147.23934
115.73984
91.240856
72.10652
57.102399
45.290442
35.953779
28.54251
22.634502
17.906931
14.115335
11.077305
8.6581828
6.7568034
5.2912174
4.1878692
3.377193
2.7954834
2.3889696
2.1163374
1.9488352
1.8690508
1.8695804
1.9486873
2.1353682
2.4678677
2.9824064
3.704571
4.8850858
6.8751602
9.7622824
10.590836
10.141457
8.4730651
4.237909
1.943619
1.00297
0.62656002
0.43925452
0.32721032
0.25535049
0.199887
0.16619465
0.13574416
3736869.6
603771.22
185364.27
78634.257
40012.98
22790.794
13996.764
9065.8814
6107.1634
4239.0038
3011.9975
2180.5534
1602.7928
1192.9587
897.23787
680.78513
520.4285
400.4038
309.77372
240.81944
188.01182
147.33812
115.85229
91.369124
72.252919
57.269294
45.480064
36.16792
28.782072
22.898875
18.193239
14.41769
11.386439
8.9620038
7.0423411
5.5478377
4.4100999
3.5656721
2.9558263
2.5298281
2.248055
2.0833328
2.0211307
2.0557566
2.2010357
2.5111016
3.0540541
3.8448004
5.1161131
7.3438204
10.487688
11.337946
10.877538
9.1964213
4.9084556
2.2633979
1.1515648
0.69498911
0.48115703
0.35841031
0.27802734
0.22335489
0.17955486
0.15131895
0.12594634
3736913.9
603778.54
185366.53
78635.215
40013.47
22791.076
13996.939
9065.9969
6107.2439
4239.0625
3012.0425
2180.5896
1602.8237
1192.9865
897.26434
680.81166
520.45633
400.4341
309.80772
240.85849
188.05746
147.39212
115.9167
91.446314
72.345566
57.380307
45.612442
36.324482
28.96504
23.1093
18.430255
14.677695
11.662483
9.2438688
7.3178737
5.8056686
4.6427671
3.7715592
3.1391433
2.6994014
2.4163882
2.2670448
2.2432449
2.3431266
2.6211341
3.1739378
4.0627789
5.460927
7.9385927
11.280619
12.129652
11.645428
9.9064668
5.5358886
2.5757143
1.3102598
0.77138756
0.52832292
0.39250893
0.30575224
0.24252038
0.19626529
0.15903417
0.13529494
0.11438917
3736961
603786.19
185368.88
78636.21
40013.975
22791.362
13997.113
9066.1073
6107.3159
4239.11
3012.0736
2180.6093
1602.8352
1192.9921
897.26557
680.80974
520.45228
400.42888
309.80235
240.8541
188.05541
147.39408
115.92478
91.463058
72.374028
57.424028
45.675321
36.410453
29.077403
23.250685
18.60184
14.878318
11.887895
9.4864791
7.5674994
6.0516331
4.876917
3.9909574
3.347347
2.9065502
2.6395491
2.5327929
2.5842755
2.8251162
3.3798936
4.368011
5.9324775
8.6720756
12.155168
12.970793
12.456451
10.63724
6.1250255
2.8829838
1.4742849
0.86251322
0.58595112
0.43160241
0.33200037
0.2618559
0.2096382
0.17127681
0.14038231
0.12296049
0.10766093
3737011.6
603794.25
185371.33
78637.243
40014.495
22791.652
13997.285
9066.2117
6107.3786
4239.1451
3012.0896
2180.611
1602.8259
1192.9738
897.2397
680.77732
520.41414
400.3858
309.75513
240.80369
188.00298
147.34111
115.87309
91.414958
72.332321
57.39209
45.657165
36.410857
29.102239
23.305352
18.690371
15.001744
12.044518
9.6717304
7.7741223
6.2711997
5.1025531
4.2205313
3.5861462
3.1694113
2.9540005
2.9460496
3.1521784
3.7092561
4.8058147
6.5498409
9.5499674
13.106347
13.866268
13.318624
11.40998
6.7281101
3.201158
1.6480646
0.96285776
0.64850605
0.47168439
0.35911221
0.28300289
0.22789129
0.18570436
0.15520133
0.13141733
0.11707261
0.10307924
3737062.3
603802.44
185373.85
78638.303
40015.026
22791.944
13997.453
9066.3089
6107.4309
4239.167
3012.0892
2180.5935
1602.7942
1192.9299
897.18479
680.71222
520.33946
400.30207
309.66295
240.70381
187.89642
147.22925
115.75777
91.298559
72.21786
57.283239
45.558227
36.326616
29.037597
23.265676
18.681461
15.0305
12.115361
9.7837937
7.9233604
6.4529802
5.3140326
4.4643052
3.8747118
3.5308734
3.4418213
3.624997
4.2001849
5.4132617
7.3539589
10.571957
14.132609
14.82101
14.237367
12.232707
7.3638858
3.5414723
1.8361263
1.0739229
0.71906276
0.51788298
0.39184036
0.30850804
0.24768742
0.20226019
0.1681375
0.1426966
0.12207581
0.10912001
0.097966131
3737113.2
603810.79
185376.42
78639.388
40015.567
22792.238
13997.619
9066.3988
6107.4724
4239.1749
3012.0719
2180.5559
1602.7393
1192.8594
897.09973
680.61322
520.2269
400.17627
309.52427
240.55282
187.73395
147.05655
115.57662
91.111393
72.027844
57.09437
45.375347
36.155372
28.884287
23.137037
18.584238
14.970583
12.098805
9.8183069
8.0124938
6.5988165
5.5224503
4.7499347
4.268779
4.093937
4.2582891
4.8732193
6.2228707
8.3744668
11.75532
15.231027
15.846552
15.221981
13.110196
8.0409376
3.9097565
2.0425924
1.1973497
0.79934427
0.57058624
0.42924936
0.33648246
0.2684481
0.21890919
0.1814895
0.15249027
0.13012685
0.11346045
0.10384878
0.094924588
3737167.7
603819.61
185379.11
78640.512
40016.124
22792.538
13997.782
9066.4818
6107.5034
4239.169
3012.0377
2180.4983
1602.6612
1192.7624
896.98479
680.48074
520.07708
400.00924
309.34025
240.35218
187.51742
146.82531
115.33242
90.856725
71.766075
56.829849
45.113493
35.902692
28.648317
22.926178
18.407485
14.83716
12.017957
9.7988713
8.0664171
6.7424048
5.7797379
5.1617821
4.9080095
5.0673468
5.7482922
7.2504687
9.6283834
13.090189
16.412222
16.956347
16.282124
14.044124
8.7564743
4.3131479
2.2727691
1.3356385
0.89076911
0.63089461
0.47144158
0.36740413
0.29127659
0.23685011
0.19574355
0.16425605
0.1398673
0.12264465
0.10931284
0.10076316
0.092217802
3737225.4
603828.82
185381.93
78641.687
40016.701
22792.844
13997.945
9066.5598
6107.5256
4239.1511
3011.9887
2180.4232
1602.5628
1192.6424
896.84396
680.31941
519.89537
399.80721
309.11803
240.11013
187.25625
146.54621
115.03728
90.548217
71.447873
56.506778
44.791671
35.589639
28.353006
22.659029
18.180298
14.663029
11.911232
9.7754967
8.1523011
6.9759047
6.217549
5.8946513
6.0656876
6.8385722
8.5111726
11.104455
14.57282
17.684358
18.141657
17.411037
15.029408
9.5020193
4.7613399
2.5330382
1.4948663
0.99415478
0.69837435
0.51914614
0.40200907
0.31773936
0.2578247
0.21224143
0.17716014
0.15038799
0.13106002
0.11570533
0.10364184
0.096083788
0.089428065
3737283.9
603838.25
185384.82
78642.9
40017.296
22793.159
13998.11
9066.6362
6107.5435
4239.1268
3011.9312
2180.3379
1602.4527
1192.5091
896.68829
680.14178
519.69596
399.58614
308.87553
239.84668
186.97272
146.24404
114.71861
90.216123
71.106543
56.161733
44.449993
35.260185
28.046633
22.388832
17.961965
14.515334
11.855932
9.8497087
8.4086324
7.4872952
7.0939908
7.2842158
8.1538156
9.9971924
12.77033
16.229234
19.07136
19.409384
18.614419
16.070422
10.278872
5.2761706
2.8409806
1.679458
1.1059266
0.77264584
0.57299778
0.44205331
0.34799598
0.28141387
0.22982688
0.19096131
0.16209262
0.14052926
0.12266764
0.1092675
0.099748287
0.094005409
0.087917302
3737344.3
603848.04
185387.81
78644.155
40017.913
22793.485
13998.282
9066.717
6107.5643
4239.1045
3011.8754
2180.2541
1602.3442
1192.3777
896.53522
679.96764
519.5012
399.37121
308.64099
239.59342
186.70206
145.95792
114.41977
89.908344
70.794857
55.852743
44.1522
34.984395
27.80638
22.20074
17.846602
14.504014
11.999921
10.213392
9.078564
8.5886266
8.7860094
9.738313
11.717992
14.60948
18.050717
20.635268
20.769365
19.896599
17.166681
11.088012
5.8618414
3.1915294
1.8724621
1.2190217
0.85388417
0.63694219
0.48854634
0.38256876
0.30745321
0.25028003
0.20756525
0.17565574
0.15039556
0.13015419
0.11573984
0.10547435
0.097273818
0.091430253
0.086011431
3737407.1
603858.19
185390.93
78645.459
40018.558
22793.831
13998.471
9066.8132
6107.6007
4239.0991
3011.8383
2180.1914
1602.2596
1192.2736
896.41321
679.82888
519.34668
399.20193
308.45816
239.39858
186.49726
145.74589
114.20415
89.693886
70.587745
55.660845
43.985725
34.857185
27.737679
22.218674
17.993571
14.835233
12.585653
11.151765
10.504233
10.662446
11.651375
13.709865
16.678839
20.005611
22.410937
22.270768
21.25879
18.27978
11.944995
6.5174568
3.5698661
2.0717825
1.343714
0.95482167
0.71412896
0.54215115
0.42012709
0.33695777
0.27377715
0.22682217
0.18995161
0.16117341
0.13933182
0.12382241
0.11141358
0.10111811
0.093733045
0.089104399
0.084764947
3737471.9
603868.67
185394.15
78646.818
40019.239
22794.206
13998.687
9066.9376
6107.6678
4239.1278
3011.8398
2180.1725
1602.2247
1192.2259
896.3549
679.76194
519.27287
399.12308
308.37631
239.31615
186.41726
145.67215
114.14162
89.649146
70.569732
55.682061
44.063467
35.014751
28.006797
22.642501
18.629447
15.760282
13.904581
13.001618
13.055967
13.981299
16.04184
19.010242
22.258776
24.390992
23.988207
22.737431
19.367983
12.852185
7.2342523
3.9655021
2.2828678
1.4902619
1.0717027
0.79699958
0.59676584
0.46202706
0.37033306
0.30136558
0.24809755
0.20648205
0.1741487
0.15049025
0.13220778
0.11723548
0.10567407
0.097858314
0.092129486
0.087776865
0.083656279
3737539.4
603879.61
185397.5
78648.239
40019.96
22794.615
13998.936
9067.0974
6107.7743
4239.201
3011.8919
2180.2113
1602.2557
1192.2531
896.38177
679.79147
519.3081
399.16724
308.43308
239.38987
186.51322
145.79695
114.30364
89.859166
70.84174
56.034414
44.520763
35.610735
28.787527
23.669027
19.982512
17.546426
16.25978
16.086472
16.880677
18.81347
21.682061
24.811282
26.578104
26.053714
24.400242
20.45362
13.815911
7.986751
4.3739763
2.5221493
1.662071
1.2008684
0.88361812
0.66109212
0.51466743
0.41227145
0.33217852
0.27254221
0.22544157
0.18996314
0.16256238
0.14123983
0.12410284
0.11191937
0.10290004
0.095618024
0.089886787
0.085985581
0.082643249
3737610.3
603891
185400.99
78649.728
40020.724
22795.06
13999.221
9067.295
6107.9227
4239.322
3011.9987
2180.3129
1602.3586
1192.3627
896.50274
679.92841
519.46575
399.35081
308.6485
239.64414
186.81477
146.15616
114.73352
90.376325
71.467751
56.797883
45.459252
36.773329
30.23798
25.48992
22.278204
20.443443
19.897809
20.464909
22.129042
24.770589
27.686695
28.968587
28.206332
26.183979
21.609097
14.841568
8.7712779
4.808642
2.787579
1.8497227
1.3336467
0.97765977
0.73705706
0.57706589
0.4558752
0.36436991
0.29809002
0.24793149
0.20761168
0.17649347
0.15149249
0.13295122
0.11906206
0.10817008
0.099168776
0.092708669
0.088203684
0.084942703
0.081943196
3737682.9
603902.71
185404.61
78651.274
40021.528
22795.537
13999.536
9067.5256
6108.1081
4239.485
3012.154
2180.4707
1602.5269
1192.5482
896.71189
680.16775
519.74233
399.67255
309.02461
240.08557
187.33478
146.77109
115.46375
91.247879
72.513479
58.059438
46.989671
38.639559
32.52337
28.295279
25.71808
24.632293
24.855959
26.052837
28.328312
30.869251
31.538244
30.521321
28.0218
22.804676
15.868233
9.5405388
5.2586548
3.0774415
2.0536662
1.4790933
1.0884554
0.82958587
0.64639659
0.50530528
0.40248294
0.33148735
0.274467
0.22920351
0.19237938
0.16457097
0.14311591
0.12712218
0.11372637
0.10379566
0.096554541
0.091364996
0.087009867
0.083767997
0.081158873
3737758.4
603914.96
185408.37
78652.886
40022.372
22796.048
13999.885
9067.7911
6108.3324
4239.6928
3012.3613
2180.6893
1602.7665
1192.8176
897.01966
680.52303
520.15528
400.15484
309.58997
240.75042
188.11909
147.69933
116.56622
92.561887
74.085495
59.94667
49.261971
41.380341
35.827577
32.261344
30.428836
30.120079
30.803828
32.258678
34.298378
34.219239
32.911313
29.772754
24.018407
16.888292
10.307442
5.7549227
3.4083499
2.2835635
1.6417528
1.2146592
0.92992112
0.7199602
0.56008528
0.44921651
0.36755056
0.30238429
0.25047561
0.2110286
0.1790119
0.15511297
0.13561962
0.12076986
0.10949021
0.10134528
0.094496275
0.0892185
0.08548001
0.082933274
0.080656862
3737836.4
603927.56
185412.25
78654.569
40023.268
22796.605
14000.283
9068.1111
6108.6188
4239.9723
3012.6521
2181.0051
1603.119
1193.2179
897.47933
681.05445
520.77249
400.87416
310.43072
241.73579
189.27713
149.06417
118.17941
94.473699
76.3561
62.646569
52.470968
45.182099
40.296887
37.439967
36.288789
36.44976
37.357234
37.974486
37.179334
35.317769
31.442444
25.239446
17.884862
11.069084
6.294502
3.7817444
2.533261
1.8144608
1.3513624
1.0392454
0.80397003
0.62920474
0.50511325
0.40964495
0.33333115
0.27831202
0.23399526
0.19837391
0.16889037
0.14677368
0.12916228
0.11670505
0.10623385
0.098186166
0.092099432
0.08806421
0.084663077
0.082108957
0.080060652
3737916.9
603940.6
185416.3
78656.344
40024.24
22797.235
14000.756
9068.5161
6109.0027
4240.3643
3013.0728
2181.4709
1603.6444
1193.8172
898.16736
681.84786
521.69018
401.93825
311.6675
243.17683
190.96052
151.03593
120.49481
97.196867
79.549332
66.362989
56.779784
50.130356
45.882143
43.56426
42.724417
42.586892
41.970045
40.265936
37.673379
33.125542
26.475372
18.841251
11.839071
6.8977093
4.2069027
2.8078171
2.0060515
1.5068147
1.1655495
0.90320777
0.7093335
0.56661511
0.45402911
0.37023612
0.30852288
0.25927787
0.21701699
0.18479195
0.15853651
0.13955239
0.12401961
0.11215015
0.10260789
0.096219309
0.090838887
0.086778465
0.083590639
0.081471602
0.079638263
3738001.3
603954.27
185420.55
78658.233
40025.303
22797.954
14001.326
9069.0299
6109.5122
4240.9018
3013.6617
2182.1306
1604.3929
1194.6724
899.1487
682.97696
522.99199
403.44214
313.40847
245.19699
193.30971
153.77068
123.67443
100.8755
83.771571
71.159918
62.145004
56.023128
52.182154
49.91309
48.268898
46.206215
43.555909
40.16339
34.813865
27.661995
19.770141
12.659894
7.5902809
4.6891924
3.1090564
2.2168745
1.6787007
1.3033985
1.0131284
0.79746397
0.63524997
0.50881339
0.41586477
0.34557069
0.28657781
0.2414864
0.20473559
0.17586688
0.15171722
0.13395658
0.11911797
0.10894013
0.10056569
0.094122348
0.088976306
0.085626057
0.082832956
0.080935761
0.079181023
3738088.5
603968.43
185425
78660.239
40026.461
22798.773
14002.009
9069.6733
6110.1714
4241.6125
3014.4505
2183.0201
1605.4046
1195.8285
900.47311
684.49653
524.73742
405.44863
315.716
247.84952
196.35443
157.25672
127.65
105.38399
88.844702
76.770892
68.169368
62.165823
57.870736
54.310859
50.814543
47.200587
42.734092
36.540609
28.908404
20.821701
13.630832
8.3998401
5.2317274
3.4431383
2.4548686
1.8717764
1.4592125
1.1400155
0.90186728
0.71770423
0.57559498
0.46881775
0.38445052
0.31800273
0.26751195
0.22792489
0.19252339
0.16571842
0.14365836
0.12812016
0.11528364
0.10583719
0.097639939
0.092406671
0.087978299
0.084866761
0.08213179
0.080386379
0.078823033
3738178.6
603983.11
185429.62
78662.358
40027.721
22799.697
14002.808
9070.4511
6110.9854
4242.5016
3015.4443
2184.1444
1606.6841
1197.2884
902.14022
686.39993
526.90887
407.92239
318.52801
251.03552
199.9458
161.27318
132.08903
110.20662
93.95999
82.037033
73.249504
66.555127
61.056151
56.134088
51.298826
45.602949
38.528837
30.40103
22.092874
14.759162
9.2937775
5.8223933
3.8207475
2.7307208
2.0891563
1.6322006
1.2829774
1.0188499
0.81130777
0.6501105
0.52784579
0.4305839
0.35652121
0.30057675
0.25290031
0.21484822
0.1831937
0.15926116
0.1389392
0.12445171
0.11174443
0.10316019
0.096207828
0.091046073
0.086698569
0.083859859
0.081527959
0.080045443
0.078544631
3738271.2
603998.28
185434.44
78664.595
40029.082
22800.722
14003.718
9071.3525
6111.9398
4243.5503
3016.6191
2185.4731
1608.1931
1199.0045
904.09134
688.61523
529.41827
410.75507
321.70955
254.58294
203.85979
165.52682
136.61239
114.86717
98.538538
86.211661
76.704666
69.018311
62.350999
55.956599
48.872305
40.846857
32.170813
23.583562
16.044285
10.306938
6.5257981
4.2968007
3.0686523
2.3364655
1.8247373
1.4452325
1.1544187
0.92136352
0.74017861
0.59920857
0.48852948
0.40312233
0.33601095
0.28125727
0.2380382
0.2046505
0.17420855
0.1515833
0.1326221
0.11963736
0.10863428
0.10104501
0.093962254
0.089584895
0.085787806
0.083299857
0.080950132
0.079575622
0.078257147
3738367.1
604011.18
185437.07
78665.11
40029.182
22800.814
14003.928
9071.7277
6112.5026
4244.3155
3017.6001
2186.6843
1609.6505
1200.7257
906.09528
690.92095
532.04277
413.70996
324.99585
258.18387
207.73106
169.58504
140.72303
118.83543
102.1089
89.084304
78.57698
69.644287
61.267808
52.673796
43.637319
34.360974
25.429463
17.616294
11.551409
7.4111346
4.8855036
3.4532457
2.6016331
2.0355954
1.62873
1.3097164
1.0486525
0.84323246
0.68181865
0.55399185
0.45575323
0.37672188
0.31512124
0.26797734
0.22779028
0.19501551
0.16711098
0.14689634
0.12928684
0.11723551
0.10618715
0.098846911
0.092835779
0.088657341
0.08492913
0.082586166
0.080597943
0.079309018
0.078023445
3739014.3
604121.88
185474.39
78682.869
40039.345
22807.417
14008.656
9075.3962
6115.5544
4247.0127
3020.1105
2189.1224
1612.099
1203.247
908.73699
693.71799
535.01692
416.86681
328.31962
261.63011
211.21822
172.98638
143.86217
121.48987
104.02858
90.03188
78.219474
67.479484
57.1418
46.91383
36.884271
27.479293
19.30253
12.867876
8.3493868
5.5039704
3.8544393
2.8899893
2.2765763
1.836934
1.4824639
1.191232
0.96076976
0.77721549
0.63219108
0.51798975
0.42748289
0.35607902
0.30021654
0.25356151
0.21569927
0.18682616
0.16005087
0.1406785
0.12406182
0.11311447
0.10347848
0.097290463
0.091132885
0.087411281
0.084123665
0.082044761
0.080050643
0.078947975
0.077867891
3739013.7
604118.89
185472.02
78681.176
40038.258
22806.78
14008.366
9075.394
6115.8066
4247.5017
3020.8287
2190.0684
1613.2747
1204.655
910.37729
695.58439
537.09197
419.11573
330.68307
264.01672
213.49827
174.98937
145.38431
122.30554
103.84321
88.43256
74.933469
62.566898
50.919834
39.946525
29.916134
21.271088
14.411321
9.4838103
6.2823318
4.3763675
3.2600418
2.5616046
2.0635207
1.6677874
1.3499169
1.0958325
0.88825611
0.72197812
0.59014911
0.48440199
0.40234478
0.33574317
0.28322541
0.24243613
0.20771483
0.17917206
0.1542941
0.13711553
0.12156251
0.11138923
0.10164602
0.095391841
0.090058572
0.086702986
0.08346735
0.081540653
0.079818646
0.078628135
0.077684195
3739013.8
604119.04
185472.17
78681.391
40038.539
22807.133
14008.799
9075.9163
6116.4268
4248.2292
3021.6726
2191.0364
1614.3722
1205.8826
911.72821
697.04066
538.61977
420.66011
332.16279
265.32088
214.48838
175.48756
145.15683
121.05446
101.32535
84.575437
69.821295
56.471823
44.307353
33.419781
24.088349
16.599975
11.072342
7.3469338
5.0517515
3.694478
2.8693347
2.3097822
1.8838816
1.5422937
1.259045
1.0219793
0.83023971
0.67747195
0.5558858
0.45907649
0.38226546
0.3205468
0.27242683
0.23189287
0.1983103
0.17293823
0.14894016
0.13216547
0.11738474
0.10809022
0.099447906
0.094252298
0.088951325
0.085683203
0.082850967
0.081067077
0.079371271
0.078468486
0.077580213
3739014
604119.13
185472.26
78681.503
40038.685
22807.32
14009.031
9076.2008
6116.7693
4248.6352
3022.1463
2191.5799
1614.9833
1206.5526
912.43932
697.76227
539.30484
421.23997
332.54186
265.36974
214.03103
174.32526
143.10425
117.99152
97.209217
79.478622
63.963069
50.221612
38.142168
27.832148
19.468244
13.138652
8.73206
5.9283692
4.2546262
3.2653686
2.6271188
2.1541934
1.7694966
1.4454466
1.1765911
0.95913841
0.78268605
0.64080483
0.52738633
0.43571836
0.3642506
0.30581487
0.25977639
0.22351408
0.19256117
0.16740694
0.14478524
0.1298327
0.11573078
0.10689162
0.098186543
0.09280476
0.087971635
0.085201001
0.082312541
0.080687728
0.07920136
0.078221319
0.077427312
3739014.9
604119.22
185472.27
78681.506
40038.691
22807.333
14009.055
9076.2385
6116.8238
4248.7082
3022.2377
2191.686
1615.0952
1206.6536
912.50162
697.74288
539.14071
420.84573
331.80895
264.17127
212.23802
171.81683
139.78942
113.83817
92.275429
73.93649
58.102115
44.420307
32.804714
23.303793
15.957539
10.676948
7.1849576
5.0439016
3.7803177
2.9969124
2.4463271
2.0136201
1.6567201
1.3614528
1.1162165
0.91127761
0.7439507
0.6101574