/*--------------------------------*- C++ -*----------------------------------*\
  =========                 |
  \\      /  F ield         | OpenFOAM: The Open Source CFD Toolbox
   \\    /   O peration     | Website:  https://openfoam.org
    \\  /    A nd           | Version:  13
     \\/     M anipulation  |
\*---------------------------------------------------------------------------*/
FoamFile
{
    format      ascii;
    class       volVectorField;
    location    "10.897499";
    object      UMean;
}
// * * * * * * * * * * * * * * * * * * * * * * * * * * * * * * * * * * * * * //

dimensions      [0 1 -1 0 0 0 0];

internalField   nonuniform List<vector> 
17140
(
(-4.4105823e-06 0.00019497414 -4.0213372e-22)
(-5.464001e-05 0.00059900263 -3.245253e-23)
(-0.00016250379 0.001039305 2.144367e-21)
(-0.00035046581 0.0015176343 -2.3581815e-21)
(-0.00063851074 0.002035721 2.7579251e-22)
(-0.0010540088 0.0025948342 -9.0289134e-22)
(-0.0016304407 0.0031956533 -1.5208444e-21)
(-0.0024079935 0.0038380629 7.434288e-22)
(-0.0034346951 0.0045209158 2.4347668e-21)
(-0.004767459 0.0052417596 5.9779915e-21)
(-0.0064730383 0.005996538 -8.8780914e-21)
(-0.0086288153 0.0067792791 7.9254991e-21)
(-0.011323317 0.007581795 1.214775e-21)
(-0.014656283 0.0083934257 -6.8947075e-21)
(-0.018738104 0.0092008891 7.6763231e-22)
(-0.023688423 0.0099882929 -6.1050712e-21)
(-0.029633742 0.010737414 2.2904199e-22)
(-0.036703921 0.011428325 -5.0401869e-23)
(-0.045027641 0.012040468 -3.6600123e-21)
(-0.054727153 0.0125542 4.7736042e-21)
(-0.065912916 0.012952798 -2.3076165e-21)
(-0.07867893 0.013224684 4.4478045e-22)
(-0.093101575 0.013365469 3.2755151e-21)
(-0.10924649 0.013379213 -3.2691548e-21)
(-0.1271593 0.013278463 -5.2106268e-21)
(-0.14685867 0.013081744 4.195724e-21)
(-0.16841621 0.012806258 2.0561452e-20)
(-0.19190574 0.012466685 2.4068262e-21)
(-0.21735658 0.012076486 -2.1215443e-20)
(-0.2448368 0.011644399 -4.9383291e-21)
(-0.27440865 0.011175008 -1.7626809e-20)
(-0.30612107 0.010670036 2.3229387e-20)
(-0.34000737 0.010129134 -6.0338036e-21)
(-0.37607622 0.0095504918 -2.8943364e-21)
(-0.41430143 0.0089307775 -2.8347042e-20)
(-0.4546086 0.0082649061 1.2485682e-20)
(-0.49685707 0.007545783 -1.8748523e-20)
(-0.54081525 0.0067640138 -1.2665972e-20)
(-0.58612837 0.0059077385 -5.7774142e-21)
(-0.6322789 0.0049633675 1.7516416e-20)
(-0.67854247 0.0039157911 3.2875577e-20)
(-0.72393671 0.0027508219 2.9662424e-20)
(-0.76717498 0.0014577056 1.2873362e-20)
(-0.80666654 3.1174671e-05 -6.1872777e-20)
(-0.84049326 -0.001520644 -4.4768738e-20)
(-0.86651718 -0.0031620236 1.0897897e-20)
(-0.88254256 -0.0048620934 -7.325067e-20)
(-0.88610808 -0.0065772487 -2.4634854e-20)
(-0.87508238 -0.0082496239 2.4900801e-20)
(-0.84791081 -0.0097989549 6.0595764e-20)
(-0.80340235 -0.011135597 -3.7221805e-20)
(-0.74068029 -0.01227263 -2.3533097e-20)
(-0.65944757 -0.013260474 6.1411468e-20)
(-0.55914001 -0.013954608 2.9176535e-20)
(-0.44144376 -0.014284506 2.0974738e-20)
(-0.30709627 -0.014273973 -1.6520875e-20)
(-0.15887957 -0.01380889 4.5340452e-20)
(-0.0010699979 -0.01279633 3.8122524e-20)
(0.15964607 -0.011132815 9.617282e-21)
(0.31423595 -0.0088839732 -2.4787205e-20)
(0.45473256 -0.0062156212 -1.9390227e-20)
(0.57415853 -0.0034659534 -7.1541486e-20)
(0.67189707 -0.00097952599 -1.0451622e-20)
(0.74776547 0.0011013187 8.7559953e-20)
(0.80744024 0.0025429578 -6.75245e-20)
(-4.302358e-05 0.0010051895 1.1417148e-22)
(-0.00017229672 0.0030887737 -1.1233256e-20)
(-0.00036532832 0.0053600807 9.9981701e-21)
(-0.00064437028 0.0078292979 -2.7269216e-21)
(-0.0010294376 0.010505634 -5.6343928e-21)
(-0.0015476533 0.01339614 1.0770428e-20)
(-0.0022320456 0.016504952 -1.1234769e-20)
(-0.0031221053 0.019832274 9.8947301e-22)
(-0.00426487 0.023373185 -3.0917663e-21)
(-0.0057159148 0.02711626 -5.1870881e-23)
(-0.0075402625 0.031042075 -1.0347833e-20)
(-0.0098131353 0.035121625 1.6472329e-20)
(-0.012620449 0.039314805 1.3630444e-21)
(-0.016058884 0.043569114 -1.3484689e-20)
(-0.020235362 0.047818875 4.1537031e-21)
(-0.025265743 0.05198531 2.6446594e-21)
(-0.03127257 0.055977926 -1.6817866e-20)
(-0.038381781 0.059697704 5.4963082e-20)
(-0.046718438 0.063042541 -3.451845e-20)
(-0.056401788 0.065915166 4.1461513e-20)
(-0.067540203 0.068233309 -6.1422878e-20)
(-0.080226787 0.0699411 1.5096551e-20)
(-0.094538131 0.071019577 6.2378628e-21)
(-0.11054083 0.071493196 -2.0384217e-20)
(-0.12828445 0.071429516 7.3430454e-20)
(-0.14778921 0.070925669 1.0917001e-20)
(-0.16912629 0.070072035 -5.6818133e-20)
(-0.19237309 0.068946128 6.3631881e-20)
(-0.21755907 0.067618033 -8.8220059e-21)
(-0.24475076 0.066134869 -8.5665984e-20)
(-0.27400952 0.064522469 8.9364502e-21)
(-0.3053823 0.062791996 6.8016042e-20)
(-0.33889975 0.060944099 1.6362789e-21)
(-0.37456699 0.058971346 -5.0777556e-20)
(-0.41235329 0.056858076 5.6764875e-20)
(-0.45217812 0.054578656 -2.5542927e-20)
(-0.49389294 0.052095215 3.0237489e-20)
(-0.53725616 0.049355603 9.5892226e-20)
(-0.58190014 0.046292101 2.137763e-20)
(-0.62729123 0.042821936 8.3554337e-20)
(-0.67268453 0.038849905 -1.0698404e-19)
(-0.7170723 0.034276398 -9.7754373e-20)
(-0.75913839 0.029011034 -1.6491091e-20)
(-0.79724795 0.022990839 1.3236144e-19)
(-0.82943293 0.016203337 -6.174113e-20)
(-0.85354089 0.0087075346 -2.116978e-20)
(-0.86719249 0.00058253751 1.1399168e-20)
(-0.86806933 -0.0079884151 3.4971112e-20)
(-0.85410355 -0.016691406 -1.7021266e-20)
(-0.82359594 -0.025247882 3.062161e-20)
(-0.77536409 -0.033434216 1.8419146e-19)
(-0.70871357 -0.04109915 8.8226277e-21)
(-0.62345529 -0.048171162 -3.9931013e-20)
(-0.51981491 -0.054340886 8.9367164e-20)
(-0.39851031 -0.059428635 -7.6895101e-20)
(-0.26106377 -0.06327643 2.2027844e-19)
(-0.11028367 -0.065308991 6.3308168e-20)
(0.049309868 -0.064897903 -1.8025397e-19)
(0.2108237 -0.06134274 3.0651489e-20)
(0.36499203 -0.054630145 3.5185248e-20)
(0.50385612 -0.045478327 7.0601652e-21)
(0.62065236 -0.035387565 -9.3419852e-20)
(0.71515056 -0.025842858 1.8160167e-19)
(0.78741515 -0.017730619 5.4165418e-20)
(0.8433032 -0.01145651 8.9888337e-20)
(-0.00012582474 0.0017966419 6.28832e-21)
(-0.00042442794 0.005521699 -3.384416e-21)
(-0.00079968775 0.0095834631 -9.0020337e-22)
(-0.0012733284 0.014000808 8.5404071e-22)
(-0.0018653644 0.018790684 -4.1392321e-21)
(-0.0026022953 0.023966341 -3.0742383e-22)
(-0.0035160692 0.029535953 -3.9364109e-21)
(-0.0046445586 0.035500833 -4.2440441e-21)
(-0.0060325321 0.041853293 3.4732616e-20)
(-0.0077325342 0.048574208 -3.1048681e-20)
(-0.009805699 0.055630313 1.4880837e-20)
(-0.012322423 0.062971361 2.1838883e-20)
(-0.015362816 0.07052734 -4.3403584e-20)
(-0.019016787 0.078206062 -5.3829873e-21)
(-0.023383608 0.085891617 2.0855584e-20)
(-0.028570813 0.093444304 1.4380604e-20)
(-0.034692259 0.10070287 -1.6736183e-20)
(-0.041865291 0.10748993 6.0805447e-20)
(-0.050207057 0.11362143 -3.6094987e-20)
(-0.05983021 0.11892064 1.7910201e-20)
(-0.070838527 0.12323633 -6.0668591e-20)
(-0.083323056 0.12646345 -1.5839942e-20)
(-0.097360695 0.12856264 3.3172252e-20)
(-0.11301984 0.12957287 -5.0046648e-20)
(-0.13035819 0.12961166 -1.9704163e-20)
(-0.14939922 0.12885319 2.382841e-20)
(-0.17021243 0.1274655 1.3518631e-19)
(-0.19288316 0.12558784 6.1094049e-20)
(-0.21744115 0.12334903 -3.0724453e-20)
(-0.2439483 0.12083758 3.2622457e-20)
(-0.27246385 0.1181022 -2.0702579e-20)
(-0.30302975 0.11516431 -1.1642783e-19)
(-0.33567031 0.11202571 3.9071287e-20)
(-0.37038241 0.10867303 1.167353e-19)
(-0.40712449 0.10507769 -3.9376762e-20)
(-0.44580226 0.10119278 -5.49767e-20)
(-0.48624933 0.096948694 9.5416159e-20)
(-0.52820107 0.092249195 2.9013451e-20)
(-0.57126059 0.08696901 -5.2119075e-20)
(-0.61485707 0.080953891 -2.1010305e-20)
(-0.6581983 0.074025623 1.004671e-19)
(-0.7002184 0.06599563 -2.8723509e-20)
(-0.73953278 0.05668932 -4.1358003e-20)
(-0.77442187 0.045981896 -1.0964942e-19)
(-0.80284459 0.033841687 2.0817915e-19)
(-0.82257123 0.020362561 -1.3402516e-19)
(-0.83124275 0.005733075 -3.3443393e-20)
(-0.82659313 -0.0097103705 -1.3297071e-19)
(-0.80660859 -0.025478027 -1.5945161e-19)
(-0.76978125 -0.041035226 -8.1105496e-21)
(-0.7152126 -0.055929377 3.4255565e-20)
(-0.64251636 -0.069887664 -2.5387391e-19)
(-0.55174036 -0.082750992 -1.0916069e-19)
(-0.44329339 -0.094190188 -1.132946e-19)
(-0.3180614 -0.10382322 -3.7463488e-20)
(-0.17792942 -0.11118408 -2.9435509e-19)
(-0.025831903 -0.11537836 1.1768026e-19)
(0.13352694 -0.11520525 -3.629128e-20)
(0.29302082 -0.109355 -2.9954064e-19)
(0.4430735 -0.097778918 -1.1942892e-19)
(0.57583898 -0.08185114 1.4244343e-19)
(0.68533441 -0.064262281 4.8959505e-19)
(0.77175436 -0.047669194 -1.5616593e-19)
(0.83586769 -0.033640821 -2.5094793e-19)
(0.88343399 -0.0225783 -1.0726982e-19)
(-0.00024989862 0.0025406451 -2.0982161e-20)
(-0.00080225703 0.007810387 2.4280277e-20)
(-0.0014505803 0.013559007 -8.7816843e-21)
(-0.0022158104 0.019814262 9.5516259e-22)
(-0.0031179617 0.0266012 -1.8886793e-20)
(-0.0041826007 0.033939935 1.9555008e-20)
(-0.005440058 0.041843695 -2.9681444e-20)
(-0.0069257818 0.050316324 1.3981742e-20)
(-0.0086811379 0.059349283 5.3207204e-20)
(-0.010754123 0.068918198 -1.2815543e-20)
(-0.013200026 0.078979017 -4.8880853e-20)
(-0.016081978 0.0894639 1.4957357e-20)
(-0.01947133 0.10027713 1.0050401e-21)
(-0.023447741 0.11129148 -3.934749e-20)
(-0.028098868 0.12234563 1.2354516e-19)
(-0.033519536 0.13324364 -7.6159972e-20)
(-0.039810261 0.14375751 -7.2865255e-22)
(-0.04707508 0.1536342 4.2535631e-20)
(-0.055418727 0.16260841 -1.0862396e-19)
(-0.064943322 0.17042197 5.1589787e-20)
(-0.075745014 0.17684956 7.7433928e-20)
(-0.087911002 0.18172871 3.1528657e-20)
(-0.10151808 0.18498896 -1.5718533e-19)
(-0.11663684 0.18667227 -8.2627978e-20)
(-0.13333532 0.18693557 5.3876948e-20)
(-0.151645 0.18602493 -3.1503212e-20)
(-0.17163113 0.1841933 1.1896888e-19)
(-0.19338974 0.18164051 -3.4305055e-20)
(-0.21695552 0.17855451 9.301071e-20)
(-0.24237993 0.17507074 -5.28975e-20)
(-0.26971982 0.17126405 3.2741098e-20)
(-0.29900941 0.16716787 -1.2105462e-19)
(-0.33026337 0.16278547 1.7546224e-20)
(-0.36346606 0.15809712 -9.2506536e-20)
(-0.39855984 0.15306046 8.9168905e-20)
(-0.43542989 0.14760611 2.8371631e-20)
(-0.47388332 0.14163141 -3.5970123e-19)
(-0.51362191 0.13499434 -9.4028679e-20)
(-0.55420626 0.12750971 7.8514699e-20)
(-0.5950124 0.11894929 -7.7401664e-20)
(-0.63518304 0.10904946 1.9749402e-20)
(-0.67357559 0.097531029 1.2523985e-19)
(-0.70872025 0.08413497 -5.9147809e-21)
(-0.73880411 0.068679001 -4.1665948e-20)
(-0.76174085 0.051130828 2.0508386e-20)
(-0.77530901 0.031649576 -9.5545142e-21)
(-0.77722505 0.010524799 -2.8875094e-20)
(-0.76536556 -0.011721344 4.5127593e-19)
(-0.73798693 -0.034357343 -5.0220619e-20)
(-0.69390032 -0.056603903 4.6709337e-20)
(-0.63253283 -0.077822804 -4.4062734e-19)
(-0.55378795 -0.097639857 2.4318926e-19)
(-0.45792621 -0.11583953 2.008654e-19)
(-0.34556562 -0.13203719 1.9352406e-19)
(-0.21788814 -0.14571991 1.8818682e-19)
(-0.077043357 -0.15618773 2.9840739e-19)
(0.073828628 -0.16220201 -6.008055e-19)
(0.22983333 -0.16198498 3.7277971e-19)
(0.38353128 -0.1535655 5.6961807e-19)
(0.52500745 -0.13690013 -4.1874775e-19)
(0.64682078 -0.11421801 -1.340144e-19)
(0.74431153 -0.08938114 -1.1704064e-19)
(0.81837733 -0.066155311 5.9258158e-19)
(0.87097461 -0.046643002 4.343242e-19)
(0.90775011 -0.031464191 -1.8979662e-20)
(-0.00040913171 0.0032087909 1.4702966e-20)
(-0.0012873113 0.0098680996 -3.5437158e-20)
(-0.0022863619 0.017137067 2.8900817e-20)
(-0.0034262925 0.025052502 -1.0926778e-20)
(-0.0047271694 0.033647949 -3.9494251e-21)
(-0.0062134333 0.042951232 3.4011312e-20)
(-0.0079134202 0.05298198 -8.624634e-21)
(-0.0098595585 0.063748545 -1.8330749e-20)
(-0.012088946 0.07524424 -1.4093193e-21)
(-0.014643842 0.087442994 -1.1987612e-20)
(-0.017572123 0.10029444 1.6820779e-20)
(-0.02092766 0.11371858 -1.1723933e-20)
(-0.024770572 0.12760037 -4.3328724e-20)
(-0.029167293 0.14178469 -1.2614177e-21)
(-0.034190379 0.15607248 3.3403809e-20)
(-0.039917973 0.17021919 2.3781157e-20)
(-0.046432882 0.18393697 -2.0580414e-20)
(-0.053821216 0.19690236 1.9986641e-21)
(-0.062170637 0.20877129 4.0716561e-20)
(-0.071568346 0.21920268 4.9976887e-20)
(-0.08209909 0.22789094 -5.7516814e-20)
(-0.093843455 0.23460493 -5.8369948e-20)
(-0.1068768 0.23922758 7.9209971e-20)
(-0.12127183 0.24178606 -9.8749872e-20)
(-0.1371061 0.24245969 -1.7217465e-19)
(-0.15442764 0.24155578 4.0853239e-19)
(-0.17329508 0.23942092 -2.2601902e-19)
(-0.19381254 0.23631872 3.3580172e-19)
(-0.21602957 0.23249074 -4.2096647e-19)
(-0.23998155 0.22812711 4.7088528e-19)
(-0.26572238 0.22333549 -4.8782633e-19)
(-0.29327687 0.21816416 8.248199e-20)
(-0.32264714 0.21261886 2.8452401e-19)
(-0.35380169 0.20667317 -1.6085574e-19)
(-0.38666263 0.20026988 5.0479385e-20)
(-0.42108936 0.1933159 1.494596e-20)
(-0.45685647 0.18567388 1.8237699e-19)
(-0.49362472 0.1771541 5.932987e-20)
(-0.53090425 0.1675094 5.9551915e-20)
(-0.56800999 0.15643544 5.9639176e-20)
(-0.60401175 0.14358125 -3.0435849e-19)
(-0.63768572 0.12857599 1.3363656e-19)
(-0.66748104 0.1110805 2.0748722e-20)
(-0.69152288 0.090872308 -2.4412005e-19)
(-0.70775381 0.067949896 -1.230208e-19)
(-0.71404032 0.042559548 6.0802479e-20)
(-0.70829993 0.015116231 2.181552e-19)
(-0.68867876 -0.013663282 -9.546316e-20)
(-0.65371236 -0.042822793 2.7554252e-19)
(-0.60245984 -0.071343754 1.498528e-19)
(-0.53459434 -0.098414727 2.0806437e-19)
(-0.45025762 -0.12359918 5.5847011e-19)
(-0.34990367 -0.14665738 -4.3539504e-19)
(-0.2344051 -0.16714377 1.4158312e-19)
(-0.10534427 -0.18438312 -2.4857995e-19)
(0.034690895 -0.19747349 -2.3788633e-19)
(0.18222042 -0.20490074 -9.344723e-20)
(0.33210864 -0.2042953 -8.6577266e-19)
(0.47650836 -0.19299547 -2.3475245e-19)
(0.60533334 -0.17108994 5.3843082e-19)
(0.71222657 -0.14184013 2.0333393e-19)
(0.79409754 -0.11026205 -1.5234133e-19)
(0.85333053 -0.081132323 -3.1441027e-19)
(0.89319376 -0.056942181 -4.8786692e-19)
(0.91979436 -0.038547505 3.7105184e-20)
(-0.00059419391 0.0037738509 4.4537546e-20)
(-0.0018513629 0.011611589 1.1384879e-20)
(-0.0032586008 0.020173798 -9.2250469e-21)
(-0.0048349844 0.0295064 -3.4073798e-20)
(-0.0066007363 0.039651785 1.8679482e-20)
(-0.0085791304 0.050646397 -2.6908212e-20)
(-0.010796345 0.062517836 1.1654612e-20)
(-0.013281482 0.075281317 2.7791328e-21)
(-0.016066881 0.088935328 -1.5756297e-20)
(-0.019188337 0.10345653 -3.4023865e-20)
(-0.022685314 0.11879393 -1.7082618e-21)
(-0.026601076 0.1348624 5.6245534e-20)
(-0.030982773 0.15153593 -7.8094108e-20)
(-0.035881416 0.16864108 1.2668395e-19)
(-0.04135175 0.18595152 -3.3288003e-20)
(-0.047451995 0.20318487 7.1163889e-20)
(-0.054243454 0.22000365 -8.6700666e-20)
(-0.061790027 0.23602241 5.6787861e-20)
(-0.070157659 0.25082341 -9.065359e-21)
(-0.079413841 0.26398294 -3.7144786e-20)
(-0.089627311 0.27510905 9.1279032e-20)
(-0.10086802 0.28388882 -1.3035643e-19)
(-0.11320728 0.29013893 1.4342301e-19)
(-0.12671909 0.29384797 2.4835488e-20)
(-0.14148585 0.29519446 -2.4728448e-19)
(-0.15758329 0.29452715 2.5239258e-19)
(-0.17506347 0.292281 -1.6563465e-19)
(-0.19402762 0.28880699 1.8712661e-19)
(-0.21455537 0.28438884 1.7654543e-20)
(-0.23666577 0.27927786 1.1013955e-20)
(-0.26040504 0.27362512 -7.5701861e-20)
(-0.28578882 0.26749801 4.8909649e-21)
(-0.31280437 0.26090688 -2.8749311e-19)
(-0.34140181 0.25381862 7.839105e-20)
(-0.37148006 0.24616048 2.3459682e-19)
(-0.40286932 0.23781441 -1.1006345e-19)
(-0.4353077 0.22860704 9.1005088e-20)
(-0.46841144 0.21829971 -9.1417461e-20)
(-0.50163714 0.20658204 -5.1127584e-19)
(-0.53423643 0.19307229 2.8346843e-19)
(-0.56520776 0.1773316 6.9358827e-20)
(-0.59325584 0.15890129 -3.9328647e-19)
(-0.61677429 0.13737468 2.328474e-20)
(-0.63389018 0.11251606 4.829029e-20)
(-0.64266939 0.08438529 5.1687724e-19)
(-0.64118123 0.053329645 1.1915617e-19)
(-0.62764692 0.019895329 -1.8620717e-19)
(-0.60048854 -0.015042758 -1.8951322e-19)
(-0.55837465 -0.050338582 -2.6838147e-19)
(-0.50041941 -0.084733885 -3.3071877e-19)
(-0.42644991 -0.11721922 -2.0213533e-19)
(-0.33685044 -0.1472838 -3.1655917e-19)
(-0.23233426 -0.17466348 1.0926899e-19)
(-0.11416043 -0.19883564 -6.7786126e-19)
(0.015520665 -0.21897633 -4.5857926e-20)
(0.15349815 -0.23404794 -3.9857721e-20)
(0.2958439 -0.24234605 -2.1945605e-20)
(0.4370831 -0.24093947 9.3362094e-19)
(0.56889276 -0.22649748 3.6851346e-19)
(0.68160512 -0.1993837 -5.7018819e-19)
(0.77053575 -0.16404379 -8.2008306e-19)
(0.83467757 -0.12659643 -3.6710119e-19)
(0.87846118 -0.092663593 -1.1910889e-19)
(0.90639981 -0.064910401 6.9426782e-19)
(0.92500237 -0.044313574 -1.7431617e-19)
(-0.00079267548 0.0042118779 -8.3569648e-21)
(-0.0024575669 0.012967152 -1.918985e-20)
(-0.0043036263 0.022541498 4.6339976e-20)
(-0.0063500859 0.032989611 -1.7253364e-21)
(-0.0086171314 0.04436299 -2.2595502e-20)
(-0.011127027 0.056707513 -9.9681472e-21)
(-0.013903889 0.070060314 -7.3690364e-21)
(-0.016973532 0.084445973 1.45443e-20)
(-0.020363484 0.099871784 -7.5433519e-20)
(-0.024102929 0.11632213 5.706146e-20)
(-0.028222607 0.13375188 -2.765226e-21)
(-0.032754665 0.15207902 -3.4752133e-20)
(-0.03773249 0.17117656 1.305763e-19)
(-0.043190519 0.19086444 -1.3081274e-19)
(-0.04916407 0.21090217 1.7543269e-20)
(-0.055689249 0.23098351 1.0926907e-19)
(-0.062803005 0.25073523 -1.0362233e-19)
(-0.070543425 0.26972219 3.6586688e-20)
(-0.078950404 0.287462 -7.1798822e-20)
(-0.088066732 0.3034518 9.3218416e-20)
(-0.097939755 0.31720917 1.7716616e-19)
(-0.10862339 0.32832614 -1.7760543e-19)
(-0.12018013 0.33653066 -2.6325637e-19)
(-0.13268253 0.34174318 5.1365834e-19)
(-0.14621556 0.34410942 -4.1604303e-19)
(-0.16087669 0.3439893 2.4346988e-19)
(-0.17673049 0.34188496 -6.3267251e-20)
(-0.19386415 0.33827123 1.5013949e-19)
(-0.21238343 0.3334737 -1.546355e-19)
(-0.23231635 0.32779436 -2.0881763e-19)
(-0.25368409 0.32144336 1.3950757e-19)
(-0.27649679 0.31451665 2.3123622e-19)
(-0.30072506 0.30703336 -2.0546227e-20)
(-0.32629898 0.29895493 -8.6002857e-21)
(-0.35309216 0.2901927 -1.5034411e-19)
(-0.38090337 0.28060281 6.5299441e-20)
(-0.40943261 0.26997529 2.3993149e-19)
(-0.4382506 0.25802229 1.208177e-19)
(-0.46676042 0.24436968 -1.8567897e-19)
(-0.49415307 0.22855849 1.4722618e-19)
(-0.51936473 0.21006524 -1.2494392e-19)
(-0.54105019 0.1883526 4.2073487e-20)
(-0.55759011 0.16296827 1.5926977e-19)
(-0.56719807 0.13369977 -3.8068212e-19)
(-0.56816191 0.10069846 -2.2601428e-19)
(-0.5588651 0.064406752 -1.4629064e-19)
(-0.53785629 0.025458429 4.5838361e-19)
(-0.50370153 -0.015211335 2.9614185e-19)
(-0.45494518 -0.056314179 3.4658082e-19)
(-0.39065164 -0.096291835 6.0412097e-19)
(-0.31087459 -0.13384907 -2.0923989e-19)
(-0.21631215 -0.16837115 4.3856501e-20)
(-0.10801376 -0.19957104 3.5283897e-19)
(0.012256629 -0.22682313 1.044149e-18)
(0.14164672 -0.24914717 6.9555981e-19)
(0.27622396 -0.26545463 2.770651e-19)
(0.41160142 -0.27395995 8.174916e-19)
(0.54176073 -0.27122896 -5.6032533e-19)
(0.65802464 -0.25337925 5.9095903e-20)
(0.75194791 -0.22127977 9.2094684e-19)
(0.82097942 -0.18064338 6.2551731e-19)
(0.8668827 -0.13851511 2.8693261e-20)
(0.8962748 -0.101111 -9.9805017e-19)
(0.91444495 -0.071020799 1.0592298e-19)
(0.92776951 -0.049106513 -1.5002598e-19)
(-0.00099024457 0.0045036121 -3.2766771e-20)
(-0.0030616031 0.01387536 1.592748e-20)
(-0.0053455535 0.024136543 -2.1526399e-20)
(-0.0078617946 0.035350105 -1.2242309e-20)
(-0.010630661 0.047576575 3.4191943e-20)
(-0.013673687 0.060871807 3.1950234e-20)
(-0.017013252 0.075283791 -3.2828027e-20)
(-0.020672259 0.090848805 3.9551651e-21)
(-0.024673857 0.10758652 9.1796631e-22)
(-0.029041074 0.12549409 6.5404092e-20)
(-0.033796393 0.14453913 -7.1983056e-21)
(-0.038961271 0.16465152 -1.327669e-19)
(-0.044555648 0.18571435 1.0662184e-19)
(-0.050597485 0.20755419 -3.696613e-21)
(-0.057102425 0.22993175 -7.230608e-20)
(-0.064083682 0.25253391 -6.2726422e-21)
(-0.071552338 0.27496929 1.6091592e-20)
(-0.079518219 0.29677002 7.3247049e-20)
(-0.087991571 0.31740309 -1.3567214e-19)
(-0.096985716 0.33629508 2.4143778e-19)
(-0.10652069 0.35287333 -5.2777422e-20)
(-0.11662764 0.36662407 3.9251867e-20)
(-0.12735335 0.37716343 -3.27699e-20)
(-0.13876347 0.38430928 1.3459558e-21)
(-0.15094332 0.3881334 -1.9885254e-19)
(-0.16399687 0.38896835 -2.004252e-19)
(-0.17802764 0.38734904 4.004665e-19)
(-0.19310563 0.38386958 6.715795e-20)
(-0.20933508 0.3789705 -2.3568039e-19)
(-0.22678859 0.3729609 -8.4231338e-20)
(-0.24545958 0.36611596 -1.9129658e-19)
(-0.26534769 0.35858299 2.1710217e-19)
(-0.28640594 0.35039775 9.5375468e-20)
(-0.30854273 0.34151862 -2.226328e-19)
(-0.33160531 0.33184122 9.4067071e-20)
(-0.35536006 0.32119626 4.4499509e-20)
(-0.37946822 0.30933784 -1.3244509e-19)
(-0.40345483 0.29592945 -3.4771119e-19)
(-0.42667085 0.28053461 -1.0594063e-19)
(-0.44825189 0.26262045 7.0934241e-20)
(-0.4670852 0.24158652 1.6875587e-19)
(-0.48180213 0.21683355 1.745234e-19)
(-0.49081939 0.18789373 1.9293822e-19)
(-0.49252243 0.15461881 4.0388709e-19)
(-0.4854783 0.11727779 -1.1421715e-20)
(-0.46843084 0.076369263 1.6916665e-19)
(-0.44015361 0.032514927 -9.1570374e-19)
(-0.39912087 -0.013417488 -2.5305202e-19)
(-0.34365414 -0.059996446 -2.8817089e-19)
(-0.27303401 -0.10524827 -7.9903493e-19)
(-0.18773 -0.14752052 9.3637803e-19)
(-0.088779773 -0.18610515 -2.1003521e-19)
(0.022420593 -0.22065892 -6.802653e-19)
(0.14355316 -0.25041725 -8.4413655e-19)
(0.2710486 -0.27425112 -1.0842341e-19)
(0.4003359 -0.29110215 2.7671926e-19)
(0.52669631 -0.29914267 4.5075151e-19)
(0.64339497 -0.29454706 -1.9270312e-19)
(0.74172562 -0.27321652 3.4844437e-19)
(0.81492738 -0.23668121 -2.8906009e-19)
(0.86338272 -0.19176208 -9.7524311e-20)
(0.89203335 -0.14641558 -2.8643163e-19)
(0.90928579 -0.10699316 1.2460958e-18)
(0.92035922 -0.075747873 4.1239495e-20)
(0.93071251 -0.05321662 4.9130455e-19)
(-0.0011710166 0.0046362431 3.0560414e-20)
(-0.0036149057 0.014296279 5.8826447e-21)
(-0.0063007859 0.02488863 -6.467268e-21)
(-0.0092489933 0.036483577 -3.1804519e-20)
(-0.012480277 0.049150151 3.816992e-20)
(-0.016015823 0.062954232 -3.2440747e-20)
(-0.019876798 0.077955485 -1.5519691e-20)
(-0.024083876 0.094203674 8.3352361e-22)
(-0.028656683 0.11173389 1.3141604e-20)
(-0.033613138 0.13056068 7.488027e-20)
(-0.038968698 0.15067086 -1.2602929e-19)
(-0.044735511 0.17201493 1.5186776e-19)
(-0.050921553 0.19449728 -4.4757832e-20)
(-0.057529787 0.21796511 -6.0999536e-20)
(-0.064557492 0.24219711 9.4037437e-20)
(-0.071995923 0.26689263 -1.8649417e-19)
(-0.079830536 0.2916634 2.2764364e-19)
(-0.088042118 0.31603057 3.6054255e-21)
(-0.096609089 0.33943076 1.3282272e-19)
(-0.10551139 0.36123574 -5.3294547e-19)
(-0.11473595 0.38079013 1.3059155e-19)
(-0.12428365 0.39746989 5.46984e-19)
(-0.13417671 0.41075972 -2.6197343e-19)
(-0.14446501 0.42033937 -3.1648495e-19)
(-0.15522853 0.42615866 8.0601972e-20)
(-0.16657367 0.42847136 4.2623742e-19)
(-0.17862192 0.42779868 -6.5252587e-19)
(-0.19147802 0.42480582 7.2983082e-19)
(-0.2052143 0.42009914 -5.7887749e-19)
(-0.21991849 0.41407257 1.1154719e-19)
(-0.23562095 0.40700267 -1.9230276e-19)
(-0.25228061 0.399095 -2.7516428e-19)
(-0.26984509 0.39042623 1.0914481e-19)
(-0.28819504 0.38096533 2.8410411e-20)
(-0.30714878 0.37059501 4.0775715e-19)
(-0.32643875 0.35912088 -7.9697451e-20)
(-0.34568666 0.3462616 2.0519902e-19)
(-0.36437154 0.33163377 -1.7458345e-19)
(-0.38179327 0.31474228 1.0380314e-19)
(-0.39703723 0.29498722 6.7899714e-20)
(-0.40895441 0.27170414 5.8375992e-20)
(-0.41617731 0.24425493 5.7843082e-20)
(-0.41720163 0.21219363 -3.5309946e-19)
(-0.41063405 0.17547606 -2.7782826e-19)
(-0.39530989 0.13449129 7.7789645e-20)
(-0.37026085 0.089735327 -4.9565922e-20)
(-0.33430597 0.041683254 2.0532245e-19)
(-0.28570187 -0.0089385054 -4.0691144e-19)
(-0.22294156 -0.060479106 -4.7278488e-19)
(-0.14596848 -0.11049874 -1.3743659e-19)
(-0.055757841 -0.15704082 -3.620296e-19)
(0.046423529 -0.19927423 1.1696081e-20)
(0.15891786 -0.23678285 1.7723023e-19)
(0.27885707 -0.26862116 8.6868996e-19)
(0.40204986 -0.29351641 -4.3813708e-19)
(0.52360177 -0.31048168 1.7883834e-19)
(0.63865089 -0.31763277 -5.2604909e-19)
(0.73968021 -0.31083272 8.8889767e-19)
(0.81809297 -0.28606412 -5.1073936e-19)
(0.86959146 -0.245616 1.7591574e-19)
(0.89817318 -0.19787515 -8.6266363e-22)
(0.91172578 -0.15091383 1.3680333e-19)
(0.91969316 -0.11085814 5.0665899e-19)
(0.92615545 -0.079435266 -9.5086287e-19)
(0.93499584 -0.056758562 9.6473896e-19)
(-0.0013189345 0.004605119 -6.7821718e-20)
(-0.0040683711 0.014214635 -3.344217e-20)
(-0.0070845553 0.024769648 5.2530516e-20)
(-0.010388573 0.036346384 -1.3837177e-21)
(-0.014001825 0.049021276 -4.7572304e-20)
(-0.017945569 0.062869605 -2.4902072e-20)
(-0.022240394 0.077962727 5.256429e-20)
(-0.026905634 0.094364787 -8.6445513e-21)
(-0.031958577 0.11212833 1.2217131e-19)
(-0.037413554 0.13128878 -2.3877239e-20)
(-0.04328087 0.1518575 -6.1287582e-22)
(-0.04956561 0.1738133 8.8467841e-20)
(-0.056266361 0.19709218 -2.8493102e-19)
(-0.063373925 0.22157555 1.335701e-19)
(-0.070870163 0.24707709 2.4103854e-19)
(-0.078727187 0.27332926 -2.5906127e-19)
(-0.086907185 0.29997087 3.2193155e-20)
(-0.095363298 0.32653848 -1.8503596e-19)
(-0.10404207 0.35246533 -1.3921031e-19)
(-0.11288786 0.37709298 4.4409114e-19)
(-0.12184979 0.39970138 -3.3849702e-19)
(-0.13089093 0.41956248 4.526114e-19)
(-0.13999899 0.43601885 -5.4066275e-20)
(-0.14919649 0.44858102 2.2418796e-19)
(-0.15854702 0.4570255 -4.9467146e-19)
(-0.16815344 0.46146265 1.1873803e-19)
(-0.1781447 0.4623362 3.0318541e-19)
(-0.18864982 0.46032699 -7.4029284e-19)
(-0.19976944 0.45616521 3.246171e-19)
(-0.2115584 0.45042341 3.5174508e-19)
(-0.22405806 0.4434474 -2.9266736e-19)
(-0.23725831 0.43546627 -3.9133388e-20)
(-0.25106615 0.42658535 1.9873016e-19)
(-0.26534455 0.41679359 -1.1058891e-19)
(-0.27988131 0.40597766 1.7067805e-19)
(-0.29437346 0.39392499 -6.0374694e-19)
(-0.30839961 0.38032312 3.1899302e-19)
(-0.32139003 0.36474541 1.9311863e-19)
(-0.33259277 0.34664341 3.9843848e-19)
(-0.34104727 0.32536097 5.3247069e-20)
(-0.34557822 0.30018643 -4.2995473e-19)
(-0.34483766 0.27046939 1.7336477e-19)
(-0.33742815 0.23582048 2.5602787e-19)
(-0.32216002 0.1963181 3.9724248e-20)
(-0.29807984 0.15244976 -2.4882475e-19)
(-0.26436254 0.10466246 -2.1818209e-19)
(-0.21975406 0.053195547 6.6223647e-19)
(-0.16258146 -0.0013154982 3.5016024e-19)
(-0.092164325 -0.056970649 7.6013833e-19)
(-0.0093275166 -0.11095393 2.6725342e-19)
(0.084604658 -0.16110472 1.0405389e-19)
(0.18828248 -0.20654543 7.7633263e-19)
(0.29984505 -0.24669229 3.0791051e-19)
(0.41600416 -0.28032083 -1.0410465e-18)
(0.53213234 -0.30603803 8.4069552e-19)
(0.64348742 -0.32293459 -7.7604701e-19)
(0.74502124 -0.32890302 3.7322226e-19)
(0.82832638 -0.31961891 -1.8012344e-18)
(0.88550237 -0.29161724 -8.9616631e-19)
(0.91549251 -0.24874364 3.5836949e-19)
(0.92614642 -0.19966554 5.5370913e-19)
(0.92758349 -0.15267188 9.1426918e-19)
(0.92915825 -0.11317936 1.5863516e-19)
(0.93284005 -0.082299471 1.2340703e-19)
(0.94073558 -0.059779782 -1.289175e-18)
(-0.0014193545 0.004415069 -1.2227335e-21)
(-0.0043770663 0.013643986 6.2220386e-20)
(-0.0076190646 0.023801042 -7.3390594e-20)
(-0.011167186 0.034966495 -3.5342281e-20)
(-0.015043618 0.047222431 7.0844922e-20)
(-0.019270054 0.060652081 2.2970564e-20)
(-0.023867131 0.075337493 -1.1154545e-19)
(-0.028853797 0.091356834 1.2022611e-19)
(-0.034246342 0.10878065 2.5411689e-20)
(-0.040057297 0.12766704 1.0132847e-19)
(-0.046294116 0.14805535 -2.6984808e-19)
(-0.052957676 0.16995819 -3.3025654e-21)
(-0.060040605 0.19335147 2.4424399e-19)
(-0.067525521 0.21816235 -2.6353443e-19)
(-0.075383293 0.24425508 1.8982546e-19)
(-0.083571553 0.27141528 7.0902101e-20)
(-0.092033807 0.29933379 -1.4940108e-19)
(-0.10069957 0.3275921 1.3616148e-19)
(-0.10948621 0.35565315 1.8328464e-19)
(-0.11830325 0.38286249 -3.9433988e-21)
(-0.12705969 0.40846673 -2.9645135e-19)
(-0.1356748 0.43165624 1.858087e-19)
(-0.14409172 0.45163731 -1.0497055e-19)
(-0.15229203 0.46773294 -5.1465275e-19)
(-0.16030748 0.47949974 -1.7418176e-19)
(-0.16822347 0.48683216 4.7909371e-19)
(-0.17616875 0.49001138 -4.8378514e-20)
(-0.18428851 0.48965657 5.5221973e-19)
(-0.19270739 0.48655962 -3.301553e-19)
(-0.20150154 0.48146013 1.7586786e-19)
(-0.21070302 0.47488666 -2.5731814e-19)
(-0.22028218 0.4671287 -6.3249169e-20)
(-0.23014526 0.45832413 3.2142285e-19)
(-0.24014333 0.44848548 -3.3477472e-19)
(-0.25003285 0.4375026 -4.9520284e-19)
(-0.25947317 0.42514927 5.0294891e-20)
(-0.26799699 0.41108554 5.4636645e-19)
(-0.27498311 0.3948481 -7.0619561e-19)
(-0.27962705 0.3758481 1.5400401e-19)
(-0.28092414 0.35338609 -3.3178559e-19)
(-0.27768335 0.32672129 5.1623966e-20)
(-0.26859097 0.29521291 -5.2428537e-19)
(-0.25237303 0.25854428 -2.522452e-19)
(-0.2279844 0.21692535 -3.1396475e-19)
(-0.19461116 0.17091568 1.2673364e-18)
(-0.15147738 0.12088086 4.138753e-19)
(-0.097339685 0.066879005 -5.5135431e-19)
(-0.031208945 0.0095100903 4.4886075e-19)
(0.046407784 -0.04910484 3.7633659e-19)
(0.13399186 -0.10601773 -4.2590373e-19)
(0.23005798 -0.15909039 -2.2382492e-19)
(0.33323493 -0.20734689 -5.2810107e-19)
(0.44155448 -0.24986893 -2.5776604e-19)
(0.55143218 -0.28510929 8.8318231e-19)
(0.65815188 -0.31161832 4.9792995e-19)
(0.75738301 -0.32846088 8.026407e-20)
(0.84363689 -0.33328075 -3.3929547e-21)
(0.90767037 -0.32174247 4.4643365e-19)
(0.94296682 -0.29147602 -6.3794438e-19)
(0.95263443 -0.24695738 -8.1722856e-19)
(0.9483858 -0.198007 -2.2635154e-19)
(0.94113182 -0.15235214 -1.6919599e-18)
(0.93873773 -0.11430534 -1.3242747e-18)
(0.94065828 -0.084424068 -3.340493e-19)
(0.94756009 -0.062246592 -1.7620896e-19)
(-0.0014608684 0.0040813677 4.1385398e-20)
(-0.0045057954 0.012629816 2.6148793e-20)
(-0.0078430809 0.022059368 -5.4407695e-20)
(-0.011495149 0.03245191 9.3304226e-20)
(-0.015484929 0.043892762 2.3373063e-20)
(-0.01983475 0.056470765 -1.0023752e-19)
(-0.024565782 0.070276491 5.1296373e-22)
(-0.029697417 0.085400293 -6.0127412e-20)
(-0.035246212 0.10192943 1.7971773e-20)
(-0.041224675 0.11994419 -4.0365988e-22)
(-0.047639802 0.13951264 9.8297813e-20)
(-0.054491349 0.16068367 2.2609399e-20)