/*--------------------------------*- C++ -*----------------------------------*\
  =========                 |
  \\      /  F ield         | OpenFOAM: The Open Source CFD Toolbox
   \\    /   O peration     | Website:  https://openfoam.org
    \\  /    A nd           | Version:  13
     \\/     M anipulation  |
\*---------------------------------------------------------------------------*/
FoamFile
{
    format      ascii;
    class       volScalarField;
    location    "37.002228";
    object      k;
}
// * * * * * * * * * * * * * * * * * * * * * * * * * * * * * * * * * * * * * //

dimensions      [0 2 -2 0 0 0 0];

internalField   nonuniform List<scalar> 
17140
(
7.7251568e-12
2.4275121e-10
1.9850516e-09
8.5369041e-09
2.6270315e-08
6.6291408e-08
1.4700116e-07
2.9792452e-07
5.6536727e-07
1.0207099e-06
1.7724953e-06
2.983953e-06
4.8982835e-06
7.8749644e-06
1.2441632e-05
1.9367831e-05
2.976922e-05
4.5253759e-05
6.8124923e-05
0.00010166084
0.00015049141
0.00022109594
0.00032243649
0.00046671789
0.00067020571
0.00095390726
0.0013436827
0.001868963
0.002558773
0.0034336142
0.0044931592
0.0057042028
0.0069993099
0.0082946673
0.0095190987
0.010633146
0.011628474
0.012516381
0.01331688
0.014052352
0.014745094
0.015416839
0.016089109
0.016784063
0.017524964
0.018335064
0.019237918
0.020259553
0.021427757
0.022772248
0.024325023
0.026119715
0.028188058
0.030551292
0.033218544
0.036199944
0.039500801
0.04304546
0.046570445
0.04962428
0.051864764
0.054315393
0.059964011
0.06885605
0.062431121
7.7517883e-12
2.4358808e-10
1.9918999e-09
8.5663988e-09
2.6361259e-08
6.6521445e-08
1.4751266e-07
2.9896435e-07
5.6734726e-07
1.0242978e-06
1.7787505e-06
2.9945282e-06
4.9157207e-06
7.9031288e-06
1.2486341e-05
1.9437764e-05
2.9877221e-05
4.5418679e-05
6.8374214e-05
0.00010203412
0.00015104533
0.00022191049
0.000323623
0.00046842826
0.00067264164
0.0009573263
0.0013483943
0.0018753031
0.0025670392
0.0034439469
0.0045053782
0.0057176776
0.0070130012
0.0083074065
0.0095299388
0.010641516
0.011634106
0.012519179
0.013316743
0.014049098
0.014738412
0.015406261
0.016074001
0.016763639
0.017498288
0.018301092
0.019195659
0.020208298
0.02136738
0.022703874
0.024252292
0.026051226
0.028142106
0.030564056
0.033363022
0.036600163
0.040355134
0.044625972
0.049175897
0.053298285
0.056152882
0.058327379
0.061251738
0.064370437
0.051138177
7.7261281e-12
2.4278173e-10
1.9853061e-09
8.538045e-09
2.6274035e-08
6.6301456e-08
1.470252e-07
2.9797741e-07
5.6547659e-07
1.0209252e-06
1.7729035e-06
2.9847031e-06
4.8996262e-06
7.8773143e-06
1.2445664e-05
1.9374626e-05
2.9780487e-05
4.5272151e-05
6.8154494e-05
0.00010170765
0.0001505643
0.00022120741
0.00032260339
0.00046696149
0.00067054986
0.00095437259
0.001344273
0.0018696383
0.0025594021
0.003433903
0.0044925664
0.0057018907
0.0069942104
0.0082856997
0.00950542
0.010614242
0.011604065
0.012486266
0.013280757
0.01400973
0.014695203
0.015358589
0.016021071
0.016704468
0.017431674
0.01822566
0.019110024
0.020111279
0.021258374
0.022583665
0.024124591
0.025925599
0.028039233
0.030525883
0.033470027
0.036993676
0.041261437
0.046366367
0.052114837
0.057753874
0.061268777
0.062583593
0.06236675
0.060095106
0.045947194
7.6435956e-12
2.4018826e-10
1.9640983e-09
8.4468415e-09
2.5993401e-08
6.5593395e-08
1.4545539e-07
2.9479671e-07
5.5944253e-07
1.0100355e-06
1.7540014e-06
2.9528979e-06
4.8474472e-06
7.7934831e-06
1.2313324e-05
1.9168807e-05
2.9464489e-05
4.4792441e-05
6.7433551e-05
0.00010063406
0.00014897927
0.00021888669
0.00031923399
0.00046211295
0.00066364185
0.00094464448
0.0013307684
0.00185123
0.0025348957
0.0034022603
0.0044532374
0.0056551142
0.0069410178
0.0082274962
0.009443421
0.010549169
0.011536164
0.01241545
0.013206732
0.013932042
0.014613247
0.015271584
0.015928047
0.016604234
0.017322734
0.018106254
0.01897829
0.019965418
0.021097079
0.022407011
0.02393578
0.025734117
0.027866254
0.030414919
0.033503145
0.037328123
0.042134793
0.048134369
0.055192317
0.062616542
0.067171501
0.068197585
0.064919972
0.060540936
0.04830876
7.5021467e-12
2.3574344e-10
1.9277517e-09
8.2905318e-09
2.5512416e-08
6.4379747e-08
1.427644e-07
2.8934364e-07
5.49096e-07
9.9135961e-07
1.7215778e-06
2.8983289e-06
4.7579e-06
7.6495769e-06
1.2086081e-05
1.881528e-05
2.8921535e-05
4.3967913e-05
6.6193969e-05
9.8787537e-05
0.00014625223
0.00021489288
0.00031343443
0.00045376694
0.00065175219
0.00092790704
0.0013075495
0.001819616
0.0024928834
0.003348159
0.0043862644
0.0055759349
0.0068517482
0.0081309251
0.0093419528
0.010444249
0.011428331
0.012304648
0.013092564
0.013813913
0.014490395
0.015143062
0.015792702
0.016460649
0.017169085
0.017940346
0.018797688
0.019767559
0.020879702
0.022169102
0.023679407
0.02546757
0.027609393
0.030210413
0.033434556
0.037539817
0.042872273
0.049754863
0.05810351
0.067421607
0.073679584
0.075281694
0.070434752
0.064747773
0.055789892
7.3013286e-12
2.2943305e-10
1.8761497e-09
8.068614e-09
2.4829531e-08
6.2656599e-08
1.3894354e-07
2.8160057e-07
5.3440351e-07
9.648371e-07
1.6755274e-06
2.8208184e-06
4.6306922e-06
7.4451239e-06
1.1763187e-05
1.8312875e-05
2.8149813e-05
4.2795793e-05
6.4431522e-05
9.6161666e-05
0.00014237351
0.00020921135
0.00030518257
0.00044188977
0.00063482919
0.00090408028
0.0012744913
0.0017745992
0.0024330545
0.0032711148
0.0042909177
0.0054633167
0.0067250454
0.0079943625
0.0091992155
0.010297591
0.011278636
0.012151904
0.012936282
0.013653347
0.014324617
0.014970948
0.015612901
0.016271496
0.016968403
0.01772545
0.018565483
0.01951457
0.020602496
0.021865233
0.023349261
0.025117214
0.027255992
0.029892891
0.033227478
0.037568947
0.043345754
0.05099911
0.06048094
0.071518367
0.079840514
0.082720506
0.078602127
0.073305402
0.061514355
7.0423411e-12
2.2129478e-10
1.8096007e-09
7.7824142e-09
2.3948825e-08
6.0434242e-08
1.3401563e-07
2.7161372e-07
5.154527e-07
9.30626e-07
1.6161244e-06
2.720827e-06
4.4665785e-06
7.1813346e-06
1.1346546e-05
1.7664547e-05
2.715384e-05
4.1282889e-05
6.2156352e-05
9.2771365e-05
0.00013736475
0.00020187303
0.00029452176
0.0004265408
0.00061295147
0.00087326333
0.001231709
0.0017162952
0.0023554867
0.0031710978
0.0041669567
0.0053166975
0.0065599638
0.00781651
0.0090136609
0.010107508
0.011085328
0.01195544
0.012736082
0.013448509
0.014114034
0.014753306
0.015386633
0.016034663
0.016718458
0.017459169
0.018279038
0.019203472
0.020261983
0.02149122
0.022940109
0.024676241
0.026797505
0.029450004
0.032861314
0.037378504
0.043450231
0.051539881
0.06160452
0.073758379
0.084077775
0.088540411
0.086090001
0.080045812
0.061642909
6.7281426e-12
2.1142158e-10
1.7288647e-09
7.4352004e-09
2.2880357e-08
5.7738055e-08
1.2803693e-07
2.5949708e-07
4.9245983e-07
8.8911658e-07
1.5440461e-06
2.5994945e-06
4.2674281e-06
6.8612104e-06
1.0840894e-05
1.6877648e-05
2.5944882e-05
3.9446258e-05
5.9393986e-05
8.8654424e-05
0.00013128127
0.00019295793
0.00028156624
0.00040788047
0.0005863399
0.00083575203
0.0011795842
0.0016451689
0.002260698
0.0030486023
0.004014718
0.0051360911
0.006356072
0.0075964865
0.0087840658
0.0098725745
0.010846883
0.011713685
0.012490362
0.013197757
0.01385695
0.014488364
0.015112038
0.015748186
0.016417144
0.017139243
0.017935901
0.018831577
0.019855213
0.0210439
0.02244866
0.024142055
0.026233332
0.028881816
0.032333233
0.036949259
0.043155167
0.051342681
0.061210085
0.073568237
0.084694372
0.090108678
0.0881463
0.080241184
0.052656076
6.3634981e-12
1.9996317e-10
1.6351652e-09
7.0322354e-09
2.1640324e-08
5.4608913e-08
1.2109807e-07
2.4543429e-07
4.6577334e-07
8.4093782e-07
1.4603845e-06
2.4586584e-06
4.0362557e-06
6.4895945e-06
1.0253874e-05
1.5964059e-05
2.4541161e-05
3.7313515e-05
5.618582e-05
8.3872249e-05
0.00012421322
0.000182597
0.00026650389
0.00038617471
0.0005553644
0.00079204978
0.0011187816
0.0015620614
0.0021496889
0.0029047098
0.003835204
0.004922198
0.0061135723
0.007333938
0.00850962
0.0095916917
0.010562052
0.011425319
0.012197752
0.01289967
0.013551875
0.014174547
0.014787422
0.01541024
0.016062512
0.016763586
0.017533864
0.018396619
0.019380054
0.020521732
0.021874892
0.02351949
0.025574777
0.028206801
0.031668034
0.036294682
0.042354772
0.049945261
0.058161148
0.068791356
0.079049684
0.083879867
0.081267733
0.069452134
0.031521123
5.9549433e-12
1.8712496e-10
1.5301829e-09
6.5807463e-09
2.0250963e-08
5.1102925e-08
1.1332347e-07
2.2967753e-07
4.3587176e-07
7.8695356e-07
1.3666394e-06
2.3008432e-06
3.7772039e-06
6.0731433e-06
9.5959952e-06
1.4940121e-05
2.2967753e-05
3.4922691e-05
5.2588918e-05
7.8509601e-05
0.00011628525
0.00017097168
0.00024959593
0.00036179481
0.00052054473
0.00074287008
0.0010502557
0.0014682047
0.0020239701
0.0027411393
0.0036301643
0.0046765206
0.0058334379
0.0070291715
0.008190036
0.0092641675
0.010229919
0.011089305
0.011857143
0.012553069
0.013197547
0.013810482
0.014411281
0.015019162
0.015652765
0.0163303
0.017071012
0.017896878
0.018835469
0.019925401
0.021224175
0.022823555
0.024847723
0.027465615
0.030916746
0.035419057
0.040756704
0.04633027
0.05051269
0.055678172
0.06194093
0.064193432
0.059462621
0.037320703
0.01178851
5.5106621e-12
1.7316411e-10
1.4160203e-09
6.0897758e-09
1.8740101e-08
4.7290312e-08
1.0486886e-07
2.1254241e-07
4.0335399e-07
7.2824501e-07
1.2646883e-06
2.1292089e-06
3.4954593e-06
5.6201925e-06
8.8804193e-06
1.3826307e-05
2.1256089e-05
3.2321485e-05
4.8674902e-05
7.2672965e-05
0.00010765418
0.00015831067
0.00023117243
0.00033521158
0.00048254313
0.0006891283
0.00097524297
0.0013652177
0.0018855703
0.0025602778
0.0034021633
0.0044014763
0.005517563
0.0066833156
0.0078256885
0.0088898192
0.0098499638
0.01070494
0.011467717
0.012157035
0.01279293
0.013395004
0.013982296
0.014573441
0.015186242
0.015837648
0.016545707
0.017331219
0.018221715
0.019258528
0.020509779
0.022079198
0.024091826
0.026713788
0.030107673
0.034084566
0.037244646
0.037514554
0.034428007
0.029634967
0.027926239
0.027203889
0.021202022
0.010523742
0.0034783069
5.0402442e-12
1.5838194e-10
1.2951415e-09
5.5699202e-09
1.7140346e-08
4.325336e-08
9.5916715e-08
1.9439873e-07
3.6892187e-07
6.6607931e-07
1.1567315e-06
1.94746e-06
3.1971019e-06
5.1405154e-06
8.1225824e-06
1.2646633e-05
1.9443053e-05
2.9565893e-05
4.452791e-05
6.6487557e-05
9.8504622e-05
0.00014488364
0.00021162351
0.00030698324
0.00044214822
0.0006319211
0.00089523772
0.0012550816
0.0017370176
0.0023651817
0.0031546205
0.004100497
0.0051689224
0.0062985105
0.0074177926
0.0084691128
0.0094221635
0.010271913
0.01102898
0.011710927
0.012337225
0.012927133
0.013499294
0.014071703
0.014661339
0.015283957
0.015956477
0.016699021
0.017540248
0.018529219
0.019751858
0.021316683
0.023349222
0.025973645
0.029028021
0.031122168
0.029241331
0.022259726
0.012278922
0.0086474045
0.0076393651
0.0072117575
0.0054685525
0.0027514288
0.0010276428
4.5543183e-12
1.4311246e-10
1.1702778e-09
5.0329274e-09
1.5487851e-08
3.9083302e-08
8.6669341e-08
1.7565657e-07
3.3335361e-07
6.018615e-07
1.0452093e-06
1.7597044e-06
2.8888757e-06
4.6449537e-06
7.339611e-06
1.1427754e-05
1.7569594e-05
2.6718114e-05
4.0241464e-05
6.0092674e-05
8.9042224e-05
0.00013099151
0.00019138542
0.00027773598
0.00040024844
0.00057249142
0.00081194786
0.0011400877
0.0015812867
0.0021595368
0.0028918094
0.0037780954
0.0047917223
0.0058781219
0.0069686282
0.0080033499
0.008947123
0.0097903891
0.010540815
0.011214405
0.011829873
0.01240606
0.012961183
0.013512581
0.01407639
0.014667396
0.015301706
0.015999843
0.016793498
0.01775091
0.01897
0.020558539
0.022620304
0.02503761
0.026522618
0.024255215
0.01625338
0.0071490695
0.0036902431
0.0024046098
0.0019898043
0.0017372463
0.0013009359
0.00075128614
0.00034728148
4.0641131e-12
1.277085e-10
1.0443143e-09
4.4912035e-09
1.3820793e-08
3.4876481e-08
7.7340397e-08
1.5674896e-07
2.9747106e-07
5.3707555e-07
9.3269883e-07
1.5702814e-06
2.5779041e-06
4.1449609e-06
6.5496017e-06
1.0197839e-05
1.5679003e-05
2.3843941e-05
3.5914548e-05
5.3635885e-05
7.9485095e-05
0.00011695395
0.00017092272
0.0002481387
0.000357797
0.00051218084
0.00072723238
0.0010227597
0.0014217088
0.0019475699
0.0026187974
0.0034398757
0.0043915177
0.005426964
0.0064818119
0.0074949202
0.0084262673
0.0092611365
0.010003548
0.010667463
0.011270556
0.011831113
0.012366877
0.012894537
0.013429381
0.013985532
0.014578951
0.01523222
0.015986127
0.016935291
0.018169863
0.019780117
0.021694295
0.022794472
0.020596296
0.012792102
0.0052213632
0.0022158607
0.0011299514
0.00071803569
0.00055976859
0.00044826246
0.00035014009
0.00025258789
0.00016722932
3.5808809e-12
1.1252366e-10
9.201425e-10
3.9571852e-09
1.2177444e-08
3.0729482e-08
6.8144075e-08
1.3811005e-07
2.620982e-07
4.7320926e-07
8.2178412e-07
1.3835419e-06
2.2713312e-06
3.6520251e-06
5.7707089e-06
8.9851566e-06
1.3814742e-05
2.1009452e-05
3.164665e-05
4.7265653e-05
7.0052961e-05
0.00010309361
0.00015070543
0.00021887051
0.00031576618
0.00045236662
0.00064301677
0.000905744
0.001261838
0.0017339
0.0023413077
0.0030924549
0.0039752561
0.0049514937
0.0059626007
0.0069476245
0.0078621138
0.0086857201
0.0094180692
0.010070467
0.010659174
0.011201689
0.011715144
0.012215593
0.012717444
0.013234479
0.013783544
0.014390645
0.015121582
0.016076536
0.017309682
0.018760639
0.019516912
0.017493696
0.010292716
0.0041001394
0.0016451342
0.00073032138
0.00039939905
0.00027280428
0.00021858367
0.00018022304
0.00015517575
0.00013857184
0.00012053317
3.115338e-12
9.7894691e-11
8.0051663e-10
3.4427175e-09
1.059426e-08
2.67343e-08
5.9284398e-08
1.2015338e-07
2.280199e-07
4.1167989e-07
7.1492683e-07
1.2036313e-06
1.9759637e-06
3.1770934e-06
5.0202354e-06
7.8166558e-06
1.2018257e-05
1.8277699e-05
2.753277e-05
4.1123885e-05
6.0956136e-05
8.9719878e-05
0.00013118548
0.0001905867
0.00027509875
0.00039439325
0.00056119816
0.00079168166
0.0011052844
0.0015233345
0.0020654991
0.0027432753
0.0035511986
0.0044599154
0.0054181804
0.0063670561
0.0072586363
0.008066783
0.0087860079
0.0094242443
0.0099958264
0.010517117
0.011004379
0.01147285
0.011935982
0.012407311
0.012905647
0.013463834
0.014182047
0.015120838
0.016166346
0.016492846
0.01461306
0.0081442429
0.0032756129
0.0013023454
0.00056563884
0.00029457396
0.00019510574
0.00015501411
0.00013506032
0.00012164736
0.00011335472
0.0001102327
0.00010749631
2.6770003e-12
8.4120616e-11
6.8788159e-10
2.9583145e-09
9.1035928e-09
2.2972582e-08
5.0942437e-08
1.0324596e-07
1.9593278e-07
3.5374533e-07
6.1431186e-07
1.0342287e-06
1.6978434e-06
2.7298839e-06
4.3135435e-06
6.7162685e-06
1.0326367e-05
1.570472e-05
2.3657397e-05
3.5336913e-05
5.2382118e-05
7.710914e-05
0.00011276764
0.00016387641
0.00023664672
0.00033948435
0.00048351991
0.0006830319
0.00095547073
0.0013205466
0.0017975651
0.0024001654
0.0031285774
0.0039620732
0.0048578455
0.005760987
0.0066217087
0.0074084304
0.0081100033
0.0087302067
0.0092807861
0.009776442
0.010232125
0.010661648
0.011077151
0.011491212
0.011922843
0.012426908
0.013094893
0.01384061
0.013768243
0.011864455
0.0061496603
0.0025692835
0.0010457632
0.00046342171
0.00024842338
0.00016892829
0.00013764555
0.00012285875
0.00011316113
0.00010660572
0.00010242496
0.0001023686
0.00010318265
2.2737206e-12
7.1448175e-11
5.8425478e-10
2.5126526e-09
7.7321451e-09
1.9511716e-08
4.3267641e-08
8.7690746e-08
1.6641186e-07
3.004441e-07
5.2174335e-07
8.7837297e-07
1.4419616e-06
2.3184272e-06
3.6633333e-06
5.7037898e-06
8.7695478e-06
1.3336939e-05
2.0090612e-05
3.0009697e-05
4.4487022e-05
6.5492202e-05
9.5791319e-05
0.0001392363
0.00020113361
0.00028868934
0.00041149702
0.00058196972
0.00081549551
0.0011298951
0.0015435056
0.0020710868
0.0027172753
0.0034691924
0.0042929735
0.0051396285
0.0059595404
0.006716671
0.0073940303
0.0079905004
0.008514416
0.0089780384
0.0093941368
0.0097740899
0.0101272
0.010462789
0.010797849
0.011206726
0.01162053
0.011332741
0.009391926
0.0046333409
0.0019558516
0.00082969972
0.00038613198
0.00021901904
0.00015686194
0.0001322332
0.00012083791
0.00011385656
0.00010733174
0.00010231722
9.9146355e-05
9.9601908e-05
0.00010006879
1.9113124e-12
6.0060037e-11
4.9112996e-10
2.1121565e-09
6.4996881e-09
1.6401597e-08
3.637067e-08
7.3712046e-08
1.3988294e-07
2.5254514e-07
4.3855714e-07
7.3831409e-07
1.2120145e-06
1.9486709e-06
3.079013e-06
4.7938888e-06
7.370395e-06
1.1208805e-05
1.6884477e-05
2.5220337e-05
3.7387281e-05
5.5041751e-05
8.0511563e-05
0.00011704185
0.00016911083
0.00024281658
0.00034631312
0.00049022608
0.00068788412
0.00095504436
0.0013085711
0.0017633556
0.0023270024
0.0029930968
0.0037365165
0.0045155236
0.0052828996
0.0059997736
0.0066436859
0.0072080716
0.0076968859
0.0081187969
0.0084828538
0.0087962027
0.0090613905
0.0092772747
0.0094735379
0.0095763655
0.0090534441
0.0070133086
0.0033471631
0.0014702638
0.00064772101
0.00032190933
0.00019675969
0.00014905636
0.00013005557
0.00012163151
0.00011578588
0.00011075063
0.00010515849
0.00010069487
9.7592482e-05
9.7333113e-05
9.6879164e-05
1.5931038e-12
5.0060817e-11
4.0936298e-10
1.7605066e-09
5.4175482e-09
1.3670812e-08
3.0314924e-08
6.1438376e-08
1.1658995e-07
2.10489e-07
3.6551857e-07
6.1534124e-07
1.0101198e-06
1.6240234e-06
2.5659749e-06
3.9949768e-06
6.1418733e-06
9.3401047e-06
1.406894e-05
2.1013865e-05
3.115026e-05
4.585819e-05
6.7077703e-05
9.7515012e-05
0.0001409087
0.00020235906
0.00028870733
0.00040891548
0.000574327
0.00079856687
0.0010966606
0.0014827798
0.0019660878
0.0025449662
0.0032018316
0.0039027282
0.0046047312
0.0052681751
0.0058661304
0.0063863769
0.0068274104
0.0071925193
0.0074848189
0.0077029108
0.0078364895
0.0078709785
0.0077662048
0.007060033
0.004855114
0.002324467
0.001068091
0.00050164136
0.00026843815
0.00017839778
0.0001434381
0.00012866518
0.0001221583
0.0001174925
0.00011260947
0.00010733437
0.0001021355
9.8254325e-05
9.5473695e-05
9.5257433e-05
9.4578184e-05
1.3199755e-12
4.1478189e-11
3.3918011e-10
1.4586762e-09
4.4887215e-09
1.1326921e-08
2.5117175e-08
5.0903745e-08
9.6597467e-08
1.7439238e-07
3.0283055e-07
5.0979659e-07
8.3684069e-07
1.3453931e-06
2.1256613e-06
3.3093143e-06
5.0874908e-06
7.7362423e-06
1.1652291e-05
1.7402967e-05
2.5795395e-05
3.7971411e-05
5.553604e-05
8.072826e-05
0.00011664211
0.0001675018
0.00023898256
0.00033854197
0.00047567418
0.00066190603
0.000910215
0.0012333947
0.001640876
0.0021339842
0.0027009815
0.0033150955
0.0039387828
0.0045335195
0.0050693401
0.0055285123
0.0059028472
0.0061877659
0.0063765304
0.0064519319
0.0063888477
0.0061398434
0.0053128386
0.003198202
0.0015861572
0.00075899821
0.00038367798
0.00022550741
0.00016287994
0.00013887949
0.00012816815
0.000122808
0.00011867813
0.00011315596
0.00010761194
0.0001034005
9.9427264e-05
9.6480317e-05
9.4299992e-05
9.3687892e-05
9.2644483e-05
1.0901319e-12
3.4255708e-11
2.8011953e-10
1.204679e-09
3.7070952e-09
9.3545025e-09
2.0743229e-08
4.2038873e-08
7.9774073e-08
1.4401809e-07
2.5008143e-07
4.2098765e-07
6.9104134e-07
1.1109563e-06
1.7551958e-06
2.7324344e-06
4.2004047e-06
6.386865e-06
9.6190496e-06
1.4364767e-05
2.1289293e-05
3.1333344e-05
4.5818505e-05
6.6587226e-05
9.6183977e-05
0.00013808079
0.00019694115
0.00027889586
0.00039176439
0.00054508575
0.00074971527
0.0010166182
0.0013544402
0.0017657089
0.0022424653
0.002763625
0.003296995
0.0038064682
0.0042604264
0.0046358582
0.0049163029
0.0050866381
0.005123299
0.0050085546
0.0046571793
0.0037776357
0.0020978627
0.0010548013
0.00053585931
0.00029459757
0.00019150061
0.00015022671
0.0001347168
0.00012790564
0.00012398413
0.00011980245
0.00011361809
0.00010855548
0.00010467847
0.00010122599
9.7994583e-05
9.5325967e-05
9.2913026e-05
9.1893436e-05
9.0932394e-05
8.9919353e-13
2.8255759e-11
2.3105598e-10
9.9367576e-10
3.0577782e-09
7.7159784e-09
1.710976e-08
3.4674883e-08
6.5799288e-08
1.1878756e-07
2.0626647e-07
3.472229e-07
5.6994504e-07
9.162488e-07
1.4475254e-06
2.2533579e-06
3.4637412e-06
5.2663285e-06
7.9306293e-06
1.1841733e-05
1.7546909e-05
2.5819325e-05
3.7743948e-05
5.4831165e-05
7.9163119e-05
0.00011357481
0.00016186444
0.00022901118
0.00032134726
0.00044657765
0.0006134587
0.00083085112
0.001105818
0.0014406056
0.0018289673
0.0022534932
0.0026862966
0.0030939695
0.0034441099
0.003708517
0.0038615963
0.0038724193
0.0037327484
0.00335228
0.0024536135
0.0013445245
0.00069903926
0.00037746913
0.00023002165
0.00016572282
0.00014010477
0.00013088538
0.0001273312
0.0001252352
0.00012084828
0.00011441188
0.00010977787
0.00010633403
0.00010273128
9.922078e-05
9.5836922e-05
9.3354911e-05
9.1414368e-05
9.0560302e-05
8.960042e-05
7.4053699e-13
2.3270224e-11
1.9028774e-10
8.1834823e-10
2.5182494e-09
6.3545159e-09
1.4090732e-08
2.8556317e-08
5.418827e-08
9.7825297e-08
1.6986504e-07
2.859417e-07
4.6934694e-07
7.5450754e-07
1.1919598e-06
1.8554329e-06
2.8518866e-06
4.3356618e-06
6.5283026e-06
9.7461211e-06
1.4438174e-05
2.1237971e-05
3.1032791e-05
4.5054674e-05
6.4996338e-05
9.3152466e-05
0.00013257997
0.00018725705
0.0002621953
0.00036341698
0.0004976473
0.00067150136
0.00088991575
0.0011537063
0.0014565902
0.0017828571
0.0021074821
0.0023994191
0.0026259421
0.0027547465
0.0027504067
0.0026030972
0.0022243736
0.0014749037
0.00082398525
0.00045556207
0.00026873421
0.00018317015
0.000146649
0.00013173443
0.00012751603
0.00012663885
0.00012553317
0.0001224073
0.00011564693
0.00011125378
0.00010766226
0.00010373394
9.9943051e-05
9.6810038e-05
9.4220424e-05
9.2391641e-05
9.0458323e-05
8.9351345e-05
8.8365524e-05
6.0591054e-13
1.90398e-11
1.5569433e-10
6.6957643e-10
2.0604427e-09
5.1992863e-09
1.1529061e-08
2.3364761e-08
4.4336633e-08
8.0039841e-08
1.3898107e-07
2.3395063e-07
3.8400194e-07
6.172941e-07
9.7515553e-07
1.5178657e-06
2.3328386e-06
3.5461392e-06
5.3385764e-06
7.9680048e-06
1.1799902e-05
1.7348716e-05
2.5332776e-05
3.6745376e-05
5.2943561e-05
7.5753074e-05
0.00010758137
0.00015151818
0.00021138146
0.00029163268
0.00039703912
0.00053191468
0.00069877164
0.00089632589
0.0011171664
0.0013460407
0.0015599078
0.001730185
0.0018253358
0.0018126789
0.0016790086
0.0013464634
0.00085620961
0.00049376762
0.00029334317
0.00019208796
0.00014868207
0.00013147057
0.00012516185
0.00012551937
0.0001265528
0.00012617287
0.00012397462
0.00011758045
0.00011258541
0.00010876582
0.00010467885
0.0001012076
9.8204113e-05
9.5639651e-05
9.3108415e-05
9.0960775e-05
8.9111007e-05
8.8149091e-05
8.7294666e-05
4.8678086e-13
1.5296336e-11
1.250829e-10
5.3792949e-10
1.6553342e-09
4.1770402e-09
9.2622883e-09
1.8770882e-08
3.5619215e-08
6.4302086e-08
1.1165289e-07
1.8794526e-07
3.0848167e-07
4.9587339e-07
7.8329691e-07
1.219121e-06
1.8734437e-06
2.8472662e-06
4.2852643e-06
6.3933888e-06
9.4628123e-06
1.3901958e-05
2.0278357e-05
2.9371605e-05
4.2237161e-05
6.0277433e-05
8.5310033e-05
0.00011961168
0.00016589779
0.00022717139
0.00030634233
0.0004055032
0.00052478734
0.00066076474
0.00080487542
0.00094243783
0.0010529669
0.0011116974
0.0010928477
0.00098253289
0.00073578579
0.00046465142
0.00028964113
0.00018828616
0.00014085575
0.00012088889
0.00011790026
0.00011961924
0.00012403335
0.00012819697
0.00012778425
0.00012574333
0.00011927469
0.00011353859
0.00010958957
0.00010587955
0.00010259346
9.9574771e-05
9.6627677e-05
9.3876959e-05
9.1485555e-05
8.9861591e-05
8.8218664e-05
8.723571e-05
8.6401947e-05
3.7652628e-13
1.1831755e-11
9.6751932e-11
4.1608962e-10
1.2804029e-09
3.2309373e-09
7.1643407e-09
1.4519092e-08
2.7550796e-08
4.9735584e-08
8.6357611e-08
1.4535999e-07
2.3857102e-07
3.8346215e-07
6.0565499e-07
9.4247587e-07
1.447962e-06
2.1998564e-06
3.3092857e-06
4.9339817e-06
7.2960477e-06
1.0705301e-05
1.5588988e-05
2.2527881e-05
3.2296982e-05
4.590552e-05
6.4624685e-05
8.9981496e-05
0.00012368269
0.000167415
0.000222452
0.00028901837
0.00036536606
0.00044675482
0.00052458432
0.00058614713
0.00061514919
0.00059586996
0.00051633576
0.00037481651
0.00024801689
0.00016548463
0.00012330332
0.00010408182
0.00010095046
0.00010560372
0.0001149696
0.0001268313
0.00012976095
0.00012939024
0.00012734625
0.00012083002
0.00011445503
0.00011086149
0.00010729037
0.00010408652
0.00010070399
9.7615952e-05
9.4746929e-05
9.2571271e-05
9.0608987e-05
8.8891109e-05
8.7231622e-05
8.6348853e-05
8.5594721e-05
2.730046e-13
8.5787449e-12
7.0150987e-11
3.0168929e-10
9.2836213e-10
2.3425849e-09
5.1944169e-09
1.0526661e-08
1.9974299e-08
3.6056604e-08
6.2602271e-08
1.0536462e-07
1.7290694e-07
2.7786939e-07
4.3877103e-07
6.8255549e-07
1.0481583e-06
1.591456e-06
2.3920467e-06
3.5623848e-06
5.259813e-06
7.7019144e-06
1.1185195e-05
1.6106166e-05
2.2982019e-05
3.2464793e-05
4.5337599e-05
6.2473958e-05
8.4732087e-05
0.00011274679
0.00014659325
0.00018530231
0.00022629122
0.00026486878
0.00029400749
0.00030446487
0.00028921453
0.00024129476
0.00017757642
0.00012727644
9.6812297e-05
8.1886457e-05
7.9349049e-05
8.4011758e-05
9.586516e-05
0.00011693411
0.0001291744
0.00013185267
0.00013133719
0.00012926695
0.00012262782
0.00011588429
0.00011221815
0.0001086932
0.00010518426
0.00010181211
9.8650391e-05
9.6002285e-05
9.3716984e-05
9.1519832e-05
8.9429914e-05
8.7870218e-05
8.6392642e-05
8.5560114e-05
8.4867555e-05
1.7994652e-13
5.6545366e-12
4.6238732e-11
1.9885162e-10
6.11901e-10
1.5440093e-09
3.4235555e-09
6.9376228e-09
1.3163227e-08
2.3759365e-08
4.1246183e-08
6.9408311e-08
1.1387398e-07
1.8294121e-07
2.8874794e-07
4.4891547e-07
6.8883307e-07
1.0447926e-06
1.5682164e-06
2.3312295e-06
3.4337643e-06
5.0121887e-06
7.2489828e-06
1.0382082e-05
1.4710903e-05
2.0593509e-05
2.8425756e-05
3.858874e-05
5.1347558e-05
6.6689291e-05
8.4090732e-05
0.00010224483
0.00011883741
0.00013043539
0.00013276526
0.000123597
0.00010271255
8.1720611e-05
6.6229175e-05
5.6848116e-05
5.6927056e-05
6.1046998e-05
7.1667899e-05
9.3285169e-05
0.00012089969
0.00013114415
0.00013383524
0.0001332914
0.00013120312
0.00012450495
0.0001173933
0.00011359305
0.00010969712
0.00010636501
0.00010300613
0.00010006728
9.7228684e-05
9.4775706e-05
9.2191398e-05
9.0223834e-05
8.8488684e-05
8.7082243e-05
8.5628014e-05
8.4898869e-05
8.426605e-05
1.0461702e-13
3.2874221e-12
2.6882042e-11
1.1560594e-10
3.5573122e-10
8.9758202e-10
1.990107e-09
4.0324906e-09
7.6502199e-09
1.3806251e-08
2.3962304e-08
4.031128e-08
6.6109805e-08
1.0615036e-07
1.6742564e-07
2.6005331e-07
3.9854586e-07
6.0352363e-07
9.0397026e-07
1.3401024e-06
1.9668381e-06
2.8576493e-06
4.1081976e-06
5.838471e-06
8.1910648e-06
1.1321698e-05
1.5376343e-05
2.0448277e-05
2.6508878e-05
3.3312459e-05
4.0289686e-05
4.6461035e-05
5.0437037e-05
5.0561501e-05
4.7327259e-05
4.2488326e-05
3.8229131e-05
3.5306605e-05
3.6754001e-05
4.0634068e-05
4.9780456e-05
6.6042177e-05
9.5492636e-05
0.00012126781
0.00013256219
0.00013574685
0.00013522448
0.00013321054
0.00012664632
0.00011910444
0.00011503132
0.00011093711
0.00010760933
0.00010451422
0.0001013357
9.8450967e-05
9.5641604e-05
9.3208471e-05
9.1223658e-05
8.9444829e-05
8.7672947e-05
8.6238505e-05
8.4935414e-05
8.4263185e-05
8.3666604e-05
5.2356795e-14
1.6452258e-12
1.3453305e-11
5.7854663e-11
1.7801818e-10
4.491493e-10
9.9575891e-10
2.0174151e-09
3.8266407e-09
6.9041831e-09
1.1978982e-08
2.0142965e-08
3.3014445e-08
5.2968507e-08
8.3458134e-08
1.2945548e-07
1.9804712e-07
2.9921705e-07
4.4684073e-07
6.5988135e-07
9.6370753e-07
1.3913129e-06
1.9839768e-06
2.7905221e-06
3.8638135e-06
5.2525714e-06
6.9861896e-06
9.0510954e-06
1.1359426e-05
1.3717257e-05
1.5806953e-05
1.7202439e-05
1.774973e-05
1.7904172e-05
1.8101145e-05
1.9037615e-05
2.1503241e-05
2.4840092e-05
3.2505737e-05
4.5611761e-05
6.663598e-05
9.6840815e-05
0.00012087147
0.0001332222
0.00013761385
0.00013719613
0.00013530548
0.00012900548
0.00012095387
0.00011664512
0.00011227128
0.0001089237
0.00010570473
0.00010264201
9.9544394e-05
9.6862013e-05
9.4329323e-05
9.2348146e-05
9.0147478e-05
8.8380834e-05
8.6797761e-05
8.5572967e-05
8.4294167e-05
8.3728767e-05
8.3180526e-05
2.250395e-14
7.0714792e-13
5.7824125e-12
2.4866061e-11
7.6508894e-11
1.930209e-10
4.2787496e-10
8.6673191e-10
1.643634e-09
2.9645587e-09
5.1413757e-09
8.6403552e-09
1.4150768e-08
2.2680761e-08
3.5689412e-08
5.526527e-08
8.4361791e-08
1.2709718e-07
1.8911701e-07
2.7799752e-07
4.0362799e-07
5.7844285e-07
8.1727046e-07
1.1364286e-06
1.5515573e-06
2.0736927e-06
2.70335e-06
3.423557e-06
4.1949271e-06
4.959704e-06
5.6969714e-06
6.5459028e-06
7.6278457e-06
9.0488024e-06
1.0893736e-05
1.4560597e-05
2.0365576e-05
3.053835e-05
4.6078994e-05
6.7699526e-05
9.4807637e-05
0.00011771724
0.00013258842
0.0001392537
0.00013937244
0.00013755414
0.00013146659
0.00012298697
0.00011838803
0.00011378822
0.00011024717
0.00010694354
0.00010390609
0.00010100845
9.8079016e-05
9.5604629e-05
9.3183413e-05
9.1036467e-05
8.9165941e-05
8.7687864e-05
8.6123821e-05
8.4874526e-05
8.3737621e-05
8.3196733e-05
8.2654644e-05
9.1103565e-15
2.8627675e-13
2.3408903e-12
1.0066309e-11
3.0971333e-11
7.8131893e-11
1.7318302e-10
3.5076996e-10
6.6507719e-10
1.1993086e-09
2.0793236e-09
3.4930596e-09
5.7178977e-09
9.1587295e-09
1.4400088e-08
2.2276135e-08
3.396219e-08
5.1090245e-08
7.5887472e-08
1.1132985e-07
1.6129129e-07
2.3065157e-07
3.2531012e-07
4.5204825e-07
6.1823714e-07
8.3131855e-07
1.098651e-06
1.4281157e-06
1.8335167e-06
2.3617479e-06
3.1158346e-06
4.2332988e-06
5.9359505e-06
8.5942674e-06
1.2974943e-05
2.0142269e-05
3.1127749e-05
4.6408769e-05
6.6552626e-05
9.1329774e-05
0.00011483622
0.00013355268
0.00014104321
0.00014160224
0.00013990062
0.0001341326
0.00012518802
0.00012032459
0.00011543374
0.0001117087
0.00010820546
0.00010522658
0.0001023204
9.9454908e-05
9.6678206e-05
9.4303464e-05
9.2004944e-05
9.02753e-05
8.8425364e-05
8.6851393e-05
8.5413867e-05
8.431003e-05
8.3205364e-05
8.2775715e-05
8.225059e-05
4.9663526e-15
1.5605902e-13
1.2761071e-12
5.4876495e-12
1.688486e-11
4.2599306e-11
9.4435534e-11
1.9130807e-10
3.6282415e-10
6.5450266e-10
1.1353157e-09
1.9085034e-09
3.1269575e-09
5.0149233e-09
7.8983291e-09
1.2246749e-08
1.8730812e-08
2.8299842e-08
4.2285684e-08
6.2540514e-08
9.1620003e-08
1.330317e-07
1.9158927e-07
2.7396287e-07
3.8963207e-07
5.5271163e-07
7.850377e-07
1.1220936e-06
1.6220306e-06
2.3825945e-06
3.57534e-06
5.4704832e-06
8.4890315e-06
1.3253502e-05
2.0573898e-05
3.115163e-05
4.5637708e-05
6.4819089e-05
8.8822889e-05
0.00011360022
0.00013458373
0.0001428302
0.00014383658
0.00014230898
0.00013703143
0.0001275821
0.00012242846
0.00011725325
0.00011327335
0.00010960856
0.00010651365
0.00010362568
0.00010077809