/*--------------------------------*- C++ -*----------------------------------*\
  =========                 |
  \\      /  F ield         | OpenFOAM: The Open Source CFD Toolbox
   \\    /   O peration     | Website:  https://openfoam.org
    \\  /    A nd           | Version:  13
     \\/     M anipulation  |
\*---------------------------------------------------------------------------*/
FoamFile
{
    format      ascii;
    class       volScalarField;
    location    "4000";
    object      p;
}
// * * * * * * * * * * * * * * * * * * * * * * * * * * * * * * * * * * * * * //

dimensions      [0 2 -2 0 0 0 0];

internalField   nonuniform List<scalar> 
25000
(
7.00719e-08
-5.58572e-06
-1.18666e-05
-1.68865e-05
-2.15748e-05
-2.5404e-05
-2.8674e-05
-3.12777e-05
-3.30915e-05
-3.41806e-05
-3.45417e-05
-3.42779e-05
-3.33085e-05
-3.18146e-05
-2.96962e-05
-2.71308e-05
-2.40427e-05
-2.05948e-05
-1.67501e-05
-1.26383e-05
-8.25904e-06
-3.70949e-06
9.79166e-07
5.74679e-06
1.05339e-05
1.53246e-05
2.00248e-05
2.46657e-05
2.91031e-05
3.34267e-05
3.74014e-05
4.10602e-05
4.43137e-05
4.72837e-05
4.96681e-05
5.1668e-05
5.29183e-05
5.3728e-05
5.36197e-05
5.3061e-05
5.14141e-05
4.93802e-05
4.60886e-05
4.25975e-05
3.77083e-05
3.29894e-05
2.67864e-05
2.1296e-05
1.41316e-05
8.38252e-06
2.33711e-07
-5.58403e-06
-1.1865e-05
-1.68849e-05
-2.15735e-05
-2.5403e-05
-2.86733e-05
-3.12774e-05
-3.30914e-05
-3.41807e-05
-3.45421e-05
-3.42785e-05
-3.33094e-05
-3.18156e-05
-2.96974e-05
-2.71321e-05
-2.40441e-05
-2.05963e-05
-1.67516e-05
-1.264e-05
-8.26069e-06
-3.71112e-06
9.77581e-07
5.74527e-06
1.05325e-05
1.53233e-05
2.00236e-05
2.46647e-05
2.91023e-05
3.3426e-05
3.74008e-05
4.10599e-05
4.43135e-05
4.72837e-05
4.96684e-05
5.16684e-05
5.29189e-05
5.37288e-05
5.36206e-05
5.3062e-05
5.14152e-05
4.93814e-05
4.60899e-05
4.25988e-05
3.77096e-05
3.29906e-05
2.67876e-05
2.1297e-05
1.41326e-05
8.38347e-06
2.54205e-07
-5.58195e-06
-1.18632e-05
-1.68833e-05
-2.15723e-05
-2.54022e-05
-2.86729e-05
-3.12772e-05
-3.30916e-05
-3.41813e-05
-3.4543e-05
-3.42796e-05
-3.33108e-05
-3.18173e-05
-2.96992e-05
-2.71341e-05
-2.40462e-05
-2.05985e-05
-1.67539e-05
-1.26423e-05
-8.26297e-06
-3.71334e-06
9.7546e-07
5.74329e-06
1.05306e-05
1.53216e-05
2.00222e-05
2.46635e-05
2.91013e-05
3.34253e-05
3.74004e-05
4.10597e-05
4.43137e-05
4.72841e-05
4.9669e-05
5.16693e-05
5.292e-05
5.37301e-05
5.36221e-05
5.30636e-05
5.1417e-05
4.93833e-05
4.60918e-05
4.26008e-05
3.77116e-05
3.29925e-05
2.67893e-05
2.12987e-05
1.41341e-05
8.38497e-06
2.45661e-07
-5.5784e-06
-1.18607e-05
-1.68813e-05
-2.1571e-05
-2.54015e-05
-2.86727e-05
-3.12776e-05
-3.30926e-05
-3.41829e-05
-3.45452e-05
-3.42824e-05
-3.3314e-05
-3.18209e-05
-2.97032e-05
-2.71383e-05
-2.40507e-05
-2.06031e-05
-1.67586e-05
-1.26469e-05
-8.26744e-06
-3.7176e-06
9.71467e-07
5.73964e-06
1.05274e-05
1.53188e-05
2.00199e-05
2.46617e-05
2.91e-05
3.34245e-05
3.74001e-05
4.106e-05
4.43146e-05
4.72855e-05
4.96708e-05
5.16716e-05
5.29226e-05
5.37331e-05
5.36254e-05
5.30672e-05
5.14208e-05
4.93872e-05
4.60958e-05
4.26047e-05
3.77155e-05
3.29963e-05
2.67931e-05
2.13023e-05
1.41374e-05
8.38807e-06
2.47339e-07
-5.57244e-06
-1.1857e-05
-1.68786e-05
-2.15695e-05
-2.54009e-05
-2.86731e-05
-3.12789e-05
-3.30949e-05
-3.41863e-05
-3.45496e-05
-3.42877e-05
-3.33201e-05
-3.18276e-05
-2.97105e-05
-2.71462e-05
-2.40589e-05
-2.06115e-05
-1.6767e-05
-1.26551e-05
-8.27543e-06
-3.72518e-06
9.6443e-07
5.73326e-06
1.05218e-05
1.5314e-05
2.0016e-05
2.46588e-05
2.90981e-05
3.34235e-05
3.74e-05
4.1061e-05
4.43166e-05
4.72884e-05
4.96745e-05
5.1676e-05
5.29278e-05
5.37389e-05
5.36317e-05
5.30739e-05
5.14277e-05
4.93943e-05
4.6103e-05
4.26119e-05
3.77226e-05
3.30034e-05
2.68e-05
2.13092e-05
1.41435e-05
8.39371e-06
2.58215e-07
-5.56353e-06
-1.18518e-05
-1.6875e-05
-2.15677e-05
-2.54004e-05
-2.8674e-05
-3.12811e-05
-3.30988e-05
-3.41918e-05
-3.45566e-05
-3.42961e-05
-3.33297e-05
-3.18383e-05
-2.97221e-05
-2.71585e-05
-2.40716e-05
-2.06245e-05
-1.678e-05
-1.2668e-05
-8.28779e-06
-3.73687e-06
9.53616e-07
5.72349e-06
1.05132e-05
1.53068e-05
2.00102e-05
2.46545e-05
2.90952e-05
3.34221e-05
3.74001e-05
4.10629e-05
4.432e-05
4.72931e-05
4.96805e-05
5.16832e-05
5.2936e-05
5.3748e-05
5.36416e-05
5.30845e-05
5.14387e-05
4.94056e-05
4.61143e-05
4.26232e-05
3.77336e-05
3.30144e-05
2.68107e-05
2.132e-05
1.41531e-05
8.40247e-06
2.73265e-07
-5.55165e-06
-1.18448e-05
-1.68702e-05
-2.15654e-05
-2.53999e-05
-2.86755e-05
-3.12844e-05
-3.31043e-05
-3.41996e-05
-3.45664e-05
-3.43077e-05
-3.33429e-05
-3.1853e-05
-2.9738e-05
-2.71753e-05
-2.40891e-05
-2.06423e-05
-1.67978e-05
-1.26854e-05
-8.30459e-06
-3.75275e-06
9.38946e-07
5.71026e-06
1.05016e-05
1.52971e-05
2.00024e-05
2.46487e-05
2.90915e-05
3.34203e-05
3.74003e-05
4.10655e-05
4.43247e-05
4.72996e-05
4.96888e-05
5.16931e-05
5.29473e-05
5.37607e-05
5.36553e-05
5.3099e-05
5.14538e-05
4.94211e-05
4.61298e-05
4.26387e-05
3.77488e-05
3.30294e-05
2.68254e-05
2.13346e-05
1.41661e-05
8.41438e-06
2.90679e-07
-5.53734e-06
-1.18364e-05
-1.68645e-05
-2.15628e-05
-2.53995e-05
-2.86775e-05
-3.12886e-05
-3.31113e-05
-3.42092e-05
-3.45785e-05
-3.4322e-05
-3.33592e-05
-3.1871e-05
-2.97574e-05
-2.71959e-05
-2.41105e-05
-2.06641e-05
-1.68195e-05
-1.27068e-05
-8.32514e-06
-3.77216e-06
9.21015e-07
5.6941e-06
1.04875e-05
1.52852e-05
1.99929e-05
2.46417e-05
2.9087e-05
3.34182e-05
3.74008e-05
4.10688e-05
4.43306e-05
4.73077e-05
4.9699e-05
5.17053e-05
5.29614e-05
5.37763e-05
5.36722e-05
5.3117e-05
5.14724e-05
4.94401e-05
4.61489e-05
4.26578e-05
3.77675e-05
3.30478e-05
2.68434e-05
2.13524e-05
1.4182e-05
8.42889e-06
3.09876e-07
-5.5213e-06
-1.18268e-05
-1.68581e-05
-2.15598e-05
-2.53991e-05
-2.86799e-05
-3.12935e-05
-3.31193e-05
-3.42202e-05
-3.45923e-05
-3.43384e-05
-3.33777e-05
-3.18915e-05
-2.97796e-05
-2.72193e-05
-2.41347e-05
-2.06888e-05
-1.68442e-05
-1.2731e-05
-8.34846e-06
-3.79418e-06
9.00681e-07
5.67577e-06
1.04715e-05
1.52717e-05
1.99821e-05
2.46337e-05
2.90819e-05
3.34159e-05
3.74013e-05
4.10725e-05
4.43373e-05
4.7317e-05
4.97107e-05
5.17193e-05
5.29774e-05
5.37941e-05
5.36915e-05
5.31375e-05
5.14937e-05
4.94619e-05
4.61708e-05
4.26796e-05
3.77888e-05
3.30688e-05
2.68638e-05
2.13725e-05
1.41999e-05
8.4453e-06
3.30359e-07
-5.50409e-06
-1.18165e-05
-1.68511e-05
-2.15566e-05
-2.53987e-05
-2.86825e-05
-3.1299e-05
-3.31281e-05
-3.42323e-05
-3.46074e-05
-3.43562e-05
-3.33979e-05
-3.19138e-05
-2.98036e-05
-2.72448e-05
-2.41611e-05
-2.07156e-05
-1.6871e-05
-1.27572e-05
-8.37373e-06
-3.81805e-06
8.78641e-07
5.6559e-06
1.04541e-05
1.5257e-05
1.99704e-05
2.46251e-05
2.90763e-05
3.34134e-05
3.7402e-05
4.10766e-05
4.43446e-05
4.73271e-05
4.97234e-05
5.17345e-05
5.29949e-05
5.38136e-05
5.37126e-05
5.31598e-05
5.15169e-05
4.94857e-05
4.61947e-05
4.27033e-05
3.7812e-05
3.30916e-05
2.68859e-05
2.13943e-05
1.42193e-05
8.46303e-06
3.51717e-07
-5.48605e-06
-1.18054e-05
-1.68437e-05
-2.15532e-05
-2.53984e-05
-2.86854e-05
-3.1305e-05
-3.31376e-05
-3.42452e-05
-3.46235e-05
-3.43751e-05
-3.34194e-05
-3.19375e-05
-2.98291e-05
-2.72717e-05
-2.4189e-05
-2.0744e-05
-1.68993e-05
-1.2785e-05
-8.40048e-06
-3.84331e-06
8.5532e-07
5.63488e-06
1.04357e-05
1.52416e-05
1.9958e-05
2.4616e-05
2.90705e-05
3.34108e-05
3.74027e-05
4.10809e-05
4.43523e-05
4.73378e-05
4.9737e-05
5.17507e-05
5.30134e-05
5.38342e-05
5.3735e-05
5.31836e-05
5.15417e-05
4.9511e-05
4.62201e-05
4.27285e-05
3.78367e-05
3.31158e-05
2.69093e-05
2.14172e-05
1.42396e-05
8.48172e-06
3.73705e-07
-5.46735e-06
-1.17939e-05
-1.68359e-05
-2.15497e-05
-2.5398e-05
-2.86884e-05
-3.13113e-05
-3.31477e-05
-3.42587e-05
-3.46404e-05
-3.4395e-05
-3.34419e-05
-3.19623e-05
-2.98559e-05
-2.73e-05
-2.42182e-05
-2.07737e-05
-1.69289e-05
-1.28141e-05
-8.42844e-06
-3.8697e-06
8.30946e-07
5.6129e-06
1.04165e-05
1.52254e-05
1.99451e-05
2.46064e-05
2.90644e-05
3.34081e-05
3.74035e-05
4.10854e-05
4.43604e-05
4.73491e-05
4.97512e-05
5.17677e-05
5.30329e-05
5.38559e-05
5.37585e-05
5.32086e-05
5.15676e-05
4.95376e-05
4.62468e-05
4.2755e-05
3.78625e-05
3.31411e-05
2.69338e-05
2.1441e-05
1.42609e-05
8.5012e-06
3.962e-07
-5.4481e-06
-1.17819e-05
-1.68278e-05
-2.1546e-05
-2.53977e-05
-2.86917e-05
-3.13181e-05
-3.31582e-05
-3.4273e-05
-3.46581e-05
-3.44157e-05
-3.34653e-05
-3.19881e-05
-2.98836e-05
-2.73293e-05
-2.42486e-05
-2.08045e-05
-1.69597e-05
-1.28443e-05
-8.45747e-06
-3.89711e-06
8.05641e-07
5.59009e-06
1.03966e-05
1.52086e-05
1.99317e-05
2.45965e-05
2.9058e-05
3.34053e-05
3.74044e-05
4.10901e-05
4.43688e-05
4.73608e-05
4.9766e-05
5.17854e-05
5.30532e-05
5.38786e-05
5.3783e-05
5.32347e-05
5.15948e-05
4.95654e-05
4.62746e-05
4.27827e-05
3.78895e-05
3.31675e-05
2.69591e-05
2.14657e-05
1.42828e-05
8.52135e-06
4.1914e-07
-5.42834e-06
-1.17694e-05
-1.68195e-05
-2.15422e-05
-2.53974e-05
-2.86951e-05
-3.13251e-05
-3.31692e-05
-3.42878e-05
-3.46764e-05
-3.44373e-05
-3.34896e-05
-3.20148e-05
-2.99124e-05
-2.73597e-05
-2.428e-05
-2.08365e-05
-1.69915e-05
-1.28755e-05
-8.48749e-06
-3.92546e-06
7.7947e-07
5.56649e-06
1.03759e-05
1.51912e-05
1.99178e-05
2.45862e-05
2.90514e-05
3.34024e-05
3.74053e-05
4.1095e-05
4.43775e-05
4.7373e-05
4.97814e-05
5.18038e-05
5.30743e-05
5.39021e-05
5.38085e-05
5.32618e-05
5.16229e-05
4.95943e-05
4.63036e-05
4.28114e-05
3.79175e-05
3.31948e-05
2.69853e-05
2.14911e-05
1.43054e-05
8.54214e-06
4.42495e-07
-5.4081e-06
-1.17565e-05
-1.68108e-05
-2.15382e-05
-2.53971e-05
-2.86988e-05
-3.13325e-05
-3.31807e-05
-3.43032e-05
-3.46955e-05
-3.44596e-05
-3.35147e-05
-3.20425e-05
-2.99422e-05
-2.73911e-05
-2.43124e-05
-2.08694e-05
-1.70244e-05
-1.29077e-05
-8.51847e-06
-3.95471e-06
7.52469e-07
5.54214e-06
1.03546e-05
1.51732e-05
1.99034e-05
2.45756e-05
2.90446e-05
3.33995e-05
3.74063e-05
4.11001e-05
4.43865e-05
4.73856e-05
4.97973e-05
5.18229e-05
5.30962e-05
5.39265e-05
5.38349e-05
5.32899e-05
5.16521e-05
4.96242e-05
4.63336e-05
4.28412e-05
3.79465e-05
3.3223e-05
2.70124e-05
2.15172e-05
1.43287e-05
8.56352e-06
4.66251e-07
-5.38741e-06
-1.17431e-05
-1.68019e-05
-2.15342e-05
-2.53969e-05
-2.87026e-05
-3.13403e-05
-3.31927e-05
-3.43191e-05
-3.47152e-05
-3.44826e-05
-3.35407e-05
-3.2071e-05
-2.99729e-05
-2.74234e-05
-2.43459e-05
-2.09034e-05
-1.70583e-05
-1.29409e-05
-8.55038e-06
-3.98484e-06
7.24656e-07
5.51706e-06
1.03327e-05
1.51547e-05
1.98887e-05
2.45647e-05
2.90377e-05
3.33964e-05
3.74073e-05
4.11053e-05
4.43958e-05
4.73986e-05
4.98137e-05
5.18426e-05
5.31188e-05
5.39517e-05
5.38623e-05
5.33189e-05
5.16824e-05
4.96551e-05
4.63646e-05
4.2872e-05
3.79764e-05
3.32521e-05
2.70402e-05
2.15441e-05
1.43526e-05
8.58549e-06
4.90402e-07
-5.36627e-06
-1.17294e-05
-1.67927e-05
-2.153e-05
-2.53968e-05
-2.87067e-05
-3.13484e-05
-3.32051e-05
-3.43356e-05
-3.47355e-05
-3.45064e-05
-3.35675e-05
-3.21005e-05
-3.00045e-05
-2.74568e-05
-2.43803e-05
-2.09384e-05
-1.70931e-05
-1.29751e-05
-8.58323e-06
-4.01584e-06
6.96037e-07
5.49125e-06
1.03101e-05
1.51357e-05
1.98735e-05
2.45535e-05
2.90305e-05
3.33934e-05
3.74084e-05
4.11107e-05
4.44054e-05
4.7412e-05
4.98307e-05
5.18629e-05
5.31422e-05
5.39777e-05
5.38905e-05
5.3349e-05
5.17136e-05
4.96871e-05
4.63967e-05
4.29038e-05
3.80074e-05
3.32822e-05
2.70689e-05
2.15716e-05
1.43771e-05
8.60803e-06
5.14947e-07
-5.34467e-06
-1.17152e-05
-1.67832e-05
-2.15258e-05
-2.53967e-05
-2.87109e-05
-3.13568e-05
-3.3218e-05
-3.43527e-05
-3.47566e-05
-3.4531e-05
-3.35951e-05
-3.21308e-05
-3.0037e-05
-2.74911e-05
-2.44158e-05
-2.09744e-05
-1.7129e-05
-1.30102e-05
-8.617e-06
-4.04772e-06
6.66612e-07
5.46471e-06
1.02869e-05
1.51161e-05
1.98578e-05
2.45419e-05
2.90231e-05
3.33902e-05
3.74096e-05
4.11163e-05
4.44153e-05
4.74258e-05
4.98483e-05
5.18839e-05
5.31663e-05
5.40045e-05
5.39197e-05
5.33799e-05
5.17458e-05
4.97201e-05
4.64298e-05
4.29366e-05
3.80393e-05
3.33131e-05
2.70983e-05
2.15998e-05
1.44022e-05
8.63115e-06
5.39889e-07
-5.32263e-06
-1.17006e-05
-1.67735e-05
-2.15214e-05
-2.53966e-05
-2.87153e-05
-3.13656e-05
-3.32314e-05
-3.43704e-05
-3.47783e-05
-3.45563e-05
-3.36235e-05
-3.2162e-05
-3.00706e-05
-2.75264e-05
-2.44522e-05
-2.10114e-05
-1.71658e-05
-1.30463e-05
-8.6517e-06
-4.08047e-06
6.3638e-07
5.43745e-06
1.02631e-05
1.5096e-05
1.98418e-05
2.453e-05
2.90155e-05
3.3387e-05
3.74108e-05
4.1122e-05
4.44255e-05
4.74401e-05
4.98663e-05
5.19055e-05
5.31911e-05
5.40322e-05
5.39497e-05
5.34119e-05
5.17791e-05
4.97541e-05
4.6464e-05
4.29704e-05
3.80721e-05
3.33449e-05
2.71286e-05
2.16288e-05
1.44279e-05
8.65485e-06
5.6523e-07
-5.30014e-06
-1.16855e-05
-1.67635e-05
-2.15169e-05
-2.53966e-05
-2.87199e-05
-3.13748e-05
-3.32452e-05
-3.43887e-05
-3.48007e-05
-3.45824e-05
-3.36528e-05
-3.21941e-05
-3.0105e-05
-2.75627e-05
-2.44897e-05
-2.10494e-05
-1.72037e-05
-1.30834e-05
-8.68733e-06
-4.11411e-06
6.05337e-07
5.40945e-06
1.02386e-05
1.50754e-05
1.98253e-05
2.45178e-05
2.90077e-05
3.33837e-05
3.74121e-05
4.11279e-05
4.44361e-05
4.74548e-05
4.98849e-05
5.19278e-05
5.32167e-05
5.40607e-05
5.39807e-05
5.34448e-05
5.18134e-05
4.97892e-05
4.64992e-05
4.30053e-05
3.8106e-05
3.33776e-05
2.71597e-05
2.16584e-05
1.44543e-05
8.67912e-06
5.90973e-07
-5.2772e-06
-1.16701e-05
-1.67532e-05
-2.15123e-05
-2.53967e-05
-2.87248e-05
-3.13843e-05
-3.32595e-05
-3.44075e-05
-3.48237e-05
-3.46092e-05
-3.36829e-05
-3.22272e-05
-3.01404e-05
-2.75999e-05
-2.45281e-05
-2.10884e-05
-1.72425e-05
-1.31214e-05
-8.72391e-06
-4.14863e-06
5.7348e-07
5.38072e-06
1.02135e-05
1.50542e-05
1.98083e-05
2.45053e-05
2.89998e-05
3.33804e-05
3.74135e-05
4.1134e-05
4.44469e-05
4.74699e-05
4.99041e-05
5.19507e-05
5.32431e-05
5.40901e-05
5.40126e-05
5.34787e-05
5.18487e-05
4.98254e-05
4.65354e-05
4.30412e-05
3.81408e-05
3.34113e-05
2.71916e-05
2.16887e-05
1.44812e-05
8.70396e-06
6.1712e-07
-5.25382e-06
-1.16542e-05
-1.67426e-05
-2.15076e-05
-2.53968e-05
-2.87298e-05
-3.13941e-05
-3.32743e-05
-3.4427e-05
-3.48475e-05
-3.46369e-05
-3.37139e-05
-3.22611e-05
-3.01768e-05
-2.76382e-05
-2.45676e-05
-2.11284e-05
-1.72824e-05
-1.31605e-05
-8.76142e-06
-4.18403e-06
5.40806e-07
5.35125e-06
1.01877e-05
1.50325e-05
1.9791e-05
2.44925e-05
2.89916e-05
3.33769e-05
3.74149e-05
4.11403e-05
4.4458e-05
4.74855e-05
4.99238e-05
5.19743e-05
5.32702e-05
5.41203e-05
5.40454e-05
5.35136e-05
5.1885e-05
4.98625e-05
4.65728e-05
4.30781e-05
3.81767e-05
3.34458e-05
2.72243e-05
2.17197e-05
1.45088e-05
8.72939e-06
6.43672e-07
-5.22998e-06
-1.16378e-05
-1.67317e-05
-2.15027e-05
-2.5397e-05
-2.8735e-05
-3.14044e-05
-3.32896e-05
-3.4447e-05
-3.48719e-05
-3.46652e-05
-3.37456e-05
-3.22959e-05
-3.02141e-05
-2.76775e-05
-2.46081e-05
-2.11695e-05
-1.73233e-05
-1.32005e-05
-8.79988e-06
-4.22033e-06
5.07312e-07
5.32104e-06
1.01613e-05
1.50102e-05
1.97732e-05
2.44794e-05
2.89832e-05
3.33735e-05
3.74164e-05
4.11468e-05
4.44694e-05
4.75015e-05
4.99441e-05
5.19985e-05
5.32981e-05
5.41514e-05
5.40792e-05
5.35495e-05
5.19224e-05
4.99008e-05
4.66112e-05
4.31161e-05
3.82135e-05
3.34813e-05
2.72578e-05
2.17515e-05
1.4537e-05
8.75539e-06
6.70629e-07
-5.2057e-06
-1.16211e-05
-1.67206e-05
-2.14978e-05
-2.53972e-05
-2.87405e-05
-3.1415e-05
-3.33054e-05
-3.44676e-05
-3.4897e-05
-3.46944e-05
-3.37783e-05
-3.23317e-05
-3.02524e-05
-2.77177e-05
-2.46496e-05
-2.12116e-05
-1.73651e-05
-1.32415e-05
-8.83929e-06
-4.25752e-06
4.72999e-07
5.2901e-06
1.01342e-05
1.49874e-05
1.97549e-05
2.44659e-05
2.89747e-05
3.33699e-05
3.7418e-05
4.11534e-05
4.44812e-05
4.75179e-05
4.99649e-05
5.20235e-05
5.33267e-05
5.41834e-05
5.41139e-05
5.35864e-05
5.19608e-05
4.99401e-05
4.66506e-05
4.31551e-05
3.82513e-05
3.35177e-05
2.72921e-05
2.17839e-05
1.45659e-05
8.78197e-06
6.97988e-07
-5.18097e-06
-1.16038e-05
-1.67092e-05
-2.14928e-05
-2.53975e-05
-2.87462e-05
-3.14259e-05
-3.33216e-05
-3.44888e-05
-3.49229e-05
-3.47243e-05
-3.38118e-05
-3.23683e-05
-3.02916e-05
-2.7759e-05
-2.46921e-05
-2.12547e-05
-1.7408e-05
-1.32835e-05
-8.87964e-06
-4.29559e-06
4.37867e-07
5.25841e-06
1.01065e-05
1.4964e-05
1.97363e-05
2.44521e-05
2.89659e-05
3.33663e-05
3.74196e-05
4.11603e-05
4.44932e-05
4.75348e-05
4.99863e-05
5.2049e-05
5.33561e-05
5.42161e-05
5.41495e-05
5.36243e-05
5.20002e-05
4.99805e-05
4.66911e-05
4.31952e-05
3.82901e-05
3.3555e-05
2.73273e-05
2.1817e-05
1.45953e-05
8.80913e-06
7.25749e-07
-5.15581e-06
-1.15862e-05
-1.66974e-05
-2.14876e-05
-2.53979e-05
-2.87521e-05
-3.14373e-05
-3.33384e-05
-3.45107e-05
-3.49494e-05
-3.47551e-05
-3.38461e-05
-3.24058e-05
-3.03318e-05
-2.78012e-05
-2.47356e-05
-2.12988e-05
-1.74519e-05
-1.33265e-05
-8.92092e-06
-4.33455e-06
4.01919e-07
5.22598e-06
1.00781e-05
1.49401e-05
1.97172e-05
2.4438e-05
2.89569e-05
3.33626e-05
3.74214e-05
4.11673e-05
4.45056e-05
4.75521e-05
5.00082e-05
5.20753e-05
5.33863e-05
5.42498e-05
5.4186e-05
5.36631e-05
5.20407e-05
5.00219e-05
4.67327e-05
4.32363e-05
3.83299e-05
3.35932e-05
2.73632e-05
2.18508e-05
1.46254e-05
8.83686e-06
7.53905e-07
-5.1302e-06
-1.1568e-05
-1.66854e-05
-2.14823e-05
-2.53983e-05
-2.87582e-05
-3.14489e-05
-3.33556e-05
-3.45331e-05
-3.49766e-05
-3.47865e-05
-3.38813e-05
-3.24443e-05
-3.0373e-05
-2.78445e-05
-2.47802e-05
-2.13439e-05
-1.74968e-05
-1.33705e-05
-8.96315e-06
-4.37439e-06
3.6516e-07
5.19282e-06
1.00491e-05
1.49156e-05
1.96976e-05
2.44235e-05
2.89478e-05
3.33589e-05
3.74231e-05
4.11745e-05
4.45182e-05
4.75698e-05
5.00307e-05
5.21022e-05
5.34172e-05
5.42843e-05
5.42235e-05
5.3703e-05
5.20822e-05
5.00644e-05
4.67754e-05
4.32784e-05
3.83707e-05
3.36324e-05
2.74e-05
2.18853e-05
1.4656e-05
8.86516e-06
7.82452e-07
-5.10417e-06
-1.15495e-05
-1.66732e-05
-2.1477e-05
-2.53989e-05
-2.87645e-05
-3.1461e-05
-3.33733e-05
-3.45561e-05
-3.50044e-05
-3.48188e-05
-3.39172e-05
-3.24836e-05
-3.04151e-05
-2.78887e-05
-2.48257e-05
-2.13901e-05
-1.75427e-05
-1.34154e-05
-9.00629e-06
-4.41511e-06
3.27594e-07
5.15894e-06
1.00195e-05
1.48906e-05
1.96777e-05
2.44088e-05
2.89384e-05
3.3355e-05
3.7425e-05
4.11819e-05
4.45312e-05
4.7588e-05
5.00537e-05
5.21297e-05
5.34489e-05
5.43196e-05
5.42619e-05
5.37438e-05
5.21247e-05
5.01079e-05
4.68191e-05
4.33216e-05
3.84125e-05
3.36724e-05
2.74376e-05
2.19204e-05
1.46873e-05
8.89403e-06
8.11382e-07
-5.07772e-06
-1.15304e-05
-1.66606e-05
-2.14715e-05
-2.53995e-05
-2.8771e-05
-3.14734e-05
-3.33916e-05
-3.45797e-05
-3.5033e-05
-3.48518e-05
-3.39541e-05
-3.25239e-05
-3.04581e-05
-2.79339e-05
-2.48722e-05
-2.14372e-05
-1.75896e-05
-1.34613e-05
-9.05036e-06
-4.45669e-06
2.89232e-07
5.12433e-06
9.98924e-06
1.48651e-05
1.96573e-05
2.43937e-05
2.89289e-05
3.33512e-05
3.74269e-05
4.11894e-05
4.45445e-05
4.76066e-05
5.00772e-05
5.21579e-05
5.34814e-05
5.43558e-05
5.43012e-05
5.37856e-05
5.21683e-05
5.01525e-05
4.68638e-05
4.33658e-05
3.84553e-05
3.37134e-05
2.7476e-05
2.19563e-05
1.47192e-05
8.92345e-06
8.40687e-07
-5.05086e-06
-1.1511e-05
-1.66477e-05
-2.14658e-05
-2.54001e-05
-2.87778e-05
-3.14862e-05
-3.34103e-05
-3.46038e-05
-3.50622e-05
-3.48855e-05
-3.39917e-05
-3.2565e-05
-3.0502e-05
-2.798e-05
-2.49197e-05
-2.14853e-05
-1.76375e-05
-1.35081e-05
-9.09533e-06
-4.49912e-06
2.50081e-07
5.08901e-06
9.95835e-06
1.4839e-05
1.96364e-05
2.43783e-05
2.89191e-05
3.33472e-05
3.74289e-05
4.11971e-05
4.4558e-05
4.76256e-05
5.01013e-05
5.21868e-05
5.35145e-05
5.43927e-05
5.43414e-05
5.38283e-05
5.22129e-05
5.01981e-05
4.69096e-05
4.34111e-05
3.84991e-05
3.37552e-05
2.75151e-05
2.19928e-05
1.47516e-05
8.95341e-06
8.70358e-07
-5.02359e-06
-1.14911e-05
-1.66346e-05
-2.14601e-05
-2.54009e-05
-2.87848e-05
-3.14994e-05
-3.34295e-05
-3.46286e-05
-3.50921e-05
-3.492e-05
-3.40301e-05
-3.26069e-05
-3.05468e-05
-2.80271e-05
-2.49682e-05
-2.15344e-05
-1.76863e-05
-1.35559e-05
-9.14119e-06
-4.5424e-06
2.10154e-07
5.05299e-06
9.92685e-06
1.48124e-05
1.96152e-05
2.43627e-05
2.89092e-05
3.33432e-05
3.74309e-05
4.1205e-05
4.45719e-05
4.7645e-05
5.01259e-05
5.22163e-05
5.35485e-05
5.44306e-05
5.43825e-05
5.3872e-05
5.22584e-05
5.02447e-05
4.69564e-05
4.34573e-05
3.85438e-05
3.3798e-05
2.75551e-05
2.20299e-05
1.47847e-05
8.98393e-06
9.00384e-07
-4.99593e-06
-1.14707e-05
-1.66211e-05
-2.14543e-05
-2.54017e-05
-2.8792e-05
-3.15129e-05
-3.34491e-05
-3.46539e-05
-3.51226e-05
-3.49552e-05
-3.40693e-05
-3.26497e-05
-3.05926e-05
-2.80751e-05
-2.50176e-05
-2.15844e-05
-1.7736e-05
-1.36046e-05
-9.18793e-06
-4.5865e-06
1.69465e-07
5.01628e-06
9.89474e-06
1.47854e-05
1.95935e-05
2.43467e-05
2.88991e-05
3.33391e-05
3.7433e-05
4.12131e-05
4.4586e-05
4.76648e-05
5.01511e-05
5.22463e-05
5.35831e-05
5.44692e-05
5.44245e-05
5.39167e-05
5.2305e-05
5.02924e-05
4.70043e-05
4.35045e-05
3.85895e-05
3.38416e-05
2.75958e-05
2.20677e-05
1.48183e-05
9.01497e-06
9.30754e-07
-4.96789e-06
-1.14499e-05
-1.66074e-05
-2.14483e-05
-2.54026e-05
-2.87994e-05
-3.15268e-05
-3.34693e-05
-3.46798e-05
-3.51538e-05
-3.49912e-05
-3.41093e-05
-3.26933e-05
-3.06392e-05
-2.81239e-05
-2.50679e-05
-2.16354e-05
-1.77866e-05
-1.36541e-05
-9.23552e-06
-4.63141e-06
1.28028e-07
4.97889e-06
9.86203e-06
1.47577e-05
1.95715e-05
2.43304e-05
2.88887e-05
3.33349e-05
3.74351e-05
4.12213e-05
4.46004e-05
4.76849e-05
5.01767e-05
5.2277e-05
5.36184e-05
5.45086e-05
5.44674e-05
5.39623e-05
5.23525e-05
5.0341e-05
4.70531e-05
4.35528e-05
3.86361e-05
3.3886e-05
2.76373e-05
2.21061e-05
1.48524e-05
9.04653e-06
9.61453e-07
-4.93949e-06
-1.14287e-05
-1.65935e-05
-2.14423e-05
-2.54036e-05
-2.88071e-05
-3.15411e-05
-3.34899e-05
-3.47062e-05
-3.51856e-05
-3.50278e-05
-3.41501e-05
-3.27378e-05
-3.06866e-05
-2.81737e-05
-2.51191e-05
-2.16872e-05
-1.78382e-05
-1.37046e-05
-9.28395e-06
-4.67711e-06
8.5861e-08
4.94084e-06
9.82874e-06
1.47296e-05
1.9549e-05
2.43138e-05
2.88782e-05
3.33307e-05
3.74373e-05
4.12296e-05
4.46151e-05
4.77055e-05
5.02028e-05
5.23083e-05
5.36544e-05
5.45487e-05
5.4511e-05
5.40087e-05
5.24009e-05
5.03906e-05
4.71029e-05
4.36019e-05
3.86836e-05
3.39314e-05
2.76795e-05
2.2145e-05
1.48871e-05
9.0786e-06
9.92467e-07
-4.91073e-06
-1.1407e-05
-1.65792e-05
-2.14361e-05
-2.54046e-05
-2.88149e-05
-3.15557e-05
-3.35109e-05
-3.47332e-05
-3.52181e-05
-3.50651e-05
-3.41916e-05
-3.2783e-05
-3.07349e-05
-2.82244e-05
-2.51712e-05
-2.174e-05
-1.78906e-05
-1.37559e-05
-9.3332e-06
-4.72358e-06
4.29815e-08
4.90214e-06
9.79489e-06
1.47011e-05
1.95262e-05
2.42969e-05
2.88675e-05
3.33264e-05
3.74396e-05
4.12381e-05
4.463e-05
4.77264e-05
5.02294e-05
5.23402e-05
5.36911e-05
5.45896e-05
5.45556e-05
5.40561e-05
5.24503e-05
5.04411e-05
4.71537e-05
4.36521e-05
3.87321e-05
3.39775e-05
2.77224e-05
2.21846e-05
1.49223e-05
9.11116e-06
1.02378e-06
-4.88165e-06
-1.13849e-05
-1.65647e-05
-2.14299e-05
-2.54058e-05
-2.8823e-05
-3.15706e-05
-3.35324e-05
-3.47607e-05
-3.52511e-05
-3.51031e-05
-3.42338e-05
-3.2829e-05
-3.0784e-05
-2.82758e-05
-2.52241e-05
-2.17935e-05
-1.79439e-05
-1.3808e-05
-9.38324e-06
-4.7708e-06
-5.8973e-10
4.86282e-06
9.76048e-06
1.4672e-05
1.9503e-05
2.42797e-05
2.88567e-05
3.3322e-05
3.74419e-05
4.12468e-05
4.46452e-05
4.77477e-05
5.02565e-05
5.23726e-05
5.37284e-05
5.46313e-05
5.46009e-05
5.41042e-05
5.25006e-05
5.04926e-05
4.72054e-05
4.37031e-05
3.87814e-05
3.40244e-05
2.7766e-05
2.22248e-05
1.49581e-05
9.14421e-06
1.05538e-06
-4.85225e-06
-1.13625e-05
-1.65499e-05
-2.14235e-05
-2.5407e-05
-2.88312e-05
-3.15859e-05
-3.35544e-05
-3.47888e-05
-3.52847e-05
-3.51417e-05
-3.42766e-05
-3.28757e-05
-3.08338e-05
-2.83281e-05
-2.52778e-05
-2.18479e-05
-1.79979e-05
-1.38609e-05
-9.43404e-06
-4.81874e-06
-4.48311e-08
4.82288e-06
9.72553e-06
1.46425e-05
1.94794e-05
2.42623e-05
2.88456e-05
3.33176e-05
3.74442e-05
4.12555e-05
4.46606e-05
4.77694e-05
5.0284e-05
5.24056e-05
5.37664e-05
5.46736e-05
5.4647e-05
5.41533e-05
5.25518e-05
5.0545e-05
4.72581e-05
4.37551e-05
3.88316e-05
3.40722e-05
2.78103e-05
2.22655e-05
1.49943e-05
9.17773e-06
1.08725e-06
-4.82255e-06
-1.13396e-05
-1.65349e-05
-2.1417e-05
-2.54083e-05
-2.88397e-05
-3.16015e-05
-3.35767e-05
-3.48173e-05
-3.53189e-05
-3.51809e-05
-3.43202e-05
-3.29231e-05
-3.08844e-05
-2.83811e-05
-2.53324e-05
-2.19031e-05
-1.80528e-05
-1.39146e-05
-9.48558e-06
-4.86738e-06
-8.97192e-08
4.78236e-06
9.69006e-06
1.46125e-05
1.94554e-05
2.42445e-05
2.88344e-05
3.33131e-05
3.74466e-05
4.12644e-05
4.46762e-05
4.77913e-05
5.03119e-05
5.2439e-05
5.3805e-05
5.47167e-05
5.46938e-05
5.42031e-05
5.26038e-05
5.05983e-05
4.73116e-05
4.38079e-05
3.88826e-05
3.41207e-05
2.78553e-05
2.23067e-05
1.5031e-05
9.2117e-06
1.11937e-06
-4.79257e-06
-1.13163e-05
-1.65196e-05
-2.14105e-05
-2.54097e-05
-2.88484e-05
-3.16174e-05
-3.35995e-05
-3.48463e-05
-3.53536e-05
-3.52208e-05
-3.43644e-05
-3.29712e-05
-3.09357e-05
-2.84349e-05
-2.53877e-05
-2.19591e-05
-1.81084e-05
-1.3969e-05
-9.53783e-06
-4.9167e-06
-1.3523e-07
4.74127e-06
9.6541e-06
1.45821e-05
1.94311e-05
2.42265e-05
2.8823e-05
3.33085e-05
3.74491e-05
4.12734e-05
4.46921e-05
4.78136e-05
5.03403e-05
5.2473e-05
5.38442e-05
5.47604e-05
5.47414e-05
5.42537e-05
5.26566e-05
5.06524e-05
4.7366e-05
4.38616e-05
3.89345e-05
3.41699e-05
2.79009e-05
2.23485e-05
1.50682e-05
9.24611e-06
1.15171e-06
-4.76234e-06
-1.12927e-05
-1.65041e-05
-2.14038e-05
-2.54112e-05
-2.88573e-05
-3.16337e-05
-3.36227e-05
-3.48758e-05
-3.53888e-05
-3.52612e-05
-3.44092e-05
-3.302e-05
-3.09878e-05
-2.84894e-05
-2.54437e-05
-2.20158e-05
-1.81647e-05
-1.40241e-05
-9.59075e-06
-4.96665e-06
-1.81336e-07
4.69963e-06
9.61765e-06
1.45513e-05
1.94064e-05
2.42083e-05
2.88115e-05
3.33038e-05
3.74515e-05
4.12825e-05
4.47081e-05
4.78361e-05
5.0369e-05
5.25075e-05
5.38839e-05
5.48047e-05
5.47897e-05
5.43051e-05
5.27103e-05
5.07073e-05
4.74212e-05
4.39161e-05
3.89871e-05
3.42199e-05
2.79472e-05
2.23907e-05
1.51058e-05
9.28094e-06
1.18427e-06
-4.73188e-06
-1.12687e-05
-1.64883e-05
-2.13971e-05
-2.54128e-05
-2.88663e-05
-3.16503e-05
-3.36463e-05
-3.49057e-05
-3.54246e-05
-3.53021e-05
-3.44546e-05
-3.30694e-05
-3.10404e-05
-2.85446e-05
-2.55004e-05
-2.20732e-05
-1.82218e-05
-1.40799e-05
-9.64432e-06
-5.01722e-06
-2.28011e-07
4.65748e-06
9.58074e-06
1.45201e-05
1.93815e-05
2.41898e-05
2.87998e-05
3.32991e-05
3.7454e-05
4.12918e-05
4.47244e-05
4.7859e-05
5.03981e-05
5.25424e-05
5.39241e-05
5.48496e-05
5.48386e-05
5.43572e-05
5.27647e-05
5.0763e-05
4.74773e-05
4.39714e-05
3.90405e-05
3.42705e-05
2.7994e-05
2.24334e-05
1.51438e-05
9.31618e-06
1.21702e-06
-4.70121e-06
-1.12443e-05
-1.64724e-05
-2.13903e-05
-2.54145e-05
-2.88756e-05
-3.16671e-05
-3.36703e-05
-3.49361e-05
-3.54608e-05
-3.53436e-05
-3.45006e-05
-3.31194e-05
-3.10937e-05
-2.86004e-05
-2.55578e-05
-2.21312e-05
-1.82794e-05
-1.41363e-05
-9.69851e-06
-5.06837e-06
-2.75227e-07
4.61483e-06
9.54339e-06
1.44886e-05
1.93562e-05
2.41711e-05
2.87879e-05
3.32943e-05
3.74565e-05
4.13011e-05
4.47408e-05
4.78821e-05
5.04276e-05
5.25778e-05
5.39649e-05
5.48951e-05
5.48882e-05
5.441e-05
5.28198e-05
5.08195e-05
4.75341e-05
4.40275e-05
3.90946e-05
3.43218e-05
2.80414e-05
2.24766e-05
1.51823e-05
9.3518e-06
1.24994e-06
-4.67035e-06
-1.12197e-05
-1.64563e-05
-2.13834e-05
-2.54162e-05
-2.88851e-05
-3.16843e-05
-3.36946e-05
-3.49669e-05
-3.54975e-05
-3.53856e-05
-3.45471e-05
-3.317e-05
-3.11476e-05
-2.86568e-05
-2.56157e-05
-2.21899e-05
-1.83377e-05
-1.41933e-05
-9.75327e-06
-5.12006e-06
-3.22953e-07
4.57171e-06
9.50562e-06
1.44566e-05
1.93306e-05
2.41521e-05
2.87758e-05
3.32894e-05
3.74591e-05
4.13105e-05
4.47573e-05
4.79055e-05
5.04574e-05
5.26135e-05
5.40062e-05
5.49412e-05
5.49384e-05
5.44635e-05
5.28757e-05
5.08767e-05
4.75917e-05
4.40843e-05
3.91495e-05
3.43738e-05
2.80894e-05
2.25202e-05
1.52211e-05
9.3878e-06
1.28301e-06
-4.63933e-06
-1.11947e-05
-1.64399e-05
-2.13765e-05
-2.54181e-05
-2.88947e-05
-3.17018e-05
-3.37193e-05
-3.49981e-05
-3.55346e-05
-3.54281e-05
-3.45941e-05
-3.3221e-05
-3.1202e-05
-2.87138e-05
-2.56743e-05
-2.22491e-05
-1.83966e-05
-1.42509e-05
-9.80857e-06
-5.17227e-06
-3.7116e-07
4.52816e-06
9.46746e-06
1.44243e-05
1.93047e-05
2.41329e-05
2.87637e-05
3.32845e-05
3.74617e-05
4.13199e-05
4.4774e-05
4.7929e-05
5.04875e-05
5.26497e-05
5.40479e-05
5.49878e-05
5.49892e-05
5.45175e-05
5.29322e-05
5.09347e-05
4.76499e-05
4.41418e-05
3.9205e-05
3.44263e-05
2.81379e-05
2.25642e-05
1.52604e-05
9.42415e-06
1.31621e-06
-4.60818e-06
-1.11694e-05
-1.64234e-05
-2.13695e-05
-2.54201e-05
-2.89046e-05
-3.17195e-05
-3.37444e-05
-3.50297e-05
-3.55722e-05
-3.5471e-05
-3.46416e-05
-3.32726e-05
-3.12569e-05
-2.87713e-05
-2.57334e-05
-2.23089e-05
-1.84559e-05
-1.4309e-05
-9.86437e-06
-5.22496e-06
-4.19815e-07
4.48418e-06
9.42893e-06
1.43917e-05
1.92786e-05
2.41135e-05
2.87514e-05
3.32795e-05
3.74642e-05
4.13294e-05
4.47909e-05
4.79528e-05
5.05179e-05
5.26862e-05
5.409e-05
5.50349e-05
5.50405e-05
5.45722e-05
5.29893e-05
5.09932e-05
4.77089e-05
4.42e-05
3.92612e-05
3.44795e-05
2.81869e-05
2.26085e-05
1.52999e-05
9.46084e-06
1.34951e-06
-4.57693e-06
-1.11439e-05
-1.64068e-05
-2.13625e-05
-2.54222e-05
-2.89146e-05
-3.17375e-05
-3.37697e-05
-3.50617e-05
-3.56101e-05
-3.55143e-05
-3.46895e-05
-3.33246e-05
-3.13123e-05
-2.88293e-05
-2.57929e-05
-2.23691e-05
-1.85158e-05
-1.43676e-05
-9.92064e-06
-5.2781e-06
-4.68887e-07
4.43983e-06
9.39005e-06
1.43588e-05
1.92522e-05
2.40939e-05
2.87389e-05
3.32744e-05
3.74668e-05
4.1339e-05
4.48078e-05
4.79768e-05
5.05486e-05
5.2723e-05
5.41326e-05
5.50824e-05
5.50924e-05
5.46274e-05
5.30471e-05
5.10524e-05
4.77685e-05
4.42588e-05
3.9318e-05
3.45332e-05
2.82363e-05
2.26533e-05
1.53398e-05
9.49785e-06
1.38289e-06
-4.5456e-06
-1.11181e-05
-1.639e-05
-2.13554e-05
-2.54244e-05
-2.89248e-05
-3.17557e-05
-3.37954e-05
-3.5094e-05
-3.56484e-05
-3.55581e-05
-3.47378e-05
-3.33771e-05
-3.13681e-05
-2.88877e-05
-2.58529e-05
-2.24299e-05
-1.85762e-05
-1.44267e-05
-9.97734e-06
-5.33164e-06
-5.18341e-07
4.39512e-06
9.35085e-06
1.43256e-05
1.92256e-05
2.40741e-05
2.87263e-05
3.32692e-05
3.74694e-05
4.13486e-05
4.48249e-05
4.80009e-05
5.05795e-05
5.27602e-05
5.41755e-05
5.51304e-05
5.51447e-05
5.46832e-05
5.31054e-05
5.11122e-05
4.78287e-05
4.43182e-05
3.93753e-05
3.45874e-05
2.82862e-05
2.26983e-05
1.53801e-05
9.53516e-06
1.41634e-06
-4.51422e-06
-1.10921e-05
-1.63731e-05
-2.13483e-05
-2.54267e-05
-2.89352e-05
-3.17742e-05
-3.38214e-05
-3.51266e-05
-3.5687e-05
-3.56021e-05
-3.47865e-05
-3.34299e-05
-3.14244e-05
-2.89466e-05
-2.59134e-05
-2.2491e-05
-1.86369e-05
-1.44861e-05
-1.00344e-05
-5.38556e-06
-5.68146e-07
4.35008e-06
9.31136e-06
1.42921e-05
1.91987e-05
2.40541e-05
2.87136e-05
3.3264e-05
3.7472e-05
4.13583e-05