/*--------------------------------*- C++ -*----------------------------------*\
  =========                 |
  \\      /  F ield         | OpenFOAM: The Open Source CFD Toolbox
   \\    /   O peration     | Website:  https://openfoam.org
    \\  /    A nd           | Version:  13
     \\/     M anipulation  |
\*---------------------------------------------------------------------------*/
FoamFile
{
    format      ascii;
    class       volVectorField;
    location    "0.0005";
    object      U;
}
// * * * * * * * * * * * * * * * * * * * * * * * * * * * * * * * * * * * * * //

dimensions      [0 1 -1 0 0 0 0];

internalField   nonuniform List<vector> 
1000
(
(1.6046e-13 0 0)
(1.31286e-13 0 0)
(1.45873e-13 0 0)
(1.02111e-13 0 0)
(5.83492e-14 0 0)
(2.91746e-14 0 0)
(-2.20881e-28 0 0)
(1.02111e-13 0 0)
(1.6046e-13 0 0)
(1.45873e-13 0 0)
(2.18809e-13 0 0)
(1.02111e-13 0 0)
(1.31286e-13 0 0)
(-3.15544e-28 0 0)
(-1.45873e-14 0 0)
(-2.04222e-13 0 0)
(-1.16698e-13 0 0)
(4.37619e-14 0 0)
(-4.37619e-14 0 0)
(1.16698e-13 0 0)
(8.33037e-28 0 0)
(2.33397e-13 0 0)
(1.45873e-13 0 0)
(1.45873e-13 0 0)
(1.45873e-14 0 0)
(1.02111e-13 0 0)
(2.04222e-13 0 0)
(2.04222e-13 0 0)
(1.6046e-13 0 0)
(2.04222e-13 0 0)
(1.02111e-13 0 0)
(-1.75048e-13 0 0)
(-2.47984e-13 0 0)
(-3.20921e-13 0 0)
(-2.47984e-13 0 0)
(-1.45873e-13 0 0)
(-1.6046e-13 0 0)
(-8.75238e-14 0 0)
(-2.91746e-14 0 0)
(1.02111e-13 0 0)
(-1.31286e-13 0 0)
(-1.02111e-13 0 0)
(-1.45873e-14 0 0)
(-2.91746e-14 0 0)
(1.02111e-13 0 0)
(8.48814e-28 0 0)
(1.6046e-13 0 0)
(1.45873e-13 0 0)
(1.89635e-13 0 0)
(1.45873e-14 0 0)
(1.02111e-13 0 0)
(2.04222e-13 0 0)
(2.04222e-13 0 0)
(1.6046e-13 0 0)
(2.04222e-13 0 0)
(1.02111e-13 0 0)
(-1.75048e-13 0 0)
(-2.47984e-13 0 0)
(-2.91746e-13 0 0)
(-1.6046e-13 0 0)
(-5.83492e-14 0 0)
(-1.89635e-13 0 0)
(-1.75048e-13 0 0)
(-1.75048e-13 0 0)
(2.91746e-14 0 0)
(-4.37619e-14 0 0)
(2.91746e-14 0 0)
(-2.91746e-14 0 0)
(5.83492e-14 0 0)
(3.34477e-28 0 0)
(5.08026e-28 0 0)
(1.02111e-13 0 0)
(1.89635e-13 0 0)
(2.91746e-13 0 0)
(8.75238e-14 0 0)
(7.29365e-14 0 0)
(2.91746e-14 0 0)
(4.37619e-14 0 0)
(-1.10125e-27 0 0)
(-5.83492e-14 0 0)
(-1.16698e-13 0 0)
(-2.33397e-13 0 0)
(-2.04222e-13 0 0)
(-2.18809e-13 0 0)
(-4.37619e-14 0 0)
(4.82349e-28 0 0)
(-1.02111e-13 0 0)
(-1.45873e-13 0 0)
(-2.91746e-14 0 0)
(-3.20921e-13 0 0)
(-1.16698e-13 0 0)
(-8.75238e-14 0 0)
(-1.16698e-13 0 0)
(8.75238e-14 0 0)
(-1.45873e-14 0 0)
(4.37619e-14 0 0)
(1.45873e-14 0 0)
(-1.16698e-13 0 0)
(8.75238e-14 0 0)
(-8.75238e-14 0 0)
(1.45873e-14 0 0)
(-5.83492e-14 0 0)
(7.29365e-14 0 0)
(1.02111e-13 0 0)
(1.75048e-13 0 0)
(1.75048e-13 0 0)
(-5.83492e-14 0 0)
(5.83492e-14 0 0)
(1.75048e-13 0 0)
(2.33397e-13 0 0)
(8.75238e-14 0 0)
(2.04222e-13 0 0)
(1.45873e-13 0 0)
(8.75238e-14 0 0)
(1.45873e-13 0 0)
(7.29365e-14 0 0)
(3.06333e-13 0 0)
(1.6046e-13 0 0)
(2.33397e-13 0 0)
(3.35508e-13 0 0)
(1.89635e-13 0 0)
(1.89635e-13 0 0)
(1.16698e-13 0 0)
(3.64682e-13 0 0)
(1.02111e-13 0 0)
(2.18809e-13 0 0)
(-1.45873e-14 0 0)
(-7.29365e-14 0 0)
(-4.37619e-14 0 0)
(5.83492e-14 0 0)
(-1.31286e-13 0 0)
(-1.02111e-13 0 0)
(-1.16698e-13 0 0)
(-2.77159e-13 0 0)
(-2.62571e-13 0 0)
(-2.04222e-13 0 0)
(-3.20921e-13 0 0)
(-1.6046e-13 0 0)
(-8.75238e-14 0 0)
(-1.02111e-13 0 0)
(-5.83492e-14 0 0)
(7.29365e-14 0 0)
(1.16698e-13 0 0)
(2.62571e-13 0 0)
(2.77159e-13 0 0)
(1.89635e-13 0 0)
(1.75048e-13 0 0)
(1.16698e-13 0 0)
(3.64682e-13 0 0)
(1.02111e-13 0 0)
(2.18809e-13 0 0)
(-1.45873e-14 0 0)
(-7.29365e-14 0 0)
(-4.37619e-14 0 0)
(5.83492e-14 0 0)
(-1.31286e-13 0 0)
(-1.02111e-13 0 0)
(-1.16698e-13 0 0)
(-2.77159e-13 0 0)
(-2.62571e-13 0 0)
(-2.04222e-13 0 0)
(-3.20921e-13 0 0)
(-1.6046e-13 0 0)
(-8.75238e-14 0 0)
(-1.16698e-13 0 0)
(-1.45873e-13 0 0)
(1.45873e-14 0 0)
(1.02111e-13 0 0)
(1.89635e-13 0 0)
(2.77159e-13 0 0)
(1.89635e-13 0 0)
(1.02111e-13 0 0)
(4.37619e-14 0 0)
(2.77159e-13 0 0)
(1.31286e-13 0 0)
(2.62571e-13 0 0)
(1.6046e-13 0 0)
(1.02111e-13 0 0)
(5.83492e-14 0 0)
(-4.37619e-14 0 0)
(-2.91746e-13 0 0)
(-2.91746e-13 0 0)
(-3.06333e-13 0 0)
(-2.77159e-13 0 0)
(-8.75238e-14 0 0)
(-1.31286e-13 0 0)
(-2.04222e-13 0 0)
(-2.04222e-13 0 0)
(-1.45873e-13 0 0)
(-1.75048e-13 0 0)
(4.37619e-14 0 0)
(1.45873e-14 0 0)
(-4.37619e-14 0 0)
(-2.33397e-13 0 0)
(-1.31286e-13 0 0)
(-7.57646e-29 0 0)
(-1.26218e-29 0 0)
(1.02111e-13 0 0)
(2.47984e-13 0 0)
(1.51358e-28 0 0)
(2.18809e-13 0 0)
(1.45873e-14 0 0)
(7.29365e-14 0 0)
(1.31286e-13 0 0)
(7.29365e-14 0 0)
(-5.83492e-14 0 0)
(1.02111e-13 0 0)
(-2.91746e-14 0 0)
(-1.16698e-13 0 0)
(-4.37619e-14 0 0)
(-1.67239e-28 0 0)
(1.45873e-14 0 0)
(4.76472e-28 0 0)
(5.83492e-14 0 0)
(1.45873e-14 0 0)
(1.75048e-13 0 0)
(2.77159e-13 0 0)
(1.31286e-13 0 0)
(3.35508e-13 0 0)
(4.08444e-13 0 0)
(1.16698e-13 0 0)
(-8.75238e-14 0 0)
(-1.31286e-13 0 0)
(1.45873e-14 0 0)
(-8.75238e-14 0 0)
(1.45873e-14 0 0)
(2.90301e-28 0 0)
(7.29365e-14 0 0)
(-1.6046e-13 0 0)
(-7.29365e-14 0 0)
(-1.89635e-13 0 0)
(-4.37619e-14 0 0)
(-1.89635e-13 0 0)
(-1.16698e-13 0 0)
(-1.45873e-13 0 0)
(-3.7927e-13 0 0)
(-1.75048e-13 0 0)
(-2.47984e-13 0 0)
(-3.93857e-13 0 0)
(-4.23032e-13 0 0)
(-4.52206e-13 0 0)
(-2.91746e-13 0 0)
(-3.50095e-13 0 0)
(-3.50095e-13 0 0)
(-3.50095e-13 0 0)
(-1.89635e-13 0 0)
(-2.04222e-13 0 0)
(-7.29365e-14 0 0)
(1.02111e-13 0 0)
(-2.04222e-13 0 0)
(7.29365e-14 0 0)
(-1.89635e-13 0 0)
(-2.47984e-13 0 0)
(-1.16698e-13 0 0)
(-1.45873e-13 0 0)
(1.45873e-13 0 0)
(-2.91746e-14 0 0)
(-7.29365e-14 0 0)
(1.45873e-14 0 0)
(-7.29365e-14 0 0)
(-1.02111e-13 0 0)
(-1.02111e-13 0 0)
(4.37619e-14 0 0)
(4.37619e-14 0 0)
(1.45873e-13 0 0)
(9.15079e-29 0 0)
(-1.31286e-13 0 0)
(-2.91746e-14 0 0)
(-7.29365e-14 0 0)
(1.45873e-13 0 0)
(1.6046e-13 0 0)
(1.31286e-13 0 0)
(1.16698e-13 0 0)
(4.37619e-14 0 0)
(-1.6046e-13 0 0)
(-4.37619e-14 0 0)
(-2.33397e-13 0 0)
(-1.45873e-14 0 0)
(-7.29365e-14 0 0)
(1.02111e-13 0 0)
(-1.45873e-14 0 0)
(2.47984e-13 0 0)
(2.91746e-13 0 0)
(1.02111e-13 0 0)
(1.16698e-13 0 0)
(2.91746e-13 0 0)
(3.35508e-13 0 0)
(3.06333e-13 0 0)
(4.66793e-13 0 0)
(2.62571e-13 0 0)
(4.66793e-13 0 0)
(3.93857e-13 0 0)
(5.25143e-13 0 0)
(4.23032e-13 0 0)
(2.47984e-13 0 0)
(2.47984e-13 0 0)
(1.6046e-13 0 0)
(1.31286e-13 0 0)
(3.35508e-13 0 0)
(1.89635e-13 0 0)
(3.64682e-13 0 0)
(3.35508e-13 0 0)
(2.47984e-13 0 0)
(4.23032e-13 0 0)
(2.91746e-14 0 0)
(3.20921e-13 0 0)
(2.33397e-13 0 0)
(-1.45873e-14 0 0)
(1.89635e-13 0 0)
(1.45873e-13 0 0)
(2.62571e-13 0 0)
(2.62571e-13 0 0)
(-1.45873e-14 0 0)
(3.7927e-13 0 0)
(1.75048e-13 0 0)
(2.77159e-13 0 0)
(7.29365e-14 0 0)
(1.02111e-13 0 0)
(-1.45873e-13 0 0)
(1.16698e-13 0 0)
(-1.75048e-13 0 0)
(-1.7986e-28 0 0)
(-1.6046e-13 0 0)
(-1.45873e-14 0 0)
(-2.47984e-13 0 0)
(-1.75048e-13 0 0)
(-1.75048e-13 0 0)
(-2.91746e-14 0 0)
(-4.37619e-14 0 0)
(1.45873e-14 0 0)
(1.45873e-13 0 0)
(2.18809e-13 0 0)
(-1.31286e-13 0 0)
(2.91746e-14 0 0)
(8.75238e-14 0 0)
(4.37619e-14 0 0)
(2.33397e-13 0 0)
(-4.37619e-14 0 0)
(2.62571e-13 0 0)
(1.45873e-13 0 0)
(2.18809e-13 0 0)
(1.16698e-13 0 0)
(2.91746e-14 0 0)
(-2.18809e-13 0 0)
(-2.91746e-14 0 0)
(2.91746e-14 0 0)
(5.83492e-14 0 0)
(-8.75238e-14 0 0)
(1.16698e-13 0 0)
(-4.37619e-14 0 0)
(1.16698e-13 0 0)
(-1.02111e-13 0 0)
(-1.48306e-28 0 0)
(-8.75238e-14 0 0)
(1.70394e-28 0 0)
(2.91746e-14 0 0)
(-1.89635e-13 0 0)
(-4.37619e-14 0 0)
(-7.29365e-14 0 0)
(1.31286e-13 0 0)
(-1.45873e-14 0 0)
(1.02111e-13 0 0)
(-8.75238e-14 0 0)
(2.04222e-13 0 0)
(-5.83492e-14 0 0)
(1.75048e-13 0 0)
(-2.91746e-14 0 0)
(1.45873e-14 0 0)
(2.52435e-28 0 0)
(-1.45873e-14 0 0)
(-1.45873e-13 0 0)
(-1.16698e-13 0 0)
(-7.29365e-14 0 0)
(7.29365e-14 0 0)
(-1.02111e-13 0 0)
(1.45873e-14 0 0)
(-1.16698e-13 0 0)
(-1.45873e-13 0 0)
(-5.83492e-14 0 0)
(-1.89635e-13 0 0)
(7.29365e-14 0 0)
(-1.45873e-14 0 0)
(-1.45873e-14 0 0)
(-8.75238e-14 0 0)
(5.83492e-14 0 0)
(5.83492e-14 0 0)
(-2.59247e-28 0 0)
(-1.6046e-13 0 0)
(-1.45873e-14 0 0)
(-1.6046e-13 0 0)
(-4.37619e-14 0 0)
(-1.02111e-13 0 0)
(2.91746e-14 0 0)
(1.45873e-14 0 0)
(-1.02111e-13 0 0)
(-1.31286e-13 0 0)
(-2.91746e-13 0 0)
(-1.16698e-13 0 0)
(-1.75048e-13 0 0)
(-4.81381e-13 0 0)
(-2.47984e-13 0 0)
(-2.77159e-13 0 0)
(-9.24545e-28 0 0)
(-3.20921e-13 0 0)
(-2.04222e-13 0 0)
(-3.64682e-13 0 0)
(-1.45873e-13 0 0)
(1.26218e-29 0 0)
(-1.31286e-13 0 0)
(8.75238e-14 0 0)
(2.91746e-14 0 0)
(1.89635e-13 0 0)
(1.89635e-13 0 0)
(2.47984e-13 0 0)
(1.45873e-13 0 0)
(1.75048e-13 0 0)
(2.33397e-13 0 0)
(1.6046e-13 0 0)
(7.29365e-14 0 0)
(7.29365e-14 0 0)
(9.17698e-29 0 0)
(7.29365e-14 0 0)
(1.16698e-13 0 0)
(2.18809e-13 0 0)
(-1.6046e-13 0 0)
(-1.45873e-14 0 0)
(-1.31286e-13 0 0)
(-7.29365e-14 0 0)
(-2.62571e-13 0 0)
(-1.45873e-13 0 0)
(5.83492e-14 0 0)
(4.37619e-14 0 0)
(1.16698e-13 0 0)
(1.16698e-13 0 0)
(1.02111e-13 0 0)
(5.10555e-13 0 0)
(-5.83492e-14 0 0)
(1.6046e-13 0 0)
(7.29365e-14 0 0)
(3.20921e-13 0 0)
(1.75048e-13 0 0)
(4.23032e-13 0 0)
(3.20921e-13 0 0)
(4.81381e-13 0 0)
(5.3973e-13 0 0)
(2.47984e-13 0 0)
(7.43952e-13 0 0)
(1.89635e-12 0 0)
(6.28712e-12 0 0)
(2.25374e-11 0 0)
(7.82463e-11 0 0)
(2.67735e-10 0 0)
(9.03012e-10 0 0)
(2.9977e-09 0 0)
(9.78955e-09 0 0)
(3.14368e-08 0 0)
(9.92083e-08 0 0)
(3.07481e-07 0 0)
(9.35309e-07 0 0)
(2.79025e-06 0 0)
(8.15728e-06 0 0)
(2.33506e-05 0 0)
(6.53894e-05 0 0)
(0.000178959 0 0)
(0.000478159 0 0)
(0.00124586 0 0)
(0.00316152 0 0)
(0.00780291 0 0)
(0.0187022 0 0)
(0.043459 0 0)
(0.0977273 0 0)
(0.212233 0 0)
(0.44411 0 0)
(0.89322 0 0)
(1.72193 0 0)
(3.17194 0 0)
(5.56357 0 0)
(9.25211 0 0)
(14.5114 0 0)
(21.3905 0 0)
(29.6812 0 0)
(39.0312 0 0)
(49.0935 0 0)
(59.6128 0 0)
(70.4324 0 0)
(81.4628 0 0)
(92.6482 0 0)
(103.946 0 0)
(115.318 0 0)
(126.724 0 0)
(138.126 0 0)
(149.482 0 0)
(160.747 0 0)
(171.876 0 0)
(182.818 0 0)
(193.522 0 0)
(203.931 0 0)
(213.99 0 0)
(223.639 0 0)
(232.82 0 0)
(241.481 0 0)
(249.575 0 0)
(257.071 0 0)
(263.959 0 0)
(270.244 0 0)
(275.947 0 0)
(281.091 0 0)
(285.688 0 0)
(289.727 0 0)
(293.176 0 0)
(295.987 0 0)
(298.115 0 0)
(299.53 0 0)
(300.228 0 0)
(300.231 0 0)
(299.582 0 0)
(298.337 0 0)
(296.551 0 0)
(294.262 0 0)
(291.475 0 0)
(288.139 0 0)
(284.137 0 0)
(279.265 0 0)
(273.221 0 0)
(265.58 0 0)
(255.756 0 0)
(242.924 0 0)
(225.88 0 0)
(202.787 0 0)
(170.969 0 0)
(127.855 0 0)
(76.5813 0 0)
(33.0885 0 0)
(10.4398 0 0)
(2.71818 0 0)
(0.646946 0 0)
(0.14878 0 0)
(0.0338166 0 0)
(0.00764414 0 0)
(0.00172065 0 0)
(0.000385716 0 0)
(8.61008e-05 0 0)
(1.91355e-05 0 0)
(4.23346e-06 0 0)
(9.3219e-07 0 0)
(2.04267e-07 0 0)
(4.45359e-08 0 0)
(9.66012e-09 0 0)
(2.08421e-09 0 0)
(4.47233e-10 0 0)
(9.5474e-11 0 0)
(2.02764e-11 0 0)
(4.20115e-12 0 0)
(8.31477e-13 0 0)
(2.04222e-13 0 0)
(2.91746e-14 0 0)
(-4.66095e-30 0 0)
(-2.91746e-14 0 0)
(-7.29366e-14 0 0)
(-5.83493e-14 0 0)
(1.02111e-13 0 0)
(2.91746e-14 0 0)
(-1.31286e-13 0 0)
(-1.45873e-13 0 0)
(1.16699e-13 0 0)
(7.29366e-14 0 0)
(-2.91746e-14 0 0)
(2.91746e-14 0 0)
(4.3762e-14 0 0)
(-1.45873e-14 0 0)
(8.75239e-14 0 0)
(7.10141e-30 0 0)
(7.29366e-14 0 0)
(1.08568e-28 0 0)
(2.91746e-14 0 0)
(-1.02111e-13 0 0)
(-5.83493e-14 0 0)
(-1.02111e-13 0 0)
(1.45873e-14 0 0)
(-1.45873e-14 0 0)
(-7.29366e-14 0 0)
(4.3762e-14 0 0)
(4.3762e-14 0 0)
(-2.04222e-13 0 0)
(-4.3762e-14 0 0)
(-7.29366e-14 0 0)
(-1.45873e-13 0 0)
(1.02111e-13 0 0)
(-8.75239e-14 0 0)
(1.31286e-13 0 0)
(2.91746e-14 0 0)
(1.31286e-13 0 0)
(1.45873e-14 0 0)
(2.91746e-14 0 0)
(-1.67239e-28 0 0)
(8.75239e-14 0 0)
(2.62572e-13 0 0)
(7.29366e-14 0 0)
(4.3762e-14 0 0)
(-1.31286e-13 0 0)
(-1.02111e-13 0 0)
(1.45873e-13 0 0)
(-2.91746e-14 0 0)
(1.6046e-13 0 0)
(-1.31286e-13 0 0)
(7.29366e-14 0 0)
(5.83493e-14 0 0)
(-1.75048e-13 0 0)
(-1.31286e-13 0 0)
(-1.6046e-13 0 0)
(-2.91746e-13 0 0)
(-1.75048e-13 0 0)
(-2.77159e-13 0 0)
(2.91746e-14 0 0)
(-2.77159e-13 0 0)
(-1.45873e-13 0 0)
(-1.89635e-13 0 0)
(-1.45873e-13 0 0)
(-1.89635e-13 0 0)
(-1.45873e-14 0 0)
(-1.16699e-13 0 0)
(5.83493e-14 0 0)
(2.91746e-14 0 0)
(8.75239e-14 0 0)
(1.45873e-14 0 0)
(2.91746e-14 0 0)
(-2.33397e-13 0 0)
(-8.75239e-14 0 0)
(4.3762e-14 0 0)
(7.29366e-14 0 0)
(1.31286e-13 0 0)
(1.02111e-13 0 0)
(2.1881e-13 0 0)
(1.45873e-14 0 0)
(-1.02111e-13 0 0)
(-1.27853e-28 0 0)
(-5.83493e-14 0 0)
(-1.45873e-14 0 0)
(5.83493e-14 0 0)
(1.45873e-13 0 0)
(3.7927e-13 0 0)
(2.62572e-13 0 0)
(2.47984e-13 0 0)
(2.62572e-13 0 0)
(1.75048e-13 0 0)
(2.1881e-13 0 0)
(5.15042e-28 0 0)
(2.91746e-14 0 0)
(3.50096e-13 0 0)
(1.02111e-13 0 0)
(1.75048e-13 0 0)
(-8.75239e-14 0 0)
(-7.29366e-14 0 0)
(7.29366e-14 0 0)
(-2.91746e-14 0 0)
(-4.3762e-14 0 0)
(3.09233e-28 0 0)
(-1.75048e-13 0 0)
(-8.75239e-14 0 0)
(-8.75239e-14 0 0)
(2.91746e-14 0 0)
(2.1881e-13 0 0)
(4.3762e-14 0 0)
(2.04222e-13 0 0)
(1.02111e-13 0 0)
(1.45873e-13 0 0)
(8.75239e-14 0 0)
(1.02111e-13 0 0)
(-4.3762e-14 0 0)
(-1.31286e-13 0 0)
(-1.45873e-13 0 0)
(-2.1881e-13 0 0)
(-1.16699e-13 0 0)
(-2.1881e-13 0 0)
(-1.75048e-13 0 0)
(-1.45873e-14 0 0)
(-8.75239e-14 0 0)
(1.45873e-14 0 0)
(-1.45873e-14 0 0)
(-1.45873e-13 0 0)
(5.83493e-14 0 0)
(8.75239e-14 0 0)
(-4.3762e-14 0 0)
(4.3762e-14 0 0)
(-2.04222e-13 0 0)
(8.75239e-14 0 0)
(-1.45873e-14 0 0)
(1.31286e-13 0 0)
(2.77159e-13 0 0)
(1.16699e-13 0 0)
(2.04222e-13 0 0)
(-1.75048e-13 0 0)
(-1.6046e-13 0 0)
(-2.33397e-13 0 0)
(4.3762e-14 0 0)
(-1.16699e-13 0 0)
(-1.6046e-13 0 0)
(-2.91746e-14 0 0)
(-1.45873e-14 0 0)
(-3.20921e-13 0 0)
(-4.3762e-14 0 0)
(-4.81381e-13 0 0)
(-1.6046e-13 0 0)
(-2.77159e-13 0 0)
(-1.75048e-13 0 0)
(-1.45873e-13 0 0)
(-2.04222e-13 0 0)
(4.3762e-14 0 0)
(3.35508e-13 0 0)
(-5.83493e-14 0 0)
(-2.91746e-14 0 0)
(-1.02111e-13 0 0)
(-1.45873e-13 0 0)
(-2.04222e-13 0 0)
(-2.04222e-13 0 0)
(-1.45873e-13 0 0)
(-4.3762e-14 0 0)
(2.91746e-14 0 0)
(2.77159e-13 0 0)
(1.45873e-14 0 0)
(2.1881e-13 0 0)
(2.91746e-14 0 0)
(-7.29366e-14 0 0)
(2.91746e-14 0 0)
(8.75239e-14 0 0)
(3.20921e-13 0 0)
(2.77159e-13 0 0)
(1.75048e-13 0 0)
(1.31286e-13 0 0)
(-4.3762e-14 0 0)
(1.31286e-13 0 0)
(-1.6046e-13 0 0)
(1.45873e-13 0 0)
(2.1881e-13 0 0)
(2.91746e-13 0 0)
(1.6046e-13 0 0)
(-1.45873e-14 0 0)
(-2.47984e-13 0 0)
(-1.45873e-13 0 0)
(-2.77159e-13 0 0)
(-2.91746e-13 0 0)
(-1.16699e-13 0 0)
(-8.75239e-14 0 0)
(7.29366e-14 0 0)
(-1.45873e-14 0 0)
(-2.1881e-13 0 0)
(-8.75239e-14 0 0)
(-2.47984e-13 0 0)
(1.75048e-13 0 0)
(-1.02111e-13 0 0)
(3.06334e-13 0 0)
(-1.6046e-13 0 0)
(1.16699e-13 0 0)
(1.45873e-14 0 0)
(1.31286e-13 0 0)
(-1.45873e-14 0 0)
(-1.31286e-13 0 0)
(-2.91746e-14 0 0)
(1.45873e-14 0 0)
(-1.6046e-13 0 0)
(-1.6046e-13 0 0)
(-8.75239e-14 0 0)
(-1.45873e-13 0 0)
(8.75239e-14 0 0)
(-7.29366e-14 0 0)
(7.29366e-14 0 0)
(-5.83493e-14 0 0)
(-8.75239e-14 0 0)
(-3.50096e-13 0 0)
(-1.89635e-13 0 0)
(-2.04222e-13 0 0)
(-7.29366e-14 0 0)
(-1.45873e-13 0 0)
(2.62572e-13 0 0)
(-2.1881e-13 0 0)
(1.45873e-13 0 0)
(1.45873e-14 0 0)
(1.75048e-13 0 0)
(1.02111e-13 0 0)
(-8.75239e-14 0 0)
(-2.91746e-14 0 0)
(-5.83493e-14 0 0)
(5.83493e-14 0 0)
(1.02111e-13 0 0)
(1.45873e-14 0 0)
(1.31286e-13 0 0)
(1.89635e-13 0 0)
(-2.91746e-14 0 0)
(2.91746e-13 0 0)
(2.62572e-13 0 0)
(3.35508e-13 0 0)
(4.23032e-13 0 0)
(1.45873e-13 0 0)
(2.04222e-13 0 0)
(-7.29366e-14 0 0)
(-2.91746e-14 0 0)
(1.45873e-14 0 0)
(-7.29366e-14 0 0)
(1.45873e-14 0 0)
(-2.77159e-13 0 0)
(-2.17726e-28 0 0)
(-4.3762e-14 0 0)
(1.75048e-13 0 0)
(1.16699e-13 0 0)
(-8.75239e-14 0 0)
(-1.11703e-27 0 0)
(-1.45873e-14 0 0)
(2.11415e-28 0 0)
(1.31286e-13 0 0)
(1.75048e-13 0 0)
(5.83493e-14 0 0)
(-4.3762e-14 0 0)
(-1.75048e-13 0 0)
(-2.33397e-13 0 0)
(-3.35508e-13 0 0)
(-1.75048e-13 0 0)
(-1.6046e-13 0 0)
(-1.75048e-13 0 0)
(-2.91746e-14 0 0)
(-8.75239e-14 0 0)
(-8.75239e-14 0 0)
(-2.04222e-13 0 0)
(-1.6046e-13 0 0)
(-1.16699e-13 0 0)
(-2.62572e-13 0 0)
(2.1881e-13 0 0)
(-1.16699e-13 0 0)
(1.02111e-13 0 0)
(-1.16699e-13 0 0)
(1.75048e-13 0 0)
(7.29366e-14 0 0)
(2.77159e-13 0 0)
(3.64683e-13 0 0)
(3.64683e-13 0 0)
(5.83493e-14 0 0)
(1.89635e-13 0 0)
(-1.02111e-13 0 0)
(-1.45873e-14 0 0)
(5.83493e-14 0 0)
(-4.3762e-14 0 0)
(-1.45873e-13 0 0)
(1.16699e-13 0 0)
(-8.75239e-14 0 0)
(2.91746e-14 0 0)
(-3.06334e-13 0 0)
(-1.31286e-13 0 0)
(-2.77159e-13 0 0)
(-2.33397e-13 0 0)
(-1.89635e-13 0 0)
(-2.33397e-13 0 0)
(1.89635e-13 0 0)
(-1.16699e-13 0 0)
(1.02111e-13 0 0)
(-1.16699e-13 0 0)
(1.75048e-13 0 0)
(7.29366e-14 0 0)
(2.77159e-13 0 0)
(3.64683e-13 0 0)
(3.64683e-13 0 0)
(5.83493e-14 0 0)
(1.89635e-13 0 0)
(-1.02111e-13 0 0)
(-1.45873e-14 0 0)
(5.83493e-14 0 0)
(-4.3762e-14 0 0)
(-1.45873e-13 0 0)
(1.16699e-13 0 0)
(-8.75239e-14 0 0)
(2.91746e-14 0 0)
(-3.06334e-13 0 0)
(-1.31286e-13 0 0)
(-2.77159e-13 0 0)
(-2.33397e-13 0 0)
(-1.89635e-13 0 0)
(-2.33397e-13 0 0)
(1.89635e-13 0 0)
(-1.16699e-13 0 0)
(1.02111e-13 0 0)
(-1.16699e-13 0 0)
(1.75048e-13 0 0)
(7.29366e-14 0 0)
(2.1881e-13 0 0)
(3.06334e-13 0 0)
(3.06334e-13 0 0)
(-5.83493e-14 0 0)
(5.83493e-14 0 0)
(1.45873e-14 0 0)
(4.3762e-14 0 0)
(5.83493e-14 0 0)
(4.3762e-14 0 0)
(1.6046e-13 0 0)
(2.33397e-13 0 0)
(-8.75239e-14 0 0)
(1.02111e-13 0 0)
(1.31286e-13 0 0)
(1.16699e-13 0 0)
(2.91746e-14 0 0)
(5.83493e-14 0 0)
(7.29366e-14 0 0)
(-7.29366e-14 0 0)
(2.04222e-13 0 0)
(3.35508e-13 0 0)
(4.95969e-13 0 0)
(5.83493e-13 0 0)
(2.91746e-13 0 0)
(4.81381e-13 0 0)
(2.62572e-13 0 0)
(2.04222e-13 0 0)
(4.3762e-14 0 0)
(2.62572e-13 0 0)
(1.31286e-13 0 0)
(-1.45873e-14 0 0)
(-4.08445e-13 0 0)
(-4.08445e-13 0 0)
(-3.7927e-13 0 0)
(-2.33397e-13 0 0)
(-2.33397e-13 0 0)
(-2.1881e-13 0 0)
(4.3762e-14 0 0)
(-2.1881e-13 0 0)
(-1.75048e-13 0 0)
(-3.06334e-13 0 0)
(-4.81381e-13 0 0)
(-3.64683e-13 0 0)
(-2.04222e-13 0 0)
(5.83493e-14 0 0)
(7.29366e-14 0 0)
(3.06334e-13 0 0)
(5.83493e-14 0 0)
(4.3762e-14 0 0)
(-2.77436e-28 0 0)
(-8.75239e-14 0 0)
(-1.31286e-13 0 0)
(-5.83493e-14 0 0)
(1.02111e-13 0 0)
(5.83493e-14 0 0)
(4.3762e-14 0 0)
(1.6046e-13 0 0)
(-2.91746e-14 0 0)
(-8.75239e-14 0 0)
(-1.31286e-13 0 0)
(-2.33397e-13 0 0)
(-1.45873e-13 0 0)
(-2.62572e-13 0 0)
(-2.33397e-13 0 0)
(-1.75048e-13 0 0)
(-1.16699e-13 0 0)
(-2.1881e-13 0 0)
(-1.31286e-13 0 0)
(-1.31286e-13 0 0)
(-5.83493e-14 0 0)
(1.45873e-13 0 0)
(4.08445e-13 0 0)
(3.64683e-13 0 0)
(1.89635e-13 0 0)
(3.50096e-13 0 0)
(4.3762e-14 0 0)
(7.29366e-14 0 0)
(1.31286e-13 0 0)
(1.45873e-13 0 0)
(1.45873e-13 0 0)
(-7.29366e-14 0 0)
(7.29366e-14 0 0)
(-1.16699e-13 0 0)
(-4.3762e-14 0 0)
(-1.31286e-13 0 0)
(-2.33397e-13 0 0)
(-1.45873e-13 0 0)
(-2.62572e-13 0 0)
(-2.33397e-13 0 0)
(-1.75048e-13 0 0)
(-1.16699e-13 0 0)
(-2.1881e-13 0 0)
(-1.31286e-13 0 0)
(-1.31286e-13 0 0)
(-5.83493e-14 0 0)
(5.83493e-14 0 0)
(4.08445e-13 0 0)
(3.20921e-13 0 0)
(2.91746e-13 0 0)
(4.23032e-13 0 0)
(1.75048e-13 0 0)
(2.04222e-13 0 0)
(3.50096e-13 0 0)
(4.23032e-13 0 0)
(5.54318e-13 0 0)
(4.52207e-13 0 0)
(3.50096e-13 0 0)
(1.75048e-13 0 0)
(2.91746e-14 0 0)
(8.75239e-14 0 0)
(8.75239e-14 0 0)
(-5.83493e-14 0 0)
(2.77159e-13 0 0)
(5.83493e-14 0 0)
(-7.29366e-14 0 0)
(-7.29366e-14 0 0)
(-3.06334e-13 0 0)
(-7.29366e-14 0 0)
(1.02111e-13 0 0)
)
;

boundaryField
{
    sides
    {
        type            zeroGradient;
    }
    empty
    {
        type            empty;
    }
}


// ************************************************************************* //
