/*--------------------------------*- C++ -*----------------------------------*\
  =========                 |
  \\      /  F ield         | OpenFOAM: The Open Source CFD Toolbox
   \\    /   O peration     | Website:  https://openfoam.org
    \\  /    A nd           | Version:  13
     \\/     M anipulation  |
\*---------------------------------------------------------------------------*/
FoamFile
{
    format      ascii;
    class       volSymmTensorField;
    location    "18.698344";
    object      UPrime2Mean;
}
// * * * * * * * * * * * * * * * * * * * * * * * * * * * * * * * * * * * * * //

dimensions      [0 2 -2 0 0 0 0];

internalField   nonuniform List<symmTensor> 
17140
(
(4.0929763e-12 -2.7494728e-10 -2.1874295e-27 1.9493292e-08 3.7991135e-26 1.1455051e-40)
(2.0768227e-10 -3.3093144e-09 -1.1738897e-27 1.8552896e-07 8.6912009e-27 1.017772e-42)
(1.764913e-09 -1.2000184e-08 2.0202691e-25 5.6319333e-07 -9.3050372e-25 4.436921e-39)
(8.2357323e-09 -3.045404e-08 -4.4594463e-25 1.212757e-06 1.4465801e-24 5.3622653e-39)
(2.752206e-08 -6.4185708e-08 9.1237169e-26 2.2070439e-06 -2.236909e-25 7.3284009e-41)
(7.5456943e-08 -1.2060279e-07 -4.8085314e-25 3.6330551e-06 9.3049081e-25 7.8496795e-40)
(1.8146022e-07 -2.0916135e-07 -1.2347365e-24 5.5934324e-06 1.9361117e-24 2.2249106e-39)
(3.9735848e-07 -3.4134767e-07 8.8445177e-25 8.207577e-06 -1.1439572e-24 5.303e-40)
(8.1090539e-07 -5.3030913e-07 4.1263901e-24 1.161211e-05 -4.4589602e-24 5.6814982e-39)
(1.5659937e-06 -7.8988363e-07 1.4102836e-23 1.5960306e-05 -1.2856232e-23 3.4180629e-38)
(2.8921449e-06 -1.1326878e-06 -2.8616166e-23 2.142e-05 2.2172683e-23 7.5160113e-38)
(5.1465177e-06 -1.5668618e-06 3.4385306e-23 2.8169375e-05 -2.2777342e-23 5.9693658e-38)
(8.8722381e-06 -2.0909978e-06 7.0096495e-24 3.6389964e-05 -3.9878266e-24 1.398494e-39)
(1.4877082e-05 -2.6867816e-06 -5.2232175e-23 4.6256176e-05 2.562001e-23 4.473384e-38)
(2.4336251e-05 -3.3090565e-06 7.5722076e-24 5.792076e-05 -3.2107953e-24 5.5144482e-40)
(3.8921761e-05 -3.8734227e-06 -7.7673353e-23 7.1495863e-05 2.8535928e-23 3.4600559e-38)
(6.0958412e-05 -4.2422968e-06 3.7137779e-24 8.7029824e-05 -1.1841413e-24 4.7921558e-41)
(9.3602623e-05 -4.2117381e-06 -1.0637288e-24 0.00010448067 2.9415102e-25 2.399355e-42)
(0.00014103538 -3.5031578e-06 -9.540665e-23 0.00012368833 2.29545e-23 1.2068532e-38)
(0.00020865751 -1.7662387e-06 1.5550595e-22 0.00014434888 -3.2520307e-23 2.0234916e-38)
(0.0003032757 1.3988529e-06 -9.3417397e-23 0.00016599587 1.6974166e-23 4.6727347e-39)
(0.00043327641 6.3921749e-06 2.2031224e-23 0.00018799538 -3.4791324e-24 1.691312e-40)
(0.00060880561 1.3534597e-05 1.9902594e-22 0.00020956352 -2.7255412e-23 9.1036395e-39)
(0.00084202937 2.2965679e-05 -2.408878e-22 0.00022981753 2.8598069e-23 8.9541316e-39)
(0.0011476839 3.4542201e-05 -4.6095491e-22 0.0002478731 4.7378686e-23 2.2416213e-38)
(0.001543525 4.7807401e-05 4.4090555e-22 0.00026299868 -3.9199653e-23 1.4289405e-38)
(0.0020505672 6.2193622e-05 2.5544018e-21 0.00027481408 -1.961799e-22 3.4025762e-37)
(0.0026967237 7.6996997e-05 3.5196757e-22 0.00028344298 -2.3320272e-23 4.6652186e-39)
(0.0035178713 9.1536149e-05 -3.5805049e-21 0.00028950106 2.0471084e-22 3.5578276e-37)
(0.004556096 0.00010639359 -9.6433712e-22 0.00029390984 4.7511491e-23 1.9294265e-38)
(0.005864625 0.00012169868 -3.9373116e-21 0.00029748509 1.669955e-22 2.4443206e-37)
(0.0075101734 0.00013628715 5.8961785e-21 0.00030033097 -2.1480803e-22 4.2246728e-37)
(0.0095735537 0.00014881538 -1.740066e-21 0.0003018397 5.4192827e-23 2.8680243e-38)
(0.012154767 0.0001578619 -9.366652e-22 0.0003012664 2.4809326e-23 6.5629452e-39)
(0.015375532 0.00016306693 -1.0339547e-20 0.00029847842 2.3047301e-22 6.3690407e-37)
(0.019377178 0.00016373898 5.0688231e-21 0.00029333817 -9.4227533e-23 1.2339641e-37)
(0.024323078 0.0001589746 -8.501335e-21 0.00028555622 1.2978613e-22 2.8213943e-37)
(0.030397009 0.00014785291 -6.3710214e-21 0.00027485644 7.8360758e-23 1.3015221e-37)
(0.037797673 0.00012937199 -3.2139458e-21 0.00026104923 3.0958249e-23 2.7467352e-38)
(0.046728348 0.00010284398 1.0662737e-20 0.00024414602 -7.7212127e-23 2.5364618e-37)
(0.05737957 6.8097786e-05 2.1907353e-20 0.00022452629 -1.1109848e-22 9.0646235e-37)
(0.069904622 2.6290977e-05 2.1498506e-20 0.00020304514 -6.6694495e-23 7.4717516e-37)
(0.084389425 -2.0332801e-05 1.0080215e-20 0.00018101048 -1.3160059e-23 1.422138e-37)
(0.10082951 -6.8012684e-05 -5.235884e-20 0.00016009961 -1.7784001e-23 3.3550896e-36)
(0.11912871 -0.00011198576 -4.0538836e-20 0.0001422318 -7.5228882e-23 1.7822149e-36)
(0.13911416 -0.00015060359 1.0463607e-20 0.0001287708 3.4107815e-23 1.0667004e-37)
(0.16064278 -0.0001851638 -7.412425e-20 0.00011998143 -3.3873923e-22 4.8744313e-36)
(0.18368846 -0.00021101354 -2.6017054e-20 0.00011618193 -1.5125696e-22 5.5483173e-37)
(0.20822499 -0.00021464792 2.7161263e-20 0.00011864262 1.9062684e-22 5.674562e-37)
(0.23451582 -0.00016981584 6.7552691e-20 0.00012792508 5.5258884e-22 3.3459734e-36)
(0.26254563 -4.1972882e-05 -4.1897177e-20 0.00014433233 -3.8970245e-22 1.2474944e-36)
(0.29198684 0.00021008973 -2.6406524e-20 0.00016875273 -2.7442535e-22 4.8853372e-37)
(0.32198186 0.00063366979 6.8102356e-20 0.00020053684 7.8412491e-22 3.2634403e-36)
(0.35146942 0.001257834 3.152238e-20 0.00023585867 3.9979375e-22 7.1609929e-37)
(0.37888447 0.002066839 2.1757887e-20 0.00027101443 3.0232427e-22 3.5748256e-37)
(0.40263184 0.0029996128 -1.6385226e-20 0.00030407591 -2.4704047e-22 2.17048e-37)
(0.42065367 0.0039466769 4.167985e-20 0.00033030045 6.780649e-22 1.5550564e-36)
(0.43003234 0.0047291934 3.2373897e-20 0.00034322756 5.5967221e-22 1.0692619e-36)
(0.42710649 0.005093112 7.3906886e-21 0.00033767929 1.3334129e-22 6.623807e-38)
(0.40787516 0.0048054603 -1.7057133e-20 0.00031378024 -3.1199363e-22 4.3537216e-37)
(0.36915236 0.0037541921 -1.1574366e-20 0.00027105019 -2.0887632e-22 2.6452809e-37)
(0.31225209 0.0021427217 -3.60911e-20 0.00021355135 -6.1973798e-22 3.5996392e-36)
(0.24190291 0.00042938453 -4.3094462e-21 0.00016038297 -6.8828342e-23 7.7139168e-38)
(0.17219642 -0.00068350266 2.8744569e-20 0.00013573431 4.3137486e-22 5.4478726e-36)
(0.10880566 -0.00066399557 -1.6860465e-20 0.0001154964 -2.959301e-22 3.2558708e-36)
(1.3391463e-10 -3.1516408e-09 3.0843906e-27 7.4222809e-08 -6.2820889e-26 9.2766941e-42)
(2.0385498e-09 -3.7471823e-08 -1.0924786e-24 7.0193943e-07 1.7501618e-23 1.2212447e-37)
(8.9785807e-09 -1.3485887e-07 1.9225735e-24 2.1179232e-06 -2.5172601e-23 9.6709368e-38)
(2.7696594e-08 -3.4137746e-07 -8.8893159e-25 4.5259535e-06 9.6632747e-24 7.1874393e-39)
(7.0500604e-08 -7.2124887e-07 -2.8713208e-24 8.1592707e-06 2.6328634e-23 3.0671819e-38)
(1.5939892e-07 -1.3655027e-06 8.1564536e-24 1.3279309e-05 -6.3831566e-23 1.119873e-37)
(3.3214924e-07 -2.3995085e-06 -1.2208301e-23 2.0172126e-05 8.217535e-23 1.2168851e-37)
(6.5148601e-07 -3.9919735e-06 1.5037431e-24 2.9141586e-05 -8.7534605e-24 9.4254244e-40)
(1.2190107e-06 -6.3652396e-06 -6.4420093e-24 4.0498067e-05 3.2563214e-23 9.1867098e-39)
(2.195619e-06 -9.8060239e-06 -1.4725934e-25 5.4541739e-05 6.484363e-25 2.6244796e-42)
(3.8309125e-06 -1.4675401e-05 -3.8745535e-23 7.1539531e-05 1.4901437e-22 1.0238711e-37)
(6.5046542e-06 -2.1416225e-05 8.1230648e-23 9.1695299e-05 -2.7342266e-22 2.5845126e-37)
(1.0783827e-05 -3.0555329e-05 8.7723629e-24 0.00011511378 -2.5885332e-23 1.7623992e-39)
(1.749912e-05 -4.2697044e-05 -1.1230327e-22 0.0001417601 2.9087786e-22 1.7155745e-37)
(2.7844343e-05 -5.8503931e-05 4.4412835e-23 0.0001714191 -1.0106802e-22 1.6160634e-38)
(4.3501293e-05 -7.8661045e-05 3.6075848e-23 0.00020366091 -7.217287e-23 6.5029637e-39)
(6.6790167e-05 -0.00010382146 -2.9085915e-22 0.00023782228 5.1170274e-22 2.6083149e-37)
(0.0001008425 -0.00013453517 1.1965147e-21 0.00027301509 -1.8511854e-21 2.7555827e-36)
(0.00014978909 -0.00017117029 -9.3989063e-22 0.00030817299 1.2785184e-21 1.07373e-36)
(0.00021895273 -0.00021384618 1.4032846e-21 0.00034214293 -1.6775541e-21 1.5294109e-36)
(0.00031503603 -0.00026240939 -2.5650075e-21 0.00037381812 2.693119e-21 3.3070274e-36)
(0.00044630358 -0.00031649145 7.722324e-22 0.00040229408 -7.1160687e-22 1.9665875e-37)
(0.00062277456 -0.0003756811 3.8760998e-22 0.00042701255 -3.1324279e-22 3.2992576e-38)
(0.00085649652 -0.00043982263 -1.5309887e-21 0.00044784933 1.0842416e-21 3.4803856e-37)
(0.0011620994 -0.00050941318 6.5945365e-21 0.00046511557 -4.0905912e-21 4.4431464e-36)
(0.0015573112 -0.00058585113 1.1687006e-21 0.00047948194 -6.3470698e-22 9.7628037e-38)
(0.0020630469 -0.00067119935 -7.1279678e-21 0.00049182807 3.390364e-21 2.5918462e-36)
(0.0027070593 -0.00076824128 9.3339018e-21 0.00050289833 -3.889422e-21 3.2257018e-36)
(0.0035251454 -0.00088006863 -1.486582e-21 0.00051344235 5.4315975e-22 6.0550278e-38)
(0.0045591402 -0.0010084994 -1.6764064e-20 0.00052484108 5.3716913e-21 5.7676223e-36)
(0.0058619568 -0.0011560447 1.988404e-21 0.00053806108 -5.590077e-22 6.1885182e-38)
(0.0074998159 -0.0013267066 1.7347482e-20 0.0005530113 -4.2763871e-21 3.631118e-36)
(0.0095528904 -0.0015247491 4.9707625e-22 0.00056883108 -1.0722936e-22 2.3056678e-39)
(0.012119681 -0.001754788 -1.6521907e-20 0.00058436303 3.1228819e-21 2.0340348e-36)
(0.015320321 -0.0020192988 2.070071e-20 0.00059908799 -3.4182258e-21 2.5504075e-36)
(0.019294912 -0.0023198229 -1.0424606e-20 0.0006125203 1.500973e-21 5.2149875e-37)
(0.024204558 -0.0026569796 1.3648656e-20 0.00062396252 -1.7102133e-21 7.292272e-37)
(0.030230127 -0.0030293498 4.8104978e-20 0.00063264671 -5.2326713e-21 7.44651e-36)
(0.037566351 -0.0034324889 1.1882378e-20 0.00063786372 -1.1187361e-21 3.7708717e-37)
(0.046410742 -0.0038575082 5.0903592e-20 0.00063916539 -4.1311428e-21 5.8103102e-36)
(0.056945578 -0.0042896831 -7.1022803e-20 0.00063672712 4.9395343e-21 9.5963836e-36)
(0.069312524 -0.0047079572 -7.0799465e-20 0.00063179461 4.186554e-21 8.1649917e-36)
(0.083581543 -0.0050868701 -1.3049606e-20 0.00062724214 6.4935254e-22 2.3965582e-37)
(0.099728428 -0.0054015843 1.1123103e-19 0.00062804215 -4.5715588e-21 1.5318082e-35)
(0.1176324 -0.0056354397 -5.5815375e-20 0.0006409899 1.8569439e-21 3.4173811e-36)
(0.13710235 -0.0057924188 -2.0349962e-20 0.00067275263 5.3020489e-22 4.0826821e-37)
(0.1579588 -0.0059016822 1.1348533e-20 0.00072718869 -2.1858839e-22 1.1630492e-37)
(0.18013602 -0.0059996191 3.6629464e-20 0.00080097867 -4.7789144e-22 1.1202237e-36)
(0.20370998 -0.0061121834 -1.8361282e-20 0.00087891954 1.3306669e-22 2.6490749e-37)
(0.22878924 -0.0062067367 3.3814887e-20 0.00094262173 -6.1008247e-23 8.5889348e-37)
(0.25531889 -0.0061823394 2.0493914e-19 0.0009786981 6.8290859e-22 3.0688579e-35)
(0.2828951 -0.005915736 9.7606239e-21 0.00098512232 8.1450157e-23 6.9012332e-38)
(0.31069271 -0.0053100843 -4.3465486e-20 0.00097269064 -5.7031537e-22 1.3794869e-36)
(0.33761279 -0.0043110571 9.4540602e-20 0.00095181577 1.706605e-21 6.7223243e-36)
(0.36234686 -0.0029212766 -7.8016372e-20 0.00093430821 -1.8057085e-21 4.823349e-36)
(0.38341599 -0.0011706758 2.1123227e-19 0.0009291017 6.0072725e-21 3.8212084e-35)
(0.39888332 0.00092635245 5.6695056e-20 0.00093593629 1.9340921e-21 3.0605789e-36)
(0.40618076 0.0033018821 -1.4760852e-19 0.00095285378 -5.9397634e-21 2.3908372e-35)
(0.4018829 0.0057968052 2.2798765e-20 0.00097682638 1.0715179e-21 6.8030882e-37)
(0.38219009 0.0081188651 2.3013909e-20 0.00099970593 1.252777e-21 8.7635738e-37)
(0.34415075 0.0098265929 3.9706397e-21 0.0009990879 2.4846738e-22 3.4997383e-38)
(0.28875115 0.010507899 -4.4084699e-20 0.00096280475 -3.1486349e-21 6.1487252e-36)
(0.22025185 0.0097331408 6.8833278e-20 0.00084837285 5.562035e-21 2.3305317e-35)
(0.15264963 0.0081133742 1.5991579e-20 0.00070240152 1.4601036e-21 2.0885573e-36)
(0.09156395 0.0058751113 1.94769e-20 0.0005457979 2.0981668e-21 5.7686767e-36)
(1.0543091e-09 -1.5062184e-08 4.6348396e-25 2.1519294e-07 -6.3011736e-24 2.8196353e-38)
(1.1944424e-08 -1.5576455e-07 -7.7447045e-25 2.0334303e-06 9.6146523e-24 1.1156358e-38)
(4.2315097e-08 -5.0859244e-07 -3.6311692e-25 6.1312914e-06 4.1291929e-24 7.8911209e-40)
(1.0714068e-07 -1.1809185e-06 5.2991738e-25 1.3093393e-05 -5.5095918e-24 7.0948628e-40)
(2.2973055e-07 -2.3166665e-06 -3.7028364e-24 2.3586228e-05 3.5202241e-23 1.6661399e-38)
(4.4690569e-07 -4.1114834e-06 -3.8221569e-25 3.8352882e-05 3.3214112e-24 9.2114136e-41)
(8.1581713e-07 -6.8264316e-06 -6.6067835e-24 5.8200597e-05 5.2410251e-23 1.5041322e-38)
(1.4239253e-06 -1.0804194e-05 -9.4573103e-24 8.3978116e-05 6.8364595e-23 1.7461612e-38)
(2.4035127e-06 -1.6487644e-05 1.0130299e-22 0.00011653925 -6.6598121e-22 1.1664663e-36)
(3.9523545e-06 -2.4439369e-05 -1.1732311e-22 0.00015668966 7.0003689e-22 9.2989777e-37)
(6.3626955e-06 -3.5360246e-05 7.2235352e-23 0.00020511422 -3.9041126e-22 2.1294645e-37)
(1.0061192e-05 -5.0104117e-05 1.3528428e-22 0.00026228373 -6.610206e-22 4.5710448e-37)
(1.5662895e-05 -6.9684185e-05 -3.4101693e-22 0.00032834274 1.5035503e-21 1.7969573e-36)
(2.4042596e-05 -9.5265434e-05 -5.3409841e-23 0.00040298504 2.1209415e-22 2.7516963e-38)
(3.6426612e-05 -0.00012813608 2.597814e-22 0.00048532999 -9.2742383e-22 4.0983901e-37)
(5.4507345e-05 -0.00016965147 2.2408099e-22 0.00057382179 -7.1783879e-22 1.9337733e-37)
(8.0581231e-05 -0.00022114626 -3.2473385e-22 0.00066618306 9.3170755e-22 2.5943247e-37)
(0.0001177081 -0.00028381645 1.4629482e-21 0.00075946122 -3.7520858e-21 3.3883702e-36)
(0.00016988707 -0.00035858512 -1.0712519e-21 0.0008502065 2.4511658e-21 1.1785485e-36)
(0.00024224183 -0.00044598159 6.5311179e-22 0.0009348065 -1.330556e-21 2.8656917e-37)
(0.00034120964 -0.00054608431 -2.7000675e-21 0.0010099703 4.8878756e-21 3.2364459e-36)
(0.00047473622 -0.00065859214 -8.5576437e-22 0.0010732997 1.3738606e-21 2.1718383e-37)
(0.00065249239 -0.0007830825 2.1605596e-21 0.0011238233 -3.0704152e-21 9.3665991e-37)
(0.00088616863 -0.00091948203 -3.9063394e-21 0.0011623184 4.9056997e-21 2.1001983e-36)
(0.0011900275 -0.0010687232 -1.8338686e-21 0.0011912598 2.0321772e-21 3.2220972e-37)
(0.0015815569 -0.0012332501 2.6043528e-21 0.0012143487 -2.5441631e-21 4.6048788e-37)
(0.0020812759 -0.0014166624 1.7356716e-20 0.001235635 -1.4935918e-20 1.4713229e-35)
(0.0027162937 -0.0016238487 9.1465278e-21 0.0012580199 -6.9317698e-21 2.9893054e-36)
(0.0035219163 -0.0018603756 -5.2753657e-21 0.0012831985 3.5216684e-21 7.4080999e-37)
(0.0045391239 -0.002130436 6.4928635e-21 0.0013135153 -3.8170396e-21 8.4560637e-37)
(0.0058195812 -0.0024390143 -4.6350629e-21 0.0013506772 2.3997709e-21 3.3103097e-37)
(0.0074278126 -0.0027928125 -2.9869071e-20 0.0013947588 1.3607429e-20 1.0641997e-35)
(0.0094421274 -0.0031987595 1.1322319e-20 0.0014448454 -4.5356418e-21 1.2002628e-36)
(0.011957321 -0.0036643925 3.8118727e-20 0.0014994256 -1.3412375e-20 1.0786954e-35)
(0.015088742 -0.004194714 -1.4275026e-20 0.0015569133 4.4069064e-21 1.2146686e-36)
(0.018972142 -0.0047921225 -2.2372923e-20 0.0016155951 6.051426e-21 2.4115633e-36)
(0.023761975 -0.0054566084 4.3190682e-20 0.0016733771 -1.0221989e-20 7.3433058e-36)
(0.029630388 -0.0061841137 1.4628015e-20 0.0017278052 -3.0244825e-21 6.942154e-37)
(0.036760475 -0.006964293 -2.871172e-20 0.0017762368 5.1753581e-21 2.231623e-36)
(0.045333974 -0.0077779975 -1.2643976e-20 0.0018163641 1.9810566e-21 3.643897e-37)
(0.055511662 -0.0085947062 6.6419955e-20 0.0018470941 -9.0076171e-21 8.5392759e-36)
(0.067406195 -0.0093722435 -2.0409803e-20 0.0018703027 2.3782629e-21 6.9517137e-37)
(0.08105088 -0.010061008 -3.1916235e-20 0.0018931778 3.1748951e-21 1.4738984e-36)
(0.096378012 -0.010614973 -9.1386865e-20 0.0019304586 7.6648872e-21 1.0609403e-35)
(0.11322001 -0.011007731 1.848576e-19 0.002004272 -1.2839239e-20 3.8682569e-35)
(0.1313489 -0.011255064 -1.263165e-19 0.0021394178 7.0949311e-21 1.6303567e-35)
(0.15057654 -0.011426283 -3.3375688e-20 0.0023520438 1.469798e-21 1.0406082e-36)
(0.17083927 -0.011608301 -1.3690195e-19 0.002630237 4.449593e-21 1.6337122e-35)
(0.19219043 -0.011846248 -1.6866685e-19 0.0029227613 3.7017122e-21 2.3471693e-35)
(0.21469513 -0.012093667 -8.7329882e-21 0.0031633733 1.1036919e-22 6.0296763e-38)
(0.2382644 -0.012198205 3.722336e-20 0.0033020242 -1.0932827e-22 1.0763522e-36)
(0.26244812 -0.011962607 -2.7283095e-19 0.0033311801 -1.735305e-21 5.7842955e-35)
(0.28641049 -0.011237681 -1.1474028e-19 0.0032855547 -1.7417166e-21 1.0416336e-35)
(0.30907826 -0.0099597905 -1.1496797e-19 0.0032088125 -2.7747733e-21 1.0876621e-35)
(0.32929052 -0.0081317087 -3.636002e-20 0.0031350862 -1.2223304e-21 1.1592401e-36)
(0.34571524 -0.0057544766 -2.6687855e-19 0.0030799187 -1.157353e-20 6.8356828e-35)
(0.35670375 -0.002778348 9.9154114e-20 0.0030356459 5.3811638e-21 1.0637738e-35)
(0.36002738 0.0008375286 -2.7643094e-20 0.0029907238 -1.8357313e-21 9.7236127e-37)
(0.35262472 0.0050503046 -2.045957e-19 0.0029336622 -1.6418556e-20 6.473027e-35)
(0.33128918 0.009544616 -7.1405431e-20 0.0028713896 -6.8949425e-21 1.0144875e-35)
(0.29344179 0.01360171 7.2202507e-20 0.0027971284 8.3512964e-21 1.4314296e-35)
(0.24047737 0.016302741 2.0347386e-19 0.0027459118 2.8069178e-20 1.6898124e-34)
(0.17644493 0.01629623 -5.0707831e-20 0.0025914379 -8.2915833e-21 1.7235588e-35)
(0.11563988 0.014138714 -6.120343e-20 0.002362711 -1.1856112e-20 4.4784757e-35)
(0.06360238 0.0098950181 -1.8283627e-20 0.00189722 -4.3279409e-21 8.2163935e-36)
(4.1002806e-09 -4.1693286e-08 -3.0594112e-24 4.2395798e-07 3.0351465e-23 3.1622194e-37)
(4.2213101e-08 -4.1127191e-07 1.0483606e-23 4.0074844e-06 -9.956748e-23 5.7996994e-37)
(1.3797056e-07 -1.2911653e-06 -6.3917782e-24 1.2088251e-05 5.8044584e-23 7.5830266e-38)
(3.2179461e-07 -2.8815729e-06 1.0243429e-24 2.5827037e-05 -8.8703785e-24 8.9624973e-40)
(6.3672302e-07 -5.44e-06 -2.8041416e-23 4.6551618e-05 2.3111259e-22 3.5032479e-37)
(1.1447806e-06 -9.3005887e-06 3.8758298e-23 7.574826e-05 -3.0336823e-22 3.7510403e-37)
(1.934692e-06 -1.4891857e-05 -7.6698889e-23 0.00011503963 5.6855556e-22 8.6330032e-37)
(3.1326292e-06 -2.2757069e-05 4.6296994e-23 0.00016614268 -3.2400048e-22 1.9115986e-37)
(4.9172098e-06 -3.3577032e-05 2.2313702e-22 0.0002307994 -1.4693229e-21 2.7640579e-36)
(7.540027e-06 -4.8193433e-05 -6.7417325e-23 0.00031067409 4.162605e-22 1.5987049e-37)
(1.1353449e-05 -6.7630302e-05 -3.2057431e-22 0.00040721111 1.8494684e-21 2.3199496e-36)
(1.6847801e-05 -9.3109882e-05 1.2159508e-22 0.00052144962 -6.5316891e-22 2.1632128e-37)
(2.4700405e-05 -0.00012605769 1.0058304e-23 0.00065379747 -5.0128989e-23 9.6695231e-40)
(3.5839054e-05 -0.00016808965 -4.862278e-22 0.00080377507 2.2404048e-21 1.4822985e-36)
(5.152262e-05 -0.00022097349 1.87327e-21 0.00096975367 -7.951911e-21 1.4510474e-35)
(7.3440745e-05 -0.00028655626 -1.4132258e-21 0.001148731 5.507172e-21 5.4681836e-36)
(0.00010383407 -0.00036665354 -1.6514806e-23 0.001336206 5.8869663e-23 4.9615277e-40)
(0.00014563448 -0.00046290281 1.1728672e-21 0.0015262328 -3.8109353e-21 1.6703611e-36)
(0.0002026238 -0.00057659832 -3.634901e-21 0.0017117414 1.0727369e-20 1.0755382e-35)
(0.00027960799 -0.00070854357 2.0872362e-21 0.0018851859 -5.5751411e-21 2.3909055e-36)
(0.00038260676 -0.0008589857 3.7734644e-21 0.0020395277 -9.0906343e-21 5.3040959e-36)
(0.000519064 -0.0010277122 1.8442441e-21 0.0021694488 -3.9936277e-21 8.6698251e-37)
(0.00069809553 -0.0012143867 -1.0953576e-20 0.0022725477 2.125235e-20 2.1147647e-35)
(0.00093081187 -0.0014191553 -6.8346809e-21 0.0023501583 1.1845835e-20 5.7571826e-36)
(0.0012308626 -0.0016434993 5.2392709e-21 0.002407394 -8.0905359e-21 2.3982379e-36)
(0.0016152452 -0.0018910294 -3.6032931e-21 0.0024522276 4.9459715e-21 8.1450781e-37)
(0.0021038717 -0.0021669673 1.5801116e-20 0.0024936992 -1.9247715e-20 1.1430836e-35)
(0.0027227358 -0.0024783981 -5.2777296e-21 0.0025388613 5.6980161e-21 9.4416341e-37)
(0.0035061195 -0.0028332969 1.6432206e-20 0.0025910717 -1.5710992e-20 6.8795649e-36)
(0.0044936742 -0.0032381703 -1.0666421e-20 0.0026539771 9.0245528e-21 2.2092421e-36)
(0.0057348975 -0.0037002975 7.5413338e-21 0.002730849 -5.6408108e-21 8.5173312e-37)
(0.0072915743 -0.0042288285 -3.1442454e-20 0.0028223607 2.0775381e-20 1.157312e-35)
(0.0092387364 -0.0048330027 5.1097034e-21 0.0029276634 -2.9794402e-21 2.4167063e-37)
(0.011666058 -0.0055225037 -3.0396594e-20 0.0030449603 1.5622598e-20 6.8167061e-36)
(0.014681374 -0.0063050897 3.266819e-20 0.0031714086 -1.4783938e-20 6.347594e-36)
(0.018412155 -0.0071840408 1.1698969e-20 0.003303127 -4.6566008e-21 6.6063995e-37)
(0.023002386 -0.0081582127 -1.623709e-19 0.0034354314 5.6774779e-20 1.0478942e-34)
(0.028610199 -0.0092202558 -4.698614e-20 0.0035627864 1.4412946e-20 7.2695201e-36)
(0.035400244 -0.0103532 4.2968215e-20 0.0036790092 -1.1539701e-20 5.0925319e-36)
(0.043529696 -0.011526594 -4.634681e-20 0.0037781924 1.0868771e-20 5.0078886e-36)
(0.053127027 -0.012693164 1.3026631e-20 0.0038567271 -2.6568144e-21 3.3726633e-37)
(0.064264101 -0.013789015 8.8496487e-20 0.0039172055 -1.5619175e-20 1.3450553e-35)
(0.076926414 -0.014741442 -4.428983e-21 0.0039741896 6.715576e-22 2.9474715e-38)
(0.090996079 -0.015486509 -3.4331781e-20 0.0040594517 4.4195614e-21 1.5575573e-36)
(0.10626152 -0.015996164 1.7739478e-20 0.0042221884 -1.8953807e-21 3.7460633e-37)
(0.12247725 -0.016311254 -9.4394777e-21 0.0045188822 8.3767699e-22 9.4395457e-38)
(0.13947516 -0.016552211 -2.8314074e-20 0.004985 1.9827487e-21 7.930796e-37)
(0.15721965 -0.016857982 4.5092222e-19 0.0055910212 -2.3954848e-20 1.8932822e-34)
(0.17580162 -0.017293698 -5.1687556e-20 0.0062227097 1.9161327e-21 2.3750006e-36)
(0.19529403 -0.017777168 4.8445658e-20 0.0067336983 -1.1093972e-21 2.0252029e-36)
(0.21554454 -0.01807776 -4.568002e-19 0.0070180093 4.2002046e-21 1.7809792e-34)
(0.2360055 -0.017921012 2.4820275e-19 0.0070664845 9.830903e-22 5.3024861e-35)
(0.25578802 -0.017130547 2.0017503e-19 0.0069595934 3.4432755e-21 3.5496121e-35)
(0.27385884 -0.015660677 1.8488621e-19 0.0067950166 5.6575989e-21 3.1894434e-35)
(0.28919995 -0.013534137 1.6997474e-19 0.0066396973 7.5865653e-21 2.9108632e-35)
(0.30069903 -0.010733986 2.5093222e-19 0.0065124147 1.4997047e-20 7.0499928e-35)
(0.30696974 -0.007145999 -4.6455319e-19 0.0063852236 -3.559852e-20 2.7707646e-34)
(0.30610389 -0.0026289463 2.5996283e-19 0.0062206335 2.4922285e-20 1.0337254e-34)
(0.29545058 0.00286247 3.50518e-19 0.0059860861 4.159845e-20 2.3486704e-34)
(0.27247899 0.0090016381 -2.2261097e-19 0.0057167512 -3.257579e-20 1.2523848e-34)
(0.23528269 0.014818195 -5.9292427e-20 0.0054486552 -1.0673991e-20 1.2676218e-35)
(0.18615494 0.019026807 -4.1230781e-20 0.0053188302 -9.147665e-21 9.6143187e-36)
(0.12896742 0.019465591 1.6009762e-19 0.0051367277 4.3523081e-20 2.4906424e-34)
(0.077850639 0.016614503 8.4647713e-20 0.0048099477 2.8294979e-20 1.3441376e-34)
(0.038263083 0.010974522 -2.4638257e-21 0.0038562559 -1.0489212e-21 2.6094162e-37)
(1.088266e-08 -8.5363752e-08 3.5657858e-24 6.6959674e-07 -2.7561005e-23 1.5678708e-37)
(1.0762066e-07 -8.2562529e-07 -2.493719e-23 6.3340967e-06 1.8824259e-22 1.2520284e-36)
(3.393771e-07 -2.5472512e-06 3.3550754e-23 1.9120785e-05 -2.4690997e-22 8.3230872e-37)
(7.6166166e-07 -5.5799585e-06 -1.8292389e-23 4.0888139e-05 1.3099741e-22 1.1889481e-37)
(1.4483169e-06 -1.0334561e-05 -8.9603628e-24 7.3772855e-05 6.2337711e-23 1.5522497e-38)
(2.4987577e-06 -1.7323602e-05 1.0089055e-22 0.00012018153 -6.8057643e-22 1.14987e-36)
(4.0463857e-06 -2.7180773e-05 -3.2650973e-23 0.00018276264 2.1305489e-22 7.380427e-38)
(6.2697098e-06 -4.0681943e-05 -8.7114623e-23 0.00026434742 5.4836432e-22 3.3297571e-37)
(9.4072089e-06 -5.8767484e-05 -8.2965297e-24 0.00036784922 5.0229032e-23 1.9618479e-39)
(1.3776823e-05 -8.2563543e-05 -8.6725112e-23 0.00049610972 5.0337548e-22 1.4171869e-37)
(1.9801373e-05 -0.0001133995 1.4847572e-22 0.00065168129 -8.2341898e-22 2.7821578e-37)
(2.8041422e-05 -0.00015281754 -1.2558767e-22 0.00083653774 6.6311619e-22 1.3458203e-37)
(3.9237431e-05 -0.00020256897 -5.6136748e-22 0.0010517132 2.8116415e-21 1.8301315e-36)
(5.4363124e-05 -0.00026459037 -1.9747828e-23 0.0012968819 9.3460999e-23 1.547728e-39)
(7.4692233e-05 -0.00034095187 6.274349e-22 0.0015699116 -2.7947283e-21 1.0730322e-36)
(0.00010188069 -0.00043377129 5.3630897e-22 0.0018664554 -2.238976e-21 5.3936346e-37)
(0.00013806607 -0.00054509024 -5.5630242e-22 0.0021796741 2.1674597e-21 4.0011022e-37)
(0.00018598631 -0.0006767185 6.4247993e-23 0.0025002257 -2.3259023e-22 3.6918088e-39)
(0.00024911876 -0.00083006555 1.5698834e-21 0.002816665 -5.2569828e-21 1.5257749e-36)
(0.00033184221 -0.0010060016 2.2951474e-21 0.0031163893 -7.0766233e-21 2.2673205e-36)
(0.00043962691 -0.0012048154 -3.134685e-21 0.0033871713 8.8584205e-21 2.9547637e-36)
(0.00057926134 -0.0014263562 -3.7612965e-21 0.0036191657 9.697617e-21 2.9903234e-36)
(0.00075913416 -0.0016704456 6.0096752e-21 0.003807028 -1.4073946e-20 5.4082394e-36)
(0.00098959325 -0.0019375869 -8.7866599e-21 0.0039515541 1.8611967e-20 8.2675488e-36)
(0.0012834792 -0.0022299402 -1.7886568e-20 0.0040601358 3.4135517e-20 2.4767477e-35)
(0.0016569779 -0.002552334 4.9204364e-20 0.0041455439 -8.4313368e-20 1.3720384e-34)
(0.002129445 -0.0029118817 -3.141328e-20 0.0042232224 4.8189932e-20 4.1470182e-35)
(0.0027252303 -0.0033177755 5.3626294e-20 0.0043066213 -7.3478226e-20 9.0816191e-35)
(0.0034767514 -0.0037801979 -7.6718306e-20 0.0044018238 9.3718878e-20 1.4155283e-34)
(0.0044223785 -0.0043081989 9.7539353e-20 0.0045138793 -1.0606104e-19 1.7637914e-34)
(0.0056084772 -0.004911086 -1.1428927e-19 0.0046486055 1.1044994e-19 1.889059e-34)
(0.0070931775 -0.0056000703 2.1693419e-20 0.0048078514 -1.8607609e-20 5.3721595e-36)
(0.0089467866 -0.0063863202 8.4203592e-20 0.0049908866 -6.4021716e-20 6.4450729e-35)
(0.011253119 -0.007280936 -5.3154688e-20 0.0051954877 3.5780459e-20 2.0667936e-35)
(0.014110716 -0.0082934032 1.8535032e-20 0.005417638 -1.1032526e-20 2.0418015e-36)
(0.017634822 -0.0094281704 6.0074966e-21 0.0056508284 -3.1585401e-21 1.7606745e-37)
(0.021955619 -0.010682699 8.2111161e-20 0.0058864521 -3.8084119e-20 2.7124554e-35)
(0.027212977 -0.012045522 2.9532223e-20 0.0061142075 -1.2068212e-20 2.9227037e-36)
(0.033548024 -0.013492121 3.2714525e-20 0.0063224194 -1.1752028e-20 3.0183333e-36)
(0.041087644 -0.014979975 3.5336106e-20 0.0064995886 -1.1131758e-20 2.998422e-36)
(0.049922302 -0.016444917 -1.9577031e-19 0.0066380482 5.3869875e-20 7.9064971e-35)
(0.060079216 -0.017802643 9.2870422e-20 0.0067413342 -2.2205331e-20 1.5446586e-35)
(0.071497085 -0.018960871 1.5921769e-20 0.0068348683 -3.2922201e-21 3.9587837e-37)
(0.084018142 -0.019846077 -1.9525245e-19 0.0069758475 3.4368694e-20 5.3279575e-35)
(0.097411675 -0.020442982 -1.0469475e-19 0.0072537268 1.5516646e-20 1.3793869e-35)
(0.11145689 -0.020837768 5.391304e-20 0.0077701428 -6.600522e-21 3.352252e-36)
(0.1260569 -0.021217622 2.0357061e-19 0.0085820427 -1.9961973e-20 4.440309e-35)
(0.14126362 -0.021766195 -9.101807e-20 0.0096211967 6.9161917e-21 8.4059518e-36)
(0.15721796 -0.02253782 2.7069994e-19 0.010678914 -1.4740109e-20 7.1601701e-35)
(0.17395677 -0.02337297 1.4826317e-19 0.01149599 -5.1966617e-21 2.1067729e-35)
(0.19118923 -0.023934574 2.039768e-19 0.01190191 -3.4631247e-21 3.9838164e-35)
(0.20821008 -0.023878415 5.3998651e-19 0.0119055 6.8012306e-22 2.8479114e-34)
(0.2240594 -0.023034519 -4.0661948e-19 0.011663638 -7.7430146e-21 1.6831508e-34)
(0.23776201 -0.021410952 1.2753429e-19 0.011349199 4.8593521e-21 1.7668219e-35)
(0.24846893 -0.01906986 -2.0767403e-19 0.011066933 -1.1811809e-20 5.1384436e-35)
(0.25528576 -0.015983971 -1.8407282e-19 0.010834153 -1.4424538e-20 4.5623897e-35)
(0.25705614 -0.011981147 -6.597496e-20 0.010588525 -6.7776272e-21 6.8673054e-36)
(0.25215976 -0.0068312832 -5.3996476e-19 0.010252024 -7.0241553e-20 5.6038396e-34)
(0.23839865 -0.00044107927 -1.2729828e-19 0.0097559435 -2.0896802e-20 3.99818e-35)
(0.21400523 0.0068343921 2.477702e-19 0.0091690512 5.1239175e-20 2.0691208e-34)
(0.17790992 0.013773272 7.6739859e-20 0.0086017796 2.0022705e-20 2.9397569e-35)
(0.13354163 0.018845429 -4.4613712e-20 0.0083132068 -1.4753631e-20 1.637972e-35)
(0.085079558 0.01937169 -6.7890991e-20 0.0081003404 -2.8443029e-20 7.0024725e-35)
(0.045592348 0.015792106 -7.3751402e-20 0.0076013713 -3.9110348e-20 1.6979744e-34)
(0.019160819 0.009570434 3.5638817e-21 0.0059769282 2.4653079e-21 9.8757398e-37)
(2.2630848e-08 -1.4375247e-07 1.6114331e-23 9.1312548e-07 -1.0135344e-22 1.455572e-36)
(2.1939254e-07 -1.3773167e-06 1.1822158e-23 8.6467168e-06 -7.3346846e-23 1.31357e-37)
(6.7936618e-07 -4.213135e-06 -1.559467e-23 2.6129069e-05 9.5281726e-23 8.6143726e-38)
(1.4943764e-06 -9.1426907e-06 -8.2039259e-23 5.5940441e-05 4.9308713e-22 1.1748565e-36)
(2.7815819e-06 -1.6765389e-05 6.0216048e-23 0.00010106596 -3.5560771e-22 3.5281472e-37)
(4.6908341e-06 -2.7807997e-05 -1.1206797e-22 0.00016489361 6.493727e-22 7.3126483e-37)
(7.4133369e-06 -4.3143823e-05 6.121652e-23 0.0002511884 -3.4743666e-22 1.3698854e-37)
(1.1192394e-05 -6.3811467e-05 1.8093734e-23 0.00036402579 -1.0037805e-22 7.777033e-39)
(1.6337121e-05 -9.1032677e-05 -1.254989e-22 0.00050767121 6.7897188e-22 2.493972e-37)
(2.3239598e-05 -0.00012622636 -3.2838504e-22 0.00068638756 1.7281985e-21 1.1597736e-36)
(3.2396349e-05 -0.00017101578 -1.9883245e-23 0.00090415452 1.0150771e-22 2.9264744e-39)
(4.4435159e-05 -0.00022722482 7.8130675e-22 0.0011642847 -3.857713e-21 3.1454745e-36)
(6.0148457e-05 -0.00029685801 -1.2926499e-21 0.001468931 6.1530319e-21 6.033994e-36)
(8.0534802e-05 -0.00038205868 2.4902357e-21 0.0018184928 -1.1387879e-20 1.5776904e-35)
(0.00010685026 -0.00048503965 -7.7520169e-22 0.0022109589 3.3931017e-21 1.081126e-36)
(0.00014067203 -0.00060798252 1.9597929e-21 0.0026412595 -8.1779769e-21 4.8989898e-36)
(0.00018397687 -0.00075290651 -2.8170871e-21 0.0031007548 1.115958e-20 7.1923292e-36)
(0.00023923842 -0.00092151673 2.1736425e-21 0.0035770374 -8.1375292e-21 3.0480588e-36)
(0.00030954776 -0.0011150558 -4.0763457e-22 0.004054274 1.4353833e-21 7.6488869e-38)
(0.00039876452 -0.001334204 -1.9601627e-21 0.0045143082 6.4598737e-21 1.2650186e-36)
(0.00051170822 -0.0015790953 5.6383789e-21 0.0049386576 -1.730168e-20 7.5149497e-36)