/*--------------------------------*- C++ -*----------------------------------*\
  =========                 |
  \\      /  F ield         | OpenFOAM: The Open Source CFD Toolbox
   \\    /   O peration     | Website:  https://openfoam.org
    \\  /    A nd           | Version:  13
     \\/     M anipulation  |
\*---------------------------------------------------------------------------*/
FoamFile
{
    format      ascii;
    class       volScalarField;
    location    "3800";
    object      epsilon;
}
// * * * * * * * * * * * * * * * * * * * * * * * * * * * * * * * * * * * * * //

dimensions      [0 2 -3 0 0 0 0];

internalField   nonuniform List<scalar> 
800
(
18.668
18.6681
18.6682
18.6683
18.6685
18.6686
18.6686
18.6687
18.6685
18.6686
18.6685
18.6686
18.6686
18.6687
18.6686
18.6686
18.6684
18.6682
18.6682
18.6682
7.24211
7.24234
7.24251
7.24264
7.24258
7.24252
7.24249
7.24228
7.24216
7.2423
7.24272
7.24289
7.24305
7.24273
7.2426
7.24249
7.24255
7.24254
7.24255
7.24273
4.02666
4.02677
4.02692
4.0269
4.02683
4.02679
4.02701
4.0269
4.02699
4.0271
4.02714
4.02713
4.02711
4.02705
4.02697
4.02699
4.02704
4.02715
4.02714
4.0271
2.68336
2.68339
2.68347
2.6835
2.68354
2.68351
2.68352
2.68359
2.68375
2.68378
2.68377
2.6837
2.68366
2.68367
2.68363
2.68361
2.68367
2.68363
2.68362
2.68358
1.97339
1.97342
1.97349
1.97353
1.97359
1.97362
1.97359
1.97361
1.97364
1.97364
1.97362
1.97358
1.97356
1.97354
1.97361
1.97364
1.97368
1.97365
1.97361
1.97359
1.54299
1.54299
1.543
1.54302
1.54305
1.54307
1.54308
1.54306
1.54301
1.543
1.54299
1.54299
1.543
1.54302
1.54305
1.54309
1.54308
1.54314
1.54316
1.54315
1.25806
1.25806
1.25803
1.25803
1.25803
1.25803
1.25803
1.25806
1.25804
1.25804
1.25805
1.25807
1.25807
1.2581
1.25811
1.25811
1.25812
1.25815
1.25819
1.25818
1.05785
1.05785
1.05784
1.05783
1.05783
1.05782
1.05783
1.05786
1.05788
1.0579
1.05791
1.05794
1.05794
1.05794
1.05796
1.05796
1.05798
1.05797
1.05798
1.05797
0.911202
0.911204
0.911211
0.911207
0.911214
0.911215
0.911224
0.911218
0.911235
0.911247
0.91126
0.911282
0.911309
0.911319
0.91132
0.911334
0.911333
0.911323
0.911308
0.911306
0.800569
0.800574
0.800584
0.800592
0.800597
0.800604
0.800606
0.800618
0.800625
0.80063
0.800633
0.800643
0.800652
0.800659
0.800662
0.800672
0.800662
0.800659
0.800649
0.800648
0.715344
0.715351
0.71536
0.715372
0.71538
0.715389
0.715398
0.715415
0.715418
0.715422
0.715429
0.715428
0.715427
0.715426
0.715422
0.715405
0.715409
0.715411
0.715412
0.715405
0.648836
0.648842
0.648856
0.648868
0.648876
0.648885
0.648893
0.648889
0.648894
0.6489
0.648908
0.648907
0.648905
0.648903
0.648897
0.648882
0.648885
0.648889
0.648894
0.648887
0.59668
0.596688
0.596696
0.596705
0.596708
0.596713
0.596718
0.596715
0.596715
0.596714
0.596712
0.596709
0.596707
0.596709
0.596711
0.596713
0.596716
0.596717
0.596718
0.596718
0.555912
0.555916
0.555915
0.555916
0.555917
0.555917
0.555913
0.555913
0.555912
0.555909
0.555907
0.555909
0.555913
0.555917
0.555924
0.555929
0.555933
0.555935
0.555935
0.555938
0.524516
0.524516
0.524514
0.52451
0.524511
0.52451
0.524505
0.524507
0.524511
0.524514
0.524517
0.524519
0.524525
0.524526
0.524529
0.524534
0.524534
0.524537
0.524542
0.52454
0.501194
0.501193
0.501191
0.501187
0.501184
0.501185
0.501189
0.501196
0.501201
0.501206
0.501212
0.501213
0.501215
0.501215
0.501213
0.50122
0.501222
0.501226
0.501229
0.501223
0.485183
0.485179
0.485177
0.48518
0.485178
0.485176
0.485182
0.485184
0.485188
0.485192
0.485195
0.485199
0.485201
0.485203
0.485204
0.485208
0.485209
0.485212
0.485213
0.485208
0.476149
0.476148
0.476149
0.476154
0.476159
0.476158
0.476161
0.47616
0.476162
0.476161
0.476159
0.476156
0.476158
0.476162
0.476167
0.476168
0.476166
0.476166
0.476164
0.476158
0.474211
0.474213
0.474218
0.474219
0.474222
0.474224
0.474224
0.474223
0.474222
0.474221
0.47422
0.474219
0.474218
0.474217
0.474217
0.474217
0.474219
0.474218
0.474219
0.474217
0.479983
0.479985
0.479987
0.479986
0.479983
0.479984
0.479978
0.479978
0.479974
0.479972
0.479972
0.479974
0.479974
0.479973
0.479971
0.47997
0.479974
0.479972
0.479976
0.479981
0.494309
0.494312
0.494313
0.49431
0.494309
0.494309
0.494305
0.494306
0.494305
0.494305
0.494303
0.494301
0.494298
0.494295
0.494295
0.494294
0.494293
0.494292
0.494289
0.494295
0.51701
0.517011
0.517011
0.517012
0.517017
0.517017
0.517021
0.517023
0.517026
0.517027
0.517025
0.517023
0.517019
0.517015
0.517011
0.517006
0.516999
0.516998
0.516993
0.516996
0.547475
0.547472
0.54747
0.547473
0.547473
0.547474
0.547475
0.54747
0.54747
0.547469
0.547471
0.547473
0.547475
0.547479
0.547478
0.547474
0.547474
0.547467
0.547464
0.547461
0.585973
0.585967
0.585963
0.58596
0.585955
0.585953
0.585953
0.585948
0.585945
0.585945
0.58595
0.585951
0.585954
0.585954
0.58596
0.585963
0.585968
0.585965
0.585966
0.58596
0.633225
0.633221
0.633215
0.633209
0.633206
0.633203
0.633206
0.63321
0.633212
0.633208
0.633207
0.633206
0.633207
0.633207
0.633205
0.633204
0.633199
0.633205
0.633204
0.633206
0.690443
0.690442
0.690437
0.690431
0.690431
0.690426
0.690426
0.690428
0.690434
0.690435
0.690438
0.690439
0.690434
0.690432
0.690424
0.690419
0.690414
0.690405
0.690401
0.690408
0.759401
0.7594
0.759399
0.759399
0.759397
0.75939
0.759385
0.759378
0.759379
0.759384
0.759384
0.759384
0.759373
0.759367
0.759362
0.759356
0.759358
0.759346
0.759344
0.759352
0.842582
0.842579
0.842578
0.842581
0.842577
0.842578
0.842571
0.842564
0.842554
0.842546
0.842536
0.842529
0.842525
0.842519
0.842517
0.84251
0.842509
0.842513
0.842515
0.842519
0.943435
0.943425
0.943417
0.943417
0.943414
0.943422
0.943416
0.943413
0.943398
0.943389
0.943379
0.94337
0.943367
0.943369
0.943366
0.943362
0.943358
0.943362
0.943362
0.943358
1.0669
1.06689
1.06688
1.06687
1.06686
1.06686
1.06686
1.06686
1.06686
1.06685
1.06685
1.06685
1.06685
1.06686
1.06685
1.06686
1.06685
1.06684
1.06683
1.06682
1.22021
1.22022
1.22021
1.2202
1.22019
1.22017
1.22016
1.22016
1.22016
1.22016
1.22016
1.22015
1.22016
1.22016
1.22015
1.22016
1.22015
1.22013
1.22012
1.22011
1.41427
1.41426
1.41425
1.41425
1.41424
1.41424
1.41422
1.4142
1.41417
1.41417
1.41417
1.41415
1.41414
1.41411
1.4141
1.41409
1.41408
1.4141
1.41409
1.41413
1.66608
1.66607
1.66604
1.66603
1.666
1.66602
1.666
1.66599
1.66597
1.66597
1.66596
1.66595
1.66591
1.66586
1.66583
1.6658
1.66579
1.66582
1.66584
1.6659
2.0039
2.00391
2.0039
2.00388
2.00387
2.00386
2.00384
2.00385
2.00385
2.00382
2.00378
2.00377
2.00375
2.00375
2.00372
2.0037
2.00371
2.00371
2.00372
2.00372
2.47808
2.47805
2.47807
2.47806
2.47807
2.47804
2.47804
2.478
2.47798
2.47792
2.47787
2.47786
2.47787
2.47794
2.47794
2.47793
2.47792
2.4779
2.47787
2.47786
3.18626
3.18623
3.18621
3.1862
3.1862
3.18618
3.18612
3.18603
3.186
3.18597
3.18599
3.18598
3.18595
3.18597
3.18601
3.18604
3.18602
3.18594
3.18594
3.18594
4.34356
4.34357
4.34354
4.34355
4.34355
4.34344
4.34344
4.34339
4.34339
4.34337
4.34339
4.34336
4.34327
4.34322
4.34316
4.34322
4.34321
4.34316
4.34317
4.34315
6.51897
6.5189
6.51888
6.51888
6.51881
6.51866
6.51863
6.51864
6.51869
6.51874
6.5187
6.51864
6.51861
6.51843
6.51825
6.51813
6.51811
6.51839
6.5184
6.51838
11.7067
11.7064
11.7062
11.7059
11.7056
11.7056
11.7056
11.7057
11.7057
11.7059
11.7056
11.7053
11.7052
11.7051
11.7052
11.7051
11.7052
11.7055
11.7055
11.7056
29.95
29.9499
29.9499
29.9498
29.9498
29.9497
29.9497
29.9498
29.9499
29.9501
29.9502
29.9503
29.9503
29.9503
29.9501
29.95
29.95
29.95
29.9499
29.9499
)
;

boundaryField
{
    movingWall
    {
        type            epsilonWallFunction;
        value           nonuniform List<scalar> 
20
(
29.95
29.9499
29.9499
29.9498
29.9498
29.9497
29.9497
29.9498
29.9499
29.9501
29.9502
29.9503
29.9503
29.9503
29.9501
29.95
29.95
29.95
29.9499
29.9499
)
;
    }
    bottomWall
    {
        type            epsilonWallFunction;
        value           nonuniform List<scalar> 
20
(
18.668
18.6681
18.6682
18.6683
18.6685
18.6686
18.6686
18.6687
18.6685
18.6686
18.6685
18.6686
18.6686
18.6687
18.6686
18.6686
18.6684
18.6682
18.6682
18.6682
)
;
    }
    cyc_half0
    {
        type            cyclic;
    }
    cyc_half1
    {
        type            cyclic;
    }
    frontAndBack
    {
        type            empty;
    }
}


// ************************************************************************* //
