/*--------------------------------*- C++ -*----------------------------------*\
  =========                 |
  \\      /  F ield         | OpenFOAM: The Open Source CFD Toolbox
   \\    /   O peration     | Website:  https://openfoam.org
    \\  /    A nd           | Version:  13
     \\/     M anipulation  |
\*---------------------------------------------------------------------------*/
FoamFile
{
    format      ascii;
    class       volScalarField;
    location    "3800";
    object      k;
}
// * * * * * * * * * * * * * * * * * * * * * * * * * * * * * * * * * * * * * //

dimensions      [0 2 -2 0 0 0 0];

internalField   nonuniform List<scalar> 
800
(
0.10042
0.10042
0.10042
0.10042
0.10042
0.100421
0.100422
0.100422
0.100422
0.100422
0.100421
0.100421
0.100421
0.100422
0.100422
0.100422
0.100421
0.100421
0.100421
0.10042
0.106137
0.106137
0.106138
0.106138
0.106137
0.106136
0.106135
0.106133
0.106131
0.106131
0.106135
0.106137
0.106139
0.106136
0.106134
0.106132
0.106132
0.106132
0.106132
0.106133
0.103946
0.103946
0.103948
0.103947
0.103946
0.103945
0.103948
0.103946
0.103947
0.103948
0.103948
0.103948
0.103947
0.103945
0.103944
0.103943
0.103943
0.103945
0.103945
0.103945
0.103125
0.103125
0.103127
0.103128
0.103129
0.103128
0.103128
0.103129
0.103132
0.103132
0.103131
0.103129
0.103127
0.103127
0.103126
0.103125
0.103126
0.103125
0.103125
0.103124
0.10297
0.102971
0.102973
0.102974
0.102976
0.102976
0.102975
0.102975
0.102975
0.102974
0.102973
0.102971
0.10297
0.102969
0.102971
0.102971
0.102973
0.102972
0.102971
0.102971
0.103172
0.103172
0.103172
0.103172
0.103173
0.103173
0.103173
0.103172
0.103169
0.103169
0.103168
0.103167
0.103167
0.103168
0.103169
0.10317
0.10317
0.103172
0.103173
0.103173
0.103583
0.103583
0.103581
0.10358
0.103579
0.103579
0.103579
0.10358
0.103578
0.103578
0.103579
0.103579
0.103579
0.10358
0.10358
0.10358
0.10358
0.103582
0.103584
0.103583
0.10413
0.10413
0.104128
0.104127
0.104126
0.104126
0.104126
0.104127
0.104128
0.104129
0.104129
0.10413
0.10413
0.10413
0.104131
0.104131
0.104132
0.104131
0.104131
0.104131
0.104776
0.104776
0.104776
0.104775
0.104775
0.104775
0.104775
0.104774
0.104775
0.104776
0.104776
0.104777
0.104779
0.104779
0.104779
0.10478
0.10478
0.104779
0.104777
0.104777
0.105502
0.105501
0.105502
0.105502
0.105502
0.105502
0.105502
0.105503
0.105503
0.105503
0.105503
0.105504
0.105504
0.105504
0.105504
0.105505
0.105504
0.105503
0.105502
0.105502
0.10629
0.10629
0.106291
0.106292
0.106292
0.106293
0.106293
0.106295
0.106295
0.106295
0.106295
0.106295
0.106294
0.106294
0.106293
0.106291
0.106291
0.106291
0.106291
0.10629
0.107135
0.107135
0.107136
0.107137
0.107138
0.107138
0.107139
0.107138
0.107139
0.107139
0.107139
0.107139
0.107138
0.107138
0.107137
0.107135
0.107135
0.107135
0.107136
0.107135
0.108033
0.108033
0.108034
0.108035
0.108035
0.108036
0.108036
0.108035
0.108035
0.108035
0.108034
0.108033
0.108033
0.108033
0.108033
0.108033
0.108033
0.108033
0.108033
0.108033
0.108982
0.108983
0.108983
0.108983
0.108983
0.108982
0.108982
0.108981
0.108981
0.10898
0.10898
0.10898
0.10898
0.10898
0.108981
0.108981
0.108982
0.108981
0.108981
0.108982
0.109981
0.109981
0.10998
0.10998
0.10998
0.109979
0.109978
0.109979
0.109979
0.109979
0.109979
0.109979
0.10998
0.10998
0.10998
0.10998
0.10998
0.10998
0.109981
0.109981
0.111031
0.111031
0.11103
0.111029
0.111029
0.111029
0.111029
0.11103
0.11103
0.111031
0.111031
0.111031
0.111031
0.111031
0.111031
0.111031
0.111031
0.111032
0.111032
0.111032
0.112138
0.112137
0.112137
0.112137
0.112137
0.112136
0.112137
0.112137
0.112138
0.112138
0.112138
0.112139
0.112139
0.112139
0.112139
0.112139
0.112139
0.112139
0.112139
0.112139
0.113308
0.113308
0.113308
0.113308
0.113309
0.113309
0.113309
0.113309
0.113309
0.113309
0.113308
0.113308
0.113308
0.113308
0.113309
0.113309
0.113309
0.113309
0.113308
0.113308
0.114551
0.114551
0.114551
0.114551
0.114552
0.114552
0.114552
0.114552
0.114551
0.114551
0.114551
0.114551
0.114551
0.11455
0.11455
0.11455
0.114551
0.11455
0.114551
0.11455
0.115874
0.115874
0.115874
0.115874
0.115874
0.115874
0.115873
0.115873
0.115872
0.115872
0.115872
0.115873
0.115873
0.115872
0.115872
0.115872
0.115873
0.115872
0.115873
0.115874
0.117246
0.117247
0.117247
0.117247
0.117247
0.117247
0.117246
0.117247
0.117247
0.117247
0.117246
0.117246
0.117246
0.117246
0.117246
0.117246
0.117246
0.117246
0.117245
0.117246
0.118604
0.118604
0.118604
0.118605
0.118605
0.118605
0.118606
0.118606
0.118607
0.118607
0.118607
0.118607
0.118606
0.118606
0.118606
0.118605
0.118604
0.118604
0.118604
0.118604
0.119918
0.119917
0.119917
0.119918
0.119918
0.119918
0.119918
0.119917
0.119917
0.119917
0.119917
0.119918
0.119918
0.119919
0.119919
0.119919
0.119919
0.119918
0.119918
0.119918
0.12119
0.12119
0.121189
0.121189
0.121188
0.121188
0.121188
0.121188
0.121187
0.121187
0.121188
0.121188
0.121189
0.121189
0.12119
0.12119
0.121191
0.121191
0.121191
0.12119
0.122425
0.122425
0.122425
0.122424
0.122424
0.122423
0.122424
0.122424
0.122425
0.122424
0.122424
0.122424
0.122425
0.122425
0.122425
0.122425
0.122425
0.122426
0.122426
0.122426
0.12363
0.12363
0.12363
0.123629
0.123629
0.123629
0.123629
0.12363
0.123631
0.123631
0.123632
0.123632
0.123632
0.123632
0.123631
0.123631
0.12363
0.12363
0.123629
0.12363
0.12481
0.12481
0.12481
0.124811
0.124811
0.12481
0.12481
0.12481
0.124811
0.124812
0.124812
0.124812
0.124811
0.124811
0.12481
0.12481
0.12481
0.124809
0.124809
0.124809
0.125969
0.125969
0.125969
0.12597
0.12597
0.125971
0.12597
0.12597
0.12597
0.12597
0.125969
0.125969
0.125969
0.125968
0.125968
0.125968
0.125968
0.125968
0.125968
0.125968
0.127108
0.127108
0.127107
0.127108
0.127108
0.127109
0.127109
0.127109
0.127108
0.127108
0.127107
0.127107
0.127107
0.127108
0.127108
0.127107
0.127107
0.127108
0.127108
0.127107
0.128231
0.12823
0.12823
0.12823
0.12823
0.12823
0.12823
0.128231
0.128231
0.128231
0.128231
0.128232
0.128232
0.128233
0.128233
0.128234
0.128233
0.128232
0.128231
0.12823
0.129345
0.129346
0.129346
0.129346
0.129346
0.129345
0.129345
0.129345
0.129346
0.129345
0.129346
0.129346
0.129347
0.129347
0.129348
0.129348
0.129347
0.129347
0.129345
0.129345
0.130465
0.130465
0.130465
0.130465
0.130465
0.130465
0.130465
0.130464
0.130463
0.130463
0.130463
0.130463
0.130463
0.130462
0.130462
0.130462
0.130461
0.130462
0.130462
0.130464
0.131604
0.131604
0.131603
0.131603
0.131602
0.131603
0.131603
0.131603
0.131602
0.131602
0.131602
0.131602
0.131601
0.131599
0.131598
0.131597
0.131597
0.131599
0.1316
0.131603
0.132792
0.132793
0.132793
0.132792
0.132793
0.132792
0.132792
0.132793
0.132793
0.132792
0.132791
0.132791
0.13279
0.132791
0.13279
0.132789
0.13279
0.132791
0.132792
0.132792
0.134086
0.134085
0.134086
0.134086
0.134087
0.134086
0.134086
0.134085
0.134085
0.134083
0.134081
0.134082
0.134083
0.134085
0.134085
0.134085
0.134086
0.134085
0.134085
0.134085
0.135579
0.135579
0.135579
0.135579
0.135579
0.135578
0.135577
0.135575
0.135574
0.135574
0.135575
0.135575
0.135575
0.135576
0.135578
0.135579
0.135579
0.135577
0.135577
0.135578
0.137463
0.137464
0.137463
0.137464
0.137464
0.137462
0.137462
0.137461
0.137461
0.137461
0.137462
0.137462
0.137461
0.137461
0.13746
0.137462
0.137463
0.137462
0.137463
0.137462
0.140168
0.140168
0.140168
0.140169
0.140168
0.140166
0.140166
0.140167
0.140168
0.140168
0.140168
0.140168
0.140168
0.140166
0.140164
0.140163
0.140164
0.140168
0.140168
0.140168
0.144721
0.14472
0.144719
0.144717
0.144716
0.144718
0.144719
0.14472
0.14472
0.14472
0.144718
0.144717
0.144717
0.144717
0.144718
0.144718
0.144719
0.144722
0.144722
0.144723
0.137544
0.137544
0.137544
0.137544
0.137544
0.137544
0.137544
0.137544
0.137544
0.137544
0.137545
0.137545
0.137546
0.137546
0.137546
0.137546
0.137545
0.137545
0.137545
0.137545
)
;

boundaryField
{
    movingWall
    {
        type            kqRWallFunction;
        value           nonuniform List<scalar> 
20
(
0.137544
0.137544
0.137544
0.137544
0.137544
0.137544
0.137544
0.137544
0.137544
0.137544
0.137545
0.137545
0.137546
0.137546
0.137546
0.137546
0.137545
0.137545
0.137545
0.137545
)
;
    }
    bottomWall
    {
        type            kqRWallFunction;
        value           nonuniform List<scalar> 
20
(
0.10042
0.10042
0.10042
0.10042
0.10042
0.100421
0.100422
0.100422
0.100422
0.100422
0.100421
0.100421
0.100421
0.100422
0.100422
0.100422
0.100421
0.100421
0.100421
0.10042
)
;
    }
    cyc_half0
    {
        type            cyclic;
    }
    cyc_half1
    {
        type            cyclic;
    }
    frontAndBack
    {
        type            empty;
    }
}


// ************************************************************************* //
