/*--------------------------------*- C++ -*----------------------------------*\
  =========                 |
  \\      /  F ield         | OpenFOAM: The Open Source CFD Toolbox
   \\    /   O peration     | Website:  https://openfoam.org
    \\  /    A nd           | Version:  13
     \\/     M anipulation  |
\*---------------------------------------------------------------------------*/
FoamFile
{
    format      ascii;
    class       volScalarField;
    location    "3800";
    object      nut;
}
// * * * * * * * * * * * * * * * * * * * * * * * * * * * * * * * * * * * * * //

dimensions      [0 2 -1 0 0 0 0];

internalField   nonuniform List<scalar> 
800
(
4.86165e-05
4.86164e-05
4.86162e-05
4.8616e-05
4.86158e-05
4.86164e-05
4.86168e-05
4.8617e-05
4.86171e-05
4.86169e-05
4.86164e-05
4.86164e-05
4.86162e-05
4.86166e-05
4.86169e-05
4.86171e-05
4.86167e-05
4.86169e-05
4.86167e-05
4.86165e-05
0.000139994
0.000139991
0.000139989
0.000139988
0.000139986
0.000139983
0.000139983
0.000139981
0.000139977
0.000139975
0.000139978
0.00013998
0.000139981
0.000139979
0.000139977
0.000139973
0.000139972
0.000139973
0.000139973
0.000139973
0.000241495
0.000241492
0.000241491
0.000241489
0.000241487
0.000241485
0.000241487
0.000241483
0.000241481
0.00024148
0.00024148
0.000241478
0.000241475
0.000241472
0.000241468
0.000241464
0.000241462
0.000241465
0.000241466
0.000241465
0.000356688
0.000356687
0.00035669
0.00035669
0.000356692
0.00035669
0.000356689
0.000356686
0.000356687
0.000356684
0.00035668
0.000356673
0.000356667
0.000356664
0.000356659
0.000356654
0.000356655
0.000356655
0.000356655
0.000356655
0.000483563
0.000483562
0.000483562
0.000483562
0.000483563
0.000483563
0.000483557
0.000483553
0.000483547
0.00048354
0.000483533
0.000483525
0.000483519
0.000483514
0.000483515
0.000483514
0.000483515
0.000483514
0.000483514
0.000483517
0.000620879
0.000620876
0.00062087
0.000620864
0.00062086
0.000620857
0.000620852
0.000620846
0.000620833
0.000620828
0.000620821
0.000620817
0.000620814
0.000620811
0.00062081
0.000620811
0.000620807
0.000620813
0.000620815
0.000620818
0.000767572
0.000767569
0.000767557
0.000767547
0.000767537
0.00076753
0.000767522
0.000767521
0.000767514
0.000767511
0.000767508
0.000767506
0.000767502
0.000767502
0.000767498
0.000767496
0.000767493
0.000767494
0.000767498
0.000767497
0.000922509
0.000922501
0.000922487
0.000922474
0.000922463
0.000922453
0.000922447
0.000922445
0.000922445
0.000922442
0.000922438
0.000922437
0.000922434
0.000922432
0.00092243
0.000922427
0.000922429
0.000922421
0.000922416
0.000922416
0.00108431
0.0010843
0.00108429
0.00108428
0.00108427
0.00108426
0.00108426
0.00108425
0.00108425
0.00108424
0.00108424
0.00108424
0.00108424
0.00108424
0.00108423
0.00108423
0.00108423
0.00108422
0.0010842
0.00108421
0.0012513
0.00125129
0.00125128
0.00125127
0.00125127
0.00125126
0.00125126
0.00125126
0.00125125
0.00125125
0.00125124
0.00125123
0.00125123
0.00125123
0.00125122
0.00125122
0.00125121
0.0012512
0.00125118
0.00125119
0.00142139
0.00142138
0.00142138
0.00142137
0.00142137
0.00142137
0.00142137
0.00142137
0.00142136
0.00142136
0.00142135
0.00142134
0.00142133
0.00142132
0.00142132
0.0014213
0.0014213
0.00142129
0.00142128
0.00142128
0.00159209
0.00159208
0.00159208
0.00159208
0.00159208
0.00159208
0.00159208
0.00159207
0.00159206
0.00159206
0.00159205
0.00159204
0.00159202
0.00159201
0.001592
0.00159199
0.00159198
0.00159198
0.00159197
0.00159198
0.00176041
0.0017604
0.0017604
0.00176041
0.0017604
0.0017604
0.0017604
0.00176038
0.00176037
0.00176036
0.00176035
0.00176034
0.00176033
0.00176032
0.00176031
0.00176031
0.0017603
0.0017603
0.00176029
0.00176029
0.00192285
0.00192286
0.00192286
0.00192286
0.00192286
0.00192285
0.00192284
0.00192283
0.00192282
0.00192281
0.0019228
0.00192279
0.00192279
0.00192278
0.00192278
0.00192277
0.00192277
0.00192276
0.00192275
0.00192276
0.00207547
0.00207547
0.00207546
0.00207545
0.00207545
0.00207544
0.00207543
0.00207543
0.00207542
0.00207542
0.00207541
0.00207541
0.00207541
0.0020754
0.00207539
0.00207538
0.00207537
0.00207537
0.00207537
0.00207538
0.00221373
0.00221372
0.0022137
0.00221369
0.00221368
0.00221368
0.00221367
0.00221368
0.00221367
0.00221367
0.00221367
0.00221366
0.00221366
0.00221365
0.00221363
0.00221363
0.00221363
0.00221362
0.00221363
0.00221363
0.00233262
0.0023326
0.00233258
0.00233258
0.00233257
0.00233257
0.00233257
0.00233257
0.00233257
0.00233257
0.00233256
0.00233256
0.00233255
0.00233254
0.00233253
0.00233253
0.00233253
0.00233253
0.00233252
0.00233253
0.00242672
0.00242671
0.00242671
0.00242671
0.00242672
0.00242671
0.00242672
0.00242671
0.00242671
0.0024267
0.00242669
0.00242669
0.00242668
0.00242668
0.00242668
0.00242668
0.00242667
0.00242667
0.00242666
0.00242666
0.00249037
0.00249037
0.00249037
0.00249037
0.00249037
0.00249037
0.00249037
0.00249036
0.00249036
0.00249035
0.00249035
0.00249035
0.00249034
0.00249034
0.00249034
0.00249034
0.00249034
0.00249034
0.00249034
0.00249034
0.00251761
0.00251761
0.00251761
0.0025176
0.0025176
0.0025176
0.00251759
0.00251759
0.00251758
0.00251759
0.00251759
0.0025176
0.0025176
0.0025176
0.0025176
0.0025176
0.00251761
0.0025176
0.00251761
0.00251761
0.00250289
0.0025029
0.00250291
0.00250291
0.00250291
0.00250291
0.00250291
0.00250292
0.00250292
0.00250293
0.00250293
0.00250294
0.00250294
0.00250294
0.00250294
0.00250295
0.00250295
0.00250295
0.00250295
0.00250295
0.00244873
0.00244874
0.00244875
0.00244875
0.00244876
0.00244876
0.00244877
0.00244878
0.00244878
0.00244879
0.00244879
0.00244879
0.00244879
0.00244879
0.0024488
0.0024488
0.0024488
0.00244881
0.00244881
0.00244881
0.00236399
0.00236399
0.00236399
0.00236399
0.002364
0.002364
0.002364
0.00236399
0.00236399
0.00236399
0.00236399
0.002364
0.00236401
0.00236402
0.00236402
0.00236403
0.00236404
0.00236404
0.00236404
0.00236404
0.00225581
0.0022558
0.0022558
0.0022558
0.0022558
0.0022558
0.0022558
0.00225579
0.00225579
0.00225579
0.0022558
0.0022558
0.00225581
0.00225582
0.00225583
0.00225584
0.00225585
0.00225585
0.00225586
0.00225585
0.00213023
0.00213024
0.00213024
0.00213024
0.00213024
0.00213024
0.00213025
0.00213025
0.00213026
0.00213026
0.00213026
0.00213027
0.00213028
0.00213028
0.00213029
0.0021303
0.0021303
0.00213032
0.00213032
0.00213031
0.00199232
0.00199233
0.00199234
0.00199234
0.00199235
0.00199235
0.00199236
0.00199238
0.00199239
0.00199239
0.0019924
0.00199241
0.00199241
0.00199242
0.00199242
0.00199243
0.00199243
0.00199243
0.00199243
0.00199243
0.00184615
0.00184616
0.00184617
0.00184618
0.00184619
0.0018462
0.00184621
0.00184622
0.00184624
0.00184625
0.00184626
0.00184627
0.00184627
0.00184627
0.00184627
0.00184627
0.00184628
0.00184627
0.00184627
0.00184626
0.00169495
0.00169496
0.00169497
0.00169498
0.00169499
0.001695
0.00169501
0.00169502
0.00169503
0.00169504
0.00169505
0.00169505
0.00169506
0.00169506
0.00169507
0.00169506
0.00169507
0.00169507
0.00169507
0.00169506
0.00154127
0.00154127
0.00154127
0.00154128
0.00154129
0.00154131
0.00154131
0.00154132
0.00154133
0.00154133
0.00154134
0.00154134
0.00154135
0.00154136
0.00154137
0.00154137
0.00154137
0.00154138
0.00154138
0.00154137
0.00138709
0.00138709
0.00138709
0.0013871
0.00138711
0.00138712
0.00138713
0.00138714
0.00138714
0.00138715
0.00138716
0.00138717
0.00138717
0.00138718
0.00138719
0.0013872
0.0013872
0.0013872
0.00138719
0.00138718
0.00123398
0.00123399
0.001234
0.001234
0.00123401
0.00123401
0.00123402
0.00123403
0.00123404
0.00123404
0.00123405
0.00123406
0.00123407
0.00123408
0.00123408
0.00123409
0.00123409
0.00123409
0.00123408
0.00123407
0.00108317
0.00108317
0.00108318
0.00108319
0.0010832
0.0010832
0.00108321
0.00108321
0.00108321
0.00108322
0.00108322
0.00108323
0.00108324
0.00108324
0.00108325
0.00108325
0.00108325
0.00108326
0.00108326
0.00108326
0.000935581
0.00093559
0.000935595
0.000935603
0.000935608
0.000935616
0.000935617
0.000935618
0.000935618
0.000935625
0.00093563
0.000935637
0.000935638
0.000935638
0.000935642
0.000935646
0.000935651
0.000935662
0.000935669
0.000935676
0.00079197
0.000791977
0.000791981
0.000791985
0.000791989
0.000791993
0.000791994
0.000792001
0.000792003
0.000792003
0.000792004
0.000792008
0.000792009
0.000792015
0.000792015
0.000792019
0.000792027
0.000792033
0.00079204
0.000792042
0.000652967
0.00065297
0.000652977
0.000652979
0.00065298
0.000652981
0.000652983
0.000652984
0.000652986
0.000652983
0.000652983
0.000652987
0.000652993
0.000653001
0.000653003
0.000653005
0.000653009
0.000653012
0.000653015
0.000653019
0.000519212
0.000519216
0.00051922
0.000519223
0.000519223
0.000519222
0.00051922
0.000519218
0.000519219
0.00051922
0.000519224
0.000519228
0.000519232
0.000519238
0.000519244
0.000519248
0.00051925
0.00051925
0.000519255
0.000519258
0.000391531
0.000391535
0.000391536
0.000391538
0.000391538
0.000391537
0.000391539
0.000391538
0.000391538
0.000391537
0.00039154
0.000391544
0.000391545
0.000391549
0.000391554
0.000391561
0.000391563
0.000391563
0.000391566
0.000391567
0.000271244
0.000271247
0.000271249
0.000271251
0.000271251
0.00027125
0.000271252
0.000271254
0.000271256
0.000271256
0.000271256
0.000271258
0.000271259
0.000271259
0.00027126
0.000271262
0.000271264
0.000271269
0.00027127
0.000271271
0.000161018
0.00016102
0.00016102
0.00016102
0.000161022
0.000161024
0.000161026
0.000161027
0.000161027
0.000161026
0.000161026
0.000161027
0.000161028
0.000161029
0.000161031
0.000161032
0.000161034
0.000161036
0.000161036
0.000161036
5.68502e-05
5.68501e-05
5.68498e-05
5.68499e-05
5.68501e-05
5.68502e-05
5.68501e-05
5.68498e-05
5.68497e-05
5.68498e-05
5.68502e-05
5.68504e-05
5.68507e-05
5.68509e-05
5.68511e-05
5.6851e-05
5.6851e-05
5.68508e-05
5.68508e-05
5.68506e-05
)
;

boundaryField
{
    movingWall
    {
        type            nutkWallFunction;
        Cmu             0.09;
        kappa           0.41;
        E               9.8;
        value           nonuniform List<scalar> 
20
(
6.75986e-06
6.75984e-06
6.75984e-06
6.75984e-06
6.75984e-06
6.75984e-06
6.75983e-06
6.75983e-06
6.75983e-06
6.75985e-06
6.75987e-06
6.75988e-06
6.75989e-06
6.75989e-06
6.75989e-06
6.75989e-06
6.75988e-06
6.75987e-06
6.75987e-06
6.75986e-06
)
;
    }
    bottomWall
    {
        type            nutkWallFunction;
        Cmu             0.09;
        kappa           0.41;
        E               9.8;
        value           nonuniform List<scalar> 
20
(
5.68809e-06
5.68809e-06
5.68809e-06
5.6881e-06
5.68811e-06
5.68814e-06
5.68815e-06
5.68816e-06
5.68815e-06
5.68815e-06
5.68813e-06
5.68813e-06
5.68813e-06
5.68815e-06
5.68815e-06
5.68816e-06
5.68813e-06
5.68812e-06
5.68811e-06
5.6881e-06
)
;
    }
    cyc_half0
    {
        type            cyclic;
    }
    cyc_half1
    {
        type            cyclic;
    }
    frontAndBack
    {
        type            empty;
    }
}


// ************************************************************************* //
