/*--------------------------------*- C++ -*----------------------------------*\
  =========                 |
  \\      /  F ield         | OpenFOAM: The Open Source CFD Toolbox
   \\    /   O peration     | Website:  https://openfoam.org
    \\  /    A nd           | Version:  13
     \\/     M anipulation  |
\*---------------------------------------------------------------------------*/
FoamFile
{
    format      ascii;
    class       surfaceScalarField;
    location    "3800";
    object      phi;
}
// * * * * * * * * * * * * * * * * * * * * * * * * * * * * * * * * * * * * * //

dimensions      [0 3 -1 0 0 0 0];

internalField   nonuniform List<scalar> 
1540
(
3.66438e-05
-3.61906e-10
3.66441e-05
-2.74839e-10
3.6644e-05
5.30425e-11
3.6644e-05
2.90592e-11
3.66447e-05
-6.64245e-10
3.66454e-05
-7.38872e-10
3.66457e-05
-2.87587e-10
3.66457e-05
-2.37956e-11
3.66453e-05
3.81504e-10
3.66446e-05
7.28846e-10
3.66443e-05
3.68238e-10
3.66443e-05
-1.86395e-12
3.66446e-05
-2.79432e-10
3.66455e-05
-8.2674e-10
3.66454e-05
2.28122e-11
3.6645e-05
4.47151e-10
3.66448e-05
1.84573e-10
3.66447e-05
1.0519e-10
3.66444e-05
2.72949e-10
6.19087e-10
4.52079e-05
-2.95906e-10
4.52072e-05
4.0597e-10
4.5207e-05
3.01834e-10
4.52079e-05
-9.29087e-10
4.5208e-05
-7.81276e-10
4.52073e-05
-1.02755e-11
4.52076e-05
-5.63107e-10
4.52083e-05
-6.68558e-10
4.52078e-05
9.01621e-10
4.52077e-05
8.78861e-10
4.52079e-05
1.39456e-10
4.52082e-05
-1.98015e-10
4.52084e-05
-5.20383e-10
4.52082e-05
-5.99611e-10
4.52079e-05
3.15145e-10
4.52075e-05
9.15574e-10
4.52066e-05
1.05727e-09
4.52068e-05
-1.5876e-10
4.52074e-05
-3.01892e-10
5.18089e-11
5.14621e-05
-2.58195e-10
5.1462e-05
4.732e-10
5.1462e-05
2.96793e-10
5.14618e-05
-7.24592e-10
5.14617e-05
-7.25892e-10
5.14622e-05
-4.26893e-10
5.14618e-05
-2.3905e-10
5.14606e-05
5.44406e-10
5.14608e-05
7.82499e-10
5.14616e-05
1.04127e-10
5.14623e-05
-4.90456e-10
5.14625e-05
-3.9186e-10
5.1462e-05
3.49392e-11
5.14617e-05
-3.07958e-10
5.14619e-05
4.97696e-11
5.14619e-05
9.62531e-10
5.14621e-05
8.4309e-10
5.14619e-05
6.95075e-11
5.14619e-05
-2.90211e-10
-2.48223e-10
5.70877e-05
-2.07268e-10
5.70874e-05
6.95534e-10
5.70869e-05
8.10235e-10
5.70863e-05
-9.83293e-11
5.7086e-05
-4.05299e-10
5.70866e-05
-1.0348e-09
5.70871e-05
-7.96099e-10
5.70871e-05
5.90571e-10
5.70875e-05
4.15751e-10
5.70877e-05
-1.10081e-10
5.70879e-05
-6.4024e-10
5.70879e-05
-3.31733e-10
5.70878e-05
1.36566e-10
5.70871e-05
3.59879e-10
5.70866e-05
5.02839e-10
5.70867e-05
9.24716e-10
5.7087e-05
5.28369e-10
5.70875e-05
-4.0605e-10
5.70876e-05
-3.52265e-10
-4.30598e-10
6.25407e-05
-1.28716e-10
6.25413e-05
8.15654e-11
6.2542e-05
8.62284e-11
6.25416e-05
2.52992e-10
6.2541e-05
2.02486e-10
6.2541e-05
-9.7015e-10
6.2541e-05
-8.35783e-10
6.2542e-05
-3.87262e-10
6.25425e-05
-6.36369e-11
6.25425e-05
-1.03298e-10
6.25422e-05
-2.83609e-10
6.25417e-05
1.47931e-10
6.25418e-05
8.22497e-11
6.25414e-05
7.36429e-10
6.25407e-05
1.19411e-09
6.25413e-05
2.7432e-10
6.25414e-05
5.04286e-10
6.25409e-05
1.29895e-11
6.25409e-05
-3.2955e-10
-2.46941e-10
6.80283e-05
-4.64752e-11
6.8029e-05
-5.98003e-10
6.80291e-05
9.40112e-12
6.80291e-05
1.79226e-10
6.80292e-05
6.78031e-11
6.80288e-05
-5.42416e-10
6.80286e-05
-6.30139e-10
6.80293e-05
-1.08248e-09
6.80296e-05
-3.16801e-10
6.80293e-05
2.46202e-10
6.80285e-05
5.17812e-10
6.8028e-05
6.27871e-10
6.80277e-05
3.86036e-10
6.80283e-05
1.25866e-10
6.80293e-05
1.52764e-10
6.80295e-05
8.77824e-11
6.80294e-05
5.78302e-10
6.80284e-05
1.01475e-09
6.80282e-05
-7.88314e-11
-4.51039e-10
7.36615e-05
3.17836e-10
7.36621e-05
-1.23581e-09
7.36631e-05
-9.4426e-10
7.36632e-05
9.30765e-11
7.36633e-05
-8.24154e-11
7.36636e-05
-8.30171e-10
7.36628e-05
8.69921e-11
7.36611e-05
5.94797e-10
7.36612e-05
-3.9259e-10
7.36618e-05
-3.41023e-10
7.36614e-05
9.47937e-10
7.36613e-05
6.91666e-10
7.36618e-05
-1.54436e-10
7.36617e-05
2.27804e-10
7.36616e-05
2.27912e-10
7.36617e-05
-4.90815e-12
7.36624e-05
-1.27864e-10
7.3663e-05
4.67031e-10
7.36625e-05
4.884e-10
1.56017e-10
7.9517e-05
2.10756e-10
7.95166e-05
-8.18933e-10
7.95163e-05
-6.97405e-10
7.95167e-05
-2.43138e-10
7.95168e-05
-2.91328e-10
7.95165e-05
-5.00832e-10
7.95168e-05
-2.14964e-10
7.95173e-05
1.01146e-10
7.9517e-05
-9.2809e-11
7.95169e-05
-2.69727e-10
7.95167e-05
1.11807e-09
7.95158e-05
1.55695e-09
7.95154e-05
2.21675e-10
7.95164e-05
-7.84546e-10
7.95168e-05
-1.73879e-10
7.95164e-05
3.34668e-10
7.95168e-05
-4.83571e-10
7.95176e-05
-2.93677e-10
7.95172e-05
8.85365e-10
5.51076e-10
8.56485e-05
5.46461e-11
8.56481e-05
-4.06684e-10
8.56479e-05
-4.60007e-10
8.56478e-05
-2.09441e-10
8.56478e-05
-2.77168e-10
8.5648e-05
-7.67675e-10
8.56486e-05
-7.83426e-10
8.56485e-05
1.67961e-10
8.56485e-05
-4.4957e-11
8.56486e-05
-3.95857e-10
8.56486e-05
1.09171e-09
8.56485e-05
1.62752e-09
8.56481e-05
5.67768e-10
8.56475e-05
-1.44209e-10
8.56474e-05
-6.58275e-11
8.56485e-05
-7.47452e-10
8.56488e-05
-8.42823e-10
8.5649e-05
-3.66709e-10
8.56488e-05
1.05743e-09
1.06179e-09
9.21051e-05
1.60937e-10
9.21048e-05
-1.5177e-10
9.21041e-05
2.36591e-10
9.21039e-05
3.29325e-12
9.21038e-05
-2.63e-10
9.21033e-05
-2.04035e-10
9.21025e-05
-1.17737e-11
9.21032e-05
-5.77243e-10
9.21038e-05
-6.32723e-10
9.21035e-05
-4.43479e-11
9.2104e-05
5.23874e-10
9.21049e-05
7.59812e-10
9.21047e-05
6.29982e-10
9.21044e-05
1.8893e-10
9.21053e-05
-9.74378e-10
9.21053e-05
-7.34362e-10
9.21046e-05
-1.16526e-10
9.21045e-05
-2.26814e-10
9.21048e-05
8.09417e-10
7.65671e-10
9.89311e-05
-7.55295e-11
9.8931e-05
-6.51368e-11
9.8931e-05
2.14061e-10
9.89308e-05
2.34966e-10
9.89301e-05
3.82391e-10
9.89297e-05
1.44284e-10
9.89303e-05
-6.38662e-10
9.89309e-05
-1.09138e-09
9.89305e-05
-3.05891e-10
9.893e-05
5.42794e-10
9.89302e-05
3.10172e-10
9.89309e-05
-4.77141e-12
9.89307e-05
7.29422e-10
9.89304e-05
5.45312e-10
9.89313e-05
-1.88588e-09
9.8931e-05
-4.16289e-10
9.89301e-05
7.41472e-10
9.89295e-05
3.79097e-10
9.893e-05
3.13193e-10
8.77052e-11
0.000106168
-1.79101e-10
0.000106168
4.00092e-10
0.000106167
9.30577e-10
0.000106167
-3.35679e-10
0.000106168
6.67802e-12
0.000106167
4.36532e-10
0.000106168
-1.5556e-09
0.000106168
-1.13402e-09
0.000106168
1.92219e-10
0.000106168
2.1643e-10
0.000106169
-3.04617e-10
0.000106169
-1.43152e-10
0.000106169
7.14957e-10
0.000106169
7.90145e-10
0.000106167
-6.35594e-10
0.000106167
-3.88738e-11
0.000106168
1.52589e-10
0.000106168
4.03753e-10
0.000106168
3.58188e-10
-1.60701e-10
0.00011386
1.61265e-10
0.00011386
-2.05067e-10
0.000113862
-5.24465e-10
0.000113862
-4.43218e-10
0.000113862
-1.0392e-10
0.000113862
-7.77767e-11
0.000113861
-5.322e-10
0.000113861
-5.68391e-10
0.000113861
-3.84128e-10
0.000113862
-1.97219e-10
0.000113862
-3.37729e-10
0.000113862
-2.86985e-11
0.000113861
9.12824e-10
0.00011386
1.7927e-09
0.000113859
8.5153e-10
0.000113859
1.0285e-10
0.00011386
-8.46991e-10
0.000113861
-4.93709e-10
0.00011386
5.42505e-10
4.84063e-10
0.000122055
-3.39914e-10
0.000122055
-6.62395e-10
0.000122056
-1.13684e-09
0.000122056
-7.36312e-10
0.000122056
-1.90479e-10
0.000122057
-5.14893e-10
0.000122057
-9.28925e-10
0.000122056
5.85151e-10
0.000122055
3.89381e-10
0.000122055
4.42116e-11
0.000122054
4.16827e-10
0.000122053
1.03606e-09
0.000122054
4.52404e-10
0.000122054
9.17467e-10
0.000122054
1.03177e-09
0.000122054
3.90757e-10
0.000122054
-8.83774e-10
0.000122053
-3.10834e-11
0.000122054
4.78148e-10
-1.88665e-10
0.0001308
-9.19099e-10
0.000130801
-1.15262e-09
0.000130801
-1.63387e-09
0.000130802
-8.78067e-10
0.000130801
8.62515e-11
0.0001308
5.6989e-10
0.000130798
8.55848e-10
0.000130798
8.07761e-10
0.000130798
3.03129e-10
0.000130798
6.19096e-10
0.000130799
-3.95293e-10
0.0001308
-9.1007e-11
0.0001308
4.87291e-10
0.0001308
5.71815e-10
0.000130799
1.77635e-09
0.000130799
6.03226e-10
0.000130799
-4.13758e-10
0.000130798
4.90445e-10
0.000130799
-2.66251e-10
-1.26535e-09
0.000140152
-1.21512e-09
0.000140152
-9.03172e-10
0.000140151
-6.31383e-10
0.000140151
-1.38666e-09
0.000140152
-7.08758e-10
0.000140151
1.30758e-09
0.000140151
7.78738e-10
0.000140152
3.58278e-10
0.000140152
2.67439e-10
0.000140152
3.98923e-10
0.000140151
3.20703e-10
0.000140151
4.7953e-11
0.000140152
1.31246e-10
0.000140152
2.74696e-10
0.000140152
1.48492e-09
0.000140151
1.62102e-09
0.00014015
8.94925e-10
0.00014015
5.51756e-10
0.000140151
-1.22573e-09
-2.19619e-09
0.000150171
-9.61784e-10
0.000150171
-1.34695e-09
0.00015017
5.27106e-10
0.000150168
1.39201e-10
0.000150169
-1.63987e-09
0.000150171
-5.28306e-11
0.000150171
4.13034e-10
0.000150172
-6.27487e-11
0.000150172
-1.23649e-10
0.000150173
-2.06027e-10
0.000150173
-3.23647e-10
0.000150173
3.50724e-10
0.000150172
1.28253e-09
0.000150171
1.41851e-09
0.000150171
1.26684e-09
0.000150172
8.05258e-11
0.000150173
5.48883e-10
0.000150173
4.25481e-10
0.000150172
-9.04135e-10
-7.44745e-10
0.000160928
8.61803e-10
0.000160927
1.06101e-10
0.000160928
-1.42242e-10
0.000160928
-1.73725e-10
0.000160927
-7.25481e-10
0.000160928
-6.02264e-10
0.000160929
-1.40711e-09
0.00016093
-8.29038e-10
0.000160931
-6.67063e-10
0.000160931
-6.61533e-10
0.000160931
-2.49466e-10
0.000160931
6.92875e-10
0.000160931
1.51595e-09
0.000160931
1.22618e-09
0.000160931
9.6151e-10
0.000160931
5.76801e-10
0.000160931
3.42841e-10
0.000160931
-3.89492e-10
0.000160931
-8.04727e-10
2.95135e-10
0.000172509
-5.03564e-11
0.000172509
6.23236e-11
0.00017251
-6.37181e-10
0.000172511
-1.24785e-09
0.000172511
-1.01062e-09
0.000172511
-8.32045e-10
0.000172511
-1.0595e-09
0.000172511
-9.62665e-10
0.000172511
-6.40732e-10
0.00017251
6.11601e-10
0.000172508
1.37674e-09
0.000172509
2.03375e-10
0.000172511
-3.44181e-10
0.000172512
1.2211e-10
0.000172512
4.84589e-10
0.000172512
1.05835e-09
0.000172512
3.23165e-10
0.000172511
3.70313e-10
0.000172508
1.62629e-09
2.57787e-10
0.000185015
1.07905e-09
0.000185015
2.47763e-10
0.000185016
-1.3533e-09
0.000185016
-1.59609e-09
0.000185016
-6.0862e-10
0.000185016
-1.22199e-09
0.000185016
-1.31175e-09
0.000185016
-8.13472e-10
0.000185016
-9.5008e-10
0.000185017
-4.73583e-11
0.000185017
1.12511e-09
0.000185017
9.54544e-10
0.000185016
8.63951e-11
0.000185016
-4.05785e-11
0.000185017
1.35745e-11
0.000185018
2.3553e-10
0.000185018
-1.92317e-10
0.000185018
6.27473e-10
0.000185017
2.03675e-09
1.19678e-09
0.000187418
4.86886e-10
0.000187418
5.87828e-10
0.000187418
-9.80308e-10
0.000187416
3.01547e-11
0.000187416
-3.69685e-11
0.000187416
-1.28296e-09
0.000187414
-4.94031e-11
0.000187413
1.54459e-10
0.000187412
5.73534e-11
0.000187412
1.96089e-10
0.000187413
-1.107e-10
0.000187415
-8.23158e-10
0.000187416
-1.05394e-09
0.000187417
-2.782e-10
0.000187417
-3.95123e-10
0.000187418
-3.96027e-10
0.000187417
2.92615e-10
0.000187418
1.56244e-10
0.000187418
1.38696e-09
1.23915e-09
0.000179072
-8.57334e-11
0.000179073
-2.4652e-11
0.000179072
-1.31602e-10
0.000179071
1.07764e-09
0.000179071
5.05003e-10
0.00017907
-3.37718e-10
0.000179071
-9.3634e-10
0.000179072
-1.06072e-09
0.000179072
-3.36461e-10
0.000179073
-3.14411e-10
0.000179073
5.75332e-11
0.000179071
5.80342e-10
0.00017907
5.52669e-10
0.00017907
-7.86257e-10
0.000179072
-1.87262e-09
0.000179072
-8.48635e-10
0.000179071
7.75856e-10
0.00017907
1.29933e-09
0.000179071
2.19104e-10
7.07337e-10
0.000171041
-4.30574e-10
0.000171041
7.95654e-12
0.00017104
5.98474e-10
0.000171041
2.39192e-10
0.000171042
-2.25527e-10
0.000171042
-4.2302e-10
0.000171043
-1.67308e-09
0.000171043
-9.59176e-10
0.000171043
-1.79825e-10
0.000171042
6.62177e-10
0.000171041
6.63262e-10
0.000171042
-4.63146e-11
0.000171042
4.64455e-11
0.000171041
7.63298e-11
0.000171039
1.49139e-10
0.000171038
7.36576e-10
0.000171038
4.83168e-11
0.00017104
1.61524e-11
0.00017104
-1.23777e-10
-1.29516e-10
0.00016334
-5.2781e-10
0.00016334
2.26118e-10
0.000163341
2.00046e-10
0.000163341
3.85271e-11
0.000163341
-7.51579e-11
0.00016334
4.53635e-10
0.000163338
3.68494e-10
0.000163338
-6.99971e-10
0.000163338
-5.99727e-10
0.000163339
2.55402e-10
0.00016334
-3.39242e-10
0.00016334
-4.46397e-10
0.00016334
-4.81421e-10
0.000163341
-1.08693e-10
0.00016334
2.31955e-10
0.00016334
8.78827e-10
0.000163339
1.65748e-09
0.000163338
1.68904e-10
0.000163339
-9.76319e-10
-1.10245e-09
0.000155974
-3.94398e-10
0.000155974
8.68466e-10
0.000155974
3.26821e-11
0.000155974
-6.38691e-11
0.000155974
9.29643e-11
0.000155974
6.48716e-10
0.000155973
1.55444e-09
0.000155971
1.16264e-09
0.000155971
-7.16921e-10
0.000155972
-9.1988e-10
0.000155972
-4.914e-10
0.000155973
-7.60929e-10
0.000155972
-3.17838e-10
0.000155973
-4.19786e-10
0.000155973
-6.77027e-10
0.000155974
3.92096e-10
0.000155975
9.2735e-10
0.000155974
4.42501e-10
0.000155974
-7.08354e-10
-1.41404e-09
0.000148945
-1.52632e-10
0.000148945
7.74286e-10
0.000148945
7.66694e-11
0.000148945
1.79097e-10
0.000148945
3.58235e-11
0.000148945
2.96071e-10
0.000148945
1.51967e-09
0.000148945
1.11561e-09
0.000148944
6.99884e-10
0.000148943
-2.97482e-11
0.000148944
-1.16766e-09
0.000148944
-1.48996e-09
0.000148945
-8.55482e-10
0.000148945
-2.26352e-10
0.000148944
1.31218e-10
0.000148943
1.03288e-09
0.000148944
-4.74515e-10
0.000148946
-7.66683e-10
0.000148946
-5.16489e-10
-8.34028e-10
0.000142253
1.63931e-11
0.000142253
9.20524e-10
0.000142252
9.93365e-10
0.000142252
4.12594e-10
0.000142252
8.91685e-11
0.000142252
2.37935e-10
0.000142252
1.09643e-09
0.000142252
9.99356e-10
0.000142252
9.29877e-10
0.000142253
-6.28178e-10
0.000142253
-1.51131e-09
0.000142253
-1.36939e-09
0.000142253
-8.81458e-10
0.000142252
8.93316e-11
0.000142252
4.51093e-10
0.000142253
3.23178e-10
0.000142252
-2.44828e-10
0.000142252
-4.56952e-10
0.000142253
-1.10265e-09
-9.31479e-10
0.000135895
5.54511e-10
0.000135896
5.16838e-10
0.000135896
7.10868e-10
0.000135896
6.65843e-10
0.000135895
1.05756e-09
0.000135895
5.25127e-10
0.000135895
7.04872e-10
0.000135896
2.93114e-10
0.000135897
-1.78266e-10
0.000135897
-6.74784e-10
0.000135897
-1.24809e-09
0.000135896
-5.21586e-10
0.000135895
-2.91058e-10
0.000135895
1.18019e-10
0.000135895
5.94325e-10
0.000135895
-3.05095e-10
0.000135895
1.16328e-10
0.000135895
-5.01e-10
0.000135896
-1.67792e-09
-9.56141e-10
0.000129869
3.77164e-10
0.00012987
5.46773e-11
0.00012987
3.38672e-10
0.00012987
6.20887e-10
0.000129871
8.22786e-10
0.000129871
5.01871e-10
0.000129871
5.37901e-10
0.000129871
1.35316e-10
0.000129871
-1.94728e-10
0.000129871
-4.86181e-10
0.00012987
-8.85022e-10
0.00012987
-6.52831e-10
0.00012987
2.52118e-10
0.000129869
7.31164e-10
0.000129869
2.40799e-10
0.000129869
-2.75321e-10
0.00012987
-6.63001e-10
0.00012987
-6.54625e-10
0.00012987
-1.09128e-09
-2.29478e-10
0.00012417
1.02533e-09
0.00012417
1.24469e-10
0.00012417
-2.45394e-10
0.000124171
1.97402e-10
0.000124171
2.43991e-10
0.000124172
3.43387e-10
0.000124172
5.24487e-10
0.000124172
6.06315e-11
0.000124172
-1.93655e-10
0.000124172
-4.15895e-10
0.000124171
-5.50329e-10
0.00012417
9.82045e-11
0.00012417
2.29539e-10
0.000124171
4.69534e-10
0.00012417
9.85204e-10
0.00012417
-7.89403e-10
0.000124171
-1.52127e-09
0.000124171
-6.68907e-10
0.000124171
-6.53892e-10
1.50244e-10
0.000118796
7.2839e-10
0.000118796
1.41518e-10
0.000118796
2.69388e-10
0.000118795
6.50835e-10
0.000118795
2.59114e-10
0.000118796
-4.06269e-10
0.000118797
-6.87924e-10
0.000118798
-5.0799e-10
0.000118798
-1.5717e-10
0.000118798
-2.1475e-10
0.000118798
-7.51718e-10
0.000118798
-2.368e-10
0.000118798
1.44166e-10
0.000118798
3.0858e-10
0.000118799
6.79362e-10
0.000118798
-6.9789e-10
0.000118798
-9.0396e-10
0.000118797
-6.1766e-11
0.000118796
1.76153e-10
5.89801e-10
0.000113748
-3.49249e-10
0.000113748
-1.73601e-10
0.000113749
2.29777e-10
0.000113749
5.06346e-10
0.000113748
5.89523e-10
0.000113748
2.5169e-10
0.000113749
-1.51309e-09
0.000113749
-1.42018e-09
0.000113749
-4.2871e-11
0.000113749
-2.13621e-10
0.000113749
-5.339e-10
0.000113749
-3.28693e-10
0.00011375
-7.51782e-10
0.00011375
2.37507e-11
0.00011375
5.33067e-10
0.00011375
-7.59889e-10
0.000113749
4.06028e-10
0.000113748
1.16347e-09
0.000113747
1.0567e-09
6.11006e-10
0.000109032
-1.12096e-10
0.000109032
-6.32057e-11
0.000109032
4.51101e-12
0.000109032
1.70778e-10
0.000109033
2.08684e-10
0.000109033
-2.87581e-10
0.000109032
-8.16487e-10
0.000109031
-4.00754e-10
0.000109032
-5.43602e-10
0.000109033
-1.05144e-09
0.000109032
-5.56121e-11
0.000109032
3.23755e-11
0.000109032
-7.78901e-10
0.000109032
-3.69554e-11
0.000109032
-1.66952e-10
0.000109032
-9.38082e-11
0.000109032
5.10094e-10
0.000109032
1.03644e-09
0.000109032
1.22912e-09
4.99152e-10
0.00010466
6.94352e-11
0.000104659
6.14167e-10
0.000104659
3.31644e-10
0.000104659
1.00561e-11
0.00010466
-2.72321e-10
0.00010466
-6.57038e-10
0.00010466
-6.28856e-10
0.00010466
-2.10842e-10
0.00010466
-9.6488e-10
0.000104661
-1.63337e-09
0.000104661
-2.34536e-10
0.00010466
5.14524e-10
0.000104659
8.06327e-10
0.000104658
1.49047e-10
0.000104659
-4.72195e-10
0.000104658
3.47831e-10
0.000104658
2.92685e-10
0.000104659
4.33132e-10
0.00010466
4.85838e-10
3.17187e-10
0.000100658
1.67619e-10
0.000100658
3.62442e-10
0.000100658
3.57782e-10
0.000100659
-3.42058e-10
0.000100659
-6.40163e-10
0.000100659
-4.77157e-10
0.000100659
-7.36977e-10
0.000100659
-4.59727e-10
0.000100659
-1.01199e-09
0.000100659
-1.43938e-09
0.000100659
-3.5496e-11
0.000100659
5.21735e-10
0.000100659
5.72395e-10
0.000100659
2.78588e-10
0.000100658
-1.89764e-10
0.000100659
-3.32015e-11
0.000100659
-3.09804e-10
0.000100659
5.56911e-10
0.000100659
1.12534e-09
9.32266e-10
9.7077e-05
7.06559e-10
9.7077e-05
4.24916e-10
9.70775e-05
-9.7742e-11
9.70775e-05
-3.8138e-10
9.70779e-05
-1.07281e-09
9.70785e-05
-1.06446e-09
9.70782e-05
-4.17207e-10
9.70777e-05
4.21364e-12
9.70772e-05
-4.71083e-10
9.70763e-05
-5.7832e-10
9.70765e-05
-2.64487e-10
9.70775e-05
-5.2156e-10
9.7078e-05
9.10616e-12
9.70779e-05
3.14686e-10
9.70771e-05
6.11715e-10
9.70763e-05
7.12446e-10
9.70762e-05
-2.90737e-10
9.70763e-05
5.56833e-10
9.70768e-05
5.72666e-10
4.61329e-10
9.40132e-05
6.41988e-10
9.40132e-05
4.44105e-10
9.40133e-05
-1.61151e-10
9.40136e-05
-6.71741e-10
9.40138e-05
-1.27455e-09
9.4013e-05
-2.6873e-10
9.40123e-05
3.05639e-10
9.40125e-05
-1.8363e-10
9.40127e-05
-7.31085e-10
9.4013e-05
-8.79575e-10
9.40129e-05
-1.25906e-10
9.40124e-05
-7.60767e-11
9.40126e-05
-2.44873e-10
9.40133e-05
-5.10723e-10
9.40134e-05
4.56085e-10
9.40132e-05
9.01954e-10
9.40122e-05
6.14466e-10
9.40124e-05
3.85603e-10
9.40127e-05
3.21355e-10
3.48412e-10
9.16687e-05
4.07309e-10
9.16688e-05
3.36557e-10
9.16689e-05
-2.43609e-10
9.16691e-05
-8.39924e-10
9.16685e-05
-7.20534e-10
9.16687e-05
-4.11525e-10
9.16687e-05
3.34477e-10
9.16684e-05
1.33496e-10
9.16679e-05
-2.37025e-10
9.16678e-05
-8.11808e-10
9.16681e-05
-4.70582e-10
9.16679e-05
5.99614e-11
9.16679e-05
-2.68077e-10
9.16679e-05
-5.35703e-10
9.16679e-05
3.05028e-10
9.16683e-05
5.29041e-10
9.16671e-05
1.70718e-09
9.16674e-05
1.25882e-10
9.1668e-05
-1.41299e-10
1.84538e-10
9.05421e-05
2.18866e-10
9.05424e-05
1.16962e-10
9.05426e-05
-4.29709e-10
9.05424e-05
-6.70485e-10
9.05416e-05
8.88383e-11
9.05406e-05
6.18518e-10
9.05408e-05
8.95336e-11
9.05412e-05
-2.52125e-10
9.05415e-05
-4.70837e-10
9.05416e-05
-9.61397e-10
9.05415e-05
-3.9881e-10
9.05414e-05
1.05156e-10
9.05411e-05
6.15239e-11
9.05403e-05
1.3062e-10
9.05403e-05
3.45407e-10
9.05404e-05
3.14562e-10
9.05419e-05
2.41656e-10
9.05421e-05
-1.00578e-11
9.05418e-05
3.26185e-10
2.65839e-10
9.25786e-05
9.25787e-05
9.25783e-05
9.25776e-05
9.25777e-05
9.25783e-05
9.25784e-05
9.25782e-05
9.25777e-05
9.25767e-05
9.25763e-05
9.25764e-05
9.25764e-05
9.25766e-05
9.25769e-05
9.25772e-05
9.25775e-05
9.25776e-05
9.25779e-05
)
;

boundaryField
{
    movingWall
    {
        type            calculated;
        value           uniform 0;
    }
    bottomWall
    {
        type            calculated;
        value           uniform 0;
    }
    cyc_half0
    {
        type            cyclic;
        value           nonuniform List<scalar> 
40
(
-0.000187418
-0.000185016
-0.000172508
-0.00016093
-0.000150171
-0.000140152
-0.0001308
-0.000122054
-0.00011386
-0.000106168
-9.89308e-05
-9.21051e-05
-8.56483e-05
-7.95169e-05
-7.36619e-05
-6.80284e-05
-6.25408e-05
-5.70877e-05
-5.14622e-05
-4.5208e-05
-3.66438e-05
-0.000179072
-0.000171041
-0.00016334
-0.000155975
-0.000148945
-0.000142253
-0.000135896
-0.000129869
-0.00012417
-0.000118796
-0.000113747
-0.000109032
-0.00010466
-0.000100658
-9.70774e-05
-9.4013e-05
-9.16683e-05
-9.05418e-05
-9.25783e-05
)
;
    }
    cyc_half1
    {
        type            cyclic;
        value           nonuniform List<scalar> 
40
(
0.000187418
0.000185016
0.000172508
0.00016093
0.000150171
0.000140152
0.0001308
0.000122054
0.00011386
0.000106168
9.89308e-05
9.21051e-05
8.56483e-05
7.95169e-05
7.36619e-05
6.80284e-05
6.25408e-05
5.70877e-05
5.14622e-05
4.5208e-05
3.66438e-05
0.000179072
0.000171041
0.00016334
0.000155975
0.000148945
0.000142253
0.000135896
0.000129869
0.00012417
0.000118796
0.000113747
0.000109032
0.00010466
0.000100658
9.70774e-05
9.4013e-05
9.16683e-05
9.05418e-05
9.25783e-05
)
;
    }
    frontAndBack
    {
        type            empty;
    }
}


// ************************************************************************* //
