/*--------------------------------*- C++ -*----------------------------------*\
  =========                 |
  \\      /  F ield         | OpenFOAM: The Open Source CFD Toolbox
   \\    /   O peration     | Website:  https://openfoam.org
    \\  /    A nd           | Version:  13
     \\/     M anipulation  |
\*---------------------------------------------------------------------------*/
FoamFile
{
    format      ascii;
    class       volVectorField;
    location    "7.902945";
    object      wallShearStress;
}
// * * * * * * * * * * * * * * * * * * * * * * * * * * * * * * * * * * * * * //

dimensions      [0 2 -2 0 0 0 0];

internalField   uniform (0 0 0);

boundaryField
{
    inlet
    {
        type            calculated;
        value           uniform (0 0 0);
    }
    outlet
    {
        type            calculated;
        value           uniform (0 0 0);
    }
    cylinder
    {
        type            calculated;
        value           nonuniform List<vector> 
132
(
(0.0001086928 -0.0018454509 -9.4412685e-23)
(0.00045259684 -0.0090213414 2.770142e-23)
(0.0011863344 -0.016035222 1.6544398e-21)
(0.0022851358 -0.022639959 -6.1644812e-21)
(0.0036965675 -0.028588946 4.9199362e-21)
(0.0053407493 -0.033647743 1.7107759e-20)
(0.0071103649 -0.037607838 -3.6802242e-21)
(0.0088818544 -0.040299433 -1.6404611e-20)
(0.010517679 -0.041607111 1.7174271e-20)
(0.011876463 -0.041480461 -4.2115219e-20)
(0.01282617 -0.039946204 -8.2396754e-22)
(0.013258533 -0.037115739 2.9773462e-20)
(0.013103954 -0.033186173 5.0517066e-20)
(0.012349587 -0.028444163 -4.2025633e-20)
(0.011043988 -0.023234318 4.4688795e-20)
(0.0093072602 -0.017945895 7.1768114e-20)
(0.0073091743 -0.012953707 -4.6496435e-20)
(0.0052460102 -0.0085664721 7.3285657e-20)
(0.0033131633 -0.0049973186 9.492269e-20)
(0.0016544117 -0.0023149818 -6.0295647e-20)
(0.00036073472 -0.00048542782 -7.5378261e-20)
(-0.00056594345 0.00064845161 2.6109752e-23)
(-0.0011813962 0.0012706521 1.060791e-20)
(-0.0015922388 0.0015851424 -1.2560752e-20)
(-0.0018415531 0.0016919946 -2.1155759e-20)
(-0.0017994441 0.001524706 4.4773814e-21)
(-0.00120832 0.0009478055 -3.999018e-20)
(0.00013512999 -7.7125353e-05 1.059068e-20)
(0.0018199565 -0.0011510563 8.2895597e-21)
(0.0032398135 -0.0018677994 -5.7188674e-20)
(0.0040211346 -0.0020867569 7.4889146e-20)
(0.0042950404 -0.0019832275 2.2710045e-21)
(0.0044106953 -0.0017876332 1.6364185e-20)
(0.0045632953 -0.0015966436 -1.9359878e-20)
(0.0046813471 -0.0013839066 6.1418022e-20)
(0.0045477629 -0.0011019965 -3.8807426e-21)
(0.0039460416 -0.00074925925 1.5651908e-20)
(0.0026469088 -0.00036845473 -2.1513979e-21)
(0.00041797784 -5.2128167e-05 3.0946746e-21)
(-0.0030058513 5.3487441e-05 -1.9386004e-21)
(-0.0080068077 -0.00027204744 3.6434168e-21)
(-0.014585411 -0.0013626508 -1.1334508e-22)
(-0.022214524 -0.0034242466 4.1943749e-20)
(-0.030407599 -0.0065743527 -1.6311729e-20)
(-0.03854725 -0.010794413 1.4844372e-20)
(-0.046087615 -0.015953419 -9.6077985e-20)
(-0.052549286 -0.021816361 -1.5597796e-20)
(-0.057633718 -0.028106565 1.3772255e-19)
(-0.061133433 -0.034517426 -1.1804691e-19)
(-0.063003915 -0.040765502 -2.264321e-21)
(-0.063249592 -0.046561905 3.6286801e-20)
(-0.062014332 -0.051695376 -3.3254476e-20)
(-0.059402609 -0.055920668 -6.5779436e-21)
(-0.055630923 -0.059089944 -4.2546285e-21)
(-0.050943187 -0.061107878 -6.8759394e-21)
(-0.04552262 -0.061834863 -2.3896807e-21)
(-0.039634906 -0.061255905 5.945819e-22)
(-0.03350673 -0.059346085 4.9327867e-20)
(-0.02737199 -0.05613449 -7.6108459e-20)
(-0.021450458 -0.05168015 -8.1652097e-20)
(-0.015946247 -0.046074212 -3.3256575e-20)
(-0.011043728 -0.039437861 -7.641864e-20)
(-0.0069031635 -0.031917777 1.7078593e-20)
(-0.0036556412 -0.023683058 2.4881086e-20)
(-0.0014071566 -0.014934562 -3.8707096e-20)
(-0.00021532351 -0.0058357033 -5.174657e-21)
(0.00015540914 0.0053239421 -4.3864979e-22)
(0.00058915703 0.012389976 -2.7565028e-23)
(0.0014007764 0.019181742 -1.7258646e-21)
(0.0025563187 0.025456236 6.4776296e-21)
(0.0039949456 0.030977143 -5.1827597e-21)
(0.0056294183 0.035524249 -1.7991002e-20)
(0.0073478332 0.038909423 3.8524331e-21)
(0.0090255324 0.040987149 1.7063048e-20)
(0.010526278 0.041670383 -1.7733095e-20)
(0.01171474 0.040940203 4.3152101e-20)
(0.012469726 0.03885718 8.3788488e-22)
(0.012697562 0.035563606 -3.0048675e-20)
(0.012350364 0.031293475 -5.0632589e-20)
(0.011434024 0.026348974 4.1866173e-20)
(0.01002346 0.02109828 -4.4286628e-20)
(0.0082517044 0.015918805 -7.0845342e-20)
(0.0062932881 0.01116017 4.5772035e-20)
(0.0043416906 0.0070956609 -7.2048035e-20)
(0.0025694368 0.0038817625 -9.3289588e-20)
(0.0010956994 0.0015399747 5.9293845e-20)
(-1.6970671e-05 9.8548946e-07 7.4199027e-20)
(-0.00080131323 -0.00092739942 6.5437035e-20)
(-0.001315409 -0.0014173356 5.3065171e-20)
(-0.0016741005 -0.0016681178 1.2402654e-20)
(-0.0018244674 -0.0016778626 2.0888467e-20)
(-0.0016773789 -0.0014241706 -4.4217737e-21)
(-0.00080869511 -0.00064163941 3.9479241e-20)
(0.00071504289 0.00048632853 -1.0483933e-20)
(0.0023162566 0.0014712384 -8.2194671e-21)
(0.0035407155 0.0020445892 5.6809121e-20)
(0.0040994612 0.0021289573 -7.439726e-20)
(0.0042991403 0.0019854144 -2.2429323e-21)
(0.0044227574 0.0017923805 3.6997091e-20)
(0.0045918605 0.0016067375 1.9260617e-20)
(0.0046615204 0.0013786232 -6.1201147e-20)
(0.0044169607 0.0010713599 3.8745516e-21)
(0.003646376 0.00069420215 1.142172e-20)
(0.002116505 0.00029864291 2.1578778e-21)
(-0.00040010963 -1.1233849e-05 -3.1111664e-21)
(-0.0041534319 -8.1700583e-05 1.9525538e-21)
(-0.0095167125 0.00032334801 -3.6738576e-21)
(-0.01641823 0.0015307759 3.0126226e-20)
(-0.024269863 0.0037381312 -4.2197713e-20)
(-0.03256376 0.0070375878 1.6357499e-20)
(-0.040655219 0.011381821 -1.4821171e-20)
(-0.048048598 0.016629962 9.5430387e-20)
(-0.05427596 0.022530097 1.5396687e-20)
(-0.059069479 0.028803772 -1.349999e-19)
(-0.062255405 0.035148056 1.1475279e-19)
(-0.063807862 0.041282929 2.1790108e-21)
(-0.06374377 0.046923028 -3.445374e-20)
(-0.062234091 0.051875963 3.0982817e-20)
(-0.059362126 0.055879762 -4.7794671e-20)
(-0.055369671 0.058809798 3.5782576e-21)
(-0.050520044 0.060597469 -5.8487765e-21)
(-0.044961068 0.061068923 4.7630531e-21)
(-0.038980369 0.060240797 -7.2135143e-22)
(-0.032797906 0.058086528 -5.5025771e-20)
(-0.026646472 0.05464163 8.1929341e-20)
(-0.020743773 0.049971261 8.6124754e-20)
(-0.015290148 0.044170097 3.4603157e-20)
(-0.010466573 0.037364683 7.8713369e-20)
(-0.0064285392 0.029703921 -1.745007e-20)
(-0.0033024433 0.021361773 5.007495e-20)
(-0.0011888681 0.012532286 3.9038608e-20)
(-0.00014393072 0.0034149245 5.1922557e-21)
)
;
    }
    frontAndBack
    {
        type            empty;
    }
}


// ************************************************************************* //
