/*--------------------------------*- C++ -*----------------------------------*\
  =========                 |
  \\      /  F ield         | OpenFOAM: The Open Source CFD Toolbox
   \\    /   O peration     | Website:  https://openfoam.org
    \\  /    A nd           | Version:  13
     \\/     M anipulation  |
\*---------------------------------------------------------------------------*/
FoamFile
{
    format      ascii;
    class       volScalarField;
    location    "31.000182";
    object      omega;
}
// * * * * * * * * * * * * * * * * * * * * * * * * * * * * * * * * * * * * * //

dimensions      [0 0 -1 0 0 0 0];

internalField   nonuniform List<scalar> 
17140
(
4528389.9
731657.66
224626.36
95289.479
48487.713
27617.623
16960.86
10985.494
7400.0082
5136.0614
3649.0598
2641.3925
1941.1296
1444.3494
1085.8405
823.37694
628.8789
483.24355
373.21767
289.4486
225.23771
175.72456
137.34216
107.44649
84.060691
65.695832
51.22404
39.787857
30.735068
23.571317
17.924437
13.515002
10.128441
7.5876083
5.7312241
4.4063947
3.4750746
2.8238567
2.3677173
2.0469648
1.821212
1.6635032
1.5557725
1.4857676
1.446473
1.4304397
1.429201
1.4425117
1.4677268
1.5026813
1.5460454
1.5972402
1.6562951
1.7232728
1.7975131
1.8785525
1.9689231
2.0741978
2.2014092
2.359156
2.5253496
2.6345831
2.613486
2.4750164
2.3498695
4528420.9
731663.26
224628.42
95290.537
48488.345
27618.04
16961.153
10985.708
7400.1702
5136.1865
3649.1576
2641.4694
1941.19
1444.3964
1085.8764
823.4035
628.89742
483.25506
373.22298
289.44839
225.23253
175.71491
137.32846
107.42916
84.04013
65.672472
51.198368
39.760459
30.706663
23.54279
17.896836
13.489462
10.106015
7.5690178
5.7166824
4.3956165
3.4674741
2.8187781
2.3645808
2.0453183
1.8207254
1.6639518
1.5570147
1.48779
1.4492183
1.4337693
1.4331535
1.4472749
1.4733977
1.5094224
1.5540721
1.6068113
1.6676694
1.7365265
1.8121418
1.8929905
1.979679
2.0746576
2.1796285
2.2961627
2.4066528
2.4711627
2.4414795
2.3596956
2.3750829
4528451.2
731668.24
224629.96
95291.191
48488.68
27618.232
16961.271
10985.785
7400.2224
5136.2233
3649.1843
2641.4893
1941.2053
1444.4085
1085.8863
823.41174
628.9045
483.26128
373.22856
289.45344
225.23713
175.71907
137.33218
107.43239
84.042842
65.674625
51.199944
39.761467
30.707148
23.542826
17.896519
13.488898
10.105318
7.5683235
5.7161427
4.3953765
3.4676404
2.81941
2.3657055
2.0469515
1.8228936
1.6666852
1.5603631
1.4919545
1.4542858
1.4396643
1.4401603
1.4557794
1.4837355
1.5220615
1.5696365
1.6261158
1.6917018
1.7661485
1.8474418
1.933076
2.0222072
2.1143305
2.2067305
2.2948964
2.3640024
2.3978007
2.3690338
2.3689259
2.5365809
4528483
731673.41
224631.56
95291.876
48489.03
27618.433
16961.396
10985.869
7400.2813
5136.2669
3649.2183
2641.5174
1941.2296
1444.4306
1085.9073
823.43245
628.92548
483.28296
373.25124
289.47734
225.26237
175.7457
137.36018
107.46169
84.073262
65.705938
51.231837
39.793534
30.738864
23.573515
17.925346
13.514933
10.127725
7.5866381
5.7304687
4.4063244
3.4760594
2.8261263
2.3713935
2.0521219
1.8279283
1.6718911
1.5660111
1.4984796
1.4619281
1.4484082
1.4506341
1.4685336
1.4994073
1.5414948
1.5939647
1.6568552
1.73074
1.8151637
1.9070688
2.0033132
2.102092
2.200132
2.2912137
2.3625989
2.4035042
2.422655
2.4064787
2.4827246
2.8749259
4528516.9
731678.91
224633.26
95292.593
48489.396
27618.645
16961.531
10985.961
7400.3484
5136.3191
3649.2615
2641.5554
1941.2649
1444.4649
1085.9418
823.46813
628.96296
483.32274
373.29369
289.52273
225.31086
175.79735
137.41494
107.51939
84.133628
65.768539
51.296076
39.8586
30.803669
23.636636
17.985009
13.569146
10.174658
7.625183
5.7606554
4.4292336
3.4933134
2.8393594
2.3819696
2.0610821
1.8360514
1.679782
1.5741766
1.5076142
1.4724489
1.4603801
1.4650468
1.4861792
1.5212806
1.5689144
1.6287205
1.7013762
1.7879864
1.8874705
1.9955836
2.1093881
2.2264286
2.3404115
2.4431087
2.5132763
2.539753
2.5396433
2.5521134
2.7829796
3.1525188
4528552.1
731684.59
224635
95293.334
48489.778
27618.868
16961.674
10986.061
7400.4235
5136.3797
3649.3139
2641.6035
1941.3114
1444.5117
1085.9902
823.51912
629.01733
483.38109
373.35646
289.59025
225.38332
175.87482
137.49733
107.60647
84.224983
65.863546
51.39385
39.957922
30.902891
23.73358
18.076946
13.652993
10.247537
7.6852704
5.8078363
4.4650244
3.520118
2.8596569
2.3978579
2.0741753
1.8475591
1.6906355
1.5851432
1.519679
1.4862381
1.4760606
1.4840206
1.5095584
1.5505098
1.6059316
1.6761922
1.7629375
1.8677148
1.9879435
2.1189341
2.2591508
2.4050858
2.5463299
2.6711445
2.7569684
2.7879449
2.7885889
2.8546066
3.1814627
3.3491579
4528588.7
731690.44
224636.79
95294.101
48490.176
27619.102
16961.826
10986.168
7400.5065
5136.4486
3649.3754
2641.6616
1941.369
1444.5708
1086.0523
823.58527
629.08845
483.45787
373.43944
289.67981
225.4797
175.97809
137.60741
107.72305
84.347548
65.991286
51.52561
40.092094
31.037281
23.865274
18.202268
13.767749
10.347742
7.7682828
5.8732831
4.5147773
3.5573407
2.8876979
2.4195933
2.0918388
1.8628317
1.7048103
1.59928
1.5350862
1.503793
1.4960729
1.5083765
1.5397897
1.5886523
1.6547586
1.7395778
1.8460626
1.9753617
2.1227851
2.2857987
2.4649566
2.6535963
2.8344116
2.9885251
3.0916197
3.1195436
3.1332721
3.2455998
3.5481572
3.5148759
4528626.6
731696.5
224638.64
95294.897
48490.591
27619.348
16961.988
10986.284
7400.5974
5136.5258
3649.4457
2641.7294
1941.4373
1444.6417
1086.1274
823.66596
629.17565
483.55238
373.54189
289.79065
225.59923
176.10642
137.74444
107.86847
84.50073
66.151283
51.691031
40.260981
31.206939
24.032095
18.361662
13.914419
10.476545
7.8756371
5.9583959
4.579742
3.6060195
2.9243135
2.4478415
2.1146229
1.8823523
1.7227684
1.6170734
1.5543715
1.5257431
1.5212401
1.5392115
1.5783843
1.6378479
1.7184949
1.8234216
1.9568316
2.117534
2.3009351
2.5104644
2.7479855
2.9999102
3.2358911
3.4261559
3.5367608
3.55959
3.5822362
3.7159448
3.8622731
3.6277321
4528664.7
731702.75
224640.57
95295.723
48491.02
27619.603
16962.157
10986.408
7400.6956
5136.6106
3649.524
2641.8061
1941.5154
1444.7235
1086.2147
823.76008
629.27774
483.66333
373.66242
289.92131
225.74038
176.25824
137.90687
108.04117
84.683054
66.342169
51.888906
40.463601
31.411178
24.233729
18.555261
14.09362
10.635013
8.0087174
6.0646716
4.6613338
3.6673751
2.9705073
2.4834209
2.1432138
1.9067304
1.745099
1.6391806
1.5782591
1.5528591
1.5526806
1.5780173
1.6274246
1.7011042
1.8015892
1.934186
2.1027618
2.3029818
2.5374147
2.8176812
3.1449368
3.4936782
3.8090628
4.0458436
4.1556337
4.1730628
4.170413
4.2384265
4.1015236
3.5224862
4528704.9
731709.25
224642.57
95296.582
48491.466
27619.87
16962.335
10986.539
7400.8008
5136.7023
3649.6097
2641.8906
1941.6021
1444.8149
1086.3126
823.86599
629.39289
483.78875
373.79892
290.06955
225.90082
176.43112
138.09219
108.23865
84.892031
66.561547
52.117003
40.697971
31.648366
24.469004
18.782466
14.305407
10.823857
8.1687627
6.1936368
4.7611074
3.7428138
3.0274727
2.5273277
2.1784616
1.9367288
1.7725273
1.666518
1.6078487
1.585952
1.5919979
1.6268659
1.6898496
1.7827635
1.9105756
2.0805751
2.2927999
2.5462842
2.8588127
3.2500068
3.7171663
4.2136851
4.6426383
4.9333664
5.0181786
4.9794309
4.8681175
4.6731546
4.2116563
2.7468115
4528746.8
731716
224644.65
95297.474
48491.931
27620.148
16962.521
10986.676
7400.9119
5136.7999
3649.7015
2641.9816
1941.6959
1444.914
1086.4191
823.98148
629.5187
483.926
373.94856
290.23232
226.0773
176.62166
138.29689
108.4573
85.124054
66.805865
52.371917
40.960939
31.915732
24.735683
19.041728
14.549055
11.043225
8.3566954
6.3467308
4.880697
3.8339108
3.0966044
2.5807635
2.2214206
1.9733202
1.8060093
1.7001534
1.6442887
1.6267868
1.6412432
1.6886905
1.7699217
1.8892911
2.0550244
2.2729694
2.540488
2.8744407
3.3113532
3.8780901
4.558532
5.2610112
5.8198219
6.1188879
5.9971573
5.6446406
5.2810268
4.723115
3.4132565
1.4278456
4528789.6
731722.95
224646.8
95298.395
48492.413
27620.436
16962.714
10986.819
7401.0278
5136.9019
3649.7977
2642.0772
1941.7947
1445.0187
1086.5317
824.10374
629.65207
484.07171
374.10766
290.40569
226.26563
176.82544
138.51635
108.69237
85.374272
67.070279
52.648907
41.248
32.209161
25.030225
19.330286
14.822777
11.292424
8.5728753
6.5251195
5.0217023
3.9423609
3.1794945
2.6451618
2.2733998
2.0177708
1.8468877
1.741456
1.6892688
1.6776887
1.7034384
1.7677998
1.8740232
2.0305732
2.2477052
2.5245981
2.8722031
3.3361883
3.9729812
4.8108271
5.784913
6.696971
7.0376505
6.8052299
6.3320318
5.6202971
4.8033199
3.2124204
1.5063939
0.65866252
4528834.7
731730.22
224649.04
95299.353
48492.913
27620.736
16962.915
10986.967
7401.1476
5137.0071
3649.8967
2642.1756
1941.8962
1445.1262
1086.6474
824.22947
629.78935
484.22186
374.27185
290.58492
226.46073
177.03704
138.74486
108.9379
85.636562
67.348577
52.941796
41.55315
32.523005
25.347552
19.643884
15.123402
11.569577
8.8167676
6.7294193
5.1854982
4.0698751
3.2778981
2.7222017
2.3360103
2.0717075
1.8969341
1.7924108
1.7451584
1.7419973
1.7831449
1.8707765
2.0120533
2.2212975
2.5037761
2.8605878
3.3390315
4.0170188
4.9695272
6.1879967
7.4428593
7.7093213
7.4667275
6.7162129
5.2658721
3.6980524
2.1587481
1.2092063
0.64870125
0.3574987
4528880.1
731737.64
224651.33
95300.339
48493.428
27621.043
16963.12
10987.118
7401.2693
5137.1134
3649.9963
2642.2741
1941.9976
1445.2334
1086.7627
824.35472
629.92618
484.37169
374.43592
290.76435
226.6565
177.24995
138.97552
109.18666
85.903422
67.633075
53.24283
41.868724
32.849878
25.6808
19.976472
15.446019
11.871214
9.0865194
6.9593116
5.3729392
4.2179964
3.3936503
2.813803
2.4112207
2.1372336
1.958608
1.8560444
1.815174
1.8248414
1.8875092
2.0081532
2.2000204
2.4820408
2.8480265
3.3343193
4.0356131
5.0643061
6.4831524
8.0406984
8.3143828
7.9866675
6.9020286
4.6706385
2.5598184
1.5027376
0.90861927
0.55302139
0.36176538
0.24755605
4528926.9
731745.29
224653.7
95301.36
48493.96
27621.36
16963.331
10987.272
7401.3914
5137.219
3650.0943
2642.3703
1942.096
1445.337
1086.8739
824.47537
630.05795
484.51607
374.59424
290.93783
226.84624
177.45695
139.20059
109.43041
86.166185
67.914763
53.542772
42.185409
33.180591
26.021166
20.319956
15.783628
12.19184
9.3784664
7.2130488
5.583939
4.3878062
3.5285104
2.9220928
2.5014209
2.217037
2.0352791
1.9364211
1.9050244
1.9341237
2.0282137
2.1977448
2.4655119
2.8439601
3.3361576
4.0513268
5.1352616
6.7158441
8.5571515
8.9161296
8.5250633
7.209432
4.3939945
2.2595661
1.253976
0.75692383
0.49515854
0.33982358
0.26025123
0.20282726
4528977.9
731753.49
224656.19
95302.424
48494.511
27621.686
16963.545
10987.426
7401.5126
5137.3221
3650.1884
2642.4613
1942.1881
1445.4333
1086.9767
824.58666
630.1794
484.64917
374.74039
291.09834
227.02234
177.64978
139.41121
109.65972
86.414875
68.183189
53.830795
42.492137
33.504027
26.357732
20.663955
16.126815
12.523505
9.6866077
7.4868768
5.8169246
4.5795023
3.6839171
3.0493537
2.6095897
2.3149033
2.1316883
2.0396844
2.0239392
2.0829278
2.2253288
2.4713342
2.8561302
3.3673624
4.0864651
5.2137026
6.9398431
9.0557875
9.5174563
9.1011963
7.6747198
4.4844818
2.2417829
1.2110626
0.72558764
0.47815071
0.34390963
0.25897975
0.21618032
0.17699022
4529031.7
731762
224658.79
95303.531
48495.082
27622.022
16963.763
10987.58
7401.631
5137.4204
3650.2761
2642.5445
1942.271
1445.5189
1087.0673
824.6842
630.28557
484.76548
374.86824
291.23909
227.1773
177.82025
139.59845
109.86493
86.639116
68.427313
54.095269
42.77681
33.807783
26.678017
20.996208
16.463941
12.855762
10.00231
7.7745113
6.0682162
4.7918513
3.8606378
3.1979334
2.7394973
2.4362554
2.2551062
2.1757731
2.1871852
2.2940504
2.5150274
2.8875672
3.4428703
4.180915
5.3364071
7.1871277
9.5790059
10.137197
9.7158148
8.2470165
4.8350214
2.3705686
1.2592901
0.7467521
0.49522197
0.35601259
0.27575355
0.22034622
0.18667452
0.15372858
4529085.9
731770.69
224661.46
95304.672
48495.669
27622.364
16963.982
10987.732
7401.7448
5137.512
3650.3551
2642.6171
1942.3413
1445.5899
1087.1414
824.76331
630.37122
484.85912
374.97126
291.35283
227.30314
177.95959
139.75273
110.03562
86.827656
68.635053
54.323325
43.025848
34.077695
26.96747
21.302072
16.780699
13.175116
10.313576
8.0663793
6.3313208
5.0215847
4.0583801
3.3701833
2.8960444
2.5889033
2.4169444
2.3627984
2.4212356
2.6091494
2.9655
3.5499558
4.3560304
5.5549593
7.5132258
10.148848
10.794345
10.37431
8.8923522
5.341089
2.5941258
1.3612561
0.80086308
0.52917329
0.3852378
0.29503628
0.23451999
0.18715425
0.1618752
0.13975921
4529139.6
731779.57
224664.2
95305.836
48496.267
27622.711
16964.2
10987.88
7401.8519
5137.5944
3650.4226
2642.6759
1942.3956
1445.6426
1087.1948
824.819
630.43078
484.92389
375.04255
291.43196
227.39147
178.05859
139.86398
110.1608
86.96858
68.793559
54.501189
43.224593
34.298303
27.209959
21.564952
17.060359
13.465357
10.605675
8.3500242
6.5969068
5.2631618
4.2756805
3.5687799
3.0862869
2.7850431
2.6374633
2.6329194
2.7737133
3.1096605
3.7078914
4.6061777
5.8899893
7.9613527
10.791628
11.512091
11.089174
9.5940769
5.9379426
2.884097
1.5038448
0.87735932
0.57971982
0.42040574
0.3186103
0.24570499
0.19593493
0.16359173
0.14714302
0.1279666
4529196.7
731788.84
224667.05
95307.047
48496.885
27623.065
16964.42
10988.025
7401.9518
5137.6667
3650.4773
2642.7193
1942.4319
1445.6746
1087.2245
824.84808
630.46057
484.9556
375.07734
291.47104
227.43615
178.11034
139.92446
110.23188
87.052354
68.892331
54.617391
43.360636
34.456318
27.391419
21.770162
17.287843
13.711275
10.86362
8.6116305
6.8538109
5.5095725
4.5108442
3.7983382
3.3225185
3.0473075
2.9545259
3.0407801
3.3426493
3.952833
4.9462645
6.3509815
8.5463996
11.518316
12.294784
11.861548
10.340723
6.5884858
3.224533
1.6820506
0.97521082
0.64083471
0.45938111
0.34243596
0.26214853
0.20744919
0.17520102
0.15003998
0.13523226
0.11931718
4529258.1
731798.61
224670.03
95308.304
48497.523
27623.425
16964.639
10988.164
7402.0428
5137.7269
3650.517
2642.7448
1942.4471
1445.6824
1087.2267
824.84623
630.45577
484.94885
375.06961
291.46334
227.42964
178.10636
139.92465
110.23827
87.067345
68.918756
54.658463
43.419836
34.537111
27.496669
21.901888
17.446813
13.896377
11.071556
8.8371818
7.091211
5.7549455
4.7651088
4.0697495
3.6288454
3.4189617
3.4382928
3.6990907
4.3179752
5.4057538
6.9525092
9.2781774
12.334752
13.144238
12.693292
11.131854
7.2769845
3.6134953
1.8962739
1.0954373
0.71151526
0.50251205
0.37059036
0.28383302
0.22644116
0.18793049
0.15841467
0.13683757
0.12502676
0.11218139
4529319.5
731808.54
224673.08
95309.594
48498.174
27623.789
16964.855
10988.297
7402.1236
5137.7737
3650.5402
2642.7506
1942.4396
1445.6641
1087.1995
824.81128
630.41405
484.90119
375.01682
291.40631
227.36942
178.04425
139.86224
110.17751
87.01062
68.868913
54.618847
43.394311
34.530132
27.513557
21.947879
17.525879
14.009846
11.219461
9.0183846
7.3044423
6.0010732
5.0505502
4.4106536
4.0563887
3.9875159
4.2121583
4.8385856
6.0153595
7.7249048
10.157706
13.242499
14.066527
13.590165
11.971161
8.0014419
4.0561508
2.1506964
1.2338748
0.7879027
0.54850926
0.4043438
0.31189457
0.24901615
0.20269763
0.16624639
0.1437514
0.12716816
0.11810933
0.10707881
4529381.2
731818.67
224676.21
95310.916
48498.839
27624.157
16965.07
10988.423
7402.1942
5137.807
3650.5466
2642.7365
1942.4089
1445.6194
1087.1422
824.74256
630.33468
484.81182
374.9181
291.29901
227.25452
177.92303
139.73641
110.04924
86.882666
68.744651
54.502309
43.290156
34.443535
27.449909
21.912985
17.526243
14.053433
11.310619
9.1616468
7.5057246
6.2703215
5.4062964
4.8869867
4.7134511
4.901663
5.5402132
6.8140792
8.6895618
11.189365
14.243087
15.06652
14.557566
12.863166
8.7628482
4.5551703
2.4382715
1.3828301
0.86946798
0.60318312
0.44697175
0.3457674
0.27287601
0.2179788
0.17762827
0.15256678
0.13445085
0.12071987
0.11214193
0.10281765
4529447.3
731829.36
224679.48
95312.289
48499.525
27624.534
16965.285
10988.544
7402.2557
5137.8278
3650.5375
2642.7039
1942.3567
1445.5498
1087.0569
824.6425
630.22048
484.68402
374.77725
291.1458
227.08991
177.74836
139.55348
109.86049
86.691224
68.554446
54.318143
43.117734
34.289441
27.321529
21.818404
17.474074
14.052435
11.372994
9.3013209
7.7406658
6.6267708
5.9259737
5.6385611
5.7893188
6.4447997
7.810968
9.8498358
12.380046
15.34337
16.149205
15.600855
13.811564
9.5633059
5.113626
2.7609191
1.5488642
0.966171
0.6724555
0.49848736
0.38163169
0.29732224
0.23554878
0.19294672
0.1644804
0.14193696
0.12596638
0.11399143
0.10706265
0.098927259
4529517.1
731840.53
224682.9
95313.722
48500.238
27624.922
16965.503
10988.663
7402.3115
5137.8399
3650.517
2642.6575
1942.2883
1445.462
1086.951
824.51935
630.08076
484.52824
374.60597
290.95976
226.89014
177.53633
139.33126
109.63084
86.457754
68.321758
54.091947
42.904954
34.098297
27.161595
21.700669
17.411079
14.058182
11.46934
9.5155998
8.1097968
7.2040254
6.7917049
6.9012795
7.5724164
9.0282229
11.203229
13.746166
16.559549
17.320989
16.725992
14.822408
10.396939
5.7377917
3.119292
1.7356844
1.0778991
0.75004056
0.54985674
0.41604602
0.32299252
0.25782128
0.21188693
0.17823713
0.15083182
0.13207827
0.11913389
0.10936693
0.103359
0.096239066
4529588.1
731851.96
224686.4
95315.202
48500.973
27625.322
16965.726
10988.783
7402.3666
5137.8494
3650.4926
2642.6059
1942.2137
1445.3668
1086.8369
824.38743
629.93171
484.3627
374.42466
290.76364
226.68052
177.31503
139.10075
109.39441
86.219694
68.087539
53.868405
42.700501
33.923162
27.028054
21.623065
17.408732
14.161047
11.711602
9.9437937
8.7888297
8.2262873
8.280514
8.9497452
10.471774
12.760732
15.321713
17.924359
18.587913
17.938071
15.901833
11.265968
6.4222161
3.5119588
1.9437974
1.2053037
0.83571845
0.60767797
0.45867078
0.35915944
0.28750279
0.2342929
0.19263896
0.16120531
0.14011197
0.12533312
0.1140493
0.10561598
0.099980004
0.093811522
4529661.3
731863.83
224690.03
95316.735
48501.738
27625.739
16965.962
10988.914
7402.4302
5137.8672
3650.4765
2642.5633
1942.149
1445.2829
1086.7356
824.27005
629.79935
484.21637
374.26549
290.593
226.50023
177.12748
138.90908
109.2027
86.0332
67.912902
53.713911
42.576245
33.842275
27.008357
21.690099
17.596137
14.50876
12.274083
10.795115
10.02953
9.9896201
10.630535
12.161271
14.516174
17.151243
19.485752
19.971509
19.23677
17.050811
12.18207
7.1587899
3.9417766
2.18019
1.3505111
0.93289555
0.67394241
0.50907384
0.39779473
0.31575064
0.25331523
0.20680377
0.17338237
0.15086215
0.13303833
0.11920403
0.10926644
0.10192135
0.097026465
0.091674125
4529737.4
731876.14
224693.82
95318.326
48502.536
27626.18
16966.218
10989.063
7402.5128
5137.9053
3650.483
2642.5459
1942.1127
1445.2311
1086.6708
824.19399
629.71367
484.12268
374.16555
290.48887
226.39443
177.02319
138.81032
109.11464
85.962523
67.868356
53.707193
42.62354
33.964579
27.232664
22.051411
18.139238
15.293691
13.380624
12.327223
12.114673
12.683885
14.152031
16.478572
19.201943
21.299971
21.502537
20.6385
18.245699
13.154026
7.9560818
4.4218657
2.4499811
1.5144152
1.0398121
0.74959641
0.56534237
0.44001314
0.3467042
0.27876252
0.22848888
0.19237399
0.16416839
0.14189467
0.1250859
0.11408138
0.10564506
0.099329537
0.095069726
0.090228205
4529816
731888.84
224697.73
95319.982
48503.373
27626.651
16966.5
10989.239
7402.6236
5137.9743
3650.524
2642.5676
1942.1209
1445.2298
1086.663
824.18257
629.70103
484.11134
374.15828
290.48894
226.40579
177.05074
138.86024
109.19478
86.082889
68.04181
53.95032
42.957714
34.418276
27.843499
22.867778
19.224578
16.729715
15.268844
14.793661
15.208288
16.514806
18.736582
21.398548
23.34331
23.221584
22.166468
19.448272
14.190704
8.8139978
4.9487895
2.7475653
1.691573
1.1575746
0.83536416
0.63056771
0.48716159
0.38338283
0.30848559
0.25270729
0.20929897
0.17542913
0.15019582
0.13259899
0.12008334
0.11012931
0.102495
0.096965811
0.092751273
0.088731533
4529897.8
731902.1
224701.79
95321.71
48504.255
27627.157
16966.815
10989.448
7402.7707
5138.084
3650.611
2642.6415
1942.1884
1445.296
1086.7321
824.25828
629.78707
484.21161
374.27712
290.63135
226.5777
177.25936
139.11445
109.50568
86.464588
68.512452
54.533544
43.684055
35.326988
28.985008
24.306548
21.041406
19.022731
18.14873
18.323491
19.350959
21.348182
23.848478
25.548805
25.147016
23.835734
20.698537
15.295799
9.7236613
5.5178889
3.0735582
1.889889
1.2928633
0.93634204
0.7045914
0.54138801
0.42437087
0.34214029
0.27820005
0.22894622
0.19088616
0.16406442
0.14380951
0.12818874
0.1152527
0.10641994
0.099779627
0.09478821
0.091329792
0.087767567
4529983.7
731915.9
224706.02
95323.516
48505.184
27627.699
16967.164
10989.691
7402.9552
5138.2355
3650.7456
2642.7699
1942.3184
1445.4337
1086.8831
824.42768
629.98014
484.43405
374.53533
290.93275
226.93111
177.67542
139.60623
110.08941
87.160848
69.347055
55.539042
44.901565
36.808069
30.793638
26.520142
23.749078
22.317188
22.109288
22.790866
24.418399
26.540958
27.921233
27.335673
25.67201
22.01254
16.45724
10.669794
6.1248804
3.4343247
2.1149811
1.4472935
1.0479251
0.78590247
0.6014349
0.47213494
0.37906875
0.30786795
0.25218432
0.21065942
0.17889238
0.15449526
0.13462494
0.12098829
0.11080353
0.10345293
0.097430291
0.093210303
0.089816282
0.086719228
4530071.7
731930.11
224710.41
95325.39
48506.156
27628.274
16967.543
10989.967
7403.1742
5138.4259
3650.9248
2642.9498
1942.508
1445.6409
1087.1148
824.6909
630.28228
484.78329
374.94099
291.40573
227.48434
178.32446
140.37006
110.99129
88.229229
70.617114
57.053872
46.71371
38.980451
33.39871
29.635402
27.445788
26.639782
26.932986
28.0175
29.646011
30.423573
29.588322
27.561193
23.458466
17.679958
11.643853
6.7712834
3.8373227
2.3714029
1.61917
1.1707101
0.87674656
0.67292692
0.52787188
0.42207121
0.34056157
0.27997998
0.23219454
0.19556936
0.16621092
0.14493891
0.12944429
0.1178232
0.10812479
0.10105495
0.095723643
0.091667468
0.088633493
0.086034781
4530163.2
731944.94
224714.97
95327.342
48507.178
27628.891
16967.961
10990.283
7403.4385
5138.6677
3651.1629
2643.1977
1942.7766
1445.9394
1087.4523
825.07657
630.72616
485.2966
375.53666
292.09892
228.29306
179.2703
141.47897
112.29465
89.764767
72.429908
59.196905
49.247409
41.970305
36.907471
33.707748
32.081723
31.760621
32.195834
33.241457
33.095483
31.971322
29.496011
24.954307
18.897896
12.590816
7.4475537
4.2875735
2.6619852
1.8103693
1.3067815
0.98153361
0.75526596
0.59155367
0.46915304
0.37834019
0.31049847
0.2576814
0.21450722
0.18213859
0.15743006
0.13936207
0.12401251
0.11270566
0.1043629
0.098448789
0.093637351
0.090281663
0.087707901
0.08529022
4530257.7
731960.23
224719.68
95329.385
48508.263
27629.562
16968.435
10990.658
7403.7692
5138.985
3651.4879
2643.5457
1943.1603
1446.3703
1087.9417
825.63641
631.36963
486.03858
376.39441
293.09271
229.44694
180.61298
143.04474
114.12427
91.906262
74.934236
62.108818
52.625071
45.860524
41.328823
38.62214
37.347605
37.101694
36.992889
36.120272
34.301224
31.335374
26.399966
20.073744
13.540904
8.1920088
4.8140052
3.0003128
2.0254413
1.4591929
1.1001076
0.84863627
0.66249724
0.52455977
0.42230904
0.34655778
0.2855994
0.23806731
0.20012482
0.17203295
0.14910876
0.13194534
0.11891711
0.11015831
0.10265943
0.097101242
0.092657931
0.089390761
0.086777166
0.084714265
4530355.2
731976.03
224724.58
95331.525
48509.425
27630.303
16968.98
10991.112
7404.1888
5139.4043
3651.93
2644.0284
1943.6983
1446.9778
1088.633
826.4267
632.27577
487.07991
377.59339
294.4758
231.04561
182.46478
145.19329
116.61677
94.787002
78.237349
65.868314
56.868269
50.579168
46.450666
43.992152
42.602835
41.316233
39.372734
36.895429
33.309914
27.930324
21.311208
14.583945
9.0477486
5.4196576
3.3748274
2.2568399
1.626246
1.2335149
0.95410634
0.7450267
0.58956114
0.47447046
0.38616733
0.31777111
0.26421651
0.22250258
0.18811112
0.16240913
0.14214831
0.12802928
0.11614757
0.10696301
0.099692827
0.094845544
0.09094649
0.088162909
0.086090268
0.084197265
4530457.6
731992.58
224729.72
95333.786
48510.674
27631.125
16969.608
10991.659
7404.7147
5139.9456
3652.5122
2644.6716
1944.4203
1447.7955
1089.5638
827.48951
633.4917
488.47312
379.19179
296.31149
233.15482
184.8867
147.96903
119.78845
98.395435
82.316537
70.418124
61.81693
55.811045
51.715517
48.750666
46.017503
43.056282
39.827847
35.469949
29.557483
22.621689
15.707059
9.9758769
6.0734404
3.7809215
2.5187166
1.8227229
1.3893222
1.0753276
0.83979553
0.6649695
0.53301083
0.43217308
0.3543062
0.29552853
0.24713257
0.20854611
0.17737847
0.15504686
0.13666487
0.12273272
0.11170183
0.10429891
0.098265503
0.093879195
0.090150161
0.08755869
0.085436209
0.08369172
4530563.2
732009.72
224735.07
95336.167
48512.013
27632.035
16970.332
10992.313
7405.3617
5140.6257
3653.2535
2645.4967
1945.3495
1448.8484
1090.7607
828.85211
635.04382
490.24082
381.20354
298.59797
235.74811
187.81871
151.26795
123.47286
102.46733
86.755994
75.147316
66.657794
60.411958
55.534478
51.295286
47.294748
43.127034
37.866919
31.358512
24.087258
16.971636
11.02556
6.8324998
4.2753362
2.8464738
2.057317
1.5627895
1.2079155
0.94641988
0.75154423
0.60195814
0.48652858
0.39883805
0.33037879
0.27603121
0.23162885
0.19720705
0.16904209
0.14827748
0.13107944
0.11958911
0.10977898
0.10259949
0.096568276
0.092392033
0.089063316
0.086691457
0.084871898
0.083291616
4530672.5
732027.46
224740.62
95338.663
48513.442
27633.032
16971.15
10993.072
7406.1279
5141.4418
3654.1499
2646.4981
1946.4779
1450.1252
1092.2075
830.49174
636.90022
492.33922
383.56974
301.25664
238.71983
191.11511
154.88417
127.37673
106.58471
90.952235
79.242984
70.357264
63.34265
57.475242
52.179452
46.794025
40.554999
33.4078
25.768413
18.414822
12.215268
7.7057744
4.8512348
3.2168455
2.3059182
1.7441901
1.3553099
1.0717632
0.8541648
0.6829613
0.55064123
0.44917757
0.37055008
0.30788972
0.2595761
0.21924392
0.1871611
0.16097382
0.1426257
0.12734307
0.11591228
0.10639941
0.10013253
0.094826219
0.091272934
0.088223827
0.086086549
0.08444317
0.082970298
4530784.7
732045.79
224746.38
95341.27
48514.957
27634.104
16972.044
10993.913
7406.9853
5142.3601
3655.1612
2647.6284
1947.7505
1451.5624
1093.8317
832.32539
638.96577
494.65809
386.16025
304.1311
241.87971
194.54409
158.53881
131.17498
110.39341
94.575485
82.411483
72.817724
64.889186
57.925274
51.068093
43.733931
35.860396
27.774619
20.113046
13.604706
8.7410885
5.5487286
3.6653078
2.6059215
1.9682314
1.5392218
1.2224897
0.97261401
0.77572161
0.62505019
0.50895204
0.41800909
0.34728619
0.29105516
0.24593339
0.20794461
0.17872227
0.154958
0.13782903
0.12290451
0.11319882
0.10495982
0.099065338
0.093961702
0.090514338
0.087576249
0.08559512
0.083955238
0.082584349
4530901
732061.36
224749.48
95341.767
48514.912
27634.007
16972.042
10994.058
7407.2996
5142.8546
3655.8449
2648.5105
1948.8414
1452.8737
1095.376
834.11516
641.0122
496.96862
388.73538
306.9594
244.93156
197.76386
161.83639
134.41817
113.40438
97.13598
84.279632
73.790528
64.713427
56.120105
47.530339
38.812759
30.180188
22.127281
15.246962
9.9798185
6.3978222
4.208959
2.9599547
2.221598
1.7369074
1.3801085
1.1002003
0.88227249
0.71351031
0.58020039
0.47466389
0.39214036
0.32745154
0.27480718
0.23353496
0.19866864
0.1713731
0.14890979
0.13339437
0.12019327
0.1107993
0.10236079
0.097066121
0.092421836
0.089410235
0.086792926
0.084990215
0.083595659
0.082404705
4531685.4
732195.44
224794.62
95363.16
48527.058
27641.795
16977.508
10998.187
7410.6214
5145.6802
3658.3702
2650.8665
1951.1201
1455.1423
1097.6845
836.50046
643.49892
499.56841
391.44422
309.75332
247.76109
200.54818
164.45872
136.72524
115.21281
98.260808
84.499504
72.734223
62.081648
51.994415
42.240606
32.908651
24.351833
17.037523
11.337693
7.3461881
4.8233513
3.3591104
2.5034381
1.9568063
1.5622248
1.2554066
1.0131774
0.81885301
0.66239223
0.5398125
0.44444202
0.36922962
0.3098473
0.26185011
0.2232045
0.18998194
0.16474442
0.14417175
0.12976892
0.11660497
0.1082289
0.10112896
0.096206534
0.091764646
0.088909466
0.086315536
0.084704444
0.083231294
0.082144215
4531684.6
732191.75
224791.65
95360.986
48525.583
27640.824
16976.913
10997.891
7410.5784
5145.8627
3658.7625
2651.4599
1951.9103
1456.127
1098.8605
837.86134
645.03152
501.24873
393.23248
311.5886
249.55611
202.18559
165.79186
137.59044
115.40244
97.478712
82.46215
69.346564
57.448221
46.406612
36.175035
26.964123
19.116747
12.927851
8.4839193
5.5788514
3.8509472
2.8397985
2.2095088
1.7670419
1.4258095
1.1522565
0.93029689
0.75323671
0.61501746
0.50603488
0.41872673
0.34939155
0.29447758
0.24909033
0.21320809
0.18247012
0.15891816
0.13934284
0.12601037
0.11439081
0.10663728
0.099137879
0.094557393
0.090493404
0.08791841
0.085678325
0.08415075
0.082854164
0.081982812
4531684.8
732191.87
224791.77
95361.15
48525.797
27641.092
16977.241
10998.284
7411.0441
5146.4074
3659.3924
2652.1805
1952.7254
1457.0373
1099.862
838.94278
646.17146
502.41191
394.36604
312.61891
250.38818
202.69652
165.82136
136.9174
113.81158
94.836068
78.738411
64.636697
51.99747
40.608935
30.522147
21.944017
15.089928
10.033534
6.6088754
4.5007298
3.2581527
2.5075563
2.0041956
1.6247122
1.3200635
1.0719834
0.8723075
0.71190602
0.58227325
0.47898032
0.39744709
0.33286682
0.28150516
0.23936351
0.20558791
0.17606588
0.15392667
0.13567474
0.12338177
0.1116336
0.10433691
0.097984203
0.0939423
0.09000965
0.08754719
0.085260796
0.08393209
0.082666343
0.081809202
4531684.9
732191.96
224791.83
95361.231
48525.902
27641.225
16977.406
10998.485
7411.2847
5146.6912
3659.7219
2652.557
1953.1473
1457.4991
1100.3523
839.44196
646.64868
502.82168
394.64411
312.67701
250.10557
201.92797
164.41479
134.75034
110.79908
90.959351
74.075826
59.385702
46.472775
35.205131
25.640665
17.903087
12.052168
7.9591775
5.3503513
3.7948808
2.8775368
2.2899826
1.8606225
1.5180318
1.2371675
1.0072531
0.81962845
0.66842355
0.54911919
0.454895
0.37917496
0.31864627
0.270467
0.23022185
0.1984262
0.17062784
0.14979753
0.13221044
0.12053069
0.1100113
0.1033775
0.096701335
0.092661031
0.089007974
0.086858353
0.084867843
0.083536436
0.082367706
0.081638232
4531686.1
732192.07
224791.85
95361.227
48525.896
27641.221
16977.406
10998.491
7411.2964
5146.71
3659.747
2652.5854
1953.1726
1457.5098
1100.3296
839.35704
646.45989
502.47189
394.05899
311.76615
248.76957
200.06441
161.93031
131.5795
106.92824
86.450738
69.08452
54.159852
41.329181
30.479258
21.620448
14.766758
9.8253106
6.5523145
4.5452624
3.3621375
2.6352115
2.1331799
1.7456274
1.4296787
1.168784
0.95429769
0.78035796
0.64029621
0.52717551
0.43645049