/*--------------------------------*- C++ -*----------------------------------*\
  =========                 |
  \\      /  F ield         | OpenFOAM: The Open Source CFD Toolbox
   \\    /   O peration     | Website:  https://openfoam.org
    \\  /    A nd           | Version:  13
     \\/     M anipulation  |
\*---------------------------------------------------------------------------*/
FoamFile
{
    format      ascii;
    class       volScalarField;
    location    "2.697242";
    object      omega;
}
// * * * * * * * * * * * * * * * * * * * * * * * * * * * * * * * * * * * * * //

dimensions      [0 0 -1 0 0 0 0];

internalField   nonuniform List<scalar> 
17140
(
3736295.3
603676.81
185333.57
78618.348
40001.618
22780.625
13986.361
9054.6203
6094.6561
4224.9736
2996.2267
2162.8572
1583.0082
1170.9394
872.85547
653.93511
491.04308
368.47412
275.38496
204.20155
149.60497
107.86267
76.357522
53.216755
36.986482
26.349011
20.002868
16.561065
14.760851
13.78371
13.132781
12.575929
12.053768
11.559918
11.095602
10.662221
10.258517
9.8818162
9.5349111
9.2283193
8.9831568
8.8468646
8.7913122
8.8301314
9.0250653
9.2628808
9.5581189
9.8537861
10.028331
10.105835
9.8489364
9.2175146
8.1489133
6.7860055
5.4314683
4.2837906
3.3816338
2.6658806
2.0634576
1.5350744
1.0789248
0.71240042
0.44722954
0.27715547
0.1815582
3736320.9
603681.47
185335.31
78619.304
40002.257
22781.123
13986.794
9055.0271
6095.0584
4225.385
2996.6558
2163.3091
1583.4854
1171.4422
873.38234
654.48222
491.60454
369.04178
275.94822
204.74717
150.11711
108.32353
76.749071
53.524078
37.2023
26.478832
20.059421
16.571056
14.747065
13.760128
13.110927
12.560082
12.045087
11.558226
11.099796
10.671989
10.27337
9.9036147
9.5642365
9.267059
9.0391795
8.9159234
8.8701989
8.9507292
9.1714651
9.4557637
9.7910866
10.145756
10.365992
10.459269
10.263512
9.6695046
8.6404124
7.2745354
5.8424396
4.5695624
3.5400753
2.7230738
2.0598844
1.5070565
1.0498989
0.69258968
0.43706497
0.27310623
0.18032713
3736345.9
603685.64
185336.68
78620.039
40002.812
22781.643
13987.342
9055.6306
6095.7325
4226.1394
2997.4961
2164.2378
1584.5017
1172.5422
874.55833
655.72267
492.89343
370.35814
277.26548
206.03267
151.33201
109.42416
77.690907
54.26953
37.73159
26.802883
20.207186
16.606294
14.725329
13.714908
13.069305
12.529711
12.029871
11.561435
11.119844
10.708628
10.326014
9.9714723
9.6500113
9.3749568
9.1801881
9.0777354
9.0448897
9.176981
9.3944482
9.7054855
10.030588
10.365374
10.559392
10.63754
10.431648
9.8273609
8.8209488
7.4923243
6.0751773
4.7740472
3.6724867
2.7756921
2.0479094
1.4611903
1.0016054
0.65834236
0.41866119
0.26535374
0.17774082
3736372.1
603690.01
185338.17
78620.91
40003.535
22782.376
13988.154
9056.5473
6096.7716
4227.3125
2998.8102
2165.6957
1586.1022
1174.279
876.41987
657.69125
494.94441
372.45899
279.37475
208.09901
153.29395
111.21191
79.232303
55.502062
38.619859
27.355692
20.469846
16.681756
14.704194
13.653045
13.007118
12.483225
12.004209
11.560822
11.148188
10.761867
10.402999
10.070678
9.7706591
9.515092
9.3300668
9.2306152
9.1984862
9.3367213
9.5442674
9.8568699
10.160629
10.44629
10.602828
10.662642
10.429598
9.7847178
8.729878
7.4301063
6.0555199
4.7797237
3.6828324
2.7640024
2.0071956
1.4057907
0.94958614
0.62114304
0.39764132
0.25580365
0.17417515
3736400.1
603694.69
185339.78
78621.912
40004.421
22783.311
13989.214
9057.7595
6098.1558
4228.8824
3000.5748
2167.6594
1588.2637
1176.6313
878.94889
660.37467
497.75055
375.34535
282.28643
210.9672
156.03528
113.73032
81.426386
57.280657
39.925831
28.190137
20.885896
16.819231
14.691821
13.574085
12.921032
12.416039
11.964144
11.549643
11.173712
10.815863
10.483583
10.171185
9.8842706
9.6318816
9.4347531
9.327377
9.2917824
9.4294485
9.6558406
9.9801792
10.267496
10.455272
10.542704
10.55589
10.325213
9.6665148
8.4294731
7.0718446
5.7348137
4.5385029
3.5096528
2.6348974
1.9057933
1.3246696
0.888475
0.58051528
0.37460123
0.24482837
0.1697191
3736429.1
603699.54
185341.47
78623.025
40005.449
22784.424
13990.492
9059.2328
6099.8459
4230.8057
3002.743
2170.0789
1590.9353
1179.5487
882.0975
663.73003
501.27655
378.99222
285.98851
214.64065
159.5767
117.01819
84.328811
59.67339
41.721696
29.37188
21.524921
17.05768
14.704298
13.483434
12.806041
12.321416
11.902961
11.520725
11.175296
10.855423
10.544385
10.247705
9.9645261
9.7023868
9.4891683
9.3767468
9.3433045
9.5046593
9.765201
10.079859
10.27802
10.368368
10.377089
10.274061
10.118976
9.6111185
8.2329665
6.7015698
5.3163067
4.1573688
3.2088853
2.4142557
1.7482069
1.2145066
0.8147997
0.53495878
0.3493317
0.23256422
0.16449232
3736459.3
603704.56
185343.24
78624.231
40006.594
22785.682
13991.947
9060.9163
6101.7832
4233.0164
3005.2421
2172.8766
1594.0356
1182.9483
885.78414
667.6803
505.45357
383.34295
290.44064
219.09943
163.92237
121.10636
87.997511
62.762039
44.104871
31.001573
22.462802
17.448474
14.770632
13.399225
12.6689
12.196498
11.811705
11.467981
11.150974
10.860741
10.580902
10.294971
10.003868
9.720206
9.5066713
9.4038572
9.3731247
9.5653487
9.8187915
10.052045
10.164176
10.190087
10.049336
9.9186518
9.8023716
9.4306095
8.1202177
6.3793745
4.9353596
3.7898365
2.8937792
2.1675367
1.5676334
1.089896
0.73409618
0.48650718
0.32274719
0.21950132
0.15873825
3736490.6
603709.77
185345.08
78625.507
40007.819
22787.035
13993.519
9062.7409
6103.8877
4235.424
3007.972
2175.9433
1597.4484
1186.7095
889.88668
672.10585
510.16923
388.29771
295.56143
224.28662
169.04583
126.00394
92.480154
66.631681
47.190213
33.208618
23.819526
18.090365
14.957254
13.353042
12.5233
12.045002
11.688178
11.381901
11.100666
10.8324
10.5645
10.285849
9.9940921
9.7070235
9.4939896
9.3919923
9.3617578
9.5613244
9.7772613
9.8914387
9.9205412
9.839834
9.6824703
9.6137525
9.5419967
9.1924797
7.9343553
6.0026483
4.5185973
3.4104123
2.5767792
1.9188889
1.3845676
0.9638652
0.6531577
0.43822697
0.29619024
0.20624676
0.15273638
3736522
603715.13
185347
78626.824
40009.076
22788.426
13995.136
9064.6194
6106.0582
4237.9132
3010.8035
2179.1373
1601.0207
1190.67
894.23729
676.83746
515.2583
393.70188
301.21431
230.09199
174.87173
131.67859
97.793797
71.350831
51.091925
36.135914
25.741744
19.108393
15.334136
13.373255
12.390417
11.87147
11.532334
11.258019
11.013548
10.775998
10.526808
10.258886
9.969852
9.6814087
9.4688569
9.3644509
9.3390989
9.512392
9.5953337
9.6001711
9.5385263
9.4013086
9.2532002
9.3940613
9.4159963
9.0594924
7.6806105
5.5981179
4.0898962
3.0281252
2.2630169
1.6758401
1.2074222
0.84331003
0.57646792
0.3925694
0.27086858
0.19337091
0.14674952
3736555.2
603720.91
185349.17
78628.257
40010.392
22789.836
13996.736
9066.4621
6108.1822
4240.3511
3013.5844
2182.2878
1604.5645
1194.6267
898.6204
681.65146
520.49471
399.33426
307.19193
236.33241
181.25269
138.0308
103.89808
76.946433
55.905027
39.934792
28.410103
20.702192
16.058834
13.566146
12.330159
11.701544
11.350848
11.1001
10.88572
10.679765
10.461363
10.210442
9.9281494
9.6405943
9.4261925
9.3175095
9.2878728
9.368075
9.3588882
9.28473
9.1243495
8.9721779
8.8679395
9.2547585
9.374235
8.9859801
7.4020513
5.1552441
3.6538792
2.6572846
1.9660277
1.4486262
1.0433911
0.73280184
0.5066996
0.35102147
0.24757919
0.18128419
0.14100225
3736589.7
603726.87
185351.38
78629.661
40011.641
22791.146
13998.204
9068.1447
6110.1209
4242.5812
3016.1384
2185.1975
1607.861
1198.3395
902.77624
686.27129
525.5899
404.90117
313.20475
242.73429
187.94535
144.86374
110.66036
83.366929
61.670977
44.739502
32.031368
23.087241
17.342181
14.056067
12.37545
11.559847
11.160839
10.916642
10.727603
10.550955
10.358861
10.131765
9.8696872
9.5980467
9.3808642
9.2549349
9.1998852
9.2091037
9.1534089
9.0357118
8.788689
8.6057155
8.6822073
9.1992452
9.4070544
8.9432375
6.9958333
4.6501512
3.2070863
2.2991431
1.6905216
1.2431612
0.89740049
0.63530516
0.44527718
0.31424499
0.22667691
0.17023296
0.13564664
3736625.1
603732.92
185353.55
78630.963
40012.742
22792.264
13999.436
9069.5489
6111.7374
4244.4451
3018.284
2187.6598
1610.6765
1201.5469
906.41481
690.3794
530.20141
410.0403
318.87868
248.92332
194.59056
151.85288
117.81394
90.429316
68.315491
50.600553
36.774551
26.509472
19.456643
15.091107
12.694518
11.560315
10.98588
10.722161
10.547872
10.397812
10.240245
10.047162
9.8084021
9.55463
9.3416789
9.2002236
9.1119166
9.0773562
9.0037734
8.8657444
8.5002778
8.3824524
8.565486
9.3538133
9.5962832
8.9071857
6.3394944
4.0909556
2.7709488
1.9698537
1.4453197
1.0638268
0.77164764
0.55176649
0.39246113
0.2822708
0.20822262
0.16032017
0.13077121
3736662.3
603739.14
185355.67
78632.128
40013.641
22793.122
14000.351
9070.5739
6112.9118
4245.8024
3019.857
2189.4838
1612.791
1203.9959
909.2474
693.64884
533.96291
414.34689
323.77459
254.43423
200.71041
158.5273
124.92146
97.763639
75.575822
57.402448
42.697691
31.1919
22.715382
17.004398
13.57889
11.791717
10.971849
10.540197
10.357564
10.232039
10.100246
9.9408508
9.7506271
9.5273341
9.3272756
9.1736984
9.0448066
8.9704284
8.8887663
8.713546
8.3646483
8.3049952
8.6197833
9.7998705
9.8269003
8.7051591
5.5691985
3.5226362
2.3562893
1.6744515
1.2334978
0.91178486
0.66589461
0.48144321
0.3475982
0.25473867
0.19210471
0.15155325
0.12640248
3736699.8
603745.36
185357.7
78633.119
40014.301
22793.673
14000.889
9071.1505
6113.561
4246.553
3020.7382
2190.5276
1614.0347
1205.4843
911.03351
695.79472
536.53914
417.43027
327.44351
258.76059
205.7474
164.29238
131.37491
104.78414
82.937688
64.764024
49.617039
37.189719
27.393093
20.184062
15.377852
12.540193
11.165378
10.533309
10.189895
10.049479
9.9648427
9.8625877
9.6985129
9.519565
9.3419758
9.1930933
9.0577003
8.9446695
8.8438819
8.6440239
8.3194652
8.4028917
9.1293556
10.472703
10.062887
8.0571196
4.7926374
2.9655894
1.9814378
1.4196057
1.0546864
0.78476321
0.57783855
0.42254132
0.30958168
0.23109935
0.17811604
0.1438594
0.12254308
3736738.4
603751.66
185359.63
78633.94
40014.714
22793.907
14001.038
9071.2589
6113.658
4246.661
3020.8789
2190.7258
1614.3212
1205.8979
911.6241
696.62503
537.68645
418.98611
329.50966
261.44439
209.15436
168.5115
136.45803
110.71949
89.61917
71.961901
56.961725
44.188438
33.503397
24.952634
18.60292
14.361698
11.906795
10.742784
10.206543
9.9218727
9.78994
9.7453554
9.657449
9.5278658
9.3972288
9.266707
9.1319372
8.9983855
8.9016431
8.6600118
8.5165724
8.7984256
10.261065
11.168006
10.236227
6.8965594
3.9327122
2.4425194
1.6573645
1.2066912
0.90654268
0.67937425
0.5045125
0.37302743
0.2772616
0.21078363
0.16599484
0.13714451
0.11917209
3736780.4
603758.31
185361.54
78634.618
40014.911
22793.86
14000.837
9070.9463
6113.2558
4246.1844
3020.3413
2190.1425
1613.7118
1205.2889
911.05111
696.13587
537.34407
418.87283
329.73379
262.1401
210.47421
170.61461
139.48145
114.75488
94.693176
77.999292
63.749551
51.351948
40.516916
31.21374
23.58218
17.782776
13.799792
11.554954
10.477624
9.9776199
9.7375666
9.6146988
9.5646525
9.5193266
9.4660814
9.4071967
9.3094285
9.1853917
9.0892118
8.8914177
8.9497254
9.6315574
11.735542
11.536954
9.7873099
5.4241377
3.1239851
1.9868699
1.38524
1.0305831
0.78378523
0.59156137
0.44305013
0.33111768
0.24967897
0.19329761
0.15550642
0.13130672
0.11626258
3736824.8
603765.14
185363.44
78635.199
40014.955
22793.606
14000.375
9070.3149
6112.4719
4245.2562
3019.2744
2188.9428
1612.3885
1203.8568
909.53355
694.56686
535.77136
417.35998
328.36068
261.00559
209.70068
170.35357
139.9319
116.14532
97.225371
81.778538
68.74688
57.390723
47.244875
38.10189
29.987427
23.092522
17.640717
13.70207
11.482258
10.378928
9.8633457
9.6393481
9.5456617
9.5215847
9.5180344
9.5162798
9.490878
9.4376014
9.3222568
9.3382959
9.6930061
11.586898
12.911197
11.858763
8.0050329
4.2505092
2.4612842
1.6109422
1.1761002
0.89455899
0.68237387
0.51788894
0.39108603
0.29538546
0.22608589
0.17824825
0.146462
0.12626551
0.11377845
3736869.6
603772.07
185365.35
78635.741
40014.921
22793.241
13999.77
9069.5042
6111.4689
4244.0635
3017.8901
2187.3641
1610.6137
1201.8877
907.37753
692.24009
533.30168
414.79049
325.75339
258.4446
207.29397
168.23123
138.23527
115.029
96.874486
82.451137
70.718251
60.825444
52.043857
43.97506
36.442985
29.486805
23.307107
18.158343
14.164433
11.760921
10.521292
9.959069
9.7130733
9.6304304
9.6352214
9.6626021
9.6832457
9.6968652
9.7501179
10.036323
11.258291
14.002598
13.481148
11.273321
5.786654
3.1002692
1.9288495
1.3564079
1.0165761
0.78076028
0.5976747
0.45532663
0.34681106
0.26478911
0.20594332
0.16533337
0.13872473
0.12194522
0.11168816
3736913.9
603779.16
185367.32
78636.299
40014.891
22792.871
13999.15
9068.6697
6110.43
4242.8195
3016.4344
2185.6875
1608.7061
1199.7399
904.98292
689.59687
530.41557
411.67817
322.44655
254.99456
203.77629
164.74949
134.92241
112.04539
94.398779
80.647998
69.743809
60.864028
53.429666
46.900369
40.817429
34.930383
29.242068
23.927881
19.228685
15.323676
12.547103
11.053019
10.344946
10.044288
9.9898898
10.02543
10.09662
10.251206
10.623513
11.715939
14.904414
15.380386
13.730931
8.305369
4.1729865
2.3893738
1.5762388
1.1568993
0.88135454
0.6779463
0.52210268
0.40183182
0.3088706
0.23854301
0.18880775
0.15430836
0.13218153
0.11825122
0.10994831
3736961
603786.61
185369.41
78636.946
40014.943
22792.587
13998.626
9067.9415
6109.5091
4241.7049
3015.1183
2184.158
1606.9488
1197.7391
902.72286
687.06286
527.59592
408.56667
319.04581
251.32046
199.8637
160.65917
130.74936
107.92943
90.521608
77.194504
66.891365
58.764624
52.147589
46.530291
41.650351
37.199922
32.930788
28.639916
24.429802
20.482954
17.068629
14.302412
12.395489
11.448186
11.115112
11.154747
11.339819
11.781092
12.831694
15.830267
17.177052
15.910988
11.396968
5.4118515
2.8400648
1.8029276
1.2986191
0.9835748
0.76466888
0.59745899
0.4616343
0.35693618
0.27628141
0.21615322
0.17429344
0.14499471
0.12670663
0.1150277
0.10849613
3737011.6
603794.52
185371.68
78637.716
40015.118
22792.442
13998.262
9067.3988
6108.8012
4240.8325
3014.0746
2182.9314
1605.5242
1196.0987
900.84665
684.92928
525.18274
405.85208
316.0101
247.94872
196.14914
156.60721
126.38157
103.28451
85.668173
72.278805
62.145894
54.491098
48.651874
44.010358
40.047171
36.470314
33.138035
30.052875
27.076913
24.12617
21.274262
18.685457
16.623032
15.09029
14.155982
14.013651
14.205091
14.942388
17.353401
18.979165
18.011027
14.620903
7.0035604
3.5688852
2.2125718
1.5093036
1.09853
0.84998722
0.66593652
0.52108149
0.40585967
0.31737666
0.2481087
0.19727621
0.16205244
0.13726712
0.12210638
0.11211683
0.10723338
3737062.3
603802.6
185374.05
78638.584
40015.396
22792.413
13998.034
9067.0138
6108.2758
4240.1692
3013.2687
2181.973
1604.3997
1194.7913
899.33681
683.19455
523.19774
403.58887
313.43916
245.04004
192.8744
152.94233
122.30892
98.79481
80.77555
67.036771
56.642347
48.858827
43.100842
38.904949
35.807753
33.383047
31.169773
28.96907
26.749679
24.669126
22.767958
21.040771
19.484828
18.234618
17.22835
16.928996
17.345971
19.317017
20.884337
20.031601
17.000737
8.9950207
4.5143355
2.6332913
1.7022076
1.2214583
0.93902083
0.73605926
0.58347846
0.46152472
0.36111888
0.28409856
0.22417821
0.18157893
0.1517164
0.13099548
0.11815252
0.10945702
0.10603904
3737113.2
603810.84
185376.48
78639.476
40015.683
22792.387
13997.803
9066.6235
6107.7433
4239.4983
3012.4554
2181.0084
1603.2713
1193.4837
897.83211
681.47271
521.2367
401.36467
310.92606
242.2113
189.7034
149.40501
118.38888
94.490265
76.091065
61.984767
51.256798
43.202276
37.266634
32.995407
29.997746
27.937905
26.550769
25.493183
24.51422
23.348531
22.122807
20.939394
19.952518
19.005572
18.529283
19.071587
21.520122
22.858168
22.034378
19.111921
11.137808
5.5602459
3.1219388
1.9560383
1.3456051
1.0182573
0.80257385
0.64035949
0.50883677
0.40414826
0.31977529
0.25490777
0.20398357
0.16862279
0.14300615
0.12600169
0.11470181
0.10710106
0.10481017
3737167.7
603819.57
185379.05
78640.383
40015.94
22792.297
13997.481
9066.1199
6107.0776
4238.6757
3011.4732
2179.8589
1601.9433
1191.9632
896.10231
679.51489
519.03072
398.88978
308.16168
239.13766
186.30227
145.66126
114.29318
90.044407
71.316446
56.914407
45.937281
37.695467
31.647151
27.349784
24.426093
22.544397
21.409363
20.747961
20.326532
20.026377
19.740725
19.399978
19.103762
19.416392
20.642043
23.935887
24.78331
23.930309
20.951172
13.044063
6.5611793
3.6007519
2.1812764
1.4978357
1.1394863
0.90914706
0.72818312
0.57810868
0.45808145
0.36315508
0.28761872
0.2311167
0.18750919
0.15793309
0.13580252
0.12199464
0.11175737
0.10538445
0.10354806
3737225.4
603828.68
185381.72
78641.273
40016.111
22792.073
13996.976
9065.3922
6106.1486
4237.5514
3010.1516
2178.3336
1600.2054
1190.0025
893.90822
677.07665
516.33827
395.93433
304.9364
235.63862
182.53005
141.62334
110.00606
85.535903
66.629033
52.09859
41.051482
32.804285
26.814817
22.639486
19.891978
18.227473
17.339388
16.961247
16.891131
17.086086
17.591381
18.50234
20.110012
22.80181
26.06389
26.554983
25.628779
22.502014
14.639038
7.5625178
4.1680917
2.5073698
1.7164983
1.2855405
0.98794233
0.76319508
0.60649789
0.49586886
0.40176274
0.32217998
0.25834592
0.21059916
0.17382492
0.14896383
0.13001519
0.11862524
0.10943625
0.10407924
0.10256674
3737283.9
603838.03
185384.48
78642.24
40016.356
22791.929
13996.569
9064.7803
6105.357
4236.5895
3009.0211
2177.0322
1598.7291
1188.3467
892.06877
675.05084
514.12502
393.53469
302.35415
232.88099
179.60852
138.55325
106.80622
82.227653
63.234254
48.661289
37.625897
29.455111
23.605295
19.614773
17.110732
15.837806
15.301853
15.287831
15.820764
16.870769
18.584735
21.233564
24.359044
27.526493
28.047796
27.085642
23.879295
16.071591
8.7585932
4.9120129
2.9331722
1.9739394
1.440729
1.0768024
0.83126464
0.66497037
0.53822844
0.43471464
0.3540347
0.2888036
0.23515269
0.19421654
0.1627758
0.14155236
0.12542095
0.11571697
0.10766605
0.10315071
0.1019848
3737344.3
603847.82
185387.47
78643.494
40016.972
22792.255
13996.741
9064.8606
6105.3776
4236.5675
3008.966
2176.9494
1598.6216
1188.2156
891.91409
674.87123
513.91798
393.29643
302.0795
232.56347
179.24048
138.12685
106.31512
81.669378
62.613759
47.981315
36.911583
28.747983
22.940316
19.027346
16.698131
15.657733
15.406031
15.907447
17.150452
19.215601
21.902621
25.244984
28.724082
29.578545
28.569309
25.291104
17.529088
10.037504
5.6506515
3.2978187
2.170265
1.5637442
1.1634665
0.90448606
0.72764184
0.59863906
0.49455584
0.40341335
0.32419474
0.26211208
0.21501313
0.18009977
0.1534835
0.13543045
0.12159961
0.11330931
0.1062418
0.10250903
0.10170436
3737407.1
603858.05
185390.71
78645.035
40017.955
22793.042
13997.481
9065.6188
6106.1916
4237.4612
3009.9558
2178.0477
1599.8374
1189.5557
893.38295
676.4707
515.64704
395.15062
304.05016
234.63688
181.39704
140.34049
108.55279
83.890861
64.772344
50.025899
38.781225
30.382936
24.357277
20.324422
17.999788
17.056114
17.170745
18.282648
20.246214
23.013883
26.517085
30.133834
31.31794
30.253919
26.878366
19.089988
11.403545
6.4444126
3.726554
2.4521312
1.7781058
1.3276779
1.0272734
0.82088824
0.66172293
0.53363083
0.43434274
0.35559496
0.29150862
0.23993517
0.19934806
0.16884805
0.14592728
0.13038102
0.11831157
0.11138169
0.10515908
0.10207374
0.10160136
3737471.9
603868.63
185394.09
78646.696
40019.064
22793.977
13998.398
9066.5875
6107.2525
4238.642
3011.2773
2179.5263
1601.487
1191.3883
895.40828
678.69667
518.07919
397.79169
306.89945
237.6897
184.64373
143.76458
112.13
87.588783
68.551282
53.842307
42.595159
34.171975
28.105022
24.043873
21.723826
20.935444
21.401089
22.821419
25.448088
29.048563
32.653461
33.563811
32.323292
28.737115
20.761101
12.840585
7.3036327
4.2150081
2.7725206
1.9940315
1.4688491
1.1260289
0.88974774
0.70527605
0.56846
0.46671592
0.3861922
0.31966383
0.264336
0.22001202
0.18529166
0.15912463
0.13955371
0.12605486
0.1155781
0.10978946
0.10448186
0.10180309
0.10157906
3737539.4
603879.63
185397.53
78648.303
40020.051
22794.735
13999.087
9067.2793
6107.9892
4239.451
3012.1793
2180.5382
1602.624
1192.6646
896.83769
680.2929
519.8559
399.76251
309.07796
240.08894
187.27555
146.63915
115.25449
90.966667
72.181613
57.721283
46.719914
38.546703
32.747055
28.999
27.068336
26.741062
27.459759
29.449673
32.778945
36.122212
36.241104
34.73198
30.652438
22.532088
14.339331
8.2213996
4.7620566
3.1195097
2.2158863
1.6340058
1.2660258
0.99614004
0.78441357
0.63214928
0.51950142
0.43251586
0.35836058
0.29426254
0.2434828
0.20442716
0.17400129
0.15115638
0.13418205
0.1223446
0.1134217
0.10847199
0.10397596
0.1016656
0.10169726
3737610.3
603891.04
185401.05
78649.84
40020.885
22795.271
13999.487
9067.6205
6108.3126
4239.7828
3012.538
2180.9392
1603.0812
1193.192
897.45002
681.00638
520.68868
400.73507
310.21339
241.41321
188.81781
148.43209
117.33462
93.374037
74.960369
60.919791
50.391848
42.754385
37.564785
34.507615
33.333532
33.636175
34.847802
37.387575
39.980546
39.315199
37.37278
32.599163
24.303053
15.836195
9.1957499
5.3761184
3.5000524
2.4649984
1.8347839
1.4260493
1.1069523
0.86626671
0.69922453
0.57567364
0.47667959
0.39418134
0.3269356
0.27108616
0.22612143
0.19118417
0.16428855
0.14435171
0.12956599
0.11923668
0.11171586
0.10729885
0.10349521
0.10155132
0.10177966
3737682.9
603902.75
185404.67
78651.381
40021.679
22795.737
13999.792
9067.8422
6108.4927
4239.9467
3012.7034
2181.1202
1603.2908
1193.4432
897.75746
681.38658
521.16117
401.32321
310.94523
242.32244
189.94482
149.82507
119.05076
95.480551
77.535146
64.051063
54.175881
47.289078
42.935489
40.759863
40.431952
41.128752
42.972933
43.89458
42.851943
40.163242
34.46062
26.013853
17.296448
10.2488
6.0619017
3.912328
2.7402801
2.055822
1.5932143
1.230168
0.96805049
0.78159444
0.63425494
0.51497246
0.42315422
0.35308534
0.2954686
0.24758928
0.20967797
0.17955098
0.1559952
0.13854846
0.12565474
0.11666388
0.11025412
0.10620111
0.10309966
0.10134811
0.10155799
3737758.4
603915.02
185408.45
78653.02
40022.557
22796.29
14000.192
9068.1707
6108.7944
4240.2492
3013.026
2181.4786
1603.6996
1193.9172
898.31257
682.04131
521.9374
402.24729
312.04931
243.64589
191.53577
151.74205
121.36384
98.271584
80.896039
68.075153
58.953119
52.879751
49.332434
47.833518
47.881887
48.35948
47.812662
46.108758
42.718871
36.362819
27.725166
18.745955
11.364455
6.8085361
4.3720695
3.0569445
2.2993205
1.7739156
1.3735486
1.0890853
0.87470474
0.70262483
0.57203779
0.47533129
0.39823336
0.33283277
0.27710602
0.23169957
0.19701593
0.16989065
0.14897603
0.13364316
0.12236886
0.11448883
0.10891161
0.10531893
0.10275219
0.10106147
0.10092573
3737836.4
603927.68
185412.41
78654.788
40023.56
22796.978
14000.748
9068.681
6109.3071
4240.7952
3013.6283
2182.1567
1604.4715
1194.8016
899.33012
683.21534
523.29535
403.82203
313.88062
245.7822
194.03605
154.67756
124.81521
102.31548
85.575114
73.438212
65.024567
59.600329
56.51922
55.059603
54.017322
52.11107
49.330986
45.101182
38.20705
29.335195
20.150875
12.545954
7.6459949
4.9080012
3.4177167
2.5589608
1.9719192
1.5432151
1.2315911
0.98236807
0.78474337
0.63790472
0.5258684
0.43635341
0.36485253
0.30702154
0.25787332
0.21712212
0.18583112
0.16137779
0.14290459
0.1294856
0.11956935
0.11261771
0.10775868
0.10453993
0.10235741
0.10077505
0.099847078
3737916.9
603940.79
185416.54
78656.676
40024.68
22797.794
14001.449
9069.3588
6110.0147
4241.5672
3014.4916
2183.1344
1605.5862
1196.077
900.79213
684.89376
525.22497
406.04417
316.44448
248.74471
197.46025
158.6268
129.34751
107.48043
91.408631
79.894817
71.957451
66.708411
63.160872
60.094192
56.732237
52.972311
47.729658
40.194698
31.015416
21.664092
13.858664
8.5934389
5.5057381
3.7987447
2.8268931
2.1894791
1.7330447
1.383782
1.0980526
0.87879965
0.71561277
0.58736352
0.48468612
0.40268805
0.33653697
0.28231233
0.23824794
0.2032461
0.17613285
0.15424588
0.13785076
0.1259763
0.11716884
0.11103576
0.10671725
0.10385491
0.10188228
0.10053353
0.099374462
3738001.3
603954.53
185420.89
78658.695
40025.91
22798.723
14002.277
9070.1831
6110.8917
4242.5353
3015.5807
2184.3716
1606.9983
1197.6919
902.64072
687.01045
527.64827
408.81623
319.60959
252.34793
201.54336
163.22368
134.47181
113.11263
97.490931
86.208712
78.100008
71.998058
66.87534
62.073365
57.073885
50.645567
42.364569
32.827681
23.309969
15.291028
9.6490619
6.1940442
4.253157
3.1589391
2.4585911
1.9528645
1.5546026
1.2363617
0.99584177
0.80892414
0.65833909
0.53979905
0.44893782
0.37824165
0.32009295
0.26996093
0.22672109
0.19276746
0.1676785
0.14796139
0.13353513
0.12298686
0.11512881
0.1096751
0.10579077
0.10335068
0.10144347
0.10030901
0.099105176
3738088.5
603968.77
185425.43
78660.833
40027.24
22799.757
14003.221
9071.1398
6111.9211
4243.6786
3016.871
2185.8386
1608.671
1199.6003
904.81645
689.48726
530.46147
412.00205
323.2011
256.36978
206.00246
168.09429
139.67792
118.50056
102.79587
91.113927
82.125984
74.792417
68.266567
61.693046
53.954107
44.861368
34.919971
25.192562
16.915171
10.869122
7.0096622
4.7800759
3.5174872
2.7265371
2.1669783
1.7346848
1.3950104
1.1297952
0.91313995
0.73983876
0.60714391
0.5030677
0.41817971
0.34881803
0.29359008
0.24928445
0.21255245
0.18318647
0.16065496
0.14271229
0.12988799
0.12043394
0.11337437
0.10852381
0.10507396
0.10292457
0.10108118
0.099992328
0.098901812
3738178.6
603983.52
185430.14
78663.073
40028.656
22800.877
14004.258
9072.2004
6113.067
4244.9524
3018.3064
2187.4655
1610.5185
1201.6976
907.19363
692.1744
533.48719
415.38934
326.96292
260.49967
210.46266
172.80038
144.48169
123.17448
107.02413
94.509476
84.357121
75.591469
67.062311
57.881834
47.880665
37.43829
27.402969
18.789249
12.296147
7.9867375
5.4134054
3.9435209
3.0471709
2.4324894
1.9622444
1.586241
1.2816074
1.0329866
0.83805854
0.68697727
0.56560415
0.4685305
0.39365049
0.3335191
0.28205092
0.23797129
0.20189911
0.17470534
0.15442198
0.13824663
0.12683064
0.11824984
0.11187638
0.10758475
0.10445602
0.10248081
0.10071068
0.09961105
0.098685546
3738271.2
603998.73
185435.01
78665.382
40030.111
22802.019
14005.311
9073.2733
6114.2242
4246.2382
3019.7555
2189.1082
1612.383
1203.8111
909.5811
694.85718
536.47909
418.69143
330.55588
264.3336
214.44493
176.78341
148.25447
126.46437
109.51556
95.906172
84.330589
73.493769
62.672377
51.609488
40.525242
30.05599
21.012653
14.012305
9.1879783
6.1939764
4.4516583
3.408894
2.7174671
2.1996373
1.7861328
1.4486059
1.1745199
0.95674475
0.78066468
0.63984582
0.52972712
0.44117146
0.36846884
0.31030388
0.26416669
0.22545653
0.19278667
0.16774203
0.14910221
0.13439403
0.12419246
0.11634611
0.1105967
0.10675318
0.10389182
0.1020179
0.10032767
0.099301001
0.098515953
3738367.1
604011.65
185437.66
78665.919
40030.238
22802.144
14005.561
9073.6955
6114.8423
4247.068
3020.8111
2190.4036
1613.932
1205.6256
911.66936
697.21966
539.10358
421.54599
333.58022
267.42965
217.46848
179.53985
150.50298
127.94479
109.94295
94.837985
81.34623
68.641531
56.317923
44.410721
33.343249
23.739038
16.127379
10.686743
7.1719806
5.0751252
3.8357268
3.0458557
2.4741993
2.0210533
1.6478435
1.3413251
1.0926885
0.88953063
0.72727438
0.59989191
0.49633054
0.41432982
0.34991305
0.2958251
0.25097269
0.21413513
0.18420967
0.1616341
0.14465625
0.13117826
0.1219381
0.11468815
0.10947596
0.10602794
0.10336822
0.1015542
0.099992507
0.099090847
0.098436464
3739014.3
604122.32
185474.95
78683.633
40040.343
22808.674
14010.2
9077.2582
6117.769
4249.6182
3023.149
2192.6384
1616.1385
1207.8543
913.95015
699.56205
541.4937
423.94168
335.9051
269.56805
219.26437
180.80707
151.00539
127.35568
107.88857
91.139167
76.077696
62.10754
49.064526
37.161106
26.838083
18.524995
12.408311
8.3172959
5.8078045
4.3248655
3.4085966
2.7706524
2.2739295
1.8652129
1.5263683
1.2463837
1.0165301
0.83139593
0.68205372
0.56361
0.46876375
0.39259926
0.33231614
0.28240224
0.24053421
0.20526113
0.17683279
0.15600466
0.14053773
0.12824261
0.11987718
0.11316063
0.10847739
0.10532098
0.10283355
0.10111644
0.099712441
0.09889605
0.098398517
3739013.7
604119.26
185472.48
78681.814
40039.095
22807.84
14009.675
9076.982
6117.7059
4249.7479
3023.4593
2193.1216
1616.7866
1208.6553
914.88326
700.5924
542.5663
424.97546
336.7888
270.15425
219.3569
180.13885
149.29183
124.37637
103.55656
85.513735
69.407917
54.847651
41.825607
30.588372
21.444672
14.552225
9.7849789
6.7548878
4.9352877
3.8343811
3.1046593
2.5565471
2.1091475
1.734406
1.4206188
1.1615048
0.95046804
0.77822938
0.64069088
0.53190239
0.44169709
0.36902886
0.31179343
0.26565982
0.22832436
0.19646848
0.17036073
0.15120925
0.13698578
0.12565564
0.11802092
0.11178976
0.10757736
0.10462893
0.10231978
0.1007288
0.099459335
0.098765995
0.098376227
3739013.8
604119.31
185472.52
78681.873
40039.177
22807.949
14009.817
9077.1636
6117.9334
4250.0269
3023.7935
2193.511
1617.2256
1209.1295
915.36566
701.03869
542.90952
425.11952
336.59975
269.45983
217.96572
177.87614
146.01869
120.02497
98.172795
79.294353
62.711405
48.159075
35.66818
25.399945
17.467784
11.788496
8.035068
5.7297474
4.357276
3.4955486
2.8801932
2.387816
1.9751386
1.6270312
1.3356857
1.0941741
0.89581823
0.73479023
0.60496206
0.50159099
0.41803805
0.35337357
0.30055795
0.2554763
0.21934053
0.18910324
0.164748
0.14707749
0.13395535
0.12342735
0.11640324
0.11059701
0.10678763
0.10403759
0.10183542
0.10036764
0.09925649
0.098657262
0.098316177
3739014
604119.31
185472.49
78681.824
40039.119
22807.886
14009.753
9077.1031
6117.8791
4249.9801
3023.7528
2193.4698
1617.1699
1209.0343
915.19125
700.72648
542.37863
424.26577
335.30033
267.58178
215.37744
174.46981
141.74027
114.90758
92.364691
73.068777
56.445257
42.274475
30.546961
21.298066
14.465432
9.7829541
6.8216916
5.0515996
3.9793064
3.2586119
2.70718
2.2512658
1.8644701
1.5365873
1.2615634
1.0340911
0.84786711
0.69601957
0.57516364
0.47912204
0.39843937
0.33594045
0.2863384
0.24485583
0.21156061
0.18298151
0.16003613
0.14354945
0.13135184
0.12149243
0.11497868
0.10954655
0.10608969
0.10347191
0.10138569
0.100052
0.099118056
0.098592592
0.098292132
3739014.9
604119.31
185472.39
78681.676
40038.934
22807.667
14009.502
9076.8198
6117.5638
4249.6301
3023.3613
2193.0247
1616.6505
1208.4094
914.41618
699.74097
541.10588
422.61405
333.16828
264.86893
212.00072
170.38561
136.96934
109.55693
86.638188
67.257117
50.889578
37.307035
26.423872
18.14761
12.262885
8.3904956
6.0132488
4.5942043
3.7036271
3.0713084
2.5656167
2.1371604
1.7709695
1.4602916
1.1995093
0.98357102