/*--------------------------------*- C++ -*----------------------------------*\
  =========                 |
  \\      /  F ield         | OpenFOAM: The Open Source CFD Toolbox
   \\    /   O peration     | Website:  https://openfoam.org
    \\  /    A nd           | Version:  13
     \\/     M anipulation  |
\*---------------------------------------------------------------------------*/
FoamFile
{
    format      ascii;
    class       volScalarField;
    location    "43.402827";
    object      omega;
}
// * * * * * * * * * * * * * * * * * * * * * * * * * * * * * * * * * * * * * //

dimensions      [0 0 -1 0 0 0 0];

internalField   nonuniform List<scalar> 
17140
(
3736295.3
603677.93
185335.27
78621.663
40006.336
22786.781
13994.063
9063.8828
6105.5509
4237.5969
3010.6858
2179.264
1601.4752
1191.5752
895.75926
679.18733
518.69118
398.5093
307.70658
238.56624
185.56129
144.68145
112.98372
88.286856
68.960334
53.776742
41.80731
32.347492
24.863482
18.953099
14.315429
10.724058
8.0004662
5.9893695
4.5439922
3.5265877
2.8182707
2.3263731
1.9843637
1.7469268
1.5839976
1.4757764
1.4109536
1.3813659
1.3742546
1.3887705
1.4233332
1.4756169
1.5442839
1.6289731
1.7302551
1.8491124
1.9848406
2.1337211
2.2939231
2.464835
2.6381316
2.7961115
2.918214
3.0174598
3.1829894
3.5230285
3.4921013
3.1888069
3.0650181
3736320.9
603682.56
185336.97
78622.539
40006.862
22787.131
13994.311
9064.0686
6105.6952
4237.7126
3010.7809
2179.3442
1601.5442
1191.6358
895.81349
679.23679
518.73707
398.55252
307.74782
238.60594
185.5997
144.71862
113.01951
88.320919
68.992162
53.805685
41.832669
32.368611
24.879887
18.964634
14.322374
10.727158
8.0007976
5.9880927
4.5420102
3.5245092
2.8164545
2.3250043
1.9835404
1.7467121
1.5844522
1.4769671
1.4130085
1.3841726
1.3778694
1.3934999
1.4293553
1.4832333
1.5539772
1.6415101
1.7468491
1.8715573
2.0153249
2.175132
2.351472
2.5458269
2.7491974
2.936357
3.0732547
3.1589362
3.2427522
3.3585488
3.4008009
3.1861799
3.0390913
3736345.9
603686.66
185338.24
78623.082
40007.143
22787.295
13994.417
9064.1418
6105.75
4237.7567
3010.8189
2179.3791
1601.5779
1191.6697
895.84855
679.27374
518.7764
398.59458
307.79277
238.6538
185.65029
144.77159
113.07431
88.376818
69.048224
53.860813
41.885643
32.418165
24.924797
19.003842
14.355123
10.753133
8.0202448
6.0018076
4.5512044
3.5304825
2.8203422
2.3276751
1.9856154
1.7486283
1.5865248
1.4794485
1.4161645
1.3880005
1.3825826
1.399546
1.4370367
1.4930119
1.5665516
1.6579559
1.7688366
1.9014686
2.0558837
2.2302313
2.4287434
2.6563955
2.9046144
3.1370654
3.2911105
3.36733
3.3969521
3.3703552
3.2954838
3.1374283
2.9488808
3736372.1
603690.93
185339.57
78623.651
40007.437
22787.468
13994.529
9064.2215
6105.8112
4237.8075
3010.8642
2179.422
1601.6205
1191.7136
895.89478
679.32314
518.8296
398.65202
307.85471
238.72033
185.72131
144.84678
113.15312
88.458439
69.131599
53.944627
41.968349
32.49802
24.999924
19.072327
14.415183
10.803392
8.0600993
6.0317077
4.5725805
3.5452832
2.8304972
2.3347766
1.9908505
1.752847
1.5903403
1.4833276
1.4205198
1.3929364
1.3885475
1.4071173
1.446662
1.505346
1.5825558
1.6790825
1.7973052
1.940286
2.1082426
2.301474
2.5298745
2.8038665
3.1163495
3.4133747
3.5912127
3.6501762
3.6362394
3.516286
3.2950566
3.0868475
2.9426218
3736400.1
603695.47
185340.97
78624.246
40007.744
22787.65
13994.65
9064.3086
6105.8799
4237.8662
3010.9181
2179.4743
1601.6736
1191.7691
895.95391
679.38682
518.89853
398.72673
307.93553
238.80741
185.81458
144.94594
113.2576
88.567371
69.243811
54.058608
42.082248
32.609645
25.106762
19.171616
14.504095
10.879441
8.1217608
6.0789976
4.6071116
3.5696575
2.8474727
2.3467136
1.9995456
1.7595991
1.5960881
1.4887788
1.4262546
1.3991237
1.3960024
1.4165183
1.4586346
1.5207841
1.6027464
1.7059472
1.8337304
1.989879
2.1746515
2.3923633
2.6609975
2.9990168
3.4026725
3.7944482
4.0098846
4.0426712
3.9602648
3.7671647
3.4189615
3.1447577
3.0398589
3736429.1
603700.15
185342.41
78624.862
40008.065
22787.842
13994.778
9064.4028
6105.9559
4237.9327
3010.9805
2179.5361
1601.7372
1191.8362
896.02589
679.46473
518.98318
398.81872
308.03528
238.91513
185.93026
145.06929
113.38805
88.704013
69.385366
54.203387
42.228113
32.753972
25.246415
19.30298
14.623275
10.98278
8.2067166
6.1450394
4.6559498
3.6045177
2.8719616
2.3640041
2.012092
1.7691912
1.6040239
1.4960398
1.4336891
1.4070822
1.4053044
1.4281618
1.4734955
1.5400617
1.628143
1.7399862
1.880104
2.0526558
2.2582171
2.508182
2.8316999
3.2599404
3.7972889
4.3251713
4.6091391
4.5880822
4.3919616
4.0985384
3.6839898
3.3519662
3.3136224
3736459.3
603704.98
185343.89
78625.499
40008.4
22788.044
13994.913
9064.5041
6106.039
4238.0067
3011.051
2179.6068
1601.8107
1191.9144
896.11019
679.5563
519.08293
398.92735
308.1533
239.04283
186.06768
145.21621
113.54391
88.867906
69.55594
54.378812
42.406003
32.931306
25.419466
19.467301
14.773898
11.114823
8.316508
6.2313458
4.7204391
3.6509655
2.9048211
2.3873017
2.0289917
1.7820218
1.6144806
1.5053957
1.4429889
1.4170801
1.4168889
1.4425962
1.4919699
1.5641728
1.6601416
1.7831959
1.9391553
2.1318037
2.3636094
2.6571823
3.0569235
3.614091
4.3452309
5.0723649
5.4658739
5.3503195
4.9570989
4.5235522
4.0264001
3.6990143
3.6339733
3736490.6
603709.99
185345.41
78626.159
40008.749
22788.254
13995.057
9064.6123
6106.1289
4238.0878
3011.1292
2179.6859
1601.8934
1192.0028
896.20585
679.66046
519.19662
399.05137
308.28827
239.18912
186.22544
145.38528
113.72382
89.057749
69.754358
54.58389
42.61517
33.141211
25.62585
19.664941
14.956776
11.276802
8.4526631
6.3395493
4.802115
3.7103089
2.9470967
2.4174188
2.0508793
1.7986033
1.6279001
1.5172876
1.4546714
1.4294296
1.4313442
1.460554
1.5150391
1.5944845
1.7007022
1.8384282
2.0146387
2.2318158
2.498279
2.8524734
3.3599473
4.1022599
5.1014305
6.0880532
6.5139616
6.1870048
5.6191525
5.0435425
4.4243049
4.0741844
3.9258612
3736522
603715.14
185347.01
78626.846
40009.109
22788.473
13995.207
9064.7267
6106.2248
4238.1751
3011.2141
2179.7723
1601.9842
1192.1001
896.31143
679.77563
519.32252
399.18892
308.43818
239.3519
186.40133
145.57426
113.92549
89.271312
69.978497
54.816679
42.853934
33.38236
25.864698
19.895577
15.172199
11.469619
8.616591
6.4713406
4.902684
3.7840702
3.0000435
2.4553532
2.0785474
1.8195837
1.6448359
1.5322712
1.469277
1.4448037
1.4494039
1.4830213
1.5440553
1.6329229
1.7526616
1.9098463
2.1116881
2.3596136
2.6743699
3.1149229
3.776649
4.7806468
6.0917104
7.0616523
6.9502973
6.4685028
5.9049243
5.37259
4.8039517
4.4526222
4.1328772
3736555.2
603720.51
185348.67
78627.558
40009.483
22788.701
13995.364
9064.847
6106.3262
4238.2678
3011.3044
2179.8647
1602.0815
1192.2046
896.42496
679.89966
519.45826
399.33741
308.60027
239.52822
186.59228
145.77995
114.14567
89.505331
70.225161
55.07414
43.119521
33.652365
26.134136
20.157994
15.419729
11.693662
8.8094257
6.628363
5.0239725
3.8739771
3.0651417
2.5023138
2.1129787
1.8457877
1.666027
1.5510361
1.4875327
1.4640574
1.4720876
1.5113634
1.5809286
1.682282
1.8202669
2.0035495
2.237454
2.5266468
2.9119106
3.4782294
4.3637055
5.722607
7.2281951
7.4104213
7.007803
5.8672571
5.3175974
5.1798396
4.9379751
4.6299128
3.9450894
3736589.7
603726.08
185350.38
78628.298
40009.872
22788.938
13995.527
9064.9721
6106.4317
4238.3645
3011.3989
2179.9613
1602.1834
1192.3141
896.544
680.02981
519.60087
399.49362
308.77104
239.71433
186.7943
145.99817
114.38006
89.755426
70.489981
55.352019
43.407913
33.947595
26.431092
20.449862
15.697955
11.948557
9.0318057
6.8120468
5.1678292
3.9819249
3.1440988
2.5597431
2.1553761
1.8782476
1.6924167
1.5744839
1.510405
1.4883349
1.500829
1.5475232
1.6284399
1.7467554
1.9100724
2.1281834
2.4029114
2.7530063
3.2451157
3.9999811
5.2204053
6.9986091
7.8132501
7.4575006
6.0952872
3.9097151
2.8420416
3.1009672
3.6826175
3.6164396
2.577223
3736625.1
603731.81
185352.16
78629.063
40010.276
22789.183
13995.695
9065.1008
6106.5401
4238.4636
3011.4955
2180.06
1602.2874
1192.426
896.66558
680.1628
519.7467
399.65355
308.94618
239.90561
187.00246
146.22372
114.62322
90.016013
70.767302
55.644701
43.713681
34.262973
26.751051
20.767459
16.004193
12.232854
9.2835744
7.0233605
5.3359569
4.1098909
3.2388246
2.6293295
2.2071955
1.9182478
1.7252066
1.603814
1.5391983
1.5192279
1.5376876
1.5943572
1.6907843
1.8328811
2.0322839
2.2957137
2.627448
3.0732703
3.7361061
4.7903451
6.5333754
8.1480371
7.9952794
6.986791
4.1712834
2.1816031
1.401991
1.2626196
1.3623091
1.3332332
0.86890506
3736662.3
603737.81
185354.01
78629.856
40010.693
22789.436
13995.868
9065.2323
6106.6501
4238.5635
3011.5924
2180.1585
1602.391
1192.5371
896.78632
680.29487
519.89162
399.81267
309.12072
240.09667
187.21098
146.45045
114.86866
90.280327
71.050173
55.945166
44.02988
34.591823
27.087836
21.105393
16.334146
12.54364
9.5633806
7.2624541
5.5296449
4.2597732
3.3513615
2.7129991
2.2701757
1.9673845
1.7659507
1.6406397
1.5757152
1.5590344
1.5857216
1.6562352
1.7745745
1.951309
2.2020434
2.5244065
2.9466805
3.5548806
4.5080081
6.0880789
8.2789695
8.5856003
7.8510288
5.327146
2.5194826
1.3600746
0.86797553
0.66537431
0.60701199
0.54466319
0.37132621
3736699.8
603743.94
185355.9
78630.675
40011.123
22789.697
13996.045
9065.3651
6106.7599
4238.6621
3011.6872
2180.2542
1602.491
1192.6441
896.90235
680.42171
520.03085
399.96573
309.28893
240.28128
187.41313
146.67116
115.10875
90.540337
71.33025
56.244863
44.3479
34.925669
27.433349
21.456248
16.681454
12.876032
9.8681661
7.5281855
5.7493775
4.4331198
3.4837368
2.8128656
2.3463586
2.0276383
1.8166824
1.6871817
1.6225393
1.6112226
1.6496505
1.7401693
1.8908107
2.1200075
2.4406614
2.8524785
3.4353318
4.3371173
5.8284522
8.2281745
9.1342444
8.6462606
6.8236518
3.1506932
1.5867347
0.92339982
0.61568571
0.46545853
0.3707915
0.30574875
0.22819131
3736738.4
603750.26
185357.86
78631.522
40011.567
22789.963
13996.224
9065.4977
6106.8678
4238.7575
3011.7775
2180.3444
1602.5845
1192.7435
897.00985
680.53905
520.15962
400.10743
309.44498
240.45305
187.60196
146.8783
115.33537
90.787398
71.598409
56.534285
44.657993
35.254712
27.778012
21.811007
17.038058
13.223373
10.19309
7.817783
5.994387
4.6307344
3.6377033
2.9311093
2.4380783
2.1014538
1.8800828
1.7465603
1.6836069
1.6813597
1.7370104
1.8580449
2.0589535
2.3694408
2.7871876
3.3628348
4.2521869
5.7273522
8.2293384
9.6934823
9.3670687
7.9741776
4.1241596
1.9729285
1.050658
0.67048807
0.48025
0.3720096
0.28576354
0.23396536
0.18235903
3736780.4
603757.03
185359.92
78632.403
40012.024
22790.235
13996.404
9065.629
6106.9723
4238.8478
3011.861
2180.4263
1602.6684
1192.8319
897.1048
680.64236
520.27289
400.23217
309.58266
240.60514
187.76995
147.06369
115.53964
91.011938
71.844427
56.802617
44.948851
35.567309
28.110059
22.158095
17.393028
13.575947
10.530249
8.1256782
6.2617213
4.8519863
3.8142838
3.0697368
2.547905
2.1918301
1.9596373
1.8232005
1.7655093
1.7780325
1.8611256
2.0313336
2.3157184
2.7496798
3.3344862
4.2391902
5.7555756
8.3887761
10.259157
10.128231
8.9655147
5.337975
2.4276584
1.1909486
0.71795478
0.50215851
0.38319241
0.30520418
0.23940259
0.19815404
0.15647858
3736824.8
603764.05
185362.07
78633.316
40012.497
22790.513
13996.585
9065.7576
6107.0716
4238.9308
3011.9356
2180.4975
1602.7396
1192.9058
897.18335
680.72733
520.36581
400.33452
309.69593
240.73085
187.9097
147.21918
115.71262
91.20422
72.057756
57.038529
45.208425
35.85081
28.41643
22.484309
17.733355
13.921374
10.868664
8.4432513
6.5456786
5.0941141
4.0131721
3.230217
2.6785668
2.30259
2.0605184
1.9243853
1.8786107
1.9158113
2.0465052
2.3015133
2.7328011
3.3603929
4.2938286
5.8982004
8.7144929
10.877573
10.879118
9.8479612
6.5348391
2.8737317
1.3938684
0.81155593
0.55991187
0.41426715
0.31453139
0.24584187
0.19420664
0.16198457
0.13399025
3736869.6
603771.22
185364.27
78634.258
40012.98
22790.795
13996.765
9065.8819
6107.1641
4239.0047
3011.9989
2180.5552
1602.7952
1192.9617
897.24166
680.78958
520.43346
400.40897
309.77861
240.82329
188.01354
147.33624
115.84492
91.353915
72.227099
57.229741
45.423473
36.091071
28.682207
22.774191
18.043465
14.244689
11.194719
8.7588588
6.8373204
5.3514657
4.2319999
3.413008
2.8328844
2.4388225
2.1905762
2.0619209
2.0408479
2.1220802
2.3409856
2.7541385
3.4343983
4.4285662
6.1481319
9.2123052
11.55396
11.645163
10.706555
7.6374822
3.4003524
1.6377806
0.92217861
0.62161366
0.4469748
0.33890244
0.26331509
0.210355
0.16787503
0.14539979
0.12343906
3736913.9
603778.54
185366.53
78635.217
40013.472
22791.078
13996.942
9066.0005
6107.2482
4239.0677
3012.0487
2180.597
1602.8324
1192.9967
897.27611
680.82504
520.47126
400.45037
309.82492
240.87596
188.07422
147.40681
115.92753
91.451026
72.34141
57.364111
45.580737
36.273733
28.892005
23.011481
18.306462
14.528665
11.491451
9.056905
7.1237085
5.6147617
4.4656518
3.6171571
3.0139421
2.6079339
2.3627517
2.257117
2.2835345
2.4527736
2.8447798
3.5614956
4.6598582
6.5034955
9.8375824
12.314605
12.434866
11.557213
8.6600301
3.9375415
1.9073413
1.0528295
0.6893356
0.48937868
0.36969721
0.28933236
0.23001827
0.18775588
0.15298385
0.13228651
0.11283094
3736961
603786.19
185368.88
78636.213
40013.978
22791.366
13997.118
9066.1133
6107.3231
4239.1185
3012.0837
2180.6211
1602.849
1193.0079
897.28373
680.83027
520.47519
400.45407
309.82951
240.88272
188.08468
147.42282
115.95135
91.48537
72.389451
57.429415
45.667045
36.384495
29.030316
23.179483
18.504566
14.754715
11.740043
9.3192601
7.3886942
5.8713581
4.7063188
3.8406171
3.2262621
2.8224328
2.6006021
2.5506745
2.6700214
3.0290718
3.772724
4.9985018
7.0020019
10.582365
13.139326
13.271734
12.426309
9.6353354
4.4794427
2.1932172
1.2009538
0.76881761
0.53887348
0.40550547
0.31707867
0.2517145
0.20096631
0.16336978
0.13423396
0.11902501
0.10549476
3737011.6
603794.25
185371.34
78637.246
40014.499
22791.657
13997.291
9066.2194
6107.3878
4239.156
3012.1023
2180.6259
1602.8431
1192.9935
897.26222
680.80274
520.44254
400.41712
309.78917
240.84003
188.04093
147.37963
115.91074
91.449825
72.362023
57.413776
45.667624
36.406706
29.079517
23.260312
18.619744
14.904286
11.921543
9.5271717
7.6149543
6.1072237
4.9455127
4.0828346
3.480009
3.1075052
2.952694
3.0175347
3.3445167
4.111993
5.4786789
7.6628738
11.456506
14.040002
14.160093
13.319668
10.572017
5.0386282
2.4984314
1.3658428
0.86040855
0.59495476
0.44353322
0.34510585
0.27238733
0.21744564
0.17494496
0.14598493
0.12411025
0.11308879
0.1005858
3737062.3
603802.44
185373.85
78638.306
40015.031
22791.95
13997.46
9066.3174
6107.4411
4239.179
3012.1034
2180.61
1602.8132
1192.9517
897.20962
680.74025
520.37081
400.33678
309.7009
240.7447
187.9397
147.27406
115.80287
91.342263
72.257994
57.317137
45.582765
36.338333
29.032878
23.24116
18.634675
14.959471
12.019253
9.6648553
7.7884789
6.3122227
5.1803219
4.3527644
3.8025518
3.5193148
3.5211165
3.8212373
4.6208027
6.1475512
8.511043
12.461432
15.021308
15.106242
14.251562
11.482947
5.632406
2.8334921
1.5499448
0.96629968
0.6602044
0.48748218
0.37754304
0.29733163
0.23744939
0.1933363
0.16077703
0.13665721
0.11757959
0.10605598
0.095920209
3737113.2
603810.79
185376.42
78639.391
40015.571
22792.244
13997.626
9066.4075
6107.4828
4239.1871
3012.0862
2180.5726
1602.7586
1192.8814
897.1249
680.64167
520.25881
400.21173
309.56326
240.59515
187.77924
147.10413
115.62548
91.16011
72.074538
57.136663
45.410385
36.179903
28.894857
23.130298
18.557408
14.921958
12.028578
9.7284998
7.9082506
6.4915655
5.4277865
4.6880924
4.2663966
4.1895065
4.4839655
5.3358235
7.0247402
9.5777736
13.582508
16.092176
16.118814
15.23642
12.397433
6.3119244
3.2274705
1.7666115
1.0871223
0.73436362
0.53692206
0.41260357
0.3236104
0.25969681
0.21213286
0.17522632
0.14608167
0.12437931
0.10861341
0.1004183
0.092264672
3737167.7
603819.61
185379.12
78640.516
40016.128
22792.543
13997.789
9066.4901
6107.5132
4239.1806
3012.0513
2180.5142
1602.6795
1192.7834
897.00881
680.50796
520.10771
400.04345
309.37809
240.3936
187.5622
146.87298
115.38225
90.907602
71.816476
56.877783
45.156499
35.937897
28.672599
22.936457
18.401183
14.812835
11.976076
9.7425066
8.0034446
6.6868189
5.7525492
5.1932854
5.0428288
5.345186
6.2764088
8.1230437
10.857012
14.828496
17.253661
17.212046
16.288092
13.342328
7.0505532
3.6513065
1.9848952
1.2041873
0.81195997
0.59298738
0.45256304
0.35388087
0.28393429
0.23118629
0.18954222
0.15695306
0.13294912
0.11654742
0.10466097
0.09763705
0.089759273
3737225.4
603828.82
185381.93
78641.689
40016.705
22792.849
13997.951
9066.5674
6107.5347
4239.1619
3012.0013
2180.4379
1602.5799
1192.662
896.86635
680.34486
519.92413
399.83948
309.15396
240.1498
187.29959
146.59301
115.08708
90.600279
71.501099
56.559669
44.842313
35.635742
28.392047
22.68854
18.198375
14.669131
11.907333
9.766798
8.1532251
7.0065869
6.3097169
6.0963679
6.4218142
7.4548979
9.4610575
12.340536
16.207854
18.529193
18.39738
17.413432
14.31497
7.8383132
4.1092645
2.2265203
1.347548
0.91653387
0.66669919
0.50086547
0.38755813
0.30938947
0.25090683
0.2050888
0.17041733
0.14509775
0.12636057
0.11165836
0.10019661
0.0933021
0.087056412
3737283.9
603838.25
185384.82
78642.902
40017.299
22793.163
13998.115
9066.6427
6107.5514
4239.1362
3011.9423
2180.3509
1602.4678
1192.5264
896.70824
680.16461
519.72194
399.61555
308.90862
239.88367
187.01377
146.28919
114.76777
90.268981
71.162543
56.220023
44.509412
35.319309
28.103916
22.442897
18.012112
14.56198
11.906451
9.918945
8.5157517
7.6639715
7.3888145
7.7425507
8.8746996
11.038126
14.036287
17.732727
19.979881
19.702569
18.619061
15.305477
8.6722389
4.6088488
2.497977
1.511244
1.0262816
0.73597486
0.54405494
0.42114944
0.33726413
0.27402595
0.22433252
0.18662083
0.15795752
0.13544476
0.11744144
0.10465927
0.095994123
0.090800756
0.08529317
3737344.3
603848.04
185387.81
78644.157
40017.916
22793.489
13998.287
9066.7232
6107.5718
4239.1134
3011.8859
2180.2665
1602.3585
1192.3943
896.55436
679.98963
519.52637
399.39991
308.67361
239.63034
186.74366
146.00455
114.47174
89.965847
70.857991
55.921464
44.226355
35.063798
27.890958
22.290659
17.945695
14.621179
12.147004
10.410338
9.3570146
8.9959278
9.3646106
10.577386
12.858755
15.947758
19.457194
21.57188
21.208053
19.907577
16.289649
9.550238
5.1561024
2.803048
1.6906391
1.1436399
0.81513641
0.60587994
0.47227952
0.37656526
0.30208268
0.24565215
0.20322301
0.17094948
0.14497087
0.12508131
0.11112087
0.10155751
0.093713619
0.088739523
0.083544692
3737407.1
603858.19
185390.93
78645.461
40018.562
22793.836
13998.477
9066.82
6107.6089
4239.1088
3011.8499
2180.2049
1602.2754
1192.2919
896.43433
679.85323
519.37468
399.23407
308.49498
239.44067
186.54528
145.80057
114.26623
89.764171
70.667014
55.749957
44.086068
34.970751
27.867848
22.371376
18.177218
15.062899
12.877957
11.539997
11.033469
11.36881
12.617363
14.958531
18.100105
21.417722
23.321509
22.848773
21.30254
17.312941
10.497967
5.7668663
3.141495
1.8856556
1.270982
0.90923039
0.67856716
0.52437021
0.40834394
0.3248128
0.26537898
0.22114613
0.18501927
0.15642175
0.13505036
0.11977848
0.10754398
0.097622121
0.090774885
0.086274244
0.082205148
3737471.9
603868.67
185394.15
78646.82
40019.242
22794.211
13998.693
9066.9451
6107.6769
4239.1387
3011.8527
2180.1877
1602.2425
1192.2467
896.3791
679.79003
519.30542
399.16074
308.41985
239.36646
186.47538
145.73932
114.21932
89.739207
70.674478
55.804486
44.20721
35.184795
28.210161
22.889655
18.934716
16.145425
14.40051
13.649838
13.885853
15.068911
17.400416
20.530297
23.666762
25.248123
24.650877
22.813118
18.365434
11.485416
6.4121938
3.4961115
2.0888445
1.4124375
1.0166088
0.75985106
0.57924355
0.44862432
0.3602601
0.29782712
0.24593449
0.20355328
0.17083066
0.14687671
0.12817467
0.11300819
0.10172939
0.094265713
0.088766552
0.085002871
0.08114112
3737539.4
603879.61
185397.5
78648.242
40019.964
22794.621
13998.943
9067.1062
6107.785
4239.2138
3011.9071
2180.2293
1602.2768
1192.2779
896.41069
679.82521
519.34743
399.21309
308.48654
239.45226
186.58617
145.88243
114.40415
89.977841
70.982641
56.202833
44.723744
35.857583
29.090342
24.044355
20.452655
18.14117
17.019284
17.051536
18.044336
20.278989
23.299121
26.253367
27.380873
26.5989
24.419426
19.434403
12.496961
7.0995348
3.8837086
2.3231155
1.5788958
1.1422637
0.84843591
0.64321012
0.49823203
0.40127225
0.32596192
0.26544015
0.21886334
0.18495807
0.15835439
0.13708056
0.11994401
0.10808607
0.099123974
0.092377713
0.087018441
0.083357784
0.080155375
3737610.3
603891
185400.99
78649.73
40020.728
22795.065
13999.228
9067.3033
6107.933
4239.3345
3012.0138
2180.3311
1602.3805
1192.3889
896.53409
679.96583
519.5104
399.40408
308.7121
239.72015
186.90578
146.26538
114.865
90.535221
71.660632
57.033044
45.74736
37.128363
30.678036
26.038382
22.964357
21.301928
20.964639
21.70906
23.613716
26.51067
29.210901
29.721068
28.698079
26.098566
20.550996
13.540596
7.831772
4.3045373
2.5790919
1.7575255
1.2705525
0.94204107
0.71439419
0.55755128
0.44449103
0.3574714
0.29178371
0.24485041
0.20632005
0.17425843
0.14797848
0.12920316
0.11559077
0.10468928
0.096073932
0.089660128
0.085225495
0.082250589
0.079410465
3737682.9
603902.72
185404.61
78651.277
40021.531
22795.542
13999.543
9067.534
6108.1187
4239.4983
3012.1705
2180.491
1602.5518
1192.5787
896.74912
680.21312
519.79756
399.73972
309.10629
240.1849
187.45566
146.91839
115.6436
91.467771
72.783027
58.390752
47.398034
39.144264
33.148246
29.068619
26.6709
25.793391
26.181335
27.565195
29.857229
32.318857
32.219372
30.912387
27.722261
21.73836
14.602785
8.5803011
4.7434722
2.8547469
1.9516831
1.4151368
1.0531373
0.80490822
0.62663682
0.49535017
0.39444317
0.32467928
0.27017638
0.22466157
0.18684069
0.15988905
0.13973712
0.12382758
0.1099291
0.10024578
0.092973413
0.08813914
0.084174603
0.081222154
0.07871845
3737758.4
603914.96
185408.37
78652.891
40022.379
22796.057
13999.897
9067.8067
6108.3517
4239.7164
3012.3901
2180.7241
1602.8083
1192.8678
897.07984
680.59511
520.24159
400.25824
309.71397
240.89937
188.29851
147.91597
116.82849
92.880316
74.473197
60.419904
49.840511
42.087443
36.688959
33.302274
31.668437
31.562693
32.352791
33.797222
35.5133
34.86384
33.201058
29.350161
22.975483
15.654534
9.3195455
5.209147
3.1690215
2.1751521
1.5783552
1.1788932
0.90176855
0.69936929
0.54776092
0.43865682
0.35922433
0.29745315
0.24584678
0.20795601
0.17764747
0.15309982
0.13205474
0.11695089
0.10622417
0.098208993
0.091554373
0.086562994
0.082719712
0.080311482
0.078159911
3737836.4
603927.57
185412.26
78654.578
40023.282
22796.623
14000.305
9068.1393
6108.6531
4240.0137
3012.7016
2181.064
1603.1889
1193.3006
897.57699
681.16973
520.90858
401.03497
310.62104
241.96154
189.54566
149.38457
118.56285
94.933861
76.909401
63.311303
53.26837
46.133562
41.41991
38.741417
37.757722
38.004179
38.996401
38.998489
37.950526
35.551757
30.985607
24.217235
16.654111
10.05555
5.7301058
3.5360118
2.4230991
1.7514131
1.312296
1.0088339
0.78292072
0.61629625
0.49382564
0.40293852
0.32837463
0.27402216
0.23076414
0.19508669
0.1641736
0.14233711
0.12598461
0.11378761
0.1029083
0.094939757
0.089033496
0.084987287
0.081919929
0.079628913
0.077598521
3737916.9
603940.61
185416.31
78656.36
40024.263
22797.264
14000.792
9068.5597
6109.0554
4240.4274
3013.1478
2181.5597
1603.749
1193.9402
898.31177
682.01729
521.88904
402.1719
311.94252
243.50135
191.34458
151.49191
121.03799
97.841849
80.309355
67.253565
57.817972
51.326139
47.229155
45.027374
44.248804
43.939006
42.872369
40.838619
37.836627
32.588751
25.405368
17.592136
10.826186
6.3342513
3.9556008
2.6877679
1.9353893
1.4630817
1.1342449
0.88357382
0.69491594
0.55467777
0.44580489
0.36363094
0.30223472
0.25522958
0.21307314
0.18189181
0.15692277
0.13753256
0.12074825
0.10855433
0.099405284
0.093165487
0.087786948
0.084147677
0.080924822
0.078939026
0.077208305
3738001.3
603954.28
185420.57
78658.258
40025.335
22797.995
14001.377
9069.0926
6109.5876
4240.9917
3013.7681
2182.2559
1604.5398
1194.8444
899.3497
683.21175
523.2664
403.76326
313.78501
245.63931
193.82953
154.38112
124.38902
101.70981
84.739509
72.270259
63.393672
57.407497
53.651213
51.32703
49.371474
46.963105
44.06223
40.134778
34.160086
26.563609
18.564249
11.705959
7.0431745
4.4224903
2.9710608
2.1407589
1.6372567
1.276249
0.99411347
0.781469
0.62146056
0.5001858
0.40834375
0.34047592
0.28259936
0.23838118
0.20195967
0.17292434
0.14750434
0.12988333
0.11589523
0.10604056
0.097480227
0.09114939
0.086229849
0.082799987
0.080170707
0.078438871
0.076789357
3738088.5
603968.45
185425.02
78660.273
40026.506
22798.83
14002.079
9069.7583
6110.2732
4241.7334
3014.593
2183.1872
1605.5999
1196.0561
900.73788
684.80427
525.09492
405.86382
316.19792
248.40843
197.00185
158.00443
128.50886
106.36223
89.946177
77.983577
69.462753
63.458195
59.042732
55.2545
51.518321
47.618882
42.611148
35.871769
27.868318
19.703718
12.72995
7.8377056
4.9242144
3.2826474
2.3784202
1.8342831
1.4316692
1.1172579
0.8826297
0.70416716
0.56634017
0.46154987
0.37838677
0.31324793
0.26253624
0.22447152
0.18897497
0.16309816
0.14168124
0.12581079
0.11224244
0.10257232
0.094666414
0.089508099
0.085080524
0.082230207
0.079622682
0.077937136
0.076377906
3738178.6
603983.13
185429.66
78662.402
40027.778
22799.769
14002.897
9070.5589
6111.1143
4242.6541
3015.6236
2184.3539
1606.9278
1197.5711
902.46736
686.77785
527.34479
408.42442
319.10492
251.69627
200.69848
162.12339
133.03722
111.24437
95.065115
83.17094
74.348579
67.539091
61.865617
56.757905
51.608689
45.383547
37.825061
29.38224
21.014007
13.867544
8.7030451
5.488923
3.6595677
2.6640642
2.0544162
1.6021607
1.2590831
1.0018128
0.79975485
0.64090176
0.51852892
0.4239537
0.35035079
0.29619363
0.2491352
0.2122614
0.18055133
0.15636758
0.13511193
0.12082717
0.10858076
0.10023615
0.093117233
0.088179128
0.083951485
0.081226674
0.078923609
0.077580888
0.076190142
3738271.2
603998.3
185434.47
78664.645
40029.148
22800.805
14003.82
9071.4766
6112.0881
4243.7258
3016.8253
2185.7139
1608.4731
1199.3289
904.4659
689.04653
529.91345
411.32168
322.3546
255.31209
204.67578
166.4272
137.58664
115.89337
99.580492
87.21785
77.611154
69.749126
62.856224
56.067253
48.528799
40.108976
31.189015
22.56891
15.197918
9.7299153
6.1950238
4.1354674
2.994274
2.2898424
1.7892868
1.4223376
1.1388426
0.90827676
0.72759956
0.58882988
0.48103211
0.39782409
0.33098496
0.27745635
0.23384102
0.20158721
0.17085338
0.14916443
0.13039858
0.11705931
0.10570228
0.097981734
0.09123923
0.086811757
0.083127951
0.080665051
0.078527028
0.077227746
0.07586229
3738367.1
604011.22
185437.11
78665.166
40029.255
22800.906
14004.041
9071.864
6112.6652
4244.5075
3017.8254
2186.9469
1609.9551
1201.0776
906.50021
691.38493
532.57172
414.30909
325.66867
258.93067
208.54699
170.45771
141.63012
119.74287
102.97095
89.84576
79.195535
70.02612
61.276278
52.297206
42.933313
33.455487
24.492884
16.811637
10.972004
7.054238
4.6921517
3.3555739
2.5485735
2.0074158
1.6135839
1.2957127
1.0343563
0.83097916
0.67295052
0.54742724
0.44887459
0.37126137
0.30942768
0.26390506
0.2239247
0.19261361
0.16440235
0.14388999
0.12559157
0.11389703
0.10316087
0.096026193
0.089826027
0.085888361
0.082296924
0.080092272
0.078016524
0.076857806
0.075705125
3739014.3
604121.91
185474.43
78682.926
40039.419
22807.511
14008.771
9075.5359
6115.7209
4247.2091
3020.3405
2189.3899
1612.4085
1203.6032
909.14476
694.18189
535.54063
417.45223
328.96555
262.33065
211.96084
173.75016
144.61671
122.1956
104.64471
90.484079
78.405422
67.353387
56.703556
46.212562
36.021572
26.594036
18.528748
12.291843
7.9828578
5.3020878
3.7604698
2.849651
2.2579912
1.8211313
1.4632271
1.1744048
0.94904212
0.76794399
0.62291557
0.50936106
0.42051009
0.35129969
0.29541285
0.25020805
0.21187724
0.18402067
0.15689631
0.1385877
0.12188342
0.11040796
0.10053079
0.094280308
0.088486729
0.084697063
0.081478834
0.079472971
0.07773458
0.07661884
0.075545086
3739013.7
604118.92
185472.05
78681.228
40038.326
22806.866
14008.472
9075.5229
6115.9608
4247.6843
3021.0432
2190.3186
1613.5647
1204.9886
910.75811
696.01506
537.57335
419.6458
331.2556
264.61975
214.11274
175.58858
145.93635
122.75624
104.12041
88.488525
74.739501
62.123599
50.266763
39.164438
29.1151
20.562665
13.869834
9.1264267
6.0739685
4.2724252
3.2088241
2.5309582
2.0392348
1.6488835
1.3383077
1.0873209
0.87909356
0.71237754
0.58225266
0.47860773
0.39652414
0.33093659
0.27770359
0.23850809
0.20355678
0.1767144
0.15126517
0.13375835
0.11783263
0.10823603
0.098788193
0.092712144
0.087327111
0.084018204
0.080989911
0.079115291
0.077284421
0.076289474
0.075405012
3739013.8
604119.06
185472.2
78681.435
40038.597
22807.207
14008.89
9076.0275
6116.5606
4248.3886
3021.8607
2191.2567
1614.6279
1206.1766
912.06251
697.41572
539.03358
421.10712
332.63284
265.79852
214.94908
175.89523
145.46269
121.21715
101.3082
84.354559
69.395618
55.871273
43.59453
32.68108
23.4144
16.061423
10.69617
7.109101
4.9249604
3.6336363
2.8413941
2.2962444
1.8763021
1.5348779
1.2478626
1.009541
0.81993173
0.66892767
0.54774794
0.45132678
0.37522487
0.31550505
0.26716683
0.22856806
0.19458336
0.17040125
0.14608827
0.13031481
0.1151873
0.10541278
0.096594074
0.091340554
0.086225962
0.083139239
0.08023962
0.078561742
0.077100283
0.076161711
0.07529938
3739014
604119.15
185472.28
78681.535
40038.728
22807.375
14009.101
9076.2868
6116.8743
4248.7619
3022.2975
2191.7585
1615.1917
1206.7928
912.71193
698.06605
539.63496
421.58727
332.89131
265.69868
214.3114
174.52565
143.19125
117.93449
96.987176
79.088124
63.424707
49.582049
37.468675
27.199032
18.939166
12.753806
8.4831939
5.791043
4.1902631
3.2381132
2.6127842
2.1413204
1.7548442
1.4307966
1.1655057
0.95112944
0.77475952
0.63200955
0.51950385
0.42958457
0.35830953
0.30112592
0.25417623
0.21955483
0.18800952
0.16477768
0.14147334
0.12636639
0.11207513
0.1037487
0.095354026
0.09015151
0.085393863
0.082543378
0.079962837
0.078348493
0.076782293
0.075911694
0.075178405
3739014.9
604119.24
185472.29
78681.527
40038.719
22807.371
14009.104
9076.3008
6116.9016
4248.804
3022.354
2191.8251
1615.2587
1206.8422
912.71401
697.97517
539.38601
421.09286
332.04184
264.36883
212.37494
171.86564
139.72416
113.6396
91.937099
73.470119
57.540167
43.81353
32.213681
22.785316
15.550736
10.392755
7.0131957
4.9549777
3.738981
2.976778
2.4342485
2.0051381
1.6503178
1.3549986