/*--------------------------------*- C++ -*----------------------------------*\
  =========                 |
  \\      /  F ield         | OpenFOAM: The Open Source CFD Toolbox
   \\    /   O peration     | Website:  https://openfoam.org
    \\  /    A nd           | Version:  13
     \\/     M anipulation  |
\*---------------------------------------------------------------------------*/
FoamFile
{
    format      ascii;
    class       volScalarField;
    location    "46.297252";
    object      nut;
}
// * * * * * * * * * * * * * * * * * * * * * * * * * * * * * * * * * * * * * //

dimensions      [0 2 -1 0 0 0 0];

internalField   nonuniform List<scalar> 
17140
(
1.8715003e-18
3.6398205e-16
9.6947856e-15
9.8284669e-14
5.9439039e-13
2.6334344e-12
9.5091893e-12
2.9756519e-11
8.3834903e-11
2.1809016e-10
5.3310544e-10
1.240001e-09
2.7702395e-09
5.9866387e-09
1.2583886e-08
2.5840808e-08
5.2020676e-08
1.0295752e-07
2.0080019e-07
3.8666084e-07
7.3629266e-07
1.3883578e-06
2.5951244e-06
4.8128637e-06
8.861915e-06
1.6207412e-05
2.944443e-05
5.3115728e-05
9.5030789e-05
0.00016821247
0.00029332022
0.00050060145
0.00082911765
0.0013206063
0.0020074282
0.0028996989
0.0039787998
0.0051998592
0.006500585
0.0078121582
0.0090694876
0.010219484
0.01120936
0.012033887
0.012745467
0.013326136
0.01380472
0.014213858
0.014580738
0.014922927
0.015247353
0.015555406
0.015856763
0.016157865
0.016428444
0.01665476
0.016911247
0.017367986
0.017848463
0.017313616
0.012763781
0.0040556107
0.0025462577
0.0041826874
0.0096367119
1.8439708e-18
3.5862765e-16
9.5521826e-15
9.6839427e-14
5.8565529e-13
2.5947669e-12
9.3697193e-12
2.9320685e-11
8.2608998e-11
2.1490706e-10
5.2534134e-10
1.2219858e-09
2.7301041e-09
5.9001773e-09
1.2402798e-08
2.5470487e-08
5.1278765e-08
1.0149745e-07
1.9797161e-07
3.8125765e-07
7.261025e-07
1.3693655e-06
2.5601191e-06
4.7490318e-06
8.7467346e-06
1.600176e-05
2.9081353e-05
5.2478875e-05
9.3916423e-05
0.00016628028
0.00029004396
0.00049526838
0.00082089837
0.0013085896
0.0019908598
0.0028783048
0.0039529745
0.0051707754
0.0064700814
0.0077826613
0.0090437635
0.01020048
0.011200036
0.01203489
0.012759789
0.013357109
0.013854819
0.014286674
0.014681968
0.015061294
0.015435312
0.015808106
0.016189813
0.016587923
0.016969554
0.017299328
0.01759792
0.017746935
0.017502702
0.015599782
0.0091353316
0.0038300633
0.0024011184
0.0034939702
0.0073024438
1.8031128e-18
3.5068126e-16
9.3405292e-15
9.4693886e-14
5.726825e-13
2.5373114e-12
9.1623542e-12
2.8672206e-11
8.0783421e-11
2.1016231e-10
5.137554e-10
1.1950695e-09
2.6700536e-09
5.7706064e-09
1.2130922e-08
2.4913323e-08
5.0159743e-08
9.9288738e-08
1.9367768e-07
3.7302051e-07
7.1048768e-07
1.3400804e-06
2.5057306e-06
4.6489353e-06
8.5641061e-06
1.5670597e-05
2.848295e-05
5.1406934e-05
9.2022066e-05
0.00016299242
0.00028449133
0.00048618069
0.0008066261
0.0012873562
0.0019611916
0.0028395044
0.0039052537
0.0051153973
0.0064094658
0.0077199695
0.0089824678
0.010143929
0.011151362
0.011994497
0.012729784
0.013340618
0.013853485
0.014303308
0.014720987
0.015129267
0.015541416
0.015964581
0.016409866
0.016882347
0.017340723
0.017722839
0.017188841
0.017458594
0.017005101
0.013840188
0.0071683154
0.0048890029
0.002723799
0.0027425802
0.0056134635
1.7487136e-18
3.4010132e-16
9.0587296e-15
9.1837179e-14
5.5540855e-13
2.4607974e-12
8.886157e-12
2.7808282e-11
7.8350669e-11
2.0383743e-10
4.9830509e-10
1.1591593e-09
2.5898953e-09
5.5975416e-09
1.1767518e-08
2.4167938e-08
4.8661133e-08
9.6327068e-08
1.8791106e-07
3.6193743e-07
6.8942909e-07
1.3004723e-06
2.4319093e-06
4.5124331e-06
8.3131869e-06
1.5212762e-05
2.7655431e-05
4.9925361e-05
8.940104e-05
0.00015843302
0.00027671519
0.0004733135
0.00078622991
0.001256768
0.0019181047
0.0027824793
0.0038344594
0.0050325977
0.0063176851
0.0076229374
0.0088840697
0.010047788
0.011060942
0.011909941
0.012652403
0.013272969
0.013796352
0.014258259
0.01469089
0.015118753
0.015557355
0.016016045
0.016505786
0.017028201
0.017529048
0.016491498
0.015230623
0.014875022
0.01583802
0.012818049
0.0071579334
0.0059536407
0.0032190775
0.0022262746
0.0049458494
1.6815269e-18
3.2703442e-16
8.71069e-15
8.8308926e-14
5.34073e-13
2.3662858e-12
8.5449569e-12
2.6740889e-11
7.5344462e-11
1.9602009e-10
4.7920462e-10
1.1147534e-09
2.4907426e-09
5.3833906e-09
1.1317652e-08
2.324476e-08
4.6803985e-08
9.2654272e-08
1.8075382e-07
3.4816765e-07
6.6323322e-07
1.2511278e-06
2.339752e-06
4.3416112e-06
7.9991426e-06
1.4639883e-05
2.6618468e-05
4.8064716e-05
8.6098738e-05
0.00015264798
0.0002667831
0.00045677183
0.00075983687
0.0012168934
0.0018614688
0.0027072574
0.0037407199
0.0049223748
0.0061943183
0.0074905654
0.0087470368
0.0099100535
0.010926227
0.011778195
0.01252415
0.013149706
0.013678019
0.014145126
0.014584199
0.015021195
0.015473173
0.015950557
0.016465373
0.017015382
0.017150239
0.014875089
0.013529912
0.013010296
0.013869656
0.012438514
0.0086164329
0.0067538724
0.0033821348
0.0019143477
0.0044593182
1.6028075e-18
3.1172455e-16
8.3029085e-15
8.4174983e-14
5.0907398e-13
2.2555403e-12
8.1451224e-12
2.5489954e-11
7.1820936e-11
1.8685632e-10
4.5681102e-10
1.0626825e-09
2.3744523e-09
5.1321698e-09
1.078978e-08
2.2161184e-08
4.4623424e-08
8.8340144e-08
1.7234279e-07
3.3197649e-07
6.3240983e-07
1.1930138e-06
2.2311315e-06
4.1402659e-06
7.6287166e-06
1.3963232e-05
2.5391298e-05
4.5857145e-05
8.2163439e-05
0.00014572454
0.00025484318
0.00043678792
0.0007277756
0.0011681413
0.0017919448
0.0026144885
0.0036245407
0.0047847357
0.0060388633
0.0073218857
0.0085699009
0.0097287139
0.010744582
0.011595989
0.012341241
0.012966629
0.013493286
0.013957466
0.014392924
0.014826423
0.015275832
0.015752521
0.016269845
0.016823293
0.015683773
0.013496224
0.012229432
0.011927194
0.013124155
0.012635595
0.010050619
0.0070398148
0.0033462977
0.001690643
0.0039397863
1.5140767e-18
2.9446766e-16
7.8432681e-15
7.9515266e-14
4.8089481e-13
2.1307021e-12
7.6943851e-12
2.4079673e-11
6.7848266e-11
1.7652349e-10
4.315579e-10
1.0039554e-09
2.2432791e-09
4.8487547e-09
1.0194158e-08
2.0938301e-08
4.2161974e-08
8.3469036e-08
1.6284297e-07
3.1368284e-07
5.9756863e-07
1.1273005e-06
2.1082801e-06
3.9123939e-06
7.2090655e-06
1.319562e-05
2.3996885e-05
4.3341909e-05
7.7667419e-05
0.00013779092
0.00024111344
0.00041371172
0.00069055711
0.0011112968
0.0017104418
0.0025050915
0.0034865296
0.0046199732
0.0058511958
0.0071162554
0.0083514182
0.0095018441
0.010513315
0.01135994
0.012099112
0.012717753
0.013234621
0.013685717
0.014104904
0.01451936
0.014947436
0.01540131
0.015896628
0.016429858
0.01425159
0.012322628
0.011346688
0.011594955
0.013512684
0.013413049
0.010781318
0.0068073751
0.0028354038
0.001483557
0.0030931156
1.4170021e-18
2.7558799e-16
7.3404034e-15
7.4417319e-14
4.5006497e-13
1.9941173e-12
7.2012164e-12
2.2536555e-11
6.3501153e-11
1.6521599e-10
4.0392064e-10
9.3967872e-10
2.0996974e-09
4.5385001e-09
9.5420656e-09
1.9599334e-08
3.946657e-08
7.8134323e-08
1.5243776e-07
2.9364331e-07
5.5939878e-07
1.0553045e-06
1.9736433e-06
3.6625328e-06
6.7485708e-06
1.2352411e-05
2.2462539e-05
4.0569407e-05
7.2701697e-05
0.00012900744
0.0002258672
0.00038799114
0.00064890629
0.0010473499
0.0016181579
0.0023802465
0.0033277588
0.0044288741
0.0056316626
0.0068734432
0.0080906482
0.00922765
0.010229661
0.011066492
0.011793003
0.012396333
0.012892986
0.013318039
0.01370478
0.014079762
0.014460253
0.014858538
0.015294187
0.015459633
0.012804274
0.011266527
0.010864198
0.011952893
0.014791203
0.013373273
0.010529911
0.0055998064
0.0022218991
0.0012259744
0.0022905993
1.3138204e-18
2.5552048e-16
6.8058969e-15
6.899855e-14
4.1729435e-13
1.848929e-12
6.6769552e-12
2.0896039e-11
5.8879286e-11
1.5319267e-10
3.7453059e-10
8.7131695e-10
1.9469689e-09
4.2084293e-09
8.8482022e-09
1.8174324e-08
3.6597358e-08
7.2454339e-08
1.4135653e-07
2.7229678e-07
5.1872954e-07
9.7856654e-07
1.8300727e-06
3.3959405e-06
6.256894e-06
1.1451316e-05
2.0821458e-05
3.7601377e-05
6.7380171e-05
0.00011958136
0.00020947111
0.00036023976
0.00060374002
0.00097752052
0.0015165437
0.0022415638
0.0031498142
0.0042127882
0.0053811761
0.0065937417
0.0077870736
0.0089045374
0.0098906871
0.010712175
0.01141743
0.01199448
0.012457506
0.012839497
0.013171845
0.013478875
0.01377477
0.014073014
0.014402332
0.013538279
0.011299736
0.01046544
0.011044549
0.013054367
0.014886538
0.011879424
0.0089930679
0.0035411876
0.0016107107
0.0010150971
0.0015872087
1.2066123e-18
2.3466994e-16
6.2505347e-15
6.3368332e-14
3.8324469e-13
1.6980718e-12
6.1322133e-12
1.9191392e-11
5.4076598e-11
1.4069853e-10
3.4398847e-10
8.0027239e-10
1.7882391e-09
3.8653694e-09
8.1269866e-09
1.6693023e-08
3.3614509e-08
6.6548632e-08
1.298329e-07
2.5009265e-07
4.7641223e-07
8.9868627e-07
1.6805534e-06
3.1181622e-06
5.7443236e-06
1.0511473e-05
1.9108977e-05
3.4502397e-05
6.181926e-05
0.00010971836
0.00019227795
0.0003310374
0.00055595965
0.00090311802
0.0014073308
0.0020910836
0.0029548339
0.0039736994
0.0051013192
0.0062781081
0.0074408017
0.0085313694
0.0094926999
0.010294014
0.0109662
0.011502977
0.011915004
0.012231616
0.01248053
0.012681573
0.012844058
0.01299016
0.013161067
0.011510149
0.010138461
0.010396973
0.012031954
0.013692525
0.012231215
0.009361573
0.0058152778
0.0019974404
0.001229194
0.00082455899
0.00102732
1.0974376e-18
2.1343693e-16
5.6849855e-15
5.763481e-14
3.4856989e-13
1.5444423e-12
5.5774476e-12
1.7455324e-11
4.9185199e-11
1.2797306e-10
3.1287934e-10
7.2790497e-10
1.626544e-09
3.5158781e-09
7.3921986e-09
1.518373e-08
3.057504e-08
6.0530274e-08
1.1808829e-07
2.2746019e-07
4.332733e-07
8.1724403e-07
1.5280878e-06
2.8348647e-06
5.221477e-06
9.5525953e-06
1.7361367e-05
3.1338665e-05
5.613859e-05
9.963161e-05
0.00017465927
0.00030100978
0.00050656726
0.00082563407
0.0012925432
0.0019312783
0.0027455312
0.0037142831
0.0047944392
0.0059283049
0.00705286
0.008108772
0.0090368543
0.0098032188
0.010431956
0.010911733
0.011251161
0.011474359
0.011603233
0.011651057
0.011626748
0.011578434
0.011529565
0.0099129888
0.009766538
0.010858662
0.010793943
0.010355292
0.008414622
0.0063950071
0.0023255835
0.0011631348
0.00086825437
0.00065883327
0.00067164492
9.8843873e-19
1.9223809e-16
5.1203449e-15
5.191048e-14
3.1395034e-13
1.391055e-12
5.0235446e-12
1.5721907e-11
4.4301111e-11
1.1526613e-10
2.8181422e-10
6.5563661e-10
1.4650624e-09
3.1668303e-09
6.6583045e-09
1.3676192e-08
2.7538944e-08
5.451828e-08
1.063555e-07
2.0484946e-07
3.9017396e-07
7.3587359e-07
1.3757523e-06
2.5518026e-06
4.6990553e-06
8.5944725e-06
1.5615025e-05
2.8176699e-05
5.0458767e-05
8.9537223e-05
0.00015699519
0.00027080569
0.00045661987
0.0007466797
0.0011744346
0.0017650062
0.0025251815
0.0034379338
0.0044637054
0.0055469242
0.0066248894
0.0076368614
0.0085203389
0.0092374282
0.0098079004
0.010210183
0.010450885
0.010547021
0.010512699
0.010358096
0.010119652
0.009863973
0.0095342019
0.0090057744
0.0084366931
0.007906076
0.0073709969
0.0061349442
0.0049224666
0.0022548915
0.0010147278
0.000786275
0.00062673678
0.00052443461
0.00054003497
8.8167591e-19
1.7147416e-16
4.5672888e-15
4.6303579e-14
2.8004071e-13
1.2408112e-12
4.4809821e-12
1.4023939e-11
3.9516766e-11
1.028183e-10
2.5138148e-10
5.8483679e-10
1.3068562e-09
2.824849e-09
5.9392408e-09
1.2199067e-08
2.4564004e-08
4.8627239e-08
9.4858579e-08
1.826932e-07
3.4794139e-07
6.5614201e-07
1.2264928e-06
2.2744781e-06
4.1872754e-06
7.6559763e-06
1.3904631e-05
2.5079885e-05
4.4894863e-05
7.964212e-05
0.00013965231
0.00024105903
0.00040717146
0.00066790732
0.0010553997
0.0015954299
0.0022975692
0.0031487592
0.0041131572
0.0051374955
0.0061594049
0.0071164721
0.0079418096
0.0085941823
0.0090874906
0.0093882983
0.0095005707
0.009432933
0.0091924685
0.0088176901
0.0083949108
0.0079270816
0.0073105422
0.0065465299
0.0056725381
0.0047596103
0.0038864024
0.0028432086
0.0014750693
0.00079116678
0.00063559821
0.00052674931
0.00046893964
0.00046633011
0.00052124224
7.7902872e-19
1.5151062e-16
4.0355506e-15
4.091278e-14
2.4743777e-13
1.0963552e-12
3.9593124e-12
1.2391323e-11
3.4916454e-11
9.0848974e-11
2.2211775e-10
5.1675457e-10
1.1547181e-09
2.4959758e-09
5.2477216e-09
1.0778496e-08
2.1702931e-08
4.2961669e-08
8.3801825e-08
1.6138587e-07
3.0732925e-07
5.7947621e-07
1.0829899e-06
2.0078923e-06
3.695413e-06
6.7542193e-06
1.2261598e-05
2.2105602e-05
3.9551093e-05
7.0134209e-05
0.00012296581
0.00021235705
0.00035921976
0.00059092978
0.00093786689
0.0014258972
0.0020668862
0.0028515247
0.0037477157
0.0047045869
0.0056600224
0.0065493223
0.0073004207
0.0078733954
0.0082648844
0.0084384847
0.0083922956
0.0081284279
0.0076669796
0.0071317
0.0065579573
0.0058778172
0.0050556846
0.004139365
0.0030696126
0.0023909743
0.0013519728
0.0008069981
0.00054456236
0.00050275153
0.00043440779
0.00039986959
0.00041422022
0.00046075807
0.00056312233
6.8211814e-19
1.3266278e-16
3.5335293e-15
3.5823239e-14
2.1665663e-13
9.5996985e-13
3.4667814e-12
1.0849874e-11
3.0572946e-11
7.9547573e-11
1.9448644e-10
4.5246878e-10
1.0110607e-09
2.1854294e-09
4.5947294e-09
9.4370622e-09
1.9001253e-08
3.7611837e-08
7.3361641e-08
1.4126796e-07
2.6898769e-07
5.0710615e-07
9.4755173e-07
1.7563465e-06
3.2314337e-06
5.9038725e-06
1.0712814e-05
1.9302891e-05
3.4516499e-05
6.1174379e-05
0.00010722454
0.00018521279
0.00031365675
0.00051723766
0.00082417562
0.0012597871
0.001837572
0.0025515234
0.00337312
0.0042538564
0.0051318605
0.0059385989
0.0065983146
0.0070731568
0.0073380826
0.0073590558
0.0071309238
0.0066598365
0.0060506248
0.0054222319
0.0047113691
0.0038934069
0.0030012912
0.0020812834
0.0014034985
0.00071285231
0.00041123588
0.00033809152
0.00035485907
0.00034835417
0.00034231538
0.00037022362
0.00042397393
0.00050564712
0.00060861668
5.9224993e-19
1.1518464e-16
3.067992e-15
3.1103579e-14
1.8811242e-13
8.3349491e-13
3.0100352e-12
9.4204003e-12
2.6544902e-11
6.9066818e-11
1.6886116e-10
3.9284925e-10
8.7782911e-10
1.8974183e-09
3.9891211e-09
8.1929768e-09
1.6495684e-08
3.2650513e-08
6.3680184e-08
1.226137e-07
2.3343994e-07
4.4002068e-07
8.2203141e-07
1.5232876e-06
2.8017076e-06
5.1166392e-06
9.2796675e-06
1.6710674e-05
2.9861662e-05
5.2890338e-05
9.2659319e-05
0.00016004244
0.00027122524
0.00044811992
0.00071644557
0.0011003228
0.0016140877
0.0022543457
0.0029957161
0.0037918147
0.0045808164
0.0052891333
0.0058393731
0.0061947466
0.0063100651
0.0061596118
0.0057447833
0.0051181246
0.0044717471
0.0037737293
0.0029989697
0.002170472
0.0014354718
0.00077751304
0.00040766485
0.00023203561
0.00020634794
0.00022884787
0.00025484357
0.00028320656
0.00032522477
0.00038350582
0.00045521255
0.00053521653
0.00062867679
5.1038137e-19
9.9262349e-17
2.6438959e-15
2.6804044e-14
1.62109e-13
7.1827718e-13
2.5939396e-12
8.1181381e-12
2.2875284e-11
5.9518562e-11
1.4551558e-10
3.3853319e-10
7.5644853e-10
1.6350257e-09
3.4373855e-09
7.0595798e-09
1.421311e-08
2.8130971e-08
5.4861468e-08
1.0562356e-07
2.010681e-07
3.7894074e-07
7.0777717e-07
1.3112169e-06
2.4108414e-06
4.4009485e-06
7.9774964e-06
1.4356736e-05
2.5636806e-05
4.5372977e-05
7.9435597e-05
0.00013714981
0.00023248555
0.0003845954
0.00061644887
0.0009503639
0.0014006267
0.0019655295
0.0026220747
0.0033254218
0.0040132007
0.0046065759
0.0050314469
0.005243723
0.0051935713
0.0048699174
0.0043002319
0.0036468974
0.0030026055
0.002295654
0.0015560129
0.00098678646
0.0004716714
0.00023354958
0.00013864604
0.00013503573
0.00015088191
0.00018248125
0.00022718063
0.0002820439
0.00034349011
0.00041099011
0.00040418821
0.00050521278
0.00058978527
4.3709923e-19
8.5009965e-17
2.2642772e-15
2.2955421e-14
1.3883261e-13
6.1514216e-13
2.2214772e-12
6.9524277e-12
1.9590429e-11
5.0971393e-11
1.2461755e-10
2.899115e-10
6.4779333e-10
1.4001436e-09
2.9435038e-09
6.0450551e-09
1.217002e-08
2.4085857e-08
4.696916e-08
9.0420065e-08
1.7210512e-07
3.2430451e-07
6.0560501e-07
1.12164e-06
2.0615888e-06
3.7617975e-06
6.8153068e-06
1.2257234e-05
2.1870905e-05
3.8674652e-05
6.7649777e-05
0.00011671767
0.00019779369
0.00032735996
0.00052549588
0.00081219415
0.0012007778
0.0016901055
0.0022584849
0.0028617681
0.0034358507
0.003898707
0.0041835647
0.0042348024
0.0040196668
0.003553989
0.0029384521
0.0023460737
0.0017334313
0.0011076277
0.00064272038
0.00029747233
0.00014450726
8.5147923e-05
9.0596653e-05
0.00010753322
0.00013900714
0.00018678359
0.00024566827
0.00030751174
0.00034323772
0.0003314054
0.00036583862
0.00046176423
0.00054311665
3.72621e-19
7.2469771e-17
1.9302625e-15
1.9569139e-14
1.1835241e-13
5.2439635e-13
1.893756e-12
5.9267417e-12
1.6700137e-11
4.3450854e-11
1.0622965e-10
2.4712999e-10
5.5218989e-10
1.1934785e-09
2.508963e-09
5.1524582e-09
1.0372563e-08
2.0527323e-08
4.0026883e-08
7.7048447e-08
1.4663637e-07
2.7627091e-07
5.1580666e-07
9.5508474e-07
1.7548912e-06
3.2008393e-06
5.7959602e-06
1.0417075e-05
1.8572408e-05
3.28104e-05
5.7330761e-05
9.8807963e-05
0.0001672944
0.00027675631
0.00044434718
0.00068732119
0.0010171558
0.0014320247
0.0019101875
0.0024071046
0.0028555532
0.0031768539
0.0033077623
0.0031991148
0.0028508664
0.0023287567
0.0018030366
0.0012830337
0.00078177137
0.00040156271
0.00018911829
9.2753819e-05
5.5788244e-05
6.2407287e-05
8.0828621e-05
0.00011345367
0.00016032509
0.00021821344
0.00027821255
0.00031316047
0.00027800074
0.00029068262
0.00031779018
0.00042488403
0.00053086728
3.1679961e-19
6.1613254e-17
1.6410941e-15
1.6637512e-14
1.0062193e-13
4.4583425e-13
1.6100348e-12
5.0387623e-12
1.4197887e-11
3.6940002e-11
9.0310496e-11
2.1009253e-10
4.6942355e-10
1.0145666e-09
2.1327876e-09
4.3797819e-09
8.8166838e-09
1.7447297e-08
3.4018754e-08
6.5477732e-08
1.2460184e-07
2.3472405e-07
4.3815872e-07
8.1112026e-07
1.4899157e-06
2.7164592e-06
4.9163213e-06
8.830199e-06
1.5729763e-05
2.7758821e-05
4.8441107e-05
8.3362197e-05
0.00014091652
0.00023274944
0.00037313642
0.00057628826
0.00085101646
0.0011934867
0.0015803622
0.0019652647
0.002279688
0.0024538821
0.0024309839
0.0021950004
0.0017913065
0.0013507984
0.0009369122
0.00054185411
0.00024617507
0.00011889454
6.0266571e-05
3.7959466e-05
4.5015564e-05
6.3675983e-05
9.6275518e-05
0.00014199404
0.00019579734
0.00025375021
0.00031105242
0.00025523027
0.00023821577
0.00025956541
0.00029472822
0.0003818432
0.00049302009
2.6911952e-19
5.2340136e-17
1.394101e-15
1.4133465e-14
8.5477472e-14
3.7873051e-13
1.3676943e-12
4.280295e-12
1.2060594e-11
3.1378786e-11
7.6713304e-11
1.7845768e-10
3.9873139e-10
8.6175857e-10
1.8115083e-09
3.7198948e-09
7.4880031e-09
1.4817254e-08
2.8888954e-08
5.5599935e-08
1.0579459e-07
1.9927046e-07
3.7191783e-07
6.8834975e-07
1.2640505e-06
2.3038002e-06
4.1674109e-06
7.4800665e-06
1.331262e-05
2.346462e-05
4.0881528e-05
7.0208146e-05
0.00011837948
0.00019492386
0.0003113251
0.00047852912
0.00070193101
0.00097440479
0.0012696082
0.0015385394
0.001717924
0.0017492133
0.0016063672
0.0013157195
0.0009772205
0.00065922141
0.00036231634
0.00015779881
7.5165034e-05
3.9546649e-05
2.6551107e-05
3.3661314e-05
5.1882277e-05
8.3653929e-05
0.0001273892
0.00017867938
0.00023360898
0.00030307937
0.00025156745
0.00022255452
0.00021463862
0.00023312404
0.00027690604
0.00037907815
0.00049245739
2.2871031e-19
4.4481083e-17
1.1847716e-15
1.2011256e-14
7.264235e-14
3.2185918e-13
1.1623073e-12
3.6374829e-12
1.0249208e-11
2.6665589e-11
6.5189588e-11
1.5164718e-10
3.3882079e-10
7.3225877e-10
1.5392432e-09
3.160703e-09
6.362134e-09
1.2588822e-08
2.4542868e-08
4.723215e-08
8.986448e-08
1.6924523e-07
3.1582897e-07
5.8441457e-07
1.0728739e-06
1.9545782e-06
3.5337123e-06
6.337739e-06
1.1267546e-05
1.9830874e-05
3.4480775e-05
5.9049075e-05
9.9174681e-05
0.00016245138
0.00025766195
0.00039227328
0.00056759706
0.00077218027
0.00097588254
0.0011308029
0.0011845245
0.0011079571
0.00091240298
0.00067042793
0.00044293088
0.00022573554
9.8386835e-05
4.8711934e-05
2.659794e-05
1.9185777e-05
2.6003194e-05
4.2937922e-05
7.3201339e-05
0.00011521959
0.00016328851
0.00021725762
0.00028187903
0.00025192834
0.00021937341
0.00019968337
0.00019887612
0.00022237845
0.00026022372
0.00035409922
0.00049116992
1.9435597e-19
3.7799612e-17
1.0068072e-15
1.020703e-14
6.1730391e-14
2.7350918e-13
9.8769449e-13
3.0909864e-12
8.7092335e-12
2.2658612e-11
5.5392632e-11
1.2885429e-10
2.8788862e-10
6.2216839e-10
1.3077909e-09
2.6853498e-09
5.4051017e-09
1.0694655e-08
2.084889e-08
4.0120307e-08
7.6326117e-08
1.4372917e-07
2.6816474e-07
4.9608918e-07
9.1039521e-07
1.6577159e-06
2.9948044e-06
5.3655693e-06
9.5249363e-06
1.6728373e-05
2.8999253e-05
4.9453257e-05
8.2569513e-05
0.00013411882
0.00021021035
0.00031463382
0.00044415334
0.00058270896
0.00069872019
0.00075183
0.00071581959
0.00059289901
0.0004314658
0.00027883548
0.00013237116
5.8910124e-05
3.1038959e-05
1.8313003e-05
1.4417316e-05
2.069831e-05
3.5945207e-05
6.3611891e-05
0.00010314742
0.00014958438
0.00020190844
0.00023519119
0.00023348207
0.00021820219
0.00019790408
0.00018957062
0.00019043321
0.00021298071
0.00025582082
0.00034760553
0.00048486196
1.6454003e-19
3.2000812e-17
8.523538e-16
8.6411641e-15
5.2260038e-14
2.3154684e-13
8.3615037e-13
2.6166901e-12
7.372713e-12
1.9181025e-11
4.6890043e-11
1.0907284e-10
2.4368584e-10
5.2662388e-10
1.1069197e-09
2.2728021e-09
4.574507e-09
9.0506965e-09
1.7642723e-08
3.3947164e-08
6.4573282e-08
1.2157418e-07
2.267672e-07
4.1934395e-07
7.6913129e-07
1.3993841e-06
2.5252448e-06
4.5169711e-06
7.9999605e-06
1.400369e-05
2.4161528e-05
4.0926874e-05
6.7681985e-05
0.00010845105
0.00016663385
0.00024226283
0.00032776723
0.00040450624
0.00044561366
0.00043066761
0.00035893894
0.00025899234
0.00016042329
7.4472509e-05
3.4916469e-05
1.9416894e-05
1.273838e-05
1.1075445e-05
1.6922806e-05
3.0490987e-05
5.5898307e-05
9.2843432e-05
0.00013704729
0.00017488678
0.00018721194
0.0002027354
0.00020562441
0.00019815321
0.0001872653
0.00018236066
0.00018723878
0.00021038805
0.00025365547
0.00035333224
0.00050890587
1.3759457e-19
2.6760291e-17
7.1277051e-16
7.2260531e-15
4.3701466e-14
1.9362463e-13
6.9919724e-13
2.1880611e-12
6.1648805e-12
1.603828e-11
3.9206099e-11
9.1195817e-11
2.0373793e-10
4.4027381e-10
9.2537053e-10
1.8999126e-09
3.8236826e-09
7.5644108e-09
1.4743476e-08
2.8363387e-08
5.3938375e-08
1.0151587e-07
1.8926032e-07
3.4974388e-07
6.4085344e-07
1.1643989e-06
2.0971651e-06
3.7410938e-06
6.6005e-06
1.1491613e-05
1.9675741e-05
3.2967074e-05
5.367941e-05
8.4076458e-05
0.00012494696
0.00017304052
0.0002183472
0.00024500599
0.00023961521
0.00020069637
0.00014380727
8.475783e-05
4.0104854e-05
1.9975804e-05
1.2274381e-05
8.8511476e-06
8.7279816e-06
1.3855424e-05
2.624804e-05
4.9327105e-05
8.3694677e-05
0.00012454739
0.00014575187
0.00015632082
0.00017195263
0.00018502226
0.0001886258
0.00018652885
0.00018136197
0.00018133072
0.00018780407
0.00021358243
0.00025725011
0.00035093411
0.000515584
1.1200851e-19
2.1784148e-17
5.8022877e-16
5.8823293e-15
3.5574665e-14
1.5761574e-13
5.6915477e-13
1.7810631e-12
5.0180061e-12
1.305414e-11
3.1909868e-11
7.4220444e-11
1.658033e-10
3.5827031e-10
7.5294331e-10
1.5457095e-09
3.1103446e-09
6.1519535e-09
1.1987251e-08
2.3052526e-08
4.3816927e-08
8.2410478e-08
1.5349804e-07
2.8329354e-07
5.1817855e-07
9.3922127e-07
1.6859496e-06
2.9936511e-06
5.2479999e-06
9.0556747e-06
1.5312551e-05
2.5203898e-05
3.9985959e-05
6.0310924e-05
8.4874087e-05
0.00010878588
0.00012367131
0.00012194836
0.00010242036
7.1131261e-05
4.1083304e-05
2.0372859e-05
1.1250217e-05
7.6185825e-06
6.3868199e-06
6.7638486e-06
1.1575895e-05
2.2512666e-05
4.40562e-05
7.5948028e-05
0.00011363809
0.00012795403
0.00013572817
0.0001488597
0.00016237141
0.0001731583
0.00017839984
0.00018054536
0.00017936352
0.00018256671
0.00019031635
0.00021529716
0.0002619896
0.00036389531
0.00053968182
8.6948593e-20
1.6910328e-17
4.5041234e-16
4.5662368e-15
2.7615016e-14
1.2234782e-13
4.4178976e-13
1.3824499e-12
3.8947704e-12
1.0131519e-11
2.4764006e-11
5.7594565e-11
1.2864813e-10
2.7794616e-10
5.8402939e-10
1.198671e-09
2.4112897e-09
4.7673915e-09
9.2844765e-09
1.7842235e-08
3.3881367e-08
6.3642596e-08
1.1833757e-07
2.1789676e-07
3.9731559e-07
7.1711468e-07
1.2799159e-06
2.2550974e-06
3.9115176e-06
6.6509862e-06
1.101561e-05
1.7604441e-05
2.6779404e-05
3.8044129e-05
4.9244587e-05
5.6457435e-05
5.5945947e-05
4.7023533e-05
3.1937558e-05
1.8619541e-05
1.0154282e-05
6.1663664e-06
4.8815654e-06
4.5188887e-06
5.4641312e-06
9.5345581e-06
1.9671548e-05
4.0207519e-05
6.8988372e-05
0.00010364776
0.00011617669
0.00012165228
0.00013171909
0.00014415875
0.00015536845
0.00016547511
0.00017210432
0.0001766911
0.00017894091
0.00018454375
0.00019530284
0.00022305039
0.00026998397
0.00037460463
0.00056619347
6.2754227e-20
1.2204846e-17
3.2507955e-16
3.295603e-15
1.9930365e-14
8.8298876e-14
3.1882946e-13
9.9763135e-13
2.8104336e-12
7.3101797e-12
1.7865922e-11
4.1545402e-11
9.2781955e-11
2.0040809e-10
4.2097076e-10
8.636497e-10
1.7364058e-09
3.4306143e-09
6.6747932e-09
1.2811079e-08
2.4287109e-08
4.5520222e-08
8.4392698e-08
1.5478785e-07
2.8077597e-07
5.0325447e-07
8.8983912e-07
1.5480558e-06
2.6390808e-06
4.3817731e-06
7.0213071e-06
1.0714545e-05
1.5280378e-05
1.9869603e-05
2.2883952e-05
2.2718483e-05
1.9152786e-05
1.3060559e-05
7.9627069e-06
4.8659134e-06
3.487529e-06
3.103702e-06
3.3428828e-06
4.311992e-06
8.110435e-06
1.8267146e-05
3.6336953e-05
6.3056775e-05
9.4945671e-05
0.00010794801
0.00011152053
0.00011943011
0.00012950618
0.00013960331
0.00014957121
0.00015951658
0.00016733822
0.000174299
0.00017940749
0.00018864371
0.00020042186
0.00022999115
0.00027950681
0.00038656422
0.00058801858
4.0954235e-20
7.9650377e-18
2.1215028e-16
2.150722e-15
1.3006343e-14
5.762081e-14
2.0804597e-13
6.5093618e-13
1.8335707e-12
4.7686331e-12
1.165237e-11
2.7090114e-11
6.0481026e-11
1.3058634e-10
2.741622e-10
5.6207695e-10
1.1290646e-09
2.2280565e-09
4.3282968e-09
8.2904159e-09
1.5674577e-08
2.9273937e-08
5.401878e-08
9.8465533e-08
1.7714955e-07
3.140701e-07
5.4729683e-07
9.3368136e-07
1.5500659e-06
2.4821086e-06
3.7843053e-06
5.3942271e-06
7.0172251e-06
8.0931002e-06
8.0225633e-06
6.8132926e-06
4.8687039e-06
3.314644e-06
2.3852658e-06
1.9704892e-06
2.0892626e-06
2.4385894e-06
3.5446533e-06
7.5001015e-06
1.6825477e-05
3.3153041e-05
5.7772193e-05
8.6647664e-05
0.00010171136
0.00010404936
0.00010995433
0.0001180392
0.00012577926
0.00013512293
0.00014494999
0.00015527508
0.00016390959
0.0001729344
0.00018056204
0.00019215013
0.0002069894
0.00023800772
0.0002890385
0.00040535192
0.00062032304
2.3524387e-20
4.5751655e-18
1.2185971e-16
1.2353613e-15
7.4705282e-15
3.3094295e-14
1.1948125e-13
3.7379358e-13
1.0527534e-12
2.7373869e-12
6.6871496e-12
1.5541205e-11
3.4680988e-11
7.4835038e-11
1.5698811e-10
3.2151284e-10
6.4494489e-10
1.2704138e-09
2.4621104e-09
4.7013097e-09
8.8526108e-09
1.6445196e-08
3.0134214e-08
5.4424946e-08
9.673401e-08
1.6876641e-07
2.8787118e-07
4.7725551e-07
7.623988e-07
1.1590111e-06
1.6479057e-06
2.1417183e-06
2.4735894e-06
2.4708123e-06
2.1872325e-06
1.7716491e-06
1.4067674e-06
1.1928074e-06
1.2224207e-06
1.4114765e-06
1.9131186e-06
3.2091964e-06
7.0912168e-06
1.5251099e-05
3.0274537e-05
5.2906011e-05
7.887313e-05
9.7230302e-05
9.8474491e-05
0.00010265303
0.00010871869
0.00011473285
0.00012238074
0.00013169719
0.00014128528
0.00015141389
0.00016120538
0.0001717282
0.00018195755
0.00019627802
0.00021310303
0.00024783524
0.00030026031
0.00041888219
0.00064034684
1.164682e-20
2.2651409e-18
6.0331624e-17
6.1160236e-16
3.6983479e-15
1.6382456e-14
5.913981e-14
1.8498949e-13
5.2089744e-13
1.3540673e-12
3.3066051e-12
7.6808575e-12
1.7128945e-11
3.6929016e-11
7.7381178e-11
1.5824113e-10
3.1680828e-10
6.2246093e-10
1.2023443e-09
2.2858803e-09
4.2799999e-09
7.8921797e-09
1.4322461e-08
2.5542233e-08
4.4650765e-08
7.6216351e-08
1.2631089e-07
2.0158317e-07
3.0627148e-07
4.3620676e-07
5.7115612e-07
6.7246829e-07
7.1216986e-07
7.0498869e-07
6.7093254e-07
6.4742212e-07
6.6667641e-07
7.8088653e-07
1.0821244e-06
1.6938481e-06
3.0960291e-06
6.5757714e-06
1.3754498e-05
2.7650841e-05
4.8405178e-05
7.1768498e-05
9.4037406e-05
9.4235577e-05
9.644786e-05
0.00010104133
0.00010543877
0.00011176895
0.00011935169
0.00012834924
0.00013773448
0.00014858561
0.00015904197
0.00017141943
0.00018329881
0.0002004937
0.00021969086
0.00025575781
0.0003107733
0.00043915906
0.00066763808
4.9836529e-21
9.6924757e-19
2.5815448e-17
2.6169267e-16
1.5823666e-15
7.0087559e-15
2.5297986e-14
7.9117637e-14
2.2272451e-13
5.7876971e-13
1.412688e-12
3.279484e-12
7.3075574e-12
1.5737796e-11
3.2930793e-11
6.7218868e-11
1.3425597e-10
2.6296947e-10
5.0591763e-10
9.5686109e-10
1.7796006e-09
3.2531777e-09
5.8380195e-09
1.0262146e-08
1.7609432e-08
2.935252e-08
4.7203384e-08
7.2581871e-08
1.0555366e-07
1.4356831e-07
1.8265975e-07
2.2209151e-07
2.6028201e-07
2.9740376e-07
3.4473248e-07
4.3238404e-07
6.1265451e-07
9.697289e-07
1.6131718e-06
2.9473379e-06
5.9537892e-06
1.2260778e-05
2.5142211e-05
4.4273643e-05
6.5465755e-05
8.9570523e-05
9.0498359e-05
9.1110344e-05
9.4405816e-05
9.7755613e-05
0.00010263142
0.00010888936
0.00011642746
0.00012544388
0.00013502124
0.0001459083
0.00015730246
0.00017079362
0.00018511068
0.00020426017
0.00022584558
0.00026567191
0.0003224641
0.00045413675
0.00068371623
2.0552774e-21
3.9972068e-19
1.0646285e-17
1.0792e-16
6.5253426e-16
2.8901135e-15
1.0431022e-14
3.2618735e-14
9.1811336e-14
2.385311e-13
5.820581e-13
1.3507296e-12
3.0083636e-12
6.4749718e-12
1.3538136e-11
2.7607126e-11
5.5071766e-11
1.0770554e-10
2.0682421e-10
3.9029546e-10
7.2396277e-10
1.3194404e-09
2.3600724e-09
4.1350681e-09
7.0767884e-09
1.1784946e-08
1.9002917e-08
2.9543746e-08
4.4293124e-08
6.4535192e-08
9.182075e-08
1.277677e-07
1.7784502e-07
2.5032204e-07
3.6207203e-07
5.707915e-07
9.2061986e-07
1.5226404e-06
2.7279007e-06
5.3676188e-06
1.1104231e-05
2.3114252e-05
4.0390689e-05
5.9758209e-05
8.2019493e-05
8.6677104e-05
8.6131567e-05
8.857701e-05
9.0921472e-05
9.4780471e-05
9.9605483e-05
0.00010607552
0.00011370259
0.00012261364
0.00013212709
0.00014368635
0.00015592547
0.00017093635
0.00018641224
0.00020812415
0.00023210906
0.0002735073
0.00033243031
0.00047332818
0.0007032279
1.2002215e-21
2.3342553e-19
6.2171894e-18
6.3024695e-17
3.8110008e-16
1.6880916e-15
6.0936351e-15
1.9059621e-14
5.3663421e-14
1.3947952e-13
3.4054832e-13
7.9088234e-13
1.763261e-12
3.8002821e-12
7.9602557e-12
1.6272122e-11
3.2565653e-11