/*--------------------------------*- C++ -*----------------------------------*\
  =========                 |
  \\      /  F ield         | OpenFOAM: The Open Source CFD Toolbox
   \\    /   O peration     | Website:  https://openfoam.org
    \\  /    A nd           | Version:  13
     \\/     M anipulation  |
\*---------------------------------------------------------------------------*/
FoamFile
{
    format      ascii;
    class       volScalarField;
    location    "47.302864";
    object      pMean;
}
// * * * * * * * * * * * * * * * * * * * * * * * * * * * * * * * * * * * * * //

dimensions      [0 2 -2 0 0 0 0];

internalField   nonuniform List<scalar> 
17140
(
0.80704136
0.8069743
0.80689336
0.80681055
0.80672083
0.80662288
0.80651652
0.80640144
0.80627734
0.80614394
0.80600104
0.80584844
0.80568592
0.80551316
0.80532952
0.80513394
0.80492448
0.80469802
0.80444954
0.80417159
0.80385326
0.80347913
0.80302808
0.80247158
0.80177146
0.80088058
0.79975158
0.7983423
0.79661169
0.79451181
0.79197686
0.78892673
0.78527333
0.78091989
0.77576553
0.76971103
0.76266491
0.75454954
0.74530827
0.73491671
0.72339937
0.71085108
0.69746724
0.68357183
0.66962987
0.65628038
0.64428118
0.63430366
0.62702887
0.62304462
0.62278089
0.62651292
0.6344708
0.64659667
0.66281951
0.68250968
0.70564691
0.73091346
0.76014579
0.79029952
0.82564125
0.8564259
0.89282064
0.91209718
0.94089712
0.80607377
0.806008
0.8059286
0.80584751
0.80575963
0.8056636
0.80555928
0.80544644
0.80532472
0.80519387
0.80505371
0.80490405
0.80474467
0.80457528
0.80439528
0.80420362
0.80399846
0.8037767
0.80353347
0.80326138
0.80294962
0.80258293
0.80214031
0.80159345
0.80090439
0.80002599
0.79891054
0.79751586
0.79580065
0.79371632
0.79119665
0.78816133
0.78452225
0.78018233
0.77504034
0.76899653
0.76195883
0.75384888
0.74460941
0.73421527
0.72269025
0.71012869
0.69672572
0.68280552
0.66883862
0.65546314
0.64342627
0.6334347
0.62616077
0.62217337
0.62191183
0.62565423
0.6336182
0.64574994
0.66198012
0.68163994
0.70470757
0.72978603
0.75868142
0.78860134
0.82384647
0.85488412
0.89170758
0.91133177
0.94079103
0.8037629
0.80370037
0.80362498
0.80354782
0.80346412
0.80337257
0.80327314
0.80316554
0.80304943
0.80292457
0.80279078
0.80264793
0.80249584
0.80233426
0.80216267
0.80198015
0.80178492
0.80157408
0.80134296
0.80108438
0.80078783
0.80043831
0.80001519
0.79949056
0.79882706
0.79797744
0.79689315
0.79553116
0.79384964
0.79179972
0.78931482
0.78631403
0.78270882
0.77840137
0.7732894
0.76727175
0.76025473
0.75215816
0.74292287
0.73252183
0.72097703
0.70838197
0.6949324
0.68095469
0.66692891
0.6535023
0.64140654
0.63136388
0.62406029
0.62005731
0.61977907
0.62349134
0.63141274
0.64349331
0.65966096
0.67921853
0.70212046
0.7269248
0.75559452
0.78546085
0.82105145
0.85264057
0.89010427
0.91032932
0.94056014
0.80015102
0.80009361
0.80002458
0.79995347
0.79987629
0.79979192
0.7997002
0.79960081
0.79949345
0.79937798
0.79925425
0.79912209
0.79898143
0.79883206
0.79867362
0.79850525
0.79832543
0.79813152
0.79791907
0.79768132
0.79740813
0.79708499
0.79669177
0.79620119
0.79557677
0.79477144
0.79373535
0.79242355
0.79079356
0.78879643
0.78636556
0.78341899
0.77986743
0.77561193
0.7705485
0.76457387
0.75759177
0.74951918
0.7402939
0.72988587
0.71831443
0.70567222
0.69215615
0.67809723
0.66398916
0.65048858
0.63831437
0.62821028
0.62086556
0.6168354
0.61652731
0.62018843
0.62803192
0.64000738
0.6560442
0.67541668
0.69805895
0.72254483
0.75110711
0.78126044
0.8174995
0.84998757
0.88830589
0.90918629
0.94017052
0.79535164
0.79530109
0.79524057
0.79517769
0.79510932
0.7950345
0.79495304
0.79486467
0.79476915
0.79466637
0.79455612
0.79443832
0.79431297
0.79417997
0.79403902
0.79388948
0.79373009
0.79355841
0.79337049
0.79315996
0.79291725
0.79262842
0.79227404
0.79182768
0.79125401
0.79050693
0.78953474
0.78828915
0.78672688
0.78479961
0.78244063
0.77956708
0.77608831
0.77190406
0.76690816
0.76099457
0.75406375
0.74602897
0.73682405
0.72641497
0.71481788
0.70212467
0.68853441
0.6743859
0.66019025
0.64660634
0.63435139
0.6241908
0.61681311
0.61276541
0.61242795
0.61602954
0.62377567
0.6356138
0.65147359
0.67061188
0.69298495
0.71730488
0.74591623
0.77672226
0.81389393
0.84742437
0.88658543
0.90806894
0.93964582
0.78955136
0.78950921
0.78945907
0.7894063
0.78934878
0.78928573
0.78921695
0.78914221
0.78906128
0.78897402
0.78888034
0.78878021
0.78867369
0.78856074
0.78844114
0.78831446
0.78817969
0.78803477
0.78787609
0.78769784
0.78749108
0.78724265
0.78693394
0.7865395
0.78602535
0.78534716
0.78445155
0.78328619
0.78180592
0.77996267
0.77769068
0.77490691
0.77151848
0.76742371
0.76251407
0.7566804
0.74981928
0.7418396
0.73267039
0.72227303
0.71066033
0.6979236
0.68426498
0.67003369
0.65575982
0.64209765
0.62977971
0.61958208
0.61219056
0.60814178
0.60779069
0.61134221
0.61899304
0.63068504
0.64634198
0.66522669
0.68733371
0.71165191
0.74065308
0.772387
0.81067298
0.84530324
0.8851541
0.90699982
0.93897044
0.7830033
0.78297072
0.78293208
0.78289097
0.78284601
0.78279657
0.78274248
0.7826835
0.78261948
0.78255027
0.78247583
0.78239617
0.78231133
0.78222139
0.78212628
0.78202568
0.78191878
0.78180383
0.78167771
0.78153515
0.78136788
0.78116355
0.78090454
0.78056655
0.78011708
0.77951381
0.77870356
0.77762988
0.77624264
0.7744935
0.77231993
0.76963939
0.76635613
0.76236705
0.75756129
0.75182648
0.74505508
0.73715107
0.72803823
0.71767305
0.70606494
0.69330494
0.67959946
0.66530966
0.65098036
0.63726503
0.62491331
0.61470001
0.60731419
0.60328032
0.60293103
0.60644882
0.61402289
0.62558917
0.64107497
0.65974708
0.68170128
0.70623091
0.73593307
0.76882502
0.80830472
0.84393209
0.88414271
0.90601178
0.93810176
0.77601386
0.77599169
0.77596527
0.77593698
0.77590583
0.77587138
0.77583343
0.77579186
0.77574651
0.77569725
0.77564406
0.77558697
0.77552607
0.77546142
0.77539304
0.77532073
0.77524381
0.77516085
0.77506907
0.77496374
0.77483724
0.7746781
0.77446974
0.77418911
0.77380528
0.773278
0.77255647
0.77158116
0.77029428
0.76864578
0.76657751
0.76400845
0.7608416
0.75697156
0.75228551
0.74666791
0.74000716
0.73220222
0.72317152
0.7128667
0.70129404
0.68854463
0.67482997
0.66052342
0.64617477
0.63244443
0.62009038
0.60987785
0.6025061
0.59849543
0.59815986
0.60166073
0.60918068
0.62066281
0.63603582
0.65461224
0.67660745
0.70159083
0.73227769
0.76650515
0.80708017
0.84342735
0.88358285
0.90533669
0.93732916
0.7689234
0.76891209
0.76889842
0.76888355
0.7688669
0.76884821
0.76882735
0.76880415
0.76877851
0.76875037
0.76871971
0.76868653
0.7686509
0.76861292
0.76857261
0.76852977
0.76848386
0.76843358
0.76837644
0.76830811
0.76822163
0.76810631
0.7679466
0.76772074
0.76739943
0.76694446
0.7663076
0.76543071
0.76424995
0.76270587
0.76074299
0.75828872
0.75524512
0.75150345
0.74695013
0.74146689
0.73493827
0.72725856
0.71834124
0.70813357
0.69663915
0.68394924
0.67027995
0.65601483
0.64169882
0.6280023
0.61567999
0.60548497
0.59813263
0.59414607
0.59382344
0.59731778
0.60482085
0.61627813
0.63162703
0.65024278
0.67247159
0.69822229
0.7301676
0.76592168
0.80741189
0.84413825
0.8838275
0.90514073
0.93656645
0.7620829
0.76208241
0.76208149
0.76208005
0.76207796
0.76207513
0.76207146
0.76206684
0.7620612
0.76205451
0.76204671
0.76203786
0.76202798
0.76201709
0.76200516
0.76199199
0.76197699
0.76195892
0.76193546
0.76190256
0.76185369
0.76177885
0.76166341
0.76148687
0.7612215
0.76083115
0.76027013
0.75948281
0.75840538
0.75697052
0.75511372
0.75276851
0.74984831
0.74624311
0.741834
0.73650116
0.73012666
0.72260127
0.71383465
0.70377054
0.69241022
0.6798451
0.66629428
0.65214538
0.63793583
0.62433977
0.61209658
0.60195283
0.59463467
0.59066981
0.59036825
0.59388997
0.6014277
0.61292614
0.62834484
0.64715659
0.66995433
0.69691867
0.73040498
0.76743523
0.8092655
0.84576409
0.88431715
0.9049607
0.93564359
0.75582315
0.75583288
0.75584404
0.75585538
0.75586718
0.75587954
0.75589239
0.75590568
0.7559194
0.75593352
0.75594804
0.75596292
0.75597819
0.75599379
0.7560096
0.75602531
0.75604025
0.75605308
0.75606151
0.75606158
0.75604707
0.75600846
0.75593191
0.75579794
0.75558028
0.75524469
0.75474792
0.7540371
0.75305031
0.75171937
0.74997372
0.74774013
0.74493657
0.74146445
0.73720759
0.73204187
0.72584663
0.7185104
0.70994004
0.70007698
0.68892116
0.67656393
0.66322621
0.64928815
0.63528341
0.62187893
0.60979132
0.59975871
0.59250729
0.58858342
0.58832085
0.59186492
0.59943911
0.61101297
0.62659335
0.6458441
0.66960713
0.69797871
0.7327644
0.77043673
0.81186769
0.84750266
0.88482441
0.90504883
0.93447222
0.75042734
0.75044617
0.75046808
0.75049085
0.75051514
0.75054121
0.75056904
0.75059866
0.75063011
0.75066338
0.7506985
0.75073547
0.75077422
0.75081464
0.75085651
0.75089939
0.75094243
0.7509842
0.75102221
0.75105254
0.75106904
0.75106254
0.75101965
0.75092183
0.75074397
0.75045351
0.75000943
0.74936169
0.74845093
0.74721012
0.74556764
0.74344749
0.74076744
0.73743202
0.73333195
0.72834727
0.72235735
0.71524936
0.70692881
0.69733588
0.68646959
0.67442038
0.6614073
0.64779742
0.63411586
0.62101028
0.60917581
0.59933401
0.5922098
0.58834051
0.5880524
0.59157705
0.59915687
0.6108298
0.62669837
0.64666468
0.67150857
0.70118044
0.73678435
0.77451638
0.81522763
0.84992173
0.88571269
0.9052933
0.9330155
0.74610014
0.74612638
0.74615707
0.74618926
0.74622389
0.74626138
0.74630179
0.74634523
0.74639177
0.74644151
0.74649448
0.74655072
0.74661017
0.74667265
0.74673791
0.74680534
0.74687399
0.74694225
0.74700754
0.74706582
0.74711092
0.74713386
0.74712164
0.74705626
0.7469136
0.74666243
0.74626349
0.7456693
0.74482383
0.74366226
0.74211303
0.74010085
0.73754557
0.73435628
0.73042925
0.72564762
0.71989407
0.71305775
0.70504702
0.69580179
0.68532052
0.67369016
0.66112148
0.64797007
0.63474102
0.6220465
0.61056151
0.60100015
0.59402066
0.59016416
0.58981996
0.59330255
0.60090147
0.61275502
0.62908517
0.64982255
0.67570958
0.70640119
0.74249522
0.7799326
0.81941461
0.85258654
0.88672425
0.90539668
0.93126742
0.74294972
0.74298126
0.74301827
0.74305729
0.7430995
0.74314545
0.74319527
0.74324915
0.74330727
0.74336978
0.7434368
0.74350841
0.74358458
0.74366522
0.74374999
0.74383829
0.7439291
0.74402077
0.74411065
0.74419466
0.74426674
0.74431803
0.74433591
0.74430295
0.74419579
0.74398406
0.74362991
0.74308769
0.74230418
0.7412189
0.73976687
0.73785656
0.73543086
0.73239854
0.72866053
0.72410585
0.71862967
0.71212121
0.70448966
0.6956775
0.68568288
0.67458684
0.66258732
0.65002066
0.63735954
0.62517699
0.61413541
0.60487205
0.59802498
0.59416836
0.59377419
0.59720804
0.60488504
0.6170021
0.63378712
0.6552161
0.68206433
0.71356953
0.74962816
0.78620574
0.823987
0.85570774
0.88771869
0.90546499
0.92966331
0.74097167
0.74100608
0.74104665
0.74108955
0.74113615
0.74118713
0.74124267
0.74130303
0.7413685
0.74143933
0.74151574
0.74159788
0.74168585
0.74177961
0.74187894
0.74198335
0.74209188
0.74220298
0.74231413
0.74242151
0.74251928
0.74259904
0.74264878
0.74265183
0.74258576
0.74242139
0.7421221
0.74164364
0.7409344
0.73993468
0.73858201
0.73682651
0.73455134
0.73166114
0.72813813
0.72385282
0.71869299
0.71256243
0.70537999
0.6970885
0.68768225
0.67723318
0.66592062
0.65404743
0.64204537
0.63046713
0.61988443
0.61090987
0.60420018
0.6003473
0.59989795
0.60334087
0.61113539
0.62347836
0.64065944
0.66292103
0.69059915
0.72242232
0.75788327
0.79312136
0.82909654
0.8588012
0.88868093
0.90540874
0.92802867
0.74006629
0.74010117
0.74014258
0.7401863
0.74023402
0.74028641
0.74034374
0.74040636
0.74047463
0.7405489
0.74062948
0.74071668
0.74081075
0.74091176
0.7410197
0.74113428
0.74125481
0.74138002
0.74150783
0.74163491
0.7417561
0.74186388
0.74194731
0.74199117
0.74197444
0.74186945
0.74164109
0.741246
0.74063347
0.73974646
0.73852376
0.73690199
0.73478955
0.73216689
0.72888643
0.72486518
0.72007765
0.71440321
0.70775426
0.70007444
0.69135561
0.68165665
0.67112786
0.6600328
0.64877387
0.63781157
0.62768429
0.6190032
0.61241699
0.60858306
0.60812483
0.61160758
0.61948659
0.63205696
0.64985476
0.67293576
0.70096131
0.73246124
0.76692984
0.80051686
0.83417446
0.86181843
0.889664
0.90543102
0.92669612
0.74004005
0.7400733
0.74011306
0.74015485
0.7402006
0.74025106
0.74030652
0.74036736
0.74043403
0.74050696
0.74058657
0.7406733
0.74076751
0.74086954
0.74097955
0.74109759
0.74122329
0.74135592
0.74149395
0.74163491
0.74177473
0.7419072
0.7420231
0.74210925
0.74214726
0.74211215
0.74197097
0.74168277
0.74119849
0.74046155
0.73941073
0.73797905
0.73611475
0.73373537
0.7307479
0.72715883
0.72280542
0.717626
0.71157817
0.70459415
0.69665284
0.68778928
0.67811973
0.6678779
0.65737364
0.64702802
0.6373621
0.62895403
0.62249781
0.61870458
0.61827273
0.62177273
0.62977498
0.64281902
0.66130267
0.68474817
0.71264527
0.7435222
0.77639089
0.80788826
0.83923207
0.86479971
0.89076988
0.90560412
0.92566337
0.74066736
0.74069719
0.74073316
0.74077077
0.74081207
0.74085779
0.74090827
0.7409639
0.74102516
0.74109256
0.74116657
0.74124774
0.7413366
0.74143363
0.74153926
0.74165382
0.74177744
0.74190989
0.74205046
0.74219762
0.74234875
0.74249941
0.74264275
0.74276853
0.74286202
0.74290239
0.74286166
0.7427032
0.74238115
0.7418411
0.74102231
0.73985807
0.73828703
0.73624194
0.73367385
0.73048508
0.72663811
0.72210193
0.716743
0.71053272
0.70344471
0.69548438
0.68674086
0.67736704
0.66762366
0.65790337
0.64866669
0.64052699
0.63420726
0.6304743
0.63003847
0.63362065
0.64200042
0.65564963
0.67442802
0.69788011
0.72550007
0.75499406
0.7858622
0.81522623
0.84412293
0.86786352
0.89209489
0.90606784
0.92505882
0.74169925
0.74172451
0.74175515
0.74178707
0.74182223
0.74186131
0.74190464
0.74195262
0.74200571
0.74206444
0.74212932
0.74220099
0.74228
0.74236703
0.74246267
0.74256754
0.74268215
0.74280679
0.74294151
0.74308582
0.74323844
0.74339696
0.74355714
0.74371217
0.7438517
0.74396063
0.7440174
0.74399251
0.74384761
0.74353444
0.742996
0.74216762
0.74098455
0.73937611
0.73728846
0.73466269
0.73145931
0.72758386
0.72301307
0.71768252
0.71152376
0.70453328
0.69673876
0.68824389
0.67927104
0.67013254
0.66131083
0.65340673
0.64720555
0.64348502
0.64314865
0.64703755
0.6559575
0.66990784
0.6887946
0.71221773
0.73874695
0.76641491
0.79532707
0.82221462
0.8490602
0.87106115
0.89372017
0.90684756
0.92487381
0.74292426
0.74294443
0.74296899
0.74299451
0.74302274
0.74305425
0.74308931
0.7431283
0.74317169
0.74321993
0.74327355
0.74333318
0.74339942
0.74347298
0.74355458
0.74364501
0.74374503
0.74385536
0.74397664
0.74410922
0.74425308
0.74440752
0.74457077
0.74473942
0.74490771
0.74506652
0.7452021
0.74529454
0.7453162
0.74523027
0.74499026
0.74453991
0.74381727
0.74275429
0.74128851
0.73935142
0.73688268
0.73384238
0.73016974
0.72578269
0.72062629
0.71464102
0.70781476
0.70020542
0.69194933
0.68335547
0.67487317
0.66716979
0.66102912
0.65745005
0.65740117
0.66179887
0.67111837
0.685255
0.70435828
0.72699718
0.75184682
0.7778248
0.80425146
0.8291711
0.85404428
0.87446098
0.89567559
0.90799366
0.92515632
0.74417177
0.74418684
0.74420506
0.74422426
0.74424555
0.74426939
0.74429604
0.74432582
0.7443591
0.74439632
0.74443793
0.74448451
0.74453667
0.74459505
0.74466044
0.74473368
0.74481563
0.74490726
0.74500955
0.74512345
0.74524983
0.74538925
0.74554183
0.74570698
0.74588313
0.74606676
0.7462515
0.74642728
0.74657883
0.7466844
0.74671388
0.74662721
0.74637475
0.74589733
0.74512962
0.74400128
0.74244349
0.74037854
0.73772566
0.73441404
0.73033886
0.72540791
0.71956499
0.71278895
0.70519683
0.69704286
0.68882763
0.68127368
0.67533165
0.67206946
0.67256484
0.67751687
0.68712105
0.70170494
0.72040224
0.74160313
0.76494612
0.78866706
0.81310606
0.83606345
0.85915287
0.8780997
0.89799089
0.90952029
0.92590121
0.74533918
0.74534955
0.74536196
0.74537529
0.74539014
0.74540681
0.74542552
0.74544654
0.7454702
0.74549689
0.74552703
0.74556103
0.74559929
0.74564241
0.74569098
0.74574577
0.74580777
0.74587808
0.74595784
0.74604831
0.74615082
0.74626686
0.74639794
0.74654552
0.74671081
0.74689456
0.74709664
0.74731546
0.74754757
0.7477864
0.74802019
0.74823037
0.74838979
0.74845863
0.74838346
0.74809527
0.74751146
0.7465343
0.74505144
0.74293428
0.74003889
0.73622121
0.73135163
0.72535964
0.71834011
0.71054309
0.70258487
0.69528518
0.68966796
0.68703132
0.68827163
0.6936743
0.70405478
0.7186319
0.73622944
0.75590471
0.77751345
0.79922015
0.82174149
0.84296638
0.86442267
0.88200018
0.90067607
0.91144496
0.92712216
0.74637676
0.74638285
0.74639016
0.74639809
0.746407
0.74641705
0.74642842
0.74644153
0.74645663
0.74647338
0.74649144
0.74651137
0.74653432
0.7465615
0.74659406
0.7466324
0.74667646
0.74672668
0.74678385
0.74684914
0.74692452
0.74701232
0.74711499
0.74723554
0.74737717
0.7475434
0.74773853
0.7479678
0.74823636
0.74854923
0.74891141
0.74932592
0.74978955
0.75029056
0.75080028
0.75126766
0.75161251
0.75171662
0.75142785
0.75056076
0.74889175
0.7462095
0.74228301
0.73705508
0.73055441
0.72313567
0.71550361
0.70856451
0.70372341
0.70214727
0.70406088
0.71056153
0.72133559
0.73514518
0.75137322
0.7698752
0.78935854
0.80944568
0.83029531
0.84991424
0.86987422
0.88617978
0.90374034
0.91376914
0.9288077
0.74728063
0.74728261
0.74728503
0.74728766
0.74729056
0.747294
0.74729829
0.74730351
0.74730975
0.74731709
0.74732568
0.74733588
0.74734792
0.74736207
0.74737852
0.74739731
0.74741941
0.74744696
0.7474811
0.74752156
0.74756952
0.74762832
0.74770228
0.74779522
0.74790995
0.74805067
0.74822521
0.74844329
0.74871607
0.74905672
0.74948048
0.75000933
0.75066398
0.75145101
0.75237066
0.7534025
0.75448203
0.75549485
0.7562606
0.75653868
0.75602284
0.75439662
0.75140135
0.74690259
0.74095281
0.73403061
0.72701414
0.7211063
0.71775506
0.71710086
0.72038285
0.72770464
0.73805899
0.75078452
0.76610401
0.78277483
0.80091836
0.8194822
0.83877649
0.85693112
0.87552037
0.89064451
0.90718326
0.91649796
0.93095944
0.74803363
0.74803126
0.74802851
0.74802566
0.74802263
0.74801942
0.74801614
0.74801304
0.74801057
0.7480089
0.74800721
0.74800457
0.74800114
0.74799786
0.74799592
0.74799682
0.74800213
0.74801323
0.74803069
0.74805304
0.74808011
0.74811545
0.74816351
0.74822844
0.74831514
0.7484299
0.7485815
0.74878247
0.7490483
0.74939653
0.74984835
0.75043654
0.75118579
0.7521197
0.75326982
0.75463616
0.75617792
0.75779296
0.75931801
0.76045454
0.76087505
0.76017098
0.75803141
0.75426569
0.74908342
0.74315084
0.73756656
0.73348709
0.73133151
0.73228568
0.73673337
0.74387906
0.75369765
0.76583714
0.77983833
0.79536273
0.8121369
0.82931557
0.84722587
0.86403829
0.88137342
0.89540186
0.9109995
0.91962839
0.93356799
0.74858241
0.74857558
0.74856752
0.74855906
0.74854986
0.74853982
0.74852905
0.7485177
0.74850591
0.74849358
0.74848055
0.74846675
0.74845265
0.74843916
0.74842693
0.74841623
0.74840682
0.74839846
0.74839282
0.74839273
0.74840074
0.74841962
0.74845152
0.7484991
0.7485687
0.74866894
0.74880845
0.74899843
0.74925471
0.74959525
0.7500498
0.75064326
0.75140591
0.75238522
0.75361772
0.75512127
0.75688461
0.75881693
0.76076235
0.76245511
0.76351447
0.7635044
0.76210882
0.75930981
0.75547179
0.75127568
0.74771812
0.74516604
0.74481658
0.74727585
0.75181901
0.75911628
0.76846069
0.77999226
0.79304788
0.80745424
0.82306951
0.83901796
0.85566576
0.87125121
0.88744048
0.90045276
0.915187
0.92315914
0.93662566
0.74874254
0.74873199
0.74871956
0.74870646
0.74869228
0.74867685
0.74866013
0.74864211
0.74862276
0.74860209
0.7485802
0.74855723
0.74853351
0.74850941
0.74848543
0.74846239
0.74844122
0.74842294
0.74840857
0.74839912
0.74839659
0.74840349
0.74842259
0.74845711
0.74851328
0.74860164
0.74873293
0.7489165
0.74916594
0.74949792
0.74993962
0.7505281
0.75129236
0.75227026
0.75350447
0.75500977
0.75679142
0.75881608
0.76091171
0.76283545
0.76425654
0.76488068
0.76450621
0.76314543
0.7610609
0.75900526
0.75718633
0.756465
0.75802862
0.76091939
0.76607285
0.77338505
0.78261372
0.79337914
0.80569774
0.81919692
0.83377391
0.84860625
0.86411824
0.87858455
0.89372717
0.90579807
0.91973768
0.92708126
0.94012348
0.74834006
0.74832768
0.74831316
0.74829783
0.74828122
0.74826319
0.74824368
0.74822267
0.74820017
0.74817622
0.74815091
0.74812435
0.74809685
0.74806867
0.74804032
0.74801244
0.74798585
0.74796164
0.74794128
0.74792648
0.7479195
0.74792388
0.74794461
0.7479853
0.74804794
0.74813756
0.74826431
0.7484399
0.74866976
0.74898079
0.7494121
0.74998244
0.75070486
0.75161162
0.75274917
0.75417503
0.75588854
0.75786231
0.75999308
0.76210089
0.76399229
0.76543524
0.76627515
0.76650105
0.76640619
0.76613242
0.76603623
0.76751747
0.76998265
0.77376871
0.77965118
0.78692361
0.79582787
0.80621215
0.81792604
0.83061612
0.84428148
0.85811859
0.87260535
0.88605083
0.90023693
0.91143733
0.92464697
0.93139738
0.94405335
0.74717708
0.74716578
0.7471525
0.7471385
0.74712336
0.74710693
0.74708917
0.7470701
0.74704971
0.74702805
0.74700525
0.74698145
0.74695694
0.74693204
0.74690728
0.74688332
0.74686102
0.74684143
0.74682603
0.74681657
0.7468151
0.74682439
0.74684805
0.74689058
0.7469573
0.74705082
0.74717462
0.74734676
0.74759791
0.74792627
0.74833303
0.7488595
0.74953421
0.75040013
0.75150037
0.75286206
0.75450849
0.75645217
0.75866429
0.76105798
0.76351457
0.76588328
0.76801596
0.76990438
0.7714903
0.77273614
0.77487882
0.77779928
0.78119699
0.78607705
0.79220482
0.79967591
0.80853745
0.81857871
0.82977283
0.8417772
0.85463966
0.86758294
0.88114596
0.89366097
0.90697408
0.9173697
0.92990761
0.93609725
0.94839668
0.74532623
0.74531794
0.7453082
0.74529798
0.74528696
0.74527507
0.74526229
0.74524866
0.74523424
0.74521911
0.7452034
0.74518735
0.74517124
0.74515549
0.74514064
0.74512739
0.74511668
0.74510972
0.74510799
0.74511334
0.7451281
0.74515528
0.7451981
0.74525836
0.74533943
0.74545075
0.745609
0.74581949
0.74607748
0.74640265
0.74683182
0.74738815
0.74808285
0.74894264
0.75002556
0.75138562
0.75305866
0.75508538
0.7575
0.7603037
0.76344682
0.7668009
0.77021312
0.7735164
0.77632275
0.77961148
0.78350363
0.78730722
0.7919208
0.79753699
0.80420371
0.81191901
0.82073916
0.83054305
0.8413191
0.85272949
0.86488521
0.87702909
0.8897597
0.90142733
0.91394256
0.92359399
0.93551206
0.94117222
0.95314904
0.74285102
0.74284624
0.74284067
0.74283492
0.74282883
0.74282239
0.74281565
0.7428087
0.74280166
0.74279471
0.74278804
0.74278198
0.74277692
0.74277343
0.74277214
0.74277395
0.74277988
0.74279136
0.74281021
0.74283872
0.74287945
0.74293486
0.74300802
0.7431034
0.74322809
0.74339086
0.74359493
0.74385454
0.74418985
0.74460061
0.74509558
0.74570621
0.74646525
0.74740703
0.7485736
0.75001942
0.751815
0.75405163
0.75682096
0.76018742
0.76409705
0.76843516
0.77299323
0.77720934
0.78174068
0.78675622
0.79148999
0.79648893
0.80219972
0.80856747
0.81572118
0.8237007
0.83256889
0.84220147
0.85262766
0.86352671
0.87505987
0.8864858
0.89846647
0.90935756
0.92114339
0.93010505
0.94145675
0.94660406
0.95832157
0.73982497
0.73982316
0.7398212
0.73981931
0.73981755
0.73981598
0.73981473
0.73981397
0.73981391
0.73981483
0.73981708
0.73982114
0.73982755
0.73983709
0.73985067
0.73986947
0.73989497
0.73992895
0.7399737
0.74003191
0.74010659
0.74020116
0.74032063
0.74047099
0.7406595
0.74089823
0.74119251
0.7415425
0.74196341
0.74247401
0.74308856
0.74382808
0.74471857
0.7457922
0.74710312
0.74873387
0.75079326
0.75341699
0.75673653
0.76079546
0.76552829
0.77083452
0.77609802
0.78166581
0.78774746
0.79358355
0.79938189
0.80560821
0.8121819
0.81924308
0.82690136
0.83517101
0.84411393
0.85362563
0.86376472
0.87421986
0.88520172
0.89598125
0.90728307
0.91746155
0.92858265
0.93689898
0.94773637
0.95238509
0.96388161
0.73611897
0.7361197
0.73612083
0.73612235
0.73612445
0.7361273
0.73613114
0.73613623
0.73614287
0.73615155
0.73616273
0.73617715
0.73619561
0.73621912
0.736249
0.73628681
0.73633449
0.73639439
0.73646936
0.73656285
0.73667891
0.73682331
0.7370016
0.73721999
0.73748646
0.73780795
0.73819376
0.73865454
0.7392015
0.7398484
0.7406114
0.74150895
0.74256883
0.74384362
0.7454107
0.74737938
0.74989946
0.75313192
0.75718309
0.7620455
0.76768523
0.77365151
0.77993536
0.78685612
0.79371514
0.80047639
0.80746358
0.81459754
0.82199582
0.82972695
0.83786549
0.84642435
0.85546873
0.8648969
0.87479425
0.88485999
0.89535
0.90554378
0.91622846
0.9257512
0.93626511
0.94397271
0.9543461
0.95850947
0.96981472
0.7314656
0.73146941
0.73147425
0.7314799
0.73148668
0.7314949
0.73150488
0.73151703
0.73153184
0.73154989
0.73157196
0.73159897
0.73163202
0.73167251
0.73172213
0.7317829
0.73185734
0.73194837
0.73205961
0.73219523
0.73236025
0.73256107
0.73280379
0.73309551
0.73344514
0.73386184
0.73435588
0.7349391
0.73562347
0.73642176
0.73735182
0.73844554
0.73975111
0.74133776
0.74331472
0.74583014
0.74904818
0.75310364
0.75802857
0.76382227
0.77020465
0.77696595
0.78451607
0.79221537
0.79990963
0.80772872
0.81562122
0.82362689
0.83178544
0.84013114
0.84872653
0.85756877
0.86672233
0.87608905
0.8857783
0.89549663
0.90554231
0.915201
0.92531993
0.93423717
0.94419018
0.95133351
0.96127327
0.96497288
0.97611132
0.72550876
0.72551725
0.72552773
0.7255395
0.7255532
0.72556927
0.72558816
0.72561042
0.72563671
0.72566788
0.7257049
0.72574897
0.72580156
0.72586438
0.72593959
0.7260297
0.7261377
0.72626724
0.72642255
0.72660856
0.72683102
0.72709656
0.72741273
0.72778772
0.72823159
0.72875474
0.72936715
0.73008131
0.73091407
0.73188835
0.73303556
0.73440254
0.73606191
0.73812163
0.74072367
0.7440269
0.74816754
0.75320799
0.75914379
0.76584711
0.77299196
0.78097608
0.78938638
0.79785972
0.80652246
0.81522873
0.82399465
0.83279917
0.84165522
0.85057256
0.8595924
0.86869956
0.87796007
0.88727579
0.89677754
0.90617832
0.91581592
0.92498017
0.93457518
0.94292853
0.95236243
0.9589719
0.96851213
0.97176407
0.98275056
0.71788708
0.71790243
0.71792115
0.71794183
0.71796547
0.71799275
0.71802422
0.71806064
0.7181029
0.71815205
0.71820935
0.71827632
0.71835478
0.71844688
0.71855513
0.71868254
0.71883267
0.71900975
0.71921865
0.71946459
0.71975419
0.72009563
0.72049674
0.7209661
0.72151372
0.72215242
0.72289845
0.72377018
0.72479232
0.72600063
0.72744836
0.72921387
0.73140648
0.73416543
0.73764353
0.74197297
0.74722381
0.75340156
0.76041635
0.76796965
0.77636136
0.78538076
0.79457
0.80399322
0.81351238
0.82309066
0.83267334
0.84221995
0.8517204
0.86115977
0.87056563
0.87991169
0.88926522
0.89852811
0.90785098
0.91695242
0.92620671
0.93490703
0.94401027
0.95183911
0.96077712
0.96689474
0.97604593
0.97888009
0.98970199
0.70830632
0.70833095
0.70836079
0.70839342
0.70843033
0.70847243
0.7085205
0.70857545
0.70863841
0.70871072
0.7087939
0.70888975
0.70900053
0.70912882
0.70927733
0.70944848
0.70964751
0.70988132
0.71015356
0.71046857
0.71083389
0.7112586
0.71175294
0.71232781
0.71299603
0.71377432
0.71468434
0.715756
0.71703182
0.71857279
0.72046478
0.72282269
0.72578761
0.72951075
0.73412113
0.73969045
0.74623058
0.75366196
0.76172282
0.77057446
0.78018818
0.79008756
0.80023422
0.81055193
0.82097107
0.83139459
0.84175485
0.85199475
0.86208566
0.87199638
0.8817441
0.89129415
0.90071664
0.90991397
0.91905497
0.92786372
0.93674842
0.9450079
0.95364279
0.96097513
0.96944208
0.97510048
0.98386839
0.9862892
0.99699283
0.69647616
0.6965125
0.6965562
0.69660374
0.69665721
0.69671783
0.69678646
0.69686429
0.69695267
0.69705095
0.69715666
0.69727987
0.69743506
0.69761423
0.69780997
0.69803146
0.69828693
0.69858172
0.69892177
0.69931382
0.69976562
0.70028661
0.70088891
0.70158755
0.7024018
0.70335759
0.70449076
0.70585159
0.70751037
0.70956261
0.71213151
0.71536208
0.71940706
0.72439225
0.73038873
0.73741009
0.74537354
0.75403457
0.76347656
0.77373889
0.7843746
0.79527441
0.80642031
0.81770727
0.82901957
0.84026401
0.85136165
0.86224221
0.872866
0.88319063
0.89322717
0.90293599
0.91239162
0.92149882
0.93044313
0.93895629
0.94747458
0.95530445
0.96348475
0.9703471
0.97835911
0.98360431
0.9919765
0.99414216
1.0045093
0.68240493
0.68245576
0.68251623
0.68257981
0.68264762
0.68272538
0.68281976
0.68292725
0.68304303
0.68317131
0.68331712
0.68348272
0.68367039
0.68388277
0.68412362
0.684401
0.68472546
0.68509815
0.6855168
0.68599215
0.68653957
0.68717237
0.68790767
0.68876857
0.68978644
0.69100435
0.69248156
0.69429836
0.69655991
0.69939659
0.7029573
0.70739166
0.71282711
0.71932517
0.72691008
0.73549739
0.74480773
0.7549483
0.76596039
0.77738889
0.78912949
0.80116006
0.81336485
0.82561648
0.83781041
0.84984436
0.86163105
0.87309297
0.88418422
0.89485676
0.90511937
0.91493163
0.92437285
0.9333534
0.94207404
0.95027551
0.95841887
0.96582275
0.97355049
0.97995801
0.987514
0.99237028
1.0003198
1.0021231
1.0121492
0.66616962
0.666241
0.66631206
0.66638138
0.66646349
0.66655995
0.66667133
0.66679968
0.66694773
0.66711812
0.66731181
0.6675288
0.66776991
0.66803687
0.66833427
0.66866964
0.66905002
0.66948223
0.66997502
0.67053974
0.6711907
0.67194677
0.67283333
0.67388504
0.67514965
0.6766926
0.67860204
0.68099298
0.6840078
0.68780995
0.69256683
0.69842191
0.70546119
0.71369294
0.72306017
0.73329424
0.74443731
0.75644703
0.76888773
0.78162722
0.79466804
0.80788693
0.82116202
0.83438279
0.84743794
0.86022135
0.87264263
0.88462161
0.89611062
0.90706051
0.91748156
0.92733519
0.93670801
0.94551833
0.95398062
0.96184807
0.96960005
0.97657291
0.98384625
0.98981581
0.99691942
1.0014782
1.0090199
1.0110035
1.0213197
0.64760681
0.64768679
0.64778244
0.64788555
0.64799946
0.64812636
0.64826773
0.6484253
0.64860096
0.64879699
0.64901594
0.64926081
0.64953516
0.64984319
0.65019002
0.65058192
0.65102663
0.65153403
0.6521167
0.6527914
0.65358039
0.65451378
0.6556324
0.65699169
0.65866599
0.66075313
0.66337772
0.66669091
0.67086372
0.67607063
0.68246358
0.69013942
0.69910453
0.70930143
0.72055126
0.73277126
0.74589722
0.75945318
0.77330337
0.78747482
0.80182766
0.81623924
0.83059567
0.84477657
0.85866552
0.87215421
0.885151
0.8975765
0.90938432
0.92052924
0.93102326
0.94083695
0.95006322
0.95863375
0.96677433
0.97425538
0.98156898
0.98807676
0.99485935
1.0003727
1.0069773
1.0112544
1.0181469
1.0208105
1.0284257
0.62850219
0.62859606
0.62871077
0.62882934
0.62895999
0.62910551
0.62926715
0.62944673
0.62964641
0.62986873
0.63011668
0.63039379
0.63070444
0.63105394
0.6314491
0.63189859
0.63241367
0.63300926
0.6337052
0.63452818
0.63551419
0.63671167
0.63818537
0.6400205
0.64232666
0.64524003
0.64892178
0.65354983
0.65930193