/*--------------------------------*- C++ -*----------------------------------*\
  =========                 |
  \\      /  F ield         | OpenFOAM: The Open Source CFD Toolbox
   \\    /   O peration     | Website:  https://openfoam.org
    \\  /    A nd           | Version:  13
     \\/     M anipulation  |
\*---------------------------------------------------------------------------*/
FoamFile
{
    format      ascii;
    class       volVectorField;
    location    "22.403772";
    object      wallShearStress;
}
// * * * * * * * * * * * * * * * * * * * * * * * * * * * * * * * * * * * * * //

dimensions      [0 2 -2 0 0 0 0];

internalField   uniform (0 0 0);

boundaryField
{
    inlet
    {
        type            calculated;
        value           uniform (0 0 0);
    }
    outlet
    {
        type            calculated;
        value           uniform (0 0 0);
    }
    cylinder
    {
        type            calculated;
        value           nonuniform List<vector> 
132
(
(-4.3828104e-07 0.00055112758 -2.3438127e-22)
(7.4058627e-06 -1.8236282e-05 6.6599103e-23)
(4.6492871e-05 -0.00058259492 3.6699238e-21)
(0.00011636356 -0.0011299292 -1.2288474e-20)
(0.00021484119 -0.0016475665 8.6566814e-21)
(0.00033853333 -0.0021228715 2.6402693e-20)
(0.00048260408 -0.0025436628 -4.9945747e-21)
(0.00064085849 -0.0028987929 -1.9760415e-20)
(0.00080588336 -0.0031787523 1.8604847e-20)
(0.00096937611 -0.0033762898 -4.1679487e-20)
(0.0011227571 -0.0034869644 -7.5799222e-22)
(0.0012573917 -0.0035096261 2.5866914e-20)
(0.0013654153 -0.0034470637 4.2174047e-20)
(0.001440211 -0.0033056271 -3.4251193e-20)
(0.00147756 -0.0030963055 3.6061748e-20)
(0.0014753765 -0.002832352 5.8038326e-20)
(0.0014354297 -0.0025312787 -3.802863e-20)
(0.0013624986 -0.0022116066 6.0997688e-20)
(0.0012643446 -0.0018919077 8.0643358e-20)
(0.0011522545 -0.0015909431 -5.2305428e-20)
(0.0010389142 -0.0013241062 -6.6659487e-20)
(0.00094012231 -0.0011057652 2.344616e-23)
(0.00087328255 -0.00094711344 9.6678543e-21)
(0.00086038478 -0.00085916881 -1.1573771e-20)
(0.00092479902 -0.0008488071 -1.9686989e-20)
(0.00109149 -0.00091911365 4.2098203e-21)
(0.001370345 -0.0010564975 -3.8006178e-20)
(0.0017507386 -0.0012322165 1.0153436e-20)
(0.0021881341 -0.0014001546 7.9730976e-21)
(0.0026232259 -0.0015174405 -5.4905808e-20)
(0.0030116336 -0.0015632299 7.1619158e-20)
(0.003341384 -0.0015413936 2.1656635e-21)
(0.003625354 -0.0014680674 1.5591325e-20)
(0.0038447972 -0.0013449093 -1.8445323e-20)
(0.0039316649 -0.0011625713 5.8504456e-20)
(0.0037557501 -0.00091069055 -3.6934242e-21)
(0.0031546889 -0.00060006818 1.4872862e-20)
(0.0019264493 -0.00027055486 -2.0392298e-21)
(-0.00013536701 -6.043668e-06 2.9231691e-21)
(-0.0032679997 6.2812859e-05 -1.8229798e-21)
(-0.0078167356 -0.00026545376 3.4073819e-21)
(-0.013802727 -0.001288284 -1.0533464e-22)
(-0.020763887 -0.0031998029 3.8743289e-20)
(-0.028273095 -0.0061123581 -1.4982882e-20)
(-0.035776554 -0.010018388 1.3568068e-20)
(-0.042790602 -0.014812429 -8.7439069e-20)
(-0.048853245 -0.020282342 -1.4137768e-20)
(-0.053675643 -0.026176964 1.2432925e-19)
(-0.057050544 -0.032212933 -1.0607315e-19)
(-0.058916457 -0.038121695 -2.0227779e-21)
(-0.059262179 -0.043627484 3.2143307e-20)
(-0.058215477 -0.048529642 -2.9074031e-20)
(-0.055859577 -0.052586243 -5.6126186e-21)
(-0.052388651 -0.055646966 -3.4352041e-21)
(-0.04803889 -0.057624933 -4.3389437e-21)
(-0.04297681 -0.058377569 -4.1317694e-21)
(-0.037454626 -0.057886937 6.607663e-22)
(-0.031687806 -0.056124999 5.1112499e-20)
(-0.02590016 -0.053116435 -7.6693289e-20)
(-0.02030271 -0.048915067 -8.1076384e-20)
(-0.015092217 -0.043606486 -3.2729164e-20)
(-0.010446812 -0.03730562 -7.4769621e-20)
(-0.0065216485 -0.030152301 1.6643375e-20)
(-0.0034439784 -0.022308926 2.4178451e-20)
(-0.0013168507 -0.013967182 -3.7538466e-20)
(-0.00019715983 -0.0052887526 -5.0113189e-21)
(2.243592e-05 0.0011187416 -1.0802102e-21)
(7.5539151e-05 0.0016834104 -6.446426e-23)
(0.00016084638 0.0022385285 -3.7071163e-21)
(0.00027671518 0.0027715601 1.2451444e-20)
(0.00042080976 0.0032696894 -8.8040872e-21)
(0.00058930848 0.003720005 -2.6949627e-20)
(0.00077689185 0.0041100259 5.1158835e-21)
(0.00097669014 0.0044283491 2.0308011e-20)
(0.0011808036 0.004665094 -1.9180655e-20)
(0.0013803528 0.0048127048 4.3094803e-20)
(0.001565839 0.0048663354 7.8580357e-22)
(0.0017279057 0.0048249984 -2.6880991e-20)
(0.0018576751 0.0046910058 -4.3920153e-20)
(0.0019481991 0.0044721611 3.5733892e-20)
(0.0019940028 0.0041786838 -3.7680434e-20)
(0.0019932093 0.0038262909 -6.0717055e-20)
(0.0019467986 0.0034327006 3.9822289e-20)
(0.0018596773 0.0030181745 -6.3918223e-20)
(0.0017413386 0.0026051798 -8.4544218e-20)
(0.0016034386 0.00221347 5.4849758e-20)
(0.0014611097 0.0018618921 6.9909656e-20)
(0.0013314347 0.0015659582 6.2595864e-20)
(0.0012339408 0.0013385106 5.1405739e-20)
(0.0011915793 0.0011905359 1.2135429e-20)
(0.00122857 0.0011285999 2.0639799e-20)
(0.0013694986 0.0011543582 -4.4132056e-21)
(0.0016245082 0.0012535244 3.9840619e-20)
(0.0019829812 0.0013965479 -1.0644442e-20)
(0.002403353 0.0015384843 -8.3600478e-21)
(0.002827568 0.0016360323 5.7591935e-20)
(0.0032133316 0.0016681434 -7.5164854e-20)
(0.0035443601 0.001635215 -2.261578e-21)
(0.003818858 0.0015467295 3.7300869e-20)
(0.0039969114 0.0013986806 1.9425571e-20)
(0.0039901751 0.0011807878 -6.1722057e-20)
(0.0036567208 0.00088812118 3.904472e-21)
(0.0028236687 0.00053962377 1.1491557e-20)
(0.0012755015 0.00018514006 2.1652869e-21)
(-0.0011857759 -7.4872999e-05 -3.109625e-21)
(-0.0047716393 -9.9493275e-05 1.9416606e-21)
(-0.0098333145 0.00033137719 -3.6296721e-21)
(-0.01629968 0.0015175417 2.953998e-20)
(-0.023614937 0.0036354937 -4.1067206e-20)
(-0.031335458 0.0067707627 1.5808532e-20)
(-0.0388758 0.010882812 -1.4235509e-20)
(-0.045774435 0.015842293 9.1174913e-20)
(-0.051608791 0.021422426 1.4644215e-20)
(-0.056122586 0.027366541 -1.2790174e-19)
(-0.059142466 0.033390544 1.0833442e-19)
(-0.060638696 0.039232688 2.0497707e-21)
(-0.0606137 0.044619239 -3.2276317e-20)
(-0.059223873 0.049367203 2.8860701e-20)
(-0.056541727 0.053225335 -4.4088978e-20)
(-0.0527841 0.056064107 3.2249265e-21)
(-0.048200858 0.057816256 -4.5944285e-21)
(-0.04293627 0.058319364 5.1765188e-21)
(-0.037258153 0.057579942 -7.2235048e-22)
(-0.031377471 0.055571614 -5.4090436e-20)
(-0.025516806 0.052325938 7.9908298e-20)
(-0.019884969 0.047903372 8.3654213e-20)
(-0.014674919 0.042394009 3.3531239e-20)
(-0.01006099 0.035918403 7.6171341e-20)
(-0.0061932991 0.028619478 -1.6874618e-20)
(-0.0031939423 0.020664463 4.8412745e-20)
(-0.0011600987 0.012240998 3.7749421e-20)
(-0.00014553841 0.0035381073 5.0235462e-21)
)
;
    }
    frontAndBack
    {
        type            empty;
    }
}


// ************************************************************************* //
