/*--------------------------------*- C++ -*----------------------------------*\
  =========                 |
  \\      /  F ield         | OpenFOAM: The Open Source CFD Toolbox
   \\    /   O peration     | Website:  https://openfoam.org
    \\  /    A nd           | Version:  13
     \\/     M anipulation  |
\*---------------------------------------------------------------------------*/
FoamFile
{
    format      ascii;
    class       surfaceScalarField;
    location    "1.10227";
    object      phi;
}
// * * * * * * * * * * * * * * * * * * * * * * * * * * * * * * * * * * * * * //

dimensions      [0 3 -1 0 0 0 0];

internalField   nonuniform List<scalar> 
34068
(
-1.0161033e-07
7.5513677e-08
2.609665e-08
-4.4928482e-07
2.5838926e-07
8.9285232e-08
-1.122862e-06
5.0061197e-07
1.7296522e-07
-2.2243638e-06
8.1866655e-07
2.8283526e-07
-3.8837033e-06
1.2332823e-06
4.2605721e-07
-6.2656321e-06
1.7703516e-06
6.1157719e-07
-9.578167e-06
2.4620302e-06
8.5050472e-07
-1.408269e-05
3.3479802e-06
1.1565431e-06
-2.0105904e-05
4.4767496e-06
1.5464644e-06
-2.8053764e-05
5.9072437e-06
2.040616e-06
-3.8427399e-05
7.7102054e-06
2.66343e-06
-5.1840886e-05
9.9695916e-06
3.4438947e-06
-6.9040445e-05
1.2783643e-05
4.4159163e-06
-9.0924323e-05
1.626539e-05
5.6184872e-06
-0.00011856207
2.0542225e-05
7.0955188e-06
-0.00015321135
2.5754086e-05
8.8952002e-06
-0.00019632973
3.2049708e-05
1.1068668e-05
-0.00024957792
3.9580377e-05
1.3667813e-05
-0.00031481055
4.8490621e-05
1.6742004e-05
-0.00039404977
5.8905575e-05
2.0333652e-05
-0.00048943745
7.0915067e-05
2.4472613e-05
-0.00060316238
8.4555238e-05
2.9169694e-05
-0.0007373615
9.9789271e-05
3.4409842e-05
-0.00089399713
0.0001164898
4.0145835e-05
-0.0010747164
0.0001344258
4.6293511e-05
-0.0012807021
0.00015325631
5.272931e-05
-0.0015125227
0.00017253054
5.9290077e-05
-0.0017699862
0.00019168988
6.5773633e-05
-0.0020519852
0.00021006213
7.193692e-05
-0.0023563082
0.00022683532
7.748761e-05
-0.0026793737
0.00024100002
8.2065474e-05
-0.0030158373
0.00025125286
8.521074e-05
-0.0033580342
0.00025587485
8.6322121e-05
-0.0036952018
0.00025257527
8.4592275e-05
-0.0040124149
0.00023829664
7.891648e-05
-0.004291357
0.00021042673
6.8515338e-05
-0.0045082789
0.00016462705
5.2294906e-05
-0.0046282815
9.3407749e-05
2.6594831e-05
-0.0046141577
-5.6127264e-06
-8.5110357e-06
-0.0044222789
-0.00013734019
-5.4538695e-05
-0.0040036615
-0.00030552389
-0.00011309348
-0.0033089891
-0.00051051375
-0.0001841586
-0.0022939185
-0.00074867391
-0.00026639672
-0.00092396305
-0.0010126313
-0.00035732413
0.00081659363
-0.0012885208
-0.00045203584
0.0029263362
-0.0015630254
-0.00054671713
0.0053858296
-0.0018227906
-0.00063670281
0.0081657556
-0.0020601397
-0.00071978636
0.011234923
-0.0022734228
-0.00079574428
0.014567535
-0.0024664832
-0.00086612865
0.018147282
-0.0026463283
-0.00093341882
0.021967697
-0.0028203972
-0.0010000181
0.026030342
-0.0029949969
-0.001067648
0.030342788
-0.0031751642
-0.0011372824
0.034918206
-0.0033658011
-0.0012096163
0.039776676
-0.0035727505
-0.0012857199
0.044947708
-0.0038034684
-0.0013675634
0.05047224
-0.0040664325
-0.0014580999
0.056403714
-0.0043706208
-0.0015608527
0.062807835
-0.0047245845
-0.0016795366
0.069761479
-0.0051362832
-0.0018173608
0.077352031
-0.005613376
-0.001977176
0.085672206
-0.0061600719
-0.0021601032
0.094835576
-0.0067936572
-0.0023697124
-0.0074936632
0.10492938
-0.0026001424
-1.0235257e-07
1.7786625e-07
-4.5256399e-07
6.0860068e-07
-1.1310483e-06
1.1790962e-06
-2.2406036e-06
1.9282219e-06
-3.9121416e-06
2.9048202e-06
-6.311696e-06
4.1699061e-06
-9.6489255e-06
5.7992597e-06
-1.4187306e-05
7.8863607e-06
-2.0256206e-05
1.054565e-05
-2.8264959e-05
1.3915997e-05
-3.8718973e-05
1.8164219e-05
-5.2237698e-05
2.3488317e-05
-6.9574109e-05
3.0120054e-05
-9.1634861e-05
3.8326143e-05
-0.00011949994
4.8407309e-05
-0.00015443991
6.0694049e-05
-0.00019792804
7.5537839e-05
-0.0002516441
9.329644e-05
-0.00031746551
0.00011431204
-0.00039744129
0.00013888136
-0.00049374431
0.00016721808
-0.00060859826
0.00019940919
-0.00074417811
0.00023536912
-0.00090248575
0.00027479744
-0.0010852069
0.00031714697
-0.0012935583
0.00036160771
-0.0015281338
0.00040710598
-0.0017887523
0.00045230839
-0.0020742981
0.00049560801
-0.002382526
0.00053506314
-0.0027097884
0.00056826245
-0.0030506398
0.00059210429
-0.0033972873
0.00060252235
-0.0037388887
0.00059417667
-0.0040605409
0.00055994884
-0.0043420314
0.00049191717
-0.0045580615
0.0003806572
-0.0046763531
0.00021169928
-0.00465774
-2.4225808e-05
-0.0044563277
-0.00033875242
-0.004022364
-0.00073948761
-0.0033058317
-0.0012270461
-0.0022617046
-0.001792801
-0.00085706351
-0.0024172724
0.00092511473
-0.0030706991
0.0030788817
-0.0037167924
0.0055834263
-0.0043273352
0.0084078852
-0.0048845987
0.011520427
-0.0053859643
0.014895775
-0.0058418318
0.018519063
-0.0062696163
0.022385767
-0.0066871008
0.02649946
-0.0071086898
0.030869458
-0.007545162
0.035510254
-0.0080065978
0.040442806
-0.0085053023
0.045697217
-0.0090578792
0.051314798
-0.0096840132
0.057349457
-0.01040528
0.063867269
-0.011242396
0.070945904
-0.012214918
0.078673099
-0.013340571
0.087142704
-0.014629677
0.096469748
-0.016120702
-0.017766204
0.10674229
-1.0154595e-07
2.794122e-07
-4.4905314e-07
9.5610787e-07
-1.1223857e-06
1.8524288e-06
-2.2236569e-06
3.0294932e-06
-3.8829282e-06
4.5640916e-06
-6.2651914e-06
6.5521692e-06
-9.5788344e-06
9.1129027e-06
-1.408582e-05
1.2393347e-05
-2.0113729e-05
1.6573558e-05
-2.8069843e-05
2.1872111e-05
-3.8457267e-05
2.8551643e-05
-5.1892995e-05
3.6924045e-05
-6.9127502e-05
4.7354562e-05
-9.1065187e-05
6.0263828e-05
-0.00011878436
7.6126485e-05
-0.00015355506
9.5464743e-05
-0.00019685196
0.00011883474
-0.00025035918
0.00014680366
-0.00031596263
0.00017991549
-0.0003957254
0.00021864412
-0.00049184136
0.00026333404
-0.00060656333
0.00031413116
-0.00074210382
0.00037090962
-0.0009005099
0.00043320351
-0.0010835175
0.00050015459
-0.0012923938
0.000570484
-0.0015277764
0.00064248858
-0.0017895132
0.00071404518
-0.0020764933
0.00078258814
-0.0023864428
0.00084501258
-0.0027156413
0.00089746097
-0.0030585147
0.00093497767
-0.0034070586
0.00095106631
-0.0037500848
0.00093720281
-0.004072444
0.00088230806
-0.0043537254
0.00077319858
-0.0045667425
0.00059367431
-0.0046786397
0.00032359644
-0.0046485767
-5.4288839e-05
-0.0044295033
-0.00055782579
-0.0039701423
-0.0011988486
-0.0032192689
-0.0019779194
-0.0021318501
-0.0028802199
-0.00067559797
-0.0038735245
0.0011601637
-0.0049064607
0.0033675347
-0.0059241634
0.0059205898
-0.0068803903
0.0087852871
-0.007749296
0.011929021
-0.0085296977
0.015328211
-0.0092410219
0.018971549
-0.0099129548
0.022858968
-0.01057452
0.02699847
-0.011248192
0.031403094
-0.011949786
0.036090017
-0.012693521
0.041081729
-0.013497014
0.046408922
-0.014385072
0.052112731
-0.015387822
0.058246685
-0.016539234
0.064876233
-0.017871944
0.072078876
-0.019417562
0.0799417
-0.021203394
0.088559049
-0.023247026
0.098046175
-0.025607827
-0.028212454
0.10849242
-9.9146253e-08
3.7855845e-07
-4.3854104e-07
1.2955027e-06
-1.0963104e-06
2.5101981e-06
-2.1723622e-06
4.105545e-06
-3.7939806e-06
6.18571e-06
-6.1226775e-06
8.8808661e-06
-9.3625311e-06
1.2352756e-05
-1.3770186e-05
1.6801001e-05
-1.9666756e-05
2.2470128e-05
-2.7451728e-05
2.9657083e-05
-3.7618967e-05
3.8718883e-05
-5.0774685e-05
5.0079762e-05
-6.7657072e-05
6.4236949e-05
-8.9156881e-05
8.1763637e-05
-0.00011633785
0.00010330745
-0.00015045518
0.00012958208
-0.00019296964
0.0001613492
-0.00024555387
0.00019938789
-0.00031008688
0.0002444485
-0.00038863192
0.00029718916
-0.0004833929
0.00035809503
-0.00059664511
0.00042738337
-0.00073063763
0.00050490213
-0.00088746829
0.00059003417
-0.0010689354
0.00068162168
-0.0012763743
0.00077792291
-0.0015104877
0.000876602
-0.0017711742
0.00097473164
-0.0020573473
0.0010687613
-0.0023667205
0.0011543857
-0.0026955132
0.0012262537
-0.0030380298
0.0012774943
-0.0033860633
0.0012990998
-0.0037281194
0.001279259
-0.0040485458
0.0012027344
-0.004326063
0.0010507157
-0.0045327512
0.00080036252
-0.004634535
0.00042538024
-0.0045883835
-0.00010044033
-0.0043451766
-0.00080103261
-0.0038517528
-0.0016922724
-0.0030553259
-0.0027743463
-0.0019107123
-0.0040248335
-0.00038940217
-0.0053948347
0.0015150095
-0.0068108724
0.0037870387
-0.0081961926
0.006394273
-0.0094876246
0.0092982659
-0.010653289
0.012465527
-0.011696959
0.015875142
-0.012650637
0.019520998
-0.013558811
0.023409361
-0.014462883
0.027554454
-0.015393284
0.031974537
-0.016369869
0.036690559
-0.017409544
0.041727118
-0.018533572
0.047115494
-0.019773448
0.052896196
-0.021168524
0.0591217
-0.022764739
0.065856227
-0.024606471
0.073176542
-0.026737877
0.081168854
-0.029195706
0.089927763
-0.032005935
0.099569308
-0.035249372
-0.038826564
0.11018342
-9.5156767e-08
4.7371522e-07
-4.210406e-07
1.6213865e-06
-1.0528421e-06
3.1419996e-06
-2.0867339e-06
5.1394368e-06
-3.6452713e-06
7.7442475e-06
-5.8840262e-06
1.1119621e-05
-8.9996442e-06
1.5468374e-05
-1.3239577e-05
2.1040934e-05
-1.8913626e-05
2.8144178e-05
-2.6407558e-05
3.7151014e-05
-3.619875e-05
4.8510075e-05
-4.8873942e-05
6.2754954e-05
-6.514868e-05
8.0511687e-05
-8.5888029e-05
0.00010250299
-0.00011212734
0.00012954676
-0.0001450916
0.00016254634
-0.00018621095
0.00020246854
-0.00023712912
0.00025030607
-0.00029970101
0.00030702038
-0.00037597419
0.00037346234
-0.00046814959
0.00045027044
-0.00057851644
0.00053775022
-0.000709358
0.00063574368
-0.00086282776
0.00074350394
-0.001040799
0.00085959294
-0.001244695
0.00098181889
-0.0014753083
0.0011072153
-0.0017326155
0.0012320389
-0.0020155817
0.0013517274
-0.0023219319
0.001460736
-0.0026478477
0.0015521695
-0.0029875336
0.0016171801
-0.0033326041
0.0016441703
-0.003671264
0.0016179188
-0.0039873084
0.0015187789
-0.0042587915
0.0013221988
-0.0044569101
0.0009984811
-0.0045453271
0.00051379721
-0.0044791237
-0.00016664373
-0.0042064265
-0.0010737298
-0.0036712766
-0.0022274224
-0.0028189421
-0.0036266808
-0.001604809
-0.0052389666
-3.5852487e-06
-0.0069960584
0.0019837851
-0.0087982427
0.004331401
-0.010543809
0.0069987478
-0.012154971
0.0099421625
-0.013596704
0.013127584
-0.014882381
0.016537783
-0.016060835
0.02017303
-0.017194058
0.024047019
-0.018336872
0.028181172
-0.019527438
0.03259989
-0.020788586
0.037328707
-0.022138361
0.042394951
-0.023599817
0.047830811
-0.025209307
0.053676181
-0.027013895
0.059982246
-0.029070803
0.066811701
-0.031435926
0.074240225
-0.034166402
0.082352966
-0.037308446
0.091244419
-0.040897389
0.10103102
-0.045035968
-0.049598451
0.1118029
-8.9605823e-08
5.6332104e-07
-3.9667818e-07
1.9284589e-06
-9.9229982e-07
3.7376212e-06
-1.9673946e-06
6.1145316e-06
-3.4378592e-06
9.2147121e-06
-5.5508534e-06
1.3232615e-05
-8.4924847e-06
1.8410006e-05
-1.2497064e-05
2.5045514e-05
-1.7858203e-05
3.3505316e-05
-2.4941856e-05
4.4234668e-05
-3.4201477e-05
5.7769696e-05
-4.6195278e-05
7.4748755e-05
-6.1605401e-05
9.5921811e-05
-8.1258482e-05
0.00012215607
-0.00010614678
0.00015443506
-0.00013744843
0.00019384799
-0.00017654465
0.00024156476
-0.00022503095
0.00029879237
-0.00028471843
0.00036670786
-0.00035762037
0.00044636428
-0.00044591869
0.00053856876
-0.00055190502
0.00064373655
-0.00067789171
0.00076173037
-0.00082609084
0.00089170308
-0.00099846282
0.0010319649
-0.0011965398
0.0011798959
-0.0014212333
0.0013319088
-0.0016726318
0.0014834373
-0.001949788
0.0016288836
-0.0022504759
0.0017614238
-0.0025708758
0.0018725695
-0.0029051314
0.0019514357
-0.0032447162
0.0019837551
-0.0035775704
0.0019507731
-0.0038870005
0.001828209
-0.0041503239
0.0015855222
-0.0043375349
0.001185692
-0.0044100991
0.00058636145
-0.0043204546
-0.00025628823
-0.0040133062
-0.0013808782
-0.0034290161
-0.0028117125
-0.0025102777
-0.0045454192
-0.0012128406
-0.0065364036
0.00048247087
-0.0086913699
0.0025647378
-0.01088051
0.0049968735
-0.012975944
0.007728024
-0.014886122
0.010709076
-0.016577755
0.013906476
-0.018079781
0.017308215
-0.019462574
0.020922053
-0.020807896
0.024769496
-0.022184315
0.028879225
-0.023637167
0.033281977
-0.025191338
0.038008319
-0.026864703
0.043088896
-0.028680394
0.048557392
-0.030677803
0.054453557
-0.03291006
0.060827458
-0.035444705
0.067740177
-0.038348645
0.075266047
-0.041692271
0.083488955
-0.045531355
0.092503348
-0.049911781
0.10242653
-0.054959155
-0.060520128
0.11334821
-8.2532057e-08
6.458531e-07
-3.6561545e-07
2.2115422e-06
-9.1506813e-07
4.2870739e-06
-1.8150804e-06
7.0145439e-06
-3.1729746e-06
1.0572606e-05
-5.1250619e-06
1.5184702e-05
-7.84379e-06
2.1128734e-05
-1.1546414e-05
2.8748137e-05
-1.6505393e-05
3.8464296e-05
-2.3060722e-05
5.0789997e-05
-3.163433e-05
6.6343304e-05
-4.2746655e-05
8.586108e-05
-5.7035179e-05
0.00011021034
-7.52748e-05
0.00014039569
-9.8399103e-05
0.00017755936
-0.00012752152
0.0002229704
-0.00016395442
0.00027799767
-0.00020922353
0.00034406148
-0.00026507372
0.00042255805
-0.00033346193
0.00051475249
-0.00041653117
0.000621638
-0.00051655954
0.00074376492
-0.000635879
0.00088104983
-0.00077675953
0.0010325836
-0.00094125799
0.0011964634
-0.0011310361
0.001369674
-0.0013471544
0.0015480271
-0.0015898518
0.0017261347
-0.0018583115
0.0018973434
-0.0021504006
0.002053513
-0.0024623432
0.0021845121
-0.0027882695
0.002277362
-0.0031195595
0.002315045
-0.0034439331
0.0022751467
-0.0037442531
0.0021285289
-0.0039970448
0.0018383139
-0.0041708922
0.0013595395
-0.0042249388
0.00064040796
-0.0041082912
-0.00037293575
-0.0037614013
-0.0017277682
-0.0031200261
-0.0034530877
-0.0021237717
-0.0055416736
-0.00072943253
-0.0079307428
0.001073148
-0.01049395
0.0032609084
-0.01306827
0.0057831577
-0.015498193
0.0085777367
-0.017680701
0.01159067
-0.019590688
0.014790825
-0.021279936
0.018173654
-0.022845403
0.021755793
-0.024390035
0.025566579
-0.025995102
0.029641132
-0.02771172
0.034015823
-0.029566029
0.038726188
-0.031575068
0.043806625
-0.03376083
0.049292986
-0.036164164
0.055225567
-0.038842641
0.061653775
-0.041872913
0.068637158
-0.045332027
0.076248499
-0.049303613
0.084570096
-0.053852951
0.093696378
-0.059038063
0.10374535
-0.065008125
-0.071579278
0.1148045
-7.3976376e-08
7.1982948e-07
-3.2803476e-07
2.4656006e-06
-8.2160709e-07
4.7806462e-06
-1.6306951e-06
7.8236319e-06
-2.8521775e-06
1.1794089e-05
-4.6091032e-06
1.6941628e-05
-7.0571858e-06
2.3576816e-05
-1.0392719e-05
3.208367e-05
-1.4862082e-05
4.2933658e-05
-2.0773128e-05
5.6701043e-05
-2.8508584e-05
7.407876e-05
-3.8541597e-05
9.5894093e-05
-5.1453523e-05
0.00012312226
-6.7953624e-05
0.00015689579
-8.8900421e-05
0.00019850616
-0.00011532355
0.00024939354
-0.00014844483
0.00031111894
-0.00018969606
0.00038531272
-0.00024073037
0.00047359235
-0.00030342211
0.00057744424
-0.00037985023
0.00069806612
-0.00047225767
0.00083617236
-0.00058298027
0.00099177242
-0.00071433863
0.001163942
-0.00086849042
0.0013506152
-0.0010472433
0.0015484269
-0.0012518359
0.0017526198
-0.0014826965
0.0019569952
-0.0017391843
0.0021538312
-0.0020193075
0.0023336361
-0.0023193814
0.002484586
-0.0026335657
0.0025915463
-0.002953194
0.0026346733
-0.0032658058
0.0025877586
-0.0035538475
0.0024165706
-0.0037930183
0.0020774847
-0.0039503588
0.00151688
-0.0039823917
0.00067244077
-0.0038342979
-0.00052102948
-0.0034413871
-0.002120679
-0.0027339052
-0.0041605696
-0.0016479641
-0.0066276147
-0.00014227216
-0.0094364347
0.0017778956
-0.012414118
0.0040780595
-0.015368434
0.0066910488
-0.018111183
0.0095433118
-0.020532964
0.012577609
-0.022624986
0.015767727
-0.024470054
0.019119072
-0.026196748
0.022658698
-0.02792966
0.026423792
-0.029760195
0.030454625
-0.031742554
0.034791693
-0.033903097
0.039474747
-0.036258122
0.044542107
-0.03882819
0.05003245
-0.041654508
0.055987349
-0.044797539
0.062456119
-0.048341683
0.069497014
-0.052372922
0.077181259
-0.056987858
0.085589445
-0.062261137
0.094816634
-0.068265252
0.10498144
-0.075172931
-0.082765171
0.11616733
-6.3987596e-08
7.8381707e-07
-2.8414668e-07
2.6857597e-06
-7.1242764e-07
5.2089272e-06
-1.4152314e-06
8.5264357e-06
-2.4771578e-06
1.2856015e-05
-4.0056381e-06
1.8470108e-05
-6.136647e-06
2.5707825e-05
-9.0416526e-06
3.4988676e-05
-1.2936087e-05
4.6828093e-05
-1.808951e-05
6.1854465e-05
-2.4837734e-05
8.0826984e-05
-3.3597108e-05
0.00010465347
-4.4881105e-05
0.00013440626
-5.931911e-05
0.00017133379
-7.767743e-05
0.00021686448
-0.00010088172
0.00027259783
-0.00013003987
0.00034027709
-0.00016646329
0.00042173614
-0.00021168407
0.00051881313
-0.00026746325
0.00063322341
-0.00033578458
0.00076638745
-0.00041882683
0.00091921461
-0.00051890543
0.001091851
-0.00063837574
0.0012834123
-0.00077949132
0.0014917307
-0.00094421514
0.0017131507
-0.001133988
0.0019423926
-0.0013494635
0.0021724707
-0.0015902203
0.002394588
-0.0018544489
0.0025978648
-0.0021385842
0.0027687212
-0.0024368547
0.0028898168
-0.0027406111
0.0029384298
-0.0030372227
0.0028843702
-0.0033087341
0.002688082
-0.0035299807
0.0022987313
-0.0036663344
0.0016532336
-0.0036714106
0.00067751699
-0.0034859167
-0.00070652338
-0.0030392618
-0.0025673339
-0.0022555008
-0.0049443306
-0.0010676675
-0.0078154481
0.00055951211
-0.011063614
0.0026069432
-0.014461549
0.0050208637
-0.017782355
0.0077183231
-0.020808642
0.01061599
-0.023430631
0.013656289
-0.025665285
0.016820861
-0.027634625
0.020127059
-0.029502946
0.023613235
-0.031415836
0.027324293
-0.033471253
0.031304493
-0.035722754
0.035596671
-0.038195275
0.040243424
-0.040904875
0.04528669
-0.043871455
0.050768473
-0.047136291
0.056732317
-0.050761384
0.063228059
-0.054837424
0.07031299
-0.059457854
0.07805694
-0.064731808
0.086538926
-0.070743124
0.095854963
-0.077581289
0.10612268
-0.085440644
-0.094062752
0.11742026
-5.2654421e-08
8.3647149e-07
-2.3434779e-07
2.8674531e-06
-5.8851877e-07
5.5630982e-06
-1.1706244e-06
9.1085413e-06
-2.0512568e-06
1.3736647e-05
-3.3199972e-06
1.9738849e-05
-5.0901966e-06
2.7478025e-05
-7.5048249e-06
3.7403304e-05
-1.0743672e-05
5.006694e-05
-1.5032044e-05
6.6142838e-05
-2.0651373e-05
8.6446313e-05
-2.7951796e-05
0.00011195389
-3.7367195e-05
0.00014382166
-4.9432734e-05
0.00018339933
-6.4805004e-05
0.00023223675
-8.4284609e-05
0.00029207743
-0.00010884045
0.00036483294
-0.00013963465
0.00045253034
-0.00017804534
0.00055722382
-0.00022568391
0.00068086198
-0.00028440086
0.0008251044
-0.00035627238
0.00099108614
-0.00044355824
0.0011791369
-0.00054861981
0.0013884739
-0.0006737888
0.0016168997
-0.00082117998
0.0018605419
-0.00099244946
0.0021136621
-0.001188506
0.0023685273
-0.0014091892
0.0026152711
-0.0016529183
0.0028415939
-0.0019162924
0.0030320954
-0.0021935884
0.0031671129
-0.002476134
0.0032209754
-0.0027511984
0.0031594345
-0.0030004125
0.0029372962
-0.0031977075
0.0024960263
-0.0033066622
0.0017621883
-0.0032777649
0.00064861973
-0.0030468564
-0.00093743192
-0.0025370825
-0.0030771078
-0.0016659207
-0.0058154923
-0.00036255318
-0.0091188156
0.001394104
-0.012820271
0.0035695747
-0.01663702
0.0060901121
-0.020302892
0.0088571331
-0.023575663
0.011780473
-0.026353971
0.014806614
-0.028691426
0.017928525
-0.030756537
0.021176617
-0.032751038
0.024599838
-0.034839056
0.028249777
-0.037121192
0.032173748
-0.039646725
0.036415631
-0.042437158
0.041019369
-0.045508614
0.046029671
-0.048881756
0.051491979
-0.052598599
0.057452406
-0.056721811
0.063961943
-0.061346961
0.071077361
-0.066573272
0.078867498
-0.072521946
0.087410219
-0.079285844
0.096802315
-0.086973386
0.10715875
-0.09579708
-0.10545751
0.11855351
-4.0153043e-08
8.7662454e-07
-1.7937373e-07
3.0066738e-06
-4.5166082e-07
5.8353853e-06
-9.0032381e-07
9.5572043e-06
-1.5803849e-06
1.4416709e-05
-2.5615593e-06
2.0720023e-05
-3.931961e-06
2.8848426e-05
-5.8027161e-06
3.9274059e-05
-8.3136548e-06
5.2577879e-05
-1.1640362e-05
6.9469545e-05
-1.6002842e-05
9.0808792e-05
-2.1676202e-05
0.00011762725
-2.9003596e-05
0.00015114905
-3.8412028e-05
0.00019280776
-5.0431059e-05
0.00024425578
-6.5714942e-05
0.00030736132
-8.506793e-05
0.00038418592
-0.00010947189
0.0004769343
-0.00014011488
0.0005878668
-0.00017841724
0.00071916433
-0.00022605016
0.00087273732
-0.00028493826
0.0010499742
-0.00035723614
0.0012514348
-0.00044526504
0.0014765027
-0.00055139592
0.0017230306
-0.00067786885
0.0019870148
-0.00082654451
0.0022623377
-0.000998593
0.0025405758
-0.0011941488
0.0028108269
-0.001411934
0.0030593791
-0.001648796
0.0032689573
-0.001898995
0.0034173119
-0.0021538273
0.0034758076
-0.0024002998
0.003405907
-0.0026196448
0.0031566411
-0.0027848472
0.0026612287
-0.0028575777
0.0018349188
-0.0027850906
0.00057613262
-0.0024982566
-0.0012242658
-0.001914243
-0.0036611214
-0.00094497657
-0.0067847588
0.00047816158
-0.010541954
0.0023721449
-0.014714255
0.0046709521
-0.018935827
0.0072815081
-0.022913448
0.010093904
-0.026388059
0.013015698
-0.029275765
0.01600309
-0.031678819
0.019064348
-0.033817795
0.02224325
-0.03592994
0.025596875
-0.038192681
0.029180892
-0.040705209
0.033044481
-0.043510314
0.037232041
-0.046624719
0.041787917
-0.050064489
0.046758493
-0.053852333
0.05219223
-0.058032336
0.058138124
-0.062667705
0.064648911
-0.067857747
0.071781409
-0.07370577
0.079604025
-0.080344562
0.088193571
-0.08787539
0.0976464
-0.096426215
0.10807433
-0.10622501
-0.11693053
0.11954734
-2.6696202e-08
9.0332074e-07
-1.2017179e-07
3.1001494e-06
-3.0421284e-07
6.0194263e-06
-6.0898294e-07
9.8619744e-06
-1.0726194e-06
1.4880345e-05
-1.743279e-06
2.1390683e-05
-2.6816507e-06
2.9786798e-05
-3.9641661e-06
4.0556575e-05
-5.687037e-06
5.430075e-05
-7.9713699e-06
7.1753878e-05
-1.09697e-05
9.3807123e-05
-1.487424e-05
0.00012153179
-1.9927445e-05
0.00015620226
-2.6435367e-05
0.00019931569
-3.4784417e-05
0.00025260483
-4.5462215e-05
0.00031803911
-5.9082823e-05
0.00039780653
-7.641653e-05
0.00049426801
-9.8423232e-05
0.00060987351
-0.00012628691
0.00074702802
-0.00016144687
0.00090789727
-0.0002056177
0.0010941451
-0.00026078646
0.0013066035
-0.00032917201
0.0015448883
-0.00041312893
0.0018069875
-0.00051498152
0.0020888674
-0.0006367848
0.002384141
-0.00077995878
0.0026837498
-0.00094488312
0.0029757513
-0.0011305428
0.0032450388
-0.0013339899
0.0034724044
-0.0015495916
0.0036329136
-0.0017686583
0.0036948744
-0.0019778801
0.0036151288
-0.0021578874
0.0033366485
-0.0022805367
0.002783878
-0.0023055553
0.0018599374
-0.0021768562
0.00044743348
-0.0018208055
-0.0015803165
-0.0011493353
-0.0043325916
-7.1489539e-05
-0.0078626045
0.001477681
-0.012091124
0.0035048184
-0.016741392
0.0059120642
-0.021343073
0.0085858675
-0.025587251
0.011410626
-0.029212818
0.014297323
-0.032162462
0.017218184
-0.034599679
0.020200607
-0.036800219
0.023301255
-0.039030588
0.026581708
-0.041473134
0.030097784
-0.044221285
0.03389857
-0.0473111
0.038028837
-0.050754985
0.042533235
-0.054568887
0.047459026
-0.058778124
0.052856877
-0.063430187
0.058778558
-0.068589387
0.065278928
-0.074358117
0.072415528
-0.08084237
0.080256932
-0.088185966
0.088878631
-0.096497088
0.098375514
-0.1059231
0.1088585
-0.116708
-0.12846399
0.12039196
-1.2803951e-08
9.1612469e-07
-5.898737e-08
3.1463328e-06
-1.5169289e-07
6.1121319e-06
-3.0735209e-07
1.0017634e-05
-5.4647786e-07
1.5119471e-05
-8.9464959e-07
2.1738855e-05
-1.3838106e-06
3.0275959e-05
-2.0539374e-06
4.1226701e-05
-2.9552829e-06
5.5202095e-05
-4.1513812e-06
7.2949976e-05
-5.7230985e-06
9.537884e-05
-7.7742533e-06
0.00012358295
-1.0439176e-05
0.00015886718
-1.3893118e-05
0.00020276963
-1.8366238e-05
0.00025707795
-2.4162187e-05
0.00032383506
-3.1682273e-05
0.00040532662
-4.145602e-05
0.00050404176
-5.4177813e-05
0.0006225953
-7.0748773e-05
0.00076359898
-9.2319757e-05
0.00092946826
-0.00012032857
0.0011221539
-0.00015651953
0.0013427945
-0.00020292814
0.0015912969
-0.00026180918
0.0018658686
-0.00033547854
0.0021625368
-0.00042608855
0.002474751
-0.00053543559
0.0027930968
-0.00066393568
0.0031042514
-0.00081085648
0.0033919596
-0.00097297679
0.0036345247
-0.0011452599
0.0038051968
-0.0013189387
0.0038685531
-0.0014803993
0.0037765893
-0.0016094327
0.0034656819
-0.0016766756
0.0028511209
-0.0016398222
0.001823084
-0.0014396975
0.00024730875
-0.00099835622
-0.0020216578
-0.00022372157
-0.0051072262
0.00097115126
-0.0090574774
0.0026472242
-0.013767197
0.0047976273
-0.018891795
0.0072890053
-0.023834451
0.0099893649
-0.028287611
0.012785913
-0.032009366
0.015599735
-0.034976283
0.018425372
-0.037425316
0.021311887
-0.039686734
0.024326974
-0.042045675
0.027532745
-0.044678904
0.030981055
-0.047669596
0.034718332
-0.051048378
0.038789268
-0.054825921
0.043239252
-0.059018871
0.048116239
-0.063655112
0.053472312
-0.068786259
0.059361496
-0.074478571
0.065840828
-0.080837449
0.072969133
-0.087970675
0.080815584
-0.096032417
0.089454029
-0.10513553
0.098977435
-0.1154465
0.10949827
-0.12722884
-0.14003892
0.1210732
1.249534e-09
9.1487516e-07
3.0362903e-09
3.144546e-06
3.12612e-09
6.112042e-06
-8.7504352e-10
1.0021635e-05
-1.1436381e-08
1.5130032e-05
-3.105e-08
2.1758468e-05
-6.2186995e-08
3.0307096e-05
-1.0742577e-07
4.127194e-05
-1.6973615e-07
5.5264405e-05
-2.5324017e-07
7.303348e-05
-3.6463521e-07
9.5490235e-05
-5.1573176e-07
0.00012373404
-7.2768763e-07
0.00015907913
-1.0377787e-06
0.00020307972
-1.5097446e-06
0.00025754992
-2.2490335e-06
0.00032457435
-3.4243003e-06
0.00040650189
-5.2968499e-06
0.00050591431
-8.2586615e-06
0.00062555711
-1.2879054e-05
0.00076821937
-1.9957581e-05
0.00093654678
-3.0577209e-05
0.0011327735
-4.6146811e-05
0.0013583641
-6.8416236e-05
0.0016135663
-9.9443774e-05
0.0018968961
-0.00014150318
0.0022045962
-0.00019679929
0.0025300471
-0.00026754055
0.0028638381
-0.0003541573
0.0031908681
-0.0004549902
0.0034927925
-0.00056804668
0.0037475812
-0.00068834542
0.0039254955
-0.00080651257
0.0039867203
-0.00090854011
0.0038786169
-0.00097346343
0.0035306052
-0.00097056487
0.0028482224
-0.00085564432
0.0017081635
-0.00056678189
-4.1553676e-05
-2.3016322e-05
-0.0025654233
0.0008691589
-0.0059994014
0.0021934934
-0.010381812
0.0039952364
-0.01556894
0.0062498711
-0.02114643
0.0087923761
-0.026376956
0.011471106
-0.030966341
0.01419457
-0.03473283
0.016896518
-0.037678232
0.019600488
-0.040129286
0.02237706
-0.042463306
0.025301046
-0.044969661
0.02843134
-0.047809199
0.031812881
-0.051051136
0.035487085
-0.054722581
0.039497508
-0.058836345
0.04389053
-0.063411893
0.048715112
-0.068479694
0.054024327
-0.074095474
0.059873801
-0.080328046
0.06632248
-0.087286128
0.073430711
-0.095078906
0.081268533
-0.10387024
0.089908301
-0.1137753
0.099441518
-0.12497972
0.10998311
-0.13777042
-0.15163712
0.12158131
1.4534392e-08
9.0034077e-07
6.1675287e-08
3.0974051e-06
1.4959591e-07
6.0241214e-06
2.893635e-07
9.8818671e-06
4.958166e-07
1.4923579e-05
7.8869393e-07
2.1465591e-05
1.1938973e-06
2.9901893e-05
1.7450179e-06
4.072082e-05
2.4849247e-06
5.4524499e-05
3.4673644e-06
7.2051041e-05
4.7582983e-06
9.4199301e-05
6.4366717e-06
0.00012205567
8.5937948e-06
0.00015692201
1.1330888e-05
0.00020034263
1.4753171e-05
0.00025412763
1.8959318e-05
0.0003203682
2.402408e-05
0.00040143712
2.9972614e-05
0.00049996577
3.6743671e-05
0.00061878605
4.4141743e-05
0.0007608213
5.177818e-05
0.00092891035
5.9006156e-05
0.0011255455
6.4859385e-05
0.0013525109
6.8012367e-05
0.0016104133
6.6793886e-05
0.0018981146
5.9294412e-05
0.0022120956
4.3524713e-05
0.0025458168
1.815092e-05
0.0028892119
-1.9262133e-05
0.0032282812
-6.8643423e-05
0.0035421738
-0.00012597333
0.0038049111
-0.00018555417
0.0039850763
-0.00023805636
0.0040392225
-0.00026879937
0.0039093599
-0.00025594986
0.0035177557
-0.00016763704
0.0027599096
4.2404717e-05
0.0014981217
0.00043892437
-0.00043807333
0.0011036985
-0.0032301974
0.0021294701
-0.0070251731
0.0035941436
-0.011846485
0.0055183251
-0.017493122
0.0078493541
-0.023477459
0.010397864
-0.028925466
0.013004409
-0.033572886
0.015608827
-0.037337247
0.018160833
-0.040230238
0.020722039
-0.042690492
0.023379395
-0.045120662
0.026208729
-0.047798994
0.029262544
-0.050863014
0.032577751
-0.054366344
0.036189515
-0.058334345
0.040138859
-0.062785689
0.044472706
-0.067745741
0.049241339
-0.073248327
0.054498822
-0.079352957
0.060301911
-0.086131134
0.066711008
-0.093695225
0.073787841
-0.10215574
0.081603391
-0.11168579
0.090228799
-0.12240071
0.09975494
-0.13450586
0.11029736
-0.14831285
-0.16323478
0.12189503
2.6175546e-08
8.7416522e-07
1.1338045e-07
3.0102002e-06
2.7924945e-07
5.8582524e-06
5.4700297e-07
9.6141136e-06
9.4713375e-07
1.4523448e-05
1.5194299e-06
2.0893295e-05
2.3154832e-06
2.910584e-05
3.4016363e-06
3.9634666e-05
4.8623857e-06
5.3063749e-05
6.8042209e-06
7.0109205e-05
9.3596389e-06
9.1643883e-05
1.2691084e-05
0.00011872422
1.6994301e-05
0.00015261879
2.2500108e-05
0.00019483682
2.94737e-05
0.00024715404
3.8209493e-05
0.00031163241
4.9019696e-05
0.00039062692
6.2213699e-05
0.00048677177
7.8066287e-05
0.00060293347
9.6771457e-05
0.00074211613
0.00011838207
0.00090729973
0.00014273686
0.0011011907
0.00016938347
0.0013258642
0.00019751362
0.0015822832
0.00022593749
0.0018696907
0.00025313563
0.0021848975
0.00027755106
0.0025214014
0.0002988725
0.0028678904
0.00031617339
0.0032109803
0.00032762769
0.0035307195
0.00033541506
0.0037971237
0.00034618073
0.0039743107
0.00037023743
0.0040151658
0.00042312572
0.0038564716
0.00052790305
0.0034129784
0.00071802904
0.0025697836
0.0010407422
0.0011754086
0.0015620246
-0.00095935578
0.0023650239
-0.0040331967
0.0035405272
-0.0082006764
0.0051538522
-0.01345981
0.0071902463
-0.019529516
0.0095610793
-0.025848292
0.012071232
-0.031435619
0.014575674
-0.036077328
0.016995485
-0.039757058
0.019365949
-0.042600702
0.02177141
-0.045095953
0.02430565
-0.047654903
0.027038789
-0.050532133
0.030014619
-0.053838845
0.03326257
-0.057614294
0.0368118
-0.061883575
0.040699651
-0.06667354
0.044972417
-0.072018507
0.049681531
-0.07795744
0.054882226
-0.084553652
0.060632256
-0.091881164
0.066993063
-0.10005603
0.074027376
-0.10919005
0.081806977
-0.11946539
0.090401986
-0.13099572
0.099903651
-0.14400753
0.1104259
-0.15883509
-0.17480447
0.12199559
3.6611779e-08
8.3755344e-07
1.5965264e-07
2.8871594e-06
3.9523634e-07
5.6226687e-06
7.7753745e-07
9.2318125e-06
1.3511052e-06
1.3949881e-05
2.1737675e-06
2.0070632e-05
3.3201655e-06
2.7959442e-05
4.8860312e-06
3.8068801e-05
6.9932916e-06
5.0956489e-05
9.7958965e-06
6.73066e-05
1.3486428e-05
8.7953352e-05
1.8303132e-05