/*--------------------------------*- C++ -*----------------------------------*\
  =========                 |
  \\      /  F ield         | OpenFOAM: The Open Source CFD Toolbox
   \\    /   O peration     | Website:  https://openfoam.org
    \\  /    A nd           | Version:  13
     \\/     M anipulation  |
\*---------------------------------------------------------------------------*/
FoamFile
{
    format      ascii;
    class       volScalarField;
    location    "29.601673";
    object      k;
}
// * * * * * * * * * * * * * * * * * * * * * * * * * * * * * * * * * * * * * //

dimensions      [0 2 -2 0 0 0 0];

internalField   nonuniform List<scalar> 
17140
(
1.2460615e-11
3.9155564e-10
3.2018676e-09
1.3769875e-08
4.2373114e-08
1.069239e-07
2.3709781e-07
4.8050599e-07
9.1181182e-07
1.6460937e-06
2.8583133e-06
4.8115265e-06
7.897558e-06
1.2695355e-05
2.0054264e-05
3.12122e-05
4.7962184e-05
7.2885132e-05
0.00010967177
0.00016356141
0.00024192794
0.00035503906
0.00051699328
0.00074678215
0.0010692954
0.0015158298
0.002123212
0.0029300138
0.0039678896
0.0052470651
0.0067396228
0.0083722388
0.010041737
0.011649719
0.013132162
0.014465583
0.015655148
0.016720416
0.017685657
0.018575258
0.019412383
0.02021886
0.021015544
0.021822711
0.022660586
0.023549357
0.024508062
0.02555492
0.026709402
0.027991498
0.029422784
0.031028365
0.032837159
0.034880396
0.037188392
0.039790676
0.042724628
0.046012686
0.049701489
0.053699615
0.057653512
0.060732466
0.061948184
0.061335408
0.060355632
1.239388e-11
3.8945864e-10
3.1847281e-09
1.3696237e-08
4.2146826e-08
1.0635386e-07
2.3583631e-07
4.7795536e-07
9.0698446e-07
1.6374045e-06
2.8432745e-06
4.7863021e-06
7.8563195e-06
1.2629353e-05
1.9950505e-05
3.1051567e-05
4.77168e-05
7.2514689e-05
0.00010911848
0.00016274321
0.00024072947
0.00035330012
0.00051449488
0.00074323093
0.0010643094
0.0015089317
0.0021138431
0.0029175874
0.0039519093
0.0052273194
0.0067163104
0.0083459673
0.010013292
0.011620187
0.013102656
0.014436756
0.015627374
0.016693833
0.017660251
0.01855098
0.019389169
0.020196684
0.020994481
0.021803029
0.022642871
0.023534672
0.024498107
0.02555232
0.026717972
0.028016928
0.029473788
0.031115834
0.032975844
0.035087702
0.037479482
0.040165514
0.043144289
0.046362117
0.049753202
0.053050757
0.055896322
0.057686094
0.058033945
0.057116863
0.055327944
1.2241803e-11
3.8467983e-10
3.1456503e-09
1.3528189e-08
4.1629771e-08
1.0504941e-07
2.3294469e-07
4.7209755e-07
8.9587433e-07
1.6173598e-06
2.8084938e-06
4.7278049e-06
7.7604012e-06
1.2475351e-05
1.9707585e-05
3.0674142e-05
4.7138043e-05
7.163744e-05
0.00010780264
0.00016078854
0.00023785265
0.00034910496
0.00050843562
0.00073457044
0.0010520789
0.001491908
0.0020905736
0.0028865134
0.0039116393
0.0051770501
0.0066564374
0.0082783622
0.0099408955
0.011545694
0.013027928
0.014362898
0.015554881
0.016622817
0.017590621
0.01848257
0.019321804
0.020130237
0.020928941
0.021738595
0.022580073
0.023474507
0.024442267
0.025503541
0.026680519
0.027997268
0.029481292
0.031164775
0.033085952
0.035284775
0.037792179
0.040614754
0.043722502
0.046999689
0.050244357
0.053175748
0.055249508
0.056203628
0.055949656
0.054362607
0.048774911
1.1997338e-11
3.7699787e-10
3.0828324e-09
1.3258042e-08
4.0798518e-08
1.0295207e-07
2.2829469e-07
4.6267576e-07
8.7800005e-07
1.5851013e-06
2.7525e-06
4.6335891e-06
7.6058369e-06
1.2227043e-05
1.9315645e-05
3.0064713e-05
4.6202697e-05
7.0218264e-05
0.00010567152
0.00015761876
0.00023318089
0.00034228184
0.00049856444
0.00072043736
0.0010320858
0.0014640353
0.0020524245
0.0028355289
0.0038455936
0.00509486
0.0065589545
0.0081685923
0.0098231475
0.011424204
0.012905743
0.014241698
0.01543534
0.016505024
0.017474385
0.018367593
0.01920778
0.020016915
0.020816191
0.021626507
0.022469062
0.023365436
0.024336713
0.025404218
0.026591818
0.027926138
0.029438546
0.031167139
0.033158405
0.035462139
0.038118157
0.041135017
0.044468633
0.047960407
0.051313806
0.05412064
0.055882954
0.05659436
0.05608217
0.053063479
0.040038155
1.1663549e-11
3.6650908e-10
2.9970625e-09
1.2889188e-08
3.9663523e-08
1.0008826e-07
2.2194506e-07
4.4980941e-07
8.535893e-07
1.5410426e-06
2.6760166e-06
4.5048841e-06
7.394669e-06
1.1887761e-05
1.8780037e-05
2.9231773e-05
4.4924101e-05
6.8277927e-05
0.00010275716
0.00015328292
0.00022678858
0.00033294229
0.00048504618
0.00070107062
0.0010046671
0.0014257697
0.0019999795
0.002765319
0.0037544398
0.00498107
0.0064234895
0.0080154863
0.0096584323
0.011253836
0.012734023
0.014070975
0.015266516
0.016338178
0.017309211
0.018203644
0.019044594
0.019854086
0.020653429
0.021463734
0.022306515
0.023203749
0.024177221
0.025249446
0.026446072
0.02779661
0.029337057
0.031112842
0.033181105
0.035605571
0.038441202
0.041709333
0.045368691
0.049242691
0.052983524
0.056122955
0.057917206
0.058720881
0.058057998
0.052884756
0.031745614
1.1243381e-11
3.5330596e-10
2.8890969e-09
1.2424878e-08
3.8234775e-08
9.6483168e-08
2.1395159e-07
4.3361141e-07
8.2285591e-07
1.4855687e-06
2.5797101e-06
4.3428076e-06
7.1287226e-06
1.1460421e-05
1.8105331e-05
2.818237e-05
4.3312958e-05
6.5832456e-05
9.9083238e-05
0.00014781551
0.0002187252
0.00032115615
0.00046797749
0.00067660067
0.00096999287
0.0013773231
0.0019334807
0.0026761157
0.0036383218
0.004835637
0.0062496937
0.007818287
0.0094455248
0.011032978
0.012510896
0.013848701
0.015046291
0.016120093
0.017092841
0.017988373
0.018829772
0.01963911
0.020437798
0.021247138
0.022088926
0.022985462
0.023959179
0.025033777
0.02623674
0.027600711
0.029166967
0.030989599
0.033138817
0.035695325
0.038735562
0.042304103
0.046379381
0.050793359
0.055162385
0.059013075
0.061319105
0.062373012
0.060651602
0.052647476
0.026142043
1.0741916e-11
3.3754821e-10
2.7602414e-09
1.1870729e-08
3.6529556e-08
9.2180385e-08
2.0441092e-07
4.1427755e-07
7.8617123e-07
1.4193496e-06
2.4647427e-06
4.149314e-06
6.8112012e-06
1.0950162e-05
1.7299628e-05
2.6929068e-05
4.1388489e-05
6.2910885e-05
9.4693099e-05
0.00014128045
0.00020908394
0.00030705747
0.00044754822
0.00064729138
0.00092842108
0.0013191648
0.0018535152
0.0025686039
0.0034979541
0.004659169
0.0060378707
0.0075768006
0.009183653
0.01076035
0.012234727
0.01357303
0.014772692
0.015848705
0.016823118
0.017719504
0.018560884
0.019369356
0.020166401
0.020973482
0.021812618
0.022706332
0.023677603
0.024751252
0.025956566
0.027329464
0.028916996
0.030782998
0.033012364
0.035705936
0.038965094
0.042864962
0.047417823
0.052494275
0.057694636
0.062323671
0.065221052
0.065842999
0.06191697
0.046681388
0.018546492
1.0166664e-11
3.1947183e-10
2.6124256e-09
1.1235037e-08
3.4573401e-08
8.7244349e-08
1.9346591e-07
3.9209727e-07
7.4408438e-07
1.3433763e-06
2.3328345e-06
3.9272967e-06
6.4468502e-06
1.0364604e-05
1.6374946e-05
2.5490532e-05
3.9179296e-05
5.9556507e-05
8.9651527e-05
0.00013377365
0.00019800519
0.0002908493
0.00042404818
0.00061354977
0.00088051188
0.0012520452
0.001761051
0.0024439667
0.0033346684
0.0044529839
0.0057890665
0.0072915288
0.0088726242
0.010435113
0.011904201
0.013242349
0.014443929
0.015522097
0.016498002
0.017394854
0.018235561
0.019042212
0.01983632
0.020639447
0.021473757
0.022361876
0.023327163
0.024395428
0.02559764
0.026973002
0.028574651
0.030476888
0.032780372
0.035608278
0.039085197
0.043317485
0.048360097
0.05413435
0.06008176
0.065361357
0.068330374
0.067198293
0.059571379
0.033135267
0.010220699
9.5274974e-12
2.9938696e-10
2.448185e-09
1.0528707e-08
3.2399868e-08
8.1759736e-08
1.813043e-07
3.67451e-07
6.9731711e-07
1.2589515e-06
2.1862469e-06
3.6805611e-06
6.0419119e-06
9.7137749e-06
1.5347104e-05
2.3891349e-05
3.6723074e-05
5.5826433e-05
8.4044095e-05
0.00012542198
0.00018567505
0.00027280163
0.00039786422
0.00057592213
0.00082702275
0.00117699
0.0016574325
0.0023038862
0.0031504321
0.0042191626
0.0055051687
0.006963804
0.0085129711
0.010056992
0.011518416
0.012855346
0.014058437
0.015138529
0.016115598
0.01701235
0.017851507
0.018655101
0.019444621
0.020241646
0.021068367
0.021947388
0.022902217
0.023959442
0.025151502
0.026520776
0.028126603
0.030054008
0.032420275
0.035370615
0.03904958
0.043575776
0.049019078
0.055309317
0.061691768
0.067081323
0.068728976
0.064526376
0.04906707
0.01631254
0.0049369483
8.8364143e-12
2.7767074e-10
2.2706044e-09
9.7650054e-09
3.0049779e-08
7.5829549e-08
1.6815449e-07
3.4080162e-07
6.4674772e-07
1.1676605e-06
2.0277323e-06
3.413739e-06
5.603986e-06
9.0098829e-06
1.4235376e-05
2.2161476e-05
3.4065785e-05
5.1790342e-05
7.7975303e-05
0.00011638055
0.00017232142
0.00025324583
0.00036947258
0.00053508375
0.00076889567
0.0010952854
0.0015443662
0.0021505371
0.0029478608
0.0039605962
0.0051890038
0.0065959374
0.0081061236
0.0096264415
0.011077012
0.0124111
0.013614939
0.014696482
0.015674182
0.016570049
0.017406516
0.01820549
0.018988365
0.019776636
0.020592344
0.021457957
0.022396837
0.023436064
0.024609275
0.025961836
0.027559239
0.029497693
0.031912718
0.03496868
0.038819058
0.043559987
0.049184274
0.055597903
0.061699793
0.065473883
0.06393532
0.054205683
0.024473606
0.0072391451
0.0021811936
8.1072007e-12
2.5475633e-10
2.083226e-09
8.9591656e-09
2.7570005e-08
6.9572067e-08
1.5427877e-07
3.1268065e-07
5.9338481e-07
1.071324e-06
1.8604518e-06
3.1321512e-06
5.1418039e-06
8.266959e-06
1.3061912e-05
2.0335363e-05
3.12603e-05
4.7528441e-05
7.1565535e-05
0.00010682825
0.00015820759
0.00023256546
0.00033942609
0.00049182167
0.00070723444
0.0010084503
0.0014238898
0.0019865588
0.0027302057
0.0036810099
0.0048444201
0.0061913698
0.0076546089
0.0091448471
0.010580344
0.011909211
0.013112535
0.014194718
0.015172242
0.016066166
0.016898491
0.017690894
0.018464606
0.019240909
0.020041486
0.020888463
0.021804826
0.022817746
0.023961798
0.02528518
0.026859609
0.028795878
0.031245882
0.03438781
0.038366608
0.04318242
0.048541348
0.054163565
0.05802996
0.057042704
0.049748438
0.026539997
0.008554223
0.002622408
0.00085621624
7.3549593e-12
2.3111829e-10
1.8899299e-09
8.1278749e-09
2.5011902e-08
6.3116877e-08
1.3996448e-07
2.8367049e-07
5.3833356e-07
9.7193742e-07
1.68787e-06
2.8416293e-06
4.6649369e-06
7.5003867e-06
1.1851006e-05
1.8450802e-05
2.8364649e-05
4.3128813e-05
6.4947109e-05
9.6961937e-05
0.00014362364
0.00021118406
0.00030833692
0.00044701075
0.00064327273
0.00091819528
0.001298323
0.0018150021
0.0025013093
0.0033849509
0.0044763396
0.0057548124
0.0071622711
0.0086147791
0.010029708
0.011349974
0.012550827
0.013632362
0.014608534
0.015499114
0.01632547
0.017108911
0.017870398
0.018630869
0.01941144
0.020233582
0.021119683
0.022096608
0.023199725
0.024480074
0.026018581
0.027945762
0.030416768
0.033617019
0.037637083
0.042207514
0.046128
0.048558267
0.046314518
0.038458962
0.01990458
0.0079634679
0.0026286239
0.00088269018
0.00034803683
6.5955055e-12
2.0725362e-10
1.6947808e-09
7.2886138e-09
2.2429262e-08
5.6599729e-08
1.2551267e-07
2.5438122e-07
4.8275176e-07
8.7159093e-07
1.513617e-06
2.5482847e-06
4.1834164e-06
6.726292e-06
1.062813e-05
1.6547431e-05
2.5439727e-05
3.868395e-05
5.8259081e-05
8.6988712e-05
0.00012887532
0.00018954892
0.00027685347
0.0004015814
0.00057832978
0.00082636364
0.0011701926
0.0016392419
0.002265516
0.0030777216
0.0040907549
0.0052923507
0.006634493
0.0080402873
0.0094276454
0.010734632
0.011930109
0.013009036
0.013982171
0.014867555
0.015685654
0.016457223
0.017202797
0.01794281
0.018697626
0.019487678
0.02033449
0.021264288
0.022313431
0.023537398
0.025036636
0.026952783
0.029421199
0.032593243
0.036336862
0.039528503
0.039232746
0.034893998
0.023370624
0.011999538
0.00570003
0.0022999137
0.00083971407
0.00034634794
0.00018894694
5.84473e-12
1.8366164e-10
1.5018611e-09
6.4589396e-09
1.9876113e-08
5.0156963e-08
1.1122568e-07
2.2542567e-07
4.2780248e-07
7.7238455e-07
1.3413398e-06
2.2582574e-06
3.707323e-06
5.9608829e-06
9.4188925e-06
1.4665118e-05
2.2546805e-05
3.4286972e-05
5.1641576e-05
7.7117524e-05
0.00011427153
0.00016811302
0.00024563433
0.00035648252
0.00051375876
0.00073486111
0.0010421398
0.0014628604
0.002027538
0.0027652498
0.0036946486
0.0048114755
0.0060783833
0.0074272201
0.0087783048
0.010065718
0.011251634
0.012325059
0.013292759
0.014170487
0.014977446
0.0157336
0.016458843
0.017172853
0.01789511
0.018644582
0.019441612
0.020311482
0.021292803
0.022455731
0.023920696
0.025816891
0.028197105
0.030940228
0.033101275
0.031474861
0.025381803
0.012711867
0.0067730967
0.0033732549
0.0016039577
0.00070706149
0.00032079276
0.00018700189
0.00014110496
5.1178111e-12
1.6081931e-10
1.3150717e-09
5.6556278e-09
1.7404081e-08
4.3918864e-08
9.739244e-08
1.9738948e-07
3.745972e-07
6.7632526e-07
1.1745243e-06
1.9774172e-06
3.2462944e-06
5.2196585e-06
8.2477897e-06
1.2842007e-05
1.974454e-05
3.0027092e-05
4.5228962e-05
6.7548995e-05
0.00010010943
0.00014731311
0.00021531662
0.00031263625
0.00045088277
0.00064556683
0.00091679977
0.0012894896
0.0017922609
0.0024538729
0.0032958016
0.0043209962
0.0055028771
0.0067835289
0.008087876
0.0093474911
0.010517999
0.011581735
0.012540606
0.013407378
0.014199518
0.014935884
0.015635445
0.016316825
0.016998298
0.017697119
0.018432107
0.01922681
0.020131617
0.02124041
0.022661495
0.024470655
0.026345291
0.027081971
0.024561779
0.016339372
0.0078814432
0.0037057155
0.0019028268
0.00097178439
0.00050375335
0.00027201315
0.00017325125
0.00013911404
0.00012587721
4.4285481e-12
1.3916029e-10
1.1379588e-09
4.893932e-09
1.5060112e-08
3.8003902e-08
8.4275693e-08
1.7080521e-07
3.2414673e-07
5.8523841e-07
1.016341e-06
1.7111038e-06
2.8090993e-06
4.5167235e-06
7.1371192e-06
1.1112838e-05
1.708638e-05
2.5985656e-05
3.9143885e-05
5.8466497e-05
8.6661123e-05
0.00012755017
0.00018648733
0.00027089623
0.00039093473
0.00056024775
0.00079668064
0.0011226457
0.0015645241
0.0021500658
0.0029024965
0.0038307971
0.0049186648
0.0061194581
0.0073650045
0.008586457
0.0097336349
0.010781769
0.011727024
0.012578366
0.013350916
0.014061982
0.014729209
0.015369833
0.016000323
0.016636066
0.017294456
0.017998188
0.018831428
0.019874091
0.021161453
0.022457402
0.022137405
0.01887034
0.0099551514
0.0048809399
0.0022864508
0.0010937253
0.00058457483
0.00033675447
0.00021415599
0.00015524737
0.00013121249
0.00012397245
0.00011950105
3.7886143e-12
1.1905138e-10
9.7352191e-10
4.1867495e-09
1.2883892e-08
3.2512236e-08
7.2097575e-08
1.4612314e-07
2.7730581e-07
5.0066755e-07
8.6947148e-07
1.463833e-06
2.4031555e-06
3.8640119e-06
6.1057527e-06
9.5070226e-06
1.4617601e-05
2.2231631e-05
3.3490445e-05
5.0025914e-05
7.4158421e-05
0.00010916682
0.00015965004
0.00023199885
0.00033498618
0.00048045513
0.00068401513
0.00096551699
0.0013488272
0.0018600536
0.0025230528
0.0033513714
0.0043378848
0.0054475398
0.0066211126
0.007791901
0.0089053993
0.0099297816
0.010854724
0.011684507
0.012431147
0.01310978
0.013736136
0.014325477
0.014891682
0.015447798
0.016009285
0.016618942
0.017370365
0.018233589
0.018907923
0.017980858
0.014376942
0.0067645015
0.0030321809
0.0014379593
0.00070654136
0.00037935403
0.00023808345
0.00017148154
0.00013860295
0.00012370222
0.00011857574
0.00011772778
0.0001142966
3.2071009e-12
1.0077822e-10
8.2409621e-10
3.5441242e-09
1.0906332e-08
2.7521873e-08
6.1031085e-08
1.2369395e-07
2.3474006e-07
4.2381484e-07
7.3600409e-07
1.2391229e-06
2.0342414e-06
3.2708224e-06
5.1683993e-06
8.0474958e-06
1.2373533e-05
1.8818877e-05
2.8350035e-05
4.2349347e-05
6.2783348e-05
9.2432994e-05
0.00013520341
0.00019653089
0.00028389853
0.0004074511
0.00058064903
0.0008207959
0.0011490768
0.0015894382
0.0021653063
0.0028931817
0.0037734656
0.0047821611
0.0058703853
0.0069762559
0.0080431429
0.0090328959
0.0099282904
0.010728052
0.011440204
0.01207685
0.012650918
0.013174459
0.013657664
0.014109685
0.014543543
0.015052324
0.015610101
0.015745866
0.01439913
0.010026344
0.0046258029
0.0020618325
0.00094109418
0.00047984655
0.00027786557
0.00018746027
0.0001474602
0.00012827426
0.00011847313
0.0001146201
0.00011387089
0.00011288054
0.00010961876
2.6901479e-12
8.4533738e-11
6.9125944e-10
2.9728422e-09
9.1483154e-09
2.3085518e-08
5.1193127e-08
1.0375466e-07
1.9689943e-07
3.55493e-07
6.1735118e-07
1.0393529e-06
1.7062681e-06
2.7434521e-06
4.3350275e-06
6.7498168e-06
1.0378175e-05
1.5784054e-05
2.3778203e-05
3.5520408e-05
5.2661127e-05
7.7535564e-05
0.00011342567
0.00016490633
0.00023828828
0.0003421557
0.00048796006
0.00069055288
0.00096838987
0.0013428926
0.0018361459
0.0024659904
0.0032383081
0.0041387082
0.0051292309
0.0061550543
0.0071600324
0.0081012034
0.0089545881
0.0097126738
0.010378466
0.010959835
0.011465388
0.011902114
0.012273486
0.01258011
0.012850846
0.013135591
0.012951797
0.011274839
0.0066698344
0.0031494391
0.0014200279
0.00066619237
0.00034962322
0.00021971031
0.00016247366
0.00013595176
0.00012332083
0.0001163774
0.00011261907
0.00011151669
0.00010926221
0.00010827737
0.00010572729
2.2403959e-12
7.0400969e-11
5.7569109e-10
2.4758251e-09
7.618836e-09
1.9225875e-08
4.2634064e-08
8.6407364e-08
1.6397784e-07
2.9605245e-07
5.1412184e-07
8.6555e-07
1.4209239e-06
2.284622e-06
3.6099501e-06
5.6207291e-06
8.641956e-06
1.3143148e-05
1.9799293e-05
2.9576008e-05
4.3847598e-05
6.4559015e-05
9.4444985e-05
0.00013732066
0.00019845597
0.000285036
0.00040668312
0.00057595906
0.00080865216
0.0011234634
0.0015404447
0.0020773596
0.0027434907
0.0035320249
0.0044150144
0.0053460781
0.0062721809
0.0071477168
0.0079427862
0.0086432912
0.0092460967
0.009753132
0.010166252
0.010484169
0.010697177
0.010802745
0.010786739
0.010342507
0.0085314267
0.0044387717
0.0020968824
0.00098134866
0.00048449995
0.00027460736
0.00018689322
0.00014905315
0.00013091559
0.00012160919
0.0001164027
0.00011280772
0.00011042865
0.00010759256
0.00010511539
0.00010449657
0.00010254481
1.8573678e-12
5.8364912e-11
4.7726844e-10
2.0525459e-09
6.3162722e-09
1.5938857e-08
3.5344848e-08
7.1633784e-08
1.3594067e-07
2.4543092e-07
4.2620855e-07
7.1753435e-07
1.1779166e-06
1.8938684e-06
2.9924477e-06
4.6591408e-06
7.1632578e-06
1.0893827e-05
1.6410058e-05
2.4511849e-05
3.633752e-05
5.3497931e-05
7.8258077e-05
0.00011377837
0.00016442657
0.00023616423
0.0003369925
0.00047739921
0.00067066556
0.00093274487
0.0012812151
0.0017326199
0.0022976404
0.0029745595
0.0037436762
0.0045671679
0.0053969908
0.0061872278
0.0069034971
0.0075251718
0.008041723
0.0084466329
0.0087319596
0.0088813421
0.0088633952
0.0086819851
0.007985933
0.0058838602
0.0029910197
0.00141261
0.00068051898
0.00036091639
0.00022506223
0.00016769515
0.00014212561
0.00012925258
0.00012264375
0.0001178593
0.00011406575
0.0001106878
0.00010666406
0.0001045215
0.00010266695
0.00010146475
9.9714819e-05
1.5372467e-12
4.8305599e-11
3.9501015e-10
1.6987837e-09
5.2276356e-09
1.3191689e-08
2.9252809e-08
5.9286658e-08
1.1250852e-07
2.031241e-07
3.527358e-07
5.9383272e-07
9.7482922e-07
1.5673085e-06
2.4763927e-06
3.8555288e-06
5.9274766e-06
9.0139627e-06
1.3577348e-05
2.0278802e-05
3.0058888e-05
4.4248045e-05
6.4716052e-05
9.40705e-05
0.00013591338
0.00019515957
0.00027840649
0.00039431182
0.00055387329
0.00077039427
0.0010587576
0.0014334629
0.001904907
0.0024740055
0.0031268618
0.0038329901
0.0045500555
0.0052337208
0.0058467446
0.0063622611
0.0067609075
0.0070248613
0.0071308803
0.0070471982
0.0067380851
0.0059084114
0.003804656
0.001932685
0.00095733367
0.00048456286
0.00027750522
0.00019132602
0.00015523125
0.00013846145
0.00012999365
0.00012420319
0.00011981644
0.00011543401
0.00011085682
0.0001069517
0.00010436135
0.00010239336
0.00010007424
9.9072364e-05
9.748096e-05
1.2729985e-12
4.0002001e-11
3.2710887e-10
1.4067661e-09
4.3290081e-09
1.0924016e-08
2.4224106e-08
4.909473e-08
9.316664e-08
1.6820264e-07
2.9208975e-07
4.917282e-07
8.0720178e-07
1.2977721e-06
2.0504578e-06
3.1922616e-06
4.9075182e-06
7.462385e-06
1.1239223e-05
1.6784534e-05
2.4875243e-05
3.6609383e-05
5.3528405e-05
7.7779027e-05
0.00011232156
0.00016118718
0.00022977485
0.00032515311
0.00045628331
0.00063399668
0.00087043397
0.0011775245
0.0015640749
0.0020314479
0.0025689033
0.0031511854
0.0037411129
0.004296868
0.0047796251
0.0051564689
0.0053980887
0.0054725013
0.0053565507
0.0049753896
0.0040964628
0.0023747141
0.0012377465
0.00063785271
0.00035182505
0.00022271997
0.00016822384
0.00014670882
0.00013648154
0.00013111881
0.00012647265
0.00012171754
0.00011641067
0.00011133479
0.00010787875
0.00010514938
0.00010229866
0.0001002026
9.8343756e-05
9.7055274e-05
9.5618041e-05
1.0547403e-12
3.3143577e-11
2.7102541e-10
1.165573e-09
3.5867859e-09
9.0510374e-09
2.0070693e-08
4.067687e-08
7.7191699e-08
1.3936054e-07
2.420022e-07
4.0740168e-07
6.6876377e-07
1.0751755e-06
1.6987062e-06
2.6445206e-06
4.0652161e-06
6.1810406e-06
9.3082302e-06
1.3898435e-05
2.0593069e-05
3.029737e-05
4.4279732e-05
6.4302169e-05
9.2786516e-05
0.0001330167
0.00018936705
0.0002675254
0.00037464045
0.00051925766
0.00071081501
0.00095837408
0.0012682584
0.0016405657
0.0020653258
0.0025201895
0.0029718244
0.0033810124
0.0037080688
0.0039148769
0.0039621765
0.0038279654
0.0034435879
0.0025726995
0.0014615158
0.00077835079
0.00042705233
0.00025958846
0.00018438943
0.00015276469
0.00014007893
0.0001352431
0.0001321828
0.00012876234
0.00012323022
0.00011710968
0.00011263428
0.00010932292
0.00010609967
0.00010280909
0.00010041375
9.8504673e-05
9.6388036e-05
9.5274266e-05
9.4083537e-05
8.7039576e-13
2.735084e-11
2.2365646e-10
9.6185776e-10
2.9598962e-09
7.4691053e-09
1.6562709e-08
3.3567181e-08
6.3699456e-08
1.1500111e-07
1.9969977e-07
3.3618287e-07
5.5184573e-07
8.8718248e-07
1.401636e-06
2.1819235e-06
3.3538262e-06
5.0987858e-06
7.6771108e-06
1.1460155e-05
1.6974465e-05
2.496154e-05
3.6457247e-05
5.2894747e-05
7.6233125e-05
0.0001091094
0.0001550018
0.00021837327
0.00030473174
0.00042049204
0.0005724574
0.0007666783
0.0010064661
0.001289581
0.0016052185
0.0019322676
0.0022402084
0.0024926047
0.0026503122
0.0026718473
0.0025387401
0.0021704437
0.0014794439
0.00085396452
0.0004826063
0.00028855097
0.0001959207
0.00015711518
0.00014053459
0.00013524764
0.00013409005
0.00013305654
0.00013075252
0.00012486373
0.00011840824
0.0001142539
0.00011084079
0.0001068618
0.0001036027
0.00010110251
9.8730046e-05
9.6868444e-05
9.5119322e-05
9.401754e-05
9.2886534e-05
7.0726095e-13
2.2224583e-11
1.8173746e-10
7.815806e-10
2.405132e-09
6.0691807e-09
1.3458334e-08
2.727549e-08
5.1759525e-08
9.344418e-08
1.6226381e-07
2.7315609e-07
4.4837384e-07
7.2080364e-07
1.1387074e-06
1.7724621e-06
2.7240859e-06
4.1406145e-06
6.2327345e-06
9.300486e-06
1.3768268e-05
2.0231724e-05
2.9519119e-05
4.2769148e-05
6.1524952e-05
8.7839194e-05
0.00012437545
0.00017447404
0.00024212291
0.00033173482
0.00044758674
0.00059276317
0.00076748939
0.00096693513
0.0011791399
0.0013840539
0.0015544051
0.0016579679
0.0016575005
0.0015421311
0.0012425659
0.00081537688
0.00048549722
0.00029565786
0.00019504022
0.00015303364
0.00013491996
0.00013107414
0.00013200483
0.000133887
0.00013410286
0.00013245974
0.00012704743
0.00011991008
0.00011586154
0.00011201702
0.00010790035
0.00010468588
0.00010215545
9.9398775e-05
9.7391822e-05
9.5554749e-05
9.3696381e-05
9.2661361e-05
9.1709405e-05
5.550386e-13
1.7441229e-11
1.4262244e-10
6.1336188e-10
1.8874734e-09
4.7628836e-09
1.0561558e-08
2.1404475e-08
4.061773e-08
7.3327727e-08
1.2732815e-07
2.1433597e-07
3.5180191e-07
5.6550685e-07
8.9326607e-07
1.3901838e-06
2.1360585e-06
3.2457385e-06
4.883464e-06
7.2824892e-06
1.0771497e-05
1.5809395e-05
2.3029761e-05
3.3295128e-05
4.7758689e-05
6.7925883e-05
9.5699088e-05
0.00013337366
0.00018353184
0.00024875442
0.00033105021
0.00043091983
0.00054606051
0.00066988606
0.00079040758
0.00089002922
0.00094629163
0.00093546027
0.00084309095
0.00063820141
0.00041808325
0.00027019848
0.00017935934
0.00013738042
0.00011812936
0.00011868515
0.000122425
0.00012992037
0.00013631574
0.00013617841
0.000134537
0.00012899686
0.0001213312
0.0001172125
0.00011321654
0.00010919889
0.00010614266
0.00010310858
0.0001002725
9.7992771e-05
9.5973509e-05
9.4205813e-05
9.2628658e-05
9.172062e-05
9.0860319e-05
4.0972112e-13
1.287485e-11
1.0528161e-10
4.5277267e-10
1.3932903e-09
3.5158164e-09
7.7960956e-09
1.5799504e-08
2.9980571e-08
5.4121777e-08
9.3972318e-08
1.5817272e-07
2.5958591e-07
4.1720293e-07
6.5885503e-07
1.025048e-06
1.5743405e-06
2.3908158e-06
3.5943355e-06
5.3543874e-06
7.9083869e-06
1.158514e-05
1.6833614e-05
2.4255797e-05
3.4639741e-05
4.8983969e-05
6.8496543e-05
9.4540604e-05
0.00012848425
0.0001713992
0.00022355615
0.00028372765
0.0003483242
0.00041066214
0.00046060622
0.0004849341
0.00047042705
0.00040734769
0.00030376161
0.00021087021
0.00014591142
0.00011298119
9.6263946e-05
9.6532551e-05
0.00010302429
0.00011685222
0.00013359039
0.0001382057
0.00013826903
0.0001365721
0.00013085417
0.00012287536
0.00011872922
0.00011461925
0.0001107818
0.00010754263
0.00010414001
0.00010117932
9.8939839e-05
9.6657165e-05
9.4868354e-05
9.3193074e-05
9.1600252e-05
9.0751031e-05
8.9989957e-05
2.7595358e-13
8.6714084e-12
7.0908603e-11
3.0494663e-10
9.3838242e-10
2.3678566e-09
5.2504028e-09
1.0639934e-08
2.018865e-08
3.6441852e-08
6.3266662e-08
1.0647164e-07
1.7469695e-07
2.8068513e-07
4.4308253e-07
6.8897243e-07
1.0574018e-06
1.6042306e-06
2.408692e-06
3.5820725e-06
5.2788495e-06
7.710341e-06
1.1160264e-05
1.600026e-05
2.2701066e-05
3.1831136e-05
4.4028933e-05
5.992805e-05
8.0008518e-05
0.00010435141
0.00013228962
0.00016197036
0.00018999547
0.00021122049
0.00021905432
0.00020805578
0.00017583424
0.00013568145
0.00010255881
8.2414775e-05
7.1287919e-05
7.2294121e-05
7.8216734e-05
9.2390712e-05
0.00011981312
0.00013637587
0.00014072934
0.00014053993
0.00013878406
0.00013290372
0.00012463112
0.00012022627
0.0001160164
0.00011221326
0.00010882272
0.00010523455
0.00010239161
9.9923504e-05
9.7569034e-05
9.5471092e-05
9.375017e-05
9.2065681e-05
9.0745102e-05
9.0007745e-05
8.9297339e-05
1.6439172e-13
5.1657469e-12
4.224161e-11
1.8166045e-10
5.5899363e-10
1.4104796e-09
3.1273782e-09
6.3371302e-09
1.2023006e-08
2.1699028e-08
3.7663874e-08
6.3366977e-08
1.0393273e-07
1.6690549e-07
2.632993e-07
4.0906177e-07
6.2708909e-07
9.499534e-07
1.423511e-06
2.1115257e-06
3.1013176e-06
4.5101585e-06
6.4915543e-06
9.2395212e-06
1.2987286e-05
1.7994417e-05
2.4513396e-05
3.2724676e-05
4.2629688e-05
5.3898092e-05
6.569061e-05
7.650114e-05
8.4110519e-05
8.5600779e-05
8.0379248e-05
6.9715738e-05
5.9197855e-05
5.1631154e-05
4.6943685e-05
4.9441298e-05
5.4522819e-05
6.681791e-05
9.1520864e-05
0.00012407131
0.0001383456
0.00014302876
0.0001428364
0.0001410667
0.00013516189
0.00012649031
0.0001218995
0.00011739853
0.00011371786
0.00011021422
0.00010667249
0.00010377764
0.00010100275
9.8437386e-05
9.6325252e-05
9.4412669e-05
9.279686e-05
9.1283036e-05
8.9932617e-05
8.9248143e-05
8.8626434e-05
8.429439e-14
2.6488127e-12
2.1659851e-11
9.3146679e-11
2.8661497e-10
7.2316014e-10
1.6032876e-09
3.2484102e-09
6.1619391e-09
1.111842e-08
1.9292579e-08
3.2444707e-08
5.3184826e-08
8.5345639e-08
1.3450333e-07
2.0869501e-07
3.1938968e-07
4.8277164e-07
7.2138117e-07
1.0661101e-06
1.5584419e-06
2.2526091e-06
3.2169613e-06
4.5332172e-06
6.2914021e-06
8.5773094e-06
1.1448333e-05
1.4894505e-05
1.8784701e-05
2.2806054e-05
2.6418094e-05
2.8848597e-05
2.9473646e-05
2.8832165e-05
2.7649794e-05
2.6444744e-05
2.710467e-05
3.0467102e-05
3.5135412e-05
4.5513962e-05
6.3797299e-05
9.4434217e-05
0.00012405381
0.00013894522
0.00014497532
0.00014512863
0.00014339276
0.00013755371
0.00012857115
0.00012367451
0.00011896458
0.00011515828
0.00011167292
0.00010811546
0.00010510334
0.00010203114
9.9442924e-05
9.7269059e-05
9.5293965e-05
9.3425683e-05
9.1882421e-05
9.0337879e-05
8.9263639e-05
8.8680544e-05
8.8096356e-05
3.6723016e-14
1.153958e-12
9.4360363e-12
4.0577955e-11
1.2485351e-10
3.149942e-10
6.9827865e-10
1.41454e-09
2.6826243e-09
4.8388916e-09
8.3927536e-09
1.410607e-08
2.3105535e-08
3.7039942e-08
5.8297137e-08
9.0297958e-08
1.3788493e-07
2.0781915e-07
3.093845e-07
4.550652e-07
6.6119806e-07
9.4838699e-07
1.3412883e-06
1.8671315e-06
2.5520351e-06
3.414145e-06
4.4527931e-06
5.6343901e-06
6.8788544e-06
8.0549434e-06
9.0238697e-06
9.8376841e-06
1.0751121e-05
1.2006256e-05
1.3855438e-05
1.619607e-05
2.1396509e-05
2.9603737e-05
4.4103105e-05
6.5597097e-05
9.4951598e-05
0.00012247881
0.0001383889
0.00014651131
0.00014737134
0.00014574327
0.00014020808
0.00013077479
0.00012567609
0.00012060961
0.00011669503
0.00011303686
0.00010965402
0.00010648245
0.00010333017
0.00010070262
9.8369983e-05
9.6175214e-05
9.421965e-05
9.252741e-05
9.1079747e-05
8.9724775e-05
8.8633742e-05
8.8008882e-05
8.7467263e-05
1.4226397e-14
4.4703914e-13
3.655445e-12
1.5719153e-11
4.8363604e-11
1.2200758e-10
2.7043491e-10
5.4774347e-10
1.0385358e-09
1.8727103e-09
3.2467236e-09
5.4538497e-09
8.9267527e-09
1.4296587e-08
2.2473671e-08
3.4755248e-08
5.2965289e-08
7.9628528e-08
1.181741e-07
1.7315042e-07
2.5040922e-07
3.5718067e-07
5.0191534e-07
6.9373702e-07
9.4137445e-07
1.2516538e-06
1.6282041e-06
2.0722703e-06
2.5889371e-06
3.2040618e-06
3.9695641e-06
4.9581046e-06
6.5451663e-06
9.0151673e-06
1.2853874e-05
1.9384138e-05
2.9845142e-05
4.5396042e-05
6.6255799e-05
9.2346335e-05
0.00011857518
0.00013790706
0.00014811031
0.00014959202
0.00014812294
0.00014306592
0.00013320732
0.00012779098
0.00012246692
0.00011826652
0.00011451981
0.00011112321
0.00010800656
0.00010471695
0.00010200719
9.9394619e-05
9.707029e-05
9.5095183e-05
9.3355256e-05
9.1737007e-05
9.0324368e-05
8.8948861e-05
8.8037626e-05
8.7584319e-05
8.7035273e-05
6.3669445e-15
2.0006988e-13
1.6359749e-12
7.0350522e-12
2.1645226e-11
5.4606006e-11
1.2104105e-10
2.4517239e-10
4.6489128e-10
8.3840084e-10
1.4537844e-09
2.4426643e-09
3.9995115e-09
6.4086513e-09
1.0081558e-08
1.5607597e-08
2.3821845e-08
3.589383e-08
5.3440799e-08
7.8668532e-08
1.1454249e-07
1.6499524e-07
2.3519081e-07
3.3190971e-07
4.6422349e-07
6.4481857e-07
8.929794e-07
1.2404145e-06
1.7411636e-06
2.480638e-06
3.6044343e-06
5.3706717e-06
8.2248643e-06
1.277582e-05
1.9955318e-05
3.0545782e-05
4.5308829e-05
6.4868345e-05
8.9421315e-05
0.0001159578
0.00013893224
0.0001499489
0.00015187161
0.00015055537
0.00014605399
0.00013583871
0.00013012635
0.00012443758
0.00012005603
0.00011603483
0.00011265116
0.00010942651
0.00010626132
0.00010334001
0.00010059702
9.8205443e-05
9.6165403e-05
9.4254028e-05
9.2495179e-05
9.0952146e-05
8.9629611e-05