/*--------------------------------*- C++ -*----------------------------------*\
  =========                 |
  \\      /  F ield         | OpenFOAM: The Open Source CFD Toolbox
   \\    /   O peration     | Website:  https://openfoam.org
    \\  /    A nd           | Version:  13
     \\/     M anipulation  |
\*---------------------------------------------------------------------------*/
FoamFile
{
    format      ascii;
    class       volVectorField;
    location    "29.601673";
    object      wallShearStress;
}
// * * * * * * * * * * * * * * * * * * * * * * * * * * * * * * * * * * * * * //

dimensions      [0 2 -2 0 0 0 0];

internalField   uniform (0 0 0);

boundaryField
{
    inlet
    {
        type            calculated;
        value           uniform (0 0 0);
    }
    outlet
    {
        type            calculated;
        value           uniform (0 0 0);
    }
    cylinder
    {
        type            calculated;
        value           nonuniform List<vector> 
132
(
(-6.0230686e-06 0.0007405929 -2.4958201e-22)
(-1.307287e-05 0.00042692687 7.0983272e-23)
(-3.5672069e-06 0.00010908179 3.9135536e-21)
(2.4199248e-05 -0.00020793141 -1.3108358e-20)
(6.9293963e-05 -0.00051877456 9.2348622e-21)
(0.00013169346 -0.00081769564 2.8160897e-20)
(0.0002096249 -0.0010989506 -5.3251583e-21)
(0.00030105561 -0.0013570253 -2.1057446e-20)
(0.00040332829 -0.0015867264 1.9814166e-20)
(0.00051320644 -0.0017834538 -4.4361313e-20)
(0.00062700478 -0.0019434812 -8.0631153e-22)
(0.00074082925 -0.0020640647 2.7503512e-20)
(0.00085067092 -0.0021438359 4.4829748e-20)
(0.00095262227 -0.0021827292 -3.6405197e-20)
(0.0010433254 -0.0021825181 3.8335506e-20)
(0.0011199654 -0.0021461618 6.1721301e-20)
(0.0011810809 -0.0020788215 -4.046607e-20)
(0.0012260547 -0.0019861952 6.4958092e-20)
(0.0012563701 -0.0018760938 8.5957913e-20)
(0.0012750542 -0.0017567757 -5.5808415e-20)
(0.0012870868 -0.001637007 -7.1196753e-20)
(0.0013000063 -0.0015262685 2.5077224e-23)
(0.0013234067 -0.0014334693 1.0346432e-20)
(0.0013695504 -0.001367181 -1.2397438e-20)
(0.0014527249 -0.0013344422 -2.1104822e-20)
(0.0015875065 -0.0013390108 4.5160502e-21)
(0.0017855028 -0.0013791296 -4.0786562e-20)
(0.0020512499 -0.0014459198 1.0897552e-20)
(0.002379118 -0.0015237589 8.5549993e-21)
(0.002749017 -0.0015907886 -5.8888604e-20)
(0.0031293959 -0.0016243729 7.6784067e-20)
(0.0034884971 -0.0016091166 2.321664e-21)
(0.0037982794 -0.0015380723 1.6716209e-20)
(0.0040168056 -0.0014052806 -1.978131e-20)
(0.0040638076 -0.0012020786 6.276329e-20)
(0.00380687 -0.00092377245 -3.9636441e-21)
(0.0030815373 -0.00058731861 1.5966124e-20)
(0.0016763063 -0.00023815762 -2.1896409e-21)
(-0.00061318752 2.9396552e-05 3.138884e-21)
(-0.004017012 8.0655365e-05 -1.9567869e-21)
(-0.0088807213 -0.00030144106 3.6543099e-21)
(-0.015179782 -0.001414991 -1.1277395e-22)
(-0.022392974 -0.0034490415 4.1388546e-20)
(-0.03008241 -0.0065017117 -1.5965848e-20)
(-0.037685535 -0.010551141 1.4420786e-20)
(-0.044707714 -0.015474496 -9.2708073e-20)
(-0.050714525 -0.021053152 -1.4960793e-20)
(-0.055434071 -0.027032691 1.3139189e-19)
(-0.058671436 -0.033126465 -1.1205991e-19)
(-0.060385438 -0.039070662 -2.1388033e-21)
(-0.060570185 -0.044589034 3.4083836e-20)
(-0.059365545 -0.049487137 -3.1016408e-20)
(-0.05685546 -0.053522677 -6.0653245e-21)
(-0.053240169 -0.056550499 -3.833562e-21)
(-0.048757961 -0.058486662 -5.6591037e-21)
(-0.043573735 -0.059187679 -3.1113971e-21)
(-0.037942093 -0.058639708 6.1335467e-22)
(-0.032077732 -0.05681511 4.9241908e-20)
(-0.026204466 -0.053740086 -7.4998101e-20)
(-0.020532938 -0.049469432 -7.9908664e-20)
(-0.015259465 -0.044089518 -3.2409693e-20)
(-0.010561734 -0.037715963 -7.4265176e-20)
(-0.0065944653 -0.030489168 1.6565216e-20)
(-0.0034844971 -0.022571959 2.409967e-20)
(-0.0013345225 -0.014156757 -3.7454138e-20)
(-0.00020094239 -0.0054047181 -5.0035868e-21)
(1.816244e-05 0.0010479606 -1.1489304e-21)
(5.8836436e-05 0.0013496168 -6.8462276e-23)
(0.00011680626 0.0016433385 -3.9300825e-21)
(0.00019107655 0.0019236763 1.3172764e-20)
(0.00028046578 0.0021852165 -9.2920447e-21)
(0.00038317087 0.0024225278 -2.836897e-20)
(0.00049677287 0.0026304218 5.3702018e-21)
(0.00061822503 0.0028041731 2.1254881e-20)
(0.00074401293 0.002939703 -2.0014682e-20)
(0.00087026969 0.0030338684 4.4834496e-20)
(0.00099282067 0.0030845668 8.1519133e-22)
(0.0011075048 0.0030912036 -2.780959e-20)
(0.0012102896 0.0030544545 -4.5324952e-20)
(0.0012977603 0.0029769578 3.6796826e-20)
(0.0013671459 0.002862652 -3.8730072e-20)
(0.0014167997 0.0027171855 -6.2317701e-20)
(0.0014464033 0.002547604 4.0826661e-20)
(0.0014572546 0.0023621749 -6.5481256e-20)
(0.0014526279 0.0021703114 -8.6572447e-20)
(0.0014375059 0.0019815032 5.6155399e-20)
(0.0014190802 0.0018055667 7.1575129e-20)
(0.0014066525 0.0016519545 6.4098824e-20)
(0.0014119612 0.0015296781 5.2655586e-20)
(0.0014490742 0.0014466818 1.243532e-20)
(0.0015338556 0.0014089342 2.1158939e-20)
(0.0016817862 0.0014183915 -4.526179e-21)
(0.0019042752 0.0014706765 4.0873662e-20)
(0.0022040277 0.0015534533 -1.0922087e-20)
(0.002565769 0.0016432798 -8.5776464e-21)
(0.0029585358 0.0017121482 5.9080098e-20)
(0.0033488226 0.0017384794 -7.7093995e-20)
(0.0037047657 0.0017091482 -2.3196626e-21)
(0.0039953714 0.0016182594 3.8266843e-20)
(0.004167248 0.0014584629 1.9935775e-20)
(0.0041283151 0.0012219684 -6.3375e-20)
(0.0037335229 0.00090723695 4.0116151e-21)
(0.0028060719 0.00053708875 1.1816249e-20)
(0.0011229447 0.00016558661 2.2284678e-21)
(-0.0015120746 -0.00010139163 -3.2032548e-21)
(-0.0052991542 -0.00011219249 2.0017483e-21)
(-0.010595642 0.00035583179 -3.7441869e-21)
(-0.017290905 0.0016087631 3.0475639e-20)
(-0.024793793 0.0038158758 -4.2357203e-20)
(-0.032648216 0.0070532502 1.6294185e-20)
(-0.040250323 0.01126652 -1.4659925e-20)
(-0.047161454 0.016321304 9.381077e-20)
(-0.052959356 0.021981743 1.5053857e-20)
(-0.057399667 0.027988059 -1.313996e-19)
(-0.060325296 0.03405721 1.112602e-19)
(-0.06171165 0.039925842 2.1055975e-21)
(-0.061572082 0.045323783 -3.3189693e-20)
(-0.06006627 0.050068539 2.9750715e-20)
(-0.057270116 0.053910229 -4.5705513e-20)
(-0.053405598 0.05672355 3.3948242e-21)
(-0.048724086 0.058443249 -5.3359508e-21)
(-0.043367469 0.058904492 4.7853521e-21)
(-0.03760631 0.058117485 -7.053678e-22)
(-0.031651456 0.056056386 -5.3473729e-20)
(-0.02572555 0.05275355 7.9401423e-20)
(-0.020037502 0.048270383 8.334253e-20)
(-0.014780106 0.04269741 3.3455827e-20)
(-0.010127647 0.036155818 7.6064572e-20)
(-0.006230131 0.028788917 -1.6858577e-20)
(-0.0032095629 0.020764316 4.8375082e-20)
(-0.0011631313 0.012269892 3.7718146e-20)
(-0.00014463838 0.0034953966 5.0181198e-21)
)
;
    }
    frontAndBack
    {
        type            empty;
    }
}


// ************************************************************************* //
