/*--------------------------------*- C++ -*----------------------------------*\
  =========                 |
  \\      /  F ield         | OpenFOAM: The Open Source CFD Toolbox
   \\    /   O peration     | Website:  https://openfoam.org
    \\  /    A nd           | Version:  13
     \\/     M anipulation  |
\*---------------------------------------------------------------------------*/
FoamFile
{
    format      ascii;
    class       volScalarField;
    location    "20.499287";
    object      yPlus;
}
// * * * * * * * * * * * * * * * * * * * * * * * * * * * * * * * * * * * * * //

dimensions      [];

internalField   uniform 0;

boundaryField
{
    inlet
    {
        type            calculated;
        value           uniform 0;
    }
    outlet
    {
        type            calculated;
        value           uniform 0;
    }
    cylinder
    {
        type            calculated;
        value           nonuniform List<scalar> 
132
(
6.4363193e-07
6.3956138e-07
6.3214264e-07
6.2123953e-07
6.0680649e-07
5.8885741e-07
5.6746789e-07
5.4278094e-07
5.1501375e-07
4.8446218e-07
4.5150691e-07
4.1661307e-07
3.8033437e-07
3.4329418e-07
3.0617954e-07
2.6972597e-07
2.3465544e-07
2.0167129e-07
1.7139263e-07
1.4432195e-07
1.2084216e-07
1.0123653e-07
8.5709848e-08
7.432263e-08
6.6704553e-08
6.1698937e-08
5.7392121e-08
5.1880962e-08
4.432411e-08
3.5174407e-08
2.5720199e-08
1.7283005e-08
1.074559e-08
6.6015368e-09
5.0155002e-09
5.3846302e-09
6.5918934e-09
8.2456354e-09
1.0318356e-08
1.2863036e-08
1.6016431e-08
1.9913441e-08
2.4250073e-08
2.8959163e-08
3.3904604e-08
3.8964296e-08
4.4018027e-08
4.8965883e-08
5.3746235e-08
5.8307369e-08
6.2621784e-08
6.6673103e-08
7.0442541e-08
7.3906534e-08
7.7114083e-08
8.0050457e-08
8.2706461e-08
8.5081415e-08
8.7188225e-08
8.9034142e-08
9.0630228e-08
9.1957854e-08
9.3027018e-08
9.3837186e-08
9.4394085e-08
9.4683191e-08
6.4430432e-07
6.41564e-07
6.3547553e-07
6.2587836e-07
6.1269467e-07
5.9590275e-07
5.7554165e-07
5.5171903e-07
5.2461948e-07
4.9451124e-07
4.6175505e-07
4.2680635e-07
3.9021872e-07
3.5262965e-07
3.1473568e-07
2.7732096e-07
2.4117955e-07
2.0706165e-07
1.7566007e-07
1.4755774e-07
1.2320166e-07
1.0291258e-07
8.6869453e-08
7.5006025e-08
6.6712423e-08
6.061166e-08
5.4825123e-08
4.7823365e-08
3.9286596e-08
2.9963833e-08
2.1063292e-08
1.3636963e-08
8.3320363e-09
5.4776354e-09
5.0058387e-09
5.8481236e-09
7.2496294e-09
9.0539915e-09
1.1280522e-08
1.398749e-08
1.730737e-08
2.1363038e-08
2.5818416e-08
3.0603072e-08
3.5584068e-08
4.0633954e-08
4.5641641e-08
5.0525795e-08
5.5223002e-08
5.9695694e-08
6.3914634e-08
6.7872252e-08
7.1544797e-08
7.4909411e-08
7.8040857e-08
8.088323e-08
8.3452034e-08
8.5737832e-08
8.7764282e-08
8.9528175e-08
9.1050645e-08
9.2293286e-08
9.3288498e-08
9.4019571e-08
9.449164e-08
9.470841e-08
)
;
    }
    frontAndBack
    {
        type            empty;
    }
}


// ************************************************************************* //
