/*--------------------------------*- C++ -*----------------------------------*\
  =========                 |
  \\      /  F ield         | OpenFOAM: The Open Source CFD Toolbox
   \\    /   O peration     | Website:  https://openfoam.org
    \\  /    A nd           | Version:  13
     \\/     M anipulation  |
\*---------------------------------------------------------------------------*/
FoamFile
{
    format      ascii;
    class       volScalarField;
    location    "41.19781";
    object      omega;
}
// * * * * * * * * * * * * * * * * * * * * * * * * * * * * * * * * * * * * * //

dimensions      [0 0 -1 0 0 0 0];

internalField   nonuniform List<scalar> 
17140
(
3736295.3
603677.93
185335.27
78621.664
40006.337
22786.783
13994.065
9063.8861
6105.5549
4237.6016
3010.6912
2179.2703
1601.4824
1191.5834
895.76839
679.19751
518.70244
398.52165
307.72003
238.58077
185.57682
144.69787
113.00085
88.304449
68.978102
53.794355
41.824467
32.363979
24.879234
18.968207
14.330055
10.738247
8.0139258
6.0014262
4.5537698
3.5333525
2.8215734
2.3259814
1.9801537
1.7387711
1.5717008
1.4590362
1.388328
1.3515694
1.3395041
1.3466455
1.3725196
1.4146104
1.4712859
1.5418807
1.6267388
1.7270981
1.8440634
1.9768995
2.1259167
2.2952488
2.4864174
2.6870239
2.8621567
2.9623391
2.9958851
3.0211308
3.2325799
3.2304422
2.8579224
3736320.9
603682.56
185336.97
78622.536
40006.858
22787.126
13994.305
9064.0611
6105.6861
4237.7018
3010.7683
2179.3295
1601.5272
1191.6164
895.7915
679.21204
518.70947
398.52205
307.71456
238.57012
185.56168
144.67896
112.97899
88.280523
68.953089
53.769314
41.800502
32.342156
24.860462
18.953114
14.31886
10.730699
8.0093895
5.9991015
4.5529085
3.5333638
2.8220436
2.3266417
1.9808277
1.7393293
1.5720525
1.4591164
1.3880222
1.3507926
1.3384086
1.3450356
1.3703013
1.4116386
1.4673186
1.5365137
1.6193188
1.7166069
1.8291017
1.9557517
2.0958098
2.2509363
2.4204409
2.591765
2.737706
2.8251178
2.8702468
3.0090504
3.4663034
3.3301849
2.689914
3736345.9
603686.66
185338.24
78623.076
40007.134
22787.283
13994.401
9064.1229
6105.7274
4237.7301
3010.7879
2179.3431
1601.5365
1191.6224
895.79497
679.21346
518.70917
398.52032
307.71164
238.56625
185.55715
144.67412
112.97424
88.276379
68.950118
53.76812
41.801643
32.346063
24.867322
18.962722
14.330538
10.743359
8.0218038
6.0102636
4.5622894
3.5409045
2.8279667
2.331228
1.9843629
1.7420412
1.5740874
1.4605505
1.3888829
1.3511154
1.3384165
1.3446631
1.3695834
1.4105438
1.4657522
1.5342728
1.6160364
1.7116705
1.821583
1.9443548
2.078473
2.2244877
2.380614
2.5361731
2.6692366
2.7609946
2.8470023
3.1281303
3.6037688
3.3920957
2.4954202
3736372.1
603690.93
185339.56
78623.64
40007.422
22787.448
13994.505
9064.1913
6105.7751
4237.7649
3010.8145
2179.3643
1601.5542
1191.6378
895.80891
679.22656
518.72189
398.53302
307.72464
238.57984
185.57164
144.68983
112.99154
88.295662
68.971791
53.792567
41.829151
32.376691
24.90074
18.998054
14.366293
10.777585
8.0525353
6.0361347
4.5829078
3.5567078
2.8399053
2.3402711
1.9912165
1.7472224
1.5779794
1.4634687
1.3910416
1.3527203
1.3397361
1.3457613
1.3706131
1.4116124
1.4669219
1.5355399
1.6173055
1.7127188
1.8220155
1.9435858
2.0756223
2.2180421
2.3697028
2.523598
2.6630284
2.7702976
2.9093987
3.4359806
3.6908957
3.4259276
2.3455282
3736400.1
603695.47
185340.96
78624.232
40007.724
22787.623
13994.616
9064.267
6105.8301
4237.8074
3010.8494
2179.3946
1601.5819
1191.6643
895.83517
679.25327
518.74959
398.56214
307.75553
238.61285
185.60708
144.728
113.03276
88.340231
69.019984
53.844565
41.884949
32.435952
24.962608
19.060968
14.427918
10.835049
8.1030883
6.0780038
4.6158398
3.5818543
2.8587364
2.3542649
2.0016245
1.7550249
1.5839096
1.4680604
1.394695
1.3558134
1.3425991
1.3486301
1.3737836
1.4153622
1.4715187
1.5412463
1.6243902
1.7214625
1.832625
1.9560501
2.0897313
2.2338055
2.3897077
2.5534231
2.7075003
2.8386837
3.0595765
3.7044332
3.7762665
3.4492978
2.1710167
3736429.1
603700.15
185342.4
78624.844
40008.039
22787.807
13994.734
9064.3493
6105.892
4237.8573
3010.8924
2179.4339
1601.6197
1191.702
895.87384
679.29371
518.79241
398.60785
307.80456
238.66555
185.66378
144.78901
113.09834
88.410606
69.095294
53.924797
41.969824
32.524754
25.053961
19.15262
14.516673
10.917089
8.1748352
6.1372633
4.6624424
3.6170954
2.8848499
2.3734912
2.0158791
1.7657472
1.5921461
1.474581
1.4001135
1.360683
1.347337
1.3536789
1.3796192
1.4224801
1.4804603
1.5526357
1.6389985
1.7402617
1.85661
1.985932
2.1263789
2.2794256
2.4531401
2.6434049
2.8266305
2.9888053
3.3245786
3.9044812
3.8736482
3.4498708
1.944634
3736459.3
603704.98
185343.87
78625.476
40008.368
22788.001
13994.859
9064.4384
6105.9606
4237.9142
3010.943
2179.4817
1601.6668
1191.7501
895.92414
679.3471
518.84962
398.66945
307.87104
238.73735
185.74125
144.87245
113.188
88.506644
69.197733
54.033452
42.084161
32.643694
25.175618
19.27405
14.633795
11.025062
8.2691064
6.2149944
4.7232654
3.6629459
2.9187344
2.398455
2.0344274
1.779772
1.6030343
1.4833602
1.4076366
1.3677469
1.3544146
1.3614908
1.3888801
1.4339847
1.4951403
1.5716479
1.6638716
1.7729987
1.8992517
2.0401474
2.1947108
2.3689584
2.5786286
2.8053171
3.0049108
3.1814196
3.6170828
4.1110389
3.9780176
3.3177956
1.6156515
3736490.6
603709.98
185345.4
78626.133
40008.71
22788.204
13994.993
9064.5343
6106.0357
4237.978
3011.001
2179.5375
1601.7229
1191.8082
895.98548
679.41273
518.92036
398.74596
307.95389
238.827
185.8381
144.97681
113.30007
88.626514
69.325317
54.168392
42.225686
32.790404
25.325208
19.423028
14.777389
11.157612
8.3852007
6.3110712
4.7987914
3.7201186
2.9611546
2.4298107
2.0578214
1.79758
1.6170158
1.4948304
1.41773
1.3775531
1.3644709
1.3728857
1.4026583
1.4513719
1.5176552
1.6012755
1.7033454
1.8258559
1.9686726
2.1289042
2.3085922
2.5219715
2.775785
3.0307486
3.230209
3.435382
3.9852026
4.3635254
4.0647205
2.8729857
1.3027821
3736522
603715.13
185346.99
78626.814
40009.064
22788.414
13995.133
9064.6363
6106.1168
4238.0479
3011.0656
2179.6005
1601.7869
1191.8751
896.05672
679.48938
519.0033
398.83596
308.05157
238.93289
185.95261
145.10026
113.43267
88.768285
69.476086
54.327669
42.392517
32.963139
25.501207
19.598355
14.946678
11.314453
8.5233389
6.4262184
4.8899952
3.7896302
3.0130178
2.4683391
2.0867323
1.8197675
1.6346545
1.5095781
1.4310932
1.3907493
1.3783715
1.3890134
1.4225188
1.4768375
1.5511639
1.6461532
1.7642908
1.9084575
2.0769553
2.2681179
2.4910566
2.7659784
3.067634
3.3464314
3.5588235
3.8556692
4.5248848
4.6414315
4.0785688
2.1884837
0.94148201
3736555.2
603720.5
185348.65
78627.523
40009.432
22788.635
13995.28
9064.7443
6106.2035
4238.1233
3011.136
2179.6698
1601.8579
1191.9497
896.13648
679.57551
519.09679
398.93764
308.16214
239.05293
186.08259
145.24054
113.58344
88.929568
69.647655
54.50895
42.582429
33.159861
25.701859
19.798663
15.1408
11.495314
8.6838469
6.5612163
4.9979102
3.8725708
3.0753489
2.5149512
2.121964
1.8470658
1.6566571
1.5283431
1.4485413
1.4083057
1.3973168
1.4114951
1.4507196
1.5136335
1.6004857
1.7135652
1.8575889
2.0349955
2.2418731
2.4836056
2.7794346
3.1398793
3.504603
3.8495211
4.1225961
4.6027002
5.1543296
4.823664
3.4966874
1.4578686
0.62129176
3736589.7
603726.07
185350.36
78628.259
40009.816
22788.864
13995.433
9064.8574
6106.2948
4238.2034
3011.2111
2179.7442
1601.9343
1192.0304
896.22298
679.66914
519.19864
399.04863
308.28304
239.18439
186.22516
145.3946
113.74922
89.107106
69.836718
54.708937
42.792208
33.377523
25.924396
20.021602
15.357975
11.699124
8.8664208
6.716451
5.1233999
3.9700248
3.1492568
2.5706844
2.1644649
1.8803611
1.6838891
1.5520029
1.4710523
1.4316678
1.4230145
1.4426478
1.4905642
1.5666599
1.6731384
1.8151873
1.999769
2.2254174
2.4927799
2.8225885
3.2426599
3.7437627
4.2414497
4.7519229
5.1676223
5.7199549
5.5358092
4.7108704
2.2245657
0.85611014
0.41941577
3736625.1
603731.8
185352.14
78629.019
40010.213
22789.102
13995.592
9064.9749
6106.3899
4238.2868
3011.2896
2179.822
1602.0146
1192.1152
896.3141
679.76795
519.30629
399.16611
308.41121
239.32399
186.37678
145.5587
113.92609
89.296835
70.039113
54.923428
43.017684
33.612093
26.16505
20.263823
15.595458
11.923929
9.0700206
6.8917802
5.2670296
4.0829753
3.2358834
2.6366871
2.2153408
1.9207332
1.717459
1.5817771
1.5001046
1.4626239
1.4578664
1.4858434
1.5469924
1.6434892
1.7812228
1.9695392
2.2133836
2.5116454
2.8873025
3.3835761
4.037646
4.8154986
5.5719287
6.336444
6.5973502
6.3534822
5.502556
2.9579388
1.1346959
0.52054263
0.31067053
3736662.3
603737.8
185353.98
78629.809
40010.625
22789.348
13995.756
9065.0963
6106.4878
4238.3726
3011.3701
2179.9018
1602.0967
1192.2021
896.40741
679.8692
519.41673
399.2868
308.54308
239.46785
186.5333
145.72842
114.10939
89.493879
70.249801
55.147286
43.253708
33.85851
26.418981
20.520885
15.849413
12.166724
9.2926704
7.0863194
5.4288716
4.2121582
3.3363166
2.7141831
2.2758585
1.9694931
1.758789
1.6193293
1.5377586
1.5035776
1.5054053
1.5461331
1.6276156
1.756214
1.9446423
2.2024552
2.5314063
2.9579472
3.5440306
4.3649632
5.4592471
6.6698407
7.5245223
7.4904476
7.1312148
6.0251067
3.2603465
1.3662421
0.62709912
0.36399323
0.25227321
3736699.8
603743.92
185355.87
78630.622
40011.05
22789.601
13995.925
9065.2201
6106.5872
4238.4592
3011.4509
2179.9815
1602.1786
1192.2885
896.50021
679.96991
519.52664
399.40704
308.67465
239.61161
186.69002
145.89873
114.29377
89.692612
70.462921
55.374476
43.494151
34.110658
26.680231
20.78716
16.114771
12.423269
9.5312172
7.2981706
5.6082432
4.3578511
3.4514496
2.8044023
2.3474363
2.0282215
1.8096954
1.6669713
1.5870279
1.5578254
1.5710344
1.631372
1.7446317
1.9248679
2.1932098
2.5481666
3.0217948
3.6991829
4.691464
6.0876376
7.8228379
8.5258163
8.3394825
7.6655484
6.0828124
3.0334845
1.413059
0.70531908
0.40372657
0.28884093
0.21725207
3736738.4
603750.23
185357.82
78631.465
40011.489
22789.862
13996.098
9065.3456
6106.6869
4238.5451
3011.5303
2180.0592
1602.2579
1192.3719
896.58958
680.06681
519.6324
399.52283
308.80151
239.75048
186.84174
146.06403
114.47324
89.886691
70.671812
55.598077
43.731909
34.361356
26.941672
21.055755
16.385107
12.687894
9.7810789
7.5241153
5.8033834
4.5195873
3.5817762
2.9084688
2.4316208
2.0988135
1.872411
1.7278687
1.6518965
1.6312853
1.662998
1.7543312
1.9185934
2.18344
2.5650595
3.0770313
3.8350855
4.9967369
6.6965396
8.8097991
9.3768382
9.0789701
8.0300578
5.6079354
2.748901
1.3633575
0.72698757
0.441216
0.30592935
0.24246889
0.19302387
3736780.4
603756.99
185359.88
78632.342
40011.942
22790.13
13996.274
9065.4722
6106.786
4238.629
3011.6067
2180.133
1602.3324
1192.4496
896.67254
680.15654
519.73025
399.62999
308.91905
239.8794
186.98294
146.21833
114.64136
90.069221
70.869166
55.810416
43.959014
34.602433
27.195056
21.318513
16.65258
12.953381
10.036035
7.7593178
6.0110992
4.6958099
3.7271196
3.0272517
2.5300891
2.1837026
1.9503211
1.8063974
1.7384533
1.7331389
1.7951176
1.9370606
2.1863189
2.5859574
3.134915
3.9564494
5.272383
7.2761384
9.645275
10.184718
9.770571
8.3626682
5.1884353
2.5510011
1.3075866
0.73071945
0.45928812
0.32876157
0.25477514
0.2145736
0.17128851
3736824.8
603764.02
185362.02
78633.253
40012.412
22790.406
13996.453
9065.5986
6106.8829
4238.7093
3011.6782
2180.2006
1602.3997
1192.519
896.746
680.23562
519.81629
399.72418
309.02248
239.99308
187.10782
146.35531
114.79128
90.232838
71.04712
56.003166
44.166729
34.824817
27.431087
21.566059
16.907949
13.210916
10.288095
7.9970901
6.2264369
4.8835065
3.8863196
3.1611841
2.6446515
2.2860668
2.048323
1.9097578
1.8558649
1.8789833
1.9918008
2.220088
2.6172319
3.2186153
4.0876775
5.532272
7.8369892
10.411171
10.935765
10.438066
8.7659775
5.0366272
2.4681865
1.2903854
0.74262
0.47904928
0.34524905
0.27504432
0.22455888
0.18789837
0.15339341
3736869.6
603771.19
185364.22
78634.193
40012.895
22790.688
13996.633
9065.7236
6106.9763
4238.7845
3011.743
2180.2601
1602.4574
1192.5774
896.8069
680.30061
519.88667
399.80109
309.10699
240.08619
187.21052
146.46855
114.91601
90.369968
71.197527
56.167625
44.345832
35.018827
27.639703
21.788075
17.140808
13.450269
10.527596
8.2288648
6.442517
5.0779451
4.0569727
3.3101327
2.77735
2.4101794
2.1738106
2.0488563
2.0214812
2.0963108
2.2987339
2.6823778
3.3284637
4.2719857
5.8172253
8.3858487
11.157586
11.661931
11.106677
9.2489185
5.1182876
2.5091427
1.321682
0.77268988
0.50701181
0.36750762
0.29022673
0.23624266
0.19534671
0.16984322
0.1403462
3736913.9
603778.51
185366.48
78635.153
40013.389
22790.974
13996.814
9065.8461
6107.0651
4238.853
3011.7993
2180.3095
1602.5032
1192.6221
896.8523
680.34819
519.93763
399.85652
309.16789
240.15353
187.28527
146.5517
115.00859
90.47304
71.312186
56.294968
44.486896
35.174471
27.810408
21.973647
17.339966
13.660183
10.743574
8.4445082
6.6507089
5.2727165
4.2354537
3.4735905
2.9310948
2.5629972
2.3390058
2.2422425
2.2675467
2.4376046
2.8062494
3.4775902
4.5163082
6.1771762
8.9702091
11.912162
12.403845
11.810055
9.8259757
5.3923966
2.6420723
1.3953415
0.82183728
0.54390025
0.39777095
0.30987825
0.24507185
0.20413178
0.17339719
0.15203946
0.12924391
3736961
603786.15
185368.84
78636.152
40013.899
22791.266
13996.995
9065.9659
6107.1483
4238.9136
3011.8456
2180.3467
1602.5348
1192.6504
896.87916
680.3749
519.96531
399.88614
309.20037
240.18976
187.32618
146.59828
115.06192
90.534301
71.382689
56.376135
44.580227
35.281457
27.932374
22.111486
17.493777
13.828829
10.924295
8.6327914
6.841171
5.4603468
4.417626
3.6516872
3.1113384
2.7571446
2.5654001
2.5265588
2.6560288
3.0084218
3.6974183
4.8360747
6.6303756
9.6297871
12.699946
13.182642
12.562782
10.491999
5.8205761
2.846695
1.5037845
0.88916383
0.59074039
0.43381368
0.33234838
0.25868225
0.21143601
0.18054183
0.15654981
0.13913575
0.11861039
3737011.6
603794.22
185371.3
78637.19
40014.425
22791.564
13997.177
9066.0819
6107.2247
4238.9649
3011.8802
2180.3699
1602.55
1192.6599
896.8846
680.37748
519.96599
399.88575
309.19967
240.18952
187.32722
146.60155
115.06849
90.545482
71.400008
56.401397
44.615511
35.329064
27.994665
22.190508
17.59099
13.944885
11.058583
8.7833563
7.0049218
5.6343981
4.6011439
3.8480685
3.3302363
3.0167999
2.8952705
2.976306
3.3102487
4.0253885
5.2714745
7.2014492
10.387569
13.539725
14.009078
13.369998
11.235519
6.3685567
3.112175
1.6432364
0.97288345
0.64962114
0.47605606
0.35846074
0.2764656
0.22416321
0.18887203
0.16250413
0.14283525
0.12841745
0.11131436
3737062.3
603802.42
185373.81
78638.256
40014.964
22791.866
13997.357
9066.1926
6107.293
4239.0054
3011.9016
2180.3774
1602.5469
1192.6485
896.86633
680.35345
519.93703
399.85256
309.16289
240.14984
187.28539
146.55846
115.02523
90.503346
71.360586
56.36659
44.587572
35.310636
27.988853
22.201093
17.622037
13.999763
11.138932
8.889748
7.1374434
5.7937866
4.7907897
4.0768506
3.6163573
3.3933989
3.4193802
3.7367724
4.4881237
5.8575969
7.9336567
11.239559
14.446861
14.894037
14.237256
12.047681
7.0099919
3.4309701
1.812114
1.0730501
0.71832413
0.52179092
0.38778637
0.29838977
0.24140933
0.19967279
0.16911898
0.14833605
0.13040062
0.11848173
0.10521022
3737113.2
603810.77
185376.4
78639.349
40015.514
22792.171
13997.535
9066.2979
6107.3526
4239.0344
3011.9088
2180.368
1602.5242
1192.6146
896.82269
680.30098
519.87643
399.78439
309.08771
240.06825
187.19814
146.46648
114.92973
90.405868
71.263071
56.271432
44.497658
35.229364
27.920089
22.149008
17.591152
13.995243
11.167216
8.955423
7.2454773
5.9512102
5.0093621
4.3775843
4.0368255
3.9999107
4.308746
5.109867
6.6140354
8.8494157
12.225975
15.42134
15.850999
15.173332
12.923447
7.722071
3.798158
2.0111773
1.1902405
0.79741508
0.5728482
0.42224271
0.32617294
0.26240616
0.2135431
0.17852989
0.15417945
0.13600719
0.12221021
0.11169134
0.098956408
3737167.7
603819.6
185379.1
78640.483
40016.082
22792.483
13997.713
9066.3981
6107.4038
4239.0521
3011.9019
2180.3419
1602.4822
1192.5587
896.75415
680.22067
519.78494
399.68221
308.97533
239.94625
187.06727
146.32777
114.78457
90.256072
71.110983
56.120005
44.350529
35.090908
27.79545
22.044088
17.512577
13.9503
11.163608
9.0034759
7.3586756
6.1479687
5.3177117
4.843363
4.7375273
5.0458933
5.9113688
7.5561027
9.9669826
13.362734
16.484302
16.905782
16.196163
13.864402
8.4827497
4.2146345
2.2410981
1.3291483
0.88781209
0.63020541
0.46260834
0.35877525
0.28646668
0.23005626
0.19074966
0.16240012
0.14236335
0.12688374
0.11426471
0.10497657
0.095459
3737225.4
603828.82
185381.92
78641.664
40016.669
22792.802
13997.891
9066.4948
6107.4483
4239.0603
3011.8832
2180.3017
1602.4237
1192.4841
896.66461
680.11703
519.66778
399.55201
308.83259
239.79163
186.90166
146.1524
114.60107
90.066673
70.918546
55.928173
44.163841
34.914913
27.636814
21.910698
17.413655
13.8966
11.167396
9.0852931
7.5450254
6.476704
5.8464901
5.6637947
5.9750009
6.9155556
8.70452
11.300469
14.674475
17.659198
18.048743
17.297249
14.860715
9.2780205
4.6899309
2.5132855
1.4896434
0.98713627
0.6934081
0.50932303
0.39550011
0.31274733
0.24941956
0.2056753
0.17355087
0.14994783
0.13199417
0.11894261
0.10825748
0.1004671
0.091811117
3737283.9
603838.24
185384.81
78642.885
40017.274
22793.13
13998.073
9066.5916
6107.4904
4239.0644
3011.8587
2180.2544
1602.357
1192.4
896.56457
680.0019
519.53821
399.4086
308.67601
239.62271
186.72156
145.96266
114.40381
89.864637
70.715312
55.728286
43.972986
34.740113
27.486658
21.795617
17.346056
13.893733
11.257184
9.3015418
7.9358627
7.1127146
6.8338315
7.1401013
8.1466334
10.065871
12.844927
16.201443
18.974594
19.284538
18.480396
15.914136
10.108125
5.2264492
2.8252441
1.6647833
1.0904637
0.76413102
0.56398981
0.4373457
0.34226407
0.27271754
0.22443545
0.18735424
0.15955737
0.13881022
0.12421508
0.11239896
0.10335509
0.096535547
0.088625747
3737344.3
603848.04
185387.81
78644.147
40017.902
22793.47
13998.263
9066.6937
6107.5365
4239.0718
3011.8372
2180.21
1602.2934
1192.3196
896.46885
679.89201
519.41509
399.27315
308.52925
239.46591
186.55635
145.7912
114.22887
89.68983
70.545234
55.568744
43.831224
34.624999
27.409531
21.772382
17.400526
14.058204
11.572415
9.8252367
8.7507167
8.3370924
8.6123588
9.6578488
11.68122
14.574069
17.951529
20.488036
20.621769
19.748784
17.022264
10.966626
5.8201443
3.1693957
1.8481416
1.2021808
0.84782035
0.63052597
0.48462106
0.37566279
0.2994122
0.24574036
0.20278698
0.17074065
0.14742478
0.13035715
0.11721233
0.10725801
0.099044632
0.092638854
0.086738208
3737407.1
603858.19
185390.93
78645.457
40018.557
22793.829
13998.468
9066.8092
6107.5958
4239.093
3011.8311
2180.1827
1602.2492
1192.2611
896.39818
679.81072
519.32458
399.17486
308.42478
239.35719
186.44573
145.6816
114.12395
89.594262
70.46504
55.51183
43.808252
34.650917
27.504798
21.963663
17.722755
14.559378
12.318352
10.907722
10.2957
10.49461
11.523018
13.600774
16.568179
19.85849
22.241824
22.108096
21.101005
18.147822
11.863499
6.4792499
3.5464493
2.049352
1.3324178
0.9505548
0.70611421
0.535426
0.41129644
0.32934502
0.2692269
0.2209442
0.18500386
0.15852982
0.13838081
0.12311377
0.1115443
0.10243707
0.095741211
0.090534036
0.084869406
3737471.9
603868.67
185394.15
78646.821
40019.244
22794.213
13998.695
9066.9476
6107.6795
4239.1412
3011.855
2180.1895
1602.2435
1192.2465
896.37707
679.78543
519.29723
399.14765
308.40018
239.33811
186.43573
145.68519
114.14698
89.644224
70.551628
55.647661
44.009789
34.93972
27.909819
22.525051
18.494908
15.614858
13.75575
12.856752
12.91551
13.843896
15.900677
18.853916
22.091483
24.207091
23.815516
22.574202
19.239937
12.796994
7.1969176
3.9459681
2.2638297
1.4791344
1.0611486
0.78347288
0.58743089
0.45353132
0.36472939
0.2971796
0.24234742
0.20233067
0.17132041
0.14766855
0.12998519
0.11665802
0.10683567
0.099241407
0.092716832
0.087922335
0.08324979
3737539.4
603879.61
185397.5
78648.245
40019.968
22794.626
13998.949
9067.113
6107.7926
4239.2222
3011.9161
2180.2387
1602.2864
1192.2872
896.41919
679.83225
519.35206
399.21405
308.48222
239.44056
186.5644
145.84719
114.35117
89.901807
70.876998
56.059567
44.533052
35.607648
28.767017
23.630082
19.925236
17.471963
16.169508
15.980664
16.759561
18.666364
21.507891
24.626643
26.389571
25.868857
24.230101
20.332954
13.772103
7.9612243
4.3604076
2.5037379
1.6464471
1.1853687
0.86961966
0.65439819
0.50863841
0.40780037
0.32685666
0.26592997
0.22111961
0.18608008
0.15875838
0.13872062
0.123341
0.11202652
0.10275911
0.095535914
0.090295199
0.085979535
0.08210873
3737610.3
603891
185400.99
78649.732
40020.731
22795.068
13999.231
9067.3074
6107.9373
4239.3388
3012.0178
2180.3345
1602.3828
1192.3896
896.53239
679.96081
519.50085
399.38846
308.68844
239.68595
186.85783
146.19961
114.77621
90.416805
71.50422
56.828077
45.480605
36.783102
30.233397
25.468424
22.237483
20.381317
19.811683
20.355973
21.984786
24.589063
27.485988
28.772485
28.012025
26.009214
21.49286
14.799698
8.7488271
4.7921714
2.7677438
1.8309994
1.3172858
0.96587408
0.72978739
0.5686631
0.44801552
0.35636528
0.29108245
0.24382441
0.20369199
0.17298773
0.14929373
0.13146321
0.11775174
0.1070739
0.09925568
0.093307707
0.088469776
0.084708703
0.081185162
3737682.9
603902.72
185404.61
78651.276
40021.53
22795.54
13999.541
9067.5308
6108.1141
4239.4919
3012.1618
2180.4793
1602.5364
1192.5587
896.72325
680.17998
519.75537
399.68632
309.03896
240.10026
187.34946
146.78526
115.47671
91.258557
72.520514
58.061061
46.983677
38.623372
32.494045
28.249511
25.652103
24.541643
24.742171
25.904642
28.145425
30.651634
31.331692
30.32152
27.849909
22.700322
15.830025
9.5219413
5.243375
3.0567103
2.033088
1.4623546
1.0752315
0.8182589
0.63444324
0.49725559
0.39582202
0.3270165
0.27131426
0.22504932
0.18883674
0.16180071
0.14055981
0.12486921
0.1126079
0.10381995
0.096528604
0.0909363
0.086364577
0.083104701
0.08021937
3737758.4
603914.96
185408.37
78652.886
40022.372
22796.047
13999.884
9067.79
6108.3309
4239.6908
3012.3588
2180.6863
1602.7628
1192.813
897.01418
680.51651
520.14756
400.14576
309.57933
240.73796
188.10457
147.68231
116.5461
92.537822
74.056333
59.910899
49.217632
41.324945
35.75799
32.173636
30.31814
29.980428
30.639636
32.071342
34.079957
33.99816
32.702374
29.601206
23.91161
16.838895
10.281193
5.7340257
3.3836988
2.2611106
1.6234794
1.1993131
0.91613233
0.70858548
0.55319495
0.44320321
0.36160108
0.29658841
0.24416512
0.20669505
0.17589369
0.15228072
0.13353264
0.11970622
0.108786
0.10030573
0.093732265
0.088907161
0.085226486
0.08237334
0.079731232
3737836.4
603927.56
185412.25
78654.567
40023.266
22796.602
14000.278
9068.1056
6108.6121
4239.9642
3012.6425
2180.9938
1603.1059
1193.2028
897.46193
681.03458
520.7499
400.84859
310.40186
241.7033
189.2406
149.02309
118.13307
94.421194
76.29618
62.577573
52.390652
45.087692
40.184916
37.306293
36.128619
36.267599
37.141127
37.74133
36.945641
35.093477
31.266408
25.127058
17.829644
11.044764
6.2795398
3.7636539
2.5152087
1.7970772
1.3341312
1.0242574
0.79192476
0.62027134
0.49575637
0.40195584
0.32660273
0.27343094
0.23113712
0.19580833
0.16621247
0.14452
0.12743208
0.11489652
0.10481651
0.097665834
0.091945762
0.087566409
0.083760138
0.081135279
0.078855687
3737916.9
603940.6
185416.3
78656.34
40024.236
22797.229
14000.749
9068.5071
6108.9918
4240.3514
3013.0577
2181.4532
1603.624
1193.7938
898.14071
681.81763
521.65606
401.89989
311.62454
243.12887
190.90715
150.9767
120.42934
97.123409
79.465321
66.264837
56.665574
49.997451
45.727598
43.385548
42.520221
42.363661
41.732648
40.021242
37.446769
32.951295
26.364314
18.787491
11.817756
6.8826355
4.1850317
2.782864
1.9804822
1.4833462
1.1472384
0.88975426
0.69801102
0.55661246
0.44718009
0.36505356
0.30366977
0.25536974
0.21233543
0.18089977
0.15578326
0.13728413
0.12209745
0.11098957
0.10207561
0.095362242
0.089721064
0.085853648
0.082772682
0.080546201
0.078487426
3738001.3
603954.26
185420.55
78658.228
40025.296
22797.945
14001.316
9069.0174
6109.4972
4240.8841
3013.641
2182.1065
1604.3651
1194.6407
899.11266
682.93618
522.94608
403.39064
313.35091
245.13286
193.23802
153.6901
123.58307
100.77206
83.65469
71.027327
61.992958
55.849401
51.98485
49.693879
48.035704
45.967501
43.317901
39.951263
34.650544
27.556566
19.716851
12.63569
7.5701479
4.6642983
3.0840961
2.1940223
1.6595675
1.2887743
1.0006384
0.7856833
0.62440334
0.50106205
0.40833266
0.33882729
0.28052074
0.23675358
0.20155264
0.17387333
0.14963179
0.13196439
0.11769751
0.10755113
0.09907743
0.093117224
0.088454725
0.084936368
0.08188052
0.079946542
0.077997573
3738088.5
603968.43
185425
78660.232
40026.453
22798.762
14001.995
9069.6566
6110.1514
4241.589
3014.423
2182.9883
1605.3682
1195.787
900.42605
684.44341
524.67765
405.3815
315.64065
247.76481
196.25928
157.14981
127.5298
105.2489
88.6933
76.601542
67.980816
61.957087
57.6442
54.074122
50.574724
46.966582
42.529089
36.381742
28.803455
20.765133
13.602704
8.378861
5.2099387
3.4213429
2.4322083
1.848894
1.4375235
1.1198354
0.88456402
0.7044532
0.56539988
0.46031568
0.37793716
0.31322094
0.26321425
0.2250383
0.1892212
0.16260603
0.14113258
0.1261891
0.11357965
0.10443475
0.096991821
0.091573739
0.086840923
0.083743045
0.081045899
0.079228025
0.077520229
3738178.6
603983.1
185429.62
78662.35
40027.71
22799.683
14002.791
9070.4298
6110.9601
4242.4718
3015.4097
2184.1045
1606.6384
1197.2364
902.08129
686.33345
526.83409
407.83845
318.43393
250.93019
199.82792
161.14132
131.94167
110.04226
93.777298
81.8369
73.033713
66.327494
60.822458
55.898349
51.073379
45.40991
38.381236
30.304205
22.040685
14.733858
9.2761699
5.8030163
3.7973654
2.7037185
2.062352
1.6089745
1.2644701
1.0054437
0.80130059
0.64111028
0.51887591
0.42391016
0.35014045
0.29476947
0.24772158
0.21070189
0.17983321
0.15733796
0.13716825
0.12266174
0.11039158
0.10203319
0.094750338
0.089829031
0.085754385
0.082931294
0.080408577
0.078911465
0.077309462
3738271.2
603998.27
185434.43
78664.584
40029.068
22800.705
14003.696
9071.3265
6111.909
4243.5142
3016.5773
2185.4251
1608.1383
1198.9424
904.02113
688.53619
529.32955
410.65583
321.59872
254.45936
203.72225
165.37417
136.44374
114.68216
98.337692
85.996907
76.479696
68.789175
62.124289
55.747613
48.695231
40.711536
32.080386
23.531833
16.016219
10.286071
6.5029238
4.2697142
3.0400093
2.3105168
1.8024895
1.4255011
1.1367486
0.90486813
0.7247389
0.58618899
0.47866548
0.39555709
0.32985367
0.27681897
0.23410373
0.2022054
0.17172228
0.14920592
0.13040045
0.11788872
0.10710327
0.099505367
0.093098799
0.088656178
0.084679901
0.082112379
0.079844337
0.078435965
0.076929264
3738367.1
604011.18
185437.06
78665.098
40029.166
22800.794
14003.903
9071.698
6112.4674
4244.2742
3017.5524
2186.6295
1609.5879
1200.6548
906.01535
690.83118
531.94232
413.59791
324.87127
258.04582
207.57872
169.4179
140.54113
118.63968
101.90142
88.868753
78.357739
69.430241
61.073182
52.509156
43.510437
34.274238
25.377438
17.586973
11.53091
7.3904033
4.8614774
3.4276599
2.576686
2.0111024
1.6048758
1.2885158
1.0314399
0.8303674
0.6725836
0.54658689
0.44858585
0.37116481
0.30957023
0.26298183
0.22336055
0.19153273
0.16380938
0.14491565
0.12759922
0.11554963
0.10482893
0.097774827
0.09148574
0.087326988
0.083761728
0.081477911
0.079283136
0.078021881
0.076708001
3739014.3
604121.87
185474.38
78682.856
40039.328
22807.396
14008.63
9075.365
6115.5175
4246.9695
3020.0604
2189.0648
1612.0332
1203.1724
908.65274
693.62331
534.91095
416.74872
328.18862
261.48559
211.05988
172.8145
143.67782
121.29523
103.82683
89.82932
78.025946
67.304294
56.993527
46.798835
36.804393
27.430184
19.273912
12.847719
8.3286196
5.4787613
3.8259067
2.8603845
2.2476285
1.8108676
1.4608766
1.1735893
0.94586331
0.76340963
0.61857582
0.50562326
0.4179276
0.34906086
0.29435381
0.24951692
0.21211078
0.18464133
0.15802357
0.13886153
0.1221135
0.11148011
0.1020024
0.095701588
0.090011914
0.086413783
0.082990131
0.080777395
0.07891144
0.077752135
0.076555986
3739013.7
604118.88
185472.01
78681.163
40038.241
22806.759
14008.34
9075.3636
6115.7705
4247.4594
3020.7796
2190.0118
1613.2099
1204.5813
910.29377
695.49025
536.98638
418.99794
330.5525
263.87313
213.34198
174.82144
145.20674
122.12239
103.66094
88.258196
74.774781
62.43136
50.812994
39.870082
29.866642
21.2404
14.388979
9.461354
6.2563355
4.3478267
3.2311648
2.534429
2.0392592
1.6459121
1.3293815
1.0772593
0.87261322
0.70963558
0.58119562
0.47790481
0.39658097
0.331217
0.27835603
0.23812346
0.20383208
0.17623995
0.151112
0.13503056
0.11986941
0.10978423
0.10030471
0.094301089
0.088833343
0.085270757
0.082245686
0.080373311
0.078517461
0.07734062
0.076407265
3739013.8
604119.03
185472.16
78681.38
40038.524
22807.114
14008.776
9075.8878
6116.3929
4248.1893
3021.6259
2190.9824
1614.3101
1205.8115
911.64733
696.94913
538.51682
420.54514
332.03551
265.18149
214.33779
175.32797
144.99208
120.88941
101.1661
84.428891
69.694185
56.369312
44.231452
33.368243
24.054814
16.575979
11.050008
7.321856
5.0237561
3.6649017
2.8399489
2.2816777
1.8573214
1.5179984
1.2384894
1.0055683
0.81693462
0.66553095
0.5441842
0.44811586
0.3734825
0.314147
0.26689522
0.22821331
0.19498807
0.17086226
0.14709464
0.13075633
0.1155787
0.10652282
0.09801299
0.092675993
0.087643588
0.084576258
0.081587423
0.079760829
0.078110648
0.077194947
0.07627131
3739014
604119.13
185472.25
78681.492
40038.671
22807.302
14009.01
9076.1745
6116.7377
4248.5978
3022.1024
2191.5286
1614.9238
1206.4841
912.36086
697.67304
539.20415
421.12744
332.41758
265.23451
213.88673
174.1748
142.95177
117.84239
97.069584
79.354667
63.859833
50.141679
38.084622
27.79244
19.439365
13.113721
8.7059846
5.899226
4.223695
3.2346391
2.5981152
2.1277727
1.7461221
1.4249032
1.1581358
0.94272959
0.76859043
0.62911311
0.51849004
0.42932283
0.35901355
0.30184743
0.25530266
0.21971608
0.18903398
0.16489474
0.14179342
0.12773825
0.11405371
0.10533277
0.096820013
0.091688724
0.086774498
0.083796513
0.081085565
0.079526601
0.077930624
0.076966569
0.076150122
3739014.9
604119.22
185472.27
78681.496
40038.678
22807.317
14009.035
9076.214
6116.7942
4248.6728
3022.1957
2191.6366
1615.0374
1206.5866
912.42446
697.65484
539.04128
420.7348
331.68703
264.03969
212.09913
171.67417
139.64764
113.70279
92.152234
73.830567
58.016736
44.355909
32.758465
23.27019
15.930091
10.650256
7.1564674
5.013834
3.7497922
2.9671433
2.4181602
1.9873676
1.6322599
1.3390335
1.0969777
0.89588975
0.73159925
0.59925395
0.49278837