/*--------------------------------*- C++ -*----------------------------------*\
  =========                 |
  \\      /  F ield         | OpenFOAM: The Open Source CFD Toolbox
   \\    /   O peration     | Website:  https://openfoam.org
    \\  /    A nd           | Version:  13
     \\/     M anipulation  |
\*---------------------------------------------------------------------------*/
FoamFile
{
    format      ascii;
    class       volScalarField;
    location    "41.19781";
    object      yPlus;
}
// * * * * * * * * * * * * * * * * * * * * * * * * * * * * * * * * * * * * * //

dimensions      [];

internalField   uniform 0;

boundaryField
{
    inlet
    {
        type            calculated;
        value           uniform 0;
    }
    outlet
    {
        type            calculated;
        value           uniform 0;
    }
    cylinder
    {
        type            calculated;
        value           nonuniform List<scalar> 
132
(
1.7042208e-07
1.6969893e-07
1.6839354e-07
1.6645451e-07
1.6386496e-07
1.6062733e-07
1.5675153e-07
1.5228629e-07
1.4725957e-07
1.4170882e-07
1.3568655e-07
1.2925774e-07
1.2249839e-07
1.1549449e-07
1.0834043e-07
1.0113697e-07
9.3989034e-08
8.7001982e-08
8.0277112e-08
7.3906012e-08
6.7958772e-08
6.2468113e-08
5.7409634e-08
5.2681419e-08
4.8093721e-08
4.3385746e-08
3.8291702e-08
3.264889e-08
2.6513704e-08
2.0222477e-08
1.4323358e-08
9.4164458e-09
6.0248104e-09
4.4914795e-09
4.610152e-09
5.5383415e-09
6.882928e-09
8.5902473e-09
1.0689712e-08
1.3234897e-08
1.6346306e-08
2.0131107e-08
2.4270108e-08
2.8697424e-08
3.3286245e-08
3.7921913e-08
4.2508312e-08
4.6971124e-08
5.1258022e-08
5.5335537e-08
5.9180119e-08
6.2784273e-08
6.6132243e-08
6.9207816e-08
7.20682e-08
7.467547e-08
7.7026765e-08
7.9142517e-08
8.1025201e-08
8.2678903e-08
8.4104008e-08
8.5285266e-08
8.6241433e-08
8.6960824e-08
8.7461993e-08
8.7732821e-08
1.7055132e-07
1.7005947e-07
1.6896716e-07
1.6723504e-07
1.6484603e-07
1.6179289e-07
1.5807791e-07
1.5371375e-07
1.4872448e-07
1.4314639e-07
1.3702881e-07
1.3043457e-07
1.2343941e-07
1.1612924e-07
1.0860282e-07
1.0097114e-07
9.3352627e-08
8.586941e-08
7.8644465e-08
7.1794141e-08
6.5415451e-08
5.9568226e-08
5.42479e-08
4.9355046e-08
4.4678264e-08
3.9919395e-08
3.4784464e-08
2.9130775e-08
2.3091974e-08
1.7088441e-08
1.1713349e-08
7.5483479e-09
5.0444336e-09
4.4011834e-09
4.9720893e-09
6.1008593e-09
7.5927192e-09
9.4527853e-09
1.1718173e-08
1.4441532e-08
1.7732431e-08
2.1687339e-08
2.5955117e-08
3.0465238e-08
3.509026e-08
3.9727121e-08
4.4283483e-08
4.8689565e-08
5.2904858e-08
5.6897722e-08
6.0649866e-08
6.4156192e-08
6.7402159e-08
7.0378348e-08
7.315411e-08
7.5655029e-08
7.7913662e-08
7.9932376e-08
8.1725472e-08
8.3287259e-08
8.4611845e-08
8.5703304e-08
8.6560319e-08
8.7189068e-08
8.7593652e-08
8.7772772e-08
)
;
    }
    frontAndBack
    {
        type            empty;
    }
}


// ************************************************************************* //
