/*--------------------------------*- C++ -*----------------------------------*\
  =========                 |
  \\      /  F ield         | OpenFOAM: The Open Source CFD Toolbox
   \\    /   O peration     | Website:  https://openfoam.org
    \\  /    A nd           | Version:  13
     \\/     M anipulation  |
\*---------------------------------------------------------------------------*/
FoamFile
{
    format      ascii;
    class       volScalarField;
    location    "39.996259";
    object      p;
}
// * * * * * * * * * * * * * * * * * * * * * * * * * * * * * * * * * * * * * //

dimensions      [0 2 -2 0 0 0 0];

internalField   nonuniform List<scalar> 
17140
(
-0.30366662
-0.30367457
-0.30368421
-0.30369412
-0.30370497
-0.30371698
-0.3037302
-0.30374473
-0.30376068
-0.30377815
-0.30379727
-0.30381813
-0.30384084
-0.30386549
-0.30389217
-0.30392096
-0.30395189
-0.30398501
-0.30402032
-0.3040578
-0.30409743
-0.30413917
-0.30418305
-0.30422918
-0.30427786
-0.30432976
-0.30438618
-0.30444944
-0.30452354
-0.30461498
-0.30473393
-0.3048952
-0.30511827
-0.30542446
-0.30582779
-0.30633347
-0.30692452
-0.30756577
-0.30821155
-0.30881567
-0.30934014
-0.30975902
-0.31005677
-0.31022883
-0.31028714
-0.3102374
-0.31007216
-0.30978291
-0.30934867
-0.30874156
-0.30790928
-0.30684847
-0.30555939
-0.30440325
-0.30350125
-0.30422333
-0.3061916
-0.31364542
-0.32400263
-0.34633109
-0.33286932
-0.2441896
-0.15007123
-0.10077171
-0.0996274
-0.30278645
-0.30279413
-0.30280342
-0.30281297
-0.30282343
-0.302835
-0.30284774
-0.30286174
-0.30287711
-0.30289395
-0.30291238
-0.30293249
-0.30295438
-0.30297816
-0.30300389
-0.30303166
-0.3030615
-0.30309344
-0.30312748
-0.30316359
-0.30320173
-0.30324184
-0.30328392
-0.303328
-0.30337433
-0.30342346
-0.30347653
-0.30353563
-0.30360443
-0.30368903
-0.30379897
-0.30394823
-0.30415519
-0.30443988
-0.30481746
-0.3052907
-0.30584303
-0.30643945
-0.30703409
-0.30758017
-0.30803815
-0.30837995
-0.30858726
-0.30865159
-0.30857959
-0.30837258
-0.30801828
-0.3075033
-0.3068037
-0.30589459
-0.30473558
-0.30336178
-0.30188427
-0.30085886
-0.30081625
-0.30359437
-0.3094333
-0.32316126
-0.34383948
-0.38230771
-0.37498239
-0.27609698
-0.15942791
-0.087065693
-0.076616888
-0.30196666
-0.30197391
-0.30198274
-0.30199181
-0.30200174
-0.30201273
-0.30202482
-0.30203812
-0.30205271
-0.30206871
-0.30208622
-0.30210533
-0.30212615
-0.30214876
-0.30217325
-0.30219966
-0.30222806
-0.30225845
-0.30229083
-0.30232515
-0.30236136
-0.30239938
-0.30243916
-0.30248069
-0.30252414
-0.30256992
-0.30261902
-0.30267329
-0.30273604
-0.30281285
-0.3029126
-0.30304834
-0.30323725
-0.3034982
-0.30384576
-0.30428218
-0.30479114
-0.30533817
-0.30587759
-0.30636217
-0.30675107
-0.30701415
-0.30713056
-0.30708809
-0.30688829
-0.3065282
-0.30599146
-0.30526036
-0.30430862
-0.3031147
-0.30164739
-0.2999757
-0.29827973
-0.29745911
-0.29826321
-0.30296831
-0.31258395
-0.33220635
-0.36268752
-0.41529061
-0.41497538
-0.30259382
-0.16354049
-0.073541374
-0.052414422
-0.3012103
-0.30121706
-0.30122531
-0.30123379
-0.30124306
-0.30125332
-0.30126462
-0.30127704
-0.30129067
-0.30130563
-0.30132199
-0.30133987
-0.30135935
-0.30138052
-0.30140345
-0.3014282
-0.3014548
-0.30148327
-0.30151359
-0.30154571
-0.30157955
-0.30161501
-0.30165201
-0.30169048
-0.30173049
-0.30177238
-0.30181691
-0.3018657
-0.30192166
-0.30198984
-0.30207832
-0.3021991
-0.3023681
-0.30260286
-0.30291707
-0.30331269
-0.30377396
-0.30426724
-0.30474745
-0.30516722
-0.30548467
-0.30566778
-0.30569324
-0.30554544
-0.30522094
-0.30471259
-0.30400063
-0.30306342
-0.3018725
-0.30040938
-0.29864579
-0.29665476
-0.29485651
-0.2943407
-0.29575932
-0.30192851
-0.31484296
-0.33999302
-0.37979496
-0.44223909
-0.44837139
-0.32192075
-0.16246422
-0.05960307
-0.025494166
-0.30051911
-0.30052532
-0.30053288
-0.30054065
-0.30054915
-0.30055855
-0.3005689
-0.30058029
-0.3005928
-0.30060652
-0.30062155
-0.30063797
-0.30065587
-0.30067534
-0.30069644
-0.30071921
-0.3007437
-0.30076991
-0.30079781
-0.30082734
-0.30085841
-0.3008909
-0.30092467
-0.30095961
-0.30099572
-0.30103319
-0.30107263
-0.30111535
-0.30116389
-0.30122268
-0.30129896
-0.30140359
-0.30155106
-0.30175747
-0.30203544
-0.30238677
-0.3027964
-0.30323192
-0.30364923
-0.30400116
-0.30424506
-0.30434721
-0.30428205
-0.30403083
-0.30358523
-0.30293411
-0.30205481
-0.300922
-0.29950531
-0.29779036
-0.29574107
-0.29348385
-0.29173213
-0.29144517
-0.29323856
-0.30049417
-0.31557784
-0.34535087
-0.39372186
-0.46274005
-0.46934335
-0.33304503
-0.15687647
-0.047490473
-0.0010648263
-0.29989337
-0.29989894
-0.29990572
-0.29991269
-0.29992031
-0.29992874
-0.29993803
-0.29994825
-0.29995948
-0.2999718
-0.29998531
-0.30000008
-0.3000162
-0.30003373
-0.30005275
-0.30007329
-0.30009538
-0.30011902
-0.30014418
-0.30017078
-0.30019871
-0.30022783
-0.30025797
-0.30028897
-0.30032073
-0.30035334
-0.3003872
-0.30042336
-0.30046392
-0.3005127
-0.30057603
-0.30066355
-0.30078821
-0.30096453
-0.30120398
-0.30150812
-0.30186277
-0.30223703
-0.30258815
-0.30286956
-0.30303812
-0.30305868
-0.30290356
-0.30255119
-0.30198877
-0.30120091
-0.30016262
-0.29884498
-0.29721634
-0.2952653
-0.29291415
-0.29055737
-0.28882604
-0.28856629
-0.29060771
-0.29868646
-0.31487934
-0.34831389
-0.40267665
-0.47358955
-0.47682843
-0.33503401
-0.14685577
-0.038580478
0.016863063
-0.29933199
-0.29933686
-0.29934278
-0.29934887
-0.29935553
-0.2993629
-0.29937102
-0.29937995
-0.29938978
-0.29940057
-0.29941241
-0.29942537
-0.29943952
-0.29945493
-0.29947166
-0.29948974
-0.29950919
-0.29953
-0.29955214
-0.29957551
-0.29959999
-0.29962541
-0.29965158
-0.29967827
-0.29970533
-0.29973268
-0.29976056
-0.29978974
-0.29982188
-0.29986016
-0.29990998
-0.29997969
-0.30008064
-0.30022565
-0.3004249
-0.30067967
-0.30097671
-0.30128685
-0.30156903
-0.30177766
-0.30186949
-0.30180816
-0.30156414
-0.3011133
-0.30043861
-0.29952081
-0.29833261
-0.29684077
-0.29501516
-0.29283593
-0.29021267
-0.28780318
-0.28605466
-0.28568245
-0.28781204
-0.29622736
-0.31292921
-0.34908916
-0.40680448
-0.47595993
-0.471179
-0.33109637
-0.13335458
-0.035741381
0.027875883
-0.29883255
-0.29883667
-0.29884166
-0.29884681
-0.29885245
-0.29885868
-0.29886556
-0.29887313
-0.29888146
-0.29889061
-0.29890067
-0.29891169
-0.29892375
-0.29893689
-0.29895116
-0.29896661
-0.29898323
-0.29900101
-0.2990199
-0.2990398
-0.29906058
-0.29908205
-0.29910396
-0.29912606
-0.29914809
-0.29916989
-0.29919148
-0.29921335
-0.29923675
-0.2992642
-0.29930016
-0.29935165
-0.29942838
-0.2995414
-0.29969948
-0.29990351
-0.30014114
-0.30038505
-0.3005962
-0.30073032
-0.30074445
-0.30060135
-0.30026989
-0.29972374
-0.29894166
-0.297901
-0.29657217
-0.29491722
-0.29291139
-0.29051033
-0.28771089
-0.28518574
-0.28332491
-0.28275496
-0.28478528
-0.29311541
-0.30989893
-0.34766212
-0.40614429
-0.46931391
-0.45472546
-0.32415669
-0.1222627
-0.037676897
0.03396317
-0.29839145
-0.29839479
-0.29839882
-0.298403
-0.29840758
-0.29841264
-0.29841822
-0.29842437
-0.29843114
-0.2984386
-0.29844681
-0.29845582
-0.29846568
-0.29847646
-0.29848817
-0.29850086
-0.29851453
-0.29852913
-0.29854463
-0.2985609
-0.2985778
-0.29859512
-0.29861258
-0.29862988
-0.29864668
-0.29866269
-0.29867778
-0.29869214
-0.29870659
-0.29872303
-0.29874497
-0.29877814
-0.29883056
-0.29891146
-0.29902812
-0.29918089
-0.29935821
-0.29953467
-0.29967345
-0.29973198
-0.29966797
-0.29944366
-0.29902661
-0.29838862
-0.29750449
-0.29634816
-0.29488763
-0.29308069
-0.29090843
-0.2882847
-0.28538511
-0.28271312
-0.28062949
-0.27975581
-0.2814866
-0.28937875
-0.30686194
-0.34416379
-0.39946835
-0.45483657
-0.43019877
-0.30365744
-0.11661872
-0.04055546
0.03347474
-0.29800422
-0.29800677
-0.29800983
-0.29801304
-0.29801654
-0.29802041
-0.29802468
-0.29802939
-0.2980346
-0.29804034
-0.29804667
-0.29805363
-0.29806128
-0.29806965
-0.29807876
-0.29808865
-0.29809929
-0.29811066
-0.29812268
-0.29813524
-0.29814817
-0.29816123
-0.29817413
-0.2981865
-0.29819795
-0.29820806
-0.29821653
-0.29822327
-0.2982287
-0.29823409
-0.29824206
-0.29825705
-0.29828543
-0.29833461
-0.29841031
-0.29851216
-0.29862926
-0.29873802
-0.29880398
-0.29878657
-0.29864458
-0.29834014
-0.2978398
-0.29711372
-0.29613307
-0.29486864
-0.2932852
-0.29133753
-0.28900466
-0.28616133
-0.28318772
-0.28035793
-0.27793595
-0.27665428
-0.27801358
-0.28580411
-0.30363999
-0.33915625
-0.39014867
-0.43264516
-0.39775711
-0.27517573
-0.11419427
-0.0444358
0.027157317
-0.29766559
-0.29766738
-0.29766949
-0.29767173
-0.29767418
-0.29767688
-0.29767987
-0.29768317
-0.29768683
-0.29769087
-0.29769535
-0.2977003
-0.29770575
-0.29771174
-0.29771828
-0.29772538
-0.29773303
-0.29774117
-0.29774973
-0.29775858
-0.29776754
-0.29777634
-0.29778467
-0.29779211
-0.29779818
-0.29780238
-0.29780422
-0.29780337
-0.29779984
-0.29779431
-0.29778855
-0.29778575
-0.29779073
-0.29780909
-0.29784493
-0.29789705
-0.29795496
-0.29799678
-0.29799041
-0.29789755
-0.29767845
-0.29729553
-0.29671466
-0.29590462
-0.29483313
-0.29346825
-0.29177062
-0.28969399
-0.2871994
-0.28417176
-0.28107964
-0.27806149
-0.27520864
-0.27358146
-0.27466789
-0.28227887
-0.29857169
-0.33266985
-0.37683068
-0.40531939
-0.36325082
-0.24944993
-0.11113424
-0.049136721
0.019446055
-0.29737022
-0.29737129
-0.29737253
-0.29737385
-0.29737529
-0.29737689
-0.29737865
-0.2973806
-0.29738278
-0.29738521
-0.29738791
-0.29739093
-0.29739427
-0.29739797
-0.29740203
-0.29740644
-0.29741119
-0.2974162
-0.2974214
-0.29742664
-0.29743172
-0.29743636
-0.2974402
-0.29744279
-0.29744358
-0.29744195
-0.29743726
-0.29742892
-0.29741658
-0.29740037
-0.29738122
-0.29736119
-0.2973436
-0.29733236
-0.29732996
-0.29733427
-0.29733499
-0.2973117
-0.2972346
-0.29706776
-0.29677322
-0.29631413
-0.29565607
-0.29476658
-0.29361076
-0.29215231
-0.29034811
-0.28815443
-0.28550045
-0.28234751
-0.27906568
-0.27577267
-0.2725614
-0.27057296
-0.27115513
-0.27726576
-0.29210676
-0.32395462
-0.35832627
-0.37343465
-0.32543762
-0.22875293
-0.10898383
-0.053907482
0.010927184
-0.29711239
-0.29711279
-0.29711325
-0.29711372
-0.29711424
-0.29711481
-0.29711544
-0.29711616
-0.29711697
-0.2971179
-0.29711897
-0.29712019
-0.29712158
-0.29712315
-0.2971249
-0.29712681
-0.29712884
-0.29713092
-0.29713296
-0.2971348
-0.29713621
-0.2971369
-0.29713647
-0.29713443
-0.29713015
-0.29712291
-0.29711191
-0.29709634
-0.29707549
-0.29704896
-0.29701694
-0.29698046
-0.29694143
-0.29690227
-0.29686387
-0.29682285
-0.29676905
-0.29668333
-0.29653799
-0.29629955
-0.29593207
-0.29539978
-0.29466831
-0.29370403
-0.29246989
-0.29092505
-0.2890218
-0.28671892
-0.28390718
-0.28067827
-0.27713082
-0.27354081
-0.26990141
-0.26733108
-0.2665589
-0.27152604
-0.28577793
-0.31465944
-0.33705913
-0.34029474
-0.28910146
-0.20977111
-0.10733556
-0.058645377
0.0017707573
-0.29688755
-0.29688736
-0.29688713
-0.29688686
-0.29688656
-0.29688623
-0.29688587
-0.29688549
-0.2968851
-0.29688471
-0.29688432
-0.29688396
-0.29688361
-0.29688328
-0.29688296
-0.29688262
-0.2968822
-0.29688164
-0.29688082
-0.29687955
-0.2968776
-0.29687465
-0.29687027
-0.2968639
-0.29685487
-0.29684234
-0.29682535
-0.29680286
-0.29677384
-0.2967374
-0.29669302
-0.29664077
-0.29658126
-0.29651565
-0.29644302
-0.29635971
-0.296255
-0.29611065
-0.29590083
-0.29559435
-0.2951574
-0.2945556
-0.29375486
-0.29272034
-0.29141269
-0.28978671
-0.28779102
-0.28537236
-0.28241247
-0.27905365
-0.2752728
-0.27127225
-0.26702797
-0.26360996
-0.26195964
-0.26710622
-0.27969331
-0.30081226
-0.3129865
-0.30649884
-0.26182309
-0.19266264
-0.10661978
-0.062929093
-0.0070525737
-0.29669064
-0.29668997
-0.29668916
-0.29668828
-0.29668731
-0.29668623
-0.29668505
-0.29668376
-0.29668237
-0.29668087
-0.29667928
-0.29667758
-0.29667577
-0.29667385
-0.29667178
-0.29666953
-0.29666704
-0.29666421
-0.29666092
-0.29665696
-0.29665209
-0.29664595
-0.29663806
-0.29662783
-0.29661449
-0.29659711
-0.29657457
-0.2965456
-0.29650884
-0.29646295
-0.29640678
-0.29633946
-0.29626009
-0.29617131
-0.29607007
-0.29594579
-0.29579295
-0.29559385
-0.29532365
-0.29495336
-0.2944511
-0.29378395
-0.29291816
-0.29181759
-0.29044013
-0.28873561
-0.28665005
-0.28410711
-0.28104293
-0.27743723
-0.27340745
-0.26889152
-0.26404425
-0.26011315
-0.2590591
-0.26330034
-0.27321938
-0.28642582
-0.29143468
-0.27451668
-0.23763925
-0.17879268
-0.10572165
-0.066819916
-0.015447648
-0.29651939
-0.29651836
-0.29651713
-0.29651579
-0.29651431
-0.29651268
-0.29651088
-0.2965089
-0.29650675
-0.29650442
-0.2965019
-0.29649919
-0.29649626
-0.29649311
-0.29648968
-0.29648594
-0.29648181
-0.29647719
-0.29647193
-0.29646581
-0.29645855
-0.29644977
-0.29643895
-0.29642544
-0.29640839
-0.29638675
-0.29635925
-0.2963244
-0.29628054
-0.29622588
-0.2961587
-0.29607734
-0.29598043
-0.29586467
-0.29573177
-0.29557489
-0.29537907
-0.29513018
-0.29480518
-0.29437643
-0.2938138
-0.29308572
-0.29215859
-0.29099476
-0.28954812
-0.28776394
-0.28558363
-0.2829154
-0.27970131
-0.27583727
-0.27148144
-0.26649962
-0.26149456
-0.25776722
-0.25636402
-0.25940701
-0.26555451
-0.27078185
-0.26823845
-0.25399954
-0.21747407
-0.16742445
-0.10481266
-0.070131302
-0.022979311
-0.29637051
-0.29636926
-0.29636777
-0.29636616
-0.29636438
-0.2963624
-0.29636022
-0.29635782
-0.29635521
-0.29635236
-0.29634926
-0.2963459
-0.29634226
-0.29633831
-0.296334
-0.29632927
-0.29632405
-0.2963182
-0.29631156
-0.2963039
-0.29629491
-0.29628416
-0.2962711
-0.296255
-0.29623492
-0.2962097
-0.29617789
-0.2961378
-0.29608744
-0.29602464
-0.29594712
-0.29585273
-0.29573922
-0.2956029
-0.29544304
-0.29524904
-0.29501058
-0.29471934
-0.29434449
-0.2938634
-0.29324501
-0.29245974
-0.29147344
-0.29024528
-0.28872545
-0.28685357
-0.284557
-0.28173105
-0.27827571
-0.27423244
-0.26954042
-0.26459856
-0.25971539
-0.25564299
-0.25301694
-0.25368093
-0.25400521
-0.25739361
-0.24898701
-0.23286335
-0.20040996
-0.15786177
-0.10386901
-0.072958659
-0.029743959
-0.29624487
-0.29624356
-0.29624199
-0.2962403
-0.29623843
-0.29623635
-0.29623406
-0.29623154
-0.29622877
-0.29622575
-0.29622246
-0.29621888
-0.29621497
-0.29621071
-0.29620604
-0.29620089
-0.29619516
-0.29618873
-0.29618139
-0.29617291
-0.29616292
-0.29615097
-0.29613644
-0.29611853
-0.2960962
-0.29606816
-0.29603277
-0.2959881
-0.29593184
-0.29586143
-0.29577403
-0.29566679
-0.29553663
-0.29538075
-0.29519282
-0.29497002
-0.29469891
-0.29436249
-0.29394286
-0.29341228
-0.29274218
-0.29190154
-0.29085481
-0.28955692
-0.28795593
-0.28598182
-0.28355304
-0.28053832
-0.27694227
-0.27263947
-0.26812171
-0.2631416
-0.25775318
-0.25254711
-0.24867574
-0.24700852
-0.24538266
-0.24055339
-0.23368761
-0.21712007
-0.18676267
-0.14974971
-0.10273272
-0.075157112
-0.035564266
-0.29614262
-0.29614143
-0.29614
-0.29613845
-0.29613674
-0.29613483
-0.29613272
-0.2961304
-0.29612784
-0.29612505
-0.29612199
-0.29611864
-0.29611497
-0.29611095
-0.29610651
-0.29610157
-0.29609603
-0.29608973
-0.29608246
-0.29607394
-0.29606378
-0.29605148
-0.29603634
-0.29601748
-0.29599375
-0.29596369
-0.29592548
-0.2958769
-0.29581533
-0.29573776
-0.29564087
-0.29552115
-0.2953749
-0.29519833
-0.29498621
-0.29473513
-0.29443186
-0.29405787
-0.29359655
-0.29302058
-0.29230032
-0.2914028
-0.29028966
-0.28891187
-0.28721754
-0.28514048
-0.28257364
-0.27947512
-0.27575835
-0.27161722
-0.26683019
-0.26120843
-0.25482036
-0.24883475
-0.2437903
-0.23967653
-0.23539105
-0.22991774
-0.21951554
-0.20252333
-0.17478477
-0.14264452
-0.10150269
-0.076865033
-0.040579972
-0.29606857
-0.29606768
-0.29606662
-0.29606545
-0.29606416
-0.29606272
-0.29606111
-0.29605934
-0.29605738
-0.29605523
-0.29605286
-0.29605025
-0.29604737
-0.29604417
-0.2960406
-0.29603655
-0.29603192
-0.29602652
-0.29602013
-0.29601243
-0.29600299
-0.29599123
-0.29597641
-0.29595752
-0.29593328
-0.29590207
-0.29586184
-0.2958101
-0.29574389
-0.29565978
-0.29555398
-0.29542242
-0.29526087
-0.29506496
-0.29482961
-0.29454838
-0.29421248
-0.29380446
-0.29330417
-0.29268361
-0.29191057
-0.29094951
-0.28975753
-0.28829253
-0.28651088
-0.28433126
-0.28172993
-0.27866233
-0.27493846
-0.27049348
-0.26495564
-0.25828671
-0.25120095
-0.2444878
-0.2380328
-0.23250103
-0.22587339
-0.21818768
-0.20701857
-0.19045321
-0.16478712
-0.13642405
-0.10008687
-0.07802265
-0.044726641
-0.29602835
-0.29602797
-0.2960275
-0.29602698
-0.2960264
-0.29602573
-0.29602497
-0.29602413
-0.29602318
-0.29602212
-0.29602094
-0.29601961
-0.2960181
-0.29601636
-0.29601431
-0.29601188
-0.29600891
-0.29600522
-0.29600054
-0.29599452
-0.29598668
-0.29597637
-0.29596274
-0.29594468
-0.29592075
-0.29588913
-0.29584754
-0.29579319
-0.29572277
-0.29563244
-0.29551793
-0.29537469
-0.295198
-0.29498311
-0.29472483
-0.29441657
-0.2940488
-0.29360553
-0.29306489
-0.29239594
-0.29156319
-0.29052745
-0.2892603
-0.28770803
-0.28586164
-0.2836871
-0.28117632
-0.27799076
-0.27393204
-0.26876569
-0.26209165
-0.25453967
-0.24706364
-0.23905382
-0.23178977
-0.22436894
-0.21696938
-0.20832742
-0.19602499
-0.17963984
-0.15592228
-0.13081534
-0.098545719
-0.078734421
-0.048139938
-0.29603253
-0.29603288
-0.29603328
-0.29603368
-0.29603409
-0.29603453
-0.29603498
-0.29603546
-0.29603596
-0.29603647
-0.29603698
-0.29603747
-0.29603791
-0.29603826
-0.29603842
-0.2960383
-0.29603775
-0.29603653
-0.29603436
-0.29603083
-0.29602539
-0.29601731
-0.29600563
-0.29598909
-0.29596609
-0.29593459
-0.29589206
-0.29583539
-0.29576093
-0.29566445
-0.29554123
-0.29538626
-0.29519436
-0.29496049
-0.29467926
-0.29434376
-0.29394425
-0.29346361
-0.29287864
-0.29215281
-0.29125195
-0.29015164
-0.28880024
-0.28725708
-0.28541426
-0.28332959
-0.28066159
-0.27708615
-0.27232149
-0.2659187
-0.25818095
-0.25048846
-0.24175544
-0.23311601
-0.22476396
-0.2170394
-0.20846857
-0.19872018
-0.1859731
-0.1701493
-0.14817408
-0.12571732
-0.096833763
-0.078990619
-0.050816857
-0.29609671
-0.296098
-0.29609951
-0.2961011
-0.29610282
-0.29610468
-0.29610671
-0.2961089
-0.29611126
-0.29611379
-0.29611648
-0.29611932
-0.29612227
-0.29612528
-0.29612827
-0.2961311
-0.29613361
-0.29613553
-0.29613653
-0.29613613
-0.2961337
-0.2961284
-0.29611915
-0.29610453
-0.29608272
-0.29605148
-0.29600799
-0.29594885
-0.29587006
-0.29576701
-0.2956346
-0.29546722
-0.29525939
-0.29500628
-0.29470173
-0.29433808
-0.29390497
-0.29338228
-0.2927467
-0.29196387
-0.29100628
-0.28985037
-0.28854419
-0.28701403
-0.28522104
-0.28298045
-0.2798522
-0.27555509
-0.26951436
-0.26185086
-0.25415846
-0.24518281
-0.23566289
-0.22669968
-0.218202
-0.20956264
-0.2002572
-0.18997319
-0.17694134
-0.16160918
-0.14118188
-0.12098704
-0.094984963
-0.078865394
-0.052869714
-0.29624372
-0.29624615
-0.296249
-0.29625202
-0.29625529
-0.29625887
-0.29626277
-0.296267
-0.29627157
-0.29627649
-0.29628176
-0.29628736
-0.29629326
-0.29629938
-0.29630564
-0.29631187
-0.29631787
-0.29632334
-0.29632786
-0.29633088
-0.29633167
-0.29632927
-0.29632242
-0.29630954
-0.2962886
-0.2962571
-0.29621197
-0.29614955
-0.29606553
-0.29595504
-0.29581274
-0.29563281
-0.29540776
-0.29513369
-0.294806
-0.29441313
-0.29394542
-0.29337968
-0.2927067
-0.29186241
-0.29089282
-0.28977242
-0.28849559
-0.28696897
-0.28502857
-0.28228051
-0.27836167
-0.27291258
-0.26537093
-0.25793988
-0.24892711
-0.2388743
-0.22952257
-0.22051315
-0.21138884
-0.20227364
-0.19241217
-0.18166839
-0.16857585
-0.1538496
-0.13482891
-0.11654075
-0.092980172
-0.078369402
-0.054322374
-0.2965077
-0.29651137
-0.2965157
-0.29652028
-0.29652526
-0.2965307
-0.29653663
-0.29654307
-0.29655003
-0.29655753
-0.29656557
-0.29657411
-0.29658312
-0.29659252
-0.29660218
-0.29661191
-0.29662145
-0.29663045
-0.2966384
-0.29664467
-0.29664838
-0.29664843
-0.29664341
-0.29663152
-0.29661053
-0.29657774
-0.29652984
-0.29646297
-0.29637259
-0.29625402
-0.29610459
-0.29590367
-0.29565267
-0.29536456
-0.29501205
-0.29458934
-0.29409137
-0.29348148
-0.29275897
-0.29196048
-0.29098646
-0.28988849
-0.28860109
-0.28687845
-0.28442708
-0.28078719
-0.27572753
-0.26856454
-0.26122668
-0.25251914
-0.24234828
-0.23277712
-0.22345214
-0.21404482
-0.20462103
-0.19507683
-0.18481795
-0.17385943
-0.16085018
-0.14671474
-0.12894867
-0.11229842
-0.090833772
-0.077552962
-0.055259831
-0.29693341
-0.29693832
-0.2969441
-0.29695022
-0.29695687
-0.29696415
-0.29697206
-0.29698064
-0.29698991
-0.29699987
-0.29701052
-0.29702183
-0.29703372
-0.29704609
-0.29705878
-0.29707156
-0.29708408
-0.29709592
-0.29710646
-0.29711493
-0.29712033
-0.29712136
-0.29711641
-0.29710348
-0.2970801
-0.29704333
-0.29698966
-0.29691481
-0.29681391
-0.29668965
-0.2965149
-0.29628984
-0.29603695
-0.29572762
-0.29534718
-0.29489597
-0.2943567
-0.29374797
-0.2930225
-0.29220394
-0.29126193
-0.29011789
-0.28858894
-0.28634515
-0.28297728
-0.27811244
-0.27146952
-0.2642213
-0.25606289
-0.24574328
-0.23614304
-0.22668262
-0.21711936
-0.20754143
-0.19782197
-0.18798399
-0.17747858
-0.16641218
-0.15358422
-0.140058
-0.1234318
-0.10819652
-0.088538428
-0.076431685
-0.055713085
-0.29757525
-0.29758118
-0.29758816
-0.29759554
-0.29760355
-0.2976123
-0.29762181
-0.29763209
-0.29764317
-0.29765504
-0.29766768
-0.29768103
-0.29769501
-0.29770946
-0.29772416
-0.29773881
-0.297753
-0.29776617
-0.29777761
-0.29778637
-0.29779128
-0.29779084
-0.29778322
-0.29776618
-0.29773703
-0.2976926
-0.29762898
-0.29754098
-0.29742652
-0.29728233
-0.29710939
-0.29687991
-0.29658329
-0.29624009
-0.29583217
-0.29535907
-0.29481224
-0.2941733
-0.293451
-0.2926055
-0.29158412
-0.29018755
-0.28812235
-0.28497906
-0.28041884
-0.2741357
-0.267049
-0.25940347
-0.24945467
-0.23962028
-0.23029451
-0.2205006
-0.21073954
-0.20095125
-0.19102159
-0.18097997
-0.17033111
-0.15927565
-0.14670874
-0.13378121
-0.11818581
-0.10418671
-0.086099739
-0.075041041
-0.055739369
-0.29850544
-0.29851194
-0.29851959
-0.29852768
-0.29853643
-0.29854597
-0.29855629
-0.29856743
-0.29857937
-0.2985921
-0.29860557
-0.29861969
-0.29863431
-0.29864925
-0.29866421
-0.29867879
-0.29869249
-0.29870461
-0.29871428
-0.29872039
-0.29872155
-0.29871605
-0.2987018
-0.29867631
-0.29863653
-0.29857898
-0.2984993
-0.29839246
-0.29827982
-0.29813714
-0.29790842
-0.29762252
-0.29730942
-0.29694208
-0.29651526
-0.29599926
-0.29541818
-0.29476003
-0.29398086
-0.29303097
-0.29173715
-0.28979533
-0.28684843
-0.28256369
-0.27663398
-0.26979475
-0.26246107
-0.25306797
-0.24312687
-0.23379186
-0.22398746
-0.21411419
-0.20421364
-0.19428344
-0.1842053
-0.17404183
-0.16334569
-0.15237992
-0.14012308
-0.12778479
-0.11313096
-0.1002225
-0.0835132
-0.073391851
-0.055374337
-0.29978425
-0.29979078
-0.29979845
-0.29980652
-0.29981523
-0.29982467
-0.29983484
-0.29984574
-0.29985733
-0.29986957
-0.29988237
-0.29989558
-0.299909
-0.29992236
-0.29993526
-0.2999472
-0.29995751
-0.29996535
-0.29996964
-0.29996903
-0.29996187
-0.29994619
-0.29991954
-0.29987856
-0.29981925
-0.29975001
-0.2996767
-0.29957438
-0.29938663
-0.29914946
-0.29890706
-0.29861241
-0.29825828
-0.29783655
-0.29735379
-0.29680474
-0.29616606
-0.29543395
-0.29453144
-0.29329143
-0.29145185
-0.28865295
-0.28462668
-0.27902989
-0.27240209
-0.26536811
-0.25632823
-0.24662266
-0.23728045
-0.227486
-0.2176035
-0.20762409
-0.19758736
-0.18754116
-0.17736659
-0.16714899
-0.15647648
-0.14566646
-0.13375921
-0.12199666
-0.10820645
-0.096271189
-0.080780343
-0.071510085
-0.05465496
-0.30149368
-0.30149961
-0.30150654
-0.3015138
-0.30152157
-0.30152993
-0.30153884
-0.30154827
-0.30155814
-0.30156836
-0.30157878
-0.30158918
-0.30159927
-0.30160867
-0.30161687
-0.30162321
-0.30162683
-0.30162668
-0.30162144
-0.30160951
-0.30158888
-0.30155673
-0.30151
-0.30145465
-0.30138947
-0.30129849
-0.30115756
-0.3009647
-0.30074634
-0.30049739
-0.30019212
-0.29983082
-0.29940942
-0.29892732
-0.29838021
-0.29775868
-0.29703864
-0.29615092
-0.29494837
-0.29315969
-0.29049177
-0.28665474
-0.28140511
-0.27494249
-0.26816982
-0.25954222
-0.24998568
-0.24073852
-0.23099874
-0.22110583
-0.21107794
-0.20097466
-0.19083422
-0.18070981
-0.17048745
-0.16027383
-0.14968677
-0.13908305
-0.12755054
-0.11634917
-0.10335741
-0.092299789
-0.077897129
-0.069402905
-0.053609248
-0.30371887
-0.30372369
-0.30372927
-0.30373504
-0.30374111
-0.30374752
-0.30375418
-0.30376102
-0.30376791
-0.30377467
-0.30378107
-0.3037868
-0.30379144
-0.30379445
-0.30379515
-0.30379268
-0.30378595
-0.3037736
-0.30375401
-0.30372505
-0.30368414
-0.30363008
-0.30356318
-0.30347554
-0.30335247
-0.30318573
-0.30298887
-0.30276357
-0.30249011
-0.302165
-0.30178266
-0.30134158
-0.30084249
-0.3002797
-0.29964637
-0.29891777
-0.29802572
-0.2968229
-0.29508228
-0.2924733
-0.28883363
-0.28382244
-0.27757291
-0.27097603
-0.26275126
-0.25335302
-0.2441345
-0.23451286
-0.22462071
-0.21455513
-0.20438196
-0.19417427
-0.18394993
-0.17377762
-0.16354928
-0.15338905
-0.14293648
-0.13257955
-0.12144159
-0.11078821
-0.098540359
-0.088283803
-0.074862406
-0.067087273
-0.052262141
-0.30656845
-0.30657177
-0.30657554
-0.30657928
-0.30658304
-0.30658678
-0.30659036
-0.30659362
-0.30659636
-0.3065983
-0.30659907
-0.30659822
-0.30659514
-0.30658911
-0.30657917
-0.30656416
-0.30654266
-0.3065129
-0.30647271
-0.30641958
-0.30635156
-0.30626461
-0.3061526
-0.30600477
-0.30582449
-0.30561451
-0.30536136
-0.30505906
-0.304702
-0.30428751
-0.30381612
-0.30328458
-0.30268968
-0.30202494
-0.3012639
-0.30033854
-0.29911168
-0.29736172
-0.29482332
-0.29124538
-0.28660355
-0.28047883
-0.27410993
-0.2661382
-0.25681449
-0.24760791
-0.23806166
-0.22818456
-0.21807603
-0.2078309
-0.19751556
-0.18720447
-0.17691545
-0.16672483
-0.15652835
-0.14646454
-0.13618888
-0.12611191
-0.11538279
-0.1052653
-0.093716693
-0.084199487
-0.071672455
-0.064569288
-0.050634651
-0.31024236
-0.31024352
-0.31024464
-0.31024545
-0.31024587
-0.31024576
-0.31024491
-0.31024307
-0.31023989
-0.31023497
-0.31022778
-0.31021766
-0.31020378
-0.31018512
-0.31016043
-0.31012816
-0.31008645
-0.31003303
-0.30996522
-0.30987995
-0.3097735
-0.30964028
-0.30947687
-0.30927952
-0.30904183
-0.30875777
-0.30842154
-0.30802925
-0.30757932
-0.30706852
-0.30649426
-0.30585503
-0.30514131
-0.30432441
-0.30333578
-0.30204308
-0.30023999
-0.29767174
-0.2941139
-0.28943832
-0.2835343
-0.27708848
-0.26946278
-0.26040951
-0.25116525
-0.24172483
-0.2318374
-0.22168003
-0.21133794
-0.20090273
-0.1904434
-0.18004033
-0.16970762
-0.15952745
-0.14939807
-0.13946927
-0.12940698
-0.11963806
-0.10933024
-0.099739293
-0.088854209
-0.080027396
-0.068324584
-0.061858339
-0.048744759
-0.31502737
-0.31502511
-0.31502211
-0.31501839
-0.31501368
-0.31500772
-0.31500019
-0.31499071
-0.31497879
-0.31496384
-0.31494512
-0.31492174
-0.31489258
-0.3148563
-0.31481126
-0.31475549
-0.31468663
-0.31460188
-0.31449796
-0.31437108
-0.31421691
-0.3140306
-0.31380688
-0.31354001
-0.31322431
-0.31285495
-0.31242805
-0.31193936
-0.31138554
-0.31076487
-0.310073
-0.30929755
-0.30840638
-0.30732958
-0.30593988
-0.30404516
-0.30141115
-0.29782803
-0.2931712
-0.28734523
-0.28070516
-0.27335018
-0.26423746
-0.25505019
-0.24560327
-0.2357045
-0.22545092
-0.21497823
-0.20437677
-0.19374135
-0.18314026
-0.17265578
-0.1622999
-0.15215834
-0.14212944
-0.13237123
-0.12255554
-0.11311986
-0.10324482
-0.094173643
-0.083924629
-0.075749458
-0.064815472
-0.058959722
-0.04660935
-0.32123392
-0.32122649
-0.32121726
-0.32120675
-0.32119442
-0.32117982
-0.32116252
-0.32114197
-0.32111749
-0.32108829
-0.32105336
-0.32101153
-0.32096137
-0.32090115
-0.32082882
-0.32074195
-0.32063767
-0.32051263
-0.32036298
-0.32018431
-0.3199717
-0.31971982
-0.31942326
-0.31907666
-0.31867467
-0.31821202
-0.31768426
-0.31708786
-0.31641856
-0.31566879
-0.31482153
-0.31383955
-0.31264989
-0.31112799
-0.30909394
-0.30633132
-0.30264618
-0.29792212
-0.29207634
-0.28535256
-0.27796229
-0.2691012
-0.2596854
-0.25018155
-0.23999456
-0.22954001
-0.2188535
-0.20802412
-0.19714308
-0.18630107
-0.17556371
-0.16501352
-0.15465837
-0.1445853
-0.13469056
-0.12513743
-0.11559989
-0.10652124
-0.097091287
-0.088536309
-0.078903624
-0.0713494
-0.061141999
-0.055876513
-0.044240553
-0.32923831
-0.32922355
-0.32920553
-0.32918549
-0.32916252
-0.32913594
-0.32910516
-0.32906945
-0.3290279
-0.32897947
-0.32892288
-0.32885661
-0.32877884
-0.32868747
-0.32858004
-0.32845363
-0.32830488
-0.32812992
-0.32792444
-0.32768369
-0.3274025
-0.32707537
-0.32669651
-0.32626016
-0.32576086
-0.32519337
-0.32455209
-0.32382976
-0.32301422
-0.32208238
-0.32099032
-0.31966025
-0.31796826
-0.31574255
-0.31278229
-0.30890373
-0.3040009
-0.29799185
-0.29103548
-0.28347883
-0.27454114
-0.26498955
-0.25515758
-0.24475986
-0.23403106
-0.2230659
-0.21193417
-0.20074002
-0.18957389
-0.178529
-0.16766841
-0.15707305
-0.14674595
-0.13677352
-0.12704782
-0.11773445
-0.10850656
-0.099808871
-0.090837973
-0.082798789
-0.073769955
-0.066811797
-0.057301261
-0.052604948
-0.041662895
-0.33936684
-0.33934227
-0.33931253
-0.33927984
-0.33924281
-0.33920052
-0.33915217
-0.33909682
-0.33903334
-0.33896038
-0.33887642
-0.33877972
-0.33866801
-0.33853872
-0.33838904
-0.33821566
-0.33801477
-0.33778206
-0.33751296
-0.3372023
-0.33684458
-0.33643397
-0.33596447
-0.33542979
-0.33482314
-0.33413642
-0.33335839
-0.33247122
-0.33144445
-0.33022609
-0.32873157
-0.326835
-0.32436859
-0.32114273
-0.31698279
-0.31178645
-0.30549273
-0.29818346
-0.29028012
-0.28113685
-0.27123743
-0.2610235
-0.25026697
-0.23916758
-0.22779013
-0.21624576
-0.20463471
-0.19305729
-0.18160386
-0.17036584
-0.15940128
-0.14878755
-0.13852103
-0.12868529
-0.1191662
-0.11012882
-0.10124324
-0.092951583
-0.08445633
-0.076936042
-0.068505823
-0.062124907
-0.053293316
-0.049163235
-0.0388591
-0.35195644
-0.35191959
-0.35187525
-0.35182681
-0.35177234
-0.35171066
-0.35164085
-0.35156144
-0.3514706
-0.35136952
-0.35126581
-0.35114553
-0.35098391
-0.35079595
-0.35059573
-0.35037064
-0.35011238
-0.34981623
-0.34947735
-0.34909068
-0.34865001
-0.34814865
-0.34757901
-0.3469321
-0.34619625
-0.34535493
-0.34438297
-0.34324071
-0.34186609
-0.34016578
-0.33800898
-0.33523093
-0.33164727
-0.32709892
-0.32147752
-0.31474815
-0.30696424
-0.29857114
-0.28904299
-0.27862248
-0.26786246
-0.25662074
-0.24500438
-0.23311194
-0.22104563
-0.20891561
-0.19682234
-0.18486897
-0.17314427
-0.16173688
-0.15069913
-0.14010306