/*--------------------------------*- C++ -*----------------------------------*\
  =========                 |
  \\      /  F ield         | OpenFOAM: The Open Source CFD Toolbox
   \\    /   O peration     | Website:  https://openfoam.org
    \\  /    A nd           | Version:  13
     \\/     M anipulation  |
\*---------------------------------------------------------------------------*/
FoamFile
{
    format      ascii;
    class       volScalarField;
    location    "39.996259";
    object      yPlus;
}
// * * * * * * * * * * * * * * * * * * * * * * * * * * * * * * * * * * * * * //

dimensions      [];

internalField   uniform 0;

boundaryField
{
    inlet
    {
        type            calculated;
        value           uniform 0;
    }
    outlet
    {
        type            calculated;
        value           uniform 0;
    }
    cylinder
    {
        type            calculated;
        value           nonuniform List<scalar> 
132
(
1.2222198e-07
1.2110626e-07
1.1956796e-07
1.1759407e-07
1.1518832e-07
1.1236255e-07
1.0913564e-07
1.0553332e-07
1.0158807e-07
9.7338742e-08
9.2830339e-08
8.8113411e-08
8.3243236e-08
7.8279008e-08
7.3282662e-08
6.8318329e-08
6.3451094e-08
5.8743689e-08
5.4253293e-08
5.0024466e-08
4.6080551e-08
4.2411357e-08
3.8959516e-08
3.5612367e-08
3.2211128e-08
2.858893e-08
2.4631874e-08
2.0352123e-08
1.5929932e-08
1.1684396e-08
7.9893657e-09
5.179624e-09
3.5099655e-09
3.0739343e-09
3.451263e-09
4.2052062e-09
5.1966886e-09
6.4228997e-09
7.9087266e-09
9.6888556e-09
1.1830416e-08
1.4414729e-08
1.7218569e-08
2.0201871e-08
2.3288478e-08
2.6413182e-08
2.9513689e-08
3.2540541e-08
3.5461349e-08
3.8249739e-08
4.0889503e-08
4.3372235e-08
4.5687993e-08
4.7830429e-08
4.982637e-08
5.1639532e-08
5.3289578e-08
5.4775182e-08
5.6102266e-08
5.726466e-08
5.8254026e-08
5.9083778e-08
5.975349e-08
6.0262358e-08
6.0614183e-08
6.080151e-08
1.2287901e-07
1.230783e-07
1.2284203e-07
1.2212628e-07
1.2090511e-07
1.1916022e-07
1.1688111e-07
1.1406634e-07
1.1072479e-07
1.0687665e-07
1.0255457e-07
9.7804158e-08
9.2684127e-08
8.7265928e-08
8.1632576e-08
7.5876197e-08
7.0095142e-08
6.4389573e-08
5.8852811e-08
5.3564529e-08
4.857656e-08
4.3898541e-08
3.9486304e-08
3.5240544e-08
3.1025053e-08
2.6710901e-08
2.2241416e-08
1.769162e-08
1.3281442e-08
9.3261511e-09
6.1501563e-09
4.0256622e-09
3.1178759e-09
3.230662e-09
3.8458784e-09
4.7208487e-09
5.8170124e-09
7.1507765e-09
8.749498e-09
1.0643885e-08
1.2892969e-08
1.5571942e-08
1.8440143e-08
2.1459348e-08
2.4555202e-08
2.7661361e-08
3.0723485e-08
3.3700178e-08
3.6560109e-08
3.9283859e-08
4.1854259e-08
4.427068e-08
4.6516758e-08
4.8584836e-08
5.0523554e-08
5.2264425e-08
5.3855468e-08
5.5276845e-08
5.6544833e-08
5.7640903e-08
5.857248e-08
5.9341987e-08
5.9953455e-08
6.0403326e-08
6.0692541e-08
6.0823728e-08
)
;
    }
    frontAndBack
    {
        type            empty;
    }
}


// ************************************************************************* //
