/*--------------------------------*- C++ -*----------------------------------*\
  =========                 |
  \\      /  F ield         | OpenFOAM: The Open Source CFD Toolbox
   \\    /   O peration     | Website:  https://openfoam.org
    \\  /    A nd           | Version:  13
     \\/     M anipulation  |
\*---------------------------------------------------------------------------*/
FoamFile
{
    format      ascii;
    class       volVectorField;
    location    "7.399526";
    object      UMean;
}
// * * * * * * * * * * * * * * * * * * * * * * * * * * * * * * * * * * * * * //

dimensions      [0 1 -1 0 0 0 0];

internalField   nonuniform List<vector> 
17140
(
(-4.1874437e-06 0.000177082 -5.9724321e-22)
(-5.4449414e-05 0.0005437492 -4.8357844e-23)
(-0.00016290084 0.00094301191 3.1948107e-21)
(-0.00035228248 0.0013764267 -3.5133458e-21)
(-0.00064273178 0.0018455436 4.1088915e-22)
(-0.001061919 0.002351467 -1.3452506e-21)
(-0.0016436782 0.0028947424 -2.2660307e-21)
(-0.0024286344 0.0034751601 1.1075043e-21)
(-0.003465346 0.0040915338 3.6275302e-21)
(-0.0048113598 0.004741443 8.9068288e-21)
(-0.0065341633 0.0054209539 -1.3227085e-20)
(-0.0087119641 0.0061243303 1.1807694e-20)
(-0.011434179 0.0068437578 1.8101861e-21)
(-0.014801455 0.0075691138 -1.0270268e-20)
(-0.018925032 0.008287844 1.1434977e-21)
(-0.023925235 0.0089849976 -9.0924704e-21)
(-0.029928952 0.0096435211 3.4065982e-22)
(-0.037065964 0.010244886 -7.5493454e-23)
(-0.045464245 0.010770131 -5.4487213e-21)
(-0.055244582 0.011201352 7.1031178e-21)
(-0.066515087 0.011523563 -3.4340865e-21)
(-0.079366515 0.011726732 6.6052388e-22)
(-0.093871876 0.011807529 4.869237e-21)
(-0.11009399 0.011770237 -4.8605519e-21)
(-0.12806404 0.011626609 -7.7452373e-21)
(-0.14780236 0.011392605 6.2315535e-21)
(-0.16938221 0.01108129 3.0549131e-20)
(-0.19284357 0.010706622 3.581824e-21)
(-0.2182037 0.010279853 -3.1519023e-20)
(-0.24551712 0.0098076788 -7.345374e-21)
(-0.27481254 0.0092939311 -2.6212993e-20)
(-0.30610498 0.0087402118 3.4534545e-20)
(-0.33938544 0.0081465716 -8.9825706e-21)
(-0.37461162 0.007511894 -4.3055434e-21)
(-0.41169629 0.006833584 -4.2257501e-20)
(-0.45049127 0.0061071825 1.8608749e-20)
(-0.49076558 0.0053260134 -2.8009802e-20)
(-0.53217527 0.0044807562 -1.8957568e-20)
(-0.57422372 0.0035591424 -8.6693909e-21)
(-0.61621272 0.0025469194 2.6304911e-20)
(-0.65718864 0.0014279792 4.9503242e-20)
(-0.69587955 0.00018783118 4.4773298e-20)
(-0.73063982 -0.001182374 1.947293e-20)
(-0.7594736 -0.0026832908 -9.4039579e-20)
(-0.78003594 -0.0042992174 -6.8297032e-20)
(-0.78971512 -0.0059762619 1.6679636e-20)
(-0.78593054 -0.0076594803 -1.1254165e-19)
(-0.7659814 -0.0092669415 -3.7995879e-20)
(-0.72787826 -0.010706001 3.8531647e-20)
(-0.67068747 -0.011889123 9.4016667e-20)
(-0.59450046 -0.012766837 -5.7823787e-20)
(-0.49909161 -0.013260699 -3.6548106e-20)
(-0.38750846 -0.013346459 9.5216518e-20)
(-0.26075583 -0.013076799 4.5069115e-20)
(-0.12147765 -0.012442042 3.2189172e-20)
(0.027075202 -0.011405097 -2.5245333e-20)
(0.17960456 -0.0098861495 6.835636e-20)
(0.32854289 -0.0079091765 5.6939668e-20)
(0.46598907 -0.0055980244 1.4207926e-20)
(0.58504991 -0.0031828671 -3.6424748e-20)
(0.682765 -0.00095240447 -2.8343165e-20)
(0.75948334 0.00093538937 -1.043388e-19)
(0.81836391 0.0024160069 -1.5247972e-20)
(0.86224014 0.0035630606 1.2793267e-19)
(0.89486854 0.0043520326 -9.8792124e-20)
(-4.2708589e-05 0.00099702688 1.6968993e-22)
(-0.00017176212 0.0030625019 -1.674244e-20)
(-0.0003650491 0.0053128917 1.4901949e-20)
(-0.00064509712 0.0077585361 -4.0642029e-21)
(-0.0010320798 0.010408797 -8.3979902e-21)
(-0.0015534217 0.013270864 1.6053666e-20)
(-0.0022425027 0.016348972 -1.6745405e-20)
(-0.0031392467 0.019643371 1.4748164e-21)
(-0.0042912117 0.023149092 -4.6083783e-21)
(-0.0057545906 0.026854549 -7.7530959e-23)
(-0.0075951173 0.03074 -1.5423539e-20)
(-0.00988881 0.034775946 2.4549982e-20)
(-0.012722438 0.038921589 2.0314321e-21)
(-0.016193547 0.043123543 -2.0095199e-20)
(-0.020409862 0.047315079 6.1884774e-21)
(-0.025487885 0.051416289 3.9398254e-21)
(-0.031550506 0.055335598 -2.5053777e-20)
(-0.038723564 0.058973165 8.1857042e-20)
(-0.047131416 0.062226571 -5.1394953e-20)
(-0.056891859 0.064999 6.1721481e-20)
(-0.068110966 0.067209586 -9.1405222e-20)
(-0.080878651 0.068804765 2.2457407e-20)
(-0.095268099 0.069768309 9.2739629e-21)
(-0.11134304 0.07012687 -3.0313675e-20)
(-0.12913958 0.069948549 1.091447e-19)
(-0.14867698 0.069325558 1.6243448e-20)
(-0.17002934 0.068335756 -8.4407569e-20)
(-0.19324218 0.067059529 9.4552676e-20)
(-0.21832974 0.065561722 -1.3075145e-20)
(-0.24534703 0.063882546 -1.2730556e-19)
(-0.27432155 0.062044748 1.3258441e-20)
(-0.30526687 0.060057631 1.0117101e-19)
(-0.33817184 0.05792104 2.4728474e-21)
(-0.37299136 0.055626691 -7.5627841e-20)
(-0.40963459 0.053157006 8.4598311e-20)
(-0.44794834 0.050482461 -3.8132215e-20)
(-0.48769511 0.047558535 4.5120193e-20)
(-0.52852273 0.044322991 1.4346885e-19)
(-0.5699237 0.040694093 3.2090656e-20)
(-0.61118594 0.036571243 1.2561925e-19)
(-0.6513376 0.03183857 -1.6107176e-19)
(-0.6890832 0.026377063 -1.4772035e-19)
(-0.72274993 0.020086728 -2.5091532e-20)
(-0.75029733 0.012911277 2.0100773e-19)
(-0.76932596 0.0048572892 -9.4341148e-20)
(-0.77720911 -0.0039749517 -3.2512009e-20)
(-0.77113954 -0.013417625 1.7463963e-20)
(-0.7486484 -0.023102767 5.3953155e-20)
(-0.70786372 -0.03249695 -2.6337795e-20)
(-0.64768897 -0.041138016 4.7556453e-20)
(-0.56819618 -0.048736142 2.8632646e-19)
(-0.47045857 -0.054850433 1.3690236e-20)
(-0.35612392 -0.059419133 -6.1916302e-20)
(-0.22713971 -0.062626889 1.3807577e-19)
(-0.086063162 -0.064228729 -1.1811991e-19)
(0.063655034 -0.063846488 3.3572801e-19)
(0.21655485 -0.060830319 9.5688322e-20)
(0.3648443 -0.054906748 -2.6919763e-19)
(0.50054503 -0.046534463 4.5484483e-20)
(0.61688558 -0.036836553 5.166802e-20)
(0.71137346 -0.027329386 1.0307701e-20)
(0.78447532 -0.019020115 -1.3633408e-19)
(0.83952587 -0.012320632 2.6502404e-19)
(0.87942452 -0.0070762624 7.9190054e-20)
(0.90827364 -0.0032410821 1.3151589e-19)
(-0.00012591375 0.0017976422 9.3485043e-21)
(-0.00042497371 0.00552272 -5.0490018e-21)
(-0.00080107535 0.0095825183 -1.3430218e-21)
(-0.0012762067 0.01399642 1.2740605e-21)
(-0.0018705522 0.018781869 -6.1754386e-21)
(-0.0026109082 0.023952563 -4.5889895e-22)
(-0.0035295585 0.029517034 -5.8732042e-21)
(-0.0046647818 0.035476802 -6.3324135e-21)
(-0.0060618232 0.041824164 5.1817036e-20)
(-0.0077737827 0.048539678 -4.6319834e-20)
(-0.0098624217 0.05558938 2.2198793e-20)
(-0.012398826 0.062921862 3.2578606e-20)
(-0.015463833 0.070465419 -6.4741057e-20)
(-0.019148069 0.078125614 -8.0299792e-21)
(-0.023551457 0.085783758 3.1100945e-20)
(-0.028782015 0.093296968 2.1442805e-20)
(-0.03495381 0.10050064 -2.4949711e-20)
(-0.042183983 0.10721428 9.062901e-20)
(-0.050588919 0.11325144 -5.3778371e-20)
(-0.06027983 0.11843437 2.6682146e-20)
(-0.071358265 0.12261265 -9.0339234e-20)
(-0.083912193 0.12568407 -2.357938e-20)
(-0.098015024 0.12761349 4.9357648e-20)
(-0.11373208 0.12844404 -7.4453051e-20)
(-0.13111011 0.12829521 -2.9327863e-20)
(-0.1501653 0.1273348 3.5401678e-20)
(-0.17097352 0.12571139 2.0095564e-19)
(-0.19359277 0.12356866 9.0872648e-20)
(-0.21802933 0.1210277 -4.5606453e-20)
(-0.24433875 0.11816539 4.8569647e-20)
(-0.2725455 0.11502504 -3.0697129e-20)
(-0.30265911 0.11162441 -1.731775e-19)
(-0.33466328 0.10796331 5.8142105e-20)
(-0.36850607 0.10402598 1.7394025e-19)
(-0.40408759 0.09977937 -5.8572455e-20)
(-0.44124311 0.095168226 -8.2030336e-20)
(-0.47971999 0.090109239 1.4262245e-19)
(-0.51914613 0.084485738 4.3526887e-20)
(-0.55898829 0.078144322 -7.8151412e-20)
(-0.59850087 0.070894828 -3.1537649e-20)
(-0.63666744 0.062517511 1.5145835e-19)
(-0.67213583 0.052783686 -4.3230677e-20)
(-0.70316619 0.041495227 -6.2587174e-20)
(-0.72763478 0.028532898 -1.6680552e-19)
(-0.74306364 0.013892973 3.1756627e-19)
(-0.74672688 -0.0022582299 -2.0536918e-19)
(-0.73592108 -0.019533722 -5.1657928e-20)
(-0.70829492 -0.037271857 -2.0539431e-19)
(-0.66206983 -0.054619178 -2.4711795e-19)
(-0.59645737 -0.070662403 -1.2647245e-20)
(-0.51191235 -0.084685481 5.3510767e-20)
(-0.40982239 -0.096193852 -3.9518804e-19)
(-0.29202937 -0.10506477 -1.6958239e-19)
(-0.16082783 -0.11139835 -1.7530555e-19)
(-0.018816117 -0.11492297 -5.7689292e-20)
(0.13046838 -0.1148651 -4.4883004e-19)
(0.28140008 -0.10998904 1.780927e-19)
(0.42591346 -0.099737253 -5.4140073e-20)
(0.55605297 -0.084985265 -4.4357726e-19)
(0.66554499 -0.067850634 -1.7561902e-19)
(0.75262056 -0.051063222 2.0833158e-19)
(0.81813723 -0.036400792 7.1465656e-19)
(0.86587719 -0.024635381 -2.2791725e-19)
(0.89905771 -0.015577135 -3.6679824e-19)
(0.92219963 -0.0090089812 -1.5697323e-19)
(-0.00025075884 0.0025492593 -3.1226133e-20)
(-0.00080492616 0.0078340666 3.6275392e-20)
(-0.0014553305 0.013596443 -1.3120146e-20)
(-0.0022231595 0.019865009 1.4269787e-21)
(-0.0031286139 0.026665655 -2.8218518e-20)
(-0.0041975481 0.034019274 2.9215896e-20)
(-0.0054606027 0.041939743 -4.43466e-20)
(-0.0069535875 0.05043133 2.0887818e-20)
(-0.0087182741 0.059485588 7.9492265e-20)
(-0.010803113 0.069077781 -1.9144277e-20)
(-0.013263886 0.079162901 -7.3023047e-20)
(-0.016164241 0.089671428 2.2341933e-20)
(-0.019576046 0.10050512 1.4998039e-21)
(-0.023579442 0.11153331 -5.8766837e-20)
(-0.028262474 0.12259033 1.844855e-19)
(-0.033720188 0.13347511 -1.1370289e-19)
(-0.040053062 0.14395408 -1.0878483e-21)
(-0.047364728 0.15376868 6.3472369e-20)
(-0.055759032 0.16264897 -1.6204138e-19)
(-0.065336615 0.17033389 7.6928206e-20)
(-0.076191468 0.17659784 1.1542457e-19)
(-0.088407851 0.18128116 4.6994859e-20)
(-0.10205898 0.18431873 -2.3411974e-19)
(-0.11721209 0.18575841 -1.2305323e-19)
(-0.13392749 0.18576046 8.0144353e-20)
(-0.15222142 0.18456504 -4.6904111e-20)
(-0.17217042 0.18240217 1.769587e-19)
(-0.19384796 0.17947103 -5.1043974e-20)
(-0.21725389 0.17595259 1.3836852e-19)
(-0.24244064 0.17196678 -7.866855e-20)
(-0.26942946 0.16758034 4.8768772e-20)
(-0.29822347 0.16282117 -1.8021359e-19)
(-0.32879839 0.15768917 2.609951e-20)
(-0.36109179 0.15216087 -1.3794977e-19)
(-0.39499017 0.14618692 1.3302609e-19)
(-0.43031137 0.13968529 4.2526777e-20)
(-0.46677989 0.13253252 -5.3788828e-19)
(-0.50399417 0.12455556 -1.4096851e-19)
(-0.54138289 0.11552637 1.1779591e-19)
(-0.57815134 0.10516167 -1.1636284e-19)
(-0.61322082 0.093133704 2.9848746e-20)
(-0.64516278 0.079101083 1.8923347e-19)
(-0.67215315 0.062766101 -8.9278151e-21)
(-0.69197624 0.043948606 -6.3556925e-20)
(-0.70209929 0.022653606 3.1115835e-20)
(-0.69983093 -0.00084460002 -1.5048627e-20)
(-0.68261079 -0.025938127 -4.4724163e-20)
(-0.64829262 -0.051647347 6.9736002e-19)
(-0.5954428 -0.076706923 -7.7871276e-20)
(-0.52368968 -0.099777217 7.2636805e-20)
(-0.43388091 -0.11979145 -6.864472e-19)
(-0.3277751 -0.13611733 3.7867739e-19)
(-0.20755832 -0.14869074 3.1253719e-19)
(-0.075693378 -0.15767764 2.9977158e-19)
(0.065173016 -0.16274715 2.8961551e-19)
(0.21147249 -0.16272946 4.5528783e-19)
(0.35741717 -0.15573674 -9.0903178e-19)
(0.49462959 -0.14093912 5.5834737e-19)
(0.61533644 -0.11976794 8.4430453e-19)
(0.71426205 -0.095375124 -6.1627608e-19)
(0.79052182 -0.071655225 -1.9606782e-19)
(0.84587849 -0.051110966 -1.7060215e-19)
(0.88472901 -0.034829014 8.659099e-19)
(0.91082763 -0.022468684 6.3526008e-19)
(0.92858701 -0.013740759 -2.7893374e-20)
(-0.00041089457 0.0032225454 2.1912056e-20)
(-0.0012924459 0.0099070245 -5.3047697e-20)
(-0.0022949841 0.017200279 4.3263034e-20)
(-0.0034387428 0.025140336 -1.6356806e-20)
(-0.0047439976 0.033761925 -5.9122309e-21)
(-0.0062354683 0.043094004 5.0913245e-20)
(-0.0079417706 0.053157191 -1.2909334e-20)
(-0.009895641 0.063960555 -2.7438588e-20)
(-0.012134496 0.075497722 -2.1091065e-21)
(-0.014700922 0.087742361 -1.7942031e-20)
(-0.017643118 0.10064308 2.5175327e-20)
(-0.02101525 0.11411794 -1.7544726e-20)
(-0.024877683 0.12804879 -6.4838491e-20)
(-0.029297013 0.14227617 -1.8888145e-21)
(-0.034345833 0.15659537 4.9966207e-20)
(-0.040102136 0.17075499 3.5565973e-20)
(-0.046648331 0.18445951 -3.0773553e-20)
(-0.054069809 0.19737754 2.9828715e-21)
(-0.062453109 0.20915781 6.0831414e-20)
(-0.071883837 0.21945402 7.4648333e-20)
(-0.082444596 0.22795849 -8.586966e-20)
(-0.094213166 0.23444202 -8.7096825e-20)
(-0.10726133 0.23879325 1.1812446e-19)
(-0.12165809 0.24104664 -1.4720664e-19)
(-0.13747609 0.24138638 -2.5660849e-19)
(-0.15474277 0.24011679 6.0846528e-19)
(-0.17352946 0.23756262 -3.3649999e-19)
(-0.19392155 0.23396886 4.9999315e-19)
(-0.2159257 0.22958024 -6.2670376e-19)
(-0.23958249 0.22456958 7.011267e-19)
(-0.26491174 0.21903152 -7.2648397e-19)
(-0.2919079 0.21300683 1.2276407e-19)
(-0.3205363 0.20649629 4.2413353e-19)
(-0.35072108 0.19946837 -2.3992236e-19)
(-0.38233155 0.19185662 7.532263e-20)
(-0.41516338 0.18355105 2.2247177e-20)
(-0.44891284 0.17438653 2.7296518e-19)
(-0.48314219 0.16413149 8.9092316e-20)
(-0.51723426 0.15248018 8.9752913e-20)
(-0.55033657 0.13905235 8.9783629e-20)
(-0.58129873 0.12340816 -4.5913164e-19)
(-0.60860966 0.1050901 2.0208781e-19)
(-0.6303631 0.083703225 3.179175e-20)
(-0.64428598 0.059023764 -3.716875e-19)
(-0.64786686 0.03110389 -1.8825476e-19)
(-0.63856911 0.00036117226 9.3189382e-20)
(-0.61410214 -0.032345634 3.3633373e-19)
(-0.57265946 -0.06572051 -1.4744681e-19)
(-0.51314116 -0.098106584 4.2765968e-19)
(-0.43548165 -0.12772756 2.3336118e-19)
(-0.34084821 -0.15318232 3.2450418e-19)
(-0.23136691 -0.17375508 8.7233253e-19)
(-0.10960337 -0.18945111 -6.7871215e-19)
(0.021678229 -0.20055237 2.20759e-19)
(0.15968783 -0.20675477 -3.835679e-19)
(0.3008172 -0.20647342 -3.6451476e-19)
(0.43907206 -0.19710081 -1.4205885e-19)
(0.56575751 -0.1775853 -1.2980085e-18)
(0.67373894 -0.15008509 -3.4812361e-19)
(0.75905887 -0.11884063 7.9226531e-19)
(0.82222295 -0.088829997 2.9805862e-19)
(0.86625918 -0.063170146 -2.2240961e-19)
(0.89635258 -0.043150998 -4.5918021e-19)
(0.91640247 -0.028197279 -7.1388272e-19)
(0.93074963 -0.017905002 5.4362453e-20)
(-0.00059665194 0.0037894413 6.6487763e-20)
(-0.0018583063 0.011655841 1.7083644e-20)
(-0.0032699079 0.020245901 -1.3841204e-20)
(-0.0048507513 0.029607086 -5.1126905e-20)
(-0.0066212931 0.039783315 2.8028392e-20)
(-0.0086050824 0.050812541 -4.037436e-20)
(-0.010828551 0.062723734 1.7486641e-20)
(-0.013321058 0.075533209 4.169804e-21)
(-0.016115171 0.089240117 -2.3638914e-20)
(-0.019246883 0.10382115 -5.1042398e-20)
(-0.02275579 0.11922448 -2.5644406e-21)
(-0.02668521 0.13536305 8.4361765e-20)
(-0.031082231 0.15210755 -1.1711912e-19)
(-0.035997657 0.1692797 1.8995018e-19)
(-0.041485841 0.18664662 -4.9900566e-20)
(-0.047604394 0.20391774 1.0665728e-19)
(-0.054413744 0.22074605 -1.2989227e-19)
(-0.061976627 0.23673583 8.5046242e-20)
(-0.070357496 0.25145942 -1.35669e-20)
(-0.079621985 0.26448499 -5.5568378e-20)
(-0.089836583 0.27541587 1.3649137e-19)
(-0.10106849 0.28393913 -1.9480758e-19)
(-0.11338556 0.28987645 2.1421466e-19)
(-0.12685785 0.29322452 3.7118768e-20)
(-0.14156317 0.29416871 -3.6897797e-19)
(-0.15756022 0.29305839 3.7645507e-19)
(-0.1749012 0.29030903 -2.469033e-19)
(-0.19367584 0.28623207 2.7896588e-19)
(-0.21392761 0.28112879 2.6469458e-20)
(-0.2356664 0.27523404 1.6547224e-20)
(-0.25891499 0.26867877 -1.1278682e-19)
(-0.28365705 0.2615211 7.401336e-21)
(-0.30984581 0.25376448 -4.289661e-19)
(-0.33738966 0.24536932 1.1690358e-19)
(-0.36613796 0.23625156 3.50705e-19)
(-0.3958611 0.22627237 -1.6462239e-19)
(-0.4262234 0.21522377 1.3619846e-19)
(-0.45674696 0.20281383 -1.3723793e-19)
(-0.48676441 0.1886565 -7.6848294e-19)
(-0.5153619 0.17227137 4.2688341e-19)
(-0.54131713 0.15310378 1.0481963e-19)
(-0.5630448 0.13058224 -5.9587652e-19)
(-0.57858401 0.10422661 3.4868499e-20)
(-0.58567861 0.073798089 7.32024e-20)
(-0.58195504 0.039434287 7.909369e-19)
(-0.56517923 0.0017255389 1.8301926e-19)
(-0.53345506 -0.038233019 -2.8729433e-19)
(-0.48530087 -0.078877599 -2.9337803e-19)
(-0.41974055 -0.11819736 -4.171809e-19)
(-0.33675272 -0.15395579 -5.161678e-19)
(-0.23774401 -0.18435104 -3.1633185e-19)
(-0.12529284 -0.2085395 -4.9473434e-19)
(-0.0025052619 -0.22664157 1.7010062e-19)
(0.12733891 -0.23916584 -1.0546046e-18)
(0.26113988 -0.24594715 -7.135857e-20)
(0.39519353 -0.24502358 -6.0866809e-20)
(0.523261 -0.23300676 -3.3859036e-20)
(0.63655001 -0.20872376 1.4013194e-18)
(0.72912971 -0.17522552 5.4787405e-19)
(0.79872872 -0.13784439 -8.4159233e-19)
(0.84780599 -0.10252836 -1.2035457e-18)
(0.8807865 -0.072838409 -5.3744625e-19)
(0.90340936 -0.050055978 -1.74124e-19)
(0.91920243 -0.033278184 1.0169013e-18)
(0.93196313 -0.021899676 -2.5550678e-19)
(-0.00079520387 0.0042254095 -1.2499737e-20)
(-0.0024644687 0.013005001 -2.8872212e-20)
(-0.0043143827 0.022602474 6.972035e-20)
(-0.006364465 0.03307435 -2.5951673e-21)
(-0.008635142 0.04447397 -3.3994132e-20)
(-0.011148956 0.056849098 -1.4996745e-20)
(-0.013930267 0.070238654 -1.1086169e-20)
(-0.017005102 0.084668776 2.1879394e-20)
(-0.020401149 0.1001479 -1.1347047e-19)
(-0.024147666 0.11666092 8.5824669e-20)
(-0.028275354 0.13416235 -4.1598989e-21)
(-0.032816176 0.1525686 -5.2258361e-20)
(-0.037803146 0.17174962 1.9631734e-19)
(-0.043270104 0.1915205 -1.9663087e-19)
(-0.049251516 0.21163386 2.6358691e-20)
(-0.055782344 0.23177447 1.6415177e-19)
(-0.062898086 0.25155815 -1.5560531e-19)
(-0.070635078 0.27053745 5.4905308e-20)
(-0.07903117 0.28821729 -1.0770913e-19)
(-0.08812684 0.30408338 1.3976207e-19)
(-0.097966866 0.31764503 2.654601e-19)
(-0.10860228 0.32849104 -2.6592886e-19)
(-0.12009217 0.33635213 -3.9395965e-19)
(-0.13250477 0.34115636 7.681404e-19)
(-0.14591975 0.34305779 -6.2177218e-19)
(-0.16042448 0.34241874 3.6368615e-19)
(-0.17606426 0.33972666 -9.4417774e-20)
(-0.19292878 0.33541599 2.2409993e-19)
(-0.21109754 0.32981284 -2.3061846e-19)
(-0.230563 0.32321927 -3.116431e-19)
(-0.25134141 0.31582147 2.0809145e-19)
(-0.27340687 0.30770232 3.4539595e-19)
(-0.29669882 0.29887172 -3.0598234e-20)
(-0.32110827 0.28928296 -1.2786734e-20)
(-0.34646239 0.27883423 -2.2491776e-19)
(-0.37250377 0.26735749 9.7862692e-20)
(-0.39886215 0.25460115 3.5998224e-19)
(-0.42501688 0.24021202 1.8176841e-19)
(-0.45024887 0.22372239 -2.7961019e-19)
(-0.47358371 0.2045504 2.2181964e-19)
(-0.49373436 0.18202804 -1.890765e-19)
(-0.50906441 0.15547888 6.330466e-20)
(-0.51761114 0.12436276 2.421447e-19)
(-0.51723627 0.088466794 -5.8094585e-19)
(-0.50584788 0.048052532 -3.458723e-19)
(-0.48165223 0.0038853369 -2.2490633e-19)
(-0.44318445 -0.042787703 7.0885293e-19)
(-0.38909606 -0.090270721 4.5968049e-19)
(-0.31818106 -0.13625225 5.4005091e-19)
(-0.23033942 -0.17792197 9.4465422e-19)
(-0.12735745 -0.21291625 -3.284643e-19)
(-0.012394685 -0.24018096 6.8847928e-20)
(0.11078374 -0.25996948 5.5267603e-19)
(0.23825052 -0.27312646 1.6280012e-18)
(0.36654613 -0.27979643 1.0764794e-18)
(0.49176761 -0.27773179 4.2501637e-19)
(0.60732133 -0.26279005 1.2418213e-18)
(0.7048602 -0.23379256 -8.4358466e-19)
(0.78002456 -0.1948608 8.883397e-20)
(0.83289856 -0.1523392 1.3604205e-18)
(0.86819631 -0.11296619 9.1860932e-19)
(0.89150403 -0.080454708 4.1721241e-20)
(0.90854231 -0.055863603 -1.4627681e-18)
(0.92181972 -0.03790977 1.5583847e-19)
(0.93415296 -0.025751697 -2.2029957e-19)
(-0.00099181379 0.0045108788 -4.9111681e-20)
(-0.0030652931 0.013894122 2.4033464e-20)
(-0.0053503317 0.024164683 -3.2481281e-20)
(-0.0078669313 0.035387557 -1.8472227e-20)
(-0.010635699 0.047625376 5.1589741e-20)
(-0.013678456 0.060936222 4.8205871e-20)
(-0.017017826 0.075370294 -4.9527289e-20)
(-0.02067691 0.090965921 5.9674907e-21)
(-0.024678962 0.1077445 1.3847321e-21)
(-0.029047002 0.12570436 9.8650919e-20)
(-0.033803334 0.14481344 -1.0853952e-20)
(-0.038969032 0.16500082 -2.001946e-19)
(-0.044563386 0.18614719 1.6073946e-19)
(-0.050603395 0.20807488 -5.5706944e-21)
(-0.057103387 0.23053799 -1.0894502e-19)
(-0.064074869 0.25321431 -9.4456906e-21)
(-0.071526821 0.27570082 2.4222967e-20)
(-0.079466593 0.29751582 1.1020066e-19)
(-0.087901635 0.31811115 -2.0401133e-19)
(-0.096842234 0.33689851 3.6282774e-19)
(-0.10630523 0.35329266 -7.9244917e-20)
(-0.11631844 0.36677203 5.8909361e-20)
(-0.12692498 0.37695141 -4.9107851e-20)
(-0.13818598 0.38365377 2.0458319e-21)
(-0.15018082 0.38695907 -2.9773165e-19)
(-0.16300486 0.3872042 -2.9987647e-19)
(-0.17674251 0.38491633 5.9886531e-19)
(-0.19145735 0.38065958 1.0042949e-19)
(-0.20723628 0.37484322 -3.521437e-19)
(-0.22411632 0.36779427 -1.2581442e-19)
(-0.24207558 0.35977064 -2.8616205e-19)
(-0.26108754 0.35089888 3.2459842e-19)
(-0.28107284 0.34120438 1.4273934e-19)
(-0.30190337 0.33063498 -3.3322043e-19)
(-0.32338222 0.31907129 1.4083337e-19)
(-0.34522195 0.30631649 6.7232447e-20)
(-0.36701527 0.29207608 -1.9855579e-19)
(-0.38819665 0.27593627 -5.2286638e-19)
(-0.40799445 0.25734876 -1.598989e-19)
(-0.42537635 0.23563277 1.0698315e-19)
(-0.43900314 0.21001464 2.5526821e-19)
(-0.44721841 0.17973282 2.6500486e-19)
(-0.4481234 0.14422541 2.9390458e-19)
(-0.43979807 0.10335641 6.1711284e-19)
(-0.42054349 0.057538293 -1.7874436e-20)
(-0.38905302 0.0076670886 2.5981676e-19)
(-0.34416555 -0.045019713 -1.4182272e-18)
(-0.28434312 -0.098876483 -3.9360153e-19)
(-0.20804805 -0.15127741 -4.495755e-19)
(-0.11552912 -0.19865054 -1.2513814e-18)
(-0.0092438345 -0.23794057 1.470905e-18)
(0.10705812 -0.26786587 -3.3018715e-19)
(0.22905083 -0.28876238 -1.0679516e-18)
(0.35236434 -0.30187677 -1.3177526e-18)
(0.47344002 -0.30777063 -1.6736525e-19)
(0.58801158 -0.30401665 4.2624505e-19)
(0.68897654 -0.28589813 6.8714065e-19)
(0.768855 -0.25246965 -2.9175435e-19)
(0.82543075 -0.20891877 5.2109495e-19)
(0.86174572 -0.16255204 -4.2648469e-19)
(0.88465915 -0.12054097 -1.4370145e-19)
(0.9002984 -0.086436826 -4.2081457e-19)
(0.91360794 -0.060886032 1.8269513e-18)
(0.92554266 -0.042242914 6.1226828e-20)
(0.93777225 -0.029475403 7.2071329e-19)
(-0.0011701868 0.0046331115 4.5901372e-20)
(-0.0036110286 0.014283449 8.9029882e-21)
(-0.0062921218 0.024862457 -9.7873929e-21)
(-0.0092341173 0.036442601 -4.8130935e-20)
(-0.012458065 0.049095185 5.7761834e-20)
(-0.015985456 0.062888588 -4.9089339e-20)
(-0.019837715 0.077885043 -2.3483409e-20)
(-0.024035716 0.094136857 1.2611217e-21)
(-0.028599177 0.11168146 1.9881018e-20)
(-0.033545967 0.13053532 1.132677e-19)
(-0.038891281 0.15068649 -1.9060785e-19)
(-0.044646748 0.1720857 2.2964127e-19)
(-0.050819485 0.19463606 -6.7661417e-20)
(-0.057411195 0.21818166 -9.2189009e-20)
(-0.06441743 0.24249566 1.4206592e-19)
(-0.071827203 0.26726904 -2.8162229e-19)
(-0.079623184 0.29210213 3.4359171e-19)
(-0.087782873 0.31650164 5.4421879e-21)
(-0.096280955 0.33988734 2.0022238e-19)
(-0.10509335 0.36161298 -8.0275995e-19)
(-0.11420279 0.38100612 1.9654214e-19)
(-0.12360593 0.39742926 8.225897e-19)
(-0.13332068 0.41035983 -3.9359882e-19)
(-0.14339204 0.41947778 -4.7513632e-19)
(-0.15389368 0.42473886 1.2087858e-19)
(-0.16492317 0.42640278 6.3901398e-19)
(-0.176588 0.42498817 -9.7748365e-19)
(-0.1889719 0.4211399 1.0927966e-18)
(-0.20213882 0.41542656 -8.6645718e-19)
(-0.21614845 0.40823946 1.6691482e-19)
(-0.23099664 0.39986562 -2.8795786e-19)
(-0.24662612 0.39048957 -4.1223972e-19)
(-0.26295079 0.38016964 1.6320916e-19)
(-0.27981727 0.36886156 4.2328492e-20)
(-0.29700099 0.35643151 6.1158485e-19)
(-0.31418042 0.34265488 -1.1929301e-19)
(-0.33090793 0.32719531 3.0847361e-19)
(-0.34657022 0.30958077 -2.6340022e-19)
(-0.36034087 0.28918661 1.5603244e-19)
(-0.37113217 0.26524062 1.0279471e-19)
(-0.37756602 0.23687948 8.8773436e-20)
(-0.3779972 0.20328683 8.7892301e-20)
(-0.37064959 0.16392616 -5.3886201e-19)
(-0.35387614 0.11879041 -4.2634705e-19)
(-0.32639157 0.068448836 1.1919957e-19)
(-0.28727977 0.013835699 -7.6985187e-20)
(-0.23544318 -0.044024635 3.1778275e-19)
(-0.16901784 -0.10364347 -6.3452005e-19)
(-0.086765666 -0.16196509 -7.4062351e-19)
(0.010026537 -0.21458027 -2.163732e-19)
(0.11811824 -0.25780674 -5.6961469e-19)
(0.23344525 -0.2900563 1.8402471e-20)
(0.35152013 -0.31176307 2.7812628e-19)
(0.4680315 -0.32458192 1.3593257e-18)
(0.57973053 -0.32943286 -6.8146459e-19)
(0.6817368 -0.32365216 2.7654501e-19)
(0.76625355 -0.30230078 -8.0064537e-19)
(0.82709279 -0.26480021 1.3393951e-18)
(0.86487053 -0.21768588 -7.6113751e-19)
(0.88586786 -0.16894902 2.6060192e-19)
(0.89854689 -0.12573733 -1.637202e-21)
(0.90863622 -0.091123818 2.0042533e-19)
(0.91960363 -0.065255287 7.4452008e-19)
(0.93065437 -0.046232367 -1.3956932e-18)
(0.94251517 -0.032954006 1.4167598e-18)
(-0.0013140103 0.0045880949 -1.0207465e-19)
(-0.0040518063 0.014159584 -5.0758018e-20)
(-0.0070536842 0.024670805 7.9727719e-20)
(-0.010341044 0.036200172 -2.1000044e-21)
(-0.013935608 0.048826424 -7.2195786e-20)
(-0.017858951 0.062627484 -3.7789134e-20)
(-0.022131942 0.077677517 7.9760624e-20)
(-0.026774137 0.094043587 -1.3116021e-20)
(-0.031802935 0.11178112 1.8534353e-19)
(-0.037232616 0.13092821 -3.6218042e-20)
(-0.043073209 0.15149843 -9.3032528e-22)
(-0.049329219 0.17347197 1.341407e-19)
(-0.055998263 0.19678503 -4.3190707e-19)
(-0.063069688 0.2213175 2.0240312e-19)
(-0.07052332 0.24687925 3.6510437e-19)
(-0.078328579 0.27319604 -3.92216e-19)
(-0.086444245 0.29989662 4.8723817e-20)
(-0.094819328 0.3265038 -2.7980452e-19)
(-0.1033956 0.35243352 -2.1034841e-19)
(-0.11211214 0.37700734 6.7050427e-19)
(-0.12091254 0.39948421 -5.1061716e-19)
(-0.12975423 0.41911669 6.8215824e-19)
(-0.13861939 0.43523279 -8.1394179e-20)
(-0.14752485 0.44733585 3.3728613e-19)
(-0.15652751 0.45520297 -7.4349559e-19)
(-0.16572112 0.4589492 1.783414e-19)
(-0.17522146 0.45901934 4.5509863e-19)
(-0.18513818 0.45608259 -1.1104088e-18)
(-0.19555088 0.45084094 4.8655808e-19)
(-0.20649759 0.44384062 5.2731233e-19)
(-0.21798726 0.43543636 -4.3863343e-19)
(-0.22997656 0.42585784 -5.8789924e-20)
(-0.24234892 0.41519849 2.9807307e-19)
(-0.25493145 0.40342576 -1.6589554e-19)
(-0.26746616 0.39040239 2.5638564e-19)
(-0.27959467 0.37588274 -9.0762993e-19)
(-0.2908232 0.359495 4.8040135e-19)
(-0.30048458 0.3407142 2.9143679e-19)
(-0.30769314 0.31884597 6.0283211e-19)
(-0.31130791 0.29304083 8.1513231e-20)
(-0.30992321 0.26236873 -6.5228527e-19)
(-0.30193075 0.22599287 2.6359797e-19)
(-0.28570954 0.18344557 3.9023197e-19)
(-0.2598809 0.1348761 6.0035309e-20)
(-0.22349575 0.080994709 -3.835006e-19)
(-0.17585877 0.022676736 -3.3754887e-19)
(-0.11578442 -0.039390885 1.0290922e-18)
(-0.04155914 -0.10380698 5.4642956e-19)
(0.046755326 -0.16704988 1.1911975e-18)
(0.14651168 -0.2240228 4.2021243e-19)
(0.25399185 -0.27058237 1.6418894e-19)
(0.36522366 -0.3049742 1.2267054e-18)
(0.47606164 -0.32756632 4.8432317e-19)
(0.58299685 -0.34027885 -1.6312128e-18)
(0.68318929 -0.34414853 1.3070988e-18)
(0.77076126 -0.33620865 -1.195195e-18)
(0.83726844 -0.31159641 5.6976118e-19)
(0.87847121 -0.27082718 -2.718355e-18)
(0.89836253 -0.22163416 -1.3389414e-18)
(0.90614378 -0.17211995 5.3173784e-19)
(0.91107443 -0.1290301 8.1696911e-19)
(0.91741624 -0.094769496 1.3457247e-18)
(0.92678958 -0.069029101 2.3425586e-19)
(0.93685731 -0.049827985 1.8109009e-19)
(0.94785957 -0.036125335 -1.8935913e-18)
(-0.0014086515 0.0043819506 -1.8435859e-21)
(-0.0043427314 0.013539948 9.4686344e-20)
(-0.0075572914 0.023617702 -1.1168081e-19)
(-0.011074463 0.034697504 -5.3778378e-20)
(-0.014916747 0.0468636 1.0779575e-19)
(-0.019106156 0.060201813 3.4948611e-20)
(-0.023663622 0.074797035 -1.6969637e-19)
(-0.028608336 0.090730523 1.8288254e-19)
(-0.033956733 0.10807605 3.8649317e-20)
(-0.039721331 0.12689494 1.5408675e-19)
(-0.045909339 0.14722957 -4.1026946e-19)
(-0.052521074 0.1690951 -5.0163346e-21)
(-0.059548177 0.19246912 3.7112835e-19)
(-0.066971738 0.21727912 -4.0029103e-19)
(-0.074760422 0.24338775 2.8820052e-19)
(-0.082868859 0.27057636 1.0758795e-19)
(-0.091236651 0.29852817 -2.2656746e-19)
(-0.099788438 0.32681305 2.063363e-19)
(-0.10843576 0.35487798 2.775402e-19)
(-0.11708152 0.38204841 -5.969739e-21)
(-0.12562749 0.40754774 -4.4811491e-19)
(-0.13398549 0.43054221 2.8062347e-19)
(-0.14209128 0.45021623 -1.5839775e-19)
(-0.14991913 0.46587661 -7.7572538e-19)
(-0.157493 0.47707165 -2.6238456e-19)
(-0.16488878 0.4836947 7.2086837e-19)
(-0.17222206 0.48602788 -7.2754485e-20)
(-0.17961969 0.48468516 8.2978075e-19)
(-0.18718305 0.48043995 -4.9570647e-19)
(-0.19496495 0.47400593 2.6410696e-19)
(-0.20297 0.4659015 -3.8630665e-19)
(-0.2111417 0.45642815 -9.5051543e-20)
(-0.21935126 0.44572226 4.8282841e-19)
(-0.22740441 0.43377476 -5.0302191e-19)
(-0.23501286 0.42044924 -7.4554234e-19)
(-0.24177739 0.40548359 7.4750753e-20)
(-0.24715205 0.38847296 8.2389862e-19)
(-0.25040963 0.36884713 -1.0665193e-18)
(-0.25060102 0.34585942 2.3267047e-19)
(-0.24653178 0.3186005 -5.02891e-19)
(-0.23678255 0.28609847 7.8719133e-20)
(-0.21980776 0.24752706 -7.9868753e-19)
(-0.19415245 0.20251235 -3.8519398e-19)
(-0.15867499 0.15136173 -4.8255207e-19)
(-0.11263993 0.094907203 1.9554836e-18)
(-0.055477432 0.03389819 6.4249652e-19)
(0.013946209 -0.031234508 -8.5822653e-19)
(0.096257095 -0.099101353 7.0187879e-19)
(0.18956008 -0.16577387 5.9142862e-19)
(0.29015977 -0.2258711 -6.7155368e-19)
(0.39425077 -0.27517458 -3.5396261e-19)
(0.49828222 -0.31168819 -8.3566743e-19)
(0.59910363 -0.33555113 -4.0592987e-19)
(0.69449479 -0.34871031 1.3847562e-18)
(0.78157227 -0.35193274 7.7518785e-19)
(0.85316883 -0.3419132 1.2451244e-19)
(0.900533 -0.3146056 -4.300254e-21)
(0.92222467 -0.2715751 6.7253059e-19)
(0.92621728 -0.22151104 -9.5423646e-19)
(0.92359616 -0.17269784 -1.2121e-18)
(0.92318037 -0.13081238 -3.3375684e-19)
(0.92700663 -0.097505661 -2.4931262e-18)
(0.93496673 -0.072172824 -1.9477873e-18)
(0.94368746 -0.052937045 -4.9144217e-19)
(0.95341036 -0.03890986 -2.5948625e-19)
(-0.0014431002 0.0040318964 6.2500286e-20)
(-0.0044498199 0.012475886 3.9882289e-20)
(-0.0077437939 0.021789702 -8.2978873e-20)
(-0.011347692 0.032056936 1.4229355e-19)
(-0.015284713 0.043364712 3.5641466e-20)
(-0.019577472 0.05580417 -1.5284475e-19)
(-0.024247421 0.06946848 7.8217097e-22)
(-0.029314199 0.084450945 -9.1661069e-20)
(-0.034794524 0.10084204 2.7394173e-20)
(-0.040700928 0.11872549 -6.1349877e-22)
(-0.047040215 0.13817284 1.4976641e-19)
(-0.053811637 0.15923633 3.4438634e-20)