/*--------------------------------*- C++ -*----------------------------------*\
  =========                 |
  \\      /  F ield         | OpenFOAM: The Open Source CFD Toolbox
   \\    /   O peration     | Website:  https://openfoam.org
    \\  /    A nd           | Version:  13
     \\/     M anipulation  |
\*---------------------------------------------------------------------------*/
FoamFile
{
    format      ascii;
    class       volScalarField;
    location    "19.399726";
    object      p;
}
// * * * * * * * * * * * * * * * * * * * * * * * * * * * * * * * * * * * * * //

dimensions      [0 2 -2 0 0 0 0];

internalField   nonuniform List<scalar> 
17140
(
-0.20739607
-0.20744122
-0.20749464
-0.20755151
-0.20761364
-0.20768191
-0.20775661
-0.20783809
-0.20792668
-0.20802268
-0.20812638
-0.20823797
-0.20835763
-0.20848549
-0.20862168
-0.20876636
-0.20891982
-0.2090827
-0.20925618
-0.20944254
-0.20964583
-0.20987311
-0.21013633
-0.21045537
-0.2108624
-0.21140791
-0.21216686
-0.21324089
-0.21474851
-0.2167964
-0.21943655
-0.22264806
-0.22638517
-0.23024232
-0.23363343
-0.23675653
-0.24020967
-0.24403854
-0.24821421
-0.2527501
-0.25754733
-0.26238062
-0.26737087
-0.27298644
-0.27941793
-0.28663872
-0.29472308
-0.30369044
-0.31358071
-0.32442015
-0.33621284
-0.34893038
-0.3624782
-0.37664471
-0.39089141
-0.40457014
-0.41617147
-0.42450194
-0.42870043
-0.42487005
-0.40577019
-0.36899455
-0.28577495
-0.17901362
-0.025156992
-0.20894462
-0.20898849
-0.20904175
-0.20909654
-0.20915636
-0.2092222
-0.20929428
-0.2093729
-0.20945839
-0.20955104
-0.20965109
-0.20975874
-0.20987413
-0.20999735
-0.21012849
-0.21026763
-0.21041502
-0.21057118
-0.21073717
-0.2109151
-0.21110882
-0.21132512
-0.21157557
-0.21187951
-0.21226835
-0.21279142
-0.21352207
-0.21455983
-0.2160209
-0.21801013
-0.22057891
-0.22370108
-0.22731021
-0.23111718
-0.23456993
-0.23775698
-0.24115413
-0.24495477
-0.24910879
-0.25361075
-0.25832729
-0.26325966
-0.26842184
-0.27422289
-0.28081059
-0.28820303
-0.29647557
-0.3056615
-0.31579762
-0.32690275
-0.33896875
-0.35196387
-0.36578984
-0.38023432
-0.39475981
-0.40868442
-0.42043898
-0.429148
-0.43351031
-0.42989156
-0.40873555
-0.36995487
-0.28630665
-0.17731529
-0.022597245
-0.21096736
-0.21100864
-0.21105868
-0.21111033
-0.21116674
-0.21122885
-0.21129687
-0.21137108
-0.21145179
-0.21153928
-0.21163375
-0.21173539
-0.21184431
-0.21196055
-0.21208414
-0.21221513
-0.21235366
-0.21250014
-0.21265549
-0.21282163
-0.21300214
-0.21320341
-0.21343649
-0.21371991
-0.21408384
-0.21457575
-0.21526635
-0.21625175
-0.21764445
-0.21954646
-0.22200839
-0.22499797
-0.22842053
-0.23212006
-0.2356324
-0.23884558
-0.24215161
-0.24587618
-0.24996115
-0.25438636
-0.25911416
-0.26417772
-0.26950816
-0.27548838
-0.28222163
-0.28977
-0.29821517
-0.30759935
-0.31795704
-0.32930154
-0.34161597
-0.35486863
-0.36895924
-0.38368992
-0.39851214
-0.41271399
-0.42457051
-0.43334357
-0.43741869
-0.43431365
-0.41503866
-0.37669936
-0.29269872
-0.18300328
-0.027208033
-0.21343637
-0.21347409
-0.21351968
-0.213567
-0.21361872
-0.21367568
-0.2137381
-0.21380623
-0.21388037
-0.21396076
-0.2140476
-0.21414103
-0.21424113
-0.21434793
-0.2144614
-0.21458153
-0.21470839
-0.21484228
-0.214984
-0.21513524
-0.2152993
-0.21548215
-0.2156942
-0.21595293
-0.21628694
-0.21674126
-0.21738306
-0.21830396
-0.21961193
-0.22140604
-0.22373778
-0.22657794
-0.22981809
-0.23330397
-0.23678625
-0.24006726
-0.24332484
-0.24687771
-0.25087728
-0.25526847
-0.26007131
-0.26518793
-0.27066053
-0.27676885
-0.28362007
-0.29130014
-0.29989405
-0.30944722
-0.31999361
-0.33154189
-0.34406803
-0.3575444
-0.37188568
-0.38690236
-0.40203071
-0.41656014
-0.42861902
-0.43774499
-0.44221497
-0.43995176
-0.42126354
-0.38447081
-0.30294719
-0.19337037
-0.037016695
-0.21630319
-0.21633632
-0.21637619
-0.2164179
-0.21646355
-0.21651386
-0.21656903
-0.21662932
-0.21669497
-0.21676622
-0.21684323
-0.21692613
-0.21701496
-0.21710973
-0.21721039
-0.21731688
-0.21742922
-0.21754763
-0.2176728
-0.21780624
-0.21795095
-0.21811249
-0.21830051
-0.21853134
-0.21883166
-0.2192435
-0.21982966
-0.22067619
-0.22188559
-0.22355412
-0.22573605
-0.22841173
-0.23148302
-0.23480084
-0.23818586
-0.24147778
-0.24477715
-0.2482783
-0.2521585
-0.25649078
-0.26124719
-0.2663165
-0.27184763
-0.27802942
-0.28496266
-0.29274298
-0.30145197
-0.31113766
-0.32183365
-0.33354424
-0.34624029
-0.35990555
-0.37446455
-0.38974187
-0.40521386
-0.42010591
-0.43228829
-0.44169408
-0.44652048
-0.44528578
-0.42825356
-0.39358766
-0.31480809
-0.20615479
-0.051028712
-0.21949137
-0.21951886
-0.21955173
-0.21958654
-0.21962471
-0.21966683
-0.21971309
-0.21976372
-0.21981894
-0.21987894
-0.21994388
-0.22001386
-0.22008892
-0.22016904
-0.22025416
-0.22034422
-0.22043921
-0.22053931
-0.22064511
-0.22075799
-0.22088071
-0.22101835
-0.22117981
-0.2213801
-0.22164368
-0.22200906
-0.2225338
-0.22329722
-0.2243951
-0.22592035
-0.22793098
-0.23042004
-0.23330837
-0.23646825
-0.23975884
-0.24306426
-0.2463859
-0.24988035
-0.25368954
-0.25788751
-0.26246261
-0.26746297
-0.27300192
-0.27921246
-0.28619186
-0.29403606
-0.30282185
-0.31259939
-0.32340178
-0.33522953
-0.34804842
-0.3618392
-0.37658907
-0.39216814
-0.40791183
-0.42314469
-0.43554459
-0.44521367
-0.45054982
-0.45031132
-0.43452202
-0.40204923
-0.32630971
-0.21935243
-0.066031337
-0.2228961
-0.22291704
-0.22294194
-0.22296863
-0.222998
-0.22303048
-0.22306625
-0.2231055
-0.22314843
-0.22319521
-0.22324595
-0.22330074
-0.22335963
-0.2234226
-0.2234896
-0.22356056
-0.2236355
-0.22371459
-0.22379839
-0.22388817
-0.22398646
-0.22409792
-0.22423063
-0.22439817
-0.22462257
-0.22493837
-0.22539718
-0.22607054
-0.22704623
-0.22841268
-0.2302314
-0.23250901
-0.23518741
-0.23816182
-0.24131675
-0.24456446
-0.24788719
-0.25135497
-0.2550699
-0.25912725
-0.26358883
-0.2685283
-0.27404449
-0.28024925
-0.28724064
-0.29510964
-0.30393141
-0.31375705
-0.32462018
-0.33651708
-0.34939903
-0.36332275
-0.37834573
-0.3941802
-0.40996484
-0.42518379
-0.43791913
-0.44807262
-0.45389869
-0.45449831
-0.43989885
-0.40917375
-0.33608231
-0.23112733
-0.084232607
-0.22638853
-0.22640217
-0.22641847
-0.22643604
-0.22645548
-0.22647711
-0.22650107
-0.2265275
-0.22655657
-0.22658841
-0.22662312
-0.22666079
-0.22670144
-0.22674508
-0.22679169
-0.22684124
-0.22689378
-0.22694952
-0.22700902
-0.22707351
-0.22714533
-0.22722873
-0.22733102
-0.2274643
-0.22764804
-0.2279126
-0.22830325
-0.22888309
-0.22973094
-0.23092949
-0.23254269
-0.23459049
-0.23703644
-0.23979912
-0.2427825
-0.24591095
-0.24915972
-0.25256611
-0.25620768
-0.26017538
-0.26455229
-0.26942638
-0.2748962
-0.28106634
-0.2880349
-0.29588964
-0.30470562
-0.31453489
-0.32541455
-0.33733368
-0.35024951
-0.36441259
-0.37972696
-0.3955708
-0.41128063
-0.4262403
-0.43911134
-0.44997102
-0.45633199
-0.45750633
-0.44350002
-0.41384461
-0.34155727
-0.23992301
-0.095642805
-0.22982238
-0.2298282
-0.22983527
-0.22984304
-0.22985182
-0.22986176
-0.22987298
-0.22988558
-0.22989967
-0.22991536
-0.22993271
-0.22995181
-0.22997269
-0.22999538
-0.2300199
-0.23004628
-0.23007462
-0.23010523
-0.23013869
-0.23017625
-0.23022013
-0.23027423
-0.23034512
-0.2304435
-0.23058634
-0.23079983
-0.23112289
-0.23160999
-0.23233039
-0.23335987
-0.23476309
-0.23657182
-0.23877079
-0.24130237
-0.24409
-0.2470682
-0.25020816
-0.25352945
-0.25709168
-0.2609768
-0.26527222
-0.27007227
-0.27547661
-0.28158668
-0.2884977
-0.29629855
-0.30506731
-0.31485601
-0.3257061
-0.33758021
-0.35063977
-0.36505407
-0.38043568
-0.39616311
-0.41177168
-0.42646022
-0.43934004
-0.45069401
-0.45755467
-0.45890857
-0.44475943
-0.41547032
-0.34078396
-0.24399409
-0.099634652
-0.23304569
-0.23304352
-0.23304113
-0.23303886
-0.23303667
-0.23303459
-0.23303268
-0.233031
-0.2330296
-0.23302854
-0.23302788
-0.23302768
-0.23302798
-0.23302884
-0.23303031
-0.23303249
-0.2330356
-0.23303999
-0.23304638
-0.23305603
-0.23307111
-0.23309527
-0.23313443
-0.23319804
-0.23330077
-0.23346495
-0.23372348
-0.23412248
-0.23472157
-0.23558857
-0.23678668
-0.23835685
-0.24030301
-0.2425907
-0.24516334
-0.24796677
-0.25097191
-0.2541875
-0.25765901
-0.26145805
-0.26566887
-0.27038446
-0.27570411
-0.28172927
-0.28855316
-0.29626427
-0.30494469
-0.31465091
-0.32542625
-0.33726475
-0.35049997
-0.36504159
-0.380304
-0.39590677
-0.41130622
-0.42555655
-0.4386028
-0.45038221
-0.45731722
-0.45826649
-0.44319426
-0.41155292
-0.33543444
-0.24509408
-0.10696675
-0.23591037
-0.23590041
-0.23588881
-0.23587672
-0.2358638
-0.23584993
-0.23583511
-0.23581934
-0.23580264
-0.23578501
-0.23576647
-0.23574706
-0.23572683
-0.23570584
-0.23568421
-0.2356621
-0.2356398
-0.23561782
-0.23559696
-0.23557857
-0.23556484
-0.23555924
-0.23556723
-0.23559718
-0.2356618
-0.23578
-0.23597926
-0.23629803
-0.23678666
-0.23750451
-0.23851115
-0.23985375
-0.24155142
-0.24359026
-0.24593477
-0.24854428
-0.25139268
-0.25448253
-0.25784811
-0.26155034
-0.26566655
-0.2702839
-0.27549882
-0.28141284
-0.28812031
-0.29570946
-0.30426556
-0.31384965
-0.32449308
-0.33639599
-0.3497098
-0.36420173
-0.37929659
-0.39472305
-0.40976653
-0.42367779
-0.43668612
-0.44875382
-0.45526567
-0.45480003
-0.43789311
-0.40121046
-0.32477791
-0.23889501
-0.11288178
-0.23828827
-0.23827115
-0.23825107
-0.23822992
-0.23820708
-0.23818226
-0.23815543
-0.23812653
-0.23809549
-0.23806227
-0.23802686
-0.23798925
-0.23794946
-0.23790759
-0.23786376
-0.2378182
-0.23777128
-0.2377236
-0.2376761
-0.23763023
-0.23758822
-0.23755348
-0.23753112
-0.23752872
-0.23755741
-0.23763329
-0.23777928
-0.23802712
-0.23841866
-0.23900449
-0.23983769
-0.24096968
-0.24243318
-0.24422826
-0.2463388
-0.24874031
-0.25141279
-0.25435656
-0.25759756
-0.26118649
-0.26519212
-0.26969451
-0.2747841
-0.28056135
-0.28712185
-0.29455512
-0.30295475
-0.31237449
-0.32288125
-0.33483427
-0.34816346
-0.36246482
-0.37735719
-0.39249785
-0.40699659
-0.42086428
-0.43370986
-0.44547446
-0.45077988
-0.44816909
-0.42658119
-0.38635369
-0.31047302
-0.22785123
-0.11902667
-0.24007983
-0.24005661
-0.24002927
-0.24000035
-0.23996895
-0.23993467
-0.23989741
-0.23985703
-0.23981343
-0.23976647
-0.2397161
-0.23966225
-0.23960493
-0.23954418
-0.23948014
-0.23941305
-0.23934334
-0.23927167
-0.23919905
-0.23912701
-0.23905784
-0.23899489
-0.23894303
-0.23890925
-0.2389035
-0.23893971
-0.23903724
-0.23922238
-0.23952966
-0.24000115
-0.24067895
-0.24165045
-0.24291272
-0.24445555
-0.24632423
-0.24850461
-0.25098186
-0.25375707
-0.25685063
-0.26030419
-0.26417759
-0.26854403
-0.27348581
-0.27910067
-0.28548812
-0.29273739
-0.30095027
-0.31015469
-0.32059577
-0.33250467
-0.34571922
-0.35977167
-0.37439879
-0.3890884
-0.40322599
-0.41684
-0.42947669
-0.44019566
-0.44333908
-0.43675452
-0.41004606
-0.36732755
-0.29216741
-0.22037316
-0.12219258
-0.24123496
-0.24120702
-0.24117406
-0.24113908
-0.24110098
-0.24105924
-0.24101371
-0.24096419
-0.24091048
-0.24085241
-0.24078983
-0.24072262
-0.24065072
-0.24057412
-0.24049294
-0.24040738
-0.24031786
-0.24022504
-0.24012996
-0.24003416
-0.23993993
-0.23985054
-0.23977065
-0.23970682
-0.23966811
-0.23966689
-0.23971988
-0.2398492
-0.24008398
-0.24046296
-0.24100502
-0.24173031
-0.24282615
-0.24422768
-0.2458398
-0.24779031
-0.25005463
-0.25263679
-0.2555552
-0.25884506
-0.26255843
-0.26676176
-0.27153103
-0.27695796
-0.28314621
-0.29019019
-0.29818683
-0.30716368
-0.31753376
-0.32935321
-0.34231537
-0.35608201
-0.37035193
-0.38457344
-0.39846562
-0.41164267
-0.42349786
-0.43217376
-0.43207434
-0.4200549
-0.39017791
-0.34586307
-0.27474119
-0.21082438
-0.12490626
-0.24174319
-0.24171221
-0.24167557
-0.24163659
-0.24159404
-0.24154729
-0.24149614
-0.24144033
-0.24137959
-0.24131368
-0.24124236
-0.24116545
-0.2410828
-0.24099433
-0.24090004
-0.2408001
-0.24069482
-0.24058479
-0.24047096
-0.24035479
-0.24023841
-0.24012492
-0.24001869
-0.23992577
-0.23985442
-0.23981573
-0.23982437
-0.23989935
-0.2400648
-0.24035171
-0.24079747
-0.24140867
-0.24223378
-0.24338201
-0.24484491
-0.24656722
-0.24860256
-0.25096349
-0.25367233
-0.25676146
-0.26027781
-0.26428269
-0.26884972
-0.27406527
-0.28002956
-0.28685154
-0.29460704
-0.30341529
-0.31361935
-0.32527171
-0.33791724
-0.35134884
-0.36516567
-0.3790484
-0.39246532
-0.4049909
-0.41504523
-0.42098603
-0.41614745
-0.39999322
-0.36811284
-0.32274982
-0.26000164
-0.20267098
-0.12630997
-0.24165052
-0.2416183
-0.24158009
-0.24153937
-0.24149481
-0.24144574
-0.24139189
-0.24133297
-0.24126864
-0.24119858
-0.2411225
-0.2410401
-0.24095115
-0.24085547
-0.24075294
-0.24064358
-0.24052758
-0.24040537
-0.24027768
-0.24014576
-0.24001146
-0.23987751
-0.23974782
-0.23962779
-0.23952482
-0.23944878
-0.2394126
-0.23943292
-0.23953059
-0.23973107
-0.24006572
-0.24057023
-0.24124489
-0.24219073
-0.24337547
-0.24483111
-0.24662999
-0.24873839
-0.25119342
-0.2540323
-0.25730122
-0.26106077
-0.26538338
-0.27035597
-0.27607299
-0.28265668
-0.29016856
-0.29882038
-0.30882406
-0.32019871
-0.33251066
-0.34555531
-0.35897553
-0.37240158
-0.38502804
-0.39598504
-0.40404187
-0.40650733
-0.39685895
-0.37758162
-0.34395854
-0.30392922
-0.24508943
-0.19506849
-0.12700885
-0.2410404
-0.24100863
-0.24097066
-0.24093045
-0.24088636
-0.24083767
-0.2407841
-0.24072531
-0.24066092
-0.24059056
-0.24051385
-0.24043042
-0.24033994
-0.24024211
-0.24013668
-0.24002351
-0.23990257
-0.23977406
-0.23963845
-0.2394966
-0.23934992
-0.23920061
-0.23905185
-0.23890817
-0.23877582
-0.23866322
-0.23858146
-0.23854482
-0.23857125
-0.23868271
-0.23890502
-0.23926927
-0.23980535
-0.24052995
-0.24153095
-0.24276026
-0.24418229
-0.24597749
-0.24813057
-0.25065943
-0.25361626
-0.25706839
-0.26109024
-0.26577305
-0.27121505
-0.27754073
-0.28484716
-0.2933324
-0.30311697
-0.31419516
-0.32614006
-0.33874613
-0.35173401
-0.36415233
-0.37566178
-0.38507239
-0.39053882
-0.38782825
-0.37542689
-0.35423651
-0.32157722
-0.28536186
-0.23267283
-0.18807827
-0.12691544
-0.2400308
-0.24000105
-0.23996527
-0.23992759
-0.23988618
-0.23984034
-0.23978977
-0.23973411
-0.23967297
-0.23960591
-0.23953251
-0.23945235
-0.239365
-0.23927004
-0.2391671
-0.23905585
-0.23893607
-0.23880767
-0.23867076
-0.23852577
-0.23837356
-0.2382156
-0.23805415
-0.23789259
-0.23773569
-0.23759006
-0.2374645
-0.23737054
-0.23732283
-0.23733958
-0.23744261
-0.23765707
-0.23801144
-0.23853282
-0.23924369
-0.24016791
-0.24138762
-0.24282493
-0.2445535
-0.24669293
-0.24925258
-0.25231507
-0.25596247
-0.26029292
-0.26541678
-0.27146351
-0.2785474
-0.28685154
-0.29645347
-0.30717931
-0.31880501
-0.33082346
-0.34282071
-0.35453685
-0.36480407
-0.37173838
-0.37295763
-0.36740947
-0.35335081
-0.33083197
-0.30240552
-0.26842542
-0.22078023
-0.18122704
-0.12619531
-0.23875313
-0.23872667
-0.23869464
-0.23866111
-0.23862419
-0.23858321
-0.23853787
-0.23848784
-0.23843269
-0.23837199
-0.2383053
-0.23823213
-0.23815202
-0.23806445
-0.23796895
-0.23786504
-0.23775228
-0.23763033
-0.23749896
-0.23735814
-0.23720812
-0.23704957
-0.23688374
-0.23671266
-0.23653939
-0.2363683
-0.23620546
-0.23605898
-0.23593945
-0.23586036
-0.23583839
-0.23589355
-0.23604863
-0.23632908
-0.23675525
-0.23736372
-0.23820207
-0.23924178
-0.24055164
-0.24221369
-0.24428649
-0.24686569
-0.2500483
-0.25394775
-0.25868711
-0.26439206
-0.27120181
-0.27924213
-0.28860252
-0.29904847
-0.30995587
-0.32128841
-0.3329919
-0.34408628
-0.35200118
-0.35585643
-0.35377614
-0.34719374
-0.33066348
-0.31191223
-0.28389351
-0.25301096
-0.21008143
-0.17474961
-0.12493797
-0.23733761
-0.23731528
-0.23728806
-0.23725974
-0.23722851
-0.23719374
-0.23715518
-0.23711249
-0.2370653
-0.23701317
-0.23695566
-0.23689231
-0.2368226
-0.236746
-0.23666195
-0.23656989
-0.23646923
-0.23635943
-0.23623996
-0.23611039
-0.23597044
-0.23582003
-0.2356594
-0.23548922
-0.23531076
-0.23512603
-0.23493802
-0.23475095
-0.23457053
-0.23440442
-0.23426269
-0.23415843
-0.23410796
-0.23413137
-0.23425053
-0.23449039
-0.23487843
-0.23546149
-0.23626762
-0.23737604
-0.23887319
-0.24087308
-0.24349535
-0.24688133
-0.25116188
-0.2564688
-0.26297166
-0.27062608
-0.27969182
-0.28959463
-0.29986744
-0.31162905
-0.3228382
-0.33183185
-0.33693724
-0.33800233
-0.33512114
-0.32648347
-0.31173209
-0.29306238
-0.26724487
-0.23893576
-0.19994365
-0.16839331
-0.12320227
-0.23589308
-0.23587528
-0.23585348
-0.23583088
-0.2358059
-0.23577803
-0.23574705
-0.23571266
-0.23567453
-0.23563228
-0.2355855
-0.23553376
-0.23547657
-0.23541341
-0.23534372
-0.2352669
-0.23518229
-0.23508923
-0.23498701
-0.23487492
-0.23475224
-0.2346183
-0.23447248
-0.23431423
-0.23414315
-0.23395899
-0.23376166
-0.23355131
-0.23332838
-0.23309383
-0.23284952
-0.23259908
-0.23234922
-0.23211127
-0.23190203
-0.2317452
-0.23167066
-0.23171944
-0.23194258
-0.23242274
-0.23326394
-0.23460247
-0.23658123
-0.23937781
-0.24311585
-0.2479938
-0.25411095
-0.26144303
-0.26992217
-0.27968863
-0.29078554
-0.30195635
-0.3114088
-0.31797807
-0.32068101
-0.32108019
-0.3160056
-0.30721212
-0.29325606
-0.27604425
-0.25175318
-0.22585794
-0.19049013
-0.16224834
-0.1210734
-0.23449756
-0.23448433
-0.2344682
-0.23445147
-0.23443293
-0.23441221
-0.2343891
-0.23436338
-0.23433475
-0.23430292
-0.23426753
-0.23422822
-0.23418459
-0.2341362
-0.23408258
-0.23402318
-0.23395734
-0.23388433
-0.23380337
-0.23371358
-0.233614
-0.23350351
-0.23338084
-0.23324449
-0.23309267
-0.23292316
-0.23273313
-0.23251897
-0.23227607
-0.23199872
-0.23168022
-0.23131361
-0.23089313
-0.23041691
-0.22989073
-0.22933198
-0.2287716
-0.22825716
-0.22785492
-0.22765989
-0.22779764
-0.22842522
-0.2297064
-0.23185702
-0.23500951
-0.23936878
-0.24516495
-0.25189999
-0.26095531
-0.27132827
-0.28174994
-0.29160766
-0.29872217
-0.3034745
-0.30546586
-0.3031655
-0.29769134
-0.28967553
-0.27640167
-0.25997768
-0.23736901
-0.21370957
-0.18149173
-0.15618786
-0.11858122
-0.23317685
-0.23316842
-0.23315839
-0.23314709
-0.23313395
-0.23311925
-0.23310321
-0.23308582
-0.23306703
-0.23304677
-0.23302491
-0.23300105
-0.23297465
-0.232945
-0.23291129
-0.23287263
-0.23282792
-0.23277712
-0.23272036
-0.23265664
-0.23258465
-0.23250276
-0.2324092
-0.23230208
-0.23217865
-0.23203517
-0.23186661
-0.23166627
-0.2314253
-0.2311321
-0.23077223
-0.23032877
-0.22978384
-0.22912146
-0.22833271
-0.22742154
-0.22641245
-0.22535746
-0.22433743
-0.22346556
-0.22289237
-0.22280253
-0.22335185
-0.22478925
-0.22720888
-0.23114874
-0.23665728
-0.24429625
-0.25387358
-0.26324129
-0.27274019
-0.27999606
-0.28560852
-0.2892205
-0.28967987
-0.28569609
-0.28130132
-0.27307822
-0.26034661
-0.24499445
-0.22392874
-0.20230936
-0.17293794
-0.15024422
-0.11578329
-0.23196742
-0.23196341
-0.23195855
-0.23195606
-0.23195763
-0.23196008
-0.23195884
-0.23195304
-0.23194413
-0.23193268
-0.23191859
-0.23190151
-0.23188119
-0.2318598
-0.23184163
-0.23182738
-0.23181117
-0.23178758
-0.23175705
-0.23172093
-0.2316786
-0.23162832
-0.2315667
-0.2314916
-0.23140066
-0.23128886
-0.23114845
-0.23097129
-0.23074603
-0.23045687
-0.23008375
-0.22960248
-0.22898536
-0.22820295
-0.22723233
-0.22606426
-0.22470879
-0.2232107
-0.22165735
-0.22017658
-0.21895263
-0.21812749
-0.21786907
-0.2186907
-0.22078979
-0.22503372
-0.23095384
-0.23867036
-0.24705428
-0.25558582
-0.26243778
-0.26834972
-0.27299625
-0.27492837
-0.27337581
-0.27092133
-0.2656339
-0.25749637
-0.24537951
-0.23091356
-0.21131962
-0.19158033
-0.1647303
-0.14436303
-0.11270867
-0.23091549
-0.23091738
-0.23091967
-0.23092428
-0.23093057
-0.23093276
-0.23092959
-0.23092438
-0.23092019
-0.23091951
-0.23091884
-0.23091371
-0.23090778
-0.23090442
-0.23090292
-0.2309033
-0.23090615
-0.2309108
-0.23091644
-0.23092345
-0.23092383
-0.23090045
-0.23085562
-0.23080591
-0.23074728
-0.2306687
-0.23056093
-0.23041359
-0.2302151
-0.22994558
-0.22957987
-0.22908924
-0.22844102
-0.22760028
-0.22654152
-0.22523682
-0.22368174
-0.22191128
-0.21998262
-0.21800338
-0.21617395
-0.21472832
-0.21418647
-0.21491683
-0.21724114
-0.22133673
-0.22670529
-0.23340669
-0.24071032
-0.246785
-0.25234065
-0.25756591
-0.26017105
-0.26042239
-0.25964373
-0.25626386
-0.25078459
-0.24279338
-0.2311935
-0.21764733
-0.1994347
-0.18141146
-0.15683037
-0.13854922
-0.10940092
-0.23005798
-0.2300658
-0.23007499
-0.23008468
-0.23009533
-0.23010739
-0.23012081
-0.23013528
-0.23015041
-0.23016572
-0.230181
-0.23019672
-0.23021303
-0.23022955
-0.23024643
-0.23026431
-0.23028392
-0.23030266
-0.23031478
-0.23032087
-0.23032571
-0.2303264
-0.23031876
-0.23030337
-0.23028665
-0.2302491
-0.23015444
-0.23001401
-0.22983411
-0.22957759
-0.22922015
-0.22875008
-0.22814093
-0.22731149
-0.22622649
-0.22490143
-0.2232734
-0.22135565
-0.2192095
-0.21696497
-0.21502494
-0.21354423
-0.21290804
-0.21341626
-0.21535872
-0.2187047
-0.22322033
-0.22869826
-0.23382462
-0.23831583
-0.24362215
-0.24636833
-0.24745866
-0.2477605
-0.24596429
-0.2424436
-0.23675077
-0.22888137
-0.21781435
-0.20511574
-0.18818496
-0.17173424
-0.14918518
-0.13277658
-0.10587978
-0.22954161
-0.229555
-0.22957077
-0.22958745
-0.22960555
-0.22962531
-0.22964677
-0.22966999
-0.22969504
-0.22972194
-0.22975066
-0.22978117
-0.22981339
-0.22984705
-0.22988166
-0.22991652
-0.22995042
-0.22998198
-0.23001185
-0.23004185
-0.23006952
-0.23008934
-0.23009621
-0.23009014
-0.23007326
-0.23003343
-0.22996154
-0.22986577
-0.22974596
-0.22956046
-0.22926143
-0.22882221
-0.22816535
-0.22733139
-0.22637419
-0.22512857
-0.2235845
-0.221836
-0.21980717
-0.21769349
-0.21575687
-0.21419378
-0.21333759
-0.21335536
-0.21453717
-0.21683208
-0.22004514
-0.22379326
-0.22707105
-0.23142687
-0.23417843
-0.23513718
-0.23601058
-0.23528922
-0.23309749
-0.22922537
-0.22336836
-0.2156734
-0.20510436
-0.19322228
-0.17748617
-0.16247426
-0.1417587
-0.1270412
-0.10217378
-0.22972777
-0.22974386
-0.22976284
-0.2297829
-0.22980471
-0.22982853
-0.22985443
-0.2298825
-0.2299128
-0.22994535
-0.22998016
-0.23001716
-0.23005623
-0.23009717
-0.23013966
-0.23018326
-0.23022738
-0.23027117
-0.23031359
-0.23035343
-0.23038937
-0.23041973
-0.23044135
-0.23044818
-0.23043787
-0.2304133
-0.23035989
-0.23025539
-0.23011279
-0.22992324
-0.22962395
-0.22925998
-0.22884801
-0.22822508
-0.22735028
-0.22623918
-0.22490664
-0.22335037
-0.22157847
-0.21962362
-0.21762995
-0.21585335
-0.21450238
-0.21381366
-0.21397885
-0.21495954
-0.21677796
-0.21846983
-0.2202688
-0.22397542
-0.22427342
-0.22510449
-0.22484318
-0.22347325
-0.22073096
-0.21657969
-0.21062182
-0.20310126
-0.19301628
-0.1819011
-0.16726984
-0.15357627
-0.13451616
-0.12132904
-0.098298645
-0.23062178
-0.23063719
-0.23065536
-0.2306746
-0.23069551
-0.23071837
-0.23074323
-0.23077016
-0.23079924
-0.23083047
-0.23086386
-0.23089935
-0.23093679
-0.23097599
-0.23101663
-0.2310583
-0.23110043
-0.23114229
-0.23118297
-0.23122136
-0.23125609
-0.2312855
-0.23130764
-0.23132009
-0.23131958
-0.23130308
-0.23125786
-0.23118286
-0.23107162
-0.23095238
-0.23082992
-0.23054927
-0.2300931
-0.22956881
-0.22890574
-0.22801826
-0.22687987
-0.22546729
-0.22378561
-0.22183762
-0.21974676
-0.21763469
-0.21569342
-0.21415997
-0.21319339
-0.21291094
-0.21316886
-0.21360129
-0.21503321
-0.21495522
-0.2157583
-0.21523404
-0.21411509
-0.21208034
-0.20886928
-0.2044518
-0.1984162
-0.19108557
-0.18146363
-0.17107485
-0.1574696
-0.14498609
-0.12742834
-0.11563392
-0.094271732
-0.2322854
-0.2322972
-0.23231109
-0.23232582
-0.23234181
-0.23235929
-0.23237828
-0.23239883
-0.23242099
-0.23244475
-0.23247007
-0.2324969
-0.23252507
-0.2325544
-0.23258457
-0.23261517
-0.23264569
-0.23267543
-0.23270356
-0.23272905
-0.23275065
-0.23276676
-0.23277556
-0.23277786
-0.23277032
-0.23275829
-0.23272828
-0.23270089
-0.23265767
-0.23248341
-0.23225186
-0.2320409
-0.23173578
-0.23129043
-0.23068357
-0.22986544
-0.22880564
-0.22747052
-0.22582643
-0.22383876
-0.22151781
-0.21895236
-0.21635328
-0.21393861
-0.21188358
-0.21068193
-0.20969053
-0.20923243
-0.20901433
-0.20780466
-0.20700575
-0.20563427
-0.20373803
-0.20108579
-0.19742959
-0.19277615
-0.18669777
-0.17956297
-0.17038758
-0.16068388
-0.14803018
-0.13665959
-0.12046945
-0.10994694
-0.090104845
-0.23449961
-0.2345067
-0.23451506
-0.23452387
-0.23453342
-0.23454381
-0.23455503
-0.2345671
-0.23458
-0.23459369
-0.23460808
-0.23462307
-0.23463846
-0.23465399
-0.23466934
-0.23468406
-0.23469756
-0.23470914
-0.23471793
-0.23472284
-0.23472245
-0.23471511
-0.23470226
-0.2346832
-0.23466042
-0.23463949
-0.234572
-0.23443021
-0.23429393
-0.23415756
-0.23395634
-0.23368781
-0.23332991
-0.23286095
-0.23225077
-0.23145826
-0.23043634
-0.22911983
-0.22742306
-0.22525174
-0.22257843
-0.21950946
-0.21624104
-0.21296808
-0.21046853
-0.2081737
-0.20584359
-0.20438266
-0.20213519
-0.20024188
-0.19848013
-0.19626966
-0.19362894
-0.19040653
-0.18635345
-0.18149458
-0.17539681
-0.16846566
-0.15972129
-0.1506661
-0.13889863
-0.12855499
-0.11361595
-0.10426192
-0.085808669
-0.23711999
-0.23712346
-0.23712749
-0.23713166
-0.23713606
-0.23714071
-0.23714556
-0.23715055
-0.23715558
-0.23716052
-0.23716519
-0.23716937
-0.23717274
-0.23717489
-0.2371753
-0.23717334
-0.23716817
-0.23715879
-0.23714402
-0.23712233
-0.23709164
-0.23705031
-0.23700338
-0.23693981
-0.23684206
-0.23671411
-0.23657155
-0.23640785
-0.23620445
-0.2359575
-0.23565558
-0.23529365
-0.23485922
-0.23433023
-0.23367974
-0.23286378
-0.23180984
-0.23040415
-0.22850409
-0.22598674
-0.22285879
-0.21922647
-0.21525377
-0.2117672
-0.2083782
-0.2046303
-0.20161607
-0.19842037
-0.19563169
-0.19280959
-0.19002288
-0.18702752
-0.1837196
-0.17998329
-0.17557581
-0.17054441
-0.16445374
-0.15773389
-0.14940842
-0.1409685
-0.13002907
-0.12063627
-0.10684716
-0.098572329
-0.081391582
-0.24013744
-0.24013888
-0.24014043
-0.24014186
-0.24014313
-0.24014419
-0.24014491
-0.24014513
-0.24014466
-0.24014323
-0.24014053
-0.24013613
-0.2401295
-0.24011998
-0.24010675
-0.24008878
-0.24006481
-0.24003332
-0.23999247
-0.23994008
-0.23987361
-0.23979033
-0.239687
-0.23955564
-0.23939505
-0.23920595
-0.23898048
-0.23871297
-0.23839871
-0.23803619
-0.23762363
-0.23715391
-0.23661752
-0.23599921
-0.23526475
-0.23434567
-0.23312452
-0.23143972
-0.22912765
-0.22610998
-0.22243184
-0.21814233
-0.21403385
-0.20987483
-0.20505216
-0.2007177
-0.19650245
-0.19262955
-0.18883731
-0.1851471
-0.18154908
-0.17785087
-0.17394221
-0.16974808
-0.16503393
-0.15986571
-0.15380742
-0.14730827
-0.13939267
-0.13153944
-0.1213782
-0.11286958
-0.10014396
-0.092871868
-0.076862643
-0.24385028
-0.24385003
-0.2438495
-0.24384857
-0.2438471
-0.24384494
-0.24384186
-0.24383762
-0.24383187
-0.24382421
-0.24381412
-0.24380094
-0.2437839
-0.24376199
-0.24373402
-0.24369851
-0.24365369
-0.24359742
-0.24352718
-0.24344
-0.24333247
-0.24320072
-0.24304043
-0.24284688
-0.24261549
-0.24234106
-0.24201919
-0.24164742
-0.24122454
-0.24074785
-0.24021521
-0.23962466
-0.23896634
-0.23821281
-0.23730323
-0.23612812
-0.23452932
-0.2323337
-0.22942321
-0.22578424
-0.22143141
-0.21691841
-0.21223354
-0.2066429
-0.20127851
-0.19615746
-0.19121429
-0.18642347
-0.18182417
-0.17736575
-0.17301325
-0.16867325
-0.16423151
-0.15963804
-0.15466601
-0.14939891
-0.14340058
-0.13713373
-0.12962301
-0.1223325
-0.11290753
-0.10522473
-0.09348929
-0.087155789
-0.072228121
-0.24862263
-0.24861941
-0.24861527
-0.24861035
-0.24860434
-0.24859696
-0.24858788
-0.24857671
-0.24856298
-0.24854608
-0.24852527
-0.24849967
-0.24846818
-0.24842947
-0.24838193
-0.24832365
-0.24825233
-0.24816525
-0.24805924
-0.24793066
-0.24777534
-0.24758868
-0.24736562
-0.2471008
-0.24678931
-0.24642705
-0.24601021
-0.24553537
-0.2450006
-0.24440528
-0.24374677
-0.24301562
-0.24218576
-0.24120029
-0.23995794
-0.23831219
-0.23609557
-0.23318092
-0.22951667
-0.22509399
-0.22028944
-0.21523436
-0.20912539
-0.20300064
-0.19709569
-0.19121254
-0.18545324
-0.17989424
-0.17452607
-0.16934725
-0.16433373
-0.15942797
-0.15452201
-0.14958964
-0.14441144
-0.13908613
-0.13317726
-0.12715715
-0.12005059
-0.11330359
-0.10458091
-0.097672232
-0.086866995
-0.081412875
-0.067495095
-0.25483327
-0.25482493
-0.25481463
-0.254803
-0.25478945
-0.25477352
-0.25475477
-0.25473265
-0.25470648
-0.25467545
-0.25463858
-0.25459469
-0.25454235
-0.25447987
-0.25440522
-0.25431602
-0.25420948
-0.25408232
-0.25393079
-0.25375061
-0.25353705
-0.25328512
-0.25298966
-0.25264551
-0.25224735
-0.25179037
-0.25127088
-0.25068589
-0.25003217
-0.24930399
-0.24848797
-0.24755431
-0.24644488
-0.24506189
-0.2432689
-0.24090935
-0.23785668
-0.23405172
-0.22945575
-0.22435134
-0.21891395
-0.21243599
-0.20569333
-0.19910832
-0.1924093
-0.18576229
-0.17926389
-0.17296025
-0.16688677
-0.16105887
-0.15545567
-0.15005261
-0.14475065
-0.13954141
-0.13421104
-0.12887106
-0.12308433
-0.1173288
-0.11063042
-0.10441262
-0.096366272
-0.090185954
-0.080263609
-0.075635481
-0.062682038
-0.26280876
-0.26279285
-0.2627735
-0.26275205
-0.26272756
-0.26269934
-0.26266677
-0.26262912
-0.2625855
-0.26253486
-0.26247592
-0.26240722
-0.26232701
-0.26223317
-0.26212322
-0.26199437
-0.26184336
-0.26166647
-0.26145954
-0.26121796
-0.26093674
-0.2606105
-0.2602337
-0.25980095
-0.2593071
-0.25874717
-0.25811604
-0.25740725
-0.25661025
-0.25570537
-0.25465577
-0.25339745
-0.25183143
-0.24982396
-0.24722959
-0.24392071
-0.23984256
-0.23495556
-0.22945031
-0.22357369
-0.21670758
-0.20942453
-0.20214302
-0.19469156
-0.18721208
-0.17981475
-0.17257706
-0.16557358
-0.1588475
-0.15242988
-0.14631002
-0.14048218
-0.13485452
-0.12943287
-0.12400728
-0.11869927
-0.1130706
-0.10760116
-0.10131988
-0.095621837
-0.088233885
-0.082740812
-0.07366703
-0.069821181
-0.057746916
-0.27289607
-0.2728701
-0.27283875
-0.27280437
-0.27276555
-0.27272133
-0.2726709
-0.27261329
-0.27254732
-0.27247149
-0.27238456
-0.2722878
-0.27217605
-0.27204052
-0.27188449
-0.27170847
-0.2715053
-0.27127067
-0.27100021
-0.27068902
-0.27033178
-0.26992291
-0.26945657
-0.26892666
-0.26832651
-0.26764814
-0.26688057
-0.26600672
-0.26499833
-0.26380881
-0.26236517
-0.2605629
-0.25826999
-0.25534336
-0.25167024
-0.24717662
-0.24187054
-0.23585298
-0.22944114
-0.22208621
-0.21419395
-0.20620367
-0.19800124
-0.1897071
-0.1814306
-0.17327029
-0.16531885
-0.15765521
-0.15033221
-0.14339173
-0.13682862
-0.13065022
-0.12477007
-0.11920402
-0.11374403
-0.10851844
-0.10308779