/*--------------------------------*- C++ -*----------------------------------*\
  =========                 |
  \\      /  F ield         | OpenFOAM: The Open Source CFD Toolbox
   \\    /   O peration     | Website:  https://openfoam.org
    \\  /    A nd           | Version:  13
     \\/     M anipulation  |
\*---------------------------------------------------------------------------*/
FoamFile
{
    format      ascii;
    class       surfaceScalarField;
    location    "954";
    object      phi;
}
// * * * * * * * * * * * * * * * * * * * * * * * * * * * * * * * * * * * * * //

dimensions      [0 3 -1 0 0 0 0];

internalField   nonuniform List<scalar> 
5270
(
4.0386588e-10
-4.0383193e-10
1.4133464e-09
-1.0094674e-09
3.1492467e-09
-1.7358895e-09
6.1302306e-09
-2.9809787e-09
1.124212e-08
-5.1118869e-09
1.9992514e-08
-8.7503886e-09
3.4934914e-08
-1.4942381e-08
6.0367416e-08
-2.5432433e-08
1.0346268e-07
-4.3095041e-08
1.7604887e-07
-7.258552e-08
2.9731192e-07
-1.2126122e-07
4.9766465e-07
-2.0034797e-07
8.2378666e-07
-3.2611016e-07
1.3441335e-06
-5.2031842e-07
2.1527448e-06
-8.0854571e-07
3.3669007e-06
-1.2140104e-06
5.1119964e-06
-1.7447867e-06
7.4879992e-06
-2.3753773e-06
1.0520865e-05
-3.0316655e-06
1.4116767e-05
-3.593732e-06
1.8063145e-05
-3.9426862e-06
2.1855374e-05
-3.7863621e-06
2.4351612e-05
-2.4876209e-06
2.4149109e-05
2.1395038e-07
2.0147815e-05
4.014545e-06
1.0982691e-05
9.1778431e-06
-5.9770531e-06
1.6968508e-05
-3.55804e-05
2.9604505e-05
-8.6039146e-05
5.0450119e-05
-0.00016792354
8.186694e-05
-0.00028675464
0.00011880994
-0.00042692057
0.00014014904
-0.0005231024
9.6177698e-05
-0.00043599004
-8.7093888e-05
0.00010185355
-0.00053779243
0.0014244693
-0.0013225255
0.0042221243
-0.0027975502
0.0087290712
-0.0045068044
-0.0081515846
0.016880802
-5.6040612e-10
1.5675504e-10
-1.960128e-09
3.9112362e-10
-4.3709206e-09
6.7663981e-10
-8.5200395e-09
1.1711149e-09
-1.5651813e-08
2.0249939e-09
-2.7891576e-08
3.4981288e-09
-4.8853097e-08
6.0341207e-09
-8.4645072e-08
1.0385113e-08
-1.4550866e-07
1.7812051e-08
-2.484143e-07
3.0393811e-08
-4.2102608e-07
5.1474645e-08
-7.0741066e-07
8.6244002e-08
-1.1755144e-06
1.4233695e-07
-1.9253926e-06
2.3012156e-07
-3.0950417e-06
3.6201025e-07
-4.8575188e-06
5.4990722e-07
-7.4010455e-06
8.0098729e-07
-1.0889606e-05
1.1166162e-06
-1.5415267e-05
1.4991081e-06
-2.0966499e-05
1.9648617e-06
-2.747332e-05
2.5742481e-06
-3.4742334e-05
3.4956551e-06
-4.2456081e-05
5.2414512e-06
-5.1057906e-05
8.8318007e-06
-6.2403242e-05
1.5373534e-05
-7.9728426e-05
2.6510214e-05
-0.00010814449
4.5381771e-05
-0.00015521362
7.6659925e-05
-0.00022964571
0.00012486099
-0.00033533931
0.00018753887
-0.00046007408
0.00024353167
-0.00055311013
0.00023318976
-0.00049531721
3.841462e-05
-7.7336903e-05
-0.00050501796
0.0010163304
-0.0016313883
0.0032186586
-0.003524754
0.0071452372
-0.0067240511
0.013401176
-0.01076264
-0.018066583
0.02331628
3.4633706e-11
1.2209007e-10
1.2187579e-10
3.0404496e-10
2.7525674e-10
5.2388e-10
5.4522897e-10
9.0220942e-10
1.0188732e-09
1.5531911e-09
1.8476625e-09
2.6725276e-09
3.2922231e-09
4.5950922e-09
5.7938315e-09
7.8931266e-09
1.0081557e-08
1.3541111e-08
1.7312897e-08
2.3191837e-08
2.9205673e-08
3.9633403e-08
4.8005868e-08
6.7534433e-08
7.5868697e-08
1.1463352e-07
1.1269524e-07
1.935745e-07
1.5060268e-07
3.2458899e-07
1.6223347e-07
5.3911007e-07
8.076197e-08
8.8385615e-07
-2.2340703e-07
1.423055e-06
-9.5949431e-07
2.2387349e-06
-2.4326154e-06
3.4432442e-06
-5.0593508e-06
5.2083632e-06
-9.3625514e-06
7.808381e-06
-1.5888993e-05
1.1778889e-05
-2.5262812e-05
1.8216677e-05
-3.8922474e-05
2.9042287e-05
-5.997593e-05
4.7568644e-05
-9.3697824e-05
7.9103199e-05
-0.00014679631
0.00012975284
-0.00022197817
0.00020003458
-0.00030589519
0.00027144834
-0.00034535503
0.00028298817
-0.00021911404
0.00010695295
0.00028089209
-0.00046157633
0.0014650217
-0.0016891189
0.0037530748
-0.0039194055
0.00766959
-0.0074412094
0.013877886
-0.012932298
0.023076323
-0.019960988
-0.031608273
0.036618112
8.8982421e-12
1.1335228e-10
3.2839525e-11
2.807773e-10
7.3478231e-11
4.8458521e-10
1.4228288e-10
8.3570243e-10
2.5843776e-10
1.4409709e-09
4.537103e-10
2.4839894e-09
7.7978373e-10
4.280527e-09
1.3197004e-09
7.3728313e-09
2.2037653e-09
1.2690395e-08
3.6296657e-09
2.1822381e-08
5.881801e-09
3.7476289e-08
9.3317375e-09
6.424338e-08
1.4366974e-08
1.0986173e-07
2.1102235e-08
1.8727156e-07
2.8488621e-08
3.1790308e-07
3.1887407e-08
5.3682802e-07
1.6843767e-08
9.0064257e-07
-5.6518108e-08
1.4990593e-06
-2.848678e-07
2.4709372e-06
-8.6552287e-07
4.0292429e-06
-2.156263e-06
6.5060998e-06
-4.7678707e-06
1.0428492e-05
-9.6595863e-06
1.6679889e-05
-1.8283621e-05
2.6849466e-05
-3.3073884e-05
4.3839246e-05
-5.8105575e-05
7.2603881e-05
-9.8602615e-05
0.0001196007
-0.00015613729
0.00018728629
-0.00021626937
0.00026016595
-0.00022407486
0.0002792554
-5.2245879e-05
0.0001111636
0.00051996196
-0.00046524717
0.0018163004
-0.0017579023
0.00426196
-0.004134757
0.0083739871
-0.0080314105
0.014758601
-0.013825778
0.024113949
-0.022287607
0.037222628
-0.033069595
-0.049686919
0.055301381
-9.1602664e-12
1.2271332e-10
-2.9490086e-11
3.0205266e-10
-6.511771e-11
5.2221604e-10
-1.2781053e-10
9.0182676e-10
-2.3838225e-10
1.5574191e-09
-4.3395845e-10
2.68961e-09
-7.8112885e-10
4.6448145e-09
-1.3999338e-09
8.020685e-09
-2.5079903e-09
1.3847472e-08
-4.5020382e-09
2.389854e-08
-8.1092374e-09
4.1219706e-08
-1.4668402e-08
7.1025799e-08
-2.6652219e-08
1.222061e-07
-4.863252e-08
2.0982421e-07
-8.9052133e-08
3.592136e-07
-1.634567e-07
6.1258904e-07
-3.0038125e-07
1.0395802e-06
-5.5233421e-07
1.7539073e-06
-1.0173286e-06
2.9399253e-06
-1.8788663e-06
4.8959859e-06
-3.4754485e-06
8.1089904e-06
-6.4308672e-06
1.3390899e-05
-1.1892928e-05
2.2148847e-05
-2.1941953e-05
3.6904391e-05
-4.0113038e-05
6.2014708e-05
-7.108747e-05
0.00010358156
-0.00011654145
0.00016505821
-0.00016301475
0.00023376511
-0.00015728883
0.00025444851
2.7419272e-05
9.4557922e-05
0.0006165932
-0.00047800012
0.0019433714
-0.0017920172
0.0044395556
-0.0042540803
0.0086136794
-0.0083088698
0.015034998
-0.014452724
0.024342852
-0.023133603
0.037234953
-0.035179677
0.0545331
-0.050367698
-0.072391749
0.077238035
-1.9382856e-11
1.4219395e-10
-6.3886259e-11
3.4722312e-10
-1.4118797e-10
6.0108869e-10
-2.7567601e-10
1.0390148e-09
-5.0989295e-10
1.7962796e-09
-9.1831572e-10
3.1060156e-09
-1.6317038e-09
5.3719128e-09
-2.8801963e-09
9.292691e-09
-5.0700585e-09
1.6077573e-08
-8.9207741e-09
2.7817885e-08
-1.5710785e-08
4.8126154e-08
-2.7719409e-08
8.3230385e-08
-4.9023429e-08
1.4383591e-07
-8.6934813e-08
2.4826767e-07
-1.5459454e-07
4.2772112e-07
-2.7564246e-07
7.3494444e-07
-4.9259395e-07
1.2584663e-06
-8.8181364e-07
2.1458472e-06
-1.5803749e-06
3.6420782e-06
-2.8351238e-06
6.1551151e-06
-5.096096e-06
1.0374788e-05
-9.2042737e-06
1.7503755e-05
-1.6754334e-05
2.9702809e-05
-3.0607458e-05
5.0760439e-05
-5.4821092e-05
8.6231065e-05
-9.1334682e-05
0.00014009956
-0.00012859912
0.00020233103
-0.000117804
0.00022298356
6.1422157e-05
7.5240106e-05
0.00062993544
-0.0004739368
0.0019180636
-0.0017661137
0.0043511887
-0.0042251344
0.0084173668
-0.0083202577
0.014641447
-0.014532948
0.023579042
-0.023390326
0.035840902
-0.035395452
0.052078625
-0.051417378
0.073127749
-0.07141681
-0.099068368
0.099804456
-2.730068e-11
1.6967104e-10
-8.9817049e-11
4.1070431e-10
-1.9843127e-10
7.1171063e-10
-3.8707903e-10
1.2311173e-09
-7.1502134e-10
2.130153e-09
-1.2857176e-09
3.6868629e-09
-2.2802803e-09
6.3837798e-09
-4.0164234e-09
1.1058181e-08
-7.0529985e-09
1.9163585e-08
-1.2375874e-08
3.3223313e-08
-2.1729669e-08
5.7616248e-08
-3.821176e-08
9.9934293e-08
-6.7339265e-08
1.7331794e-07
-1.1897063e-07
3.004531e-07
-2.1077467e-07
5.2036725e-07
-3.7450798e-07
8.999131e-07
-6.6741324e-07
1.5531026e-06
-1.1930655e-06
2.6737811e-06
-2.1401729e-06
4.5919531e-06
-3.8575082e-06
7.8754389e-06
-7.0049067e-06
1.3524911e-05
-1.2849571e-05
2.3350338e-05
-2.3713252e-05
4.0567429e-05
-4.3025978e-05
7.0073903e-05
-7.2741552e-05
0.00011594923
-0.00010323305
0.00017059835
-9.1260549e-05
0.00019037279
7.379195e-05
5.7952295e-05
0.00060126677
-0.00045220937
0.0018089719
-0.0016816175
0.004103517
-0.0040606408
0.0079402997
-0.0080619076
0.013787168
-0.014167127
0.02211192
-0.0228577
0.033401166
-0.03467959
0.048205107
-0.050199396
0.067130777
-0.070343038
0.091002669
-0.095288723
-0.1285977
0.12053206
-3.5636828e-11
2.0545247e-10
-1.1698221e-10
4.929756e-10
-2.5851614e-10
8.5508713e-10
-5.0429579e-10
1.4800855e-09
-9.3151055e-10
2.5628626e-09
-1.6748895e-09
4.4396709e-09
-2.9702819e-09
7.6952728e-09
-5.231467e-09
1.3346691e-08
-9.1864664e-09
2.3164592e-08
-1.612028e-08
4.0233785e-08
-2.8309116e-08
6.9931048e-08
-4.9800803e-08
1.2162919e-07
-8.7824402e-08
2.1166152e-07
-1.5535004e-07
3.684669e-07
-2.7576551e-07
6.4149758e-07
-4.9148624e-07
1.1166263e-06
-8.7999361e-07
1.9428934e-06
-1.584351e-06
3.3796409e-06
-2.8734034e-06
5.8825137e-06
-5.2650427e-06
1.0268215e-05
-9.7714505e-06
1.8031638e-05
-1.8282901e-05
3.1861085e-05
-3.3680299e-05
5.5963665e-05
-5.7821609e-05
9.4215366e-05
-8.2772475e-05
0.00014090441
-7.0843658e-05
0.00015868091
7.7322025e-05
4.222686e-05
0.00055526761
-0.00041996653
0.0016612753
-0.0015581871
0.0037757149
-0.003796029
0.0073130172
-0.0075979218
0.012678975
-0.013427853
0.020249792
-0.021737942
0.030400623
-0.033008531
0.043548214
-0.047827208
0.060192226
-0.066843419
0.080914434
-0.091065259
0.10653208
-0.12090642
-0.15984533
0.13777971
-4.5809916e-11
2.5129328e-10
-1.5033705e-10
5.9806566e-10
-3.3268322e-10
1.0384621e-09
-6.4949105e-10
1.7986973e-09
-1.2005681e-09
3.1170773e-09
-2.1603045e-09
5.4048252e-09
-3.8344552e-09
9.3787088e-09
-6.7605063e-09
1.628852e-08
-1.1886444e-08
2.8317057e-08
-2.0890703e-08
4.9282038e-08
-3.6758066e-08
8.5870065e-08
-6.482323e-08
1.4980823e-07
-1.1467616e-07
2.6168942e-07
-2.0367231e-07
4.5771942e-07
-3.6347338e-07
8.016491e-07
-6.5243045e-07
1.4060137e-06
-1.1796203e-06
2.4705196e-06
-2.153222e-06
4.3535133e-06
-3.9809535e-06
7.7100636e-06
-7.4719267e-06
1.3758215e-05
-1.4157865e-05
2.471564e-05
-2.6414562e-05
4.4115267e-05
-4.5866805e-05
7.5414171e-05
-6.5863223e-05
0.00011421322
-5.3787067e-05
0.00012883564
7.824508e-05
2.6664039e-05
0.00050586381
-0.00038536869
0.0015039237
-0.0014179974
0.0034214465
-0.0034756785
0.0066294174
-0.0070039698
0.011469472
-0.012437952
0.01823538
-0.020193743
0.027196244
-0.0306988
0.038661698
-0.044473982
0.053004787
-0.062170329
0.070713213
-0.084551865
0.092390913
-0.112743
0.1188877
-0.14740327
-0.1919753
0.15101761
-5.9390395e-11
3.1056678e-10
-1.9539441e-10
7.3414832e-10
-4.3348178e-10
1.2764906e-09
-8.4749844e-10
2.2126588e-09
-1.5685464e-09
3.8380855e-09
-2.8261543e-09
6.6624208e-09
-5.0237823e-09
1.1576346e-08
-8.8729792e-09
2.0137667e-08
-1.5633786e-08
3.5077455e-08
-2.7548277e-08
6.1194869e-08
-4.8628559e-08
1.0694512e-07
-8.6102382e-08
1.8726773e-07
-1.5309555e-07
3.2864684e-07
-2.7368164e-07
5.7822254e-07
-4.9257942e-07
1.0203663e-06
-8.943162e-07
1.8073808e-06
-1.6424956e-06
3.2179907e-06
-3.062144e-06
5.7719034e-06
-5.8047647e-06
1.0450649e-05
-1.1110863e-05
1.9061408e-05
-2.0902992e-05
3.4504306e-05
-3.645678e-05
5.9666068e-05
-5.1959045e-05
9.0915778e-05
-3.8984809e-05
0.00010124293
7.9692808e-05
1.0168431e-05
0.0004612942
-0.00035491992
0.0013549659
-0.0012790169
0.0030760854
-0.0031390891
0.0059512997
-0.0063508628
0.010262124
-0.011314763
0.016228157
-0.018403958
0.024033478
-0.027999043
0.033887941
-0.040553252
0.046076722
-0.05666276
0.060978922
-0.077072565
0.079131944
-0.10270491
0.101185
-0.13479612
0.12802878
-0.17424711
-0.22448899
0.16054237
-7.8283229e-11
3.8850941e-10
-2.5896317e-10
9.1425859e-10
-5.766812e-10
1.5928256e-09
-1.1299917e-09
2.7636497e-09
-2.0954818e-09
4.7996678e-09
-3.7833367e-09
8.3436653e-09
-6.7409226e-09
1.4522706e-08
-1.1938335e-08
2.5315958e-08
-2.1103813e-08
4.4210293e-08
-3.7335389e-08
7.7370675e-08
-6.6228403e-08
1.3574292e-07
-1.1798197e-07
2.3885925e-07
-2.1140317e-07
4.2179415e-07
-3.816993e-07
7.4806116e-07
-6.9612379e-07
1.3340409e-06
-1.2864921e-06
2.396555e-06
-2.4176014e-06
4.3472765e-06
-4.6221013e-06
7.9737807e-06
-8.9042675e-06
1.4729355e-05
-1.6790526e-05
2.6943655e-05
-2.912579e-05
4.6835828e-05
-4.0500875e-05
7.1039114e-05
-2.5692969e-05
7.6109295e-05
8.3269197e-05
-7.7128944e-06
0.00042594225
-0.00033249283
0.001225177
-0.0011541379
0.002761602
-0.002815421
0.0053181137
-0.0056955767
0.0091222919
-0.010155014
0.014329107
-0.01652155
0.021055245
-0.025130069
0.029432214
-0.036375991
0.039668382
-0.050789409
0.052076826
-0.069071198
0.067101044
-0.092096817
0.08532613
-0.12093001
0.10743921
-0.15690927
0.13435346
-0.2011614
-0.25709259
0.16695695
-1.0691586e-10
4.9476304e-10
-3.5590388e-10
1.1619623e-09
-7.9673763e-10
2.031042e-09
-1.5659082e-09
3.528397e-09
-2.9110495e-09
6.1373199e-09
-5.2691354e-09
1.0689061e-08
-9.4149737e-09
1.8647029e-08
-1.673026e-08
3.2594788e-08
-2.9695728e-08
5.711411e-08
-5.2802708e-08
1.003738e-07
-9.4268275e-08
1.7703467e-07
-1.6932924e-07
3.1363216e-07
-3.0673921e-07
5.5873355e-07
-5.6199979e-07
1.0025687e-06
-1.0450713e-06
1.8159414e-06
-1.9782096e-06
3.3279433e-06
-3.8060138e-06
6.1726057e-06
-7.3456506e-06
1.1510175e-05
-1.3750453e-05
2.113035e-05
-2.3374847e-05
3.6564281e-05
-3.0864068e-05
5.4322377e-05
-1.3192027e-05
5.3366806e-05
9.007562e-05
-2.7155126e-05
0.00040236604
-0.00031999618
0.0011207349
-0.001050851
0.0024910888
-0.0025244781
0.004754158
-0.0050784738
0.0080886265
-0.0090300264
0.012595879
-0.014662246
0.018338625
-0.022264273
0.025392374
-0.032183795
0.033904445
-0.044888044
0.044135885
-0.061020838
0.056463196
-0.081398498
0.071378937
-0.10701258
0.08949187
-0.13904293
0.11149868
-0.17891614
0.13830447
-0.22796717
-0.28954652
0.17075831
-1.4938787e-10
6.4304916e-10
-5.0197346e-10
1.5126989e-09
-1.1319087e-09
2.6578013e-09
-2.2345383e-09
4.6256989e-09
-4.1694747e-09
8.0632912e-09
-7.5761168e-09
1.4080611e-08
-1.3597151e-08
2.4642656e-08
-2.4290997e-08
4.324591e-08
-4.3401662e-08
7.6153146e-08
-7.7822266e-08
1.3467498e-07
-1.4044336e-07
2.394584e-07
-2.5585353e-07
4.2872052e-07
-4.7207015e-07
7.7443565e-07
-8.8500794e-07
1.4147062e-06
-1.6880651e-06
2.6178006e-06
-3.2603246e-06
4.8985009e-06
-6.2637862e-06
9.1738165e-06
-1.1515304e-05
1.6759e-05
-1.8783849e-05
2.8396115e-05
-2.238851e-05
4.0166717e-05
-6.6687049e-07
3.2599897e-05
0.00010110934
-4.8408175e-05
0.00039212608
-0.00031816828
0.0010447302
-0.00097259453
0.002270744
-0.0022768574
0.0042702715
-0.0045239966
0.0071783317
-0.0079865234
0.0110525
-0.012904182
0.015914364
-0.019524095
0.021799877
-0.028149769
0.028814018
-0.039197918
0.03717306
-0.053247067
0.047198098
-0.07104586
0.059305784
-0.093506161
0.07400361
-0.1217104
0.091891862
-0.15693114
0.1136517
-0.20067599
0.1401568
-0.25447218
-0.3215883
0.17219856
-2.1836957e-10
8.5977245e-10
-7.4569977e-10
2.0380133e-09
-1.6987693e-09
3.6082973e-09
-3.3764721e-09
6.2992867e-09
-6.337613e-09
1.1017734e-08
-1.1587809e-08
1.9319851e-08
-2.0947439e-08
3.3984307e-08
-3.7749076e-08
6.0018007e-08
-6.8179379e-08
1.0653497e-07
-1.2392346e-07
1.9033991e-07
-2.2750732e-07
3.429143e-07
-4.2327194e-07
6.2428173e-07
-7.9967994e-07
1.1505284e-06
-1.5315491e-06
2.1461049e-06
-2.9450473e-06
4.0306331e-06
-5.5602416e-06
7.5128224e-06
-9.8442723e-06
1.3456822e-05
-1.488293e-05
2.1796643e-05
-1.42193e-05
2.7731762e-05
1.31554e-05
1.2791928e-05
0.00011777329
-7.2017204e-05
0.00039653667
-0.00032716982
0.00099850554
-0.00092013456
0.0021021147
-0.0020762004
0.0038681831
-0.004042922
0.0063931156
-0.007048925
0.0096991539
-0.011292557
0.013778855
-0.016983878
0.018642809
-0.024388042
0.024368069
-0.033875018
0.031133478
-0.045963311
0.039210769
-0.061324336
0.048949582
-0.080784642
0.06076947
-0.105326
0.07516209
-0.13610298
0.092699809
-0.17446877
0.11403667
-0.2220128
0.14000324
-0.28043859
-0.35292063
0.17133562
-3.4356762e-10
1.2011973e-09
-1.1996936e-09
2.8925575e-09
-2.7691158e-09
5.1770524e-09
-5.5528947e-09
9.0824615e-09
-1.0503165e-08
1.5967568e-08
-1.9361335e-08
2.8178087e-08
-3.5336723e-08
4.9960919e-08
-6.4435174e-08
8.912004e-08
-1.1809658e-07
1.6020445e-07
-2.1850142e-07
2.9076096e-07
-4.0919568e-07
5.3363909e-07
-7.7541837e-07
9.9055951e-07
-1.4780289e-06
1.8532354e-06
-2.7897742e-06
3.4580152e-06
-5.0560737e-06
6.297208e-06
-8.3368174e-06
1.0794015e-05
-1.0885444e-05
1.6006151e-05
-5.0969556e-06
1.6009182e-05
3.0115865e-05
-7.4797111e-06
0.0001421661
-9.925677e-05
0.00041727475
-0.00034712431
0.00098239643
-0.00089229012
0.0019834875
-0.0019212245
0.0035431825
-0.0036358943
0.0057232858
-0.0062230248
0.0085210536
-0.0098466933
0.011908898
-0.014680403
0.015884242
-0.020959222
0.020506306
-0.029010103
0.025924905
-0.039293607
0.032366452
-0.052404837
0.040119522
-0.069077371
0.049525829
-0.090190898
0.060982616
-0.11678272
0.074952119
-0.1500724
0.091973522
-0.19149003
0.11267024
-0.24270942
0.13782374
-0.30559187
-0.3832202
0.16812343
-5.6660586e-10
1.7653371e-09
-2.0464924e-09
4.371798e-09
-4.8128065e-09
7.945251e-09
-9.7855144e-09
1.4059129e-08
-1.8748789e-08
2.4938402e-08
-3.504711e-08
4.449035e-08
-6.5000997e-08
7.9939874e-08
-1.2071395e-07
1.4487708e-07
-2.2554915e-07
2.651156e-07
-4.243531e-07
4.8969298e-07
-8.0048756e-07
9.0998458e-07
-1.4967027e-06
1.6871136e-06
-2.7134357e-06
3.0704974e-06
-4.5727581e-06
5.3181371e-06
-6.5610811e-06
8.2866878e-06
-5.8325168e-06
1.0067044e-05
6.5398132e-06
3.6358971e-06
5.2501403e-05
-2.9949955e-05
0.00017687795
-0.00013185367
0.00045601705
-0.0003783934
0.00099542512
-0.00088653024
0.0019094085
-0.0018062718
0.0032844984
-0.0032963133
0.0051517368
-0.0055031333
0.0074927278
-0.0085640189
0.010269016
-0.012622987
0.013472413
-0.017883806
0.017153962
-0.024640774
0.021439965
-0.033296102
0.026516309
-0.044369934
0.032615117
-0.05850361
0.040008974
-0.076471174
0.049013379
-0.099195228
0.059995942
-0.12776518
0.073387602
-0.16346394
0.089693921
-0.20779619
0.10950436
-0.26251971
0.13354602
-0.32963328
-0.41214252
0.1624685
-1.0442847e-09
2.8065657e-09
-3.9250277e-09
7.2522269e-09
-9.4685395e-09
1.3491609e-08
-1.9642122e-08
2.423856e-08
-3.8329768e-08
4.3637013e-08
-7.29238e-08
7.9104278e-08
-1.3738554e-07
1.444368e-07
-2.576967e-07
2.6524903e-07
-4.8040873e-07
4.8793029e-07
-8.823418e-07
8.917955e-07
-1.5669508e-06
1.5948668e-06
-2.6004351e-06
2.7210273e-06
-3.7499788e-06
4.2206985e-06
-3.7029363e-06
5.2720691e-06
1.7335504e-06
2.8515904e-06
2.3220753e-05
-1.1418298e-05
8.3742804e-05
-5.6883866e-05
0.00022556159
-0.00017176615
0.00051483262
-0.00042112197
0.0010357725
-0.00089933037
0.0018715814
-0.0017223361
0.0030761272
-0.0030108144
0.0046553165
-0.0048755007
0.0065808272
-0.0074286454
0.0088143784
-0.010797576
0.011347869
-0.015156487
0.014231044
-0.020766988
0.017569557
-0.027979287
0.021512756
-0.037239286
0.026241989
-0.049099135
0.031968368
-0.064229937
0.038937206
-0.08343994
0.047435609
-0.10769354
0.057802027
-0.13813149
0.070435755
-0.17609753
0.085806531
-0.22316678
0.10446417
-0.28117719
0.12707597
-0.35224482
-0.43932072
0.15425433
-2.2028529e-09
5.0042555e-09
-8.6588981e-09
1.3705555e-08
-2.1516242e-08
2.6347902e-08
-4.55309e-08
4.8253066e-08
-8.9801614e-08
8.7908971e-08
-1.7061772e-07
1.5992432e-07
-3.1530911e-07
2.8913719e-07
-5.6446452e-07
5.1442257e-07
-9.6291255e-07
8.8641284e-07
-1.5180385e-06
1.4469859e-06
-2.0362938e-06
2.1132408e-06
-1.6911174e-06
2.3760654e-06
1.9111095e-06
6.1885171e-07
1.4623391e-05
-7.4395795e-06
4.8999194e-05
-3.1523255e-05
0.00012865053
-9.1068309e-05
0.00029243727
-0.00022066889
0.00059487727
-0.000474204
0.0010984455
-0.00092468738
0.0018565196
-0.0016574006
0.0028943189
-0.0027601306
0.0042018382
-0.0043183295
0.005745496
-0.0064191574
0.0074956772
-0.009178831
0.0094506354
-0.012752544
0.011659605
-0.017365466
0.01421044
-0.023317826
0.017218638
-0.030987474
0.020820697
-0.040841317
0.025174604
-0.053452995
0.030465638
-0.069520905
0.036913154
-0.08988737
0.044777339
-0.11555762
0.054366767
-0.14772079
0.066046163
-0.18777678
0.080244784
-0.23736523
0.097465687
-0.29839794
0.11831095
-0.37308984
-0.46436274
0.14335312
-5.3864217e-09
1.0379462e-08
-2.1907177e-08
3.0215048e-08
-5.4795294e-08
5.9222162e-08
-1.1373138e-07
1.0716929e-07
-2.133905e-07
1.8753824e-07
-3.7058345e-07
3.1707267e-07
-5.9155348e-07
5.1004241e-07
-8.2559703e-07
7.4837627e-07
-8.4337841e-07
9.0407605e-07
3.1558009e-08
5.7190988e-07
3.4948513e-06
-1.3501848e-06
1.3335777e-05
-7.4649409e-06
3.7214654e-05
-2.3260004e-05
8.912232e-05
-5.9347071e-05
0.00019202639
-0.00013442697
0.00037916289
-0.00027820423
0.00069140079
-0.00053290584
0.0011690225
-0.00095182389
0.0018392616
-0.001594923
0.0027060733
-0.002524207
0.0037498921
-0.003803943
0.0049413904
-0.0055098236
0.00626287
-0.0077406381
0.0077234017
-0.01063937
0.0093688933
-0.014398045
0.011269994
-0.019266571
0.013511807
-0.025559632
0.016191766
-0.03366741
0.019423414
-0.044072925
0.02334199
-0.057371512
0.028110023
-0.074288862
0.033922169
-0.095699426
0.04101029
-0.12264563
0.04964965
-0.15636003
0.06016564
-0.19829263
0.072941187
-0.25014063
0.088425037
-0.31388165
0.10714839
-0.39181298
-0.48685012
0.12963588
-1.2323758e-08
2.2676231e-08
-4.7843987e-08
6.5703502e-08
-1.0794074e-07
1.1928018e-07
-1.8557348e-07
1.8474934e-07
-2.4458313e-07
2.4647502e-07
-1.7307392e-07
2.4546506e-07
3.1831658e-07
1.8526884e-08
1.9003667e-06
-8.3381704e-07
6.0025928e-06
-3.1982939e-06
1.546357e-05
-8.889187e-06
3.5514831e-05
-2.1401512e-05
7.5085207e-05
-4.7035319e-05
0.00014820056
-9.6375325e-05
0.00027472166
-0.00018586821
0.00047937573
-0.00033908121
0.00078768272
-0.0005865114
0.0012194912
-0.00096471402
0.0017821806
-0.0015145117
0.0024668052
-0.0022795437
0.0032534464
-0.0033108426
0.0041231633
-0.004673655
0.0050710224
-0.0064576816
0.0061167021
-0.0087863222
0.0072991646
-0.01182184
0.0086700864
-0.015768972
0.01028786
-0.020884342
0.012217952
-0.027489707
0.014537922
-0.035987348
0.01734254
-0.046877495
0.020747506
-0.060776417
0.024892786
-0.078434069
0.029946123
-0.10075268
0.036107379
-0.12880679
0.043613906
-0.16386645
0.052746338
-0.20742493
0.063834898
-0.26122905
0.077266329
-0.32731296
0.093494648
-0.40804111
-0.50633891
0.11298354
2.2649459e-09
2.0358064e-08
4.1587223e-08
2.6323593e-08
2.0122333e-07
-4.0408902e-08
6.6361954e-07
-2.7769577e-07
1.8008959e-06
-8.9083835e-07
4.3308745e-06
-2.2845224e-06
9.5722444e-06
-5.2227992e-06
1.9827054e-05
-1.1088502e-05
3.8903944e-05
-2.2274957e-05
7.2749137e-05
-4.273406e-05
0.00013001599
-7.8668027e-05
0.00022227245
-0.00013929158
0.0003633134
-0.00023741643
0.000567173
-0.0003897285
0.00084500631
-0.0006169157
0.0012013715
-0.00094287773
0.0016319211
-0.0013952636
0.0021250919
-0.0020076805
0.0026679322
-0.00282238
0.0032539646
-0.0038968708
0.0038901975
-0.0053098861
0.0045978583
-0.007165345
0.0054066671
-0.0095951374
0.0063495382
-0.012764718
0.0074621078
-0.016881543
0.0087853651
-0.02220759
0.010369477
-0.029073798
0.012277242
-0.037895079
0.014586508
-0.049186717
0.017392205
-0.06358206
0.020808868
-0.081850668
0.024973701
-0.10491744
0.030050332
-0.13388334
0.036233261
-0.17004929
0.043752574
-0.21494414
0.052879046
-0.27035542
0.063929625
-0.33836344
0.077273917
-0.42138525
-0.52235771
0.093292797
1.995448e-07
-1.791833e-07
9.7933858e-07
-7.5343701e-07
2.7644146e-06
-1.8254033e-06
6.2721884e-06
-3.7853131e-06
1.2666584e-05
-7.2849788e-06
2.3757779e-05
-1.3375346e-05
4.2233695e-05
-2.3698226e-05
7.1880974e-05
-4.0735205e-05
0.00011770998
-6.8103386e-05
0.00018582515
-0.00011084881
0.00028292993
-0.00017577275
0.00041536249
-0.00027172466
0.00058757492
-0.00040963004
0.00080065429
-0.00060280949
0.0010515112
-0.00086777404
0.0013339753
-0.0012253423
0.0016412993
-0.0017025863
0.0019698071
-0.0023361852
0.0023232116
-0.0031757807
0.002712844
-0.0042865006
0.0031547438
-0.0057517863
0.003666386
-0.0076769904
0.0042651851
-0.010193941
0.0049700163
-0.013469551
0.0058042759
-0.0177158
0.0067981676
-0.023201473
0.0079900204
-0.030265635
0.0094275376
-0.039332573
0.011169269
-0.050928418
0.013286331
-0.065699085
0.015864513
-0.084428804
0.019006738
-0.10805961
0.022835966
-0.1377125
0.027498605
-0.17471186
0.033168039
-0.22061349
0.040048451
-0.27723575
0.048378564
-0.34669348
0.058432881
-0.43143945
-0.53439535
0.070470599
7.1617608e-07
-8.9495589e-07
3.3175863e-06
-3.3543494e-06
8.7284956e-06
-7.2358223e-06
1.8180662e-05
-1.323696e-05
3.3253405e-05
-2.2357195e-05
5.5881246e-05
-3.6002697e-05
8.8299911e-05
-5.611651e-05
0.00013289272
-8.5327847e-05
0.0001918993
-0.00012711012
0.00026700132
-0.00018595143
0.00035888486
-0.00026765734
0.00046689348
-0.00037973468
0.00058903572
-0.00053177384
0.00072256823
-0.00073634326
0.00086511794
-0.0010103243
0.0010162164
-0.0013764402
0.0011785522
-0.0018649205
0.0013578201
-0.0025154509
0.0015614901
-0.0033794485
0.0017973133
-0.0045223224
0.0020722683
-0.0060267404
0.0023931292
-0.0079978502
0.0027685639
-0.010569373
0.0032103813
-0.013911364
0.0037341731
-0.018239585
0.0043596674
-0.02382696
0.0051112012
-0.031017161
0.0060186635
-0.040240027
0.0071186496
-0.052028394
0.0084556639
-0.067036085
0.010083496
-0.086056614
0.012066872
-0.11004295
0.014483391
-0.14012898
0.017425817
-0.17765424
0.021004342
-0.22419195
0.02534891
-0.28158027
0.030610358
-0.35195488
0.036952486
-0.43778149
-0.54190626
0.044463467
5.2735314e-07
-1.421771e-06
2.3999389e-06
-5.2263065e-06
6.1881592e-06
-1.102351e-05
1.2570488e-05
-1.9618854e-05
2.2287811e-05
-3.2074234e-05
3.6067859e-05
-4.9782662e-05
5.4511249e-05
-7.4560057e-05
7.7952324e-05
-0.00010876933
0.00010630909
-0.00015546751
0.00013899571
-0.00021863883
0.00017494768
-0.00030361007
0.00021281947
-0.00041760706
0.00025145201
-0.00057040661
0.00029039887
-0.0007752899
0.0003304854
-0.0010504103
0.00037387359
-0.001419828
0.0004236464
-0.0019146936
0.00048270761
-0.0025745134
0.00055270879
-0.003449452
0.00063456298
-0.0046041788
0.00072955099
-0.0061217288
0.000839709
-0.0081080048
0.00096849486
-0.010698151
0.0011206745
-0.014063532
0.0013020687
-0.018420967
0.0015196261
-0.024044507
0.0017816648
-0.031279196
0.0020983109
-0.040556676
0.0024819322
-0.052412024
0.0029475981
-0.06750176
0.0035136532
-0.086622676
0.0042024873
-0.11073178
0.0050414188
-0.1409679
0.0060638007
-0.1786766
0.0073098811
-0.225438
0.0088275169
-0.28309789
0.01067088
-0.35379824
0.012887141
-0.43999771
-0.54441469
0.015395666
-5.950887e-07
-8.2729985e-07
-2.7134368e-06
-3.1086881e-06
-7.0150587e-06
-6.7225137e-06
-1.4299622e-05
-1.2334815e-05
-2.5463235e-05
-2.0910985e-05
-4.1420997e-05
-3.3825039e-05
-6.2980767e-05
-5.300015e-05
-9.0667397e-05
-8.1082255e-05
-0.0001245135
-0.00012162066
-0.00016389291
-0.00017925843
-0.00020754672
-0.00025995512
-0.00025379483
-0.00037135782
-0.00030096825
-0.00052323224
-0.00034821329
-0.00072804423
-0.00039630046
-0.0010023228
-0.00044791138
-0.0013682172
-0.00050717332
-0.0018554321
-0.00057834018
-0.0025033477
-0.00066416161
-0.0033636328
-0.00076551054
-0.0045028334
-0.00088273229
-0.0060045112
-0.0010174923
-0.0079732475
-0.0011731811
-0.01054246
-0.0013549413
-0.013881763
-0.0015694219
-0.018206472
-0.0018246462
-0.023789267
-0.0021306621
-0.030973169
-0.0025000692
-0.040187269
-0.0029485482
-0.051963558
-0.0034952063
-0.066955126
-0.0041628923
-0.08595502
-0.004978385
-0.10991632
-0.0059727242
-0.13997359
-0.0071813809
-0.17746797
-0.0086449762
-0.22397442
-0.010410149
-0.28133275
-0.012531292
-0.35167715
-0.015062741
-0.43746633
-0.54158857
-0.017888737
-7.0662008e-07
-1.2104302e-07
-3.2871814e-06
-5.2858763e-07
-8.6920101e-06
-1.3181624e-06
-1.8222222e-05
-2.8051453e-06
-3.3603747e-05
-5.5300628e-06
-5.7043372e-05
-1.0386052e-05
-9.1237429e-05
-1.8806707e-05
-0.00013929522
-3.3024964e-05
-0.00020451106
-5.6405054e-05
-0.00028993601
-9.3833303e-05
-0.00039778825
-0.00015210216
-0.000528804
-0.00024034077
-0.00068168036
-0.00037035408
-0.0008531263
-0.00055659627
-0.0010390926
-0.00081635474
-0.0012363804
-0.0011709281
-0.001444789
-0.0016470232
-0.0016692711
-0.002278866
-0.0019192106
-0.0031136942
-0.002206636
-0.0042154093
-0.0025437117
-0.0056674376
-0.0029402146
-0.0075767482
-0.0034050326
-0.010077646
-0.0039501575
-0.013336641
-0.0045933244
-0.017563301
-0.0053580365
-0.023024544
-0.0062745685
-0.030056623
-0.0073803992
-0.039081428
-0.0087215398
-0.050622419
-0.01035385
-0.065322833
-0.0123445
-0.083964402
-0.014773288
-0.10748758
-0.017734369
-0.13701256
-0.021337833
-0.17386457
-0.025712168
-0.21960016
-0.031006794
-0.2760382
-0.037395851
-0.3452882
-0.045079099
-0.4297833
-0.53241315
-0.054254619
-1.4605057e-07
2.5043792e-08
-7.3118917e-07
5.6568371e-08
-2.1053642e-06
5.5985763e-08
-4.882575e-06
-2.8025275e-08
-1.0099585e-05
-3.1323608e-07
-1.9436279e-05
-1.049668e-06
-3.5505847e-05
-2.7376113e-06
-6.2200183e-05
-6.3312783e-06
-0.00010502998
-1.3576075e-05
-0.00017133478
-2.7529397e-05
-0.00027014196
-5.3295787e-05
-0.00041150148
-9.8981682e-05
-0.00060509331
-0.00017676199
-0.00085794111
-0.00030374725
-0.0011720653
-0.00050222839
-0.0015430553
-0.00079993559
-0.0019610465
-0.0012290301
-0.0024152352
-0.001824677
-0.0028999576
-0.0026289734
-0.0034203467
-0.0036950226
-0.0039947035
-0.0050930824
-0.0046491996
-0.0069222522
-0.0054128304
-0.0093140156
-0.0063140214
-0.012435451
-0.007381737
-0.016495589
-0.008651573
-0.02175471
-0.010171117
-0.028537075
-0.012001159
-0.037251378
-0.014217616
-0.048405954
-0.016913011
-0.062627439
-0.020198747
-0.080678681
-0.024207398
-0.10347896
-0.029095965
-0.13212405
-0.035048765
-0.16791185
-0.042281672
-0.21236735
-0.051046169
-0.26727383
-0.061633993
-0.33470052
-0.074377167
-0.41704032
-0.51714256
-0.089648152
9.636406e-09
1.5457445e-08
2.1320168e-08
4.4941666e-08
-7.3832391e-09
8.4748015e-08
-1.7799726e-07
1.4265813e-07
-7.1464383e-07
2.2349018e-07
-2.0816519e-06
3.1742154e-07
-5.1922943e-06
3.7309523e-07
-1.1759026e-05
2.3546632e-07
-2.4843406e-05
-4.9178302e-07
-4.9636854e-05
-2.7361982e-06
-9.444657e-05
-8.4865339e-06
-0.00017173951
-2.1689423e-05
-0.00029879457
-4.9707706e-05
-0.00049720023
-0.00010534222
-0.00079023872
-0.00020918997
-0.0011983816
-0.00039179184
-0.0017332197
-0.00069419035
-0.0023919568
-0.0011659385
-0.0031577696
-0.0018631611