/*--------------------------------*- C++ -*----------------------------------*\
  =========                 |
  \\      /  F ield         | OpenFOAM: The Open Source CFD Toolbox
   \\    /   O peration     | Website:  https://openfoam.org
    \\  /    A nd           | Version:  13
     \\/     M anipulation  |
\*---------------------------------------------------------------------------*/
FoamFile
{
    format      ascii;
    class       surfaceScalarField;
    location    "45.803845";
    object      phi;
}
// * * * * * * * * * * * * * * * * * * * * * * * * * * * * * * * * * * * * * //

dimensions      [0 3 -1 0 0 0 0];

internalField   nonuniform List<scalar> 
34068
(
-1.0893288e-08
-3.9597633e-08
5.0490921e-08
-4.8497432e-08
-1.3543401e-07
1.7303815e-07
-1.2176204e-07
-2.6291381e-07
3.3617842e-07
-2.4199915e-07
-4.3198079e-07
5.522179e-07
-4.2343209e-07
-6.5559575e-07
8.3702868e-07
-6.8387399e-07
-9.5053299e-07
1.2109749e-06
-1.0455546e-06
-1.3383678e-06
1.7000483e-06
-1.5360944e-06
-1.8466949e-06
2.3372347e-06
-2.189691e-06
-2.5105398e-06
3.1641364e-06
-3.0485619e-06
-3.3739923e-06
4.2328632e-06
-4.1646431e-06
-4.4921064e-06
5.6081877e-06
-5.6015695e-06
-5.9330399e-06
7.3699663e-06
-7.4369927e-06
-7.7803231e-06
9.6157462e-06
-9.7652692e-06
-1.0135193e-05
1.2463469e-05
-1.270052e-05
-1.3118803e-05
1.6054054e-05
-1.6380098e-05
-1.6874039e-05
2.0553617e-05
-2.0968406e-05
-2.1566549e-05
2.6154857e-05
-2.6661037e-05
-2.738446e-05
3.3077092e-05
-3.3689106e-05
-3.4536051e-05
4.156412e-05
-4.2323601e-05
-4.3244538e-05
5.1879032e-05
-5.2879461e-05
-5.3738919e-05
6.4294779e-05
-6.5718945e-05
-6.623985e-05
7.9079334e-05
-8.1253768e-05
-8.093951e-05
9.6474333e-05
-9.9945124e-05
-9.7975029e-05
0.00011666638
-0.00012230062
-0.00011739569
0.00013975119
-0.00014886684
-0.00013912594
0.00016569216
-0.00018021591
-0.00016292867
0.00019427774
-0.0002169248
-0.00018837725
0.00022508615
-0.00025954657
-0.00021485047
0.00025747223
-0.00030857539
-0.0002415711
0.00029059993
-0.00036441275
-0.00026771306
0.00032355042
-0.00042735026
-0.00029258958
0.00035552708
-0.00049759116
-0.00031588456
0.00038612547
-0.00057532271
-0.0003378037
0.00041553525
-0.0006608204
-0.00035899842
0.0004444961
-0.00075454174
-0.0003802727
0.00047399405
-0.00085718187
-0.00040228273
0.00050492286
-0.00096970137
-0.00042539682
0.00053791632
-0.0010933593
-0.00044967685
0.00057333477
-0.0012297799
-0.0004748455
0.00061126609
-0.001381073
-0.00050012472
0.00065141782
-0.0015500245
-0.00052386222
0.00069281374
-0.0017403852
-0.00054281938
0.0007331801
-0.0019572432
-0.00055089386
0.00076775187
-0.0022074593
-0.00053729208
0.00078750816
-0.0025002864
-0.00048387615
0.00077670327
-0.0028480648
-0.00036038124
0.00070815962
-0.0032668457
-0.0001174557
0.00053623662
-0.0037767293
0.00032443149
0.00018545208
-0.0044011659
0.0010932746
-0.00046883797
-0.0051639621
0.0023940848
-0.0016312886
-0.0060824108
0.0045559772
-0.0036375285
-0.0071531003
0.0080875905
-0.007016901
-0.0083229216
0.013693795
-0.012523974
-0.009441573
0.02213234
-0.021013689
-0.010231723
0.033922248
-0.033132098
-0.010352447
0.048406949
-0.048286225
-0.0096605311
0.062529412
-0.063221329
-0.0080313277
0.071519422
-0.073148625
-0.0027809246
0.054921741
-0.060172144
0.0094928022
-0.011164322
-0.0011094052
0.024550396
-0.10379032
0.088732726
0.036721239
-0.16281859
0.15064774
0.04190018
-0.1819288
0.17674986
-0.17001239
0.045546545
0.16636603
-1.0917472e-08
-2.8680162e-08
-4.8594288e-08
-9.7757193e-08
-1.2198687e-07
-1.8952123e-07
-2.4242941e-07
-3.1153826e-07
-4.2418072e-07
-4.7384445e-07
-6.851164e-07
-6.8959732e-07
-1.0475898e-06
-9.7589441e-07
-1.5394104e-06
-1.3548743e-06
-2.1950682e-06
-1.8548821e-06
-3.0572102e-06
-2.5118503e-06
-4.1783551e-06
-3.3709615e-06
-5.6229232e-06
-4.4884718e-06
-7.4696168e-06
-5.9336295e-06
-9.8141763e-06
-7.7906334e-06
-1.2772527e-05
-1.0160453e-05
-1.648432e-05
-1.3162246e-05
-2.1116862e-05
-1.6934008e-05
-2.6869344e-05
-2.1631978e-05
-3.3977268e-05
-2.7428127e-05
-4.271688e-05
-3.4504925e-05
-5.3409305e-05
-4.3046495e-05
-6.6423966e-05
-5.3225188e-05
-8.2180675e-05
-6.51828e-05
-0.00010114962
-7.900608e-05
-0.00012384821
-9.4697108e-05
-0.0001508334
-0.00011214075
-0.0001826882
-0.00013107387
-0.0002200007
-0.00015106476
-0.00026333508
-0.00017151608
-0.00031319637
-0.00019170982
-0.00036999581
-0.00021091362
-0.00043403262
-0.00022855276
-0.0005055135
-0.00024440369
-0.00058462252
-0.00025869468
-0.00067162473
-0.00027199621
-0.00076696103
-0.0002849364
-0.00087130327
-0.00029794049
-0.00098558243
-0.00031111767
-0.0011110188
-0.00032424051
-0.00124918
-0.00033668429
-0.0014020846
-0.00034722007
-0.0015723656
-0.00035358129
-0.0017635212
-0.00035166372
-0.0019802222
-0.00033419291
-0.0022286545
-0.00028885978
-0.0025170002
-0.00019553046
-0.0028559119
-2.1469511e-05
-0.0032588153
0.00028544766
-0.003741712
0.0008073282
-0.0043218897
0.0016734524
-0.0050140113
0.0030862063
-0.005823675
0.0053656409
-0.006734404
0.0089983196
-0.0076721723
0.014631564
-0.0084561398
0.022916307
-0.0087905377
0.034256646
-0.0083420322
0.047958444
-0.0069201439
0.061107524
-0.0039487811
0.068548059
0.0037862119
0.047186748
0.017192959
-0.024571068
0.031539504
-0.11813687
0.042389979
-0.17366906
0.046110729
-0.18564955
-0.17011381
0.046212148
-1.0777916e-08
-1.7902246e-08
-4.7966805e-08
-6.0568305e-08
-1.2040268e-07
-1.1708535e-07
-2.3926148e-07
-1.9267946e-07
-4.1863698e-07
-2.9446895e-07
-6.7624018e-07
-4.3199412e-07
-1.0342219e-06
-6.1791273e-07
-1.5202149e-06
-8.6888122e-07
-2.1685686e-06
-1.2065284e-06
-3.0217903e-06
-1.6586285e-06
-4.1322912e-06
-2.2604607e-06
-5.5644476e-06
-3.0563153e-06
-7.3970231e-06
-4.1010541e-06
-9.7259701e-06
-5.4616865e-06
-1.2667637e-05
-7.2187862e-06
-1.6362379e-05
-9.4675042e-06
-2.0978548e-05
-1.2317839e-05
-2.6716811e-05
-1.5893715e-05
-3.3814664e-05
-2.0330273e-05
-4.2550948e-05
-2.5768641e-05
-5.3250066e-05
-3.2347377e-05
-6.6285479e-05
-4.0189775e-05
-8.2081865e-05
-4.9386414e-05
-0.00010111517
-5.9972772e-05
-0.0001239095
-7.1902781e-05
-0.00015102956
-8.5020683e-05
-0.00018306727
-9.9036169e-05
-0.00022062091
-0.00011351111
-0.00026426639
-0.0001278706
-0.00031452178
-0.00014145442
-0.00037181205
-0.00015362335
-0.00043644843
-0.00016391637
-0.00050864353
-0.00017220859
-0.00058857564
-0.00017876256
-0.00067648877
-0.00018408308
-0.00077278884
-0.00018863633
-0.00087809814
-0.00019263119
-0.00099328561
-0.0001959302
-0.0011194964
-0.00019802975
-0.0012581907
-0.00019798995
-0.0014112308
-0.00019417996
-0.0015810057
-0.00018380642
-0.0017706384
-0.00016203099
-0.0019842089
-0.00012062247
-0.0022269895
-4.6079125e-05
-0.0025057626
8.3242641e-05
-0.0028290247
0.00030179253
-0.0032069217
0.00066334469
-0.003650577
0.0012509835
-0.0041699477
0.002192823
-0.0047696865
0.0036859452
-0.0054429224
0.0060388768
-0.0061553705
0.0097107676
-0.0068016115
0.015277805
-0.0071657158
0.023280412
-0.0069174817
0.034008412
-0.0056567909
0.046697753
-0.0030651471
0.05851588
0.0022288905
0.063254021
0.012579553
0.036836086
0.026277554
-0.03826907
0.039604844
-0.13146416
0.048861694
-0.18292591
0.051263568
-0.18805142
-0.16741057
0.04856033
-1.0470009e-08
-7.4322379e-09
-4.6592014e-08
-2.44463e-08
-1.1695587e-07
-4.6721493e-08
-2.3244783e-07
-7.7187503e-08
-4.0682527e-07
-1.2009151e-07
-6.5738836e-07
-1.8143103e-07
-1.0057962e-06
-2.6950486e-07
-1.4791132e-06
-3.9556429e-07
-2.1110175e-06
-5.7462405e-07
-2.9432601e-06
-8.2638594e-07
-4.0274238e-06
-1.1762971e-06
-5.4269967e-06
-1.6567424e-06
-7.2197953e-06
-2.3082556e-06
-9.5007834e-06
-3.1806984e-06
-1.2385304e-05
-4.3342656e-06
-1.6012728e-05
-5.8400797e-06
-2.0550498e-05
-7.7800687e-06
-2.6198502e-05
-1.0245712e-05
-3.3193661e-05
-1.3335114e-05
-4.1814544e-05
-1.7147759e-05
-5.2385679e-05
-2.1776241e-05
-6.5281173e-05
-2.7294281e-05
-8.0927029e-05
-3.3740559e-05
-9.9801364e-05
-4.1098437e-05
-0.00012243155
-4.927259e-05
-0.00014938701
-5.8065225e-05
-0.00018126621
-6.7156971e-05
-0.00021867647
-7.6100857e-05
-0.00026220571
-8.4341363e-05
-0.00031238731
-9.1272824e-05
-0.00036966411
-9.6346548e-05
-0.00043436435
-9.9216134e-05
-0.00050671008
-9.9862859e-05
-0.00058687198
-9.8600666e-05
-0.00067505836
-9.5896699e-05
-0.00077163041
-9.2064286e-05
-0.00087713255
-8.7129048e-05
-0.00099233716
-8.072559e-05
-0.0011182809
-7.2086054e-05
-0.0012562622
-6.0008599e-05
-0.0014079254
-4.2516767e-05
-0.0015753254
-1.6406438e-05
-0.0017610943
2.3737967e-05
-0.0019685537
8.6836871e-05
-0.0022018479
0.00018721506
-0.0024660254
0.00034742016
-0.0027670068
0.00060277393
-0.0031110802
0.0010074181
-0.0035036543
0.0016435576
-0.0039461137
0.0026352824
-0.0044315024
0.0041713339
-0.0049380723
0.0065454468
-0.0054030961
0.010175791
-0.0056826153
0.015557324
-0.0055245241
0.023122321
-0.004547036
0.033030924
-0.0022326756
0.044383392
0.0019418764
0.054341328
0.009954389
0.055241509
0.022470373
0.024320101
0.036236924
-0.052035621
0.048424923
-0.14365215
0.055852408
-0.1903534
0.0569953
-0.18919431
-0.16299599
0.052580718
-1.0012664e-08
2.5804257e-09
-4.4553067e-08
1.0094103e-08
-1.1183762e-07
2.0563061e-08
-2.2229812e-07
3.3272992e-08
-3.8912591e-07
4.6736282e-08
-6.2894026e-07
5.8383317e-08
-9.6261189e-07
6.4166761e-08
-1.4162508e-06
5.8074639e-08
-2.0224158e-06
3.1540905e-08
-2.8215572e-06
-2.7244517e-08
-3.8637415e-06
-1.341128e-07
-5.2107164e-06
-3.0976753e-07
-6.9383243e-06
-5.8064764e-07
-9.1393074e-06
-9.797153e-07
-1.1926538e-05
-1.5470355e-06
-1.5436673e-05
-2.3299446e-06
-1.983422e-05
-3.382521e-06
-2.531595e-05
-4.7639821e-06
-3.211554e-05
-6.5355238e-06
-4.0508267e-05
-8.7550316e-06
-5.0815455e-05
-1.1469053e-05
-6.3408246e-05
-1.470149e-05
-7.8710139e-05
-1.8438667e-05
-9.7197518e-05
-2.2611058e-05
-0.00011939721
-2.7072898e-05
-0.00014587984
-3.1582593e-05
-0.00017724762
-3.5789195e-05
-0.00021411514
-3.9233339e-05
-0.00025708239
-4.137411e-05
-0.00030669933
-4.1655878e-05
-0.00036343132
-3.9614563e-05
-0.00042762834
-3.501911e-05
-0.00049952716
-2.7964037e-05
-0.00057929529
-1.8832536e-05
-0.00066706236
-8.1296333e-06
-0.00076318767
4.061027e-06
-0.00086807093
1.7754208e-05
-0.00098237974
3.3583223e-05
-0.0011069807
5.2514879e-05
-0.001242983
7.599373e-05
-0.0013917364
0.00010623666
-0.0015549002
0.00014675731
-0.0017344773
0.00020331507
-0.0019328992
0.00028525881
-0.0021529643
0.0004072801
-0.0023977253
0.00059218123
-0.0026701286
0.0008751772
-0.0029720662
0.0013093557
-0.0033024231
0.0019739145
-0.003652904
0.0029857633
-0.0040023385
0.0045207683
-0.0043091196
0.0068522279
-0.004477815
0.010344487
-0.0043216591
0.015401168
-0.0035391439
0.022339805
-0.0016720073
0.031163787
0.0019209671
0.040790418
0.0080103829
0.048251913
0.018407825
0.044844067
0.032410121
0.010317805
0.046464824
-0.066090323
0.057564086
-0.15475142
0.062970001
-0.19575931
0.062858694
-0.18908301
-0.15800682
0.057869523
-9.4112326e-09
1.1991658e-08
-4.1873095e-08
4.2555965e-08
-1.0511318e-07
8.3803145e-08
-2.0895738e-07
1.3711719e-07
-3.6585482e-07
2.0363372e-07
-5.9152243e-07
2.8405093e-07
-9.0573413e-07
3.7837846e-07
-1.3332836e-06
4.8562407e-07
-1.9051539e-06
6.0341129e-07
-2.6599308e-06
7.2753233e-07
-3.6454898e-06
8.5144625e-07
-4.9210108e-06
9.6575348e-07
-6.5593524e-06
1.057694e-06
-8.6498228e-06
1.1107551e-06
-1.1301374e-05
1.104516e-06
-1.4646235e-05
1.0149158e-06
-1.8843958e-05
8.1520227e-07
-2.4085844e-05
4.7790406e-07
-3.059962e-05
-2.1747504e-08
-3.865415e-05
-7.0050143e-07
-4.8564191e-05
-1.5590132e-06
-6.0694137e-05
-2.5715428e-06
-7.5460887e-05
-3.671917e-06
-9.3334938e-05
-4.737007e-06
-0.00011483831
-5.569522e-06
-0.00014053885
-5.8820538e-06
-0.0001710387
-5.2893521e-06
-0.00020695644
-3.315594e-06
-0.00024890476
5.7420609e-07
-0.0002974509
6.890262e-06
-0.00035308252
1.6017064e-05
-0.00041617723
2.8075596e-05
-0.00048698863
4.2847366e-05
-0.00056567151
5.9850344e-05
-0.00065240125
7.8600098e-05
-0.0007472891
9.8948883e-05
-0.0008507142
0.00012117931
-0.00096317592
0.00014604495
-0.0010853532
0.00017469217
-0.0012180993
0.00020873986
-0.0013624261
0.00025056338
-0.0015195022
0.00030383345
-0.0016906306
0.00037444344
-0.0018772028
0.000471831
-0.0020804975
0.00061057481
-0.0023013349
0.00081301865
-0.0025393587
0.001113201
-0.002791598
0.001561595
-0.0030496968
0.0022320132
-0.0032948258
0.0032308923
-0.0034899591
0.0047159017
-0.0035679046
0.0069301734
-0.0033969664
0.010173549
-0.0027471375
0.014751339
-0.0012528937
0.020845562
0.0016437921
0.028267101
0.0066834944
0.035750716
0.014749069
0.040186338
0.026875475
0.032717661
0.041957576
-0.0047642961
0.056584817
-0.080717563
0.066539821
-0.16470642
0.069822235
-0.19904172
0.068608219
-0.18786899
-0.15350173
0.064103134
-8.6813061e-09
2.0672964e-08
-3.8619844e-08
7.2494503e-08
-9.6946447e-08
1.4212975e-07
-1.9274849e-07
2.3291924e-07
-3.3756461e-07
3.4844983e-07
-5.4599561e-07
4.9248193e-07
-8.3645569e-07
6.6883854e-07
-1.232092e-06
8.8126037e-07
-1.7619045e-06
1.1332238e-06
-2.4621025e-06
1.4277303e-06
-3.3777351e-06
1.7670788e-06
-4.5646402e-06
2.1526586e-06
-6.0917484e-06
2.5848022e-06
-8.0437863e-06
3.062793e-06
-1.0524402e-05
3.5851319e-06
-1.3659737e-05
4.1502508e-06
-1.7602427e-05
4.7578923e-06
-2.2535995e-05
5.4114722e-06
-2.8679535e-05
6.1217921e-06
-3.6292574e-05
6.9125374e-06
-4.567956e-05
7.8279731e-06
-5.7194257e-05
8.9431543e-06
-7.1242849e-05
1.0376675e-05
-8.8285222e-05
1.2305366e-05
-0.00010883401
1.4979264e-05
-0.00013344963
1.8733567e-05
-0.00016273085
2.3991865e-05
-0.0001972986
3.1252164e-05
-0.00023776907
4.1044673e-05
-0.00028472928
5.3850471e-05
-0.00033869473
6.9982516e-05
-0.00040007475
8.9455613e-05
-0.00046914952
0.00011192214
-0.0005460781
0.00013677892
-0.00063095138
0.00016347337
-0.00072385326
0.00019185077
-0.00082497675
0.0002223028
-0.00093464471
0.00025571291
-0.0010533133
0.0002933608
-0.0011815437
0.00033697017
-0.0013199557
0.00038897547
-0.0014691671
0.00045304477
-0.0016296918
0.00053496814
-0.0018017743
0.00064391352
-0.001985033
0.00079383348
-0.0021778712
0.0010058568
-0.0023763771
0.001311707
-0.0025723536
0.0017575716
-0.0027496806
0.0024093402
-0.0028782175
0.0033594293
-0.0029039417
0.0047416259
-0.002731596
0.0067578277
-0.0021912577
0.0096332103
-0.0010046158
0.013564697
0.001265104
0.018575842
0.0052793178
0.024252887
0.011804637
0.029225396
0.021512827
0.030478148
0.034791705
0.019438783
0.051041206
-0.021013798
0.066458376
-0.096134733
0.074937786
-0.17318583
0.076040369
-0.20014431
0.074024328
-0.18585295
-0.1504457
0.070968296
-7.8406454e-09
2.851361e-08
-3.4876543e-08
9.9530401e-08
-8.7554213e-08
1.9480742e-07
-1.7410856e-07
3.1947359e-07
-3.0502328e-07
4.7936456e-07
-4.9360085e-07
6.810595e-07
-7.566662e-07
9.319039e-07
-1.115432e-06
1.2400262e-06
-1.5965549e-06
1.6143468e-06
-2.2334211e-06
2.0645965e-06
-3.0676972e-06
2.6013549e-06
-4.1511896e-06
3.236151e-06
-5.5480553e-06
3.9816679e-06
-7.337401e-06
4.8521387e-06
-9.6163088e-06
5.8640397e-06
-1.2503303e-05
7.0372449e-06
-1.6142261e-05
8.3968507e-06
-2.0706736e-05
9.9759471e-06
-2.6404598e-05
1.1819655e-05
-3.3482858e-05
1.3990797e-05
-4.2232424e-05
1.6577539e-05
-5.2992472e-05
1.9703203e-05
-6.6153933e-05
2.3538136e-05
-8.2161455e-05
2.8312888e-05
-0.00010151307
3.4330877e-05
-0.00012475652
4.1977016e-05
-0.0001524811
5.1716448e-05
-0.00018530365
6.4074719e-05
-0.00022384741
7.9588429e-05
-0.00026871354
9.8716598e-05
-0.00032044501
0.00012171398
-0.00037948681
0.00014849742
-0.00044615124
0.00017858658
-0.00052060389
0.00021123157
-0.00060288911
0.00024575859
-0.00069299822
0.00028195988
-0.00079095843
0.00032026302
-0.00089688374
0.00036163822
-0.0010109722
0.00040744926
-0.0011334572
0.00045945514
-0.0012645231
0.0005200414
-0.0014041846
0.00059270629
-0.0015520996
0.00068288316
-0.0017072785
0.00079909237
-0.0018675803
0.00095413529
-0.0020288652
0.0011671418
-0.002183508
0.0014663498
-0.0023178655
0.001891929
-0.0024077395
0.0024992142
-0.0024111807
0.0033628705
-0.0022561266
0.0045865718
-0.0018197154
0.0063214165
-0.00089322083
0.0087067157
0.00085829082
0.011813186
0.0039468981
0.015487235
0.0090902525
0.019109533
0.016935985
0.021379664
0.027774892
0.01963924
0.042097085
0.0051165902
0.059958423
-0.038875136
0.076006528
-0.11218284
0.082325918
-0.17950522
0.081350816
-0.19916921
0.078808221
-0.18331035
-0.14949266
0.077855184
-6.9139672e-09
3.5427577e-08
-3.075144e-08
1.2336787e-07
-7.7203872e-08
2.4125985e-07
-1.5356327e-07
3.9583299e-07
-2.6914267e-07
5.9494396e-07
-4.3579904e-07
8.4771587e-07
-6.6858223e-07
1.1646871e-06
-9.8653422e-07
1.5579782e-06
-1.4136718e-06
2.0414843e-06
-1.9801849e-06
2.6311096e-06
-2.7238903e-06
3.3450603e-06
-3.6919814e-06
4.2042421e-06
-4.9431181e-06
5.2328046e-06
-6.5498929e-06
6.4589136e-06
-8.601719e-06
7.9158658e-06
-1.1208156e-05
9.6436821e-06
-1.4502686e-05
1.1691381e-05
-1.8646906e-05
1.4120167e-05
-2.383509e-05
1.7007838e-05
-3.0298964e-05
2.0454671e-05
-3.8312512e-05
2.4591088e-05
-4.8196502e-05
2.9587192e-05
-6.0322283e-05
3.5663917e-05
-7.5114322e-05
4.3104927e-05
-9.305072e-05
5.2267275e-05
-0.00011466084
6.3587136e-05
-0.00014051896
7.757457e-05
-0.00017123276
9.4788521e-05
-0.00020742535
0.00011578101
-0.0002497096
0.00014100085
-0.0002986541
0.00017065848
-0.00035474106
0.00020458437
-0.00041832054
0.00024216605
-0.00048957382
0.00028248486
-0.00056851053
0.0003246953
-0.00065501922
0.00036846857
-0.00074895363
0.00041419742
-0.00085019628
0.00046288086
-0.00095865839
0.00051591138
-0.0010742136
0.00057501033
-0.0011965755
0.0006424033
-0.0013251164
0.0007212472
-0.0014585908
0.00081635755
-0.0015947166
0.00093521822
-0.0017295307
0.0010889493
-0.0018562779
0.001293889
-0.0019635592
0.0015736311
-0.0020322284
0.0019605981
-0.0020299271
0.0024969129
-0.001903009
0.0032359523
-0.0015617845
0.0042453473
-0.00085337563
0.0056130076
0.00047489014
0.0073784499
0.002820255
0.0094678209
0.0067504978
0.011556992
0.01291992
0.01294011
0.021713055
0.01258653
0.033358586
0.0079937082
0.049313491
-0.010838314
0.069136896
-0.058698541
0.084789784
-0.12783573
0.088340445
-0.18305588
0.085600627
-0.19642939
0.083039416
-0.18074914
-0.15083599
0.08438274
-5.9304344e-09
4.1358012e-08
-2.6372799e-08
1.4381024e-07
-6.621589e-08
2.8110295e-07
-1.3174713e-07
4.6136423e-07
-2.310293e-07
6.9422613e-07
-3.7437093e-07
9.9105751e-07
-5.7491349e-07
1.3652297e-06
-8.4935777e-07
1.8324225e-06
-1.218862e-06
2.4109886e-06
-1.7101406e-06
3.1223882e-06
-2.3568066e-06
3.9917263e-06
-3.2009905e-06
5.0484261e-06
-4.2952866e-06
6.3271008e-06
-5.7050625e-06
7.8686895e-06
-7.5111733e-06
9.7219766e-06
-9.813109e-06
1.1945618e-05
-1.2732585e-05
1.4610857e-05
-1.6417572e-05
1.7805155e-05
-2.1046699e-05
2.1636965e-05
-2.6833936e-05
2.6241908e-05
-3.4033382e-05
3.1790533e-05
-4.2943872e-05
3.8497683e-05
-5.3913071e-05
4.6633116e-05
-6.7340513e-05
5.6532368e-05
-8.3678991e-05
6.8605753e-05
-0.0001034335
8.3341641e-05
-0.0001271568
0.00010129787
-0.00015544055
0.00012307228
-0.00018890069
0.00014924115
-0.0002281555
0.00018025566
-0.00027379444
0.00021629742
-0.00032633549
0.00025712543
-0.00038617032
0.00030200088
-0.00045350566
0.0003498202
-0.00052832833
0.00039951796
-0.00061042889
0.00045056914
-0.00069948183
0.00050325036
-0.00079512077
0.0005585198
-0.00089694577
0.00061773638
-0.0010044437
0.00068250828
-0.0011168296
0.00075478923
-0.0012328045
0.00083722201
-0.0013501894
0.00093374251
-0.0014653816
0.0010504104
-0.0015725575
0.0011961252
-0.0016623163
0.0013836478
-0.0017194849
0.0016307996
-0.0017194471
0.0019605604
-0.0016217626
0.0023992284
-0.0013609865
0.0029751762
-0.00083004214
0.003714403
0.00016221008
0.0046207554
0.001922382
0.005618278
0.0048995246
0.0064906783
0.0096399336
0.0068165828
0.016571432
0.0060086115
0.025997275
0.0031606868
0.038898486
-0.0049075023
0.057423815
-0.029363643
0.078730069
-0.080004795
0.091726557
-0.14083221
0.092408848
-0.18373817
0.088860046
-0.19288059
0.087089409
-0.17897851
-0.15428744
0.090540859
-4.9229692e-09
4.6280981e-08
-2.1887574e-08
1.6077484e-07
-5.495942e-08
3.1417479e-07
-1.0939322e-07
5.1579804e-07
-1.9196324e-07
7.7679615e-07
-3.1137806e-07
1.1104723e-06
-4.788007e-07
1.5326523e-06
-7.0849775e-07
2.0621195e-06
-1.0186436e-06
2.7211345e-06
-1.4323126e-06
3.5360573e-06
-1.9786939e-06
4.5381076e-06
-2.69457e-06
5.7643022e-06
-3.6260958e-06
7.2586266e-06
-4.83093e-06
9.0735237e-06
-6.3807433e-06
1.127179e-05
-8.3641534e-06
1.3929028e-05
-1.0890096e-05
1.71368e-05
-1.4091625e-05
2.1006683e-05
-1.8130111e-05
2.5675451e-05
-2.3199761e-05
3.1311559e-05
-2.9532306e-05
3.8123078e-05
-3.7401622e-05
4.6366999e-05
-4.7128009e-05
5.6359503e-05
-5.9081668e-05
6.8486027e-05
-7.3684861e-05
8.3208946e-05
-9.1412114e-05
0.00010106889
-0.00011278766
0.00012267342
-0.00013837924
0.00014866386
-0.00016878694
0.00017964885
-0.00020462552
0.00021609423
-0.00024649716
0.00025816907
-0.00029495013
0.0003055784
-0.00035041784
0.00035746859
-0.00041314078
0.00041254314
-0.00048309741
0.00046947459
-0.00055999287
0.0005274646
-0.00064332425
0.00058658174
-0.0007324653
0.00064766085
-0.00082668524
0.00071195632
-0.00092506195
0.00078088499
-0.0010262895
0.00085601674
-0.0011283759
0.00093930845
-0.0012281898
0.0010335564
-0.0013207919
0.0011430125
-0.0013984666
0.0012737999
-0.0014491334
0.0014343146
-0.001453808
0.0016354742
-0.0013823244
0.0018890768
-0.0011860703
0.0022029744
-0.00078640581
0.0025755117
-5.454527e-05
0.0029825424
0.0012531292
0.0033130809
0.003496261
0.0033751461
0.0071218729
0.0028650664
0.012500672
0.0014377841
0.020000907
-0.0014916236
0.030419765
-0.0072581719
0.045816332
-0.020304069
0.067425102
-0.050972412
0.087870813
-0.10045051
0.096642084
-0.14960349
0.095135154
-0.18223124
0.091324281
-0.18906971
0.09101337
-0.1786676
-0.15946479
0.096190722
-3.9279267e-09
5.0208908e-08
-1.7457779e-08
1.743047e-07
-4.3840773e-08
3.4055779e-07
-8.7308225e-08
5.5926549e-07
-1.5335344e-07
8.4284136e-07
-2.4909097e-07
1.2062099e-06
-3.8370709e-07
1.6672684e-06
-5.6902758e-07
2.24744e-06
-8.2022547e-07
2.9723323e-06
-1.1566987e-06
3.8725305e-06
-1.6031532e-06
4.9845621e-06
-2.1909239e-06
6.3520729e-06
-2.9595806e-06
8.0272833e-06
-3.9588542e-06
1.0072797e-05
-5.2509251e-06
1.2563861e-05
-6.9131109e-06
1.5591214e-05
-9.0409706e-06
1.9264659e-05
-1.1751839e-05
2.3717551e-05
-1.5188764e-05
2.9112376e-05
-1.9524778e-05
3.5647572e-05
-2.49674e-05
4.35657e-05
-3.1763183e-05
5.3162782e-05
-4.0202035e-05
6.4798355e-05
-5.0621001e-05
7.8904993e-05
-6.3407045e-05
9.5994991e-05
-7.8998331e-05
0.00011666018
-9.788338e-05
0.00014155847
-0.00012059734
0.00017137782
-0.00014771437
0.00020676588
-0.00017983429
0.00024821415
-0.00021756015
0.00029589493
-0.00026146021
0.00034947845
-0.00031200451
0.00040801289
-0.00036947166
0.00047001029
-0.00043384662
0.00053384956
-0.00050476743
0.00059838541
-0.00058156445
0.00066337876
-0.00066334825
0.00072944465
-0.00074904281
0.00079765088
-0.00083729769
0.00086913987
-0.00092626585
0.00094498489
-0.0010132424
0.001026285
-0.0010941214
0.0011144354
-0.0011625961
0.0012114872
-0.0012089922
0.001320196
-0.0012184338
0.0014437562
-0.0011678217
0.0015848621
-0.0010208864
0.0017421415
-0.0007198422
0.0019019302
-0.00016891923
0.0020245887
0.00079742085
0.0020162023
0.0024782643
0.0016322375
0.0052441042
0.00060930621
0.0094373609
-0.0013281903
0.015406871
-0.0045317264
0.024030846
-0.010115598
0.036887986
-0.020115312
0.055883367
-0.03929945
0.078492272
-0.073581317
0.094265098
-0.11622333
0.098544243
-0.15388263
0.096303962
-0.17999096
0.093596068
-0.18636182
0.09478166
-0.17985319
-0.16594977
0.10126664
-2.9839634e-09
5.3192872e-08
-1.3255064e-08
1.845758e-07
-3.3290698e-08
3.6059342e-07
-6.6346767e-08
5.9232156e-07
-1.1669426e-07
8.9318885e-07
-1.8992008e-07
1.2794357e-06
-2.9331179e-07
1.7706601e-06
-4.3634244e-07
2.3904707e-06
-6.3128177e-07
3.1672717e-06
-8.9395889e-07
4.1352076e-06
-1.2447064e-06
5.3353096e-06
-1.7095266e-06
6.8168931e-06
-2.3215078e-06
8.6392645e-06
-3.1225407e-06
1.087383e-05
-4.1653661e-06
1.3606686e-05
-5.5159929e-06
1.6941841e-05
-7.2565108e-06
2.1005177e-05
-9.4883148e-06
2.5949355e-05
-1.2335714e-05
3.1959775e-05
-1.5949897e-05
3.9261756e-05
-2.0513154e-05
4.8128958e-05
-2.6243212e-05
5.8892839e-05
-3.3397478e-05
7.1952622e-05
-4.227691e-05
8.7784425e-05
-5.3229208e-05
0.00010694729
-6.6650888e-05
0.00013008186
-8.2987826e-05
0.00015789541
-0.00010273371
0.0001911237
-0.00012642557
0.00023045774
-0.00015463476
0.00027642334
-0.0001879498
0.00032920997
-0.00022694335
0.000388472
-0.0002721103
0.00045317984
-0.00032376522
0.00052166521
-0.00038191093
0.00059199527
-0.00044613952
0.00066261401
-0.0005156335
0.00073287273
-0.00058924552
0.00080305667
-0.00066554488
0.00087395025
-0.00074273411
0.0009463291
-0.0008184011
0.0010206519
-0.00088909702
0.0010969809
-0.00094969483
0.0011750332
-0.00099243269
0.0012542251
-0.0010054941
0.0013332575
-0.00097080897
0.001409071
-0.00086039062
0.0014744438
-0.00063015666
0.0015119075
-0.0002091205
0.001480894
0.00052368976
0.0012917785
0.0017905067
0.00074938536
0.0039060933
-0.00048334903
0.0072077379
-0.0026923385
0.012124972
-0.006245424
0.019548418
-0.011955173
0.030880094
-0.021447274
0.04744611
-0.036681328
0.068507705
-0.060361045
0.087608609
-0.09268222
0.097344133
-0.12595886
0.099157253
-0.15569575
0.096894945
-0.17772865
0.09566107
-0.18512794
0.098278733
-0.18247085
-0.17344316
0.10577212
-2.1307468e-09
5.5323619e-08
-9.4563799e-09
1.9190143e-07
-2.3753422e-08
3.7489046e-07
-4.7392373e-08
6.1596051e-07
-8.3530343e-08
9.2932682e-07
-1.3636e-07
1.3322653e-06
-2.1142753e-07
1.8457277e-06
-3.160424e-07
2.4950855e-06
-4.5979203e-07
3.3110213e-06
-6.5519388e-07
4.3306095e-06
-9.1850751e-07
5.5986232e-06
-1.2707403e-06
7.169126e-06
-1.738881e-06
9.1074052e-06
-2.3573995e-06
1.1492349e-05
-3.1700476e-06
1.4419334e-05
-4.2319977e-06
1.8003791e-05
-5.6123376e-06
2.2385517e-05
-7.3969525e-06
2.773397e-05
-9.6917673e-06
3.4254589e-05
-1.2626331e-05
4.2196319e-05
-1.6357666e-05
5.1860292e-05
-2.1074265e-05
6.3609439e-05
-2.7000077e-05
7.7878434e-05
-3.4398271e-05
9.5182619e-05
-4.3574495e-05
0.00011612351
-5.4879417e-05
0.00014138678
-6.8710182e-05
0.00017172617
-8.5510494e-05
0.00020792402
-0.00010576874
0.00025071599
-0.00013001279
0.00030066739
-0.0001587981
0.00035799528
-0.00019268093
0.00042235483
-0.00023216127
0.00049266018
-0.00027757831
0.00056708225
-0.00032895721
0.00064337417
-0.00038586387
0.00071952066
-0.00044735582
0.00079436467
-0.00051204135
0.0008677422
-0.00057812883
0.00094003773
-0.00064335053
0.0010115508
-0.00070469119
0.0010819925
-0.00075789706
0.0011501868
-0.00079671287
0.0012138491
-0.00081171318
0.0012692254
-0.00078852644
0.0013100707
-0.00070500292
0.0013255475
-0.00052634946
0.0012957903
-0.00019653794
0.001182096
0.00037794719
0.00090640888
0.0013573021
0.00031242356
0.0030149341
-0.00090824662
0.0056851928
-0.0031536077
0.0099040675
-0.0069112132
0.016627523
-0.01296888
0.027145488
-0.022473137
0.042120647
-0.036422434
0.060709541
-0.055270222
0.079203984
-0.078855488
0.09198522
-0.10546346
0.097533041
-0.13150668
0.098600653
-0.15676336
0.097326996
-0.176455
0.097629596
-0.18543054
0.10141291
-0.18625416
-0.18163898
0.10960873
-1.4084461e-09
5.6732065e-08
-6.2403522e-09
1.9673334e-07
-1.5677331e-08
3.8432744e-07
-3.1335723e-08
6.316189e-07
-5.5421375e-08
9.5341248e-07
-9.092863e-08
1.3677726e-06
-1.4190454e-07
1.8967036e-06
-2.137836e-07
2.5669646e-06
-3.1382035e-07
3.4110581e-06
-4.5163614e-07
4.4684252e-06
-6.3990783e-07
5.7868949e-06
-8.9522174e-07
7.4244399e-06
-1.2391383e-06
9.4513217e-06
-1.6994758e-06
1.1952686e-05
-2.3118741e-06
1.5031733e-05
-3.1216463e-06
1.8813563e-05
-4.1859647e-06
2.3449835e-05
-5.5763596e-06
2.9124365e-05
-7.3815829e-06
3.6059813e-05
-9.7107424e-06
4.4525479e-05
-1.2696699e-05
5.4846249e-05
-1.6499604e-05
6.7412344e-05
-2.1310438e-05
8.2689267e-05
-2.7354397e-05
0.00010122658
-3.4893933e-05
0.00012366305
-4.4231241e-05
0.00015072409
-5.5710075e-05
0.00018320501
-6.9716729e-05
0.00022193067
-8.6679881e-05
0.00026767914
-0.00010706839
0.0003210559
-0.00013138403
0.00038231092
-0.00016014151
0.00045111231
-0.0001938189
0.00052633758
-0.00023275954
0.00060602289
-0.00027699939
0.00068761402
-0.00032608852
0.0007686098
-0.00037898826
0.00084726442
-0.00043407501
0.00092282895
-0.00048918935
0.00099515207
-0.00054155648
0.0010639179
-0.00058748775
0.0011279238
-0.00062179943
0.0011844985
-0.00063687757
0.0012289272
-0.0006211892
0.001253537
-0.00055692796
0.0012458095
-0.00041598878
0.0011846083
-0.00015281603
0.0010326176
0.00030944776
0.00071983222
0.0011025938
0.00011326281
0.002447626
-0.0010326087
0.0047039093
-0.0031645299
0.0084781416
-0.00692784
0.014808374
-0.013241446
0.024816325
-0.02297683
0.038727332
-0.036384144
0.05521194
-0.052907042
0.071716277
-0.071774559
0.084896368
-0.092035579
0.0925672
-0.11313429
0.096230982
-0.13517046
0.097438511
-0.15797089
0.097705812
-0.1767223
0.099389538
-0.18711427
0.1040933
-0.19095792
-0.19034074
0.11279505
-8.5684373e-10
5.7588908e-08
-3.7847468e-09
1.9966124e-07
-9.509629e-09
3.9005232e-07
-1.9067373e-08
6.4117664e-07
-3.3925807e-08
9.6827091e-07
-5.6147803e-08
1.3899946e-06
-8.8603174e-08
1.9291589e-06
-1.3524693e-07
2.6136083e-06
-2.0147877e-07
3.4772899e-06
-2.9459943e-07
4.5615459e-06
-4.2439186e-07
5.9166873e-06
-6.0384735e-07
7.6038954e-06
-8.5006284e-07
9.6975372e-06
-1.1853483e-06
1.2287972e-05
-1.6385535e-06
1.5484938e-05
-2.2466614e-06
1.9421671e-05
-3.0566495e-06
2.4259824e-05
-4.1276504e-06
3.0195366e-05
-5.5333656e-06
3.7465528e-05
-7.3647571e-06
4.635687e-05
-9.7328993e-06
5.7214392e-05
-1.2771947e-05
7.0451392e-05
-1.6642058e-05
8.6559378e-05
-2.1532153e-05
0.00010611667
-2.7662325e-05
0.00012979322
-3.5285826e-05
0.00015834759
-4.4690541e-05
0.00019260972
-5.6199978e-05
0.00023344011
-7.0173781e-05
0.00028165294
-8.7007235e-05
0.00033788936
-0.00010712732
0.00040243101
-0.00013097834
0.00047496333
-0.00015897887
0.00055433811
-0.00019143325
0.00063847727
-0.00022838478
0.00072456555
-0.00026935897
0.00080958399
-0.00031323099
0.00089113643
-0.00035815725
0.00096775521
-0.0004015908
0.0010385856
-0.00044017973
0.0011025069
-0.00046942612
0.0011571702
-0.00048296385
0.0011980362
-0.00047134626
0.0012173096