/*--------------------------------*- C++ -*----------------------------------*\
  =========                 |
  \\      /  F ield         | OpenFOAM: The Open Source CFD Toolbox
   \\    /   O peration     | Website:  https://openfoam.org
    \\  /    A nd           | Version:  13
     \\/     M anipulation  |
\*---------------------------------------------------------------------------*/
FoamFile
{
    format      ascii;
    class       volScalarField;
    location    "12.595939";
    object      omega;
}
// * * * * * * * * * * * * * * * * * * * * * * * * * * * * * * * * * * * * * //

dimensions      [0 0 -1 0 0 0 0];

internalField   nonuniform List<scalar> 
17140
(
4528389.9
731657.06
224625.44
95287.692
48485.164
27614.29
16956.679
10980.453
7394.0612
5129.1495
3641.1163
2632.3468
1930.9087
1432.8797
1073.0493
809.19454
613.24197
466.10037
354.53666
269.23198
203.54248
152.69283
113.24112
82.713293
59.338657
41.836568
29.222382
20.630374
15.165696
11.96311
10.203684
9.2375708
8.63941
8.1720644
7.7493508
7.3521338
6.9779557
6.6262648
6.2972467
5.9920989
5.71173
5.4577157
5.2319048
5.0362853
4.8724205
4.7423973
4.6552165
4.6102701
4.5935953
4.5889906
4.6148565
4.6533877
4.7157517
4.786849
4.8690426
4.9422958
5.0086889
5.0839331
5.1515526
5.1725065
4.98392
4.7015493
4.2400699
3.818879
3.3878594
4528420.9
731662.68
224627.52
95288.782
48485.843
27614.768
16957.048
10980.758
7394.3301
5129.3979
3641.3544
2632.5814
1931.1446
1433.1201
1073.296
809.44857
613.50339
466.36839
354.80957
269.50709
203.81597
152.95963
113.49476
82.946044
59.542105
42.002929
29.346592
20.712238
15.211677
11.981624
10.205577
9.2307453
8.6301314
8.1635184
7.7425415
7.3474301
6.975665
6.6265854
6.3001365
5.9980441
5.7215518
5.4730363
5.254054
5.0671427
4.9144293
4.7997834
4.7391123
4.7167446
4.7174795
4.7584278
4.8242701
4.9157964
5.0361422
5.1768663
5.3315559
5.4918686
5.6548375
5.8083321
5.8924047
5.9098212
5.6571056
5.2704189
4.6913211
4.2253942
3.6845817
4528451.2
731667.68
224629.1
95289.519
48486.296
27615.113
16957.358
10981.066
7394.6536
5129.7477
3641.7375
2633.0024
1931.6063
1433.6238
1073.8417
810.03466
614.1268
467.0242
355.49083
270.20448
204.51742
153.64991
114.15526
83.555088
60.076489
42.441331
29.674948
20.929326
15.3341
12.031184
10.21097
9.2133252
8.6062112
8.1413202
7.7241262
7.333741
6.9680366
6.6264301
6.3083652
6.0166064
5.7527201
5.5192866
5.3197547
5.1573386
5.0398757
4.9782626
4.9572579
4.9877036
5.0726211
5.1920215
5.33438
5.4984816
5.6659101
5.8298957
5.9838534
6.1170013
6.2201058
6.2842266
6.3006443
6.2233734
5.8664422
5.3604825
4.6601485
4.0622731
3.3328714
4528483
731672.9
224630.78
95290.337
48486.834
27615.561
16957.793
10981.521
7395.148
5130.294
3642.344
2633.6748
1932.3482
1434.4367
1074.7252
810.98615
615.14117
468.09349
356.60378
271.346
205.66793
154.78469
115.244
84.562392
60.964166
43.173797
30.227878
21.298968
15.546566
12.121347
10.226127
9.1896568
8.5712844
8.1073062
7.695705
7.3126273
6.9555076
6.6256266
6.3223052
6.0481456
5.8062846
5.6001519
5.4336279
5.3163005
5.2541781
5.2309103
5.2780536
5.394149
5.533912
5.7005373
5.8701965
6.0387695
6.1859426
6.3095173
6.3993315
6.4403469
6.4495811
6.443024
6.4081541
6.2706235
5.755317
5.009638
4.1264215
3.3807496
2.5804161
4528516.9
731678.46
224632.56
95291.234
48487.457
27616.108
16958.346
10982.116
7395.8061
5131.0288
3643.1654
2634.5896
1933.3608
1435.5493
1075.9374
812.29476
616.53953
469.57112
358.14573
272.932
207.27149
156.37214
116.77379
85.985507
62.227058
44.225402
31.031371
21.845117
15.869048
12.26615
10.258991
9.1631599
8.5242449
8.0598631
7.6556577
7.2826919
6.937751
6.6223898
6.3389467
6.0872397
5.8727599
5.6990236
5.5780727
5.5143617
5.4904927
5.496307
5.6293945
5.7747861
5.9437035
6.1148424
6.2700804
6.4022739
6.4983256
6.5456748
6.563538
6.553587
6.4960105
6.4279392
6.3531891
6.1489694
5.5010586
4.5866136
3.5892743
2.7675876
2.0024837
4528552.1
731684.21
224634.42
95292.198
48488.156
27616.745
16959.008
10982.839
7396.613
5131.9352
3644.1827
2635.7262
1934.6224
1436.939
1077.4554
813.93771
618.30017
471.43744
360.10004
274.94996
209.32084
158.41135
118.75103
87.838819
63.887492
45.625192
32.118402
22.600596
16.326839
12.487091
10.322264
9.140158
8.4664202
7.9971712
7.6019922
7.2426503
6.9131525
6.6147391
6.3541121
6.1274876
5.9429262
5.8095161
5.7380734
5.7094368
5.7057952
5.7664017
5.9268241
6.0774131
6.2435674
6.3887999
6.5076003
6.5709369
6.6045563
6.6169008
6.5956029
6.5316611
6.4332562
6.3266884
6.2269673
5.9556462
5.1916707
4.1027646
3.0220135
2.1991981
1.5186937
4528588.7
731690.15
224636.34
95293.223
48488.922
27617.46
16959.761
10983.67
7397.5462
5132.9879
3645.3678
2637.0537
1936.0996
1438.5705
1079.2424
815.87798
620.38673
473.65791
362.43547
277.37348
211.79608
160.89068
121.17402
90.131954
65.967008
47.405792
33.529715
23.60916
16.953015
12.809543
10.432599
9.1294118
8.4018047
7.9230982
7.5366358
7.1919897
6.8806275
6.602251
6.3636507
6.16398
6.0094875
5.92156
5.8813769
5.8710673
5.8992131
5.992406
6.1419526
6.2798799
6.4208865
6.5289919
6.5919609
6.6172639
6.6255109
6.609305
6.5600736
6.4655515
6.3422047
6.2122463
6.0738382
5.7338681
4.8097595
3.5915534
2.5002438
1.7388334
1.1723919
4528626.6
731696.3
224638.33
95294.302
48489.742
27618.234
16960.585
10984.583
7398.5755
5134.152
3646.6815
2638.5288
1937.7453
1440.3932
1081.2456
818.06097
622.74428
476.17881
365.10128
280.15685
214.65877
163.78132
124.02597
92.862218
68.478302
49.594866
35.304759
24.915322
17.79577
13.271667
10.616906
9.1499909
8.3425406
7.8429938
7.4622573
7.1322986
6.8387341
6.5817505
6.36146
6.1896704
6.0724542
6.0139303
5.9931619
5.9943338
6.0468352
6.1422537
6.2722729
6.390478
6.4997539
6.5662681
6.5986278
6.6095866
6.6066829
6.5715902
6.5067643
6.4002733
6.2489559
6.0991967
5.9140276
5.4879523
4.3672213
3.0736585
2.0287857
1.3600711
0.90415761
4528664.7
731702.65
224640.42
95295.427
48490.596
27619.046
16961.452
10985.547
7399.664
5135.3855
3648.0763
2640.0987
1939.5015
1442.3447
1083.3983
820.41724
625.30175
478.92918
368.02867
283.23586
217.85208
167.03693
127.2743
96.014043
71.425562
52.217721
37.488733
26.579337
18.922944
13.923197
10.911938
9.2273148
8.3039853
7.7640405
7.3820147
7.0649679
6.788698
6.551301
6.35182
6.2041417
6.116531
6.0763589
6.065298
6.0817473
6.1413386
6.2260058
6.3326631
6.4262752
6.508162
6.5575147
6.5788146
6.5816335
6.5624727
6.5232943
6.4591702
6.3315315
6.1486204
5.9829776
5.7465602
5.2021834
3.8680537
2.5631923
1.6212942
1.0674996
0.71194656
4528704.9
731709.26
224642.58
95296.586
48491.471
27619.873
16962.333
10986.526
7400.7695
5136.6395
3649.4968
2641.7012
1941.2998
1444.3502
1085.6203
822.86184
627.97082
481.81903
371.12826
286.52447
221.29659
170.58839
130.8643
99.551439
74.795542
55.286648
40.119369
28.65929
20.401118
14.835125
11.374673
9.3939767
8.3054595
7.6954207
7.299787
6.9916849
6.730666
6.5101527
6.3315802
6.2021758
6.1377803
6.1124126
6.1081156
6.1337788
6.1865027
6.2494596
6.3344924
6.4195324
6.4889972
6.5230674
6.5331615
6.5308084
6.5093407
6.4722198
6.4026533
6.2389759
6.0312754
5.8545505
5.5624
4.8379724
3.3349295
2.0823945
1.27253
0.83895914
0.57045876
4528746.8
731716.19
224644.89
95297.815
48492.379
27620.711
16963.205
10987.485
7401.8479
5137.8615
3650.8823
2643.2676
1943.063
1446.3248
1087.819
825.29522
630.64616
484.7389
374.28859
289.91214
224.88617
174.3383
134.71224
103.40982
78.548533
58.791969
43.220008
31.209925
22.308034
16.09427
12.080046
9.7002191
8.3832804
7.6631641
7.2264425
6.9164628
6.6667599
6.4610203
6.2991959
6.1889051
6.1315418
6.1108013
6.1103086
6.141244
6.1860583
6.2410787
6.3162563
6.3877234
6.4395616
6.464672
6.4731372
6.4689987
6.4463104
6.4059864
6.3158281
6.1071361
5.8936913
5.7134821
5.3594437
4.3799606
2.7906847
1.64727
0.98972034
0.66686439
0.46930085
4528789.6
731723.32
224647.27
95299.055
48493.275
27621.515
16964.026
10988.378
7402.8477
5138.9931
3652.1666
2644.7232
1944.7077
1448.1755
1089.8923
827.60626
633.20822
487.56196
377.37746
293.26385
228.48655
178.15761
138.6998
107.48821
82.608318
62.69004
46.786319
34.269033
24.718475
17.796487
13.125452
10.229668
8.5789439
7.6782586
7.1701112
6.8447066
6.6000956
6.4056527
6.2569309
6.1610753
6.1122769
6.0959253
6.0986176
6.1301852
6.1698931
6.211007
6.2681042
6.3230875
6.3678445
6.3917458
6.3998546
6.3922865
6.367337
6.3158917
6.1788587
5.9346188
5.7543775
5.5762072
5.1368891
3.8060373
2.2315411
1.273582
0.77444162
0.54193211
0.3940225
4528834.7
731730.75
224649.71
95300.282
48494.122
27622.249
16964.757
10989.162
7403.7182
5139.976
3653.2826
2645.9917
1946.1474
1449.8056
1091.732
829.67537
635.52599
490.14631
380.24323
296.42029
231.93385
181.88216
142.6683
111.64056
86.850338
66.888055
50.768071
37.837738
27.686625
20.037691
14.623426
11.087964
8.9739861
7.799382
7.16965
6.7884363
6.5364692
6.3472217
6.206172
6.1166763
6.0733569
6.0610058
6.0678223
6.0990155
6.130024
6.154252
6.1960076
6.2405573
6.2793595
6.3027252
6.3078797
6.2966402
6.2650444
6.1883228
5.9764923
5.7794534
5.6729338
5.4628709
4.8526155
3.1448627
1.7075224
0.96417311
0.60970064
0.44884929
0.33675944
4528880.1
731738.29
224652.16
95301.47
48494.9
27622.886
16965.364
10989.796
7404.4137
5140.7566
3654.1686
2647.0018
1947.3006
1451.1217
1093.2324
831.38311
637.4656
492.34314
382.72218
299.20371
235.03822
185.31349
146.41581
115.66878
91.090042
71.227384
55.047454
41.854789
31.219579
22.892771
16.696615
12.407755
9.6874212
8.1075124
7.2481473
6.7836211
6.4860916
6.2907645
6.152728
6.0639545
6.0199032
6.0076053
6.0163264
6.0458225
6.0714264
6.0835253
6.1100683
6.1436056
6.1751237
6.1956885
6.194323
6.1778326
6.1305429
6.0045915
5.7682927
5.7201281
5.6423415
5.3509913
4.3719608
2.3788191
1.2467259
0.73611545
0.49839162
0.38460899
0.29359843
4528926.9
731746.02
224654.61
95302.616
48495.594
27623.406
16965.825
10990.253
7404.8989
5141.2933
3654.7753
2647.6959
1948.0998
1452.0454
1094.3025
832.62405
638.90533
494.01265
384.65493
301.43413
237.59908
188.23173
149.70653
119.32703
95.080575
75.473183
59.419264
46.166668
35.238831
26.374078
19.442919
14.338253
10.87004
8.7199485
7.4956334
6.8461636
6.4854459
6.2502338
6.0998913
6.008338
5.9598223
5.9446385
5.9520361
5.979052
6.0024822
6.0053089
6.015257
6.0359496
6.0573154
6.0684653
6.0605768
6.0302453
5.9493102
5.7661401
5.6901622
5.7643827
5.6886529
5.1850125
3.4519637
1.6996583
0.90487027
0.57341679
0.41340106
0.33239162
0.2585387
4528977.9
731754.24
224657.14
95303.721
48496.199
27623.802
16966.127
10990.516
7405.1549
5141.5627
3655.0743
2648.0393
1948.503
1452.5258
1094.88
833.32281
639.75382
495.04445
385.90882
302.95344
239.4301
190.42058
152.29404
122.3412
98.526217
79.319024
63.583685
50.505335
39.540834
30.377114
22.878279
17.004461
12.703732
9.8151589
8.0516342
7.0628657
6.5475979
6.2563407
6.0702556
5.9548466
5.8984372
5.8785795
5.8820242
5.9029772
5.9260004
5.9236817
5.9197854
5.9229981
5.9297042
5.9263066
5.907051
5.8426784
5.7222931
5.6693884
5.7906766
6.0382036
5.7561591
4.728179
2.3123427
1.140659
0.6740622
0.47426984
0.36076058
0.29366727
0.2301213
4529031.7
731762.73
224659.71
95304.787
48496.719
27624.075
16966.272
10990.588
7405.1832
5141.5651
3655.0638
2648.0273
1948.5011
1452.5472
1094.9412
833.4443
639.96166
495.37143
386.3954
303.6482
240.38866
191.70188
153.95939
124.44814
101.11935
82.417534
67.165555
54.489973
43.774222
34.627749
26.856489
20.416634
15.336364
11.611264
9.1180047
7.5987758
6.7653292
6.3296613
6.0852966
5.9382856
5.8464027
5.8099087
5.810312
5.8225354
5.8462103
5.8422701
5.8284903
5.8149324
5.8028831
5.7843939
5.7367041
5.663292
5.642585
5.7934206
6.282805
6.2493617
5.5678001
3.3162703
1.5726672
0.85296176
0.54653921
0.40165078
0.31202269
0.2568685
0.20477486
4529085.9
731771.36
224662.3
95305.818
48497.164
27624.242
16966.28
10990.492
7405.0103
5141.3309
3654.7781
2647.6978
1948.1353
1452.1538
1094.5312
833.03215
639.56648
495.01821
386.11651
303.48513
240.39484
191.94754
154.52536
125.42159
102.58222
84.431433
69.766835
57.670788
47.462105
38.667496
31.004257
24.36061
18.756554
14.271511
10.945854
8.6985003
7.3143231
6.5760386
6.1825294
5.9674573
5.84771
5.7771497
5.7472001
5.749768
5.7614454
5.75826
5.7425157
5.7177903
5.6903298
5.6558374
5.6109265
5.6277972
5.8244079
6.3983029
6.8751652
6.3826905
4.6374247
2.0593953
1.0037705
0.61843348
0.44757739
0.3546278
0.28264491
0.23299689
0.18619181
4529139.6
731780.13
224664.92
95306.822
48497.555
27624.33
16966.186
10990.269
7404.6838
5140.9139
3654.2775
2647.1178
1947.4793
1451.4258
1093.7371
832.18083
638.67114
494.09768
385.19657
302.59979
239.58695
191.26795
154.03689
125.20157
102.73021
85.071407
71.013009
59.595412
50.074986
41.910516
34.731117
28.3272
22.638997
17.725504
13.701011
10.646305
8.5256099
7.2059856
6.4924121
6.1107033
5.9072703
5.7991363
5.7509363
5.7310111
5.7292398
5.7189445
5.6932922
5.6638526
5.6292595
5.6215758
5.6840364
5.9304775
6.6161654
7.4921396
7.1188139
5.7952218
2.6304733
1.2514352
0.73508061
0.51728319
0.39819199
0.31350981
0.25088151
0.20997102
0.17036211
4529196.7
731789.3
224667.63
95307.846
48497.931
27624.382
16966.037
10989.974
7404.2677
5140.388
3653.6464
2646.3824
1946.6393
1450.4806
1092.687
831.02824
637.42166
492.76149
383.79002
301.14711
238.12201
189.83579
152.69478
124.01856
101.78313
84.441691
70.79957
59.935069
51.119217
43.752557
37.338502
31.574868
26.298123
21.476607
17.186301
13.559391
10.704625
8.6336354
7.2957835
6.5513204
6.1465875
5.9383361
5.8365573
5.7932579
5.7817428
5.7621645
5.7369639
5.7250968
5.754378
5.8549363
6.1806285
7.0537185
8.2290822
7.9055865
6.7386384
3.4942507
1.6077832
0.87797065
0.57944868
0.43234211
0.34221104
0.280778
0.22818405
0.19072979
0.15612884
4529258.1
731798.96
224670.48
95308.914
48498.322
27624.434
16965.88
10989.663
7403.8284
5139.8305
3652.9738
2645.5938
1945.7313
1449.4492
1091.5279
829.73799
635.99866
491.20705
382.10985
299.35303
236.23398
187.88417
150.7225
122.08291
99.95638
82.809995
69.459122
58.977038
50.631745
43.848068
38.19884
33.3035
28.828147
24.617472
20.64571
16.988465
13.776775
11.132184
9.1077582
7.6752407
6.8531345
6.3874522
6.1422534
6.0323573
5.9934028
5.9839899
6.0093324
6.0799982
6.2529872
6.6913385
7.8326576
9.1406944
8.823473
7.7005691
4.4546198
1.9569817
0.99375887
0.63459526
0.4742352
0.38292763
0.31086106
0.24998669
0.20464028
0.17441676
0.14600274
4529319.5
731808.8
224673.4
95310.036
48498.754
27624.522
16965.759
10989.39
7403.4285
5139.3148
3652.3449
2644.8498
1944.8676
1448.4593
1090.4046
828.47361
634.58594
489.63996
380.38464
297.46969
234.19806
185.70906
148.43231
119.71562
97.567464
80.476508
67.285575
57.068009
49.082703
42.737563
37.567886
33.232819
29.508206
26.154868
22.972756
19.876476
16.920305
14.220124
11.893479
10.029463
8.6096792
7.6477707
7.0972866
6.8214044
6.7212129
6.7641973
6.8872199
7.1439725
7.6928123
9.0344435
10.243727
9.8881437
8.6747477
5.2989626
2.2984197
1.1454166
0.70535208
0.52569576
0.42228664
0.33887882
0.27655395
0.22929109
0.19078372
0.16265591
0.13680238
4529381.2
731818.84
224676.43
95311.22
48499.238
27624.663
16965.694
10989.179
7403.0988
5138.8774
3651.8028
2644.2012
1944.1075
1447.5805
1089.3984
827.3303
633.29516
488.19121
378.76791
295.67629
232.22185
183.54815
146.09123
117.20812
94.919563
77.729293
64.489545
54.311893
46.494665
40.474111
35.770735
31.969978
28.761943
25.928792
23.415683
21.098121
18.880035
16.698762
14.638504
12.810841
11.28481
10.129945
9.3052092
8.7936384
8.5515203
8.5914377
8.7768978
9.2860885
10.642839
11.496977
11.066057
9.6457821
5.9443395
2.6304642
1.3022108
0.77876183
0.56545681
0.44267361
0.35550986
0.29223872
0.24244534
0.20219107
0.17091773
0.1486051
0.1280612
4529447.3
731829.47
224679.62
95312.483
48499.781
27624.858
16965.686
10989.03
7402.8387
5138.5186
3651.3496
2643.6527
1943.4596
1446.8265
1088.5297
826.33637
632.16395
486.90936
377.3213
294.05063
230.4034
181.52472
143.85335
114.75032
92.241586
74.836443
61.399171
51.062453
43.15752
37.155156
32.631515
29.217304
26.592649
24.451635
22.519593
20.716577
19.023495
17.485946
16.051615
14.709383
13.490606
12.456654
11.645007
11.053823
10.702924
10.753711
11.175766
12.479944
12.835599
12.298726
10.573701
6.377355
2.8947657
1.4480845
0.85495588
0.60575533
0.47096705
0.38475396
0.32229191
0.2687701
0.22491351
0.18925872
0.16159979
0.14158936
0.12334416
4529517.1
731840.58
224682.95
95313.807
48500.354
27625.071
16965.688
10988.889
7402.5839
5138.1641
3650.8999
2643.1072
1942.8141
1446.0747
1087.6636
825.34679
631.04043
485.64069
375.89553
292.45533
228.62589
179.55222
141.6734
112.35168
89.616234
71.982636
58.325388
47.791926
39.722726
33.600699
29.014634
25.628542
23.161287
21.37974
20.056999
18.981115
17.951035
16.909372
15.893333
14.996748
14.204592
13.452201
12.801433
12.27672
12.362094
12.907873
14.326912
14.198169
13.512852
11.402593
6.5719115
3.0799055
1.5725935
0.93041218
0.64900193
0.50194957
0.40956537
0.33941017
0.28152646
0.2350021
0.19815268
0.16992269
0.14760447
0.13145522
0.11654238
4529588.1
731851.96
224686.4
95315.191
48500.958
27625.302
16965.702
10988.756
7402.3367
5137.8173
3650.459
2642.572
1942.181
1445.3376
1086.8144
824.37591
629.93742
484.39408
374.49296
290.88367
226.87174
177.60286
139.51817
109.98367
87.033142
69.188192
55.328993
44.606186
36.367316
30.105619
25.421462
21.991649
19.546436
17.854566
16.711502
15.937507
15.399003
14.932257
14.5051
14.085965
13.660606
13.209075
13.186778
13.62035
14.970767
16.079247
15.750243
14.666089
11.999874
6.558415
3.1913137
1.6739798
1.0028487
0.69285803
0.53458261
0.43208476
0.35769611
0.29679297
0.25023087
0.21372022
0.18563746
0.16104553
0.14132923
0.12669398
0.11354072
4529661.3
731863.79
224689.97
95316.612
48501.563
27625.51
16965.675
10988.568
7402.0221
5137.3931
3649.9321
2641.944
1941.4504
1444.5007
1085.866
823.31008
628.7471
483.07161
373.03028
289.27264
225.1046
175.67274
137.41953
107.71266
84.58917
66.574654
52.555974
41.688072
33.324056
26.96474
22.216813
18.761385
16.331358
14.697807
13.663214
13.048169
12.704513
12.521384
12.578646
12.748444
13.183523
14.007871
15.292632
17.308688
17.618893
17.140665
15.632305
12.165382
6.4966348
3.2731508
1.7652632
1.0731146
0.74184595
0.56941226
0.45755925
0.37611555
0.31288626
0.26610738
0.2300321
0.19763535
0.16897594
0.1474938
0.13167484
0.11952412
0.10911266
4529737.4
731876.06
224693.7
95318.091
48502.2
27625.741
16965.667
10988.398
7401.728
5136.9928
3649.4341
2641.3516
1940.7639
1443.7189
1084.9872
822.33195
627.66765
481.88918
371.74375
287.8814
223.60828
174.07094
135.71175
105.89898
82.671098
64.556507
50.445094
39.500331
31.079588
24.687499
19.932489
16.496664
14.115856
12.565513
11.722397
11.338143
11.332941
11.712471
12.564054
13.873282
15.565261
17.593379
19.226097
19.068071
18.341624
16.322463
12.021605
6.4831586
3.3641955
1.8563832
1.1464678
0.79671282
0.60903131
0.48394186
0.39542605
0.32874244
0.28083464
0.24076151
0.20603348
0.17778078
0.15807774
0.14113928
0.12706762
0.11643141
0.10659037
4529816
731888.75
224697.6
95319.721
48503
27626.163
16965.887
10988.499
7401.7493
5136.9564
3649.352
2641.2305
1940.6072
1443.5282
1084.7625
822.07232
627.37138
481.55398
371.36693
287.46015
223.14
173.5536
135.14436
105.2817
82.005069
63.844063
49.690383
38.704936
30.258266
23.864635
19.131671
15.75647
13.489639
12.151508
11.578799
11.585601
12.183574
13.401786
15.210381
17.40998
19.556326
20.8761
20.540587
19.43933
16.730594
11.912024
6.6248399
3.4976513
1.9594748
1.2252491
0.85970974
0.65134273
0.51266456
0.4158847
0.34664489
0.29528897
0.2533607
0.21754707
0.19024677
0.16801103
0.14828073
0.13184225
0.12011775
0.11150858
0.10430971
4529897.8
731902.03
224701.69
95321.505
48503.961
27626.771
16966.33
10988.86
7402.0739
5137.2699
3649.6701
2641.5635
1940.9623
1443.9104
1085.1751
822.51787
627.85123
482.0686
371.91586
288.04191
223.75202
174.1921
135.80415
105.95617
82.686457
64.524427
50.363057
39.367719
30.906691
24.498177
19.787105
16.485928
14.37957
13.305812
13.089837
13.64833
14.940039
16.879445
19.233479
21.417668
22.484611
21.993155
20.548949
17.179001
12.026822
6.8936049
3.6943805
2.0805889
1.3136463
0.92979977
0.69998296
0.54550293
0.44176744
0.36688566
0.3119401
0.26563913
0.22919872
0.20081001
0.17751027
0.15571852
0.1397115
0.12744057
0.11718552
0.10876557
0.10207657
4529983.7
731915.87
224705.97
95323.406
48505.025
27627.49
16966.899
10989.369
7402.57
5137.7817
3650.2163
2642.157
1941.6133
1444.6268
1085.9637
823.38407
628.79976
483.10321
373.03936
289.25611
225.05761
175.58851
137.28953
107.52729
84.3389
66.253377
52.164999
41.242208
32.858077
26.543985
21.949078
18.80931
16.929463
16.161455
16.352232
17.311618
19.065099
21.349083
23.459384
24.262831
23.566463
21.744267
17.717935
12.311617
7.2059744
3.8839973
2.2136434
1.413876
1.0096393
0.75688479
0.586554
0.4716349
0.39043671
0.3285422
0.27938261
0.24133842
0.21272619
0.18587421
0.16362623
0.14682984
0.13292151
0.12114121
0.112632
0.10639891
0.10080921
4530071.7
731930.1
224710.39
95325.358
48506.11
27628.212
16967.462
10989.865
7403.0487
5138.2729
3650.7396
2642.7269
1942.2411
1445.3221
1086.735
824.2394
629.74657
484.14872
374.19057
290.51979
226.44033
177.0967
138.92951
109.30555
86.262475
68.33048
54.405046
43.656864
35.465743
29.370299
25.030241
22.196048
20.68157
20.333283
20.834376
22.070398
23.830405
25.910612
26.296168
25.351392
23.01305
18.435542
12.771674
7.5836035
4.1107446
2.3717227
1.5315146
1.1029138
0.82507479
0.63588789
0.50770836
0.41659744
0.34925974
0.29567726
0.25659828
0.22369388
0.19496541
0.17253563
0.15571396
0.13932053
0.12712554
0.11719705
0.10945171
0.10367096
0.099067486
4530163.2
731944.94
224714.96
95327.335
48507.167
27628.874
16967.938
10990.25
7403.395
5138.61
3651.0874
2643.0998
1942.6506
1445.7784
1087.2478
824.8183
630.4015
484.8903
375.0303
291.47028
227.51555
178.31222
140.30309
110.85717
88.015145
70.310525
56.642766
46.186556
38.326227
32.60634
28.692105
26.333892
25.328564
25.426278
26.074805
27.507491
29.050502
28.616722
27.317462
24.322765
19.260233
13.321388
7.9713073
4.3627377
2.5572908
1.6745368
1.2121332
0.90381186
0.6939283
0.55046432
0.44865309
0.37369936
0.31646237
0.27191249
0.23566084
0.20488212
0.18345828
0.16335335
0.1460627
0.1328848
0.12250099
0.11396884
0.1074986
0.10243152
0.098263384
4530257.7
731960.21
224719.66
95329.352
48508.22
27629.506
16968.363
10990.568
7403.6584
5138.8495
3651.3232
2643.3466
1942.9202
1446.0815
1087.5948
825.22017
630.87024
485.43937
375.67509
292.22859
228.40802
179.36293
141.5398
112.31223
89.725747
72.31914
58.997634
48.941789
41.539662
36.334064
32.977132
31.18581
30.696507
31.012069
32.04462
32.240571
31.371233
29.363541
25.660131
20.139192
13.920191
8.3895792
4.6785257
2.7841119
1.8466771
1.3348139
0.99129971
0.7618813
0.60311813
0.48815394
0.40387563
0.33999208
0.29053458
0.24928521
0.21849754
0.19377942
0.17150567
0.15302041
0.13976138
0.12770294
0.1178779
0.11028174
0.10458717
0.1005039
0.096867426
4530355.2
731975.99
224724.53
95331.447
48509.323
27630.173
16968.818
10990.916
7403.9526
5139.123
3651.5972
2643.637
1943.24
1446.4426
1088.0093
825.70071
631.43104
486.09665
376.44774
293.1388
229.48206
180.63182
143.04014
114.08683
91.823928
74.796337
61.904006
52.335915
45.47068
40.825666
38.001793
36.621125
36.309461
36.249372
35.497859
33.890735
31.369813
26.985657
21.014979
14.518313
8.8511938
5.0592107
3.0661972
2.0440758
1.4665961
1.0902007
0.84338883
0.66763903
0.5359895
0.43939712
0.36776686
0.31227371
0.26763784
0.23278289
0.20517289
0.17987994
0.16228612
0.14678572
0.13366469
0.12235031
0.11487875
0.10849936
0.10325799
0.099622266
0.096288615
4530457.6
731992.51
224729.63
95333.668
48510.519
27630.929
16969.367
10991.366
7404.3641
5139.5305
3652.0245
2644.1019
1943.7579
1447.0279
1088.6765
826.46548
632.31076
487.11128
377.62056
294.49732
231.05894
182.46603
145.17798
116.57924
94.721017
78.133056
65.712918
56.647084
50.281425
46.071249
43.543949
42.089145
40.797052
38.928264
36.543482
33.250527
28.217629
21.841399
15.147008
9.4096719
5.5352868
3.4010148
2.2566866
1.6085797
1.2060654
0.94121465
0.74238028
0.59189957
0.48198104
0.40133878
0.33926145
0.28950002
0.25023141
0.21736969
0.19192449
0.17177132
0.15472164
0.13928974
0.12852894
0.1195016
0.11192937
0.1056053
0.10125452
0.098085757
0.095375088
4530563.2
732009.63
224734.96
95336.015
48511.813
27631.782
16970.022
10991.938
7404.9138
5140.0969
3652.634
2644.7755
1944.5137
1447.8834
1089.6495
827.57548
633.57934
488.56317
379.2844
296.40607
233.25001
184.98029
148.05687
119.86482
98.452961
82.346671
70.409942
61.759567
55.684458
51.49584
48.428602
45.627086
42.659828
39.475482
35.278717
29.575691
22.811169
15.945907
10.12418
6.1014324
3.7676024
2.4808375
1.7703017
1.3448187
1.0537716
0.82718104
0.65758797
0.53518138
0.44258729
0.37130832
0.3151974
0.2704313
0.23371132
0.20498449
0.18286535
0.16218478
0.14705027
0.13458345
0.12433468
0.11521375
0.10899432
0.10426258
0.1004176
0.097464341
0.094691139
4530672.5
732027.36
224740.49
95338.481
48513.205
27632.733
16970.782
10992.628
7405.6
5140.8199
3653.4232
2645.6544
1945.5035
1449.0046
1090.9233
829.02423
635.2276
490.43756
381.41353
298.82041
235.98075
188.05742
151.50609
123.70058
102.67092
86.917501
75.253002
66.677686
60.317972
55.30069
50.956675
46.913211
42.722963
37.502808
31.089778
23.926556
16.873707
10.923076
6.7098723
4.1623201
2.7409028
1.9712848
1.5091762
1.1792586
0.92387973
0.73723918
0.59913479
0.49185113
0.40856485
0.3454651
0.29529038
0.25404337
0.22131355
0.19439406
0.17294792
0.15549001
0.14222464
0.1294732
0.12062239
0.1132442
0.10746007
0.10251303
0.09899383
0.096623998
0.09424177
4530784.7
732045.67
224746.23
95341.074
48514.701
27633.782
16971.648
10993.436
7406.4187
5141.6933
3654.3828
2646.7256
1946.7091
1450.3668
1092.4646
830.7679
637.19809
492.66019
383.91368
301.62152
239.1011
191.5048
155.26993
127.74062
106.90212
91.19073
79.359584
70.328952
63.165408
57.172186
51.76941
46.265553
39.967254
32.833438
25.265376
18.002387
11.881602
7.4459777
4.6645507
3.0822498
2.2166078
1.6883548
1.3135723
1.0353369
0.83180782
0.67375789
0.54898164
0.45456448
0.38217821
0.32532361
0.27840485
0.24045726
0.20932996
0.18486668
0.16624076
0.14913097
0.13616415
0.12555601
0.11737327
0.10999824
0.10503569
0.10100328
0.097943687
0.09576515
0.093629516
4530901
732061.24
224749.33
95341.568
48514.653
27633.681
16971.643
10993.578
7406.7293
5142.1847
3655.0645
2647.6074
1947.8023
1451.6841
1094.0204
832.57804
639.2788
495.02674
386.57798
304.58848
242.36334
195.03542
159.01324
131.60144
110.7352
94.792965
82.467648
72.684974
64.580226
57.42249
50.354289
42.887136
34.977587
26.948973
19.409221
13.046126
8.3281637
5.2646381
3.4721086
2.4756311
1.8754921
1.4677149
1.1717781
0.94517139
0.76163588
0.61860296
0.51098922
0.42711242
0.3597294
0.30694608
0.26380797
0.22831548
0.20003131
0.17734391
0.15894821
0.14356645
0.13275454
0.12205005
0.11497055
0.10858298
0.10400371
0.10021077
0.097315509
0.095317246
0.093382274
4531685.4
732195.33
224794.48
95362.975
48526.818
27641.493
16977.139
10997.743
7410.0955
5145.0637
3657.6539
2650.0402
1950.173
1454.0635
1096.4629
835.12649
641.96576
497.87448
389.5964
307.7713
245.68253
198.43431
162.39914
134.83975
113.64831
97.167838
84.082316
73.327312
63.909202
55.008885
46.199727
37.384052
28.78767
20.891058
14.244711
9.2378558
5.8990256
3.8937103
2.7646297
2.0965562
1.6539419
1.3274655
1.0671862
0.85757931
0.6981046
0.57575524
0.47772734
0.40046686
0.33991026
0.29182186
0.25095548
0.21786685
0.19089396
0.16961555
0.15355234
0.13898522
0.12791929
0.11899096
0.11204051
0.10614028
0.1021431
0.09878752
0.09638126
0.09454393
0.093061942
4531684.6
732191.67
224791.54
95360.842
48525.396
27640.589
16976.625
10997.543
7410.165
5145.3769
3658.1966
2650.806
1951.1605
1455.2738
1097.8982
836.78683
643.8467
499.96307
391.86647
310.17768
248.15469
200.87038
164.66203
136.75794
115.02928
97.80101
83.679015
71.515602
60.508812
50.160676
40.284529
30.995561
22.642218
15.651407
10.324273
6.6808066
4.4235381
3.1231822
2.355986
1.8558476
1.4886018
1.199358
0.97191829
0.79563793
0.65368189
0.53912754
0.45024467
0.38038289
0.32327372
0.27749305
0.23925152
0.20815892
0.1832476
0.1637947
0.14776804
0.1342504
0.12525899
0.11600409
0.11015468
0.10506943
0.10130684
0.09814099
0.095971918
0.094209839
0.092834407
4531684.8
732191.82
224791.7
95361.061
48525.679
27640.943
16977.057
10998.061
7410.7766
5146.0905
3659.0205
2651.7481
1952.2276
1456.4706
1099.2253
838.23912
645.41012
501.61098
393.55528
311.84231
249.70464
202.18852
165.61063
137.16228
114.6554
96.368414
80.993332
67.566157
55.448452
44.321687
34.163247
25.176183
17.662466
11.850054
7.7529513
5.1202596
3.5658393
2.6565521
2.0859025
1.681161
1.3670212
1.1158199
0.91154405
0.74407315
0.61213029
0.50980426
0.42775542
0.36162243
0.30866346
0.26633029
0.22979948
0.20034389
0.17649634
0.15776067
0.14361802
0.13089733
0.12165449
0.1139389
0.1084569
0.10312264
0.099884728
0.097052672
0.095230778
0.093682555
0.092626191
4531684.9
732191.94
224791.81
95361.197
48525.856
27641.164
16977.329
10998.389
7411.1647
5146.5444
3659.5449
2652.3465
1952.9013
1457.2174
1100.0378
839.10216
646.29803
502.48444
394.35846
312.49932
250.11388
202.21569
165.07273
135.86555
112.43952
93.153501
76.789882
62.506191
49.804568
38.493468
28.618605
20.352401
13.857936
9.1520373
6.0332943
4.1437109
3.0442326
2.3773193
1.9191559
1.5655289
1.2784507
1.0430438
0.85318258
0.70386191
0.58427473
0.48689967
0.40957966
0.34797049
0.29722015
0.25617598
0.22133442
0.19340384
0.17089341
0.15364936
0.13946897
0.1274874
0.11962192
0.11149571
0.10652167
0.1022292
0.099355755
0.096648939
0.09492005
0.093354564
0.092424813
4531686.1
732192.08
224791.86
95361.246
48525.918
27641.245
16977.429
10998.512
7411.3137
5146.721
3659.7499
2652.579
1953.1575
1457.4888
1100.3099
839.35143
646.48912
502.56625
394.25911
312.12305
249.34447
200.92465
163.1418
133.19485
108.97121
88.899545
71.8586
57.116502
44.276054
33.204656
23.937245
16.554575
11.065283
7.3051221
4.9479406
3.5577564
2.7317698
2.1901054
1.7877706
1.4663846
1.2039473
0.99006512
0.81551812
0.6721217
0.55706212
0.46641766
0.3935768
0.33438572
0.28641383
0.24799151
0.21448596
0.18765403
0.16592548
0.14912691
0.13639046