/*--------------------------------*- C++ -*----------------------------------*\
  =========                 |
  \\      /  F ield         | OpenFOAM: The Open Source CFD Toolbox
   \\    /   O peration     | Website:  https://openfoam.org
    \\  /    A nd           | Version:  13
     \\/     M anipulation  |
\*---------------------------------------------------------------------------*/
FoamFile
{
    format      ascii;
    class       volScalarField;
    location    "12.595939";
    object      p;
}
// * * * * * * * * * * * * * * * * * * * * * * * * * * * * * * * * * * * * * //

dimensions      [0 2 -2 0 0 0 0];

internalField   nonuniform List<scalar> 
17140
(
-0.10718817
-0.10732523
-0.10749115
-0.10766013
-0.10784323
-0.10804337
-0.10826085
-0.10849625
-0.10875022
-0.10902331
-0.1093159
-0.10962834
-0.10996097
-0.1103143
-0.11068933
-0.11108791
-0.11151341
-0.11197155
-0.11247157
-0.11302773
-0.11366111
-0.11440193
-0.11529224
-0.11638885
-0.11776682
-0.11952852
-0.12180507
-0.12463908
-0.12797428
-0.13190934
-0.13668858
-0.14250503
-0.14955093
-0.15805642
-0.16827626
-0.18049064
-0.19500787
-0.21216105
-0.2322989
-0.25576887
-0.28289095
-0.31391889
-0.34898744
-0.38806695
-0.43088359
-0.47667576
-0.52415667
-0.57225032
-0.6193757
-0.66348024
-0.70200733
-0.73243644
-0.75141309
-0.75491225
-0.73980581
-0.70113179
-0.63445383
-0.53512963
-0.40044168
-0.23065067
-0.066263393
0.059261322
0.1309921
0.14837017
0.14182054
-0.10810069
-0.10823551
-0.10839858
-0.10856485
-0.10874504
-0.10894201
-0.10915608
-0.10938781
-0.10963786
-0.10990676
-0.1101949
-0.11050261
-0.1108302
-0.1111782
-0.11154754
-0.11194004
-0.11235901
-0.11281007
-0.11330235
-0.11384993
-0.11447371
-0.11520367
-0.11608157
-0.11716386
-0.11852516
-0.12026698
-0.12251976
-0.12533143
-0.12864839
-0.13256052
-0.1373108
-0.14309654
-0.15010909
-0.15857876
-0.16876059
-0.18093516
-0.19541132
-0.21252295
-0.23261989
-0.25605112
-0.28313825
-0.31413731
-0.34918679
-0.38826232
-0.43109055
-0.47688969
-0.52441755
-0.57260073
-0.61984406
-0.66411062
-0.70288522
-0.73357475
-0.75289215
-0.75683105
-0.7424407
-0.70454913
-0.63892022
-0.54090811
-0.40724694
-0.23737311
-0.0720502
0.054324562
0.12703472
0.14532648
0.13943875
-0.11164778
-0.1117766
-0.11193217
-0.11209127
-0.11226376
-0.11245238
-0.11265743
-0.11287949
-0.11311918
-0.11337701
-0.11365335
-0.11394847
-0.11426265
-0.11459633
-0.11495034
-0.11532635
-0.11572744
-0.11615897
-0.11662971
-0.11715332
-0.11775017
-0.11844962
-0.11929272
-0.12033514
-0.12165055
-0.12333839
-0.12552757
-0.1282806
-0.13155145
-0.13540701
-0.1400871
-0.14580132
-0.15273918
-0.1611321
-0.17123664
-0.18333516
-0.19773855
-0.214783
-0.2348207
-0.2582033
-0.28525572
-0.31623616
-0.35128557
-0.39038786
-0.43325912
-0.47904495
-0.5266219
-0.57492524
-0.62230167
-0.66673263
-0.70575118
-0.73676219
-0.75657973
-0.76149882
-0.74802103
-0.71130549
-0.64753214
-0.55185594
-0.42011664
-0.2499803
-0.083252581
0.044652019
0.11884886
0.13826957
0.13374125
-0.11778278
-0.11790186
-0.11804528
-0.11819272
-0.11835271
-0.11852773
-0.11871813
-0.11892447
-0.11914732
-0.11938715
-0.11964428
-0.11991892
-0.12021128
-0.12052166
-0.12085072
-0.12119989
-0.12157192
-0.12197172
-0.1224075
-0.1228922
-0.12344538
-0.12409542
-0.12488222
-0.1258602
-0.12710154
-0.12870259
-0.13078934
-0.13344717
-0.1366431
-0.14041012
-0.14497994
-0.15058234
-0.15740433
-0.16567912
-0.17566595
-0.18765033
-0.2019461
-0.21889256
-0.23884643
-0.26216317
-0.28917066
-0.32012801
-0.35517866
-0.39431448
-0.43721565
-0.48292754
-0.53056095
-0.57897463
-0.62645911
-0.67103649
-0.7103086
-0.74170967
-0.76214309
-0.7681082
-0.755972
-0.72096102
-0.65962642
-0.56737956
-0.43840394
-0.26823523
-0.099796566
0.029550377
0.10529437
0.12645143
0.12405201
-0.12631953
-0.12642533
-0.12655224
-0.12668373
-0.12682661
-0.12698305
-0.1271534
-0.12733821
-0.12753799
-0.12775316
-0.12798397
-0.12823057
-0.12849305
-0.12877156
-0.12906656
-0.12937914
-0.12971164
-0.1300684
-0.13045687
-0.13088907
-0.13138344
-0.13196702
-0.13267818
-0.1335696
-0.13471145
-0.13619599
-0.13814469
-0.14067176
-0.14376354
-0.1474146
-0.15183837
-0.15729143
-0.16395862
-0.1720751
-0.1819038
-0.19373382
-0.20788308
-0.22469598
-0.2445331
-0.26775391
-0.2946889
-0.32559556
-0.36061874
-0.39975088
-0.44259693
-0.48819372
-0.5358607
-0.58427294
-0.63178277
-0.67642928
-0.71591582
-0.74774593
-0.76894753
-0.77617151
-0.76557508
-0.73258482
-0.67407362
-0.58570634
-0.46007311
-0.29011856
-0.12028289
0.010459482
0.087465446
0.11073546
0.11125898
-0.13693401
-0.13702333
-0.13712982
-0.13724148
-0.13736307
-0.13749635
-0.13764172
-0.13779968
-0.13797069
-0.13815508
-0.13835307
-0.1385647
-0.13878997
-0.13902888
-0.13928163
-0.13954901
-0.13983286
-0.14013689
-0.14046768
-0.14083618
-0.14125946
-0.141763
-0.14238323
-0.14317068
-0.14419304
-0.14553834
-0.14732199
-0.14968054
-0.15263598
-0.15615422
-0.16040772
-0.1656742
-0.17215026
-0.1800701
-0.18970081
-0.20133585
-0.21529725
-0.23193425
-0.25161199
-0.27469322
-0.30150814
-0.33231085
-0.36724623
-0.40629957
-0.44895276
-0.49441122
-0.54200133
-0.59025489
-0.63766248
-0.68227471
-0.72191128
-0.75417063
-0.7762202
-0.78485207
-0.77601596
-0.74534633
-0.68981392
-0.60552791
-0.48305543
-0.31430146
-0.14335603
-0.011981878
0.066124581
0.091990748
0.09618328
-0.14917398
-0.14924423
-0.14932737
-0.14941588
-0.14951258
-0.14961879
-0.14973494
-0.14986146
-0.14999875
-0.1501471
-0.15030662
-0.15047733
-0.1506591
-0.15085181
-0.15105547
-0.15127054
-0.15149843
-0.15174217
-0.15200749
-0.15230416
-0.15264781
-0.1530621
-0.15358134
-0.15425346
-0.15514322
-0.15633511
-0.15793779
-0.16008546
-0.16285954
-0.1662402
-0.1703239
-0.17537023
-0.1816245
-0.18931424
-0.19870989
-0.21010901
-0.22383855
-0.24025187
-0.25971706
-0.28259827
-0.30922473
-0.33984383
-0.37459613
-0.41345393
-0.45577768
-0.50099572
-0.5483324
-0.59629085
-0.64344706
-0.68791029
-0.72762045
-0.76029999
-0.78325066
-0.79336108
-0.78631884
-0.75805964
-0.70558511
-0.62497129
-0.50506139
-0.33799745
-0.1667306
-0.035766312
0.042954036
0.071694589
0.080110111
-0.16247039
-0.16251985
-0.16257858
-0.16264143
-0.16271042
-0.16278657
-0.16287022
-0.16296175
-0.16306148
-0.16316962
-0.16328626
-0.16341135
-0.16354471
-0.16368613
-0.16383546
-0.16399295
-0.1641596
-0.16433788
-0.1645327
-0.16475269
-0.16501198
-0.16533233
-0.1657457
-0.16629715
-0.16704802
-0.16807885
-0.16949168
-0.17141282
-0.17397646
-0.17720342
-0.18111175
-0.18592634
-0.19193643
-0.19936948
-0.20849799
-0.21962355
-0.23307676
-0.2492135
-0.26840415
-0.2910121
-0.31736244
-0.34769452
-0.38213902
-0.4206299
-0.4625101
-0.50735751
-0.55425917
-0.6017849
-0.64854695
-0.6927583
-0.73248167
-0.76555132
-0.78937479
-0.80093199
-0.79561312
-0.76966501
-0.72031293
-0.64247609
-0.52466094
-0.35926469
-0.19050616
-0.059980374
0.019117091
0.050920718
0.063874339
-0.17618406
-0.17621153
-0.17624446
-0.17628011
-0.1763197
-0.17636388
-0.17641294
-0.17646716
-0.17652678
-0.17659197
-0.17666276
-0.17673909
-0.17682076
-0.17690753
-0.17699922
-0.17709592
-0.17719842
-0.17730876
-0.17743119
-0.17757337
-0.17774803
-0.17797511
-0.17828423
-0.17871748
-0.17933251
-0.18020554
-0.18143356
-0.18313487
-0.18544544
-0.18846939
-0.19223176
-0.19684147
-0.2025826
-0.20974128
-0.21857576
-0.22939261
-0.24252463
-0.2583293
-0.27717701
-0.29942833
-0.32540159
-0.35532768
-0.38932416
-0.42724947
-0.46862538
-0.51297749
-0.55923829
-0.60619111
-0.65244058
-0.69632518
-0.73600059
-0.76938565
-0.79398967
-0.80682413
-0.80309883
-0.77919644
-0.73250614
-0.65670561
-0.53958909
-0.37755873
-0.2104912
-0.082209942
-0.0038034018
0.030738913
0.048179905
-0.18963307
-0.18963833
-0.18964513
-0.18965319
-0.1896629
-0.18967453
-0.18968827
-0.18970433
-0.18972286
-0.18974396
-0.18976764
-0.18979384
-0.18982239
-0.18985309
-0.18988582
-0.18992068
-0.18995839
-0.19000081
-0.19005176
-0.19011817
-0.19021168
-0.1903506
-0.19056236
-0.19088621
-0.1913761
-0.19210362
-0.19316048
-0.1946592
-0.19672976
-0.19950555
-0.20308137
-0.20753224
-0.21303205
-0.21988718
-0.22840934
-0.23889217
-0.25166621
-0.26708608
-0.28552141
-0.30732903
-0.33282014
-0.36221796
-0.39563065
-0.4328453
-0.47360403
-0.51728567
-0.56276397
-0.60902459
-0.65466513
-0.69814311
-0.73768072
-0.77126875
-0.7965373
-0.8103944
-0.80791318
-0.78565917
-0.7408973
-0.66600434
-0.54854833
-0.38775363
-0.22497132
-0.10373007
-0.025327874
0.011628869
0.033270807
-0.20215177
-0.20213561
-0.20211716
-0.2020985
-0.20207919
-0.2020591
-0.20203836
-0.20201705
-0.20199522
-0.20197292
-0.20195013
-0.20192679
-0.2019028
-0.20187809
-0.20185264
-0.20182672
-0.20180116
-0.20177786
-0.20176051
-0.20175565
-0.20177414
-0.20183305
-0.20195796
-0.20218556
-0.2025664
-0.20316767
-0.20407549
-0.20539644
-0.20725597
-0.20978999
-0.21312732
-0.21738732
-0.22270822
-0.22930799
-0.23749993
-0.24761734
-0.25998834
-0.27496635
-0.29292053
-0.3141985
-0.3391043
-0.36785422
-0.40053681
-0.43696811
-0.47694533
-0.51975488
-0.56436233
-0.60981693
-0.65475322
-0.69774042
-0.73704626
-0.77071963
-0.79640478
-0.81091653
-0.80916911
-0.78811639
-0.74433112
-0.66915915
-0.55016298
-0.39634262
-0.23559621
-0.12234069
-0.044584335
-0.0059749541
0.019305049
-0.2131401
-0.21310438
-0.21306284
-0.21301966
-0.2129736
-0.2129242
-0.21287145
-0.21281531
-0.21275575
-0.21269269
-0.21262609
-0.21255591
-0.21248212
-0.21240476
-0.21232401
-0.2122404
-0.21215501
-0.21206999
-0.21198916
-0.21191903
-0.2118701
-0.21185867
-0.21190892
-0.21205546
-0.21234598
-0.21284376
-0.21362988
-0.21480488
-0.21648881
-0.21881707
-0.22192937
-0.22596146
-0.23106263
-0.23743126
-0.24533095
-0.25508529
-0.26703256
-0.28152588
-0.2989279
-0.31958682
-0.34380226
-0.37178644
-0.40360451
-0.4391692
-0.47820785
-0.51998044
-0.56360776
-0.60814953
-0.65229728
-0.69468934
-0.73361739
-0.7671803
-0.793011
-0.80769311
-0.80619435
-0.78582522
-0.74171456
-0.66512519
-0.54525982
-0.39878585
-0.24249459
-0.13716041
-0.061749756
-0.022040734
0.0062427024
-0.22211978
-0.22206746
-0.22200624
-0.22194205
-0.22187299
-0.22179823
-0.22171766
-0.22163108
-0.22153831
-0.2214392
-0.22133362
-0.22122149
-0.22110283
-0.22097779
-0.22084674
-0.22071044
-0.22057031
-0.22042884
-0.22029019
-0.22016107
-0.220052
-0.21997889
-0.21996509
-0.22004372
-0.22026016
-0.22067453
-0.22136365
-0.2224225
-0.22396477
-0.2261218
-0.22903721
-0.23285871
-0.23773927
-0.24386175
-0.2514663
-0.26085654
-0.27236691
-0.28634358
-0.30313687
-0.32309345
-0.34651288
-0.37361258
-0.40446512
-0.43901151
-0.47692855
-0.51754401
-0.56008365
-0.60361823
-0.64688899
-0.68856226
-0.72694029
-0.76019321
-0.78578712
-0.80006737
-0.79844431
-0.77788752
-0.73236844
-0.65350666
-0.5332886
-0.39158841
-0.24906072
-0.14989214
-0.076802484
-0.036530025
-0.0058917928
-0.22878269
-0.22871767
-0.22864132
-0.22856087
-0.22847386
-0.22837918
-0.22827656
-0.22816565
-0.22804612
-0.22791766
-0.22778003
-0.22763308
-0.22747678
-0.22731131
-0.22713713
-0.2269552
-0.22676716
-0.22657581
-0.2263856
-0.22620353
-0.22604021
-0.22591144
-0.22584002
-0.22585801
-0.22600916
-0.22635118
-0.2269577
-0.22791942
-0.22934448
-0.23135817
-0.23410035
-0.23772897
-0.24239137
-0.24826793
-0.25557731
-0.26459815
-0.27563714
-0.28903806
-0.3051511
-0.32431765
-0.34683235
-0.37291979
-0.40267537
-0.43603155
-0.47268708
-0.51205525
-0.55340374
-0.59583472
-0.63812573
-0.67895633
-0.71663746
-0.74930216
-0.77420251
-0.78757997
-0.78543658
-0.76379131
-0.71592989
-0.63475809
-0.51560755
-0.38270215
-0.25169907
-0.15961575
-0.089731815
-0.049490554
-0.017110643
-0.23302437
-0.23295127
-0.23286521
-0.23277418
-0.23267534
-0.23256733
-0.23244974
-0.23232207
-0.2321838
-0.23203444
-0.2318736
-0.23170097
-0.23151639
-0.23131995
-0.23111207
-0.23089369
-0.23066652
-0.23043341
-0.23019894
-0.22997014
-0.22975757
-0.22957675
-0.22944992
-0.2294082
-0.22949386
-0.22976273
-0.23028598
-0.23115124
-0.23246265
-0.23434051
-0.23691797
-0.24033776
-0.24477182
-0.25041487
-0.25740349
-0.26601484
-0.2765487
-0.28933363
-0.30469677
-0.32297501
-0.34446414
-0.36940005
-0.3978996
-0.42991862
-0.46519272
-0.50319974
-0.5432533
-0.5844785
-0.62569048
-0.66553726
-0.70236342
-0.73410061
-0.75783308
-0.77004104
-0.76683523
-0.74334669
-0.69264647
-0.60943543
-0.49365747
-0.36990154
-0.25292913
-0.1674062
-0.10077499
-0.060992398
-0.027389182
-0.23494999
-0.23487386
-0.23478394
-0.23468851
-0.23458452
-0.23447047
-0.23434579
-0.23420984
-0.23406191
-0.23390134
-0.23372751
-0.23353991
-0.23333817
-0.23312215
-0.23289203
-0.23264854
-0.23239314
-0.23212844
-0.2318587
-0.23159054
-0.23133398
-0.23110374
-0.23092097
-0.2308153
-0.2308272
-0.23101034
-0.23143366
-0.23218248
-0.23335848
-0.23507841
-0.23747214
-0.24068137
-0.24486696
-0.25015584
-0.25679342
-0.26507389
-0.27501917
-0.28707558
-0.3015866
-0.31886899
-0.33920838
-0.36285354
-0.38994557
-0.42047626
-0.45422707
-0.49074766
-0.52939405
-0.56931595
-0.60933031
-0.64809663
-0.68383123
-0.71434806
-0.73661258
-0.74745568
-0.74282052
-0.71683099
-0.6630561
-0.57878418
-0.46925306
-0.35664997
-0.25177649
-0.17323281
-0.10998472
-0.071076592
-0.036712336
-0.23485883
-0.23478436
-0.23469557
-0.23460185
-0.23449942
-0.23438661
-0.23426281
-0.23412723
-0.23397903
-0.23381733
-0.23364133
-0.23345027
-0.23324348
-0.2330205
-0.23278114
-0.23252569
-0.23225508
-0.2319713
-0.2316778
-0.23138024
-0.23108734
-0.2308122
-0.23057387
-0.23039943
-0.23032628
-0.2304048
-0.23070059
-0.23129619
-0.2322913
-0.23380138
-0.23595462
-0.23888986
-0.24274967
-0.24769407
-0.25394393
-0.26146971
-0.2708781
-0.28228796
-0.29585344
-0.31200074
-0.33102594
-0.35321362
-0.37872712
-0.40760284
-0.43968041
-0.47458238
-0.51170871
-0.5502237
-0.58895478
-0.62651462
-0.6609417
-0.6900261
-0.71081943
-0.72028961
-0.7138866
-0.68477192
-0.62789247
-0.54803239
-0.44322259
-0.34294078
-0.24939944
-0.17734443
-0.11754058
-0.079816997
-0.045070718
-0.23318683
-0.23311814
-0.23303553
-0.23294891
-0.23285394
-0.23274893
-0.23263321
-0.23250594
-0.23236614
-0.23221282
-0.23204498
-0.23186162
-0.23166179
-0.23144467
-0.23120962
-0.23095633
-0.23068504
-0.2303968
-0.23009389
-0.22978042
-0.22946315
-0.2291526
-0.22886457
-0.22862204
-0.22845756
-0.2284159
-0.22855682
-0.22895742
-0.2297133
-0.23093787
-0.23275917
-0.23531595
-0.23875041
-0.24321637
-0.24884662
-0.25583009
-0.2645119
-0.27482503
-0.2873361
-0.30230494
-0.31990055
-0.34048495
-0.36426124
-0.39131777
-0.42156716
-0.45472354
-0.4902282
-0.52725257
-0.56464769
-0.60087302
-0.63390747
-0.66166157
-0.68120169
-0.68944931
-0.68084501
-0.64728578
-0.59024173
-0.51236129
-0.42172873
-0.32912024
-0.24600075
-0.17990519
-0.12354232
-0.087258859
-0.052466065
-0.23044415
-0.23038443
-0.23031202
-0.23023656
-0.23015356
-0.23006142
-0.22995945
-0.2298468
-0.22972245
-0.22958533
-0.22943431
-0.22926823
-0.22908592
-0.22888622
-0.22866806
-0.22843056
-0.22817319
-0.22789597
-0.22759983
-0.22728704
-0.22696194
-0.22663185
-0.22630838
-0.22600911
-0.22575982
-0.22559714
-0.22557158
-0.2257505
-0.22622055
-0.2270886
-0.22848004
-0.23053499
-0.2334
-0.23723156
-0.24216443
-0.248422
-0.25603348
-0.26544362
-0.27683547
-0.2902193
-0.30608207
-0.32486488
-0.34671125
-0.37178304
-0.40007244
-0.43138497
-0.46520258
-0.50072805
-0.53673928
-0.57165345
-0.60350024
-0.63036485
-0.64902657
-0.65572811
-0.64331012
-0.60710929
-0.55136762
-0.47638917
-0.39737342
-0.31635654
-0.24162598
-0.18109676
-0.12814095
-0.093476925
-0.058915138
-0.22712891
-0.22707998
-0.22702017
-0.22695822
-0.22688986
-0.22681365
-0.22672895
-0.22663494
-0.22653064
-0.22641497
-0.22628679
-0.22614487
-0.2259879
-0.22581452
-0.22562337
-0.22541311
-0.22518257
-0.22493087
-0.22465767
-0.22436352
-0.22405033
-0.22372211
-0.22338599
-0.22305357
-0.22274276
-0.22248014
-0.22230384
-0.22226684
-0.22244027
-0.22291604
-0.2238078
-0.22524962
-0.22738961
-0.23038952
-0.23439961
-0.23962191
-0.24615652
-0.25422472
-0.2639768
-0.27567364
-0.28980137
-0.30660496
-0.32636655
-0.34931418
-0.37556886
-0.40500275
-0.43716793
-0.47122079
-0.50598939
-0.53991412
-0.57117795
-0.59774201
-0.61538687
-0.61965944
-0.60214214
-0.56477773
-0.50915596
-0.44725595
-0.37386261
-0.30332084
-0.23631757
-0.18104849
-0.13143856
-0.098529222
-0.064444768
-0.22367362
-0.22363584
-0.22358977
-0.22354191
-0.2234889
-0.22342955
-0.22336332
-0.22328944
-0.22320703
-0.22311511
-0.22301259
-0.22289828
-0.22277088
-0.22262897
-0.22247104
-0.22229554
-0.22210089
-0.22188558
-0.22164836
-0.2213884
-0.22110563
-0.22080125
-0.22047835
-0.22014293
-0.21980517
-0.21948124
-0.21919555
-0.21898366
-0.21889555
-0.21899919
-0.21938359
-0.22016066
-0.22146292
-0.22344279
-0.22625871
-0.23009102
-0.2350899
-0.24147923
-0.24949478
-0.25940105
-0.27149222
-0.28614137
-0.30369862
-0.32447646
-0.34869396
-0.37632341
-0.40695414
-0.43979797
-0.47376933
-0.50740373
-0.53874341
-0.56488852
-0.58004542
-0.57861596
-0.55817983
-0.52216275
-0.47134434
-0.41746464
-0.35332499
-0.29079336
-0.23037872
-0.17994769
-0.13355983
-0.10248533
-0.069080053
-0.2203712
-0.22034412
-0.22031191
-0.22027707
-0.22023828
-0.22019477
-0.220146
-0.22009134
-0.22003005
-0.21996129
-0.21988413
-0.21979752
-0.21970029
-0.21959113
-0.21946862
-0.21933121
-0.21917727
-0.21900507
-0.2188129
-0.21859917
-0.21836254
-0.21810225
-0.21781841
-0.21751265
-0.21718883
-0.21685412
-0.21652038
-0.21620607
-0.21593865
-0.21575764
-0.21571833
-0.21589572
-0.21638301
-0.2173072
-0.21881943
-0.22109615
-0.22432878
-0.22874884
-0.23461538
-0.24222611
-0.25193872
-0.26419927
-0.27943543
-0.29805312
-0.32031499
-0.34631962
-0.37571677
-0.40780273
-0.44191937
-0.47607898
-0.50745855
-0.53148246
-0.54205047
-0.53503902
-0.51725269
-0.47979833
-0.43904575
-0.38970705
-0.33334547
-0.27803613
-0.22373135
-0.17785818
-0.13460028
-0.10542323
-0.072859177
-0.21742295
-0.21740476
-0.21738295
-0.21735928
-0.21733285
-0.2173031
-0.21726961
-0.21723192
-0.21718945
-0.21714156
-0.21708751
-0.21702652
-0.21695767
-0.21687982
-0.21679161
-0.21669156
-0.21657808
-0.21644956
-0.2163044
-0.21614095
-0.21595752
-0.21575243
-0.21552407
-0.21527096
-0.21499236
-0.21468872
-0.21436202
-0.21401648
-0.2136596
-0.21330336
-0.21296904
-0.21269442
-0.21252397
-0.21250809
-0.21277009
-0.21345227
-0.2147535
-0.21693411
-0.22031839
-0.22530202
-0.23234121
-0.24197113
-0.25472782
-0.27117346
-0.29168103
-0.31647965
-0.34531654
-0.37814474
-0.41318986
-0.44739492
-0.47652636
-0.49652654
-0.5021405
-0.49458515
-0.47458091
-0.44509255
-0.40725852
-0.36403315
-0.31465713
-0.26557414
-0.21665393
-0.17495823
-0.1346825
-0.1074165
-0.075822578
-0.21479732
-0.21478647
-0.21477342
-0.21475922
-0.2147433
-0.2147253
-0.21470495
-0.21468195
-0.21465598
-0.2146264
-0.21459147
-0.21454977
-0.21450119
-0.21444596
-0.21438413
-0.21431541
-0.21423992
-0.21415781
-0.21406757
-0.21396623
-0.21385063
-0.21371678
-0.2135592
-0.21337466
-0.21316351
-0.21292372
-0.21265062
-0.21233871
-0.21198075
-0.21156711
-0.21111218
-0.21057421
-0.20990582
-0.20918574
-0.20846558
-0.2077872
-0.2073197
-0.20732128
-0.20816937
-0.21037326
-0.214542
-0.22138949
-0.23166133
-0.24612401
-0.26519518
-0.28954388
-0.31922171
-0.35335223
-0.38759039
-0.41943731
-0.4440493
-0.45987092
-0.46208286
-0.45560244
-0.43560057
-0.41088181
-0.37848126
-0.3403247
-0.2967173
-0.25315257
-0.20912094
-0.17131138
-0.1338887
-0.108533
-0.078013207
-0.21248722
-0.21248364
-0.21247929
-0.21247446
-0.21246895
-0.21246256
-0.21245529
-0.2124473
-0.21243698
-0.21241771
-0.21238985
-0.2123755
-0.21238607
-0.21239895
-0.21239366
-0.21236588
-0.21231411
-0.21224448
-0.21217101
-0.21210061
-0.21203031
-0.21195563
-0.21187017
-0.21176512
-0.21163158
-0.21146464
-0.21125867
-0.21100269
-0.21068165
-0.21027282
-0.2097486
-0.2090664
-0.20817091
-0.20705751
-0.20567533
-0.20402391
-0.20222098
-0.20048134
-0.19920509
-0.19898996
-0.20061513
-0.20498716
-0.21284191
-0.22559493
-0.24439143
-0.26948382
-0.29950961
-0.33188519
-0.36346617
-0.39030218
-0.41112528
-0.42246833
-0.42646571
-0.41615709
-0.40246437
-0.38080327
-0.35187843
-0.31814176
-0.27965541
-0.24096297
-0.2012954
-0.16704791
-0.13232459
-0.10884872
-0.079480735
-0.21033836
-0.21034216
-0.21034659
-0.2103512
-0.21035612
-0.21036137
-0.21036693
-0.21037276
-0.21037868
-0.21038452
-0.2103918
-0.2104049
-0.21042345
-0.21043702
-0.21043722
-0.21042224
-0.21039941
-0.21038418
-0.21038022
-0.21037254
-0.21034333
-0.21029058
-0.21023557
-0.21019711
-0.21014697
-0.21004869
-0.20990568
-0.2097168
-0.20945903
-0.20909941
-0.20859574
-0.20788986
-0.20691928
-0.20562384
-0.20394363
-0.20180953
-0.19926208
-0.19645249
-0.19375247
-0.19183408
-0.19152084
-0.19390834
-0.2005929
-0.21332868
-0.23181353
-0.25555116
-0.28311652
-0.31277698
-0.33849936
-0.36201037
-0.38002345
-0.38860466
-0.39069604
-0.38464772
-0.37176528
-0.35246712
-0.32715436
-0.29739243
-0.26332023
-0.22893448
-0.19319701
-0.16223322
-0.13006522
-0.10842764
-0.08026819
-0.20849529
-0.20850817
-0.20852335
-0.20853939
-0.20855678
-0.20857573
-0.20859629
-0.20861849
-0.20864235
-0.20866793
-0.20869523
-0.20872337
-0.208751
-0.20877794
-0.20880508
-0.20883178
-0.20885598
-0.20887823
-0.20890411
-0.20893575
-0.20896443
-0.20898633
-0.20900606
-0.20902408
-0.2090223
-0.20896083
-0.20882532
-0.20863896
-0.20839571
-0.20804172
-0.20752677
-0.20681523
-0.2058568
-0.20450694
-0.20266471
-0.20030273
-0.19743977
-0.19419479
-0.19097453
-0.18833937
-0.18756165
-0.18959734
-0.19559702
-0.20681302
-0.22315335
-0.24439933
-0.26940003
-0.29337333
-0.31516691
-0.33780309
-0.35065948
-0.35805231
-0.36008464
-0.35443479
-0.34345466
-0.32664351
-0.30423099
-0.27789823
-0.24769536
-0.21712588
-0.1849135
-0.15695819
-0.12719498
-0.10733769
-0.080424482
-0.20697771
-0.20699972
-0.2070256
-0.20705296
-0.20708264
-0.207115
-0.20715012
-0.20718808
-0.20722895
-0.20727274
-0.20731941
-0.20736883
-0.20742082
-0.20747513
-0.20753128
-0.20758854
-0.20764597
-0.2077024
-0.20775631
-0.20780632
-0.20785111
-0.20787834
-0.20786986
-0.20784118
-0.20782467
-0.20780692
-0.20773678
-0.20759323
-0.20739636
-0.20713811
-0.20673913
-0.20608057
-0.205061
-0.20375629
-0.20220648
-0.20016328
-0.19761339
-0.19463594
-0.19154925
-0.18912888
-0.18799161
-0.18912472
-0.1941779
-0.20363934
-0.21799041
-0.23641103
-0.25702166
-0.27634188
-0.29769104
-0.31430998
-0.32391153
-0.33065758
-0.33201336
-0.327425
-0.31761777
-0.3026427
-0.28281654
-0.25953153
-0.23270823
-0.20552051
-0.17647826
-0.15128253
-0.12378061
-0.10563857
-0.079992478
-0.20686228
-0.20688648
-0.20691502
-0.20694513
-0.20697778
-0.20701341
-0.20705209
-0.20709394
-0.20713902
-0.20718738
-0.20723899
-0.20729373
-0.2073514
-0.20741168
-0.2074741
-0.20753807
-0.20760277
-0.20766722
-0.20773016
-0.20779008
-0.20784502
-0.20789248
-0.207929
-0.20795024
-0.207952
-0.20792831
-0.20787395
-0.20777093
-0.20757018
-0.20726642
-0.20686749
-0.2063623
-0.20572858
-0.20481445
-0.20346076
-0.20165797
-0.19954062
-0.19715916
-0.19452335
-0.19211121
-0.19077974
-0.19150741
-0.19535401
-0.20320346
-0.21504657
-0.230134
-0.24701786
-0.26353098
-0.27975882
-0.29161134
-0.30076336
-0.30599539
-0.30678955
-0.30252366
-0.29370196
-0.28043101
-0.26282426
-0.24218462
-0.21832042
-0.19413349
-0.1679405
-0.14527021
-0.11988769
-0.1033889
-0.079016675
-0.20789136
-0.20791143
-0.20793508
-0.2079601
-0.20798728
-0.20801697
-0.20804925
-0.20808422
-0.20812197
-0.20816255
-0.20820594
-0.20825209
-0.20830085
-0.20835197
-0.20840507
-0.20845966
-0.20851506
-0.20857042
-0.20862467
-0.20867654
-0.20872449
-0.20876665
-0.20880089
-0.20882564
-0.20883859
-0.2088212
-0.20877047
-0.20870017
-0.20861877
-0.2085482
-0.20838338
-0.20795169
-0.20733165
-0.20662405
-0.20569411
-0.20436817
-0.20262169
-0.20050456
-0.19813011
-0.19592461
-0.1945145
-0.19477123
-0.19768614
-0.20393329
-0.21335713
-0.2254601
-0.23764699
-0.25030252
-0.26297249
-0.27288536
-0.27979734
-0.28362036
-0.28375025
-0.27972171
-0.27166971
-0.25976737
-0.24406711
-0.22574678
-0.20447818
-0.18295664
-0.15932896
-0.13897002
-0.11557242
-0.10064232
-0.077537263
-0.21013595
-0.2101483
-0.21016285
-0.21017826
-0.210195
-0.21021328
-0.21023317
-0.21025472
-0.21027798
-0.21030297
-0.21032967
-0.21035801
-0.21038788
-0.21041906
-0.21045127
-0.21048411
-0.21051706
-0.21054944
-0.21058046
-0.21060914
-0.21063433
-0.21065446
-0.21066742
-0.21067471
-0.21069016
-0.21069387
-0.21070519
-0.2107174
-0.21059757
-0.21038124
-0.21019245
-0.20994944
-0.2095469
-0.20894873
-0.20809398
-0.20691586
-0.20541205
-0.20358383
-0.2015249
-0.19952257
-0.19813411
-0.19809332
-0.20017931
-0.20496987
-0.21184764
-0.21941613
-0.22891467
-0.23958834
-0.24836878
-0.25553793
-0.26068298
-0.2632275
-0.26267695
-0.25867591
-0.25121187
-0.24048475
-0.22642803
-0.21012883
-0.19114
-0.17198878
-0.15067204
-0.13242704
-0.11088578
-0.097449072
-0.075595091
-0.21290206
-0.21290742
-0.21291371
-0.21292033
-0.21292747
-0.21293519
-0.21294351
-0.2129524
-0.21296183
-0.21297175
-0.21298207
-0.21299263
-0.21300324
-0.21301363
-0.21302342
-0.21303214
-0.21303919
-0.21304385
-0.21304518
-0.21304187
-0.21303262
-0.21302062
-0.21300301
-0.21299369
-0.21298183
-0.21289984
-0.2127596
-0.21264487
-0.21253545
-0.2123618
-0.21212019
-0.21179352
-0.21135091
-0.21076489
-0.20999062
-0.20897713
-0.20768677
-0.206104
-0.20429217
-0.20246286
-0.20109268
-0.20069072
-0.20201038
-0.20496046
-0.20850686
-0.21462689
-0.22229921
-0.22854797
-0.23469332
-0.23980193
-0.24319354
-0.24448352
-0.24324085
-0.23918242
-0.23217462
-0.22241955
-0.20977219
-0.19523988
-0.17825883
-0.16121905
-0.14198875
-0.12567832
-0.10587273
-0.093855665
-0.073226833
-0.2160723
-0.21607379
-0.21607544
-0.21607703
-0.21607857
-0.21607999
-0.21608122
-0.21608214
-0.2160826
-0.21608241
-0.2160813
-0.21607895
-0.21607495
-0.21606875
-0.21605969
-0.21604696
-0.21602954
-0.21600617
-0.21597527
-0.21593521
-0.21588615
-0.21582373
-0.21574101
-0.21563833
-0.21550175
-0.21533746
-0.21515565
-0.21494042
-0.21468475
-0.21437731
-0.21401645
-0.21359432
-0.21309055
-0.2124827
-0.21173954
-0.21081388
-0.20965022
-0.20819794
-0.20648878
-0.20468502
-0.20315816
-0.20220936
-0.20255185
-0.20371158
-0.20640331
-0.21043763
-0.21409025
-0.21821129
-0.22210658
-0.22515926
-0.22696012
-0.22710578
-0.22519836
-0.221011
-0.21434887
-0.20541464
-0.19398509
-0.18099957
-0.16579196
-0.15063703
-0.13329423
-0.11875438
-0.10057237
-0.089903733
-0.070470854
-0.21967628
-0.21967597
-0.21967539
-0.21967446
-0.21967304
-0.21967099
-0.21966813
-0.21966422
-0.21965896
-0.21965198
-0.21964282
-0.21963089
-0.21961548
-0.2195957
-0.21957044
-0.21953837
-0.21949788
-0.219447
-0.21938347
-0.21930485
-0.21920782
-0.21908374
-0.21893366
-0.21875889
-0.2185485
-0.21829863
-0.21800486
-0.2176645
-0.21727824
-0.2168462
-0.21636523
-0.21583224
-0.2152424
-0.2145795
-0.21380683
-0.21285852
-0.21165232
-0.21011599
-0.20829434
-0.20630225
-0.20442119
-0.20304015
-0.20242249
-0.20254398
-0.20322492
-0.20441117
-0.20625808
-0.20823368
-0.21006986
-0.21138577
-0.21175713
-0.2108486
-0.20831106
-0.20396309
-0.19757023
-0.18932936
-0.17895502
-0.16732931
-0.15369519
-0.14022778
-0.12459822
-0.11168085
-0.095019673
-0.085632558
-0.067361858
-0.2242447
-0.22424208
-0.22423867
-0.22423454
-0.22422942
-0.22422304
-0.22421511
-0.22420525
-0.224193
-0.2241778
-0.22415894
-0.22413556
-0.22410663
-0.22407085
-0.22402667
-0.22397223
-0.2239053
-0.22382323
-0.22372294
-0.22360087
-0.22345296
-0.2232747
-0.22306148
-0.22280811
-0.22250943
-0.22216166
-0.22176288
-0.22131176
-0.22080769
-0.22025262
-0.2196504
-0.21900179
-0.21829797
-0.21750972
-0.21657724
-0.21541076
-0.21391631
-0.21204069
-0.20985447
-0.20735997
-0.2050995
-0.20316504
-0.20139099
-0.19979057
-0.19873394
-0.19832153
-0.19824451
-0.19837594
-0.19848525
-0.19824694
-0.19733863
-0.1954841
-0.19236934
-0.18785073
-0.18167293
-0.17402852
-0.16457872
-0.15415594
-0.14192583
-0.12997475
-0.11590642
-0.10447646
-0.089243676
-0.081071944
-0.063930766
-0.23022024
-0.23021299
-0.230204
-0.23019376
-0.23018174
-0.23016752
-0.23015066
-0.23013064
-0.2301068
-0.23007836
-0.23004436
-0.23000367
-0.22995488
-0.22989633
-0.22982604
-0.22974166
-0.22964039
-0.229519
-0.22937377
-0.22920047
-0.22899437
-0.22875034
-0.22846328
-0.22812838
-0.22774124
-0.22729784
-0.22679548
-0.22623393
-0.22561476
-0.22493999
-0.22420899
-0.22341184
-0.22251983
-0.22147563
-0.22019258
-0.21857222
-0.21654159
-0.21410434
-0.21128829
-0.20827609
-0.20548823
-0.20228256
-0.19895468
-0.19605339
-0.19369876
-0.1916815
-0.19000843
-0.18854877
-0.18713111
-0.185538
-0.18350581
-0.18081285
-0.17718221
-0.17250346
-0.16650973
-0.15938914
-0.15075937
-0.14140972
-0.13044185
-0.11985967
-0.1072216
-0.097156017
-0.083270937
-0.076245936
-0.060223392
-0.23801383
-0.23799925
-0.23798145
-0.23796165
-0.23793896
-0.23791272
-0.23788233
-0.23784708
-0.2378061
-0.23775835
-0.23770262
-0.23763741
-0.23756099
-0.23747131
-0.23736593
-0.23724202
-0.23709632
-0.23692505
-0.23672405
-0.23648873
-0.23621413
-0.23589513
-0.2355264
-0.23510286
-0.23462026
-0.2340754
-0.23346612
-0.23279101
-0.23204785
-0.23123017
-0.23032107
-0.22928486
-0.22805945
-0.22655539
-0.22467222
-0.22232758
-0.21949275
-0.21617974
-0.21248925
-0.20884165
-0.20453751
-0.20004346
-0.19566145
-0.19173107
-0.18800782
-0.18459485
-0.18148409
-0.17861138
-0.17586523
-0.17308839
-0.1700747
-0.16665251
-0.16257622
-0.15776325
-0.1519412
-0.14529438
-0.1374051
-0.1290239
-0.11920164
-0.10986254
-0.098543712
-0.089730856
-0.077125197
-0.071192292
-0.056227369
-0.24799788
-0.24797324
-0.24794344
-0.24791069
-0.24787365
-0.24783137
-0.24778306
-0.24772773
-0.24766428
-0.2475914
-0.24750755
-0.24741088
-0.24729933
-0.24717047
-0.24702157
-0.24684941
-0.24665035
-0.24642033
-0.24615481
-0.2458489
-0.24549743
-0.24509518
-0.24463695
-0.24411778
-0.24353298
-0.24287787
-0.24214687
-0.24133141
-0.24041615
-0.23937321
-0.23815511
-0.23668983
-0.23488167
-0.23262633
-0.22984004
-0.22647632
-0.22253753
-0.21812545
-0.21356836
-0.20842293
-0.20264481
-0.19721845
-0.19190908
-0.18668207
-0.181682
-0.17696906
-0.17256314
-0.1684431
-0.16453431
-0.16073333
-0.15687824
-0.15283801
-0.148394
-0.14348669
-0.13784129
-0.13163805
-0.12443136