/*--------------------------------*- C++ -*----------------------------------*\
  =========                 |
  \\      /  F ield         | OpenFOAM: The Open Source CFD Toolbox
   \\    /   O peration     | Website:  https://openfoam.org
    \\  /    A nd           | Version:  13
     \\/     M anipulation  |
\*---------------------------------------------------------------------------*/
FoamFile
{
    format      ascii;
    class       volVectorField;
    location    "12.595939";
    object      wallShearStress;
}
// * * * * * * * * * * * * * * * * * * * * * * * * * * * * * * * * * * * * * //

dimensions      [0 2 -2 0 0 0 0];

internalField   uniform (0 0 0);

boundaryField
{
    inlet
    {
        type            calculated;
        value           uniform (0 0 0);
    }
    outlet
    {
        type            calculated;
        value           uniform (0 0 0);
    }
    cylinder
    {
        type            calculated;
        value           nonuniform List<vector> 
132
(
(6.034184e-05 -8.1821617e-05 -1.0088881e-22)
(0.00027185862 -0.0051971247 2.8866486e-23)
(0.00076321704 -0.010233199 1.6484546e-21)
(0.0015212479 -0.015028904 -5.8227902e-21)
(0.002514538 -0.019419963 4.3963242e-21)
(0.0036933708 -0.023248682 1.4517548e-20)
(0.0049901886 -0.026369899 -2.9867767e-21)
(0.0063221975 -0.028662766 -1.2843418e-20)
(0.0075990954 -0.030038807 1.3081834e-20)
(0.0087247053 -0.030449387 -3.1457982e-20)
(0.0096062763 -0.02989426 -6.0778281e-22)
(0.010162816 -0.02842493 2.1817544e-20)
(0.010334742 -0.02614754 3.6964914e-20)
(0.010093018 -0.023220643 -3.0837546e-20)
(0.0094458552 -0.019846079 3.2987411e-20)
(0.0084416078 -0.016253561 5.3411637e-20)
(0.0071659944 -0.012678149 -3.4916024e-20)
(0.0057302133 -0.0093362284 5.5516915e-20)
(0.004256862 -0.0063987096 7.2440261e-20)
(0.0028614459 -0.0039743435 -4.62621e-20)
(0.0016314212 -0.0020988935 -5.801766e-20)
(0.00062157017 -0.00074901268 2.0043517e-23)
(-0.00016053677 0.00016129881 8.1710453e-21)
(-0.00071625068 0.00070794499 -9.6588436e-21)
(-0.0010535207 0.00096612379 -1.6242932e-20)
(-0.0010703395 0.0009063024 3.435129e-21)
(-0.00077459089 0.0006071703 -3.0693845e-20)
(0.00011556466 -6.8488774e-05 8.1208639e-21)
(0.0014003297 -0.00088484554 6.3503041e-21)
(0.0026843405 -0.00154518 -4.373231e-20)
(0.0036841215 -0.0019090013 5.7293283e-20)
(0.0042340198 -0.0019530848 1.7414827e-21)
(0.0044857534 -0.0018177018 1.2598338e-20)
(0.0045907448 -0.0016068953 -1.4960963e-20)
(0.0046065537 -0.0013625638 4.7643391e-20)
(0.0043891465 -0.0010641647 -3.0222594e-21)
(0.0037449557 -0.00071161632 1.2243057e-20)
(0.0024493198 -0.00034165319 -1.6905796e-21)
(0.0002896051 -4.0948604e-05 2.4432085e-21)
(-0.0029830044 5.4017208e-05 -1.5374432e-21)
(-0.00772204 -0.00026233949 2.9028633e-21)
(-0.013990261 -0.0013070384 -9.0756236e-23)
(-0.021345024 -0.003290589 3.3737713e-20)
(-0.029355429 -0.0063476544 -1.31811e-20)
(-0.037445447 -0.010487198 1.2049255e-20)
(-0.045126874 -0.015622403 -7.8305942e-20)
(-0.051868811 -0.021535721 -1.2746026e-20)
(-0.057328881 -0.027960806 1.1267002e-19)
(-0.061260266 -0.03459211 -9.639398e-20)
(-0.063553372 -0.041124163 -1.8383741e-21)
(-0.06418552 -0.047253999 2.9092434e-20)
(-0.063260191 -0.052736884 -2.6020749e-20)
(-0.060875065 -0.057309666 -4.8952853e-21)
(-0.057240691 -0.060802443 -2.7880414e-21)
(-0.052596987 -0.063094077 -2.0983368e-21)
(-0.047138912 -0.064032537 -5.9785529e-21)
(-0.041144733 -0.063591343 7.5451339e-22)
(-0.034855472 -0.061736717 5.5257396e-20)
(-0.028522295 -0.058495105 -8.1018761e-20)
(-0.022381675 -0.053925064 -8.4606123e-20)
(-0.016654453 -0.04812158 -3.3907497e-20)
(-0.011540407 -0.04121236 -7.7111217e-20)
(-0.0072136011 -0.033353537 1.7114989e-20)
(-0.0038163288 -0.024725926 2.4818742e-20)
(-0.0014647967 -0.015544826 -3.8493819e-20)
(-0.00022177374 -0.005987007 -5.1369835e-21)
(0.0001267575 0.0050075818 -4.7130366e-22)
(0.00046788767 0.010012852 -2.9162893e-23)
(0.0010776198 0.014825763 -1.7699361e-21)
(0.0019334886 0.019287922 6.3728808e-21)
(0.0029955144 0.023244978 -4.8757747e-21)
(0.0042064401 0.026551369 -1.6214024e-20)
(0.0054924125 0.029081165 3.3418006e-21)
(0.006770191 0.030736665 1.4337083e-20)
(0.0079489941 0.03145511 -1.4528334e-20)
(0.0089372602 0.031217587 3.4694851e-20)
(0.0096504506 0.030053112 6.6512999e-22)
(0.010019848 0.0280426 -2.3675291e-20)
(0.010001266 0.025318293 -3.9787657e-20)
(0.0095832572 0.022059795 3.2941414e-20)
(0.0087912332 0.018480441 -3.5001795e-20)
(0.007688674 0.014810971 -5.6354802e-20)
(0.006369972 0.011275286 3.6679711e-20)
(0.0049480115 0.0080662905 -5.8144666e-20)
(0.0035388024 0.005323213 -7.5734394e-20)
(0.0022433754 0.0031199112 4.8332114e-20)
(0.0011336112 0.0014630863 6.0618836e-20)
(0.00024240544 0.00030129661 5.3481463e-20)
(-0.00042660321 -0.00045163015 4.3345776e-20)
(-0.00088494469 -0.00087823649 1.011374e-20)
(-0.0011114714 -0.0010211938 1.701768e-20)
(-0.0010081314 -0.00085626284 -3.6002755e-21)
(-0.00047476665 -0.00037765923 3.220136e-20)
(0.0005573784 0.00037970573 -8.5431094e-21)
(0.0018619726 0.0011815275 -6.6947203e-21)
(0.0030552108 0.0017617281 4.6205082e-20)
(0.0038784149 0.002011581 -6.0569744e-20)
(0.0042969299 0.001983077 -1.8304732e-21)
(0.004480553 0.0018159521 3.0295022e-20)
(0.0045621134 0.0015971643 1.5819835e-20)
(0.0045193544 0.0013374289 -5.0418014e-20)
(0.0041820623 0.0010151814 3.2013864e-21)
(0.003351211 0.00063899128 9.4661409e-21)
(0.0018009118 0.00025610183 1.7935361e-21)
(-0.00067421405 -3.2799108e-05 -2.5924451e-21)
(-0.004309753 -8.673693e-05 1.630308e-21)
(-0.0094520174 0.0003205732 -3.0729829e-21)
(-0.016106101 0.0015012175 2.524309e-20)
(-0.023742945 0.0036569445 -3.5424617e-20)
(-0.031916517 0.0068982584 1.3762327e-20)
(-0.040046523 0.011212486 -1.2499413e-20)
(-0.047614017 0.016480734 8.0650366e-20)
(-0.054142619 0.022476986 1.3032794e-20)
(-0.059320247 0.028928608 -1.142904e-19)
(-0.062915324 0.035523391 9.6965708e-20)
(-0.06486536 0.041969947 1.8315426e-21)
(-0.065143586 0.047956271 -2.8640568e-20)
(-0.063901733 0.053268751 2.5204981e-20)
(-0.061206699 0.057618741 -3.7117897e-20)
(-0.057301914 0.060864541 2.4441038e-21)
(-0.052450449 0.062915213 -8.5606938e-22)
(-0.046809489 0.063581697 7.3959953e-21)
(-0.04068297 0.062874007 -8.3429927e-22)
(-0.034303685 0.060755194 -5.8987724e-20)
(-0.02792269 0.05726044 8.4948274e-20)
(-0.02177402 0.052454841 8.7699362e-20)
(-0.016074555 0.046437871 3.4856603e-20)
(-0.011020261 0.039343265 7.8752565e-20)
(-0.0067799208 0.031329995 -1.7383677e-20)
(-0.0034905832 0.022584197 4.9754029e-20)
(-0.0012622294 0.013314732 3.8736783e-20)
(-0.00015534617 0.0037343796 5.1507039e-21)
)
;
    }
    frontAndBack
    {
        type            empty;
    }
}


// ************************************************************************* //
