/*--------------------------------*- C++ -*----------------------------------*\
  =========                 |
  \\      /  F ield         | OpenFOAM: The Open Source CFD Toolbox
   \\    /   O peration     | Website:  https://openfoam.org
    \\  /    A nd           | Version:  13
     \\/     M anipulation  |
\*---------------------------------------------------------------------------*/
FoamFile
{
    format      ascii;
    class       volScalarField;
    location    "13.09673";
    object      pPrime2Mean;
}
// * * * * * * * * * * * * * * * * * * * * * * * * * * * * * * * * * * * * * //

dimensions      [0 4 -4 0 0 0 0];

internalField   nonuniform List<scalar> 
17140
(
23675.697
23675.698
23675.699
23675.7
23675.699
23675.698
23675.696
23675.693
23675.689
23675.683
23675.674
23675.663
23675.649
23675.63
23675.605
23675.573
23675.532
23675.48
23675.412
23675.326
23675.216
23675.074
23674.893
23674.66
23674.361
23673.977
23673.485
23672.857
23672.058
23671.046
23669.769
23668.162
23666.148
23663.63
23660.494
23656.6
23651.785
23645.857
23638.592
23629.736
23618.997
23606.042
23590.497
23571.94
23549.896
23523.841
23493.199
23457.337
23415.567
23367.143
23311.262
23247.055
23173.588
23089.858
22994.79
22887.228
22765.934
22629.575
22476.713
22305.806
22115.152
21902.862
21666.817
21404.733
21114.224
23676.303
23676.304
23676.305
23676.305
23676.305
23676.304
23676.302
23676.299
23676.294
23676.288
23676.279
23676.268
23676.253
23676.233
23676.208
23676.176
23676.134
23676.081
23676.012
23675.925
23675.812
23675.669
23675.485
23675.25
23674.949
23674.564
23674.071
23673.442
23672.644
23671.633
23670.358
23668.754
23666.743
23664.228
23661.095
23657.205
23652.394
23646.47
23639.211
23630.361
23619.629
23606.683
23591.148
23572.602
23550.571
23524.531
23493.905
23458.061
23416.311
23367.909
23312.054
23247.876
23174.442
23090.751
22995.726
22888.213
22766.975
22630.677
22477.882
22307.05
22116.48
21904.285
21668.348
21406.386
21116.001
23677.802
23677.803
23677.803
23677.804
23677.803
23677.802
23677.799
23677.796
23677.791
23677.784
23677.775
23677.763
23677.747
23677.726
23677.7
23677.665
23677.622
23677.566
23677.495
23677.404
23677.289
23677.142
23676.955
23676.716
23676.412
23676.024
23675.53
23674.9
23674.103
23673.095
23671.824
23670.225
23668.22
23665.712
23662.586
23658.703
23653.9
23647.985
23640.737
23631.901
23621.185
23608.259
23592.748
23574.229
23552.23
23526.226
23495.64
23459.84
23418.138
23369.791
23313.998
23249.892
23176.542
23092.944
22998.026
22890.635
22769.532
22633.386
22480.758
22310.109
22119.746
21907.784
21672.108
21410.444
21120.359
23680.224
23680.225
23680.225
23680.225
23680.225
23680.223
23680.22
23680.216
23680.211
23680.203
23680.193
23680.18
23680.162
23680.14
23680.112
23680.075
23680.029
23679.97
23679.896
23679.802
23679.683
23679.532
23679.341
23679.099
23678.791
23678.402
23677.907
23677.279
23676.484
23675.48
23674.214
23672.622
23670.624
23668.125
23665.008
23661.135
23656.344
23650.444
23643.214
23634.399
23623.709
23610.814
23595.34
23576.866
23554.918
23528.971
23498.449
23462.719
23421.095
23372.837
23317.146
23253.158
23179.942
23096.498
23001.755
22894.562
22773.683
22637.783
22485.428
22315.081
22125.054
21913.47
21678.219
21417.036
21127.433
23683.602
23683.602
23683.603
23683.602
23683.601
23683.599
23683.596
23683.592
23683.585
23683.577
23683.566
23683.551
23683.533
23683.509
23683.479
23683.441
23683.392
23683.331
23683.254
23683.157
23683.035
23682.881
23682.687
23682.442
23682.133
23681.742
23681.248
23680.622
23679.831
23678.832
23677.572
23675.987
23673.998
23671.507
23668.401
23664.542
23659.767
23653.886
23646.68
23637.895
23627.242
23614.39
23598.968
23580.554
23558.676
23532.808
23502.373
23466.74
23425.226
23377.093
23321.545
23257.723
23184.697
23101.47
23006.974
22900.061
22779.495
22643.944
22491.973
22322.053
22132.504
21921.452
21686.797
21426.29
21137.365
23687.965
23687.966
23687.966
23687.965
23687.964
23687.961
23687.958
23687.953
23687.946
23687.937
23687.925
23687.91
23687.891
23687.866
23687.835
23687.795
23687.746
23687.683
23687.605
23687.506
23687.382
23687.227
23687.032
23686.787
23686.478
23686.089
23685.597
23684.975
23684.188
23683.194
23681.941
23680.363
23678.382
23675.902
23672.808
23668.964
23664.209
23658.354
23651.178
23642.431
23631.824
23619.029
23603.673
23585.336
23563.546
23537.778
23507.455
23471.948
23430.576
23382.607
23327.247
23263.64
23190.862
23107.92
23013.746
22907.198
22787.041
22651.946
22500.48
22331.12
22142.195
21931.84
21697.963
21438.338
21150.298
23693.355
23693.356
23693.356
23693.355
23693.353
23693.351
23693.347
23693.341
23693.334
23693.325
23693.313
23693.298
23693.278
23693.253
23693.221
23693.182
23693.132
23693.069
23692.991
23692.892
23692.769
23692.615
23692.421
23692.177
23691.871
23691.484
23690.996
23690.378
23689.597
23688.608
23687.361
23685.79
23683.818
23681.349
23678.269
23674.444
23669.712
23663.887
23656.749
23648.048
23637.498
23624.771
23609.496
23591.254
23569.571
23543.925
23513.739
23478.387
23437.193
23389.427
23334.301
23270.964
23198.496
23115.907
23022.136
22916.041
22796.394
22661.868
22511.032
22342.373
22154.228
21944.743
21711.837
21453.311
21166.38
23699.819
23699.819
23699.819
23699.818
23699.816
23699.813
23699.809
23699.804
23699.797
23699.788
23699.776
23699.76
23699.741
23699.716
23699.685
23699.646
23699.597
23699.536
23699.459
23699.362
23699.241
23699.089
23698.899
23698.659
23698.356
23697.973
23697.49
23696.877
23696.101
23695.118
23693.877
23692.313
23690.35
23687.892
23684.828
23681.023
23676.319
23670.529
23663.435
23654.789
23644.305
23631.658
23616.479
23598.347
23576.791
23551.289
23521.267
23486.104
23445.125
23397.605
23342.763
23279.752
23207.658
23125.496
23032.209
22926.662
22807.629
22673.788
22523.717
22355.91
22168.711
21960.277
21728.544
21471.347
21185.761
23707.412
23707.412
23707.412
23707.41
23707.408
23707.405
23707.401
23707.396
23707.389
23707.38
23707.368
23707.353
23707.334
23707.31
23707.28
23707.242
23707.195
23707.135
23707.061
23706.967
23706.85
23706.702
23706.515
23706.279
23705.981
23705.603
23705.124
23704.517
23703.746
23702.768
23701.533
23699.976
23698.022
23695.577
23692.53
23688.748
23684.074
23678.323
23671.279
23662.695
23652.288
23639.734
23624.664
23606.659
23585.249
23559.914
23530.085
23495.143
23454.419
23407.191
23352.685
23290.06
23218.408
23136.75
23044.034
22939.132
22820.823
22687.793
22538.626
22371.826
22185.746
21978.557
21748.211
21492.586
21208.595
23716.194
23716.194
23716.193
23716.192
23716.19
23716.186
23716.182
23716.177
23716.17
23716.161
23716.149
23716.135
23716.116
23716.093
23716.064
23716.028
23715.982
23715.925
23715.853
23715.762
23715.648
23715.503
23715.32
23715.089
23714.795
23714.421
23713.946
23713.342
23712.576
23711.603
23710.373
23708.824
23706.879
23704.448
23701.42
23697.663
23693.023
23687.315
23680.327
23671.813
23661.492
23649.041
23634.093
23616.231
23594.985
23569.841
23540.235
23505.55
23465.121
23418.234
23364.118
23301.943
23230.804
23149.731
23057.678
22953.524
22836.054
22703.962
22555.844
22390.217
22205.443
21999.705
21770.97
21517.17
21235.038
23726.218
23726.218
23726.217
23726.215
23726.213
23726.21
23726.205
23726.2
23726.193
23726.184
23726.172
23726.158
23726.14
23726.118
23726.09
23726.054
23726.01
23725.954
23725.884
23725.796
23725.684
23725.542
23725.362
23725.134
23724.842
23724.472
23724
23723.399
23722.635
23721.667
23720.443
23718.901
23716.967
23714.551
23711.543
23707.815
23703.211
23697.551
23690.624
23682.187
23671.96
23659.623
23644.809
23627.103
23606.042
23581.114
23551.759
23517.367
23477.277
23430.78
23377.115
23315.456
23244.907
23164.504
23073.21
22969.911
22853.401
22722.385
22575.475
22411.199
22227.921
22023.842
21796.954
21545.247
21265.249
23737.533
23737.532
23737.531
23737.529
23737.527
23737.524
23737.519
23737.514
23737.506
23737.497
23737.486
23737.472
23737.454
23737.431
23737.404
23737.369
23737.325
23737.27
23737.2
23737.113
23737.002
23736.862
23736.683
23736.456
23736.166
23735.796
23735.326
23734.727
23733.966
23733.001
23731.783
23730.25
23728.329
23725.929
23722.944
23719.247
23714.683
23709.076
23702.215
23693.861
23683.736
23671.522
23656.854
23639.321
23618.463
23593.775
23564.702
23530.64
23490.933
23444.882
23391.73
23330.66
23260.782
23181.141
23090.707
22988.378
22872.957
22743.163
22597.623
22434.876
22253.293
22051.094
21826.299
21576.961
21299.385
23750.174
23750.173
23750.172
23750.17
23750.167
23750.164
23750.159
23750.153
23750.146
23750.136
23750.125
23750.11
23750.092
23750.07
23750.041
23750.006
23749.962
23749.907
23749.837
23749.75
23749.639
23749.498
23749.319
23749.091
23748.802
23748.432
23747.962
23747.365
23746.607
23745.647
23744.436
23742.913
23741.006
23738.626
23735.667
23732.004
23727.485
23721.934
23715.146
23706.882
23696.867
23684.784
23670.274
23652.928
23632.294
23607.872
23579.114
23545.42
23506.146
23460.597
23408.025
23347.618
23278.497
23199.711
23110.246
23009.005
22894.807
22766.385
22622.384
22461.354
22281.678
22081.587
21859.141
21612.463
21337.606
23764.171
23764.171
23764.169
23764.167
23764.164
23764.161
23764.156
23764.15
23764.142
23764.132
23764.12
23764.106
23764.087
23764.064
23764.035
23763.999
23763.954
23763.898
23763.828
23763.739
23763.627
23763.485
23763.305
23763.076
23762.786
23762.416
23761.947
23761.351
23760.597
23759.643
23758.442
23756.932
23755.042
23752.685
23749.756
23746.13
23741.66
23736.172
23729.463
23721.295
23711.398
23699.457
23685.116
23667.975
23647.587
23623.459
23595.049
23561.768
23522.977
23477.99
23426.066
23366.4
23298.121
23220.291
23131.904
23031.876
22919.041
22792.152
22649.868
22490.752
22313.195
22115.451
21895.619
21651.901
21380.071
23779.56
23779.559
23779.557
23779.555
23779.552
23779.549
23779.544
23779.537
23779.529
23779.52
23779.507
23779.492
23779.473
23779.449
23779.419
23779.383
23779.337
23779.28
23779.208
23779.118
23779.004
23778.861
23778.679
23778.45
23778.158
23777.789
23777.321
23776.729
23775.98
23775.034
23773.844
23772.35
23770.481
23768.15
23765.255
23761.672
23757.257
23751.837
23745.213
23737.15
23727.378
23715.59
23701.434
23684.516
23664.398
23640.594
23612.571
23579.747
23541.493
23497.131
23445.925
23387.08
23319.733
23242.96
23155.766
23057.082
22945.758
22820.567
22680.184
22523.182
22347.966
22152.814
21935.869
21695.421
21426.937
23796.381
23796.38
23796.378
23796.376
23796.373
23796.369
23796.364
23796.358
23796.35
23796.34
23796.327
23796.311
23796.292
23796.268
23796.238
23796.2
23796.154
23796.096
23796.023
23795.932
23795.817
23795.673
23795.49
23795.26
23794.969
23794.601
23794.136
23793.548
23792.806
23791.87
23790.694
23789.219
23787.373
23785.072
23782.215
23778.681
23774.325
23768.981
23762.448
23754.497
23744.861
23733.237
23719.282
23702.609
23682.788
23659.342
23631.746
23599.427
23561.766
23518.091
23467.675
23409.732
23343.411
23267.801
23181.92
23084.715
22975.055
22851.734
22713.44
22558.759
22386.11
22193.804
21980.029
21743.172
21478.36
23814.69
23814.689
23814.687
23814.685
23814.683
23814.679
23814.674
23814.667
23814.659
23814.649
23814.636
23814.621
23814.601
23814.577
23814.546
23814.509
23814.462
23814.403
23814.33
23814.238
23814.123
23813.979
23813.797
23813.567
23813.277
23812.911
23812.45
23811.867
23811.133
23810.209
23809.049
23807.593
23805.773
23803.506
23800.69
23797.208
23792.918
23787.654
23781.221
23773.39
23763.902
23752.458
23738.722
23722.318
23702.823
23679.77
23652.643
23620.879
23583.867
23540.944
23491.392
23434.435
23369.237
23294.899
23210.454
23114.868
23007.032
22885.758
22749.745
22597.594
22427.749
22238.549
22028.235
21795.299
21534.493
23834.55
23834.549
23834.548
23834.546
23834.543
23834.539
23834.534
23834.528
23834.52
23834.51
23834.498
23834.482
23834.462
23834.438
23834.408
23834.37
23834.324
23834.265
23834.192
23834.101
23833.986
23833.842
23833.661
23833.433
23833.146
23832.783
23832.326
23831.75
23831.025
23830.112
23828.967
23827.533
23825.74
23823.508
23820.737
23817.312
23813.092
23807.915
23801.588
23793.888
23784.559
23773.311
23759.816
23743.706
23724.569
23701.946
23675.332
23644.173
23607.868
23565.763
23517.151
23461.268
23397.291
23324.337
23241.456
23147.636
23041.789
22922.739
22789.207
22639.802
22473.002
22287.177
22080.623
21851.945
21595.486
23856.022
23856.022
23856.021
23856.019
23856.016
23856.013
23856.008
23856.002
23855.994
23855.985
23855.972
23855.957
23855.938
23855.914
23855.885
23855.848
23855.801
23855.744
23855.672
23855.581
23855.468
23855.326
23855.147
23854.922
23854.638
23854.28
23853.828
23853.26
23852.544
23851.644
23850.515
23849.101
23847.337
23845.141
23842.417
23839.051
23834.907
23829.822
23823.609
23816.05
23806.894
23795.86
23782.629
23766.841
23748.094
23725.939
23699.882
23669.38
23633.841
23592.623
23545.029
23490.31
23427.656
23356.202
23275.018
23183.115
23079.422
22962.783
22831.928
22685.494
22521.985
22339.812
22137.324
21913.251
21661.486
23879.162
23879.162
23879.161
23879.159
23879.157
23879.153
23879.149
23879.143
23879.136
23879.126
23879.115
23879.1
23879.081
23879.058
23879.03
23878.994
23878.949
23878.892
23878.822
23878.734
23878.623
23878.483
23878.308
23878.087
23877.808
23877.456
23877.012
23876.453
23875.748
23874.862
23873.75
23872.359
23870.624
23868.465
23865.79
23862.487
23858.42
23853.433
23847.342
23839.934
23830.968
23820.167
23807.223
23791.786
23773.462
23751.816
23726.362
23696.57
23661.859
23621.597
23575.102
23521.638
23460.412
23390.576
23311.226
23221.394
23120.027
23005.986
22878.013
22734.777
22574.814
22396.576
22198.468
21979.354
21732.636
23904.009
23904.009
23904.008
23904.007
23904.005
23904.001
23903.997
23903.992
23903.985
23903.976
23903.965
23903.951
23903.933
23903.911
23903.884
23903.849
23903.806
23903.752
23903.684
23903.598
23903.491
23903.356
23903.186
23902.971
23902.699
23902.356
23901.923
23901.376
23900.686
23899.817
23898.727
23897.363
23895.659
23893.542
23890.918
23887.678
23883.693
23878.809
23872.847
23865.603
23856.84
23846.294
23833.662
23818.605
23800.741
23779.643
23754.84
23725.812
23691.991
23652.757
23607.442
23555.325
23495.631
23427.538
23350.165
23262.564
23163.699
23052.441
22927.563
22787.76
22631.604
22457.589
22264.182
22050.386
21809.071
23930.599
23930.599
23930.598
23930.597
23930.595
23930.592
23930.588
23930.583
23930.577
23930.569
23930.558
23930.545
23930.529
23930.508
23930.482
23930.449
23930.408
23930.357
23930.292
23930.211
23930.108
23929.979
23929.815
23929.609
23929.347
23929.016
23928.596
23928.066
23927.396
23926.551
23925.489
23924.157
23922.494
23920.423
23917.856
23914.686
23910.788
23906.012
23900.188
23893.118
23884.576
23874.304
23862.01
23847.364
23829.995
23809.488
23785.384
23757.176
23724.307
23686.172
23642.117
23591.44
23533.389
23467.169
23391.923
23306.713
23210.523
23102.243
22980.675
22844.547
22692.466
22522.968
22334.586
22126.477
21890.92
23958.964
23958.964
23958.964
23958.963
23958.961
23958.958
23958.955
23958.95
23958.945
23958.937
23958.928
23958.915
23958.9
23958.881
23958.857
23958.827
23958.789
23958.741
23958.68
23958.604
23958.507
23958.385
23958.23
23958.034
23957.785
23957.468
23957.066
23956.557
23955.912
23955.097
23954.07
23952.78
23951.165
23949.152
23946.652
23943.562
23939.759
23935.102
23929.427
23922.545
23914.239
23904.262
23892.332
23878.127
23861.289
23841.416
23818.06
23790.727
23758.873
23721.906
23679.191
23630.051
23573.762
23509.554
23436.577
23353.923
23260.584
23155.482
23037.447
22905.241
22757.507
22592.825
22409.799
22207.748
21978.305
23989.152
23989.152
23989.151
23989.15
23989.149
23989.147
23989.144
23989.139
23989.134
23989.127
23989.119
23989.108
23989.094
23989.076
23989.054
23989.027
23988.991
23988.947
23988.891
23988.82
23988.73
23988.616
23988.471
23988.286
23988.05
23987.75
23987.368
23986.883
23986.267
23985.486
23984.501
23983.26
23981.704
23979.759
23977.339
23974.343
23970.652
23966.13
23960.62
23953.944
23945.895
23936.234
23924.691
23910.959
23894.689
23875.492
23852.934
23826.526
23795.742
23760.009
23718.721
23671.225
23616.825
23554.757
23484.204
23404.266
23313.963
23212.245
23097.971
22969.94
22826.833
22667.271
22489.932
22294.318
22071.342
24021.212
24021.212
24021.212
24021.211
24021.21
24021.208
24021.205
24021.202
24021.197
24021.191
24021.183
24021.173
24021.161
24021.145
24021.124
24021.099
24021.067
24021.026
24020.974
24020.909
24020.825
24020.718
24020.582
24020.408
24020.186
24019.903
24019.541
24019.08
24018.495
24017.751
24016.811
24015.625
24014.134
24012.267
24009.94
24007.053
24003.493
23999.128
23993.808
23987.361
23979.591
23970.271
23959.144
23945.915
23930.25
23911.769
23890.044
23864.607
23834.954
23800.535
23760.77
23715.03
23662.636
23602.848
23534.867
23457.814
23370.738
23272.616
23162.339
23038.741
22900.543
22746.408
22575.092
22386.302
22170.139
24055.202
24055.202
24055.202
24055.201
24055.2
24055.199
24055.196
24055.193
24055.189
24055.183
24055.176
24055.167
24055.155
24055.14
24055.121
24055.097
24055.067
24055.029
24054.98
24054.918
24054.839
24054.738
24054.609
24054.444
24054.234
24053.965
24053.622
24053.184
24052.628
24051.922
24051.028
24049.9
24048.48
24046.699
24044.476
24041.715
24038.305
24034.118
24029.01
24022.818
24015.354
24006.403
23995.723
23983.032
23968.002
23950.267
23929.419
23905.011
23876.557
23843.541
23805.394
23761.518
23711.251
23653.883
23588.627
23514.634
23430.981
23336.674
23230.635
23111.736
22978.736
22830.34
22665.383
22483.809
22274.804
24091.165
24091.165
24091.165
24091.164
24091.163
24091.162
24091.159
24091.156
24091.152
24091.147
24091.14
24091.131
24091.12
24091.105
24091.087
24091.064
24091.034
24090.997
24090.949
24090.889
24090.813
24090.716
24090.591
24090.433
24090.231
24089.974
24089.647
24089.23
24088.702
24088.032
24087.185
24086.115
24084.769
24083.08
24080.969
24078.345
24075.099
24071.11
24066.238
24060.326
24053.197
24044.647
24034.442
24022.314
24007.953
23991.009
23971.091
23947.772
23920.598
23889.066
23852.637
23810.731
23762.721
23707.91
23645.54
23574.789
23494.761
23404.495
23302.943
23189.013
23061.504
22919.162
22760.902
22586.943
22385.442
24129.12
24129.121
24129.12
24129.12
24129.119
24129.117
24129.115
24129.112
24129.108
24129.102
24129.095
24129.086
24129.075
24129.06
24129.041
24129.018
24128.988
24128.951
24128.903
24128.844
24128.768
24128.672
24128.55
24128.396
24128.2
24127.953
24127.639
24127.241
24126.739
24126.104
24125.304
24124.294
24123.025
24121.432
24119.442
24116.964
24113.896
24110.12
24105.502
24099.892
24093.12
24084.995
24075.296
24063.769
24050.119
24034.013
24015.08
23992.921
23967.1
23937.138
23902.527
23862.712
23817.082
23764.974
23705.657
23638.335
23562.143
23476.15
23379.341
23270.657
23148.938
23012.969
22861.745
22695.801
22502.169
24169.066
24169.066
24169.066
24169.065
24169.064
24169.063
24169.06
24169.057
24169.052
24169.047
24169.039
24169.03
24169.018
24169.002
24168.983
24168.959
24168.929
24168.891
24168.843
24168.783
24168.707
24168.612
24168.492
24168.341
24168.151
24167.912
24167.611
24167.233
24166.757
24166.158
24165.405
24164.458
24163.268
24161.775
24159.909
24157.584
24154.702
24151.15
24146.8
24141.51
24135.119
24127.448
24118.288
24107.4
24094.504
24079.287
24061.4
24040.471
24016.083
23987.784
23955.094
23917.481
23874.367
23825.114
23769.021
23705.323
23633.183
23551.704
23459.902
23356.752
23241.129
23111.856
22968.012
22810.484
22625.108
24210.974
24210.974
24210.974
24210.973
24210.972
24210.97
24210.968
24210.964
24210.959
24210.953
24210.946
24210.936
24210.924
24210.908
24210.889
24210.864
24210.834
24210.795
24210.747
24210.688
24210.613
24210.519
24210.402
24210.256
24210.074
24209.846
24209.56
24209.203
24208.756
24208.196
24207.493
24206.611
24205.503
24204.114
24202.376
24200.209
24197.519
24194.2
24190.131
24185.178
24179.192
24172.003
24163.416
24153.206
24141.11
24126.835
24110.061
24090.432
24067.556
24041.015
24010.351
23975.063
23934.6
23888.358
23835.667
23775.794
23707.933
23631.219
23544.696
23447.377
23338.168
23215.92
23079.809
22931.115
22754.387
24254.815
24254.815
24254.815
24254.814
24254.813
24254.811
24254.808
24254.805
24254.8
24254.794
24254.787
24254.777
24254.765
24254.75
24254.731
24254.707
24254.677
24254.64
24254.594
24254.537
24254.465
24254.376
24254.266
24254.128
24253.957
24253.743
24253.478
24253.146
24252.733
24252.215
24251.566
24250.752
24249.73
24248.447
24246.839
24244.833
24242.342
24239.264
24235.49
24230.893
24225.334
24218.655
24210.675
24201.181
24189.932
24176.656
24161.055
24142.797
24121.52
24096.833
24068.305
24035.467
23997.799
23954.73
23905.624
23849.785
23786.437
23714.747
23633.792
23542.613
23440.146
23325.264
23197.257
23057.862
22890.143
24300.568
24300.568
24300.568
24300.567
24300.566
24300.564
24300.562
24300.558
24300.554
24300.549
24300.542
24300.533
24300.522
24300.508
24300.49
24300.469
24300.442
24300.408
24300.366
24300.313
24300.248
24300.167
24300.067
24299.942
24299.786
24299.593
24299.352
24299.052
24298.677
24298.207
24297.616
24296.874
24295.939
24294.765
24293.292
24291.452
24289.165
24286.339
24282.871
24278.647
24273.538
24267.396
24260.054
24251.315
24240.958
24228.736
24214.371
24197.56
24177.969
24155.233
24128.954
24098.695
24063.969
24024.24
23978.909
23927.319
23868.729
23802.337
23727.251
23642.54
23547.164
23440.006
23320.45
23190.732
23032.741
24348.23
24348.229
24348.229
24348.228
24348.227
24348.226
24348.224
24348.221
24348.217
24348.213
24348.207
24348.199
24348.19
24348.178
24348.163
24348.144
24348.121
24348.092
24348.056
24348.01
24347.954
24347.884
24347.797
24347.688
24347.553
24347.384
24347.172
24346.907
24346.574
24346.154
24345.625
24344.956
24344.113
24343.05
24341.715
24340.046
24337.972
24335.408
24332.261
24328.427
24323.789
24318.211
24311.538
24303.592
24294.172
24283.057
24269.992
24254.704
24236.885
24216.201
24192.286
24164.738
24133.104
24096.887
24055.53
24008.413
23954.835
23894.03
23825.134
23747.243
23659.34
23560.281
23449.448
23330.066
23182.3
24397.806
24397.805
24397.805
24397.805
24397.804
24397.803
24397.801
24397.799
24397.796
24397.792
24397.787
24397.781
24397.773
24397.763
24397.751
24397.735
24397.716
24397.692
24397.663
24397.625
24397.579
24397.52
24397.447
24397.356
24397.241
24397.097
24396.915
24396.685
24396.395
24396.027
24395.56
24394.967
24394.217
24393.27
24392.079
24390.589
24388.735
24386.445
24383.634
24380.208
24376.062
24371.073
24365.099
24357.983
24349.547
24339.591
24327.892
24314.2
24298.24
24279.71
24258.276
24233.571
24205.185
24172.659
24135.479
24093.068
24044.77
23989.856
23927.493
23856.805
23776.784
23686.154
23584.455
23476.031
23338.963
24449.294
24449.294
24449.294
24449.293
24449.293
24449.292
24449.29
24449.288
24449.286
24449.283
24449.278
24449.273
24449.267
24449.259
24449.249
24449.236
24449.22
24449.2
24449.176
24449.145
24449.106
24449.058
24448.997
24448.92
24448.823
24448.701
24448.547
24448.351
24448.101
24447.783
24447.378
24446.863
24446.209
24445.382
24444.342
24443.038
24441.417
24439.413
24436.953
24433.954
24430.321
24425.944
24420.7
24414.451
24407.043
24398.302
24388.031
24376.01
24361.995
24345.719
24326.882
24305.158
24280.177
24251.527
24218.734
24181.273
24138.535
24089.836
24034.38
23971.31
23899.577
23817.929
23725.641
23628.777
23503.227
24502.671
24502.671
24502.67
24502.67
24502.669
24502.668
24502.667
24502.665
24502.662
24502.659
24502.656
24502.651
24502.645
24502.637
24502.628
24502.617
24502.602
24502.585
24502.563
24502.535
24502.502
24502.459
24502.406
24502.34
24502.258
24502.153
24502.022
24501.855
24501.643
24501.374
24501.031
24500.594
24500.04
24499.338
24498.453
24497.345
24495.966
24494.261
24492.167
24489.612
24486.512
24482.772
24478.289
24472.946
24466.611
24459.137
24450.356
24440.078
24428.095
24414.172
24398.051
24379.445
24358.03
24333.442
24305.257
24272.999
24236.116
24193.976
24145.824
24090.8
24027.94
23955.78
23873.333
23788.581
23675.595
24557.871
24557.871
24557.87
24557.87
24557.869
24557.868
24557.866
24557.864
24557.862
24557.858
24557.854
24557.849
24557.843
24557.835
24557.826
24557.814
24557.8
24557.782
24557.761
24557.735
24557.702
24557.663
24557.615
24557.556
24557.483
24557.393
24557.281
24557.141
24556.965
24556.743
24556.461
24556.104
24555.65
24555.076
24554.352
24553.446
24552.318
24550.922
24549.208
24547.11
24544.562
24541.486
24537.795
24533.395
24528.179
24522.025
24514.796
24506.334
24496.466
24484.997
24471.709
24456.36
24438.675
24418.338
24394.983
24368.192
24337.469
24302.242
24261.817
24215.398
24161.982
24100.028
24028.148
23956.005
23856.466
24614.798
24614.798
24614.798
24614.797
24614.796
24614.794
24614.792
24614.79
24614.787
24614.783
24614.779
24614.773
24614.766
24614.758
24614.747
24614.735
24614.72
24614.701
24614.679
24614.652
24614.62
24614.582
24614.537
24614.483
24614.418
24614.34
24614.246
24614.131
24613.989
24613.812
24613.59
24613.31
24612.956
24612.51
24611.949
24611.249
24610.378
24609.301
24607.974
24606.35
24604.374
24601.987
24599.121
24595.704
24591.653
24586.873
24581.257
24574.683
24567.015
24558.099
24547.762
24535.811
24522.018
24506.122
24487.821
24466.753
24442.503
24414.582
24382.368
24345.117
24301.882
24251.062
24190.983
24131.947
24045.818
24673.32
24673.32
24673.319
24673.318
24673.317
24673.316
24673.313
24673.311
24673.308
24673.304
24673.299
24673.293
24673.285
24673.277
24673.266
24673.253
24673.238
24673.219
24673.197
24673.171
24673.141
24673.105
24673.064
24673.015
24672.959
24672.894
24672.818
24672.727
24672.618
24672.485
24672.321
24672.117
24671.862
24671.545
24671.15
24670.659
24670.05
24669.297
24668.369
24667.232
24665.848
24664.175
24662.166
24659.771
24656.93
24653.576
24649.634
24645.019
24639.633
24633.368
24626.098
24617.677
24607.932
24596.667
24583.642
24568.577
24551.13
24530.902
24507.397
24479.99
24447.817
24409.316
24362.795
24316.621
24244.899
24733.298
24733.297
24733.296
24733.295
24733.294
24733.292
24733.29
24733.288
24733.285
24733.281
24733.276
24733.271
24733.264
24733.256
24733.246
24733.235
24733.221
24733.205
24733.186
24733.164
24733.138
24733.109
24733.075
24733.036
24732.991
24732.941
24732.882
24732.814
24732.735
24732.642
24732.533
24732.404
24732.25
24732.063
24731.835
24731.556
24731.213
24730.79
24730.272
24729.637
24728.864
24727.931
24726.81
24725.474
24723.886
24722.009
24719.801
24717.214
24714.194
24710.679
24706.591
24701.839
24696.308
24689.862
24682.341
24673.543
24663.23
24651.106
24636.804
24619.886
24599.679
24574.959
24544.29
24512.93
24458.976
24797.315
24797.314
24797.313
24797.312
24797.311
24797.309
24797.307
24797.305
24797.302
24797.299
24797.295
24797.29
24797.285
24797.278
24797.27
24797.261
24797.251
24797.238
24797.223
24797.206
24797.187
24797.164
24797.139
24797.11
24797.077
24797.04
24797
24796.955
24796.907
24796.855
24796.802
24796.749
24796.699
24796.65
24796.603
24796.552
24796.498
24796.437
24796.364
24796.277
24796.172
24796.048
24795.899
24795.718
24795.496
24795.226
24794.903
24794.521
24794.068
24793.533
24792.896
24792.122
24791.163
24789.958
24788.425
24786.465
24783.942
24780.696
24776.507
24771.146
24764.248
24755.139
24743.805
24733.504
24713.836
24864.663
24864.662
24864.661
24864.66
24864.659
24864.657
24864.655
24864.654
24864.651
24864.649
24864.646
24864.642
24864.639
24864.634
24864.629
24864.622
24864.615
24864.607
24864.597
24864.586
24864.573
24864.558
24864.541
24864.523
24864.503
24864.483
24864.463
24864.445
24864.432
24864.43
24864.442
24864.477
24864.542
24864.643
24864.787
24864.983
24865.242
24865.57
24865.973
24866.469
24867.077
24867.814
24868.697
24869.744
24870.978
24872.423
24874.114
24876.084
24878.372
24881.018
24884.059
24887.529
24891.451
24895.846
24900.721
24906.084
24911.92
24918.215
24924.924
24932.048
24939.556
24947.387
24956.247
24967.713
24976.383
24931.894
24931.893
24931.892
24931.891
24931.89
24931.889
24931.888
24931.886
24931.885
24931.884
24931.882
24931.881
24931.879
24931.878
24931.876
24931.874
24931.872
24931.869
24931.867
24931.864
24931.861
24931.858
24931.854
24931.851
24931.848
24931.847
24931.851
24931.863
24931.89
24931.937
24932.017
24932.14
24932.32
24932.569
24932.902
24933.335
24933.889
24934.586
24935.455
24936.527
24937.841
24939.434
24941.345
24943.62
24946.31
24949.475
24953.185
24957.519
24962.561
24968.404
24975.143
24982.88
24991.717
25001.756
25013.098
25025.858
25040.146
25056.095
25073.845
25093.609
25115.617
25140.248
25168.333
25200.828
25237.127
24998.711
24998.71
24998.709
24998.708
24998.708
24998.707
24998.706
24998.706
24998.706
24998.706
24998.706
24998.707
24998.708
24998.71
24998.712
24998.715
24998.718
24998.723
24998.728
24998.735
24998.742
24998.751
24998.762
24998.775
24998.791
24998.812
24998.842
24998.887
24998.955
24999.056
24999.203
24999.414
24999.707
25000.102
25000.62
25001.287
25002.134
25003.201
25004.529
25006.17
25008.18
25010.619
25013.548
25017.041
25021.18
25026.058
25031.784
25038.477
25046.27
25055.307
25065.742
25077.746
25091.497
25107.184
25125.004
25145.175
25167.933
25193.556
25222.356
25254.742
25291.169
25332.315
25379.162
25432.923
25495.257
25064.823
25064.822
25064.821
25064.821
25064.82
25064.82
25064.82
25064.821
25064.822
25064.823
25064.825
25064.828
25064.832
25064.837
25064.843
25064.851
25064.86
25064.871
25064.885
25064.9
25064.919
25064.94
25064.965
25064.994
25065.029
25065.074
25065.133
25065.212
25065.323
25065.479
25065.698
25066.002
25066.414
25066.957
25067.663
25068.567
25069.71
25071.145
25072.93
25075.134
25077.832
25081.105
25085.04
25089.739
25095.314
25101.892
25109.619
25118.656
25129.184
25141.397
25155.51
25171.76
25190.402
25211.709
25235.974
25263.52
25294.704
25329.947
25369.721
25414.619
25465.319
25522.75
25588.121
25663.02
25749.749
25129.988
25129.988
25129.987
25129.987
25129.987
25129.987
25129.988
25129.989
25129.991
25129.994
25129.997
25130.002
25130.008
25130.016
25130.026
25130.037
25130.052
25130.069
25130.089
25130.112
25130.14
25130.172
25130.209
25130.254
25130.307
25130.374
25130.46
25130.574
25130.73
25130.944
25131.238
25131.638
25132.169
25132.866
25133.763
25134.905
25136.346
25138.149
25140.389
25143.15
25146.526