/*--------------------------------*- C++ -*----------------------------------*\
  =========                 |
  \\      /  F ield         | OpenFOAM: The Open Source CFD Toolbox
   \\    /   O peration     | Website:  https://openfoam.org
    \\  /    A nd           | Version:  13
     \\/     M anipulation  |
\*---------------------------------------------------------------------------*/
FoamFile
{
    format      ascii;
    class       volSymmTensorField;
    location    "13.09673";
    object      UPrime2Mean;
}
// * * * * * * * * * * * * * * * * * * * * * * * * * * * * * * * * * * * * * //

dimensions      [0 2 -2 0 0 0 0];

internalField   nonuniform List<symmTensor> 
17140
(
(2.1358176e-12 -1.0196663e-10 -4.5811186e-27 5.2952824e-09 8.738331e-26 2.2924276e-40)
(2.8537282e-10 -3.1166279e-09 -2.4655032e-27 4.9922479e-08 1.9517415e-26 1.9659828e-42)
(2.5300543e-09 -1.5540093e-08 4.2902226e-25 1.5037656e-07 -2.1034608e-24 8.5671632e-39)
(1.1796836e-08 -4.8133544e-08 -9.5370657e-25 3.2106486e-07 3.2758426e-24 1.0348765e-38)
(3.9183695e-08 -1.1639875e-07 1.9575605e-25 5.7872388e-07 -5.0619341e-25 1.4134599e-40)
(1.0671053e-07 -2.4292534e-07 -1.0335429e-24 9.4242068e-07 2.1001527e-24 1.5128565e-39)
(2.5491233e-07 -4.594379e-07 -2.6553439e-24 1.4333724e-06 4.3520813e-24 4.2840357e-39)
(5.5450627e-07 -8.0921002e-07 1.9010831e-24 2.074554e-06 -2.5578151e-24 1.0199117e-39)
(1.1239955e-06 -1.3498043e-06 8.8563078e-24 2.8899523e-06 -9.9063722e-24 1.0911631e-38)
(2.1555031e-06 -2.1558809e-06 3.0198497e-23 3.9034045e-06 -2.8349545e-23 6.5531931e-38)
(3.9517027e-06 -3.3217408e-06 -6.1086966e-23 5.1369104e-06 4.8475906e-23 1.4379286e-37)
(6.977233e-06 -4.9631183e-06 7.3117226e-23 6.6083579e-06 -4.9317348e-23 1.1390739e-37)
(1.1928243e-05 -7.217539e-06 1.4835786e-23 8.3286557e-06 -8.5410915e-24 2.6602111e-39)
(1.9823492e-05 -1.0242401e-05 -1.0995973e-22 1.0298371e-05 5.4203226e-23 8.4768642e-38)
(3.2119538e-05 -1.4209915e-05 1.5842172e-23 1.2504128e-05 -6.7017997e-24 1.0401853e-39)
(5.0850677e-05 -1.9298254e-05 -1.6135957e-22 1.4915257e-05 5.8674032e-23 6.4910433e-38)
(7.8791305e-05 -2.5678856e-05 7.6544357e-24 1.74814e-05 -2.3947751e-24 8.9319182e-41)
(0.00011963554 -3.3501044e-05 -2.1708468e-24 2.0131993e-05 5.8476784e-25 4.4385017e-42)
(0.00017818707 -4.2876945e-05 -1.928588e-22 2.2778655e-05 4.4729477e-23 2.2128881e-38)
(0.00026055454 -5.3871665e-05 3.1079416e-22 2.5321285e-05 -6.2069225e-23 3.6732271e-38)
(0.00037435805 -6.6505391e-05 -1.8435609e-22 2.765807e-05 3.1701973e-23 8.3872793e-39)
(0.00052897084 -8.0773446e-05 4.2887425e-23 2.9698701e-05 -6.3501764e-24 2.9981951e-40)
(0.00073591414 -9.6689287e-05 3.8164824e-22 3.1378648e-05 -4.8662809e-23 1.5921944e-38)
(0.0010096247 -0.00011435208 -4.5466537e-22 3.2671096e-05 4.9943588e-23 1.543769e-38)
(0.0013674446 -0.00013399078 -8.5586979e-22 3.3594091e-05 8.1045204e-23 3.8075445e-38)
(0.0018312073 -0.00015588262 8.0510445e-22 3.4207982e-05 -6.5785733e-23 2.3905245e-38)
(0.0024319573 -0.00018063786 4.5877322e-21 3.4581378e-05 -3.2372474e-22 5.6063308e-37)
(0.0032070857 -0.00020881681 6.2227557e-22 3.4773273e-05 -3.7925685e-23 7.5737171e-39)
(0.0042036732 -0.00024082419 -6.2422592e-21 3.4838482e-05 3.2843019e-22 5.6961792e-37)
(0.0054859375 -0.00027734899 -1.6594281e-21 3.4805225e-05 7.5268514e-23 3.0486842e-38)
(0.0071328965 -0.00031877658 -6.6971371e-21 3.4687744e-05 2.6125648e-22 3.8151652e-37)
(0.0092445562 -0.00036537775 9.9272397e-21 3.4484229e-05 -3.3199768e-22 6.5205398e-37)
(0.011944946 -0.00041722035 -2.9026832e-21 3.4183418e-05 8.2888148e-23 4.3822528e-38)
(0.015385871 -0.00047407943 -1.5496686e-21 3.376702e-05 3.7584779e-23 9.9386186e-39)
(0.01975043 -0.00053537191 -1.6973119e-20 3.3215167e-05 3.4744892e-22 9.5692988e-37)
(0.02525578 -0.00060004829 8.262362e-21 3.2510074e-05 -1.4152865e-22 1.8412804e-37)
(0.032154087 -0.00066642933 -1.3764705e-20 3.1640121e-05 1.9520694e-22 4.1848558e-37)
(0.040730648 -0.00073204704 -1.0252024e-20 3.0608734e-05 1.1858799e-22 1.9204798e-37)
(0.051297165 -0.00079351652 -5.1421632e-21 2.9448714e-05 4.7527791e-23 4.0346977e-38)
(0.064178348 -0.00084619493 1.6970802e-20 2.8229903e-05 -1.2147389e-22 3.7111614e-37)
(0.079690856 -0.00088440773 3.4690682e-20 2.7095389e-05 -1.8332478e-22 1.3216849e-36)
(0.098113212 -0.00090154353 3.3873878e-20 2.6278826e-05 -1.2125737e-22 1.0861073e-36)
(0.11964927 -0.0008911761 1.5802417e-20 2.6123002e-05 -3.1769333e-23 2.0616273e-37)
(0.14441305 -0.00084807053 -8.1636143e-20 2.7070463e-05 4.5867064e-23 4.8518864e-36)
(0.17240785 -0.00077012236 -6.2837474e-20 2.9614821e-05 -5.0250438e-23 2.5716201e-36)
(0.20353743 -0.00066228058 1.6113754e-20 3.4053456e-05 3.3479081e-23 1.5360865e-37)
(0.23771184 -0.00052813658 -1.1330826e-19 4.0269028e-05 -3.7243426e-22 7.0064513e-36)
(0.27468577 -0.00036574564 -3.9425243e-20 4.7468929e-05 -1.7499766e-22 7.9616107e-37)
(0.31404723 -0.00016295358 4.0738729e-20 5.449684e-05 2.2628319e-22 8.1301069e-37)
(0.3551951 9.7602987e-05 1.0009633e-19 6.0229033e-05 6.6447657e-22 4.7870107e-36)
(0.39678965 0.00043566868 -6.1189805e-20 6.4172649e-05 -4.7079532e-22 1.782413e-36)
(0.43654419 0.00087135515 -3.7901372e-20 6.8214618e-05 -3.312337e-22 6.9716961e-37)
(0.47138667 0.0014455002 9.5749025e-20 7.1740131e-05 9.466887e-22 4.6520128e-36)
(0.49777262 0.0021693457 4.3224324e-20 7.3333112e-05 4.8283499e-22 1.0197685e-36)
(0.51146246 0.0029972765 2.8935502e-20 7.4931476e-05 3.6477109e-22 5.0861283e-37)
(0.50939827 0.0038650282 -2.1021811e-20 7.9247666e-05 -2.9910209e-22 3.0855666e-37)
(0.48755405 0.0047149667 5.1046561e-20 8.7051678e-05 8.2328675e-22 2.2090402e-36)
(0.44372571 0.0054356395 3.7538373e-20 9.7336554e-05 6.8936264e-22 1.5179584e-36)
(0.37856312 0.0058074752 8.0222716e-21 0.00010853055 1.6795033e-22 9.3979791e-38)
(0.29882863 0.0056369859 -1.7194633e-20 0.00011624072 -4.0737029e-22 6.1740652e-37)
(0.21712905 0.0048517439 -1.082301e-20 0.00011302388 -2.8628306e-22 3.7498577e-37)
(0.14656956 0.0037217191 -3.1511552e-20 9.7225684e-05 -9.1364722e-22 5.1008013e-36)
(0.092656107 0.0025301301 -3.568234e-21 7.1662228e-05 -1.1158217e-22 1.0927277e-37)
(0.057669729 0.0015833527 2.2932168e-20 4.5970134e-05 7.624458e-22 7.7150684e-36)
(0.034571327 0.00095627492 -1.3120136e-20 2.8747799e-05 -4.978343e-22 4.609694e-36)
(1.7704587e-10 -4.1363823e-09 6.8741929e-27 9.6675975e-08 -1.4158283e-25 1.8564903e-41)
(2.8280726e-09 -5.071828e-08 -2.3530697e-24 9.1128425e-07 3.8481677e-23 2.3590221e-37)
(1.2708972e-08 -1.8631767e-07 4.1602208e-24 2.7424723e-06 -5.5684057e-23 1.8673422e-37)
(3.9526134e-08 -4.7902873e-07 -1.9267647e-24 5.8423183e-06 2.1426214e-23 1.3871206e-38)
(1.0079239e-07 -1.0240049e-06 -6.2251796e-24 1.0492505e-05 5.8390279e-23 5.9157983e-38)
(2.2746712e-07 -1.9560103e-06 1.7672733e-23 1.6999147e-05 -1.4137077e-22 2.1583092e-37)
(4.7207214e-07 -3.4602798e-06 -2.6416264e-23 2.5684331e-05 1.8153608e-22 2.3430871e-37)
(9.208708e-07 -5.7852023e-06 3.2472483e-24 3.6872739e-05 -1.927044e-23 1.8127562e-39)
(1.7118917e-06 -9.2565721e-06 -1.3874593e-23 5.0872168e-05 7.137828e-23 1.7643418e-38)
(3.0609372e-06 -1.4292041e-05 -3.1600612e-25 6.7947078e-05 1.4135923e-24 5.0316914e-42)
(5.2982458e-06 -2.1413985e-05 -8.2861702e-23 8.8284862e-05 3.2303444e-22 1.9587798e-37)
(8.9189539e-06 -3.1258221e-05 1.7294982e-22 0.00011195549 -5.8867533e-22 4.9315999e-37)
(1.4650772e-05 -4.4575188e-05 1.8582108e-23 0.00013886706 -5.5295485e-23 3.3522607e-39)
(2.3542089e-05 -6.2219377e-05 -2.3651219e-22 0.00016872188 6.1586352e-22 3.2507038e-37)
(3.7072901e-05 -8.5122858e-05 9.2924752e-23 0.00020098131 -2.1185227e-22 3.048042e-38)
(5.7289334e-05 -0.00011425012 7.4925713e-23 0.00023484983 -1.49587e-22 1.2197694e-38)
(8.6960158e-05 -0.00015053502 -5.9907631e-22 0.00026929221 1.0473004e-21 4.8605769e-37)
(0.00012975108 -0.00019480719 2.4416115e-21 0.00030309663 -3.7364427e-21 5.0957804e-36)
(0.00019041127 -0.00024772437 -1.8980654e-21 0.00033499214 2.5414704e-21 1.9680353e-36)
(0.00027496965 -0.00030973874 2.8011296e-21 0.00036381792 -3.2799782e-21 2.7749318e-36)
(0.00039094755 -0.00038113192 -5.0547881e-21 0.00038872415 5.1736255e-21 5.9320813e-36)
(0.0005476114 -0.00046215038 1.5006049e-21 0.00040936322 -1.3420486e-21 3.4834182e-37)
(0.00075637595 -0.00055327036 7.4191843e-22 0.00042601426 -5.7973478e-22 5.7646926e-38)
(0.0010315748 -0.00065558664 -2.8839478e-21 0.00043958876 1.9693077e-21 5.9936641e-37)
(0.0013905649 -0.00077094565 1.221937e-20 0.00045150364 -7.2960311e-21 7.5372061e-36)
(0.0018549799 -0.00090201886 2.1294445e-21 0.00046333175 -1.1128414e-21 1.630912e-37)
(0.0024557008 -0.0010527573 -1.2777094e-20 0.00047615644 5.8505175e-21 4.2638621e-36)
(0.0032300838 -0.0012274692 1.6474003e-20 0.00049093479 -6.6135231e-21 5.2281147e-36)
(0.0042246498 -0.0014306266 -2.5878556e-21 0.00050839978 9.1120024e-22 9.6777351e-38)
(0.0055031224 -0.0016675436 -2.8807787e-20 0.0005287306 8.8949444e-21 9.0976217e-36)
(0.0071437063 -0.0019430384 3.378306e-21 0.00055180711 -9.1435378e-22 9.6424933e-38)
(0.0092452416 -0.002261818 2.916985e-20 0.00057730519 -6.9157777e-21 5.5948712e-36)
(0.011930211 -0.0026281939 8.2716816e-22 0.00060476189 -1.7170003e-22 3.5171396e-39)
(0.015348389 -0.0030457949 -2.7299289e-20 0.00063359827 4.954235e-21 3.0753906e-36)
(0.019680173 -0.0035171258 3.394327e-20 0.00066311377 -5.3816636e-21 3.8262115e-36)
(0.025139319 -0.0040429807 -1.6971811e-20 0.00069247941 2.3481372e-21 7.770797e-37)
(0.031973574 -0.0046215693 2.2078073e-20 0.00072073799 -2.6606065e-21 1.080238e-36)
(0.040462345 -0.005247355 7.7338345e-20 0.00074683182 -8.1009534e-21 1.0974746e-35)
(0.050909826 -0.0059096998 1.8994705e-20 0.00076971865 -1.7237774e-21 5.5330185e-37)
(0.063630893 -0.0065913709 8.0950528e-20 0.00078861863 -6.3322668e-21 8.4927447e-36)
(0.078929204 -0.0072677251 -1.1238769e-19 0.00080356009 7.5248898e-21 1.3979551e-35)
(0.097066294 -0.007907495 -1.1147521e-19 0.0008162164 6.3276084e-21 1.1859068e-35)
(0.11822434 -0.0084766573 -2.0439545e-20 0.00083078136 9.7082145e-22 3.4716327e-37)
(0.14248657 -0.0089450943 1.7332086e-19 0.00085425005 -6.7166997e-21 2.2137325e-35)
(0.16981316 -0.00929335 -8.6451642e-20 0.00089576766 2.6598514e-21 4.9281532e-36)
(0.2000738 -0.0095233888 -3.1311501e-20 0.00096414679 7.2990282e-22 5.8761143e-37)
(0.23306667 -0.0096434483 1.7331797e-20 0.0010607246 -2.8033971e-22 1.6709756e-37)
(0.26854009 -0.0096475802 5.5447602e-20 0.0011686883 -5.2994752e-22 1.6068206e-36)
(0.30611719 -0.0095013422 -2.7505182e-20 0.0012599535 9.0525725e-23 3.7940477e-37)
(0.3450252 -0.0090961892 5.0031185e-20 0.0013094296 1.3570795e-22 1.228419e-36)
(0.38382203 -0.0082586681 2.987601e-19 0.0013036755 2.5537797e-21 4.3835929e-35)
(0.42022202 -0.0068333778 1.3978552e-20 0.0012526022 2.0172875e-22 9.8462901e-38)
(0.45119404 -0.004731038 -6.0926978e-20 0.0011766871 -1.2373564e-21 1.9660577e-36)
(0.47329454 -0.0019382698 1.2913932e-19 0.0010938569 3.4444133e-21 9.5713641e-36)
(0.48297967 0.0014320579 -1.0328115e-19 0.0010317812 -3.4721359e-21 6.8615046e-36)
(0.47676952 0.0052677459 2.6908659e-19 0.0010033639 1.114411e-20 5.4315663e-35)
(0.4514654 0.0094060706 6.8911114e-20 0.0010111098 3.4777221e-21 4.3472913e-36)
(0.40527203 0.01333652 -1.6917148e-19 0.0010757284 -1.0330948e-20 3.3938234e-35)
(0.33939624 0.016171607 2.4391376e-20 0.0011988603 1.7813841e-21 9.6517228e-37)
(0.2610259 0.016838898 2.2695588e-20 0.0013283793 1.9526047e-21 1.2427035e-36)
(0.18288303 0.014902864 3.5989117e-21 0.0013363793 3.5495516e-22 4.9608735e-38)
(0.11764519 0.011418039 -3.6978129e-20 0.0011694281 -4.0673612e-21 8.7126139e-36)
(0.069875686 0.007572419 5.4208477e-20 0.00086075545 6.5058885e-21 3.301261e-35)
(0.039946698 0.0045872751 1.1994619e-20 0.00055968189 1.5573285e-21 2.957669e-36)
(0.021340281 0.0025703856 1.4068608e-20 0.00033844952 2.1011336e-21 8.1672407e-36)
(1.5057393e-09 -2.1501925e-08 1.0366287e-24 3.070598e-07 -1.4154062e-23 5.6427849e-38)
(1.7083736e-08 -2.2240287e-07 -1.681533e-24 2.8956522e-06 2.1064355e-23 2.1550259e-38)
(6.0567895e-08 -7.265395e-07 -7.9220935e-25 8.7175074e-06 9.1019832e-24 1.5236829e-39)
(1.5327159e-07 -1.6870086e-06 1.1578275e-24 1.8577562e-05 -1.2175624e-23 1.3692549e-39)
(3.2806731e-07 -3.3076926e-06 -8.0879127e-24 3.3375441e-05 7.782265e-23 3.2135509e-38)
(6.3636792e-07 -5.8636371e-06 -8.3358209e-25 5.4089275e-05 7.3335253e-24 1.7752964e-40)
(1.1571394e-06 -9.7187247e-06 -1.4377059e-23 8.174923e-05 1.1545577e-22 2.8961659e-38)
(2.0098621e-06 -1.5345852e-05 -2.0519806e-23 0.00011739538 1.5011016e-22 3.3583048e-38)
(3.3730723e-06 -2.3349251e-05 2.1903622e-22 0.00016201636 -1.4563935e-21 2.2402173e-36)
(5.5102746e-06 -3.4486612e-05 -2.5265247e-22 0.00021646595 1.5234455e-21 1.7827652e-36)
(8.8055113e-06 -4.9688092e-05 1.548471e-22 0.00028135636 -8.4482111e-22 4.073792e-37)
(1.3811282e-05 -7.0068149e-05 2.8851339e-22 0.0003569304 -1.4210577e-21 8.7218139e-37)
(2.1311709e-05 -9.6924712e-05 -7.2311145e-22 0.00044292 3.2082216e-21 3.4177818e-36)
(3.240383e-05 -0.00013171941 -1.125288e-22 0.00053840603 4.4870906e-22 5.2134982e-38)
(4.8599205e-05 -0.00017603232 5.4346999e-22 0.00064170421 -1.9432954e-21 7.7289218e-37)
(7.1947031e-05 -0.00023148753 4.6508785e-22 0.00075031215 -1.4878974e-21 3.6265256e-37)
(0.00010517836 -0.0002996515 -6.6809565e-22 0.00086096028 1.9079065e-21 4.8332268e-37)
(0.00015186958 -0.00038191723 2.9805105e-21 0.00096980962 -7.5805109e-21 6.2636883e-36)
(0.00021662241 -0.00047940169 -2.1589581e-21 0.0010728249 4.8794458e-21 2.1590967e-36)
(0.00030526201 -0.00059290342 1.3005241e-21 0.0011663168 -2.6063694e-21 5.1960973e-37)
(0.00042506223 -0.00072297818 -5.3062576e-21 0.0012475897 9.4112549e-21 5.8006637e-36)
(0.00058502094 -0.00087018458 -1.6578796e-21 0.0013155661 2.5978333e-21 3.8430099e-37)
(0.00079627546 -0.0010355439 4.1220722e-21 0.0013712012 -5.6987109e-21 1.6345506e-36)
(0.0010728699 -0.0012212148 -7.334005e-21 0.0014175112 8.9363947e-21 3.6114825e-36)
(0.0014321251 -0.0014308144 -3.3865629e-21 0.0014591571 3.6347869e-21 5.4566847e-37)
(0.001895145 -0.0016693418 4.7308015e-21 0.0015013513 -4.4723999e-21 7.6782807e-37)
(0.0024922825 -0.0019440981 3.1018408e-20 0.0015477691 -2.5830544e-20 2.4156308e-35)
(0.0032607346 -0.0022631073 1.6097845e-20 0.0016014363 -1.1807558e-20 4.8347385e-36)
(0.0042456729 -0.0026347884 -9.1592459e-21 0.0016649194 5.9163419e-21 1.1814384e-36)
(0.0055094607 -0.0030689922 1.1129473e-20 0.0017389161 -6.32792e-21 1.3308557e-36)
(0.0071283272 -0.0035748318 -7.8568942e-21 0.0018230799 3.9301109e-21 5.1464584e-37)
(0.0091983118 -0.0041612958 -5.0109173e-20 0.0019164312 2.2037059e-20 1.6361794e-35)
(0.011838135 -0.0048367637 1.8821391e-20 0.0020174943 -7.2724021e-21 1.827116e-36)
(0.015192617 -0.0056085455 6.2837631e-20 0.0021243983 -2.1318151e-20 1.6277135e-35)
(0.019435738 -0.0064820457 -2.3358317e-20 0.0022347949 6.9514902e-21 1.8188949e-36)
(0.024772783 -0.0074596531 -3.6348382e-20 0.0023458185 9.4820591e-21 3.5872177e-36)
(0.031440549 -0.0085391358 6.971852e-20 0.0024540564 -1.5920016e-20 1.0860574e-35)
(0.03970431 -0.0097114546 2.3469912e-20 0.0025556041 -4.683002e-21 1.0216414e-36)
(0.049849725 -0.010958088 -4.5823355e-20 0.0026463809 7.9653593e-21 3.270111e-36)
(0.06216758 -0.012248268 -2.0077943e-20 0.0027229841 3.0287994e-21 5.3197446e-37)
(0.076930062 -0.013537048 1.0493958e-19 0.0027843813 -1.3661753e-20 1.2426055e-35)
(0.094357321 -0.014766509 -3.2094133e-20 0.0028348423 3.5688403e-21 1.0087076e-36)
(0.11457882 -0.015872432 -4.9929102e-20 0.0028870562 4.6981304e-21 2.1332255e-36)
(0.13760798 -0.016797085 -1.4217154e-19 0.0029636519 1.1117659e-20 1.5320483e-35)
(0.16332502 -0.017504807 2.8584983e-19 0.0030955142 -1.8087543e-20 5.5745033e-35)
(0.19151662 -0.018003663 -1.9398944e-19 0.0033122327 9.577428e-21 2.3451085e-35)
(0.22193041 -0.018325598 -5.0853342e-20 0.0036148239 1.8571994e-21 1.4942546e-36)
(0.2542831 -0.018473654 -2.0671109e-19 0.0039488501 4.9661998e-21 2.3422493e-35)
(0.28813851 -0.018373952 -2.5194855e-19 0.0042260317 3.1166517e-21 3.3602712e-35)
(0.3226911 -0.017826445 -1.2879677e-20 0.0043559603 2.3085577e-23 8.6206669e-38)
(0.35649376 -0.016533581 5.4066868e-20 0.0042944144 5.1386134e-22 1.5369914e-36)
(0.38731032 -0.014222179 -3.891806e-19 0.004073637 -8.0511134e-21 8.2505178e-35)
(0.41227036 -0.010751592 -1.6011198e-19 0.0037683933 -5.1028246e-21 1.4842134e-35)
(0.42825857 -0.0061441328 -1.5621618e-19 0.0034543379 -6.8460795e-21 1.5483379e-35)
(0.43219696 -0.00055380889 -4.7847145e-20 0.0031950334 -2.733221e-21 1.6488256e-36)
(0.42113855 0.0058272032 -3.3724995e-19 0.0030280423 -2.4311866e-20 9.7150858e-35)
(0.39268141 0.012672788 1.193328e-19 0.0029788359 1.0706903e-20 1.5108274e-35)
(0.34558645 0.019188709 -3.1245929e-20 0.0031061084 -3.4662514e-21 1.380141e-36)
(0.28151381 0.023861997 -2.1457941e-19 0.0034312775 -2.9008946e-20 9.1827027e-35)
(0.20805817 0.024863432 -6.8599473e-20 0.0038034839 -1.113084e-20 1.4384828e-35)
(0.13781142 0.021544866 6.314393e-20 0.0038169835 1.1990145e-20 2.0289413e-35)
(0.082298684 0.015860704 1.6278543e-19 0.0033000322 3.5248573e-20 2.3943288e-34)
(0.044294351 0.0099500298 -3.7699721e-20 0.0023949626 -9.1484642e-21 2.4413907e-35)
(0.02211213 0.005571005 -4.2800549e-20 0.0015315274 -1.1643579e-20 6.3419605e-35)
(0.0098785523 0.0027573553 -1.2138001e-20 0.00088303288 -3.9551449e-21 1.1632526e-35)
(5.8916313e-09 -5.9905644e-08 -6.8340593e-24 6.0912229e-07 6.7943467e-23 6.3284022e-37)
(6.0523789e-08 -5.898222e-07 2.2789309e-23 5.7481112e-06 -2.1740407e-22 1.1203054e-36)
(1.9750849e-07 -1.8493123e-06 -1.397004e-23 1.7316331e-05 1.2754958e-22 1.4641959e-37)
(4.5962345e-07 -4.1196523e-06 2.2430275e-24 3.692831e-05 -1.9546766e-23 1.7296962e-39)
(9.0679938e-07 -7.7586847e-06 -6.1392818e-23 6.6394501e-05 5.0956479e-22 6.7568562e-37)
(1.6244827e-06 -1.3225082e-05 8.4727769e-23 0.00010769187 -6.6818784e-22 7.2292862e-37)
(2.7335656e-06 -2.1099574e-05 -1.6724615e-22 0.00016291504 1.2494897e-21 1.662256e-36)
(4.4039616e-06 -3.2108133e-05 1.0062588e-22 0.00023419645 -7.0982045e-22 3.6764583e-37)
(6.8732734e-06 -4.7146791e-05 4.8309562e-22 0.00032358897 -3.2062952e-21 5.3083618e-36)
(1.0471856e-05 -6.7304893e-05 -1.4530946e-22 0.00043290407 9.0408214e-22 3.064924e-37)
(1.565611e-05 -9.3883449e-05 -6.8746219e-22 0.00056350276 3.9947077e-21 4.4380825e-36)
(2.3052099e-05 -0.00012840366 2.5928988e-22 0.00071604167 -1.4018303e-21 4.1273628e-37)
(3.3511804e-05 -0.00017259939 2.1316878e-23 0.00089018724 -1.068157e-22 1.8390093e-39)
(4.8184365e-05 -0.00022838651 -1.0231986e-21 0.0010843256 4.7335848e-21 2.8081784e-36)
(6.8604646e-05 -0.00029780291 3.9119204e-21 0.0012953151 -1.6642932e-20 2.7360896e-35)
(9.6800594e-05 -0.00038291525 -2.9263461e-21 0.0015183502 1.140396e-20 1.0252905e-35)
(0.00013542109 -0.00048569762 -3.3878258e-23 0.0017470227 1.2045247e-22 9.2409268e-40)
(0.00018788502 -0.00060789873 2.3814734e-21 0.0019736725 -7.6945659e-21 3.086692e-36)
(0.00025855287 -0.0007509328 -7.2976617e-21 0.0021900944 2.1343801e-20 1.9694307e-35)
(0.00035292795 -0.00091585436 4.1389992e-21 0.0023886047 -1.0916671e-20 4.3324579e-36)
(0.00047789845 -0.0011034874 7.382877e-21 0.0025633596 -1.7497203e-20 9.4988057e-36)
(0.00064204362 -0.0013147742 3.5563648e-21 0.0027116742 -7.5484831e-21 1.5325598e-36)
(0.00085606481 -0.0015513863 -2.0801149e-20 0.0028349719 3.9425652e-20 3.6859695e-35)
(0.0011335347 -0.001816617 -1.2773027e-20 0.002938974 2.1564311e-20 9.8859455e-36)
(0.00149162 -0.0021160269 9.6337009e-21 0.003032937 -1.4458424e-20 4.0548999e-36)
(0.0019507065 -0.002456862 -6.5175944e-21 0.0031276732 8.683341e-21 1.3557053e-36)
(0.0025401439 -0.0028497222 2.8128829e-20 0.003231443 -3.3236465e-20 1.8731104e-35)
(0.0032968127 -0.0033062862 -9.2550738e-21 0.0033502093 9.6889744e-21 1.5239395e-36)
(0.0042640824 -0.0038386918 2.8429225e-20 0.0034897119 -2.6344224e-20 1.0948439e-35)
(0.0055018344 -0.0044609811 -1.8223547e-20 0.0036518228 1.4933844e-20 3.4696176e-36)
(0.0070834007 -0.0051863494 1.2736681e-20 0.0038360396 -9.2216108e-21 1.3213647e-36)
(0.0091004319 -0.006027685 -5.2570338e-20 0.0040405116 3.3598309e-20 1.7756571e-35)
(0.011665886 -0.0069970513 8.4661914e-21 0.0042622713 -4.772042e-21 3.6715415e-37)
(0.014916982 -0.008104959 -4.9941839e-20 0.0044974021 2.4808028e-20 1.0266715e-35)
(0.019017756 -0.0093592142 5.3275784e-20 0.0047409409 -2.330044e-20 9.4882588e-36)
(0.024160471 -0.010763207 1.8944373e-20 0.0049867057 -7.2895251e-21 9.8108238e-37)
(0.030565132 -0.012313551 -2.6136724e-19 0.0052271853 8.8322587e-20 1.5474537e-34)
(0.038475291 -0.013996822 -7.5196435e-20 0.0054536454 2.2284816e-20 1.0683304e-35)
(0.048148664 -0.015785554 6.8406495e-20 0.005656756 -1.7729062e-20 7.4528925e-36)
(0.059840136 -0.017633962 -7.3416568e-20 0.0058283481 1.6580246e-20 7.302656e-36)
(0.07377589 -0.019475038 2.0530281e-20 0.0059651123 -4.0181695e-21 4.9027138e-37)
(0.090118119 -0.021222215 1.3882837e-19 0.0060748523 -2.3364885e-20 1.9498809e-35)
(0.10892609 -0.022779962 -6.914634e-21 0.0061838082 9.8972514e-22 4.2624237e-38)
(0.13012839 -0.02406459 -5.3273212e-20 0.006340981 6.378879e-21 2.2475224e-36)
(0.15352647 -0.025036027 2.7357924e-20 0.0066152005 -2.6516369e-21 5.3949583e-37)
(0.17886273 -0.025730888 -1.4441583e-20 0.0070692326 1.1295138e-21 1.3569897e-37)
(0.20587554 -0.026220733 -4.2993364e-20 0.0076990716 2.4973826e-21 1.1382394e-36)
(0.23429818 -0.026531065 6.7835684e-19 0.0083859259 -2.6868065e-20 2.7131796e-34)
(0.26372926 -0.02654946 -7.6905373e-20 0.0089334086 1.6741762e-21 3.3988201e-36)
(0.29336574 -0.025959524 7.1147614e-20 0.0091438455 -3.8687988e-22 2.8945054e-36)
(0.32172667 -0.024316294 -6.6052235e-19 0.0089314424 -7.1563039e-21 2.5424455e-34)
(0.34659621 -0.021251249 3.5224932e-19 0.0083775277 9.5542308e-21 7.5613542e-35)
(0.36529398 -0.016627519 2.7781319e-19 0.0076557665 1.2272638e-20 5.0567153e-35)
(0.37510775 -0.010537035 2.4966905e-19 0.0069327697 1.5607271e-20 4.5394839e-35)
(0.37356532 -0.0032064359 2.2197062e-19 0.0063300359 1.8412494e-20 4.1395559e-35)
(0.35847293 0.005107811 3.1438864e-19 0.0059146646 3.3517666e-20 1.0018351e-34)
(0.32812003 0.013980972 -5.5297989e-19 0.0057381861 -7.4526227e-20 3.9347528e-34)
(0.2818469 0.02238218 2.9002734e-19 0.0059197799 4.8998825e-20 1.4671155e-34)
(0.22169997 0.028252409 3.6062094e-19 0.0065166125 7.5773127e-20 3.3315994e-34)
(0.15570917 0.02914533 -2.0817893e-19 0.0072261846 -5.3527962e-20 1.7756954e-34)
(0.096208873 0.02445285 -5.0059979e-20 0.0072115485 -1.5357678e-20 1.7966653e-35)
(0.052557682 0.017109775 -3.172152e-20 0.0061375822 -1.1320102e-20 1.3622234e-35)
(0.025191218 0.01002599 1.1397336e-19 0.0043691261 4.6539189e-20 3.5278317e-34)
(0.010862075 0.0051169084 5.705026e-20 0.0027190315 2.6658911e-20 1.9033846e-34)
(0.0040844226 0.0022250667 -1.6116167e-21 0.0015019515 -9.22237e-22 3.6942596e-37)
(1.5571073e-08 -1.2214025e-07 7.9368546e-24 9.580777e-07 -6.1434436e-23 3.1377171e-37)
(1.5362948e-07 -1.1790957e-06 -5.4084417e-23 9.0495598e-06 4.0928999e-22 2.4184992e-36)
(4.8364757e-07 -3.6327991e-06 7.3208247e-23 2.7287489e-05 -5.4045106e-22 1.6070955e-36)
(1.0828978e-06 -7.9421662e-06 -4.0014089e-23 5.8251917e-05 2.8762894e-22 2.2945845e-37)
(2.0529868e-06 -1.4671091e-05 -1.9606127e-23 0.00010485101 1.3698196e-22 2.9938867e-38)
(3.5289531e-06 -2.4512087e-05 2.2048177e-22 0.00017028152 -1.4942077e-21 2.2161128e-36)
(5.6897026e-06 -3.8307463e-05 -7.1186359e-23 0.0002579609 4.6679196e-22 1.4210719e-37)
(8.771498e-06 -5.707048e-05 -1.8932192e-22 0.00037141126 1.1978068e-21 6.4038758e-37)
(1.3085766e-05 -8.2006278e-05 -1.7960906e-23 0.00051408552 1.0930108e-22 3.7676811e-39)
(1.9042029e-05 -0.00011452882 -1.8689451e-22 0.0006891227 1.0903232e-21 2.7168857e-37)
(2.7177332e-05 -0.00015627044 3.1831556e-22 0.000899026 -1.7739418e-21 5.3221518e-37)
(3.8193653e-05 -0.00020907908 -2.676831e-22 0.0011452639 1.4197081e-21 2.5676941e-37)
(5.3005219e-05 -0.00027499779 -1.1887394e-21 0.0014278097 5.9765542e-21 3.4804585e-36)
(7.2797534e-05 -0.00035622003 -4.1510871e-23 0.0017446574 1.9702444e-22 2.9318829e-39)
(9.91006e-05 -0.0004550168 1.3085066e-21 0.0020913818 -5.8377486e-21 2.0230497e-36)
(0.0001338791 -0.00057363548 1.1085675e-21 0.0024608481 -4.6279947e-21 1.0111304e-36)
(0.0001796422 -0.00071417707 -1.1386689e-21 0.0028432089 4.4275916e-21 7.4502211e-37)
(0.0002395777 -0.00087847452 1.3012112e-22 0.0032263456 -4.6900344e-22 6.81979e-39)
(0.00031771643 -0.0010680119 3.1416151e-21 0.0035968841 -1.0445585e-20 2.7925642e-36)
(0.00041913722 -0.0012839469 4.5342173e-21 0.0039418323 -1.3839215e-20 4.1060095e-36)
(0.00055022834 -0.001527313 -6.1073391e-21 0.0042507087 1.7029509e-20 5.2873962e-36)
(0.00071902827 -0.0017994695 -7.2203327e-21 0.0045177999 1.8307797e-20 5.2808601e-36)
(0.00093567746 -0.0021028221 1.1357829e-20 0.0047439575 -2.6074654e-20 9.4154003e-36)
(0.0012131336 -0.0024418423 -1.6340156e-20 0.0049372431 3.3831148e-20 1.4177239e-35)
(0.0015681985 -0.0028240954 -3.2723768e-20 0.0051119453 6.0893243e-20 4.1811471e-35)
(0.0020206744 -0.0032591984 8.857269e-20 0.0052859792 -1.4772548e-19 2.279765e-34)
(0.0025983138 -0.0037609055 -5.5658066e-20 0.0054749548 8.3023516e-20 6.7828978e-35)
(0.0033372705 -0.0043442868 9.360974e-20 0.0056880887 -1.2464286e-19 1.4629697e-34)
(0.0042792478 -0.0050250377 -1.3213228e-19 0.0059355175 1.5676311e-19 2.2481942e-34)
(0.0054803059 -0.0058207055 1.6589749e-19 0.0062214756 -1.7509369e-19 2.7643853e-34)
(0.0070102008 -0.0067483415 -1.9217624e-19 0.0065456733 1.8017911e-19 2.9247184e-34)
(0.0089547914 -0.0078241628 3.6109883e-20 0.0069053659 -3.0035114e-20 8.2261667e-36)
(0.011419539 -0.009063309 1.388827e-19 0.0072956912 -1.0236396e-19 9.772931e-35)
(0.014531734 -0.010478799 -8.6962202e-20 0.0077100026 5.6731024e-20 3.107204e-35)
(0.018442468 -0.012080064 3.0104064e-20 0.0081397478 -1.736218e-20 3.0468825e-36)
(0.023327301 -0.013870659 9.6961913e-21 0.0085740828 -4.9378403e-21 2.6106017e-37)
(0.029384773 -0.01584509 1.3169169e-19 0.0089996413 -5.9156382e-20 3.9997711e-35)
(0.036831114 -0.01798452 4.7099135e-20 0.0094006925 -1.8630452e-20 4.2895416e-36)
(0.04588948 -0.020251349 5.1896638e-20 0.0097601264 -1.8024171e-20 4.4120002e-36)
(0.056771665 -0.022583608 5.5796198e-20 0.010062516 -1.6951678e-20 4.3676457e-36)
(0.069650879 -0.024891187 -3.0764911e-19 0.010300632 8.1314912e-20 1.1482161e-34)
(0.084625719 -0.027058899 1.4523411e-19 0.010486908 -3.3138078e-20 2.2372791e-35)
(0.10168381 -0.028962892 2.4758312e-20 0.010667281 -4.840414e-21 5.7204016e-37)
(0.12068132 -0.030504927 -3.0196741e-19 0.010931006 4.9450116e-20 7.6827772e-35)
(0.14138007 -0.031667016 -1.6084223e-19 0.011404178 2.1688116e-20 1.9852758e-35)
(0.16354072 -0.03254582 8.2221996e-20 0.012194558 -8.8527425e-21 4.8164058e-36)
(0.18697465 -0.033270665 3.0781436e-19 0.013273009 -2.5114365e-20 6.3696995e-35)
(0.21149377 -0.033872758 -1.3630098e-19 0.014417136 7.8105218e-21 1.2041015e-35)
(0.23671523 -0.034154795 4.0083653e-19 0.015270718 -1.3302142e-20 1.0242945e-34)
(0.26174935 -0.033641439 2.1663359e-19 0.015493614 -2.3073725e-21 3.0101215e-35)
(0.28498667 -0.031733025 2.9330343e-19 0.014967732 3.2850903e-21 5.6855171e-35)
(0.30417721 -0.028002989 7.6186826e-19 0.013869267 2.5829845e-20 4.0601644e-34)
(0.31683677 -0.022381386 -5.6051541e-19 0.012520457 -3.2170008e-20 2.3972961e-34)
(0.32073096 -0.015087386 1.710866e-19 0.011208932 1.4266958e-20 2.5142752e-35)
(0.3140757 -0.006445079 -2.688054e-19 0.010121427 -3.0132353e-20 7.3063439e-35)
(0.29548395 0.0032266738 -2.2833843e-19 0.0093546938 -3.3406809e-20 6.4825878e-35)
(0.26399962 0.013439903 -7.7594064e-20 0.0089827401 -1.4588324e-20 9.7512302e-36)
(0.21960628 0.023001425 -5.9198757e-19 0.0091937218 -1.4173146e-19 7.9525555e-34)
(0.16480246 0.02939206 -1.2795047e-19 0.010101042 -3.8826761e-20 5.6710288e-35)
(0.10808165 0.029731754 2.2480333e-19 0.011190576 8.5110463e-20 2.9335378e-34)
(0.061107947 0.023861505 6.2647309e-20 0.011063412 2.8796924e-20 4.1664118e-35)
(0.029882228 0.015663142 -3.3291859e-20 0.0092333626 -1.8032053e-20 2.3206972e-35)
(0.012561807 0.0084745924 -4.7732796e-20 0.0064173382 -2.9772715e-20 9.9182771e-35)
(0.0047441154 0.0039307642 -5.0667572e-20 0.0038668286 -3.5876388e-20 2.404385e-34)
(0.0016689907 0.0015428963 2.5199602e-21 0.0020566735 2.1258981e-21 1.3981537e-36)
(3.2170374e-08 -2.0435385e-07 3.5708941e-23 1.2981066e-06 -2.2481508e-22 2.9129861e-36)
(3.1122944e-07 -1.9546469e-06 2.5535891e-23 1.2276061e-05 -1.5869306e-22 2.5373797e-37)
(9.6230108e-07 -5.9719458e-06 -3.3904162e-23 3.7062053e-05 2.0760964e-22 1.6633406e-37)
(2.1121561e-06 -1.2935544e-05 -1.7888137e-22 7.9224945e-05 1.0781135e-21 2.2673891e-36)
(3.9203517e-06 -2.3660991e-05 1.3137024e-22 0.00014281505 -7.7833116e-22 6.8048756e-37)
(6.5878523e-06 -3.9119341e-05 -2.4422536e-22 0.00023232313 1.4203309e-21 1.4093439e-36)
(1.0367239e-05 -6.0455543e-05 1.3310257e-22 0.00035260538 -7.5845688e-22 2.6376499e-37)
(1.557497e-05 -8.9003432e-05 3.9216445e-23 0.00050874453 -2.1849607e-22 1.4956894e-38)
(2.2606941e-05 -0.00012629762 -2.7094561e-22 0.00070583555 1.4725131e-21 4.7895616e-37)
(3.1957601e-05 -0.00017407774 -7.0571017e-22 0.00094867415 3.7313623e-21 2.2233613e-36)
(4.4243708e-05 -0.00023428213 -4.2500022e-23 0.0012413368 2.1799687e-22 5.5980774e-39)
(6.023373e-05 -0.00030902627 1.6602367e-21 0.001586645 -8.2354571e-21 6.0010222e-36)
(8.0884432e-05 -0.00040056197 -2.7283999e-21 0.0019855272 1.3043894e-20 1.1474492e-35)
(0.00010738671 -0.00051121412 5.2168845e-21 0.0024363175 -2.3949127e-20 2.9883773e-35)
(0.00014122318 -0.00064329373 -1.6105242e-21 0.0029340721 7.0712018e-21 2.0380558e-36)
(0.00018424102 -0.00079899164 4.034193e-21 0.0034700378 -1.6868074e-20 9.1823803e-36)
(0.00023874626 -0.00098026835 -5.740407e-21 0.0040314597 2.275284e-20 1.3389106e-35)
(0.00030762451 -0.0011887622 4.3802276e-21 0.0046019593 -1.6377552e-20 5.6287058e-36)
(0.00039450132 -0.0014257658 -8.1155368e-22 0.0051627057 2.8476832e-21 1.3993094e-37)
(0.00050395415 -0.0016923276 -3.8514158e-21 0.0056945123 1.2615297e-20 2.2895259e-36)
(0.00064179291 -0.0019895492 1.0923084e-20 0.0061807741 -3.3216475e-20 1.343742e-35)