/*--------------------------------*- C++ -*----------------------------------*\
  =========                 |
  \\      /  F ield         | OpenFOAM: The Open Source CFD Toolbox
   \\    /   O peration     | Website:  https://openfoam.org
    \\  /    A nd           | Version:  13
     \\/     M anipulation  |
\*---------------------------------------------------------------------------*/
FoamFile
{
    format      ascii;
    class       volSymmTensorField;
    location    "46.797238";
    object      UPrime2Mean;
}
// * * * * * * * * * * * * * * * * * * * * * * * * * * * * * * * * * * * * * //

dimensions      [0 2 -2 0 0 0 0];

internalField   nonuniform List<symmTensor> 
17140
(
(6.0821986e-12 -3.8686312e-10 -7.5244206e-28 2.6018574e-08 1.0409439e-26 4.5781435e-41)
(3.8464821e-10 -5.9650594e-09 -3.1834221e-28 2.4880074e-07 2.1978761e-27 4.0674812e-43)
(3.2663216e-09 -2.4663827e-08 5.0589676e-26 7.5817048e-07 -2.2562307e-25 1.7731967e-39)
(1.5121129e-08 -6.8954726e-08 -1.0609945e-25 1.6387992e-06 3.4306358e-25 2.1430069e-39)
(5.0272671e-08 -1.5685615e-07 2.1015075e-26 2.9939679e-06 -5.2457149e-26 2.9287652e-41)
(1.3741051e-07 -3.1467617e-07 -1.0837355e-25 4.9485084e-06 2.1731636e-25 3.1370924e-40)
(3.2994326e-07 -5.7969829e-07 -2.7443844e-25 7.6519038e-06 4.5203047e-25 8.8917659e-40)
(7.2225107e-07 -1.0034887e-06 1.9490388e-25 1.1281347e-05 -2.6743181e-25 2.1193239e-40)
(1.4748164e-06 -1.6558933e-06 9.0650007e-25 1.6044493e-05 -1.0462551e-24 2.2705897e-39)
(2.8521545e-06 -2.6295589e-06 3.0990361e-24 2.2181537e-05 -3.0307965e-24 1.3660167e-38)
(5.2788032e-06 -4.0447217e-06 -6.307145e-24 2.9966127e-05 5.2563592e-24 3.0037491e-38)
(9.4201411e-06 -6.053788e-06 7.6217348e-24 3.9704424e-05 -5.4366625e-24 2.3856389e-38)
(1.6296321e-05 -8.8449373e-06 1.566981e-24 5.1731507e-05 -9.6004659e-25 5.5890415e-40)
(2.7438742e-05 -1.2643583e-05 -1.1776153e-23 6.640412e-05 6.2188912e-24 1.787778e-38)
(4.5098734e-05 -1.7710159e-05 1.7267478e-24 8.4088697e-05 -7.8759538e-25 2.2038395e-40)
(7.251666e-05 -2.4332339e-05 -1.7925758e-23 0.00010514358 7.0784926e-24 1.3828077e-38)
(0.00011425533 -3.2809804e-05 8.6571104e-25 0.0001298945 -2.9647107e-25 1.9151873e-41)
(0.00017659383 -4.3430073e-05 -2.5610958e-25 0.0001586028 7.6001057e-26 9.588955e-43)
(0.00026796546 -5.6435236e-05 -2.2964667e-23 0.00019142648 5.9302917e-24 4.8232095e-39)
(0.00039940904 -7.1981756e-05 3.7962188e-23 0.0002283752 -8.5257594e-24 8.0869483e-39)
(0.00058498861 -9.0098901e-05 -2.3158763e-23 0.00026926157 4.5244071e-24 1.8674791e-39)
(0.00084213108 -0.00011065503 5.5190772e-24 0.00031365313 -9.3969905e-25 6.7594493e-41)
(0.0011918422 -0.00013334304 5.0678881e-23 0.00036083159 -7.496358e-24 3.6383445e-39)
(0.0016588233 -0.00015769635 -6.2185772e-23 0.00040977004 8.0044725e-24 3.5786076e-39)
(0.0022716777 -0.00018314343 -1.2043084e-22 0.00045914393 1.3474038e-23 8.9589075e-39)
(0.0030630316 -0.00020907889 1.1633584e-22 0.00050739689 -1.1314187e-23 5.7109666e-39)
(0.0040694698 -0.00023488295 6.8141176e-22 0.00055287682 -5.754623e-23 1.3598943e-37)
(0.0053339126 -0.00026006088 9.5048354e-23 0.0005940172 -6.9601052e-24 1.8645325e-39)
(0.0069068278 -0.0002842938 -9.7185371e-22 0.00062951419 6.1768077e-23 1.4219555e-37)
(0.0088471691 -0.00030700394 -2.6426551e-22 0.00065845886 1.4553134e-23 7.7113411e-39)
(0.011225052 -0.00032774181 -1.0861064e-21 0.00068037561 5.1787261e-23 9.7692483e-38)
(0.014122187 -0.0003462405 1.6363455e-21 0.00069522351 -6.7458581e-23 1.6884843e-37)
(0.017634651 -0.00036177404 -4.8694844e-22 0.00070359331 1.7293049e-23 1.1462677e-38)
(0.021872562 -0.0003733772 -2.6333046e-22 0.00070676832 8.0418131e-24 2.6230267e-39)
(0.026959651 -0.00037968375 -2.9317543e-21 0.00070642945 7.6198993e-23 2.5455181e-37)
(0.033030917 -0.00037880838 1.4437319e-21 0.00070417517 -3.1830056e-23 4.9317898e-38)
(0.040228139 -0.00036824535 -2.4401323e-21 0.00070121981 4.5096698e-23 1.1276222e-37)
(0.048692303 -0.00034480585 -1.8399122e-21 0.00069841322 2.8181627e-23 5.201752e-38)
(0.058551506 -0.00030461054 -9.3408541e-22 0.00069649223 1.1656662e-23 1.0977735e-38)
(0.069902488 -0.00024313242 3.1089107e-21 0.00069642835 -3.1049345e-23 1.013733e-37)
(0.082785005 -0.00015550184 6.42139e-21 0.00069975722 -4.9672991e-23 3.6227891e-37)
(0.097149578 -3.6969973e-05 6.330132e-21 0.00070875469 -3.630735e-23 2.9861671e-37)
(0.1128206 0.00011629912 2.9798892e-21 0.0007263692 -1.1793412e-23 5.6837135e-38)
(0.12946628 0.00030652162 -1.5588888e-20 0.00075599853 3.6596165e-23 1.3408858e-36)
(0.14658677 0.00053306252 -1.2141846e-20 0.00080136234 1.1066298e-23 7.12272e-37)
(0.16351438 0.00079019563 3.1518183e-21 0.00086681564 1.2033558e-24 4.263114e-38)
(0.17951515 0.0010703363 -2.2485412e-20 0.00095826339 -3.5058941e-23 1.9480807e-36)
(0.19388675 0.0013690028 -7.9536075e-21 0.0010844324 -2.0909555e-23 2.2173949e-37)
(0.20586782 0.0016817939 8.3732995e-21 0.0012582694 3.0132036e-23 2.267845e-37)
(0.21504038 0.0020008419 2.1022203e-20 0.0014979164 9.3673801e-23 1.3372212e-36)
(0.2210617 0.0023190536 -1.3173749e-20 0.0018300093 -6.8283497e-23 4.9856282e-37)
(0.22375887 0.0026354225 -8.4015576e-21 0.0022950302 -4.8380744e-23 1.9524375e-37)
(0.22304519 0.002956525 2.1980483e-20 0.0029535862 1.3654251e-22 1.3042472e-36)
(0.2191797 0.0032695789 1.0348149e-20 0.0038977473 6.7084904e-23 2.8619374e-37)
(0.21263313 0.003522404 7.2899381e-21 0.0052676333 4.760995e-23 1.4287148e-37)
(0.20436516 0.0036414363 -5.6416029e-21 0.0072843544 -3.6402641e-23 8.6745926e-38)
(0.19565839 0.0035692717 1.4794858e-20 0.010237734 9.082312e-23 6.2150788e-37)
(0.18745178 0.003329256 1.1963712e-20 0.014470519 7.5512608e-23 4.2735598e-37)
(0.18043406 0.0029408201 2.8669927e-21 0.019980914 2.2468227e-23 2.647402e-38)
(0.17440348 0.0019840789 -7.0150051e-21 0.026408005 -8.3214753e-23 1.7401102e-37)
(0.1688242 0.00020993797 -5.0896613e-21 0.033304177 -8.844187e-23 1.0572867e-37)
(0.1626073 -0.0015377576 -1.7191163e-20 0.040204832 -4.0473365e-22 1.4387442e-36)
(0.15287939 -0.0027609002 -2.2434454e-21 0.046864725 -6.3404577e-23 3.0831889e-38)
(0.14067731 -0.0026747603 1.6650113e-20 0.050030215 4.6413687e-22 2.1774672e-36)
(0.12075248 -0.0011415385 -1.0942833e-20 0.048842687 -2.6904821e-22 1.3013334e-36)
(2.4719849e-10 -5.8102536e-09 8.4761027e-28 1.3661223e-07 -1.6123395e-26 3.7075332e-42)
(3.8014972e-09 -6.9761481e-08 -2.7154065e-25 1.2954843e-06 4.0756664e-24 4.8806496e-38)
(1.6783498e-08 -2.5285026e-07 4.5433229e-25 3.9174145e-06 -5.5466778e-24 3.8649469e-38)
(5.1737984e-08 -6.4414333e-07 -2.0320465e-25 8.3952138e-06 2.0612812e-24 2.8724287e-39)
(1.3152246e-07 -1.3695406e-06 -6.429117e-25 1.5189693e-05 5.5219167e-24 1.2257859e-38)
(2.9696179e-07 -2.6097425e-06 1.8029245e-24 2.4832499e-05 -1.329908e-23 4.4755244e-38)
(6.1815794e-07 -4.6174842e-06 -2.6785068e-24 3.7925943e-05 1.7113126e-23 4.8632302e-38)
(1.2118041e-06 -7.7387736e-06 3.288748e-25 5.5137675e-05 -1.8296477e-24 3.7668325e-40)
(2.2674731e-06 -1.2438828e-05 -1.4091076e-24 7.7188214e-05 6.8512589e-24 3.6714324e-39)
(4.0865658e-06 -1.933145e-05 -3.2587319e-26 0.00010482867 1.3895881e-25 1.0488592e-42)
(7.138985e-06 -2.9210637e-05 -8.5423412e-24 0.00013880628 3.1967702e-23 4.0918646e-38)
(1.2143934e-05 -4.3081581e-05 1.8032838e-23 0.00017981514 -5.9376879e-23 1.0328922e-37)
(2.0182661e-05 -6.2186622e-05 1.9648889e-24 0.00022843073 -5.7013049e-24 7.0433776e-40)
(3.2851973e-05 -8.8019285e-05 -2.5412637e-23 0.00028502829 6.5060294e-23 6.8562519e-38)
(5.2467516e-05 -0.00012231714 1.0162873e-23 0.00034968843 -2.2979071e-23 6.4585681e-39)
(8.2324395e-05 -0.00016702225 8.3610356e-24 0.00042209725 -1.6708892e-23 2.5989019e-39)
(0.00012701863 -0.00022419724 -6.8356577e-23 0.00050145427 1.2078427e-22 1.0424119e-37)
(0.00019282562 -0.00029588782 2.851408e-22 0.00058640746 -4.4557869e-22 1.1012702e-36)
(0.00028812042 -0.0003839299 -2.2722837e-22 0.00067503921 3.1400797e-22 4.2911805e-37)
(0.00042381096 -0.00048971399 3.4429822e-22 0.00076492791 -4.2063224e-22 6.1123368e-37)
(0.00061374277 -0.00061394137 -6.3835719e-22 0.00085330282 6.89184e-22 1.3216686e-36)
(0.00087502861 -0.00075643104 1.9486629e-22 0.00093729165 -1.8581254e-22 7.8595913e-38)
(0.0012282668 -0.00091605546 9.9070026e-23 0.0010142332 -8.3379568e-23 1.3185759e-38)
(0.0016976685 -0.0010908876 -3.966869e-22 0.001081996 2.9441656e-22 1.3909711e-37)
(0.0023112762 -0.0012786245 1.7279914e-21 0.0011392274 -1.1304273e-21 1.775758e-36)
(0.0031011582 -0.0014771584 3.102637e-22 0.0011854744 -1.7870146e-22 3.9018367e-38)
(0.004103242 -0.0016850076 -1.9058137e-21 0.0012211135 9.6698325e-22 1.0358743e-36)
(0.0053597187 -0.0019018753 2.5192596e-21 0.0012469544 -1.1249438e-21 1.2892106e-36)
(0.0069203161 -0.0021286143 -4.0260935e-22 0.0012640382 1.5836565e-22 2.420024e-38)
(0.0088429759 -0.0023662887 -4.5958837e-21 0.0012735863 1.5879566e-21 2.3051527e-36)
(0.011196628 -0.0026164249 5.4738502e-22 0.0012765558 -1.6625228e-22 2.4733866e-38)
(0.01406148 -0.0028805353 4.8269645e-21 0.0012734997 -1.2847206e-21 1.4512571e-36)
(0.017531733 -0.0031591459 1.424995e-22 0.0012649553 -3.2990155e-23 9.2148681e-40)
(0.021715127 -0.0034514654 -4.6611902e-21 0.0012517018 9.4882871e-22 8.1294616e-37)
(0.026732389 -0.0037548308 5.8765977e-21 0.0012346456 -1.0429332e-21 1.0193242e-36)
(0.032714727 -0.0040642107 -2.9809829e-21 0.0012145086 4.6013784e-22 2.084272e-37)
(0.039799163 -0.0043716577 3.9165483e-21 0.0011916513 -5.2527706e-22 2.9144995e-37)
(0.048120695 -0.0046655711 1.3904588e-20 0.0011661736 -1.6157682e-21 2.9761274e-36)
(0.057799922 -0.0049297881 3.4602377e-21 0.0011382493 -3.4771237e-22 1.5070849e-37)
(0.068924377 -0.0051427209 1.4886941e-20 0.0011086119 -1.2913052e-21 2.3221699e-36)
(0.081522677 -0.0052770825 -2.0845066e-20 0.0010790939 1.5557815e-21 3.8353171e-36)
(0.095532238 -0.005300809 -2.0910203e-20 0.0010530106 1.3363987e-21 3.2632241e-36)
(0.11076272 -0.0051798605 -3.8914758e-21 0.0010353552 2.1170653e-22 9.578e-38)
(0.12686582 -0.0048832298 3.3148712e-20 0.0010328623 -1.5222643e-21 6.1219924e-36)
(0.14332119 -0.0043904586 -1.6783082e-20 0.0010539854 6.4303625e-22 1.3657726e-36)
(0.15944538 -0.0037024224 -6.1660836e-21 0.0011087726 1.9409708e-22 1.6316547e-37)
(0.17447111 -0.0028460813 3.4399208e-21 0.001208307 -8.7053669e-23 4.6481829e-38)
(0.18767197 -0.0018634799 1.1234205e-20 0.001363255 -2.2095984e-22 4.4769943e-37)
(0.19841727 -0.00081027068 -5.6787172e-21 0.0015828613 8.3378997e-23 1.0587065e-37)
(0.20622599 0.00025730126 1.0574047e-20 0.0018795001 -1.0746147e-22 3.4325722e-37)
(0.21080477 0.0013086056 6.4773374e-20 0.0022752546 -4.0047086e-22 1.2264726e-35)
(0.21202162 0.0023225445 3.1210982e-21 0.0028097753 -8.1006034e-24 2.7580976e-38)
(0.20992681 0.003267015 -1.4118513e-20 0.0035476776 -6.2280175e-24 5.5131782e-37)
(0.20485377 0.0040856278 3.1278066e-20 0.0045847094 1.0074182e-22 2.6866209e-36)
(0.19752103 0.0046861996 -2.6390291e-20 0.0060600998 -1.497642e-22 1.9276982e-36)
(0.18898891 0.0049693995 7.3441695e-20 0.0081785383 5.7625848e-22 1.5271983e-35)
(0.18056998 0.0049068373 2.0401923e-20 0.011191564 2.0918438e-22 1.2232151e-36)
(0.17328437 0.0045348387 -5.5387212e-20 0.015396684 -7.2428138e-22 9.5555538e-36)
(0.16773504 0.0038221696 9.0056011e-21 0.020830539 1.7027985e-22 2.7190409e-37)
(0.16383745 0.0021362967 9.6637242e-21 0.027245429 2.6286501e-22 3.5026607e-37)
(0.16051553 -0.00072328199 1.7908117e-21 0.033913448 6.9040236e-23 1.3988059e-38)
(0.15627594 -0.0037535156 -2.164656e-20 0.040319065 -1.1226144e-21 2.4575886e-36)
(0.14748613 -0.0060115253 3.7370654e-20 0.046485175 2.3278892e-21 9.3149364e-36)
(0.13579148 -0.0060965515 9.8304798e-21 0.049136097 6.6439542e-22 8.3477693e-37)
(0.11572567 -0.0044464525 1.377896e-20 0.0476966 9.7377237e-22 2.3056726e-36)
(1.9659863e-09 -2.809484e-08 1.2178448e-25 4.014953e-07 -1.612343e-24 1.1268979e-38)
(2.233434e-08 -2.913789e-07 -1.8539639e-25 3.8038098e-06 2.2325713e-24 4.458583e-39)
(7.9202699e-08 -9.5316223e-07 -8.2716381e-26 1.1492005e-05 9.0611031e-25 3.1536473e-40)
(2.0074437e-07 -2.2183434e-06 1.1720106e-25 2.4603476e-05 -1.1690866e-24 2.8354273e-40)
(4.3094086e-07 -4.3644837e-06 -8.0616318e-25 4.4464643e-05 7.3398799e-24 6.658647e-39)
(8.3945764e-07 -7.7729781e-06 -8.2744073e-26 7.2594646e-05 6.8901179e-25 3.6812946e-41)
(1.5347679e-06 -1.2958955e-05 -1.4251073e-24 0.00011069893 1.0849285e-23 6.0111933e-39)
(2.6833976e-06 -2.0607563e-05 -2.0433358e-24 0.00016064617 1.4208033e-23 6.9784524e-39)
(4.5382737e-06 -3.1618134e-05 2.1969805e-23 0.00022442074 -1.3929393e-22 4.6617309e-37)
(7.4791125e-06 -4.7152639e-05 -2.5602528e-23 0.00030404454 1.4775447e-22 3.7162971e-37)
(1.2069768e-05 -6.8687808e-05 1.588883e-23 0.00040145975 -8.3318034e-23 8.5103199e-38)
(1.9137906e-05 -9.8064782e-05 3.0046016e-23 0.00051836544 -1.4292294e-22 1.8268011e-37)
(2.9883932e-05 -0.00013752919 -7.6555036e-23 0.00065600432 3.2980182e-22 7.1814799e-37)
(4.6026738e-05 -0.00018975 -1.2141564e-23 0.00081490145 4.7300212e-23 1.0997072e-38)
(6.9993821e-05 -0.00025780133 5.9792942e-23 0.00099456693 -2.1031325e-22 1.6379121e-37)
(0.00010516217 -0.00034508875 5.230073e-23 0.0011931897 -1.6584638e-22 7.7282933e-38)
(0.00015615272 -0.00045520037 -7.6888785e-23 0.0014073683 2.1946559e-22 1.0368198e-37)
(0.00022917493 -0.00059166741 3.5158482e-22 0.0016319452 -9.0187682e-22 1.3541627e-36)
(0.0003324086 -0.00075763216 -2.612548e-22 0.0018600289 6.0128291e-22 4.7100858e-37)
(0.00047639884 -0.00095544574 1.6173581e-22 0.0020832879 -3.3340283e-22 1.1452813e-37)
(0.00067442939 -0.0011862549 -6.7816483e-22 0.0022925819 1.2499903e-21 1.2934596e-36)
(0.00094283652 -0.0014496809 -2.1795922e-22 0.0024789267 3.585778e-22 8.6798843e-38)
(0.001301234 -0.0017437261 5.5746516e-22 0.0026346943 -8.1723599e-22 3.7434372e-37)
(0.0017726636 -0.0020650496 -1.0206695e-21 0.0027548211 1.33102e-21 8.3936544e-37)
(0.0023838368 -0.0024097313 -4.8531254e-22 0.0028377134 5.6200094e-22 1.2877489e-37)
(0.0031654738 -0.0027743574 6.9439486e-22 0.0028855574 -7.1357401e-22 1.8404085e-37)
(0.0041519509 -0.0031567553 4.6772211e-21 0.0029037834 -4.2568913e-21 5.880385e-36)
(0.0053837285 -0.0035570385 2.4888281e-21 0.0028992752 -2.0039828e-21 1.1947295e-36)
(0.0069086562 -0.0039773836 -1.4413032e-21 0.00287882 1.0267224e-21 2.9608039e-37)
(0.0087822524 -0.0044205902 1.795761e-21 0.0028484048 -1.1281395e-21 3.3796379e-37)
(0.011070603 -0.0048902045 -1.2817816e-21 0.0028123479 7.1090964e-22 1.3230461e-37)
(0.013850219 -0.0053895047 -8.3540789e-21 0.0027728352 4.0718308e-21 4.2533163e-36)
(0.017210729 -0.0059202205 3.1878123e-21 0.0027305181 -1.3642525e-21 4.797123e-37)
(0.021254101 -0.0064816315 1.0812688e-20 0.0026851744 -4.0539817e-21 4.3112418e-36)
(0.026093825 -0.0070696425 -4.0594923e-21 0.0026359868 1.3324553e-21 4.8547021e-37)
(0.031852053 -0.0076759145 -6.4211965e-21 0.002581594 1.8394147e-21 9.6383044e-37)
(0.038654508 -0.0082868856 1.2478347e-20 0.0025201467 -3.117134e-21 2.9348896e-36)
(0.046622098 -0.0088823942 4.2630355e-21 0.0024495427 -9.2719769e-22 2.7745407e-37)
(0.055857896 -0.0094339125 -8.3832701e-21 0.0023678841 1.5872352e-21 8.919037e-37)
(0.066427915 -0.0099028439 -3.7047837e-21 0.0022742415 6.094251e-22 1.4563388e-37)
(0.078334865 -0.010239713 1.9613534e-20 0.0021696842 -2.7949361e-21 3.412825e-36)
(0.091485728 -0.010385613 -6.0269751e-21 0.0020585177 7.4141646e-22 2.778343e-37)
(0.10565595 -0.010277135 -9.5010936e-21 0.0019495682 1.005561e-21 5.8905825e-37)
(0.12046093 -0.0098559175 -2.742825e-20 0.0018573756 2.4798622e-21 4.2401231e-36)
(0.13534341 -0.0090833176 5.5792521e-20 0.0018026132 -4.2682706e-21 1.5459716e-35)
(0.14959681 -0.007961629 -3.842746e-20 0.001810931 2.4569257e-21 6.5157836e-36)
(0.16247098 -0.0065501055 -1.0273021e-20 0.0019078259 5.4127386e-22 4.1587952e-37)
(0.17326975 -0.0049428054 -4.2361077e-20 0.0021089153 1.7964779e-21 6.5291513e-36)
(0.18143069 -0.0032406262 -5.2691918e-20 0.0024156942 1.7554645e-21 9.3804785e-36)
(0.18658755 -0.001548183 -2.7632559e-21 0.0028256269 7.1170148e-23 2.4097586e-38)
(0.18860497 6.4438529e-05 1.193751e-20 0.0033467819 -2.1387541e-22 4.3016329e-37)
(0.1875215 0.0015549531 -8.8554431e-20 0.0040151117 9.8125532e-22 2.3117031e-35)
(0.18358039 0.0028705639 -3.7868901e-20 0.004902422 1.9841784e-22 4.1629254e-36)
(0.17728548 0.003917057 -3.8717194e-20 0.0061116301 -2.333154e-24 4.3469083e-36)
(0.16955174 0.004573802 -1.255942e-20 0.0077759429 -6.5985785e-23 4.6330027e-37)
(0.16154286 0.0047435655 -9.4965759e-20 0.010071533 -9.0331201e-22 2.7319739e-35)
(0.15459772 0.0044571172 3.6654786e-20 0.013194409 5.4507714e-22 4.251556e-36)
(0.14960419 0.0038125372 -1.069485e-20 0.017381313 -2.1976578e-22 3.8862801e-37)
(0.14688298 0.002719176 -8.3659517e-20 0.022676575 -2.5507672e-21 2.5871303e-35)
(0.14634371 0.00036806057 -3.1158012e-20 0.028895833 -1.4084012e-21 4.0547366e-36)
(0.14604299 -0.0032278142 3.4024996e-20 0.034950443 2.1512065e-21 5.7212452e-36)
(0.14414354 -0.007030881 1.0561121e-19 0.040424339 8.802698e-21 6.7540201e-35)
(0.13616704 -0.0098153623 -2.9605579e-20 0.045521453 -2.988159e-21 6.8889177e-36)
(0.12538586 -0.009789905 -4.1549665e-20 0.047236888 -4.6890427e-21 1.7900061e-35)
(0.10554724 -0.0079040418 -1.4809536e-20 0.045285381 -1.8586381e-21 3.2839942e-36)
(7.6516966e-09 -7.7814259e-08 -7.9836504e-25 7.9133791e-07 7.8157017e-24 1.2638131e-37)
(7.9019165e-08 -7.6973422e-07 2.4938847e-24 7.4986663e-06 -2.3300064e-23 2.3178165e-37)
(2.5874176e-07 -2.4209913e-06 -1.4432192e-24 2.2658417e-05 1.2829649e-23 3.0305132e-38)
(6.0476783e-07 -5.4153917e-06 2.2434879e-25 4.8518234e-05 -1.8948723e-24 3.5818115e-40)
(1.1996544e-06 -1.025236e-05 -6.0469234e-24 8.7700359e-05 4.8492312e-23 1.4000533e-37)
(2.1630831e-06 -1.7587434e-05 8.3060615e-24 0.00014321023 -6.3185981e-23 1.4990825e-37)
(3.6673189e-06 -2.8272001e-05 -1.6435518e-23 0.00021842409 1.183764e-22 3.4501325e-37)
(5.9587477e-06 -4.3399902e-05 9.953563e-24 0.00031704337 -6.7694872e-23 7.6396026e-38)
(9.3882329e-06 -6.4362207e-05 4.8285424e-23 0.00044300134 -3.0917525e-22 1.1046414e-36)
(1.445281e-05 -9.2906556e-05 -1.4706022e-23 0.00060030786 8.8371327e-23 6.3891451e-38)
(2.1852466e-05 -0.00013119759 -7.0650071e-23 0.00079281713 3.971819e-22 9.2715684e-37)
(3.2567024e-05 -0.00018187323 2.709999e-23 0.0010238996 -1.4207436e-22 8.6451846e-38)
(4.7957738e-05 -0.00024808392 2.264313e-24 0.0012960112 -1.1033917e-23 3.8643907e-40)
(6.9900067e-05 -0.00033350254 -1.1128237e-22 0.001610163 5.0264014e-22 5.9239521e-37)
(0.00010095344 -0.00044228499 4.3494697e-22 0.0019653114 -1.8150653e-21 5.799067e-36)
(0.00014457234 -0.00057895771 -3.3310678e-22 0.0023577233 1.2803603e-21 2.1853469e-36)
(0.00020536108 -0.00074820921 -3.9563953e-24 0.0027804054 1.3963924e-23 1.9828665e-40)
(0.00028936939 -0.0009545675 2.8522796e-22 0.0032227333 -9.215548e-22 6.6755905e-37)
(0.00040441951 -0.0012019642 -8.9790819e-22 0.0036704603 2.6475003e-21 4.2983964e-36)
(0.00056044689 -0.001493215 5.2348393e-22 0.0041062876 -1.4042242e-21 9.5553067e-37)
(0.00076982991 -0.0018294961 9.6051959e-22 0.0045111482 -2.3368268e-21 2.1198022e-36)
(0.001047682 -0.0022099515 4.76396e-22 0.0048662302 -1.0479507e-21 3.4649428e-37)
(0.0014120868 -0.0026316083 -2.8649366e-21 0.0051555505 5.6818409e-21 8.4518191e-36)
(0.0018842841 -0.0030897843 -1.8101789e-21 0.0053686309 3.2272272e-21 2.3009135e-36)
(0.0024889431 -0.0035791389 1.4010616e-21 0.0055025816 -2.2399151e-21 9.5848544e-37)
(0.0032546714 -0.0040952605 -9.7522854e-22 0.0055628971 1.3940257e-21 3.2552929e-37)
(0.0042135335 -0.0046356207 4.3093474e-21 0.0055624706 -5.4980659e-21 4.5685218e-36)
(0.0054033163 -0.005201131 -1.4521073e-21 0.005517958 1.6496648e-21 3.7735198e-37)
(0.0068688406 -0.0057954325 4.5528604e-21 0.0054451419 -4.5975662e-21 2.7495552e-36)
(0.0086620109 -0.006423263 -2.9736963e-21 0.0053575966 2.6639171e-21 8.8297126e-37)
(0.010844502 -0.00709024 2.1209516e-21 0.0052652064 -1.6806964e-21 3.4041339e-37)
(0.013487122 -0.0078013183 -8.8866721e-21 0.0051730797 6.219875e-21 4.6254584e-36)
(0.016672447 -0.0085593138 1.4504448e-21 0.0050823282 -8.9478874e-22 9.6589341e-38)
(0.020493601 -0.0093633718 -8.7060594e-21 0.0049913165 4.7197744e-21 2.7244441e-36)
(0.025053047 -0.010207726 9.4071322e-21 0.004896566 -4.4770495e-21 2.5369503e-36)
(0.030459279 -0.011080469 3.4059798e-21 0.0047933699 -1.4196589e-21 2.6403628e-37)
(0.036821116 -0.011962166 -4.7298836e-20 0.0046762344 1.7272809e-20 4.1881057e-35)
(0.044238644 -0.012823908 -1.3780575e-20 0.0045393056 4.4001237e-21 2.9053843e-36)
(0.052789507 -0.013624797 1.2649906e-20 0.0043770079 -3.5282338e-21 2.0353108e-36)
(0.062509169 -0.014309551 -1.3713987e-20 0.00418522 3.3355479e-21 2.0014739e-36)
(0.073364727 -0.014807471 3.8913033e-21 0.0039631668 -8.2292986e-22 1.3479192e-37)
(0.085223422 -0.015034626 2.6458399e-20 0.0037160954 -4.8591426e-21 5.3756617e-36)
(0.097819658 -0.014901462 -1.3233938e-21 0.0034586473 2.1039391e-22 1.1779949e-38)
(0.11073112 -0.014327658 -1.0427579e-20 0.0032180622 1.4204975e-21 6.2248643e-37)
(0.1233744 -0.013265533 5.3842222e-21 0.0030354968 -6.200008e-22 1.497144e-37)
(0.13505489 -0.011733216 -2.9803876e-21 0.0029627591 2.9055124e-22 3.7724122e-38)
(0.14509246 -0.0098324299 -8.8390975e-21 0.0030480762 7.1452701e-22 3.1695323e-37)
(0.15288493 -0.0077160377 1.413007e-19 0.0033133952 -9.3294757e-21 7.5665232e-35)
(0.15803491 -0.0055450006 -1.639116e-20 0.0037446005 8.5235651e-22 9.4916848e-37)
(0.1603816 -0.0034645271 1.5546496e-20 0.0043115325 -6.3072034e-22 8.0937253e-37)
(0.15998622 -0.0015617569 -1.4870024e-19 0.0049988103 4.4463994e-21 7.1176915e-35)
(0.15706081 0.00011368987 8.2096987e-20 0.0058371772 -1.6776459e-21 2.1191485e-35)
(0.15200792 0.0014922728 6.7542682e-20 0.0069102902 -7.738082e-22 1.4186133e-35)
(0.14548052 0.0024540815 6.3822064e-20 0.008331181 -2.2352895e-22 1.2746795e-35)
(0.13850496 0.0028744047 6.033023e-20 0.010223987 2.3590007e-22 1.1633531e-35)
(0.1322658 0.0026963851 9.2147857e-20 0.012718697 1.0228299e-21 2.8176244e-35)
(0.12793729 0.0020630799 -1.7787173e-19 0.015944301 -3.4229912e-21 1.1073847e-34)
(0.12605315 0.001123936 1.0464765e-19 0.020056804 3.0722427e-21 4.1315173e-35)
(0.12660188 -0.00030821033 1.4954282e-19 0.025129301 6.5681611e-21 9.3871234e-35)
(0.1291269 -0.0031286701 -1.01641e-19 0.030894791 -6.6533214e-21 5.0055635e-35)
(0.13098554 -0.0070548467 -2.940494e-20 0.036038464 -2.685894e-21 5.0665233e-36)
(0.13017212 -0.011020631 -2.2847887e-20 0.040174274 -2.70934e-21 3.8427716e-36)
(0.12178838 -0.013782377 1.0047843e-19 0.043791488 1.4816593e-20 9.9548431e-35)
(0.1106146 -0.013365485 6.3433504e-20 0.044323918 1.0627384e-20 5.3723814e-35)
(0.090782613 -0.011141691 -2.2468256e-21 0.041738096 -4.0651583e-22 1.0429326e-37)
(2.0421079e-08 -1.6018638e-07 9.3576323e-25 1.25653e-06 -7.1769501e-24 6.26614e-38)
(2.026531e-07 -1.5537984e-06 -5.9749683e-24 1.1913612e-05 4.4653048e-23 5.0036466e-37)
(6.4051978e-07 -4.802984e-06 7.618396e-24 3.60175e-05 -5.5318271e-23 3.3262656e-37)
(1.4413999e-06 -1.0545922e-05 -4.0243534e-24 7.7168001e-05 2.8356958e-23 4.7515515e-38)
(2.749528e-06 -1.9587787e-05 -1.9392822e-24 0.0001395752 1.3247587e-23 6.2034625e-39)
(4.7609034e-06 -3.2946555e-05 2.1700936e-23 0.00022807955 -1.435469e-22 4.5953798e-37)
(7.7409831e-06 -5.1898749e-05 -7.0224722e-24 0.00034813989 4.4895356e-23 2.9495403e-38)
(1.2048082e-05 -7.8030634e-05 -1.882044e-23 0.00050576973 1.1600936e-22 1.3307163e-37)
(1.816487e-05 -0.00011329539 -1.8041633e-24 0.00070740009 1.06922e-23 7.8404059e-40)
(2.6739828e-05 -0.00016007195 -1.9044336e-23 0.00095964359 1.0819487e-22 5.6637029e-38)
(3.8641552e-05 -0.0002212208 3.2969783e-23 0.001268933 -1.7898947e-22 1.1118734e-37)
(5.5029306e-05 -0.00030012886 -2.8235132e-23 0.001641006 1.459971e-22 5.3784977e-38)
(7.7443665e-05 -0.00040073182 -1.2798617e-22 0.0020802187 6.2820645e-22 7.3140277e-37)
(0.00010792031 -0.00052749565 -4.5806232e-24 0.0025886906 2.1270824e-23 6.185416e-40)
(0.00014913313 -0.00068534209 1.4743516e-22 0.003165298 -6.4523233e-22 4.2883306e-37)
(0.00020456771 -0.00087948926 1.2809507e-22 0.0038045955 -5.2645372e-22 2.1555484e-37)
(0.00027872589 -0.0011151827 -1.3511505e-22 0.0044958049 5.195101e-22 1.5990307e-37)
(0.00037736374 -0.0013973138 1.5807004e-23 0.0052220987 -5.6629832e-23 1.4754297e-39)
(0.00050775341 -0.0017299174 3.9393569e-22 0.0059604513 -1.3100574e-21 6.0977582e-37)
(0.0006789607 -0.0021155956 5.8537987e-22 0.0066824014 -1.7995065e-21 9.0613757e-37)
(0.00090212489 -0.002554959 -8.1171102e-22 0.0073560007 2.2970896e-21 1.1808801e-36)
(0.0011907266 -0.0030462381 -9.878577e-22 0.0079490714 2.5630134e-21 1.1950974e-36)
(0.0015608365 -0.0035852684 1.5990517e-21 0.0084335317 -3.7883563e-21 2.161441e-36)
(0.0020313511 -0.0041660482 -2.3666371e-21 0.0087900986 5.0997225e-21 3.304202e-36)
(0.0026243044 -0.0047820284 -4.8720814e-21 0.0090122141 9.5130033e-21 9.8986031e-36)
(0.0033654628 -0.0054280924 1.3526209e-20 0.0091078848 -2.3848857e-20 5.4835411e-35)
(0.004284146 -0.0061019307 -8.7082e-21 0.0090985808 1.3819119e-20 1.6574227e-35)
(0.0054145386 -0.006805533 1.4985875e-20 0.0090138247 -2.1337865e-20 3.6296321e-35)
(0.0067972675 -0.0075441973 -2.1582981e-20 0.0088816748 2.7498261e-20 5.6574388e-35)
(0.0084800154 -0.0083252013 2.7620385e-20 0.0087264121 -3.1397513e-20 7.0493644e-35)
(0.010518503 -0.0091561309 -3.2561005e-20 0.0085658105 3.2930276e-20 7.5500401e-35)
(0.012976262 -0.01004351 6.2090984e-21 0.0084095598 -5.5729811e-21 2.1471076e-36)
(0.015926718 -0.010991088 2.4277979e-20 0.0082599201 -1.9282935e-20 2.5759171e-35)
(0.019451689 -0.011997637 -1.5412458e-20 0.0081136212 1.0812111e-20 8.2603927e-36)
(0.023639635 -0.013055448 5.4018545e-21 0.0079636546 -3.3410223e-21 8.160495e-37)
(0.028581878 -0.014148762 1.7515409e-21 0.0078006759 -9.5431358e-22 7.0369423e-38)
(0.034366337 -0.015252068 2.421165e-20 0.0076140274 -1.1589034e-20 1.084083e-35)
(0.0410679 -0.016327693 8.7722079e-21 0.0073924643 -3.687127e-21 1.168105e-36)
(0.048734328 -0.017322762 9.7942216e-21 0.0071250536 -3.6084977e-21 1.2063153e-36)
(0.05736666 -0.018166389 1.0586409e-20 0.0068029217 -3.416375e-21 1.1983603e-36)
(0.066894014 -0.018768732 -5.8946162e-20 0.0064223305 1.6613969e-20 3.1599276e-35)
(0.077144682 -0.019024466 2.8115067e-20 0.0059895426 -6.8999351e-21 6.1733914e-36)
(0.087818731 -0.018823766 4.902625e-21 0.005527258 -1.0453532e-21 1.582139e-37)
(0.098472488 -0.018073584 -5.992742e-20 0.005080918 1.098789e-20 2.1293541e-35)
(0.10853043 -0.016731637 -3.2425139e-20 0.0047213407 5.0857493e-21 5.5127792e-36)
(0.11736693 -0.014850954 1.6792843e-20 0.0045372182 -2.23394e-21 1.339743e-36)
(0.12443477 -0.012591957 6.421614e-20 0.0046054197 -7.106778e-21 1.7745761e-35)
(0.12931725 -0.01016534 -2.8962244e-20 0.0049490327 2.6507018e-21 3.3594559e-36)
(0.13182756 -0.0077802835 8.7427498e-20 0.005527448 -6.362834e-21 2.8615602e-35)
(0.13200504 -0.0055981623 4.8579631e-20 0.0062685294 -2.7701097e-21 8.4197059e-36)
(0.130053 -0.003698525 6.7896589e-20 0.0071265039 -2.9415856e-21 1.5921333e-35)
(0.1262915 -0.0021220342 1.8329989e-19 0.0081309935 -5.4717908e-21 1.138169e-34)
(0.121211 -0.00094970858 -1.4104561e-19 0.0093861305 2.5675493e-21 6.7267528e-35)
(0.11554882 -0.00031857185 4.5472069e-20 0.011017736 -2.6774526e-22 7.0611519e-36)
(0.1103558 -0.00033626788 -7.6298476e-20 0.013132888 -2.3092685e-22 2.0536205e-35)
(0.10671805 -0.00097847328 -7.0254118e-20 0.015799258 -9.6727977e-22 1.8234116e-35)
(0.10546906 -0.0019619798 -2.6342593e-20 0.019068377 -6.8460784e-22 2.7446213e-36)
(0.10665307 -0.0030932222 -2.274646e-19 0.022997269 -8.8793552e-21 2.2396986e-34)
(0.10993238 -0.0047788127 -5.6982494e-20 0.027719754 -3.3834975e-21 1.5979847e-35)
(0.11430176 -0.0078053397 1.1905146e-19 0.032755808 1.0554693e-20 8.2699211e-35)
(0.1165879 -0.011636878 4.007366e-20 0.036670043 5.0103337e-21 1.1749776e-35)
(0.11512687 -0.015182912 -2.6250912e-20 0.039238267 -4.2665164e-21 6.546821e-36)
(0.10518854 -0.017317804 -4.6132819e-20 0.041186783 -9.3115232e-21 2.7988233e-35)
(0.092588604 -0.0162866 -6.0574364e-20 0.040456768 -1.4329034e-20 6.7866199e-35)
(0.073412356 -0.013757039 3.6764313e-21 0.037347545 9.7278355e-22 3.9471848e-37)
(4.2957307e-08 -2.7286085e-07 4.2799194e-24 1.7331875e-06 -2.6785466e-23 5.8173108e-37)
(4.1797885e-07 -2.6218981e-06 2.8737974e-24 1.6446733e-05 -1.7708244e-23 5.249577e-38)
(1.2974553e-06 -8.0349477e-06 -3.5889894e-24 4.9760105e-05 2.1723339e-23 3.4426656e-38)
(2.8622372e-06 -1.7475514e-05 -1.8278777e-23 0.00010670168 1.0859592e-22 4.6952208e-37)
(5.3457508e-06 -3.2133911e-05 1.3190029e-23 0.0001931745 -7.6858281e-23 1.4099963e-37)
(9.0502979e-06 -5.3474593e-05 -2.4391184e-23 0.0003159978 1.3926602e-22 2.922443e-37)
(1.4366379e-05 -8.3284682e-05 1.3326868e-23 0.00048290672 -7.4451022e-23 5.4746416e-38)
(2.1796748e-05 -0.00012372434 3.9572033e-24 0.00070248444 -2.1589339e-23 3.1080324e-39)
(3.1987324e-05 -0.00017737892 -2.7650642e-23 0.00098399665 1.4699514e-22 9.9669748e-38)
(4.5765922e-05 -0.00024730694 -7.3060842e-23 0.0013370924 3.7754558e-22 4.6349518e-37)
(6.4190764e-05 -0.00033707796 -4.4853799e-24 0.0017713312 2.2473553e-23 1.1695439e-39)
(8.8610703e-05 -0.00045079049 1.781776e-22 0.0022954939 -8.6295092e-22 1.2570681e-36)
(0.00012073968 -0.00059305825 -2.9911367e-22 0.0029166459 1.3962814e-21 2.411448e-36)
(0.00016274654 -0.00076894474 5.8521242e-22 0.0036389324 -2.62457e-21 6.3051493e-36)
(0.00021736458 -0.00098383283 -1.8517949e-22 0.0044621334 7.9518718e-22 4.3206648e-37)
(0.00028802157 -0.0012432058 4.7624885e-22 0.0053800667 -1.951103e-21 1.9578596e-36)
(0.00037898923 -0.0015523183 -6.9638096e-22 0.0063790213 2.7113904e-21 2.8743892e-36)
(0.00049555842 -0.0019157616 5.4669751e-22 0.0074364856 -2.0148192e-21 1.2181493e-36)
(0.00064423238 -0.0023369269 -1.0421954e-22 0.008520619 3.6200655e-22 3.0568701e-38)
(0.00083294049 -0.002817427 -5.0958548e-22 0.0095909519 1.6608985e-21 5.0556522e-37)
(0.0010712689 -0.0033565763 1.4890942e-21 0.010600798 -4.5331658e-21 3.0033656e-36)
(0.0013707071 -0.003951092 -2.5171402e-21 0.011501666 7.1234421e-21 6.0163643e-36)
(0.0017449151 -0.004595225 3.263749e-21 0.012249504 -8.5455309e-21 7.1525265e-36)