/*--------------------------------*- C++ -*----------------------------------*\
  =========                 |
  \\      /  F ield         | OpenFOAM: The Open Source CFD Toolbox
   \\    /   O peration     | Website:  https://openfoam.org
    \\  /    A nd           | Version:  13
     \\/     M anipulation  |
\*---------------------------------------------------------------------------*/
FoamFile
{
    format      ascii;
    class       volVectorField;
    location    "15.40424";
    object      UMean;
}
// * * * * * * * * * * * * * * * * * * * * * * * * * * * * * * * * * * * * * //

dimensions      [0 1 -1 0 0 0 0];

internalField   nonuniform List<vector> 
17140
(
(-2.691433e-06 0.0001017234 -2.3813368e-22)
(-3.893892e-05 0.00031289961 -1.9914287e-23)
(-0.00011829409 0.00054334485 1.3161303e-21)
(-0.00025765443 0.00079382553 -1.4474851e-21)
(-0.00047228011 0.0010651408 1.6930268e-22)
(-0.00078307627 0.0013578435 -5.5431053e-22)
(-0.0012157609 0.0016721873 -9.3380954e-22)
(-0.0018014077 0.0020080292 4.5661785e-22)
(-0.0025774377 0.0023647146 1.4956693e-21)
(-0.0035885908 0.0027409454 3.6732267e-21)
(-0.0048878984 0.0031346317 -5.457417e-21)
(-0.006537611 0.0035427343 4.8740592e-21)
(-0.0086100138 0.0039611065 7.4732278e-22)
(-0.011188014 0.0043843446 -4.2460016e-21)
(-0.014365356 0.0048056783 4.7310188e-22)
(-0.018246307 0.0052169193 -3.7675291e-21)
(-0.022944604 0.005608522 1.4167532e-22)
(-0.028581529 0.0059697898 -3.1085211e-23)
(-0.035282948 0.0062892875 -2.2710744e-21)
(-0.043175336 0.0065554992 2.9706691e-21)
(-0.052380976 0.0067577488 -1.4406483e-21)
(-0.063012803 0.0068873497 2.7894493e-22)
(-0.075169608 0.0069388407 2.0627561e-21)
(-0.088933052 0.0069110781 -2.0694553e-21)
(-0.1043693 0.0068078122 -3.3177602e-21)
(-0.12153079 0.0066374235 2.6894432e-21)
(-0.14045437 0.0064113996 1.3269266e-20)
(-0.16117754 0.0061408336 1.562749e-21)
(-0.18375763 0.0058345463 -1.387796e-20)
(-0.2082621 0.0055000686 -3.2503035e-21)
(-0.23474309 0.0051426703 -1.1676231e-20)
(-0.26325406 0.0047647717 1.5478673e-20)
(-0.2938575 0.0043668957 -4.0392347e-21)
(-0.32659573 0.0039487652 -1.9477014e-21)
(-0.3614907 0.0035096179 -1.9131131e-20)
(-0.39853111 0.0030481948 8.4584005e-21)
(-0.43765864 0.0025625425 -1.272512e-20)
(-0.47874859 0.0020498113 -8.6112238e-21)
(-0.52158484 0.0015059272 -3.9306906e-21)
(-0.56582863 0.00092588601 1.1936722e-20)
(-0.6109824 0.00030335079 2.2403217e-20)
(-0.65635149 -0.00036796641 2.0210631e-20)
(-0.70100461 -0.0010939769 8.7694409e-21)
(-0.74375629 -0.0018783164 -4.2035954e-20)
(-0.78316632 -0.0027189821 -3.0348316e-20)
(-0.81753093 -0.0036000747 7.3721771e-21)
(-0.84508074 -0.0045041697 -4.9424651e-20)
(-0.86407711 -0.0054187434 -1.6561831e-20)
(-0.8725949 -0.0063198448 1.6680088e-20)
(-0.86928352 -0.0071689291 4.0440213e-20)
(-0.85285617 -0.0079170124 -2.4756194e-20)
(-0.82232514 -0.0085404691 -1.5599046e-20)
(-0.77668629 -0.0090915287 4.064969e-20)
(-0.71529151 -0.009603764 1.9294076e-20)
(-0.63727752 -0.010027855 1.3885143e-20)
(-0.54243029 -0.010298805 -1.0947739e-20)
(-0.43075637 -0.0103826 3.0273791e-20)
(-0.30309463 -0.01022619 2.5653325e-20)
(-0.16080288 -0.0097478368 6.5584647e-21)
(-0.0075283406 -0.0089105788 -1.7054538e-20)
(0.15118396 -0.0077648178 -1.3567981e-20)
(0.30521516 -0.0064129519 -5.0731484e-20)
(0.44689471 -0.0048101908 -7.4706438e-21)
(0.56474677 -0.0030802984 6.2755208e-20)
(0.66374415 -0.0016206384 -4.8422057e-20)
(-3.0319269e-05 0.00070674516 6.7588509e-23)
(-0.00012330674 0.0021754494 -6.8949325e-21)
(-0.00026399378 0.0037809132 6.1371477e-21)
(-0.00046919488 0.0055314168 -1.6740476e-21)
(-0.0007542489 0.0074349129 -3.459134e-21)
(-0.0011399622 0.0094982407 6.6129661e-21)
(-0.0016518231 0.011726691 -6.8992275e-21)
(-0.0023205175 0.014123387 6.0774032e-22)
(-0.003182884 0.016688544 -1.899389e-21)
(-0.0042828463 0.019418578 -3.1806628e-23)
(-0.0056723498 0.022305122 -6.3611856e-21)
(-0.0074122529 0.025333906 1.0131412e-20)
(-0.009573116 0.0284836 8.3878388e-22)
(-0.012235771 0.031724673 -8.3046413e-21)
(-0.015491542 0.035018395 2.5608389e-21)
(-0.019441952 0.038316177 1.632462e-21)
(-0.02419775 0.041559482 -1.0394294e-20)
(-0.029877079 0.044680635 3.4034141e-20)
(-0.036602679 0.047604881 -2.1423626e-20)
(-0.044498111 0.050254014 2.580369e-20)
(-0.053683184 0.05255183 -3.8356778e-20)
(-0.064269026 0.054431307 9.4655181e-21)
(-0.076353503 0.055842962 3.9296078e-21)
(-0.090018259 0.056763115 -1.2908297e-20)
(-0.10533017 0.057199996 4.6779894e-20)
(-0.12234367 0.057195444 6.9968303e-21)
(-0.14109714 0.056819068 -3.669477e-20)
(-0.16162967 0.056150053 4.1380647e-20)
(-0.18399896 0.055260145 -5.7826521e-21)
(-0.20827263 0.054201521 -5.6456916e-20)
(-0.23450324 0.053019761 5.9312522e-21)
(-0.26274156 0.051743337 4.5352033e-20)
(-0.29304826 0.050384137 1.0879281e-21)
(-0.32546255 0.048943508 -3.4173802e-20)
(-0.36000233 0.047413909 3.8349115e-20)
(-0.39665114 0.045779638 -1.7302118e-20)
(-0.43534376 0.044015882 2.055294e-20)
(-0.47594665 0.042087318 6.5251369e-20)
(-0.5182324 0.039946912 1.4550001e-20)
(-0.56184819 0.037535932 5.6926882e-20)
(-0.60627878 0.034785489 -7.2943371e-20)
(-0.65080727 0.031621142 -6.6575703e-20)
(-0.69447664 0.027970885 -1.1183605e-20)
(-0.73606865 0.023774861 9.0025273e-20)
(-0.77409883 0.019000502 -4.1815593e-20)
(-0.80682756 0.01367059 -1.4283263e-20)
(-0.83240674 0.0078674821 7.7048356e-21)
(-0.8490537 0.0016942993 2.3513251e-20)
(-0.85502023 -0.0046899855 -1.1403068e-20)
(-0.84875008 -0.011098488 2.043165e-20)
(-0.82898338 -0.017415765 1.2253828e-19)
(-0.79470839 -0.023566452 5.8635397e-21)
(-0.74504832 -0.029529814 -2.6436054e-20)
(-0.67933004 -0.035305595 5.9087989e-20)
(-0.59697209 -0.040817593 -5.088511e-20)
(-0.49780189 -0.045932838 1.461468e-19)
(-0.38194933 -0.050504215 4.2186364e-20)
(-0.25033107 -0.054257723 -1.2128287e-19)
(-0.1045851 -0.05675688 2.076816e-20)
(0.051426093 -0.05733157 2.426725e-20)
(0.21194513 -0.055234322 4.9523238e-21)
(0.36645773 -0.050231141 -6.6148088e-20)
(0.50731853 -0.042429692 1.2971087e-19)
(0.62358692 -0.033649575 3.87772e-20)
(0.72012405 -0.025312439 6.4450413e-20)
(-9.1001063e-05 0.0012991099 3.7237678e-21)
(-0.0003085225 0.0039995111 -2.0774475e-21)
(-0.00058361931 0.0069523279 -5.5258429e-22)
(-0.00093292276 0.010173492 5.2431248e-22)
(-0.0013718809 0.013678233 -2.5412674e-21)
(-0.0019210169 0.017479891 -1.8868071e-22)
(-0.0026052329 0.021589112 -2.4172703e-21)
(-0.0034542664 0.026012729 -2.6065622e-21)
(-0.0045035613 0.030752405 2.1338673e-20)
(-0.005795116 0.035803032 -1.9080999e-20)
(-0.0073783358 0.041150898 9.1485093e-21)
(-0.0093108485 0.046771638 1.3431905e-20)
(-0.01165923 0.052628067 -2.6711563e-20)
(-0.014499541 0.058668022 -3.3146036e-21)
(-0.017917555 0.064822428 1.2856922e-20)
(-0.022008537 0.071003929 8.8753213e-21)
(-0.026876415 0.077106529 -1.0344385e-20)
(-0.032632202 0.083006808 3.765185e-20)
(-0.039391541 0.088567388 -2.2403609e-20)
(-0.047271375 0.093643294 1.1146674e-20)
(-0.056385884 0.098091686 -3.7890675e-20)
(-0.066842076 0.10178492 -9.9329737e-21)
(-0.078735626 0.10462604 2.0902284e-20)
(-0.092148015 0.10656449 -3.1705868e-20)
(-0.10714752 0.1076083 -1.255612e-20)
(-0.12379258 0.10782847 1.52943e-20)
(-0.14212474 0.10735026 8.7365104e-20)
(-0.16218708 0.1063222 3.9752286e-20)
(-0.18403616 0.10488013 -2.0148003e-20)
(-0.20774002 0.10312307 2.1506517e-20)
(-0.23335297 0.10113727 -1.3762681e-20)
(-0.26091776 0.098978956 -7.7728906e-20)
(-0.29049056 0.096672529 2.6216153e-20)
(-0.32210263 0.094221287 7.8635648e-20)
(-0.35576179 0.091610751 -2.6658896e-20)
(-0.39143868 0.088810118 -3.7289207e-20)
(-0.42905131 0.085770942 6.4852997e-20)
(-0.46844462 0.082424466 1.9731174e-20)
(-0.5093639 0.078679566 -3.5528671e-20)
(-0.55142186 0.074422232 -1.4337573e-20)
(-0.59406018 0.069518936 6.8490497e-20)
(-0.63650885 0.063824828 -1.9646973e-20)
(-0.6777474 0.057198965 -2.8191296e-20)
(-0.71648501 0.049522954 -7.4510067e-20)
(-0.75115166 0.040729599 1.4128373e-19)
(-0.77993839 0.030857502 -9.0698853e-20)
(-0.80099321 0.020085475 -2.2482977e-20)
(-0.81250283 0.0086372928 -8.9388886e-20)
(-0.8127359 -0.0032539737 -1.0677321e-19)
(-0.80019906 -0.015245752 -5.3847298e-21)
(-0.77379476 -0.027070417 2.2680759e-20)
(-0.73270235 -0.038593568 -1.6840667e-19)
(-0.67625759 -0.049796297 -7.2235885e-20)
(-0.60392876 -0.060662363 -7.4879832e-20)
(-0.51539125 -0.071072175 -2.4761845e-20)
(-0.41067008 -0.080802383 -1.951713e-19)
(-0.29022851 -0.089578765 7.8307546e-20)
(-0.15526799 -0.096933195 -2.443278e-20)
(-0.0076279993 -0.10206863 -2.0339927e-19)
(0.14857805 -0.10369817 -8.2151813e-20)
(0.3074921 -0.10023231 9.9564886e-20)
(0.45808526 -0.091148959 3.4656906e-19)
(0.59264415 -0.076923403 -1.1153495e-19)
(0.70171318 -0.060948134 -1.7967634e-19)
(0.78934595 -0.045489143 -7.6850755e-20)
(-0.00018275343 0.0018579887 -1.2423252e-20)
(-0.00058850589 0.005721459 1.4903675e-20)
(-0.0010667839 0.0099477741 -5.390657e-21)
(-0.0016338667 0.014560537 5.8638383e-22)
(-0.0023053909 0.019582356 -1.1595344e-20)
(-0.0031014445 0.025033363 1.2007243e-20)
(-0.0040460355 0.030930053 -1.8227182e-20)
(-0.0051674566 0.037283721 8.5882566e-21)
(-0.0064990312 0.044098543 3.2687933e-20)
(-0.0080798275 0.051369306 -7.8760269e-21)
(-0.0099553847 0.059078784 -3.0049418e-20)
(-0.012178406 0.067194797 9.1998015e-21)
(-0.014809391 0.075667044 6.1895641e-22)
(-0.017917103 0.084423899 -2.4230421e-20)
(-0.02157881 0.093369474 7.6153264e-20)
(-0.025880152 0.10238139 -4.7000612e-20)
(-0.030914534 0.11130988 -4.5000759e-22)
(-0.036781892 0.11997908 2.6336608e-20)
(-0.043586769 0.12819144 -6.7411702e-20)
(-0.051435649 0.13573631 3.2109486e-20)
(-0.060433673 0.14240336 4.8360527e-20)
(-0.070681028 0.14800119 1.9770317e-20)
(-0.082269478 0.15237975 -9.9054896e-20)
(-0.095279751 0.15545381 -5.2355935e-20)
(-0.1097819 0.1572222 3.435816e-20)
(-0.12583954 0.15777619 -2.0217471e-20)
(-0.1434999 0.15729053 7.6931608e-20)
(-0.16281192 0.15598391 -2.2340683e-20)
(-0.18382954 0.15405696 6.0994311e-20)
(-0.20662239 0.15166095 -3.4932065e-20)
(-0.23124739 0.1489208 2.1743654e-20)
(-0.25773502 0.14592337 -8.0878836e-20)
(-0.28613382 0.14270827 1.1789247e-20)
(-0.31646297 0.13928124 -6.2358221e-20)
(-0.34871468 0.13562073 6.0336774e-20)
(-0.38283957 0.13168011 1.9211845e-20)
(-0.41873013 0.12738611 -2.4464418e-19)
(-0.45619884 0.12263519 -6.4016415e-20)
(-0.4949501 0.11729029 5.3549872e-20)
(-0.5345458 0.11118039 -5.2822835e-20)
(-0.57436575 0.10410557 1.3459516e-20)
(-0.61356664 0.095849719 8.5418694e-20)
(-0.65104579 0.086202932 -4.0365813e-21)
(-0.6854232 0.074991303 -2.8274072e-20)
(-0.71503999 0.06212421 1.4021259e-20)
(-0.73805122 0.047681698 -6.329966e-21)
(-0.75264896 0.031933714 -1.9397683e-20)
(-0.75702008 0.01522977 3.0351767e-19)
(-0.74959257 -0.0020532866 -3.371037e-20)
(-0.72912197 -0.019415074 3.1187747e-20)
(-0.69477549 -0.036464899 -2.9306538e-19)
(-0.64599211 -0.05301739 1.6123162e-19)
(-0.58234215 -0.069056655 1.3279766e-19)
(-0.50350952 -0.084565259 1.2778154e-19)
(-0.40941596 -0.099392291 1.2429205e-19)
(-0.3004097 -0.11324449 1.9768402e-19)
(-0.17732135 -0.12574512 -3.9980038e-19)
(-0.041659489 -0.13627814 2.4991559e-19)
(0.10457682 -0.14371075 3.8635922e-19)
(0.25705353 -0.14616342 -2.8763369e-19)
(0.40982687 -0.14111433 -9.3567641e-20)
(0.55123638 -0.12770803 -8.3138095e-20)
(0.67360317 -0.10714819 4.2211196e-19)
(0.76956382 -0.084182706 3.1054182e-19)
(0.84267648 -0.06210879 -1.3511252e-20)
(-0.00030123292 0.0023626426 8.7033399e-21)
(-0.00095013186 0.0072778106 -2.175008e-20)
(-0.001690922 0.012657471 1.7739329e-20)
(-0.0025394669 0.018532832 -6.7073224e-21)
(-0.0035116743 0.024933928 -2.4244736e-21)
(-0.0046271082 0.031888002 2.0881509e-20)
(-0.0059086637 0.039418018 -5.2962726e-21)
(-0.0073828175 0.047540741 -1.125812e-20)
(-0.0090802063 0.056264326 -8.6581203e-22)
(-0.011036168 0.065585475 -7.3659207e-21)
(-0.013291299 0.075486106 1.0339375e-20)
(-0.01589198 0.085929574 -7.2097329e-21)
(-0.018890869 0.096856557 -2.6659411e-20)
(-0.022347279 0.10818081 -7.7538139e-22)
(-0.026327393 0.11978509 2.0587711e-20)
(-0.030904228 0.13151791 1.4673405e-20)
(-0.036157268 0.14319177 -1.2716048e-20)
(-0.042171665 0.15458402 1.238219e-21)
(-0.049036943 0.16544151 2.5263651e-20)
(-0.056845194 0.17549062 3.1096051e-20)
(-0.065688804 0.18445353 -3.5914383e-20)
(-0.075657922 0.19207156 -3.660009e-20)
(-0.08683798 0.19813417 4.991436e-20)
(-0.099307655 0.20251045 -6.2577045e-20)
(-0.11313864 0.2051766 -1.0978419e-19)
(-0.12839925 0.20623034 2.6231404e-19)
(-0.14514708 0.20588462 -1.4620641e-19)
(-0.16343643 0.20442456 2.1881422e-19)
(-0.18331819 0.20211913 -2.7624743e-19)
(-0.20486674 0.19918126 3.1111586e-19)
(-0.22813928 0.19576913 -3.2435314e-19)
(-0.25315437 0.1920042 5.5174676e-20)
(-0.279948 0.187946 1.9116031e-19)
(-0.30852461 0.18360385 -1.0853334e-19)
(-0.33885609 0.17894922 3.418884e-20)
(-0.3708674 0.17391887 1.0170215e-20)
(-0.40441861 0.16841341 1.240795e-19)
(-0.43928161 0.16229289 4.0378691e-20)
(-0.47511081 0.15537282 4.0536386e-20)
(-0.51140783 0.14742374 4.0685675e-20)
(-0.54748123 0.13817843 -2.0770183e-19)
(-0.58240698 0.12734937 9.1169255e-20)
(-0.61499851 0.11465968 1.4023866e-20)
(-0.64379457 0.099886032 -1.6605312e-19)
(-0.66708003 0.082932799 -8.3393696e-20)
(-0.68304244 0.063948607 4.1158769e-20)
(-0.68997511 0.043323372 1.4714855e-19)
(-0.68621582 0.021521748 -6.4198394e-20)
(-0.6704138 -0.0009024166 1.84781e-19)
(-0.64162439 -0.023290925 1.0003421e-19)
(-0.59927564 -0.045147557 1.3826006e-19)
(-0.54303576 -0.066273159 3.6992629e-19)
(-0.47265065 -0.086685699 -2.8763288e-19)
(-0.38797714 -0.10637072 9.3302704e-20)
(-0.28920278 -0.12512466 -1.6391191e-19)
(-0.17707041 -0.14256789 -1.5720457e-19)
(-0.052861303 -0.15824893 -6.1935477e-20)
(0.081514305 -0.17147163 -5.7962656e-19)
(0.22381518 -0.18080375 -1.5912602e-19)
(0.36938006 -0.18379516 3.7000543e-19)
(0.51207127 -0.17691805 1.4161131e-19)
(0.6396592 -0.15902037 -1.0800414e-19)
(0.74518791 -0.13234485 -2.2444864e-19)
(0.82372924 -0.10289958 -3.4847486e-19)
(0.87973269 -0.075163164 2.6587002e-20)
(-0.00043978202 0.0027932657 2.6355e-20)
(-0.0013731855 0.008607856 6.9863098e-21)
(-0.0024212706 0.014976285 -5.6616895e-21)
(-0.0035994912 0.021937164 -2.0912615e-20)
(-0.0049241299 0.029527905 1.1465249e-20)
(-0.0064142175 0.037783137 -1.6517917e-20)
(-0.008091439 0.04673297 7.1552863e-21)
(-0.0099802506 0.056400785 1.7064462e-21)
(-0.012108264 0.066800477 -9.677206e-21)
(-0.014506578 0.077933142 -2.0902059e-20)
(-0.017210126 0.089783157 -1.0489507e-21)
(-0.020258005 0.10231369 3.4581507e-20)
(-0.023693773 0.11546168 -4.8039427e-20)
(-0.02756569 0.1291326 7.7985428e-20)
(-0.031926875 0.1431952 -2.0510594e-20)
(-0.036835323 0.15747695 4.3894037e-20)
(-0.042353767 0.17176109 -5.355749e-20)
(-0.04854931 0.18578641 3.5141575e-20)
(-0.055492832 0.19925135 -5.6247561e-21)
(-0.063258135 0.21182428 -2.3107438e-20)
(-0.071920872 0.22316152 5.6979498e-20)
(-0.081557355 0.23293413 -8.1721714e-20)
(-0.092243371 0.2408628 9.036189e-20)
(-0.10405314 0.24675734 1.5730535e-20)
(-0.11705884 0.25055352 -1.5768586e-19)
(-0.13133243 0.25233636 1.6205884e-19)
(-0.14694441 0.25233874 -1.0715909e-19)
(-0.16395385 0.25090039 1.2196097e-19)
(-0.18241484 0.24836936 1.1553025e-20)
(-0.20240284 0.24502684 7.2517135e-21)
(-0.22397263 0.24106112 -5.0374547e-20)
(-0.24713967 0.23663207 3.2475426e-21)
(-0.27191815 0.23182574 -1.932536e-19)
(-0.29829703 0.22665741 5.2948127e-20)
(-0.32622406 0.22109222 1.5886364e-19)
(-0.35559443 0.21504973 -7.4759451e-20)
(-0.38623126 0.20840348 6.1970915e-20)
(-0.4178612 0.20097619 -6.229737e-20)
(-0.45008435 0.19253512 -3.4881635e-19)
(-0.48233839 0.1827918 1.9350865e-19)
(-0.51385974 0.17141183 4.7300274e-20)
(-0.54364876 0.15803874 -2.681229e-19)
(-0.57045023 0.14233446 1.6028214e-20)
(-0.59275465 0.1240386 3.2982441e-20)
(-0.60885469 0.10307418 3.5082079e-19)
(-0.61708046 0.079684311 8.0656543e-20)
(-0.61587355 0.054389607 -1.2564889e-19)
(-0.60384564 0.027760295 -1.2748854e-19)
(-0.57986686 0.00052997147 -1.7981441e-19)
(-0.54318598 -0.026501068 -2.2051536e-19)
(-0.4933816 -0.052748167 -1.3412373e-19)
(-0.43029398 -0.07800609 -2.096702e-19)
(-0.35381129 -0.1023352 7.208954e-20)
(-0.2639636 -0.125708 -4.4665301e-19)
(-0.16125224 -0.14784015 -3.0105163e-20)
(-0.046899349 -0.16825699 -2.6333827e-20)
(0.077311409 -0.1864563 -1.4344795e-20)
(0.20896935 -0.20173584 6.2427653e-19)
(0.34552935 -0.21241344 2.4901163e-19)
(0.4817755 -0.21553084 -3.9002429e-19)
(0.61102192 -0.20657222 -5.7014033e-19)
(0.72095514 -0.18413507 -2.5858112e-19)
(0.80637662 -0.15183578 -8.4797342e-20)
(0.86525042 -0.11687539 4.9491379e-19)
(0.90410151 -0.084833253 -1.2439202e-19)
(-0.00058955842 0.0031323916 -4.9431166e-21)
(-0.0018311414 0.0096578172 -1.177325e-20)
(-0.0032119908 0.016810879 2.8431819e-20)
(-0.0047476622 0.024637114 -1.0588602e-21)
(-0.0064547679 0.033181128 -1.386569e-20)
(-0.0083518966 0.04248509 -6.1175373e-21)
(-0.010459567 0.052586841 -4.5229732e-21)
(-0.012800213 0.063517542 8.9285921e-21)
(-0.015398348 0.075298683 -4.6317072e-20)
(-0.018280673 0.087938466 3.5046593e-20)
(-0.021476195 0.10142746 -1.6985448e-21)
(-0.025016299 0.11573353 -2.1359344e-20)
(-0.028934827 0.13079611 8.0299998e-20)
(-0.033268124 0.14651991 -8.049978e-20)
(-0.038055066 0.16276858 1.0806634e-20)
(-0.043337066 0.17935865 6.7374414e-20)
(-0.04915809 0.19605499 -6.3983387e-20)
(-0.055564662 0.21256883 2.2633473e-20)
(-0.062605928 0.22856039 -4.451431e-20)
(-0.070333773 0.24364809 5.7961816e-20)
(-0.078803032 0.25742667 1.1054611e-19)
(-0.088071837 0.26949589 -1.1129879e-19)
(-0.09820202 0.27949982 -1.6579752e-19)
(-0.10925951 0.28717386 3.2538372e-19)
(-0.12131436 0.29239179 -2.6525719e-19)
(-0.13444099 0.29520067 1.5631669e-19)
(-0.14871941 0.29582826 -4.0934913e-20)
(-0.16421988 0.29465001 9.7863532e-20)
(-0.18100503 0.29209689 -1.0156804e-19)
(-0.1991386 0.2885244 -1.3807642e-19)
(-0.21868172 0.28416786 9.2870146e-20)
(-0.23965496 0.27921571 1.5470739e-19)
(-0.26204127 0.27378731 -1.3838106e-20)
(-0.28581369 0.26791123 -5.8233883e-21)
(-0.31089336 0.26154826 -1.0185399e-19)
(-0.33714304 0.25460125 4.4342501e-20)
(-0.36434663 0.24691653 1.6326293e-19)
(-0.39218374 0.23827918 8.2263922e-20)
(-0.42019912 0.22840792 -1.2662658e-19)
(-0.44776823 0.21695609 1.0055223e-19)
(-0.47406218 0.20352495 -8.5206271e-20)
(-0.49802116 0.18769481 2.8831891e-20)
(-0.51835068 0.16907676 1.0848573e-19)
(-0.53354524 0.14739358 -2.5891826e-19)
(-0.54199181 0.12261621 -1.5345522e-19)
(-0.54225398 0.095094536 -9.9118932e-20)
(-0.5330033 0.065459723 3.0906168e-19)
(-0.5131203 0.034374997 1.9909241e-19)
(-0.48160011 0.0026907467 2.3204681e-19)
(-0.43771643 -0.028650532 4.0278001e-19)
(-0.38113998 -0.058943971 -1.386386e-19)
(-0.31186593 -0.087964342 2.9178625e-20)
(-0.22992327 -0.11581681 2.3265154e-19)
(-0.13558017 -0.14244358 6.8711475e-19)
(-0.029718152 -0.16744122 4.5765854e-19)
(0.085890856 -0.19023688 1.8270861e-19)
(0.20899941 -0.21029305 5.4179309e-19)
(0.33671098 -0.22696392 -3.7358993e-19)
(0.46606952 -0.23833295 3.9331161e-20)
(0.59111242 -0.24092632 6.2929572e-19)
(0.70404625 -0.22948998 4.3437262e-19)
(0.79352279 -0.20267653 2.0437694e-20)
(0.85698071 -0.1655906 -7.0721441e-19)
(0.89604025 -0.12638265 7.469346e-20)
(0.91975945 -0.091551027 -1.0661915e-19)
(-0.00074015886 0.003365981 -1.9371497e-20)
(-0.0022922003 0.010384268 9.7685032e-21)
(-0.0040083211 0.018085522 -1.3203065e-20)
(-0.0059046229 0.026521489 -7.5091252e-21)
(-0.0079980527 0.035743553 2.0974553e-20)
(-0.010306918 0.045801342 1.9601225e-20)
(-0.012850747 0.05674081 -2.0142677e-20)
(-0.015650144 0.068601872 2.4270575e-21)
(-0.018726734 0.081415347 5.6331278e-22)
(-0.022103051 0.09519921 4.0154766e-20)
(-0.025802383 0.10995403 -4.4219575e-21)
(-0.029848598 0.1256575 -8.1572849e-20)
(-0.034265942 0.14225818 6.5542441e-20)
(-0.039078839 0.1596684 -2.2750196e-21)
(-0.044311715 0.17775673 -4.4515313e-20)
(-0.049988898 0.19634052 -3.8660485e-21)
(-0.056134648 0.21517928 9.931281e-21)
(-0.06277342 0.23397056 4.5286491e-20)
(-0.069930417 0.25234991 -8.4073923e-20)
(-0.077632571 0.26989766 1.5003934e-19)
(-0.085910034 0.28615527 -3.2918852e-20)
(-0.094798071 0.30065369 2.4581834e-20)
(-0.10433935 0.31295504 -2.0634793e-20)
(-0.11458618 0.32270561 8.4782243e-22)
(-0.12560197 0.32969331 -1.2674287e-19)
(-0.13746117 0.33389649 -1.2866283e-19)
(-0.15024791 0.33550606 2.590106e-19)
(-0.16404975 0.33490389 4.3760389e-20)
(-0.1789375 0.33258293 -1.5475837e-19)
(-0.19496517 0.32899931 -5.5718718e-20)
(-0.21219851 0.32446304 -1.2727357e-19)
(-0.23066366 0.3191717 1.4530661e-19)
(-0.25032594 0.3132813 6.4125564e-20)
(-0.2711302 0.30684707 -1.5033903e-19)
(-0.29297128 0.29982936 6.3751009e-20)
(-0.31567839 0.29211666 3.0099828e-20)
(-0.33899541 0.28352894 -9.0235005e-20)
(-0.36255486 0.27381436 -2.3701721e-19)
(-0.385848 0.26264456 -7.2193392e-20)
(-0.40819348 0.24961785 4.8455977e-20)
(-0.42870888 0.23427696 1.1518913e-19)
(-0.44629656 0.2161489 1.1896455e-19)
(-0.45965971 0.19481034 1.3136693e-19)
(-0.46735344 0.16999156 2.7460323e-19)
(-0.46794382 0.14173873 -7.5471468e-21)
(-0.46026121 0.11051363 1.1473086e-19)
(-0.44324825 0.077005065 -6.1701873e-19)
(-0.41593956 0.041913097 -1.6979987e-19)
(-0.37730555 0.0061484741 -1.9295082e-19)
(-0.3266431 -0.029181256 -5.32474e-19)
(-0.26380227 -0.063201191 6.2116831e-19)
(-0.18894862 -0.095655957 -1.3876792e-19)
(-0.10225677 -0.12667741 -4.4801243e-19)
(-0.0042962185 -0.15614874 -5.5490976e-19)
(0.1036312 -0.18352478 -7.1332486e-20)
(0.21920742 -0.20815159 1.8205182e-19)
(0.33981092 -0.2294889 2.9794981e-19)
(0.46216771 -0.24695007 -1.2787141e-19)
(0.5827844 -0.25840229 2.3395829e-19)
(0.6948106 -0.25981113 -1.980017e-19)
(0.78914323 -0.24555452 -6.7562531e-20)
(0.85619026 -0.21469494 -2.0111759e-19)
(0.89742162 -0.17380511 8.8228988e-19)
(0.91840656 -0.13200105 2.8597432e-20)
(0.93021286 -0.095894542 3.5008083e-19)
(-0.0008802205 0.0034846632 1.8056517e-20)
(-0.0027213491 0.01075804 3.6063047e-21)
(-0.0047499899 0.01874889 -3.9649981e-21)
(-0.0069828699 0.027514227 -1.9499961e-20)
(-0.0094374013 0.037111477 2.3404615e-20)
(-0.012131807 0.047597308 -1.9893696e-20)
(-0.015084897 0.059025807 -9.5182311e-21)
(-0.018315811 0.071446235 5.1146456e-22)
(-0.021843763 0.084900079 8.0629245e-21)
(-0.025687692 0.099417376 4.5952476e-20)
(-0.029865871 0.11501213 -7.7365915e-20)
(-0.034395449 0.13167676 9.3264545e-20)
(-0.03929196 0.14937551 -2.7501069e-20)
(-0.04456882 0.16803678 -3.750391e-20)
(-0.050236871 0.18754466 5.7863985e-20)
(-0.056304055 0.20772998 -1.1487791e-19)
(-0.06277531 0.22836173 1.4041837e-19)
(-0.069652847 0.24914008 2.2256207e-21)
(-0.076936995 0.26969296 8.2257054e-20)
(-0.084627778 0.28957895 -3.3101322e-19)
(-0.092727421 0.30829977 8.1403092e-20)
(-0.10124378 0.32532566 3.4241219e-19)
(-0.11019459 0.34013655 -1.6484685e-19)
(-0.11961188 0.35227844 -2.0032319e-19)
(-0.12954566 0.36142996 5.1360969e-20)
(-0.14006518 0.36746642 2.7351835e-19)
(-0.15125641 0.37050147 -4.2194632e-19)
(-0.16321497 0.37088374 4.7553393e-19)
(-0.17603053 0.36913123 -3.7997789e-19)
(-0.18976299 0.36579918 7.3768782e-20)
(-0.20445398 0.36131788 -1.279789e-19)
(-0.2201393 0.35592829 -1.8413794e-19)
(-0.23679115 0.34978149 7.3474892e-20)
(-0.25431904 0.3429669 1.9246376e-20)
(-0.27259188 0.33546435 2.7627746e-19)
(-0.2914018 0.32715397 -5.4229552e-20)
(-0.31045194 0.3178311 1.3966604e-19)
(-0.32932877 0.30720837 -1.1884971e-19)
(-0.34747362 0.29491361 7.0956133e-20)
(-0.36415574 0.2804958 4.6288799e-20)
(-0.37845285 0.2634485 3.9756668e-20)
(-0.38925259 0.24325966 3.9443584e-20)
(-0.39529027 0.21949217 -2.4025146e-19)
(-0.39522561 0.19190953 -1.8843661e-19)
(-0.38785509 0.16065092 5.2954818e-20)
(-0.37223189 0.12627982 -3.3362408e-20)
(-0.34752772 0.089472486 1.3842242e-19)
(-0.31278666 0.050893692 -2.729603e-19)
(-0.2669863 0.011500035 -3.1594108e-19)
(-0.20968748 -0.027401836 -9.1321508e-20)
(-0.14103077 -0.064770068 -2.3986465e-19)
(-0.061315789 -0.10030818 7.6823198e-21)
(0.029167714 -0.13415282 1.1667415e-19)
(0.129524 -0.16611272 5.7017301e-19)
(0.23802325 -0.19548201 -2.875561e-19)
(0.35188779 -0.22154901 1.1744506e-19)
(0.46822496 -0.24377953 -3.4804708e-19)
(0.58355792 -0.26159349 5.9250704e-19)
(0.69379566 -0.27258524 -3.4426904e-19)
(0.79080403 -0.27204272 1.2015541e-19)
(0.86446529 -0.25454269 -2.7555671e-22)
(0.90825306 -0.22025648 9.6357435e-20)
(0.92870946 -0.17723529 3.5743463e-19)
(0.93473646 -0.13447995 -6.7466871e-19)
(0.93823206 -0.09842116 6.8548833e-19)
(-0.00099815983 0.0034848204 -4.0046364e-20)
(-0.0030831157 0.010767426 -2.0490871e-20)
(-0.0053756892 0.018779691 3.2188611e-20)
(-0.0078932546 0.027582649 -8.4790857e-22)
(-0.010653781 0.037238668 -2.9154469e-20)
(-0.013675608 0.047810612 -1.5262476e-20)
(-0.016977152 0.059360217 3.2221312e-20)
(-0.020576579 0.071946097 -5.2995679e-21)
(-0.024491344 0.08562108 7.4915097e-20)
(-0.028737672 0.1004288 -1.4645147e-20)
(-0.03332992 0.11639937 -3.7603874e-22)
(-0.038279864 0.13354398 5.4298289e-20)
(-0.043595907 0.15184832 -1.7496809e-19)
(-0.049282253 0.17126469 8.2074432e-20)
(-0.055338109 0.19170288 1.4822905e-19)
(-0.061756997 0.21302006 -1.5948238e-19)
(-0.068526354 0.23501023 1.9844735e-20)
(-0.07562758 0.25739432 -1.1426685e-19)
(-0.083036818 0.27981284 -8.6161055e-20)
(-0.09072677 0.3018236 2.7566099e-19)
(-0.098669787 0.32290829 -2.1086553e-19)
(-0.10684256 0.34249215 2.8317784e-19)
(-0.11523211 0.35998078 -3.400512e-20)
(-0.12384273 0.3748161 1.4183351e-19)
(-0.1327024 0.38654877 -3.150664e-19)
(-0.14186674 0.39491659 7.6169486e-20)
(-0.15141779 0.39990896 1.9597731e-19)
(-0.16145557 0.40179028 -4.8222443e-19)
(-0.17208136 0.40105769 2.1304268e-19)
(-0.18337574 0.39832376 2.3250092e-19)
(-0.19537544 0.39414806 -1.947962e-19)
(-0.20808498 0.38889725 -2.6167457e-20)
(-0.22148903 0.38275354 1.3367977e-19)
(-0.23549439 0.37579716 -7.4701118e-20)
(-0.24992828 0.36801692 1.1563168e-19)
(-0.26455347 0.35930255 -4.101104e-19)
(-0.27903329 0.34943697 2.1703649e-19)
(-0.29290729 0.33810378 1.3152126e-19)
(-0.30556919 0.32489271 2.7145357e-19)
(-0.31624595 0.30931114 3.6071836e-20)
(-0.3239883 0.29081508 -2.9329059e-19)
(-0.32768797 0.26886987 1.1828455e-19)
(-0.32613605 0.24304624 1.7453442e-19)
(-0.31812018 0.21316375 2.726727e-20)
(-0.30265747 0.17945284 -1.6852013e-19)
(-0.27895176 0.14254736 -1.4745609e-19)
(-0.24630744 0.10306603 4.4592188e-19)
(-0.2037718 0.061611487 2.3493275e-19)
(-0.15063457 0.019202694 5.0797325e-19)
(-0.086945099 -0.022674528 1.7798992e-19)
(-0.013120376 -0.062873937 6.9042559e-20)
(0.070499813 -0.10109291 5.1185741e-19)
(0.1635205 -0.13743648 2.0199295e-19)
(0.26474553 -0.17157032 -6.8264332e-19)
(0.3720487 -0.20261493 5.5143569e-19)
(0.48230738 -0.22980552 -5.105842e-19)
(0.59256625 -0.25264633 2.4675861e-19)
(0.69926775 -0.2704696 -1.2002271e-18)
(0.79746857 -0.28046334 -6.0353502e-19)
(0.87735539 -0.27761489 2.4479459e-19)
(0.92865137 -0.25718208 3.8350737e-19)
(0.94961917 -0.22065706 6.3978905e-19)
(0.95222473 -0.17677766 1.1107189e-19)
(0.94721938 -0.13462374 8.7563988e-20)
(0.94570463 -0.099608185 -9.1562038e-19)
(-0.0010833298 0.003369499 -7.2149431e-22)
(-0.00334481 0.010421043 3.8100782e-20)
(-0.0058287857 0.018191659 -4.4943206e-20)
(-0.0085532132 0.026744855 -2.1644428e-20)
(-0.011536633 0.036146455 4.3390471e-20)
(-0.014797652 0.046464193 1.4070191e-20)
(-0.018354614 0.057766356 -6.8333318e-20)
(-0.022225216 0.070120174 7.3662292e-20)
(-0.026425919 0.08358958 1.5572607e-20)
(-0.030971268 0.098232272 6.2109987e-20)
(-0.035873074 0.11409588 -1.6545398e-19)
(-0.041139473 0.13121301 -2.0257307e-21)
(-0.046773865 0.14959506 1.4988272e-19)
(-0.05277376 0.16922446 -1.6181927e-19)
(-0.059129601 0.19004546 1.1665244e-19)
(-0.065823648 0.21195321 4.3615509e-20)
(-0.072829097 0.23478175 -9.202924e-20)
(-0.080109664 0.25829142 8.4021438e-20)
(-0.087619943 0.2821574 1.1335341e-19)
(-0.095306924 0.30596166 -2.4477117e-21)
(-0.10311322 0.32919214 -1.8454867e-19)
(-0.11098223 0.35125386 1.1618255e-19)
(-0.11886559 0.37149738 -6.5978451e-20)
(-0.12673223 0.38926887 -3.2548941e-19)
(-0.1345781 0.40398297 -1.1089814e-19)
(-0.14243383 0.4152115 3.0728305e-19)
(-0.15036707 0.4227707 -3.126511e-20)
(-0.15847569 0.42677831 3.5963922e-19)
(-0.16686988 0.42764759 -2.1661763e-19)
(-0.17564494 0.4259947 1.1620731e-19)
(-0.18485361 0.42247435 -1.7119182e-19)
(-0.19449829 0.41760928 -4.2308039e-20)
(-0.20452554 0.41169335 2.161742e-19)
(-0.21482503 0.40482952 -2.2609242e-19)
(-0.22522459 0.39701314 -3.3530943e-19)
(-0.23545663 0.38813098 3.4388794e-20)
(-0.24514235 0.37795147 3.7168743e-19)
(-0.2537791 0.3661357 -4.8104237e-19)
(-0.26071681 0.35224604 1.0507514e-19)
(-0.26514717 0.33576087 -2.2628936e-19)
(-0.26610471 0.31611312 3.5117289e-20)
(-0.26249965 0.29276247 -3.5734495e-19)
(-0.25319066 0.26530478 -1.7182767e-19)
(-0.23710252 0.23362202 -2.1311308e-19)
(-0.21339681 0.19803287 8.5832016e-19)
(-0.1814067 0.15919704 2.7906868e-19)
(-0.14052137 0.11768185 -3.7108061e-19)
(-0.089993146 0.074054774 3.011739e-19)
(-0.029716113 0.029400316 2.5132397e-19)
(0.039769398 -0.014722071 -2.8341519e-19)
(0.11787488 -0.057179476 -1.4820815e-19)
(0.20428446 -0.097694655 -3.4775227e-19)
(0.29849949 -0.13622555 -1.690436e-19)
(0.39907174 -0.17224545 5.7916352e-19)
(0.50350707 -0.20472354 3.2695064e-19)
(0.60849334 -0.23288591 5.2764286e-20)
(0.71120206 -0.25626897 -2.263809e-21)
(0.80795926 -0.27398039 2.9758934e-19)
(0.892394 -0.28270788 -4.3035938e-19)
(0.95275498 -0.27710983 -5.585712e-19)
(0.98077059 -0.25385628 -1.5666544e-19)
(0.9810513 -0.21623628 -1.1822456e-18)
(0.96989715 -0.1733758 -9.3281793e-19)
(0.95779831 -0.13312579 -2.359311e-19)
(0.95362352 -0.099791742 -1.2443972e-19)
(-0.0011272167 0.0031488647 2.4402525e-20)
(-0.0034801822 0.0097493213 1.6001273e-20)
(-0.0060636368 0.017036278 -3.3295564e-20)
(-0.0088959435 0.025073908 5.7102474e-20)
(-0.011996109 0.033929652 1.4305656e-20)
(-0.015383056 0.043674285 -6.1356426e-20)
(-0.019075278 0.054380898 3.1402291e-22)
(-0.023090454 0.066123749 -3.681479e-20)
(-0.027444762 0.078976571 1.1005659e-20)