/*--------------------------------*- C++ -*----------------------------------*\
  =========                 |
  \\      /  F ield         | OpenFOAM: The Open Source CFD Toolbox
   \\    /   O peration     | Website:  https://openfoam.org
    \\  /    A nd           | Version:  13
     \\/     M anipulation  |
\*---------------------------------------------------------------------------*/
FoamFile
{
    format      ascii;
    class       volScalarField;
    location    "0.01";
    object      mag(U);
}
// * * * * * * * * * * * * * * * * * * * * * * * * * * * * * * * * * * * * * //

dimensions      [0 1 -1 0 0 0 0];

internalField   nonuniform List<scalar> 
1000
(
3.15144e-11
3.36333e-11
3.5275e-11
3.39181e-11
3.62313e-11
3.57767e-11
3.52481e-11
3.59679e-11
3.5779e-11
3.70566e-11
3.7035e-11
3.82924e-11
3.43006e-11
3.8472e-11
3.43458e-11
3.55726e-11
3.51795e-11
3.35792e-11
3.22014e-11
3.31633e-11
3.34266e-11
3.32513e-11
3.07444e-11
3.0707e-11
2.80522e-11
2.8483e-11
2.65948e-11
2.92941e-11
2.44382e-11
2.88353e-11
2.63429e-11
2.73066e-11
2.71893e-11
2.82152e-11
2.66496e-11
2.63035e-11
2.83343e-11
2.71338e-11
3.17023e-11
2.77669e-11
2.79923e-11
2.75875e-11
2.7125e-11
2.71988e-11
2.77355e-11
2.76429e-11
2.92898e-11
2.71998e-11
2.65638e-11
2.4767e-11
2.72487e-11
2.84095e-11
3.32521e-11
2.8253e-11
3.30246e-11
3.06507e-11
3.36519e-11
3.32814e-11
3.61466e-11
3.57228e-11
3.77454e-11
3.66608e-11
3.62218e-11
4.41814e-11
5.21576e-11
7.40764e-11
1.15408e-10
1.88021e-10
3.28374e-10
5.86559e-10
1.05988e-09
1.92522e-09
3.49399e-09
6.318e-09
1.13705e-08
2.03661e-08
3.62894e-08
6.43231e-08
1.13386e-07
1.98768e-07
3.46468e-07
6.00472e-07
1.03463e-06
1.77221e-06
3.01744e-06
5.10653e-06
8.58887e-06
1.43559e-05
2.38434e-05
3.93467e-05
6.45064e-05
0.000105053
0.000169931
0.000272988
0.000435482
0.00068975
0.00108455
0.00169268
0.0026218
0.0040295
0.00614396
0.00929189
0.0139356
0.0207207
0.0305373
0.0445938
0.0645047
0.0923882
0.130966
0.183652
0.254601
0.348681
0.471286
0.627865
0.822825
1.0578
1.33171
1.64327
1.9919
2.37683
2.79669
3.24971
3.73379
4.24662
4.78585
5.3491
5.93411
6.53874
7.161
7.7991
8.4514
9.11645
9.79294
10.4797
11.1758
11.8802
12.5922
13.3111
14.0362
14.7669
15.5029
16.2436
16.9887
17.7377
18.4905
19.2467
20.006
20.7683
21.5333
22.3008
23.0707
23.8428
24.617
25.3931
26.171
26.9507
27.7319
28.5147
29.299
30.0846
30.8714
31.6596
32.4488
33.2392
34.0306
34.823
35.6164
36.4107
37.2059
38.0019
38.7986
39.5962
40.3944
41.1934
41.993
42.7933
43.5942
44.3957
45.1977
46.0004
46.8035
47.6071
48.4113
49.2159
50.021
50.8265
51.6325
52.4388
53.2456
54.0528
54.8603
55.6682
56.4765
57.2851
58.094
58.9033
59.7129
60.5228
61.333
62.1435
62.9543
63.7654
64.5767
65.3883
66.2002
67.0124
67.8248
68.6375
69.4505
70.2637
71.0772
71.891
72.705
73.5194
74.334
75.1489
75.9641
76.7796
77.5957
78.4121
79.2288
80.0459
80.8634
81.6816
82.5007
83.3207
84.1412
84.9619
85.7831
86.6063
87.4327
88.2614
89.0894
89.9156
90.7444
91.583
92.4313
93.2795
94.1191
94.9592
95.8192
96.7044
97.6027
98.497
99.3763
100.266
101.213
102.223
103.265
104.281
105.242
106.266
107.448
108.681
109.748
110.816
111.968
112.887
113.736
114.684
115.767
117.144
118.265
118.69
119.171
120.134
121.358
122.417
123.177
124.167
125.519
126.826
127.612
128.337
129.449
130.503
131.475
132.172
132.649
133.407
134.335
134.922
135.433
135.985
136.489
137.246
138.235
139.292
140.035
140.637
141.573
142.49
143.11
143.868
144.839
145.553
146.274
147.199
147.891
148.579
149.55
150.271
150.764
151.511
152.528
153.344
153.781
154.35
155.219
156.219
157.15
157.655
158.128
158.937
159.889
160.915
161.576
161.976
162.648
163.511
164.439
165.44
166.098
166.501
167.17
168.113
169.101
169.665
170.046
170.753
171.616
172.54
173.564
174.296
174.765
175.485
176.516
177.441
177.929
178.439
179.258
180.134
181.073
182.116
182.837
183.275
183.953
184.858
185.889
186.818
187.308
187.801
188.612
189.497
190.474
191.48
192.07
192.512
193.269
194.166
195.151
196.143
196.756
197.266
198.097
199.14
200.008
200.534
201.178
202.153
203.139
203.745
204.278
205.149
206.209
206.961
207.413
208.085
208.989
210.009
210.947
211.496
212.04
212.91
213.956
214.824
215.333
215.943
216.86
217.908
218.667
219.162
219.872
220.868
221.772
222.304
222.873
223.773
224.751
225.388
225.865
226.648
227.694
228.503
229.024
229.633
230.509
231.486
232.031
232.359
232.961
233.884
234.829
235.299
235.742
236.548
237.219
237.747
238.519
239.499
240.093
240.442
240.9
241.545
242.475
243.177
243.44
243.828
244.409
245.098
245.855
246.232
246.475
247.068
247.875
248.502
248.904
249.276
249.887
250.898
251.856
252.255
252.576
253.199
254.115
255.107
255.423
255.418
255.741
256.435
257.55
258.357
258.31
258.242
258.887
260.093
260.79
260.684
260.656
261.153
262.242
263.392
263.589
263.408
263.737
264.825
266.118
266.483
266.358
266.681
267.778
269.021
269.33
269.206
269.548
270.668
271.986
272.397
272.349
272.683
273.726
274.974
275.326
275.258
275.508
275.891
276.625
277.919
278.621
278.461
278.378
278.953
280.192
281.066
280.984
280.809
281.041
281.797
283.039
283.596
283.34
283.211
283.515
284.429
285.552
285.718
285.33
285.263
285.727
286.788
287.423
287.09
286.766
287.399
288.394
288.488
288.131
288.497
289.5
289.808
289.469
289.644
290.626
291.126
290.788
290.739
291.58
292.154
291.842
291.722
292.382
292.74
292.461
292.541
293.102
293.12
292.878
293.32
293.919
293.73
293.296
293.571
294.515
294.887
294.433
294.026
294.149
294.968
295.629
295.302
294.705
294.551
294.997
295.837
295.854
295.098
294.875
295.488
295.758
295.248
295.069
295.533
295.582
295.158
295.287
295.746
295.551
294.974
294.855
295.478
296.083
295.791
295.264
295.05
295.082
295.705
296.144
295.683
295.023
294.827
295.289
296.018
295.835
295.031
294.959
295.555
295.577
294.97
294.928
295.385
295.258
294.74
294.91
295.389
295.11
294.536
294.802
295.36
295.114
294.483
294.18
294.31
295.056
295.436
294.855
294.173
294.348
295.124
295.301
294.603
294.162
294.67
295.209
294.792
294.156
294.428
295.022
294.767
294.105
294.264
294.867
294.703
294.048
294.147
294.736
294.604
293.993
294.116
294.646
294.447
293.917
294.154
294.613
294.293
293.839
294.201
294.612
294.193
293.771
294.205
294.615
294.163
293.725
294.168
294.618
294.183
293.68
294.076
294.611
294.253
293.652
293.937
294.576
294.369
293.692
293.798
294.456
294.415
293.761
293.752
294.37
294.391
293.761
293.709
294.333
294.413
293.76
293.564
294.147
294.386
293.71
293.22
293.675
294.095
293.892
293.775
293.829
293.65
293.739
294.291
294.238
293.54
293.377
294.048
294.487
293.959
293.375
293.744
294.391
294.15
293.486
293.645
294.295
294.196
293.559
293.635
294.251
294.179
293.569
293.653
294.244
294.139
293.548
293.678
294.248
294.081
293.506
293.697
294.255
294.036
293.467
293.703
294.257
294.003
293.426
293.677
294.243
293.986
293.396
293.64
294.217
293.976
293.381
293.612
294.184
293.948
293.378
293.625
294.16
293.884
293.367
293.676
294.146
293.799
293.369
293.765
294.138
293.706
293.385
293.861
294.124
293.619
293.402
293.942
294.131
293.578
293.418
294.003
294.172
293.582
293.39
293.996
294.268
293.688
293.294
293.825
294.386
293.992
293.307
293.497
294.259
294.317
293.618
293.389
294.024
294.412
293.882
293.449
293.944
294.445
294.041
293.58
294.018
294.522
294.165
293.752
294.211
294.71
294.345
293.981
294.493
294.973
294.585
294.244
294.783
295.241
294.801
294.416
294.926
295.37
294.847
294.282
294.716
295.211
294.589
293.737
294.042
294.528
293.727
292.752
293.453
294.698
294.379
293.452
293.906
294.993
294.701
293.574
293.667
294.707
294.695
293.58
293.365
294.352
294.665
293.668
293.143
294.02
294.691
293.898
293.038
293.659
294.636
294.193
293.131
293.38
294.476
294.426
293.336
293.21
294.249
294.52
293.54
293.177
294.106
294.526
293.637
293.187
294.051
294.509
293.662
293.203
294.045
294.494
293.658
293.227
294.075
294.5
293.658
293.24
294.088
294.503
293.647
293.219
294.086
294.544
293.69
293.191
294.033
294.582
293.769
293.154
293.94
294.634
293.907
293.116
293.768
294.639
294.088
293.136
293.576
294.597
294.298
293.232
293.37
294.443
294.478
293.417
293.211
294.238
294.624
293.66
293.102
293.97
294.671
293.92
293.108
293.754
294.671
294.157
293.161
293.537
294.585
294.371
293.311
293.39
294.448
294.525
293.491
293.289
294.304
294.656
293.695
293.223
294.124
294.729
293.917
293.209
293.948
294.781
294.169
293.231
293.718
294.757
294.451
293.352
293.447
294.582
294.765
293.691
293.181
294.109
294.967
294.292
293.225
293.565
294.755
294.793
293.667
293.296
294.296
294.978
294.169
293.298
293.919
294.931
294.527
293.446
293.65
294.757
294.767
293.68
293.469
294.496
294.895
293.931
293.328
294.166
294.909
294.17
293.238
293.775
294.758
294.348
293.206
293.314
294.356
294.349
293.186
292.829
293.729
294.072
293.015
292.249
292.906
293.457
292.541
291.498
291.891
292.478
291.658
290.458
290.646
291.163
290.363
289.072
289.119
289.544
288.703
287.369
287.355
287.689
286.777
285.461
285.469
285.749
284.781
283.53
283.619
283.906
282.919
281.794
281.998
282.333
281.398
280.464
280.848
281.278
280.345
279.859
)
;

boundaryField
{
    sides
    {
        type            calculated;
        value           nonuniform List<scalar> 2(279.859 3.15144e-11);
    }
    empty
    {
        type            empty;
    }
}


// ************************************************************************* //
