/*--------------------------------*- C++ -*----------------------------------*\
  =========                 |
  \\      /  F ield         | OpenFOAM: The Open Source CFD Toolbox
   \\    /   O peration     | Website:  https://openfoam.org
    \\  /    A nd           | Version:  13
     \\/     M anipulation  |
\*---------------------------------------------------------------------------*/
FoamFile
{
    format      ascii;
    class       volScalarField;
    location    "0.01";
    object      p;
}
// * * * * * * * * * * * * * * * * * * * * * * * * * * * * * * * * * * * * * //

dimensions      [1 -1 -2 0 0 0 0];

internalField   nonuniform List<scalar> 
1000
(
100000
100000
100000
100000
100000
100000
100000
100000
100000
100000
100000
100000
100000
100000
100000
100000
100000
100000
100000
100000
100000
100000
100000
100000
100000
100000
100000
100000
100000
100000
100000
100000
100000
100000
100000
100000
100000
100000
100000
100000
100000
100000
100000
100000
100000
100000
100000
100000
100000
100000
100000
100000
100000
100000
100000
100000
100000
100000
100000
100000
100000
100000
100000
100000
100000
100000
100000
100000
100000
100000
100000
100000
100000
100000
100000
100000
100000
100000
100000
100000
100000
100000
100000
100000
100000
100000
100000
100000
100000
100000
100000
100000
99999.9
99999.9
99999.8
99999.7
99999.6
99999.4
99999
99998.5
99997.7
99996.6
99994.8
99992.3
99988.7
99983.4
99976
99965.6
99951.3
99931.7
99905.2
99870.1
99824.3
99765.8
99692.7
99604.5
99501.9
99385.4
99255.2
99111.7
98955.4
98787
98607.4
98417.4
98218.1
98010.3
97794.9
97572.8
97344.7
97111.2
96873.2
96631
96385.2
96136.2
95884.4
95630.3
95373.9
95115.8
94856
94594.8
94332.4
94068.9
93804.6
93539.4
93273.7
93007.3
92740.5
92473.4
92206
91938.3
91670.6
91402.7
91134.8
90866.8
90599
90331.2
90063.6
89796.1
89528.8
89261.8
88995
88728.5
88462.2
88196.3
87930.7
87665.5
87400.7
87136.2
86872.1
86608.5
86345.3
86082.5
85820.2
85558.3
85296.9
85036
84775.5
84515.6
84256.1
83997.2
83738.8
83480.9
83223.5
82966.6
82710.3
82454.5
82199.3
81944.6
81690.5
81436.9
81183.9
80931.5
80679.6
80428.3
80177.5
79927.3
79677.7
79428.7
79180.2
78932.3
78685
78438.3
78192.1
77946.6
77701.6
77457.2
77213.3
76970.1
76727.4
76485.3
76243.8
76002.8
75762.5
75522.7
75283.4
75044.7
74806.5
74569
74332
74095.5
73859.4
73623.8
73388.7
73154.2
72920.2
72686.7
72453.5
72220.2
71986.9
71754.6
71523.5
71292.8
71060.2
70825.2
70591
70361.4
70134.1
69901.7
69659.3
69415.1
69180.8
68952.6
68719.1
68472.3
68203.9
67932
67686.4
67450.5
67200.8
66914.6
66545.6
66227
65974.1
65741.1
65338.8
65016.3
64875.5
64413.1
64101.6
63836.8
63619.3
63546.8
63405.3
62666
62449.5
62303.5
62224.3
62090.2
61438.3
61214.8
61114.7
61168.3
60679.1
60271.8
60192.4
60135.8
60154.7
60020.6
59519.9
59408.7
59430
59022.4
58693.7
58453.6
58053
57925.5
57852
57895
57658.4
57271.5
57238.9
57242.8
56814.4
56684.4
56725.9
56418.9
56202.8
56228.8
55900.9
55675.1
55708.8
55532.6
55070.7
54963.6
54964.1
54960.8
54379.3
54180.3
54086
54047.4
54127
53639.7
53317.7
53214.3
53142
53210.6
53001.2
52464.5
52333.4
52227.4
52149.2
52205.3
52012.4
51494.6
51371.2
51308.7
51401.9
51065.4
50589.9
50470.3
50361.9
50281.9
50328.1
50190.4
49687.7
49572.5
49557.2
49634.9
49099.1
48828.9
48722.5
48609.8
48532.2
48598
48448.1
47921.2
47794
47708.1
47690.8
47776
47261
46980.2
46877.5
46775
46721.9
46825.1
46478.2
46069.2
45967
45877.5
45831.8
45920.9
45575.4
45234.9
45155.8
45171.6
45182.2
44699.9
44542.3
44505.1
44594.3
44232.6
43929.3
43858.8
43929.2
43822.6
43319
43196.5
43121.3
43112.5
43192.2
42749.9
42507.8
42437
42463.2
42485.8
42001.7
41843.1
41783.1
41845.5
41746
41314.7
41215.4
41216
41282.1
40862.1
40665.8
40622.3
40725.2
40473.5
40118.5
40043.6
40063.1
40095.5
39663.9
39483.2
39448.8
39574.6
39350.2
38957.7
38843.9
38808.8
38944.6
38669.1
38406.5
38396.3
38354.6
38117.8
38072.3
38178.2
38067.1
37762.8
37671.3
37589.1
37633.6
37712.6
37304.8
37215.2
37151.1
37269.7
37358.5
37006.9
36713.3
36721.9
36900.1
37007.1
36624.8
36348.3
36290.5
36459
36682.5
36216.4
35908.3
35801.6
35909.3
36285.7
35975.4
35428.6
35279
35196.2
35591.7
35806.2
35162.1
34825.7
34796.1
35248.4
35360.7
34644.2
34367.6
34236.2
34490.2
34913.6
34527.7
33934.5
33787.1
34001.4
34454.3
34176
33521.1
33362.7
33587.8
34050.4
33724.1
33105.6
32953.3
33189.7
33667.2
33360.9
32730.7
32562.6
32741.6
33288.9
33047.4
32547.4
32462.3
32269.9
32240.9
32817.7
32920.4
32215.9
31950.6
31871.8
32393.5
32657.9
32064.3
31727.5
31584.3
31610.4
32201.5
32268.6
31587.2
31372.1
31228.4
31470.4
32003.2
31773.7
31167.6
31016.7
30968.5
31524.1
31751.6
31131.9
30775.4
30975.6
31473.4
31228.3
30653.4
30694.2
31227.1
31174.7
30554.5
30480.3
31019.6
31143.2
30529.6
30338.4
30827.2
31059
30516.2
30324.3
30763
30866.2
30388.6
30370.1
30750.6
30553.6
30152.5
30409.5
30755.5
30365.6
29992
29990.5
30617.6
30723.4
30164.2
29963.4
29859.2
30368.8
30737.1
30306.9
29968.9
29844.9
30023.5
30640.1
30619.8
29971.7
29860.8
30397.9
30546.8
30022.8
29933.4
30373.2
30333.4
29891.6
30034.9
30427.3
30171.2
29787.2
29665.9
30111.3
30512
30161.1
29905.5
29836.7
29719.4
30214.2
30538.2
30109.5
29812.6
29694.9
29999
30566.7
30431.8
29830.3
29849.8
30418.4
30409.2
29895.9
29951.2
30417.7
30274.2
29846.1
30058.1
30497.8
30228.3
29793.4
30057
30523.1
30256.3
29901.2
29803.6
29764.7
30383.6
30623.3
30113.2
29797
29856.4
30498.6
30604.2
30015.4
29786.9
30233.2
30625.4
30249.5
29832.3
30095.5
30587.6
30350
29862.2
30034.6
30566.4
30401.3
29884.8
30017.7
30550.5
30399.3
29903.4
30066.5
30550.4
30327.3
29900.9
30167.2
30571.8
30238.9
29893.2
30261.6
30595.1
30185.2
29887.3
30306.4
30622.5
30185.8
29886.6
30303.8
30642.5
30227.1
29886.8
30252
30665
30318.7
29895.6
30143.7
30657.9
30456
29936.3
30045.7
30613.3
30538.5
29986.2
30019.5
30575.9
30551.6
30002.8
29996.4
30553.4
30583
30011.8
29916.6
30470.8
30667.5
30121.7
29842.6
30284.9
30525.4
30262.1
30236.4
30343.2
30105.3
30106.7
30624.2
30568.8
30017.1
29911.1
30477.6
30760.6
30279.1
29920.7
30225.9
30726
30481.8
29978.6
30129.5
30676.8
30544.8
30015
30114.7
30660.8
30549.4
30027.4
30137.6
30664.7
30523
30025.1
30174.9
30679.7
30489.1
30014.3
30211.1
30696.7
30457.3
30004.5
30238.9
30707.7
30440.6
29996
30242.5
30713.2
30446.1
29993.9
30231.2
30713.5
30459.5
29995.1
30224.5
30706
30450.3
30000.5
30250
30701.8
30407.3
30004
30313.3
30697.8
30330.6
30007.9
30400.1
30688.1
30245.1
30019.2
30484.2
30672
30177
30035.9
30547.3
30660.2
30135.2
30039.2
30575.6
30672.5
30129.9
30012.6
30556.9
30726.3
30189.3
29950.1
30395.7
30784.2
30411.2
29970.6
30086.9
30701.8
30703.4
30101.5
29970.4
30519.2
30765.2
30254.8
29976
30399.9
30750.8
30325.7
29991.9
30369.4
30733.3
30322.4
30001.5
30385.8
30726.1
30289.7
30003.2
30410.9
30727.1
30263.2
29995.4
30428
30734.2
30249.9
29981
30414.9
30742.9
30276
29964
30371.1
30746.5
30315
29947.6
30323.5
30750
30360.7
29939
30261.6
30789.3
30435
29964.3
30164.8
30740.5
30537.2
30009.3
30078.3
30675.9
30637.4
30067.7
30009.9
30588.4
30714.1
30154.2
29962.2
30459.6
30756.7
30294.8
29952.4
30285.7
30754.9
30481.1
29987.9
30119.8
30696.1
30634.8
30060.6
30031.4
30610.2
30701.6
30138.8
30006.3
30541.2
30713.6
30187.3
30008.7
30512.9
30711.8
30202.9
30015.1
30512.6
30706.9
30196.8
30021.6
30523.2
30702.2
30190.9
30023
30529.8
30706.9
30191.2
30017.2
30525.2
30722.2
30208.2
30005.5
30496.1
30738.6
30247.5
29990
30439.2
30758.8
30317.4
29981.4
30348
30765.9
30422.9
29991.1
30229.1
30741.7
30548.8
30024.9
30107.8
30687.5
30665.1
30088.7
30020.4
30593
30742.3
30190.7
29979.7
30465.3
30775.6
30320.3
29976.2
30327.4
30767.2
30454.2
29999
30199.4
30735.2
30579.4
30040.4
30097.9
30678.8
30672.7
30100.8
30034.1
30605.1
30734.8
30180.1
30000.8
30511.5
30770.8
30282.8
29987.8
30395.1
30782.3
30407.7
29994.7
30252
30764.5
30567.8
30038.1
30087.3
30683.3
30733.3
30151.7
29966.1
30456.6
30822.7
30425.8
29992.9
30134.1
30739
30721.1
30119.5
29987.9
30534.4
30813.1
30332.9
29988.9
30310.2
30794.2
30542.8
30035.3
30142.9
30728.3
30693.7
30115.9
30049.1
30626.6
30783.6
30234.8
30010.6
30488.4
30824.5
30402.2
30028.4
30325.4
30827
30600.1
30090
30184.3
30788.6
30781.4
30217.8
30130.9
30720.1
30910.9
30402.7
30169.4
30666.4
31006.8
30615.1
30278.9
30676
31111.2
30820.1
30434.7
30768
31250.3
31017.8
30621.4
30934.7
31422.1
31211
30825.5
31147.2
31618.5
31397.6
31028.2
31379.4
31817.6
31568
31209.5
31584.5
31997.4
31714.4
31356.1
31728.1
32137.8
31825.5
31449.3
31786
32212.8
31951.7
31595.1
)
;

boundaryField
{
    sides
    {
        type            zeroGradient;
    }
    empty
    {
        type            empty;
    }
}


// ************************************************************************* //
