/*--------------------------------*- C++ -*----------------------------------*\
  =========                 |
  \\      /  F ield         | OpenFOAM: The Open Source CFD Toolbox
   \\    /   O peration     | Website:  https://openfoam.org
    \\  /    A nd           | Version:  13
     \\/     M anipulation  |
\*---------------------------------------------------------------------------*/
FoamFile
{
    format      ascii;
    class       volScalarField;
    location    "0.01";
    object      p_0;
}
// * * * * * * * * * * * * * * * * * * * * * * * * * * * * * * * * * * * * * //

dimensions      [1 -1 -2 0 0 0 0];

internalField   nonuniform List<scalar> 
1000
(
100000
100000
100000
100000
100000
100000
100000
100000
100000
100000
100000
100000
100000
100000
100000
100000
100000
100000
100000
100000
100000
100000
100000
100000
100000
100000
100000
100000
100000
100000
100000
100000
100000
100000
100000
100000
100000
100000
100000
100000
100000
100000
100000
100000
100000
100000
100000
100000
100000
100000
100000
100000
100000
100000
100000
100000
100000
100000
100000
100000
100000
100000
100000
100000
100000
100000
100000
100000
100000
100000
100000
100000
100000
100000
100000
100000
100000
100000
100000
100000
100000
100000
100000
100000
100000
100000
100000
100000
100000
100000
100000
100000
99999.9
99999.9
99999.8
99999.7
99999.6
99999.4
99999
99998.5
99997.8
99996.6
99994.9
99992.4
99988.8
99983.7
99976.4
99966.1
99951.9
99932.5
99906.4
99871.6
99826.3
99768.3
99695.8
99608.1
99506
99390
99260.3
99117.3
98961.4
98793.4
98614.2
98424.6
98225.6
98018.1
97803
97581.1
97353.1
97119.9
96881.9
96639.9
96394.2
96145.3
95893.6
95639.5
95383.2
95125.1
94865.3
94604.2
94341.8
94078.3
93814
93548.8
93283
93016.7
92749.9
92482.8
92215.3
91947.7
91679.9
91412
91144
90876.1
90608.2
90340.4
90072.7
89805.2
89537.9
89270.8
89004
88737.4
88471.2
88205.2
87939.6
87674.3
87409.5
87145
86880.9
86617.2
86353.9
86091.1
85828.7
85566.8
85305.4
85044.4
84783.9
84523.9
84264.4
84005.5
83747
83489
83231.6
82974.7
82718.4
82462.6
82207.3
81952.6
81698.4
81444.8
81191.7
80939.2
80687.3
80435.9
80185.1
79934.9
79685.3
79436.2
79187.7
78939.7
78692.4
78445.6
78199.4
77953.8
77708.8
77464.3
77220.5
76977.2
76734.5
76492.3
76250.8
76009.8
75769.4
75529.5
75290.3
75051.5
74813.3
74575.7
74338.6
74102.1
73866
73630.4
73395.2
73160.7
72926.7
72693.1
72459.8
72226.5
71993.2
71760.9
71529.9
71299
71066.2
70831.2
70597.3
70368
70140.6
69907.5
69664.8
69421.4
69188
68959.7
68725.5
68477.7
68208.7
67939.2
67695.6
67459.3
67208.7
66917.1
66548.7
66239.2
65988.9
65751.1
65335.6
65036.5
64882.6
64401.1
64114.2
63844.7
63639.7
63579.3
63378.5
62652
62462.6
62321.2
62256.1
62066.5
61430.5
61232.7
61141.7
61193.8
60627.6
60283.4
60206.6
60153.8
60185.2
59991.1
59521.7
59431
59447.2
58986.6
58706.7
58433.7
58058
57938.8
57871.7
57923.4
57621.6
57282.6
57266.2
57236.5
56802.1
56705.1
56742.9
56394.5
56222.8
56242.2
55875.6
55692
55738.9
55492.4
55073.4
54978.3
54998.8
54937.9
54356.2
54190.4
54099.3
54076
54134.8
53593.5
53326.5
53226.1
53161.2
53245.3
52946.4
52464
52343.2
52238
52167.8
52239.1
51961.5
51494.3
51383.1
51331.9
51430.5
51003.4
50594.6
50479.7
50371.8
50299.2
50362.8
50145.3
49685
49585.3
49591.3
49629.8
49055.8
48836.9
48730.5
48618.9
48550.1
48634.6
48395.8
47916.8
47803.7
47720.7
47724.1
47774.1
47214.2
46987.9
46885.8
46785.2
46746.9
46849.1
46417.6
46074.9
45976.3
45888.5
45857.2
45939.7
45524.2
45243.1
45169.8
45207.3
45159.9
44678.2
44553.5
44532
44608.8
44184.3
43938.1
43876.1
43967.4
43772.3
43311
43205.6
43133.1
43145.3
43190.5
42708
42516.4
42450.4
42500.5
42462.3
41976.3
41851.9
41800.8
41881.2
41701
41309.7
41227.3
41249.5
41274.3
40828.1
40675.3
40645.6
40748.8
40420.8
40124
40057.6
40100.8
40068.4
39638.5
39493.7
39471.8
39601.6
39291.8
38958
38855.9
38834.5
38968
38617.3
38414.6
38409.4
38342.3
38118.8
38088.2
38210.5
38017.5
37757.5
37672
37605.2
37670.1
37693.7
37275.3
37216
37155.6
37309
37340.8
36967.2
36724.8
36730.6
36947
36979.4
36584.4
36352.3
36302.1
36521.1
36671.2
36150.3
35907.1
35805.8
35980.6
36312.8
35877.6
35417.6
35273.9
35229.3
35671.4
35778.8
35082.8
34818.9
34847.8
35318.4
35310.9
34578.7
34360
34245.2
34584.5
34937.8
34415.1
33920.8
33791.6
34095
34489.5
34065
33501
33366.9
33684
34080.2
33611.8
33088.3
32956.5
33289.9
33698.3
33247
32711.2
32556.9
32843.9
33324.4
32952.9
32538.4
32454.2
32245.8
32308.8
32891.6
32861.6
32150
31936.8
31913.7
32484.6
32634.9
31977.8
31717.1
31570.5
31686.8
32269.5
32203.1
31531
31360.1
31224.6
31577.2
32037
31666.2
31144.6
31002.3
31018.7
31608.6
31724.2
31038
30770.2
31072.8
31502.5
31122.7
30630.3
30769.9
31279.6
31088.7
30512.3
30533
31092.3
31087.9
30462.5
30368.8
30914.6
31023.3
30443.8
30359.5
30829.4
30817.7
30347.3
30426.2
30777.1
30470.5
30149.4
30496
30748.7
30276.5
29970.9
30057.7
30686.5
30667.1
30107.8
29945.7
29879.9
30473
30726.2
30217.8
29953.8
29829.7
30126.8
30683.9
30537.8
29917.1
29905.8
30470.5
30500.8
29964.4
29982
30417.6
30264.1
29868.2
30112.9
30435.6
30087.7
29765.1
29673.8
30217.1
30504
30087.7
29897.4
29815.8
29739.5
30310.2
30517.9
30030.1
29796.2
29686.9
30112
30594.7
30333.3
29791.8
29922.1
30467
30337.1
29858.1
30023.1
30444.6
30192.3
29830.8
30147.7
30507.1
30132.9
29780.9
30156.6
30531.2
30172.3
29886.4
29783.5
29815.6
30465.6
30596.2
30026.3
29775.6
29937.7
30556.9
30551.1
29942.5
29799.1
30334.6
30622.7
30148.5
29822.2
30197
30604
30250.7
29841.4
30129.2
30593.5
30306.6
29857.9
30107.1
30579.8
30308.3
29880.2
30155.8
30567.9
30236.1
29892.4
30259.1
30569.7
30150
29900
30352.3
30579.9
30098.9
29901.8
30396.9
30603.2
30099
29899.2
30397.1
30629.3
30135.6
29890.2
30351.7
30664.7
30219.7
29883.5
30245.7
30679.1
30356.9
29908.8
30133.9
30652.1
30453.7
29947.4
30094.5
30622.5
30474.8
29959
30064.3
30607.2
30514.1
29958.2
29963.6
30545
30632.1
30036
29856.9
30367.3
30505.8
30231.7
30255.5
30328
30063.5
30175.4
30669.8
30486
29972.6
29949.4
30565.3
30741.6
30183.4
29915.2
30331.4
30741.5
30380.3
29955.7
30222.7
30708.1
30453.4
29984.3
30200.1
30695.5
30461.7
29996.7
30223.5
30695.5
30433.3
29999.6
30264.8
30703.3
30395.9
29995.9
30304.8
30712.8
30361.9
29991
30335
30719.9
30343.7
29984.2
30339.8
30725.6
30348.1
29980.6
30329
30727.6
30361.6
29980.8
30321.5
30720.2
30353.5
29988.9
30345.9
30709
30312.8
30001.8
30406.7
30691.3
30242.1
30020.4
30486.5
30664.2
30167.3
30048
30559.8
30631.2
30110.7
30079.8
30613.1
30607.4
30076.1
30090.9
30639.3
30615.4
30069.9
30058.5
30629.5
30683.8
30114.5
29963.1
30496.4
30782.8
30308.9
29949.5
30178.4
30748.3
30628.3
30046.1
30007.8
30603.6
30735.5
30170.2
29988.1
30496.3
30736.9
30234.6
29998.2
30465.7
30720.5
30234.2
30008.5
30481
30707.1
30206.7
30013.5
30505.5
30699.9
30184.5
30008.6
30523.4
30702.7
30171
29993.9
30511.4
30720
30188.6
29971.8
30470.2
30735.1
30219.3
29949.9
30426.3
30747.1
30258.8
29929.9
30377.2
30796.3
30327.5
29943.5
30271.8
30766.8
30436.3
29978.3
30163.3
30723.2
30555.4
30020.7
30067.1
30656.8
30661.6
30084.6
29988.6
30550.7
30736.9
30202.1
29950.5
30391
30766.5
30377.8
29964.3
30212.7
30735.9
30549.7
30015.5
30095.4
30672.3
30643.1
30075.3
30050.4
30615.5
30669.5
30115.7
30044.7
30591.1
30671.3
30129.9
30050.7
30590.1
30665.7
30125.4
30058.6
30598.3
30659.8
30121
30061
30604.8
30664
30120.7
30053.6
30603.1
30682
30134.1
30035.6
30579.7
30707.5
30165.7
30009
30531.9
30741.3
30225.4
29985.3
30449.4
30766.8
30322.1
29978.5
30330.7
30764.4
30449.8
29995.3
30192.8
30733.3
30586.3
30039
30075.2
30663.4
30694.6
30117.3
30004.1
30557.8
30756.8
30227.1
29977.4
30430.7
30773.3
30351.7
29982.2
30298.7
30763.1
30483.7
30007.3
30178.4
30727.2
30597.2
30050
30089.9
30673.5
30683.3
30110.9
30032.5
30597.3
30743.2
30196.2
29998
30494.7
30778.4
30307.6
29984
30355.5
30786.1
30468.1
30006.6
30167.2
30737
30667
30089.5
29987.6
30556
30817.4
30322.5
29973
30230.2
30782.7
30642.2
30065
30023.6
30623
30792
30239
29985.1
30416.5
30809
30439.6
30009.4
30232.5
30771.9
30612.6
30067
30104.1
30697.6
30737.4
30159.5
30031.1
30583.9
30811.9
30305
30020.9
30431.4
30843.5
30498.7
30061.1
30271.7
30833.6
30705.5
30164.4
30180.1
30794.5
30870
30324.1
30187.3
30761.1
30991.2
30522.3
30277.6
30778.5
31108.6
30725.2
30423.4
30869.8
31252.8
30926.5
30605.3
31034.3
31425.7
31122.5
30809.8
31245.3
31619.4
31310.4
31017.8
31474.8
31814.6
31481.2
31206.5
31678
31989.5
31627.5
31361.3
31820
32124
31739
31462.6
31875.3
32190
31863.2
31643.8
)
;

boundaryField
{
    sides
    {
        type            calculated;
        value           nonuniform List<scalar> 2(31643.8 100000);
    }
    empty
    {
        type            empty;
    }
}


// ************************************************************************* //
