/*--------------------------------*- C++ -*----------------------------------*\
  =========                 |
  \\      /  F ield         | OpenFOAM: The Open Source CFD Toolbox
   \\    /   O peration     | Website:  https://openfoam.org
    \\  /    A nd           | Version:  13
     \\/     M anipulation  |
\*---------------------------------------------------------------------------*/
FoamFile
{
    format      ascii;
    class       volScalarField;
    location    "0.01";
    object      rho_0;
}
// * * * * * * * * * * * * * * * * * * * * * * * * * * * * * * * * * * * * * //

dimensions      [1 -3 0 0 0 0 0];

internalField   nonuniform List<scalar> 
1000
(
0.997575
0.997575
0.997575
0.997575
0.997575
0.997575
0.997575
0.997575
0.997575
0.997575
0.997575
0.997575
0.997575
0.997575
0.997575
0.997575
0.997575
0.997575
0.997575
0.997575
0.997575
0.997575
0.997575
0.997575
0.997575
0.997575
0.997575
0.997575
0.997575
0.997575
0.997575
0.997575
0.997575
0.997575
0.997575
0.997575
0.997575
0.997575
0.997575
0.997575
0.997575
0.997575
0.997575
0.997575
0.997575
0.997575
0.997575
0.997575
0.997575
0.997575
0.997575
0.997575
0.997575
0.997575
0.997575
0.997575
0.997575
0.997575
0.997575
0.997575
0.997575
0.997575
0.997575
0.997575
0.997575
0.997575
0.997575
0.997575
0.997575
0.997575
0.997575
0.997575
0.997575
0.997575
0.997575
0.997575
0.997575
0.997575
0.997575
0.997575
0.997575
0.997575
0.997575
0.997575
0.997575
0.997575
0.997575
0.997575
0.997574
0.997574
0.997574
0.997574
0.997574
0.997574
0.997573
0.997573
0.997572
0.99757
0.997568
0.997564
0.997559
0.99755
0.997538
0.997521
0.997495
0.997458
0.997406
0.997333
0.997232
0.997094
0.996908
0.99666
0.996337
0.995924
0.995407
0.994783
0.994055
0.993228
0.992302
0.991281
0.990169
0.988969
0.987688
0.986332
0.984908
0.983423
0.981882
0.980291
0.978656
0.976982
0.975272
0.973532
0.971765
0.969974
0.96816
0.966328
0.96448
0.962616
0.960739
0.95885
0.956951
0.955043
0.953126
0.951203
0.949273
0.947338
0.945397
0.943453
0.941505
0.939553
0.937599
0.935642
0.933684
0.931724
0.929762
0.9278
0.925837
0.923873
0.92191
0.919946
0.917982
0.916019
0.914056
0.912094
0.910132
0.908172
0.906212
0.904254
0.902297
0.900341
0.898387
0.896434
0.894483
0.892534
0.890586
0.88864
0.886697
0.884755
0.882815
0.880877
0.878942
0.877008
0.875077
0.873148
0.871222
0.869298
0.867376
0.865456
0.863539
0.861625
0.859713
0.857803
0.855897
0.853992
0.852091
0.850192
0.848295
0.846401
0.84451
0.842622
0.840736
0.838853
0.836973
0.835096
0.833221
0.831349
0.82948
0.827613
0.82575
0.823889
0.82203
0.820175
0.818322
0.816472
0.814625
0.81278
0.810937
0.809098
0.807261
0.805426
0.803594
0.801763
0.799934
0.798108
0.796285
0.794464
0.792642
0.790819
0.788995
0.787177
0.785367
0.783556
0.781729
0.779882
0.778043
0.776238
0.774446
0.772607
0.770691
0.768769
0.766923
0.765115
0.763258
0.761291
0.759155
0.757015
0.755078
0.753193
0.751191
0.748856
0.745917
0.743448
0.741441
0.739519
0.736177
0.733797
0.732521
0.72864
0.726353
0.72417
0.722517
0.722005
0.720286
0.714477
0.712951
0.711783
0.711226
0.709575
0.704457
0.702852
0.702099
0.702472
0.697783
0.695041
0.694415
0.694
0.694252
0.692545
0.68873
0.687977
0.688067
0.684233
0.681964
0.679646
0.676587
0.675596
0.675032
0.675434
0.672846
0.670099
0.66996
0.669631
0.666023
0.665218
0.665485
0.662552
0.661181
0.661317
0.658231
0.656739
0.657117
0.654951
0.651501
0.650678
0.650843
0.650209
0.645349
0.643969
0.643191
0.642999
0.643426
0.638815
0.636607
0.635738
0.635179
0.635876
0.633213
0.629207
0.628173
0.627267
0.626663
0.627258
0.62476
0.620847
0.619875
0.619427
0.620229
0.616458
0.613039
0.61204
0.611101
0.610471
0.611011
0.609009
0.605114
0.604242
0.604297
0.604528
0.599546
0.597692
0.596749
0.595766
0.595164
0.595892
0.593678
0.589594
0.588601
0.587864
0.5879
0.588238
0.583319
0.581383
0.580469
0.579572
0.579236
0.580086
0.576194
0.573256
0.572369
0.571578
0.571301
0.571976
0.568223
0.565802
0.565137
0.565473
0.564932
0.560687
0.559589
0.5594
0.560016
0.556168
0.55403
0.553463
0.554275
0.552381
0.548334
0.547378
0.546709
0.546827
0.547138
0.542773
0.541088
0.54048
0.540938
0.540465
0.536108
0.534994
0.534523
0.535243
0.533474
0.529999
0.52924
0.529453
0.529573
0.525506
0.524143
0.523872
0.524769
0.52167
0.519029
0.518408
0.518816
0.518383
0.514474
0.513156
0.512963
0.514116
0.511145
0.50815
0.507195
0.507002
0.508181
0.504846
0.50304
0.502976
0.502297
0.500244
0.499958
0.501077
0.499162
0.496809
0.495996
0.495388
0.496003
0.496104
0.492218
0.491683
0.491103
0.492573
0.492768
0.489255
0.487039
0.487089
0.489144
0.489323
0.485611
0.483472
0.483013
0.485132
0.486405
0.481452
0.479227
0.478264
0.480014
0.483039
0.47878
0.474552
0.473165
0.472788
0.477006
0.477831
0.471215
0.468771
0.469132
0.473579
0.473298
0.466386
0.464337
0.463251
0.466598
0.469814
0.464661
0.460081
0.458844
0.461872
0.46549
0.461224
0.455972
0.4547
0.457879
0.461538
0.456849
0.451957
0.450693
0.454042
0.457828
0.453276
0.448236
0.446734
0.449678
0.454181
0.450445
0.446584
0.445736
0.443686
0.444447
0.450028
0.449503
0.442667
0.440625
0.4405
0.446063
0.447327
0.440912
0.438451
0.436994
0.438292
0.443895
0.443025
0.436547
0.434905
0.43359
0.437202
0.441524
0.437709
0.432755
0.431339
0.431619
0.437376
0.438309
0.431565
0.429032
0.432161
0.43624
0.432324
0.427635
0.429175
0.434087
0.432001
0.426446
0.426792
0.432269
0.432006
0.425902
0.425113
0.430518
0.431389
0.425677
0.424994
0.42963
0.429321
0.424734
0.425656
0.429032
0.425851
0.422824
0.426369
0.428696
0.42394
0.421011
0.42203
0.428184
0.427792
0.422325
0.420735
0.420166
0.426117
0.42843
0.423325
0.4208
0.419577
0.422707
0.428071
0.42642
0.420382
0.420423
0.425997
0.426108
0.420832
0.421184
0.425445
0.423749
0.419938
0.422514
0.425568
0.422006
0.418909
0.418054
0.423552
0.426216
0.422022
0.420213
0.419373
0.418717
0.424439
0.42632
0.421445
0.419197
0.418138
0.42253
0.427145
0.424367
0.419144
0.420616
0.425929
0.424451
0.419814
0.421619
0.425675
0.423029
0.419564
0.422865
0.426266
0.422428
0.419084
0.422959
0.426503
0.422834
0.420103
0.419064
0.419536
0.425957
0.427075
0.421402
0.418991
0.420782
0.426816
0.426576
0.4206
0.419292
0.424693
0.427374
0.422563
0.419479
0.42334
0.427214
0.423554
0.419645
0.422675
0.427122
0.424116
0.41981
0.422461
0.427008
0.424152
0.420049
0.422951
0.426893
0.423462
0.420205
0.423973
0.426893
0.422638
0.420314
0.424886
0.426979
0.422149
0.420357
0.425331
0.427205
0.422164
0.420327
0.425354
0.427467
0.422517
0.420231
0.424918
0.427848
0.423333
0.42014
0.423891
0.428024
0.42468
0.420375
0.422792
0.427791
0.425641
0.420757
0.422394
0.427517
0.425875
0.420874
0.422095
0.42739
0.426277
0.420858
0.421075
0.426807
0.427498
0.421584
0.419955
0.425083
0.426309
0.423606
0.423923
0.424577
0.421934
0.423243
0.428044
0.426036
0.42107
0.420984
0.42709
0.428675
0.423101
0.420575
0.424857
0.428763
0.425028
0.420976
0.423799
0.428472
0.425779
0.42127
0.423588
0.428368
0.42588
0.421415
0.423841
0.428383
0.42562
0.421466
0.424273
0.428469
0.425277
0.421464
0.424686
0.428579
0.424969
0.42145
0.425012
0.428668
0.424815
0.421408
0.42509
0.428751
0.424884
0.421403
0.425019
0.428809
0.425047
0.421434
0.424975
0.428768
0.425008
0.421552
0.425247
0.428682
0.424648
0.421733
0.425868
0.42853
0.423995
0.42198
0.426678
0.428273
0.423318
0.422318
0.427416
0.427953
0.422824
0.422695
0.427968
0.427722
0.422529
0.422856
0.428245
0.427826
0.422485
0.422548
0.428179
0.428538
0.422912
0.421539
0.426906
0.429561
0.424746
0.421292
0.423721
0.429204
0.42779
0.422073
0.421778
0.427607
0.428639
0.422915
0.421118
0.426075
0.42807
0.422805
0.420344
0.424749
0.426695
0.421399
0.418827
0.422976
0.424349
0.418629
0.416064
0.419949
0.420582
0.414337
0.411495
0.414976
0.414875
0.407915
0.404058
0.405424
0.401927
0.389934
0.378917
0.371599
0.359679
0.34007
0.321974
0.309103
0.295873
0.280687
0.271291
0.270434
0.271353
0.267473
0.264592
0.266363
0.268991
0.266574
0.263565
0.264637
0.26784
0.266548
0.263178
0.263478
0.267
0.266859
0.263273
0.262731
0.266193
0.267218
0.263873
0.262391
0.265199
0.267416
0.264932
0.26247
0.264128
0.267278
0.26603
0.262816
0.263433
0.266959
0.266679
0.263222
0.263181
0.266675
0.266906
0.263515
0.263189
0.266574
0.266968
0.263643
0.263264
0.266609
0.266972
0.263655
0.263352
0.26669
0.266964
0.263657
0.263391
0.266752
0.267012
0.263677
0.263365
0.266766
0.267143
0.263774
0.263257
0.266643
0.267319
0.263973
0.263098
0.266365
0.267558
0.264333
0.262941
0.265882
0.267742
0.26493
0.262894
0.265174
0.267761
0.265717
0.262991
0.26433
0.267597
0.266573
0.263265
0.263591
0.267197
0.267278
0.263732
0.263126
0.266578
0.267704
0.264404
0.262941
0.265824
0.267831
0.265157
0.26296
0.265023
0.267801
0.265964
0.263109
0.264273
0.267598
0.266677
0.263363
0.263707
0.267288
0.267228
0.263723
0.263328
0.266831
0.267625
0.26423
0.263088
0.266219
0.267866
0.264895
0.262979
0.265371
0.267935
0.265869
0.263101
0.264205
0.26766
0.267113
0.26359
0.263035
0.266589
0.268105
0.264983
0.2629
0.264601
0.26793
0.266948
0.26345
0.263277
0.266986
0.267926
0.264477
0.262984
0.265735
0.268055
0.265683
0.263105
0.264596
0.267843
0.266736
0.263437
0.263763
0.267399
0.26753
0.263977
0.263267
0.266713
0.268022
0.264844
0.263168
0.265794
0.268236
0.266011
0.26339
0.264804
0.268191
0.267287
0.264006
0.264204
0.267974
0.268334
0.264974
0.264215
0.267803
0.269113
0.26618
0.264758
0.267916
0.269853
0.267424
0.265651
0.268485
0.270736
0.26865
0.266763
0.269491
0.271792
0.269849
0.268017
0.270767
0.272963
0.270997
0.269286
0.272161
0.274135
0.272033
0.27044
0.27339
0.275193
0.272928
0.271399
0.274256
0.276011
0.273615
0.272032
0.274596
0.276399
0.274356
0.27314
)
;

boundaryField
{
    sides
    {
        type            calculated;
        value           nonuniform List<scalar> 2(0.27314 0.997575);
    }
    empty
    {
        type            empty;
    }
}


// ************************************************************************* //
