/*--------------------------------*- C++ -*----------------------------------*\
  =========                 |
  \\      /  F ield         | OpenFOAM: The Open Source CFD Toolbox
   \\    /   O peration     | Website:  https://openfoam.org
    \\  /    A nd           | Version:  13
     \\/     M anipulation  |
\*---------------------------------------------------------------------------*/
FoamFile
{
    format      ascii;
    class       volVectorField;
    location    "0.01";
    object      U;
}
// * * * * * * * * * * * * * * * * * * * * * * * * * * * * * * * * * * * * * //

dimensions      [0 1 -1 0 0 0 0];

internalField   nonuniform List<vector> 
1000
(
(3.15144e-11 0 0)
(3.36333e-11 0 0)
(3.5275e-11 0 0)
(3.39181e-11 0 0)
(3.62313e-11 0 0)
(3.57767e-11 0 0)
(3.52481e-11 0 0)
(3.59679e-11 0 0)
(3.5779e-11 0 0)
(3.70566e-11 0 0)
(3.7035e-11 0 0)
(3.82924e-11 0 0)
(3.43006e-11 0 0)
(3.8472e-11 0 0)
(3.43458e-11 0 0)
(3.55726e-11 0 0)
(3.51795e-11 0 0)
(3.35792e-11 0 0)
(3.22014e-11 0 0)
(3.31633e-11 0 0)
(3.34266e-11 0 0)
(3.32513e-11 0 0)
(3.07444e-11 0 0)
(3.0707e-11 0 0)
(2.80522e-11 0 0)
(2.8483e-11 0 0)
(2.65948e-11 0 0)
(2.92941e-11 0 0)
(2.44382e-11 0 0)
(2.88353e-11 0 0)
(2.63429e-11 0 0)
(2.73066e-11 0 0)
(2.71893e-11 0 0)
(2.82152e-11 0 0)
(2.66496e-11 0 0)
(2.63035e-11 0 0)
(2.83343e-11 0 0)
(2.71338e-11 0 0)
(3.17023e-11 0 0)
(2.77669e-11 0 0)
(2.79923e-11 0 0)
(2.75875e-11 0 0)
(2.7125e-11 0 0)
(2.71988e-11 0 0)
(2.77355e-11 0 0)
(2.76429e-11 0 0)
(2.92898e-11 0 0)
(2.71998e-11 0 0)
(2.65638e-11 0 0)
(2.4767e-11 0 0)
(2.72487e-11 0 0)
(2.84095e-11 0 0)
(3.32521e-11 0 0)
(2.8253e-11 0 0)
(3.30246e-11 0 0)
(3.06507e-11 0 0)
(3.36519e-11 0 0)
(3.32814e-11 0 0)
(3.61466e-11 0 0)
(3.57228e-11 0 0)
(3.77454e-11 0 0)
(3.66608e-11 0 0)
(3.62218e-11 0 0)
(4.41814e-11 0 0)
(5.21576e-11 0 0)
(7.40764e-11 0 0)
(1.15408e-10 0 0)
(1.88021e-10 0 0)
(3.28374e-10 0 0)
(5.86559e-10 0 0)
(1.05988e-09 0 0)
(1.92522e-09 0 0)
(3.49399e-09 0 0)
(6.318e-09 0 0)
(1.13705e-08 0 0)
(2.03661e-08 0 0)
(3.62894e-08 0 0)
(6.43231e-08 0 0)
(1.13386e-07 0 0)
(1.98768e-07 0 0)
(3.46468e-07 0 0)
(6.00472e-07 0 0)
(1.03463e-06 0 0)
(1.77221e-06 0 0)
(3.01744e-06 0 0)
(5.10653e-06 0 0)
(8.58887e-06 0 0)
(1.43559e-05 0 0)
(2.38434e-05 0 0)
(3.93467e-05 0 0)
(6.45064e-05 0 0)
(0.000105053 0 0)
(0.000169931 0 0)
(0.000272988 0 0)
(0.000435482 0 0)
(0.00068975 0 0)
(0.00108455 0 0)
(0.00169268 0 0)
(0.0026218 0 0)
(0.0040295 0 0)
(0.00614396 0 0)
(0.00929189 0 0)
(0.0139356 0 0)
(0.0207207 0 0)
(0.0305373 0 0)
(0.0445938 0 0)
(0.0645047 0 0)
(0.0923882 0 0)
(0.130966 0 0)
(0.183652 0 0)
(0.254601 0 0)
(0.348681 0 0)
(0.471286 0 0)
(0.627865 0 0)
(0.822825 0 0)
(1.0578 0 0)
(1.33171 0 0)
(1.64327 0 0)
(1.9919 0 0)
(2.37683 0 0)
(2.79669 0 0)
(3.24971 0 0)
(3.73379 0 0)
(4.24662 0 0)
(4.78585 0 0)
(5.3491 0 0)
(5.93411 0 0)
(6.53874 0 0)
(7.161 0 0)
(7.7991 0 0)
(8.4514 0 0)
(9.11645 0 0)
(9.79294 0 0)
(10.4797 0 0)
(11.1758 0 0)
(11.8802 0 0)
(12.5922 0 0)
(13.3111 0 0)
(14.0362 0 0)
(14.7669 0 0)
(15.5029 0 0)
(16.2436 0 0)
(16.9887 0 0)
(17.7377 0 0)
(18.4905 0 0)
(19.2467 0 0)
(20.006 0 0)
(20.7683 0 0)
(21.5333 0 0)
(22.3008 0 0)
(23.0707 0 0)
(23.8428 0 0)
(24.617 0 0)
(25.3931 0 0)
(26.171 0 0)
(26.9507 0 0)
(27.7319 0 0)
(28.5147 0 0)
(29.299 0 0)
(30.0846 0 0)
(30.8714 0 0)
(31.6596 0 0)
(32.4488 0 0)
(33.2392 0 0)
(34.0306 0 0)
(34.823 0 0)
(35.6164 0 0)
(36.4107 0 0)
(37.2059 0 0)
(38.0019 0 0)
(38.7986 0 0)
(39.5962 0 0)
(40.3944 0 0)
(41.1934 0 0)
(41.993 0 0)
(42.7933 0 0)
(43.5942 0 0)
(44.3957 0 0)
(45.1977 0 0)
(46.0004 0 0)
(46.8035 0 0)
(47.6071 0 0)
(48.4113 0 0)
(49.2159 0 0)
(50.021 0 0)
(50.8265 0 0)
(51.6325 0 0)
(52.4388 0 0)
(53.2456 0 0)
(54.0528 0 0)
(54.8603 0 0)
(55.6682 0 0)
(56.4765 0 0)
(57.2851 0 0)
(58.094 0 0)
(58.9033 0 0)
(59.7129 0 0)
(60.5228 0 0)
(61.333 0 0)
(62.1435 0 0)
(62.9543 0 0)
(63.7654 0 0)
(64.5767 0 0)
(65.3883 0 0)
(66.2002 0 0)
(67.0124 0 0)
(67.8248 0 0)
(68.6375 0 0)
(69.4505 0 0)
(70.2637 0 0)
(71.0772 0 0)
(71.891 0 0)
(72.705 0 0)
(73.5194 0 0)
(74.334 0 0)
(75.1489 0 0)
(75.9641 0 0)
(76.7796 0 0)
(77.5957 0 0)
(78.4121 0 0)
(79.2288 0 0)
(80.0459 0 0)
(80.8634 0 0)
(81.6816 0 0)
(82.5007 0 0)
(83.3207 0 0)
(84.1412 0 0)
(84.9619 0 0)
(85.7831 0 0)
(86.6063 0 0)
(87.4327 0 0)
(88.2614 0 0)
(89.0894 0 0)
(89.9156 0 0)
(90.7444 0 0)
(91.583 0 0)
(92.4313 0 0)
(93.2795 0 0)
(94.1191 0 0)
(94.9592 0 0)
(95.8192 0 0)
(96.7044 0 0)
(97.6027 0 0)
(98.497 0 0)
(99.3763 0 0)
(100.266 0 0)
(101.213 0 0)
(102.223 0 0)
(103.265 0 0)
(104.281 0 0)
(105.242 0 0)
(106.266 0 0)
(107.448 0 0)
(108.681 0 0)
(109.748 0 0)
(110.816 0 0)
(111.968 0 0)
(112.887 0 0)
(113.736 0 0)
(114.684 0 0)
(115.767 0 0)
(117.144 0 0)
(118.265 0 0)
(118.69 0 0)
(119.171 0 0)
(120.134 0 0)
(121.358 0 0)
(122.417 0 0)
(123.177 0 0)
(124.167 0 0)
(125.519 0 0)
(126.826 0 0)
(127.612 0 0)
(128.337 0 0)
(129.449 0 0)
(130.503 0 0)
(131.475 0 0)
(132.172 0 0)
(132.649 0 0)
(133.407 0 0)
(134.335 0 0)
(134.922 0 0)
(135.433 0 0)
(135.985 0 0)
(136.489 0 0)
(137.246 0 0)
(138.235 0 0)
(139.292 0 0)
(140.035 0 0)
(140.637 0 0)
(141.573 0 0)
(142.49 0 0)
(143.11 0 0)
(143.868 0 0)
(144.839 0 0)
(145.553 0 0)
(146.274 0 0)
(147.199 0 0)
(147.891 0 0)
(148.579 0 0)
(149.55 0 0)
(150.271 0 0)
(150.764 0 0)
(151.511 0 0)
(152.528 0 0)
(153.344 0 0)
(153.781 0 0)
(154.35 0 0)
(155.219 0 0)
(156.219 0 0)
(157.15 0 0)
(157.655 0 0)
(158.128 0 0)
(158.937 0 0)
(159.889 0 0)
(160.915 0 0)
(161.576 0 0)
(161.976 0 0)
(162.648 0 0)
(163.511 0 0)
(164.439 0 0)
(165.44 0 0)
(166.098 0 0)
(166.501 0 0)
(167.17 0 0)
(168.113 0 0)
(169.101 0 0)
(169.665 0 0)
(170.046 0 0)
(170.753 0 0)
(171.616 0 0)
(172.54 0 0)
(173.564 0 0)
(174.296 0 0)
(174.765 0 0)
(175.485 0 0)
(176.516 0 0)
(177.441 0 0)
(177.929 0 0)
(178.439 0 0)
(179.258 0 0)
(180.134 0 0)
(181.073 0 0)
(182.116 0 0)
(182.837 0 0)
(183.275 0 0)
(183.953 0 0)
(184.858 0 0)
(185.889 0 0)
(186.818 0 0)
(187.308 0 0)
(187.801 0 0)
(188.612 0 0)
(189.497 0 0)
(190.474 0 0)
(191.48 0 0)
(192.07 0 0)
(192.512 0 0)
(193.269 0 0)
(194.166 0 0)
(195.151 0 0)
(196.143 0 0)
(196.756 0 0)
(197.266 0 0)
(198.097 0 0)
(199.14 0 0)
(200.008 0 0)
(200.534 0 0)
(201.178 0 0)
(202.153 0 0)
(203.139 0 0)
(203.745 0 0)
(204.278 0 0)
(205.149 0 0)
(206.209 0 0)
(206.961 0 0)
(207.413 0 0)
(208.085 0 0)
(208.989 0 0)
(210.009 0 0)
(210.947 0 0)
(211.496 0 0)
(212.04 0 0)
(212.91 0 0)
(213.956 0 0)
(214.824 0 0)
(215.333 0 0)
(215.943 0 0)
(216.86 0 0)
(217.908 0 0)
(218.667 0 0)
(219.162 0 0)
(219.872 0 0)
(220.868 0 0)
(221.772 0 0)
(222.304 0 0)
(222.873 0 0)
(223.773 0 0)
(224.751 0 0)
(225.388 0 0)
(225.865 0 0)
(226.648 0 0)
(227.694 0 0)
(228.503 0 0)
(229.024 0 0)
(229.633 0 0)
(230.509 0 0)
(231.486 0 0)
(232.031 0 0)
(232.359 0 0)
(232.961 0 0)
(233.884 0 0)
(234.829 0 0)
(235.299 0 0)
(235.742 0 0)
(236.548 0 0)
(237.219 0 0)
(237.747 0 0)
(238.519 0 0)
(239.499 0 0)
(240.093 0 0)
(240.442 0 0)
(240.9 0 0)
(241.545 0 0)
(242.475 0 0)
(243.177 0 0)
(243.44 0 0)
(243.828 0 0)
(244.409 0 0)
(245.098 0 0)
(245.855 0 0)
(246.232 0 0)
(246.475 0 0)
(247.068 0 0)
(247.875 0 0)
(248.502 0 0)
(248.904 0 0)
(249.276 0 0)
(249.887 0 0)
(250.898 0 0)
(251.856 0 0)
(252.255 0 0)
(252.576 0 0)
(253.199 0 0)
(254.115 0 0)
(255.107 0 0)
(255.423 0 0)
(255.418 0 0)
(255.741 0 0)
(256.435 0 0)
(257.55 0 0)
(258.357 0 0)
(258.31 0 0)
(258.242 0 0)
(258.887 0 0)
(260.093 0 0)
(260.79 0 0)
(260.684 0 0)
(260.656 0 0)
(261.153 0 0)
(262.242 0 0)
(263.392 0 0)
(263.589 0 0)
(263.408 0 0)
(263.737 0 0)
(264.825 0 0)
(266.118 0 0)
(266.483 0 0)
(266.358 0 0)
(266.681 0 0)
(267.778 0 0)
(269.021 0 0)
(269.33 0 0)
(269.206 0 0)
(269.548 0 0)
(270.668 0 0)
(271.986 0 0)
(272.397 0 0)
(272.349 0 0)
(272.683 0 0)
(273.726 0 0)
(274.974 0 0)
(275.326 0 0)
(275.258 0 0)
(275.508 0 0)
(275.891 0 0)
(276.625 0 0)
(277.919 0 0)
(278.621 0 0)
(278.461 0 0)
(278.378 0 0)
(278.953 0 0)
(280.192 0 0)
(281.066 0 0)
(280.984 0 0)
(280.809 0 0)
(281.041 0 0)
(281.797 0 0)
(283.039 0 0)
(283.596 0 0)
(283.34 0 0)
(283.211 0 0)
(283.515 0 0)
(284.429 0 0)
(285.552 0 0)
(285.718 0 0)
(285.33 0 0)
(285.263 0 0)
(285.727 0 0)
(286.788 0 0)
(287.423 0 0)
(287.09 0 0)
(286.766 0 0)
(287.399 0 0)
(288.394 0 0)
(288.488 0 0)
(288.131 0 0)
(288.497 0 0)
(289.5 0 0)
(289.808 0 0)
(289.469 0 0)
(289.644 0 0)
(290.626 0 0)
(291.126 0 0)
(290.788 0 0)
(290.739 0 0)
(291.58 0 0)
(292.154 0 0)
(291.842 0 0)
(291.722 0 0)
(292.382 0 0)
(292.74 0 0)
(292.461 0 0)
(292.541 0 0)
(293.102 0 0)
(293.12 0 0)
(292.878 0 0)
(293.32 0 0)
(293.919 0 0)
(293.73 0 0)
(293.296 0 0)
(293.571 0 0)
(294.515 0 0)
(294.887 0 0)
(294.433 0 0)
(294.026 0 0)
(294.149 0 0)
(294.968 0 0)
(295.629 0 0)
(295.302 0 0)
(294.705 0 0)
(294.551 0 0)
(294.997 0 0)
(295.837 0 0)
(295.854 0 0)
(295.098 0 0)
(294.875 0 0)
(295.488 0 0)
(295.758 0 0)
(295.248 0 0)
(295.069 0 0)
(295.533 0 0)
(295.582 0 0)
(295.158 0 0)
(295.287 0 0)
(295.746 0 0)
(295.551 0 0)
(294.974 0 0)
(294.855 0 0)
(295.478 0 0)
(296.083 0 0)
(295.791 0 0)
(295.264 0 0)
(295.05 0 0)
(295.082 0 0)
(295.705 0 0)
(296.144 0 0)
(295.683 0 0)
(295.023 0 0)
(294.827 0 0)
(295.289 0 0)
(296.018 0 0)
(295.835 0 0)
(295.031 0 0)
(294.959 0 0)
(295.555 0 0)
(295.577 0 0)
(294.97 0 0)
(294.928 0 0)
(295.385 0 0)
(295.258 0 0)
(294.74 0 0)
(294.91 0 0)
(295.389 0 0)
(295.11 0 0)
(294.536 0 0)
(294.802 0 0)
(295.36 0 0)
(295.114 0 0)
(294.483 0 0)
(294.18 0 0)
(294.31 0 0)
(295.056 0 0)
(295.436 0 0)
(294.855 0 0)
(294.173 0 0)
(294.348 0 0)
(295.124 0 0)
(295.301 0 0)
(294.603 0 0)
(294.162 0 0)
(294.67 0 0)
(295.209 0 0)
(294.792 0 0)
(294.156 0 0)
(294.428 0 0)
(295.022 0 0)
(294.767 0 0)
(294.105 0 0)
(294.264 0 0)
(294.867 0 0)
(294.703 0 0)
(294.048 0 0)
(294.147 0 0)
(294.736 0 0)
(294.604 0 0)
(293.993 0 0)
(294.116 0 0)
(294.646 0 0)
(294.447 0 0)
(293.917 0 0)
(294.154 0 0)
(294.613 0 0)
(294.293 0 0)
(293.839 0 0)
(294.201 0 0)
(294.612 0 0)
(294.193 0 0)
(293.771 0 0)
(294.205 0 0)
(294.615 0 0)
(294.163 0 0)
(293.725 0 0)
(294.168 0 0)
(294.618 0 0)
(294.183 0 0)
(293.68 0 0)
(294.076 0 0)
(294.611 0 0)
(294.253 0 0)
(293.652 0 0)
(293.937 0 0)
(294.576 0 0)
(294.369 0 0)
(293.692 0 0)
(293.798 0 0)
(294.456 0 0)
(294.415 0 0)
(293.761 0 0)
(293.752 0 0)
(294.37 0 0)
(294.391 0 0)
(293.761 0 0)
(293.709 0 0)
(294.333 0 0)
(294.413 0 0)
(293.76 0 0)
(293.564 0 0)
(294.147 0 0)
(294.386 0 0)
(293.71 0 0)
(293.22 0 0)
(293.675 0 0)
(294.095 0 0)
(293.892 0 0)
(293.775 0 0)
(293.829 0 0)
(293.65 0 0)
(293.739 0 0)
(294.291 0 0)
(294.238 0 0)
(293.54 0 0)
(293.377 0 0)
(294.048 0 0)
(294.487 0 0)
(293.959 0 0)
(293.375 0 0)
(293.744 0 0)
(294.391 0 0)
(294.15 0 0)
(293.486 0 0)
(293.645 0 0)
(294.295 0 0)
(294.196 0 0)
(293.559 0 0)
(293.635 0 0)
(294.251 0 0)
(294.179 0 0)
(293.569 0 0)
(293.653 0 0)
(294.244 0 0)
(294.139 0 0)
(293.548 0 0)
(293.678 0 0)
(294.248 0 0)
(294.081 0 0)
(293.506 0 0)
(293.697 0 0)
(294.255 0 0)
(294.036 0 0)
(293.467 0 0)
(293.703 0 0)
(294.257 0 0)
(294.003 0 0)
(293.426 0 0)
(293.677 0 0)
(294.243 0 0)
(293.986 0 0)
(293.396 0 0)
(293.64 0 0)
(294.217 0 0)
(293.976 0 0)
(293.381 0 0)
(293.612 0 0)
(294.184 0 0)
(293.948 0 0)
(293.378 0 0)
(293.625 0 0)
(294.16 0 0)
(293.884 0 0)
(293.367 0 0)
(293.676 0 0)
(294.146 0 0)
(293.799 0 0)
(293.369 0 0)
(293.765 0 0)
(294.138 0 0)
(293.706 0 0)
(293.385 0 0)
(293.861 0 0)
(294.124 0 0)
(293.619 0 0)
(293.402 0 0)
(293.942 0 0)
(294.131 0 0)
(293.578 0 0)
(293.418 0 0)
(294.003 0 0)
(294.172 0 0)
(293.582 0 0)
(293.39 0 0)
(293.996 0 0)
(294.268 0 0)
(293.688 0 0)
(293.294 0 0)
(293.825 0 0)
(294.386 0 0)
(293.992 0 0)
(293.307 0 0)
(293.497 0 0)
(294.259 0 0)
(294.317 0 0)
(293.618 0 0)
(293.389 0 0)
(294.024 0 0)
(294.412 0 0)
(293.882 0 0)
(293.449 0 0)
(293.944 0 0)
(294.445 0 0)
(294.041 0 0)
(293.58 0 0)
(294.018 0 0)
(294.522 0 0)
(294.165 0 0)
(293.752 0 0)
(294.211 0 0)
(294.71 0 0)
(294.345 0 0)
(293.981 0 0)
(294.493 0 0)
(294.973 0 0)
(294.585 0 0)
(294.244 0 0)
(294.783 0 0)
(295.241 0 0)
(294.801 0 0)
(294.416 0 0)
(294.926 0 0)
(295.37 0 0)
(294.847 0 0)
(294.282 0 0)
(294.716 0 0)
(295.211 0 0)
(294.589 0 0)
(293.737 0 0)
(294.042 0 0)
(294.528 0 0)
(293.727 0 0)
(292.752 0 0)
(293.453 0 0)
(294.698 0 0)
(294.379 0 0)
(293.452 0 0)
(293.906 0 0)
(294.993 0 0)
(294.701 0 0)
(293.574 0 0)
(293.667 0 0)
(294.707 0 0)
(294.695 0 0)
(293.58 0 0)
(293.365 0 0)
(294.352 0 0)
(294.665 0 0)
(293.668 0 0)
(293.143 0 0)
(294.02 0 0)
(294.691 0 0)
(293.898 0 0)
(293.038 0 0)
(293.659 0 0)
(294.636 0 0)
(294.193 0 0)
(293.131 0 0)
(293.38 0 0)
(294.476 0 0)
(294.426 0 0)
(293.336 0 0)
(293.21 0 0)
(294.249 0 0)
(294.52 0 0)
(293.54 0 0)
(293.177 0 0)
(294.106 0 0)
(294.526 0 0)
(293.637 0 0)
(293.187 0 0)
(294.051 0 0)
(294.509 0 0)
(293.662 0 0)
(293.203 0 0)
(294.045 0 0)
(294.494 0 0)
(293.658 0 0)
(293.227 0 0)
(294.075 0 0)
(294.5 0 0)
(293.658 0 0)
(293.24 0 0)
(294.088 0 0)
(294.503 0 0)
(293.647 0 0)
(293.219 0 0)
(294.086 0 0)
(294.544 0 0)
(293.69 0 0)
(293.191 0 0)
(294.033 0 0)
(294.582 0 0)
(293.769 0 0)
(293.154 0 0)
(293.94 0 0)
(294.634 0 0)
(293.907 0 0)
(293.116 0 0)
(293.768 0 0)
(294.639 0 0)
(294.088 0 0)
(293.136 0 0)
(293.576 0 0)
(294.597 0 0)
(294.298 0 0)
(293.232 0 0)
(293.37 0 0)
(294.443 0 0)
(294.478 0 0)
(293.417 0 0)
(293.211 0 0)
(294.238 0 0)
(294.624 0 0)
(293.66 0 0)
(293.102 0 0)
(293.97 0 0)
(294.671 0 0)
(293.92 0 0)
(293.108 0 0)
(293.754 0 0)
(294.671 0 0)
(294.157 0 0)
(293.161 0 0)
(293.537 0 0)
(294.585 0 0)
(294.371 0 0)
(293.311 0 0)
(293.39 0 0)
(294.448 0 0)
(294.525 0 0)
(293.491 0 0)
(293.289 0 0)
(294.304 0 0)
(294.656 0 0)
(293.695 0 0)
(293.223 0 0)
(294.124 0 0)
(294.729 0 0)
(293.917 0 0)
(293.209 0 0)
(293.948 0 0)
(294.781 0 0)
(294.169 0 0)
(293.231 0 0)
(293.718 0 0)
(294.757 0 0)
(294.451 0 0)
(293.352 0 0)
(293.447 0 0)
(294.582 0 0)
(294.765 0 0)
(293.691 0 0)
(293.181 0 0)
(294.109 0 0)
(294.967 0 0)
(294.292 0 0)
(293.225 0 0)
(293.565 0 0)
(294.755 0 0)
(294.793 0 0)
(293.667 0 0)
(293.296 0 0)
(294.296 0 0)
(294.978 0 0)
(294.169 0 0)
(293.298 0 0)
(293.919 0 0)
(294.931 0 0)
(294.527 0 0)
(293.446 0 0)
(293.65 0 0)
(294.757 0 0)
(294.767 0 0)
(293.68 0 0)
(293.469 0 0)
(294.496 0 0)
(294.895 0 0)
(293.931 0 0)
(293.328 0 0)
(294.166 0 0)
(294.909 0 0)
(294.17 0 0)
(293.238 0 0)
(293.775 0 0)
(294.758 0 0)
(294.348 0 0)
(293.206 0 0)
(293.314 0 0)
(294.356 0 0)
(294.349 0 0)
(293.186 0 0)
(292.829 0 0)
(293.729 0 0)
(294.072 0 0)
(293.015 0 0)
(292.249 0 0)
(292.906 0 0)
(293.457 0 0)
(292.541 0 0)
(291.498 0 0)
(291.891 0 0)
(292.478 0 0)
(291.658 0 0)
(290.458 0 0)
(290.646 0 0)
(291.163 0 0)
(290.363 0 0)
(289.072 0 0)
(289.119 0 0)
(289.544 0 0)
(288.703 0 0)
(287.369 0 0)
(287.355 0 0)
(287.689 0 0)
(286.777 0 0)
(285.461 0 0)
(285.469 0 0)
(285.749 0 0)
(284.781 0 0)
(283.53 0 0)
(283.619 0 0)
(283.906 0 0)
(282.919 0 0)
(281.794 0 0)
(281.998 0 0)
(282.333 0 0)
(281.398 0 0)
(280.464 0 0)
(280.848 0 0)
(281.278 0 0)
(280.345 0 0)
(279.859 0 0)
)
;

boundaryField
{
    sides
    {
        type            zeroGradient;
    }
    empty
    {
        type            empty;
    }
}


// ************************************************************************* //
