/*--------------------------------*- C++ -*----------------------------------*\
  =========                 |
  \\      /  F ield         | OpenFOAM: The Open Source CFD Toolbox
   \\    /   O peration     | Website:  https://openfoam.org
    \\  /    A nd           | Version:  13
     \\/     M anipulation  |
\*---------------------------------------------------------------------------*/
FoamFile
{
    format      ascii;
    class       volVectorField;
    location    "0.01";
    object      U_0;
}
// * * * * * * * * * * * * * * * * * * * * * * * * * * * * * * * * * * * * * //

dimensions      [0 1 -1 0 0 0 0];

internalField   nonuniform List<vector> 
1000
(
(3.14969e-11 0 0)
(3.3603e-11 0 0)
(3.52605e-11 0 0)
(3.39119e-11 0 0)
(3.62095e-11 0 0)
(3.57736e-11 0 0)
(3.52701e-11 0 0)
(3.59329e-11 0 0)
(3.57075e-11 0 0)
(3.70167e-11 0 0)
(3.70043e-11 0 0)
(3.82676e-11 0 0)
(3.43152e-11 0 0)
(3.85061e-11 0 0)
(3.43604e-11 0 0)
(3.55901e-11 0 0)
(3.51984e-11 0 0)
(3.35777e-11 0 0)
(3.22394e-11 0 0)
(3.32228e-11 0 0)
(3.34292e-11 0 0)
(3.32329e-11 0 0)
(3.07274e-11 0 0)
(3.06999e-11 0 0)
(2.80626e-11 0 0)
(2.84973e-11 0 0)
(2.66138e-11 0 0)
(2.93171e-11 0 0)
(2.445e-11 0 0)
(2.88365e-11 0 0)
(2.63276e-11 0 0)
(2.7267e-11 0 0)
(2.71515e-11 0 0)
(2.81956e-11 0 0)
(2.66758e-11 0 0)
(2.63582e-11 0 0)
(2.83577e-11 0 0)
(2.71426e-11 0 0)
(3.17104e-11 0 0)
(2.77726e-11 0 0)
(2.79792e-11 0 0)
(2.75845e-11 0 0)
(2.71453e-11 0 0)
(2.71771e-11 0 0)
(2.77165e-11 0 0)
(2.76342e-11 0 0)
(2.92518e-11 0 0)
(2.71656e-11 0 0)
(2.65673e-11 0 0)
(2.4748e-11 0 0)
(2.72099e-11 0 0)
(2.83848e-11 0 0)
(3.32003e-11 0 0)
(2.81981e-11 0 0)
(3.29874e-11 0 0)
(3.06331e-11 0 0)
(3.36674e-11 0 0)
(3.32911e-11 0 0)
(3.61305e-11 0 0)
(3.57345e-11 0 0)
(3.77789e-11 0 0)
(3.66579e-11 0 0)
(3.61111e-11 0 0)
(4.39236e-11 0 0)
(5.16252e-11 0 0)
(7.29837e-11 0 0)
(1.13313e-10 0 0)
(1.84104e-10 0 0)
(3.21129e-10 0 0)
(5.73227e-10 0 0)
(1.03546e-09 0 0)
(1.88077e-09 0 0)
(3.41374e-09 0 0)
(6.17405e-09 0 0)
(1.11136e-08 0 0)
(1.99103e-08 0 0)
(3.54852e-08 0 0)
(6.29121e-08 0 0)
(1.10925e-07 0 0)
(1.94499e-07 0 0)
(3.39109e-07 0 0)
(5.8786e-07 0 0)
(1.01315e-06 0 0)
(1.73584e-06 0 0)
(2.95627e-06 0 0)
(5.00428e-06 0 0)
(8.41905e-06 0 0)
(1.40757e-05 0 0)
(2.33843e-05 0 0)
(3.85992e-05 0 0)
(6.32982e-05 0 0)
(0.000103113 0 0)
(0.00016684 0 0)
(0.0002681 0 0)
(0.000427806 0 0)
(0.000677791 0 0)
(0.00106606 0 0)
(0.00166433 0 0)
(0.00257869 0 0)
(0.00396448 0 0)
(0.00604677 0 0)
(0.00914792 0 0)
(0.0137243 0 0)
(0.0204136 0 0)
(0.0300955 0 0)
(0.0439648 0 0)
(0.0636191 0 0)
(0.0911557 0 0)
(0.129272 0 0)
(0.181355 0 0)
(0.251533 0 0)
(0.344647 0 0)
(0.466081 0 0)
(0.621295 0 0)
(0.814769 0 0)
(1.04826 0 0)
(1.32076 0 0)
(1.63093 0 0)
(1.97821 0 0)
(2.36182 0 0)
(2.78044 0 0)
(3.23229 0 0)
(3.71528 0 0)
(4.22713 0 0)
(4.76546 0 0)
(5.3279 0 0)
(5.9122 0 0)
(6.51618 0 0)
(7.13788 0 0)
(7.77548 0 0)
(8.42734 0 0)
(9.09201 0 0)
(9.76816 0 0)
(10.4547 0 0)
(11.1505 0 0)
(11.8547 0 0)
(12.5665 0 0)
(13.2851 0 0)
(14.0101 0 0)
(14.7407 0 0)
(15.4766 0 0)
(16.2172 0 0)
(16.9622 0 0)
(17.7112 0 0)
(18.4639 0 0)
(19.22 0 0)
(19.9793 0 0)
(20.7415 0 0)
(21.5065 0 0)
(22.274 0 0)
(23.0439 0 0)
(23.816 0 0)
(24.5902 0 0)
(25.3663 0 0)
(26.1442 0 0)
(26.9239 0 0)
(27.7052 0 0)
(28.488 0 0)
(29.2723 0 0)
(30.0579 0 0)
(30.8448 0 0)
(31.633 0 0)
(32.4223 0 0)
(33.2127 0 0)
(34.0042 0 0)
(34.7966 0 0)
(35.5901 0 0)
(36.3844 0 0)
(37.1796 0 0)
(37.9756 0 0)
(38.7725 0 0)
(39.57 0 0)
(40.3684 0 0)
(41.1674 0 0)
(41.9671 0 0)
(42.7674 0 0)
(43.5683 0 0)
(44.3699 0 0)
(45.172 0 0)
(45.9747 0 0)
(46.7779 0 0)
(47.5816 0 0)
(48.3858 0 0)
(49.1905 0 0)
(49.9956 0 0)
(50.8012 0 0)
(51.6072 0 0)
(52.4137 0 0)
(53.2205 0 0)
(54.0277 0 0)
(54.8354 0 0)
(55.6433 0 0)
(56.4517 0 0)
(57.2603 0 0)
(58.0693 0 0)
(58.8787 0 0)
(59.6883 0 0)
(60.4983 0 0)
(61.3086 0 0)
(62.1192 0 0)
(62.93 0 0)
(63.7412 0 0)
(64.5526 0 0)
(65.3643 0 0)
(66.1762 0 0)
(66.9885 0 0)
(67.801 0 0)
(68.6138 0 0)
(69.4268 0 0)
(70.2401 0 0)
(71.0536 0 0)
(71.8675 0 0)
(72.6816 0 0)
(73.496 0 0)
(74.3107 0 0)
(75.1257 0 0)
(75.9409 0 0)
(76.7566 0 0)
(77.5727 0 0)
(78.3892 0 0)
(79.2059 0 0)
(80.0231 0 0)
(80.8407 0 0)
(81.659 0 0)
(82.4781 0 0)
(83.2981 0 0)
(84.1186 0 0)
(84.9394 0 0)
(85.7607 0 0)
(86.584 0 0)
(87.4105 0 0)
(88.2391 0 0)
(89.0669 0 0)
(89.8929 0 0)
(90.7222 0 0)
(91.5613 0 0)
(92.4095 0 0)
(93.2566 0 0)
(94.0954 0 0)
(94.9361 0 0)
(95.7974 0 0)
(96.6829 0 0)
(97.5799 0 0)
(98.4719 0 0)
(99.3495 0 0)
(100.241 0 0)
(101.191 0 0)
(102.201 0 0)
(103.24 0 0)
(104.247 0 0)
(105.206 0 0)
(106.239 0 0)
(107.428 0 0)
(108.651 0 0)
(109.711 0 0)
(110.796 0 0)
(111.938 0 0)
(112.844 0 0)
(113.707 0 0)
(114.662 0 0)
(115.762 0 0)
(117.144 0 0)
(118.212 0 0)
(118.63 0 0)
(119.154 0 0)
(120.134 0 0)
(121.357 0 0)
(122.372 0 0)
(123.126 0 0)
(124.16 0 0)
(125.534 0 0)
(126.806 0 0)
(127.557 0 0)
(128.315 0 0)
(129.456 0 0)
(130.514 0 0)
(131.477 0 0)
(132.133 0 0)
(132.614 0 0)
(133.414 0 0)
(134.316 0 0)
(134.876 0 0)
(135.399 0 0)
(135.945 0 0)
(136.459 0 0)
(137.244 0 0)
(138.249 0 0)
(139.289 0 0)
(139.997 0 0)
(140.617 0 0)
(141.585 0 0)
(142.469 0 0)
(143.078 0 0)
(143.875 0 0)
(144.831 0 0)
(145.524 0 0)
(146.272 0 0)
(147.188 0 0)
(147.859 0 0)
(148.578 0 0)
(149.552 0 0)
(150.23 0 0)
(150.73 0 0)
(151.518 0 0)
(152.542 0 0)
(153.307 0 0)
(153.728 0 0)
(154.339 0 0)
(155.225 0 0)
(156.238 0 0)
(157.127 0 0)
(157.599 0 0)
(158.106 0 0)
(158.939 0 0)
(159.906 0 0)
(160.916 0 0)
(161.524 0 0)
(161.932 0 0)
(162.643 0 0)
(163.513 0 0)
(164.455 0 0)
(165.441 0 0)
(166.048 0 0)
(166.458 0 0)
(167.171 0 0)
(168.134 0 0)
(169.093 0 0)
(169.606 0 0)
(170.007 0 0)
(170.75 0 0)
(171.617 0 0)
(172.556 0 0)
(173.571 0 0)
(174.253 0 0)
(174.725 0 0)
(175.491 0 0)
(176.54 0 0)
(177.413 0 0)
(177.871 0 0)
(178.42 0 0)
(179.257 0 0)
(180.135 0 0)
(181.091 0 0)
(182.123 0 0)
(182.789 0 0)
(183.23 0 0)
(183.951 0 0)
(184.869 0 0)
(185.913 0 0)
(186.792 0 0)
(187.249 0 0)
(187.781 0 0)
(188.613 0 0)
(189.502 0 0)
(190.499 0 0)
(191.472 0 0)
(192.014 0 0)
(192.479 0 0)
(193.271 0 0)
(194.174 0 0)
(195.175 0 0)
(196.134 0 0)
(196.706 0 0)
(197.243 0 0)
(198.113 0 0)
(199.162 0 0)
(199.978 0 0)
(200.489 0 0)
(201.178 0 0)
(202.181 0 0)
(203.129 0 0)
(203.696 0 0)
(204.259 0 0)
(205.172 0 0)
(206.224 0 0)
(206.916 0 0)
(207.368 0 0)
(208.085 0 0)
(209.004 0 0)
(210.037 0 0)
(210.928 0 0)
(211.444 0 0)
(212.027 0 0)
(212.93 0 0)
(213.981 0 0)
(214.794 0 0)
(215.286 0 0)
(215.94 0 0)
(216.884 0 0)
(217.923 0 0)
(218.63 0 0)
(219.126 0 0)
(219.884 0 0)
(220.897 0 0)
(221.752 0 0)
(222.257 0 0)
(222.867 0 0)
(223.803 0 0)
(224.753 0 0)
(225.341 0 0)
(225.838 0 0)
(226.667 0 0)
(227.721 0 0)
(228.477 0 0)
(228.978 0 0)
(229.631 0 0)
(230.541 0 0)
(231.491 0 0)
(231.979 0 0)
(232.321 0 0)
(232.966 0 0)
(233.919 0 0)
(234.829 0 0)
(235.255 0 0)
(235.73 0 0)
(236.563 0 0)
(237.205 0 0)
(237.733 0 0)
(238.549 0 0)
(239.516 0 0)
(240.061 0 0)
(240.413 0 0)
(240.897 0 0)
(241.562 0 0)
(242.509 0 0)
(243.152 0 0)
(243.397 0 0)
(243.826 0 0)
(244.433 0 0)
(245.136 0 0)
(245.839 0 0)
(246.175 0 0)
(246.455 0 0)
(247.109 0 0)
(247.922 0 0)
(248.482 0 0)
(248.847 0 0)
(249.255 0 0)
(249.921 0 0)
(250.966 0 0)
(251.842 0 0)
(252.184 0 0)
(252.546 0 0)
(253.224 0 0)
(254.192 0 0)
(255.123 0 0)
(255.336 0 0)
(255.35 0 0)
(255.733 0 0)
(256.496 0 0)
(257.64 0 0)
(258.313 0 0)
(258.206 0 0)
(258.21 0 0)
(258.964 0 0)
(260.177 0 0)
(260.727 0 0)
(260.577 0 0)
(260.617 0 0)
(261.193 0 0)
(262.35 0 0)
(263.402 0 0)
(263.484 0 0)
(263.33 0 0)
(263.765 0 0)
(264.938 0 0)
(266.149 0 0)
(266.384 0 0)
(266.273 0 0)
(266.71 0 0)
(267.894 0 0)
(269.046 0 0)
(269.228 0 0)
(269.124 0 0)
(269.581 0 0)
(270.788 0 0)
(272.018 0 0)
(272.296 0 0)
(272.265 0 0)
(272.708 0 0)
(273.847 0 0)
(275.02 0 0)
(275.245 0 0)
(275.196 0 0)
(275.488 0 0)
(275.884 0 0)
(276.719 0 0)
(278.02 0 0)
(278.554 0 0)
(278.348 0 0)
(278.345 0 0)
(279.037 0 0)
(280.313 0 0)
(281.03 0 0)
(280.875 0 0)
(280.755 0 0)
(281.044 0 0)
(281.903 0 0)
(283.135 0 0)
(283.526 0 0)
(283.232 0 0)
(283.172 0 0)
(283.548 0 0)
(284.554 0 0)
(285.593 0 0)
(285.621 0 0)
(285.236 0 0)
(285.244 0 0)
(285.814 0 0)
(286.903 0 0)
(287.376 0 0)
(286.965 0 0)
(286.755 0 0)
(287.512 0 0)
(288.429 0 0)
(288.391 0 0)
(288.071 0 0)
(288.587 0 0)
(289.571 0 0)
(289.728 0 0)
(289.387 0 0)
(289.716 0 0)
(290.727 0 0)
(291.067 0 0)
(290.689 0 0)
(290.785 0 0)
(291.691 0 0)
(292.116 0 0)
(291.75 0 0)
(291.759 0 0)
(292.464 0 0)
(292.695 0 0)
(292.401 0 0)
(292.593 0 0)
(293.13 0 0)
(293.048 0 0)
(292.866 0 0)
(293.41 0 0)
(293.913 0 0)
(293.63 0 0)
(293.253 0 0)
(293.665 0 0)
(294.619 0 0)
(294.831 0 0)
(294.326 0 0)
(293.989 0 0)
(294.212 0 0)
(295.099 0 0)
(295.619 0 0)
(295.194 0 0)
(294.642 0 0)
(294.563 0 0)
(295.116 0 0)
(295.911 0 0)
(295.768 0 0)
(294.993 0 0)
(294.931 0 0)
(295.584 0 0)
(295.71 0 0)
(295.164 0 0)
(295.115 0 0)
(295.587 0 0)
(295.521 0 0)
(295.12 0 0)
(295.359 0 0)
(295.763 0 0)
(295.463 0 0)
(294.906 0 0)
(294.9 0 0)
(295.603 0 0)
(296.087 0 0)
(295.705 0 0)
(295.215 0 0)
(295.027 0 0)
(295.137 0 0)
(295.821 0 0)
(296.127 0 0)
(295.575 0 0)
(294.965 0 0)
(294.856 0 0)
(295.416 0 0)
(296.068 0 0)
(295.733 0 0)
(294.953 0 0)
(295.035 0 0)
(295.628 0 0)
(295.509 0 0)
(294.908 0 0)
(294.995 0 0)
(295.426 0 0)
(295.181 0 0)
(294.713 0 0)
(294.998 0 0)
(295.408 0 0)
(295.011 0 0)
(294.517 0 0)
(294.903 0 0)
(295.384 0 0)
(295.026 0 0)
(294.415 0 0)
(294.165 0 0)
(294.393 0 0)
(295.175 0 0)
(295.399 0 0)
(294.731 0 0)
(294.143 0 0)
(294.447 0 0)
(295.223 0 0)
(295.238 0 0)
(294.484 0 0)
(294.194 0 0)
(294.79 0 0)
(295.206 0 0)
(294.678 0 0)
(294.139 0 0)
(294.533 0 0)
(295.052 0 0)
(294.666 0 0)
(294.066 0 0)
(294.359 0 0)
(294.912 0 0)
(294.61 0 0)
(293.999 0 0)
(294.236 0 0)
(294.784 0 0)
(294.516 0 0)
(293.95 0 0)
(294.202 0 0)
(294.678 0 0)
(294.358 0 0)
(293.898 0 0)
(294.245 0 0)
(294.619 0 0)
(294.198 0 0)
(293.846 0 0)
(294.298 0 0)
(294.599 0 0)
(294.093 0 0)
(293.79 0 0)
(294.308 0 0)
(294.596 0 0)
(294.058 0 0)
(293.744 0 0)
(294.274 0 0)
(294.604 0 0)
(294.075 0 0)
(293.688 0 0)
(294.186 0 0)
(294.616 0 0)
(294.144 0 0)
(293.633 0 0)
(294.043 0 0)
(294.613 0 0)
(294.27 0 0)
(293.64 0 0)
(293.889 0 0)
(294.519 0 0)
(294.333 0 0)
(293.693 0 0)
(293.828 0 0)
(294.44 0 0)
(294.317 0 0)
(293.686 0 0)
(293.781 0 0)
(294.411 0 0)
(294.343 0 0)
(293.668 0 0)
(293.624 0 0)
(294.25 0 0)
(294.338 0 0)
(293.588 0 0)
(293.244 0 0)
(293.772 0 0)
(294.092 0 0)
(293.852 0 0)
(293.784 0 0)
(293.812 0 0)
(293.623 0 0)
(293.811 0 0)
(294.349 0 0)
(294.157 0 0)
(293.45 0 0)
(293.438 0 0)
(294.169 0 0)
(294.459 0 0)
(293.837 0 0)
(293.372 0 0)
(293.858 0 0)
(294.42 0 0)
(294.047 0 0)
(293.443 0 0)
(293.74 0 0)
(294.347 0 0)
(294.108 0 0)
(293.503 0 0)
(293.72 0 0)
(294.306 0 0)
(294.095 0 0)
(293.516 0 0)
(293.738 0 0)
(294.293 0 0)
(294.054 0 0)
(293.504 0 0)
(293.765 0 0)
(294.287 0 0)
(293.991 0 0)
(293.472 0 0)
(293.789 0 0)
(294.285 0 0)
(293.941 0 0)
(293.441 0 0)
(293.799 0 0)
(294.28 0 0)
(293.904 0 0)
(293.404 0 0)
(293.775 0 0)
(294.266 0 0)
(293.886 0 0)
(293.371 0 0)
(293.738 0 0)
(294.244 0 0)
(293.877 0 0)
(293.354 0 0)
(293.709 0 0)
(294.211 0 0)
(293.851 0 0)
(293.355 0 0)
(293.721 0 0)
(294.177 0 0)
(293.788 0 0)
(293.358 0 0)
(293.771 0 0)
(294.145 0 0)
(293.703 0 0)
(293.381 0 0)
(293.859 0 0)
(294.115 0 0)
(293.613 0 0)
(293.419 0 0)
(293.95 0 0)
(294.083 0 0)
(293.532 0 0)
(293.452 0 0)
(294.027 0 0)
(294.078 0 0)
(293.493 0 0)
(293.476 0 0)
(294.089 0 0)
(294.114 0 0)
(293.491 0 0)
(293.447 0 0)
(294.095 0 0)
(294.219 0 0)
(293.577 0 0)
(293.324 0 0)
(293.945 0 0)
(294.385 0 0)
(293.876 0 0)
(293.268 0 0)
(293.599 0 0)
(294.338 0 0)
(294.24 0 0)
(293.516 0 0)
(293.444 0 0)
(294.136 0 0)
(294.376 0 0)
(293.77 0 0)
(293.472 0 0)
(294.054 0 0)
(294.432 0 0)
(293.934 0 0)
(293.589 0 0)
(294.123 0 0)
(294.513 0 0)
(294.064 0 0)
(293.764 0 0)
(294.315 0 0)
(294.695 0 0)
(294.245 0 0)
(294.001 0 0)
(294.598 0 0)
(294.952 0 0)
(294.483 0 0)
(294.27 0 0)
(294.891 0 0)
(295.215 0 0)
(294.693 0 0)
(294.443 0 0)
(295.038 0 0)
(295.347 0 0)
(294.726 0 0)
(294.299 0 0)
(294.839 0 0)
(295.198 0 0)
(294.444 0 0)
(293.74 0 0)
(294.186 0 0)
(294.526 0 0)
(293.545 0 0)
(292.74 0 0)
(293.645 0 0)
(294.732 0 0)
(294.205 0 0)
(293.403 0 0)
(294.079 0 0)
(295.064 0 0)
(294.541 0 0)
(293.48 0 0)
(293.808 0 0)
(294.822 0 0)
(294.568 0 0)
(293.443 0 0)
(293.474 0 0)
(294.504 0 0)
(294.574 0 0)
(293.498 0 0)
(293.21 0 0)
(294.199 0 0)
(294.652 0 0)
(293.713 0 0)
(293.044 0 0)
(293.841 0 0)
(294.67 0 0)
(294.022 0 0)
(293.061 0 0)
(293.535 0 0)
(294.581 0 0)
(294.292 0 0)
(293.206 0 0)
(293.325 0 0)
(294.395 0 0)
(294.422 0 0)
(293.387 0 0)
(293.263 0 0)
(294.262 0 0)
(294.451 0 0)
(293.479 0 0)
(293.258 0 0)
(294.206 0 0)
(294.443 0 0)
(293.507 0 0)
(293.271 0 0)
(294.198 0 0)
(294.427 0 0)
(293.506 0 0)
(293.298 0 0)
(294.225 0 0)
(294.429 0 0)
(293.508 0 0)
(293.314 0 0)
(294.238 0 0)
(294.43 0 0)
(293.494 0 0)
(293.292 0 0)
(294.241 0 0)
(294.476 0 0)
(293.53 0 0)
(293.256 0 0)
(294.196 0 0)
(294.527 0 0)
(293.6 0 0)
(293.2 0 0)
(294.112 0 0)
(294.604 0 0)
(293.73 0 0)
(293.13 0 0)
(293.945 0 0)
(294.648 0 0)
(293.914 0 0)
(293.102 0 0)
(293.743 0 0)
(294.658 0 0)
(294.141 0 0)
(293.143 0 0)
(293.512 0 0)
(294.559 0 0)
(294.354 0 0)
(293.277 0 0)
(293.318 0 0)
(294.397 0 0)
(294.539 0 0)
(293.488 0 0)
(293.164 0 0)
(294.149 0 0)
(294.636 0 0)
(293.738 0 0)
(293.117 0 0)
(293.933 0 0)
(294.691 0 0)
(293.984 0 0)
(293.115 0 0)
(293.7 0 0)
(294.659 0 0)
(294.222 0 0)
(293.213 0 0)
(293.525 0 0)
(294.569 0 0)
(294.405 0 0)
(293.353 0 0)
(293.396 0 0)
(294.457 0 0)
(294.567 0 0)
(293.531 0 0)
(293.295 0 0)
(294.296 0 0)
(294.677 0 0)
(293.739 0 0)
(293.239 0 0)
(294.128 0 0)
(294.777 0 0)
(293.991 0 0)
(293.206 0 0)
(293.891 0 0)
(294.817 0 0)
(294.292 0 0)
(293.255 0 0)
(293.585 0 0)
(294.72 0 0)
(294.655 0 0)
(293.517 0 0)
(293.249 0 0)
(294.305 0 0)
(294.954 0 0)
(294.102 0 0)
(293.172 0 0)
(293.731 0 0)
(294.875 0 0)
(294.665 0 0)
(293.504 0 0)
(293.385 0 0)
(294.483 0 0)
(294.932 0 0)
(293.98 0 0)
(293.301 0 0)
(294.102 0 0)
(294.973 0 0)
(294.358 0 0)
(293.368 0 0)
(293.801 0 0)
(294.87 0 0)
(294.64 0 0)
(293.54 0 0)
(293.576 0 0)
(294.658 0 0)
(294.813 0 0)
(293.755 0 0)
(293.385 0 0)
(294.35 0 0)
(294.885 0 0)
(293.987 0 0)
(293.229 0 0)
(293.954 0 0)
(294.808 0 0)
(294.183 0 0)
(293.122 0 0)
(293.462 0 0)
(294.478 0 0)
(294.229 0 0)
(293.039 0 0)
(292.933 0 0)
(293.895 0 0)
(294.002 0 0)
(292.84 0 0)
(292.306 0 0)
(293.085 0 0)
(293.438 0 0)
(292.365 0 0)
(291.514 0 0)
(292.064 0 0)
(292.496 0 0)
(291.492 0 0)
(290.448 0 0)
(290.809 0 0)
(291.201 0 0)
(290.206 0 0)
(289.053 0 0)
(289.273 0 0)
(289.587 0 0)
(288.551 0 0)
(287.353 0 0)
(287.504 0 0)
(287.726 0 0)
(286.625 0 0)
(285.454 0 0)
(285.616 0 0)
(285.773 0 0)
(284.626 0 0)
(283.531 0 0)
(283.767 0 0)
(283.918 0 0)
(282.76 0 0)
(281.797 0 0)
(282.147 0 0)
(282.34 0 0)
(281.235 0 0)
(280.461 0 0)
(281 0 0)
(281.298 0 0)
(280.205 0 0)
(279.802 0 0)
)
;

boundaryField
{
    sides
    {
        type            calculated;
        value           nonuniform List<vector> 2((279.802 0 0) (3.14969e-11 0 0));
    }
    empty
    {
        type            empty;
    }
}


// ************************************************************************* //
