/*--------------------------------*- C++ -*----------------------------------*\
  =========                 |
  \\      /  F ield         | OpenFOAM: The Open Source CFD Toolbox
   \\    /   O peration     | Website:  https://openfoam.org
    \\  /    A nd           | Version:  13
     \\/     M anipulation  |
\*---------------------------------------------------------------------------*/
FoamFile
{
    format      ascii;
    class       volScalarField;
    location    "13.895762";
    object      pMean;
}
// * * * * * * * * * * * * * * * * * * * * * * * * * * * * * * * * * * * * * //

dimensions      [0 2 -2 0 0 0 0];

internalField   nonuniform List<scalar> 
17140
(
3.3875875
3.387414
3.3872047
3.3869928
3.3867643
3.3865162
3.3862485
3.3859608
3.3856529
3.3853243
3.384975
3.3846046
3.3842124
3.3837967
3.3833542
3.3828791
3.3823619
3.3817873
3.3811327
3.3803653
3.3794395
3.3782937
3.3768458
3.3749875
3.3726041
3.3696282
3.3660352
3.3617216
3.3564664
3.3500421
3.3422335
3.332794
3.321453
3.3079185
3.2918798
3.2730166
3.2510144
3.2255921
3.1965421
3.1637896
3.1274658
3.088005
3.0462704
3.0036234
2.9620067
2.9239311
2.8919089
2.8685043
2.856216
2.8570344
2.8721359
2.9020912
2.9468005
3.0050513
3.0747634
3.152613
3.2342064
3.3140309
3.3861705
3.4422738
3.4751993
3.4799163
3.4630077
3.4281673
3.3897026
3.384556
3.3843862
3.3841815
3.3839739
3.3837501
3.383507
3.3832446
3.3829627
3.3826609
3.3823389
3.3819967
3.381634
3.3812501
3.3808434
3.380411
3.3799472
3.3794426
3.3788824
3.3782442
3.3774956
3.3765915
3.3754706
3.3740513
3.3722261
3.3698784
3.3669372
3.3633786
3.3591026
3.3538884
3.3475064
3.3397407
3.3303435
3.3190433
3.3055462
3.2895397
3.2707012
3.2487137
3.2232927
3.1942279
3.1614413
3.1250621
3.0855247
3.04369
3.0009265
2.9592051
2.9209818
2.8888055
2.8653216
2.8529738
2.853707
2.8687418
2.8986499
2.9432616
3.0014209
3.0710328
3.1487403
3.2302425
3.3100915
3.3824505
3.4389927
3.47247
3.4777436
3.4613334
3.4269148
3.3888669
3.3771009
3.37694
3.3767466
3.3765495
3.3763368
3.3761058
3.3758564
3.3755884
3.3753014
3.3749953
3.3746702
3.3743258
3.3739619
3.373577
3.3731686
3.3727315
3.3722571
3.3717311
3.3711321
3.3704285
3.3695761
3.3685146
3.3671638
3.3654178
3.3631561
3.3602995
3.3568237
3.3526368
3.3475204
3.3412407
3.3335781
3.3242832
3.3130811
3.2996742
3.2837456
3.264967
3.2430152
3.2175992
3.1885015
3.1556375
3.1191328
3.0794221
3.0373688
2.9943681
2.9524145
2.9139156
2.881477
2.8577751
2.8452788
2.8459089
2.8608401
2.8906113
2.935069
2.9930741
3.0625227
3.1400597
3.2214456
3.3013822
3.3742182
3.4316871
3.4662875
3.4726734
3.4573046
3.4237961
3.3865725
3.3653772
3.3652304
3.3650545
3.3648741
3.3646792
3.3644674
3.3642385
3.3639924
3.3637289
3.363448
3.3631497
3.3628343
3.3625017
3.3621509
3.36178
3.3613846
3.3609568
3.3604837
3.3599451
3.3593107
3.3585379
3.3575679
3.3563225
3.3546983
3.3525711
3.3498488
3.346502
3.3424508
3.3374857
3.3313661
3.3238654
3.3147315
3.3036849
3.290422
3.2746191
3.2559398
3.2340514
3.2086528
3.179516
3.1465473
3.1098676
3.0699123
3.0275521
2.9842202
2.9419303
2.903045
2.8702545
2.846272
2.833579
2.8340742
2.848894
2.8785218
2.9227845
2.9805593
3.0497269
3.1269451
3.2080968
3.2880836
3.3615308
3.4202579
3.4564625
3.4644812
3.4506952
3.4187177
3.3829465
3.3497821
3.3496543
3.3495019
3.3493439
3.3491729
3.3489869
3.3487858
3.3485693
3.3483375
3.3480903
3.3478283
3.3475517
3.3472608
3.3469554
3.3466341
3.3462934
3.3459268
3.3455227
3.3450625
3.3445179
3.3438482
3.3429968
3.341888
3.3404219
3.3384727
3.3359318
3.3327558
3.3288788
3.3241113
3.3182043
3.3109189
3.3020004
3.2911633
3.2780968
3.2624682
3.2439309
3.2221405
3.1967827
3.1676168
3.1345381
3.097662
3.0574256
3.0147156
2.9710098
2.9283164
2.8890069
2.8558363
2.8315449
2.8186602
2.8190505
2.8337828
2.8632754
2.9073454
2.9648734
3.0337195
3.1105535
3.1913994
3.2714123
3.3455376
3.4057088
3.4437669
3.4537561
3.4420093
3.4121183
3.3782981
3.3309683
3.3308637
3.33074
3.3306096
3.3304681
3.330314
3.330147
3.329967
3.3297741
3.3295686
3.3293509
3.3291217
3.3288817
3.3286311
3.3283693
3.328094
3.3277998
3.3274767
3.3271082
3.3266682
3.3261184
3.325405
3.3244551
3.323173
3.3214366
3.3191193
3.3161473
3.3124706
3.3079348
3.3022824
3.2952563
3.2865995
3.2760195
3.2631972
3.24779
3.2294395
3.2077878
3.182506
3.1533386
3.1201686
3.0831052
3.0425884
2.999528
2.9554457
2.912336
2.8726258
2.8390962
2.8145201
2.8014763
2.8018085
2.8165036
2.8459061
2.8898079
2.9470823
3.0155625
3.0919433
3.1724157
3.2524085
3.3272282
3.3888634
3.4288983
3.4411322
3.4318017
3.4044792
3.3730889
3.3098139
3.3097356
3.3096429
3.3095444
3.309437
3.3093197
3.3091922
3.3090545
3.3089066
3.3087491
3.3085825
3.3084077
3.3082257
3.3080373
3.3078424
3.3076397
3.3074251
3.3071904
3.306921
3.3065934
3.3061721
3.3056064
3.3048267
3.3037418
3.3022352
3.3001692
3.2974349
3.2939792
3.2896865
3.2843111
3.2775763
3.269215
3.2589293
3.2463913
3.2312482
3.2131291
3.1916622
3.166503
3.1373803
3.1041642
3.0669576
3.0262048
2.9828445
2.9384297
2.894959
2.8549113
2.8210574
2.7962267
2.7830565
2.783374
2.7980868
2.8274695
2.8712803
2.928365
2.9965179
3.0724615
3.1525739
3.2325637
3.3080742
3.3710833
3.4130367
3.4274224
3.4208122
3.3963587
3.3676902
3.2873765
3.2873268
3.2872676
3.287204
3.2871342
3.2870573
3.2869733
3.2868821
3.2867839
3.2866791
3.2865686
3.2864532
3.2863341
3.2862125
3.2860888
3.2859624
3.2858304
3.2856861
3.2855169
3.2853016
3.2850079
3.2845884
3.2839773
3.2830878
3.2818089
3.280006
3.2775392
3.274315
3.2702524
3.265154
3.2587264
3.2506792
3.2407121
3.2284884
3.2136454
3.1958006
3.1745684
3.1495892
3.1205765
3.0873876
3.0501182
3.0092201
2.9656638
2.9210062
2.8772766
2.8369753
2.8028323
2.7777497
2.7644549
2.7647962
2.7795946
2.8090169
2.8528064
2.9097934
2.9777187
3.0533084
3.1331252
3.2131648
3.2892317
3.3532447
3.3967338
3.4134731
3.4096263
3.3881827
3.3623928
3.2648275
3.2648076
3.2647832
3.2647562
3.2647257
3.2646914
3.264653
3.2646108
3.2645648
3.2645156
3.2644639
3.2644107
3.2643571
3.2643043
3.2642531
3.2642034
3.2641529
3.2640961
3.264022
3.2639118
3.2637359
3.2634504
3.2629936
3.2622831
3.2612133
3.2596551
3.2574615
3.2544922
3.2506455
3.2457874
3.2396563
3.2319266
3.2222852
3.2103931
3.1958785
3.1783487
3.1574058
3.1326768
3.1038609
3.0708031
3.0335931
2.99269
2.9490923
2.9043454
2.8605171
2.8200793
2.7857062
2.760391
2.7469853
2.7473587
2.7622436
2.7917475
2.835582
2.8925367
2.9602908
3.0355612
3.1150923
3.1951049
3.2715602
3.3364937
3.38153
3.4001137
3.3987272
3.3802723
3.3573595
3.2433642
3.2433738
3.243384
3.2433935
3.2434023
3.2434105
3.243418
3.2434251
3.2434318
3.2434386
3.2434462
3.2434554
3.2434673
3.2434829
3.2435028
3.243527
3.2435535
3.2435774
3.243589
3.2435711
3.2434964
3.2433241
3.2429965
3.2424358
3.2415416
3.2401901
3.238237
3.2355277
3.2319121
3.2272501
3.2213533
3.2139256
3.2046145
3.1930636
3.1788989
3.1617222
3.1411279
3.1167333
3.088226
3.0554408
3.0184629
2.9777593
2.9343402
2.8897445
2.8460543
2.805667
2.7712208
2.7458007
2.7323425
2.7327285
2.7477011
2.7773369
2.8212308
2.8781076
2.9456584
3.0206129
3.0999836
3.1801982
3.2572541
3.3225408
3.3679244
3.3874797
3.3885096
3.3728285
3.3526812
3.2241054
3.2241426
3.2241855
3.2242293
3.2242753
3.224324
3.2243753
3.2244296
3.2244869
3.2245477
3.2246125
3.2246819
3.2247567
3.2248376
3.2249248
3.2250179
3.2251148
3.2252106
3.2252959
3.2253547
3.2253612
3.2252773
3.2250485
3.224601
3.2238398
3.2226462
3.2208798
3.2183841
3.2149954
3.2105474
3.2048458
3.1976413
3.1886195
3.1774119
3.163622
3.1468473
3.1266788
3.1027277
3.0746759
3.0423522
3.0058407
2.9656177
2.9226733
2.8785657
2.8353676
2.7953666
2.7611806
2.7359078
2.7225104
2.722959
2.7379491
2.7674719
2.8112159
2.8678587
2.9350946
3.0097395
3.0888893
3.1690615
3.2458813
3.3103582
3.3555477
3.3759741
3.3791956
3.3659638
3.3484128
3.2079853
3.2080467
3.2081181
3.2081921
3.2082711
3.2083559
3.2084465
3.2085433
3.2086465
3.2087564
3.2088735
3.2089982
3.2091309
3.2092717
3.2094204
3.209576
3.2097357
3.2098941
3.2100415
3.2101622
3.2102314
3.2102123
3.2100528
3.2096826
3.2090107
3.207924
3.2062873
3.2039442
3.2007276
3.1964629
3.1909541
3.183965
3.1751984
3.1643061
3.1509003
3.1345759
3.1149223
3.0915505
3.0641393
3.0325188
2.9967755
2.9573889
2.9153328
2.872164
2.8298898
2.7907294
2.7572448
2.7324557
2.7193325
2.7196712
2.7342734
2.7632859
2.8064682
2.8625079
2.9290913
3.0030746
3.0817297
3.1613675
3.2372225
3.3005147
3.3451931
3.3658457
3.3708465
3.3597549
3.3446075
3.1956499
3.1957303
3.1958243
3.1959225
3.196028
3.1961421
3.1962649
3.1963969
3.1965383
3.1966897
3.1968513
3.1970234
3.1972061
3.1973993
3.197602
3.1978126
3.1980276
3.1982407
3.1984418
3.1986147
3.1987348
3.1987659
3.1986574
3.1983411
3.1977291
3.1967121
3.1951602
3.192925
3.1898354
3.1857085
3.1803603
3.1735664
3.1650486
3.1544808
3.1414881
3.1256741
3.1066342
3.0839908
3.0574447
3.0268217
2.9922111
2.9540843
2.9134066
2.8716808
2.8308075
2.7929476
2.7605974
2.7366619
2.723737
2.7237083
2.7375584
2.7657034
2.8078951
2.8628788
2.9283626
3.0013727
3.0793625
3.1581518
3.2325109
3.2935655
3.3364532
3.3570827
3.3635069
3.3542507
3.3413097
3.1873866
3.1874796
3.1875886
3.1877032
3.187827
3.1879615
3.1881072
3.1882645
3.188434
3.1886162
3.1888116
3.1890204
3.1892426
3.1894777
3.1897247
3.1899813
3.1902434
3.1905045
3.1907537
3.1909745
3.1911421
3.1912208
3.1911609
3.1908954
3.1903377
3.1893811
3.1878983
3.1857439
3.182757
3.1787705
3.1735324
3.166929
3.1586717
3.1484505
3.135917
3.1207023
3.1024304
3.0807368
3.0553043
3.0260009
2.9929203
2.9565098
2.9176918
2.8778769
2.8388627
2.802712
2.7718473
2.7487532
2.7359322
2.7353631
2.7481866
2.7750494
2.8158502
2.8693481
2.933357
3.0051246
3.0819255
3.1589538
3.2306514
3.288547
3.3293991
3.349672
3.3572007
3.3495007
3.338587
3.1830646
3.1831629
3.1832787
3.1834009
3.1835334
3.1836781
3.1838356
3.1840066
3.1841919
3.1843922
3.1846082
3.1848402
3.1850883
3.1853524
3.1856313
3.1859227
3.1862227
3.1865246
3.1868178
3.1870861
3.1873053
3.1874408
3.187444
3.1872496
3.1867724
3.1859065
3.184526
3.1824885
3.1796334
3.1757937
3.1708576
3.1644822
3.1564012
3.1465799
3.1346021
3.1201129
3.102747
3.082172
3.0581244
3.0304884
2.9993292
2.9650682
2.9285456
2.891045
2.8542438
2.8201003
2.7906804
2.7683582
2.7555658
2.7541932
2.7657469
2.7910535
2.8301035
2.8817065
2.9438503
3.01396
3.0889063
3.1633097
3.2313942
3.2855922
3.3238219
3.3435796
3.3519493
3.3455475
3.336489
3.1822172
3.1823137
3.1824285
3.1825491
3.1826805
3.1828247
3.1829825
3.1831549
3.1833427
3.183547
3.1837687
3.1840085
3.184267
3.1845443
3.1848397
3.1851517
3.1854769
3.1858096
3.1861404
3.1864547
3.1867305
3.1869359
3.1870255
3.186937
3.1865883
3.1858755
3.1846732
3.1828364
3.180204
3.1766106
3.1718864
3.1657512
3.1582303
3.1488975
3.1374691
3.1238194
3.1075537
3.0883675
3.0660284
3.0403836
3.0115101
2.9797701
2.9458843
2.9110025
2.8766381
2.8444509
2.8163894
2.7947542
2.7817235
2.7794418
2.7895688
2.813118
2.8501316
2.8995139
2.9594804
3.0274714
3.099757
3.1704535
3.2339851
3.2840635
3.3198065
3.3387596
3.3477671
3.3424386
3.3350807
3.1840435
3.184132
3.1842385
3.1843496
3.1844712
3.1846054
3.184753
3.1849151
3.1850929
3.1852877
3.1855005
3.1857327
3.1859851
3.1862585
3.186553
3.1868681
3.1872017
3.1875498
3.1879053
3.1882565
3.1885853
3.1888642
3.1890541
3.1890992
3.1889237
3.1884289
3.1874901
3.1859601
3.1836764
3.180467
3.1761464
3.170595
3.1635892
3.154862
3.1444076
3.131772
3.1167777
3.0992181
3.0788332
3.055479
3.0291962
3.0002528
2.969251
2.9371501
2.9051761
2.8748487
2.8480424
2.8267876
2.8134035
2.8101052
2.8187472
2.8403973
2.8751249
2.922053
2.9795825
3.0448759
3.1135644
3.1794777
3.2381871
3.2837905
3.3171275
3.3352209
3.344669
3.3402109
3.3344044
3.1876779
3.1877539
3.1878461
3.1879418
3.188047
3.1881637
3.1882927
3.1884354
3.1885928
3.1887665
3.1889579
3.1891684
3.1893996
3.1896528
3.189929
3.1902287
3.1905516
3.1908958
3.1912572
3.1916282
3.1919961
3.1923404
3.1926305
3.1928216
3.1928508
3.1926307
3.1920489
3.190966
3.1892169
3.1866224
3.1829902
3.1781568
3.171929
3.1642061
3.1547301
3.1433777
3.1300625
3.1143369
3.0961325
3.0753108
3.0518408
3.0258924
2.9978892
2.9685318
2.9388601
2.9102664
2.8844008
2.8633656
2.8495091
2.8451726
2.8522549
2.8718302
2.9041358
2.9485342
3.0033288
3.0652023
3.1292913
3.1900059
3.2431577
3.2848614
3.315725
3.3329265
3.3426603
3.3388966
3.3345107
3.1922207
3.1922817
3.1923559
3.1924329
3.192518
3.1926129
3.1927184
3.1928358
3.1929663
3.1931113
3.1932724
3.1934513
3.1936498
3.1938697
3.1941127
3.1943804
3.1946738
3.1949932
3.1953375
3.1957032
3.1960833
3.1964655
3.1968295
3.1971438
3.1973618
3.1974178
3.1972194
3.1966455
3.1955462
3.1937454
3.1910483
3.1872655
3.1822026
3.1757334
3.1677071
3.1580236
3.1463991
3.1328445
3.1171984
3.0991477
3.0786808
3.0558291
3.0308087
3.0041207
2.9766004
2.9494443
2.9242921
2.9032553
2.8888329
2.8833878
2.8887804
2.906173
2.9360518
2.9778525
3.0296457
3.0873633
3.1463277
3.2012457
3.2491688
3.2870173
3.3156293
3.3318671
3.3417488
3.3385196
3.3354314
3.1969712
3.1970167
3.1970717
3.1971297
3.197194
3.1972661
3.1973469
3.1974372
3.1975383
3.1976517
3.1977787
3.1979211
3.1980807
3.1982596
3.1984598
3.1986836
3.1989331
3.19921
3.1995156
3.1998497
3.2002104
3.2005924
3.2009854
3.2013717
3.2017227
3.2019951
3.2021259
3.2020272
3.2015814
3.2006407
3.1990295
3.1965573
3.1930266
3.1882674
3.1821102
3.1744378
3.1651565
3.15418
3.1412093
3.1261375
3.108802
3.0890624
3.0669693
3.0427805
3.0171214
2.9911038
2.9663744
2.9451955
2.9300635
2.9233637
2.9269719
2.942294
2.9700107
3.0093696
3.0577733
3.1107094
3.1639821
3.2127188
3.2560309
3.2902457
3.3167579
3.3320004
3.3419285
3.339099
3.3372022
3.201424
3.2014556
3.2014936
3.2015344
3.2015799
3.2016312
3.201689
3.2017542
3.2018276
3.2019106
3.2020045
3.2021107
3.202231
3.2023674
3.202522
3.2026972
3.2028956
3.2031198
3.2033724
3.2036555
3.2039704
3.204317
3.2046925
3.2050905
3.2054982
3.2058938
3.2062428
3.2064948
3.2065779
3.2063939
3.2058164
3.2046919
3.2028466
3.2001022
3.196283
3.1912256
3.1847585
3.1767018
3.1668986
3.1551105
3.1410286
3.1244174
3.105104
3.083135
3.058997
3.0337781
3.0092488
2.9877479
2.9717495
2.9637715
2.9658572
2.9795746
3.0055421
3.0424166
3.0867726
3.1342216
3.1813671
3.224683
3.2635371
3.2945219
3.3190725
3.3332981
3.3431931
3.3406487
3.339843
3.2053478
3.2053685
3.2053933
3.2054202
3.2054505
3.2054848
3.2055237
3.2055678
3.2056179
3.2056749
3.2057401
3.2058147
3.2059003
3.2059985
3.2061109
3.2062397
3.2063872
3.2065563
3.2067495
3.2069697
3.2072204
3.2075049
3.2078254
3.2081822
3.2085736
3.208994
3.2094332
3.2098732
3.2102857
3.2106285
3.2108409
3.2108391
3.2105165
3.2097394
3.2083454
3.2061446
3.2029139
3.1983954
3.1922682
3.1841405
3.1735813
3.1601329
3.1434223
3.1233804
3.1004354
3.0757712
3.0511989
3.0291826
3.0122862
3.0033072
3.0044952
3.0173981
3.0419451
3.0758218
3.1150953
3.1570123
3.1982743
3.2369086
3.2717919
3.2998158
3.322518
3.3357224
3.3455285
3.3431777
3.3433772
3.2087003
3.2087127
3.2087276
3.2087439
3.2087623
3.2087833
3.2088072
3.2088345
3.2088658
3.2089019
3.2089439
3.2089921
3.2090464
3.2091078
3.2091788
3.2092627
3.2093625
3.2094809
3.2096206
3.209783
3.2099687
3.2101807
3.2104254
3.2107087
3.2110361
3.2114129
3.2118451
3.2123369
3.2128937
3.2135187
3.2142103
3.2149643
3.2157642
3.2165682
3.2172895
3.2177752
3.2177752
3.2169151
3.2147066
3.2105574
3.2037356
3.193496
3.1793506
3.1611513
3.139288
3.1150047
3.0902989
3.0677449
3.0503128
3.0411993
3.0426346
3.05522
3.0779643
3.1076246
3.1424484
3.1786114
3.2151749
3.2494174
3.2807346
3.306063
3.3270437
3.3392413
3.348917
3.3466823
3.3478122
3.2116448
3.2116505
3.2116574
3.2116649
3.2116735
3.2116835
3.2116951
3.2117086
3.2117243
3.2117426
3.2117639
3.2117884
3.2118169
3.2118508
3.2118925
3.2119435
3.2120043
3.2120749
3.2121581
3.2122588
3.2123816
3.2125274
3.2126986
3.2129008
3.2131423
3.2134382
3.2138062
3.214263
3.2148315
3.2155449
3.2164439
3.217588
3.2190388
3.220839
3.2230122
3.2255059
3.2281148
3.2304448
3.2318618
3.2314698
3.2282636
3.2212943
3.2098174
3.1934725
3.1727173
3.1488361
3.1239988
3.1018663
3.0855148
3.0779011
3.0802289
3.0921499
3.1119156
3.1380512
3.1679826
3.1995467
3.2317461
3.2621786
3.2903398
3.3132109
3.3325955
3.3438154
3.3533356
3.3511563
3.3531565
3.2143292
3.2143273
3.214325
3.2143225
3.2143197
3.2143172
3.2143153
3.2143142
3.2143139
3.2143146
3.2143168
3.2143215
3.2143287
3.2143366
3.214345
3.2143561
3.2143713
3.2143937
3.2144277
3.2144768
3.2145439
3.214629
3.2147323
3.2148632
3.2150342
3.2152583
3.2155559
3.215955
3.2164924
3.2172136
3.2181797
3.2194793
3.2212155
3.2235001
3.2264416
3.2300604
3.2342435
3.2386307
3.2425727
3.2451403
3.2450925
3.2411382
3.23226
3.2179111
3.1983147
3.1754785
3.1525176
3.132921
3.1190167
3.1133955
3.116014
3.1266049
3.1437262
3.1663131
3.1919846
3.2196469
3.2481602
3.2752239
3.3005602
3.3212035
3.3391219
3.3494065
3.3587608
3.3565908
3.3594201
3.2168419
3.2168308
3.2168177
3.216804
3.2167891
3.2167727
3.216755
3.2167362
3.2167167
3.2166965
3.2166757
3.2166545
3.2166332
3.2166122
3.2165919
3.216573
3.216557
3.2165466
3.2165437
3.2165524
3.2165785
3.2166238
3.2166886
3.2167796
3.2169082
3.2170866
3.2173331
3.217677
3.2181629
3.2188476
3.2197908
3.2210743
3.2228244
3.2251747
3.2282667
3.2321964
3.2369589
3.2423195
3.2477212
3.2522025
3.2544046
3.2528596
3.246112
3.2335301
3.2165167
3.1970347
3.1776636
3.1611511
3.1503466
3.1458086
3.1487359
3.158086
3.1732317
3.1922251
3.2147681
3.2391342
3.2644126
3.2885173
3.3113568
3.3299926
3.3465742
3.3559777
3.3651662
3.362978
3.3666078
3.2187223
3.2187028
3.21868
3.2186559
3.2186298
3.2186006
3.2185678
3.2185325
3.2184972
3.2184623
3.2184263
3.2183886
3.2183496
3.2183093
3.2182675
3.2182251
3.2181832
3.2181429
3.2181069
3.2180797
3.2180669
3.2180731
3.2181017
3.2181556
3.2182473
3.2183976
3.218623
3.2189409
3.2193869
3.2200125
3.2208884
3.2221104
3.2237824
3.2260276
3.2290071
3.2328704
3.237639
3.2431633
3.2489953
3.2542363
3.2575326
3.2574227
3.2529335
3.2436062
3.2303484
3.2145665
3.1991973
3.1866506
3.1782044
3.1751175
3.178381
3.1869793
3.1998308
3.2166336
3.2364993
3.2580284
3.2805415
3.3020615
3.3226961
3.339533
3.3549052
3.3634894
3.3725215
3.3702954
3.3747147
3.219557
3.2195339
3.2195068
3.2194782
3.2194473
3.2194137
3.2193774
3.219338
3.2192956
3.2192506
3.2192032
3.2191535
3.219102
3.2190494
3.2189963
3.2189438
3.2188934
3.2188467
3.2188055
3.2187722
3.2187523
3.2187554
3.2187849
3.2188352
3.2189117
3.2190373
3.2192312
3.2195136
3.2199157
3.2204736
3.2212448
3.222322
3.2238138
3.2258416
3.2285174
3.2319563
3.2363066
3.2415186
3.2472563
3.2527494
3.2569655
3.2586684
3.2565815
3.2503163
3.2406478
3.2291769
3.2180855
3.2090756
3.2029579
3.2019411
3.2054409
3.2130001
3.224661
3.2395965
3.257267
3.276432
3.296572
3.3158434
3.3345478
3.3497845
3.3640694
3.3719076
3.3808038
3.3785551
3.383741
3.2187877
3.2187684
3.2187458
3.218722
3.2186962
3.2186682
3.2186379
3.2186053
3.2185705
3.2185335
3.2184944
3.2184535
3.2184111
3.2183676
3.2183237
3.2182805
3.2182389
3.2182
3.2181657
3.2181406
3.2181281
3.2181297
3.218149
3.2181915
3.2182654
3.2183862
3.2185698
3.2188322
3.2191969
3.2197007
3.220393
3.2213477
3.2226643
3.2244446
3.2268455
3.2300084
3.2340404
3.2389693
3.2445757
3.2503599
3.2553343
3.2583514
3.2583537
3.2550367
3.2490929
3.2417129
3.2347464
3.2288019
3.2254217
3.2258653
3.229693
3.2370894
3.2478074
3.2613268
3.2772307
3.2944074
3.3125331
3.3298641
3.3468863
3.3607082
3.37403
3.3811976
3.3899833
3.3877282
3.3936484
3.2168956
3.2168844
3.2168712
3.2168572
3.2168422
3.2168258
3.2168083
3.2167894
3.2167693
3.2167481
3.2167259
3.2167028
3.2166791
3.2166554
3.2166324
3.2166108
3.2165918
3.2165769
3.2165681
3.2165677
3.216578
3.2166027
3.2166471
3.2167167
3.2168186
3.2169626
3.2171664
3.2174426
3.2178028
3.218284
3.2189428
3.2198646
3.2211431
3.2228511
3.225115
3.2281304
3.2320396
3.2368733
3.2424986
3.2484709
3.2540179
3.2581355
3.2599605
3.2592971
3.2566784
3.2531102
3.2494007
3.2464134
3.2457404
3.2475532
3.2521021
3.2594507
3.2695753
3.2820165
3.2964961
3.3120295
3.3284576
3.3441219
3.3596908
3.3722763
3.3847532
3.3913286
3.4000306
3.3977923
3.4044405
3.2142586
3.214255
3.2142509
3.2142466
3.214242
3.2142373
3.2142323
3.2142273
3.2142224
3.2142176
3.2142133
3.2142097
3.2142071
3.214206
3.2142073
3.2142122
3.2142219
3.2142384
3.2142636
3.2143004
3.2143522
3.2144233
3.2145189
3.2146443
3.2148042
3.2150088
3.2152765
3.2156267
3.216093
3.216713
3.2175063
3.2185271
3.2198842
3.2216907
3.2240736
3.2271868
3.2311633
3.2360537
3.2417606
3.2479186
3.2538949
3.2588878
3.2622358
3.2638599
3.2641606
3.2637127
3.2628864
3.2629281
3.2643333
3.2675439
3.2728679
3.2804086
3.290186
3.3018294
3.3151874
3.3293702
3.3443793
3.3586224
3.37295
3.3844498
3.3961983
3.4022556
3.4109267
3.4086883
3.4161756
3.2113381
3.2113393
3.2113408
3.2113425
3.2113447
3.2113474
3.2113509
3.2113552
3.2113607
3.2113677
3.2113764
3.2113876
3.2114018
3.2114198
3.2114428
3.2114722
3.2115098
3.2115577
3.2116188
3.2116967
3.2117947
3.2119184
3.212076
3.2122785
3.2125312
3.2128498
3.2132632
3.2137788
3.2144067
3.2151908
3.2161865
3.2174561
3.2190716
3.221123
3.2237529
3.227109
3.231305
3.2363961
3.2422971
3.2487148
3.2550972
3.2608596
3.2655917
3.2692217
3.2720626
3.2740475
3.275942
3.2783712
3.2816603
3.2862362
3.2924011
3.3002478
3.309863
3.3209342
3.3334169
3.3465008
3.3603335
3.3733721
3.3866453
3.3972017
3.4083442
3.4139404
3.4226512
3.4203964
3.4287605
3.2080074
3.2080108
3.208015
3.2080198
3.2080255
3.2080323
3.2080404
3.2080503
3.2080623
3.2080768
3.2080945
3.2081162
3.2081428
3.2081755
3.2082159
3.2082659
3.2083279
3.208405
3.2085009
3.2086204
3.2087693
3.2089545
3.2091862
3.209477
3.2098388
3.2102852
3.2108347
3.2115108
3.2123455
3.2133773
3.2146525
3.2162207
3.2181595
3.2205928
3.2236454
3.2274318
3.2320635
3.2375741
3.2438556
3.2506528
3.2575484
3.2640796
3.2700708
3.2754976
3.2803054
3.2844939
3.2887584
3.2931711
3.2981354
3.3039804
3.310978
3.319213
3.3288048
3.3394824
3.3512946
3.3634919
3.3763572
3.3883821
3.4007699
3.4105148
3.4211694
3.4263465
3.4351773
3.4329042
3.4421567
3.2039191
3.2039244
3.2039312
3.2039388
3.2039477
3.2039584
3.2039711
3.2039864
3.2040047
3.2040267
3.2040533
3.2040856
3.2041248
3.2041725
3.2042308
3.2043021
3.2043896
3.2044969
3.204629
3.2047916
3.204992
3.205239
3.2055448
3.2059217
3.2063839
3.2069521
3.2076509
3.2085119
3.2095682
3.2108556
3.212425
3.2143625
3.2167669
3.2197316
3.2233746
3.2278067
3.2331012
3.2392375
3.2461092
3.2534725
3.2610059
3.2684424
3.2757351
3.2826697
3.2891794
3.2954276
3.3014854
3.3076036
3.3140554
3.3210656
3.328872
3.3375349
3.3471986
3.3576193
3.368925
3.380412
3.392487
3.4036645
3.415314
3.4243721
3.4346313
3.4394748
3.4484608
3.4461985
3.4563519
3.1985758
3.1985849
3.1985962
3.1986088
3.1986235
3.1986406
3.1986608
3.1986845
3.1987126
3.1987458
3.1987854
3.1988326
3.198889
3.1989567
3.1990381
3.1991363
3.1992549
3.1993985
3.1995728
3.1997847
3.2000423
3.2003562
3.2007393
3.2012073
3.2017822
3.2024881
3.2033489
3.2043978
3.2056841
3.2072727
3.2092376
3.2116646
3.2146547
3.2183192
3.2227617
3.2280558
3.2342189
3.2411797
3.2488246
3.2569178
3.2652694
3.2738451
3.2824264
3.290841
3.2988373
3.3066389
3.3142925
3.3219108
3.3296765
3.3377443
3.3463118
3.3554148
3.3652128
3.3754782
3.3864063
3.3973269
3.40876
3.4192331
3.4302744
3.4387498
3.4487152
3.4532683
3.4624712
3.4602358
3.4712867
3.191572
3.1915875
3.1916063
3.1916271
3.1916508
3.1916782
3.1917099
3.1917466
3.1917893
3.1918391
3.1918973
3.1919656
3.192046
3.1921409
3.1922531
3.1923863
3.1925447
3.1927337
3.19296
3.1932308
3.1935566
3.1939512
3.1944288
3.1950062
3.1957049
3.1965561
3.1976037
3.1988978
3.2004997
3.2024875
3.2049569
3.2080165
3.2117804
3.2163509
3.2218005
3.2281508
3.2353536
3.2433182
3.2518914
3.2609186
3.270437
3.280223
3.2899638
3.2996092
3.3090386
3.3182851
3.3273482
3.3362838
3.3452144
3.354234
3.363505
3.3730383
3.383004
3.393184
3.4038316
3.4143004
3.4252125
3.435102
3.4456411
3.4536496
3.4633697
3.4677258
3.4771481
3.4750002
3.4869029
3.1826002
3.1826245
3.1826539
3.1826859
3.1827221
3.1827635
3.1828108
3.1828651
3.1829273
3.182999
3.1830818
3.1831776
3.1832889
3.1834186
3.1835699
3.1837448
3.18395
3.1841955
3.1844871
3.1848302
3.1852352
3.1857183
3.1863008
3.1870068
3.1878659
3.1889186
3.1902177
3.1918313
3.1938467
3.1963687
3.1995171
3.2034153
3.208176
3.2138747
3.2205355
3.2281166
3.2365328
3.2456567
3.2553383
3.2656563
3.2764426
3.2873367
3.2982786
3.3091821
3.3199284
3.3304702
3.3407903
3.3508948
3.3608568
3.370725
3.3806327
3.3905692
3.4007127
3.4108506
3.4212862
3.4313907
3.4418773
3.451287
3.4614206
3.469044
3.4785937
3.4828189
3.4924681
3.4903985
3.5032137
3.1713627
3.1713981
3.1714407
3.171487
3.1715391
3.1715984
3.1716656
3.1717418
3.1718279
3.1719246
3.1720328
3.1721579
3.1723081
3.1724835
3.1726802
3.1729044
3.1731659
3.1734725
3.1738331
3.1742592
3.1747636
3.1753635
3.1760834
3.176956
3.1780239
3.1793441
3.1809909
3.183059
3.1856636
3.188937
3.1930166
3.1980262
3.204054
3.2111228
3.2191984
3.2281887
3.2379637
3.2483895
3.259499
3.2712085
3.2831468
3.2952536
3.3074476
3.3195921
3.3315736
3.343314
3.354768
3.3659101
3.3767796
3.3873927
3.397861
3.4081568
3.4184654
3.4285798
3.4388458
3.4486529
3.4587883
3.4677988
3.4775975
3.4849267
3.4943601
3.4985536
3.5083942
3.5067069
3.5199527
3.1578846
3.1579335
3.1579911
3.1580512
3.1581166
3.1581926
3.1582848
3.1583907
3.1585043
3.1586281
3.1587691
3.1589314
3.159118
3.1593328
3.1595809
3.1598675
3.1601989
3.160582
3.1610272
3.1615503
3.162171
3.1629149
3.1638162
3.164921
3.1662907
3.168006
3.1701698
3.1729074
3.1763616
3.1806816
3.1860006
3.192414
3.1999546
3.2085844
3.21823
3.2287316
3.2399457
3.2519206
3.2645549
3.2775302
3.2907632
3.304184
3.3176371
3.3309953
3.3441429
3.3569823
3.3694523
3.3815067
3.3931621
3.404413
3.4153561
3.4259537
3.4363963
3.4464841
3.456599
3.4661482
3.4759804
3.4846589
3.4941747
3.501275
3.5106147
3.514848
3.5248631
3.5233857
3.5371268
3.142258
3.1423221
3.1423925
3.142466
3.1425502
3.1426462
3.1427547
3.1428775
3.143017
3.1431757
3.1433568
3.1435644
3.1438044
3.1440792
3.1443864
3.1447303
3.1451241
3.1455813
3.1461162
3.1467476
3.1475015
3.1484126
3.1495284
3.1509125
3.1526494
3.1548478
3.1576423
3.16119
3.1656594
3.1712118
3.1779661
3.1859898
3.195271
3.2057148
3.2171335
3.2293858
3.2424609
3.2562085
3.2703373
3.2847658
3.2994327
3.3141856
3.3288963
3.3434354
3.3576829
3.3715326
3.3849134
3.397767
3.410096
3.4218815
3.4332129
3.444046
3.4545789
3.4646228
3.4745862
3.4839011
3.4934591
3.501852
3.5111259
3.5180726
3.5273425
3.5318187
3.5419569
3.5416062
3.5564137
3.1244439
3.1245177
3.1246098
3.1247099
3.124821
3.1249455
3.1250843
3.1252383
3.1254092
3.1256002
3.1258146
3.126056
3.1263286
3.126638
3.126991
3.1273965
3.1278663
3.1284159
3.129066
3.1298447
3.1307901
3.1319536
3.1334042
3.1352324
3.1375543
3.1405129
3.1442748
3.1490201
3.1549237
3.1621246
3.170699
3.1806671
3.1919098
3.2043019
3.217655
3.2319418
3.2469292
3.2623051
3.2780144
3.2939996
3.3101069
3.3262098
3.3421732
3.3578618
3.373151
3.3879327
3.4021289
3.4156782
3.4285731
3.4407916
3.4524136
3.4634039
3.4739624
3.4839198
3.493704
3.5027765
3.5120622
3.5201923
3.5292391
3.5360745
3.5452687
3.5501
3.5601103
3.5620569
3.5737151
3.1065303
3.1066207
3.106731
3.1068451
3.1069708
3.1071109
3.1072667
3.1074401
3.1076337
3.1078501
3.1080931
3.1083671
3.1086777
3.1090324
3.1094406
3.1099153
3.1104736
3.1111388
3.1119423
3.1129266
3.1141489
3.1156853
3.1176347
3.1201225
3.123302
3.1273505
3.1324586
3.138811
3.1465584
3.1557844
3.1665169
3.1786325
3.1919882
3.2064215
3.2217948
3.2378857
3.2544096
3.2713524
3.2886348
3.3060888
3.3235767
3.3409538
3.3580735
3.374795
3.3909916
3.4065538
3.4214042
3.4354813
3.4487759
3.4612681
3.4730373
3.4840606
3.4945392
3.5043379
3.5138776
3.5226879
3.5316635
3.5395582
3.5483467
3.5551433
3.5642261
3.569421
3.5794732
3.5824486
3.5938658
3.0908918
3.0909911
3.0911123
3.0912372
3.0913745
3.0915272
3.0916967
3.0918851
3.0920954
3.0923309
3.0925961
3.0928968
3.0932405
3.0936373
3.0941007
3.0946491
3.0953072
3.0961087
3.0970988
3.098338
3.0999063
3.1019074
3.1044717
3.1077586
3.1119525
3.117254
3.1238616
3.1319445
3.1416117
3.1528974
3.1657317
3.1799524
3.1954388
3.2117812
3.2288788
3.2465198
3.2646718
3.2832044
3.3019391
3.3207397
3.3394534
3.3579263
3.3760084
3.3935576
3.4104492
3.4265782
3.4418704
3.4562698
3.4697687
3.482357
3.4941133
3.505037
3.5153255
3.5248871
3.5341205
3.5426423
3.5512782
3.5589594
3.5674648
3.5742924
3.5831872
3.5889234
3.5987749
3.6033934
3.6141104
3.0807847
3.0808877
3.0810131
3.0811423
3.0812841
3.0814415
3.0816163
3.0818109
3.0820286
3.0822739
3.0825522
3.0828713
3.0832411
3.0836756
3.0841934
3.0848198
3.0855892
3.0865478
3.087757
3.0892977
3.091274
3.0938173
3.0970872
3.1012701
3.1065711
3.1131976
3.1213352
3.1311188
3.1426033
3.1557512
3.170434
3.1865354
3.2035448
3.2213946
3.2400298
3.2592354
3.2788388
3.2986877
3.3186379
3.3385329
3.3582144
3.3775231
3.3963062
3.4144237
3.431755
3.4482014
3.463694
3.4781859
3.4916743
3.5041629
3.5157321
3.5264079
3.5363805
3.5456099
3.5544591
3.5626468
3.5709016
3.5783601
3.5865592
3.5934222
3.602122
3.6083377
3.6180748
3.6237173
3.6344339
3.0779622
3.078064
3.0781872
3.0783145
3.0784541
3.0786092
3.0787818
3.0789749
3.0791923
3.0794395
3.0797238
3.080055
3.0804464
3.0809165
3.0814901
3.0822009
3.0830939
3.0842294
3.0856859
3.0875648
3.0899934
3.0931275
3.0971496
3.1022636
3.1086808
3.1165999
3.1261788
3.1375061
3.1505771
3.165297
3.1815334
3.1988891
3.2171819
3.2364903
3.2564039
3.2767712
3.2974529
3.3182922
3.339128
3.3597948
3.3801255
3.3999563
3.4191342
3.4375228
3.4550074
3.4714969
3.4869291
3.5012685
3.5145205
3.5267043
3.5379077
3.5481817
3.5577099
3.5665018
3.5748846
3.5826781
3.5905069
3.5977173
3.6055916
3.6124822
3.6209928
3.6276936
3.6373452
3.6441726
3.6549461
3.0846283
3.0847241
3.0848386
3.0849584
3.0850899
3.0852362
3.0853998
3.0855841
3.0857939
3.086036
3.0863193
3.0866563
3.0870641
3.0875659
3.0881934
3.0889888
3.0900085
3.0913261
3.0930366
3.0952597
3.0981422
3.101858
3.1066041
3.1125902
3.1200221
3.1290768
3.1398747
3.1524553
3.166762
3.1826653
3.1999248
3.2182936
3.2377282
3.2578679
3.2785702
3.2996757
3.3210226
3.3424449
3.3637698