/*--------------------------------*- C++ -*----------------------------------*\
  =========                 |
  \\      /  F ield         | OpenFOAM: The Open Source CFD Toolbox
   \\    /   O peration     | Website:  https://openfoam.org
    \\  /    A nd           | Version:  13
     \\/     M anipulation  |
\*---------------------------------------------------------------------------*/
FoamFile
{
    format      ascii;
    class       volVectorField;
    location    "13.895762";
    object      U;
}
// * * * * * * * * * * * * * * * * * * * * * * * * * * * * * * * * * * * * * //

dimensions      [0 1 -1 0 0 0 0];

internalField   nonuniform List<vector> 
17140
(
(5.6497953e-07 -0.00014140082 1.125076e-23)
(-2.86493e-05 -0.00043520243 1.2616785e-24)
(-0.00010041517 -0.00075730377 -8.2430682e-23)
(-0.00023124079 -0.0011110024 9.0598322e-23)
(-0.00043635686 -0.0014995864 -1.0590916e-23)
(-0.00073640421 -0.001926404 3.4786839e-23)
(-0.0011567574 -0.0023947439 5.8689311e-23)
(-0.0017280004 -0.0029076987 -2.8361063e-23)
(-0.0024868634 -0.0034679954 -9.3481708e-23)
(-0.0034771184 -0.0040777824 -2.2982599e-22)
(-0.0047504666 -0.0047383738 3.3982688e-22)
(-0.006367353 -0.005449945 -3.0278602e-22)
(-0.0083976512 -0.0062111882 -4.7018925e-23)
(-0.010921093 -0.0070189382 2.5977409e-22)
(-0.014027309 -0.0078677857 -2.8996664e-23)
(-0.017815319 -0.0087497219 2.263985e-22)
(-0.022392302 -0.009653857 -7.7532877e-24)
(-0.027871493 -0.010566298 2.5057909e-24)
(-0.034369117 -0.011470272 1.3034693e-22)
(-0.042000415 -0.012346627 -1.6338827e-22)
(-0.050875042 -0.013174832 7.8769749e-23)
(-0.061092581 -0.013934606 -1.2715848e-23)
(-0.072738313 -0.014608267 -1.0165328e-22)
(-0.085880902 -0.015183727 1.002262e-22)
(-0.10058748 -0.01565792 1.5505859e-22)
(-0.11696099 -0.016039541 -1.1330899e-22)
(-0.13491382 -0.016344257 -5.5903302e-22)
(-0.15458053 -0.016589926 -7.3811072e-23)
(-0.17620573 -0.01678197 5.6434942e-22)
(-0.19972462 -0.016924794 1.436267e-22)
(-0.22524941 -0.017025386 5.044453e-22)
(-0.25289395 -0.017087085 -6.5068491e-22)
(-0.2827644 -0.017108398 1.8671154e-22)
(-0.31495556 -0.017084085 8.4016223e-23)
(-0.3495503 -0.017005195 9.7799328e-22)
(-0.38660357 -0.016859589 -4.271353e-22)
(-0.42612741 -0.016633538 7.4208212e-22)
(-0.46807343 -0.01631161 5.5560537e-22)
(-0.51231342 -0.015878651 2.8907482e-22)
(-0.55862001 -0.015321528 -9.0787858e-22)
(-0.60665316 -0.014625803 -1.9088619e-21)
(-0.65596139 -0.013779911 -1.8884958e-21)
(-0.70599298 -0.012777621 -8.8298937e-22)
(-0.75610018 -0.011625326 4.9065286e-21)
(-0.80557312 -0.010355386 3.9127287e-21)
(-0.85392025 -0.0090025741 -1.0295481e-21)
(-0.90090364 -0.0075527333 7.537044e-21)
(-0.94544716 -0.0060144008 2.7619705e-21)
(-0.9865425 -0.0044509948 -2.9988655e-21)
(-1.0234772 -0.0029069657 -7.7574281e-21)
(-1.0553331 -0.0014186667 4.9914901e-21)
(-1.0810619 -2.5233874e-05 3.2719996e-21)
(-1.0994916 0.0012293189 -8.6575621e-21)
(-1.1082641 0.002287798 -4.1210045e-21)
(-1.1101457 0.0030471752 -2.8994408e-21)
(-1.0923912 0.0032147654 2.2531276e-21)
(-1.0604466 0.0028403984 -5.5794547e-21)
(-1.0026873 0.0019309643 -4.196312e-21)
(-0.90961432 6.8971896e-06 -8.2608339e-22)
(-0.7667465 -0.0032890931 1.708572e-21)
(-0.56500134 -0.0083006453 5.6288751e-22)
(-0.32257617 -0.012419314 -2.3827778e-22)
(-0.068222149 -0.014713682 -2.4802045e-22)
(0.1535936 -0.014205538 2.5848113e-21)
(0.34493182 -0.012439005 -2.0370746e-21)
(-2.0448871e-05 0.00046495274 -3.3324869e-24)
(-9.2939278e-05 0.0014314021 4.3375265e-22)
(-0.00021159898 0.0024868521 -3.8653998e-22)
(-0.00039286448 0.0036346091 1.0509895e-22)
(-0.00065200281 0.0048775399 2.1791924e-22)
(-0.0010095655 0.0062174286 -4.172642e-22)
(-0.0014907447 0.0076546984 4.3448237e-22)
(-0.0021258293 0.0091880271 -3.8269545e-23)
(-0.0029511183 0.010813884 1.1965547e-22)
(-0.0040097909 0.012526005 2.3590446e-24)
(-0.0053527701 0.014314824 3.995678e-22)
(-0.0070395156 0.016166866 -6.3172791e-22)
(-0.0091386912 0.018064158 -5.2255028e-23)
(-0.011728585 0.019983713 5.1264661e-22)
(-0.014897157 0.021897166 -1.5514144e-22)
(-0.018741552 0.023770707 -9.7720489e-23)
(-0.023366917 0.025565458 6.2113456e-22)
(-0.02888438 0.027238481 -1.9880175e-21)
(-0.035408101 0.028744646 1.2212221e-21)
(-0.043051438 0.030039511 -1.440679e-21)
(-0.051922528 0.031083342 2.0698056e-21)
(-0.062119975 0.031846154 -4.8977548e-22)
(-0.07372882 0.032313389 -1.92363e-22)
(-0.086818337 0.032491231 6.3163124e-22)
(-0.10145655 0.032409409 -2.1516536e-21)
(-0.1177471 0.032119617 -3.4325922e-22)
(-0.13561193 0.031697815 1.5228029e-21)
(-0.15517764 0.031206556 -1.7185167e-21)
(-0.1766854 0.030623104 1.8409883e-22)
(-0.20008172 0.029985668 2.3163317e-21)
(-0.22547049 0.029331126 -2.118073e-22)
(-0.25296732 0.028676983 -1.9845716e-21)
(-0.28267662 0.028031757 -1.0587378e-22)
(-0.31469124 0.027398023 1.63724e-21)
(-0.34909075 0.026772915 -1.9184543e-21)
(-0.38592581 0.026148464 9.6598584e-22)
(-0.42520182 0.025511979 -1.1147126e-21)
(-0.46686124 0.02484729 -4.1376208e-21)
(-0.51076503 0.024134577 -1.0893276e-21)
(-0.55667161 0.023352269 -4.5563384e-21)
(-0.60422291 0.022488344 6.2082617e-21)
(-0.65294449 0.021542535 6.5004876e-21)
(-0.7022499 0.020517214 1.3574838e-21)
(-0.75144669 0.019435036 -1.0269361e-20)
(-0.79983565 0.018354657 5.5972186e-21)
(-0.84690497 0.017382344 2.1496565e-21)
(-0.89225459 0.01643017 -1.1328352e-21)
(-0.93494506 0.015289853 -3.9338786e-21)
(-0.97390425 0.014069476 2.0509033e-21)
(-1.0083528 0.012736589 -3.9408972e-21)
(-1.0373174 0.011214441 -2.4691937e-20)
(-1.0596592 0.0093863948 -1.1955997e-21)
(-1.0741126 0.0071503903 5.6154002e-21)
(-1.0788506 0.0046739233 -1.2624338e-20)
(-1.0717813 0.0006128233 1.0678052e-20)
(-1.049885 -0.0048869837 -2.9509051e-20)
(-1.0100659 -0.011799224 -8.0286267e-21)
(-0.94422278 -0.022373313 1.9940674e-20)
(-0.84216586 -0.037383395 -3.0372906e-21)
(-0.68988373 -0.056838663 -2.2223489e-21)
(-0.47794627 -0.076428622 -1.65267e-22)
(-0.22658408 -0.086981007 5.2673116e-23)
(0.033714395 -0.084843725 3.9590717e-21)
(0.2594574 -0.073257602 1.4498853e-21)
(0.45254148 -0.058558378 2.6785069e-21)
(-7.4820322e-05 0.0010645384 -1.8335132e-22)
(-0.00025921312 0.0032774287 1.3550024e-22)
(-0.00049861786 0.0056956952 3.6146075e-23)
(-0.00080947446 0.0083294713 -3.4140192e-23)
(-0.0012070142 0.011187934 1.6627036e-22)
(-0.0017114745 0.014278219 1.2769195e-23)
(-0.0023474737 0.017604752 1.5865928e-22)
(-0.0031443981 0.021168357 1.7139344e-22)
(-0.0041372572 0.024965168 -1.3911064e-21)
(-0.0053674808 0.028985386 1.2410571e-21)
(-0.0068837178 0.033211882 -5.926545e-22)
(-0.0087425679 0.037618688 -8.6920891e-22)
(-0.011009205 0.042169463 1.7145678e-21)
(-0.013757777 0.04681605 2.1380172e-22)
(-0.017071474 0.051497332 -8.0953499e-22)
(-0.021042114 0.056138656 -5.5354044e-22)
(-0.025769111 0.060652204 6.3433177e-22)
(-0.031357673 0.064938756 -2.2697298e-21)
(-0.037916179 0.068891376 1.3100146e-21)
(-0.045552742 0.072401513 -6.4332225e-22)
(-0.05437125 0.075367878 2.0968428e-21)
(-0.064467497 0.077708077 5.3427071e-22)
(-0.075925665 0.079372355 -1.066281e-21)
(-0.088816301 0.080357465 1.5712866e-21)
(-0.10320869 0.080716346 6.3499537e-22)
(-0.11920654 0.080558424 -6.362243e-22)
(-0.13676156 0.080048846 -3.759111e-21)
(-0.15597129 0.07933252 -1.7671025e-21)
(-0.1770665 0.078374732 7.38639e-22)
(-0.20003059 0.077257067 -1.0103588e-21)
(-0.2249377 0.076060372 4.4887341e-22)
(-0.25190783 0.074823303 3.3664035e-21)
(-0.28103725 0.073561881 -1.1652402e-21)
(-0.31240989 0.072274924 -3.8630413e-21)
(-0.34609117 0.070947502 1.1565544e-21)
(-0.38211341 0.06955145 2.0031242e-21)
(-0.42045958 0.068044563 -3.8624726e-21)
(-0.4610444 0.066377086 -1.4085668e-21)
(-0.50369055 0.064495208 2.5081785e-21)
(-0.54811024 0.062341529 1.0787829e-21)
(-0.59389425 0.059877802 -6.0862346e-21)
(-0.64050405 0.057087525 1.604442e-21)
(-0.68727846 0.05397685 2.8684181e-21)
(-0.7334545 0.050607894 8.8882036e-21)
(-0.77839161 0.047154095 -1.8077535e-20)
(-0.82143087 0.043829484 1.2859195e-20)
(-0.86187953 0.040495666 3.7533133e-21)
(-0.89921479 0.036808755 1.5091025e-20)
(-0.93244472 0.032856499 1.9422799e-20)
(-0.96057912 0.028709061 1.1173043e-21)
(-0.98257229 0.024241737 -4.8646433e-21)
(-0.99721974 0.019241556 3.5220618e-20)
(-1.0031594 0.013491846 1.5442234e-20)
(-0.99862605 0.0069298222 1.607737e-20)
(-0.98189725 -0.0012985431 5.2882997e-21)
(-0.95093015 -0.011971506 3.9684877e-20)
(-0.90121663 -0.025978334 -1.5261212e-20)
(-0.82615665 -0.04591119 4.0549946e-21)
(-0.71593635 -0.073898663 2.8693347e-20)
(-0.55562715 -0.10955159 8.3591151e-21)
(-0.33452306 -0.1434966 -4.606085e-21)
(-0.077558387 -0.15938862 -6.3714668e-22)
(0.18000463 -0.1520504 -3.3750546e-21)
(0.40120399 -0.12885917 -6.7786531e-21)
(0.58436271 -0.10043419 -2.9897336e-21)
(-0.00016122791 0.001637344 6.5125307e-22)
(-0.00052303843 0.0050418404 -1.0360126e-21)
(-0.00095407345 0.0087639973 3.7480524e-22)
(-0.0014703756 0.012820881 -4.0662144e-23)
(-0.0020872494 0.017228148 8.0757901e-22)
(-0.0028244252 0.021998618 -8.3437429e-22)
(-0.0037055833 0.027141233 1.2687256e-21)
(-0.0047586561 0.032659692 -5.9398029e-22)
(-0.0060165754 0.038550782 -2.2670371e-21)
(-0.0075179525 0.044802449 5.4207167e-22)
(-0.0093077698 0.051391613 2.0722745e-21)
(-0.011438013 0.05828177 -6.2896504e-22)
(-0.013968217 0.065420515 -3.9832178e-23)
(-0.016965834 0.072737141 1.6426815e-21)
(-0.020506321 0.080140623 -5.0969722e-21)
(-0.024672842 0.087518392 3.0995335e-21)
(-0.029555451 0.094736474 3.0024229e-23)
(-0.035249655 0.1016417 -1.675685e-21)
(-0.041854279 0.10806684 4.1884765e-21)
(-0.049468676 0.11383944 -1.9301179e-21)
(-0.058189482 0.11879518 -2.8205575e-21)
(-0.068107477 0.12279575 -1.1368006e-21)
(-0.079304879 0.12575054 5.3470881e-21)
(-0.091853732 0.12763944 2.7557694e-21)
(-0.10582502 0.12853057 -1.6212272e-21)
(-0.12132118 0.12858428 1.0067077e-21)
(-0.1383428 0.12804852 -3.4210252e-21)
(-0.15693808 0.12715338 1.0017801e-21)
(-0.17732424 0.12586522 -2.6689018e-21)
(-0.19954636 0.12430679 1.4763118e-21)
(-0.22362693 0.12260077 -1.0274585e-21)
(-0.2496934 0.12080774 3.6884155e-21)
(-0.2778264 0.11895214 -5.0185568e-22)
(-0.30809484 0.11702812 3.1893151e-21)
(-0.34054122 0.115005 -3.1699447e-21)
(-0.37516825 0.11283279 -1.3217597e-21)
(-0.41192205 0.11044389 1.4824644e-20)
(-0.45067535 0.10775207 4.4440133e-21)
(-0.49119175 0.10466291 -3.8398173e-21)
(-0.5331149 0.10108639 4.1508408e-21)
(-0.57596167 0.096957673 -1.2760175e-21)
(-0.61911771 0.092246743 -8.1922852e-21)
(-0.66184884 0.086979984 3.8495956e-22)
(-0.70341369 0.081275593 3.578294e-21)
(-0.74313285 0.075424605 -1.4768914e-21)
(-0.78020302 0.069620872 1.409801e-21)
(-0.81372079 0.063836386 3.3284838e-21)
(-0.84318146 0.057830553 -5.0894192e-20)
(-0.86804765 0.051483914 5.9541707e-21)
(-0.88743568 0.04473112 -5.9707093e-21)
(-0.90014374 0.037462735 5.9204607e-20)
(-0.90497126 0.029498574 -3.3711594e-20)
(-0.9006062 0.020611404 -2.8613007e-20)
(-0.88563106 0.010600692 -2.7660201e-20)
(-0.85861925 -0.001537195 -2.6598058e-20)
(-0.81770002 -0.016884083 -4.0618041e-20)
(-0.75910309 -0.037082281 7.7793331e-20)
(-0.67685484 -0.065680047 -4.4137698e-20)
(-0.56137191 -0.10633353 -5.595086e-20)
(-0.39590979 -0.15867588 3.1191274e-20)
(-0.16799942 -0.20691716 4.7177422e-21)
(0.088143339 -0.22659662 -8.8865426e-22)
(0.33352563 -0.21312684 8.937978e-21)
(0.53808555 -0.17808848 1.0252509e-20)
(0.69792686 -0.13612923 -2.2706041e-22)
(-0.00027590853 0.0021628989 -4.9585994e-22)
(-0.00087324466 0.0066620436 1.646197e-21)
(-0.0015587082 0.011583625 -1.3423901e-21)
(-0.002347854 0.016951688 5.0749462e-22)
(-0.0032561174 0.022788537 1.8370037e-22)
(-0.0043025981 0.02911309 -1.5798077e-21)
(-0.0055097765 0.035939506 3.9833442e-22)
(-0.0069037064 0.043275408 8.4856045e-22)
(-0.0085146149 0.051119697 6.4552241e-23)
(-0.010377424 0.059460016 5.5224896e-22)
(-0.012532297 0.068269825 -7.7349452e-22)
(-0.015025126 0.07750518 5.355179e-22)
(-0.017907971 0.087101309 1.9741687e-21)
(-0.02123936 0.096969233 6.0405694e-23)
(-0.025084395 0.10699276 -1.4872221e-21)
(-0.029514574 0.11702642 -1.0477362e-21)
(-0.034607243 0.12689504 8.9716396e-22)
(-0.040444605 0.1363959 -7.8213876e-23)
(-0.047112225 0.14530475 -1.6883018e-21)
(-0.054697071 0.15338668 -2.0367046e-21)
(-0.063285245 0.16041314 2.2671797e-21)
(-0.072959826 0.16618547 2.2195575e-21)
(-0.083799264 0.17056423 -2.8841509e-21)
(-0.095876462 0.1735012 3.4687106e-21)
(-0.10926377 0.17506666 5.8944225e-21)
(-0.12405895 0.17545995 -1.3109822e-20)
(-0.14032566 0.17499927 6.9129675e-21)
(-0.15803866 0.17400312 -1.0192697e-20)
(-0.17741587 0.17246486 1.2578114e-20)
(-0.19859742 0.1705329 -1.4256319e-20)
(-0.2215225 0.16837303 1.5012798e-20)
(-0.24632608 0.16606687 -2.4368681e-21)
(-0.27306507 0.16365204 -9.447464e-21)
(-0.30178763 0.16111586 5.5597314e-21)
(-0.33250617 0.15841338 -1.7891322e-21)
(-0.36519305 0.15547151 -4.574553e-22)
(-0.39974867 0.15219223 -7.8402769e-21)
(-0.43598407 0.14845108 -3.0257311e-21)
(-0.47359764 0.14411169 -3.4833323e-21)
(-0.51216168 0.13905429 -3.3787107e-21)
(-0.55112321 0.133194 1.8560853e-20)
(-0.58981523 0.12650552 -8.8623114e-21)
(-0.6274901 0.11905373 -1.9709702e-21)
(-0.66346704 0.11104911 1.9753339e-20)
(-0.69699949 0.10278029 1.1295822e-20)
(-0.72723823 0.094437027 -5.8409764e-21)
(-0.75333208 0.086138628 -2.3238153e-20)
(-0.77451273 0.077808864 1.0711675e-20)
(-0.79027903 0.069210713 -3.3012542e-20)
(-0.79995623 0.060201847 -1.9194494e-20)
(-0.8027308 0.050571902 -2.8080782e-20)
(-0.7975062 0.039956461 -7.8389191e-20)
(-0.78281754 0.028166349 6.2346404e-20)
(-0.75724723 0.0150976 -2.0847985e-20)
(-0.71964364 -0.00028654929 3.5713391e-20)
(-0.66840653 -0.019552628 3.3363725e-20)
(-0.60032182 -0.045069283 1.2976135e-20)
(-0.5106958 -0.081284401 1.0531526e-19)
(-0.38978115 -0.13393619 2.3436254e-20)
(-0.21914753 -0.20331312 -3.951587e-20)
(0.014245145 -0.26502303 -8.5083723e-21)
(0.26124856 -0.28646528 -4.0944441e-22)
(0.48542426 -0.26573397 -6.4523529e-21)
(0.66116222 -0.21869651 -1.030867e-20)
(0.7875493 -0.16427115 1.0313251e-21)
(-0.00041297315 0.0026221915 -1.6531956e-21)
(-0.0012919565 0.0080797503 -5.845336e-22)
(-0.0022817983 0.014053661 4.7103773e-22)
(-0.0033975509 0.020574906 1.7447371e-21)
(-0.0046548718 0.02767255 -9.5700704e-22)
(-0.0060721942 0.035372047 1.3766331e-21)
(-0.0076706646 0.043693575 -5.954937e-22)
(-0.0094742046 0.052649944 -1.4203397e-22)
(-0.011509934 0.062243992 8.0203627e-22)
(-0.013808501 0.072465533 1.7274223e-21)
(-0.01640444 0.083287806 8.9956854e-23)
(-0.019336485 0.09466349 -2.8264693e-21)
(-0.02264785 0.1065204 3.9042111e-21)
(-0.026386433 0.11875709 -6.268327e-21)
(-0.030604897 0.13123878 1.6277755e-21)
(-0.035360598 0.14379421 -3.4466083e-21)
(-0.040715306 0.15621421 4.1145598e-21)
(-0.046734682 0.1682533 -2.6449395e-21)
(-0.053487506 0.17963562 4.0485637e-22)
(-0.061044668 0.19006694 1.6289101e-21)
(-0.069478067 0.19925414 -3.9000377e-21)
(-0.078859648 0.20693331 5.3572194e-21)
(-0.08926115 0.21290579 -5.6785104e-21)
(-0.10075421 0.21707918 -1.0173623e-21)
(-0.11341146 0.21950508 9.0245846e-21)
(-0.12732188 0.22039793 -8.8586452e-21)
(-0.14261582 0.22011536 5.4737536e-21)
(-0.15919934 0.21908139 -6.124694e-21)
(-0.17730492 0.21748489 -7.9858124e-22)
(-0.19716598 0.21532225 -5.5305398e-22)
(-0.21862508 0.21279619 2.366273e-21)
(-0.24182368 0.21004283 -3.2544771e-22)
(-0.2667961 0.20711723 1.005561e-20)
(-0.29356421 0.20400918 -2.6539054e-21)
(-0.32211261 0.20066133 -9.257627e-21)
(-0.35237108 0.19697397 4.4928718e-21)
(-0.38418945 0.19281034 -3.8474678e-21)
(-0.41731814 0.18800852 4.4799847e-21)
(-0.45139263 0.18239833 2.6695539e-20)
(-0.48592563 0.17583503 -1.5998288e-20)
(-0.52032006 0.16822945 -4.4803409e-21)
(-0.55389277 0.15958066 2.7426467e-20)
(-0.5859567 0.15001316 -1.0510084e-21)
(-0.61583256 0.13979549 -3.4421804e-21)
(-0.64278172 0.12919044 -4.6629391e-20)
(-0.66599577 0.11843163 -1.169892e-20)
(-0.68468931 0.1076659 1.9862177e-20)
(-0.69811968 0.096912824 2.1520071e-20)
(-0.70559367 0.086087972 3.2675282e-20)
(-0.7062957 0.074950854 4.3128368e-20)
(-0.69962695 0.063103626 2.7892974e-20)
(-0.68458339 0.050207081 4.4187632e-20)
(-0.66029831 0.035847198 -1.5606003e-20)
(-0.62480069 0.019895774 9.8699015e-20)
(-0.57697914 0.0015661692 7.0584732e-21)
(-0.51538092 -0.021064446 5.6440915e-21)
(-0.43705108 -0.050813919 3.7599727e-21)
(-0.33854212 -0.093292733 -1.1579592e-19)
(-0.20992223 -0.15692957 -3.9863884e-20)
(-0.029947807 -0.24237455 4.861542e-20)
(0.2053538 -0.31564111 3.8058631e-20)
(0.43608786 -0.33590113 5.048382e-21)
(0.62860585 -0.30708591 -1.6256175e-21)
(0.76533863 -0.24869986 1.1236666e-20)
(0.85279137 -0.18414749 -3.1653542e-21)
(-0.0005643122 0.002997411 3.4349264e-22)
(-0.0017547043 0.0092402535 1.0917624e-21)
(-0.0030811265 0.016079286 -2.6352369e-21)
(-0.0045584209 0.023552205 9.6909897e-23)
(-0.0062024953 0.031694865 1.2822617e-21)
(-0.0080311852 0.040539631 5.6570136e-22)
(-0.010064309 0.050113524 4.1780897e-22)
(-0.012323605 0.060435904 -8.2238086e-22)
(-0.014832947 0.071515588 4.255918e-21)
(-0.017618465 0.083347408 -3.203567e-21)
(-0.020708683 0.095908164 1.5669877e-22)
(-0.024134624 0.109152 1.9342525e-21)
(-0.027929886 0.12300528 -7.2085288e-21)
(-0.0321307 0.13736127 7.1555995e-21)
(-0.03677593 0.15207483 -9.4101041e-22)
(-0.041907052 0.16695796 -5.8260353e-21)
(-0.047568081 0.18177705 5.4245784e-21)
(-0.053805489 0.19625308 -1.8597321e-21)
(-0.060668123 0.21006666 3.5869957e-21)
(-0.068207202 0.22286971 -4.5235518e-21)
(-0.076476482 0.23430608 -8.3284424e-21)
(-0.08553275 0.24404256 8.0223527e-21)
(-0.095436958 0.25181047 1.1506583e-20)
(-0.10625597 0.25745513 -2.1452411e-20)
(-0.11806403 0.26098479 1.6600619e-20)
(-0.1309499 0.26260179 -9.3138016e-21)
(-0.14504268 0.26269144 2.2387891e-21)
(-0.16036911 0.26177752 -5.3165601e-21)
(-0.17702314 0.26028159 5.1129765e-21)
(-0.19521182 0.25804023 7.2376022e-21)
(-0.21494202 0.25526333 -4.6890706e-21)
(-0.23621573 0.25216324 -8.5084255e-21)
(-0.25908464 0.24880788 6.2412711e-22)
(-0.28353893 0.24519798 2.3984107e-22)
(-0.30952807 0.2412622 6.1353265e-21)
(-0.33693797 0.2368727 -2.909594e-21)
(-0.36556933 0.23185751 -1.1405396e-20)
(-0.39511968 0.22601864 -6.5236595e-21)
(-0.42517304 0.21915742 1.0328963e-20)
(-0.45520328 0.21111556 -8.3420117e-21)
(-0.48460126 0.20181593 8.2890474e-21)
(-0.5127115 0.19129807 -2.3061009e-21)
(-0.53890299 0.1797422 -1.2136758e-20)
(-0.5625191 0.16743027 3.1828415e-20)
(-0.5828454 0.1546474 2.028444e-20)
(-0.59913981 0.14165665 1.4334688e-20)
(-0.61068366 0.12864338 -5.0239338e-20)
(-0.61677196 0.11563231 -3.4526984e-20)
(-0.61667349 0.10252156 -4.3133687e-20)
(-0.60962216 0.089153591 -7.9639998e-20)
(-0.59473555 0.07521562 2.9581149e-20)
(-0.57104739 0.060123671 -6.0027531e-21)
(-0.53755311 0.043390347 -5.1598961e-20)
(-0.49308111 0.02477693 -1.5422502e-19)
(-0.4357982 0.0036238633 -1.0228323e-19)
(-0.36435533 -0.02214998 -3.9999985e-20)
(-0.27574129 -0.055588065 -1.1303703e-19)
(-0.16709407 -0.10334359 7.282715e-20)
(-0.027119188 -0.17703719 -8.6771084e-21)
(0.16713984 -0.2763611 -8.1183514e-20)
(0.398847 -0.35726586 -3.084325e-20)
(0.60506896 -0.37332987 4.1766572e-22)
(0.75612069 -0.33577117 -2.2580507e-21)
(0.84780772 -0.26771947 -1.0778545e-21)
(0.89638397 -0.19628869 -1.2170032e-21)
(-0.00072004751 0.0032738249 1.4908211e-21)
(-0.0022316637 0.010098013 -1.0054266e-21)
(-0.0039051988 0.01758127 1.3580656e-21)
(-0.0057559537 0.025767513 7.7212292e-22)
(-0.0078000312 0.034699267 -2.153124e-21)
(-0.010054846 0.044416034 -2.009959e-21)
(-0.012539057 0.054952372 2.060289e-21)
(-0.015272393 0.066335495 -2.488987e-22)
(-0.018275651 0.078582245 -5.7511998e-23)
(-0.021570601 0.09169543 -4.0700364e-21)
(-0.025179887 0.10565944 4.4150642e-22)
(-0.029126885 0.12043517 8.1660805e-21)
(-0.033435551 0.1359542 -6.5093468e-21)
(-0.038130261 0.15211259 2.2110739e-22)
(-0.043235675 0.16876443 4.3191855e-21)
(-0.048776661 0.18571586 3.6656123e-22)
(-0.054778335 0.20272055 -9.2680611e-22)
(-0.061266298 0.21947793 -4.1266509e-21)
(-0.068267151 0.23563617 7.4679412e-21)
(-0.075809427 0.25080227 -1.2932734e-20)
(-0.083925042 0.26456184 2.7128397e-21)
(-0.092651394 0.27651121 -1.9792255e-21)
(-0.10203421 0.28630275 1.5237788e-21)
(-0.11213122 0.29370174 -1.1347556e-22)
(-0.12301561 0.29864732 8.7372543e-21)
(-0.13477787 0.30130053 8.4026772e-21)
(-0.14753462 0.30205123 -1.6037194e-20)
(-0.16143208 0.30145759 -2.6659056e-21)
(-0.17640467 0.30007596 8.6811868e-21)
(-0.19266622 0.29801464 3.0459955e-21)
(-0.21042086 0.29520033 7.5441468e-21)
(-0.22950968 0.29188856 -8.3431646e-21)
(-0.24999562 0.28822184 -3.8913402e-21)
(-0.27183426 0.28420806 9.1787945e-21)
(-0.2949406 0.27976956 -3.9691198e-21)
(-0.31916126 0.27475454 -2.7735852e-21)
(-0.3442541 0.26895864 5.9590855e-21)
(-0.36987403 0.262152 1.8045409e-20)
(-0.39557018 0.25411482 6.3534454e-21)
(-0.42080267 0.24468734 -4.1038192e-21)
(-0.44497977 0.2338168 -1.0902577e-20)
(-0.46750179 0.22158685 -1.2659379e-20)
(-0.48778265 0.20821675 -1.5246223e-20)
(-0.50519996 0.19399321 -3.4422504e-20)
(-0.5190647 0.17921793 1.5899228e-21)
(-0.52867564 0.16419005 -1.61644e-20)
(-0.53336498 0.14913478 1.0211768e-19)
(-0.5324734 0.13409172 3.0417606e-20)
(-0.52529177 0.11894212 3.6162353e-20)
(-0.5110321 0.10345657 1.067769e-19)
(-0.48879124 0.087312343 -1.3169313e-19)
(-0.45765361 0.070037671 3.0555276e-20)
(-0.41605419 0.051026858 1.0104512e-19)
(-0.36297027 0.029837813 1.2606614e-19)
(-0.29698655 0.005954725 1.5788368e-20)
(-0.21618085 -0.022825841 -4.1548789e-20)
(-0.11753318 -0.059694972 -6.511662e-20)
(0.001795017 -0.11246725 2.7207882e-20)
(0.15714134 -0.19582399 -4.3496374e-20)
(0.36647448 -0.30481882 2.4097316e-20)
(0.58899259 -0.38868367 5.3830535e-21)
(0.76039611 -0.39786139 6.0975236e-21)
(0.86260708 -0.35092911 2.6772848e-22)
(0.90847852 -0.27634811 -2.0843273e-21)
(0.9234265 -0.20181499 7.0783508e-21)
(-0.00086932578 0.0034409311 -1.5306459e-21)
(-0.0026892069 0.010620458 -4.100146e-22)
(-0.0046962233 0.018502496 4.5004628e-22)
(-0.0069062565 0.027136544 2.2119116e-21)
(-0.0093357752 0.036571413 -2.6514665e-21)
(-0.012002 0.0468537 2.2495495e-21)
(-0.014922723 0.058025943 1.0748911e-21)
(-0.018116035 0.070124251 -5.724497e-23)
(-0.02160011 0.083175306 -9.0369227e-22)
(-0.025392903 0.097192657 -5.1306075e-21)
(-0.029511806 0.11217222 8.5890074e-21)
(-0.033973249 0.12808689 -1.0281583e-20)
(-0.038792285 0.14488036 3.0028121e-21)
(-0.04398217 0.16246008 4.0547474e-21)
(-0.049554003 0.18068977 -6.1699427e-21)
(-0.055516485 0.1993819 1.2049909e-20)
(-0.061875925 0.21829115 -1.4447047e-20)
(-0.068636599 0.23711001 -2.3150549e-22)
(-0.075801668 0.25546878 -8.0427831e-21)
(-0.083374826 0.27294249 3.1277677e-20)
(-0.091362885 0.28906791 -7.3980472e-21)
(-0.099779431 0.30337416 -2.998259e-20)
(-0.10864956 0.31542912 1.3733178e-20)
(-0.11801549 0.3249014 1.5963494e-20)
(-0.12794225 0.33163178 -3.8347627e-21)
(-0.13852049 0.3356982 -1.9776719e-20)
(-0.14986391 0.33744354 2.8689258e-20)
(-0.1621111 0.33742676 -3.0824305e-20)
(-0.17534599 0.336296 2.3541164e-20)
(-0.1895894 0.33452762 -4.4071391e-21)
(-0.20503101 0.33201631 7.9154986e-21)
(-0.22173128 0.32872454 1.168461e-20)
(-0.239586 0.32489248 -4.2017886e-21)
(-0.25856808 0.3205994 -8.7544877e-22)
(-0.27854029 0.31577574 -1.856779e-20)
(-0.29931314 0.31025058 3.2941907e-21)
(-0.32060922 0.30379046 -1.0390324e-20)
(-0.34205231 0.29613809 1.0187733e-20)
(-0.36317587 0.28706053 -5.2313021e-21)
(-0.38345254 0.2764077 -4.4395374e-21)
(-0.4023347 0.26415787 -4.3401135e-21)
(-0.41928721 0.25043059 -4.2058156e-21)
(-0.43376852 0.23546287 2.8839195e-20)
(-0.44518002 0.21953981 2.5739816e-20)
(-0.4528408 0.20297255 -6.8904136e-21)
(-0.45605265 0.18610522 5.706699e-21)
(-0.4541874 0.16921246 -2.254599e-20)
(-0.44662899 0.15234489 5.004773e-20)
(-0.43268898 0.13536454 6.2074786e-20)
(-0.4115728 0.11801179 1.9388608e-20)
(-0.38237114 0.099907557 5.1834374e-20)
(-0.34397666 0.080439159 -1.7725637e-21)
(-0.29510027 0.059086504 -2.6432966e-20)
(-0.23379452 0.035520111 -1.3267876e-19)
(-0.15970985 0.0089264676 6.7069703e-20)
(-0.069829626 -0.02285461 -2.7892532e-20)
(0.03849421 -0.062990025 7.4794505e-20)
(0.16884855 -0.12119375 -1.1819673e-19)
(0.3423398 -0.21327876 5.8564865e-20)
(0.56449013 -0.32764485 -1.5790746e-20)
(0.7670315 -0.40758854 1.2151676e-21)
(0.89442768 -0.4065781 -2.12193e-21)
(0.94595276 -0.35412393 -4.6534012e-21)
(0.9497789 -0.27652032 -4.4339227e-21)
(0.9398854 -0.20242912 7.2742907e-21)
(-0.0010005667 0.0034926908 3.7045567e-21)
(-0.0030918805 0.010788573 2.5475809e-21)
(-0.0053929427 0.018809187 -3.9978217e-21)
(-0.0079202959 0.027608712 1.0523183e-22)
(-0.010690935 0.03724154 3.6110831e-21)
(-0.013722145 0.047760981 1.8872797e-21)
(-0.017031228 0.059217593 -3.9726831e-21)
(-0.020635161 0.071656989 6.5224633e-22)
(-0.024550183 0.085117023 -9.1771491e-21)
(-0.028791309 0.099624249 1.784857e-21)
(-0.033371753 0.11518951 4.6661577e-23)
(-0.038302288 0.13180258 -6.5373392e-21)
(-0.043590544 0.14942572 2.0864894e-20)
(-0.0492403 0.16798623 -9.6785218e-21)
(-0.055250816 0.18736803 -1.7242725e-20)
(-0.061616326 0.20740282 1.8243878e-20)
(-0.06832581 0.22786127 -2.2417339e-21)
(-0.075363261 0.2484458 1.251671e-20)
(-0.082708684 0.26878671 9.1736574e-21)
(-0.090340136 0.2884445 -2.843064e-20)
(-0.098237094 0.30692207 2.0954919e-20)
(-0.10638541 0.32369091 -2.7055083e-20)
(-0.1147839 0.33823518 3.079683e-21)
(-0.12345216 0.35011529 -1.240157e-20)
(-0.13243868 0.35904736 2.6074617e-20)
(-0.14182671 0.36498488 -6.0145197e-21)
(-0.1517323 0.3681738 -1.4769732e-20)
(-0.1622913 0.36913716 3.4283827e-20)
(-0.17363741 0.36855987 -1.4229692e-20)
(-0.18583731 0.36707098 -1.5333484e-20)
(-0.19888226 0.36493243 1.2462473e-20)
(-0.21291977 0.36203913 1.8636436e-21)
(-0.2279764 0.35838381 -8.853725e-21)
(-0.2438762 0.35401768 4.9785263e-21)
(-0.26050955 0.34896067 -8.2323678e-21)
(-0.27765404 0.34307 3.0152023e-20)
(-0.29498997 0.33609563 -1.7134611e-20)
(-0.31211681 0.32776504 -1.1245623e-20)
(-0.32856922 0.31784308 -2.5282205e-20)
(-0.34385317 0.30619641 -4.6847176e-21)
(-0.35748124 0.29282987 2.9568549e-20)
(-0.36898022 0.27788063 -1.2642398e-20)
(-0.37784556 0.26157747 -1.9954273e-20)
(-0.38348936 0.2441821 -2.469949e-21)
(-0.38521771 0.22600213 2.4835718e-20)
(-0.38231484 0.20745604 2.330132e-20)
(-0.37416071 0.18891622 -7.6455681e-20)
(-0.36018849 0.17043038 -4.3274521e-20)
(-0.33971199 0.15182665 -1.0005959e-19)
(-0.31189798 0.13280917 -3.6871783e-20)
(-0.27578748 0.11296626 -1.5018088e-20)
(-0.2301693 0.091629784 -1.1761883e-19)
(-0.17363326 0.068091319 -4.7790349e-20)
(-0.10484684 0.042165222 1.6172748e-19)
(-0.022851726 0.012991372 -1.310725e-19)
(0.075946875 -0.021690761 1.175683e-19)
(0.19311197 -0.065158343 -5.4386826e-20)
(0.33564331 -0.12952712 2.4274627e-19)
(0.52969514 -0.2290304 1.0595499e-19)
(0.75678151 -0.34273241 -3.1901064e-20)
(0.92618625 -0.41514475 -3.0990544e-20)
(1.0006554 -0.4050034 -2.6097468e-20)
(1.0054643 -0.34606723 -4.5622979e-21)
(0.97645925 -0.27005248 5.8242775e-22)
(0.9516287 -0.19961456 -8.3164962e-21)
(-0.0011025933 0.0034289418 7.1866171e-23)
(-0.0034053793 0.010601201 -5.1202866e-21)
(-0.005935944 0.01849826 6.0331769e-21)
(-0.0087115025 0.027177776 2.9009974e-21)
(-0.011749678 0.036698667 -5.807069e-21)
(-0.015068056 0.047120131 -1.878809e-21)
(-0.018683851 0.058500257 9.1017189e-21)
(-0.022613514 0.070894129 -9.7798537e-21)
(-0.026872179 0.084351367 -2.0587464e-21)
(-0.031473017 0.098912943 -8.1696418e-21)
(-0.036426475 0.11460712 2.1636299e-20)
(-0.04173941 0.13144433 2.585645e-22)
(-0.047414125 0.14941091 -1.9265902e-20)
(-0.053447354 0.1684615 2.0566024e-20)
(-0.059829255 0.18851013 -1.4617297e-20)
(-0.066542516 0.20942023 -5.3741322e-21)
(-0.073561743 0.23099396 1.1118075e-20)
(-0.08085336 0.25296198 -9.904194e-21)
(-0.088376347 0.27497532 -1.3022925e-20)
(-0.09608419 0.29660205 2.7270884e-22)
(-0.10392851 0.31733259 1.980018e-20)
(-0.11186484 0.33659871 -1.2008399e-20)
(-0.11986066 0.35381124 6.5524412e-21)
(-0.12790562 0.36842059 3.0692333e-20)
(-0.13602249 0.37999968 1.0104981e-20)
(-0.14427651 0.38833968 -2.6303522e-20)
(-0.15277795 0.39353328 2.5736097e-21)
(-0.16166928 0.39600039 -2.7934384e-20)
(-0.17109456 0.39640531 1.5816245e-20)
(-0.18115471 0.39545908 -8.3790661e-21)
(-0.19188849 0.39367796 1.1888549e-20)
(-0.20329832 0.39122674 3.0378895e-21)
(-0.21535657 0.38796842 -1.5131362e-20)
(-0.22804099 0.38386416 1.5999847e-20)
(-0.24122903 0.37888702 2.5809999e-20)
(-0.25463951 0.37288151 -1.2521487e-21)
(-0.2679475 0.36560856 -3.0383509e-20)
(-0.28074397 0.35680782 4.1465385e-20)
(-0.29257793 0.34625901 -9.1274392e-21)
(-0.30299033 0.33385609 2.1891857e-20)
(-0.31153367 0.31963311 -4.0358294e-21)
(-0.31775641 0.30373772 3.9852752e-20)
(-0.32115815 0.28638147 2.0379409e-20)
(-0.32115778 0.26779914 2.9289347e-20)
(-0.31707186 0.24829509 -1.278211e-19)
(-0.3082537 0.22827604 -4.6569131e-20)
(-0.29397069 0.20825843 6.4929929e-20)
(-0.27371787 0.18835684 -5.655845e-20)
(-0.2467848 0.16833601 -5.0930386e-20)
(-0.21226799 0.1478592 6.0288241e-20)
(-0.16914857 0.12647486 3.3201867e-20)
(-0.11612068 0.10346979 8.1599184e-20)
(-0.051652541 0.078237996 4.0666724e-20)
(0.024294005 0.050209759 -1.3904117e-19)
(0.11439251 0.018548688 -7.7884035e-20)
(0.22163943 -0.018866806 -1.2409187e-20)
(0.34688436 -0.066036789 8.9700687e-23)
(0.50465233 -0.13728372 -5.9486644e-20)
(0.71903765 -0.24129973 7.357899e-20)
(0.93491887 -0.34907931 7.1793429e-20)
(1.059115 -0.40702281 1.3291461e-20)
(1.0786708 -0.39083943 5.4275851e-20)
(1.0440531 -0.33133599 1.7486886e-20)
(0.9941903 -0.2596077 2.1845434e-21)
(0.96260616 -0.19456916 1.2815104e-21)
(-0.0011654941 0.0032553828 -2.5905606e-21)
(-0.0035991831 0.010075122 -2.2926536e-21)
(-0.0062722149 0.017597629 4.7642919e-21)
(-0.0092023822 0.025882551 -8.1588389e-21)
(-0.012407936 0.034991897 -2.0386537e-21)
(-0.015906913 0.04498945 8.7313599e-21)
(-0.019716776 0.055939721 -4.4580104e-23)
(-0.023854018 0.067906471 5.2036452e-21)
(-0.028333507 0.080950744 -1.5505214e-21)
(-0.033167743 0.09512822 3.2555265e-23)
(-0.038365965 0.11048572 -8.3817657e-21)