/*--------------------------------*- C++ -*----------------------------------*\
  =========                 |
  \\      /  F ield         | OpenFOAM: The Open Source CFD Toolbox
   \\    /   O peration     | Website:  https://openfoam.org
    \\  /    A nd           | Version:  13
     \\/     M anipulation  |
\*---------------------------------------------------------------------------*/
FoamFile
{
    format      ascii;
    class       volScalarField;
    location    "23.503232";
    object      pPrime2Mean;
}
// * * * * * * * * * * * * * * * * * * * * * * * * * * * * * * * * * * * * * //

dimensions      [0 4 -4 0 0 0 0];

internalField   nonuniform List<scalar> 
17140
(
13248.964
13248.964
13248.964
13248.964
13248.963
13248.962
13248.96
13248.957
13248.953
13248.948
13248.941
13248.933
13248.921
13248.907
13248.889
13248.866
13248.837
13248.801
13248.755
13248.698
13248.626
13248.537
13248.424
13248.281
13248.102
13247.877
13247.592
13247.233
13246.779
13246.208
13245.489
13244.586
13243.454
13242.04
13240.28
13238.097
13235.399
13232.081
13228.017
13223.066
13217.063
13209.823
13201.137
13190.772
13178.464
13163.925
13146.835
13126.846
13103.578
13076.617
13045.513
13009.781
12968.895
12922.291
12869.358
12809.441
12741.831
12665.764
12580.411
12484.884
12378.205
12259.345
12127.127
11980.358
11817.658
13249.291
13249.291
13249.291
13249.291
13249.29
13249.288
13249.286
13249.283
13249.279
13249.274
13249.267
13249.259
13249.247
13249.233
13249.215
13249.192
13249.163
13249.126
13249.081
13249.024
13248.952
13248.862
13248.749
13248.607
13248.428
13248.203
13247.919
13247.561
13247.109
13246.539
13245.822
13244.92
13243.79
13242.378
13240.62
13238.438
13235.742
13232.425
13228.364
13223.415
13217.414
13210.178
13201.497
13191.136
13178.834
13164.302
13147.221
13127.242
13103.985
13077.036
13045.947
13010.232
12969.366
12922.783
12869.874
12809.985
12742.407
12666.376
12581.063
12485.58
12378.951
12260.148
12127.993
11981.293
11818.661
13250.098
13250.098
13250.098
13250.098
13250.097
13250.096
13250.093
13250.09
13250.087
13250.081
13250.074
13250.066
13250.054
13250.04
13250.022
13249.999
13249.97
13249.934
13249.889
13249.832
13249.761
13249.672
13249.559
13249.418
13249.241
13249.016
13248.734
13248.378
13247.928
13247.361
13246.646
13245.748
13244.621
13243.213
13241.458
13239.28
13236.587
13233.274
13229.217
13224.273
13218.28
13211.052
13202.381
13192.032
13179.746
13165.231
13148.171
13128.216
13104.987
13078.069
13047.016
13011.341
12970.522
12923.993
12871.146
12811.325
12743.825
12667.881
12582.666
12487.292
12380.785
12262.117
12130.112
11983.581
11821.115
13251.412
13251.412
13251.412
13251.412
13251.411
13251.409
13251.408
13251.405
13251.401
13251.396
13251.389
13251.38
13251.369
13251.355
13251.336
13251.314
13251.285
13251.25
13251.205
13251.149
13251.079
13250.99
13250.879
13250.739
13250.563
13250.341
13250.061
13249.708
13249.261
13248.698
13247.987
13247.094
13245.972
13244.568
13242.819
13240.646
13237.959
13234.652
13230.602
13225.667
13219.684
13212.47
13203.815
13193.487
13181.224
13166.738
13149.712
13129.796
13106.611
13079.744
13048.749
13013.141
12972.398
12925.957
12873.209
12813.502
12746.127
12670.326
12585.27
12490.073
12383.763
12265.312
12133.549
11987.291
11825.094
13253.259
13253.26
13253.259
13253.259
13253.258
13253.257
13253.255
13253.252
13253.248
13253.243
13253.236
13253.227
13253.216
13253.202
13253.184
13253.162
13253.134
13253.098
13253.054
13252.999
13252.929
13252.842
13252.732
13252.594
13252.42
13252.201
13251.923
13251.573
13251.131
13250.572
13249.867
13248.979
13247.864
13246.467
13244.724
13242.558
13239.878
13236.58
13232.541
13227.619
13221.652
13214.457
13205.825
13195.525
13183.296
13168.85
13151.871
13132.01
13108.887
13082.091
13051.177
13015.664
12975.028
12928.71
12876.102
12816.552
12749.355
12673.754
12588.92
12493.972
12387.937
12269.792
12138.369
11992.493
11830.676
13255.661
13255.662
13255.662
13255.661
13255.66
13255.659
13255.657
13255.654
13255.65
13255.645
13255.638
13255.629
13255.618
13255.604
13255.587
13255.565
13255.537
13255.502
13255.459
13255.404
13255.335
13255.249
13255.141
13255.005
13254.833
13254.617
13254.343
13253.997
13253.56
13253.007
13252.308
13251.427
13250.32
13248.931
13247.196
13245.039
13242.37
13239.084
13235.058
13230.153
13224.207
13217.038
13208.436
13198.172
13185.987
13171.594
13154.675
13134.884
13111.842
13085.139
13054.332
13018.94
12978.446
12932.287
12879.861
12820.516
12753.551
12678.209
12593.665
12499.04
12393.364
12275.617
12144.637
11999.259
11837.94
13258.642
13258.642
13258.642
13258.642
13258.641
13258.639
13258.637
13258.634
13258.63
13258.625
13258.618
13258.61
13258.598
13258.585
13258.567
13258.546
13258.518
13258.484
13258.441
13258.387
13258.32
13258.235
13258.129
13257.995
13257.826
13257.613
13257.344
13257.003
13256.572
13256.025
13255.334
13254.462
13253.362
13251.983
13250.258
13248.113
13245.457
13242.186
13238.179
13233.296
13227.376
13220.237
13211.674
13201.456
13189.325
13174.996
13158.152
13138.447
13115.506
13088.918
13058.243
13023.005
12982.685
12936.725
12884.524
12825.435
12758.757
12683.737
12599.553
12505.329
12400.098
12282.846
12152.418
12007.662
11846.968
13262.227
13262.227
13262.226
13262.226
13262.225
13262.224
13262.221
13262.218
13262.214
13262.209
13262.202
13262.194
13262.183
13262.169
13262.152
13262.131
13262.104
13262.07
13262.028
13261.976
13261.91
13261.826
13261.722
13261.591
13261.426
13261.216
13260.952
13260.616
13260.192
13259.653
13258.971
13258.107
13257.018
13255.65
13253.937
13251.805
13249.165
13245.913
13241.928
13237.071
13231.183
13224.082
13215.564
13205.401
13193.335
13179.083
13162.329
13142.729
13119.908
13093.46
13062.945
13027.891
12987.781
12942.062
12890.132
12831.349
12765.016
12690.384
12606.633
12512.892
12408.199
12291.543
12161.781
12017.774
11857.841
13266.445
13266.445
13266.445
13266.445
13266.444
13266.442
13266.439
13266.436
13266.432
13266.427
13266.42
13266.412
13266.401
13266.388
13266.371
13266.35
13266.324
13266.291
13266.25
13266.198
13266.134
13266.053
13265.951
13265.823
13265.661
13265.456
13265.196
13264.867
13264.449
13263.918
13263.244
13262.391
13261.313
13259.956
13258.258
13256.142
13253.52
13250.29
13246.331
13241.505
13235.654
13228.598
13220.134
13210.034
13198.045
13183.883
13167.235
13147.758
13125.079
13098.795
13068.471
13033.634
12993.773
12948.335
12896.725
12838.303
12772.376
12698.199
12614.957
12521.784
12417.723
12301.77
12172.792
12029.673
11870.643
13271.33
13271.33
13271.33
13271.329
13271.328
13271.326
13271.324
13271.321
13271.317
13271.312
13271.305
13271.296
13271.286
13271.273
13271.256
13271.236
13271.21
13271.178
13271.138
13271.088
13271.025
13270.946
13270.846
13270.721
13270.562
13270.362
13270.108
13269.785
13269.373
13268.85
13268.185
13267.341
13266.275
13264.931
13263.248
13261.149
13258.549
13255.343
13251.414
13246.623
13240.815
13233.81
13225.408
13215.383
13203.482
13189.424
13172.897
13153.562
13131.048
13104.956
13074.851
13040.266
13000.693
12955.582
12904.342
12846.337
12780.88
12707.23
12624.577
12532.061
12428.733
12313.595
12185.529
12043.44
11885.463
13276.915
13276.915
13276.915
13276.914
13276.912
13276.911
13276.908
13276.905
13276.901
13276.896
13276.889
13276.881
13276.871
13276.858
13276.842
13276.821
13276.797
13276.765
13276.726
13276.677
13276.615
13276.538
13276.441
13276.319
13276.164
13275.967
13275.717
13275.399
13274.994
13274.477
13273.821
13272.987
13271.932
13270.601
13268.934
13266.855
13264.277
13261.099
13257.203
13252.453
13246.692
13239.746
13231.414
13221.474
13209.673
13195.732
13179.343
13160.17
13137.846
13111.972
13082.12
13047.824
13008.579
12963.842
12913.025
12855.497
12790.577
12717.528
12635.548
12543.784
12441.294
12327.088
12200.064
12059.156
11902.388
13283.231
13283.231
13283.23
13283.229
13283.228
13283.226
13283.224
13283.221
13283.216
13283.211
13283.205
13283.197
13283.187
13283.174
13283.158
13283.138
13283.114
13283.083
13283.044
13282.996
13282.936
13282.86
13282.765
13282.645
13282.493
13282.299
13282.053
13281.74
13281.34
13280.83
13280.18
13279.355
13278.311
13276.994
13275.344
13273.286
13270.733
13267.585
13263.725
13259.019
13253.313
13246.433
13238.18
13228.334
13216.644
13202.836
13186.603
13167.613
13145.502
13119.876
13090.31
13056.341
13017.47
12973.155
12922.817
12865.829
12801.516
12729.147
12647.928
12557.012
12455.468
12342.317
12216.475
12076.905
11921.508
13290.304
13290.304
13290.304
13290.303
13290.301
13290.299
13290.297
13290.294
13290.289
13290.285
13290.278
13290.27
13290.26
13290.247
13290.231
13290.212
13290.188
13290.158
13290.12
13290.073
13290.013
13289.939
13289.845
13289.726
13289.576
13289.385
13289.142
13288.832
13288.436
13287.932
13287.289
13286.473
13285.44
13284.137
13282.505
13280.468
13277.942
13274.827
13271.007
13266.351
13260.704
13253.897
13245.732
13235.991
13224.426
13210.765
13194.707
13175.921
13154.049
13128.702
13099.457
13065.856
13027.404
12983.564
12933.762
12877.38
12813.746
12742.138
12661.77
12571.805
12471.323
12359.359
12234.842
12096.773
11942.913
13298.159
13298.159
13298.158
13298.157
13298.155
13298.154
13298.151
13298.148
13298.144
13298.139
13298.132
13298.124
13298.114
13298.102
13298.086
13298.067
13298.043
13298.013
13297.976
13297.929
13297.871
13297.797
13297.705
13297.587
13297.438
13297.249
13297.008
13296.701
13296.309
13295.81
13295.173
13294.366
13293.344
13292.056
13290.442
13288.429
13285.932
13282.852
13279.076
13274.474
13268.894
13262.167
13254.1
13244.474
13233.047
13219.55
13203.685
13185.128
13163.523
13138.487
13109.599
13076.408
13038.421
12995.11
12945.906
12890.196
12827.318
12756.556
12677.136
12588.23
12488.931
12378.285
12255.244
12118.843
11966.693
13306.817
13306.816
13306.816
13306.815
13306.813
13306.811
13306.809
13306.806
13306.802
13306.797
13306.79
13306.782
13306.772
13306.76
13306.745
13306.726
13306.702
13306.673
13306.636
13306.589
13306.531
13306.458
13306.366
13306.25
13306.102
13305.915
13305.675
13305.371
13304.982
13304.487
13303.858
13303.059
13302.049
13300.778
13299.183
13297.194
13294.728
13291.687
13287.96
13283.417
13277.91
13271.271
13263.311
13253.813
13242.539
13229.223
13213.573
13195.268
13173.96
13149.266
13120.775
13088.036
13050.564
13007.838
12959.294
12904.328
12842.284
12772.458
12694.085
12606.351
12508.36
12399.173
12277.761
12143.201
11992.934
13316.303
13316.302
13316.302
13316.301
13316.299
13316.297
13316.295
13316.292
13316.288
13316.283
13316.277
13316.269
13316.259
13316.247
13316.232
13316.213
13316.189
13316.16
13316.123
13316.077
13316.02
13315.947
13315.856
13315.74
13315.594
13315.407
13315.17
13314.867
13314.483
13313.993
13313.37
13312.581
13311.584
13310.328
13308.755
13306.793
13304.361
13301.362
13297.686
13293.208
13287.781
13281.24
13273.397
13264.04
13252.934
13239.818
13224.404
13206.378
13185.395
13161.08
13133.024
13100.782
13063.877
13021.793
12973.974
12919.824
12858.698
12789.901
12712.68
12626.235
12529.683
12422.095
12302.469
12169.928
12021.725
13326.647
13326.647
13326.646
13326.646
13326.644
13326.642
13326.64
13326.637
13326.633
13326.628
13326.622
13326.614
13326.604
13326.592
13326.577
13326.558
13326.535
13326.506
13326.469
13326.424
13326.366
13326.294
13326.203
13326.088
13325.942
13325.756
13325.521
13325.221
13324.839
13324.355
13323.74
13322.961
13321.977
13320.739
13319.188
13317.254
13314.857
13311.904
13308.286
13303.878
13298.538
13292.103
13284.388
13275.186
13264.265
13251.368
13236.215
13218.495
13197.869
13173.967
13146.386
13114.689
13078.403
13037.021
12989.995
12936.737
12876.615
12808.944
12732.984
12647.948
12552.967
12447.126
12329.445
12199.106
12053.15
13337.883
13337.883
13337.882
13337.882
13337.88
13337.878
13337.876
13337.873
13337.869
13337.864
13337.858
13337.85
13337.84
13337.828
13337.813
13337.794
13337.771
13337.742
13337.706
13337.66
13337.603
13337.53
13337.44
13337.325
13337.179
13336.995
13336.761
13336.463
13336.085
13335.605
13334.997
13334.228
13333.258
13332.038
13330.51
13328.607
13326.249
13323.345
13319.788
13315.457
13310.212
13303.893
13296.318
13287.284
13276.565
13263.909
13249.04
13231.654
13211.417
13187.966
13160.903
13129.798
13094.186
13053.567
13007.404
12955.119
12896.088
12829.644
12755.059
12671.555
12578.281
12474.335
12358.766
12230.815
12087.294
13350.044
13350.044
13350.043
13350.042
13350.041
13350.039
13350.037
13350.034
13350.03
13350.025
13350.019
13350.011
13350.001
13349.99
13349.974
13349.955
13349.932
13349.903
13349.866
13349.82
13349.762
13349.69
13349.599
13349.484
13349.338
13349.154
13348.921
13348.626
13348.251
13347.777
13347.176
13346.416
13345.46
13344.258
13342.755
13340.884
13338.567
13335.716
13332.226
13327.978
13322.835
13316.641
13309.219
13300.369
13289.869
13277.475
13262.916
13245.892
13226.078
13203.115
13176.614
13146.151
13111.27
13071.479
13026.251
12975.018
12917.174
12852.063
12778.964
12697.12
12605.689
12503.791
12390.503
12265.133
12124.238
13363.157
13363.157
13363.156
13363.155
13363.154
13363.152
13363.15
13363.147
13363.143
13363.138
13363.132
13363.124
13363.114
13363.102
13363.087
13363.067
13363.044
13363.014
13362.977
13362.93
13362.872
13362.8
13362.708
13362.593
13362.448
13362.264
13362.032
13361.739
13361.368
13360.898
13360.305
13359.556
13358.613
13357.43
13355.953
13354.116
13351.844
13349.049
13345.631
13341.472
13336.44
13330.381
13323.123
13314.472
13304.211
13292.101
13277.877
13261.246
13241.889
13219.454
13193.56
13163.791
13129.699
13090.8
13046.58
12996.488
12939.928
12876.253
12804.761
12724.701
12635.256
12535.562
12424.73
12302.136
12164.063
13377.241
13377.241
13377.241
13377.24
13377.239
13377.237
13377.235
13377.231
13377.228
13377.223
13377.216
13377.209
13377.199
13377.186
13377.171
13377.151
13377.127
13377.097
13377.06
13377.013
13376.955
13376.882
13376.79
13376.675
13376.531
13376.348
13376.118
13375.828
13375.461
13374.997
13374.412
13373.675
13372.748
13371.586
13370.136
13368.335
13366.11
13363.377
13360.035
13355.972
13351.058
13345.145
13338.065
13329.629
13319.626
13307.822
13293.96
13277.752
13258.887
13237.021
13211.78
13182.757
13149.511
13111.572
13068.441
13019.579
12964.399
12902.271
12832.502
12754.36
12667.044
12569.715
12461.517
12341.9
12206.845
13392.309
13392.309
13392.308
13392.308
13392.306
13392.305
13392.303
13392.299
13392.296
13392.291
13392.285
13392.276
13392.267
13392.255
13392.239
13392.22
13392.196
13392.166
13392.129
13392.082
13392.025
13391.952
13391.861
13391.747
13391.605
13391.424
13391.198
13390.912
13390.551
13390.095
13389.521
13388.798
13387.889
13386.751
13385.332
13383.572
13381.399
13378.731
13375.471
13371.511
13366.725
13360.968
13354.078
13345.873
13336.147
13324.674
13311.199
13295.446
13277.11
13255.853
13231.311
13203.085
13170.745
13133.84
13091.88
13044.339
12990.64
12930.169
12862.244
12786.153
12701.116
12606.316
12500.931
12384.495
12252.658
13408.368
13408.368
13408.368
13408.368
13408.366
13408.365
13408.362
13408.36
13408.356
13408.351
13408.345
13408.338
13408.328
13408.316
13408.301
13408.283
13408.259
13408.23
13408.194
13408.149
13408.093
13408.022
13407.934
13407.823
13407.683
13407.508
13407.286
13407.007
13406.655
13406.211
13405.65
13404.944
13404.058
13402.949
13401.567
13399.852
13397.737
13395.14
13391.97
13388.121
13383.471
13377.881
13371.197
13363.239
13353.81
13342.689
13329.631
13314.365
13296.592
13275.984
13252.185
13224.809
13193.443
13157.645
13116.943
13070.812
13018.7
12959.995
12894.039
12820.138
12737.532
12645.425
12543.038
12429.992
12301.569
13425.433
13425.433
13425.432
13425.432
13425.431
13425.429
13425.427
13425.425
13425.421
13425.417
13425.411
13425.404
13425.395
13425.384
13425.37
13425.353
13425.331
13425.303
13425.27
13425.227
13425.173
13425.106
13425.021
13424.915
13424.781
13424.612
13424.399
13424.13
13423.789
13423.359
13422.816
13422.132
13421.274
13420.199
13418.859
13417.197
13415.147
13412.63
13409.558
13405.829
13401.326
13395.918
13389.452
13381.759
13372.647
13361.902
13349.287
13334.537
13317.36
13297.44
13274.432
13247.966
13217.641
13183.031
13143.666
13099.047
13048.62
12991.798
12927.94
12856.369
12776.349
12687.106
12587.901
12478.456
12353.644
13443.522
13443.522
13443.522
13443.521
13443.521
13443.519
13443.518
13443.515
13443.512
13443.508
13443.503
13443.497
13443.489
13443.479
13443.466
13443.45
13443.43
13443.405
13443.374
13443.334
13443.285
13443.222
13443.143
13443.043
13442.916
13442.756
13442.553
13442.296
13441.969
13441.556
13441.035
13440.377
13439.55
13438.515
13437.224
13435.623
13433.646
13431.219
13428.256
13424.659
13420.316
13415.101
13408.87
13401.459
13392.685
13382.339
13370.191
13355.984
13339.438
13320.249
13298.085
13272.591
13243.378
13210.029
13172.093
13129.076
13080.444
13025.624
12963.994
12894.9
12817.623
12731.415
12635.58
12529.952
12408.946
13462.667
13462.667
13462.666
13462.666
13462.665
13462.664
13462.663
13462.661
13462.658
13462.655
13462.65
13462.645
13462.638
13462.629
13462.618
13462.603
13462.585
13462.563
13462.534
13462.499
13462.453
13462.395
13462.322
13462.229
13462.111
13461.96
13461.768
13461.524
13461.214
13460.821
13460.323
13459.694
13458.904
13457.913
13456.677
13455.143
13453.248
13450.92
13448.076
13444.624
13440.455
13435.45
13429.471
13422.361
13413.942
13404.016
13392.359
13378.727
13362.85
13344.439
13323.177
13298.714
13270.683
13238.675
13202.253
13160.938
13114.212
13061.518
13002.252
12935.78
12861.41
12778.411
12686.133
12584.541
12467.535
13482.898
13482.898
13482.898
13482.897
13482.897
13482.896
13482.895
13482.893
13482.891
13482.888
13482.884
13482.879
13482.873
13482.865
13482.855
13482.842
13482.826
13482.806
13482.779
13482.747
13482.705
13482.652
13482.584
13482.498
13482.387
13482.246
13482.065
13481.835
13481.541
13481.169
13480.696
13480.099
13479.348
13478.406
13477.229
13475.769
13473.963
13471.743
13469.03
13465.734
13461.753
13456.973
13451.262
13444.47
13436.428
13426.945
13415.809
13402.785
13387.62
13370.037
13349.726
13326.36
13299.58
13268.996
13234.179
13194.668
13149.962
13099.52
13042.757
12979.061
12907.76
12828.146
12739.614
12642.282
12529.471
13504.241
13504.241
13504.241
13504.24
13504.24
13504.239
13504.238
13504.236
13504.234
13504.232
13504.228
13504.224
13504.218
13504.211
13504.201
13504.19
13504.175
13504.156
13504.131
13504.101
13504.062
13504.012
13503.949
13503.868
13503.763
13503.631
13503.46
13503.243
13502.966
13502.615
13502.169
13501.605
13500.896
13500.006
13498.894
13497.512
13495.802
13493.698
13491.125
13487.996
13484.216
13479.675
13474.248
13467.793
13460.15
13451.137
13440.553
13428.176
13413.766
13397.056
13377.755
13355.551
13330.096
13301.016
13267.899
13230.298
13187.729
13139.67
13085.554
13024.789
12956.725
12880.674
12796.078
12703.23
12594.819
13526.706
13526.706
13526.706
13526.706
13526.706
13526.705
13526.704
13526.702
13526.7
13526.697
13526.694
13526.69
13526.684
13526.677
13526.668
13526.656
13526.642
13526.624
13526.601
13526.571
13526.534
13526.487
13526.426
13526.349
13526.25
13526.125
13525.964
13525.759
13525.499
13525.169
13524.751
13524.223
13523.558
13522.723
13521.679
13520.38
13518.771
13516.789
13514.363
13511.412
13507.844
13503.557
13498.432
13492.337
13485.117
13476.602
13466.603
13454.911
13441.298
13425.512
13407.281
13386.303
13362.248
13334.758
13303.437
13267.856
13227.547
13182.006
13130.685
13073.01
13008.354
12936.048
12855.581
12767.439
12663.648
13550.289
13550.289
13550.288
13550.288
13550.288
13550.287
13550.286
13550.284
13550.282
13550.279
13550.276
13550.272
13550.266
13550.259
13550.25
13550.238
13550.224
13550.206
13550.184
13550.155
13550.119
13550.073
13550.015
13549.941
13549.848
13549.729
13549.578
13549.386
13549.143
13548.835
13548.446
13547.955
13547.336
13546.559
13545.586
13544.374
13542.87
13541.016
13538.745
13535.981
13532.639
13528.621
13523.817
13518.101
13511.331
13503.343
13493.963
13482.995
13470.224
13455.416
13438.312
13418.628
13396.051
13370.239
13340.815
13307.366
13269.443
13226.561
13178.189
13123.771
13062.698
12994.321
12918.182
12834.983
12736.027
13574.972
13574.972
13574.972
13574.972
13574.971
13574.971
13574.969
13574.968
13574.966
13574.963
13574.959
13574.955
13574.949
13574.942
13574.933
13574.922
13574.908
13574.89
13574.868
13574.841
13574.806
13574.762
13574.707
13574.637
13574.549
13574.438
13574.297
13574.12
13573.895
13573.611
13573.252
13572.8
13572.23
13571.513
13570.614
13569.492
13568.099
13566.379
13564.27
13561.703
13558.598
13554.865
13550.4
13545.087
13538.79
13531.36
13522.633
13512.43
13500.547
13486.769
13470.854
13452.534
13431.515
13407.472
13380.047
13348.848
13313.443
13273.367
13228.104
13177.115
13119.81
13055.553
12983.948
12905.946
12812.04
13600.74
13600.74
13600.74
13600.74
13600.74
13600.739
13600.737
13600.736
13600.734
13600.731
13600.728
13600.724
13600.718
13600.711
13600.703
13600.693
13600.679
13600.662
13600.642
13600.616
13600.583
13600.542
13600.491
13600.427
13600.345
13600.243
13600.114
13599.952
13599.748
13599.49
13599.164
13598.753
13598.234
13597.58
13596.758
13595.73
13594.451
13592.871
13590.932
13588.572
13585.717
13582.283
13578.176
13573.286
13567.489
13560.647
13552.61
13543.209
13532.264
13519.571
13504.907
13488.023
13468.643
13446.463
13421.145
13392.317
13359.567
13322.449
13280.464
13233.091
13179.749
13119.809
13052.931
12980.339
12891.881
13627.578
13627.578
13627.577
13627.577
13627.577
13627.576
13627.575
13627.573
13627.572
13627.569
13627.566
13627.563
13627.558
13627.551
13627.544
13627.535
13627.523
13627.508
13627.489
13627.466
13627.437
13627.4
13627.355
13627.297
13627.225
13627.134
13627.02
13626.876
13626.694
13626.464
13626.173
13625.805
13625.339
13624.75
13624.007
13623.076
13621.916
13620.482
13618.722
13616.578
13613.985
13610.866
13607.135
13602.69
13597.418
13591.194
13583.88
13575.326
13565.365
13553.813
13540.465
13525.09
13507.434
13487.213
13464.111
13437.78
13407.829
13373.83
13335.304
13291.742
13242.578
13187.162
13125.158
13058.356
12975.606
13655.474
13655.474
13655.474
13655.474
13655.473
13655.473
13655.472
13655.471
13655.469
13655.467
13655.465
13655.462
13655.458
13655.453
13655.446
13655.439
13655.429
13655.417
13655.401
13655.382
13655.358
13655.327
13655.288
13655.239
13655.178
13655.1
13655.002
13654.878
13654.72
13654.52
13654.266
13653.943
13653.531
13653.008
13652.346
13651.515
13650.478
13649.196
13647.622
13645.706
13643.388
13640.599
13637.26
13633.28
13628.558
13622.982
13616.428
13608.761
13599.834
13589.48
13577.512
13563.722
13547.876
13529.713
13508.942
13485.239
13458.236
13427.527
13392.652
13353.117
13308.353
13257.651
13200.757
13140.081
13063.306
13684.42
13684.42
13684.42
13684.42
13684.419
13684.419
13684.418
13684.417
13684.416
13684.415
13684.413
13684.411
13684.408
13684.404
13684.4
13684.394
13684.387
13684.378
13684.366
13684.351
13684.332
13684.309
13684.278
13684.239
13684.19
13684.127
13684.045
13683.942
13683.81
13683.64
13683.423
13683.143
13682.786
13682.33
13681.751
13681.023
13680.115
13678.991
13677.613
13675.934
13673.902
13671.458
13668.528
13665.033
13660.886
13655.987
13650.228
13643.493
13635.649
13626.55
13616.029
13603.899
13589.951
13573.948
13555.625
13534.685
13510.789
13483.553
13452.538
13417.257
13377.13
13331.446
13279.812
13225.601
13155.256
13714.406
13714.405
13714.405
13714.405
13714.405
13714.405
13714.404
13714.404
13714.403
13714.402
13714.401
13714.4
13714.398
13714.396
13714.393
13714.389
13714.384
13714.379
13714.371
13714.361
13714.348
13714.331
13714.309
13714.28
13714.242
13714.193
13714.128
13714.044
13713.936
13713.796
13713.613
13713.378
13713.075
13712.686
13712.193
13711.572
13710.797
13709.839
13708.664
13707.232
13705.499
13703.41
13700.906
13697.918
13694.37
13690.177
13685.25
13679.488
13672.778
13664.991
13655.983
13645.591
13633.629
13619.889
13604.136
13586.102
13565.478
13541.909
13514.973
13484.192
13449.023
13408.642
13362.512
13315.075
13251.738
13745.41
13745.41
13745.41
13745.41
13745.41
13745.41
13745.409
13745.409
13745.409
13745.408
13745.408
13745.407
13745.406
13745.405
13745.404
13745.402
13745.399
13745.396
13745.392
13745.386
13745.378
13745.367
13745.352
13745.331
13745.303
13745.266
13745.217
13745.151
13745.065
13744.951
13744.803
13744.61
13744.361
13744.042
13743.637
13743.126
13742.49
13741.703
13740.737
13739.562
13738.136
13736.417
13734.355
13731.892
13728.967
13725.513
13721.454
13716.707
13711.179
13704.763
13697.335
13688.757
13678.872
13667.501
13654.441
13639.458
13622.277
13602.571
13579.959
13553.985
13524.096
13489.42
13449.205
13408.817
13352.977
13777.401
13777.401
13777.401
13777.401
13777.401
13777.401
13777.4
13777.401
13777.4
13777.4
13777.4
13777.4
13777.399
13777.399
13777.398
13777.397
13777.396
13777.395
13777.392
13777.389
13777.384
13777.377
13777.366
13777.352
13777.331
13777.304
13777.266
13777.215
13777.147
13777.059
13776.943
13776.793
13776.598
13776.349
13776.033
13775.636
13775.141
13774.531
13773.783
13772.87
13771.762
13770.426
13768.821
13766.904
13764.628
13761.941
13758.787
13755.099
13750.803
13745.813
13740.031
13733.345
13725.627
13716.731
13706.489
13694.698
13681.135
13665.515
13647.493
13626.646
13602.449
13573.998
13540.385
13507.321
13458.971
13810.321
13810.321
13810.321
13810.32
13810.32
13810.32
13810.32
13810.319
13810.319
13810.319
13810.319
13810.319
13810.318
13810.318
13810.318
13810.317
13810.316
13810.315
13810.313
13810.311
13810.307
13810.302
13810.294
13810.283
13810.268
13810.247
13810.219
13810.181
13810.131
13810.065
13809.981
13809.873
13809.733
13809.556
13809.331
13809.05
13808.701
13808.272
13807.745
13807.103
13806.323
13805.381
13804.25
13802.898
13801.296
13799.407
13797.192
13794.604
13791.587
13788.079
13784.007
13779.285
13773.822
13767.508
13760.209
13751.77
13742.004
13730.684
13717.534
13702.192
13684.181
13662.617
13636.584
13610.707
13570.417
13844.1
13844.1
13844.099
13844.099
13844.099
13844.098
13844.098
13844.098
13844.097
13844.097
13844.096
13844.096
13844.095
13844.094
13844.093
13844.092
13844.091
13844.09
13844.088
13844.085
13844.081
13844.076
13844.069
13844.06
13844.047
13844.031
13844.009
13843.982
13843.948
13843.905
13843.852
13843.786
13843.703
13843.598
13843.466
13843.303
13843.103
13842.857
13842.558
13842.193
13841.751
13841.216
13840.573
13839.808
13838.904
13837.842
13836.601
13835.151
13833.46
13831.489
13829.191
13826.513
13823.397
13819.77
13815.543
13810.603
13804.823
13798.029
13790.022
13780.546
13769.227
13755.37
13738.198
13720.611
13690.304
13880.176
13880.176
13880.176
13880.175
13880.175
13880.174
13880.174
13880.173
13880.172
13880.171
13880.17
13880.169
13880.167
13880.166
13880.164
13880.162
13880.159
13880.156
13880.153
13880.148
13880.143
13880.136
13880.128
13880.119
13880.107
13880.094
13880.078
13880.061
13880.041
13880.02
13879.998
13879.974
13879.948
13879.919
13879.888
13879.853
13879.815
13879.771
13879.72
13879.659
13879.585
13879.494
13879.387
13879.263
13879.122
13878.961
13878.778
13878.564
13878.31
13878.003
13877.629
13877.17
13876.603
13875.9
13875.017
13873.896
13872.466
13870.633
13868.277
13865.264
13861.388
13856.262
13849.894
13844.073
13832.941
13918.13
13918.129
13918.129
13918.128
13918.127
13918.127
13918.126
13918.125
13918.124
13918.122
13918.121
13918.119
13918.117
13918.115
13918.112
13918.109
13918.105
13918.1
13918.095
13918.089
13918.082
13918.074
13918.065
13918.056
13918.045
13918.035
13918.026
13918.019
13918.017
13918.021
13918.033
13918.055
13918.092
13918.146
13918.222
13918.324
13918.461
13918.635
13918.85
13919.112
13919.43
13919.815
13920.28
13920.841
13921.514
13922.314
13923.258
13924.36
13925.637
13927.106
13928.785
13930.696
13932.855
13935.277
13937.971
13940.942
13944.18
13947.679
13951.414
13955.38
13959.561
13963.909
13968.834
13975.191
13979.977
13956.008
13956.008
13956.007
13956.006
13956.005
13956.005
13956.004
13956.003
13956.001
13956
13955.998
13955.996
13955.995
13955.992
13955.989
13955.986
13955.982
13955.978
13955.973
13955.968
13955.962
13955.955
13955.949
13955.942
13955.937
13955.934
13955.935
13955.942
13955.959
13955.99
13956.037
13956.107
13956.206
13956.339
13956.517
13956.751
13957.052
13957.432
13957.905
13958.487
13959.196
13960.055
13961.093
13962.339
13963.825
13965.587
13967.659
13970.08
13972.893
13976.146
13979.892
13984.189
13989.094
13994.668
14000.972
14008.073
14016.032
14024.926
14034.832
14045.865
14058.154
14071.9
14087.579
14105.707
14125.956
13993.65
13993.649
13993.648
13993.648
13993.647
13993.646
13993.645
13993.645
13993.643
13993.642
13993.641
13993.639
13993.638
13993.636
13993.634
13993.631
13993.628
13993.626
13993.622
13993.619
13993.616
13993.613
13993.61
13993.609
13993.61
13993.616
13993.629
13993.652
13993.689
13993.745
13993.826
13993.941
13994.099
13994.311
13994.591
13994.954
13995.418
13996.002
13996.73
13997.626
13998.721
14000.052
14001.658
14003.586
14005.883
14008.6
14011.795
14015.53
14019.876
14024.91
14030.722
14037.405
14045.058
14053.789
14063.709
14074.947
14087.638
14101.938
14118.021
14136.111
14156.463
14179.449
14205.624
14235.655
14270.479
14030.876
14030.875
14030.874
14030.874
14030.873
14030.872
14030.872
14030.871
14030.87
14030.869
14030.869
14030.868
14030.867
14030.866
14030.865
14030.865
14030.864
14030.863
14030.863
14030.863
14030.864
14030.866
14030.87
14030.876
14030.886
14030.904
14030.93
14030.97
14031.029
14031.114
14031.233
14031.397
14031.617
14031.909
14032.29
14032.781
14033.407
14034.195
14035.174
14036.383
14037.862
14039.66
14041.831
14044.433
14047.531
14051.196
14055.504
14060.543
14066.411
14073.218
14081.083
14090.139
14100.527
14112.397
14125.919
14141.276
14158.677
14178.352
14200.569
14225.656
14253.99
14286.086
14322.626
14364.49
14412.969
14067.543
14067.542
14067.542
14067.541
14067.541
14067.54
14067.54
14067.54
14067.539
14067.539
14067.539
14067.539
14067.54
14067.54
14067.541
14067.542
14067.544
14067.546
14067.549
14067.553
14067.559
14067.567
14067.577
14067.592
14067.613
14067.643
14067.685
14067.745
14067.829
14067.947
14068.106
14068.321
14068.606
14068.979
14069.463
14070.083
14070.87
14071.86
14073.09