/*--------------------------------*- C++ -*----------------------------------*\
  =========                 |
  \\      /  F ield         | OpenFOAM: The Open Source CFD Toolbox
   \\    /   O peration     | Website:  https://openfoam.org
    \\  /    A nd           | Version:  13
     \\/     M anipulation  |
\*---------------------------------------------------------------------------*/
FoamFile
{
    format      ascii;
    class       volScalarField;
    location    "41.900151";
    object      yPlus;
}
// * * * * * * * * * * * * * * * * * * * * * * * * * * * * * * * * * * * * * //

dimensions      [];

internalField   uniform 0;

boundaryField
{
    inlet
    {
        type            calculated;
        value           uniform 0;
    }
    outlet
    {
        type            calculated;
        value           uniform 0;
    }
    cylinder
    {
        type            calculated;
        value           nonuniform List<scalar> 
132
(
1.6961169e-07
1.6960394e-07
1.6904137e-07
1.6785446e-07
1.6599497e-07
1.6343231e-07
1.6018356e-07
1.5626375e-07
1.5168763e-07
1.4648304e-07
1.4069314e-07
1.3437639e-07
1.2760627e-07
1.2047099e-07
1.1307207e-07
1.0552244e-07
9.7943511e-08
9.0460882e-08
8.319814e-08
7.6268554e-08
6.9764832e-08
6.3740857e-08
5.8189635e-08
5.3022514e-08
4.8059943e-08
4.3051633e-08
3.7735392e-08
3.19498e-08
2.5757813e-08
1.9494653e-08
1.3699083e-08
8.9526361e-09
5.7587288e-09
4.4306653e-09
4.6639091e-09
5.6366772e-09
7.0050008e-09
8.7336702e-09
1.0853937e-08
1.3419468e-08
1.6548248e-08
2.0345648e-08
2.4489182e-08
2.8913353e-08
3.3490383e-08
3.8107922e-08
4.2672837e-08
4.7110815e-08
5.1372132e-08
5.5423531e-08
5.9242498e-08
6.28216e-08
6.6145357e-08
6.919895e-08
7.2038903e-08
7.4626792e-08
7.6959142e-08
7.9059586e-08
8.0927775e-08
8.256826e-08
8.398002e-08
8.5149827e-08
8.6094965e-08
8.680575e-08
8.7298308e-08
8.7561792e-08
1.6900753e-07
1.6778416e-07
1.6598011e-07
1.6357045e-07
1.6055194e-07
1.5693135e-07
1.527246e-07
1.4795709e-07
1.4266393e-07
1.3689022e-07
1.3069098e-07
1.2413099e-07
1.1728334e-07
1.1022996e-07
1.0306186e-07
9.5874389e-08
8.8769075e-08
8.1848393e-08
7.5213863e-08
6.8959087e-08
6.3159179e-08
5.7853683e-08
5.3020609e-08
4.8546931e-08
4.4213851e-08
3.9725261e-08
3.4789804e-08
2.926913e-08
2.3305148e-08
1.7326033e-08
1.1930946e-08
7.706554e-09
5.1128643e-09
4.3816154e-09
4.9099303e-09
6.0175434e-09
7.4927484e-09
9.3361408e-09
1.158426e-08
1.4290113e-08
1.7564607e-08
2.1504309e-08
2.5760599e-08
3.0262802e-08
3.4882054e-08
3.9515836e-08
4.4071178e-08
4.8476215e-08
5.2691526e-08
5.6684054e-08
6.0436328e-08
6.3942568e-08
6.7188947e-08
7.0165191e-08
7.2942029e-08
7.5443302e-08
7.7703591e-08
7.9723874e-08
8.1519389e-08
8.3083757e-08
8.4410829e-08
8.5505712e-08
8.6366188e-08
8.700092e-08
8.7411417e-08
8.7595531e-08
)
;
    }
    frontAndBack
    {
        type            empty;
    }
}


// ************************************************************************* //
