/*--------------------------------*- C++ -*----------------------------------*\
  =========                 |
  \\      /  F ield         | OpenFOAM: The Open Source CFD Toolbox
   \\    /   O peration     | Website:  https://openfoam.org
    \\  /    A nd           | Version:  13
     \\/     M anipulation  |
\*---------------------------------------------------------------------------*/
FoamFile
{
    format      ascii;
    class       volScalarField;
    location    "20.499743";
    object      nut;
}
// * * * * * * * * * * * * * * * * * * * * * * * * * * * * * * * * * * * * * //

dimensions      [0 2 -1 0 0 0 0];

internalField   nonuniform List<scalar> 
17140
(
1.7313444e-17
3.3672321e-15
8.9686561e-14
9.0919711e-13
5.4979857e-12
2.4354919e-11
8.7925077e-11
2.7506127e-10
7.7468208e-10
2.0144608e-09
4.9218815e-09
1.144204e-08
2.554613e-08
5.5166133e-08
1.1585905e-07
2.3767034e-07
4.7786403e-07
9.4432344e-07
1.8382035e-06
3.5310187e-06
6.7027198e-06
1.2586416e-05
2.3396149e-05
4.3059477e-05
7.8430396e-05
0.00014117998
0.00025042003
0.00043552118
0.00073724602
0.0012037611
0.0018787751
0.0027844433
0.0039081051
0.0052008953
0.0065878958
0.0079837353
0.0093074535
0.010494372
0.011503734
0.012320954
0.012957618
0.013444811
0.013822514
0.014133341
0.014416103
0.014698934
0.014992415
0.01528891
0.015588538
0.015884765
0.016165589
0.016414379
0.016607897
0.01671361
0.01670598
0.016586391
0.016312494
0.015870069
0.015273231
0.014533241
0.013596731
0.012479993
0.011291398
0.0097763851
0.0080661759
1.7026399e-17
3.311403e-15
8.8199626e-14
8.941254e-13
5.4068636e-12
2.3951346e-11
8.6468378e-11
2.7050492e-10
7.6185106e-10
1.9810969e-09
4.8403597e-09
1.1252486e-08
2.5122759e-08
5.4251281e-08
1.1393578e-07
2.337193e-07
4.6990406e-07
9.2855086e-07
1.8073917e-06
3.4715633e-06
6.5892225e-06
1.2371847e-05
2.2994204e-05
4.2313583e-05
7.7061217e-05
0.00013870233
0.00024602783
0.00042797005
0.0007248293
0.0011845383
0.0018511452
0.0027478658
0.0038635427
0.0051507371
0.0065354966
0.0079326885
0.0092610391
0.010455076
0.011472855
0.012299645
0.01294549
0.013441157
0.013825993
0.014143328
0.014431928
0.014725875
0.015030208
0.015342286
0.015664616
0.015994853
0.016325889
0.01664451
0.016932389
0.017169985
0.017341927
0.017448298
0.017461492
0.017373011
0.017167475
0.016854711
0.016318164
0.015532083
0.014271664
0.012509133
0.0099708861
1.655418e-17
3.2195623e-15
8.5753417e-14
8.693267e-13
5.2569004e-12
2.3287015e-11
8.4069893e-11
2.6300092e-10
7.4071396e-10
1.9261218e-09
4.7060029e-09
1.0940018e-08
2.4424734e-08
5.2742739e-08
1.1076417e-07
2.2720368e-07
4.5677824e-07
9.0254635e-07
1.7566051e-06
3.3736008e-06
6.4023111e-06
1.201871e-05
2.2333178e-05
4.1087928e-05
7.4813253e-05
0.00013463721
0.00023882335
0.0004155773
0.00070441375
0.001152817
0.0018052806
0.0026866422
0.0037881589
0.0050647577
0.0064440995
0.0078416257
0.009175698
0.010379772
0.011410485
0.012251513
0.012911846
0.013421289
0.013817459
0.014145683
0.014447509
0.014758411
0.015082964
0.015425722
0.015790111
0.016175549
0.016580181
0.016996803
0.017414905
0.017826445
0.018226039
0.018612441
0.018961561
0.019250473
0.01945746
0.019554987
0.019363416
0.01891958
0.017807635
0.015763333
0.012017935
1.5898116e-17
3.0919664e-15
8.2354863e-14
8.3487348e-13
5.048555e-12
2.2364056e-11
8.0737678e-11
2.5257568e-10
7.1134876e-10
1.849748e-09
4.519354e-09
1.0505956e-08
2.3455142e-08
5.0647497e-08
1.0635965e-07
2.1815692e-07
4.3855795e-07
8.6646086e-07
1.686161e-06
3.2377951e-06
6.1433692e-06
1.1529874e-05
2.1418977e-05
3.9394508e-05
7.171034e-05
0.00012903032
0.00022888933
0.00039847943
0.00067619359
0.0011088121
0.0017413133
0.0026006559
0.0036813985
0.0049418089
0.0063119107
0.0077081085
0.0090484151
0.010264959
0.0113125
0.012172462
0.01285261
0.013380923
0.013792904
0.014136244
0.014459146
0.014795298
0.015147656
0.015526256
0.015938712
0.016390184
0.016882614
0.01741409
0.017979576
0.018576428
0.019204503
0.019860505
0.020515405
0.021121121
0.021627012
0.021983985
0.02202263
0.021712283
0.020657505
0.017973294
0.012770718
1.5068008e-17
2.9305216e-15
7.8054757e-14
7.9128087e-13
4.7849433e-12
2.1196279e-11
7.6521627e-11
2.3938544e-10
6.7419606e-10
1.753123e-09
4.2832227e-09
9.9568509e-09
2.2228663e-08
4.7997404e-08
1.0078951e-07
2.0671812e-07
4.1552573e-07
8.2085985e-07
1.5971776e-06
3.0663362e-06
5.8166525e-06
1.091355e-05
2.0267326e-05
3.7263157e-05
6.7808272e-05
0.00012198353
0.00021640436
0.00037696935
0.00064060127
0.001053067
0.0016597712
0.0024901932
0.0035430496
0.00478099
0.0061372792
0.0075297954
0.0088763083
0.010107393
0.011175479
0.012059455
0.012764601
0.013316269
0.013749741
0.014112732
0.014464673
0.014825969
0.015209161
0.015628869
0.016095297
0.016616987
0.017200096
0.017846074
0.018551995
0.019316227
0.020139192
0.021015594
0.021907573
0.022735779
0.023410376
0.023872722
0.023948547
0.023553441
0.022188189
0.018852112
0.012583424
1.4080595e-17
2.7384832e-15
7.2939792e-14
7.3942761e-13
4.4713786e-12
1.9807225e-11
7.1506756e-11
2.2369631e-10
6.3000576e-10
1.6381987e-09
4.0023839e-09
9.3038196e-09
2.0770172e-08
4.4846337e-08
9.4167355e-08
1.9312153e-07
3.8815569e-07
7.6668825e-07
1.4915142e-06
2.8628438e-06
5.4291422e-06
1.0183093e-05
1.8903558e-05
3.4741466e-05
6.3195251e-05
0.0001136569
0.00020164913
0.00035151283
0.00059834627
0.00098653461
0.0015617226
0.0023561598
0.0033735017
0.0045818738
0.0059188088
0.0073043336
0.0086562101
0.0099032994
0.010995247
0.011907754
0.012643126
0.013222865
0.013682471
0.014072082
0.014453254
0.014842085
0.015258501
0.01571981
0.01623888
0.016826982
0.017493015
0.018239457
0.019061977
0.019956165
0.020920126
0.021948632
0.022995536
0.023948025
0.024666325
0.025078917
0.02499782
0.024273724
0.022590035
0.018544835
0.010753585
1.2959383e-17
2.5204233e-15
6.7131751e-14
6.8054828e-13
4.1153273e-12
1.8229972e-11
6.5812503e-11
2.0588203e-10
5.7983096e-10
1.5077149e-09
3.6835369e-09
8.5624537e-09
1.9114531e-08
4.126973e-08
8.6652041e-08
1.7769421e-07
3.5710858e-07
7.0525996e-07
1.3717486e-06
2.6323182e-06
4.9904431e-06
9.356788e-06
1.7362186e-05
3.1893939e-05
5.7990308e-05
0.00010426595
0.00018500239
0.0003227445
0.00055041681
0.00091059771
0.0014488358
0.002200196
0.0031739114
0.0043446957
0.0056555364
0.0070294967
0.0083847484
0.0096483937
0.010766879
0.011712058
0.012482483
0.01309518
0.013585643
0.014007531
0.014417675
0.014834603
0.015283078
0.015782409
0.016347373
0.016991051
0.017723534
0.018546074
0.019449868
0.020425022
0.021094362
0.021957079
0.023231271
0.024664475
0.025309941
0.025535049
0.025151955
0.023989214
0.021767652
0.01611846
0.0078380869
1.1734132e-17
2.2821288e-15
6.0784759e-14
6.1620543e-13
3.7262389e-12
1.6506381e-11
5.9590008e-11
1.8641548e-10
5.2500374e-10
1.3651366e-09
3.3351518e-09
7.7524574e-09
1.7305776e-08
3.7362807e-08
7.8443925e-08
1.608482e-07
3.2321567e-07
6.3822484e-07
1.2411107e-06
2.3810075e-06
4.5125184e-06
8.4573288e-06
1.5685872e-05
2.8800006e-05
5.2339555e-05
9.4074944e-05
0.00016692973
0.00029145183
0.0004980635
0.00082706746
0.0013234204
0.0020247883
0.0029463931
0.0040706008
0.0053471923
0.0067034099
0.0080585025
0.0093379476
0.01048467
0.011466028
0.012276008
0.012926955
0.013452566
0.013909474
0.01434993
0.014792683
0.015269426
0.015799658
0.016399188
0.017081962
0.017857865
0.018724912
0.019667352
0.020111793
0.020655794
0.021549289
0.022887655
0.024814431
0.025277104
0.025180521
0.024355464
0.022656656
0.019489439
0.011590239
0.0048438957
1.0439751e-17
2.030389e-15
5.4079628e-14
5.4823205e-13
3.3151983e-12
1.4685559e-11
5.3016548e-11
1.6585127e-10
4.6708619e-10
1.2145266e-09
2.9671572e-09
6.8969202e-09
1.5395485e-08
3.3237037e-08
6.977738e-08
1.4306505e-07
2.874472e-07
5.6750575e-07
1.1033573e-06
2.1161626e-06
4.0092126e-06
7.5108948e-06
1.3923665e-05
2.5550688e-05
4.641e-05
8.3385698e-05
0.00014796461
0.00025854565
0.00044276086
0.00073814964
0.001188431
0.0018333574
0.0026942212
0.0037619474
0.0049945555
0.0063248946
0.0076742801
0.0089669608
0.010142174
0.011162181
0.012015537
0.012709911
0.013274946
0.013768704
0.014238231
0.014706692
0.01520365
0.015754916
0.016374148
0.017075301
0.0178669
0.018741991
0.019167503
0.019481155
0.020056659
0.020948315
0.022390628
0.024353905
0.024508667
0.02395082
0.022579528
0.020150661
0.015326921
0.0063813931
0.0032328162
9.1146309e-18
1.772671e-15
4.7215274e-14
4.7864461e-13
2.8943987e-12
1.2821515e-11
4.6287108e-11
1.4479936e-10
4.0779623e-10
1.060352e-09
2.5904683e-09
6.0212201e-09
1.344033e-08
2.9014845e-08
6.0909649e-08
1.2487286e-07
2.5086612e-07
4.9520624e-07
9.6259118e-07
1.8456851e-06
3.4955745e-06
6.5458598e-06
1.212856e-05
2.2244022e-05
4.03811e-05
7.2522377e-05
0.00012868177
0.00022501683
0.00038614437
0.00064637107
0.0010474178
0.0016302945
0.0024220118
0.0034226506
0.0045999146
0.0058939663
0.0072295715
0.0085305077
0.0097324121
0.01079196
0.011691339
0.01243336
0.013042871
0.013574319
0.014072406
0.014563935
0.015077415
0.015634215
0.016253692
0.016949372
0.01772562
0.018250691
0.018432471
0.018765104
0.019333899
0.020190303
0.021754621
0.023209156
0.022939635
0.021831667
0.019769826
0.016480521
0.0090359148
0.0034731805
0.0023849564
7.7984828e-18
1.5166981e-15
4.0397396e-14
4.0952826e-13
2.476448e-12
1.0970099e-11
3.960331e-11
1.2389046e-10
3.4890998e-10
9.0723099e-10
2.216367e-09
5.151581e-09
1.1498853e-08
2.4822633e-08
5.2106174e-08
1.0681609e-07
2.1456709e-07
4.2348966e-07
8.2302437e-07
1.5776687e-06
2.9869787e-06
5.5911251e-06
1.0354364e-05
1.8979251e-05
3.443412e-05
6.1812335e-05
0.00010966376
0.00019187993
0.00032992268
0.00055446055
0.00090440412
0.0014209074
0.0021358358
0.0030585233
0.0041676181
0.0054125096
0.0067232374
0.0080243437
0.0092483397
0.010346068
0.011292516
0.012085036
0.012743411
0.013313288
0.013838544
0.014347582
0.014870136
0.015427657
0.016035253
0.016703649
0.017365137
0.017453391
0.017610503
0.017910202
0.018382053
0.019250355
0.020905633
0.021341619
0.020539346
0.01877608
0.015977556
0.010869653
0.0040515519
0.0021887248
0.0016268812
6.5299604e-18
1.2699876e-15
3.3826224e-14
3.4291297e-13
2.073622e-12
9.1856847e-12
3.3161421e-11
1.0373848e-10
2.9215618e-10
7.5965791e-10
1.8558314e-09
4.3135162e-09
9.627993e-09
2.0783294e-08
4.3624878e-08
8.9423397e-08
1.7961191e-07
3.5445146e-07
6.8872927e-07
1.3199218e-06
2.4982161e-06
4.6744046e-06
8.6524854e-06
1.5850845e-05
2.8741082e-05
5.1565887e-05
9.1464375e-05
0.00016010922
0.00027577085
0.00046518717
0.00076368163
0.0012112416
0.0018431947
0.0026775341
0.0037046567
0.0048851162
0.0061564718
0.007445846
0.0086836454
0.0098150584
0.010807352
0.011651362
0.012360251
0.012969862
0.013520524
0.014042701
0.01456314
0.015102857
0.015675897
0.016289299
0.016492915
0.016506623
0.016624424
0.016818861
0.017204457
0.018178915
0.019362228
0.018710782
0.017304172
0.014796895
0.011207863
0.0046241377
0.0020416024
0.0015009472
0.0010934211
5.3440571e-18
1.0393456e-15
2.7683047e-14
2.8063658e-13
1.6970337e-12
7.5174986e-12
2.713914e-11
8.4899243e-11
2.3909998e-10
6.2170177e-10
1.5188001e-09
3.5301191e-09
7.8792774e-09
1.7008007e-08
3.5698992e-08
7.3172499e-08
1.4695916e-07
2.8998107e-07
5.6337191e-07
1.0794584e-06
2.0425381e-06
3.8204475e-06
7.068667e-06
1.2942545e-05
2.3453978e-05
4.205682e-05
7.4573539e-05
0.0001305752
0.00022521811
0.0003811731
0.00062953518
0.0010077569
0.001552781
0.002289851
0.0032211388
0.0043200002
0.0055340293
0.0067953625
0.0080340195
0.0091903195
0.010223747
0.011116903
0.011875429
0.012524824
0.013098138
0.013629801
0.014138434
0.014645262
0.015160813
0.015557713
0.015452086
0.015411296
0.015421684
0.015476226
0.015880027
0.01688741
0.016627603
0.015361246
0.013185657
0.010219969
0.0046899109
0.0018502447
0.0013456649
0.0010077533
0.00076453522
4.2692808e-18
8.3031617e-16
2.2115521e-14
2.2419586e-13
1.3557338e-12
6.0056304e-12
2.1681182e-11
6.7825406e-11
1.9101592e-10
4.9667565e-10
1.2133636e-09
2.8201848e-09
6.2946274e-09
1.3587175e-08
2.851802e-08
5.845115e-08
1.1738583e-07
2.3160716e-07
4.4991113e-07
8.6192205e-07
1.6305655e-06
3.0489988e-06
5.6392085e-06
1.032043e-05
1.8692128e-05
3.3499406e-05
5.9375268e-05
0.00010396726
0.00017950437
0.00030463232
0.00050580119
0.00081669353
0.0012738042
0.0019074147
0.0027304077
0.0037297901
0.0048656214
0.0060779974
0.0072990547
0.0084658039
0.0095304859
0.010466547
0.011269898
0.011955542
0.012548207
0.013082779
0.013569851
0.014027196
0.014461986
0.014462435
0.014260049
0.014114042
0.013956372
0.01393151
0.014419907
0.014497607
0.013241074
0.011222156
0.0085572196
0.0041991071
0.0016631427
0.0010968659
0.00086655076
0.00068435899
0.0006166234
3.3259673e-18
6.4685449e-16
1.7228999e-14
1.7465883e-13
1.0561807e-12
4.6786878e-12
1.6890815e-11
5.2839965e-11
1.4881343e-10
3.8694342e-10
9.4529391e-10
2.1971189e-09
4.9039325e-09
1.058522e-08
2.2216897e-08
4.5535131e-08
9.1443663e-08
1.8041283e-07
3.5043716e-07
6.7128377e-07
1.2697341e-06
2.3737948e-06
4.3891759e-06
8.0297624e-06
1.453665e-05
2.6038689e-05
4.6130389e-05
8.0761807e-05
0.0001395194
0.00023725225
0.00039564224
0.00064367255
0.0010153424
0.0015432797
0.0022487403
0.0031319711
0.0041672473
0.0053057203
0.00648486
0.0076408162
0.0087198457
0.0096861206
0.010524682
0.011239216
0.011844623
0.012368511
0.012824461
0.01321167
0.013539191
0.013197305
0.012877262
0.0125526
0.012247815
0.012267523
0.012419645
0.01111555
0.0091503025
0.0066458009
0.0033160201
0.0014112593
0.00087422254
0.00070819746
0.00059902366
0.00055140014
0.00058904067
2.5253123e-18
4.911382e-16
1.3081489e-14
1.3261358e-13
8.0193082e-13
3.5524243e-12
1.2824907e-11
4.0120794e-11
1.1299331e-10
2.9380668e-10
7.1776846e-10
1.6682988e-09
3.7236323e-09
8.0375422e-09
1.6869676e-08
3.4575502e-08
6.9434021e-08
1.3698734e-07
2.6608092e-07
5.0967605e-07
9.6399666e-07
1.8020427e-06
3.3315074e-06
6.0934638e-06
1.1027842e-05
1.9745728e-05
3.4966951e-05
6.12004e-05
0.00010574795
0.00018005614
0.00030123313
0.00049309486
0.00078548574
0.0012103786
0.0017942949
0.0025484966
0.0034619319
0.0044993629
0.0056071703
0.0067239716
0.0077923078
0.0087679605
0.0096247958
0.01035429
0.010959881
0.011453077
0.011860731
0.012151812
0.01222309
0.01174853
0.011248293
0.010733701
0.010404426
0.010448463
0.0090399925
0.0071228516
0.0047716618
0.0023509349
0.0010720852
0.00069176939
0.00059034715
0.00051482071
0.00049903021
0.0005252515
0.00061179921
1.8688486e-18
3.6346525e-16
9.6809169e-15
9.8140384e-14
5.9346911e-13
2.6289886e-12
9.4912143e-12
2.9692142e-11
8.3623772e-11
2.1744231e-10
5.3121744e-10
1.2347173e-09
2.7559189e-09
5.9487987e-09
1.2485901e-08
2.5591167e-08
5.1393041e-08
1.0139707e-07
1.9695841e-07
3.7728834e-07
7.1363124e-07
1.3340729e-06
2.466393e-06
4.511013e-06
8.1631601e-06
1.461367e-05
2.5871792e-05
4.5269545e-05
7.821785e-05
0.00013326598
0.00022341147
0.00036732978
0.00058970686
0.00091940188
0.0013843686
0.0020036276
0.0027788017
0.0036894213
0.0046939948
0.0057374964
0.0067620643
0.0077171236
0.0085659956
0.0092873731
0.0098712571
0.010309883
0.010633482
0.010800123
0.01070219
0.01007032
0.0093580692
0.0087810098
0.0085132305
0.0071005922
0.0052114242
0.0031203615
0.0015048473
0.0007414154
0.00051911693
0.00047740501
0.00044451171
0.00044501425
0.00048642341
0.00055245973
0.00065795942
1.3494536e-18
2.6245013e-16
6.9903738e-15
7.086507e-14
4.2853321e-13
1.8983593e-12
6.8535588e-12
2.1440834e-11
6.0386049e-11
1.5702125e-10
3.836145e-10
8.9166032e-10
1.9902553e-09
4.2961944e-09
9.0175715e-09
1.8483276e-08
3.712087e-08
7.3244042e-08
1.4228697e-07
2.7259685e-07
5.1569546e-07
9.6424258e-07
1.7830661e-06
3.2619663e-06
5.9040572e-06
1.0570727e-05
1.8714421e-05
3.2743275e-05
5.6570637e-05
9.6404407e-05
0.00016178396
0.00026672378
0.00043050544
0.00067721938
0.0010329454
0.001520035
0.0021494399
0.0029140595
0.0037860526
0.0047203381
0.0056626266
0.0065591527
0.0073644219
0.008044448
0.0085739873
0.0089250807
0.0091222488
0.0091351491
0.0089445758
0.0081305305
0.0073339184
0.0066767972
0.0053006301
0.0034836948
0.0018189855
0.00091012576
0.0004765231
0.00037444418
0.0003699613
0.00037347858
0.00039666526
0.00044380516
0.00051133993
0.00058969303
0.00068892017
9.5308192e-19
1.853612e-16
4.9371043e-15
5.0050105e-14
3.0266321e-13
1.3407806e-12
4.8406243e-12
1.5143783e-11
4.2651876e-11
1.1090985e-10
2.7096819e-10
6.2984844e-10
1.4059214e-09
3.0349745e-09
6.3706581e-09
1.3058821e-08
2.6229078e-08
5.1759503e-08
1.0056649e-07
1.9270891e-07
3.6466567e-07
6.8208932e-07
1.2618639e-06
2.3096833e-06
4.1829696e-06
7.49411e-06
1.3275839e-05
2.3238525e-05
4.0158981e-05
6.8442785e-05
0.00011490294
0.00018967354
0.00030706876
0.00048584099
0.00074795878
0.0011150932
0.0016027941
0.0022138267
0.0029331681
0.0037274919
0.0045496914
0.0053466113
0.0060666982
0.0066642427
0.0070974583
0.0073182664
0.0073644098
0.00720294
0.0068214462
0.0060418734
0.0049466435
0.0036222906
0.0020522439
0.0010462405
0.0005240067
0.00029465364
0.00026490301
0.00028028279
0.00030720313
0.000349736
0.0003978252
0.00042707566
0.0004774747
0.00061018399
0.00072579086
6.6144652e-19
1.2864215e-16
3.4263906e-15
3.4735274e-14
2.100528e-13
9.3053332e-13
3.3595662e-12
1.0510561e-11
2.9603381e-11
7.6981604e-11
1.8808363e-10
4.3720715e-10
9.7596496e-10
2.1069537e-09
4.4230077e-09
9.0673472e-09
1.821442e-08
3.5949804e-08
6.986476e-08
1.3391742e-07
2.535135e-07
4.7442542e-07
8.7824849e-07
1.6087871e-06
2.9163193e-06
5.230346e-06
9.2763127e-06
1.6257662e-05
2.8130341e-05
4.7998347e-05
8.0640871e-05
0.00013318299
0.00021581367
0.00034236007
0.00052982142
0.0007965489
0.0011583729
0.0016231357
0.0021852222
0.0028223728
0.0034965449
0.0041584817
0.0047536555
0.0052259927
0.005514961
0.0055692586
0.0054508389
0.0051182541
0.0044864478
0.0034666497
0.0021901288
0.001066147
0.00055885191
0.00029712439
0.00017969479
0.0001879191
0.00021142798
0.00025198408
0.00030729887
0.00029916865
0.00030791499
0.00034833271
0.0003966711
0.00053318212
0.00068946515
4.5474096e-19
8.8440828e-17
2.3556285e-15
2.3880442e-14
1.4441231e-13
6.397565e-13
2.3098081e-12
7.226555e-12
2.0354584e-11
5.2932965e-11
1.2933373e-10
3.0065843e-10
6.7119785e-10
1.4491322e-09
3.0423995e-09
6.237873e-09
1.2532744e-08
2.4741438e-08
4.8096689e-08
9.2228213e-08
1.7468302e-07
3.2712015e-07
6.0607642e-07
1.1114049e-06
2.0173097e-06
3.6235035e-06
6.4374478e-06
1.1302669e-05
1.9591951e-05
3.3485794e-05
5.6351836e-05
9.3222305e-05
0.00015129768
0.00024026177
0.00037232347
0.00056156095
0.00082146144
0.0011607056
0.0015785792
0.0020607372
0.002577395
0.003084418
0.0035261758
0.0038368417
0.0039381872
0.0038390464
0.0035425983
0.0029856909
0.0021818064
0.0011465086
0.00055311082
0.0002920206
0.000163054
0.00011355712
0.00012980372
0.00016076002
0.00020909012
0.00027178049
0.00022864555
0.00023351971
0.00024901743
0.00028806827
0.000349932
0.00048373361
0.00063458229
3.140115e-19
6.1070899e-17
1.62663e-15
1.6490226e-14
9.9722677e-14
4.4178775e-13
1.5951001e-12
4.9906864e-12
1.4057627e-11
3.6559557e-11
8.9333848e-11
2.0768859e-10
4.6369413e-10
1.0012431e-09
2.1023731e-09
4.3112926e-09
8.6639377e-09
1.7108824e-08
3.327161e-08
6.3831527e-08
1.2097601e-07
2.2673315e-07
4.2052896e-07
7.721873e-07
1.4039161e-06
2.5267172e-06
4.4991182e-06
7.918834e-06
1.3759979e-05
2.3567582e-05
3.9723818e-05
6.5789623e-05
0.00010688566
0.00017000384
0.00026393017
0.00039849675
0.00058321025
0.0008249015
0.0011244872
0.0014712974
0.0018405093
0.0021910722
0.0024651847
0.0025861636
0.0025181897
0.002273731
0.0018062244
0.001171631
0.00054073189
0.00028030262
0.0001527532
9.0746122e-05
7.335355e-05
9.2809856e-05
0.00012709757
0.00017870026
0.00021608748
0.00018538854
0.00018607696
0.00019424432
0.00021390831
0.00025786831
0.00031648954
0.00044033772
0.00059252733
2.2243403e-19
4.3260342e-17
1.1522455e-15
1.1681159e-14
7.0641567e-14
3.1296221e-13
1.130012e-12
3.5357162e-12
9.9599361e-12
2.5904714e-11
6.3304407e-11
1.4719006e-10
3.2866619e-10
7.0979466e-10
1.4906932e-09
3.0576762e-09
6.1465483e-09
1.2142353e-08
2.3624829e-08
4.5352525e-08
8.6022722e-08
1.6138886e-07
2.9972272e-07
5.5126123e-07
1.004282e-06
1.8118963e-06
3.2355026e-06
5.7127259e-06
9.9583796e-06
1.7108006e-05
2.8907535e-05
4.7936065e-05
7.7843765e-05
0.00012356186
0.00019139394
0.00028856714
0.00042196289
0.00059523974
0.00080595513
0.0010436167
0.0012842828
0.0014851113
0.0015843041
0.0015355653
0.0013494675
0.00099573633
0.00054350541
0.00025948501
0.00014068249
8.0245468e-05
5.2295167e-05
5.0028814e-05
6.9960629e-05
0.00010549228
0.00015756393
0.00017659328
0.00016053628
0.00015969071
0.00016171262
0.00017239743
0.00019449068
0.00023339816
0.00029014434
0.00041032232
0.00055933389
1.6579335e-19
3.2244528e-17
8.5884006e-16
8.7067745e-15
5.2655086e-14
2.3328462e-13
8.4235981e-13
2.6358395e-12
7.4256146e-12
1.9315111e-11
4.72068e-11
1.0977737e-10
2.4516986e-10
5.2959004e-10
1.1125308e-09
2.282755e-09
4.5906876e-09
9.0734376e-09
1.7665095e-08
3.3938884e-08
6.4438709e-08
1.2104749e-07
2.2515817e-07
4.1493273e-07
7.5774713e-07
1.3711082e-06
2.4568742e-06
4.3551742e-06
7.6249215e-06
1.3158383e-05
2.2326074e-05
3.7131324e-05
6.033315e-05
9.5486289e-05
0.00014682895
0.00021886177
0.00031537279
0.00043792479
0.00058143248
0.000729885
0.00085461424
0.00091048606
0.00086706111
0.00072823965
0.00049226939
0.00024440722
0.00012464435
7.1141615e-05
4.3171298e-05
3.1708093e-05
3.6016339e-05
5.5813997e-05
9.0983322e-05
0.00014232538
0.00015463539
0.00014786957
0.00014739793
0.00014660683
0.00015005261
0.00016205831
0.00018237095
0.00022111791
0.00027845312
0.00039145977
0.00054239075
1.3178037e-19
2.5629493e-17
6.826496e-16
6.9206561e-15
4.1854222e-14
1.8543838e-13
6.6962589e-13
2.0954726e-12
5.9038103e-12
1.5358341e-11
3.7541438e-11
8.7315857e-11
1.9504705e-10
4.2143075e-10
8.8560449e-10
1.8178665e-09
3.6576048e-09
7.2336644e-09
1.4093959e-08
2.7103336e-08
5.1519966e-08
9.6918047e-08
1.8059182e-07
3.3351773e-07
6.1065403e-07
1.108404e-06
1.9934586e-06
3.5486659e-06
6.2420219e-06
1.0823144e-05
1.8438257e-05
3.0733535e-05
4.9896384e-05
7.8545038e-05
0.00011938192
0.00017450438
0.00024417677
0.00032477444
0.00040618032
0.00046973634
0.00048907478
0.00044779375
0.00034680035
0.00021449594
0.00010769336
5.9545252e-05
3.6072895e-05
2.4289054e-05
2.0806551e-05
2.764439e-05
4.6405561e-05
8.0436735e-05
0.00012966341
0.000147694
0.00014542283
0.00014489669
0.00014228746
0.00014193821
0.00014684692
0.00015795547
0.00017783337
0.00021360744
0.00026723701
0.0003740088
0.00052475629
1.0955379e-19
2.1306741e-17
5.6751354e-16
5.7534629e-15
3.4795929e-14
1.5417012e-13
5.5673613e-13
1.7422964e-12
4.9091121e-12
1.2771878e-11
3.1222864e-11
7.2630744e-11
1.6227427e-10
3.50704e-10
7.371987e-10
1.5138006e-09
3.0472199e-09
6.0299252e-09
1.1756784e-08
2.2628008e-08
4.3057159e-08
8.1098437e-08
1.5133882e-07
2.7998638e-07
5.1370478e-07
9.3467092e-07
1.6855575e-06
3.009347e-06
5.3089256e-06
9.2263497e-06
1.5728073e-05
2.6153332e-05
4.2139974e-05
6.531427e-05
9.6658564e-05
0.00013555215
0.00017852944
0.00021821662
0.00024366707
0.00024286829
0.00020815425
0.00014854117
8.839918e-05
4.7754276e-05
2.823754e-05
1.8799605e-05
1.4387641e-05
1.4702919e-05
2.1981558e-05
4.0026593e-05
7.176982e-05
0.00011906891
0.00015237455
0.00015155381
0.00014863046
0.0001441902
0.00014158582
0.00014326169
0.00014766662
0.00015854286
0.00017668108
0.00021094973
0.00026361156
0.00037201972
0.00052529527
9.0402569e-20
1.7582091e-17
4.6830689e-16
4.7477244e-15
2.8713606e-14
1.2722263e-13
4.5943136e-13
1.4378159e-12
4.0513332e-12
1.054067e-11
2.5769764e-11
5.9950046e-11
1.3395485e-10
2.8953372e-10
6.0870107e-10
1.25015e-09
2.517012e-09
4.9819152e-09
9.7160683e-09
1.8705924e-08
3.5605642e-08
6.7085692e-08
1.2522884e-07
2.3174099e-07
4.2524542e-07
7.7366081e-07
1.3945721e-06
2.4871992e-06
4.3787631e-06
7.5788539e-06
1.2824389e-05
2.1053241e-05
3.3207155e-05
4.9743213e-05
6.9874309e-05
9.0834706e-05
0.00010804282
0.00011593845
0.00010930271
8.8425741e-05
5.9015625e-05
3.5373954e-05
2.0844187e-05
1.3630882e-05
1.019952e-05
9.1626033e-06
1.0889725e-05
1.8387933e-05
3.5130143e-05
6.5409473e-05
0.00010970009
0.00016135499
0.00016441541
0.00015642517
0.00014927449
0.00014552072
0.00014469661
0.00014605694
0.00015097004
0.00016177373
0.00017882441
0.00021134231
0.00026289708
0.00036308231
0.00052121398
6.9530413e-20
1.3522734e-17
3.6018385e-16
3.6515585e-15
2.2084027e-14
9.7847772e-14
3.5334694e-13
1.1057978e-12
3.1157261e-12
8.1061495e-12
1.9816958e-11
4.6098793e-11
1.029966e-10
2.2259507e-10
4.6790247e-10
9.6078187e-10
1.9338698e-09
3.8262535e-09
7.4583708e-09
1.4349216e-08
2.7286962e-08
5.1346219e-08
9.5682237e-08
1.766526e-07
3.2314879e-07
5.8546102e-07
1.0494239e-06
1.8574996e-06
3.2364398e-06
5.5240995e-06
9.1657732e-06
1.4628365e-05
2.2162289e-05
3.1378382e-05
4.0767053e-05
4.774899e-05
4.953901e-05
4.4532806e-05
3.4139788e-05
2.2414488e-05
1.4138584e-05
9.0833592e-06
6.8540704e-06
5.8449612e-06
6.1623545e-06
8.7149403e-06
1.5495885e-05
3.1451241e-05
6.0738779e-05
0.00010153334
0.00014916469
0.00018076071
0.00016626464
0.00015682753
0.00015130426
0.00014836418
0.00014723773
0.0001501623
0.00015572014
0.00016618308
0.00018259174
0.00021458383
0.00026365069
0.00036970143
0.00053051524
4.758305e-20
9.2542595e-18
2.4649038e-16
2.4989082e-15
1.5112737e-14
6.6958225e-14
2.4178899e-13
7.5663339e-13
2.1317378e-12
5.5455056e-12
1.355498e-11
3.1525723e-11
7.0417964e-11
1.5213316e-10
3.19641e-10
6.5594399e-10
1.3192294e-09
2.6074069e-09
5.0755001e-09
9.7471607e-09
1.8491864e-08
3.4689622e-08
6.4385428e-08
1.182564e-07
2.1487623e-07
3.8592374e-07
6.8398489e-07
1.1929808e-06
2.0389024e-06
3.3923628e-06
5.4426619e-06
8.3091162e-06
1.1855072e-05
1.5461792e-05
1.8033245e-05
1.8421237e-05
1.6328096e-05
1.2319985e-05
8.4315098e-06
5.6761618e-06
4.2195264e-06
3.5885548e-06
3.7043889e-06
4.4761316e-06
7.0654207e-06
1.4067141e-05
3.0224754e-05
5.7372708e-05
9.5503291e-05
0.00013982939
0.00018544823
0.00017813813
0.00016627651
0.00015830536
0.00015258384
0.00015003415
0.00015096365
0.00015460143
0.00016030252
0.00017186326
0.0001879935
0.00021937391
0.00026841925
0.00036936859
0.00053614448
2.8196762e-20
5.4838817e-18
1.4606426e-16
1.4807717e-15
8.9550768e-15
3.9674482e-14
1.4325686e-13
4.4825331e-13
1.2627419e-12
3.2843049e-12
8.0259217e-12
1.8660295e-11
4.1662668e-11
8.9957248e-11
1.8886156e-10
3.8718008e-10
7.7767383e-10
1.5344161e-09
2.9802034e-09
5.7067438e-09
1.0786014e-08
2.0135832e-08
3.7138932e-08
6.7661801e-08
1.2166381e-07
2.1558076e-07
3.7547495e-07
6.4026202e-07
1.0625915e-06
1.7014889e-06
2.5964489e-06
3.7129083e-06
4.8701638e-06
5.7174853e-06
5.856652e-06
5.2692889e-06
4.1933011e-06
3.1684486e-06
2.4568867e-06
2.0605579e-06
2.1740712e-06
2.51373e-06
3.5034868e-06
6.3153956e-06
1.3739181e-05
2.8257758e-05
5.3900041e-05
8.8783758e-05
0.0001281995
0.00016828036
0.00018807544
0.00017510181
0.00016486443
0.00015719861
0.00015324199
0.0001527676
0.00015394159
0.00015840895
0.00016565849
0.00017764068
0.00019387735
0.0002254879
0.00027288721
0.00037942248
0.00054874639
1.4306052e-20
2.7823262e-18
7.4107242e-17
7.5127053e-16
4.5432021e-15
2.0126993e-14
7.2668332e-14
2.2735198e-13
6.4034407e-13
1.6650878e-12
4.0676736e-12
9.4531931e-12
2.1093699e-11
4.5509858e-11
9.5448777e-11
1.9541594e-10
3.918206e-10
7.7134189e-10
1.4937184e-09
2.8493798e-09
5.3588671e-09
9.9403603e-09
1.8183274e-08
3.2775707e-08
5.8128279e-08
1.0118336e-07
1.7222242e-07
2.850571e-07
4.5519003e-07
6.9347905e-07
9.928586e-07
1.3101323e-06
1.5562263e-06
1.6432576e-06
1.5802002e-06
1.4260891e-06
1.240256e-06
1.1392514e-06
1.1966884e-06
1.3999062e-06
1.9199963e-06
3.1164489e-06
6.1211731e-06
1.3025432e-05
2.6256654e-05
5.0046747e-05
8.2111111e-05
0.00011769849
0.00015533935
0.00019255395
0.00018114138
0.00017040111
0.00016181231
0.00015684229
0.00015431384
0.00015407347
0.00015664959
0.00016272871
0.0001703288
0.00018378922
0.00020053988
0.00023292571
0.00028010982
0.00038651859
0.00055793075
6.2329943e-21
1.2122275e-18
3.2287349e-17
3.2730874e-16
1.9792655e-15
8.7677837e-15
3.1652608e-14
9.9013865e-14
2.7881554e-13
7.2479022e-13
1.7698959e-12
4.1110057e-12
9.1667305e-12
1.9758841e-11
4.1389889e-11
8.4603616e-11
1.6928229e-10
3.3235066e-10
6.4135224e-10
1.2178962e-09
2.2771497e-09
4.1922061e-09
7.5943021e-09
1.3518449e-08
2.3591691e-08
4.0223146e-08
6.6665965e-08
1.0666016e-07
1.631758e-07
2.3579671e-07
3.1710961e-07
3.9287979e-07
4.5274378e-07
4.9367702e-07
5.2848437e-07
5.6435233e-07
6.0722624e-07
7.627068e-07
1.077512e-06
1.7171564e-06
3.0165055e-06
5.8294698e-06
1.1940999e-05
2.4051514e-05
4.6199898e-05
7.5435102e-05
0.0001079026
0.00014337549
0.00018007365
0.00018181553
0.00017252957
0.00016446106
0.0001588143
0.00015511551
0.00015368742
0.0001555354
0.00015929795
0.00016600493
0.00017524735
0.00018982388
0.00020724409
0.00024026414
0.0002870102
0.00039816841
0.00057070797
2.4438116e-21
4.7528505e-19
1.2658959e-17
1.2832531e-16
7.7595873e-16
3.4370997e-15
1.2406915e-14
3.8804493e-14
1.0924676e-13
2.8390689e-13
6.9301121e-13
1.6088457e-12
3.5849573e-12
7.7204792e-12
1.615384e-11
3.2970358e-11
6.5843823e-11
1.2895425e-10
2.4807184e-10
4.6920652e-10
8.7288681e-10
1.5968047e-09
2.8697469e-09
5.0582003e-09
8.7213268e-09
1.4656472e-08
2.3893448e-08
3.7570254e-08
5.6639553e-08
8.1650874e-08
1.1274971e-07
1.4925688e-07
1.8982058e-07
2.4136109e-07
3.1630241e-07
4.2264245e-07
6.2552423e-07
9.9086636e-07
1.6384214e-06
2.8684807e-06
5.3703287e-06
1.0779483e-05
2.2106506e-05
4.2481997e-05
6.8962307e-05
9.8921481e-05
0.00013254484
0.00016528561
0.00017572216
0.00016955518
0.00016327392
0.00015834568
0.00015450229
0.00015299783
0.00015366572
0.00015636936
0.00016106289
0.00016961055
0.00017961389
0.00019569053
0.00021403265
0.00024881057
0.00029571451
0.00040976633
0.00058142718
1.0833936e-21
2.1070392e-19
5.6119763e-18
5.6888994e-17
3.4399419e-16
1.5237009e-15
5.5000369e-15
1.7201968e-14
4.842845e-14
1.2585411e-13
3.0721176e-13
7.1322925e-13
1.5894009e-12
3.4233805e-12
7.1645378e-12
1.4628396e-11
2.9230438e-11
5.7296676e-11
1.1036417e-10
2.0914041e-10
3.9016034e-10
7.1666355e-10
1.2957429e-09
2.3041779e-09
4.0251618e-09
6.8969298e-09
1.157259e-08
1.8992136e-08
3.0481664e-08
4.7828353e-08
7.3309815e-08
1.1007114e-07
1.6315743e-07
2.4411833e-07
3.7048884e-07
5.8622146e-07
9.4089232e-07
1.54095e-06