/*--------------------------------*- C++ -*----------------------------------*\
  =========                 |
  \\      /  F ield         | OpenFOAM: The Open Source CFD Toolbox
   \\    /   O peration     | Website:  https://openfoam.org
    \\  /    A nd           | Version:  13
     \\/     M anipulation  |
\*---------------------------------------------------------------------------*/
FoamFile
{
    format      ascii;
    class       volScalarField;
    location    "20.499743";
    object      pMean;
}
// * * * * * * * * * * * * * * * * * * * * * * * * * * * * * * * * * * * * * //

dimensions      [0 2 -2 0 0 0 0];

internalField   nonuniform List<scalar> 
17140
(
2.2314327
2.2312913
2.2311206
2.2309466
2.2307583
2.2305529
2.2303301
2.2300894
2.2298303
2.2295522
2.2292549
2.228938
2.2286012
2.2282439
2.2278646
2.2274611
2.2270289
2.2265607
2.2260451
2.2254649
2.2247949
2.2239998
2.2230314
2.2218247
2.2202935
2.2183323
2.2158371
2.2127195
2.2088977
2.2042791
2.1987346
2.1921045
2.1842092
2.1748414
2.1637694
2.1507454
2.1355183
2.1178549
2.097567
2.0745478
2.048818
2.0205776
1.9902735
1.9586647
1.9268487
1.8963268
1.8688678
1.8460413
1.8294336
1.8204243
1.820002
1.8288509
1.8474388
1.875774
1.9133323
1.9589587
2.0109114
2.066514
2.1238803
2.1789979
2.2307108
2.2716058
2.304653
2.3167672
2.3225301
2.2291768
2.2290383
2.2288712
2.2287008
2.2285164
2.2283151
2.2280968
2.227861
2.227607
2.2273344
2.2270429
2.2267324
2.2264024
2.2260523
2.2256809
2.2252858
2.2248628
2.2244049
2.2239007
2.2233333
2.2226777
2.221899
2.2209491
2.2197637
2.218257
2.2163233
2.2138579
2.210772
2.2069831
2.202397
2.1968835
2.1902823
2.1824137
2.1730699
2.1620186
2.149011
2.1337951
2.1161361
2.0958443
2.0728112
2.0470556
2.0187758
1.9884177
1.9567402
1.9248528
1.8942537
1.8666865
1.8438006
1.8271607
1.8181002
1.8176266
1.8264299
1.8449517
1.8732141
1.9107122
1.9562558
2.00814
2.0637226
2.1211272
2.1763628
2.2282731
2.2694508
2.3028186
2.3152284
2.3215019
2.2239412
2.2238099
2.2236516
2.2234897
2.2233143
2.2231229
2.2229152
2.2226907
2.2224489
2.2221893
2.2219117
2.2216159
2.2213017
2.2209685
2.2206153
2.2202401
2.2198387
2.2194046
2.2189269
2.2183891
2.217767
2.2170262
2.2161195
2.2149835
2.2135336
2.2116638
2.2092672
2.206253
2.2025371
2.1980241
2.1925827
2.186051
2.1782483
2.1689651
2.1579674
2.1450035
2.1298186
2.1121745
2.0918774
2.0688147
2.0430008
2.0146316
1.9841541
1.9523316
1.9202949
1.8895623
1.8618406
1.8388145
1.8220786
1.8129477
1.8123929
1.8210808
1.8394553
1.8675532
1.9048851
1.9502382
2.0019292
2.0573164
2.1146052
2.1698113
2.221839
2.2633797
2.2973365
2.3105301
2.317731
2.2158249
2.2157048
2.2155604
2.2154119
2.2152508
2.215075
2.214884
2.2146773
2.2144546
2.2142154
2.2139595
2.2136869
2.2133975
2.2130908
2.2127662
2.2124217
2.2120538
2.2116566
2.2112198
2.2107277
2.210157
2.2094744
2.208634
2.2075735
2.2062104
2.2044391
2.2021494
2.1992455
2.1956414
2.1912412
2.1859126
2.1794911
2.1717939
2.1626092
2.1516997
2.13881
2.1236804
2.1060675
2.0857715
2.062673
2.0367802
2.008287
1.9776422
1.9456192
1.9133798
1.8824626
1.8545445
1.8313592
1.8145078
1.8052893
1.8046405
1.8131882
1.8313619
1.8592101
1.8962554
1.941249
1.9925381
2.047505
2.1044632
2.1595212
2.2116801
2.2537116
2.2884779
2.3028791
2.311448
2.2050879
2.2049828
2.2048571
2.2047265
2.2045847
2.2044297
2.2042611
2.2040785
2.2038815
2.2036698
2.2034432
2.2032018
2.2029455
2.2026743
2.2023876
2.2020839
2.2017605
2.2014117
2.2010284
2.2005959
2.2000922
2.1994853
2.1987308
2.1977683
2.196518
2.1948761
2.1927281
2.1899698
2.186513
2.1822622
2.1770842
2.1708117
2.1632585
2.15421
2.1434246
2.1306421
2.1155971
2.0980392
2.0777609
2.0546342
2.0286602
2.0000306
1.9691988
1.9369554
1.9045015
1.87338
1.8452635
1.8219355
1.8049946
1.795722
1.7949975
1.8034055
1.821361
1.848917
1.8856018
1.9301471
1.9809211
2.0353276
2.0918301
2.146639
2.1988841
2.2414281
2.2771366
2.2929947
2.3031254
2.1921555
2.1920688
2.1919658
2.1918573
2.1917392
2.1916098
2.1914688
2.1913159
2.1911505
2.1909726
2.190782
2.1905789
2.1903634
2.1901355
2.189895
2.1896409
2.1893709
2.1890802
2.1887606
2.1883986
2.1879737
2.1874556
2.1868017
2.1859541
2.1848358
2.1833468
2.1813685
2.1787868
2.1755083
2.1714372
2.1664415
2.1603525
2.1529786
2.1441019
2.1334765
2.1208366
2.1059103
2.0884393
2.0682068
2.0450753
2.0190384
1.9902863
1.9592789
1.9268301
1.894184
1.8628719
1.8346012
1.8111805
1.7942005
1.7849245
1.7841739
1.7924811
1.810242
1.8374995
1.8737754
1.9177759
1.9679339
2.0216937
2.0776493
2.1321569
2.1844661
2.2275667
2.2642951
2.2818162
2.2935885
2.1776029
2.177537
2.1774591
2.177376
2.1772853
2.1771855
2.1770765
2.1769578
2.1768291
2.1766904
2.1765415
2.1763826
2.176214
2.176036
2.1758484
2.1756506
2.1754408
2.175215
2.174966
2.1746816
2.1743428
2.1739213
2.1733767
2.1726535
2.1716781
2.170355
2.1685654
2.1661855
2.1631092
2.1592391
2.1544494
2.1485715
2.1414065
2.1327334
2.1223017
2.1098406
2.0950712
2.0777268
2.0575806
2.0344854
2.0084274
1.9795959
1.9484604
1.9158615
1.8830763
1.8516333
1.8232791
1.7998196
1.7828524
1.7736198
1.7728892
1.7811431
1.7987563
1.8257629
1.8616794
1.9051568
1.9546649
2.0077705
2.0631995
2.1174331
2.169811
2.2134306
2.2511449
2.2701801
2.2833735
2.1621245
2.1620813
2.1620299
2.1619748
2.1619141
2.1618469
2.1617729
2.161692
2.1616038
2.1615082
2.1614053
2.1612952
2.1611783
2.1610548
2.1609248
2.1607879
2.1606426
2.1604858
2.1603108
2.160107
2.1598566
2.1595335
2.1590995
2.1585021
2.157671
2.1565154
2.1549215
2.1527576
2.1498992
2.1462437
2.1416739
2.1360234
2.1290894
2.1206458
2.1104385
2.0981916
2.0836201
2.0664489
2.0464417
2.0234417
1.9974288
1.9685925
1.9374135
1.9047601
1.8719195
1.8404353
1.8120733
1.7886165
1.7716889
1.7625236
1.7618468
1.7700823
1.787593
1.814414
1.8500458
1.8931073
1.9420227
1.9944898
2.0494224
2.103335
2.1557189
2.1998666
2.2385429
2.2591438
2.2737689
2.1464901
2.1464706
2.1464469
2.1464209
2.1463916
2.1463586
2.1463217
2.1462806
2.146235
2.1461851
2.1461308
2.1460722
2.1460097
2.1459435
2.1458737
2.1458001
2.1457213
2.1456344
2.1455337
2.1454093
2.145245
2.1450164
2.1446878
2.1442096
2.143515
2.1425176
2.1411093
2.1391609
2.1365329
2.1330996
2.1287484
2.123331
2.1166411
2.1084447
2.0984871
2.0864882
2.0721576
2.0552132
2.0354104
2.0125846
1.9867107
1.9579786
1.9268796
1.8943048
1.861529
1.8301176
1.8018288
1.7784162
1.7615457
1.7524523
1.751823
1.7600507
1.7775161
1.8042301
1.8396457
1.8823364
1.930708
1.982591
2.0370999
2.0909756
2.1436965
2.1885336
2.2281369
2.249576
2.2650356
2.1314916
2.1314955
2.1314994
2.1315024
2.1315047
2.131506
2.1315062
2.1315051
2.1315027
2.131499
2.1314939
2.1314876
2.1314803
2.1314721
2.131463
2.1314527
2.1314398
2.1314215
2.1313924
2.1313433
2.1312591
2.1311169
2.1308831
2.1305109
2.129937
2.1290797
2.1278361
2.1260822
2.1236776
2.120477
2.1163455
2.1111467
2.1046997
2.0967667
2.0870815
2.075363
2.0613185
2.0446619
2.0251435
2.0025932
1.9769821
1.9485011
1.9176481
1.8853233
1.8527824
1.8215986
1.7934937
1.7702054
1.753427
1.7443983
1.7438174
1.7520927
1.7695719
1.7962176
1.8314637
1.8738409
1.9217934
1.9733569
2.0277969
2.0817348
2.1345426
2.1796692
2.2193891
2.2409939
2.2570182
2.1178722
2.1178981
2.117928
2.1179586
2.1179907
2.1180247
2.1180605
2.1180979
2.118137
2.1181779
2.1182206
2.1182651
2.1183115
2.1183599
2.1184099
2.1184608
2.1185113
2.1185583
2.1185965
2.1186168
2.1186048
2.1185389
2.1183871
2.1181049
2.1176325
2.116892
2.1157861
2.1141963
2.1119856
2.1090054
2.1051049
2.1001305
2.0939101
2.0862313
2.076835
2.0654321
2.0517274
2.0354337
2.0162992
1.9941516
1.9689607
1.9409182
1.9105266
1.8786684
1.8465886
1.8158428
1.7880986
1.765074
1.7484581
1.739527
1.739009
1.7472652
1.7646753
1.7912068
1.8262602
1.8683306
1.9159093
1.9671814
2.0214131
2.0752106
2.1279569
2.1730438
2.2125011
2.2340143
2.250172
2.1062643
2.1063097
2.1063626
2.1064176
2.1064765
2.1065398
2.1066075
2.1066798
2.1067567
2.1068385
2.106925
2.1070165
2.1071128
2.1072137
2.1073188
2.1074272
2.1075368
2.1076444
2.1077444
2.1078277
2.1078802
2.1078808
2.1077987
2.1075916
2.1072021
2.1065562
2.1055611
2.1041043
2.1020538
2.0992623
2.0955749
2.0908295
2.0848519
2.0774361
2.0683381
2.0572807
2.0439726
2.0281279
2.0094957
1.9879048
1.9633254
1.935948
1.9062717
1.8751483
1.8438011
1.81374
1.7865796
1.7640007
1.7476778
1.7388461
1.7382029
1.7462608
1.7634358
1.7897083
1.8244104
1.8660042
1.9131464
1.9641029
2.0181649
2.0720107
2.1247214
2.1693131
2.2077452
2.2284569
2.243978
2.0971197
2.0971807
2.0972521
2.097327
2.0974077
2.0974951
2.0975894
2.0976908
2.0977997
2.0979162
2.0980404
2.0981725
2.0983124
2.0984597
2.0986139
2.0987737
2.0989368
2.0990996
2.0992562
2.0993973
2.0995086
2.0995696
2.0995504
2.0994098
2.0990926
2.0985276
2.0976257
2.0962801
2.0943652
2.0917378
2.088241
2.0837132
2.0779827
2.0708515
2.0620895
2.0514283
2.0385868
2.0232879
2.0052922
1.984432
1.960679
1.9342177
1.9055287
1.8754371
1.845118
1.8159972
1.7896385
1.7677042
1.7516966
1.7428267
1.7419136
1.7496458
1.7664521
1.7922933
1.8264368
1.8674432
1.9141971
1.9650045
2.0190739
2.0726212
2.1245076
2.1675449
2.2044452
2.2235159
2.2389489
2.0906682
2.0907401
2.0908245
2.0909135
2.0910098
2.0911147
2.0912285
2.0913516
2.0914844
2.0916274
2.0917808
2.0919448
2.0921194
2.0923044
2.0924991
2.0927021
2.0929111
2.0931223
2.0933295
2.0935235
2.0936903
2.0938095
2.093852
2.093778
2.0935338
2.0930501
2.0922409
2.0910027
2.0892161
2.0867463
2.0834501
2.0791259
2.0736565
2.0668385
2.0584493
2.0482396
2.035958
2.0213324
2.0041296
1.9841922
1.9614946
1.9362101
1.9087909
1.8800172
1.8509873
1.823033
1.7976846
1.7764195
1.7606599
1.7516603
1.7504195
1.7576795
1.7739622
1.7991655
1.8325543
1.8729168
1.9192334
1.9698422
2.0235329
2.0763254
2.1264853
2.1675196
2.2020652
2.2197398
2.2346635
2.0868831
2.0869605
2.0870518
2.0871483
2.0872531
2.0873678
2.0874928
2.0876287
2.0877761
2.0879357
2.0881079
2.0882931
2.0884915
2.0887031
2.0889274
2.0891631
2.0894083
2.0896592
2.08991
2.090152
2.0903717
2.0905498
2.0906586
2.0906598
2.0905019
2.0901181
2.089425
2.0883218
2.086692
2.0844017
2.0813124
2.0773162
2.0721527
2.0656132
2.0576629
2.048004
2.0363729
2.0225347
2.0062831
1.9874659
1.9660526
1.9421982
1.9163134
1.8891005
1.861561
1.8349743
1.8106571
1.7900081
1.7744481
1.7652575
1.763569
1.7702636
1.7858534
1.8102009
1.842702
1.8823695
1.9282716
1.9784732
2.0314373
2.0824275
2.1301834
2.1684658
2.2004448
2.2167043
2.231304
2.0855205
2.0855981
2.0856902
2.0857875
2.0858936
2.0860102
2.0861377
2.0862771
2.0864291
2.0865945
2.086774
2.0869683
2.087178
2.0874032
2.087644
2.0878996
2.0881684
2.0884475
2.088732
2.0890144
2.0892826
2.0895192
2.0896991
2.0897873
2.0897352
2.0894796
2.0889398
2.0880171
2.0865961
2.0845482
2.0817362
2.0780211
2.073197
2.0672252
2.0597746
2.050656
2.0398068
2.0269359
2.0118277
1.994336
1.9744289
1.9522344
1.9280974
1.9026288
1.8767585
1.8515466
1.8282248
1.8081506
1.7926849
1.783239
1.781052
1.787072
1.8018026
1.8251566
1.8567277
1.8957329
1.9410288
1.9903858
2.0417102
2.0901763
2.1350086
2.1698254
2.1997344
2.2145289
2.228774
2.086125
2.0861982
2.0862857
2.0863777
2.0864784
2.0865895
2.0867116
2.0868457
2.0869926
2.0871534
2.0873289
2.0875203
2.0877282
2.0879536
2.0881966
2.0884573
2.088735
2.0890278
2.0893322
2.0896425
2.0899491
2.0902377
2.0904869
2.0906663
2.0907334
2.0906307
2.0902825
2.0895948
2.0884557
2.0867365
2.0842994
2.0809931
2.0767043
2.0712491
2.0644204
2.0562323
2.0463035
2.0344885
2.0206771
2.0046999
1.9864991
1.9661505
1.9439215
1.9203519
1.8961533
1.8722883
1.8499261
1.8302923
1.8148534
1.8050981
1.8023617
1.8075954
1.8213327
1.8436719
1.8743333
1.9125829
1.9568943
2.0048474
2.053671
2.0990054
2.1400625
2.1719846
2.1996209
2.2131642
2.2271129
2.088171
2.0882359
2.0883143
2.0883963
2.0884862
2.0885858
2.0886959
2.0888172
2.0889509
2.0890981
2.0892598
2.0894372
2.0896316
2.089844
2.0900754
2.0903264
2.0905973
2.0908875
2.0911952
2.0915169
2.0918464
2.0921731
2.0924813
2.092747
2.092936
2.0930001
2.0928746
2.0924753
2.0916966
2.0904142
2.0884897
2.0857722
2.0821251
2.0773964
2.0714761
2.0641446
2.0553093
2.0448913
2.0325752
2.0182864
2.0019569
1.9835962
1.9634086
1.9417446
1.9191973
1.8966496
1.8750902
1.8558162
1.8403412
1.8302323
1.8268542
1.8311876
1.8439412
1.8652557
1.8949939
1.9322595
1.9754419
2.0209216
2.0665541
2.1080622
2.1454977
2.1746308
2.2003318
2.2126654
2.2262984
2.0910845
2.0911389
2.091205
2.0912737
2.0913495
2.0914338
2.0915273
2.0916309
2.0917457
2.0918727
2.0920132
2.0921685
2.0923399
2.0925289
2.0927367
2.0929648
2.0932142
2.0934855
2.0937786
2.0940923
2.0944234
2.094766
2.0951102
2.0954397
2.0957302
2.0959465
2.0960381
2.0959366
2.0955534
2.0947771
2.0934768
2.0915059
2.0887155
2.0849471
2.0800803
2.073979
2.0665502
2.0575689
2.0469746
2.0346111
2.0203153
2.0040762
1.9859536
1.9661822
1.9452573
1.9238605
1.9030054
1.8839747
1.8683703
1.8578179
1.8537127
1.857109
1.8688029
1.8891457
1.9180975
1.9544093
1.9954815
2.0376386
2.0797383
2.1169344
2.1513624
2.1778947
2.20178
2.2129829
2.226328
2.0943828
2.0944258
2.0944783
2.0945327
2.094593
2.0946603
2.0947352
2.0948187
2.0949116
2.0950151
2.0951303
2.0952586
2.0954012
2.0955598
2.095736
2.0959315
2.0961478
2.0963866
2.0966491
2.0969358
2.0972466
2.0975792
2.0979293
2.0982882
2.098642
2.0989686
2.0992355
2.0993955
2.0993839
2.0991148
2.0984804
2.0973517
2.0955858
2.0930283
2.0895382
2.0849559
2.0791409
2.071995
2.0633704
2.053069
2.0409582
2.0268946
2.0108425
1.992932
1.9734556
1.9530646
1.932743
1.9138595
1.8980128
1.8869386
1.8820086
1.8844128
1.8952959
1.9151069
1.9433337
1.9779244
2.0158279
2.054637
2.0921722
2.1261624
2.1575794
2.1817386
2.2040023
2.2141339
2.2271918
2.0976822
2.0977141
2.0977528
2.0977935
2.0978387
2.0978893
2.097946
2.0980094
2.0980804
2.0981599
2.0982489
2.0983487
2.0984606
2.0985861
2.0987268
2.0988846
2.0990613
2.0992589
2.0994795
2.099725
2.099997
2.1002961
2.1006221
2.1009727
2.1013432
2.1017241
2.1020991
2.1024433
2.1027196
2.1028756
2.1028404
2.1025205
2.101801
2.1005451
2.0986046
2.0958165
2.0920187
2.0870261
2.0806425
2.0726924
2.0629254
2.0511156
2.0371331
2.0209277
2.0027385
1.9831587
1.9632203
1.944338
1.9281974
1.9164945
1.9107796
1.9126088
1.9233162
1.942768
1.9698008
2.0016531
2.0363873
2.0707796
2.1048553
2.1354725
2.164223
2.1862157
2.2069722
2.2160889
2.22888
2.1007629
2.100785
2.1008115
2.10084
2.1008718
2.1009075
2.1009476
2.1009928
2.1010436
2.1011011
2.1011661
2.1012395
2.1013221
2.1014153
2.1015203
2.1016388
2.1017729
2.1019248
2.1020969
2.1022917
2.1025118
2.1027598
2.1030383
2.1033497
2.1036951
2.1040746
2.1044856
2.104922
2.1053729
2.1058202
2.1062337
2.1065682
2.1067591
2.1067137
2.1063085
2.1053834
2.1037438
2.101156
2.097348
2.0920042
2.0847828
2.0753452
2.0633808
2.0487771
2.0317329
2.0128194
1.9931449
1.9741754
1.9574988
1.945284
1.9393678
1.9415058
1.9525213
1.9713037
1.9963967
2.0248657
2.0561032
2.0866575
2.1172768
2.1450046
2.1713213
2.1913059
2.2106861
2.2188434
2.2313841
2.1035325
2.1035462
2.1035627
2.1035805
2.1036006
2.1036232
2.1036487
2.1036782
2.1037121
2.1037497
2.1037901
2.1038346
2.1038857
2.1039462
2.1040186
2.1041036
2.1042009
2.1043113
2.1044361
2.1045776
2.1047396
2.1049266
2.105143
2.1053945
2.1056865
2.1060248
2.1064165
2.1068704
2.1073947
2.1079968
2.108684
2.1094594
2.1103122
2.1112129
2.1120939
2.112835
2.1132442
2.1130374
2.1118465
2.1092223
2.1046548
2.0976177
2.0876976
2.0746963
2.0587384
2.0404023
2.0208147
2.0014328
1.984646
1.9728618
1.9678224
1.9710141
1.9819735
1.999597
2.0215602
2.047564
2.0745236
2.1020106
2.1297173
2.1547744
2.1788665
2.1970089
2.2151241
2.2223761
2.2346848
2.1060203
2.1060263
2.1060336
2.1060415
2.1060501
2.1060601
2.1060723
2.1060868
2.1061037
2.1061234
2.106146
2.1061724
2.106203
2.1062384
2.1062788
2.1063242
2.1063764
2.1064402
2.1065176
2.1066074
2.1067114
2.1068363
2.1069905
2.1071812
2.1074124
2.107691
2.1080317
2.1084529
2.1089756
2.1096254
2.1104323
2.1114414
2.1126921
2.1142008
2.1159658
2.1179306
2.1199376
2.1217096
2.1228174
2.1226719
2.1206013
2.1159219
2.1080368
2.0966186
2.081673
2.0637657
2.0443809
2.0255363
2.0101391
1.9998273
1.9965294
2.0002788
2.0108453
2.0259828
2.0459285
2.0681341
2.0924796
2.1171369
2.1421353
2.1647879
2.186861
2.203309
2.2202707
2.2266708
2.2387684
2.1082359
2.1082339
2.1082316
2.1082293
2.1082269
2.1082246
2.1082226
2.1082214
2.1082222
2.1082252
2.1082286
2.1082302
2.1082303
2.1082309
2.1082346
2.1082446
2.1082642
2.108296
2.108341
2.1083947
2.1084557
2.108531
2.1086291
2.1087573
2.1089242
2.1091411
2.1094242
2.1097979
2.1102924
2.1109431
2.1117946
2.1129014
2.1143279
2.1161338
2.1183689
2.1210312
2.1240128
2.1270713
2.1297887
2.1315447
2.1315551
2.1289475
2.1229566
2.1129476
2.0990292
2.0821903
2.064361
2.047642
2.0343313
2.0264428
2.0242584
2.0280215
2.0373883
2.0511037
2.0682761
2.0881344
2.1098302
2.1319428
2.1545799
2.1750552
2.1952963
2.2101949
2.2261053
2.2317064
2.2436233
2.1101354
2.1101252
2.1101131
2.1101004
2.1100867
2.1100717
2.1100556
2.110039
2.1100221
2.1100047
2.1099864
2.1099669
2.1099472
2.1099294
2.1099147
2.1099033
2.1098943
2.1098866
2.1098833
2.1098898
2.1099108
2.109951
2.1100135
2.1101017
2.1102272
2.1104062
2.1106542
2.1109917
2.111449
2.1120651
2.1128879
2.1139783
2.1154092
2.1172668
2.1196336
2.1225462
2.1259471
2.1296557
2.1333164
2.1362951
2.1377458
2.1366495
2.1320318
2.1235259
2.1115061
2.0969984
2.0817588
2.0678289
2.0575618
2.0513737
2.049577
2.0538338
2.0618945
2.074361
2.0895223
2.1071424
2.1266496
2.1465526
2.1670628
2.1855768
2.204166
2.2176514
2.2326077
2.2374675
2.2492372
2.1113795
2.1113625
2.1113424
2.1113212
2.1112983
2.1112734
2.1112465
2.1112175
2.1111863
2.1111531
2.1111179
2.111081
2.111043
2.1110047
2.1109668
2.1109308
2.1108983
2.110871
2.1108503
2.1108373
2.110835
2.1108474
2.1108785
2.1109326
2.1110208
2.1111632
2.1113796
2.1116863
2.1121052
2.1126769
2.11346
2.1145121
2.1158981
2.1177164
2.1200385
2.1229029
2.1263237
2.1301818
2.1341453
2.1376302
2.1397847
2.1397779
2.1368036
2.130435
2.1208809
2.1093048
2.0972089
2.0866092
2.0787992
2.0735011
2.0733492
2.0773202
2.0851619
2.0959236
2.1095878
2.125444
2.1430296
2.1609639
2.1795986
2.1963564
2.2134599
2.2256624
2.2397555
2.2439282
2.2555927
2.1116884
2.1116682
2.1116445
2.1116194
2.1115923
2.1115629
2.1115311
2.1114968
2.1114601
2.1114211
2.1113798
2.1113364
2.1112914
2.1112452
2.1111986
2.1111524
2.111108
2.1110669
2.1110315
2.1110041
2.1109882
2.1109898
2.1110176
2.1110767
2.1111676
2.1112969
2.1114851
2.1117588
2.1121352
2.1126406
2.113341
2.1142999
2.1155544
2.117162
2.1192266
2.1218572
2.1250704
2.1287924
2.132762
2.1364994
2.1393753
2.1405458
2.1392222
2.1350079
2.1281673
2.1196989
2.1108837
2.1033732
2.0972462
2.0942975
2.095399
2.0992424
2.1062972
2.1162688
2.12874
2.1430599
2.1590036
2.1752275
2.1922059
2.2073957
2.2231673
2.2342131
2.2475317
2.251088
2.2626781
2.1107019
2.1106842
2.1106635
2.1106417
2.110618
2.1105923
2.1105645
2.1105346
2.1105026
2.1104685
2.1104324
2.1103946
2.1103554
2.1103152
2.1102748
2.110235
2.1101969
2.1101619
2.1101321
2.1101096
2.1100972
2.1100987
2.1101193
2.1101652
2.1102451
2.1103686
2.1105464
2.1107979
2.11115
2.1116207
2.1122396
2.1130654
2.1141653
2.1156258
2.1175371
2.1199668
2.1229568
2.1265097
2.1304857
2.1345081
2.13799
2.1401884
2.14043
2.1383381
2.1341726
2.1287138
2.1231192
2.1181755
2.1145215
2.1136244
2.1151617
2.1193431
2.1262837
2.1355576
2.1470354
2.1601012
2.1746431
2.1893728
2.204898
2.2186951
2.2332807
2.2432889
2.2559161
2.2589205
2.2704553
2.1086986
2.1086871
2.1086736
2.1086593
2.108644
2.1086273
2.1086093
2.1085901
2.1085696
2.1085479
2.1085252
2.1085017
2.1084776
2.1084536
2.1084302
2.1084082
2.1083886
2.108373
2.108363
2.108361
2.1083696
2.1083927
2.1084346
2.1085008
2.1085977
2.1087354
2.1089268
2.1091777
2.1094967
2.1099252
2.1105291
2.111354
2.1124175
2.1137837
2.1155801
2.1179163
2.1208487
2.1243924
2.1284502
2.1327261
2.1367332
2.1398668
2.1414911
2.1413535
2.1396488
2.1370678
2.1344228
2.1317735
2.1304556
2.1310196
2.1335961
2.1382361
2.1450724
2.1538972
2.1646197
2.1766429
2.1899964
2.2034352
2.217692
2.2302599
2.2437935
2.2528756
2.2648875
2.2674028
2.2789188
2.1059133
2.1059085
2.1059028
2.1058969
2.1058907
2.105884
2.1058771
2.1058698
2.1058625
2.1058552
2.1058482
2.1058417
2.1058362
2.1058323
2.1058306
2.1058322
2.1058379
2.1058494
2.1058687
2.1058986
2.1059423
2.1060038
2.1060873
2.1061959
2.1063326
2.1065064
2.1067326
2.1070455
2.1074756
2.1080138
2.1086731
2.1095232
2.1106382
2.1120908
2.1139657
2.1163588
2.11935
2.1229774
2.127169
2.1317156
2.1362134
2.1401475
2.1430239
2.1446539
2.1452275
2.1453132
2.1447607
2.1444387
2.1453125
2.1473309
2.1508397
2.1559894
2.1629336
2.1714688
2.1815983
2.1927706
2.2051244
2.2174487
2.2306068
2.2420857
2.2546928
2.2629505
2.2744344
2.2764914
2.2880981
2.1026629
2.1026629
2.1026631
2.1026636
2.1026643
2.1026654
2.1026671
2.1026696
2.102673
2.1026776
2.102684
2.1026924
2.1027036
2.1027182
2.1027374
2.1027622
2.1027944
2.1028359
2.1028892
2.1029574
2.1030445
2.1031536
2.1032888
2.1034548
2.1036677
2.1039539
2.1043147
2.104742
2.1052639
2.1059195
2.10674
2.1077699
2.1090639
2.1106858
2.1127264
2.1152924
2.1184665
2.1222957
2.1267439
2.1316388
2.1366519
2.1413778
2.145413
2.1486346
2.151262
2.1531973
2.1547684
2.1568489
2.1593557
2.162698
2.1671788
2.1729022
2.180024
2.1883943
2.1980824
2.2085632
2.2200795
2.2314472
2.2436553
2.2541745
2.2659785
2.2734945
2.2845411
2.2861675
2.2979212
2.0988752
2.0988784
2.0988824
2.098887
2.0988924
2.0988989
2.0989068
2.0989163
2.0989278
2.0989417
2.0989587
2.0989794
2.0990047
2.0990358
2.099074
2.099121
2.099179
2.0992505
2.0993389
2.0994481
2.0995823
2.099748
2.099954
2.1002103
2.1005269
2.1009117
2.1013792
2.1019482
2.1026413
2.1034862
2.1045164
2.1057703
2.1072988
2.1091865
2.1115269
2.1144097
2.1179283
2.1221419
2.1270162
2.1324042
2.1380212
2.1435741
2.1486623
2.1533296
2.1575291
2.161326
2.1650814
2.1687984
2.1728388
2.1774419
2.1828402
2.1891422
2.1965133
2.2048162
2.2141775
2.2240997
2.2349176
2.2454655
2.2568561
2.2665333
2.2776477
2.2844905
2.2951934
2.2964164
2.3083602
2.0942867
2.0942928
2.0943003
2.0943088
2.0943187
2.0943303
2.0943441
2.0943605
2.0943799
2.094403
2.0944307
2.094464
2.0945039
2.0945522
2.0946104
2.094681
2.0947666
2.0948705
2.094997
2.0951509
2.0953382
2.0955675
2.0958464
2.0961838
2.096593
2.0970886
2.0976889
2.0984155
2.0992913
2.1003422
2.1016027
2.1031298
2.1049934
2.1072661
2.1100422
2.1134255
2.1175044
2.1223217
2.1278108
2.1338462
2.1401986
2.1465
2.1526828
2.1587278
2.164571
2.1700757
2.1753573
2.1806169
2.1860264
2.19176
2.1980263
2.2049034
2.2125556
2.220857
2.2299832
2.2394547
2.2496905
2.2595372
2.2702245
2.2791672
2.2896859
2.2959456
2.306359
2.3072283
2.3193965
2.0884708
2.0884813
2.0884941
2.0885083
2.0885247
2.0885437
2.0885659
2.0885917
2.088622
2.0886576
2.0886996
2.0887492
2.0888079
2.0888777
2.0889607
2.0890599
2.0891785
2.0893206
2.089491
2.0896957
2.0899416
2.0902373
2.0905931
2.0910209
2.0915369
2.0921581
2.0929014
2.0937904
2.0948575
2.0961451
2.0977034
2.099593
2.1018901
2.1046886
2.108091
2.1121936
2.1170604
2.1226886
2.1289896
2.1358461
2.1429588
2.150199
2.1576836
2.1650981
2.1722704
2.1791414
2.1858564
2.1924616
2.1990865
2.2058517
2.2129203
2.2203455
2.2282925
2.2366366
2.2455942
2.2547004
2.2644497
2.2736956
2.2837778
2.2920778
2.3020909
2.3078275
2.318022
2.3185729
2.3309881
2.0810604
2.0810775
2.0810983
2.0811212
2.0811472
2.081177
2.0812114
2.0812509
2.0812966
2.0813496
2.0814112
2.0814829
2.0815666
2.0816647
2.0817798
2.0819153
2.0820749
2.0822636
2.0824872
2.0827515
2.0830652
2.0834401
2.0838867
2.0844173
2.0850477
2.0858001
2.0867045
2.0877931
2.0891068
2.0906982
2.0926346
2.0949992
2.0978889
2.1014092
2.1056591
2.1107093
2.1165759
2.1232047
2.1305067
2.1382736
2.1463585
2.1549347
2.1636032
2.1721694
2.1805188
2.188694
2.1966731
2.2044811
2.212196
2.2198869
2.227686
2.2356218
2.2438572
2.2522662
2.2611004
2.2699053
2.2792432
2.2879709
2.2975298
2.3052789
2.3148399
2.3201418
2.3301413
2.3304369
2.3430824
2.0717846
2.0718108
2.0718426
2.071877
2.071916
2.0719603
2.0720108
2.0720684
2.0721343
2.0722098
2.0722966
2.0723965
2.0725119
2.0726455
2.0728
2.0729772
2.073184
2.0734297
2.0737179
2.0740524
2.0744431
2.0749033
2.0754486
2.076096
2.0768659
2.077786
2.0788915
2.0802282
2.0818553
2.0838478
2.0862974
2.0893106
2.0930014
2.0974768
2.1028111
2.109028
2.1160918
2.1239172
2.1323477
2.141193
2.1506823
2.160452
2.1701914
2.1798566
2.1894226
2.1987882
2.2079221
2.2168129
2.2255003
2.2340178
2.2424714
2.2508682
2.2593703
2.2678488
2.276585
2.2851325
2.2941149
2.3023957
2.3114993
2.3187674
2.3279405
2.3328766
2.3427034
2.3427598
2.3557056
2.0603913
2.0604289
2.0604741
2.0605231
2.0605782
2.0606408
2.0607115
2.0607914
2.0608816
2.0609824
2.0610951
2.0612252
2.0613804
2.0615594
2.0617591
2.0619861
2.0622493
2.0625549
2.0629109
2.0633257
2.0638094
2.064375
2.0650405
2.0658288
2.0667691
2.0679
2.0692721
2.070951
2.0730204
2.0755833
2.0787587
2.0826719
2.0874403
2.0931461
2.0998109
2.1074138
2.1158566
2.125003
2.1346625
2.1449941
2.1557716
2.1665906
2.1774785
2.1883502
2.1990664
2.2095464
2.2197356
2.2295976
2.2391473
2.2483911
2.2574159
2.2662123
2.274943
2.283478
2.2921233
2.3004431
2.3091091
2.3169932
2.3256934
2.3325509
2.3413853
2.3460448
2.3556855
2.3557578
2.3686475
2.0469338
2.0469847
2.0470435
2.0471038
2.0471708
2.0472532
2.0473544
2.047466
2.0475818
2.047709
2.0478551
2.0480226
2.0482142
2.0484335
2.0486849
2.0489731
2.0493033
2.0496814
2.0501156
2.0506184
2.0512048
2.0518933
2.052708
2.053681
2.0548547
2.0562852
2.0580457
2.0602293
2.0629494
2.0663359
2.0705255
2.0756411
2.0817744
2.0889511
2.0971502
2.1062989
2.1161944
2.1266891
2.1379177
2.149676
2.1615865
2.1736405
2.18576
2.1977798
2.2095968
2.2211137
2.232261
2.2429864
2.253288
2.2631547
2.2726602
2.2817854
2.2906921
2.299254
2.3077974
2.3158977
2.3242677
2.331795
2.3401245
2.3466232
2.3551404
2.3595877
2.3690329
2.3689917
2.3818594
2.0315186
2.0315866
2.0316571
2.0317285
2.0318125
2.0319096
2.0320202
2.032146
2.0322898
2.0324556
2.0326485
2.0328719
2.0331235
2.0333989
2.0337017
2.0340433
2.0344335
2.0348809
2.0353964
2.0359943
2.0366936
2.0375189
2.0385034
2.0396915
2.0411425
2.0429342
2.0451669
2.0479646
2.0514718
2.0558447
2.0612328
2.0677468
2.0754497
2.0843305
2.0942924
2.1051381
2.1167315
2.1290727
2.141979
2.1550714
2.1683441
2.181723
2.195048
2.2082025
2.2210716
2.2335515
2.2455657
2.2570529
2.2680016
2.2783906
2.2882864
2.2976636
2.306687
2.3152368
2.3236554
2.331535
2.3396155
2.3468102
2.3547951
2.36099
2.3692132
2.3736131
2.3828544
2.3834767
2.397039
2.0140562
2.0141358
2.0142318
2.0143353
2.0144492
2.0145759
2.0147171
2.0148746
2.0150502
2.0152465
2.015466
2.0157121
2.0159885
2.0163
2.0166523
2.0170528
2.0175106
2.0180376
2.0186492
2.0193661
2.0202154
2.0212339
2.0224706
2.0239906
2.0258793
2.0282452
2.0312218
2.0349646
2.0396417
2.0454168
2.0524191
2.0607197
2.0703312
2.0811222
2.0929733
2.1056953
2.1192532
2.133397
2.1477358
2.1622949
2.1769956
2.191673
2.2062083
2.220473
2.2343462
2.2477219
2.2605193
2.2726738
2.2841687
2.2949805
2.305167
2.314709
2.3237711
2.3322479
2.3404934
2.3481222
2.3558927
2.3627532
2.3703874
2.3762986
2.3842074
2.3886405
2.3974191
2.3996452
2.4099242
1.9963886
1.996482
1.9965962
1.9967142
1.9968443
1.9969892
1.9971502
1.9973292
1.9975284
1.9977506
1.9979989
1.9982771
1.9985902
1.9989439
1.9993461
1.9998066
2.0003383
2.0009587
2.0016907
2.0025651
2.0036234
2.0049207
2.0065299
2.0085453
2.0110859
2.0142963
2.0183434
2.023406
2.0296566
2.037235
2.0462165
2.0566208
2.0683148
2.0811539
2.0950429
2.1096711
2.1248928
2.1403991
2.1562115
2.1722194
2.1882473
2.2041623
2.2198243
2.2350959
2.2498533
2.2639886
2.2774213
2.2900882
2.3019721
2.3130514
2.3233842
2.33296
2.3419444
2.3502576
2.3582488
2.3655822
2.3729903
2.3795153
2.3867619
2.3924261
2.3999978
2.40444
2.4129434
2.4155992
2.4254163
1.9807253
1.9808283
1.980954
1.9810836
1.9812261
1.9813844
1.98156
1.9817548
1.9819714
1.9822128
1.9824828
1.9827863
1.9831292
1.9835195
1.9839676
1.9844872
1.9850967
1.985821
1.9866932
1.9877576
1.9890736
1.9907182
1.9927915
1.9954185
1.998751
2.0029643
2.0082476
2.0147871
2.02274
2.0322037
2.0432028
2.0556553
2.0693915
2.0843827
2.0999881
2.1162106
2.1329049
2.149967
2.1672466
2.1845736
2.2018107
2.2188081
2.2354214
2.2515125
2.2669579
2.2816534
2.2955225
2.3085075
2.3205933
2.331766
2.3420843
2.3515558
2.3603443
2.3684033
2.3760659
2.3830602
2.3900667
2.3962573
2.4030905
2.4085589
2.415734
2.4203383
2.4283677
2.4320777
2.4408701
1.9699985
1.970106
1.9702368
1.9703716
1.9705195
1.9706836
1.9708654
1.9710671
1.9712917
1.9715427
1.9718248
1.9721439
1.972508
1.9729276
1.9734168
1.9739944
1.9746861
1.9755259
1.9765597
1.9778479
1.9794697
1.9815264
1.9841451
1.9874798
1.991709
1.9970282
2.0036333
2.0116983
2.0213455
2.0326193
2.0454714
2.059755
2.0753926
2.0917649
2.1087546
2.1265267
2.1446879
2.1630749
2.1815514
2.1999672
2.2181691
2.2360041
2.2533237
2.2699901
2.2858828
2.3009034
2.3149812
2.328066
2.3401468
2.3512214
2.3613511
2.3705663
2.3790288
2.3867286
2.3939762
2.4005736
2.407126
2.4129638
2.4193559
2.42463
2.4314024
2.43612
2.4437588
2.4479548
2.4564087
1.9658044
1.9659114
1.9660411
1.966175
1.9663217
1.9664844
1.9666648
1.9668654
1.9670896
1.9673417
1.9676275
1.9679544
1.9683329
1.9687767
1.9693045
1.9699416
1.9707216
1.9716899
1.9729059
1.9744474
1.9764139
1.97893
1.982147
1.9862415
1.9914094
1.9978521
2.0057569
2.0152692
2.0264638
2.0393248
2.0537406
2.0695608
2.0864011
2.1039907
2.1225326
2.1414889
2.160736
2.180128
2.1995053
2.2187098
2.2375812
2.2559605
2.2736981
2.290659
2.3067281
2.3218148
2.3358541
2.3488047
2.3606629
2.3714363
2.3811992
2.3900022
2.3980055
2.4052382
2.411981
2.4181135
2.4241591
2.4296131
2.4355399
2.4406141
2.4469856
2.4518339
2.4591082
2.4639839
2.4721273
1.9702559
1.9703575
1.9704791
1.9706063
1.9707455
1.9709001
1.9710718
1.9712637
1.9714794
1.9717245
1.9720057
1.9723328
1.9727185
1.9731806
1.9737427
1.9744369
1.9753059
1.9764061
1.977811
1.9796147
1.9819355
1.9849174
1.9887303
1.9935651
1.9996238
2.007102
2.0161647
2.0269191
2.0393899
2.0535068
2.0691118
2.0859802
2.1038418
2.1226197
2.1419364
2.1616512
2.1815925
2.2015946
2.2214919
2.2411157
2.2602982