/*--------------------------------*- C++ -*----------------------------------*\
  =========                 |
  \\      /  F ield         | OpenFOAM: The Open Source CFD Toolbox
   \\    /   O peration     | Website:  https://openfoam.org
    \\  /    A nd           | Version:  13
     \\/     M anipulation  |
\*---------------------------------------------------------------------------*/
FoamFile
{
    format      ascii;
    class       volSymmTensorField;
    location    "26.996512";
    object      UPrime2Mean;
}
// * * * * * * * * * * * * * * * * * * * * * * * * * * * * * * * * * * * * * //

dimensions      [0 2 -2 0 0 0 0];

internalField   nonuniform List<symmTensor> 
17140
(
(5.6249208e-12 -3.6980206e-10 -1.4602857e-27 2.5911636e-08 2.556141e-26 7.9349951e-41)
(3.4306028e-10 -4.5796035e-09 -7.0303771e-28 2.4743532e-07 5.8224161e-27 7.0500325e-43)
(3.0081756e-09 -1.697861e-08 1.170148e-25 7.5289369e-07 -6.2246532e-25 3.0734234e-39)
(1.4187567e-08 -4.382659e-08 -2.5305463e-25 1.6244315e-06 9.6742263e-25 3.714403e-39)
(4.7670569e-08 -9.3842994e-08 5.1121133e-26 2.9611338e-06 -1.496348e-25 5.0763315e-41)
(1.3117044e-07 -1.7920196e-07 -2.6716693e-25 4.8812672e-06 6.227984e-25 5.4374179e-40)
(3.163612e-07 -3.1634952e-07 -6.8230017e-25 7.5244291e-06 1.2968225e-24 1.5411801e-39)
(6.9462037e-07 -5.2683639e-07 4.8704429e-25 1.1053388e-05 -7.6681712e-25 3.6733523e-40)
(1.4213206e-06 -8.3803635e-07 2.2687403e-24 1.5655257e-05 -2.9917667e-24 3.9355359e-39)
(2.7524178e-06 -1.2835051e-06 7.7511301e-24 2.1541593e-05 -8.6350154e-24 2.3676699e-38)
(5.0983021e-06 -1.9026052e-06 -1.5737374e-23 2.8946859e-05 1.4910117e-23 5.2062936e-38)
(9.1012561e-06 -2.7388714e-06 1.8939061e-23 3.8124557e-05 -1.5338132e-23 4.1349435e-38)
(1.5744189e-05 -3.8364245e-06 3.8704856e-24 4.9340215e-05 -2.6899636e-24 9.6872858e-40)
(2.6499181e-05 -5.2335602e-06 -2.8915787e-23 6.2860353e-05 1.7313958e-23 3.0986893e-38)
(4.3524341e-05 -6.9526078e-06 4.2069652e-24 7.8936554e-05 -2.1748602e-24 3.8198313e-40)
(6.9915681e-05 -8.9852806e-06 -4.3319696e-23 9.778394e-05 1.9380745e-23 2.396766e-38)
(0.00011001625 -1.1273332e-05 2.0780958e-24 0.00011955374 -8.0649046e-25 3.319512e-41)
(0.00016977717 -1.3685504e-05 -6.0150235e-25 0.00014430033 2.0142421e-25 1.6620201e-42)
(0.00025715371 -1.5993712e-05 -5.3957742e-23 0.00017194411 1.5760903e-23 8.3598507e-39)
(0.0003825075 -1.7854142e-05 8.83729e-23 0.00020223289 -2.2433078e-23 1.4016717e-38)
(0.00055897635 -1.8801917e-05 -5.3371768e-23 0.00023470628 1.1771834e-23 3.2368064e-39)
(0.00080277424 -1.8269879e-05 1.2634116e-23 0.00026866959 -2.4266452e-24 1.1715769e-40)
(0.0011334042 -1.5640201e-05 1.1479542e-22 0.00030318671 -1.91344e-23 6.3061276e-39)
(0.0015738427 -1.0330594e-05 -1.3962965e-22 0.00033710599 2.0220368e-23 6.2025764e-39)
(0.0021509408 -1.9026629e-06 -2.6837111e-22 0.00036913808 3.3750039e-23 1.5527874e-38)
(0.0028957725 9.8553166e-06 2.5765409e-22 0.00039800916 -2.814406e-23 9.8984045e-39)
(0.003843816 2.4993775e-05 1.4988812e-21 0.00042269814 -1.4201604e-22 2.3570012e-37)
(0.0050384176 4.3351448e-05 2.0747754e-22 0.00044269703 -1.7025516e-23 3.2316494e-39)
(0.0065323678 6.4643265e-05 -2.1151145e-21 0.00045816512 1.5071755e-22 2.4645552e-37)
(0.0083881353 8.9343995e-05 -5.7173772e-22 0.00046988167 3.5290702e-23 1.3365404e-38)
(0.010681745 0.00011775252 -2.3403637e-21 0.00047891854 1.2519954e-22 1.6932165e-37)
(0.013503553 0.00014965826 3.5128329e-21 0.00048609014 -1.6273589e-22 2.9264947e-37)
(0.016960688 0.00018551442 -1.0398054e-21 0.00049179568 4.1565327e-23 1.9867221e-38)
(0.021177469 0.00022597429 -5.6058872e-22 0.00049607719 1.9327536e-23 4.5462509e-39)
(0.026295948 0.00027196662 -6.2060188e-21 0.00049872411 1.8291437e-22 4.4119228e-37)
(0.032475231 0.00032460598 3.0464324e-21 0.00049939287 -7.6586867e-23 8.5478422e-38)
(0.039888771 0.00038519906 -5.1221099e-21 0.00049772338 1.0860536e-22 1.9544155e-37)
(0.048718125 0.00045529583 -3.8459037e-21 0.00049342014 6.8122205e-23 9.0157951e-38)
(0.059141244 0.0005367085 -1.9440716e-21 0.00048636384 2.8335345e-23 1.9026917e-38)
(0.071313017 0.00063168865 6.4553431e-21 0.00047681693 -7.6241908e-23 1.7570325e-37)
(0.085336488 0.0007427854 1.3286001e-20 0.00046566927 -1.2344129e-22 6.2791434e-37)
(0.10122558 0.0008725776 1.3057701e-20 0.00045448198 -9.1872925e-23 5.1757392e-37)
(0.11886318 0.0010222886 6.1308966e-21 0.00044511812 -3.0723388e-23 9.8512463e-38)
(0.13796982 0.0011902382 -3.1931394e-20 0.00043909401 1.0064652e-22 2.3240864e-36)
(0.15809808 0.0013696887 -2.4780973e-20 0.00043713285 3.6392754e-23 1.2345462e-36)
(0.17864212 0.0015460089 6.4112892e-21 0.00043912286 5.1364325e-25 7.3890589e-38)
(0.1989621 0.0017017032 -4.5553319e-20 0.00044467894 -6.9907888e-23 3.3765247e-36)
(0.21849894 0.0018249232 -1.6042805e-20 0.00045402634 -4.6789363e-23 3.8433213e-37)
(0.23665924 0.0019084719 1.6810991e-20 0.0004684381 7.1482152e-23 3.9307683e-37)
(0.25325132 0.001950839 4.1989232e-20 0.0004888002 2.3285944e-22 2.317755e-36)
(0.26805575 0.0019592586 -2.6167064e-20 0.00051635935 -1.7802143e-22 8.6413974e-37)
(0.28088807 0.001955959 -1.6583783e-20 0.00055387224 -1.3331151e-22 3.3840805e-37)
(0.29144295 0.0019823759 4.3061684e-20 0.00060477216 4.0144552e-22 2.2605949e-36)
(0.29961835 0.002073546 2.0095642e-20 0.0006722395 2.1418042e-22 4.9604577e-37)
(0.3052877 0.0022376708 1.4011189e-20 0.00076211412 1.688097e-22 2.4763123e-37)
(0.30870459 0.0024684066 -1.0695588e-20 0.00088709788 -1.4392059e-22 1.503515e-37)
(0.31022558 0.0027511315 2.7650816e-20 0.0010634907 4.1061175e-22 1.0772139e-36)
(0.30974265 0.0030428147 2.1958099e-20 0.0013076278 3.5332951e-22 7.4070055e-37)
(0.30690346 0.0032539591 5.1606326e-21 0.0016193844 8.7556215e-23 4.58849e-38)
(0.30075434 0.0032596914 -1.2377393e-20 0.0019642987 -2.1182627e-22 3.0159555e-37)
(0.29011627 0.002976806 -8.8381169e-21 0.0022592264 -1.4375746e-22 1.8324797e-37)
(0.27473053 0.0023758413 -2.9473086e-20 0.002422908 -4.139291e-22 2.4936122e-36)
(0.25272633 0.0014792566 -3.8183888e-21 0.0024930252 -4.0628156e-23 5.3437434e-38)
(0.22786921 0.00040526478 2.8057842e-20 0.0026733756 1.7645769e-22 3.7739621e-36)
(0.1928374 -0.0004689334 -1.8217367e-20 0.0031102222 -6.5287586e-23 2.2554593e-36)
(2.1705487e-10 -5.0964189e-09 1.8613439e-27 1.1972219e-07 -3.7132366e-26 6.4260279e-42)
(3.3947092e-09 -6.1535306e-08 -6.3569902e-25 1.1336659e-06 1.0062012e-23 8.4594719e-38)
(1.5173097e-08 -2.2366412e-07 1.0974275e-24 3.4238455e-06 -1.4252544e-23 6.698987e-38)
(4.7292543e-08 -5.7093258e-07 -5.0078578e-25 7.3268245e-06 5.4244634e-24 4.978687e-39)
(1.2132712e-07 -1.2153181e-06 -1.6035592e-24 1.3233735e-05 1.4716147e-23 2.1246147e-38)
(2.7600242e-07 -2.3169565e-06 4.5285786e-24 2.1590733e-05 -3.5623351e-23 7.7572798e-38)
(5.780844e-07 -4.0990396e-06 -6.7521138e-24 3.2896282e-05 4.5865262e-23 8.4292766e-38)
(1.1390042e-06 -6.8656677e-06 8.2978616e-25 4.7693419e-05 -4.8915068e-24 6.5289257e-40)
(2.1400841e-06 -1.1023317e-05 -3.5510813e-24 6.6555009e-05 1.8232686e-23 6.3635709e-39)
(3.8698865e-06 -1.7104569e-05 -8.1385509e-26 9.0059929e-05 3.6491694e-25 1.8179561e-42)
(6.7784381e-06 -2.579251e-05 -2.1374841e-23 0.00011875821 8.3916446e-23 7.0922886e-38)
(1.1554338e-05 -3.7942944e-05 4.4881229e-23 0.00015312335 -1.5453553e-22 1.7902759e-37)
(1.9231977e-05 -5.4599951e-05 4.8580049e-24 0.00019349135 -1.4692022e-23 1.2208035e-39)
(3.1336903e-05 -7.6998314e-05 -6.2367735e-23 0.00023998775 1.658683e-22 1.1883691e-37)
(5.0077225e-05 -0.00010654443 2.474489e-23 0.00029244716 -5.7924017e-23 1.1194391e-38)
(7.8587397e-05 -0.00014476627 2.0177508e-23 0.00035033403 -4.1597634e-23 4.5045747e-39)
(0.00012122639 -0.00019322339 -1.6338806e-22 0.00041267849 2.9674279e-22 1.8067701e-37)
(0.00018392533 -0.00025337237 6.751302e-22 0.00047804603 -1.0803573e-21 1.9087844e-36)
(0.00027456921 -0.00032639215 -5.3282797e-22 0.00054456268 7.5115157e-22 7.437709e-37)
(0.0004033859 -0.00041298953 7.9944634e-22 0.00061001477 -9.9251633e-22 1.059422e-36)
(0.00058330738 -0.00051322704 -1.4683617e-21 0.00067203248 1.6046804e-21 2.2907805e-36)
(0.00083026932 -0.00062643651 4.4419139e-22 0.00072834535 -4.27052e-22 1.3622598e-37)
(0.0011634337 -0.00075129281 2.2396139e-22 0.00077707154 -1.8930696e-22 2.2854094e-38)
(0.0016053885 -0.00088611229 -8.8891318e-22 0.00081697727 6.6006073e-22 2.4108827e-37)
(0.00218256 -0.0010294032 3.844569e-21 0.00084764124 -2.5068842e-21 3.0778011e-36)
(0.0029256429 -0.0011804562 6.8459841e-22 0.00086949434 -3.9168722e-22 6.7627788e-38)
(0.0038696371 -0.0013395945 -4.1868648e-21 0.00088370665 2.1031528e-21 1.7954008e-36)
(0.0050573298 -0.0015085167 5.5022025e-21 0.00089179186 -2.425685e-21 2.234484e-36)
(0.0065409648 -0.0016899216 -8.7765164e-22 0.00089554193 3.3991981e-22 4.1944102e-38)
(0.0083821713 -0.0018859291 -9.941859e-21 0.00089720313 3.37844e-21 3.9953167e-36)
(0.010655985 -0.0020988444 1.1812223e-21 0.00089855586 -3.5250258e-22 4.2868874e-38)
(0.013451479 -0.0023309951 1.0345579e-20 0.00090029847 -2.7066803e-21 2.5153306e-36)
(0.016874154 -0.0025833828 2.9962921e-22 0.00090225272 -6.8392658e-23 1.5971511e-39)
(0.021046266 -0.0028559163 -9.9012449e-21 0.00090368291 1.9867386e-21 1.4090057e-36)
(0.026107262 -0.0031471947 1.243065e-20 0.00090359218 -2.1797152e-21 1.7667037e-36)
(0.032212875 -0.0034542275 -6.2745974e-21 0.00090093063 9.5962172e-22 3.6124912e-37)
(0.03953218 -0.0037717339 8.2224581e-21 0.00089471768 -1.0955263e-21 5.0514561e-37)
(0.048240976 -0.0040910002 2.9047697e-20 0.00088412432 -3.3624155e-21 5.1582876e-36)
(0.058509658 -0.004398493 7.1926162e-21 0.00086865702 -7.2159774e-22 2.6121214e-37)
(0.070483259 -0.004674353 3.0852169e-20 0.00084851667 -2.6755451e-21 4.0248572e-36)
(0.084252334 -0.0048915313 -4.3091944e-20 0.00082509419 3.2167292e-21 6.6475009e-36)
(0.099815661 -0.0050168337 -4.3050465e-20 0.00080129204 2.7492051e-21 5.6559483e-36)
(0.11703877 -0.0050152246 -7.963622e-21 0.00078154484 4.3164406e-22 1.6601053e-37)
(0.13562315 -0.004857548 6.785611e-20 0.00077158467 -3.086267e-21 1.0610916e-35)
(0.15509774 -0.0045305072 -3.4169734e-20 0.00077796927 1.2837383e-21 2.367229e-36)
(0.17483863 -0.0040488585 -1.2497035e-20 0.0008070691 3.7931246e-22 2.8280778e-37)
(0.19416612 -0.0034586602 6.972015e-21 0.00086334599 -1.6516027e-22 8.056475e-38)
(0.2124873 -0.0028201435 2.2614163e-20 0.0009460725 -3.962998e-22 7.7597937e-37)
(0.22935252 -0.0021990515 -1.137822e-20 0.0010456922 1.3510525e-22 1.8350144e-37)
(0.24446053 -0.0016366737 2.1056918e-20 0.0011490956 -1.3886272e-22 5.9495508e-37)
(0.2576149 -0.0011226599 1.2825079e-19 0.0012461823 -2.1614047e-22 2.1257983e-35)
(0.26863211 -0.00062266859 6.1421829e-21 0.0013350887 1.8674091e-23 4.7804955e-38)
(0.27732155 -0.00010990159 -2.7552422e-20 0.001423987 -2.0535105e-22 9.5557484e-37)
(0.28361545 0.0004221315 6.0454213e-20 0.0015227428 7.2043395e-22 4.6565901e-36)
(0.28766476 0.00094792391 -5.0430285e-20 0.0016438948 -8.2739421e-22 3.3411738e-36)
(0.28982736 0.0014437429 1.384275e-19 0.0018023161 2.8930821e-21 2.6469969e-35)
(0.29051418 0.0019382014 3.7821456e-20 0.0020138153 9.6534529e-22 2.1201115e-36)
(0.28980593 0.0024459719 -1.0075949e-19 0.0022968963 -3.0318077e-21 1.6561841e-35)
(0.28735232 0.0029661242 1.6041811e-20 0.0026550366 5.5849782e-22 4.7126666e-37)
(0.28214167 0.0034149735 1.6868179e-20 0.0030531361 6.5664654e-22 6.0708002e-37)
(0.27274714 0.0037146489 3.0723329e-21 0.0033894141 1.3029033e-22 2.424395e-38)
(0.25889655 0.0037418853 -3.662391e-20 0.0035881925 -1.6483967e-21 4.259462e-36)
(0.23814168 0.0034480232 6.2521877e-20 0.0036765949 2.9142284e-21 1.6144536e-35)
(0.21458574 0.0030612701 1.6211956e-20 0.0039092795 7.8267462e-22 1.4468291e-36)
(0.17973339 0.0022871206 2.223695e-20 0.004366298 1.1890566e-21 3.9961715e-36)
(1.7908842e-09 -2.5579972e-08 2.7306416e-25 3.653795e-07 -3.6802825e-24 1.9531798e-38)
(2.043128e-08 -2.6565861e-07 -4.4251813e-25 3.4570774e-06 5.4505475e-24 7.7279227e-39)
(7.2727315e-08 -8.7006015e-07 -2.0407294e-25 1.0433477e-05 2.3015694e-24 5.4661184e-40)
(1.8502489e-07 -2.027055e-06 2.9481956e-25 2.231086e-05 -3.0414339e-24 4.9145571e-40)
(3.9860553e-07 -3.9913265e-06 -2.0481151e-24 4.0266125e-05 1.9337755e-23 1.1541223e-38)
(7.7904461e-07 -7.1122378e-06 -2.1083323e-25 6.5635777e-05 1.8221257e-24 6.3806742e-41)
(1.4287063e-06 -1.186066e-05 -3.636984e-24 9.9904247e-05 2.8739476e-23 1.0419011e-38)
(2.5050912e-06 -1.8861254e-05 -5.2041277e-24 0.00014467555 3.7535449e-23 1.2095529e-38)
(4.2477012e-06 -2.8930707e-05 5.5762804e-23 0.00020162206 -3.663762e-22 8.0800274e-37)
(7.016539e-06 -4.3119748e-05 -6.4655499e-23 0.00027240382 3.8617781e-22 6.4413361e-37)
(1.1346482e-05 -6.2756216e-05 3.9878549e-23 0.00035855192 -2.1609762e-22 1.4750655e-37)
(1.8022803e-05 -8.9484227e-05 7.4864865e-23 0.00046131071 -3.6734823e-22 3.1663326e-37)
(2.8184113e-05 -0.00012529178 -1.8925011e-22 0.00058143732 8.3929601e-22 1.2447411e-36)
(4.3459633e-05 -0.00017251581 -2.9744281e-23 0.00071896371 1.1900666e-22 1.9060837e-38)
(6.614752e-05 -0.00023381016 1.4519245e-22 0.00087293662 -5.2315658e-22 2.8389329e-37)
(9.9439623e-05 -0.00031206026 1.2576285e-22 0.0010411659 -4.0736532e-22 1.3395156e-37)
(0.00014769452 -0.00041022885 -1.8305861e-22 0.0012200292 5.3209684e-22 1.7970784e-37)
(0.00021675478 -0.0005311237 8.2857078e-22 0.0014043994 -2.1573016e-21 2.3471135e-36)
(0.00031429599 -0.00067709394 -6.0960146e-22 0.0015877713 1.4191009e-21 8.163782e-37)
(0.00045018598 -0.00084968804 3.7353252e-22 0.0017626598 -7.7599417e-22 1.9850622e-37)
(0.00063682586 -0.0010493439 -1.5515901e-21 0.0019213067 2.8712745e-21 2.241888e-36)
(0.00088944695 -0.0012752208 -4.9411344e-22 0.0020566599 8.1298269e-22 1.5044371e-37)
(0.0012263526 -0.0015253042 1.2531302e-21 0.0021634872 -1.8300216e-21 6.48828e-37)
(0.001669148 -0.0017969009 -2.2757783e-21 0.0022393726 2.944808e-21 1.4548193e-36)
(0.0022431712 -0.0020875904 -1.0732749e-21 0.0022852906 1.2286148e-21 2.2319697e-37)
(0.0029780859 -0.0023963463 1.5284598e-21 0.0023055313 -1.5466535e-21 3.1898446e-37)
(0.0039076523 -0.0027239899 1.02264e-20 0.0023068196 -9.1350872e-21 1.0192018e-35)
(0.0050731762 -0.0030739021 5.4086373e-21 0.0022962867 -4.2623979e-21 2.0707285e-36)
(0.0065253324 -0.0034513149 -3.1247642e-21 0.002280228 2.172752e-21 5.1317002e-37)
(0.0083235704 -0.003860998 3.8632362e-21 0.0022642613 -2.3665052e-21 5.8576338e-37)
(0.010540246 -0.0043078418 -2.7584337e-21 0.0022520771 1.4895307e-21 2.2931079e-37)
(0.013260952 -0.004796266 -1.7848594e-20 0.0022446216 8.4762285e-21 7.3718772e-36)
(0.016586836 -0.0053286665 6.7819615e-21 0.0022408441 -2.8309373e-21 8.3144055e-37)
(0.020634676 -0.0059054023 2.2891322e-20 0.0022385834 -8.3877088e-21 7.4722818e-36)
(0.025537034 -0.0065244458 -8.5781985e-21 0.0022352296 2.7573215e-21 8.4142013e-37)
(0.031440899 -0.0071807091 -1.3485496e-20 0.0022280514 3.7944774e-21 1.6705234e-36)
(0.038504134 -0.0078646483 2.6087516e-20 0.0022142457 -6.4193354e-21 5.086802e-36)
(0.046888081 -0.0085600832 8.8608668e-21 0.0021909756 -1.9037133e-21 4.8089035e-37)
(0.056744488 -0.0092414574 -1.7397334e-20 0.0021556272 3.2602623e-21 1.5458701e-36)
(0.068194623 -0.0098710875 -7.6688733e-21 0.0021065402 1.2504708e-21 2.5241667e-37)
(0.081299501 -0.01039742 4.0394373e-20 0.0020441586 -5.710052e-21 5.9152278e-36)
(0.096022517 -0.010756889 -1.2409336e-20 0.0019726447 1.5132372e-21 4.8155172e-37)
(0.11218918 -0.010881359 -1.9463456e-20 0.0019015602 2.0371276e-21 1.0209796e-36)
(0.1294583 -0.010712087 -5.5905731e-20 0.0018472257 4.9750384e-21 7.3491816e-36)
(0.14731463 -0.01021862 1.1333732e-19 0.0018324526 -8.4629086e-21 2.6795554e-35)
(0.16510424 -0.0094227146 -7.7697177e-20 0.0018832573 4.7833496e-21 1.1293513e-35)
(0.18216012 -0.0084132746 -2.062897e-20 0.002019834 1.024526e-21 7.2082839e-37)
(0.19791597 -0.0073134438 -8.4822781e-20 0.0022411194 3.2685956e-21 1.1316722e-35)
(0.21196991 -0.0062344582 -1.0494737e-19 0.0025163767 2.9848413e-21 1.625883e-35)
(0.22409697 -0.0052528935 -5.4646331e-21 0.002800368 1.0759174e-22 4.1767493e-38)
(0.23421279 -0.004371856 2.3431976e-20 0.0030552778 -2.4761599e-22 7.4558765e-37)
(0.24224738 -0.0035465171 -1.7274345e-19 0.0032717557 3.5478889e-22 4.0067853e-35)
(0.24814753 -0.0027479501 -7.3218552e-20 0.0034708421 -4.2462154e-22 7.2154216e-36)
(0.25197388 -0.0019985365 -7.4070609e-20 0.0036807099 -1.0026636e-21 7.5342888e-36)
(0.25406386 -0.0013535694 -2.3713606e-20 0.0039221465 -5.1029997e-22 8.0301407e-37)
(0.25488616 -0.00084073204 -1.7666045e-19 0.0042046815 -5.1538648e-21 4.7351587e-35)
(0.2549632 -0.00039192154 6.693808e-20 0.0045290112 2.5115713e-21 7.3689233e-36)
(0.25439602 9.3345248e-05 -1.9140855e-20 0.0048999906 -8.7657011e-22 6.7357566e-37)
(0.25266658 0.00073314912 -1.464237e-19 0.0053080782 -8.0148664e-21 4.4840311e-35)
(0.24869864 0.0014895589 -5.3411789e-20 0.0057049635 -3.411638e-21 7.0276608e-36)
(0.24066118 0.0022871129 5.7290613e-20 0.0059682598 4.1617191e-21 9.9160121e-36)
(0.22836803 0.0029530382 1.7482122e-19 0.0060277892 1.4149062e-20 1.1705988e-34)
(0.20864903 0.0033076754 -4.8226411e-20 0.0059221186 -4.2879208e-21 1.193979e-35)
(0.18720346 0.0037297751 -6.623317e-20 0.0060197174 -6.5418271e-21 3.102423e-35)
(0.15347599 0.0032838375 -2.2877834e-20 0.0062590568 -2.6399108e-21 5.6917996e-36)
(7.0988573e-09 -7.2177165e-08 -1.7915055e-24 7.3386004e-07 1.7693402e-23 2.1904882e-37)
(7.3357242e-08 -7.1377434e-07 5.9566404e-24 6.945819e-06 -5.6307801e-23 4.017403e-37)
(2.4042451e-07 -2.2449662e-06 -3.570965e-24 2.096908e-05 3.2250766e-23 5.2526991e-38)
(5.6250688e-07 -5.021462e-06 5.6669966e-25 4.4856611e-05 -4.8786406e-24 6.2082475e-40)
(1.1168996e-06 -9.5053343e-06 -1.5433562e-23 8.0990362e-05 1.2644984e-22 2.4266708e-37)
(2.0157838e-06 -1.6302103e-05 2.1282115e-23 0.00013208176 -1.6564222e-22 2.5983149e-37)
(3.4207694e-06 -2.6196505e-05 -4.2094225e-23 0.00020115095 3.1043487e-22 5.9800111e-37)
(5.5631985e-06 -4.0194209e-05 2.5422255e-23 0.000291473 -1.7710625e-22 1.3241491e-37)
(8.7726684e-06 -5.9570015e-05 1.2271105e-22 0.00040647808 -8.0492445e-22 1.9146411e-36)
(1.3516282e-05 -8.5919374e-05 -3.7149205e-23 0.00054959204 2.286627e-22 1.1074106e-37)
(2.0452132e-05 -0.00012120946 -1.7712826e-22 0.00072400338 1.0195725e-21 1.6070118e-36)
(3.0501243e-05 -0.00016782316 6.7391962e-23 0.00093234454 -3.6151478e-22 1.498442e-37)
(4.4942983e-05 -0.00022858617 5.5901763e-24 0.0011762828 -2.7850713e-23 6.6980165e-40)
(6.5539237e-05 -0.00030676305 -2.7154593e-22 0.0014560281 1.2522023e-21 1.0267786e-36)
(9.4692668e-05 -0.0004060047 1.0506702e-21 0.0017697864 -4.469256e-21 1.0051319e-35)
(0.00013564307 -0.00053022676 -7.9628897e-22 0.0021132186 3.1138972e-21 3.7877818e-36)
(0.00019270361 -0.00068340052 -9.3524956e-24 0.0024789985 3.3508003e-23 3.4368272e-40)
(0.00027153417 -0.00086924562 6.6739037e-22 0.0028566101 -2.183398e-21 1.1570531e-36)
(0.00037944367 -0.0010908351 -2.078865e-21 0.0032325503 6.1892606e-21 7.4502255e-36)
(0.00052570639 -0.0013501545 1.1997229e-21 0.003591097 -3.239649e-21 1.6561772e-36)
(0.00072187419 -0.0016477085 2.1797607e-21 0.0039157513 -5.3209721e-21 3.6741482e-36)
(0.00098206855 -0.0019823159 1.0706935e-21 0.0041913121 -2.3550416e-21 6.0056019e-37)
(0.0013232488 -0.0023512668 -6.3867482e-21 0.0044063152 1.2619555e-20 1.4649051e-35)
(0.0017654857 -0.002750994 -4.0027479e-21 0.0045553268 7.0837236e-21 3.9880309e-36)
(0.0023324155 -0.0031783526 3.079016e-21 0.0046403841 -4.8680089e-21 1.6612777e-36)
(0.0030520215 -0.0036322684 -2.1267912e-21 0.0046709809 2.9960886e-21 5.642168e-37)
(0.0039561963 -0.0041143106 9.3529322e-21 0.0046622961 -1.172011e-20 7.918267e-36)
(0.0050838891 -0.0046298245 -3.1342566e-21 0.0046309284 3.4872863e-21 6.5403369e-37)
(0.0064831256 -0.0051866056 9.7844908e-21 0.0045904916 -9.654318e-21 4.7655696e-36)
(0.0082100586 -0.0057921745 -6.3664848e-21 0.0045520553 5.563506e-21 1.5303751e-36)
(0.010332745 -0.0064539769 4.5159429e-21 0.0045227986 -3.4891546e-21 5.9000803e-37)
(0.012931262 -0.0071784 -1.8863366e-20 0.0045045377 1.2873369e-20 8.0168786e-36)
(0.016099882 -0.0079690881 3.0702857e-21 0.0044951767 -1.8483687e-21 1.6740912e-37)
(0.019946758 -0.0088266019 -1.8321548e-20 0.004490499 9.7128142e-21 4.7220314e-36)
(0.024593642 -0.0097479603 1.9724688e-20 0.0044853919 -9.2002892e-21 4.3970688e-36)
(0.03017394 -0.010725564 7.0902882e-21 0.0044743452 -2.9051502e-21 4.576328e-37)
(0.036828276 -0.01174513 -9.8386181e-20 0.0044514107 3.5400154e-20 7.2588969e-35)
(0.044696095 -0.012782515 -2.8532296e-20 0.004410123 8.9996738e-21 5.0356786e-36)
(0.05390147 -0.013799782 2.611954e-20 0.0043438722 -7.2117117e-21 3.5276525e-36)
(0.064531243 -0.014741318 -2.8218318e-20 0.0042471709 6.8050225e-21 3.4690138e-36)
(0.076605108 -0.015531744 7.9583621e-21 0.0041180628 -1.6703478e-21 2.3362663e-37)
(0.090039586 -0.016078846 5.4069953e-20 0.0039619179 -9.8490334e-21 9.3173001e-36)
(0.10461129 -0.016284782 -2.7049547e-21 0.0037962885 4.2546442e-22 2.0417411e-38)
(0.11993327 -0.016066991 -2.1102814e-20 0.0036550187 2.8340003e-21 1.0789249e-36)
(0.13545618 -0.01538781 1.0901512e-20 0.0035885535 -1.2287531e-21 2.5949179e-37)
(0.15053196 -0.014291998 -5.8937314e-21 0.0036563861 5.5722808e-22 6.5386732e-38)
(0.16456009 -0.01292283 -1.7602061e-20 0.0039040839 1.3506312e-21 5.4936432e-37)
(0.17706204 -0.011471583 2.8084698e-19 0.0043281617 -1.7032049e-20 1.311476e-34)
(0.18778312 -0.010106139 -3.2361937e-20 0.0048601363 1.4671267e-21 1.6451597e-36)
(0.19666416 -0.0089225135 3.0494608e-20 0.0054003313 -9.8181931e-22 1.4028561e-36)
(0.20374884 -0.0079074819 -2.8940904e-19 0.0058687293 5.6792937e-21 1.2336833e-34)
(0.20905571 -0.0069925958 1.5841433e-19 0.0062491955 -1.2439524e-21 3.6730365e-35)
(0.21261956 -0.006152542 1.2894707e-19 0.0065886516 4.8663699e-22 2.4588235e-35)
(0.21461011 -0.0054403865 1.2039317e-19 0.0069457499 1.8113882e-21 2.209342e-35)
(0.21547729 -0.0049346494 1.1218446e-19 0.0073539153 2.9574667e-21 2.0163774e-35)
(0.21576847 -0.0046469928 1.6845371e-19 0.0078104622 6.3942308e-21 4.883612e-35)
(0.21595887 -0.0044404986 -3.1871165e-19 0.0082872868 -1.6023641e-20 1.9193512e-34)
(0.21600537 -0.0041140277 1.8340953e-19 0.0087602256 1.1599754e-20 7.1608214e-35)
(0.21508551 -0.0034366092 2.5648121e-19 0.0091933865 1.9780113e-20 1.6269828e-34)
(0.21196832 -0.0023796501 -1.7095972e-19 0.0095177071 -1.5761615e-20 8.6756388e-35)
(0.20445455 -0.0010384215 -4.8583892e-20 0.0095907675 -5.2215772e-21 8.7812545e-36)
(0.19269484 0.00038372916 -3.6988508e-20 0.009343648 -4.5408002e-21 6.6602258e-36)
(0.172795 0.0014208231 1.6031129e-19 0.0088908247 2.2515756e-20 1.7253668e-34)
(0.15214714 0.0026057899 9.8337781e-20 0.0086582966 1.5894549e-20 9.3113855e-35)
(0.11992539 0.0026363704 -3.3456324e-21 0.0085054229 -6.5456453e-22 1.8076245e-37)
(1.9109836e-08 -1.498851e-07 2.0880848e-24 1.1756027e-06 -1.6096406e-23 1.0860722e-37)
(1.8954151e-07 -1.4527192e-06 -1.417302e-23 1.1134448e-05 1.0666266e-22 8.672685e-37)
(5.9902057e-07 -4.4885557e-06 1.8739756e-23 3.363584e-05 -1.3739486e-22 5.7653258e-37)
(1.3478849e-06 -9.8508454e-06 -1.0115173e-23 7.2004853e-05 7.2131315e-23 8.2357346e-38)
(2.5708548e-06 -1.8286811e-05 -4.9290467e-24 0.00013011299 3.4136645e-23 1.0752292e-38)
(4.4509255e-06 -3.0739005e-05 5.5383328e-23 0.00021238676 -3.7187813e-22 7.9650452e-37)
(7.2358313e-06 -4.8386292e-05 -1.79192e-23 0.00032378383 1.1639346e-22 5.112356e-38)
(1.1259819e-05 -7.2689208e-05 -4.786329e-23 0.00046971778 2.9995204e-22 2.3064933e-37)
(1.697294e-05 -0.00010543996 -4.5663878e-24 0.00065591087 2.7528493e-23 1.3589552e-39)
(2.4979614e-05 -0.00014881283 -4.7864839e-23 0.00088815203 2.7670951e-22 9.8167332e-38)
(3.608913e-05 -0.00020541009 8.2209127e-23 0.0011719351 -4.5423734e-22 1.9271776e-37)
(5.1381082e-05 -0.00027829561 -6.9789369e-23 0.0015119558 3.6728356e-22 9.3223891e-38)
(7.2289371e-05 -0.00037100512 -3.1325941e-22 0.0019114541 1.5646009e-21 1.267718e-36)
(0.00010070835 -0.00048751785 -1.1077616e-23 0.0023714077 5.2314064e-23 1.0720993e-39)
(0.00013912492 -0.00063217131 3.5338375e-22 0.0028896133 -1.5718167e-21 7.432822e-37)
(0.00019077944 -0.00080949929 3.0361292e-22 0.0034597443 -1.2668847e-21 3.7361379e-37)
(0.00025985708 -0.0010239751 -3.1662209e-22 0.0040705283 1.2343468e-21 2.7715421e-37)
(0.00035170903 -0.0012796539 3.6720003e-23 0.0047052727 -1.3318247e-22 2.5573025e-39)
(0.00047309973 -0.0015797283 9.0309356e-22 0.0053420123 -3.0342737e-21 1.0568993e-36)
(0.00063247371 -0.0019260502 1.327525e-21 0.0059545865 -4.1137868e-21 1.5705684e-36)
(0.00084023452 -0.0023187225 -1.8224757e-21 0.0065148601 5.1859715e-21 2.0467632e-36)
(0.0011090311 -0.0027559219 -2.197468e-21 0.0069961102 5.7169734e-21 2.0714006e-36)
(0.0014540569 -0.0032341479 3.5270296e-21 0.0073772106 -8.3536873e-21 3.746304e-36)
(0.0018933826 -0.0037490638 -5.1790947e-21 0.0076468051 1.112159e-20 5.7269719e-36)
(0.0024484375 -0.0042970266 -1.0585309e-20 0.0078062619 2.0529818e-20 1.7156599e-35)
(0.0031448688 -0.0048771428 2.9216456e-20 0.0078701975 -5.0999934e-20 9.5042319e-35)
(0.0040124254 -0.0054922245 -1.8710151e-20 0.0078640254 2.9303918e-20 2.8726843e-35)
(0.0050868058 -0.0061496897 3.2036076e-20 0.0078173975 -4.4896727e-20 6.2909491e-35)
(0.006412175 -0.0068598925 -4.5947276e-20 0.0077543571 5.7488161e-20 9.8055582e-35)
(0.0080409358 -0.0076336046 5.8562143e-20 0.0076938033 -6.5273054e-20 1.2218041e-34)
(0.010035229 -0.0084806236 -6.8776965e-20 0.0076482662 6.8149433e-20 1.3085798e-34)
(0.012467948 -0.0094090972 1.3077476e-20 0.0076214673 -1.149985e-20 3.7213799e-36)
(0.015424314 -0.010423717 5.0894125e-20 0.0076103549 -3.9644695e-20 4.4645992e-35)
(0.019001235 -0.011524904 -3.219011e-20 0.0076080958 2.2182265e-20 1.4316983e-35)
(0.023306453 -0.012708285 1.124321e-20 0.00760612 -6.8450197e-21 1.4143852e-36)
(0.028455935 -0.013963254 3.6432196e-21 0.0075949228 -1.9580563e-21 1.2196475e-37)
(0.034568569 -0.015270276 4.9989581e-20 0.0075639397 -2.367112e-20 1.8789517e-35)
(0.041756742 -0.016596835 1.8022565e-20 0.0075013136 -7.5124997e-21 2.0245879e-36)
(0.050111304 -0.017892532 2.0018032e-20 0.0073944231 -7.3302872e-21 2.0908243e-36)
(0.059679477 -0.019084508 2.161989e-20 0.0072319521 -6.9444928e-21 2.0770349e-36)
(0.070436029 -0.02007549 -1.199803e-19 0.0070080663 3.3688143e-20 5.4768961e-35)
(0.082250451 -0.020748523 5.7026324e-20 0.0067295523 -1.3939598e-20 1.0699961e-35)
(0.094856738 -0.020982604 9.8417407e-21 0.0064251933 -2.0865221e-21 2.7422521e-37)
(0.10783895 -0.020681804 -1.2052982e-19 0.006154101 2.1893048e-20 3.6906983e-35)
(0.12064987 -0.019817784 -6.4865958e-20 0.0060068369 1.0010547e-20 9.5550429e-36)
(0.13270891 -0.01848058 3.3484073e-20 0.0060902127 -4.3314885e-21 2.3221135e-36)
(0.14355127 -0.016886006 1.2711209e-19 0.0064808914 -1.344631e-20 3.0758016e-35)
(0.15288088 -0.01528871 -5.705253e-20 0.0071611888 4.844744e-21 5.8228068e-36)
(0.1606287 -0.013891008 1.7079057e-19 0.0080044065 -1.1015247e-20 4.9598394e-35)
(0.1668764 -0.012771967 9.4147918e-20 0.0088327081 -4.3847787e-21 1.4593582e-35)
(0.17171784 -0.011870753 1.3045922e-19 0.0095154222 -3.950683e-21 2.7595867e-35)
(0.17517866 -0.011085074 3.4848009e-19 0.010041111 -4.8733498e-21 1.9727469e-34)
(0.1773152 -0.010402559 -2.6508146e-19 0.010502177 -3.3103058e-22 1.1659209e-34)
(0.17835969 -0.0099175652 8.4228507e-20 0.011000074 1.4667956e-21 1.2238807e-35)
(0.17882628 -0.0097271862 -1.3919371e-19 0.011580289 -4.4220378e-21 3.5594342e-35)
(0.17925946 -0.0098078054 -1.2577045e-19 0.012219654 -6.0341896e-21 3.1604121e-35)
(0.17996791 -0.0099311491 -4.6183118e-20 0.012847476 -3.0201033e-21 4.7570705e-36)
(0.18064835 -0.0097794606 -3.8998548e-19 0.013397359 -3.2197482e-20 3.8818881e-34)
(0.18011529 -0.0090266049 -9.5746456e-20 0.013800029 -9.8064488e-21 2.7696385e-35)
(0.17701273 -0.0075919261 1.9664067e-19 0.013954783 2.4517028e-20 1.4333415e-34)
(0.16888487 -0.0056402359 6.5332602e-20 0.013724803 9.750951e-21 2.0364672e-35)
(0.15651336 -0.003371329 -4.2002851e-20 0.013010765 -7.3227926e-21 1.1346875e-35)
(0.13581783 -0.0015787089 -7.2356029e-20 0.012118454 -1.4731511e-20 4.8508952e-35)
(0.11496569 0.00017994632 -9.2110008e-20 0.011408538 -2.2325803e-20 1.1762553e-34)
(0.085523268 0.00064536427 5.2722435e-21 0.010732094 1.582766e-21 6.8412544e-37)
(4.032683e-08 -2.5613959e-07 9.4659938e-24 1.6268953e-06 -5.9433864e-23 1.0082808e-36)
(3.9201687e-07 -2.4588874e-06 6.7429502e-24 1.5423247e-05 -4.1744218e-23 9.0989643e-38)
(1.2162575e-06 -7.5310009e-06 -8.7367914e-24 4.6632678e-05 5.3232552e-23 5.967088e-38)
(2.6816941e-06 -1.6369299e-05 -4.5489416e-23 9.9925028e-05 2.7251577e-22 8.1381111e-37)
(5.0057156e-06 -3.0079199e-05 3.3209651e-23 0.00018076293 -1.9540859e-22 2.4439118e-37)
(8.4694122e-06 -5.0016966e-05 -6.1678662e-23 0.00029542847 3.5601049e-22 5.0653979e-37)
(1.3435322e-05 -7.7832646e-05 3.3690754e-23 0.0004510083 -1.9044131e-22 9.4890594e-38)
(2.036951e-05 -0.00011551394 9.9709807e-24 0.00065531123 -5.508564e-23 5.3870741e-39)
(2.9869912e-05 -0.00016543068 -6.9309196e-23 0.00091669032 3.733799e-22 1.7275502e-37)
(4.2701835e-05 -0.00023037414 -1.8188596e-22 0.0012437356 9.5307788e-22 8.0336414e-37)
(5.9842419e-05 -0.00031358543 -1.1059153e-23 0.0016448004 5.6214366e-23 2.0271406e-39)
(8.2535882e-05 -0.00041876381 4.3602239e-22 0.0021273262 -2.1435434e-21 2.1788419e-36)
(0.00011236165 -0.00055004321 -7.246585e-22 0.0026969376 3.434762e-21 4.1796954e-36)
(0.00015131772 -0.00071192226 1.4028429e-21 0.0033563044 -6.389172e-21 1.0928532e-35)
(0.00020192151 -0.0009091313 -4.3898777e-22 0.0041038072 1.9142315e-21 7.4888772e-37)
(0.00026733054 -0.0011464195 1.1159845e-21 0.0049321025 -4.6412964e-21 3.3934957e-36)
(0.00035148478 -0.0014282514 -1.6131904e-21 0.0058267871 6.3728054e-21 4.9820817e-36)
(0.00045927254 -0.001758413 1.2519097e-21 0.0067654536 -4.6773983e-21 2.1113743e-36)
(0.00059672109 -0.0021395527 -2.3608022e-22 0.0077175521 8.3041829e-22 5.2983534e-38)
(0.00077121379 -0.0025727198 -1.1417032e-21 0.0086455284 3.7629931e-21 8.7627491e-37)
(0.00099173721 -0.0030570137 3.3020286e-21 0.0095076456 -1.0147721e-20 5.2055964e-36)
(0.001269164 -0.0035895065 -5.5293716e-21 0.01026265 1.5764941e-20 1.0427864e-35)