/*--------------------------------*- C++ -*----------------------------------*\
  =========                 |
  \\      /  F ield         | OpenFOAM: The Open Source CFD Toolbox
   \\    /   O peration     | Website:  https://openfoam.org
    \\  /    A nd           | Version:  13
     \\/     M anipulation  |
\*---------------------------------------------------------------------------*/
FoamFile
{
    format      ascii;
    class       volVectorField;
    location    "20.597078";
    object      U;
}
// * * * * * * * * * * * * * * * * * * * * * * * * * * * * * * * * * * * * * //

dimensions      [0 1 -1 0 0 0 0];

internalField   nonuniform List<vector> 
17140
(
(-4.3135333e-06 0.00029045743 2.0552875e-23)
(-1.8995818e-05 0.00090079391 2.2792484e-24)
(-4.3471656e-05 0.0015743518 -1.5029244e-22)
(-8.0653859e-05 0.0023143703 1.6517904e-22)
(-0.00013394138 0.0031239727 -1.9304281e-23)
(-0.0002076591 0.0040061174 6.3182373e-23)
(-0.0003071736 0.0049635249 1.0634971e-22)
(-0.00043900948 0.0059985845 -5.1829072e-23)
(-0.00061109444 0.007113243 -1.6966902e-22)
(-0.00083300237 0.0083088759 -4.1592657e-22)
(-0.0011162367 0.0095861408 6.1590761e-22)
(-0.0014745321 0.010944812 -5.4817636e-22)
(-0.001924181 0.0123836 -8.3928968e-23)
(-0.0024843692 0.013899948 4.723622e-22)
(-0.0031775055 0.015489833 -5.2358448e-23)
(-0.0040295201 0.017147544 4.1282084e-22)
(-0.0050700961 0.018865482 -1.5152568e-23)
(-0.0063327846 0.020633974 3.5529406e-24)
(-0.0078549387 0.022441111 2.3993078e-22)
(-0.0096773791 0.02427265 -3.0757667e-22)
(-0.011843687 0.026111955 1.4667201e-22)
(-0.014399001 0.027940018 -2.7256051e-23)
(-0.017388171 0.029735524 -1.9874121e-22)
(-0.020853173 0.031474996 1.9395195e-22)
(-0.02482973 0.033133077 3.0011689e-22)
(-0.029343354 0.03468325 -2.3197076e-22)
(-0.034405424 0.036099643 -1.09433e-21)
(-0.040010512 0.037360953 -1.2418447e-22)
(-0.0461366 0.038456749 1.0073072e-21)
(-0.052749676 0.039393671 2.2159997e-22)
(-0.059812445 0.040196282 7.2742898e-22)
(-0.067293285 0.040900227 -8.7812469e-22)
(-0.07517009 0.041542411 2.1520955e-22)
(-0.083428205 0.042154449 9.5260286e-23)
(-0.092056424 0.042760963 9.1276939e-22)
(-0.10104441 0.043380678 -3.8628015e-22)
(-0.11038234 0.044028079 5.8120054e-22)
(-0.12006213 0.044714679 3.9556686e-22)
(-0.13007969 0.045449621 1.8462492e-22)
(-0.14043809 0.046239341 -5.7000877e-22)
(-0.15115095 0.047086396 -1.110265e-21)
(-0.16224447 0.047987789 -1.0416951e-21)
(-0.17375979 0.048932615 -4.7034468e-22)
(-0.185754 0.049900912 2.3854634e-21)
(-0.19829626 0.050861395 1.8099389e-21)
(-0.21145813 0.051768458 -4.6034562e-22)
(-0.22531322 0.052563229 3.2353288e-21)
(-0.23994782 0.053176868 1.1380183e-21)
(-0.25546238 0.053526817 -1.1998913e-21)
(-0.2719756 0.053512462 -3.0421415e-21)
(-0.2896295 0.053006832 1.9417914e-21)
(-0.30860082 0.051851465 1.2772875e-21)
(-0.32908391 0.049847352 -3.442868e-21)
(-0.3513089 0.046763428 -1.6961665e-21)
(-0.37536413 0.042313958 -1.2617638e-21)
(-0.40120397 0.036172512 1.0272362e-21)
(-0.42816812 0.027931899 -2.9393655e-21)
(-0.45556662 0.017183057 -2.5527007e-21)
(-0.48171915 0.0033422306 -6.6363073e-22)
(-0.50621534 -0.014191298 1.7646802e-21)
(-0.52350309 -0.03500762 1.3630973e-21)
(-0.52927898 -0.059175843 4.9961494e-21)
(-0.50180092 -0.083474185 6.4120348e-22)
(-0.43570419 -0.10021307 -4.3503048e-21)
(-0.29466603 -0.095768687 1.6092587e-21)
(-1.7003891e-05 0.00040830489 -5.8780102e-24)
(-5.8513354e-05 0.0012652973 7.8941669e-22)
(-0.00011186238 0.0022104586 -7.0245877e-22)
(-0.0001805158 0.0032486297 1.9140053e-22)
(-0.00026769968 0.0043846165 3.954311e-22)
(-0.00037773884 0.005623027 -7.5548262e-22)
(-0.00051593542 0.0069681574 7.8706637e-22)
(-0.00068869323 0.0084238481 -6.9235629e-23)
(-0.00090374418 0.0099933034 2.1604028e-22)
(-0.0011703872 0.011678881 3.7188705e-24)
(-0.0014997529 0.013481842 7.1987513e-22)
(-0.0019050919 0.015402063 -1.1415452e-21)
(-0.0024020861 0.017437708 -9.4136217e-23)
(-0.00300917 0.019584853 9.2633337e-22)
(-0.0037478497 0.021837078 -2.8312326e-22)
(-0.0046429946 0.024185026 -1.7890723e-22)
(-0.0057230688 0.026615938 1.1297753e-21)
(-0.007020256 0.029113182 -3.6497202e-21)
(-0.0085704157 0.0316558 2.2621719e-21)
(-0.010412787 0.034218102 -2.6789659e-21)
(-0.012589336 0.036769324 3.8989143e-21)
(-0.015143629 0.03927342 -9.3881621e-22)
(-0.018119085 0.041689043 -3.7853222e-22)
(-0.021556496 0.043969901 1.2111975e-21)
(-0.025490782 0.046065862 -4.227669e-21)
(-0.029947163 0.047925633 -6.1396402e-22)
(-0.034937369 0.049502385 3.0258712e-21)
(-0.040457038 0.050763577 -3.232416e-21)
(-0.046485868 0.051703627 4.0605883e-22)
(-0.052991871 0.052352454 3.8151918e-21)
(-0.059939505 0.052770621 -3.5903267e-22)
(-0.067298143 0.05303119 -2.6170214e-21)
(-0.075045866 0.05320084 -7.1763691e-23)
(-0.083167581 0.053330922 1.723965e-21)
(-0.09165113 0.053458052 -1.8435899e-21)
(-0.10048474 0.05360854 8.1477826e-22)
(-0.10965656 0.053802718 -9.3982799e-22)
(-0.11915571 0.054057758 -3.0289735e-21)
(-0.12897444 0.054388958 -6.9480154e-22)
(-0.13911069 0.054809578 -2.7778704e-21)
(-0.14957145 0.055329098 3.6640517e-21)
(-0.16037455 0.055950542 3.5046755e-21)
(-0.17155051 0.056667954 6.307025e-22)
(-0.18314327 0.057464232 -5.1501976e-21)
(-0.19520596 0.058305911 2.5476513e-21)
(-0.20778907 0.05914215 9.2054e-22)
(-0.22094162 0.059912436 -5.0298475e-22)
(-0.23471939 0.060550226 -1.6355737e-21)
(-0.24918332 0.060975418 8.2853654e-22)
(-0.26440265 0.061092015 -1.5649654e-21)
(-0.28045484 0.06077933 -9.7121118e-21)
(-0.29743128 0.059884904 -4.718502e-22)
(-0.31540811 0.058209113 2.244719e-21)
(-0.33445296 0.055500034 -5.2711225e-21)
(-0.354441 0.051408713 4.6672592e-21)
(-0.37509658 0.045503408 -1.3893446e-20)
(-0.39548405 0.037249502 -4.1893231e-21)
(-0.41474277 0.026200511 1.2204229e-20)
(-0.4312562 0.01178564 -2.1407424e-21)
(-0.44502393 -0.0068993478 -2.491944e-21)
(-0.45080586 -0.030513322 -5.041151e-22)
(-0.44503871 -0.06058695 6.8328616e-21)
(-0.41086857 -0.094899446 -1.1415653e-20)
(-0.3432543 -0.1266007 -2.9836494e-21)
(-0.20279309 -0.13746539 -2.2024965e-21)
(-3.6238457e-05 0.000521308 -3.2365285e-22)
(-0.00011767373 0.0016148604 2.3919847e-22)
(-0.00021456726 0.0028205237 6.3624814e-23)
(-0.00033039271 0.0041447846 -6.0290147e-23)
(-0.0004684506 0.0055941098 2.9223163e-22)
(-0.00063305152 0.0071747456 2.1802811e-23)
(-0.00082941453 0.0088925711 2.775654e-22)
(-0.0010637775 0.010752907 2.989918e-22)
(-0.0013436036 0.012760275 -2.4400331e-21)
(-0.0016777982 0.014918109 2.17653e-21)
(-0.0020769503 0.017228414 -1.0402091e-21)
(-0.002553596 0.019691362 -1.5222449e-21)
(-0.003122504 0.022304826 3.0116132e-21)
(-0.0038009726 0.025063839 3.7236234e-22)
(-0.0046091266 0.027959996 -1.4300925e-21)
(-0.0055701919 0.030980785 -9.7902492e-22)
(-0.0067107197 0.034108866 1.1287192e-21)
(-0.0080607172 0.037321321 -4.0571298e-21)
(-0.0096536263 0.040588888 2.3748455e-21)
(-0.011526075 0.043875228 -1.1632424e-21)
(-0.013717301 0.047136275 3.8671161e-21)
(-0.01626813 0.050319739 9.908279e-22)
(-0.019219376 0.053364937 -2.026365e-21)
(-0.022609548 0.056203253 2.9852221e-21)
(-0.026471834 0.058759904 1.149322e-21)
(-0.030830542 0.060958366 -1.3249715e-21)
(-0.035697611 0.062729498 -7.2716545e-21)
(-0.041070253 0.06402704 -3.1552043e-21)
(-0.046931099 0.064846832 1.4573616e-21)
(-0.053251901 0.065238674 -1.5086159e-21)
(-0.06000059 0.065297101 8.3140798e-22)
(-0.067148766 0.065132473 4.5471392e-21)
(-0.074675208 0.064842359 -1.4208473e-21)
(-0.082564271 0.064499178 -4.064486e-21)
(-0.090802302 0.064152514 1.2763818e-21)
(-0.099375194 0.063836844 1.7799894e-21)
(-0.10826784 0.063578578 -3.0720421e-21)
(-0.11746497 0.06340057 -9.5090296e-22)
(-0.12695291 0.063324187 1.7156395e-21)
(-0.13672187 0.063369242 7.0930489e-22)
(-0.14676851 0.06355205 -3.5347656e-21)
(-0.15709732 0.063881793 1.021033e-21)
(-0.16772271 0.064357582 1.5650569e-21)
(-0.17866862 0.064965055 4.3852819e-21)
(-0.18996205 0.065668448 -8.6718189e-21)
(-0.20162215 0.066411272 5.8553069e-21)
(-0.21366172 0.067131544 1.5578459e-21)
(-0.2260914 0.067762956 6.3444998e-21)
(-0.23891366 0.068226376 7.9297009e-21)
(-0.25212633 0.068428702 4.2365501e-22)
(-0.2657157 0.06825187 -1.9055482e-21)
(-0.27965634 0.067543863 1.4076872e-20)
(-0.29387 0.066097009 6.2624523e-21)
(-0.30823246 0.063632832 6.6996048e-21)
(-0.32238889 0.059739606 2.326178e-21)
(-0.33585369 0.053889106 1.872096e-20)
(-0.34749002 0.045442248 -7.9234039e-21)
(-0.35636675 0.033954722 2.656927e-21)
(-0.3608754 0.018919533 2.130461e-20)
(-0.36125756 -0.00091164806 8.7689618e-21)
(-0.35213623 -0.026985851 -1.0587351e-20)
(-0.33144393 -0.061691121 -3.577762e-20)
(-0.28360288 -0.10417707 9.8589453e-21)
(-0.20792468 -0.15056327 1.3586467e-20)
(-0.055616279 -0.17527992 3.2080667e-21)
(-6.1406084e-05 0.0006262773 1.088013e-21)
(-0.00019506644 0.001939723 -1.7312061e-21)
(-0.00034890907 0.0033876876 6.2590593e-22)
(-0.00052642684 0.0049782382 -6.8016535e-23)
(-0.00073102885 0.0067194508 1.344958e-21)
(-0.00096701863 0.0086191779 -1.3909607e-21)
(-0.0012395193 0.010684875 2.1097942e-21)
(-0.0015545653 0.012923368 -9.9164099e-22)
(-0.0019192828 0.015340563 -3.7698256e-21)
(-0.0023420766 0.017941091 9.0526484e-22)
(-0.0028328407 0.020727885 3.4463202e-21)
(-0.0034031876 0.023701675 -1.0502178e-21)
(-0.0040666984 0.0268604 -6.9677161e-23)
(-0.0048391845 0.030198517 2.7392688e-21)
(-0.005738952 0.033706222 -8.541921e-21)
(-0.0067870495 0.037368572 5.2232979e-21)
(-0.0080074767 0.041164519 4.9777825e-23)
(-0.0094273138 0.045065871 -2.8584004e-21)
(-0.011076723 0.049036218 7.205051e-21)
(-0.012988751 0.053029847 -3.368169e-21)
(-0.015198843 0.056990737 -4.9712251e-21)
(-0.017743953 0.060851723 -1.9904541e-21)
(-0.020661138 0.064534068 9.6806292e-21)
(-0.023985507 0.067947875 4.9740719e-21)
(-0.027747526 0.070994288 -3.133325e-21)
(-0.031969861 0.073571281 1.7912719e-21)
(-0.036664338 0.075585788 -6.4637004e-21)
(-0.041830011 0.076974391 1.7869163e-21)
(-0.047453409 0.077729218 -4.5784985e-21)
(-0.053511579 0.077914478 2.4235615e-21)
(-0.059977646 0.07765499 -1.4210591e-21)
(-0.066826779 0.077097608 4.856254e-21)
(-0.074039127 0.076372083 -6.4551947e-22)
(-0.081598521 0.075573777 3.3075922e-21)
(-0.089489351 0.074766732 -3.0462128e-21)
(-0.097694339 0.073994451 -9.8191504e-22)
(-0.10619392 0.073289759 1.1881694e-20)
(-0.11496683 0.072681178 3.1480129e-21)
(-0.12399137 0.072195958 -2.6465595e-21)
(-0.13324723 0.071860297 2.6776198e-21)
(-0.14271731 0.071696994 -7.1307873e-22)
(-0.15238842 0.071721513 -4.6666182e-21)
(-0.16225344 0.071938498 2.2716784e-22)
(-0.17231032 0.07233583 1.7182481e-21)
(-0.18255083 0.072875487 -8.3835087e-22)
(-0.19295503 0.073495665 4.7870768e-22)
(-0.20349053 0.074132671 1.3799205e-21)
(-0.21411329 0.074718624 -2.1865031e-20)
(-0.22475713 0.075173664 2.5232153e-21)
(-0.23533795 0.075405853 -2.4437647e-21)
(-0.24574309 0.075296281 2.3925925e-20)
(-0.25582729 0.074688699 -1.3637939e-20)
(-0.26536421 0.073362432 -1.1707635e-20)
(-0.27406143 0.071011504 -1.1692458e-20)
(-0.28137211 0.067171928 -1.1788652e-20)
(-0.28665753 0.061234408 -1.933398e-20)
(-0.28867449 0.052478025 4.0218917e-20)
(-0.28651942 0.0404802 -2.5917471e-20)
(-0.27857848 0.024852801 -4.0809618e-20)
(-0.26523732 0.0039867207 3.1612868e-20)
(-0.24069039 -0.024201854 9.9870389e-21)
(-0.20403866 -0.063148458 8.0486009e-21)
(-0.13844107 -0.11221429 -4.0277859e-20)
(-0.049352246 -0.17247516 -2.4524155e-20)
(0.11830057 -0.20954117 8.0063755e-23)
(-9.1655483e-05 0.00072006345 -7.6986742e-22)
(-0.00028807831 0.0022301399 2.5561413e-21)
(-0.00051035266 0.0038949748 -2.0837461e-21)
(-0.00076200056 0.0057241294 7.8740272e-22)
(-0.0010465689 0.0077272082 2.8449268e-22)
(-0.0013683609 0.0099136171 -2.4474338e-21)
(-0.0017323933 0.012292365 6.1941759e-22)
(-0.0021444665 0.014871806 1.3154097e-21)
(-0.0026113127 0.0176593 1.0081311e-22)
(-0.0031407473 0.020660818 8.5672916e-22)
(-0.0037418411 0.023880446 -1.1989801e-21)
(-0.0044251077 0.0273198 8.3247513e-22)
(-0.0052027097 0.030977334 3.0648672e-21)
(-0.0060886759 0.034847522 8.9862435e-23)
(-0.0070991228 0.038919922 -2.3325624e-21)
(-0.0082524662 0.043178102 -1.6479851e-21)
(-0.0095696039 0.047598446 1.4138117e-21)
(-0.011074038 0.052148842 -1.3401079e-22)
(-0.012791891 0.056787286 -2.7262474e-21)
(-0.014751766 0.061460436 -3.2999976e-21)
(-0.016984348 0.066102201 3.7306419e-21)
(-0.019521676 0.0706325 3.712414e-21)
(-0.022395948 0.074956452 -4.9258946e-21)
(-0.025637774 0.078964553 5.9963505e-21)
(-0.029273869 0.082534996 1.01897e-20)
(-0.033324396 0.085540335 -2.3375719e-20)
(-0.037800519 0.087861896 1.2454013e-20)
(-0.042703061 0.089414923 -1.7747671e-20)
(-0.048023019 0.090181087 2.1080443e-20)
(-0.053743976 0.090231301 -2.2199245e-20)
(-0.059845876 0.089714921 2.1495541e-20)
(-0.06630893 0.088813423 -3.3443496e-21)
(-0.073115551 0.08769003 -1.1002945e-20)
(-0.080249261 0.086465438 5.876712e-21)
(-0.087692164 0.085220191 -1.7563545e-21)
(-0.095423044 0.084008049 -4.96077e-22)
(-0.10341675 0.082868763 -6.2172186e-21)
(-0.11164446 0.081836544 -2.0667037e-21)
(-0.12007453 0.080944284 -2.1055254e-21)
(-0.12867355 0.080224221 -2.1323389e-21)
(-0.13740739 0.079705483 1.1188094e-20)
(-0.14624166 0.079409866 -5.0921912e-21)
(-0.15514287 0.079347986 -8.6895106e-22)
(-0.16407719 0.079509925 1.0147165e-20)
(-0.17299522 0.079855059 5.3850479e-21)
(-0.18183264 0.080318382 -2.7550898e-21)
(-0.190507 0.080834302 -1.0365233e-20)
(-0.19891422 0.081331945 4.6909476e-21)
(-0.20691755 0.081729072 -1.4085817e-20)
(-0.21435355 0.081933814 -7.9795971e-21)
(-0.22101999 0.081824568 -1.1486119e-20)
(-0.22667204 0.081237703 -3.1982556e-20)
(-0.23096798 0.079937093 2.576036e-20)
(-0.2334933 0.077583843 -8.6878502e-21)
(-0.23354924 0.073667642 1.5752357e-20)
(-0.23034814 0.067537366 1.549579e-20)
(-0.22255357 0.05841897 6.6333944e-21)
(-0.20936566 0.045887784 6.1443995e-20)
(-0.1892393 0.02967206 1.7020805e-20)
(-0.16249893 0.0077366589 -4.0592445e-20)
(-0.12249162 -0.022402692 -1.5850395e-20)
(-0.069216009 -0.065483518 1.1070833e-20)
(0.016653991 -0.12022854 2.0610084e-20)
(0.12643122 -0.19277732 2.8646639e-20)
(0.3073963 -0.24002827 -2.3021374e-22)
(-0.00012575893 0.00079953932 -2.3591695e-21)
(-0.00039293922 0.0024764606 -8.3289505e-22)
(-0.00069235647 0.0043255837 6.7395697e-22)
(-0.0010275714 0.0063578494 2.4892543e-21)
(-0.0014022919 0.0085842839 -1.3638805e-21)
(-0.0018208278 0.011015771 1.9626442e-21)
(-0.0022880835 0.013662836 -8.4905285e-22)
(-0.0028096045 0.016535368 -2.0223651e-22)
(-0.0033916891 0.019642261 1.1440106e-21)
(-0.0040414993 0.022990978 2.4647805e-21)
(-0.0047671897 0.026587014 1.2434378e-22)
(-0.0055780468 0.030433252 -4.0467178e-21)
(-0.0064846443 0.034529188 5.5948977e-21)
(-0.0074990072 0.038870014 -9.0229878e-21)
(-0.0086347825 0.043445554 2.3543777e-21)
(-0.0099074047 0.048239021 -4.9959408e-21)
(-0.011334243 0.053225619 6.0235985e-21)
(-0.012934707 0.058370972 -3.9016348e-21)
(-0.014730269 0.063629409 6.1251676e-22)
(-0.016744373 0.06894215 2.4765161e-21)
(-0.019002131 0.074235451 -5.9869801e-21)
(-0.02152975 0.079418875 8.381476e-21)
(-0.024353575 0.084383971 -9.0275594e-21)
(-0.027498668 0.089004003 -1.5404115e-21)
(-0.030986945 0.093136023 1.4807285e-20)
(-0.034835081 0.096627801 -1.4673537e-20)
(-0.039052762 0.099333622 9.2820129e-21)
(-0.04364208 0.10114282 -1.0089912e-20)
(-0.048598535 0.10201854 -9.5903412e-22)
(-0.053912998 0.10202835 -5.872714e-22)
(-0.05957363 0.10133784 3.3976504e-21)
(-0.065567248 0.10015953 -2.4840389e-22)
(-0.07187968 0.098690977 1.148428e-20)
(-0.078494623 0.097081078 -2.9230369e-21)
(-0.085391737 0.095429573 -8.5520318e-21)
(-0.092545229 0.093802217 3.8945052e-21)
(-0.099923318 0.092246495 -3.1670084e-21)
(-0.10748826 0.090802451 3.2103396e-21)
(-0.11519661 0.089508378 1.8246391e-20)
(-0.1229997 0.088402207 -1.0341405e-20)
(-0.13084365 0.087519201 -2.6364281e-21)
(-0.13866971 0.086887669 1.5444785e-20)
(-0.14641451 0.086524452 -8.8180159e-22)
(-0.15400687 0.086422505 -2.0013736e-21)
(-0.16135424 0.086539214 -2.2963365e-20)
(-0.16834475 0.086809038 -5.5250239e-21)
(-0.1748439 0.087163886 9.0031709e-21)
(-0.18068828 0.087529373 9.5049731e-21)
(-0.18567547 0.08782092 1.4000534e-20)
(-0.18957413 0.08794743 1.7981659e-20)
(-0.1921136 0.087784259 1.1444946e-20)
(-0.19298264 0.087158503 1.8271808e-20)
(-0.19176926 0.085811884 -6.5595178e-21)
(-0.18799007 0.083379417 4.2080539e-20)
(-0.18080928 0.079291509 3.0935249e-21)
(-0.16918085 0.072834771 2.772571e-21)
(-0.15158933 0.063268805 1.7919432e-21)
(-0.12742814 0.050246939 -6.7057228e-20)
(-0.095586897 0.03349471 -2.7730216e-20)
(-0.055873874 0.010395265 4.4625061e-20)
(-0.00045847487 -0.021672465 6.4967308e-20)
(0.070642124 -0.068980713 2.8821588e-20)
(0.17784148 -0.12962387 8.2010676e-21)
(0.31315801 -0.21175934 -4.1120317e-20)
(0.50606285 -0.26520565 6.4269374e-21)
(-0.00016212839 0.00086181779 4.4842673e-22)
(-0.00050477668 0.0026697674 1.4252975e-21)
(-0.00088646567 0.0046639738 -3.4401041e-21)
(-0.0013108089 0.0068566112 1.2772792e-22)
(-0.0017816888 0.0092599919 1.6748162e-21)
(-0.0023034301 0.011886376 7.3825375e-22)
(-0.0028808251 0.014747746 5.4513802e-22)
(-0.0035191565 0.017855522 -1.0741008e-21)
(-0.0042242701 0.021220194 5.5602574e-21)
(-0.0050026427 0.024850875 -4.1944984e-21)
(-0.0058614639 0.028754739 2.0315348e-22)
(-0.0068087232 0.03293634 2.5379291e-21)
(-0.0078533094 0.037396792 -9.4893918e-21)
(-0.009005116 0.042132785 9.4523194e-21)
(-0.010275153 0.047135417 -1.2570404e-21)
(-0.01167566 0.052388827 -7.7758483e-21)
(-0.013220203 0.057868619 7.3000853e-21)
(-0.014923757 0.063540061 -2.544421e-21)
(-0.016802724 0.069356074 4.9320024e-21)
(-0.01887487 0.075255031 -6.3043789e-21)
(-0.021159112 0.081158445 -1.1778364e-20)
(-0.023675097 0.086968675 1.1576135e-20)
(-0.026442469 0.092566973 1.6815472e-20)
(-0.029479797 0.097812523 -3.2044812e-20)
(-0.032803163 0.10254387 2.5296727e-20)
(-0.036424668 0.10658548 -1.4391525e-20)
(-0.040351427 0.10976378 3.6048982e-21)
(-0.044585824 0.11193779 -8.2692699e-21)
(-0.049127222 0.11304318 8.0770073e-21)
(-0.053973855 0.11313197 1.0407097e-20)
(-0.059123079 0.11237455 -6.4969744e-21)
(-0.064569878 0.1110083 -1.0216408e-20)
(-0.070304938 0.10926496 8.2367204e-22)
(-0.076312942 0.1073247 3.3102609e-22)
(-0.082571218 0.1053099 5.6805708e-21)
(-0.089048937 0.10330073 -2.3940775e-21)
(-0.095706801 0.10135367 -8.752118e-21)
(-0.1024969 0.099514986 -4.4658581e-21)
(-0.10936248 0.097828242 6.848494e-21)
(-0.11623773 0.096336744 -5.4948942e-21)
(-0.12304695 0.095081729 4.8699499e-21)
(-0.12970462 0.094098271 -1.6353181e-21)
(-0.13611472 0.093409666 -6.6614723e-21)
(-0.14216544 0.093012838 1.6572762e-20)
(-0.1477203 0.092865893 1.0239767e-20)
(-0.15262009 0.092904218 6.8974238e-21)
(-0.15667884 0.093058171 -2.2711045e-20)
(-0.15967865 0.093250752 -1.5209434e-20)
(-0.16136068 0.093395818 -1.8483192e-20)
(-0.16144208 0.093405665 -3.3398993e-20)
(-0.15961088 0.093154026 1.213455e-20)
(-0.15552895 0.092455306 -2.5202182e-21)
(-0.14875817 0.091046544 -2.1572959e-20)
(-0.13878789 0.088466498 -6.6099279e-20)
(-0.12428986 0.084090098 -4.5753597e-20)
(-0.10416892 0.077209559 -1.9000286e-20)
(-0.076857144 0.067149247 -5.8001193e-20)
(-0.042090568 0.053676822 4.1022628e-20)
(0.00087486056 0.036435206 -4.8076773e-21)
(0.053286317 0.012006736 -7.2822302e-20)
(0.12406533 -0.02232377 -4.9666101e-20)
(0.2148024 -0.073816755 -2.1152255e-21)
(0.34452186 -0.14059294 7.185174e-20)
(0.5083366 -0.22976362 -7.407349e-21)
(0.70465383 -0.2843043 5.4056468e-21)
(-0.00019883513 0.00090442603 1.7824113e-21)
(-0.00061776246 0.0028023741 -1.2024473e-21)
(-0.0010825209 0.0048967339 1.6242713e-21)
(-0.0015969045 0.0072007097 9.2320791e-22)
(-0.0021649341 0.0097277436 -2.5760037e-21)
(-0.0027909614 0.01249134 -2.4047338e-21)
(-0.0034796751 0.015504848 2.4672273e-21)
(-0.0042361035 0.018781186 -2.9701994e-22)
(-0.0050656455 0.022332486 -6.879841e-23)
(-0.0059740976 0.026169645 -4.8852155e-21)
(-0.0069676863 0.030301771 5.3492935e-22)
(-0.0080531016 0.034735496 9.845026e-21)
(-0.0092375378 0.03947414 -7.8687177e-21)
(-0.010528736 0.044516689 2.7051854e-22)
(-0.011935035 0.04985658 5.267073e-21)
(-0.013465414 0.05548024 4.5255553e-22)
(-0.015129549 0.061365379 -1.1499819e-21)
(-0.016937839 0.067478995 -5.1727924e-21)
(-0.018901415 0.073775096 9.4541019e-21)
(-0.02103209 0.080192138 -1.6571709e-20)
(-0.023342209 0.086650232 3.5556298e-21)
(-0.025844356 0.093048242 -2.6020995e-21)
(-0.028550843 0.099261079 2.1153394e-21)
(-0.031472947 0.10513784 -9.4565925e-23)
(-0.03461995 0.1105022 1.230048e-20)
(-0.037998229 0.11515785 1.2065018e-20)
(-0.041611001 0.11890372 -2.3378827e-20)
(-0.045459466 0.12156496 -3.799658e-21)
(-0.049545457 0.12304076 1.2698066e-20)
(-0.053873754 0.12335355 4.3158594e-21)
(-0.058451209 0.12266364 9.3634683e-21)
(-0.063282344 0.12122343 -9.8999682e-21)
(-0.068364401 0.11929656 -4.1289316e-21)
(-0.073684282 0.1170973 9.1205098e-21)
(-0.07921745 0.11477485 -3.7031369e-21)
(-0.084927843 0.11242713 -1.8000651e-21)
(-0.090767963 0.11012154 4.9087264e-21)
(-0.096678718 0.10791137 1.3058277e-20)
(-0.1025888 0.10584557 4.0637934e-21)
(-0.10841381 0.10397262 -2.7119743e-21)
(-0.11405479 0.10233965 -6.7152433e-21)
(-0.11939767 0.10098871 -7.2242482e-21)
(-0.12431204 0.099949956 -8.2926973e-21)
(-0.12864471 0.099226165 -1.8043932e-20)
(-0.13221545 0.098779751 6.1184049e-22)
(-0.13481933 0.098549243 -8.0896328e-21)
(-0.13622294 0.098464602 4.6409304e-20)
(-0.13616044 0.098448164 1.3343005e-20)
(-0.13432729 0.098414538 1.5630706e-20)
(-0.13040682 0.098284273 4.499216e-20)
(-0.12407534 0.097932255 -5.4638722e-20)
(-0.11500303 0.097178236 1.2684363e-20)
(-0.10277048 0.095675248 4.2406397e-20)
(-0.086391935 0.092874459 5.4491993e-20)
(-0.064222228 0.088160209 7.1979119e-21)
(-0.035473255 0.080798343 -1.94599e-20)
(0.0014194803 0.070276846 -3.2776184e-20)
(0.045865866 0.056412312 1.4421297e-20)
(0.099416483 0.038632395 -2.7297104e-20)
(0.16454973 0.012645083 2.3073871e-20)
(0.2512835 -0.02443456 7.9160704e-21)
(0.36356259 -0.080253714 2.2694416e-20)
(0.51885871 -0.15325052 -8.9923962e-20)
(0.70987028 -0.24451293 -1.9199218e-21)
(0.88545325 -0.29373357 -1.5808793e-20)
(-0.00023377209 0.00092551805 -1.6852539e-21)
(-0.00072531022 0.0028685511 -4.5148558e-22)
(-0.0012691427 0.0050138118 4.9600295e-22)
(-0.0018692421 0.0073753204 2.4375977e-21)
(-0.0025297696 0.0099674501 -2.9228458e-21)
(-0.0032551114 0.012804781 2.4812682e-21)
(-0.0040498665 0.015901901 1.1855378e-21)
(-0.0049188307 0.019273156 -6.3501606e-23)
(-0.0058669884 0.022932314 -9.9973669e-22)
(-0.0068994986 0.026892152 -5.6817148e-21)
(-0.00802168 0.031163924 9.5309508e-21)
(-0.009238992 0.035756701 -1.1438242e-20)
(-0.010557016 0.040676551 3.3537975e-21)
(-0.011981437 0.045925531 4.5440542e-21)
(-0.013518022 0.051500452 -6.9538355e-21)
(-0.015172607 0.057391392 1.3671525e-20)
(-0.016951075 0.063579898 -1.6519222e-20)
(-0.018859342 0.070036858 -2.6013929e-22)
(-0.02090332 0.076719998 -9.3963032e-21)
(-0.023088864 0.083571 3.7113453e-20)
(-0.025421658 0.090512242 -8.9366436e-21)
(-0.027907012 0.097443273 -3.6761024e-20)
(-0.030549529 0.10423727 1.7243011e-20)
(-0.03335262 0.11073808 2.0396927e-20)
(-0.03631794 0.11675926 -5.065938e-21)
(-0.039445012 0.12208767 -2.6190648e-20)
(-0.042731645 0.12649674 3.8934785e-20)
(-0.046175945 0.1297759 -4.2161795e-20)
(-0.049780039 0.1317799 3.2155934e-20)
(-0.053553364 0.13248673 -5.905666e-21)
(-0.057511551 0.13202821 9.736721e-21)
(-0.061669552 0.13065708 1.3212448e-20)
(-0.066033006 0.12866291 -4.8314217e-21)
(-0.070592707 0.12629574 -1.1535435e-21)
(-0.075323198 0.12373632 -1.6767083e-20)
(-0.080183356 0.12110471 3.1226132e-21)
(-0.085117089 0.11848213 -8.0398045e-21)
(-0.090053379 0.11593038 6.8778981e-21)
(-0.094905433 0.11350427 -3.9966523e-21)
(-0.099569267 0.11125751 -2.733759e-21)
(-0.10392178 0.1092431 -2.4220025e-21)
(-0.1078194 0.10751032 -2.4485966e-21)
(-0.11109661 0.10609715 1.5639852e-20)
(-0.1135598 0.10501445 1.2913397e-20)
(-0.11498654 0.10423291 -3.6245075e-21)
(-0.1151289 0.10369705 2.52791e-21)
(-0.1137104 0.10333944 -1.0579592e-20)
(-0.11042685 0.10308383 2.1943464e-20)
(-0.10493592 0.10284825 2.6404003e-20)
(-0.096903313 0.10257036 8.0015889e-21)
(-0.086015656 0.102144 2.154863e-20)
(-0.072009442 0.1013295 -7.237246e-22)
(-0.054121818 0.099697902 -1.1184899e-20)
(-0.030827924 0.096609008 -5.7590143e-20)
(-0.0008622198 0.091504058 2.9821253e-20)
(0.036426422 0.083706205 -1.2761865e-20)
(0.082575197 0.072928618 3.8305854e-20)
(0.13586394 0.058727655 -6.7065309e-20)
(0.19987641 0.040219279 3.9590754e-20)
(0.27832 0.012351607 -1.4250251e-20)
(0.38281014 -0.028021817 8.9767033e-23)
(0.51972965 -0.088398035 -1.099017e-20)
(0.70467659 -0.16608484 -3.586065e-20)
(0.9069533 -0.25322993 5.6958888e-20)
(1.0290905 -0.29287623 -3.4010513e-20)
(-0.00026468877 0.00092404263 3.7887182e-21)
(-0.00082049208 0.0028650069 2.6068161e-21)
(-0.0014343059 0.0050093937 -4.0922721e-21)
(-0.0021102664 0.0073717919 1.0769272e-22)
(-0.0028526687 0.0099672718 3.6994155e-21)
(-0.0036659381 0.012811278 1.9341404e-21)
(-0.0045546021 0.015919464 -4.0766745e-21)
(-0.0055232591 0.019307472 6.6919808e-22)
(-0.006576534 0.022990648 -9.4364973e-21)
(-0.0077190276 0.026983667 1.8390422e-21)
(-0.0089552578 0.031300063 4.7273331e-23)
(-0.010289592 0.035951614 -6.7628437e-21)
(-0.011726172 0.040947586 2.1668763e-20)
(-0.013268837 0.046293769 -1.0095522e-20)
(-0.014921031 0.051991287 -1.8083382e-20)
(-0.016685726 0.058035119 1.9265092e-20)
(-0.018565327 0.064412293 -2.372341e-21)
(-0.020561592 0.07109968 1.3457742e-20)
(-0.022675544 0.078061342 9.9869452e-21)
(-0.024907374 0.085245388 -3.1378251e-20)
(-0.027256335 0.092580307 2.3515624e-20)
(-0.029720579 0.099970834 -3.0879943e-20)
(-0.032296945 0.10729355 3.6127175e-21)
(-0.034980678 0.11439272 -1.4700074e-20)
(-0.037765188 0.12107763 3.1712951e-20)
(-0.040642103 0.12712391 -7.4405015e-21)
(-0.043602269 0.13228361 -1.8528575e-20)
(-0.046638501 0.13631115 4.3884238e-20)
(-0.049750363 0.13901144 -1.8540461e-20)
(-0.052948913 0.14030393 -1.9347189e-20)
(-0.056256483 0.14027085 1.5308341e-20)
(-0.059698423 0.13914476 1.9690097e-21)
(-0.063290472 0.13722952 -9.3923432e-21)
(-0.067029344 0.13480966 4.9380317e-21)
(-0.070890162 0.13210228 -7.3825274e-21)
(-0.074827461 0.12925512 2.5168183e-20)
(-0.07877655 0.12636736 -1.3058178e-20)
(-0.082654086 0.12351175 -7.9161577e-21)
(-0.086357225 0.12075011 -1.6428915e-20)
(-0.089761847 0.11814179 -2.3471969e-21)
(-0.092720326 0.11574581 1.8239313e-20)
(-0.095059589 0.11361903 -7.4989649e-21)
(-0.096579233 0.11180851 -1.1473257e-20)
(-0.097047355 0.11033591 -1.7514491e-21)
(-0.096201806 0.10918432 1.2253639e-20)
(-0.093755656 0.1083079 1.1109395e-20)
(-0.08939329 0.10764496 -3.5102547e-20)
(-0.082779653 0.10712341 -1.9245351e-20)
(-0.073540587 0.10666838 -4.3227552e-20)
(-0.06133074 0.1062478 -1.5637559e-20)
(-0.045893938 0.10577136 -6.2645578e-21)
(-0.026897402 0.10488936 -4.8823211e-20)
(-0.0028554473 0.10305014 -2.0259959e-20)
(0.027471774 0.099624396 6.9799707e-20)
(0.065103531 0.094169577 -5.8214528e-20)
(0.11085256 0.086029326 5.5457882e-20)
(0.16565208 0.075208772 -2.7406804e-20)
(0.22757812 0.060758393 1.3682869e-19)
(0.3026767 0.041270128 7.0333282e-20)
(0.39618352 0.011106157 -2.8926685e-20)
(0.52225098 -0.032830396 -4.4773246e-20)
(0.68896288 -0.097802061 -7.2104289e-20)
(0.90035182 -0.17550098 -9.4329693e-21)
(1.0728648 -0.25157279 -8.1120563e-21)
(1.1218129 -0.2777722 4.5038965e-20)
(-0.00028937692 0.00089993529 6.9069828e-23)
(-0.00089650546 0.0027914789 -4.9185035e-21)
(-0.0015661955 0.0048829178 5.7976271e-21)
(-0.0023027186 0.007189133 2.7893582e-21)
(-0.0031104863 0.0097256219 -5.5862254e-21)
(-0.0039939615 0.012508441 -1.8088551e-21)
(-0.0049576192 0.015554078 8.7702151e-21)
(-0.0060059036 0.018879281 -9.4347796e-21)
(-0.0071431525 0.022500828 -1.9892163e-21)
(-0.0083735172 0.026435223 -7.9087801e-21)
(-0.0097008647 0.030698295 2.0989068e-20)
(-0.011128668 0.03530467 2.545175e-22)
(-0.012659883 0.040267103 -1.8813782e-20)
(-0.014296812 0.045595604 2.0170601e-20)
(-0.016040955 0.051296337 -1.4417898e-20)
(-0.017892857 0.057370222 -5.3361615e-21)
(-0.019851949 0.063811175 1.1127134e-20)
(-0.021916384 0.070603913 -1.0016014e-20)
(-0.024082884 0.077721236 -1.3300615e-20)
(-0.026346581 0.085120716 2.8296015e-22)
(-0.028700865 0.092740711 2.0835129e-20)
(-0.031137219 0.10049571 -1.2833081e-20)
(-0.033645056 0.10827111 7.1200299e-21)
(-0.03621156 0.11591786 3.421277e-20)
(-0.03882165 0.12324795 1.1372884e-20)
(-0.041458353 0.13003309 -3.0587891e-20)
(-0.044104127 0.13601078 3.0237214e-21)
(-0.046744088 0.1409048 -3.3594456e-20)
(-0.049371743 0.1444688 1.9434833e-20)
(-0.051995522 0.14655261 -1.0026698e-20)
(-0.054640646 0.14716688 1.4023105e-20)
(-0.057341624 0.14649769 3.3090262e-21)
(-0.060125504 0.14484338 -1.5945933e-20)
(-0.062996759 0.14251617 1.5752292e-20)
(-0.065933131 0.13977281 2.2549311e-20)
(-0.068886522 0.13679535 -1.9749343e-21)
(-0.071784217 0.13370666 -2.3432755e-20)
(-0.074530571 0.13059432 2.9989279e-20)
(-0.077006515 0.12752922 -6.4753694e-21)
(-0.079067655 0.12457728 1.4256729e-20)
(-0.080541975 0.12180407 -2.3194436e-21)
(-0.081227544 0.11927448 2.3610386e-20)
(-0.080890569 0.1170461 1.1686071e-20)
(-0.079263412 0.11515441 1.5249308e-20)
(-0.076047838 0.11359897 -6.3868556e-20)
(-0.070921702 0.1123476 -2.1838203e-20)
(-0.063536325 0.11134845 2.9957521e-20)
(-0.053530339 0.11053604 -2.5123542e-20)
(-0.040499281 0.10984337 -2.1819973e-20)
(-0.024098526 0.1093064 2.5348267e-20)
(-0.0041794449 0.10876599 1.3762221e-20)
(0.020201228 0.1077471 3.3765361e-20)
(0.050587742 0.10566 1.7132762e-20)
(0.087844966 0.10192705 -5.9630172e-20)
(0.13309209 0.096167753 -3.4467315e-20)
(0.18719599 0.08787317 -5.6329477e-21)
(0.24989781 0.07708563 5.0110622e-22)
(0.32121871 0.062444385 -3.4512779e-20)
(0.40927347 0.041726886 5.002394e-20)
(0.52191739 0.0090456972 6.6091702e-20)
(0.67617786 -0.038722308 1.8625948e-20)
(0.87633733 -0.10532801 1.3129088e-19)
(1.0847723 -0.17668546 9.0961682e-20)
(1.1836825 -0.24143674 1.8016861e-20)
(1.1632416 -0.25661374 5.676308e-21)