/*--------------------------------*- C++ -*----------------------------------*\
  =========                 |
  \\      /  F ield         | OpenFOAM: The Open Source CFD Toolbox
   \\    /   O peration     | Website:  https://openfoam.org
    \\  /    A nd           | Version:  13
     \\/     M anipulation  |
\*---------------------------------------------------------------------------*/
FoamFile
{
    format      ascii;
    class       volSymmTensorField;
    location    "16.700717";
    object      UPrime2Mean;
}
// * * * * * * * * * * * * * * * * * * * * * * * * * * * * * * * * * * * * * //

dimensions      [0 2 -2 0 0 0 0];

internalField   nonuniform List<symmTensor> 
17140
(
(3.4413242e-12 -2.0979322e-10 -2.3743957e-27 1.3368731e-08 3.5936798e-26 1.2824638e-40)
(2.2735442e-10 -4.2349052e-09 -1.3287506e-27 1.2697089e-07 7.9887381e-27 1.139468e-42)
(1.8284226e-09 -1.9092012e-08 2.3145372e-25 3.8447715e-07 -8.4090515e-25 4.9674478e-39)
(8.2085487e-09 -5.6310646e-08 -5.1440716e-25 8.2506285e-07 1.2944651e-24 6.0034362e-39)
(2.6761195e-08 -1.3246037e-07 1.0568272e-25 1.4948448e-06 -1.9894699e-25 8.204664e-41)
(7.2137723e-08 -2.7182666e-07 -5.5853023e-25 2.4472844e-06 8.2438215e-25 8.7882721e-40)
(1.7135159e-07 -5.0875886e-07 -1.4369011e-24 3.7433057e-06 1.7105844e-24 2.4909448e-39)
(3.7170823e-07 -8.9058122e-07 1.0305991e-24 5.4509593e-06 -1.0082933e-24 5.9370833e-40)
(7.5291503e-07 -1.4810484e-06 4.8122535e-24 7.6443939e-06 -3.9222978e-24 6.3608383e-39)
(1.4451183e-06 -2.3641708e-06 1.6455357e-23 1.0401892e-05 -1.1286791e-23 3.8267624e-38)
(2.6551264e-06 -3.6481252e-06 -3.3398373e-23 1.3802668e-05 1.942744e-23 8.4147034e-38)
(4.7036407e-06 -5.4688185e-06 4.0133301e-23 1.7922135e-05 -1.9918214e-23 6.683124e-38)
(8.0768058e-06 -7.9923995e-06 8.1801025e-24 2.2825378e-05 -3.48087e-24 1.5657119e-39)
(1.3495573e-05 -1.1415736e-05 -6.0938044e-23 2.8558727e-05 2.2313863e-23 5.0082652e-38)
(2.200615e-05 -1.5963626e-05 8.8304471e-24 3.5139552e-05 -2.7909167e-24 6.1738077e-40)
(3.5093845e-05 -2.1881377e-05 -9.0531958e-23 4.2544806e-05 2.474926e-23 3.8737715e-38)
(5.4820558e-05 -2.9421579e-05 4.3261933e-24 5.0699441e-05 -1.0240135e-24 5.3651463e-41)
(8.3983401e-05 -3.8824679e-05 -1.2375575e-24 5.9466545e-05 2.5474412e-25 2.6862432e-42)
(0.0001262881 -5.0294411e-05 -1.1095654e-22 6.8641803e-05 1.9765058e-23 1.3511535e-38)
(0.00018652937 -6.3971571e-05 1.8069824e-22 7.7955353e-05 -2.7917427e-23 2.2654338e-38)
(0.00027077185 -7.9912758e-05 -1.0845028e-22 8.7084199e-05 1.4528375e-23 5.2314345e-39)
(0.00038653392 -9.8083352e-05 2.5556597e-23 9.5677258e-05 -2.9641345e-24 1.8935331e-40)
(0.00054299629 -0.00011837417 2.3063205e-22 0.00010339275 -2.3152051e-23 1.0192107e-38)
(0.00075130905 -0.00014065001 -2.7888044e-22 0.00010994414 2.4198004e-23 1.0024714e-38)
(0.0010251968 -0.00016483705 -5.3317615e-22 0.00011514644 3.9920095e-23 2.5096339e-38)
(0.0013814417 -0.00019099038 5.0956872e-22 0.00011895307 -3.2873748e-23 1.5997858e-38)
(0.0018401602 -0.00021918626 2.9497425e-21 0.00012147077 -1.6382757e-22 3.8093881e-37)
(0.0024287232 -0.0002498339 4.0609871e-22 0.00012291353 -1.9397182e-23 5.2229891e-39)
(0.0031832873 -0.0002836299 -4.128589e-21 0.00012352832 1.6915185e-22 3.9831958e-37)
(0.0041452147 -0.00032054366 -1.1111896e-21 0.0001235547 3.8988839e-23 2.1601048e-38)
(0.0053684906 -0.00036115287 -4.534439e-21 0.00012313996 1.3561952e-22 2.7365571e-37)
(0.0069242307 -0.00040624671 6.7871523e-21 0.00012239095 -1.7203468e-22 4.7297603e-37)
(0.0088984495 -0.00045583784 -2.0019303e-21 0.00012137343 4.2705129e-23 3.2109144e-38)
(0.011396175 -0.00050998848 -1.0772436e-21 0.00012009687 1.9125152e-23 7.3475805e-39)
(0.014544508 -0.00056833199 -1.1884809e-20 0.00011855121 1.7347198e-22 7.1304942e-37)
(0.018494184 -0.00063014093 5.8244109e-21 0.00011671307 -6.860189e-23 1.3814905e-37)
(0.02342053 -0.00069419405 -9.7640392e-21 0.00011455003 9.07803e-23 3.1587063e-37)
(0.029522335 -0.00075858285 -7.3144227e-21 0.00011203631 5.1852884e-23 1.4571258e-37)
(0.037017559 -0.00082063598 -3.6883405e-21 0.00010916685 1.8915357e-23 3.0751228e-38)
(0.046134093 -0.00087656341 1.223338e-20 0.00010597498 -4.1223243e-23 2.8397098e-37)
(0.057094756 -0.00092157862 2.5125039e-20 0.0001025592 -4.5406562e-23 1.0148353e-36)
(0.070096393 -0.00094963366 2.4647192e-20 9.909529e-05 -9.8624497e-24 8.3650469e-37)
(0.085284375 -0.00095432398 1.1552071e-20 9.5882883e-05 1.0136959e-23 1.5921641e-37)
(0.10273337 -0.00092949471 -5.9967695e-20 9.3340859e-05 -1.2195435e-22 3.7562159e-36)
(0.12245157 -0.00087104241 -4.6398893e-20 9.1986453e-05 -1.4435359e-22 1.9952931e-36)
(0.14439075 -0.00077984441 1.1966271e-20 9.2357154e-05 4.9283488e-23 1.1942333e-37)
(0.16853146 -0.00065953064 -8.4676081e-20 9.4830923e-05 -4.2844309e-22 5.4572117e-36)
(0.19494665 -0.00051036535 -2.9679351e-20 9.947052e-05 -1.765609e-22 6.2116666e-37)
(0.22365402 -0.00033123831 3.0930616e-20 0.00010612478 2.1038536e-22 6.3530035e-37)
(0.25487797 -0.00011687911 7.676111e-20 0.00011373004 5.8425805e-22 3.7460107e-36)
(0.28842123 0.00014192121 -4.7481601e-20 0.00012115251 -3.9764341e-22 1.3966409e-36)
(0.32358878 0.00045847577 -2.9828068e-20 0.00012835933 -2.7129481e-22 5.4694051e-37)
(0.35894662 0.00085125233 7.6611266e-20 0.0001347445 7.5394768e-22 3.6535971e-36)
(0.39268282 0.0013242891 3.5281224e-20 0.00013728385 3.747777e-22 8.0171017e-37)
(0.42230487 0.0018426489 2.4197598e-20 0.00013491992 2.7687775e-22 4.0021925e-37)
(0.44521167 0.0023424424 -1.8078936e-20 0.00013051392 -2.21979e-22 2.4299548e-37)
(0.45831682 0.0027386248 4.5512163e-20 0.00012567707 5.9687094e-22 1.7409522e-36)
(0.45765716 0.0029190034 3.4891082e-20 0.00012268412 4.8606386e-22 1.1970815e-36)
(0.43916425 0.002762115 7.8313661e-21 0.00012509959 1.1493414e-22 7.4155954e-38)
(0.39948936 0.0022330886 -1.7704427e-20 0.00013577024 -2.7107142e-22 4.8741445e-37)
(0.3386863 0.0015026784 -1.1713332e-20 0.00015026292 -1.8818557e-22 2.9614837e-37)
(0.26367918 0.00096678322 -3.5520783e-20 0.0001524614 -6.1326298e-22 4.0299258e-36)
(0.18679197 0.00079426859 -4.1392655e-21 0.00012983102 -8.0148545e-23 8.6360436e-38)
(0.12411539 0.00088237742 2.7172731e-20 9.1473892e-05 6.0829244e-22 6.0991435e-36)
(0.075668976 0.0010190557 -1.5826073e-20 5.7292019e-05 -4.4997628e-22 3.6451127e-36)
(1.4864308e-10 -3.5014443e-09 3.4722998e-27 8.2511504e-08 -7.0677645e-26 1.0385833e-41)
(2.221369e-09 -4.1506688e-08 -1.2405338e-24 7.8040057e-07 1.9700738e-23 1.36727e-37)
(9.5874106e-09 -1.4915069e-07 2.1960303e-24 2.3549445e-06 -2.8340973e-23 1.08273e-37)
(2.8971082e-08 -3.7723116e-07 -1.0201613e-24 5.0332485e-06 1.0879041e-23 8.0468477e-39)
(7.2367588e-08 -7.9679568e-07 -3.3070962e-24 9.0755156e-06 2.9634845e-23 3.4339274e-38)
(1.6088601e-07 -1.5089277e-06 9.4206052e-24 1.4773688e-05 -7.1823068e-23 1.2537771e-37)
(3.3027761e-07 -2.6535038e-06 -1.4131109e-23 2.2447473e-05 9.2423456e-23 1.3623889e-37)
(6.3931593e-07 -4.4198641e-06 1.7435071e-24 3.2436651e-05 -9.8400226e-24 1.0552429e-39)
(1.1823341e-06 -7.0593612e-06 -7.4787221e-24 4.5088235e-05 3.658348e-23 1.028517e-38)
(2.1075547e-06 -1.089906e-05 -1.7108102e-25 6.0737295e-05 7.2799396e-25 2.9382911e-42)
(3.6433353e-06 -1.635554e-05 -4.5053983e-23 7.9680327e-05 1.6717324e-22 1.1462957e-37)
(6.1349792e-06 -2.3947162e-05 9.4497747e-23 0.00010214041 -3.0648638e-22 2.8935432e-37)
(1.0095175e-05 -3.4302259e-05 1.0207331e-23 0.00012822461 -2.8988938e-23 1.9731292e-39)
(1.6271358e-05 -4.8159826e-05 -1.306788e-22 0.00015787529 3.2542733e-22 1.9207053e-37)
(2.5733023e-05 -6.6358426e-05 5.1673764e-23 0.00019082006 -1.1294937e-22 1.8092951e-38)
(3.9981253e-05 -8.9809129e-05 4.1962165e-23 0.00022652746 -8.0562489e-23 7.2805166e-39)
(6.1080808e-05 -0.00011944913 -3.3817459e-22 0.00026417973 5.7046435e-22 2.9201874e-37)
(9.181284e-05 -0.00015617629 1.3904442e-21 0.00030267669 -2.060984e-21 3.0850623e-36)
(0.000135843 -0.00020077061 -1.0915612e-21 0.0003406858 1.4213831e-21 1.2021131e-36)
(0.00019789841 -0.00025381808 1.6286034e-21 0.00037675012 -1.8622183e-21 1.7122775e-36)
(0.00028394892 -0.00031566317 -2.9746605e-21 0.00040945578 2.9849336e-21 3.7024348e-36)
(0.00040139688 -0.00038642462 8.9487284e-22 0.0004376436 -7.8746378e-22 2.2017223e-37)
(0.00055929513 -0.0004661062 4.4881595e-22 0.00046062587 -3.4608525e-22 3.6937294e-38)
(0.00076866364 -0.00055482368 -1.771264e-21 0.00047834868 1.1961102e-21 3.8965104e-37)
(0.0010430958 -0.00065315099 7.6236155e-21 0.00049143701 -4.5062045e-21 4.9743768e-36)
(0.0013993062 -0.000762364 1.3499507e-21 0.00050108824 -6.9834281e-22 1.0930054e-37)
(0.0018572559 -0.00088427553 -8.2281783e-21 0.00050877622 3.7260972e-21 2.9017267e-36)
(0.0024440661 -0.0010216426 1.0767105e-20 0.00051563989 -4.2707575e-21 3.6113634e-36)
(0.0031956828 -0.0011780312 -1.7139477e-21 0.00052247536 5.9587786e-22 6.7789542e-38)
(0.0041532091 -0.0013563724 -1.9314565e-20 0.00053042048 5.8885191e-21 6.4571856e-36)
(0.0053700044 -0.001560754 2.2899917e-21 0.00054003185 -6.1211949e-22 6.928397e-38)
(0.0069162535 -0.001795365 1.9966685e-20 0.000551249 -4.6778553e-21 4.065242e-36)
(0.0088770875 -0.0020632065 5.7128523e-22 0.0005638569 -1.1727126e-22 2.5813328e-39)
(0.011356084 -0.0023670802 -1.8999775e-20 0.00057749365 3.408604e-21 2.277215e-36)
(0.014478598 -0.0027089083 2.3795979e-20 0.00059169372 -3.7274333e-21 2.8553221e-36)
(0.018393068 -0.0030894421 -1.1978197e-20 0.00060589957 1.6354904e-21 5.8384664e-37)
(0.023271864 -0.0035076733 1.5678825e-20 0.00061943793 -1.8619975e-21 8.1640974e-37)
(0.029309927 -0.0039599121 5.5237155e-20 0.00063151511 -5.6948736e-21 8.3367778e-36)
(0.036720233 -0.0044387961 1.3638301e-20 0.00064129471 -1.2174094e-21 4.2217005e-37)
(0.045724074 -0.0049321188 5.8409507e-20 0.00064804769 -4.4953626e-21 6.5049662e-36)
(0.056535659 -0.0054220524 -8.1473592e-20 0.00065148447 5.3758184e-21 1.0743688e-35)
(0.069340819 -0.005885339 -8.1183861e-20 0.00065229737 4.558065e-21 9.1411703e-36)
(0.084270462 -0.0062957872 -1.4954347e-20 0.00065294909 7.0728729e-22 2.6830857e-37)
(0.10138169 -0.0066299792 1.2743584e-19 0.0006583129 -4.9752071e-21 1.7149472e-35)
(0.12065797 -0.0068747593 -6.3897167e-20 0.00067547692 2.0179603e-21 3.8259575e-36)
(0.14202707 -0.0070356586 -2.3275762e-20 0.00071228504 5.7408177e-22 4.5708031e-37)
(0.16542323 -0.007138286 1.2968863e-20 0.00077452459 -2.3482357e-22 1.3021013e-37)
(0.19087042 -0.0072136896 4.17974e-20 0.00085966214 -5.0633162e-22 1.2541562e-36)
(0.21849176 -0.0072851859 -2.091618e-20 0.0009507492 1.3618719e-22 2.9657939e-37)
(0.24835481 -0.0073178995 3.8437089e-20 0.0010269124 -4.8043953e-23 9.6158095e-37)
(0.28022086 -0.0072059498 2.3233446e-19 0.0010727422 8.6538293e-22 3.4357614e-35)
(0.31331808 -0.0068211193 1.1029002e-20 0.001085514 9.4822306e-23 7.7263155e-38)
(0.34625203 -0.0060679306 -4.891319e-20 0.0010768483 -6.4901047e-22 1.5444098e-36)
(0.37716992 -0.0048984964 1.0584314e-19 0.0010579611 1.9204014e-21 7.525989e-36)
(0.40385261 -0.0033246265 -8.6776028e-20 0.001041698 -2.0187355e-21 5.3999766e-36)
(0.42380072 -0.0013790899 2.3300445e-19 0.0010377152 6.6915039e-21 4.2780199e-35)
(0.43397936 0.00094251674 6.1876673e-20 0.0010453887 2.1519005e-21 3.4264515e-36)
(0.43078586 0.0035823172 -1.5884778e-19 0.0010623863 -6.6103647e-21 2.6766378e-35)
(0.41027033 0.0063667861 2.4107202e-20 0.0010850443 1.1935514e-21 7.6163162e-37)
(0.36936537 0.0089426887 2.376736e-20 0.0011036767 1.3958261e-21 9.8111284e-37)
(0.3083506 0.010731761 3.9843358e-21 0.0010956269 2.7634938e-22 3.9180768e-38)
(0.23439423 0.011210899 -4.2869065e-20 0.0010508145 -3.4848327e-21 6.8837207e-36)
(0.15968786 0.0098917107 6.4952835e-20 0.00092185224 6.0919461e-21 2.6091251e-35)
(0.10010601 0.0077905212 1.4755976e-20 0.00075740333 1.5786941e-21 2.3382358e-36)
(0.055924237 0.0053366124 1.7727977e-20 0.00057666173 2.2406115e-21 6.4583259e-36)
(1.1123247e-09 -1.5904027e-08 5.2884465e-25 2.274041e-07 -7.1947061e-24 3.1567561e-38)
(1.2471142e-08 -1.6372021e-07 -8.8770718e-25 2.1501603e-06 1.1008436e-23 1.2490335e-38)
(4.3786258e-08 -5.326722e-07 -4.174829e-25 6.4873332e-06 4.7350758e-24 8.8346703e-40)
(1.0984007e-07 -1.2326301e-06 6.107062e-25 1.3862904e-05 -6.3229512e-24 7.9432025e-40)
(2.3335828e-07 -2.4106045e-06 -4.2752202e-24 2.499014e-05 4.0410728e-23 1.8653618e-38)
(4.498369e-07 -4.266076e-06 -4.4193052e-25 4.066712e-05 3.8126078e-24 1.0312832e-40)
(8.1380052e-07 -7.0649548e-06 -7.6484055e-24 6.1764975e-05 6.0148424e-23 1.6839826e-38)
(1.4078979e-06 -1.1156235e-05 -1.0959029e-23 8.9205712e-05 7.8428253e-23 1.9549511e-38)
(2.3560371e-06 -1.6991278e-05 1.1748265e-22 0.00012392581 -7.6364416e-22 1.3059415e-36)
(3.841967e-06 -2.5144495e-05 -1.3614566e-22 0.00016682239 8.0221656e-22 1.0410862e-36)
(6.1351595e-06 -3.6333765e-05 8.3862819e-23 0.00021867888 -4.4708847e-22 2.3840855e-37)
(9.6262809e-06 -5.1437968e-05 1.5710778e-22 0.00028006849 -7.5638698e-22 5.1176059e-37)
(1.487489e-05 -7.1507719e-05 -3.9609273e-22 0.00035123677 1.7189588e-21 2.0118195e-36)
(2.2672217e-05 -9.7764125e-05 -6.2036119e-23 0.000431969 2.4224163e-22 3.0807161e-38)
(3.4121685e-05 -0.00013157913 3.0171075e-22 0.00052145484 -1.058124e-21 4.5884324e-37)
(5.0739307e-05 -0.0001744313 2.6018676e-22 0.00061817205 -8.1804589e-22 2.1649929e-37)
(7.4574812e-05 -0.00022783268 -3.7692876e-22 0.00071982064 1.0604353e-21 2.9045245e-37)
(0.00010835246 -0.00029322758 1.6973334e-21 0.00082334721 -4.2647416e-21 3.7935111e-36)
(0.00015562874 -0.00037187399 -1.2422375e-21 0.00092510157 2.782123e-21 1.3194645e-36)
(0.00022096302 -0.00046473274 7.5689492e-22 0.001021157 -1.5079555e-21 3.208333e-37)
(0.00031009987 -0.00057240658 -3.1271387e-21 0.0011077966 5.5310899e-21 3.6234142e-36)
(0.00043016963 -0.00069518455 -9.9044416e-22 0.0011821146 1.5522309e-21 2.4315139e-37)
(0.00058992629 -0.00083324201 2.4988779e-21 0.0012426202 -3.4636927e-21 1.0486506e-36)
(0.00080007893 -0.00098702461 -4.5148367e-21 0.0012896659 5.52575e-21 2.3513039e-36)
(0.0010738908 -0.0011578184 -2.1179841e-21 0.0013255202 2.285807e-21 3.607337e-37)
(0.001427863 -0.0013482123 3.0061491e-21 0.0013539882 -2.8581123e-21 5.1554403e-37)
(0.0018815771 -0.0015617801 2.0021043e-20 0.001379521 -1.6760614e-20 1.6472337e-35)
(0.0024614714 -0.001803603 1.0543904e-20 0.0014055098 -7.7713898e-21 3.3467035e-36)
(0.0032029179 -0.0020801164 -6.078512e-21 0.0014340703 3.9450335e-21 8.2937967e-37)
(0.004146396 -0.0023971378 7.4765042e-21 0.0014679619 -4.2725641e-21 9.4670513e-37)
(0.0053435804 -0.0027620422 -5.3360552e-21 0.0015089929 2.6838913e-21 3.7060785e-37)
(0.0068624142 -0.0031824454 -3.4366706e-20 0.0015569448 1.5205567e-20 1.1914316e-35)
(0.008785876 -0.0036643033 1.3022191e-20 0.0016110114 -5.0642788e-21 1.3437613e-36)
(0.011214076 -0.0042130307 4.3823212e-20 0.001670055 -1.4965656e-20 1.2076595e-35)
(0.014268027 -0.0048327568 -1.640826e-20 0.0017326022 4.9145209e-21 1.3598879e-36)
(0.01809052 -0.0055255911 -2.5703849e-20 0.0017968295 6.7459104e-21 2.6998778e-36)
(0.022846604 -0.0062905253 4.960326e-20 0.0018604636 -1.1392066e-20 8.2212353e-36)
(0.028721693 -0.0071218617 1.6792419e-20 0.0019207794 -3.3703156e-21 7.7721281e-37)
(0.035916337 -0.0080072232 -3.2955107e-20 0.0019747555 5.7668943e-21 2.4984254e-36)
(0.044635685 -0.0089255302 -1.4509325e-20 0.0020196381 2.2076463e-21 4.0795443e-37)
(0.055072891 -0.0098452883 7.6186942e-20 0.0020539305 -1.0039059e-20 9.5601993e-36)
(0.067386228 -0.010725107 -2.3408726e-20 0.0020793972 2.6502265e-21 7.7828309e-37)
(0.081671708 -0.011518072 -3.6585593e-20 0.0021037116 3.5362947e-21 1.6501129e-36)
(0.097943631 -0.012182541 -1.0468875e-19 0.0021428292 8.5264148e-21 1.1877838e-35)
(0.11613367 -0.012696931 2.1162381e-19 0.0022206086 -1.4243449e-20 4.3307382e-35)
(0.13611936 -0.013076334 -1.4447024e-19 0.0023641081 7.8327803e-21 1.8252799e-35)
(0.15780685 -0.013381299 -3.8123286e-20 0.0025915481 1.6097845e-21 1.1650227e-36)
(0.18120516 -0.013685263 -1.5617001e-19 0.0028901443 4.8041071e-21 1.8290371e-35)
(0.20639504 -0.014016791 -1.9206596e-19 0.0032028483 3.8883517e-21 2.6277937e-35)
(0.23337732 -0.014304111 -9.9220941e-21 0.0034562114 1.0848451e-22 6.7505732e-38)
(0.26185622 -0.014361129 4.2177738e-20 0.0035951498 -5.0096247e-23 1.2050379e-36)
(0.29100114 -0.013956329 -3.0810054e-19 0.0036120991 -2.5306323e-21 6.4758438e-35)
(0.31941878 -0.012916555 -1.2902986e-19 0.0035464104 -2.2232952e-21 1.1661654e-35)
(0.34532027 -0.011167199 -1.2860255e-19 0.0034471426 -3.409149e-21 1.2176945e-35)
(0.3667084 -0.008709393 -4.040011e-20 0.0033521409 -1.4743858e-21 1.2978274e-36)
(0.38133029 -0.0055426979 -2.9396321e-19 0.0032771815 -1.3834639e-20 7.6528651e-35)
(0.38658609 -0.0016086335 1.0801187e-19 0.0032115306 6.3948202e-21 1.1909417e-35)
(0.37936951 0.0031031822 -2.9662584e-20 0.0031477863 -2.1744851e-21 1.0885974e-36)
(0.3562127 0.0083965055 -2.1537869e-19 0.003088999 -1.9356291e-20 7.2467972e-35)
(0.31475618 0.013606996 -7.3306818e-20 0.0030617028 -8.0635391e-21 1.1357549e-35)
(0.25568133 0.017453982 7.1797179e-20 0.0030612264 9.6248558e-21 1.6025352e-35)
(0.18656849 0.018619389 1.9497554e-19 0.003070418 3.157181e-20 1.891806e-34)
(0.11927465 0.016063446 -4.6886459e-20 0.0028393578 -9.0078599e-21 1.9295943e-35)
(0.068335442 0.011851668 -5.4947845e-20 0.0023845608 -1.2386142e-20 5.0138573e-35)
(0.033728194 0.007275767 -1.6085381e-20 0.001734093 -4.3953562e-21 9.1986626e-36)
(4.1536793e-09 -4.2252738e-08 -3.5093433e-24 4.2981404e-07 3.4832773e-23 3.5403008e-37)
(4.2574591e-08 -4.1602854e-07 1.2074968e-23 4.065576e-06 -1.1467638e-22 6.4931766e-37)
(1.3860268e-07 -1.3040664e-06 -7.3807965e-24 1.2271691e-05 6.6990767e-23 8.4897384e-38)
(3.2187248e-07 -2.9054256e-06 1.1848402e-24 2.6235899e-05 -1.0248877e-23 1.0034154e-39)
(6.3397995e-07 -5.4753802e-06 -3.2471462e-23 4.7318578e-05 2.6715997e-22 3.9221353e-37)
(1.1343831e-06 -9.3440745e-06 4.4916003e-23 7.7045574e-05 -3.5071872e-22 4.1995564e-37)
(1.9074594e-06 -1.4933703e-05 -8.8932575e-23 0.00011708791 6.5719065e-22 9.6652605e-37)
(3.0722763e-06 -2.2778314e-05 5.3703079e-23 0.00016922206 -3.7439055e-22 2.1401703e-37)
(4.7961342e-06 -3.3546087e-05 2.5890291e-22 0.00023526378 -1.6970593e-21 3.0945587e-36)
(7.312983e-06 -4.8062425e-05 -7.8238089e-23 0.00031696908 4.80511e-22 1.7898633e-37)
(1.0948208e-05 -6.7331776e-05 -3.720574e-22 0.0004158963 2.1335065e-21 2.5973475e-36)
(1.6151596e-05 -9.2554934e-05 1.4112296e-22 0.00053322541 -7.5290987e-22 2.4218692e-37)
(2.3540622e-05 -0.00012513734 1.1673392e-23 0.00066953589 -5.7737355e-23 1.0825709e-39)
(3.3956277e-05 -0.00016668217 -5.64155e-22 0.00082455269 2.5778071e-21 1.6595369e-36)
(4.8533851e-05 -0.00021896154 2.1729197e-21 0.00099688276 -9.1398061e-21 1.6245487e-35)
(6.8790512e-05 -0.00028385874 -1.6387155e-21 0.001183782 6.3225742e-21 6.1220103e-36)
(9.6731392e-05 -0.0003632779 -1.9141249e-23 0.0013810106 6.7500904e-23 5.5547718e-40)
(0.00013497451 -0.00045902306 1.3587554e-21 0.0015828548 -4.3639434e-21 1.8700832e-36)
(0.00018689462 -0.00057266156 -4.2086813e-21 0.0017823983 1.226679e-20 1.2041377e-35)
(0.00025678551 -0.00070540208 2.4152909e-21 0.0019721103 -6.36588e-21 2.6767784e-36)
(0.0003500443 -0.00085804172 4.3638239e-21 0.0021447644 -1.0364329e-20 5.938285e-36)
(0.00047338628 -0.0010310487 2.1313675e-21 0.0022946064 -4.5461642e-21 9.7064327e-37)
(0.00063510934 -0.0012248433 -1.2651118e-20 0.0024185535 2.4156254e-20 2.3676142e-35)
(0.00084544594 -0.0014403056 -7.8888186e-21 0.0025170942 1.3444512e-20 6.4455276e-36)
(0.0011171461 -0.0016795112 6.0439885e-21 0.0025945055 -9.1698781e-21 2.684975e-36)
(0.0014663175 -0.0019464478 -4.1540417e-21 0.0026581691 5.5986087e-21 9.1189093e-37)
(0.0019120251 -0.0022465019 1.8207121e-20 0.0027169871 -2.1763964e-20 1.2797502e-35)
(0.0024796244 -0.002587095 -6.0780863e-21 0.0027783273 6.4368503e-21 1.0570465e-36)
(0.0032034382 -0.0029773462 1.8915287e-20 0.0028461996 -1.7733942e-20 7.7020723e-36)
(0.0041230238 -0.0034258122 -1.2272899e-20 0.0029254208 1.0178977e-20 2.4733734e-36)
(0.0052874466 -0.0039427134 8.6730546e-21 0.0030202174 -6.3574492e-21 9.5356395e-37)
(0.0067612116 -0.0045391078 -3.6150466e-20 0.0031307051 2.3397575e-20 1.2956762e-35)
(0.0086238862 -0.0052238474 5.8733912e-21 0.0032551961 -3.3532534e-21 2.7056373e-37)
(0.010970328 -0.0060046152 -3.4924282e-20 0.0033913505 1.7572358e-20 7.6316828e-36)
(0.01391476 -0.0068874367 3.7523978e-20 0.0035361174 -1.6622202e-20 7.106483e-36)
(0.017591221 -0.0078754168 1.3430671e-20 0.00368561 -5.2339283e-21 7.3962353e-37)
(0.022153383 -0.0089671341 -1.8639863e-19 0.0038349243 6.3805108e-20 1.1731753e-34)
(0.027771988 -0.010154355 -5.3921109e-20 0.0039780935 1.6196399e-20 8.1386316e-36)
(0.034628615 -0.011419137 4.9300865e-20 0.0041084159 -1.2967834e-20 5.7013719e-36)
(0.042904013 -0.012730736 -5.3163401e-20 0.0042195575 1.2214173e-20 5.6066106e-36)
(0.052760213 -0.0140433 1.4935077e-20 0.0043078433 -2.9853952e-21 3.7758891e-37)
(0.064316465 -0.015296608 1.0144789e-19 0.0043764788 -1.7545144e-20 1.5058656e-35)
(0.077622072 -0.016423238 -5.076516e-21 0.0044415791 7.5370155e-22 3.2998586e-38)
(0.092639033 -0.017365258 -3.930835e-20 0.0045373624 4.9509232e-21 1.7437763e-36)
(0.10924521 -0.018098386 2.0301293e-20 0.0047158786 -2.1161735e-21 4.1939342e-37)
(0.12728201 -0.018659396 -1.0777248e-20 0.0050362783 9.3074427e-22 1.0568175e-37)
(0.14665206 -0.019155948 -3.2314977e-20 0.0055348494 2.183072e-21 8.8790046e-37)
(0.16737001 -0.019706288 5.1396529e-19 0.0061768045 -2.5986228e-20 2.1196415e-34)
(0.18952403 -0.02034495 -5.8796777e-20 0.0068339311 2.0225429e-21 2.6589545e-36)
(0.21308749 -0.020941574 5.498187e-20 0.0073440116 -1.1006363e-21 2.2673333e-36)
(0.23766788 -0.021205205 -5.1693381e-19 0.0075914634 3.1210404e-21 1.993909e-34)
(0.26232004 -0.020804506 2.7988351e-19 0.0075690851 2.1014369e-21 5.936431e-35)
(0.28561895 -0.019524972 2.2473041e-19 0.0073687921 4.7817892e-21 3.9739851e-35)
(0.30588771 -0.017301925 2.0642195e-19 0.0071016715 7.3174727e-21 3.5707492e-35)
(0.32139362 -0.01415347 1.8844116e-19 0.006845368 9.5315809e-21 3.2588564e-35)
(0.33028164 -0.010063907 2.7568106e-19 0.0066225086 1.8556094e-20 7.8927975e-35)
(0.33045757 -0.0049203447 -5.0444243e-19 0.0064010772 -4.3637356e-20 3.1019933e-34)
(0.31941721 0.0013502081 2.7796049e-19 0.0061607445 3.0352022e-20 1.157298e-34)
(0.29435513 0.0085246623 3.6713978e-19 0.0059204462 5.0291576e-20 2.6294257e-34)
(0.25369463 0.015702484 -2.2695434e-19 0.0057832457 -3.8917941e-20 1.4020898e-34)
(0.19860978 0.020985246 -5.8355999e-20 0.0058011214 -1.2495857e-20 1.4191467e-35)
(0.13715447 0.022417216 -3.8926341e-20 0.00593324 -1.0354568e-20 1.0763584e-35)
(0.080826696 0.018714012 1.4527605e-19 0.0055906924 4.7060025e-20 2.7883743e-34)
(0.041446695 0.012894586 7.4434601e-20 0.0046573483 2.9103938e-20 1.504823e-34)
(0.017669308 0.0071519919 -2.1380336e-21 0.0032530754 -1.0453902e-21 2.9213806e-37)
(1.0731266e-08 -8.419417e-08 4.0996478e-24 6.6056337e-07 -3.169839e-23 1.7553291e-37)
(1.0591443e-07 -8.1378652e-07 -2.8789659e-23 6.2527812e-06 2.1735722e-22 1.4017354e-36)
(3.3338607e-07 -2.5093065e-06 3.8831521e-23 1.8887807e-05 -2.8577057e-22 9.3182914e-37)
(7.4661675e-07 -5.4927706e-06 -2.1203767e-23 4.0413954e-05 1.5181174e-22 1.3311124e-37)
(1.4163148e-06 -1.0164144e-05 -1.0395652e-23 7.2956575e-05 7.2287278e-23 1.7378544e-38)
(2.4370489e-06 -1.7020672e-05 1.1710704e-22 0.00011891109 -7.8933479e-22 1.2873615e-36)
(3.9348862e-06 -2.6675123e-05 -3.7908021e-23 0.00018091764 2.4707627e-22 8.2629146e-38)
(6.0774289e-06 -3.9875575e-05 -1.011476e-22 0.00026180649 6.3573994e-22 3.7279004e-37)
(9.0871492e-06 -5.7526492e-05 -9.6327765e-24 0.00036450413 5.8208402e-23 2.1964284e-39)
(1.3258782e-05 -8.0709036e-05 -1.0067923e-22 0.00049188938 5.8301919e-22 1.5866415e-37)
(1.8981889e-05 -0.00011069825 1.7232997e-22 0.00064658893 -9.5308254e-22 3.114823e-37)
(2.6769925e-05 -0.00014897365 -1.4572506e-22 0.000830705 7.6696818e-22 1.506741e-37)
(3.7297417e-05 -0.00019721883 -6.5115171e-22 0.0010454741 3.2492194e-21 2.0489613e-36)
(5.1446982e-05 -0.00025730414 -2.2895506e-23 0.0012908683 1.078992e-22 1.7327904e-39)
(7.0368223e-05 -0.00033124651 7.2714834e-22 0.0015651674 -3.2233083e-21 1.2013346e-36)
(9.5550589e-05 -0.0004211412 6.2120977e-22 0.0018645624 -2.5794046e-21 6.038549e-37)
(0.00012891229 -0.00052906305 -6.4399149e-22 0.0021828722 2.4939597e-21 4.4795103e-37)
(0.00017290801 -0.00065694333 7.4338089e-23 0.0025115002 -2.6730458e-22 4.1332319e-39)
(0.00023065764 -0.00080643847 1.8150644e-21 0.0028397638 -6.0328179e-21 1.7082084e-36)
(0.0003061006 -0.00097882698 2.6518051e-21 0.0031557253 -8.1093559e-21 2.5384173e-36)
(0.00040418281 -0.0011749902 -3.6193954e-21 0.0034475713 1.0136324e-20 3.3080533e-36)
(0.00053108728 -0.0013955479 -4.340066e-21 0.0037054538 1.1080154e-20 3.3478618e-36)
(0.0006945283 -0.001641217 6.9300652e-21 0.0039234813 -1.6056747e-20 6.0548703e-36)
(0.00090413128 -0.0019134126 -1.0126192e-20 0.0041013445 2.120359e-20 9.2560409e-36)
(0.0011719959 -0.0022150809 -2.0601472e-20 0.0042449394 3.883575e-20 2.7728721e-35)
(0.0015135804 -0.0025516057 5.6644328e-20 0.0043655199 -9.5805252e-20 1.5360801e-34)
(0.0019475569 -0.0029304116 -3.6146037e-20 0.0044774851 5.4699017e-20 4.642834e-35)
(0.0024977544 -0.0033610818 6.1677588e-20 0.0045940615 -8.3325501e-20 1.0167406e-34)
(0.0031966903 -0.0038550367 -8.8200971e-20 0.0047219388 1.0619533e-19 1.5847661e-34)
(0.0040830328 -0.0044236128 1.1209497e-19 0.0048679159 -1.2009536e-19 1.9746658e-34)
(0.0052026252 -0.0050793268 -1.313009e-19 0.0050399475 1.2497906e-19 2.1149092e-34)
(0.0066155356 -0.0058364806 2.4916598e-20 0.0052398142 -2.1041494e-20 6.0144355e-36)
(0.0083963922 -0.0067066537 9.6683369e-20 0.0054647602 -7.2349339e-20 7.2156215e-35)
(0.010633499 -0.0076993488 -6.1018279e-20 0.005710745 4.0414026e-20 2.3138908e-35)
(0.013432155 -0.0088219712 2.1272632e-20 0.005972528 -1.2456721e-20 2.2859101e-36)
(0.016915051 -0.010078105 6.8949214e-21 0.0062433322 -3.5657213e-21 1.9711707e-37)
(0.021221236 -0.011465353 9.4191927e-20 0.0065145146 -4.2984117e-20 3.0367443e-35)
(0.026502755 -0.012972318 3.3866109e-20 0.0067754255 -1.3619848e-20 3.2721304e-36)
(0.032917441 -0.014574833 3.7501864e-20 0.0070139517 -1.3262405e-20 3.3791957e-36)
(0.040616293 -0.016232008 4.0506293e-20 0.0072184501 -1.2562898e-20 3.3569019e-36)
(0.049724884 -0.017883427 -2.2435253e-19 0.0073817596 6.0784044e-20 8.8517706e-35)
(0.060319221 -0.01945083 1.0639085e-19 0.0075088932 -2.5041657e-20 1.7293333e-35)
(0.072401089 -0.0208489 1.8221058e-20 0.0076278057 -3.7078221e-21 4.4320945e-37)
(0.085885932 -0.022009715 -2.2340809e-19 0.0077991171 3.8629133e-20 5.9649583e-35)
(0.10061804 -0.02291889 -1.1967919e-19 0.0081159557 1.7376857e-20 1.5443048e-35)
(0.11644269 -0.023655376 6.1569807e-20 0.0086827081 -7.3489603e-21 3.7530421e-36)
(0.13331082 -0.024390549 2.3211952e-19 0.009554701 -2.2025467e-20 4.9711902e-35)
(0.15129822 -0.025280945 -1.0361657e-19 0.010650411 7.5187624e-21 9.4109575e-36)
(0.17051048 -0.026334232 3.0747834e-19 0.011734912 -1.5605868e-20 8.0162369e-35)
(0.19084731 -0.027319144 1.6797618e-19 0.01252133 -5.1969815e-21 2.3586566e-35)
(0.21174454 -0.027814554 2.3038265e-19 0.012825452 -2.8383175e-21 4.4601127e-35)
(0.23208703 -0.027405099 6.0754887e-19 0.012663577 4.000441e-21 3.1883992e-34)
(0.25040926 -0.025881166 -4.5535661e-19 0.012214541 -1.1525025e-20 1.8843803e-34)
(0.26517988 -0.023236544 1.4199539e-19 0.011675214 6.4711283e-21 1.9780535e-35)
(0.27498029 -0.019536457 -2.2949375e-19 0.011169747 -1.5201646e-20 5.7527481e-35)
(0.27836857 -0.014766375 -2.0149302e-19 0.010726179 -1.8187058e-20 5.1078157e-35)
(0.273736 -0.0087729111 -7.1339434e-20 0.010280684 -8.4412787e-21 7.6882637e-36)
(0.25918791 -0.0014306633 -5.7418276e-19 0.0097864734 -8.6889585e-20 6.2737311e-34)
(0.23269446 0.0069954768 -1.324082e-19 0.009273173 -2.5621475e-20 4.4761152e-35)
(0.19362988 0.01541682 2.5028949e-19 0.0089473436 6.196073e-20 2.316455e-34)
(0.14385463 0.021439288 7.4642685e-20 0.0089657581 2.3645977e-20 3.291161e-35)
(0.091811199 0.022649817 -4.1462827e-20 0.0092405752 -1.674345e-20 1.8337703e-35)
(0.048522038 0.018013583 -6.0662838e-20 0.0087335985 -3.06071e-20 7.839555e-35)
(0.021558424 0.011408791 -6.4207679e-20 0.00712858 -3.9795988e-20 1.9009588e-34)
(0.0077407028 0.0056546667 3.1049481e-21 0.0047819691 2.4252266e-21 1.1056422e-36)
(2.1896734e-08 -1.3910779e-07 1.8542714e-23 8.8373947e-07 -1.1665573e-22 1.6296041e-36)
(2.1208692e-07 -1.3326544e-06 1.3661022e-23 8.3738435e-06 -8.4771881e-23 1.4706361e-37)
(6.56192e-07 -4.0761631e-06 -1.8067172e-23 2.532112e-05 1.1040567e-22 9.6444096e-38)
(1.4418175e-06 -8.8431577e-06 -9.5189788e-23 5.4241016e-05 5.7217472e-22 1.3153363e-36)
(2.6801788e-06 -1.6209382e-05 6.9925089e-23 9.8041902e-05 -4.1293774e-22 3.9500143e-37)
(4.5127154e-06 -2.6870531e-05 -1.3018363e-22 0.00016002368 7.5423333e-22 8.1870348e-37)
(7.1188663e-06 -4.1659882e-05 7.1117751e-23 0.00024385502 -4.035119e-22 1.5336849e-37)
(1.0725664e-05 -6.1565491e-05 2.1018205e-23 0.00035351287 -1.165477e-22 8.7069458e-39)
(1.5619921e-05 -8.7746654e-05 -1.4575202e-22 0.00049317247 7.8802878e-22 2.7921802e-37)
(2.2163412e-05 -0.00012154703 -3.8126128e-22 0.00066703103 2.0047398e-21 1.2984494e-36)
(3.0811844e-05 -0.00016450199 -2.307436e-23 0.00087905036 1.1767029e-22 3.2763971e-39)
(4.2138525e-05 -0.00021833676 9.0633169e-22 0.0011326046 -4.4689832e-21 3.5215825e-36)
(5.6863869e-05 -0.0002849511 -1.4986931e-21 0.0014300274 7.122132e-21 6.7554841e-36)
(7.5892242e-05 -0.00036638627 2.8854505e-21 0.0017720647 -1.316941e-20 1.7663359e-35)
(0.00010035794 -0.00046476992 -8.9764474e-22 0.0021572675 3.9199626e-21 1.2103966e-36)
(0.00013168278 -0.00058223687 2.2677426e-21 0.002581386 -9.4373824e-21 5.4847616e-36)
(0.00017164828 -0.00072082715 -3.2573639e-21 0.0030368821 1.2862999e-20 8.0523117e-36)
(0.00022248678 -0.00088237161 2.5114436e-21 0.0035127151 -9.3678701e-21 3.4125116e-36)
(0.00028699698 -0.0010683853 -4.7062967e-22 0.0039946054 1.6502485e-21 8.5634496e-38)
(0.00036869187 -0.0012800079 -2.2613276e-21 0.0044659764 7.4166207e-21 1.4162734e-36)
(0.00047198998 -0.0015180451 6.4997676e-21 0.0049097017 -1.9836102e-20 8.413485e-36)