/*--------------------------------*- C++ -*----------------------------------*\
  =========                 |
  \\      /  F ield         | OpenFOAM: The Open Source CFD Toolbox
   \\    /   O peration     | Website:  https://openfoam.org
    \\  /    A nd           | Version:  13
     \\/     M anipulation  |
\*---------------------------------------------------------------------------*/
FoamFile
{
    format      ascii;
    class       volScalarField;
    location    "27.497997";
    object      pMean;
}
// * * * * * * * * * * * * * * * * * * * * * * * * * * * * * * * * * * * * * //

dimensions      [0 2 -2 0 0 0 0];

internalField   nonuniform List<scalar> 
17140
(
1.604754
1.6046448
1.6045131
1.6043792
1.6042347
1.6040775
1.6039075
1.6037245
1.6035281
1.6033182
1.6030945
1.6028569
1.6026047
1.6023371
1.6020522
1.6017468
1.6014154
1.6010493
1.6006352
1.6001539
1.5995775
1.5988677
1.5979715
1.5968166
1.5953188
1.5934081
1.5910415
1.5881703
1.5847084
1.5805435
1.5755536
1.5696015
1.5625361
1.5541932
1.5443977
1.5329691
1.5197323
1.5045329
1.4872596
1.4678757
1.4464546
1.4232249
1.3986313
1.3733745
1.3484546
1.3251657
1.3048143
1.288719
1.2781915
1.2743038
1.2777691
1.2890134
1.308186
1.3349003
1.3684923
1.40748
1.4505014
1.4948968
1.5399345
1.5810111
1.6198919
1.6475071
1.673811
1.6802418
1.6946114
1.602971
1.602864
1.6027349
1.6026036
1.6024619
1.6023077
1.6021409
1.6019614
1.6017688
1.6015628
1.6013434
1.6011104
1.6008632
1.6006011
1.6003223
1.6000235
1.5996996
1.5993419
1.5989375
1.5984672
1.5979035
1.5972084
1.5963293
1.5951943
1.5937188
1.5918314
1.5894889
1.5866437
1.5832091
1.5790722
1.5741104
1.5681864
1.5611481
1.5528307
1.5430579
1.5316483
1.5184257
1.5032342
1.4859612
1.4665681
1.4451269
1.4218651
1.3972259
1.3719133
1.3469412
1.3235742
1.3031386
1.2870023
1.2764408
1.2725017
1.2759208
1.2871241
1.306231
1.3328706
1.3663754
1.4052544
1.4481741
1.492511
1.537557
1.5787193
1.6177797
1.645683
1.6722351
1.6786458
1.6932599
1.5986149
1.5985132
1.5983908
1.5982659
1.5981309
1.5979841
1.5978252
1.5976541
1.5974705
1.5972742
1.5970652
1.5968433
1.5966082
1.5963592
1.5960948
1.5958121
1.5955062
1.5951688
1.5947876
1.5943438
1.5938108
1.593151
1.5923129
1.591226
1.5898046
1.587974
1.5856895
1.5829043
1.5795329
1.5754618
1.5705667
1.5647092
1.5577358
1.5494794
1.5397617
1.5283987
1.5152111
1.50004
1.4827694
1.4633574
1.4418729
1.4185424
1.39381
1.3683924
1.343315
1.3198165
1.2992472
1.2830013
1.272362
1.2683659
1.2717172
1.2828234
1.3018128
1.3283194
1.361659
1.4003508
1.443079
1.4872572
1.5322405
1.573486
1.6127857
1.6410165
1.6679242
1.6745651
1.689698
1.5917697
1.5916765
1.5915647
1.5914499
1.5913257
1.5911904
1.591044
1.5908863
1.590717
1.590536
1.5903434
1.5901391
1.5899231
1.5896948
1.5894531
1.5891955
1.5889175
1.5886117
1.5882664
1.5878637
1.5873779
1.5867728
1.5859981
1.5849857
1.583649
1.5819083
1.5797147
1.577022
1.5737484
1.5697799
1.5649893
1.5592367
1.5523662
1.5442076
1.5345791
1.5232927
1.510165
1.4950322
1.4777733
1.4583411
1.4368008
1.413378
1.3885193
1.3629599
1.337735
1.3140615
1.2933285
1.2769465
1.266208
1.2621395
1.2654146
1.2764061
1.2952332
1.3215369
1.3546274
1.3930056
1.4353941
1.4792709
1.5240879
1.5653726
1.6049609
1.6337194
1.6612317
1.6684494
1.6843463
1.5826587
1.582577
1.5824794
1.5823782
1.5822685
1.582149
1.5820195
1.5818798
1.5817298
1.5815695
1.581399
1.5812185
1.581028
1.5808273
1.5806157
1.5803913
1.5801502
1.5798858
1.5795873
1.5792382
1.5788141
1.57828
1.577588
1.5766725
1.5754478
1.5738281
1.5717558
1.5691851
1.5660405
1.5622086
1.5575577
1.5519463
1.5452152
1.5371905
1.5276859
1.5165087
1.5034697
1.488399
1.4711692
1.4517266
1.4301319
1.4066095
1.3816131
1.3558999
1.3305033
1.3066449
1.2857472
1.2692298
1.2584082
1.2542858
1.2574976
1.2683763
1.2870321
1.3131046
1.3458886
1.3838737
1.4258531
1.4693662
1.5139659
1.5553009
1.5952176
1.6246092
1.6528131
1.6608916
1.6777109
1.5716507
1.5715831
1.5715029
1.5714185
1.5713267
1.5712266
1.571118
1.5710007
1.5708746
1.5707398
1.5705965
1.570445
1.5702857
1.5701187
1.5699435
1.5697588
1.5695616
1.5693462
1.569103
1.5688167
1.5684646
1.5680137
1.5674184
1.5666163
1.5655255
1.5640536
1.5621284
1.5597038
1.556714
1.5530465
1.5485657
1.5431273
1.5365687
1.5287119
1.5193654
1.5083309
1.4954126
1.4804336
1.4632586
1.4438263
1.4221923
1.3985803
1.3734547
1.3475959
1.3220302
1.2980081
1.276966
1.2603369
1.2494596
1.2453208
1.2485086
1.2593106
1.2778188
1.3036584
1.3361038
1.3736374
1.4151251
1.4582223
1.5025928
1.5440089
1.5843003
1.614467
1.6435384
1.6526787
1.6705872
1.5592447
1.5591931
1.559132
1.559067
1.5589961
1.5589186
1.5588342
1.5587428
1.5586444
1.5585392
1.5584274
1.5583095
1.558186
1.5580572
1.5579232
1.5577831
1.5576346
1.5574732
1.5572902
1.5570721
1.5567978
1.5564367
1.5559455
1.5552659
1.5543204
1.553014
1.5512595
1.5490018
1.5461826
1.5426979
1.5384104
1.53317
1.5268114
1.5191519
1.5099951
1.4991365
1.4863734
1.4715209
1.4544347
1.4350455
1.4134033
1.3897323
1.3645114
1.3385374
1.3128391
1.2886952
1.2675364
1.2508204
1.2399134
1.235791
1.2389956
1.2497698
1.2681808
1.2938376
1.3259928
1.3631126
1.4041118
1.4468006
1.4909828
1.5325632
1.5732846
1.6043219
1.6342562
1.6445098
1.6633799
1.5460447
1.5460106
1.54597
1.5459264
1.5458786
1.545826
1.5457683
1.5457056
1.5456379
1.5455653
1.5454883
1.5454072
1.5453228
1.5452355
1.5451457
1.545053
1.5449557
1.54485
1.5447286
1.5445795
1.5443834
1.544112
1.5437252
1.5431679
1.542368
1.5412345
1.539668
1.5375908
1.5349485
1.5316549
1.5275733
1.5225473
1.5164085
1.5089698
1.50003
1.4893786
1.476806
1.4621187
1.4451633
1.425862
1.4042591
1.3805816
1.3553247
1.3292881
1.3035171
1.2793031
1.2580555
1.241264
1.2303355
1.2262536
1.2295168
1.2403091
1.2586798
1.2842214
1.316163
1.352958
1.3935688
1.435918
1.4799488
1.5216889
1.5628638
1.5948249
1.625628
1.6371851
1.6570418
1.532723
1.5327073
1.5326882
1.5326672
1.5326437
1.5326173
1.5325879
1.5325556
1.5325204
1.5324824
1.5324421
1.5323999
1.5323564
1.5323124
1.5322681
1.5322235
1.5321773
1.5321264
1.5320645
1.5319809
1.5318581
1.5316703
1.5313801
1.5309366
1.5302721
1.5293014
1.5279246
1.5260426
1.523581
1.520471
1.516595
1.5117895
1.5058798
1.4986771
1.4899757
1.4795598
1.4672128
1.4527333
1.4359589
1.4168036
1.395307
1.3716995
1.3464915
1.3204773
1.2947228
1.2705065
1.2492093
1.2323618
1.2214275
1.2173974
1.2207248
1.231564
1.2499507
1.2754447
1.3072381
1.3437743
1.3840814
1.4261869
1.4701421
1.5123395
1.5541834
1.5871247
1.6187019
1.6312661
1.6516171
1.5199725
1.5199751
1.5199775
1.5199792
1.5199802
1.5199804
1.5199797
1.5199782
1.519976
1.5199732
1.5199702
1.5199674
1.5199653
1.5199645
1.5199654
1.5199678
1.5199707
1.5199714
1.5199642
1.5199393
1.519881
1.5197653
1.5195578
1.5192113
1.5186628
1.5178325
1.5166251
1.5149365
1.5126669
1.509732
1.5060387
1.5014458
1.4957696
1.488812
1.4803644
1.4702077
1.4581205
1.4438949
1.4273615
1.4084275
1.3871297
1.3637026
1.3386628
1.3128014
1.2871925
1.2630771
1.2418179
1.2249872
1.2140846
1.2101045
1.2135058
1.2244293
1.2428608
1.2683233
1.2999965
1.3363503
1.3764995
1.418642
1.4628978
1.5055914
1.5478363
1.5812957
1.6130642
1.6263434
1.6469039
1.5084482
1.5084682
1.5084911
1.5085144
1.5085388
1.5085646
1.5085916
1.5086199
1.5086497
1.5086812
1.5087145
1.5087501
1.5087882
1.5088293
1.5088735
1.5089205
1.5089691
1.5090166
1.5090577
1.5090831
1.5090781
1.5090206
1.5088785
1.5086077
1.5081498
1.5074304
1.5063592
1.5048334
1.5027469
1.4999978
1.4964803
1.4920685
1.4866026
1.4798871
1.4717045
1.4618314
1.4500435
1.4361286
1.4199134
1.4013019
1.3803305
1.3572376
1.3325278
1.3069994
1.2817225
1.257885
1.2368391
1.2201583
1.2093509
1.2054545
1.2089073
1.2198124
1.238211
1.2636048
1.2951667
1.3314248
1.3715005
1.4137284
1.4582104
1.5011806
1.5435239
1.5772338
1.6089277
1.6227169
1.643038
1.4987071
1.4987426
1.4987837
1.4988265
1.498872
1.4989209
1.498973
1.4990287
1.499088
1.499151
1.499218
1.4992893
1.4993649
1.499445
1.4995294
1.4996174
1.4997076
1.4997969
1.4998797
1.4999471
1.499985
1.4999721
1.4998783
1.4996619
1.4992684
1.4986285
1.4976573
1.4962553
1.4943152
1.4917287
1.4883837
1.4841551
1.4788891
1.472402
1.4644851
1.4549168
1.4434719
1.4299378
1.4141391
1.3959796
1.3754964
1.3529286
1.3287698
1.3038149
1.2790961
1.2557679
1.2351611
1.2188036
1.2082035
1.2043131
1.2076293
1.2183421
1.2365382
1.2617296
1.2930947
1.3291676
1.3691583
1.4115058
1.4561962
1.4994652
1.5418035
1.5753303
1.6062765
1.6205412
1.6399897
1.491149
1.4911969
1.491253
1.4913116
1.4913746
1.4914426
1.4915159
1.4915947
1.491679
1.4917693
1.4918655
1.4919679
1.4920766
1.4921913
1.4923115
1.4924363
1.4925637
1.4926902
1.4928099
1.4929137
1.4929874
1.4930106
1.4929538
1.4927776
1.49243
1.4918455
1.4909447
1.4896351
1.4878096
1.4853537
1.4821589
1.4781023
1.4730344
1.466784
1.4591503
1.4499184
1.4388678
1.4257923
1.4105267
1.3929722
1.3731658
1.3513414
1.3279871
1.3038692
1.2799615
1.2573807
1.2374314
1.2215845
1.2111568
1.2071535
1.2101705
1.2205448
1.2383721
1.2632126
1.2942368
1.3300459
1.3700796
1.4126705
1.4576242
1.5007056
1.5423061
1.5748374
1.605154
1.6191002
1.637556
1.4859701
1.4860268
1.4860932
1.4861632
1.4862387
1.4863208
1.4864097
1.4865057
1.4866092
1.4867204
1.4868395
1.4869667
1.4871021
1.4872452
1.4873955
1.4875517
1.4877114
1.4878708
1.4880238
1.488161
1.4882682
1.4883252
1.4883033
1.4881639
1.4878569
1.4873194
1.4864754
1.4852365
1.4835046
1.481176
1.4780968
1.4742009
1.4693397
1.4633383
1.456013
1.4471647
1.4365886
1.4240853
1.4094807
1.3926962
1.3737705
1.3529243
1.3306223
1.3075823
1.2847252
1.2631109
1.244
1.2286559
1.2183582
1.2141725
1.2167809
1.226652
1.2439758
1.2683261
1.2988726
1.3344609
1.374432
1.4171961
1.4618047
1.5041908
1.5444618
1.5760397
1.6046354
1.6182219
1.6357391
1.4831278
1.4831888
1.4832607
1.4833366
1.483419
1.483509
1.4836069
1.4837132
1.4838283
1.4839527
1.4840868
1.4842307
1.4843846
1.4845482
1.484721
1.4849016
1.4850877
1.4852754
1.4854588
1.4856284
1.4857705
1.4858654
1.4858853
1.4857926
1.4855386
1.4850616
1.4842879
1.4831328
1.4814995
1.4792883
1.4764278
1.4727064
1.4679932
1.4622727
1.4553059
1.4469062
1.4368763
1.4250335
1.4112309
1.3953975
1.3775566
1.3579142
1.3368918
1.3151408
1.293518
1.2730303
1.2547444
1.2398689
1.2296753
1.2251983
1.2273093
1.2365963
1.2533131
1.2770126
1.307008
1.3422535
1.3822021
1.4246348
1.4685022
1.5095597
1.5481325
1.5777645
1.6048538
1.6176904
1.6343219
1.4823777
1.4824387
1.4825112
1.4825875
1.4826707
1.482762
1.4828618
1.4829708
1.4830895
1.4832185
1.4833584
1.4835096
1.4836724
1.4838468
1.4840325
1.4842286
1.484433
1.4846425
1.4848517
1.485052
1.4852309
1.48537
1.4854435
1.4854156
1.4852392
1.4848548
1.4841896
1.483159
1.4816681
1.4796175
1.4769083
1.4733872
1.4690302
1.4636102
1.4569998
1.4491112
1.4397307
1.4286909
1.4158611
1.4011509
1.3845881
1.3663471
1.3467868
1.3264876
1.3062197
1.2868396
1.2693384
1.2548983
1.2446938
1.2399002
1.2414806
1.2501528
1.2661594
1.2890959
1.3184672
1.3534137
1.3929087
1.4345305
1.477102
1.5161813
1.5523978
1.5801086
1.605394
1.6175825
1.6334467
1.4832771
1.4833341
1.4834027
1.4834743
1.4835528
1.4836393
1.4837344
1.4838388
1.4839531
1.4840782
1.4842147
1.4843634
1.4845248
1.4846994
1.4848872
1.4850878
1.4853001
1.4855216
1.4857482
1.4859732
1.4861859
1.4863707
1.4865048
1.4865564
1.4864821
1.4862252
1.4857143
1.4848646
1.4835818
1.4817645
1.479304
1.4761282
1.4720973
1.4670859
1.4610512
1.4537513
1.4451137
1.435007
1.4232861
1.4098638
1.3947475
1.3780613
1.3601015
1.3413487
1.3224237
1.3041096
1.2873481
1.2732066
1.2629605
1.2578238
1.258893
1.2669284
1.2820873
1.3042425
1.3330289
1.367409
1.4059639
1.4464903
1.4868366
1.5234819
1.5571592
1.582656
1.6063936
1.6179206
1.6331121
1.4853269
1.4853769
1.4854376
1.4855007
1.4855699
1.4856468
1.4857316
1.4858253
1.4859285
1.4860422
1.4861672
1.4863044
1.4864548
1.486619
1.4867976
1.4869911
1.4871991
1.4874204
1.4876527
1.4878915
1.4881291
1.4883538
1.4885478
1.4886852
1.4887297
1.4886313
1.4883254
1.487732
1.4867563
1.4852946
1.4832352
1.4804797
1.4769253
1.4724909
1.4670319
1.4605151
1.4528419
1.4437817
1.433299
1.4213046
1.4077665
1.3927553
1.3764729
1.3592645
1.341654
1.3243501
1.3081898
1.2942882
1.2839595
1.2785081
1.279076
1.2863219
1.3006893
1.3221001
1.3501868
1.3835902
1.4211274
1.4594231
1.497206
1.5310955
1.5619574
1.5856306
1.6078885
1.6187588
1.6333564
1.4879971
1.4880383
1.4880884
1.4881405
1.4881979
1.4882619
1.4883329
1.4884117
1.4884992
1.4885961
1.4887035
1.4888225
1.4889539
1.4890991
1.4892589
1.4894343
1.4896259
1.4898338
1.4900573
1.4902943
1.4905406
1.4907888
1.491027
1.4912369
1.4913915
1.4914526
1.491367
1.4910653
1.4904613
1.4894537
1.4879307
1.4857819
1.4828961
1.4791946
1.4745867
1.4690007
1.4623258
1.4545375
1.4455109
1.4350909
1.4232543
1.4099963
1.395409
1.3797312
1.3633798
1.3469562
1.3313052
1.3175659
1.3071434
1.3013501
1.3012924
1.3077756
1.3213671
1.3420173
1.3692545
1.4017217
1.4372732
1.4728805
1.507799
1.5385089
1.5671273
1.5889964
1.6099097
1.6201101
1.6341769
1.4908596
1.4908913
1.4909297
1.4909699
1.4910146
1.4910646
1.4911204
1.4911826
1.4912521
1.4913297
1.4914164
1.4915131
1.4916211
1.4917415
1.4918756
1.4920249
1.4921903
1.4923732
1.492574
1.4927927
1.493028
1.4932767
1.4935327
1.4937854
1.494018
1.4942053
1.4943106
1.4942831
1.494055
1.4935409
1.4926401
1.4912422
1.4892339
1.4865134
1.4829888
1.4785872
1.4732526
1.4669298
1.4594651
1.4507641
1.4407283
1.4292653
1.4163783
1.4021767
1.3869658
1.3713068
1.3560512
1.3424411
1.3318268
1.3255784
1.3248447
1.3306501
1.3435802
1.3635333
1.3900495
1.4209071
1.4536508
1.4864126
1.5179445
1.5461912
1.5725755
1.5928066
1.6124612
1.6219939
1.6355888
1.4935916
1.4936144
1.4936419
1.4936712
1.4937038
1.4937404
1.4937815
1.4938277
1.4938796
1.4939379
1.4940035
1.4940774
1.4941606
1.4942544
1.49436
1.4944791
1.494613
1.4947633
1.4949317
1.4951193
1.4953269
1.4955542
1.4957998
1.4960595
1.4963259
1.496586
1.4968196
1.4969974
1.4970775
1.4970031
1.4967009
1.4960823
1.4950473
1.4934919
1.4913166
1.4884245
1.4847141
1.4800961
1.474458
1.4676679
1.4595464
1.4499318
1.4387129
1.4258842
1.4116815
1.3966371
1.3816935
1.3680574
1.357133
1.3503803
1.3491215
1.3544646
1.3669087
1.3864576
1.4117908
1.4399378
1.4700325
1.4993884
1.5282191
1.5539699
1.5783713
1.5970647
1.6155546
1.6244102
1.6375834
1.496033
1.4960484
1.4960668
1.4960868
1.4961091
1.4961343
1.4961627
1.4961949
1.4962312
1.4962723
1.4963189
1.496372
1.4964323
1.4965011
1.4965793
1.4966683
1.4967695
1.4968846
1.4970154
1.4971635
1.4973309
1.4975198
1.4977312
1.4979655
1.4982215
1.4984962
1.4987835
1.4990728
1.4993477
1.4995836
1.4997452
1.4997842
1.4996388
1.4992305
1.498466
1.4972361
1.4954143
1.4928509
1.4893634
1.484738
1.4787137
1.4710222
1.4614329
1.4498764
1.4365278
1.4219749
1.4071293
1.3933195
1.3820077
1.3749117
1.3734678
1.378717
1.3912611
1.4100479
1.4329581
1.4588118
1.4856983
1.5122153
1.5384021
1.5619664
1.5845254
1.6017731
1.6191896
1.6273758
1.6401703
1.4981295
1.4981389
1.4981504
1.4981628
1.4981767
1.4981926
1.4982106
1.4982309
1.4982541
1.4982806
1.4983112
1.4983461
1.4983854
1.4984297
1.4984806
1.4985399
1.4986094
1.4986909
1.498786
1.4988958
1.499021
1.4991635
1.4993271
1.4995153
1.4997314
1.4999788
1.5002611
1.5005813
1.5009428
1.5013477
1.501796
1.5022861
1.5028081
1.5033374
1.503824
1.5041794
1.5042611
1.5038581
1.5026978
1.5004438
1.496684
1.4909981
1.4830682
1.4727533
1.4601767
1.4459314
1.4310613
1.4169732
1.4054613
1.3985786
1.3975465
1.4035526
1.4158941
1.4330883
1.4536913
1.4768928
1.500814
1.5247492
1.5486439
1.5701784
1.5910457
1.6069417
1.623358
1.6308849
1.6433466
1.499965
1.4999695
1.499975
1.499981
1.4999877
1.4999954
1.5000044
1.5000147
1.5000267
1.5000405
1.5000566
1.500075
1.5000963
1.5001216
1.5001519
1.5001883
1.500231
1.5002805
1.5003382
1.500407
1.5004896
1.500587
1.5007009
1.5008353
1.5009956
1.5011911
1.5014322
1.5017293
1.5020968
1.5025551
1.5031301
1.5038585
1.5047774
1.5059119
1.507277
1.5088451
1.5105013
1.5120233
1.5130569
1.5130972
1.5115881
1.507952
1.5017313
1.4926041
1.480722
1.4667211
1.4517555
1.4379166
1.4273707
1.4215381
1.4219412
1.4282785
1.4396065
1.454892
1.4737748
1.4937779
1.5154374
1.5371298
1.5589279
1.5786167
1.5979305
1.6125625
1.6280569
1.6349387
1.6470991
1.5016111
1.5016102
1.5016091
1.501608
1.5016068
1.5016059
1.5016053
1.5016053
1.5016059
1.5016071
1.5016094
1.5016137
1.5016201
1.5016261
1.5016308
1.5016365
1.5016456
1.5016607
1.5016851
1.5017206
1.5017676
1.5018251
1.501894
1.5019806
1.5020928
1.5022392
1.5024326
1.5026903
1.5030353
1.5034967
1.5041131
1.5049394
1.5060379
1.5074762
1.5093246
1.511601
1.5142459
1.5170607
1.5196891
1.5215888
1.5220421
1.520277
1.5156338
1.507671
1.496434
1.4829892
1.4691688
1.4572195
1.448267
1.4444464
1.4456827
1.451647
1.4618028
1.4756907
1.4919458
1.5101322
1.5297082
1.5493571
1.5692843
1.5872846
1.6051763
1.6186322
1.6332755
1.6395302
1.6514326
1.503125
1.5031176
1.5031089
1.5030998
1.5030899
1.5030792
1.5030675
1.5030553
1.5030426
1.5030293
1.5030155
1.5030014
1.5029869
1.5029722
1.5029577
1.5029439
1.5029323
1.5029246
1.5029216
1.5029255
1.5029403
1.502968
1.503008
1.5030644
1.5031451
1.5032583
1.5034156
1.5036356
1.5039458
1.5043818
1.5049819
1.5057996
1.5069129
1.5084062
1.5103711
1.5128717
1.5159207
1.5193906
1.5229561
1.5260658
1.5278929
1.5275352
1.5240857
1.5171077
1.5073939
1.4961013
1.484792
1.4748332
1.4684193
1.465942
1.4672578
1.4732681
1.4825947
1.4947808
1.5095242
1.5258695
1.5436104
1.5614731
1.5797165
1.5961832
1.6127784
1.6251427
1.6390036
1.6446559
1.6563372
1.5042334
1.5042197
1.5042036
1.5041867
1.5041683
1.5041476
1.5041244
1.5040995
1.5040744
1.5040493
1.5040233
1.5039961
1.5039679
1.5039387
1.5039084
1.5038774
1.5038462
1.5038157
1.5037873
1.5037642
1.5037503
1.503749
1.5037621
1.5037908
1.5038434
1.5039344
1.5040748
1.5042751
1.5045577
1.5049588
1.5055253
1.5063125
1.5073879
1.5088352
1.5107603
1.5132558
1.5163313
1.5199201
1.5237476
1.5272731
1.5296714
1.530101
1.5279885
1.5230601
1.5158248
1.5071175
1.4983664
1.4912882
1.4869898
1.4851519
1.4874886
1.4930968
1.5018167
1.5128474
1.5261883
1.5410539
1.5572271
1.5734964
1.5902372
1.6053149
1.6207303
1.6320856
1.6452282
1.6503033
1.6618061
1.5046709
1.5046535
1.5046332
1.5046117
1.5045885
1.5045632
1.5045357
1.504506
1.5044739
1.5044397
1.5044036
1.5043656
1.5043261
1.5042853
1.5042439
1.5042025
1.504162
1.5041238
1.5040891
1.5040595
1.5040386
1.5040332
1.5040461
1.504073
1.5041166
1.5041928
1.5043155
1.5044975
1.5047572
1.5051174
1.5056163
1.5063147
1.5072797
1.5085882
1.5103099
1.5125211
1.5153179
1.5186661
1.5223683
1.5259795
1.5289139
1.5304877
1.5299677
1.5271279
1.5223882
1.5164449
1.5105314
1.5062395
1.5032505
1.5031578
1.5062497
1.5116265
1.5196919
1.5299222
1.5421973
1.5557838
1.5705837
1.5854524
1.6008559
1.61468
1.6290242
1.6394527
1.65194
1.656478
1.6678317
1.5039919
1.503976
1.5039574
1.5039377
1.5039163
1.5038931
1.5038679
1.5038408
1.5038118
1.5037808
1.503748
1.5037134
1.5036774
1.5036403
1.5036026
1.5035649
1.5035281
1.5034929
1.5034608
1.5034346
1.5034167
1.5034084
1.5034127
1.5034331
1.5034753
1.5035488
1.5036625
1.5038279
1.5040598
1.5043835
1.5048316
1.5054463
1.5062873
1.5074188
1.5089446
1.5109508
1.5134986
1.5166162
1.5201968
1.5239859
1.5274543
1.5299901
1.5309913
1.5302607
1.5279653
1.5245997
1.5217021
1.5194116
1.5183859
1.5198227
1.5232032
1.5287645
1.5365746
1.5462
1.5575829
1.5700994
1.5837268
1.5973655
1.6115828
1.624279
1.6376556
1.6472354
1.6591259
1.6631647
1.6743902
1.5024378
1.5024268
1.5024139
1.5024003
1.5023856
1.5023695
1.5023522
1.5023336
1.5023136
1.5022925
1.5022701
1.5022466
1.5022224
1.5021977
1.502173
1.502149
1.5021265
1.5021065
1.5020906
1.5020802
1.5020772
1.5020842
1.5021046
1.502142
1.5022
1.5022843
1.5024059
1.5025746
1.5028004
1.5031012
1.503511
1.5040895
1.5048939
1.5059628
1.5073711
1.5092482
1.5116902
1.5147314
1.5183395
1.5223293
1.5263294
1.5297942
1.5322181
1.5333061
1.5330386
1.532428
1.5318956
1.5315735
1.53254
1.5349597
1.5390961
1.544939
1.552587
1.5617698
1.5724574
1.5840785
1.5966979
1.60926
1.6224291
1.6341153
1.64662
1.6554259
1.6667734
1.6703517
1.6814786
1.5002048
1.5001994
1.500193
1.5001864
1.5001793
1.5001716
1.5001634
1.5001548
1.5001457
1.5001364
1.5001269
1.5001176
1.5001085
1.5001001
1.5000929
1.5000879
1.500086
1.5000883
1.5000965
1.5001124
1.5001384
1.5001774
1.5002317
1.5003047
1.5003975
1.5005175
1.500684
1.5009053
1.5011985
1.5015899
1.5020861
1.5027199
1.5035609
1.5046779
1.5061511
1.508077
1.5105529
1.5136547
1.5174078
1.5216965
1.5262118
1.5305083
1.5340927
1.5365462
1.5384375
1.5401867
1.5414615
1.5431238
1.5456266
1.5492011
1.5540425
1.560231
1.5678795
1.5767636
1.5869
1.5977769
1.6095387
1.6211612
1.6334087
1.6441861
1.6559088
1.6640092
1.674875
1.6780083
1.6891227
1.4976232
1.4976216
1.4976199
1.4976182
1.4976166
1.4976151
1.4976137
1.4976127
1.4976121
1.4976122
1.4976133
1.4976157
1.4976199
1.4976265
1.4976364
1.4976505
1.49767
1.4976967
1.4977326
1.49778
1.4978407
1.4979185
1.4980183
1.4981485
1.4983151
1.4985265
1.4987996
1.4991365
1.4995413
1.5000442
1.500679
1.5014792
1.5024869
1.5037565
1.5053753
1.5074484
1.5100891
1.5134098
1.5174652
1.5221558
1.5272098
1.5322372
1.5366436
1.5406324
1.54454
1.5477504
1.5507943
1.554215
1.558098
1.5627138
1.5682866
1.5748792
1.5826042
1.5912902
1.6010005
1.6112609
1.6222921
1.6330946
1.6445313
1.6544929
1.665522
1.6729732
1.6834229
1.6861243
1.6972722
1.4946178
1.4946183
1.494619
1.49462
1.4946215
1.4946235
1.4946263
1.4946301
1.4946352
1.4946418
1.4946506
1.494662
1.4946767
1.4946958
1.4947203
1.4947516
1.4947917
1.4948426
1.4949073
1.4949887
1.4950913
1.4952201
1.4953828
1.4955881
1.4958414
1.4961504
1.4965274
1.4969872
1.4975478
1.4982293
1.499056
1.500055
1.5012707
1.5027775
1.504665
1.5070441
1.5100547
1.5138181
1.5183538
1.5235524
1.5292018
1.5347248
1.5401618
1.5457019
1.5508015
1.5554847
1.5602284
1.5650332
1.5701352
1.5757375
1.5820137
1.5890236
1.5968882
1.6054591
1.6148406
1.6245898
1.6349995
1.6450866
1.6558111
1.6650418
1.6754593
1.6823062
1.6924058
1.6946931
1.7059037
1.4909186
1.4909207
1.4909235
1.4909269
1.4909311
1.4909364
1.490943
1.4909513
1.4909618
1.4909748
1.4909912
1.4910117
1.4910373
1.4910693
1.4911093
1.4911592
1.4912213
1.4912987
1.4913949
1.4915141
1.4916623
1.4918452
1.4920708
1.4923475
1.4926841
1.4930939
1.4935912
1.4941927
1.4949156
1.4957782
1.496807
1.4980486
1.4995622
1.501419
1.5037272
1.5066215
1.5102364
1.514648
1.5198303
1.5256914
1.5318314
1.5381186
1.544802
1.5513361
1.5575794
1.5637044
1.5697134
1.5757504
1.5819557
1.5884539
1.595397
1.6028263
1.610863
1.6193741
1.6285017
1.6378247
1.6477025
1.6571634
1.6672603
1.675838
1.685709
1.6920155
1.7018038
1.7037075
1.7150083
1.4860824
1.4860876
1.4860941
1.4861016
1.4861105
1.4861212
1.486134
1.4861495
1.4861682
1.4861908
1.4862183
1.4862516
1.4862923
1.4863418
1.4864021
1.4864758
1.4865658
1.4866756
1.4868097
1.4869731
1.4871721
1.487414
1.4877078
1.4880636
1.4884948
1.4890154
1.4896388
1.4903827
1.4912728
1.4923426
1.4936328
1.4951965
1.4971086
1.4994712
1.5024086
1.506048
1.5104798
1.5157113
1.5217025
1.5282055
1.5350324
1.5424956
1.5501159
1.5575989
1.5649489
1.572207
1.5793859
1.5865252
1.5937121
1.6010274
1.6085896
1.6164209
1.624644
1.6331321
1.6420604
1.6510231
1.6604417
1.6693511
1.6788931
1.6868825
1.6962727
1.7020791
1.7116039
1.7131477
1.7245525
1.4797121
1.4797227
1.4797356
1.4797501
1.4797668
1.4797863
1.4798092
1.479836
1.4798675
1.4799047
1.4799487
1.4800009
1.480063
1.480137
1.4802253
1.4803309
1.4804572
1.4806086
1.4807901
1.4810075
1.4812682
1.4815816
1.4819571
1.4824055
1.4829399
1.4835779
1.4843433
1.4852627
1.4863693
1.487708
1.4893395
1.4913441
1.4938248
1.4969007
1.5006905
1.5052805
1.5106898
1.5168935
1.5237352
1.5310092
1.5390317
1.547463
1.5558659
1.5643508
1.5727771
1.5811219
1.5893555
1.5974831
1.6055538
1.6136061
1.6217329
1.6299378
1.6383439
1.6468267
1.6555908
1.6642416
1.6732567
1.6816755
1.6907198
1.6981885
1.7071331
1.7125029
1.7217778
1.723008
1.7344982
1.4714656
1.471484
1.4715063
1.4715308
1.4715587
1.4715908
1.4716278
1.4716705
1.4717199
1.4717771
1.4718436
1.4719212
1.4720118
1.472118
1.4722425
1.4723878
1.4725587
1.4727621
1.473003
1.4732861
1.473619
1.4740124
1.4744795
1.4750347
1.4756954
1.4764841
1.4774302
1.4785727
1.4799637
1.4816722
1.4837876
1.486419
1.4896891
1.4937127
1.4985727
1.5042896
1.5108389
1.5181004
1.5258764
1.5344321
1.543566
1.5528143
1.5622277
1.5717197
1.5811735
1.5905233
1.5997241
1.6087478
1.6176111
1.6263226
1.6349542
1.6434936
1.6520648
1.660544
1.6691622
1.6775329
1.6861847
1.6941621
1.702758
1.7097537
1.7182974
1.7232785
1.7323145
1.7332363
1.744871
1.4609947
1.4610233
1.4610579
1.4610956
1.4611382
1.4611868
1.4612421
1.4613052
1.461377
1.4614587
1.4615512
1.4616576
1.4617837
1.4619319
1.4621004
1.4622931
1.4625175
1.4627795
1.4630856
1.4634439
1.4638635
1.4643554
1.4649349
1.4656211
1.466439
1.4674221
1.4686149
1.4700775
1.4718889
1.4741493
1.4769778
1.4805026
1.4848421
1.4900724
1.4962207
1.5032485
1.5110485
1.5194309
1.52859
1.5384193
1.5484756
1.5587701
1.5692399
1.5797547
1.5902087
1.6005156
1.6106112
1.6204461
1.6300156
1.6393066
1.6483759
1.6571995
1.6659033
1.6743649
1.6828388
1.6909475
1.6992622
1.7068329
1.7150137
1.7215865
1.7297606
1.7344217
1.7432043
1.7440347
1.7555065
1.4481722
1.4482135
1.4482614
1.448311
1.4483654
1.4484297
1.4485098
1.448604
1.4487052
1.4488146
1.4489389
1.4490819
1.449246
1.4494346
1.4496516
1.4499016
1.4501894
1.4505208
1.4509036
1.4513482
1.4518676
1.4524779
1.4532007
1.4540645
1.4551078
1.4563826
1.4579579
1.4599232
1.4623892
1.4654838
1.4693386
1.4740723
1.4797594
1.4864209
1.494033
1.5024517
1.5115016
1.5213656
1.531954
1.5428532
1.554053
1.5655027
1.5770567
1.588602
1.600029
1.6112387
1.6221561
1.6327178
1.6429049
1.6526907
1.6621226
1.6711696
1.6799603
1.6883757
1.6966909
1.7045386
1.7125254
1.7197138
1.7274993
1.7336822
1.7414963
1.7458789
1.7543867
1.75499
1.7663372
1.4329831
1.433039
1.4330993
1.4331625
1.4332357
1.4333194
1.433414
1.4335218
1.4336455
1.433788
1.4339526
1.4341438
1.4343646
1.4346136
1.4348885
1.4351945
1.4355429
1.4359436
1.4364063
1.4369436
1.4375725
1.4383154
1.4392027
1.4402759
1.4415913
1.4432245
1.4452738
1.4478621
1.4511328
1.455239
1.460317
1.4664717
1.473733
1.4820769
1.4913296
1.5013435
1.5121985
1.5237837
1.5357016
1.5479317
1.5604401
1.5730835
1.5857512
1.5983265
1.6106966
1.6227571
1.6344263
1.645634
1.6563532
1.6665497
1.6762671
1.6854713
1.6942958
1.7026279
1.7107596
1.7183378
1.725995
1.7328134
1.7402171
1.7460482
1.7535159
1.7577534
1.7659882
1.7670662
1.7789068
1.4151013
1.4151683
1.4152527
1.4153444
1.4154464
1.4155607
1.4156881
1.4158297
1.415987
1.4161628
1.41636
1.4165818
1.4168316
1.4171138
1.4174338
1.4177984
1.4182161
1.4186981
1.4192587
1.4199172
1.4206997
1.4216415
1.4227901
1.4242098
1.425985
1.4282241
1.4310601
1.4346459
1.4391435
1.4446997
1.4514225
1.4593656
1.4684613
1.478636
1.4897037
1.5017171
1.5144646
1.5275313
1.5409218
1.5546085
1.5684448
1.5823236
1.5961253
1.6097276
1.6230137
1.6358771
1.6482324
1.6600081
1.6711729
1.6816921
1.6916061
1.7008869
1.7096716
1.7178599
1.7257564
1.7330275
1.7403243
1.746758
1.7537611
1.7592427
1.766331
1.7704694
1.7781784
1.7804203
1.7893031
1.3961638
1.3962486
1.3963522
1.3964594
1.3965777
1.3967096
1.3968563
1.3970198
1.3972019
1.3974055
1.3976333
1.3978893
1.3981779
1.398505
1.3988778
1.3993061
1.3998027
1.4003843
1.4010741
1.4019029
1.4029125
1.4041592
1.4057173
1.4076835
1.4101789
1.4133493
1.4173589
1.4223768
1.4285549
1.4359989
1.4447618
1.4547626
1.4659084
1.4781113
1.4912005
1.5049945
1.5191401
1.5336832
1.5485725
1.5636452
1.5787831
1.5938568
1.6087342
1.6232862
1.6373929
1.6509463
1.6638622
1.6760706
1.6875421
1.6982461
1.7082256
1.717463
1.726099
1.7340554
1.741636
1.7485479
1.7554276
1.7614598
1.7680206
1.7731668
1.7798519
1.7838554
1.7912107
1.7936325
1.8020427
1.3785124
1.3786077
1.3787241
1.3788441
1.3789761
1.3791229
1.3792858
1.3794667
1.3796682
1.3798931
1.3801452
1.3804292
1.3807511
1.3811189
1.381543
1.3820376
1.3826215
1.3833203
1.3841686
1.385213
1.3865153
1.3881569
1.3902423
1.3929015
1.3962896
1.4005808
1.4059559
1.4125801
1.420575
1.4300005
1.4408116
1.4528923
1.4662676
1.4803538
1.4951197
1.510369
1.5261046
1.5422132
1.5585201
1.5749072
1.5912372
1.6073719
1.6231745
1.6385133
1.6532689
1.6673366
1.6806362
1.6931038
1.7047142
1.7154465
1.7253473
1.7344167
1.7427954
1.7504345
1.7576279
1.7641355
1.7705563
1.7761807
1.7822692
1.7871157
1.7933398
1.7973308
1.8041505
1.8073006
1.8146809
1.3652092
1.36531
1.3654327
1.3655591
1.3656978
1.3658518
1.3660225
1.3662122
1.3664237
1.3666606
1.3669277
1.3672311
1.367579
1.3679825
1.3684564
1.3690208
1.369703
1.3705395
1.3715797
1.3728884
1.3745504
1.3766739
1.3793926
1.3828659
1.3872734
1.3928033
1.3996324
1.4079
1.4176807
1.4289611
1.4416342
1.4557156
1.4705817
1.4861015
1.5024266
1.5192879
1.5365066
1.5539496
1.5714889
1.5889842
1.6062936
1.6232724
1.6397805
1.6556862
1.6708726
1.6852404
1.698715
1.7112421
1.7228026
1.7333888
1.7430531
1.7518133
1.7598135
1.7670368
1.7737593
1.7798058
1.7857156
1.7909098
1.7964953
1.8010384
1.8067889
1.8107231
1.8170783
1.8204569
1.8274116
1.3581138
1.358215
1.3583377
1.3584643
1.3586029
1.3587568
1.3589276
1.359118
1.3593312
1.359572
1.3598463
1.3601624
1.3605312
1.3609678
1.3614925
1.3621329
1.3629262
1.3639217
1.3651849
1.3668002
1.3688754
1.3715433
1.3749623
1.3793126
1.3847855
1.391567
1.3998127
1.4096212
1.421009
1.4338986
1.4482242
1.4635661
1.4796777
1.4968347
1.5145183
1.5325995
1.5509567
1.5694472
1.5879271
1.6062473
1.6242561
1.6418037
1.6587476
1.6749584
1.6903228
1.7047479
1.7181668
1.7305331
1.7418412
1.7520941
1.7613558
1.7696634
1.7771594
1.783863
1.7900282
1.7955482
1.8008936
1.8056255
1.8106791
1.8149102
1.8201812
1.8240755
1.8299782
1.8337732
1.8403085
1.359539
1.3596355
1.3597513
1.3598719
1.3600042
1.3601511
1.3603147
1.3604981
1.3607054
1.3609424
1.3612166
1.3615386
1.3619228
1.3623888
1.3629631
1.3636814
1.3645913
1.3657554
1.367255
1.369193
1.3716971
1.37492
1.379037
1.3842384
1.3907149
1.3986361
1.4081252
1.4192341
1.431925
1.4460943
1.4615189
1.4779353
1.4953725
1.5134326
1.5319925
1.5509033
1.570016
1.58918
1.6082386
1.6270322