/*--------------------------------*- C++ -*----------------------------------*\
  =========                 |
  \\      /  F ield         | OpenFOAM: The Open Source CFD Toolbox
   \\    /   O peration     | Website:  https://openfoam.org
    \\  /    A nd           | Version:  13
     \\/     M anipulation  |
\*---------------------------------------------------------------------------*/
FoamFile
{
    format      ascii;
    class       volScalarField;
    location    "47.29901";
    object      p;
}
// * * * * * * * * * * * * * * * * * * * * * * * * * * * * * * * * * * * * * //

dimensions      [0 2 -2 0 0 0 0];

internalField   nonuniform List<scalar> 
17140
(
-0.3196262
-0.31963308
-0.31964121
-0.31964989
-0.3196594
-0.3196699
-0.31968143
-0.3196941
-0.31970798
-0.31972315
-0.3197397
-0.31975771
-0.31977724
-0.31979834
-0.31982107
-0.31984543
-0.31987142
-0.319899
-0.31992813
-0.31995871
-0.31999066
-0.32002391
-0.32005845
-0.32009447
-0.32013245
-0.32017347
-0.32021958
-0.32027447
-0.32034433
-0.32043899
-0.32057282
-0.32076447
-0.32103406
-0.32139699
-0.32185642
-0.32239857
-0.3229941
-0.32360461
-0.32419069
-0.32471841
-0.32516392
-0.32551325
-0.32576159
-0.32592401
-0.32602414
-0.32608076
-0.32612412
-0.32620754
-0.32639413
-0.32681373
-0.32763351
-0.32920333
-0.33191228
-0.3364929
-0.34351635
-0.35300182
-0.36632276
-0.3774284
-0.37453413
-0.30667816
-0.2144399
-0.16569617
-0.16367711
-0.18849268
-0.13517138
-0.31990755
-0.31991473
-0.31992324
-0.31993231
-0.31994225
-0.31995321
-0.31996527
-0.31997851
-0.31999301
-0.32000888
-0.32002619
-0.32004503
-0.32006546
-0.32008754
-0.32011133
-0.32013686
-0.32016413
-0.32019312
-0.32022379
-0.32025606
-0.32028987
-0.32032519
-0.32036204
-0.32040065
-0.32044156
-0.32048593
-0.32053593
-0.3205954
-0.3206708
-0.3207723
-0.32091481
-0.32111769
-0.32140184
-0.32178328
-0.32226527
-0.32283354
-0.32345779
-0.32409843
-0.32471486
-0.32527206
-0.32574517
-0.32611896
-0.32638698
-0.32656296
-0.32666724
-0.32671156
-0.32671594
-0.32671547
-0.32674413
-0.32687918
-0.32720415
-0.32792599
-0.32922156
-0.33150307
-0.33484147
-0.33870215
-0.34372906
-0.3426654
-0.3284555
-0.26791879
-0.19272544
-0.1655304
-0.18681128
-0.23262009
-0.16163321
-0.3202662
-0.32027359
-0.32028237
-0.32029173
-0.32030198
-0.32031332
-0.32032577
-0.32033935
-0.32035408
-0.32037003
-0.32038776
-0.32040761
-0.32042903
-0.32045186
-0.32047643
-0.32050284
-0.32053108
-0.32056114
-0.320593
-0.3206266
-0.3206619
-0.32069889
-0.32073763
-0.3207784
-0.32082178
-0.32086901
-0.32092235
-0.32098576
-0.32106588
-0.32117315
-0.32132285
-0.3215349
-0.32183082
-0.32222721
-0.32272762
-0.32331758
-0.32396615
-0.32463288
-0.32527628
-0.32586043
-0.32635963
-0.32675745
-0.32704596
-0.32723744
-0.32734891
-0.32738511
-0.32735548
-0.32727644
-0.32715148
-0.32700363
-0.32683013
-0.32669174
-0.32654853
-0.32647765
-0.32605952
-0.32427981
-0.32117762
-0.30960378
-0.28499843
-0.22844011
-0.16849801
-0.16449193
-0.20730061
-0.26986277
-0.18056991
-0.3207093
-0.32071683
-0.32072577
-0.32073529
-0.32074569
-0.32075727
-0.3207704
-0.32078415
-0.32079834
-0.32081501
-0.32083379
-0.32085361
-0.32087506
-0.32089832
-0.32092342
-0.3209504
-0.32097927
-0.32101005
-0.32104272
-0.32107725
-0.32111362
-0.32115184
-0.32119201
-0.32123444
-0.32127979
-0.32132932
-0.32138538
-0.32145201
-0.32153593
-0.32164774
-0.32180295
-0.32202182
-0.3223264
-0.32273383
-0.32324808
-0.32385481
-0.32452287
-0.32521136
-0.3258782
-0.32648685
-0.32701088
-0.32743283
-0.32774347
-0.32795368
-0.32807708
-0.32811198
-0.32805728
-0.32791081
-0.32764516
-0.32722864
-0.32657087
-0.32558394
-0.32400787
-0.32157918
-0.31740483
-0.31012124
-0.29903681
-0.27738859
-0.24521204
-0.19066042
-0.14540185
-0.16061578
-0.22575921
-0.29195402
-0.19237433
-0.32124277
-0.32125033
-0.32125932
-0.32126884
-0.32127929
-0.32129083
-0.32130353
-0.32131747
-0.32133276
-0.32134949
-0.32136775
-0.32138764
-0.32140925
-0.32143266
-0.32145793
-0.32148512
-0.32151426
-0.32154536
-0.32157843
-0.32161345
-0.32165043
-0.3216894
-0.32173051
-0.32177409
-0.32182084
-0.32187208
-0.32193018
-0.32199923
-0.32208598
-0.32220103
-0.32235995
-0.32258317
-0.32289304
-0.32330722
-0.32383033
-0.32444851
-0.32513091
-0.3258366
-0.32652326
-0.32715399
-0.32770184
-0.32814848
-0.32848369
-0.32871714
-0.32885906
-0.32890213
-0.32883535
-0.32863868
-0.32825432
-0.32759669
-0.3264878
-0.32469098
-0.32172203
-0.31697132
-0.30909688
-0.29645513
-0.27755956
-0.24673416
-0.20805301
-0.15695569
-0.1245799
-0.15488478
-0.23986261
-0.30040833
-0.19496558
-0.32187082
-0.32187833
-0.32188723
-0.32189665
-0.32190697
-0.32191837
-0.32193091
-0.32194469
-0.3219598
-0.32197634
-0.32199442
-0.32201413
-0.32203556
-0.32205879
-0.32208389
-0.32211092
-0.32213993
-0.32217094
-0.32220397
-0.32223902
-0.32227612
-0.32231534
-0.32235685
-0.32240103
-0.32244859
-0.32250089
-0.32256033
-0.32263097
-0.32271949
-0.3228364
-0.32299717
-0.32322215
-0.32353381
-0.32395031
-0.32447706
-0.32510117
-0.32579253
-0.32651069
-0.32721347
-0.32786392
-0.32843478
-0.32890707
-0.32927005
-0.32953245
-0.32970144
-0.32976496
-0.32970336
-0.32948005
-0.32900832
-0.32815076
-0.32664321
-0.3241009
-0.31981122
-0.31281311
-0.30134654
-0.28355841
-0.25717977
-0.21895373
-0.17381737
-0.12653753
-0.10714204
-0.1514014
-0.24667286
-0.29519352
-0.18952695
-0.32259535
-0.32260263
-0.32261122
-0.32262039
-0.32263044
-0.32264153
-0.32265375
-0.32266717
-0.3226819
-0.32269804
-0.32271568
-0.32273491
-0.32275585
-0.32277856
-0.32280313
-0.32282962
-0.32285809
-0.32288858
-0.32292111
-0.32295572
-0.32299244
-0.32303139
-0.32307275
-0.32311694
-0.32316471
-0.32321744
-0.3232775
-0.3233489
-0.32343818
-0.32355564
-0.32371652
-0.32394082
-0.32425061
-0.32466485
-0.32518991
-0.32581421
-0.32650897
-0.32723475
-0.3279499
-0.3286177
-0.32921087
-0.32971014
-0.33010477
-0.33040297
-0.33060938
-0.33070847
-0.33067348
-0.33045346
-0.32993508
-0.32893242
-0.32709762
-0.32389789
-0.31838553
-0.30924014
-0.29430789
-0.27169002
-0.2387533
-0.19484469
-0.1458588
-0.10119229
-0.094051451
-0.1506579
-0.24253776
-0.2799431
-0.18397763
-0.32341576
-0.3234227
-0.32343091
-0.32343968
-0.3234493
-0.32345993
-0.32347163
-0.3234845
-0.32349862
-0.32351411
-0.32353105
-0.32354954
-0.32356968
-0.32359156
-0.32361525
-0.32364083
-0.32366836
-0.32369789
-0.32372947
-0.32376314
-0.32379898
-0.32383711
-0.32387777
-0.32392138
-0.32396873
-0.3240212
-0.32408114
-0.32415245
-0.32424151
-0.32435823
-0.32451713
-0.32473777
-0.32504269
-0.32545047
-0.32596869
-0.32658757
-0.32728023
-0.32800863
-0.32873219
-0.32941491
-0.33002984
-0.33055775
-0.33098849
-0.3313304
-0.33158615
-0.33173842
-0.33175535
-0.33157449
-0.33105898
-0.32997886
-0.32790543
-0.32415562
-0.31753848
-0.30635913
-0.28813752
-0.26090123
-0.22262049
-0.17432588
-0.12330579
-0.083545883
-0.084691642
-0.14929536
-0.23250766
-0.25701358
-0.16942394
-0.32432872
-0.32433524
-0.32434303
-0.32435127
-0.3243603
-0.32437029
-0.3243813
-0.32439342
-0.32440673
-0.32442133
-0.32443733
-0.3244548
-0.32447385
-0.32449457
-0.32451704
-0.32454134
-0.32456754
-0.32459571
-0.3246259
-0.32465819
-0.32469267
-0.32472948
-0.32476891
-0.3248114
-0.32485776
-0.32490937
-0.32496852
-0.32503899
-0.32512686
-0.32524163
-0.32539722
-0.32561241
-0.32590889
-0.3263058
-0.32681195
-0.3274197
-0.3281044
-0.32883025
-0.32955828
-0.3302535
-0.33088963
-0.33144821
-0.33191973
-0.33231379
-0.33263188
-0.33285726
-0.33295476
-0.33285381
-0.33239823
-0.33131903
-0.32910785
-0.32492706
-0.31733241
-0.30425356
-0.282836
-0.25094271
-0.20739015
-0.1554363
-0.10383858
-0.069795571
-0.078466968
-0.14536846
-0.21411843
-0.23034601
-0.14592719
-0.32532797
-0.32533395
-0.32534105
-0.32534862
-0.32535694
-0.32536615
-0.3253763
-0.32538748
-0.32539978
-0.32541329
-0.32542809
-0.32544429
-0.32546198
-0.32548124
-0.32550217
-0.32552484
-0.32554935
-0.32557575
-0.32560414
-0.32563459
-0.32566724
-0.32570226
-0.32573993
-0.32578077
-0.32582557
-0.32587571
-0.32593343
-0.32600233
-0.3260882
-0.32619996
-0.32635077
-0.32655845
-0.3268439
-0.3272263
-0.32771574
-0.32830698
-0.32897836
-0.32969662
-0.3304249
-0.33112983
-0.33178605
-0.33237539
-0.33289419
-0.33334928
-0.3337438
-0.33406339
-0.33427237
-0.33429555
-0.33396183
-0.33296776
-0.33072265
-0.32623512
-0.3178013
-0.30292832
-0.27837826
-0.24190683
-0.19306915
-0.13715369
-0.085851084
-0.057581547
-0.072496154
-0.13684895
-0.19294753
-0.19952148
-0.12614779
-0.3264032
-0.32640855
-0.32641491
-0.32642172
-0.3264292
-0.32643749
-0.32644664
-0.32645673
-0.32646784
-0.32648006
-0.32649347
-0.32650817
-0.32652424
-0.32654178
-0.32656088
-0.32658162
-0.32660409
-0.32662837
-0.32665457
-0.32668279
-0.32671317
-0.32674593
-0.32678139
-0.32682007
-0.32686279
-0.32691092
-0.32696662
-0.32703333
-0.32711648
-0.32722439
-0.32736931
-0.32756792
-0.32784013
-0.32820491
-0.32867356
-0.32924342
-0.3298962
-0.33060194
-0.33132635
-0.33203817
-0.33271362
-0.33333663
-0.33390557
-0.33442989
-0.33491459
-0.33534919
-0.33570201
-0.33589882
-0.33574345
-0.33491444
-0.33273168
-0.32806472
-0.31892579
-0.30236065
-0.27472017
-0.23378367
-0.18026182
-0.12113667
-0.070291136
-0.04766264
-0.069507624
-0.12625699
-0.16939026
-0.16719954
-0.11172554
-0.32754153
-0.3275462
-0.32755175
-0.3275577
-0.32756425
-0.32757151
-0.32757955
-0.32758842
-0.3275982
-0.32760897
-0.32762082
-0.32763383
-0.32764809
-0.32766368
-0.3276807
-0.32769923
-0.32771938
-0.32774123
-0.32776491
-0.32779053
-0.32781827
-0.32784836
-0.32788116
-0.32791722
-0.32795738
-0.32800299
-0.32805612
-0.32812005
-0.32819985
-0.32830319
-0.32844134
-0.32862972
-0.32888704
-0.3292318
-0.32967629
-0.33022053
-0.33084988
-0.33153818
-0.33225435
-0.33296983
-0.33366283
-0.33431991
-0.33494311
-0.33554395
-0.33613132
-0.33670082
-0.33722573
-0.33762281
-0.3377165
-0.33711123
-0.33507706
-0.33034032
-0.32059928
-0.30232875
-0.27161855
-0.22689092
-0.16988975
-0.11051677
-0.063303388
-0.046789123
-0.068713774
-0.1161993
-0.14974073
-0.13690519
-0.096718766
-0.3287269
-0.32873084
-0.32873552
-0.32874055
-0.3287461
-0.32875226
-0.32875909
-0.32876665
-0.32877501
-0.32878423
-0.32879439
-0.32880557
-0.32881786
-0.32883134
-0.3288461
-0.32886223
-0.32887983
-0.32889901
-0.3289199
-0.32894264
-0.32896742
-0.32899451
-0.3290243
-0.32905735
-0.32909453
-0.32913716
-0.32918725
-0.3292479
-0.32932381
-0.32942201
-0.32955277
-0.32973015
-0.32997147
-0.3302945
-0.33071226
-0.33122728
-0.33182878
-0.33249482
-0.33319813
-0.33391335
-0.33462131
-0.33531207
-0.33599178
-0.33667461
-0.33737496
-0.33809557
-0.3388158
-0.33945963
-0.33981666
-0.3394687
-0.33763844
-0.33290291
-0.32248761
-0.30244328
-0.26902223
-0.22183366
-0.16522106
-0.10930553
-0.068085034
-0.056019374
-0.072049057
-0.10737159
-0.12682859
-0.12208976
-0.084590196
-0.32994121
-0.32994439
-0.32994818
-0.32995226
-0.32995678
-0.32996181
-0.3299674
-0.3299736
-0.32998047
-0.32998808
-0.32999648
-0.33000577
-0.330016
-0.33002726
-0.33003965
-0.33005325
-0.33006816
-0.3300845
-0.33010242
-0.33012206
-0.33014365
-0.33016747
-0.33019395
-0.33022366
-0.33025748
-0.33029671
-0.33034331
-0.33040019
-0.33047169
-0.33056424
-0.33068711
-0.33085297
-0.33107764
-0.33137791
-0.33176713
-0.33225007
-0.3328198
-0.33345888
-0.33414436
-0.33485459
-0.33557365
-0.33629622
-0.33703183
-0.33779895
-0.3386182
-0.33949858
-0.34042639
-0.34131984
-0.34193351
-0.34184747
-0.34023565
-0.33535579
-0.32403879
-0.30197215
-0.26632339
-0.21814675
-0.16438309
-0.11382287
-0.079250227
-0.066317932
-0.077756758
-0.1043978
-0.11310299
-0.10676414
-0.075601587
-0.33116423
-0.33116666
-0.33116956
-0.3311727
-0.33117619
-0.3311801
-0.33118445
-0.33118929
-0.33119469
-0.33120068
-0.33120733
-0.3312147
-0.33122287
-0.3312319
-0.33124188
-0.33125291
-0.33126509
-0.33127853
-0.33129339
-0.33130984
-0.33132811
-0.33134852
-0.33137148
-0.33139761
-0.3314278
-0.3314633
-0.33150601
-0.33155867
-0.3316253
-0.33171173
-0.33182628
-0.33198028
-0.33218799
-0.33246497
-0.33282451
-0.33327319
-0.33380765
-0.33441508
-0.33507724
-0.33577661
-0.33650126
-0.33725101
-0.33803846
-0.33888736
-0.33982363
-0.34086162
-0.34199146
-0.34309809
-0.34393289
-0.34405497
-0.34248324
-0.33714532
-0.32433153
-0.30004624
-0.26264881
-0.21546018
-0.1660873
-0.12239786
-0.091437134
-0.076084127
-0.084348502
-0.098461277
-0.10328444
-0.097636633
-0.069217599
-0.33237596
-0.33237767
-0.33237973
-0.33238197
-0.33238448
-0.33238731
-0.33239048
-0.33239403
-0.332398
-0.33240244
-0.3324074
-0.33241293
-0.3324191
-0.33242596
-0.33243361
-0.33244213
-0.33245162
-0.3324622
-0.33247402
-0.33248727
-0.33250219
-0.33251909
-0.33253842
-0.33256079
-0.33258707
-0.33261851
-0.33265689
-0.33270478
-0.33276591
-0.33284556
-0.33295116
-0.33309277
-0.33328314
-0.33353642
-0.33386553
-0.33427831
-0.33477444
-0.33534558
-0.33597832
-0.33665963
-0.33738223
-0.3381508
-0.33898152
-0.33990286
-0.34094329
-0.34212024
-0.34341054
-0.34466446
-0.34561015
-0.3457816
-0.34389802
-0.33743791
-0.32256267
-0.29592711
-0.25783328
-0.21353737
-0.16918823
-0.1298753
-0.10209689
-0.087002794
-0.087426098
-0.09660655
-0.09616722
-0.089627936
-0.064299408
-0.33355504
-0.33355611
-0.3335574
-0.33355884
-0.33356046
-0.33356231
-0.3335644
-0.33356678
-0.33356946
-0.33357248
-0.33357589
-0.33357973
-0.33358405
-0.33358892
-0.3335944
-0.33360058
-0.33360756
-0.33361545
-0.33362439
-0.33363459
-0.33364628
-0.33365977
-0.3336755
-0.33369408
-0.33371635
-0.33374349
-0.3337772
-0.33381987
-0.3338749
-0.33394709
-0.33404308
-0.33417173
-0.33434447
-0.33457374
-0.33487164
-0.33524693
-0.33570158
-0.33623132
-0.33682742
-0.33748153
-0.33819149
-0.33896578
-0.33982463
-0.34079921
-0.34191551
-0.34319008
-0.34454808
-0.34582523
-0.34673878
-0.34662311
-0.34388284
-0.33561664
-0.31816667
-0.28957004
-0.25267059
-0.21185652
-0.17173634
-0.13650722
-0.11021109
-0.093932503
-0.091097296
-0.0945147
-0.090721076
-0.084183116
-0.060902067
-0.33468454
-0.33468507
-0.33468572
-0.33468647
-0.33468734
-0.33468836
-0.33468955
-0.33469092
-0.3346925
-0.33469431
-0.33469639
-0.33469877
-0.3347015
-0.33470462
-0.33470821
-0.33471232
-0.33471706
-0.33472253
-0.33472887
-0.33473626
-0.33474491
-0.33475515
-0.33476738
-0.33478215
-0.33480026
-0.33482281
-0.33485135
-0.33488806
-0.33493602
-0.3349995
-0.33508442
-0.33519838
-0.33535166
-0.33555518
-0.33582084
-0.33615725
-0.33656744
-0.33705056
-0.33760188
-0.33821752
-0.33890018
-0.33966141
-0.34052461
-0.34152001
-0.34266597
-0.34394605
-0.34525686
-0.34641908
-0.34704394
-0.34626576
-0.3419618
-0.33118526
-0.31103661
-0.28197861
-0.24727132
-0.20965695
-0.17358415
-0.14125823
-0.11681804
-0.10048951
-0.093716337
-0.093769057
-0.08691349
-0.079918528
-0.05840999
-0.33574553
-0.33574564
-0.33574582
-0.33574605
-0.33574635
-0.33574674
-0.33574723
-0.33574784
-0.33574857
-0.33574945
-0.3357505
-0.33575174
-0.33575322
-0.33575497
-0.33575705
-0.33575951
-0.33576243
-0.33576591
-0.33577007
-0.33577506
-0.33578109
-0.33578842
-0.33579742
-0.33580858
-0.33582258
-0.3358404
-0.33586341
-0.33589354
-0.33593351
-0.3359871
-0.33605966
-0.33615686
-0.3362931
-0.3364708
-0.33669931
-0.3369937
-0.33735426
-0.33778343
-0.33827927
-0.33884166
-0.33947678
-0.34019871
-0.34103093
-0.34199511
-0.3430953
-0.34427344
-0.3454108
-0.34627809
-0.34637436
-0.34429997
-0.33771954
-0.32400357
-0.30204745
-0.27410385
-0.24122393
-0.20727301
-0.17434717
-0.14490303
-0.12163697
-0.10507124
-0.096052686
-0.092745826
-0.083907493
-0.07678048
-0.056694418
-0.33673037
-0.33673024
-0.33673012
-0.33673003
-0.33672999
-0.33673
-0.33673006
-0.33673018
-0.33673038
-0.33673066
-0.33673104
-0.33673155
-0.3367322
-0.33673303
-0.33673407
-0.33673537
-0.33673699
-0.33673901
-0.33674152
-0.33674464
-0.33674853
-0.33675341
-0.33675957
-0.33676735
-0.33677734
-0.33679034
-0.33680746
-0.33683033
-0.33686129
-0.33690355
-0.33696223
-0.33704071
-0.33714649
-0.33728852
-0.33748033
-0.33773252
-0.33803916
-0.33840688
-0.33883489
-0.33932508
-0.33988605
-0.3405323
-0.34128365
-0.34215586
-0.34311219
-0.34408859
-0.34494165
-0.34536328
-0.34438695
-0.34031978
-0.33079444
-0.31450916
-0.29280522
-0.26541449
-0.2353378
-0.20446093
-0.17440327
-0.14725012
-0.12512354
-0.10878448
-0.097907151
-0.091881567
-0.081829725
-0.074425474
-0.055501457
-0.33762606
-0.33762588
-0.3376257
-0.33762556
-0.33762544
-0.33762536
-0.33762531
-0.33762531
-0.33762536
-0.33762547
-0.33762565
-0.3376259
-0.33762625
-0.33762671
-0.33762731
-0.33762808
-0.33762905
-0.33763027
-0.33763178
-0.33763367
-0.33763601
-0.33763894
-0.3376426
-0.33764723
-0.33765319
-0.33766098
-0.33767139
-0.33768562
-0.3377055
-0.3377336
-0.33777263
-0.33783169
-0.33791573
-0.33802961
-0.33817597
-0.33836918
-0.33861293
-0.33890518
-0.33924796
-0.33964105
-0.34009497
-0.34061956
-0.34123522
-0.34194626
-0.3426811
-0.34342646
-0.3438847
-0.34341789
-0.3407267
-0.33396481
-0.3216632
-0.30475435
-0.28280881
-0.25687453
-0.22971945
-0.20127105
-0.17370112
-0.14861615
-0.12746689
-0.11116254
-0.099101733
-0.09132146
-0.080196115
-0.072602518
-0.054678775
-0.33843947
-0.33843946
-0.33843947
-0.33843952
-0.33843961
-0.33843976
-0.33843995
-0.3384402
-0.33844051
-0.33844089
-0.33844133
-0.33844186
-0.33844246
-0.33844315
-0.33844394
-0.33844483
-0.33844584
-0.33844695
-0.33844819
-0.33844955
-0.33845102
-0.33845262
-0.33845435
-0.33845624
-0.3384584
-0.33846102
-0.33846449
-0.33846952
-0.33847727
-0.33848964
-0.33850918
-0.33854076
-0.33858641
-0.33865902
-0.33876239
-0.33889288
-0.33906213
-0.33926494
-0.33950104
-0.33976677
-0.34007594
-0.34043817
-0.3408711
-0.34137848
-0.34192387
-0.34233108
-0.34199861
-0.34008871
-0.33506057
-0.32530172
-0.31215087
-0.29447409
-0.27258296
-0.24932766
-0.2238503
-0.19781076
-0.17240518
-0.14906584
-0.12884285
-0.11279178
-0.099772534
-0.090850764
-0.078939486
-0.071198052
-0.054114886
-0.33917143
-0.33917182
-0.3391723
-0.33917285
-0.33917348
-0.33917421
-0.33917503
-0.33917596
-0.33917699
-0.33917814
-0.33917939
-0.33918076
-0.33918224
-0.33918381
-0.33918548
-0.33918722
-0.33918899
-0.33919076
-0.33919246
-0.339194
-0.33919526
-0.33919609
-0.3391963
-0.33919569
-0.33919401
-0.33919108
-0.33918678
-0.33918121
-0.3391748
-0.33916857
-0.33916433
-0.33916496
-0.33917421
-0.33919676
-0.33923985
-0.33930198
-0.33938392
-0.33948015
-0.33958603
-0.33970059
-0.33984734
-0.34001273
-0.34028911
-0.34063397
-0.34086155
-0.34056931
-0.33893137
-0.33505024
-0.32693092
-0.31630924
-0.30207254
-0.28334221
-0.26368794
-0.2415853
-0.21812456
-0.19410841
-0.17053561
-0.14874616
-0.12936651
-0.11357102
-0.10000691
-0.09028515
-0.077847044
-0.070021615
-0.053688291
-0.33984652
-0.33984754
-0.33984877
-0.33985011
-0.33985158
-0.33985323
-0.33985505
-0.33985706
-0.33985925
-0.33986163
-0.3398642
-0.33986695
-0.33986986
-0.33987293
-0.33987609
-0.33987931
-0.3398825
-0.33988556
-0.33988834
-0.33989062
-0.33989217
-0.33989262
-0.33989157
-0.3398885
-0.33988282
-0.33987387
-0.33986099
-0.3398436
-0.33982135
-0.33979434
-0.33976336
-0.33973014
-0.33969579
-0.33966495
-0.33963978
-0.33961943
-0.33959853
-0.33957062
-0.33953976
-0.33948834
-0.33946296
-0.33950933
-0.33964343
-0.33967026
-0.33926008
-0.33777862
-0.33420769
-0.32746017
-0.31843103
-0.3067038
-0.29067587
-0.27397658
-0.25484096
-0.23430408
-0.21243116
-0.19013382
-0.16817705
-0.14774362
-0.1291773
-0.11373858
-0.099840155
-0.089606518
-0.076866183
-0.069008861
-0.05333813
-0.34048833
-0.3404902
-0.34049242
-0.34049479
-0.3404974
-0.34050027
-0.34050342
-0.34050686
-0.34051059
-0.34051461
-0.34051892
-0.34052351
-0.34052835
-0.34053338
-0.34053855
-0.34054375
-0.34054885
-0.34055365
-0.3405579
-0.34056126
-0.34056331
-0.34056347
-0.34056105
-0.3405552
-0.3405449
-0.340529
-0.34050622
-0.34047528
-0.34043492
-0.34038421
-0.34032604
-0.34025067
-0.34016547
-0.34007795
-0.33997876
-0.33986897
-0.33973775
-0.3395915
-0.33940288
-0.33925759
-0.33910537
-0.33901371
-0.33886059
-0.33829267
-0.33678502
-0.33351504
-0.32750094
-0.31946638
-0.30963893
-0.29568643
-0.28098025
-0.2647469
-0.2466214
-0.2271974
-0.20671402
-0.1859271
-0.16537467
-0.14614893
-0.12834351
-0.11328749
-0.099285835
-0.088762833
-0.075888375
-0.068048094
-0.05298567
-0.34114856
-0.3411514
-0.34115476
-0.34115833
-0.34116224
-0.34116652
-0.34117118
-0.34117625
-0.34118173
-0.34118762
-0.3411939
-0.34120054
-0.34120751
-0.34121472
-0.34122206
-0.34122939
-0.34123647
-0.34124304
-0.3412487
-0.34125295
-0.34125517
-0.34125455
-0.34125008
-0.34124055
-0.34122453
-0.34120037
-0.34116622
-0.34112017
-0.34105982
-0.34098647
-0.34088911
-0.34077337
-0.34064096
-0.34048687
-0.34031187
-0.34011642
-0.33986981
-0.33960289
-0.33934743
-0.33908426
-0.33880951
-0.33846633
-0.33772247
-0.33610948
-0.33296727
-0.32749034
-0.32015114
-0.31151612
-0.29949089
-0.28582254
-0.27191539
-0.25593365
-0.23860429
-0.2202305
-0.20097017
-0.18148941
-0.16217661
-0.14402941
-0.12696032
-0.11233729
-0.098372814
-0.087732314
-0.074865954
-0.067091397
-0.052590419
-0.34188179
-0.3418856
-0.3418901
-0.34189487
-0.34190006
-0.34190572
-0.34191188
-0.34191855
-0.34192572
-0.3419334
-0.34194155
-0.34195013
-0.34195907
-0.34196825
-0.34197751
-0.34198662
-0.34199528
-0.34200308
-0.34200949
-0.34201383
-0.34201524
-0.34201265
-0.34200473
-0.34198991
-0.34196632
-0.3419318
-0.34188415
-0.34182145
-0.3417311
-0.34161692
-0.34149738
-0.34134832
-0.3411594
-0.3409465
-0.34069417
-0.3404065
-0.34010513
-0.33974858
-0.33937616
-0.33900654
-0.33848399
-0.33757213
-0.33582408
-0.33272171
-0.32759201
-0.32068264
-0.31288237
-0.3020085
-0.28962421
-0.27699458
-0.26281552
-0.247403
-0.23083764
-0.21336263
-0.19516622
-0.17683272
-0.15861793
-0.14144416
-0.12507831
-0.11090966
-0.097115633
-0.08649377
-0.073742938
-0.066077254
-0.052105546
-0.34277001
-0.34277466
-0.34278013
-0.34278591
-0.34279218
-0.342799
-0.34280638
-0.34281434
-0.34282286
-0.34283192
-0.34284149
-0.34285147
-0.34286176
-0.34287219
-0.34288252
-0.34289243
-0.34290151
-0.34290921
-0.3429148
-0.3429174
-0.34291588
-0.34290884
-0.34289463
-0.34287121
-0.34283618
-0.34278681
-0.34272044
-0.34263254
-0.34253483
-0.34240824
-0.34223065
-0.34201645
-0.34178059
-0.34150388
-0.34118994
-0.34082938
-0.34044536
-0.34002143
-0.33952258
-0.33888568
-0.33780028
-0.33593662
-0.33280576
-0.32791314
-0.3212572
-0.31401067
-0.30409697
-0.29251743
-0.28097005
-0.26801975
-0.25413138
-0.23916713
-0.22321513
-0.20654125
-0.18928433
-0.17196128
-0.15472819
-0.1384397
-0.12275514
-0.10906643
-0.095532683
-0.08503222
-0.072484809
-0.064970463
-0.05150215
-0.34389218
-0.34389738
-0.34390348
-0.34390991
-0.34391684
-0.34392435
-0.34393244
-0.34394111
-0.34395032
-0.34396003
-0.34397016
-0.3439806
-0.34399116
-0.34400162
-0.34401163
-0.34402077
-0.34402846
-0.34403398
-0.3440364
-0.34403455
-0.344027
-0.34401202
-0.34398749
-0.3439505
-0.34389748
-0.3438354
-0.34376841
-0.34367889
-0.34352307
-0.34332204
-0.34311438
-0.3428627
-0.34256959
-0.34223339
-0.34184256
-0.34141379
-0.3409364
-0.34037163
-0.33960838
-0.33843249
-0.33641866
-0.33332328
-0.32854538
-0.32209062
-0.31516142
-0.30601302
-0.2950508
-0.28414733
-0.27221642
-0.25939013
-0.24567755
-0.23108558
-0.21569757
-0.19973111
-0.18330278
-0.16687772
-0.15052895
-0.13505357
-0.12002744
-0.10683426
-0.093633642
-0.083338106
-0.071061387
-0.06373717
-0.050753061
-0.34536418
-0.34536948
-0.34537568
-0.34538217
-0.34538913
-0.34539662
-0.34540462
-0.3454131
-0.345422
-0.34543124
-0.34544069
-0.34545017
-0.34545943
-0.34546813
-0.34547583
-0.34548193
-0.34548571
-0.3454862
-0.34548223
-0.34547237
-0.34545481
-0.34542709
-0.34538653
-0.34533805
-0.34528012
-0.34520408
-0.34508409
-0.34491207
-0.34472092
-0.34450274
-0.34423604
-0.34392344
-0.34355324
-0.34314268
-0.34268373
-0.34215487
-0.34152877
-0.34068646
-0.33939748
-0.33734624
-0.33415247
-0.32974968
-0.32334924
-0.31673877
-0.30805208
-0.29749527
-0.28699068
-0.2757564
-0.26373771
-0.25093602
-0.23738582
-0.22313105
-0.20822964
-0.19289044
-0.17720071
-0.16158029
-0.14603566
-0.13131383
-0.11692729
-0.10424232
-0.091428978
-0.081403017
-0.069450378
-0.062353606
-0.049837758
-0.34728274
-0.34728769
-0.34729345
-0.34729943
-0.34730576
-0.34731249
-0.34731955
-0.34732689
-0.3473344
-0.34734192
-0.34734928
-0.34735618
-0.34736228
-0.34736709
-0.34737002
-0.34737028
-0.34736691
-0.3473587
-0.34734411
-0.34732096
-0.34728715
-0.3472478
-0.34719524
-0.34712377
-0.34702559
-0.34687473
-0.34669722
-0.34650216
-0.34626046
-0.34597252
-0.34563307
-0.34524485
-0.34480538
-0.34430572
-0.34373513
-0.34304571
-0.34212237
-0.34074349
-0.33859478
-0.33535764
-0.33081737
-0.32471881
-0.31806635
-0.30992335
-0.29988369
-0.28964717
-0.27896977
-0.26751635
-0.25538578
-0.24260192
-0.22919387
-0.21522828
-0.20076089
-0.18598332
-0.17095653
-0.1560644
-0.14125806
-0.12724158
-0.11347784
-0.1013109
-0.088925828
-0.079221908
-0.067634603
-0.060800667
-0.048739772
-0.34978114
-0.34978528
-0.34979002
-0.34979485
-0.34979984
-0.34980498
-0.34981017
-0.34981528
-0.34982013
-0.3498245
-0.34982807
-0.34983045
-0.34983112
-0.34982943
-0.34982453
-0.34981539
-0.34980074
-0.34977892
-0.34974794
-0.34970635
-0.34965325
-0.34958455
-0.34948997
-0.34935923
-0.34920187
-0.34901963
-0.34879817
-0.34853227
-0.34821634
-0.34784868
-0.34742888
-0.34695248
-0.34641295
-0.34579352
-0.34504237
-0.34404181
-0.34258125
-0.34036649
-0.33710775
-0.33260192
-0.32667187
-0.31986426
-0.31224757
-0.30227244
-0.29237491
-0.28204321
-0.27104176
-0.25937301
-0.24711971
-0.23432789
-0.22103597
-0.20732499
-0.19324354
-0.17897218
-0.16454713
-0.15032167
-0.13620053
-0.12285091
-0.10969595
-0.098054852
-0.086129354
-0.076789918
-0.065600633
-0.059064273
-0.047445946
-0.35302957
-0.35303221
-0.35303512
-0.3530379
-0.35304052
-0.35304291
-0.35304488
-0.35304624
-0.35304668
-0.35304587
-0.35304335
-0.35303852
-0.35303068
-0.35301889
-0.35300205
-0.35297875
-0.35294727
-0.35290558
-0.35285188
-0.35278308
-0.3526944
-0.35257589
-0.3524304
-0.35226051
-0.35205403
-0.35180511
-0.3515085
-0.35116091
-0.35076056
-0.35030332
-0.34978494
-0.34919864
-0.34852193
-0.34769877
-0.34661138
-0.3450612
-0.34277344
-0.33948364
-0.33501949
-0.3292155
-0.32246748
-0.3150064
-0.3056488
-0.29560416
-0.28561381
-0.2746471
-0.26321281
-0.25127796
-0.23886974
-0.22604677
-0.21284825
-0.19936117
-0.18562861
-0.17181994
-0.15794803
-0.14434081
-0.13086316
-0.11815062
-0.10559353
-0.094485375
-0.083043793
-0.074103967
-0.063338887
-0.057133368
-0.045948391
-0.35728417
-0.35728424
-0.35728403
-0.35728335
-0.35728202
-0.35727987
-0.35727661
-0.35727191
-0.35726536
-0.35725644
-0.35724448
-0.35722867
-0.35720802
-0.3571813
-0.35714699
-0.35710329
-0.35704801
-0.35697862
-0.35689204
-0.35678395
-0.35665108
-0.3564897
-0.35629437
-0.35605952
-0.35577986
-0.35545116
-0.35506981
-0.35463135
-0.35413167
-0.35356652
-0.35292494
-0.35217998
-0.351271
-0.35008066
-0.34841917
-0.34603798
-0.34268041
-0.33821462
-0.3324829
-0.32570906
-0.31831646
-0.30916366
-0.2992927
-0.2892278
-0.27840786
-0.26707786
-0.25531019
-0.24311576
-0.23055192
-0.21768564
-0.20456426
-0.19127949
-0.17786755
-0.16448832
-0.15113286
-0.1381074
-0.12524185
-0.11314457
-0.10117774
-0.090609466
-0.079671558
-0.071160781
-0.060841779
-0.055000161
-0.044240798
-0.36287093
-0.3628668
-0.36286152
-0.36285527
-0.36284768
-0.36283837
-0.36282697
-0.36281298
-0.36279581
-0.36277473
-0.36274884
-0.36271704
-0.36267801
-0.36263015
-0.36257153
-0.36249988
-0.36241249
-0.36230622
-0.36217741
-0.36202193
-0.36183515
-0.36161201
-0.36134754
-0.36103696
-0.36067526
-0.3602574
-0.35977882
-0.35923497
-0.35861843
-0.3579141
-0.35708934
-0.3560783
-0.3547632
-0.3529629
-0.35044817
-0.34698584
-0.34243394
-0.33672531
-0.32983942
-0.32240328
-0.31340405
-0.30353931
-0.29343168
-0.28258669
-0.27126814
-0.259486
-0.24731965
-0.2348376
-0.22209771
-0.20917453
-0.19611807
-0.18302056
-0.16991037
-0.15693804
-0.14407357
-0.13160448
-0.11932931
-0.10783289
-0.096452533
-0.086431643
-0.076014606
-0.067957736
-0.058104661
-0.052658089
-0.042319471
-0.37016925
-0.37015883
-0.37014598
-0.3701315
-0.37011468
-0.37009494
-0.37007175
-0.37004443
-0.37001218
-0.369974
-0.36992872
-0.36987493
-0.36981089
-0.36973463
-0.36964379
-0.36953559
-0.36940681
-0.36925374
-0.36907227
-0.36885793
-0.36860588
-0.368311
-0.36796784
-0.36757094
-0.36711506
-0.36659463
-0.36600261
-0.36532787
-0.36454981
-0.36362895
-0.36249327
-0.36102343
-0.35904526
-0.35634461
-0.35271067
-0.34799722
-0.34216699
-0.33519265
-0.3275687
-0.31856186
-0.30857263
-0.29826337
-0.28731181
-0.27584767
-0.26394311
-0.2516678
-0.23910663
-0.22633293
-0.21341496
-0.20043302
-0.18743837
-0.1745227
-0.16170547
-0.14912801
-0.13674006
-0.12481247
-0.11311514
-0.10221222
-0.091418746
-0.081953779
-0.072073771
-0.064490842
-0.055123094
-0.050092647
-0.040191659
-0.37955515
-0.37953593
-0.37951256
-0.37948669
-0.37945718
-0.3794232
-0.37938404
-0.37933881
-0.37928645
-0.37922571
-0.37915512
-0.37907298
-0.37897718
-0.37886526
-0.37873451
-0.37858174
-0.37840325
-0.37819497
-0.37795248
-0.37767085
-0.37734482
-0.37696886
-0.37653717
-0.3760434
-0.37548004
-0.37483692
-0.37409804
-0.37323604
-0.37220337
-0.37092044
-0.36926429
-0.36706409
-0.36411581
-0.36022255
-0.35524139
-0.34912102
-0.34189183
-0.33388658
-0.32481599
-0.31456845
-0.30395229
-0.2927683
-0.28104743
-0.26888281
-0.25636169
-0.2435693
-0.2305922
-0.21751781
-0.20442013
-0.19138233
-0.17845404
-0.16572388
-0.15320096
-0.14101691
-0.1291016
-0.11771053
-0.10658726
-0.096277239
-0.08607555
-0.077176689
-0.067850754
-0.060760557
-0.051900105
-0.047324728
-0.037834629
-0.39141911
-0.39138847
-0.39135145
-0.39131085
-0.39126506
-0.39121297
-0.39115368
-0.39108597
-0.39100813
-0.39091917
-0.39082389
-0.39071605
-0.39057788
-0.39041479
-0.39023569
-0.39003251
-0.38979824
-0.38952819
-0.38921767
-0.38886164
-0.38845404
-0.3879881
-0.38745581
-0.38684681
-0.38614647
-0.38533234
-0.38436851
-0.38319754
-0.38173063
-0.3798392
-0.37735447
-0.37407988
-0.36983271
-0.36447676
-0.35794982
-0.35031711
-0.34181985
-0.3323635
-0.32173451
-0.31069988
-0.29913225
-0.28701362
-0.27444933
-0.26153477
-0.24836468
-0.23503514
-0.22164013
-0.20827234
-0.19500811