/*--------------------------------*- C++ -*----------------------------------*\
  =========                 |
  \\      /  F ield         | OpenFOAM: The Open Source CFD Toolbox
   \\    /   O peration     | Website:  https://openfoam.org
    \\  /    A nd           | Version:  13
     \\/     M anipulation  |
\*---------------------------------------------------------------------------*/
FoamFile
{
    format      ascii;
    class       volScalarField;
    location    "24.396639";
    object      p;
}
// * * * * * * * * * * * * * * * * * * * * * * * * * * * * * * * * * * * * * //

dimensions      [0 2 -2 0 0 0 0];

internalField   nonuniform List<scalar> 
17140
(
-0.25001865
-0.25003066
-0.25004577
-0.2500632
-0.25008174
-0.25010158
-0.25012342
-0.25014741
-0.25017365
-0.25020228
-0.25023345
-0.25026729
-0.25030393
-0.25034345
-0.25038596
-0.25043152
-0.25048016
-0.25053192
-0.25058681
-0.25064489
-0.25070626
-0.25077121
-0.2508403
-0.25091465
-0.2509963
-0.25108887
-0.25119843
-0.25133489
-0.25151345
-0.25175573
-0.25208907
-0.25254202
-0.25313569
-0.25387361
-0.25473583
-0.25568104
-0.25665534
-0.25760287
-0.25847442
-0.25923264
-0.2598539
-0.26032749
-0.26065328
-0.26083649
-0.26088316
-0.26080283
-0.2605953
-0.26024511
-0.2597251
-0.25900466
-0.25801449
-0.25671737
-0.2549516
-0.25275903
-0.24971929
-0.24625343
-0.2412792
-0.23656796
-0.22856532
-0.22316011
-0.2105295
-0.20764001
-0.18945217
-0.19894119
-0.17149978
-0.25034688
-0.25035949
-0.25037515
-0.2503921
-0.2504102
-0.25043013
-0.25045206
-0.2504761
-0.2505024
-0.25053112
-0.25056238
-0.25059632
-0.25063307
-0.25067273
-0.25071539
-0.25076113
-0.25080999
-0.25086199
-0.25091719
-0.25097561
-0.25103741
-0.25110285
-0.25117253
-0.25124758
-0.25133007
-0.25142363
-0.25153437
-0.25167219
-0.25185232
-0.25209645
-0.25243196
-0.25288752
-0.25348441
-0.25422635
-0.25509352
-0.25604466
-0.25702582
-0.25798103
-0.25886092
-0.25962787
-0.26025792
-0.26073985
-0.26107278
-0.26126075
-0.26130822
-0.26122204
-0.26099806
-0.26061421
-0.26003382
-0.25921183
-0.25805877
-0.25650821
-0.25436186
-0.25161305
-0.24780303
-0.24330363
-0.23705492
-0.23085075
-0.22129669
-0.21489417
-0.20218952
-0.20059236
-0.18547643
-0.20133979
-0.18141206
-0.25079916
-0.25081205
-0.25082731
-0.2508436
-0.25086145
-0.25088114
-0.25090278
-0.2509265
-0.25095246
-0.25098081
-0.25101168
-0.2510452
-0.25108151
-0.25112071
-0.2511629
-0.25120814
-0.25125649
-0.25130799
-0.25136268
-0.25142062
-0.25148195
-0.25154696
-0.25161624
-0.25169095
-0.25177313
-0.25186638
-0.25197677
-0.25211409
-0.25229341
-0.25253617
-0.25286955
-0.2533221
-0.25391524
-0.25465307
-0.25551643
-0.25646469
-0.25744446
-0.25840009
-0.2592823
-0.26005341
-0.26068908
-0.26117757
-0.2615171
-0.26171037
-0.26176031
-0.2616708
-0.26143351
-0.26101996
-0.26038388
-0.25946541
-0.25815421
-0.25635374
-0.25382756
-0.25051897
-0.24592965
-0.24038745
-0.23297513
-0.22520602
-0.21421219
-0.20658717
-0.19367675
-0.19339988
-0.18157712
-0.20438908
-0.19148697
-0.25137846
-0.25139105
-0.25140633
-0.25142212
-0.2514394
-0.25145849
-0.25147948
-0.2515025
-0.2515277
-0.25155522
-0.2515852
-0.25161778
-0.25165307
-0.2516912
-0.25173225
-0.2517763
-0.25182341
-0.25187363
-0.25192699
-0.25198358
-0.25204353
-0.25210715
-0.25217504
-0.25224831
-0.252329
-0.25242063
-0.25252912
-0.25266403
-0.25284006
-0.25307818
-0.25340503
-0.25384883
-0.25443103
-0.25515643
-0.25600695
-0.2569433
-0.25791318
-0.25886172
-0.2597401
-0.26051066
-0.26114878
-0.26164214
-0.26198791
-0.2621874
-0.26224194
-0.26215253
-0.26190605
-0.26146817
-0.26078285
-0.25977531
-0.25831356
-0.25627008
-0.25336816
-0.2494982
-0.24411739
-0.23748758
-0.22867236
-0.21938184
-0.20695042
-0.1983937
-0.18545633
-0.18667335
-0.17843414
-0.20738276
-0.20110794
-0.2520866
-0.25209855
-0.25211303
-0.25212804
-0.25214448
-0.25216265
-0.25218263
-0.25220455
-0.25222856
-0.25225479
-0.25228338
-0.25231447
-0.25234817
-0.2523846
-0.25242385
-0.25246601
-0.25251114
-0.25255928
-0.2526105
-0.25266488
-0.25272255
-0.25278383
-0.25284931
-0.25292008
-0.25299811
-0.25308681
-0.25319188
-0.25332251
-0.25349285
-0.25372312
-0.25403916
-0.25446855
-0.25503277
-0.25573746
-0.25656615
-0.25748146
-0.25843282
-0.25936667
-0.26023494
-0.2610002
-0.26163763
-0.26213426
-0.26248615
-0.26269311
-0.26275492
-0.26266971
-0.26241931
-0.26196394
-0.26123781
-0.26015103
-0.25854936
-0.25627317
-0.25300292
-0.2485725
-0.24240191
-0.23466841
-0.22449272
-0.21370561
-0.19985961
-0.19040012
-0.17767794
-0.18056312
-0.17580125
-0.21027419
-0.20929932
-0.25291958
-0.25293068
-0.25294408
-0.25295805
-0.25297336
-0.25299028
-0.25300889
-0.25302933
-0.25305173
-0.25307621
-0.25310292
-0.25313199
-0.25316353
-0.25319765
-0.25323446
-0.25327403
-0.25331643
-0.25336173
-0.25340999
-0.25346128
-0.25351578
-0.25357377
-0.25363585
-0.25370306
-0.2537773
-0.2538618
-0.25396198
-0.25408656
-0.25424895
-0.2544684
-0.2547696
-0.2551793
-0.25571884
-0.25639488
-0.25719301
-0.25807835
-0.25900271
-0.25991433
-0.26076626
-0.26152153
-0.26215518
-0.2626536
-0.26301167
-0.26322769
-0.26330007
-0.26322372
-0.26297589
-0.2625115
-0.26175503
-0.26060144
-0.25887351
-0.25637823
-0.25274979
-0.2477622
-0.24079524
-0.23193356
-0.22036475
-0.20807395
-0.19286393
-0.18265353
-0.17043409
-0.17501989
-0.17374238
-0.21284998
-0.21524498
-0.25387021
-0.25388026
-0.25389234
-0.25390501
-0.25391891
-0.25393427
-0.25395119
-0.25396978
-0.25399016
-0.25401247
-0.25403684
-0.25406337
-0.2540922
-0.25412344
-0.25415717
-0.25419349
-0.25423247
-0.25427417
-0.25431867
-0.25436606
-0.25441651
-0.25447031
-0.25452803
-0.25459067
-0.25466002
-0.25473912
-0.25483305
-0.25494995
-0.25510236
-0.25530828
-0.25559106
-0.25597627
-0.25648502
-0.25712506
-0.25788441
-0.25873128
-0.25962046
-0.26050254
-0.26133207
-0.26207279
-0.26269968
-0.26319857
-0.26356314
-0.26379023
-0.26387697
-0.26381493
-0.26357733
-0.26311396
-0.26233973
-0.26113434
-0.25929682
-0.25659873
-0.25262174
-0.24707344
-0.2392784
-0.22929875
-0.21632811
-0.20246211
-0.18596629
-0.17478171
-0.16352303
-0.16974467
-0.17198732
-0.21456841
-0.21876829
-0.25492719
-0.254936
-0.25494652
-0.25495767
-0.25496991
-0.25498344
-0.25499836
-0.25501477
-0.25503279
-0.25505253
-0.25507412
-0.25509767
-0.2551233
-0.2551511
-0.25518119
-0.25521364
-0.25524854
-0.25528596
-0.25532598
-0.2553687
-0.25541429
-0.25546305
-0.25551553
-0.25557266
-0.25563614
-0.25570878
-0.25579525
-0.25590306
-0.25604373
-0.25623388
-0.2564952
-0.25685188
-0.25732456
-0.25792211
-0.25863525
-0.25943578
-0.26028206
-0.26112759
-0.26192885
-0.26265057
-0.26326786
-0.26376606
-0.26413772
-0.26437829
-0.26448372
-0.26444235
-0.26422377
-0.26377303
-0.26299571
-0.26175606
-0.25982847
-0.25694617
-0.25263199
-0.2465175
-0.23786131
-0.22670042
-0.21231266
-0.19685359
-0.1793655
-0.16704735
-0.15648691
-0.1645408
-0.17016103
-0.21480335
-0.21904127
-0.25607537
-0.25608279
-0.2560916
-0.25610103
-0.2561114
-0.25612288
-0.25613554
-0.2561495
-0.25616484
-0.25618168
-0.25620012
-0.25622029
-0.25624228
-0.25626619
-0.25629213
-0.25632018
-0.25635042
-0.25638294
-0.25641783
-0.25645519
-0.25649521
-0.25653818
-0.25658462
-0.25663543
-0.25669216
-0.25675739
-0.2568354
-0.25693296
-0.2570605
-0.25723311
-0.25747065
-0.25779564
-0.25822804
-0.25877772
-0.25943826
-0.26018546
-0.26098181
-0.26178424
-0.26255164
-0.26325007
-0.26385501
-0.26435144
-0.26473092
-0.26498772
-0.26511663
-0.26510306
-0.26491349
-0.26448855
-0.26372467
-0.26247054
-0.26047471
-0.25742738
-0.25278322
-0.24610322
-0.23656229
-0.22410271
-0.20824849
-0.19118846
-0.17249001
-0.15961531
-0.1497147
-0.15946831
-0.16763332
-0.21308836
-0.21622449
-0.25729586
-0.2573018
-0.25730885
-0.25731642
-0.25732475
-0.25733398
-0.2573442
-0.25735547
-0.25736789
-0.25738157
-0.25739659
-0.25741305
-0.25743106
-0.25745071
-0.25747209
-0.2574953
-0.25752042
-0.25754754
-0.25757676
-0.2576082
-0.25764204
-0.25767859
-0.25771834
-0.25776213
-0.25781139
-0.25786847
-0.2579372
-0.25802363
-0.25813706
-0.25829094
-0.25850314
-0.25879431
-0.25918344
-0.25968124
-0.26028409
-0.26097207
-0.26171229
-0.26246566
-0.26319397
-0.263865
-0.2644549
-0.2649485
-0.2653366
-0.26561256
-0.26577003
-0.26579196
-0.26564236
-0.26525773
-0.26452542
-0.26327812
-0.26123643
-0.25803997
-0.25306602
-0.24579632
-0.2353156
-0.22147734
-0.20405508
-0.18523374
-0.16514938
-0.15185816
-0.14302587
-0.15366791
-0.16440912
-0.20935143
-0.20916326
-0.25856723
-0.25857161
-0.25857683
-0.25858243
-0.25858862
-0.2585955
-0.25860313
-0.25861159
-0.25862094
-0.25863127
-0.25864267
-0.25865522
-0.25866901
-0.25868413
-0.25870067
-0.25871873
-0.25873838
-0.25875972
-0.25878287
-0.25880794
-0.25883515
-0.25886478
-0.25889731
-0.25893354
-0.25897476
-0.2590231
-0.25908196
-0.25915667
-0.25925537
-0.25938985
-0.25957593
-0.25983219
-0.26017639
-0.26061974
-0.26116131
-0.26178552
-0.26246444
-0.26316349
-0.26384788
-0.26448756
-0.26505973
-0.26554934
-0.26594674
-0.26624483
-0.26643594
-0.26650135
-0.26640331
-0.26607424
-0.26539239
-0.26417343
-0.2621055
-0.25876923
-0.25345941
-0.24557176
-0.23409823
-0.21875467
-0.19962609
-0.17899009
-0.15751982
-0.14354668
-0.13628976
-0.14804954
-0.15974112
-0.20189431
-0.20042155
-0.25986531
-0.25986812
-0.25987146
-0.25987508
-0.25987909
-0.25988358
-0.25988859
-0.25989417
-0.25990039
-0.25990731
-0.25991501
-0.25992355
-0.25993301
-0.25994349
-0.25995504
-0.25996778
-0.25998178
-0.25999714
-0.26001398
-0.26003243
-0.26005272
-0.26007511
-0.2601001
-0.2601284
-0.26016122
-0.26020044
-0.26024906
-0.26031172
-0.26039545
-0.26051042
-0.26067035
-0.26089168
-0.26119062
-0.26157852
-0.2620568
-0.26261412
-0.26322774
-0.26386798
-0.26450404
-0.26510853
-0.26566015
-0.26614433
-0.26655137
-0.26687422
-0.26710365
-0.26722034
-0.2671854
-0.26692691
-0.2663136
-0.26514113
-0.26305818
-0.25958155
-0.25391608
-0.24535974
-0.23272518
-0.21586186
-0.19468977
-0.17240899
-0.149966
-0.13569531
-0.12933959
-0.14120793
-0.15485317
-0.19190399
-0.18646523
-0.26116565
-0.26116691
-0.26116844
-0.2611701
-0.26117199
-0.26117413
-0.26117656
-0.26117932
-0.26118246
-0.26118602
-0.26119005
-0.26119463
-0.2611998
-0.26120565
-0.26121224
-0.26121965
-0.26122798
-0.26123732
-0.2612478
-0.26125955
-0.26127279
-0.26128782
-0.26130507
-0.26132524
-0.26134941
-0.26137927
-0.26141742
-0.26146788
-0.26153663
-0.26163229
-0.26176662
-0.26195382
-0.26220824
-0.26254111
-0.26295573
-0.26344461
-0.2639902
-0.26456807
-0.26515185
-0.26571737
-0.26624534
-0.2667221
-0.26713842
-0.26748763
-0.26775923
-0.26793411
-0.26797246
-0.26779763
-0.26726678
-0.26614902
-0.26404998
-0.26042099
-0.25436534
-0.24507306
-0.23111171
-0.21256749
-0.18962259
-0.16561384
-0.14236422
-0.12903127
-0.12507172
-0.13711535
-0.14814029
-0.1792562
-0.17327923
-0.26244253
-0.26244234
-0.26244215
-0.26244198
-0.26244186
-0.26244179
-0.26244179
-0.26244189
-0.2624421
-0.26244248
-0.26244304
-0.26244383
-0.26244491
-0.26244633
-0.26244815
-0.26245045
-0.26245331
-0.26245681
-0.26246109
-0.2624663
-0.26247263
-0.26248038
-0.26248998
-0.26250206
-0.26251761
-0.26253811
-0.26256583
-0.26260419
-0.26265823
-0.26273514
-0.26284496
-0.26299992
-0.26321189
-0.26349131
-0.26384326
-0.26426341
-0.26473937
-0.26525202
-0.26577986
-0.26630249
-0.26680317
-0.26726962
-0.26769362
-0.26806899
-0.26838481
-0.26862256
-0.26874119
-0.26865824
-0.26821256
-0.26713836
-0.26500939
-0.26119839
-0.25468042
-0.24442724
-0.22908749
-0.20858851
-0.18425281
-0.16075019
-0.13819878
-0.12680433
-0.1238061
-0.13281597
-0.14341748
-0.16576379
-0.16011604
-0.26367407
-0.26367259
-0.26367086
-0.26366906
-0.26366714
-0.26366509
-0.2636629
-0.2636606
-0.26365818
-0.26365566
-0.26365307
-0.26365043
-0.26364776
-0.26364512
-0.26364255
-0.26364012
-0.26363788
-0.26363593
-0.26363439
-0.26363339
-0.26363313
-0.26363389
-0.26363606
-0.26364022
-0.26364724
-0.26365841
-0.26367566
-0.26370188
-0.26374119
-0.26379905
-0.26388664
-0.26401266
-0.264181
-0.26440958
-0.26470182
-0.26505476
-0.26546116
-0.26590691
-0.26637573
-0.26685142
-0.26732037
-0.26777223
-0.26820032
-0.2685989
-0.26895758
-0.26925847
-0.26945871
-0.26946337
-0.26908246
-0.26802413
-0.26582967
-0.26175359
-0.25459107
-0.24324516
-0.22638382
-0.20515197
-0.18092855
-0.15852376
-0.13873441
-0.12764665
-0.12516691
-0.13204128
-0.14112039
-0.15523467
-0.14866625
-0.26483754
-0.26483497
-0.26483196
-0.26482879
-0.26482536
-0.26482163
-0.2648176
-0.26481325
-0.2648086
-0.26480362
-0.26479833
-0.26479273
-0.26478684
-0.26478069
-0.2647743
-0.26476771
-0.26476099
-0.26475421
-0.26474746
-0.26474088
-0.26473464
-0.26472897
-0.26472424
-0.26472094
-0.26471983
-0.26472199
-0.26472905
-0.26474339
-0.26476852
-0.26480837
-0.26486672
-0.26497332
-0.26511558
-0.26528648
-0.26552083
-0.26580702
-0.26614377
-0.26652098
-0.26692752
-0.26735157
-0.26778304
-0.26821389
-0.26863925
-0.26905391
-0.26944811
-0.26980463
-0.27007632
-0.2701419
-0.26977954
-0.26867798
-0.26632575
-0.26184118
-0.25384966
-0.24151577
-0.22395491
-0.20227023
-0.17883568
-0.15793495
-0.14081789
-0.13133831
-0.12732781
-0.13197657
-0.13563012
-0.14565616
-0.14030505
-0.26592037
-0.26591696
-0.26591295
-0.26590871
-0.2659041
-0.26589907
-0.2658936
-0.26588766
-0.26588124
-0.26587433
-0.2658669
-0.26585895
-0.26585048
-0.26584149
-0.26583201
-0.26582205
-0.26581165
-0.26580088
-0.2657898
-0.26577853
-0.2657672
-0.26575603
-0.26574532
-0.26573548
-0.26572716
-0.26572126
-0.26571914
-0.26572275
-0.26573495
-0.2657602
-0.26580169
-0.26585845
-0.26594757
-0.26608919
-0.2662793
-0.26650234
-0.26677238
-0.26708119
-0.26742285
-0.2677901
-0.26817668
-0.26857694
-0.26898805
-0.26940487
-0.26981759
-0.2702098
-0.27051775
-0.27058401
-0.2701636
-0.26892217
-0.26623552
-0.26107733
-0.25253391
-0.23912884
-0.22073598
-0.19906391
-0.17776913
-0.15910559
-0.143195
-0.1332319
-0.12673835
-0.13076992
-0.13214255
-0.13830139
-0.13216814
-0.26690566
-0.26690171
-0.26689706
-0.26689213
-0.26688677
-0.26688089
-0.26687447
-0.26686748
-0.2668599
-0.26685168
-0.26684281
-0.26683326
-0.26682301
-0.26681205
-0.26680039
-0.26678801
-0.26677495
-0.26676122
-0.26674688
-0.26673199
-0.26671666
-0.26670101
-0.26668528
-0.26666974
-0.26665487
-0.26664134
-0.26663015
-0.2666228
-0.26662138
-0.26662899
-0.26665209
-0.26668315
-0.26674829
-0.26684303
-0.26696182
-0.26713232
-0.26733683
-0.26757726
-0.26785101
-0.26815504
-0.26848681
-0.26884257
-0.26922117
-0.26961537
-0.27001567
-0.27040152
-0.27066935
-0.27064568
-0.27006212
-0.26847277
-0.26529175
-0.25958482
-0.24989182
-0.23546021
-0.21672891
-0.19682659
-0.17680556
-0.15924773
-0.1446175
-0.13448374
-0.12843686
-0.12922715
-0.12807664
-0.1311685
-0.12534016
-0.26779074
-0.26778659
-0.26778169
-0.26777649
-0.26777082
-0.26776459
-0.26775778
-0.26775035
-0.26774226
-0.26773347
-0.26772393
-0.26771363
-0.26770252
-0.26769057
-0.26767777
-0.2676641
-0.26764955
-0.26763411
-0.2676178
-0.26760063
-0.26758264
-0.26756388
-0.26754446
-0.26752451
-0.26750429
-0.26748419
-0.26746484
-0.2674472
-0.26743275
-0.26742362
-0.26742328
-0.26743458
-0.26746358
-0.26751995
-0.267593
-0.26769658
-0.2678351
-0.26800383
-0.26820442
-0.26843612
-0.26869901
-0.26898939
-0.26930676
-0.26963947
-0.26997699
-0.27028161
-0.27040845
-0.2701856
-0.26924568
-0.26735893
-0.26363131
-0.2567262
-0.24575559
-0.2306475
-0.21296428
-0.19396854
-0.17539802
-0.15857536
-0.14552658
-0.13549367
-0.12772075
-0.12714832
-0.12461023
-0.12519435
-0.11901782
-0.26857126
-0.26856725
-0.26856253
-0.2685575
-0.26855201
-0.26854599
-0.26853938
-0.26853215
-0.26852427
-0.26851568
-0.26850634
-0.2684962
-0.26848523
-0.26847338
-0.26846061
-0.26844689
-0.26843217
-0.26841642
-0.26839961
-0.26838168
-0.26836259
-0.2683423
-0.26832075
-0.26829791
-0.26827375
-0.26824835
-0.26822187
-0.26819472
-0.26816767
-0.26814199
-0.26811972
-0.26810348
-0.268097
-0.26811023
-0.2681383
-0.26818497
-0.26825651
-0.26835213
-0.26847386
-0.26862161
-0.26879646
-0.26899185
-0.26920661
-0.26942111
-0.26962692
-0.26975854
-0.26965641
-0.26911111
-0.26800627
-0.26557213
-0.26070088
-0.25250061
-0.24042503
-0.22565439
-0.2086752
-0.19068402
-0.1735311
-0.15802
-0.14498053
-0.13576824
-0.12728239
-0.12513952
-0.12108217
-0.11959815
-0.11340902
-0.26925543
-0.26925194
-0.26924781
-0.26924342
-0.26923862
-0.26923334
-0.26922754
-0.2692212
-0.26921425
-0.26920667
-0.2691984
-0.26918939
-0.26917959
-0.26916896
-0.26915744
-0.26914496
-0.26913146
-0.26911687
-0.26910109
-0.26908401
-0.26906549
-0.26904536
-0.26902339
-0.26899933
-0.26897287
-0.26894368
-0.26891146
-0.26887602
-0.26883737
-0.26879594
-0.26875277
-0.26870968
-0.26866939
-0.26863501
-0.26861149
-0.26859982
-0.26860298
-0.26862123
-0.26865496
-0.26870187
-0.26876219
-0.26881893
-0.26887616
-0.26891182
-0.26890492
-0.26880009
-0.26848109
-0.26780355
-0.26617146
-0.2626765
-0.25660139
-0.24691277
-0.23469588
-0.22037785
-0.20359284
-0.18725926
-0.17128614
-0.156721
-0.14398055
-0.13512747
-0.12614715
-0.12261061
-0.11767467
-0.11462712
-0.10822836
-0.26985214
-0.26984952
-0.26984643
-0.26984314
-0.26983955
-0.26983559
-0.26983123
-0.26982645
-0.2698212
-0.26981545
-0.26980914
-0.26980223
-0.26979467
-0.2697864
-0.26977734
-0.26976742
-0.26975653
-0.26974457
-0.26973137
-0.26971674
-0.26970043
-0.26968212
-0.26966139
-0.26963773
-0.26961048
-0.26957891
-0.26954216
-0.26949938
-0.26944978
-0.26939283
-0.26932854
-0.26925762
-0.26918178
-0.26910373
-0.26902632
-0.26895171
-0.26888092
-0.26881277
-0.26874333
-0.26866465
-0.26857302
-0.26844831
-0.2683066
-0.26809716
-0.26789617
-0.26766952
-0.2672113
-0.26602215
-0.26344287
-0.25876165
-0.25093614
-0.24081793
-0.22903047
-0.2138885
-0.19888086
-0.18351898
-0.16856696
-0.15495636
-0.14264171
-0.13362465
-0.1247295
-0.12006871
-0.11430055
-0.10998967
-0.1034735
-0.27038236
-0.27038099
-0.27037937
-0.27037764
-0.27037575
-0.27037366
-0.27037135
-0.27036879
-0.27036596
-0.27036283
-0.27035934
-0.27035546
-0.27035112
-0.27034627
-0.27034081
-0.27033464
-0.27032764
-0.27031961
-0.27031036
-0.27029957
-0.27028687
-0.27027178
-0.27025364
-0.27023166
-0.27020484
-0.27017196
-0.27013161
-0.27008223
-0.2700222
-0.26995005
-0.26986467
-0.26976536
-0.26965281
-0.26952937
-0.26939626
-0.26925491
-0.26910329
-0.26893707
-0.26874398
-0.26851173
-0.26824949
-0.26789476
-0.26754452
-0.26718992
-0.26695085
-0.26652769
-0.26557502
-0.26356739
-0.25974768
-0.25320591
-0.2447823
-0.2347028
-0.22171231
-0.20820014
-0.19389672
-0.17959032
-0.16556539
-0.15266179
-0.14083673
-0.13170547
-0.122772
-0.1172223
-0.11091047
-0.10569647
-0.099015161
-0.27087373
-0.27087392
-0.27087415
-0.27087438
-0.27087463
-0.27087489
-0.27087514
-0.27087538
-0.27087558
-0.27087572
-0.27087576
-0.27087567
-0.27087537
-0.27087479
-0.27087384
-0.27087237
-0.2708702
-0.27086711
-0.27086278
-0.27085681
-0.27084867
-0.27083768
-0.27082295
-0.27080339
-0.2707776
-0.27074392
-0.27070038
-0.27064473
-0.27057456
-0.27048749
-0.27038148
-0.27025443
-0.27010458
-0.26993506
-0.26974354
-0.26953007
-0.2692869
-0.26900768
-0.26867405
-0.26827437
-0.26780521
-0.26737037
-0.26688079
-0.26647474
-0.26604161
-0.26513441
-0.26342698
-0.26012843
-0.25448158
-0.24725189
-0.23867073
-0.22726507
-0.21489759
-0.20247309
-0.18891395
-0.17543235
-0.16217201
-0.14992423
-0.13852556
-0.12936242
-0.12047187
-0.11427636
-0.10751992
-0.10163371
-0.094817144
-0.27137215
-0.2713741
-0.27137641
-0.27137885
-0.2713815
-0.27138438
-0.2713875
-0.27139086
-0.27139444
-0.27139822
-0.27140219
-0.27140628
-0.27141044
-0.27141456
-0.27141853
-0.27142216
-0.27142523
-0.27142742
-0.27142832
-0.2714274
-0.27142397
-0.27141713
-0.27140577
-0.27138845
-0.27136345
-0.27132864
-0.27128158
-0.27121941
-0.27113894
-0.27103749
-0.27091681
-0.27075279
-0.27055709
-0.27034776
-0.27009866
-0.26981341
-0.26947722
-0.26909294
-0.26860178
-0.26807441
-0.26752259
-0.26701534
-0.266481
-0.26588895
-0.26495359
-0.26327901
-0.26028297
-0.25524043
-0.24880452
-0.2413664
-0.23122464
-0.22002515
-0.20883845
-0.19658169
-0.18378591
-0.17104984
-0.15849023
-0.14679811
-0.13580396
-0.12666266
-0.11780861
-0.11113503
-0.10407579
-0.097756568
-0.090805864
-0.27193685
-0.27194053
-0.27194487
-0.27194947
-0.27195447
-0.27195991
-0.27196583
-0.27197221
-0.27197905
-0.27198635
-0.27199407
-0.27200217
-0.27201055
-0.27201911
-0.27202768
-0.27203604
-0.27204387
-0.27205079
-0.27205626
-0.27205961
-0.27205996
-0.2720562
-0.27204695
-0.27203049
-0.27200473
-0.27196718
-0.27191494
-0.27184454
-0.27175187
-0.27164256
-0.27148623
-0.2712898
-0.27107992
-0.27082282
-0.27051585
-0.27016304
-0.26972782
-0.2692394
-0.26871929
-0.26811263
-0.26751025
-0.26692773
-0.2661713
-0.26511433
-0.2633746
-0.26046633
-0.25587055
-0.24988964
-0.24326791
-0.23412257
-0.22381357
-0.21364078
-0.20239901
-0.19072078
-0.17857427
-0.16645545
-0.15450024
-0.14330641
-0.13269316
-0.12362223
-0.11484528
-0.10786358
-0.10058853
-0.094008647
-0.086944981
-0.27264704
-0.27265214
-0.27265814
-0.27266449
-0.27267139
-0.2726789
-0.27268706
-0.27269585
-0.27270529
-0.27271536
-0.27272603
-0.27273722
-0.27274884
-0.27276074
-0.2727727
-0.27278444
-0.27279558
-0.27280561
-0.27281387
-0.27281953
-0.27282153
-0.27281854
-0.27280891
-0.27279064
-0.27276132
-0.27271813
-0.27265795
-0.27257714
-0.27246404
-0.27231938
-0.27215797
-0.27196116
-0.27170978
-0.27141061
-0.27104746
-0.27062917
-0.27016801
-0.26960579
-0.26902875
-0.26841281
-0.26770257
-0.2668716
-0.26566187
-0.26379996
-0.26089007
-0.25648552
-0.25079586
-0.24468955
-0.23632828
-0.22670318
-0.21726704
-0.20696452
-0.1961267
-0.18485039
-0.17322102
-0.16165147
-0.15023627
-0.13948913
-0.12923167
-0.1202797
-0.11159882
-0.10443484
-0.097028903
-0.090345146
-0.083187384
-0.27358953
-0.27359547
-0.27360246
-0.27360984
-0.27361783
-0.27362653
-0.27363594
-0.27364607
-0.27365692
-0.27366846
-0.27368063
-0.27369335
-0.27370648
-0.27371983
-0.27373313
-0.27374601
-0.273758
-0.27376847
-0.27377661
-0.27378142
-0.27378163
-0.27377567
-0.27376164
-0.27373722
-0.27369964
-0.27364578
-0.27357185
-0.27347105
-0.27336191
-0.27323541
-0.27303941
-0.2727718
-0.27247484
-0.27214355
-0.27176238
-0.27129479
-0.27077489
-0.27019995
-0.26955071
-0.26880917
-0.26787228
-0.26657738
-0.2645699
-0.26165853
-0.25737525
-0.25178336
-0.24603056
-0.23826206
-0.22902685
-0.22014299
-0.21052771
-0.20042663
-0.18982701
-0.17890358
-0.16773635
-0.15664429
-0.14570582
-0.13536655
-0.12544776
-0.1166506
-0.10809679
-0.1008666
-0.093396854
-0.086730398
-0.079502623
-0.27484889
-0.27485491
-0.27486198
-0.27486942
-0.27487746
-0.27488617
-0.27489556
-0.27490561
-0.27491632
-0.27492762
-0.27493944
-0.27495166
-0.27496408
-0.27497646
-0.27498846
-0.27499961
-0.27500933
-0.27501685
-0.2750212
-0.27502118
-0.27501529
-0.27500173
-0.27497827
-0.27494189
-0.27488909
-0.27482649
-0.27475463
-0.27466181
-0.27450092
-0.27428506
-0.27406403
-0.27379814
-0.27347487
-0.27308993
-0.27264445
-0.27213962
-0.27156212
-0.27090772
-0.2701352
-0.26915429
-0.26776445
-0.2657028
-0.2626968
-0.25865863
-0.25303397
-0.24744426
-0.24007615
-0.23119815
-0.22255472
-0.21349156
-0.20389089
-0.19388081
-0.18349728
-0.17288074
-0.1621017
-0.15143086
-0.1409208
-0.13096056
-0.12136604
-0.11275972
-0.10435725
-0.097151255
-0.08967652
-0.083130214
-0.075857764
-0.27650894
-0.27651435
-0.27652068
-0.27652731
-0.27653441
-0.27654206
-0.27655022
-0.27655887
-0.27656796
-0.27657739
-0.27658705
-0.27659675
-0.27660624
-0.27661519
-0.27662315
-0.27662955
-0.27663365
-0.2766345
-0.27663095
-0.27662157
-0.27660456
-0.27657751
-0.27653792
-0.27648954
-0.27642738
-0.27634657
-0.27623168
-0.27605993
-0.27586109
-0.27564047
-0.27536536
-0.27503773
-0.27465359
-0.27420996
-0.27370278
-0.2731266
-0.27246322
-0.27167487
-0.27065397
-0.26921183
-0.26708861
-0.26403457
-0.25991795
-0.25445136
-0.24877084
-0.2418146
-0.23319164
-0.22476445
-0.21601814
-0.20682986
-0.19722465
-0.18729946
-0.17709499
-0.16674139
-0.15630349
-0.14600952
-0.13588811
-0.12628522
-0.11700602
-0.10861988
-0.10039482
-0.093291978
-0.085863291
-0.07951899
-0.072227756
-0.27863309
-0.27863751
-0.27864263
-0.27864793
-0.27865353
-0.27865944
-0.27866562
-0.27867199
-0.27867845
-0.27868486
-0.278691
-0.27869662
-0.27870136
-0.27870476
-0.27870623
-0.278705
-0.27870012
-0.27869043
-0.27867444
-0.27865017
-0.27861559
-0.27857185
-0.27851371
-0.27843693
-0.2783353
-0.27818922
-0.27801321
-0.27781397
-0.27757104
-0.27728044
-0.2769361
-0.27653489
-0.27607661
-0.27555563
-0.27496419
-0.2742871
-0.27347536
-0.27242415
-0.27094624
-0.26879371
-0.26573119
-0.26160186
-0.2562618
-0.25041049
-0.24385242
-0.23527012
-0.22697571
-0.21849821
-0.20949925
-0.20017004
-0.19052538
-0.18064978
-0.17059088
-0.16046561
-0.15032692
-0.14037405
-0.13061086
-0.12135078
-0.11238218
-0.1042437
-0.096220563
-0.089284885
-0.081947226
-0.075872471
-0.068588682
-0.28132277
-0.28132594
-0.28132955
-0.28133316
-0.28133682
-0.28134049
-0.28134408
-0.28134745
-0.28135041
-0.28135273
-0.28135411
-0.28135414
-0.28135232
-0.28134799
-0.28134034
-0.28132836
-0.28131078
-0.28128606
-0.28125226
-0.28120719
-0.28114934
-0.28107476
-0.28097723
-0.28084875
-0.28069137
-0.28050598
-0.2802821
-0.28001337
-0.27969412
-0.27932054
-0.27889162
-0.27840363
-0.27785205
-0.27723142
-0.27652199
-0.2756738
-0.27458117
-0.27306627
-0.27088862
-0.26783075
-0.26374499
-0.25849362
-0.25259723
-0.24617133
-0.23800365
-0.22948623
-0.22116199
-0.21216072
-0.20291392
-0.19342948
-0.1837256
-0.17388297
-0.16394584
-0.15402251
-0.1441538
-0.13451631
-0.12508951
-0.11616342
-0.10750501
-0.099638659
-0.091842112
-0.085128006
-0.077922259
-0.072171865
-0.064920538
-0.28474188
-0.28474328
-0.28474473
-0.28474594
-0.28474686
-0.28474737
-0.2847473
-0.28474643
-0.28474446
-0.28474104
-0.28473572
-0.28472791
-0.28471691
-0.28470181
-0.2846815
-0.28465465
-0.28461957
-0.28457428
-0.2845164
-0.28444328
-0.28435149
-0.28423361
-0.28408876
-0.28391596
-0.2837065
-0.2834548
-0.28315524
-0.2828033
-0.28239624
-0.28193065
-0.28140287
-0.2808102
-0.2801448
-0.27938501
-0.27847904
-0.27732252
-0.27574706
-0.27352685
-0.27044773
-0.26639731
-0.26121153
-0.25527139
-0.24887832
-0.24087758
-0.23235916
-0.22390046
-0.21492324
-0.20567421
-0.19620603
-0.18656022
-0.17678658
-0.16696016
-0.15712633
-0.1473857
-0.13776551
-0.12842545
-0.11932096
-0.11072558
-0.1023812
-0.094810035
-0.087264676
-0.08081727
-0.073781169
-0.068399612
-0.061207944
-0.28913823
-0.2891368
-0.28913482
-0.28913225
-0.28912889
-0.2891245
-0.28911882
-0.2891115
-0.28910214
-0.2890902
-0.28907504
-0.28905587
-0.2890317
-0.28900135
-0.28896334
-0.28891594
-0.28885703
-0.28878409
-0.28869418
-0.28858384
-0.28844912
-0.28828552
-0.28808828
-0.28785191
-0.28757076
-0.28723981
-0.28685487
-0.28641136
-0.28590514
-0.28533324
-0.28469138
-0.28396947
-0.2831428
-0.28215706
-0.28091037
-0.27924064
-0.2769443
-0.27380668
-0.26973501
-0.2646108
-0.25854892
-0.25210419
-0.24419834
-0.235631
-0.22705161
-0.21796531
-0.20862958
-0.19905868
-0.18932839
-0.17951031
-0.16965407
-0.15983445
-0.15009331
-0.14052413
-0.13114032
-0.12208814
-0.11329949
-0.10503667
-0.097014259
-0.089760182
-0.082491092
-0.076348594
-0.069518121
-0.064542874
-0.057434839
-0.29479366
-0.29478777
-0.29478042
-0.294772
-0.29476205
-0.2947502
-0.29473606
-0.29471914
-0.29469886
-0.29467449
-0.29464516
-0.29460982
-0.29456719
-0.29451572
-0.29445357
-0.29437855
-0.29428806
-0.29417906
-0.29404803
-0.29389093
-0.29370319
-0.29347973
-0.29321535
-0.29290481
-0.2925428
-0.29212386
-0.29164295
-0.29109592
-0.29047821
-0.28978296
-0.2889964
-0.28808926
-0.28700355
-0.28563726
-0.2838366
-0.281408
-0.27816404
-0.27397723
-0.26883942
-0.2626574
-0.25608431
-0.24816069
-0.23944881
-0.23064795
-0.22140852
-0.21187215
-0.2021132
-0.19219971
-0.18221085
-0.1722171
-0.16227545
-0.1524599
-0.14280794
-0.13340665
-0.12425521
-0.11548896
-0.10701686
-0.099093401
-0.091404992
-0.084489472
-0.07752259
-0.071716506
-0.065127539
-0.060584683
-0.053594224
-0.30203342
-0.30202107
-0.30200598
-0.30198915
-0.3019698
-0.30194737
-0.3019213
-0.30189096
-0.30185553
-0.30181408
-0.30176546
-0.30170831
-0.30164099
-0.3015616
-0.30146789
-0.30135721
-0.30122647
-0.30107211
-0.3008901
-0.30067599
-0.30042489
-0.30013156
-0.29979035
-0.29939546
-0.29894131
-0.29842242
-0.29783308
-0.29716637
-0.29641178
-0.29555045
-0.29454702
-0.293338
-0.29181968
-0.28984214
-0.28722261
-0.283781
-0.27939656
-0.27402326
-0.26768202
-0.26081329
-0.25285972
-0.24391207
-0.2348334
-0.22536866
-0.21556182
-0.20551513
-0.19531669
-0.18504892
-0.17479022
-0.16461883
-0.15459334
-0.14478593
-0.13522771
-0.12599907
-0.11708462
-0.10861014
-0.10046236
-0.092890084
-0.085551912
-0.07899658
-0.072359166
-0.066915976
-0.060604864
-0.056515483
-0.049683136
-0.31115641
-0.31113529
-0.31110972
-0.31108156
-0.31104964
-0.3110131
-0.31097126
-0.31092326
-0.31086807
-0.31080449
-0.3107311
-0.31064632
-0.3105481
-0.31043409
-0.31030171
-0.31014789
-0.30996909
-0.3097613
-0.30952019
-0.30924085
-0.30891798
-0.30854594
-0.30811882
-0.30763045
-0.30707418
-0.30644238
-0.30572507
-0.30490713
-0.30396348
-0.30285144
-0.30150065
-0.29980339
-0.29761175
-0.29474851
-0.29104517
-0.28637763
-0.28070183
-0.27404096
-0.26669784
-0.25853223
-0.24926001
-0.23980618
-0.23000372
-0.2198307
-0.20939735
-0.19880535
-0.18814821
-0.17751502
-0.1669878
-0.15664617
-0.14654762
-0.13676103
-0.12730977
-0.11826699
-0.10960246
-0.10143309
-0.093624198
-0.086419761
-0.07945212
-0.073278999
-0.06700022
-0.061941239
-0.055946985
-0.052326751
-0.045653229
-0.3224669
-0.32243465
-0.32239579
-0.3223533
-0.3223055
-0.32225133
-0.32218993
-0.3221201
-0.32204009
-0.32194911
-0.32185371
-0.32174623
-0.32160544
-0.3214398
-0.32126057
-0.32105816
-0.32082555
-0.32055817
-0.32025129
-0.31990008
-0.31949865
-0.31904062
-0.31851886
-0.31792508
-0.31724888
-0.31647605
-0.31558543
-0.31454404
-0.31330003
-0.3117743
-0.30985339
-0.30738882
-0.30421004
-0.30015345
-0.29511006
-0.28901319
-0.28193392
-0.27411442
-0.26549013
-0.25578914
-0.24584295
-0.23555143
-0.22484299
-0.2138933
-0.20278774
-0.19162395
-0.1804975
-0.16950074
-0.15871555
-0.14822082
-0.13807016
-0.12832737
-0.11900648
-0.11017248
-0.10178004