/*--------------------------------*- C++ -*----------------------------------*\
  =========                 |
  \\      /  F ield         | OpenFOAM: The Open Source CFD Toolbox
   \\    /   O peration     | Website:  https://openfoam.org
    \\  /    A nd           | Version:  13
     \\/     M anipulation  |
\*---------------------------------------------------------------------------*/
FoamFile
{
    format      ascii;
    class       volVectorField;
    location    "24.396639";
    object      U;
}
// * * * * * * * * * * * * * * * * * * * * * * * * * * * * * * * * * * * * * //

dimensions      [0 1 -1 0 0 0 0];

internalField   nonuniform List<vector> 
17140
(
(9.9010488e-07 -8.3716717e-05 2.3186375e-23)
(8.7389729e-07 -0.00026076536 2.5687422e-24)
(-2.6956169e-06 -0.00045714475 -1.6950203e-22)
(-1.0650549e-05 -0.0006736245 1.8628111e-22)
(-2.4436041e-05 -0.00091085794 -2.1768609e-23)
(-4.5885193e-05 -0.0011694265 7.1221773e-23)
(-7.7106736e-05 -0.0014498852 1.1984662e-22)
(-0.00012081778 -0.001752718 -5.84418e-23)
(-0.0001803292 -0.002078332 -1.9117844e-22)
(-0.00025968465 -0.0024270492 -4.6845737e-22)
(-0.00036379508 -0.0027991047 6.9364709e-22)
(-0.00049860026 -0.0031946492 -6.1715804e-22)
(-0.00067124107 -0.0036137578 -9.4337712e-23)
(-0.00089025293 -0.0040564464 5.3169912e-22)
(-0.0011657713 -0.0045226959 -5.8872775e-23)
(-0.0015097451 -0.0050124857 4.6445787e-22)
(-0.0019361462 -0.0055258338 -1.7140809e-23)
(-0.0024611603 -0.006062842 3.9001283e-24)
(-0.0031033344 -0.0066237395 2.6996308e-22)
(-0.00388365 -0.0072089167 -3.4673343e-22)
(-0.0048254782 -0.0078189334 1.6535096e-22)
(-0.0059543591 -0.0084544818 -3.1033854e-23)
(-0.0072975332 -0.0091162773 -2.2565204e-22)
(-0.0088831377 -0.0098048424 2.2123225e-22)
(-0.010738967 -0.010520147 3.4488073e-22)
(-0.012890703 -0.011261073 -2.7054753e-22)
(-0.015359548 -0.012024706 -1.2963432e-21)
(-0.018159339 -0.012805529 -1.4881116e-22)
(-0.021293438 -0.013594816 1.2596224e-21)
(-0.024752172 -0.014380812 2.8410819e-22)
(-0.028512084 -0.015150516 9.6806699e-22)
(-0.032538389 -0.015893252 -1.2067676e-21)
(-0.036790846 -0.016604512 2.9744555e-22)
(-0.041230636 -0.017287517 1.3305311e-22)
(-0.045824361 -0.017951699 1.2337304e-21)
(-0.050543879 -0.018609939 -5.0986255e-22)
(-0.055364031 -0.019276723 7.3573961e-22)
(-0.060260611 -0.019967815 4.8019738e-22)
(-0.065209516 -0.020701034 2.1417271e-22)
(-0.070186971 -0.021497499 -6.3734648e-22)
(-0.075170487 -0.022382984 -1.1945822e-21)
(-0.080140361 -0.023389052 -1.0839104e-21)
(-0.0850817 -0.024553683 -4.7585287e-22)
(-0.08998573 -0.02592084 2.3416288e-21)
(-0.094851862 -0.027538888 1.7351303e-21)
(-0.099690117 -0.029457133 -4.3238731e-22)
(-0.10451401 -0.031718346 2.9850153e-21)
(-0.10933823 -0.034351026 1.0274169e-21)
(-0.11417284 -0.037359756 -1.0595015e-21)
(-0.11901929 -0.04070706 -2.6206342e-21)
(-0.12384682 -0.044286531 1.6265506e-21)
(-0.12861315 -0.047888431 1.0320524e-21)
(-0.1331935 -0.05114333 -2.7018259e-21)
(-0.13752035 -0.053462516 -1.2771535e-21)
(-0.14131191 -0.05395093 -9.0784953e-22)
(-0.14467253 -0.051432515 7.1090366e-22)
(-0.14701148 -0.044250326 -1.8818962e-21)
(-0.14894735 -0.030810821 -1.5597244e-21)
(-0.1491004 -0.009453247 -3.8084049e-22)
(-0.14986822 0.019932546 9.6907221e-22)
(-0.1470806 0.056066187 7.324476e-22)
(-0.14920465 0.09543416 2.6444118e-21)
(-0.14604667 0.13164513 3.5871216e-22)
(-0.15943919 0.1560522 -3.2815872e-21)
(-0.15004919 0.15234177 2.2795555e-21)
(1.3092013e-06 -3.5198391e-05 -6.6158831e-24)
(1.8413287e-06 -0.00011062717 8.9059491e-22)
(-9.2719386e-07 -0.00019497314 -7.9237088e-22)
(-8.0090749e-06 -0.00028804104 2.1592308e-22)
(-2.0942341e-05 -0.00038965641 4.4594647e-22)
(-4.1448288e-05 -0.00049953117 -8.5178415e-22)
(-7.1746345e-05 -0.00061730959 8.8735465e-22)
(-0.0001145728 -0.00074257064 -7.8041396e-23)
(-0.00017327153 -0.00087483818 2.43447e-22)
(-0.00025192382 -0.0010136028 4.141512e-24)
(-0.00035548185 -0.0011583531 8.1080805e-22)
(-0.00048992608 -0.0013086215 -1.2858575e-21)
(-0.00066243694 -0.0014640454 -1.0598185e-22)
(-0.00088158558 -0.0016244496 1.0429751e-21)
(-0.0011575362 -0.0017899484 -3.1898902e-22)
(-0.0015022552 -0.0019610724 -2.0161754e-22)
(-0.0019297163 -0.0021389192 1.2720318e-21)
(-0.0024560847 -0.0023253247 -4.1121112e-21)
(-0.0030998589 -0.0025230522 2.550947e-21)
(-0.0038819368 -0.0027359864 -3.0235575e-21)
(-0.0048255642 -0.0029693177 4.4090178e-21)
(-0.0059561088 -0.0032296901 -1.0650379e-21)
(-0.0073005893 -0.0035252767 -4.3133244e-22)
(-0.0088868738 -0.0038657311 1.3858568e-21)
(-0.010742451 -0.0042619398 -4.8821677e-21)
(-0.012892682 -0.0047254671 -7.1401898e-22)
(-0.015358479 -0.0052675352 3.6028845e-21)
(-0.018153478 -0.005897338 -3.9347673e-21)
(-0.021281032 -0.0066195527 5.2213781e-22)
(-0.024731756 -0.0074313411 4.9523683e-21)
(-0.028482851 -0.0083201782 -4.890585e-22)
(-0.03250051 -0.0092649145 -3.5877433e-21)
(-0.036745624 -0.010241411 -8.9466936e-23)
(-0.041180382 -0.01123014 2.3832377e-21)
(-0.045772149 -0.012220911 -2.5058507e-21)
(-0.050493349 -0.013212878 1.0716091e-21)
(-0.055319275 -0.014212087 -1.1998667e-21)
(-0.060226159 -0.015229288 -3.6939274e-21)
(-0.065190384 -0.01627896 -8.0949489e-22)
(-0.070188746 -0.017379479 -3.1153303e-21)
(-0.075199445 -0.018553904 3.9600899e-21)
(-0.080203566 -0.019830882 3.6554361e-21)
(-0.085187094 -0.021245351 6.3086169e-22)
(-0.090142192 -0.022838334 -5.0981265e-21)
(-0.095069206 -0.024655446 2.4526848e-21)
(-0.099978523 -0.026744903 8.6334639e-22)
(-0.10488335 -0.029152015 -4.6477315e-22)
(-0.10979679 -0.031909736 -1.4839727e-21)
(-0.1147246 -0.035029285 7.3437249e-22)
(-0.11966003 -0.038483616 -1.3488286e-21)
(-0.12455909 -0.04217955 -8.1767638e-21)
(-0.12935937 -0.045922114 -3.9413919e-22)
(-0.13390956 -0.049354485 1.7773562e-21)
(-0.13810849 -0.051898556 -3.9253366e-21)
(-0.14164827 -0.052652935 3.3440648e-21)
(-0.14460296 -0.050448158 -9.373602e-21)
(-0.14641633 -0.043674479 -2.5824037e-21)
(-0.14792879 -0.03055578 7.260818e-21)
(-0.14771715 -0.0094298904 -1.1941974e-21)
(-0.14850587 0.019724323 -1.370613e-21)
(-0.14635312 0.055770526 -2.558331e-22)
(-0.14824286 0.095412482 3.2575451e-21)
(-0.14366199 0.1326948 -6.1958686e-21)
(-0.14799204 0.15586936 -2.1406272e-21)
(-0.11787346 0.14632088 -3.086562e-21)
(-1.0980707e-06 1.3797572e-05 -3.6489029e-22)
(-5.5242634e-06 4.1102669e-05 2.6965457e-22)
(-1.3627456e-05 7.0081657e-05 7.170722e-23)
(-2.6630645e-05 0.00010173438 -6.7961162e-23)
(-4.5968839e-05 0.00013716619 3.2928581e-22)
(-7.3469286e-05 0.00017757277 2.4508467e-23)
(-0.00011140399 0.00022423374 3.1260277e-22)
(-0.00016254634 0.00027849292 3.3662113e-22)
(-0.00023028075 0.00034172507 -2.7480228e-21)
(-0.00031871613 0.0004152885 2.4509141e-21)
(-0.00043282027 0.00050045873 -1.1712404e-21)
(-0.00057856852 0.00059834021 -1.7134281e-21)
(-0.00076311122 0.00070975066 3.3900067e-21)
(-0.00099495566 0.00083507464 4.1873522e-22)
(-0.0012841602 0.00097408136 -1.610017e-21)
(-0.001642533 0.0011257043 -1.1021426e-21)
(-0.0020838262 0.0012877805 1.2710801e-21)
(-0.0026239087 0.0014567508 -4.5709006e-21)
(-0.0032808964 0.0016273261 2.6790233e-21)
(-0.0040752077 0.001792131 -1.3128967e-21)
(-0.0050295046 0.0019413434 4.3758371e-21)
(-0.0061684636 0.0020623603 1.1236478e-21)
(-0.0075183092 0.0021395355 -2.3097444e-21)
(-0.0091060285 0.002154058 3.4210073e-21)
(-0.010958175 0.0020840826 1.3249312e-21)
(-0.013099174 0.001905295 -1.5570742e-21)
(-0.015549097 0.0015922236 -8.6615209e-21)
(-0.018320968 0.0011207803 -3.8298706e-21)
(-0.021417946 0.00047259002 1.851003e-21)
(-0.024831093 -0.0003588463 -1.9276903e-21)
(-0.028538838 -0.0013619718 1.1457161e-21)
(-0.032509278 -0.0025055433 6.2364295e-21)
(-0.036705446 -0.003745845 -1.9805376e-21)
(-0.041091397 -0.0050403097 -5.6007895e-21)
(-0.045635795 -0.0063586344 1.7539711e-21)
(-0.050311801 -0.007685771 2.3516353e-21)
(-0.055095065 -0.0090189701 -3.914e-21)
(-0.059961976 -0.010363698 -1.1640903e-21)
(-0.064888968 -0.011730932 2.0145227e-21)
(-0.069852797 -0.013136174 7.9642815e-22)
(-0.074831526 -0.014599639 -3.8390795e-21)
(-0.079805989 -0.016146953 1.0957375e-21)
(-0.084761675 -0.017809911 1.6011295e-21)
(-0.089689921 -0.019626554 4.3499872e-21)
(-0.094589802 -0.021639909 -8.4379945e-21)
(-0.099468848 -0.023897522 5.5834263e-21)
(-0.10433589 -0.026447594 1.4405727e-21)
(-0.10919737 -0.029328671 5.7969043e-21)
(-0.11404795 -0.032560202 7.0649373e-21)
(-0.11886344 -0.036127637 3.6269388e-22)
(-0.12357403 -0.039953604 -1.5544233e-21)
(-0.12808012 -0.043860782 1.1548003e-20)
(-0.13218008 -0.047507806 4.9337338e-21)
(-0.13570725 -0.050327983 5.0712855e-21)
(-0.13828408 -0.051411253 1.6345057e-21)
(-0.13991319 -0.049573875 1.2583251e-20)
(-0.13994574 -0.043066965 -4.7494084e-21)
(-0.13934521 -0.030289814 1.2755246e-21)
(-0.13664385 -0.0093826736 1.126043e-20)
(-0.13482393 0.019592727 4.3656705e-21)
(-0.12938111 0.055755826 -4.8957137e-21)
(-0.12745154 0.095150046 -1.7248674e-20)
(-0.1135649 0.13199984 5.3308395e-21)
(-0.10203844 0.15166464 9.72947e-21)
(-0.042057561 0.13448021 3.9857946e-21)
(-6.1950339e-06 6.2378391e-05 1.2247421e-21)
(-2.1354861e-05 0.00019150021 -1.9486393e-21)
(-4.1039493e-05 0.00033283485 7.0445618e-22)
(-6.6739199e-05 0.00048820098 -7.6555484e-23)
(-9.989834e-05 0.00065959757 1.5132983e-21)
(-0.0001424274 0.00084913442 -1.5650681e-21)
(-0.00019666848 0.0010590207 2.3732439e-21)
(-0.00026545415 0.0012915303 -1.1157004e-21)
(-0.00035220991 0.0015489482 -4.2397061e-21)
(-0.00046106455 0.001833497 1.0182869e-21)
(-0.0005969754 0.002147237 3.8748657e-21)
(-0.00076586816 0.0024919362 -1.1810281e-21)
(-0.00097479308 0.0028689021 -7.8600538e-23)
(-0.0012320943 0.0032787716 3.0788488e-21)
(-0.0015475891 0.0037212517 -9.603279e-21)
(-0.0019327514 0.0041948068 5.8739408e-21)
(-0.0024008877 0.0046962891 5.5827249e-23)
(-0.0029672934 0.0052205133 -3.217161e-21)
(-0.0036493659 0.0057597793 8.1168083e-21)
(-0.0044666463 0.0063033544 -3.8007971e-21)
(-0.0054407516 0.0068369373 -5.6194755e-21)
(-0.0065951438 0.0073421362 -2.2544838e-21)
(-0.0079546755 0.0077960164 1.102033e-20)
(-0.0095448315 0.0081708013 5.6917716e-21)
(-0.011390586 0.0084338718 -3.6244261e-21)
(-0.013514799 0.0085483156 2.0879224e-21)
(-0.01593612 0.0084744822 -7.6880465e-21)
(-0.018666507 0.0081732965 2.1692814e-21)
(-0.021708689 0.0076123077 -5.714971e-21)
(-0.025054265 0.0067748983 3.1392614e-21)
(-0.0286834 0.005670493 -1.8832138e-21)
(-0.032566987 0.0043392063 6.6103953e-21)
(-0.036671272 0.0028435953 -9.0147784e-22)
(-0.040963104 0.0012493228 4.5444333e-21)
(-0.045413019 -0.00039260933 -4.12969e-21)
(-0.049995133 -0.0020522497 -1.2744361e-21)
(-0.054685388 -0.003717485 1.5144066e-20)
(-0.059460029 -0.0053881188 3.8480916e-21)
(-0.064295069 -0.0070713847 -3.1251636e-21)
(-0.069166602 -0.0087797607 3.0446704e-21)
(-0.074051751 -0.010530501 -7.8939271e-22)
(-0.078930047 -0.012346106 -4.9378598e-21)
(-0.083785087 -0.014255171 2.298977e-22)
(-0.08860558 -0.016292731 1.7136634e-21)
(-0.093386952 -0.018499417 -8.573136e-22)
(-0.098131038 -0.020922627 4.4495575e-22)
(-0.1028381 -0.0236139 1.291511e-21)
(-0.10750275 -0.026618541 -2.0172091e-20)
(-0.11210193 -0.02996617 2.3046703e-21)
(-0.11658487 -0.033657276 -2.1514116e-21)
(-0.12084344 -0.037633589 2.0407555e-20)
(-0.12472395 -0.041739426 -1.1228607e-20)
(-0.12795054 -0.045652911 -9.2244837e-21)
(-0.13025992 -0.048820567 -8.7246357e-21)
(-0.13116643 -0.050319053 -8.2593122e-21)
(-0.13056864 -0.048979577 -1.2695767e-20)
(-0.12760016 -0.042948557 2.4697561e-20)
(-0.1232337 -0.030572844 -1.4671605e-20)
(-0.11581887 -0.0098730532 -2.1300454e-20)
(-0.10834688 0.018983564 1.4578827e-20)
(-0.095434407 0.055220518 4.6277418e-21)
(-0.084206586 0.093864709 4.3338426e-21)
(-0.055056246 0.12957945 -1.9636698e-20)
(-0.024528311 0.14390639 -1.7163497e-20)
(0.063375272 0.11913755 9.9191482e-22)
(-1.4011842e-05 0.00010953983 -8.6476024e-22)
(-4.538621e-05 0.00033752616 2.8710035e-21)
(-8.2801352e-05 0.00058795705 -2.3402778e-21)
(-0.00012782906 0.00086349342 8.8426841e-22)
(-0.00018203515 0.001167012 3.1942584e-22)
(-0.00024743049 0.0015015284 -2.7478702e-21)
(-0.00032644564 0.0018701763 6.9559338e-22)
(-0.00042198453 0.0022761595 1.4767121e-21)
(-0.00053751909 0.0027226795 1.1320703e-22)
(-0.00067719017 0.0032128372 9.615319e-22)
(-0.00084592175 0.0037495022 -1.3454909e-21)
(-0.0010495476 0.0043351428 9.341952e-22)
(-0.0012949519 0.004971609 3.4386713e-21)
(-0.0015902209 0.0056598617 1.0024865e-22)
(-0.0019448022 0.0063996398 -2.6181899e-21)
(-0.0023696659 0.0071890595 -1.8499822e-21)
(-0.0028774579 0.0080241402 1.587262e-21)
(-0.0034826327 0.0088982574 -1.5110135e-22)
(-0.0042015446 0.0098015255 -3.0663201e-21)
(-0.0050524718 0.010720122 -3.7154681e-21)
(-0.0060555369 0.011635576 4.20989e-21)
(-0.0072324766 0.012524059 4.2006957e-21)
(-0.0086062029 0.013355735 -5.5969818e-21)
(-0.010200085 0.014094275 6.8515948e-21)
(-0.012036876 0.014696705 1.1730695e-20)
(-0.014137227 0.015113892 -2.7241578e-20)
(-0.016517769 0.015292275 1.4749873e-20)
(-0.019188897 0.015177816 -2.1446626e-20)
(-0.022152604 0.014723562 2.6172975e-20)
(-0.025401017 0.013901681 -2.8396351e-20)
(-0.028916425 0.012717663 2.834276e-20)
(-0.032673322 0.01121842 -4.5596205e-21)
(-0.036642211 0.0094838418 -1.5049082e-20)
(-0.04079371 0.0076023264 8.0537655e-21)
(-0.04510089 0.0056461879 -2.3879932e-21)
(-0.0495391 0.0036612327 -6.583444e-22)
(-0.054084522 0.0016697406 -7.8974972e-21)
(-0.058712986 -0.00032189062 -2.5051682e-21)
(-0.063399626 -0.0023168169 -2.4877487e-21)
(-0.068119251 -0.0043242837 -2.4183074e-21)
(-0.072847223 -0.0063584694 1.231631e-20)
(-0.077560695 -0.0084386916 -5.4401489e-21)
(-0.082239969 -0.01059032 -8.8002259e-22)
(-0.086869333 -0.012845409 1.0279687e-20)
(-0.091438268 -0.01524236 5.3034634e-21)
(-0.095939995 -0.017828832 -2.6448486e-21)
(-0.10036229 -0.02066061 -9.8344903e-21)
(-0.10468283 -0.02379073 4.3285792e-21)
(-0.10885437 -0.027261253 -1.2899694e-20)
(-0.1127907 -0.031090787 -7.084497e-21)
(-0.11633322 -0.035244184 -9.8236305e-21)
(-0.11925764 -0.039592539 -2.6478532e-20)
(-0.12119053 -0.043838961 2.0378363e-20)
(-0.12174051 -0.047446187 -6.5935687e-21)
(-0.12026516 -0.049473326 1.1078825e-20)
(-0.11647224 -0.048765335 1.0345728e-20)
(-0.10943421 -0.043335444 3.613957e-21)
(-0.099834005 -0.031516093 3.3335114e-20)
(-0.085799188 -0.011146803 8.6940109e-21)
(-0.070230168 0.017325909 -1.9023055e-20)
(-0.046669256 0.053525289 -6.4812596e-21)
(-0.02286836 0.090778715 5.286474e-21)
(0.024228019 0.12493665 1.0514451e-20)
(0.074513235 0.13379479 1.9475637e-20)
(0.18512208 0.10216689 -1.4041248e-21)
(-2.4320262e-05 0.0001542234 -2.643286e-21)
(-7.7094995e-05 0.00047592957 -9.3303318e-22)
(-0.00013792178 0.00082982724 7.5516656e-22)
(-0.00020847537 0.0012193923 2.7885569e-21)
(-0.00029047455 0.0016483536 -1.527676e-21)
(-0.00038605545 0.0021206115 2.1982685e-21)
(-0.00049775756 0.0026402081 -9.5090924e-22)
(-0.00062857059 0.0032112675 -2.264457e-22)
(-0.00078201916 0.0038379071 1.2810298e-21)
(-0.00096225144 0.0045241172 2.7596341e-21)
(-0.0011741394 0.0052736026 1.3884463e-22)
(-0.0014233884 0.006089577 -4.5307664e-21)
(-0.0017166585 0.0069745014 6.2634575e-21)
(-0.0020616931 0.0079297577 -1.0102514e-20)
(-0.0024674534 0.0089552486 2.6366439e-21)
(-0.0029442516 0.010048915 -5.5949097e-21)
(-0.0035038756 0.011206163 6.7498768e-21)
(-0.0041596921 0.012419207 -4.3741075e-21)
(-0.004926711 0.013676309 6.8814307e-22)
(-0.0058215871 0.014960961 2.7837867e-21)
(-0.0068625265 0.016250994 -6.7403137e-21)
(-0.0080690568 0.017517683 9.4637451e-21)
(-0.0094616076 0.018724895 -1.0230848e-20)
(-0.011060841 0.019828401 -1.7504874e-21)
(-0.012886665 0.020775541 1.7001885e-20)
(-0.014956886 0.021505603 -1.7026317e-20)
(-0.017285506 0.021951616 1.0937411e-20)
(-0.019880822 0.022044763 -1.2110915e-20)
(-0.022743698 0.021723173 -1.1500146e-21)
(-0.025866642 0.020946444 -7.0427474e-22)
(-0.029234281 0.019713703 4.4643966e-21)
(-0.032825341 0.018075655 -3.0220544e-22)
(-0.036615534 0.016127103 1.5553392e-20)
(-0.040580254 0.013978301 -3.9962622e-21)
(-0.044695863 0.011723432 -1.1461981e-20)
(-0.048939317 0.009425324 5.1064818e-21)
(-0.053287068 0.0071175135 -4.0377903e-21)
(-0.057714295 0.0048133581 3.9671101e-21)
(-0.062194814 0.0025142285 2.16135e-20)
(-0.066701517 0.00021434832 -1.1840158e-20)
(-0.071207165 -0.00209726 -2.8995814e-21)
(-0.075685447 -0.0044366743 1.6561446e-20)
(-0.080111968 -0.0068260372 -9.4468839e-22)
(-0.08446484 -0.0092944467 -2.0601987e-21)
(-0.088725423 -0.011878255 -2.297797e-20)
(-0.092875172 -0.014625862 -5.3971899e-21)
(-0.096885829 -0.017598108 8.6523797e-21)
(-0.10071336 -0.020856951 8.9537647e-21)
(-0.10427985 -0.024459394 1.2892019e-20)
(-0.10745501 -0.028445724 1.6067423e-20)
(-0.1100179 -0.032808663 9.8360213e-21)
(-0.11165748 -0.03745247 1.5314509e-20)
(-0.11187964 -0.04211252 -5.1356452e-21)
(-0.11013485 -0.046277006 3.1694697e-20)
(-0.1055831 -0.048988778 2.0248456e-21)
(-0.097691268 -0.049057822 1.612642e-21)
(-0.085585387 -0.044429055 6.5893e-22)
(-0.069460197 -0.03340761 -3.5905426e-20)
(-0.047304453 -0.013561276 -1.2824432e-20)
(-0.021905221 0.014222093 1.8866879e-20)
(0.01421408 0.050226569 2.557283e-20)
(0.052319237 0.085791051 1.1924384e-20)
(0.11653522 0.11808262 3.925967e-21)
(0.18609213 0.12203536 -2.8158011e-20)
(0.31612663 0.08483169 6.8783467e-21)
(-3.6819419e-05 0.00019540329 5.0108846e-22)
(-0.00011555707 0.00060352992 1.5925666e-21)
(-0.00020479575 0.001052895 -3.8436894e-21)
(-0.00030633441 0.0015477511 1.4278432e-22)
(-0.0004220739 0.002092639 1.8711893e-21)
(-0.00055429941 0.002692309 8.2474287e-22)
(-0.00070567955 0.0033516831 6.0894789e-22)
(-0.00087930511 0.0040757854 -1.1997983e-21)
(-0.0010787618 0.0048696396 6.2104628e-21)
(-0.0013082045 0.0057381314 -4.6851008e-21)
(-0.0015724404 0.0066858262 2.2676871e-22)
(-0.0018770188 0.0077167326 2.8343275e-21)
(-0.0022283289 0.0088340031 -1.0598574e-20)
(-0.0026337018 0.01003956 1.0557913e-20)
(-0.0031015147 0.011333633 -1.4047589e-21)
(-0.0036412913 0.012714208 -8.6887951e-21)
(-0.0042637923 0.014176364 8.1606464e-21)
(-0.0049810832 0.015711508 -2.8466954e-21)
(-0.0058065664 0.017306495 5.5215706e-21)
(-0.0067549553 0.018942661 -7.0675587e-21)
(-0.0078421638 0.02059477 -1.3226995e-20)
(-0.0090850744 0.022229925 1.3035186e-20)
(-0.01050114 0.023806518 1.8998212e-20)
(-0.012107768 0.025273313 -3.6390841e-20)
(-0.01392143 0.026568904 2.8932643e-20)
(-0.015956472 0.027621913 -1.6622317e-20)
(-0.01822365 0.028352733 4.2264977e-21)
(-0.020728579 0.028678175 -9.8477977e-21)
(-0.023470498 0.028521133 9.8733085e-21)
(-0.02644197 0.027827132 1.3024351e-20)
(-0.029629919 0.026585981 -8.3878976e-21)
(-0.033017677 0.024848252 -1.3453997e-20)
(-0.036586972 0.022720195 1.118288e-21)
(-0.040318971 0.02033231 4.3903328e-22)
(-0.044194202 0.017801007 7.5463458e-21)
(-0.048191747 0.015207489 -3.1425017e-21)
(-0.05228846 0.012597928 -1.1069663e-20)
(-0.056458685 0.009993634 -5.4313537e-21)
(-0.060674494 0.0074010985 8.143741e-21)
(-0.064906229 0.0048183268 -6.3458634e-21)
(-0.069123201 0.0022376851 5.412455e-21)
(-0.073294546 -0.00035361161 -1.7688422e-21)
(-0.077389778 -0.0029744622 -6.9834916e-21)
(-0.081379103 -0.0056510137 1.7085707e-20)
(-0.085233585 -0.0084177841 1.0287276e-20)
(-0.088919815 -0.011324377 6.8784762e-21)
(-0.092390059 -0.014437315 -2.2059449e-20)
(-0.095573852 -0.017828965 -1.4540823e-20)
(-0.098356072 -0.02157394 -1.7234645e-20)
(-0.10055368 -0.025738142 -3.0298334e-20)
(-0.10187125 -0.030347595 1.0487185e-20)
(-0.10189426 -0.035347153 -2.2553651e-21)
(-0.099984348 -0.040512195 -1.7290117e-20)
(-0.095414665 -0.045366291 -4.9718062e-20)
(-0.08715086 -0.048945011 -3.1701879e-20)
(-0.074360072 -0.049966 -1.1915387e-20)
(-0.056107268 -0.046312995 -3.3003632e-20)
(-0.032283221 -0.036316349 2.1373538e-20)
(-0.00083989079 -0.017229682 -1.556572e-21)
(0.036117718 0.0097053703 -3.0157753e-20)
(0.084980079 0.045199651 -1.9522751e-20)
(0.13762685 0.079154683 -1.0707668e-21)
(0.21682405 0.10929742 3.2291406e-20)
(0.30511438 0.1088032 -4.367903e-21)
(0.45323342 0.067685178 6.1932877e-21)
(-5.1091228e-05 0.00023209725 1.9866322e-21)
(-0.00015948737 0.00071729208 -1.3401592e-21)
(-0.00028119123 0.0012518672 1.8102537e-21)
(-0.00041814567 0.0018407988 1.0288807e-21)
(-0.00057245887 0.0024893843 -2.8708131e-21)
(-0.00074658693 0.003203175 -2.679841e-21)
(-0.00094334681 0.0039879295 2.7494396e-21)
(-0.0011659462 0.0048495384 -3.3094625e-22)
(-0.0014180429 0.0057939116 -7.6655079e-23)
(-0.001703802 0.0068268274 -5.4434953e-21)
(-0.0020279612 0.0079537317 5.962149e-22)
(-0.0023958967 0.0091794783 1.0970363e-20)
(-0.0028136957 0.010507998 -8.7684482e-21)
(-0.003288227 0.011941886 3.0160053e-22)
(-0.0038272119 0.01348189 5.8708434e-21)
(-0.0044392869 0.015126298 5.046385e-22)
(-0.0051340547 0.016870196 -1.2826992e-21)
(-0.0059221121 0.018704614 -5.7731724e-21)
(-0.0068150435 0.020615536 1.0559852e-20)
(-0.007825363 0.022582792 -1.8530929e-20)
(-0.0089663813 0.024578851 3.9835368e-21)
(-0.010251969 0.026567551 -2.9204451e-21)
(-0.011696177 0.028502831 2.3848402e-21)
(-0.013312677 0.030327589 -1.0446946e-22)
(-0.015113969 0.031972882 1.400935e-20)
(-0.017110361 0.033357883 1.3860171e-20)
(-0.019308754 0.034391428 -2.7197273e-20)
(-0.021711456 0.034976657 -4.4815462e-21)
(-0.024315475 0.035021128 1.534449e-20)
(-0.027112883 0.034454803 5.3365824e-21)
(-0.030092546 0.033254856 1.1856013e-20)
(-0.033242429 0.03146694 -1.2914967e-20)
(-0.036550819 0.029204102 -5.4526828e-21)
(-0.040005608 0.026614484 1.2102842e-20)
(-0.043592462 0.023836668 -4.8563454e-21)
(-0.047293274 0.020971678 -2.296837e-21)
(-0.051085572 0.018080005 6.2598288e-21)
(-0.054942763 0.015192191 1.6063753e-20)
(-0.058834784 0.012320634 4.8342673e-21)
(-0.062728797 0.0094675368 -3.1704828e-21)
(-0.06658981 0.0066288024 -7.5130153e-21)
(-0.070381298 0.0037950097 -7.8459888e-21)
(-0.074065278 0.00095053155 -8.7923663e-21)
(-0.077602306 -0.0019278134 -1.8691967e-20)
(-0.080950888 -0.0048729233 5.2330421e-22)
(-0.084059733 -0.0079359957 -8.1199741e-21)
(-0.086858023 -0.011189734 4.5406654e-20)
(-0.089243959 -0.014718493 1.274156e-20)
(-0.09105815 -0.018617329 1.4776686e-20)
(-0.092055085 -0.022982 4.1254936e-20)
(-0.091851075 -0.027877764 -4.8389001e-20)
(-0.089908095 -0.03329821 1.0735268e-20)
(-0.085416341 -0.039064509 3.4148117e-20)
(-0.07744497 -0.044728497 4.0968003e-20)
(-0.064746569 -0.049355128 5.0306346e-21)
(-0.046220389 -0.051542899 -1.1954055e-20)
(-0.020680945 -0.049045143 -1.7838299e-20)
(0.012035345 -0.040252268 7.0043587e-21)
(0.054133937 -0.022189498 -1.0873891e-20)
(0.10398705 0.0039511071 9.3074674e-21)
(0.16424425 0.038939623 2.8094693e-21)
(0.23099847 0.071423886 8.7123829e-21)
(0.32402186 0.099231665 -4.0494787e-20)
(0.43006521 0.094418568 -1.8272214e-21)
(0.59540074 0.051360918 -2.1123537e-20)
(-6.6605942e-05 0.00026341128 -1.8742877e-21)
(-0.00020726664 0.00081444962 -5.0212762e-22)
(-0.00036429073 0.0014219173 5.5160677e-22)
(-0.00053979307 0.0020914435 2.7109325e-21)
(-0.00073610546 0.0028290131 -3.2505612e-21)
(-0.00095587399 0.003640913 2.7594633e-21)
(-0.0012020817 0.0045336806 1.3184741e-21)
(-0.0014780693 0.005514025 -7.056093e-23)
(-0.0017875791 0.0065887082 -1.1117659e-21)
(-0.0021347962 0.0077643863 -6.3187467e-21)
(-0.0025243915 0.0090473965 1.0599759e-20)
(-0.0029615648 0.010443481 -1.272139e-20)
(-0.0034520873 0.011957437 3.7301914e-21)
(-0.0040023401 0.013592669 5.0546345e-21)
(-0.0046193474 0.015350646 -7.7366161e-21)
(-0.0053107987 0.017230239 1.521414e-20)
(-0.0060850556 0.019226917 -1.8389634e-20)
(-0.0069511349 0.021331815 -2.8989445e-22)
(-0.0079186594 0.023530652 -1.0473814e-20)
(-0.008997761 0.025802498 4.1412128e-20)
(-0.01019892 0.028118427 -9.9863079e-21)
(-0.011532717 0.030440067 -4.1163387e-20)
(-0.013009469 0.032718126 1.9365078e-20)
(-0.014638718 0.034890997 2.2998825e-20)
(-0.01642854 0.03688368 -5.747294e-21)
(-0.018384685 0.038607419 -2.9931374e-20)
(-0.020509616 0.039960924 4.4987809e-20)
(-0.022801689 0.040834733 -4.9432058e-20)
(-0.025254959 0.041121312 3.8423389e-20)
(-0.027860236 0.040733801 -7.2286106e-21)
(-0.030607611 0.039633307 1.215927e-20)
(-0.033489261 0.037855084 1.6845051e-20)
(-0.036500201 0.035513072 -6.3353677e-21)
(-0.039635824 0.032769151 -1.5374435e-21)
(-0.042887993 0.029783287 -2.1831811e-20)
(-0.046242284 0.026677702 4.0103924e-21)
(-0.049677343 0.023529171 -1.0126301e-20)
(-0.05316566 0.020379075 8.451932e-21)
(-0.056674696 0.017246748 -4.7915184e-21)
(-0.060167815 0.014139152 -3.1703014e-21)
(-0.063604845 0.011055992 -2.7549122e-21)
(-0.066942445 0.0079913209 -2.6930558e-21)
(-0.070133671 0.0049328462 1.6674592e-20)
(-0.07312759 0.0018604094 1.3430171e-20)
(-0.075867688 -0.0012574207 -3.8343974e-21)
(-0.078281626 -0.004473711 2.5332784e-21)
(-0.080271471 -0.007867729 -1.0401876e-20)
(-0.081698304 -0.011537421 2.1320948e-20)
(-0.082349895 -0.015601188 2.5210464e-20)
(-0.08190592 -0.020188953 7.3835162e-21)
(-0.079876018 -0.025411523 1.9185965e-20)
(-0.075571235 -0.031319515 -5.9853683e-22)
(-0.067973667 -0.03778489 -9.0894819e-21)
(-0.055917157 -0.044389742 -4.3028086e-20)
(-0.037861599 -0.050193206 2.0934463e-20)
(-0.012529825 -0.053737054 -7.6609668e-21)
(0.021516981 -0.052549796 2.1616081e-20)
(0.064489108 -0.045097386 -3.246635e-20)
(0.11853897 -0.028078379 1.7661705e-20)
(0.18058188 -0.0024689972 -5.0671877e-21)
(0.25204122 0.032129828 -1.288731e-22)
(0.33264717 0.063151867 -4.46031e-21)
(0.43914037 0.088821314 -1.608454e-20)
(0.56252099 0.079918236 3.8922628e-20)
(0.74466336 0.036554056 -3.9835133e-20)
(-8.2741179e-05 0.00028859816 4.2073962e-21)
(-0.00025700033 0.00089267872 2.8949616e-21)
(-0.00045079164 0.0015589862 -4.5443815e-21)
(-0.00066645076 0.0022937098 1.1965183e-22)
(-0.00090653367 0.0031034402 4.1085159e-21)
(-0.0011738925 0.0039951189 2.148305e-21)
(-0.0014716916 0.0049759877 -4.5271709e-21)
(-0.0018034196 0.0060535093 7.4350943e-22)
(-0.0021729184 0.0072352474 -1.0480448e-20)
(-0.0025844062 0.008528705 2.0424375e-21)
(-0.0030425001 0.0099411069 5.2395345e-23)
(-0.0035522326 0.011479115 -7.5123889e-21)
(-0.0041190653 0.013148466 2.4071265e-20)
(-0.0047488924 0.014953509 -1.1215372e-20)
(-0.0054480348 0.016896637 -2.0094018e-20)
(-0.006223219 0.018977589 2.141097e-20)
(-0.007081537 0.021192609 -2.6371384e-21)
(-0.0080303809 0.023533452 1.4969332e-20)
(-0.0090773451 0.02598622 1.1117005e-20)
(-0.010230086 0.028530039 -3.495311e-20)
(-0.011496126 0.031135576 2.6228583e-20)
(-0.012882589 0.03376343 -3.4501973e-20)
(-0.014395836 0.036362449 4.0464138e-21)
(-0.016041002 0.038868089 -1.6522191e-20)
(-0.017821388 0.041201019 3.5819362e-20)
(-0.019737758 0.043266383 -8.4621581e-21)
(-0.021787607 0.044954558 -2.126514e-20)
(-0.023964686 0.046144987 5.1016961e-20)
(-0.026259291 0.046715785 -2.1926688e-20)
(-0.028659985 0.046562482 -2.3310891e-20)
(-0.031156978 0.045626918 1.8887077e-20)
(-0.033745708 0.043928064 2.4822607e-21)
(-0.036427544 0.04157363 -1.1991235e-20)
(-0.039205859 0.038733738 6.3893616e-21)
(-0.042079759 0.035587799 -9.4664468e-21)
(-0.045039562 0.032280262 3.2095621e-20)
(-0.048065709 0.028906358 -1.6395495e-20)
(-0.051129941 0.025520273 -9.6480032e-21)
(-0.054196994 0.022149607 -1.956996e-20)
(-0.057225823 0.018806837 -2.6889564e-21)
(-0.060170155 0.015495839 2.0626509e-20)
(-0.062978583 0.012214313 -8.3825799e-21)
(-0.065593579 0.0089534132 -1.2462877e-20)
(-0.067950665 0.0056961205 -1.8893278e-21)
(-0.069975382 0.0024124201 1.2702753e-20)
(-0.071570693 -0.00095272598 1.1399653e-20)
(-0.072606462 -0.0044853627 -3.5214318e-20)
(-0.072898948 -0.0082985852 -1.8917349e-20)
(-0.072171108 -0.01253695 -4.1596918e-20)
(-0.07000971 -0.017368742 -1.4764364e-20)
(-0.065789797 -0.022956331 -5.7824891e-21)
(-0.058630206 -0.029414117 -4.2172729e-20)
(-0.047256431 -0.03666475 -1.5958485e-20)
(-0.030220301 -0.044319301 5.300059e-20)
(-0.0056385417 -0.051400374 -4.0363912e-20)
(0.028063527 -0.056340215 3.4829207e-20)
(0.072248283 -0.056490343 -1.4781154e-20)
(0.12721072 -0.050275634 6.4232146e-20)
(0.19392376 -0.03399133 2.8428305e-20)
(0.26789119 -0.0084305414 -9.8077108e-21)
(0.35157149 0.026121987 -1.4763334e-20)
(0.4460567 0.056007648 -2.6635769e-20)
(0.56621855 0.079650274 -4.4299814e-21)
(0.70722443 0.066801206 -5.1267349e-21)
(0.90378539 0.025468934 5.2236399e-20)
(-9.8820847e-05 0.0003070865 7.6680744e-23)
(-0.00030657565 0.00095021109 -5.4587832e-21)
(-0.0005370368 0.001659973 6.4346167e-21)
(-0.00079276703 0.0024430232 3.0962002e-21)
(-0.0010765543 0.0033064594 -6.2002699e-21)
(-0.0013914661 0.0042577818 -2.0078809e-21)
(-0.0017408591 0.0053048454 9.7356856e-21)
(-0.002128383 0.0064557839 -1.0473452e-20)
(-0.002557995 0.0077188938 -2.2086417e-21)
(-0.0030339646 0.009102475 -8.781669e-21)
(-0.0035608752 0.010614615 2.3305354e-20)
(-0.0041436162 0.012262907 2.8363056e-22)
(-0.0047873655 0.014054082 -2.0895496e-20)
(-0.0054975591 0.015993548 2.2406622e-20)
(-0.006279845 0.018084805 -1.601938e-20)
(-0.007140018 0.020328739 -5.9318146e-21)
(-0.0080839306 0.02272275 1.237176e-20)
(-0.0091173768 0.025259723 -1.1143154e-20)
(-0.010245941 0.027926813 -1.4809414e-20)
(-0.011474811 0.030704038 3.1180236e-22)
(-0.012808536 0.033562696 2.3240718e-20)
(-0.014250735 0.036463609 -1.4339843e-20)
(-0.015803732 0.039355255 7.9708731e-21)
(-0.017468106 0.042171869 3.840789e-20)
(-0.019242168 0.044831728 1.2815506e-20)
(-0.021121375 0.047235982 -3.4645492e-20)
(-0.023097811 0.049268843 3.4503384e-21)
(-0.025160006 0.050800646 -3.8734936e-20)
(-0.02729364 0.051696521 2.2741069e-20)
(-0.029483867 0.051834333 -1.1914273e-20)
(-0.031719542 0.051134089 1.7034279e-20)
(-0.033997827 0.049592654 4.0932671e-21)
(-0.036325387 0.047303373 -2.0004309e-20)
(-0.038713517 0.044437303 2.0035775e-20)
(-0.041169473 0.041189703 2.8644267e-20)
(-0.04368954 0.037727526 -2.595856e-21)
(-0.046256882 0.034166665 -2.9192733e-20)
(-0.048842887 0.030576438 3.6646183e-20)
(-0.051409411 0.026994399 -7.7807712e-21)
(-0.053910405 0.023439532 1.6634002e-20)
(-0.056292492 0.019920403 -2.6071343e-21)
(-0.058494765 0.016438612 2.6282125e-20)
(-0.060447205 0.012988942 1.2755299e-20)