/*--------------------------------*- C++ -*----------------------------------*\
  =========                 |
  \\      /  F ield         | OpenFOAM: The Open Source CFD Toolbox
   \\    /   O peration     | Website:  https://openfoam.org
    \\  /    A nd           | Version:  13
     \\/     M anipulation  |
\*---------------------------------------------------------------------------*/
FoamFile
{
    format      ascii;
    class       volScalarField;
    location    "49.403994";
    object      p;
}
// * * * * * * * * * * * * * * * * * * * * * * * * * * * * * * * * * * * * * //

dimensions      [0 2 -2 0 0 0 0];

internalField   nonuniform List<scalar> 
17140
(
-0.33930956
-0.33931733
-0.33932654
-0.33933637
-0.33934717
-0.33935908
-0.3393722
-0.33938661
-0.3394024
-0.33941966
-0.33943848
-0.33945893
-0.33948107
-0.33950493
-0.33953053
-0.33955785
-0.33958681
-0.33961729
-0.33964912
-0.33968204
-0.33971576
-0.33974998
-0.33978437
-0.33981876
-0.33985321
-0.33988832
-0.33992556
-0.33996797
-0.34002097
-0.34009361
-0.3401999
-0.34035961
-0.34059712
-0.34093653
-0.34139308
-0.34196432
-0.34262694
-0.34334195
-0.3440654
-0.34475967
-0.34540127
-0.34598229
-0.34651942
-0.3470594
-0.34766519
-0.34841771
-0.34943949
-0.35090675
-0.35307116
-0.35629109
-0.36107224
-0.36807118
-0.37805566
-0.39163062
-0.40894426
-0.42771035
-0.44018144
-0.4068472
-0.31065145
-0.23478289
-0.18978887
-0.21196768
-0.21808223
-0.14902144
-0.09303697
-0.33982778
-0.33983496
-0.33984369
-0.33985272
-0.33986263
-0.33987359
-0.33988566
-0.33989892
-0.33991345
-0.33992934
-0.33994665
-0.33996545
-0.33998579
-0.3400077
-0.34003118
-0.3400562
-0.34008267
-0.34011046
-0.34013939
-0.34016921
-0.34019962
-0.34023028
-0.3402609
-0.34029128
-0.34032147
-0.34035205
-0.34038447
-0.34042168
-0.34046895
-0.34053506
-0.34063351
-0.34078325
-0.34100765
-0.3413299
-0.34176503
-0.34231169
-0.34294911
-0.34364182
-0.34434989
-0.34503988
-0.34569275
-0.34630617
-0.34690284
-0.34753688
-0.34828334
-0.34924225
-0.35056376
-0.35246755
-0.35527366
-0.359448
-0.36565302
-0.37478687
-0.38800118
-0.40630902
-0.43071774
-0.45969066
-0.48436433
-0.45096695
-0.33715868
-0.24183942
-0.17208293
-0.17690891
-0.17208157
-0.11834252
-0.076618517
-0.34040156
-0.34040797
-0.34041575
-0.34042384
-0.34043273
-0.34044257
-0.34045341
-0.34046532
-0.34047837
-0.34049263
-0.34050818
-0.34052505
-0.34054329
-0.34056292
-0.34058393
-0.34060627
-0.34062985
-0.34065455
-0.34068015
-0.34070642
-0.34073304
-0.34075968
-0.34078603
-0.34081189
-0.3408373
-0.34086281
-0.34088981
-0.34092115
-0.34096188
-0.3410204
-0.34110956
-0.34124735
-0.3414559
-0.34175732
-0.34216638
-0.34268294
-0.343289
-0.34395298
-0.34463924
-0.34531871
-0.34597689
-0.34661695
-0.34726712
-0.34798824
-0.34886665
-0.35002032
-0.35162501
-0.35394165
-0.35735608
-0.36243925
-0.37000419
-0.38118411
-0.39754432
-0.42045675
-0.45174574
-0.49130719
-0.52769339
-0.49261429
-0.35993957
-0.23730657
-0.15044977
-0.14025791
-0.12350017
-0.082454276
-0.056955725
-0.34101812
-0.34102367
-0.34103035
-0.34103738
-0.34104511
-0.34105366
-0.34106309
-0.34107346
-0.34108482
-0.34109724
-0.34111077
-0.34112545
-0.34114131
-0.34115834
-0.34117655
-0.34119587
-0.3412162
-0.3412374
-0.34125928
-0.34128158
-0.34130398
-0.34132616
-0.3413478
-0.34136869
-0.34138886
-0.34140881
-0.34142986
-0.34145472
-0.34148819
-0.34153819
-0.34161678
-0.34174085
-0.3419311
-0.34220836
-0.34258703
-0.3430682
-0.3436368
-0.34426538
-0.3449229
-0.3455848
-0.34624111
-0.34690034
-0.34759576
-0.34839399
-0.34939153
-0.35072247
-0.35258537
-0.35527898
-0.35925129
-0.36517283
-0.37399153
-0.38707787
-0.40635514
-0.43348379
-0.47124145
-0.52103892
-0.56676436
-0.53060136
-0.37868972
-0.23165874
-0.12612315
-0.10338383
-0.080351574
-0.044884854
-0.033932239
-0.34166447
-0.34166906
-0.34167455
-0.3416804
-0.34168683
-0.34169396
-0.34170183
-0.34171048
-0.34171997
-0.34173033
-0.34174162
-0.34175386
-0.34176707
-0.34178124
-0.34179634
-0.34181231
-0.34182905
-0.34184641
-0.34186419
-0.34188212
-0.34189991
-0.34191721
-0.34193372
-0.34194921
-0.34196368
-0.34197761
-0.34199221
-0.34201002
-0.34203553
-0.34207611
-0.34214298
-0.34225172
-0.34242149
-0.34267165
-0.34301605
-0.34345693
-0.3439822
-0.3445687
-0.34519016
-0.3458267
-0.34647282
-0.34714211
-0.34787238
-0.34873493
-0.34983489
-0.3513201
-0.35340802
-0.35643087
-0.36089444
-0.36756552
-0.377499
-0.39227074
-0.41417317
-0.44489856
-0.48842135
-0.54660365
-0.59827696
-0.5607752
-0.39084926
-0.22059707
-0.10011964
-0.066860193
-0.043847798
-0.012469753
-0.0088145108
-0.34232517
-0.34232873
-0.34233297
-0.34233754
-0.34234257
-0.34234816
-0.34235433
-0.34236112
-0.34236857
-0.34237671
-0.34238558
-0.34239518
-0.34240551
-0.34241657
-0.34242832
-0.34244068
-0.34245354
-0.34246676
-0.34248012
-0.34249337
-0.34250621
-0.3425183
-0.34252933
-0.34253906
-0.34254748
-0.34255499
-0.34256272
-0.34257299
-0.34258995
-0.34262037
-0.34267452
-0.34276661
-0.3429141
-0.34313475
-0.34344159
-0.34383786
-0.34431432
-0.34485218
-0.34543007
-0.34603286
-0.34665949
-0.3473282
-0.34808089
-0.34899235
-0.35017436
-0.35178549
-0.3540571
-0.35734763
-0.36221213
-0.36948991
-0.38037424
-0.39654035
-0.42048491
-0.45432837
-0.50220899
-0.56547059
-0.62093481
-0.57866075
-0.39420115
-0.20299858
-0.077544554
-0.032751992
-0.010260578
0.013565395
0.014370247
-0.34298462
-0.34298711
-0.34299008
-0.34299328
-0.34299683
-0.34300078
-0.34300516
-0.34300998
-0.34301527
-0.34302106
-0.34302735
-0.34303414
-0.34304144
-0.34304921
-0.34305739
-0.34306593
-0.34307468
-0.34308352
-0.34309221
-0.34310052
-0.34310813
-0.34311473
-0.34311998
-0.34312365
-0.34312569
-0.34312644
-0.34312691
-0.3431292
-0.34313706
-0.34315663
-0.34319718
-0.34327147
-0.34339521
-0.34358441
-0.34385106
-0.34419911
-0.34462193
-0.34510497
-0.34563176
-0.34619204
-0.34678904
-0.34744522
-0.34820613
-0.34914875
-0.35038919
-0.3520932
-0.35449857
-0.35797774
-0.36316514
-0.3709473
-0.38251703
-0.39959044
-0.4248555
-0.46084764
-0.51168038
-0.57715714
-0.63297535
-0.58331298
-0.39193703
-0.18747986
-0.059644759
-0.006431535
0.017243629
0.03385541
0.031784287
-0.3436261
-0.34362747
-0.34362913
-0.34363093
-0.34363295
-0.34363521
-0.34363773
-0.34364051
-0.34364357
-0.34364691
-0.34365053
-0.34365443
-0.34365857
-0.34366292
-0.34366743
-0.34367199
-0.3436765
-0.34368079
-0.34368466
-0.34368784
-0.34369005
-0.34369096
-0.34369024
-0.34368763
-0.34368306
-0.34367679
-0.3436697
-0.34366364
-0.34366195
-0.34367012
-0.34369639
-0.34375203
-0.34385126
-0.34400793
-0.34423236
-0.34452926
-0.34489418
-0.34531664
-0.34578497
-0.34629371
-0.34685034
-0.34748104
-0.34823447
-0.34918864
-0.35046161
-0.35222251
-0.3547068
-0.35832208
-0.3637832
-0.37195191
-0.38385273
-0.40135514
-0.42706753
-0.46385272
-0.5162003
-0.58181916
-0.63340933
-0.57523169
-0.38626789
-0.17435161
-0.050305088
0.0094042805
0.038944292
0.04879671
0.043356556
-0.34423398
-0.34423424
-0.34423458
-0.34423497
-0.34423544
-0.34423599
-0.34423663
-0.34423735
-0.34423815
-0.34423902
-0.34423994
-0.34424089
-0.34424184
-0.34424273
-0.3442435
-0.34424405
-0.34424424
-0.34424392
-0.34424288
-0.34424087
-0.34423759
-0.3442327
-0.34422589
-0.34421688
-0.34420554
-0.34419206
-0.34417716
-0.34416242
-0.34415078
-0.34414701
-0.34415837
-0.34419434
-0.34426789
-0.34439064
-0.34457181
-0.34481584
-0.34511983
-0.34547694
-0.34588002
-0.34632836
-0.34683359
-0.34742523
-0.34815439
-0.3490992
-0.35037718
-0.35215452
-0.35464494
-0.35841332
-0.36406294
-0.37234072
-0.38425248
-0.40182312
-0.42720325
-0.46344808
-0.51590553
-0.57921729
-0.6228771
-0.55638231
-0.36999574
-0.16819146
-0.0490579
0.018055873
0.052172536
0.057224457
0.050918665
-0.34479262
-0.34479178
-0.34479082
-0.34478984
-0.34478879
-0.34478766
-0.34478645
-0.34478514
-0.34478371
-0.34478214
-0.3447804
-0.34477845
-0.34477624
-0.34477372
-0.34477079
-0.34476735
-0.34476327
-0.34475839
-0.34475248
-0.34474529
-0.34473653
-0.34472587
-0.34471296
-0.3446975
-0.34467931
-0.34465848
-0.34463554
-0.34461181
-0.34458975
-0.3445734
-0.34456913
-0.34458321
-0.34463522
-0.34472874
-0.34486179
-0.34505022
-0.34529006
-0.34557738
-0.34590883
-0.34628813
-0.34673085
-0.34726952
-0.34795693
-0.34887059
-0.35012692
-0.35187414
-0.35435559
-0.3582159
-0.36391983
-0.37206513
-0.38377002
-0.40091721
-0.42543861
-0.46062678
-0.51150338
-0.56958764
-0.60258363
-0.52861701
-0.34575644
-0.16353685
-0.050965984
0.017977585
0.056243015
0.062355978
0.05557203
-0.34528923
-0.34528736
-0.34528517
-0.34528286
-0.34528037
-0.34527764
-0.34527466
-0.34527141
-0.34526784
-0.34526393
-0.34525963
-0.34525489
-0.34524965
-0.34524383
-0.34523733
-0.34523005
-0.34522184
-0.34521253
-0.3452019
-0.34518969
-0.34517559
-0.34515928
-0.34514038
-0.34511857
-0.34509361
-0.34506546
-0.3450345
-0.34500174
-0.34496918
-0.3449402
-0.34492036
-0.34491551
-0.34493161
-0.34498703
-0.34508471
-0.3452192
-0.34539465
-0.34560956
-0.34586433
-0.34616673
-0.34653628
-0.34700822
-0.34763648
-0.34849763
-0.34970592
-0.35137833
-0.353888
-0.35771004
-0.36330135
-0.37115671
-0.38241118
-0.39877119
-0.42182117
-0.45623436
-0.50343595
-0.55411618
-0.57437572
-0.49123086
-0.32190571
-0.15953179
-0.055070338
0.010740877
0.052013905
0.061393695
0.05741096
-0.3457124
-0.34570958
-0.34570625
-0.34570273
-0.3456989
-0.3456947
-0.34569009
-0.34568503
-0.34567949
-0.34567341
-0.34566674
-0.34565941
-0.34565134
-0.34564244
-0.34563263
-0.34562175
-0.34560967
-0.3455962
-0.34558112
-0.34556415
-0.34554499
-0.34552328
-0.34549863
-0.34547066
-0.34543905
-0.34540366
-0.34536464
-0.34532271
-0.34527943
-0.34523755
-0.34520111
-0.34517756
-0.34516712
-0.34518596
-0.3452341
-0.34530989
-0.34542489
-0.34556667
-0.34574122
-0.3459601
-0.34624658
-0.34663863
-0.34719061
-0.34797857
-0.34910506
-0.35067496
-0.35317983
-0.35690689
-0.36221795
-0.36963964
-0.38024072
-0.39539205
-0.41752483
-0.44953699
-0.49237717
-0.53320256
-0.53919127
-0.4526294
-0.2971387
-0.15603285
-0.060522536
0.0020392959
0.042373335
0.053401402
0.052060348
-0.34605507
-0.34605141
-0.3460471
-0.34604251
-0.3460375
-0.34603199
-0.34602594
-0.3460193
-0.346012
-0.346004
-0.34599521
-0.34598556
-0.34597497
-0.34596333
-0.34595053
-0.34593643
-0.34592086
-0.34590362
-0.34588449
-0.34586317
-0.34583934
-0.34581261
-0.34578256
-0.34574873
-0.34571071
-0.3456682
-0.34562112
-0.34556986
-0.34551546
-0.34546001
-0.34540664
-0.34536077
-0.34532759
-0.3453088
-0.3453135
-0.34533814
-0.34538223
-0.34544838
-0.34553828
-0.34566716
-0.34586128
-0.34616095
-0.34662026
-0.34731598
-0.34832486
-0.34980035
-0.35219973
-0.35575783
-0.36068435
-0.36756318
-0.3773033
-0.39163072
-0.41246171
-0.44077477
-0.47829686
-0.50739062
-0.49884175
-0.41373714
-0.27414052
-0.1533417
-0.066506372
-0.0077920676
0.031181576
0.043779049
0.043270014
-0.34631269
-0.34630835
-0.34630322
-0.34629775
-0.34629177
-0.34628518
-0.34627792
-0.34626995
-0.34626119
-0.34625157
-0.34624101
-0.34622942
-0.3462167
-0.34620274
-0.34618741
-0.34617055
-0.346152
-0.34613153
-0.34610889
-0.34608378
-0.34605583
-0.34602462
-0.34598967
-0.34595043
-0.34590637
-0.34585699
-0.34580194
-0.34574121
-0.34567529
-0.34560553
-0.34553419
-0.34546484
-0.34540181
-0.34534734
-0.34530981
-0.34528258
-0.34526125
-0.34525068
-0.34525411
-0.34528844
-0.34538247
-0.34557846
-0.34593039
-0.34651529
-0.34738109
-0.34877293
-0.35097936
-0.35426147
-0.35873289
-0.36496988
-0.37403153
-0.38738774
-0.40538529
-0.43075588
-0.46207442
-0.47785254
-0.45648738
-0.37352229
-0.25711717
-0.15096905
-0.072643925
-0.01801521
0.019061447
0.03271192
0.033565292
-0.34648646
-0.34648162
-0.34647588
-0.34646975
-0.34646304
-0.34645563
-0.34644747
-0.34643849
-0.34642861
-0.34641775
-0.34640583
-0.34639274
-0.34637838
-0.34636261
-0.3463453
-0.34632628
-0.34630536
-0.34628231
-0.34625684
-0.34622863
-0.34619727
-0.34616228
-0.34612311
-0.34607911
-0.34602958
-0.34597379
-0.34591111
-0.34584109
-0.34576365
-0.34567937
-0.34558966
-0.34549687
-0.34540409
-0.34531365
-0.34522731
-0.3451449
-0.34506052
-0.34497429
-0.34489085
-0.34482762
-0.34481526
-0.34489711
-0.34512783
-0.34557671
-0.34628188
-0.34754378
-0.34952332
-0.35242628
-0.35642039
-0.36209197
-0.37043355
-0.38169731
-0.39742989
-0.41985699
-0.44153342
-0.44475305
-0.41483036
-0.34160647
-0.23994652
-0.14975113
-0.078622138
-0.028023889
0.0069056215
0.021415975
0.023507208
-0.34658047
-0.34657531
-0.3465692
-0.34656267
-0.3465555
-0.34654758
-0.34653884
-0.34652922
-0.34651862
-0.34650697
-0.34649416
-0.34648009
-0.34646464
-0.34644768
-0.34642904
-0.34640855
-0.346386
-0.34636114
-0.34633366
-0.34630319
-0.34626928
-0.34623138
-0.34618884
-0.34614088
-0.34608661
-0.34602506
-0.34595521
-0.34587615
-0.34578717
-0.34568805
-0.34557923
-0.34546198
-0.34533822
-0.34520973
-0.34507713
-0.34493843
-0.3447889
-0.34462646
-0.3444553
-0.34429208
-0.34416796
-0.34412553
-0.34422076
-0.34449977
-0.34503746
-0.34608482
-0.34779001
-0.35031376
-0.35384709
-0.35897903
-0.36581729
-0.3757806
-0.38989888
-0.40828267
-0.41854123
-0.41166822
-0.37444983
-0.31403548
-0.22537523
-0.1482431
-0.084124451
-0.03751063
-0.0046449916
0.010495905
0.013845161
-0.34660442
-0.34659918
-0.34659295
-0.34658629
-0.34657897
-0.34657087
-0.34656193
-0.34655206
-0.34654119
-0.34652923
-0.34651607
-0.34650159
-0.34648568
-0.34646819
-0.34644896
-0.34642778
-0.34640444
-0.34637865
-0.34635009
-0.34631833
-0.34628286
-0.34624306
-0.34619815
-0.34614721
-0.34608911
-0.3460226
-0.34594625
-0.3458586
-0.34575827
-0.34564415
-0.34551567
-0.34537294
-0.34521674
-0.34504799
-0.34486669
-0.34467057
-0.34445496
-0.34421633
-0.34395738
-0.3436929
-0.34345277
-0.34327722
-0.34322157
-0.34330807
-0.34366348
-0.34440418
-0.3458507
-0.34794372
-0.35099815
-0.3551252
-0.36125016
-0.37026054
-0.38137588
-0.39125753
-0.39342773
-0.37921428
-0.34361577
-0.28917373
-0.21418896
-0.14695764
-0.089127877
-0.046179413
-0.015309877
0.00042541991
0.0049598185
-0.34657079
-0.34656569
-0.34655963
-0.34655314
-0.34654599
-0.34653807
-0.34652931
-0.34651965
-0.34650899
-0.34649724
-0.34648429
-0.34647004
-0.34645436
-0.34643708
-0.34641805
-0.34639705
-0.34637384
-0.34634811
-0.3463195
-0.34628753
-0.34625165
-0.3462111
-0.34616501
-0.34611224
-0.34605145
-0.34598101
-0.34589907
-0.34580356
-0.34569235
-0.34556339
-0.34541501
-0.34524612
-0.34505634
-0.34484569
-0.34461371
-0.34435821
-0.34407479
-0.3437591
-0.34341193
-0.34304485
-0.34268381
-0.34236527
-0.34213497
-0.34201704
-0.34213986
-0.34261178
-0.34370773
-0.34533026
-0.34789078
-0.35152915
-0.35712307
-0.36412606
-0.37087796
-0.37422411
-0.37026585
-0.34818668
-0.31758683
-0.26818445
-0.20407725
-0.14538437
-0.093431805
-0.053955651
-0.024960487
-0.0088392223
-0.0030968388
-0.34649698
-0.34649226
-0.34648665
-0.34648064
-0.34647401
-0.34646664
-0.3464585
-0.34644949
-0.34643954
-0.34642856
-0.34641644
-0.34640308
-0.34638833
-0.34637206
-0.34635408
-0.34633417
-0.34631207
-0.34628745
-0.3462599
-0.3462289
-0.3461938
-0.34615378
-0.34610777
-0.34605445
-0.3459922
-0.34591904
-0.34583259
-0.34573016
-0.3456088
-0.34546546
-0.3452973
-0.34510198
-0.34487788
-0.3446241
-0.34433979
-0.34402302
-0.34366996
-0.34327595
-0.34283952
-0.34236742
-0.34187829
-0.34140152
-0.34096185
-0.34063056
-0.34045516
-0.34065993
-0.34135207
-0.34273762
-0.34483998
-0.34815054
-0.35232163
-0.3564338
-0.35800295
-0.35532213
-0.34607797
-0.32651308
-0.29461745
-0.25067251
-0.19545445
-0.1437817
-0.09705136
-0.060729061
-0.033491749
-0.017123954
-0.010299547
-0.34640199
-0.34639791
-0.34639306
-0.34638784
-0.34638208
-0.34637567
-0.34636856
-0.34636069
-0.34635198
-0.34634235
-0.34633169
-0.34631991
-0.34630687
-0.34629242
-0.34627638
-0.34625852
-0.34623856
-0.34621614
-0.34619083
-0.34616203
-0.34612902
-0.34609084
-0.34604629
-0.34599381
-0.34593149
-0.34585693
-0.34576726
-0.34565909
-0.34552863
-0.34537179
-0.34518453
-0.34496319
-0.34470489
-0.34440772
-0.34407039
-0.34369126
-0.34326715
-0.34279319
-0.34226519
-0.34168246
-0.34105408
-0.34039163
-0.33971893
-0.33911055
-0.3386236
-0.33861444
-0.33914508
-0.34037741
-0.34196742
-0.3444146
-0.34619091
-0.34595555
-0.34327212
-0.33793454
-0.32392297
-0.30437266
-0.27505297
-0.23577306
-0.18766035
-0.14197068
-0.099941219
-0.066533299
-0.040930997
-0.024515759
-0.016660051
-0.34631021
-0.34630703
-0.34630325
-0.34629916
-0.34629463
-0.34628959
-0.34628397
-0.34627773
-0.3462708
-0.34626311
-0.34625456
-0.34624507
-0.3462345
-0.3462227
-0.3462095
-0.34619464
-0.34617785
-0.34615873
-0.3461368
-0.34611141
-0.34608173
-0.34604668
-0.34600489
-0.34595456
-0.34589347
-0.3458188
-0.34572714
-0.34561443
-0.34547603
-0.34530682
-0.34510156
-0.34485531
-0.34456392
-0.34422443
-0.34383502
-0.34339414
-0.34289891
-0.34234386
-0.34172086
-0.34101979
-0.34023817
-0.33937342
-0.33847628
-0.33761631
-0.33698984
-0.33698941
-0.33731586
-0.33825838
-0.33912713
-0.33958159
-0.33765306
-0.33479715
-0.32956015
-0.31906365
-0.30677592
-0.28665072
-0.25848546
-0.22292706
-0.18066639
-0.1400234
-0.10213453
-0.071372468
-0.047283888
-0.030974565
-0.022235283
-0.3462466
-0.34624459
-0.34624219
-0.34623958
-0.34623666
-0.34623339
-0.34622972
-0.34622561
-0.346221
-0.34621585
-0.34621007
-0.34620356
-0.34619622
-0.3461879
-0.34617841
-0.34616751
-0.34615487
-0.34614009
-0.34612263
-0.34610176
-0.34607656
-0.34604582
-0.34600795
-0.34596094
-0.34590222
-0.34582857
-0.34573604
-0.34561994
-0.34547479
-0.34529456
-0.3450729
-0.34480371
-0.34448158
-0.34410254
-0.34366398
-0.34316406
-0.34259935
-0.34196265
-0.34124089
-0.34041343
-0.3394772
-0.33843835
-0.33738095
-0.3364836
-0.33596583
-0.33574889
-0.3357281
-0.33583799
-0.33483664
-0.33212179
-0.32857053
-0.32326159
-0.31506785
-0.30469742
-0.29008677
-0.2700821
-0.24380596
-0.21163593
-0.17421729
-0.13788705
-0.10365651
-0.075317589
-0.052625541
-0.036585212
-0.027062921
-0.3462463
-0.34624573
-0.34624502
-0.34624422
-0.34624327
-0.34624216
-0.34624087
-0.34623936
-0.3462376
-0.34623554
-0.34623312
-0.34623025
-0.34622683
-0.34622271
-0.3462177
-0.34621154
-0.34620389
-0.34619429
-0.34618215
-0.34616666
-0.34614678
-0.34612114
-0.34608796
-0.34604498
-0.34598929
-0.34591729
-0.34582455
-0.34570576
-0.34555475
-0.34536467
-0.34512818
-0.34483813
-0.34448829
-0.3440739
-0.34359129
-0.34303783
-0.34240809
-0.34169336
-0.34087493
-0.33993845
-0.33890093
-0.33777355
-0.33678458
-0.33587345
-0.33527417
-0.33472095
-0.33391945
-0.33223598
-0.3289189
-0.32467631
-0.31921606
-0.31114228
-0.301905
-0.29005705
-0.27528325
-0.25580993
-0.23100942
-0.20163467
-0.16823167
-0.13558254
-0.10455584
-0.078416888
-0.057013082
-0.041358841
-0.031194022
-0.34634636
-0.34634745
-0.3463487
-0.34634998
-0.34635131
-0.3463527
-0.34635415
-0.34635563
-0.34635713
-0.34635861
-0.34636002
-0.34636128
-0.3463623
-0.34636291
-0.34636292
-0.34636205
-0.34635991
-0.346356
-0.34634964
-0.34633993
-0.34632569
-0.34630539
-0.34627703
-0.34623809
-0.34618537
-0.34611489
-0.3460218
-0.34590028
-0.34574368
-0.34554441
-0.3452946
-0.34498837
-0.34461527
-0.34417139
-0.34365181
-0.34305299
-0.34236692
-0.34158699
-0.34070648
-0.33970454
-0.33865759
-0.33767148
-0.33662851
-0.3356532
-0.33478728
-0.33331663
-0.33090074
-0.32714788
-0.32234079
-0.3165718
-0.30877875
-0.29940386
-0.28944881
-0.27712161
-0.26184927
-0.24277054
-0.21947323
-0.19259267
-0.16257218
-0.13309316
-0.10487655
-0.080745092
-0.060533415
-0.045368278
-0.034710943
-0.34660449
-0.34660735
-0.34661068
-0.34661418
-0.34661793
-0.34662198
-0.34662632
-0.34663097
-0.34663589
-0.34664109
-0.3466465
-0.34665205
-0.34665764
-0.34666311
-0.34666823
-0.34667268
-0.34667603
-0.34667771
-0.34667694
-0.34667271
-0.34666369
-0.34664818
-0.34662399
-0.34658836
-0.34653784
-0.34646821
-0.34637435
-0.34625025
-0.3460891
-0.34588339
-0.34562503
-0.34529486
-0.34490072
-0.3444361
-0.34388986
-0.34326078
-0.34253865
-0.34173779
-0.34080884
-0.33986513
-0.33886601
-0.33788553
-0.33681643
-0.33554946
-0.33369145
-0.33078972
-0.32637623
-0.32105351
-0.3147803
-0.30735656
-0.29776018
-0.28855907
-0.27775401
-0.26481796
-0.24947387
-0.23101471
-0.20908434
-0.18434284
-0.15717056
-0.13042518
-0.10466717
-0.082361439
-0.063253181
-0.048637931
-0.037633548
-0.3470818
-0.34708637
-0.34709173
-0.34709737
-0.34710345
-0.34711005
-0.34711717
-0.34712483
-0.34713301
-0.34714171
-0.34715086
-0.3471604
-0.3471702
-0.34718007
-0.34718975
-0.34719887
-0.34720693
-0.34721327
-0.347217
-0.34721698
-0.34721172
-0.34719933
-0.34717743
-0.34714306
-0.34709257
-0.34702156
-0.34692481
-0.34679641
-0.34663021
-0.34640749
-0.3461238
-0.34580273
-0.34540661
-0.34491933
-0.34435934
-0.34371962
-0.34297529
-0.34216664
-0.34133333
-0.34039463
-0.33940916
-0.33836927
-0.33690082
-0.33476738
-0.33160545
-0.32687258
-0.32105781
-0.31482561
-0.30674268
-0.29716506
-0.28854058
-0.27816573
-0.26665945
-0.253451
-0.2381034
-0.22021043
-0.19953939
-0.1766861
-0.15194345
-0.12757317
-0.10397131
-0.083333471
-0.065243821
-0.051258586
-0.039930346
-0.34786039
-0.34786637
-0.3478734
-0.34788079
-0.34788878
-0.34789744
-0.3479068
-0.34791686
-0.34792762
-0.34793904
-0.34795108
-0.34796362
-0.34797652
-0.34798954
-0.34800237
-0.34801457
-0.34802554
-0.3480345
-0.34804042
-0.34804201
-0.3480376
-0.34802508
-0.34800188
-0.3479648
-0.34791001
-0.34783283
-0.347728
-0.34759003
-0.34740861
-0.34719099
-0.34691846
-0.34656862
-0.34614755
-0.34566716
-0.34509664
-0.34445273
-0.34375218
-0.34294818
-0.34211609
-0.34121405
-0.3401022
-0.33860158
-0.33633888
-0.33302513
-0.32817266
-0.32198468
-0.31560348
-0.30740308
-0.29821052
-0.28892879
-0.27891811
-0.26803305
-0.25612404
-0.24269547
-0.22747522
-0.21020541
-0.1906956
-0.16949869
-0.14683624
-0.12453725
-0.10282951
-0.083715933
-0.066574867
-0.053268182
-0.041740513
-0.34901979
-0.34902661
-0.3490346
-0.349043
-0.34905205
-0.34906187
-0.34907245
-0.34908378
-0.34909586
-0.34910863
-0.349122
-0.34913585
-0.34914996
-0.34916405
-0.34917772
-0.34919043
-0.34920147
-0.34920992
-0.34921461
-0.34921402
-0.3492063
-0.34918913
-0.34915971
-0.34911463
-0.34904932
-0.34895812
-0.34884882
-0.34872179
-0.34855955
-0.34830827
-0.34797887
-0.34761713
-0.34719627
-0.34670168
-0.34613978
-0.34548948
-0.34478391
-0.34400818
-0.34313017
-0.34203938
-0.34052059
-0.33822356
-0.3348615
-0.33009144
-0.32363781
-0.31710006
-0.30891778
-0.29949329
-0.2900865
-0.28005704
-0.26963245
-0.25833411
-0.24605933
-0.23253653
-0.21751079
-0.20084045
-0.18238765
-0.16265823
-0.14179466
-0.12131459
-0.10127775
-0.083561532
-0.067304327
-0.054706118
-0.043055024
-0.35065706
-0.35066387
-0.35067184
-0.3506802
-0.35068918
-0.35069887
-0.35070925
-0.3507203
-0.35073197
-0.35074418
-0.3507568
-0.35076964
-0.35078242
-0.35079478
-0.35080622
-0.35081609
-0.35082353
-0.35082748
-0.35082657
-0.35081911
-0.35080302
-0.35077577
-0.35073413
-0.35067433
-0.35059745
-0.35050092
-0.35038422
-0.35021686
-0.34997306
-0.34969496
-0.34938132
-0.34899087
-0.3485456
-0.34802643
-0.34743535
-0.34677684
-0.34604567
-0.34519523
-0.34412327
-0.34261121
-0.34033308
-0.33693369
-0.33231795
-0.32589661
-0.31937701
-0.31116386
-0.30145818
-0.29187972
-0.28198369
-0.27154022
-0.26057103
-0.24888417
-0.23637506
-0.22282858
-0.20804874
-0.19197643
-0.17449549
-0.15607256
-0.13677557
-0.11790194
-0.099346257
-0.0829147
-0.06748757
-0.055616793
-0.043932719
-0.3528382
-0.35284422
-0.35285124
-0.35285854
-0.35286632
-0.35287462
-0.3528834
-0.3528926
-0.35290213
-0.35291183
-0.35292152
-0.35293093
-0.35293967
-0.35294727
-0.3529531
-0.35295633
-0.35295593
-0.3529506
-0.35293875
-0.35291839
-0.35288692
-0.35284153
-0.35278362
-0.35270573
-0.35260832
-0.35248124
-0.35228603
-0.35205427
-0.35179911
-0.35148536
-0.35111384
-0.35067744
-0.35017612
-0.34961391
-0.34898615
-0.34827661
-0.34744634
-0.3463884
-0.34488283
-0.34261589
-0.3392536
-0.33456135
-0.32833017
-0.32151368
-0.31359325
-0.30390528
-0.2942098
-0.28431676
-0.27389648
-0.26299844
-0.25164153
-0.23967807
-0.227006
-0.21349874
-0.19899883
-0.18350362
-0.16691236
-0.14966005
-0.13173999
-0.11429557
-0.097061281
-0.081814764
-0.06717027
-0.056032187
-0.044385989
-0.35563737
-0.35564204
-0.35564741
-0.35565289
-0.35565861
-0.35566454
-0.35567061
-0.35567668
-0.35568258
-0.35568811
-0.35569295
-0.3556967
-0.35569886
-0.35569877
-0.35569559
-0.35568825
-0.35567545
-0.35565556
-0.35562655
-0.35558607
-0.35553198
-0.35546044
-0.35536871
-0.35525086
-0.35509341
-0.35489955
-0.35467064
-0.3543966
-0.35407035
-0.35368567
-0.35324002
-0.35273538
-0.35216991
-0.35154011
-0.35083189
-0.35000287
-0.34894232
-0.34744471
-0.34520076
-0.34191221
-0.33733219
-0.33125933
-0.32429665
-0.31668471
-0.30691173
-0.29695634
-0.28711625
-0.27670203
-0.26583362
-0.25455301
-0.24284677
-0.23064502
-0.21787191
-0.20444926
-0.19025112
-0.17531641
-0.15954669
-0.1433519
-0.12665351
-0.1104901
-0.094443503
-0.080294804
-0.066393523
-0.055988269
-0.044446739
-0.35919858
-0.35920138
-0.35920447
-0.35920744
-0.35921028
-0.35921291
-0.35921516
-0.35921684
-0.35921766
-0.35921729
-0.35921527
-0.35921105
-0.3592039
-0.35919291
-0.35917698
-0.3591547
-0.35912437
-0.35908392
-0.35903084
-0.35896242
-0.35887521
-0.35876477
-0.35862222
-0.35844663
-0.35823785
-0.35798621
-0.3576856
-0.35733043
-0.35691694
-0.35644491
-0.35591378
-0.35532163
-0.35466665
-0.35393373
-0.35307606
-0.35198459
-0.3504639
-0.34823152
-0.3449788
-0.34053922
-0.33462308
-0.32770134
-0.32018116
-0.31078112
-0.30066523
-0.29073472
-0.28007806
-0.26909659
-0.2577757
-0.24611188
-0.23410824
-0.22172578
-0.20890275
-0.19560248
-0.18172187
-0.16732883
-0.15232067
-0.13708871
-0.12148542
-0.1064798
-0.091510066
-0.078382894
-0.065191744
-0.055513462
-0.044132239
-0.36373527
-0.36373536
-0.36373516
-0.3637345
-0.36373321
-0.36373111
-0.36372793
-0.36372336
-0.36371699
-0.36370831
-0.36369669
-0.36368134
-0.36366128
-0.3636353
-0.36360192
-0.36355933
-0.36350537
-0.36343742
-0.36335245
-0.36324682
-0.36311564
-0.36295498
-0.36276044
-0.36252599
-0.36224576
-0.36191385
-0.36152567
-0.36107886
-0.36057152
-0.3600018
-0.35936922
-0.35866978
-0.35788574
-0.35696787
-0.35581044
-0.35422729
-0.35196304
-0.34872407
-0.34434
-0.33866233
-0.33166497
-0.32422314
-0.31494401
-0.30483924
-0.29468969
-0.28391932
-0.27279845
-0.26137049
-0.24963816
-0.23763919
-0.22538146
-0.21285802
-0.20002608
-0.18687817
-0.17332636
-0.15945938
-0.14516403
-0.13081758
-0.1162073
-0.10225753
-0.088273815
-0.076102116
-0.06359479
-0.054635659
-0.043465107
-0.36957442
-0.36957038
-0.36956521
-0.36955909
-0.36955164
-0.36954253
-0.36953137
-0.3695177
-0.36950094
-0.36948039
-0.36945517
-0.36942424
-0.36938628
-0.36933975
-0.36928274
-0.369213
-0.36912782
-0.36902403
-0.36889795
-0.36874534
-0.36856143
-0.36834098
-0.3680783
-0.36776753
-0.36740352
-0.36698208
-0.36649915
-0.36595144
-0.36533733
-0.36465468
-0.36389605
-0.36303945
-0.36203229
-0.3607695
-0.35907641
-0.35671262
-0.3534214
-0.34900003
-0.34340414
-0.33647131
-0.32897479
-0.3197781
-0.30958925
-0.29928393
-0.28838908
-0.27709676
-0.26545431
-0.25353659
-0.24139784
-0.22907959
-0.21660104
-0.20397549
-0.19117146
-0.1782029
-0.1649906
-0.1516374
-0.13801563
-0.12449209
-0.11079329
-0.097815719
-0.084744715
-0.073471388
-0.061627802
-0.053378286
-0.042462583
-0.37705872
-0.37704862
-0.37703618
-0.37702213
-0.3770058
-0.37698664
-0.37696413
-0.37693762
-0.37690634
-0.37686934
-0.37682547
-0.37677338
-0.37671141
-0.3766376
-0.37654962
-0.37644473
-0.3763197
-0.3761708
-0.37599378
-0.37578382
-0.37553568
-0.37524394
-0.37490311
-0.37450775
-0.37405247
-0.37353252
-0.37294428
-0.3722841
-0.37154632
-0.37071858
-0.36977278
-0.36865063
-0.36724561
-0.36538934
-0.36285723
-0.35940552
-0.35484438
-0.34907694
-0.3420735
-0.33433075
-0.3253266
-0.31495727
-0.30449185
-0.29345537
-0.28194255
-0.27005097
-0.25787143
-0.24549183
-0.23297078
-0.22036455
-0.20770152
-0.19501011
-0.18226811
-0.16950453
-0.15664343
-0.14379668
-0.13081934
-0.11806988
-0.10521907
-0.093145883
-0.080929792
-0.070505599
-0.0593124
-0.051762423
-0.041141151
-0.38660121
-0.38658276
-0.3865603
-0.3865354
-0.38650698
-0.38647422
-0.38643644
-0.38639279
-0.38634225
-0.38628361
-0.38621541
-0.38613592
-0.38604309
-0.38593459
-0.38580765
-0.38565904
-0.3854851
-0.38528164
-0.38504402
-0.38476717
-0.38444564
-0.38407362
-0.38364526
-0.38315494
-0.38259722
-0.38196652
-0.3812562
-0.38045604
-0.37954736
-0.37849443
-0.37723188
-0.37565013
-0.37358505
-0.37082528
-0.36714324
-0.36235729
-0.35637249
-0.34914925
-0.34098715
-0.33192021
-0.32137854
-0.31058519
-0.29933736
-0.2875191
-0.27529146
-0.262766
-0.25003459
-0.23718715
-0.22429602
-0.21142611
-0.19861169
-0.18589071
-0.17324528
-0.16071374
-0.14821879
-0.13587702
-0.12352466
-0.11151274
-0.099462086
-0.088239176
-0.076833981
-0.067215638
-0.056666275
-0.049798055
-0.039524157
-0.39853225
-0.39850287
-0.39846738
-0.39842843
-0.39838442
-0.39833425
-0.39827706
-0.39821176
-0.39813708
-0.39805151
-0.39795337
-0.39784068
-0.39771089
-0.39756116
-0.3973884
-0.39718938
-0.39695959
-0.39669382
-0.39638789
-0.39603678
-0.39563424
-0.39517419
-0.39465028
-0.39405562
-0.39338225
-0.3926197
-0.39175218
-0.39075348
-0.38957894
-0.3881546
-0.3863653
-0.3840485
-0.38100019
-0.37700868
-0.37189599
-0.36557814
-0.35802322
-0.34945908
-0.34004824
-0.32924054
-0.31801841
-0.30631473
-0.29400085
-0.28130498
-0.26831219
-0.25511984
-0.24182454
-0.22852009
-0.21528283
-0.20218222
-0.18925504
-0.17654421
-0.16403266
-0.15176337
-0.13965408
-0.12782244
-0.11608518
-0.10478574
-0.093501345
-0.083086751
-0.072461063
-0.063612268
-0.053708387
-0.047518221
-0.037611244
-0.4131724
-0.41312906
-0.41307749
-0.41302131
-0.41295827
-0.41288695
-0.41280624
-0.41271443
-0.41261103
-0.41250134
-0.41238752
-0.41224487
-0.41205537
-0.4118428
-0.4116178
-0.41136468
-0.41107422
-0.41074196
-0.41036341
-0.40993258
-0.40944272
-0.40888627
-0.40825432
-0.4075356
-0.40671469
-0.40576874
-0.40466242
-0.40334044
-0.40171828
-0.39967331
-0.39704104
-0.39362477
-0.38921967
-0.38366619
-0.37686316
-0.36882854
-0.35970506
-0.34976366
-0.33850437
-0.32667249
-0.31441814
-0.30148724
-0.28819809
-0.27461774
-0.26084101
-0.24697709
-0.2331264
-0.21938599