/*--------------------------------*- C++ -*----------------------------------*\
  =========                 |
  \\      /  F ield         | OpenFOAM: The Open Source CFD Toolbox
   \\    /   O peration     | Website:  https://openfoam.org
    \\  /    A nd           | Version:  13
     \\/     M anipulation  |
\*---------------------------------------------------------------------------*/
FoamFile
{
    format      ascii;
    class       volScalarField;
    location    "40.603042";
    object      k;
}
// * * * * * * * * * * * * * * * * * * * * * * * * * * * * * * * * * * * * * //

dimensions      [0 2 -2 0 0 0 0];

internalField   nonuniform List<scalar> 
17140
(
5.1214183e-12
1.6093274e-10
1.3159981e-09
5.6596037e-09
1.7416311e-08
4.3949821e-08
9.7461608e-08
1.9753144e-07
3.7487158e-07
6.768329e-07
1.1754334e-06
1.9790057e-06
3.2490161e-06
5.2242467e-06
8.2554124e-06
1.285449e-05
1.9764666e-05
3.005895e-05
4.5278246e-05
6.7622984e-05
0.00010021603
0.00014745778
0.00021549507
0.0003128199
0.00045099383
0.00064544351
0.00091616661
0.0012879874
0.0017896356
0.0024504419
0.0032933921
0.0043238067
0.0055172221
0.0068141858
0.008132844
0.0093972265
0.010561259
0.011612899
0.012563811
0.013437287
0.014260773
0.015062782
0.015872602
0.016720954
0.017639637
0.018660688
0.019817642
0.02114681
0.022685646
0.024472459
0.026545438
0.02893738
0.031664309
0.034720518
0.038096159
0.041768318
0.045672553
0.049264889
0.050978749
0.048187948
0.034573054
0.014254374
0.0095232911
0.016544586
0.043192926
5.03571e-12
1.5823949e-10
1.293978e-09
5.5649361e-09
1.7125142e-08
4.3215557e-08
9.5834686e-08
1.9423732e-07
3.6862714e-07
6.6557299e-07
1.1559068e-06
1.9461823e-06
3.1952236e-06
5.13792e-06
8.1192929e-06
1.2643049e-05
1.9440437e-05
2.9567353e-05
4.4540337e-05
6.6525401e-05
9.859725e-05
0.00014508966
0.00021205872
0.0003078754
0.00044394458
0.00063549963
0.00090229946
0.0012688753
0.0017636823
0.002416044
0.0032493363
0.0042701208
0.0054553392
0.0067468213
0.0080635333
0.0093293382
0.010497146
0.011553799
0.012510168
0.013389172
0.014218199
0.015025935
0.015841939
0.016697345
0.017624646
0.018656645
0.019827726
0.021175389
0.022738521
0.024556772
0.026669036
0.029107912
0.031883468
0.034967677
0.038304405
0.041794381
0.045178962
0.047394982
0.047201968
0.041400037
0.025148191
0.011562038
0.0072464324
0.012290378
0.037025435
4.9146223e-12
1.5443449e-10
1.2628633e-09
5.4311288e-09
1.671342e-08
4.2176773e-08
9.3531718e-08
1.8957132e-07
3.5977575e-07
6.4959951e-07
1.1281818e-06
1.8995334e-06
3.1186943e-06
5.0149681e-06
7.9251898e-06
1.2341148e-05
1.8976849e-05
2.8863403e-05
4.348195e-05
6.4948319e-05
9.6266686e-05
0.00014167274
0.00020708798
0.00030070206
0.00043367965
0.00062093342
0.00088184773
0.001240592
0.001725346
0.0023653963
0.003184697
0.0041908932
0.0053628399
0.0066445748
0.0079563894
0.0092219025
0.010392607
0.011453744
0.01241506
0.013298914
0.014132538
0.014944713
0.015765207
0.01662549
0.017558613
0.018598033
0.01977884
0.02113938
0.022719474
0.02455968
0.026699734
0.029171721
0.031979341
0.035072255
0.038355541
0.041683378
0.044558024
0.046023187
0.044426815
0.036503556
0.021172443
0.013005655
0.006713317
0.0095363317
0.027231468
4.7582058e-12
1.4951933e-10
1.2226704e-09
5.2582785e-09
1.6181544e-08
4.0834753e-08
9.0556209e-08
1.83542e-07
3.4833649e-07
6.2895235e-07
1.0923375e-06
1.8392097e-06
3.0197051e-06
4.8558847e-06
7.6739615e-06
1.1950246e-05
1.8376334e-05
2.7951076e-05
4.2109482e-05
6.2901877e-05
9.3240182e-05
0.00013723145
0.00020062011
0.00029135422
0.00042027706
0.00060191105
0.00085517739
0.0012037466
0.0016754018
0.0022993279
0.0030998798
0.0040861736
0.0052395816
0.0065070334
0.0078106724
0.0090739168
0.010246448
0.01131142
0.012277085
0.013165027
0.0140022
0.01481739
0.015640504
0.016503243
0.017439082
0.018481968
0.019667458
0.021034485
0.022623615
0.024476461
0.026633626
0.029125624
0.031950358
0.035037974
0.038272323
0.041470322
0.044007136
0.045166295
0.043128147
0.034546585
0.023012097
0.016581004
0.0070161739
0.006677513
0.016386905
4.568723e-12
1.4356513e-10
1.173981e-09
5.0488875e-09
1.5537216e-08
3.9208937e-08
8.6951287e-08
1.7623682e-07
3.3447546e-07
6.0393179e-07
1.0488964e-06
1.7660923e-06
2.8997062e-06
4.6630089e-06
7.3693177e-06
1.1476147e-05
1.7647861e-05
2.6844099e-05
4.0443765e-05
6.0417457e-05
8.9564705e-05
0.00013183567
0.00019275798
0.00027998799
0.00040398923
0.00057879822
0.00082275532
0.0011589073
0.0016144812
0.0022183933
0.0029954853
0.0039565534
0.0050859864
0.0063343064
0.0076261056
0.0088847421
0.010057774
0.011125773
0.012095092
0.012986273
0.013825843
0.014642496
0.015466177
0.016328711
0.01726384
0.018305821
0.019490446
0.020856956
0.02244631
0.024300663
0.026461222
0.02895903
0.031786396
0.03486406
0.038065262
0.041220296
0.043706716
0.045019806
0.043348887
0.03537365
0.028409353
0.018657228
0.0074898621
0.0044641474
0.011647055
4.3493471e-12
1.3667157e-10
1.1176103e-09
4.8064606e-09
1.4791217e-08
3.732652e-08
8.2777234e-08
1.6777788e-07
3.1842426e-07
5.7495562e-07
9.9858345e-07
1.6814013e-06
2.7607005e-06
4.4395631e-06
7.0163575e-06
1.0926806e-05
1.6803699e-05
2.556121e-05
3.8513175e-05
5.7537725e-05
8.5304033e-05
0.00012558026
0.00018364398
0.00026681344
0.00038510417
0.00055198046
0.00078509032
0.0011067113
0.0015433513
0.002123563
0.0028726389
0.0038032017
0.0049030837
0.0061270805
0.007402903
0.0086541434
0.0098260226
0.010896047
0.011868201
0.01276168
0.013602395
0.014418823
0.015240843
0.016100269
0.017030941
0.018067228
0.019244931
0.020603304
0.022183409
0.024027713
0.026178093
0.028666238
0.031476957
0.034542906
0.037762021
0.040980229
0.043725161
0.045411555
0.044565808
0.03849562
0.033576225
0.019582065
0.0075600144
0.0031232836
0.007828533
4.104939e-12
1.2899143e-10
1.0548073e-09
4.5363697e-09
1.3960074e-08
3.5229189e-08
7.812643e-08
1.5835224e-07
3.0053749e-07
5.4266319e-07
9.425069e-07
1.5869979e-06
2.6057333e-06
4.1904213e-06
6.6227366e-06
1.0314056e-05
1.5861881e-05
2.4129538e-05
3.6358073e-05
5.4322124e-05
8.054493e-05
0.00011859093
0.00017345658
0.00025207803
0.00036396308
0.00052192237
0.00074280247
0.0010479776
0.0014630984
0.0020162088
0.0027329627
0.0036278694
0.0046925314
0.0058866554
0.0071418326
0.008382357
0.0095510255
0.010621811
0.011595826
0.012490548
0.013331047
0.01414543
0.014963381
0.015816557
0.016738704
0.017764091
0.018928286
0.020270253
0.02183083
0.023652504
0.02577783
0.028238818
0.031021252
0.03407369
0.037351685
0.040749343
0.043929982
0.046363897
0.046485542
0.042775701
0.036625479
0.018540783
0.0063557409
0.0020909412
0.0047520193
3.840019e-12
1.2066673e-10
9.8673366e-10
4.2436108e-09
1.3059171e-08
3.2955807e-08
7.3085176e-08
1.4813515e-07
2.8114847e-07
5.0765794e-07
8.8171809e-07
1.4846591e-06
2.4377348e-06
3.92032e-06
6.1959842e-06
9.6496945e-06
1.4840658e-05
2.2577001e-05
3.4020678e-05
5.0833749e-05
7.5380425e-05
0.00011100253
0.00016238848
0.00023605463
0.00034094859
0.00048915599
0.00069662785
0.00098371515
0.0013750605
0.0018980331
0.002578505
0.003432836
0.0044566062
0.0056149992
0.006844306
0.0080701716
0.0092330575
0.010302997
0.011277689
0.012172461
0.013011258
0.013821634
0.014632923
0.015476461
0.01638569
0.017394552
0.018538099
0.019854701
0.021384582
0.023169872
0.025253603
0.027666228
0.030409322
0.033441681
0.036799824
0.040455215
0.044206759
0.047298227
0.047619575
0.044913333
0.036933546
0.015163601
0.0044738465
0.0012328142
0.0025203466
3.5595257e-12
1.1185265e-10
9.1465779e-10
3.9336392e-09
1.2105294e-08
3.0548723e-08
6.7747346e-08
1.3731676e-07
2.6061783e-07
4.7059044e-07
8.1734572e-07
1.3762826e-06
2.2598159e-06
3.6342519e-06
5.7439723e-06
8.9459474e-06
1.3758776e-05
2.093202e-05
3.1543671e-05
4.713618e-05
6.9904596e-05
0.00010295359
0.00015064273
0.00021903892
0.00031648761
0.00045429036
0.00064742075
0.0009150948
0.0012807996
0.0017710474
0.0024117328
0.0032209279
0.0041982555
0.0053148258
0.0065124684
0.0077190169
0.0088729092
0.009939941
0.010913839
0.011807281
0.012642742
0.013446986
0.014248825
0.015079081
0.015970654
0.016956923
0.01807213
0.019353663
0.020840698
0.022574522
0.024597871
0.026936737
0.029613934
0.032612399
0.036022868
0.039898328
0.044068154
0.047468975
0.047438318
0.044005935
0.03162
0.0098112054
0.002678766
0.00074761114
0.0011393333
3.2689472e-12
1.0272166e-10
8.3999058e-10
3.6125224e-09
1.1117115e-08
2.8055048e-08
6.2217411e-08
1.261088e-07
2.3934736e-07
4.3218608e-07
7.5064945e-07
1.2639891e-06
2.075458e-06
3.3378144e-06
5.2755444e-06
8.2165828e-06
1.2637399e-05
1.9226772e-05
2.8975499e-05
4.3301722e-05
6.4224496e-05
9.4601395e-05
0.00013844863
0.0002013625
0.00029105531
0.00041799915
0.00059612354
0.00084341243
0.0011820581
0.0016375236
0.0022354853
0.0029954865
0.0039210965
0.0049896397
0.0061492873
0.0073310685
0.0084719774
0.0095334444
0.010504681
0.011395151
0.01222544
0.013021237
0.013810614
0.01462367
0.015492488
0.01644961
0.017528161
0.018764108
0.020195005
0.02186055
0.023801457
0.026041569
0.028605798
0.031514269
0.034870661
0.038792232
0.043163021
0.046252109
0.045666115
0.039833988
0.019661785
0.0052995727
0.0014671473
0.0004574875
0.00048102751
2.973984e-12
9.3452897e-11
7.6419671e-10
3.2865595e-09
1.0114016e-08
2.55237e-08
5.6603861e-08
1.1473117e-07
2.1775443e-07
3.9319852e-07
6.8293829e-07
1.1499829e-06
1.8882804e-06
3.0368281e-06
4.7999002e-06
7.4759274e-06
1.1498557e-05
1.7494761e-05
2.6366624e-05
3.9405713e-05
5.8451693e-05
8.6109896e-05
0.00012604532
0.00018337146
0.0002651483
0.00038098803
0.00054372729
0.00077003947
0.0010806971
0.0014999215
0.0020528947
0.0027602957
0.0036293744
0.0046437509
0.0057586301
0.0069093652
0.0080323799
0.0090848556
0.010051016
0.0109365
0.011759503
0.012544282
0.013317912
0.014109524
0.01495007
0.015870936
0.016903773
0.018082629
0.019442699
0.021020619
0.022852438
0.024967477
0.027343731
0.030055747
0.033225624
0.037019088
0.04087345
0.042568891
0.040402671
0.028097479
0.0084348245
0.0023542784
0.00071950813
0.00028063306
0.00024230688
2.6802779e-12
8.422363e-11
6.8872575e-10
2.9619847e-09
9.1151848e-09
2.3003099e-08
5.101408e-08
1.0340155e-07
1.9625222e-07
3.5437392e-07
6.1550843e-07
1.0364469e-06
1.701868e-06
2.7370591e-06
4.3261542e-06
6.7381783e-06
1.0364088e-05
1.576921e-05
2.3767103e-05
3.5522928e-05
5.269701e-05
7.7642133e-05
0.00011367092
0.00016541106
0.00023926334
0.00034396554
0.00049123227
0.00069637007
0.00097862762
0.0013608017
0.0018672849
0.0025194789
0.0033278817
0.0042822498
0.0053453187
0.006457929
0.0075570968
0.0085961886
0.0095541171
0.010432065
0.011245261
0.012016098
0.01277033
0.013535831
0.014342061
0.015218851
0.016195945
0.017304887
0.018577658
0.020044703
0.021737457
0.023680393
0.025788431
0.028231631
0.031068751
0.034034333
0.03630359
0.034931781
0.028032662
0.010203302
0.0030234343
0.00092736118
0.00034644031
0.00018811244
0.00015963258
2.3931757e-12
7.5201881e-11
6.149518e-10
2.6447078e-09
8.1388078e-09
2.0539147e-08
4.5549872e-08
9.2326312e-08
1.7523247e-07
3.1641975e-07
5.4958888e-07
9.2545099e-07
1.5196205e-06
2.4439765e-06
3.8629532e-06
6.0168074e-06
9.2547177e-06
1.4081663e-05
2.122449e-05
3.1724453e-05
4.7065895e-05
6.9353424e-05
0.00010155268
0.00014781152
0.000213877
0.00030761426
0.00043960758
0.00062376548
0.00087773538
0.0012227283
0.0016820515
0.0022773627
0.0030218293
0.0039109273
0.00491514
0.0059818731
0.007050132
0.0080702769
0.0090158298
0.0098829344
0.010683211
0.011436664
0.012167329
0.012901461
0.013666603
0.014490491
0.015400404
0.016424659
0.017591043
0.01892114
0.02045211
0.022150355
0.023972238
0.026012297
0.027989207
0.029037717
0.02724989
0.020436661
0.0089553707
0.003044104
0.00098925261
0.00037573221
0.00019409709
0.00014760123
0.00013253655
2.1175244e-12
6.6539954e-11
5.4412013e-10
2.3400842e-09
7.2013659e-09
1.8173437e-08
4.0303491e-08
8.1692468e-08
1.550502e-07
2.7997722e-07
4.8629363e-07
8.1887158e-07
1.34462e-06
2.1625391e-06
3.4181387e-06
5.3240341e-06
8.1892526e-06
1.2460754e-05
1.8781972e-05
2.807489e-05
4.1654276e-05
6.1385251e-05
8.9897941e-05
0.00013087493
0.0001894267
0.00027256355
0.00038975229
0.00055349911
0.00077980464
0.0010881646
0.0015005248
0.0020383106
0.0027166676
0.0035361247
0.0044747835
0.005487463
0.006516672
0.0075109618
0.0084387299
0.0092906338
0.010074017
0.010805887
0.011508052
0.012204676
0.012920873
0.013681515
0.014510604
0.015432327
0.01646807
0.017642153
0.018990441
0.020401292
0.021801758
0.023020267
0.02269188
0.019887106
0.011863965
0.0060329365
0.0025568963
0.00094077226
0.00037156442
0.00019539129
0.00014228889
0.00013220097
0.00012287006
1.8574831e-12
5.8368549e-11
4.7729963e-10
2.052711e-09
6.3170077e-09
1.5941679e-08
3.5354139e-08
7.1660591e-08
1.3601022e-07
2.4559689e-07
4.2657925e-07
7.1832008e-07
1.1795136e-06
1.8970064e-06
2.9984471e-06
4.6703587e-06
7.1838578e-06
1.0931103e-05
1.6476709e-05
2.462987e-05
3.6544845e-05
5.3859758e-05
7.8886099e-05
0.00011486335
0.00016629334
0.00023936423
0.00034245868
0.00048670362
0.00068644228
0.00095936679
0.0013258234
0.0018065299
0.0024178544
0.0031644987
0.0040316743
0.0049820874
0.0059632032
0.0069232882
0.0078263097
0.0086572407
0.0094185233
0.010123494
0.010791096
0.011442725
0.012100433
0.012785073
0.013516131
0.014312557
0.015188011
0.016196778
0.017313794
0.018316308
0.018756149
0.017587463
0.013826374
0.0070249158
0.0034741243
0.0016953648
0.00076242039
0.00034421696
0.00019089988
0.00014107246
0.00012579958
0.00012224984
0.0001160022
1.6163877e-12
5.0792499e-11
4.1534771e-10
1.7862762e-09
5.4970844e-09
1.387252e-08
3.0765362e-08
6.2359507e-08
1.1835712e-07
2.1372052e-07
3.7121333e-07
6.2508959e-07
1.0264258e-06
1.6507973e-06
2.6092868e-06
4.0642134e-06
6.2515189e-06
9.5125007e-06
1.4338586e-05
2.1434173e-05
3.180425e-05
4.6875562e-05
6.866233e-05
9.9989559e-05
0.00014478755
0.00020846821
0.00029838203
0.00042432596
0.00059901111
0.00083828452
0.0011607099
0.0015858673
0.0021305826
0.0028027011
0.0035936714
0.0044740746
0.0053975068
0.0063136448
0.0071831649
0.0079855243
0.0087177785
0.0093888885
0.010014155
0.010611316
0.011198239
0.011790268
0.012400274
0.013039102
0.013731551
0.01453296
0.015262417
0.015205072
0.01348029
0.0086528154
0.0043204297
0.0020759084
0.0010196087
0.00052569728
0.00028382213
0.00017753262
0.00013660777
0.0001238388
0.00011830535
0.00011608295
0.00010953472
1.3966502e-12
4.3887593e-11
3.5888402e-10
1.5434442e-09
4.7497947e-09
1.1986656e-08
2.6583061e-08
5.3882276e-08
1.0226756e-07
1.8466726e-07
3.2075043e-07
5.4011437e-07
8.8689166e-07
1.4263826e-06
2.254567e-06
3.5116944e-06
5.4016281e-06
8.2192674e-06
1.2389248e-05
1.8520271e-05
2.7480901e-05
4.0504454e-05
5.9332657e-05
8.6409611e-05
0.00012513852
0.00018021157
0.00025801488
0.00036708792
0.00051856909
0.00072646749
0.0010074463
0.0013795916
0.0018594691
0.0024569714
0.0031686114
0.0039722999
0.0048284416
0.005689746
0.0065150968
0.00727905
0.0079730419
0.0086009723
0.0091735275
0.0097036795
0.010203263
0.010680032
0.011137246
0.011579183
0.01205119
0.012441533
0.012078656
0.010084231
0.0053825622
0.0026601499
0.0012893969
0.00064526238
0.00035247971
0.00021943202
0.00015734376
0.00013003336
0.0001195853
0.00011672589
0.00011220801
0.00010979979
0.00010432832
1.1996959e-12
3.7698609e-11
3.0827457e-10
1.3257891e-09
4.0799837e-09
1.0296313e-08
2.2834358e-08
4.6283888e-08
8.7845957e-08
1.586257e-07
2.7551829e-07
4.6394671e-07
7.618188e-07
1.2252236e-06
1.9366006e-06
3.016411e-06
4.6397504e-06
7.0598987e-06
1.0641556e-05
1.5907505e-05
2.3603723e-05
3.4789523e-05
5.0961095e-05
7.4218517e-05
0.00010748729
0.00015480417
0.0002216706
0.00031545988
0.00044582664
0.00062499501
0.00086767778
0.0011902017
0.0016082457
0.0021326699
0.002763696
0.0034855216
0.004265388
0.0050602947
0.0058289716
0.0065421165
0.0071856637
0.0077578223
0.0082635217
0.0087092965
0.0090986338
0.0094285307
0.0096871127
0.0098968262
0.0099513252
0.0092878215
0.0070336427
0.0035705192
0.0016841841
0.00082243597
0.00043105644
0.00025486269
0.00017556674
0.00013979897
0.00012294051
0.00011548871
0.00011289258
0.00011052951
0.00010733262
0.00010537868
0.00010029882
1.0259252e-12
3.2238124e-11
2.6362218e-10
1.1337536e-09
3.4890133e-09
8.8049294e-09
1.952688e-08
3.957981e-08
7.512168e-08
1.3564896e-07
2.3560928e-07
3.9674243e-07
6.5146366e-07
1.047734e-06
1.6560441e-06
2.5793915e-06
3.9674796e-06
6.0368445e-06
9.099254e-06
1.3601575e-05
2.0181391e-05
2.9743992e-05
4.3567889e-05
6.3447491e-05
9.1882504e-05
0.00013232274
0.00018947206
0.00026964169
0.00038111366
0.00053441818
0.0007423303
0.0010192469
0.0013794546
0.0018337999
0.0023847729
0.0030214717
0.0037173003
0.0044341844
0.0051321746
0.005779411
0.0063567901
0.0068562828
0.0072757077
0.0076128784
0.0078601823
0.0080001973
0.0080058223
0.0078347295
0.0069837647
0.0046156363
0.0023045591
0.0011208571
0.00055179528
0.00030523624
0.00019822798
0.00015110329
0.00012899015
0.00011835771
0.00011286213
0.0001100595
0.00010723519
0.00010556294
0.00010220638
0.00010070209
9.6762056e-05
8.7464966e-13
2.7484519e-11
2.247503e-10
9.6657814e-10
2.9745465e-09
7.506609e-09
1.6647554e-08
3.3743551e-08
6.4044467e-08
1.1564629e-07
2.0086588e-07
3.382364e-07
5.5539125e-07
8.9321493e-07
1.4117947e-06
2.1989216e-06
3.3821868e-06
5.1461219e-06
7.7563766e-06
1.1593643e-05
1.7200956e-05
2.534912e-05
3.7126298e-05
5.405904e-05
7.827277e-05
0.00011269907
0.000161333
0.00022953286
0.00032433119
0.00045468055
0.00063148002
0.00086711313
0.0011741006
0.0015624443
0.0020355535
0.0025857145
0.0031913627
0.0038192071
0.0044315926
0.0049953881
0.005487098
0.005892009
0.0061992294
0.0063955766
0.0064589166
0.0063606086
0.0060200111
0.0050901186
0.0029473948
0.0015028704
0.00074423603
0.00039035583
0.00023175448
0.0001651218
0.00013686432
0.00012373946
0.00011615736
0.00011204873
0.00010919245
0.00010629498
0.00010345812
0.00010113615
9.88054e-05
9.7108475e-05
9.3104548e-05
7.4410055e-13
2.3382218e-11
1.9120443e-10
8.2230808e-10
2.5305684e-09
6.3861719e-09
1.4162714e-08
2.8706865e-08
5.4484785e-08
9.838379e-08
1.7088174e-07
2.8774433e-07
4.7247783e-07
7.5985899e-07
1.2009954e-06
1.870552e-06
2.87703e-06
4.3773257e-06
6.5972542e-06
9.8603228e-06
1.4627804e-05
2.1554083e-05
3.1562307e-05
4.5946307e-05
6.6505347e-05
9.5717429e-05
0.00013695339
0.00019472468
0.00027493845
0.00038509654
0.00053431351
0.00073293779
0.00099146089
0.0013183672
0.0017167926
0.0021805945
0.0026916208
0.0032205944
0.0037325075
0.0041939266
0.0045775986
0.0048618188
0.0050260095
0.0050437572
0.0048948843
0.004479778
0.0035001248
0.0019623969
0.00098064029
0.00050627148
0.00028391536
0.00018684737
0.00014516504
0.0001286618
0.00012077276
0.00011627644
0.00011278193
0.00010953438
0.0001059455
0.00010262084
0.0001000281
9.8358867e-05
9.5483327e-05
9.4297313e-05
9.1003715e-05
6.3146373e-13
1.9842778e-11
1.6226121e-10
6.9783239e-10
2.1475045e-09
5.4194551e-09
1.2018771e-08
2.4361131e-08
4.6236452e-08
8.348911e-08
1.450101e-07
2.4417699e-07
4.0093459e-07
6.4478876e-07
1.0190974e-06
1.587196e-06
2.4411064e-06
3.7138633e-06
5.5968747e-06
8.3642283e-06
1.2406482e-05
1.8277224e-05
2.6756489e-05
3.8935834e-05
5.6330106e-05
8.1020014e-05
0.00011582615
0.00016450684
0.00023195549
0.00032434251
0.00044909704
0.00061455281
0.000829007
0.0010989211
0.0014261643
0.0018047264
0.002218276
0.0026404541
0.003038755
0.003380069
0.0036341486
0.0037730093
0.0037655778
0.0036020283
0.0031862505
0.0022891409
0.0012568477
0.0006548784
0.00035169671
0.00021571969
0.00015652842
0.00013263769
0.0001229721
0.00011939408
0.00011694005
0.00011424532
0.00011024543
0.00010594798
0.00010256085
0.00010035604
9.792156e-05
9.5650072e-05
9.3320597e-05
9.1728157e-05
8.8511222e-05
5.3302741e-13
1.6749566e-11
1.369669e-10
5.8904936e-10
1.8127323e-09
4.5746038e-09
1.0145079e-08
2.0563146e-08
3.9027668e-08
7.0471422e-08
1.2239833e-07
2.0609845e-07
3.3840317e-07
5.4421032e-07
8.6010192e-07
1.3395061e-06
2.060031e-06
3.133834e-06
4.7222059e-06
7.0559492e-06
1.0463631e-05
1.5410361e-05
2.2550344e-05
3.2796849e-05
4.7413216e-05
6.8127237e-05
9.726772e-05
0.00013791421
0.00019403583
0.0002705692
0.00037334466
0.00050871586
0.00068269523
0.00089939845
0.0011587518
0.001453839
0.001768956
0.002079792
0.0023562524
0.0025663056
0.0026783244
0.0026606962
0.002499534
0.0021088483
0.0014087591
0.00077924728
0.00042780146
0.00025049894
0.00016957595
0.00013630545
0.00012292989
0.0001191807
0.00011843967
0.00011766282
0.00011581211
0.00011128767
0.00010656309
0.00010323571
0.00010086203
9.7875826e-05
9.5483086e-05
9.3362898e-05
9.0813066e-05
8.9484739e-05
8.6675623e-05
4.4458548e-13
1.3970414e-11
1.1424082e-10
4.9131145e-10
1.5119496e-09
3.8155254e-09
8.4615971e-09
1.7150677e-08
3.255051e-08
5.8774683e-08
1.0208058e-07
1.7188204e-07
2.8221201e-07
4.5382579e-07
7.1721302e-07
1.1168919e-06
1.7175037e-06
2.612417e-06
3.9358033e-06
5.8794602e-06
8.71604e-06
1.2830749e-05
1.8763959e-05
2.7267304e-05
3.9375452e-05
5.6494134e-05
8.0501217e-05
0.00011384998
0.00015964995
0.00022167829
0.00030424184
0.00041177062
0.00054799228
0.00071457675
0.00090926685
0.0011238609
0.0013429264
0.0015441453
0.0017004218
0.0017823397
0.0017611547
0.0016234619
0.0013002407
0.00083825483
0.00047886968
0.00027808329
0.00017929801
0.00013677102
0.00012079315
0.00011580093
0.00011654773
0.000118361
0.00011854486
0.00011722431
0.00011291635
0.00010750006
0.00010418675
0.0001013147
9.8176671e-05
9.5872565e-05
9.3499955e-05
9.1578131e-05
8.9579713e-05
8.8195046e-05
8.5520954e-05
3.6225825e-13
1.1383409e-11
9.3085991e-11
4.0033082e-10
1.2319614e-09
3.1089234e-09
6.8944879e-09
1.3974072e-08
2.6520972e-08
4.7886095e-08
8.3166179e-08
1.40028e-07
2.2989824e-07
3.6967362e-07
5.8416771e-07
9.0959537e-07
1.3985098e-06
2.1267568e-06
3.2032032e-06
4.7832304e-06
7.087249e-06
1.0425748e-05
1.5232554e-05
2.2107848e-05
3.1871785e-05
4.5627598e-05
6.4829103e-05
9.1340049e-05
0.0001274603
0.00017587492
0.00023945753
0.0003208344
0.0004216135
0.00054125743
0.00067564485
0.00081576488
0.00094711789
0.0010503063
0.0011025815
0.0010819919
0.0009730286
0.00074181706
0.0004739065
0.00028647509
0.00018205198
0.00013117379
0.00011141309
0.00010734218
0.00010948674
0.00011460661
0.00012017639
0.00012014368
0.00011883828
0.00011444787
0.00010841923
0.00010511968
0.00010201495
9.8925868e-05
9.6520836e-05
9.3996141e-05
9.2014913e-05
8.9983174e-05
8.7858194e-05
8.6362195e-05
8.3942814e-05
2.8368335e-13
8.9143129e-12
7.2895307e-11
3.1349658e-10
9.6473357e-10
2.4345253e-09
5.3988031e-09
1.094225e-08
2.0766234e-08
3.7493695e-08
6.5113488e-08
1.0962457e-07
1.7996537e-07
2.8934814e-07
4.5716566e-07
7.117014e-07
1.0939597e-06
1.6630421e-06
2.5036315e-06
3.7363028e-06
5.531539e-06
8.1284439e-06
1.1859121e-05
1.717934e-05
2.4705137e-05
3.5252859e-05
4.9876154e-05
6.9886541e-05
9.6833611e-05
0.00013240653
0.000178204
0.00023531013
0.00030363942
0.00038107341
0.00046255991
0.00053944977
0.0005994853
0.000627535
0.00060957213
0.0005329244
0.00039307198
0.00025597853
0.00016813877
0.00011877545
9.8458345e-05
9.2033621e-05
9.5622848e-05
0.00010368988
0.00011683912
0.00012151881
0.00012178615
0.00012046511
0.00011592935
0.00010963247
0.00010631655
0.00010305903
9.9968151e-05
9.7206701e-05
9.4640346e-05
9.2491415e-05
9.0291575e-05
8.8415108e-05
8.650277e-05
8.5207397e-05
8.3212749e-05
2.0913273e-13
6.5716724e-12
5.3738676e-11
2.3110958e-10
7.1119295e-10
1.7946748e-09
3.9797549e-09
8.0658132e-09
1.5306518e-08
2.763422e-08
4.7986781e-08
8.0781002e-08
1.3259484e-07
2.1314542e-07
3.3668353e-07
5.2397007e-07
8.0505834e-07
1.2231784e-06
1.8401045e-06
2.7434753e-06
4.0566026e-06
5.9513049e-06
8.6641379e-06
1.2515898e-05
1.7933191e-05
2.5468746e-05
3.5813573e-05
4.97884e-05
6.8294198e-05
9.2192972e-05
0.00012208344
0.00015795001
0.00019868554
0.00024154365
0.00028173128
0.00031227617
0.00032439017
0.00031021544
0.00026318053
0.00019439319
0.00013611305
9.7610543e-05
8.0009095e-05
7.3447924e-05
7.7268709e-05
8.5363974e-05
0.0001030008
0.00011907238
0.00012339641
0.00012352664
0.00012220944
0.00011767732
0.0001109161
0.0001074977
0.00010404979
0.00010094476
9.8008704e-05
9.5421947e-05
9.3102883e-05
9.0871677e-05
8.9031504e-05
8.7279439e-05
8.5615049e-05
8.4201833e-05
8.2217084e-05
1.417896e-13
4.4555166e-12
3.6434094e-11
1.5668792e-10
4.8216736e-10
1.2167016e-09
2.6979681e-09
5.4676897e-09
1.0375254e-08
1.8729468e-08
3.2519364e-08
5.4733635e-08
8.9820111e-08
1.4434287e-07
2.2791614e-07
3.5452214e-07
5.4435529e-07
8.263761e-07
1.2418016e-06
1.8487926e-06
2.7286008e-06
3.9933602e-06
5.7954778e-06
8.3380503e-06
1.1884725e-05
1.6765669e-05
2.3373549e-05
3.2139632e-05
4.3475486e-05
5.7663127e-05
7.4681534e-05
9.39624e-05
0.00011411877
0.00013271881
0.00014620878
0.00015011781
0.00014162179
0.00011889278
9.1650579e-05
7.053495e-05
5.9018121e-05
5.4122587e-05
5.736609e-05
6.3923511e-05
7.9216151e-05
0.00010571809
0.00012036693
0.00012515386
0.00012533235
0.00012403191
0.0001195065
0.00011240445
0.00010868944
0.00010519019
0.00010209662
9.9152532e-05
9.6443737e-05
9.3865678e-05
9.1640531e-05
8.9652613e-05
8.7832411e-05
8.6081886e-05
8.431187e-05
8.3024184e-05
8.1421188e-05
8.634216e-14
2.7131652e-12
2.218627e-11
9.5412819e-11
2.9360192e-10
7.408469e-10
1.6426931e-09
3.3288071e-09
6.315911e-09
1.1399848e-08
1.9789347e-08
3.3299138e-08
5.4627e-08
8.7748551e-08
1.3847563e-07
2.1523919e-07
3.3017531e-07
5.0061137e-07
7.5106416e-07
1.1158621e-06
1.6424704e-06
2.3954983e-06
3.4611361e-06
4.9513364e-06
7.0062816e-06
9.7924772e-06
1.3492082e-05
1.8277218e-05
2.4261792e-05
3.142379e-05
3.9499199e-05
4.7861629e-05
5.5425674e-05
6.0623288e-05
6.1505256e-05
5.7760513e-05
5.0085232e-05
4.2861616e-05
3.7844889e-05
3.6012929e-05
3.9277862e-05
4.4249785e-05
5.573576e-05
8.0121534e-05
0.00010769675
0.00012122413
0.0001266295
0.00012707588
0.00012584608
0.0001214907
0.00011400016
0.00011007607
0.00010632457
0.00010330957
0.00010026446
9.7432141e-05
9.4683376e-05
9.2432986e-05
9.0336003e-05
8.8441622e-05
8.6633734e-05
8.5045542e-05
8.361032e-05
8.2372059e-05
8.0963137e-05
4.6230232e-14
1.4527097e-12
1.1879117e-11
5.1085703e-11
1.5719458e-10
3.9662897e-10
8.7938393e-10
1.7818157e-09
3.3802145e-09
6.0998403e-09
1.0586015e-08
1.7806464e-08
2.9197583e-08
4.6871786e-08
7.3908793e-08
1.1476026e-07
1.7580412e-07
2.6609022e-07
3.9831901e-07
5.9008197e-07
8.6535377e-07
1.2561395e-06
1.804013e-06
2.5609923e-06
3.5887347e-06
4.9544072e-06
6.7208716e-06
8.9282803e-06
1.1564977e-05
1.4527749e-05
1.7578682e-05
2.0312708e-05
2.2157339e-05
2.2644259e-05
2.2174397e-05
2.1358795e-05
2.0752139e-05
2.1495095e-05
2.4113297e-05
2.8562491e-05
3.7809679e-05
5.457067e-05
8.1438234e-05
0.00010690538
0.00012061865
0.0001276917
0.00012873179
0.00012762404
0.00012365075
0.00011576303
0.00011157493
0.00010760682
0.0001044354
0.00010146886
9.8540864e-05
9.5829964e-05
9.3429746e-05
9.1186722e-05
8.9171931e-05
8.7300823e-05
8.5751113e-05
8.4244142e-05
8.2718127e-05
8.1504816e-05
8.0245507e-05
2.1540374e-14
6.7687001e-13
5.5348631e-12
2.3801946e-11
7.3237335e-11
1.8477791e-10
4.0963815e-10
8.2989374e-10
1.5740487e-09
2.8397246e-09
4.9264619e-09
8.282763e-09
1.3572982e-08
2.1771518e-08
3.429394e-08
5.3176936e-08
8.1320757e-08
1.2280789e-07
1.8330768e-07
2.7056422e-07
3.9493734e-07
5.6991358e-07
8.1241202e-07
1.1425679e-06
1.5824817e-06
2.1532084e-06
2.8691986e-06
3.7296044e-06
4.7070834e-06
5.7368707e-06
6.7125257e-06
7.5214717e-06
8.1945283e-06
8.9238926e-06
9.9213571e-06
1.1436018e-05
1.3346702e-05
1.757401e-05
2.4349302e-05
3.6737302e-05
5.5321951e-05
7.9905577e-05
0.00010349759
0.00011931094
0.00012867334
0.00013035764
0.00012938002
0.00012585933
0.00011770321
0.00011323339
0.00010897898
0.00010566503
0.00010260076
9.9809949e-05
9.6988003e-05
9.444447e-05
9.1989354e-05
8.991942e-05
8.8045136e-05
8.6407389e-05
8.478317e-05
8.328459e-05
8.1960115e-05
8.0913084e-05
7.9823166e-05
9.0435543e-15
2.8417794e-13
2.3237415e-12
9.99271e-12
3.0745737e-11
7.756627e-11
1.7194098e-10
3.4828845e-10
6.6046305e-10
1.191214e-09
2.0658225e-09
3.4715858e-09
5.6853878e-09
9.1122737e-09
1.4338696e-08
2.2204775e-08
3.3900202e-08
5.1087761e-08
7.6055752e-08
1.118942e-07
1.6267729e-07
2.3361286e-07
3.3108757e-07
4.6249551e-07
6.3570405e-07
8.5803081e-07
1.1347665e-06
1.4677285e-06
1.8553245e-06
2.2986253e-06
2.8238138e-06
3.4705937e-06
4.2812124e-06
5.5185935e-06
7.4694913e-06
1.0527196e-05
1.5714783e-05
2.4191992e-05
3.7076046e-05
5.4690395e-05
7.6770711e-05
9.969864e-05
0.00011906792
0.0001298544
0.00013204532
0.00013119104
0.00012804367
0.00011993911
0.00011502704
0.00011048483
0.00010697224
0.00010380631
0.00010098435
9.8262996e-05
9.5513254e-05
9.3072157e-05
9.087588e-05
8.8969826e-05
8.7127105e-05
8.5443397e-05
8.3982145e-05
8.2693709e-05
8.1397559e-05
8.035065e-05
7.9403792e-05
4.1701445e-15
1.3103947e-13
1.0715163e-12
4.6077978e-12
1.4177348e-11
3.5767133e-11
7.9285354e-11
1.6060404e-10
3.0455927e-10
5.493161e-10
9.5266509e-10
1.6010285e-09
2.622226e-09
4.2033894e-09
6.6158114e-09
1.0248938e-08
1.5656093e-08
2.3614707e-08
3.5203642e-08
5.1899293e-08
7.5690591e-08
1.0921106e-07
1.5588628e-07
2.2010399e-07
3.0744626e-07
4.2510817e-07
5.8281704e-07
7.9493621e-07
1.0850553e-06
1.4941628e-06
2.0863024e-06
2.9704082e-06
4.3348652e-06
6.5483361e-06
1.0100324e-05
1.5760895e-05
2.4309377e-05
3.6450097e-05
5.2888359e-05
7.3873172e-05
9.7213596e-05
0.00011888799
0.00013103689
0.00013381473
0.00013308748
0.00013035543
0.00012258435
0.00011696327
0.00011208157
0.00010841782
0.00010506759
0.00010218909
9.9454706e-05
9.6805154e-05
9.4195231e-05
9.1922291e-05
8.976479e-05
8.7856778e-05
8.6145214e-05
8.4675182e-05
8.3277245e-05
8.1926248e-05
8.0704821e-05
7.9795134e-05
7.8930728e-05
3.2232497e-15
1.0128527e-13
8.2822733e-13
3.5617393e-12
1.0959712e-11
2.7653295e-11
6.1311798e-11
1.2423215e-10
2.3568134e-10
4.2532003e-10
7.3817277e-10
1.2417994e-09
2.0365837e-09
3.2704119e-09
5.1595048e-09
8.0178309e-09
1.229845e-08
1.8651432e-08
2.8004892e-08
4.1678713e-08
6.1545648e-08
9.0264041e-08
1.3162535e-07
1.9109905e-07
2.7674131e-07
4.0061174e-07
5.8119537e-07
8.4771226e-07
1.2473911e-06
1.8573383e-06
2.8029095e-06
4.2845518e-06
6.6124114e-06
1.0249143e-05
1.5820111e-05
2.4041306e-05
3.5631902e-05
5.1451853e-05
7.2000019e-05
9.5522709e-05
0.00011789366
0.00013187547
0.00013565566
0.00013505371