/*--------------------------------*- C++ -*----------------------------------*\
  =========                 |
  \\      /  F ield         | OpenFOAM: The Open Source CFD Toolbox
   \\    /   O peration     | Website:  https://openfoam.org
    \\  /    A nd           | Version:  13
     \\/     M anipulation  |
\*---------------------------------------------------------------------------*/
FoamFile
{
    format      ascii;
    class       volScalarField;
    location    "45.803844";
    object      yPlus;
}
// * * * * * * * * * * * * * * * * * * * * * * * * * * * * * * * * * * * * * //

dimensions      [];

internalField   uniform 0;

boundaryField
{
    inlet
    {
        type            calculated;
        value           uniform 0;
    }
    outlet
    {
        type            calculated;
        value           uniform 0;
    }
    cylinder
    {
        type            calculated;
        value           nonuniform List<scalar> 
132
(
1.2837606e-07
1.2694647e-07
1.2502906e-07
1.2261877e-07
1.1973197e-07
1.1639136e-07
1.1263283e-07
1.084985e-07
1.0402969e-07
9.9277722e-08
9.4300643e-08
8.916122e-08
8.3925427e-08
7.8661056e-08
7.343601e-08
6.8316569e-08
6.3365529e-08
5.8639314e-08
5.4183457e-08
5.002545e-08
4.6165777e-08
4.256695e-08
3.9144104e-08
3.5764087e-08
3.2263515e-08
2.8491592e-08
2.4371196e-08
1.9958557e-08
1.5468052e-08
1.1230232e-08
7.6061633e-09
4.9083587e-09
3.3681401e-09
3.0355708e-09
3.4531122e-09
4.2175261e-09
5.2114786e-09
6.4369642e-09
7.9192347e-09
9.6917907e-09
1.1819212e-08
1.4379904e-08
1.7150103e-08
2.0090779e-08
2.3128073e-08
2.619528e-08
2.9232869e-08
3.2195988e-08
3.5051129e-08
3.7775629e-08
4.0352754e-08
4.2777307e-08
4.5038095e-08
4.7128496e-08
4.9076625e-08
5.0844736e-08
5.2458003e-08
5.3909648e-08
5.5206607e-08
5.6338957e-08
5.7308238e-08
5.8123364e-08
5.8783109e-08
5.9285716e-08
5.9635503e-08
5.9826175e-08
1.2928568e-07
1.2969084e-07
1.2961956e-07
1.2899486e-07
1.2778522e-07
1.2596997e-07
1.2353759e-07
1.204871e-07
1.168299e-07
1.1259105e-07
1.0781058e-07
1.0254395e-07
9.6862137e-08
9.085033e-08
8.4606321e-08
7.8239024e-08
7.186378e-08
6.5597262e-08
5.9548775e-08
5.3810632e-08
4.8443955e-08
4.3462191e-08
3.881736e-08
3.4398119e-08
3.0052791e-08
2.5644861e-08
2.1125188e-08
1.6585585e-08
1.2260635e-08
8.4706562e-09
5.5256951e-09
3.6726109e-09
3.032808e-09
3.2843584e-09
3.9508408e-09
4.8524342e-09
5.9716476e-09
7.3276766e-09
8.9471458e-09
1.0857106e-08
1.3114145e-08
1.5789087e-08
1.8637302e-08
2.1623516e-08
2.4670324e-08
2.7715851e-08
3.071093e-08
3.3614366e-08
3.6399183e-08
3.9046541e-08
4.1541579e-08
4.388533e-08
4.6063087e-08
4.8067473e-08
4.9942962e-08
5.1623537e-08
5.3165725e-08
5.4535616e-08
5.5760051e-08
5.6808372e-08
5.7707078e-08
5.844804e-08
5.9034387e-08
5.9463711e-08
5.9737454e-08
5.9856977e-08
)
;
    }
    frontAndBack
    {
        type            empty;
    }
}


// ************************************************************************* //
