/*--------------------------------*- C++ -*----------------------------------*\
  =========                 |
  \\      /  F ield         | OpenFOAM: The Open Source CFD Toolbox
   \\    /   O peration     | Website:  https://openfoam.org
    \\  /    A nd           | Version:  13
     \\/     M anipulation  |
\*---------------------------------------------------------------------------*/
FoamFile
{
    format      ascii;
    class       volScalarField;
    location    "5.103727";
    object      p;
}
// * * * * * * * * * * * * * * * * * * * * * * * * * * * * * * * * * * * * * //

dimensions      [0 2 -2 0 0 0 0];

internalField   nonuniform List<scalar> 
17140
(
-0.12466114
-0.124901
-0.1251903
-0.12548305
-0.1257984
-0.12614034
-0.12650868
-0.12690363
-0.12732553
-0.12777461
-0.12825117
-0.12875591
-0.12929053
-0.12985848
-0.13046614
-0.13112438
-0.1318506
-0.13267124
-0.13362478
-0.13476521
-0.13616561
-0.13792216
-0.14016308
-0.14305031
-0.1466868
-0.1510966
-0.15643016
-0.16298252
-0.17102884
-0.18085346
-0.19278715
-0.20719098
-0.22446
-0.24502094
-0.26932306
-0.29782003
-0.33094102
-0.36904843
-0.41237962
-0.46097035
-0.51456368
-0.57251491
-0.63363295
-0.6958629
-0.75636833
-0.81137495
-0.85630559
-0.88207465
-0.88364028
-0.85448387
-0.78774434
-0.68810724
-0.56123038
-0.41371443
-0.24990164
-0.083847816
0.056864625
0.15027143
0.18759375
0.18220387
0.15460985
0.12054463
0.089824751
0.064597404
0.048532827
-0.12898908
-0.12922345
-0.12950581
-0.12979206
-0.13010048
-0.13043496
-0.13079529
-0.13118168
-0.13159444
-0.13203372
-0.13249975
-0.13299313
-0.1335154
-0.1340698
-0.13466246
-0.13530392
-0.1360112
-0.13681027
-0.13773914
-0.13885128
-0.14021926
-0.1419387
-0.14413684
-0.14697512
-0.15056281
-0.15492707
-0.16020906
-0.16670279
-0.1746884
-0.18444968
-0.19631832
-0.2106564
-0.22786014
-0.24835762
-0.27259976
-0.3010421
-0.33411581
-0.37218523
-0.41548937
-0.46406557
-0.51766013
-0.57563104
-0.63678391
-0.69910938
-0.75979921
-0.81507374
-0.86004749
-0.88680506
-0.8885164
-0.85871618
-0.79222517
-0.69234825
-0.56569738
-0.41878686
-0.25550321
-0.089425564
0.051660168
0.14565983
0.18366945
0.17884711
0.15197558
0.11861068
0.088672333
0.063893158
0.048169692
-0.13962004
-0.1398409
-0.14010637
-0.1403767
-0.14066817
-0.14098437
-0.14132513
-0.14169062
-0.14208104
-0.14249644
-0.14293684
-0.14340259
-0.14389486
-0.14441642
-0.14497273
-0.14557355
-0.14623494
-0.14698176
-0.14785081
-0.14889426
-0.1501834
-0.15181254
-0.15390652
-0.15662519
-0.16009283
-0.16434476
-0.16949991
-0.1758492
-0.18368512
-0.19329048
-0.20499939
-0.21917667
-0.23622174
-0.25656629
-0.28066521
-0.30897819
-0.34194042
-0.37991981
-0.42315819
-0.47169577
-0.5252857
-0.58329346
-0.64452745
-0.70707298
-0.76815318
-0.8239981
-0.86948955
-0.89713977
-0.89978834
-0.87000186
-0.8030412
-0.70266029
-0.57642624
-0.43092688
-0.26881364
-0.10274623
0.039139626
0.13432732
0.17374759
0.17044708
0.14535381
0.11381731
0.085730812
0.061798256
0.047550476
-0.15627466
-0.15647415
-0.15671305
-0.15695816
-0.15722278
-0.15751
-0.15781975
-0.15815212
-0.15850719
-0.1588848
-0.15928471
-0.1597069
-0.160152
-0.16062204
-0.16112154
-0.16165905
-0.16224911
-0.16291491
-0.16369129
-0.16462838
-0.16579537
-0.16728444
-0.1692167
-0.17174883
-0.17502744
-0.17910171
-0.18406004
-0.19018387
-0.19778523
-0.20714556
-0.21860207
-0.23252397
-0.24931554
-0.26941383
-0.29327933
-0.32137739
-0.35414819
-0.39196349
-0.43506777
-0.48350417
-0.53703375
-0.59503555
-0.65633995
-0.7191357
-0.78071448
-0.83735154
-0.88386397
-0.91285824
-0.91647209
-0.88684428
-0.81932175
-0.71813486
-0.59258372
-0.44925384
-0.28898961
-0.12313535
0.019744987
0.11669214
0.15811868
0.15745363
0.13542063
0.10684796
0.081339256
0.059386735
0.04567114
-0.17829068
-0.17846153
-0.17866495
-0.17887615
-0.17910463
-0.17935286
-0.17962085
-0.17990865
-0.18021615
-0.18054299
-0.18088864
-0.18125261
-0.18163492
-0.18203671
-0.18246134
-0.18291582
-0.18341283
-0.18397332
-0.18462959
-0.18542898
-0.18643782
-0.18774535
-0.18946779
-0.19175678
-0.19478604
-0.19862542
-0.20332529
-0.20915189
-0.21644162
-0.22547491
-0.23659234
-0.25016857
-0.26661356
-0.28637039
-0.30990587
-0.33769123
-0.3701714
-0.40772113
-0.45058626
-0.49881224
-0.55216834
-0.61005436
-0.671347
-0.73433863
-0.79644879
-0.85404337
-0.90192292
-0.93268451
-0.93775463
-0.90842514
-0.83991446
-0.73747238
-0.61256684
-0.47188541
-0.31403216
-0.14850122
-0.0047613799
0.094058589
0.1379069
0.14075227
0.12281364
0.098149552
0.075891862
0.056050118
0.043879117
-0.20462513
-0.20476107
-0.20492136
-0.205091
-0.20527513
-0.20547549
-0.20569222
-0.20592529
-0.20617445
-0.20643915
-0.20671855
-0.20701176
-0.20731815
-0.207638
-0.20797341
-0.20832975
-0.20871762
-0.20915538
-0.20967234
-0.21031249
-0.21113851
-0.2122359
-0.2137166
-0.21572518
-0.21843737
-0.22197126
-0.2263857
-0.23188295
-0.23879267
-0.24743046
-0.25813374
-0.27128308
-0.28729408
-0.30661584
-0.32972099
-0.35708581
-0.38915862
-0.42631535
-0.46880172
-0.51666551
-0.56968688
-0.62729577
-0.68844669
-0.75155424
-0.81422295
-0.8729725
-0.92261085
-0.95557055
-0.96249947
-0.93366079
-0.86384948
-0.75960762
-0.63513147
-0.49725628
-0.34199199
-0.17744421
-0.033001119
0.067651512
0.11429748
0.1214491
0.1085022
0.088399982
0.069782841
0.052333488
0.041527428
-0.23388996
-0.23398675
-0.23410133
-0.23422327
-0.23435628
-0.23450165
-0.23465947
-0.23482962
-0.23501177
-0.2352052
-0.23540887
-0.23562158
-0.23584218
-0.23607016
-0.23630651
-0.23655504
-0.23682423
-0.23712978
-0.23749776
-0.23796835
-0.23860003
-0.23947373
-0.24069662
-0.24240562
-0.24477065
-0.24796248
-0.25206549
-0.2572051
-0.2636949
-0.27189187
-0.28212684
-0.29478658
-0.3102913
-0.32909506
-0.3516748
-0.37851024
-0.41005135
-0.4466737
-0.48862228
-0.53594939
-0.5884526
-0.64560243
-0.70646636
-0.76961606
-0.83288238
-0.89298867
-0.94480511
-0.98053
-0.98989952
-0.96185697
-0.89043768
-0.78381312
-0.6591996
-0.52369576
-0.37102578
-0.20770781
-0.062577862
0.039196076
0.088682017
0.10065237
0.093195896
0.077982448
0.063110491
0.04811267
0.038869676
-0.26446095
-0.26451536
-0.26458043
-0.26465059
-0.26472803
-0.26481352
-0.2649071
-0.26500864
-0.26511772
-0.26523358
-0.26535511
-0.26548092
-0.2656096
-0.26574014
-0.2658727
-0.26600983
-0.2661582
-0.26633107
-0.26655132
-0.2668553
-0.26729692
-0.26795202
-0.26892228
-0.27033812
-0.27236074
-0.27517507
-0.27892802
-0.28373201
-0.28981834
-0.29754853
-0.30728713
-0.31941715
-0.3343636
-0.35258346
-0.37455621
-0.40076289
-0.43165318
-0.46760133
-0.50885266
-0.55546845
-0.60727199
-0.66379147
-0.72423244
-0.78736172
-0.85127552
-0.912951
-0.96737405
-1.0064599
-1.0189038
-0.99204229
-0.91891598
-0.80942734
-0.6841848
-0.55002547
-0.39986831
-0.23722193
-0.09357046
0.010102263
0.062286179
0.079325109
0.077547076
0.06722368
0.056067018
0.043462352
0.03572385
-0.29457273
-0.29458362
-0.29459775
-0.2946145
-0.29463445
-0.29465786
-0.29468475
-0.29471494
-0.29474804
-0.29478331
-0.2948197
-0.29485591
-0.29489051
-0.29492239
-0.29495134
-0.29497918
-0.29501135
-0.2950592
-0.29514295
-0.29529537
-0.29556596
-0.29602528
-0.29676902
-0.29792107
-0.29963471
-0.30209015
-0.30547695
-0.309951
-0.31568355
-0.32297068
-0.33220967
-0.34380434
-0.35817258
-0.37577138
-0.39707919
-0.42257722
-0.45271395
-0.48786254
-0.52827159
-0.57401567
-0.62495263
-0.68068772
-0.74057775
-0.80361022
-0.86817263
-0.93153125
-0.98880937
-1.0315762
-1.0474471
-1.0220861
-0.9472929
-0.83521194
-0.70872605
-0.57532613
-0.42654803
-0.26537189
-0.12296265
-0.018227532
0.03632679
0.058213392
0.061934403
0.056272361
0.048626903
0.038374884
0.032226437
-0.32247726
-0.32244581
-0.32241026
-0.32237473
-0.32233823
-0.32230048
-0.32226148
-0.32222103
-0.32217876
-0.32213405
-0.32208607
-0.32203378
-0.32197607
-0.32191211
-0.32184189
-0.32176715
-0.32169289
-0.32162939
-0.32159502
-0.32161979
-0.32174943
-0.32204966
-0.32261029
-0.32354842
-0.32501
-0.32716859
-0.33021758
-0.33435276
-0.33977539
-0.3467197
-0.35551321
-0.36658272
-0.38037522
-0.39733766
-0.41794807
-0.44268401
-0.47198962
-0.50623672
-0.54568021
-0.59041151
-0.64033035
-0.69513443
-0.75432494
-0.81710881
-0.88216468
-0.94702771
-1.0069355
-1.0531168
-1.0722209
-1.0481777
-0.97237517
-0.85853331
-0.73103341
-0.5981596
-0.44974941
-0.29003598
-0.14702213
-0.04629715
0.011406849
0.03779119
0.046611874
0.045237505
0.040891988
0.032896099
0.028319092
-0.34660497
-0.3465349
-0.34645387
-0.34637026
-0.34628161
-0.3461871
-0.34608664
-0.34598005
-0.34586694
-0.34574687
-0.34561927
-0.3454835
-0.34533902
-0.34518561
-0.34502394
-0.34485637
-0.34468824
-0.34452976
-0.3443986
-0.34432317
-0.34434654
-0.34453065
-0.3449603
-0.34574647
-0.34702804
-0.34897189
-0.35176868
-0.35562302
-0.36074862
-0.36738556
-0.37583306
-0.38647107
-0.39973583
-0.41608198
-0.43598563
-0.45992201
-0.48833443
-0.52159231
-0.55995946
-0.60354613
-0.65229537
-0.70599306
-0.76425976
-0.82649989
-0.8916289
-0.95737702
-1.0190466
-1.0674955
-1.0886317
-1.0658571
-0.99017283
-0.87611254
-0.74936326
-0.61679183
-0.46830075
-0.31044174
-0.16849194
-0.071919458
-0.0117227
0.018424152
0.031720292
0.034190872
0.032892232
0.02708791
0.024143243
-0.36573119
-0.36562883
-0.36550958
-0.36538528
-0.36525218
-0.36510895
-0.3649554
-0.36479122
-0.36461603
-0.36442946
-0.36423119
-0.36402099
-0.36379894
-0.3635656
-0.36332259
-0.36307331
-0.3628241
-0.36258599
-0.36237701
-0.36222528
-0.36217265
-0.36227875
-0.36262495
-0.36331744
-0.36448907
-0.36629947
-0.36893327
-0.37259572
-0.37750632
-0.38390347
-0.39206732
-0.40234209
-0.41514168
-0.43091562
-0.45013124
-0.47325454
-0.50072598
-0.53291566
-0.57009415
-0.61239267
-0.659796
-0.71215406
-0.76917271
-0.83040161
-0.89488754
-0.96044922
-1.0223451
-1.071318
-1.0930234
-1.0711471
-0.99713461
-0.88557735
-0.76153809
-0.62950011
-0.48046107
-0.32593533
-0.18804079
-0.093862129
-0.033010076
0.00024155032
0.017354676
0.023221045
0.024739286
0.021035222
0.019713094
-0.37913099
-0.3790051
-0.37885777
-0.37870325
-0.37853674
-0.37835649
-0.37816207
-0.37795301
-0.37772881
-0.37748905
-0.37723351
-0.37696222
-0.37667568
-0.37637512
-0.37606303
-0.37574381
-0.37542499
-0.37511869
-0.3748439
-0.37462927
-0.37451657
-0.37456461
-0.37485309
-0.37548569
-0.37659173
-0.37832596
-0.38086696
-0.38441425
-0.38918487
-0.39541289
-0.40336161
-0.41334225
-0.42574891
-0.44099384
-0.45952874
-0.48181239
-0.50828425
-0.5393096
-0.57517268
-0.61601475
-0.66185545
-0.71258888
-0.76792887
-0.82754016
-0.89045628
-0.9545119
-1.0149332
-1.0625109
-1.0835344
-1.0623001
-0.99146983
-0.88548694
-0.76612696
-0.63477914
-0.48694358
-0.33551705
-0.20462713
-0.11329681
-0.052333381
-0.016665339
0.0035963182
0.012426044
0.016523104
0.014824421
0.015128078
-0.38667582
-0.38653715
-0.38637419
-0.38620238
-0.38601629
-0.38581376
-0.38559412
-0.38535661
-0.38510048
-0.38482511
-0.38453012
-0.38421551
-0.38388186
-0.38353061
-0.38316463
-0.38278886
-0.38241146
-0.38204524
-0.3817098
-0.38143418
-0.38126025
-0.38124654
-0.38147213
-0.38203997
-0.38307854
-0.3847414
-0.38720468
-0.39066338
-0.39532991
-0.4014166
-0.40928952
-0.41898541
-0.43097219
-0.44566039
-0.46351054
-0.48493692
-0.51034706
-0.54011093
-0.5745016
-0.61368501
-0.6576968
-0.70643772
-0.75966952
-0.8169565
-0.87733261
-0.93858813
-0.9959622
-1.0407253
-1.059939
-1.0394606
-0.97366792
-0.87575978
-0.76214944
-0.63224472
-0.48663061
-0.3405044
-0.21752689
-0.1299555
-0.069634626
-0.032272385
-0.0094747067
0.0019123716
0.0083583262
0.0085453093
0.010431654
-0.38886305
-0.38872296
-0.38855702
-0.38838203
-0.38819159
-0.38798319
-0.38775591
-0.38750868
-0.38724039
-0.38695006
-0.38663694
-0.38630064
-0.38594136
-0.3855602
-0.38515966
-0.38474433
-0.38432193
-0.38390474
-0.38351163
-0.38317062
-0.38292228
-0.38282362
-0.38295232
-0.3834105
-0.38432717
-0.38585807
-0.38818229
-0.39149641
-0.39601391
-0.40194827
-0.40935249
-0.41878682
-0.43072073
-0.44492882
-0.46198545
-0.48240197
-0.50658275
-0.53488921
-0.56759097
-0.60485477
-0.64672105
-0.69308938
-0.74369942
-0.79805475
-0.85510564
-0.91260133
-0.96586796
-1.0069264
-1.0238386
-1.0045992
-0.94545608
-0.85700842
-0.74936755
-0.62145
-0.47924159
-0.34185185
-0.2274792
-0.14423127
-0.084995287
-0.04656005
-0.021780292
-0.0082157814
0.00034261944
0.0022783004
0.0056941687
-0.38670287
-0.38657176
-0.38641461
-0.38625004
-0.38607009
-0.385872
-0.38565466
-0.38541672
-0.3851567
-0.38487316
-0.38456484
-0.38423072
-0.38387025
-0.38348363
-0.38307224
-0.38263931
-0.38219084
-0.38173689
-0.38129351
-0.38088517
-0.38054808
-0.38033418
-0.38031579
-0.38059021
-0.38128349
-0.38255168
-0.38457821
-0.38756651
-0.39172877
-0.39728587
-0.40442968
-0.4136373
-0.42461142
-0.43790607
-0.45439496
-0.4739533
-0.49682486
-0.52349155
-0.55424602
-0.58927694
-0.62864147
-0.6722405
-0.71979058
-0.77072777
-0.82392731
-0.87710615
-0.92587621
-0.96292953
-0.97751126
-0.96038467
-0.90929037
-0.83020656
-0.72817248
-0.60312497
-0.46856858
-0.33990389
-0.23454125
-0.15611666
-0.098436128
-0.059507351
-0.033243169
-0.017861227
-0.0074310901
-0.0039004581
0.00096583844
-0.38154856
-0.38143499
-0.3812975
-0.38115438
-0.3809971
-0.38082289
-0.38063053
-0.38041846
-0.38018491
-0.37992808
-0.37964619
-0.37933754
-0.37900071
-0.37863472
-0.37823945
-0.37781611
-0.37736802
-0.37690175
-0.37642873
-0.37596744
-0.37554649
-0.37520851
-0.37501505
-0.37505207
-0.37543541
-0.37631481
-0.37787453
-0.3803288
-0.38390971
-0.38885338
-0.39539281
-0.40369013
-0.41404984
-0.42697449
-0.44228001
-0.46019843
-0.48142061
-0.5061311
-0.5345769
-0.56698651
-0.60344445
-0.64386933
-0.68797974
-0.73517064
-0.78428501
-0.83305537
-0.87741326
-0.91060257
-0.92352768
-0.91006352
-0.86743286
-0.79621991
-0.69871005
-0.57809592
-0.45238492
-0.33719681
-0.23935177
-0.16582328
-0.11005896
-0.071112604
-0.043801173
-0.026940994
-0.014882631
-0.0099236503
-0.0036965629
-0.37482317
-0.37473233
-0.37462126
-0.37450626
-0.37437922
-0.37423756
-0.37408009
-0.37390518
-0.37371097
-0.37349545
-0.37325652
-0.37299199
-0.37269972
-0.37237773
-0.37202442
-0.37163899
-0.37122195
-0.37077599
-0.37030719
-0.36982684
-0.36935391
-0.36891855
-0.36856666
-0.36836561
-0.3684109
-0.36883291
-0.36980216
-0.3715305
-0.37426569
-0.37827638
-0.38384283
-0.39121305
-0.4005198
-0.41192249
-0.42565474
-0.44201755
-0.46105472
-0.48329412
-0.50900347
-0.53833971
-0.57143517
-0.60826635
-0.648599
-0.69185467
-0.73687838
-0.78149884
-0.82179143
-0.85185905
-0.86483656
-0.85682677
-0.82148042
-0.75552886
-0.662546
-0.54973995
-0.43406154
-0.33098211
-0.24240202
-0.17348201
-0.11992301
-0.081374007
-0.053404842
-0.035393952
-0.021948346
-0.015729575
-0.0082453815
-0.36772662
-0.36765976
-0.36757826
-0.36749342
-0.36739908
-0.36729318
-0.36717457
-0.36704173
-0.3668929
-0.36672609
-0.36653914
-0.36632969
-0.36609522
-0.36583311
-0.36554079
-0.3652159
-0.3648567
-0.36446252
-0.36403463
-0.36357743
-0.36310027
-0.36262
-0.36216459
-0.36177798
-0.36152638
-0.36150571
-0.36184956
-0.36273578
-0.36438874
-0.36707297
-0.37107647
-0.37668849
-0.38416147
-0.39371868
-0.40548215
-0.41956921
-0.43627658
-0.45578106
-0.47822351
-0.50401138
-0.53327883
-0.56610211
-0.60237477
-0.64159533
-0.68275106
-0.72365196
-0.76070649
-0.78950992
-0.80505149
-0.80291784
-0.7719427
-0.70984064
-0.62453082
-0.51856462
-0.41645406
-0.32386901
-0.24350668
-0.17924248
-0.12812658
-0.090307871
-0.062020436
-0.043156397
-0.028564577
-0.021266168
-0.012634085
-0.36112315
-0.36107902
-0.36102643
-0.3609692
-0.36090501
-0.36083252
-0.36075065
-0.36065809
-0.36055334
-0.36043465
-0.36030005
-0.36014735
-0.35997405
-0.35977746
-0.35955464
-0.35930257
-0.35901827
-0.35869907
-0.3583431
-0.35794994
-0.35752177
-0.3570649
-0.35659219
-0.35612636
-0.35570461
-0.35538471
-0.35525255
-0.35543059
-0.35608551
-0.357432
-0.35972882
-0.36326399
-0.36833386
-0.37517941
-0.38409259
-0.39525832
-0.40877698
-0.42468514
-0.44337879
-0.46507753
-0.49004268
-0.5185099
-0.5505252
-0.58584596
-0.62351935
-0.66144445
-0.69716178
-0.72755416
-0.74725815
-0.74955681
-0.71870068
-0.66108922
-0.58114413
-0.49140484
-0.39777836
-0.31591361
-0.24303824
-0.18329181
-0.13475426
-0.097943945
-0.069637306
-0.050194034
-0.034678721
-0.026479628
-0.016821099
-0.35552684
-0.35550022
-0.35546806
-0.35543276
-0.35539285
-0.35534736
-0.35529547
-0.3552362
-0.35516835
-0.35509057
-0.35500127
-0.35489861
-0.35478049
-0.35464454
-0.35448807
-0.35430812
-0.35410155
-0.35386509
-0.3535956
-0.35329037
-0.35294773
-0.35256782
-0.35215383
-0.35171386
-0.35126349
-0.35082937
-0.35045393
-0.35020168
-0.35016656
-0.35047751
-0.35130384
-0.35286468
-0.35542034
-0.35923657
-0.36459779
-0.37175348
-0.38092046
-0.39236202
-0.40634094
-0.42317657
-0.44329141
-0.46708986
-0.49487812
-0.52658416
-0.56146643
-0.5983047
-0.6357504
-0.66968092
-0.69295931
-0.69528311
-0.66522499
-0.6109637
-0.53732839
-0.46105676
-0.38018832
-0.30710977
-0.24106951
-0.18575569
-0.1398962
-0.10432105
-0.076259925
-0.056494872
-0.040259959
-0.031326604
-0.020769589
-0.35100775
-0.35099266
-0.35097433
-0.35095405
-0.35093092
-0.35090432
-0.3508737
-0.35083838
-0.35079754
-0.35075022
-0.35069527
-0.35063138
-0.35055698
-0.35047028
-0.35036918
-0.35025136
-0.35011442
-0.34995552
-0.34977161
-0.34955962
-0.34931647
-0.34904001
-0.34872926
-0.34838437
-0.34800851
-0.34760839
-0.34719584
-0.34679845
-0.34645924
-0.34620857
-0.34608543
-0.34619225
-0.34666749
-0.34766986
-0.34942104
-0.35219951
-0.35633862
-0.36224907
-0.37042466
-0.38144944
-0.3960016
-0.41474842
-0.43830374
-0.4670985
-0.50122379
-0.53985803
-0.58121755
-0.61841194
-0.64166032
-0.63910684
-0.60986195
-0.55757284
-0.50093028
-0.43151091
-0.36231014
-0.29748776
-0.23783847
-0.18680565
-0.14366155
-0.10949571
-0.081900942
-0.062038744
-0.045283003
-0.035776867
-0.024443709
-0.34746285
-0.34745477
-0.34744493
-0.34743404
-0.3474216
-0.34740728
-0.34739076
-0.34737165
-0.34734948
-0.34732372
-0.34729369
-0.34725862
-0.34721761
-0.34716978
-0.34711361
-0.34704309
-0.3469576
-0.34686187
-0.34675375
-0.34662692
-0.34648085
-0.34631863
-0.34613166
-0.34591497
-0.34567154
-0.34539912
-0.3450977
-0.34477344
-0.34441259
-0.34394688
-0.34335561
-0.34268354
-0.34192019
-0.34099916
-0.33997445
-0.33898778
-0.33834309
-0.33857696
-0.34049535
-0.34508664
-0.35358732
-0.36728857
-0.38743744
-0.41473357
-0.45026735
-0.49303344
-0.53699235
-0.57196701
-0.58866794
-0.58246452
-0.5579168
-0.51096256
-0.46418498
-0.40536587
-0.34519144
-0.28745065
-0.23356971
-0.18660225
-0.14616352
-0.11353276
-0.086587071
-0.066826508
-0.049730125
-0.039803715
-0.027810408
-0.34441214
-0.34441055
-0.34440861
-0.34440641
-0.34440383
-0.34440078
-0.34439714
-0.34439277
-0.34438751
-0.34438113
-0.34437346
-0.34436439
-0.34435249
-0.34433486
-0.34430335
-0.34426423
-0.34423706
-0.34420958
-0.34417661
-0.34414679
-0.34408722
-0.34399651
-0.34391299
-0.34383342
-0.34373672
-0.34361571
-0.34346049
-0.34324647
-0.34294231
-0.34247002
-0.34180748
-0.34092388
-0.33960317
-0.33767854
-0.33506407
-0.33169997
-0.32776638
-0.32378051
-0.32072527
-0.31999005
-0.32337121
-0.3324597
-0.34972591
-0.3786699
-0.41700582
-0.45918183
-0.49794474
-0.52713996
-0.5368081
-0.53384682
-0.50723023
-0.47381475
-0.43133847
-0.38074962
-0.32826666
-0.2769751
-0.22839863
-0.1852871
-0.14751012
-0.11650031
-0.090350818
-0.070862502
-0.053588512
-0.043387524
-0.030845036
-0.34132135
-0.3413298
-0.3413398
-0.34135042
-0.34136199
-0.34137464
-0.34138837
-0.34140325
-0.34141924
-0.341436
-0.34145325
-0.34147613
-0.34150885
-0.34154186
-0.34156394
-0.34157754
-0.34158771
-0.34159513
-0.34160024
-0.34160856
-0.34163756
-0.34167881
-0.34168857
-0.34165867
-0.34163635
-0.34163075
-0.34157806
-0.34144707
-0.34123575
-0.34089275
-0.3403221
-0.33941964
-0.33800736
-0.33586329
-0.33276107
-0.3284885
-0.32295352
-0.31660837
-0.3106801
-0.30646204
-0.30631281
-0.31445738
-0.33288032
-0.3599729
-0.39298662
-0.42940084
-0.46226067
-0.48603018
-0.49226079
-0.48614265
-0.46750973
-0.4373741
-0.4010386
-0.35786127
-0.31195835
-0.26633439
-0.22252447
-0.18301339
-0.14781641
-0.1184741
-0.09323358
-0.074161741
-0.056855064
-0.046513417
-0.033526298
-0.33829847
-0.33832118
-0.33834795
-0.33837632
-0.33840716
-0.33844082
-0.33847738
-0.33851694
-0.33855956
-0.33860526
-0.33865393
-0.33870532
-0.33876087
-0.33882236
-0.33889005
-0.33896292
-0.33903539
-0.33909475
-0.33913271
-0.33915907
-0.33920785
-0.33929799
-0.33939892
-0.33946986
-0.33951137
-0.33956726
-0.3396183
-0.33956835
-0.33937276
-0.33901533
-0.33842835
-0.33749325
-0.33602631
-0.33374795
-0.33047671
-0.3259235
-0.32023355
-0.31398752
-0.30774268
-0.30361526
-0.30425744
-0.31034579
-0.32398311
-0.34629914
-0.37532465
-0.40429341
-0.43164807
-0.44865587
-0.45434995
-0.44442804
-0.43001621
-0.40549014
-0.37403351
-0.33653846
-0.29619363
-0.25556838
-0.21605813
-0.17990043
-0.14718277
-0.1195258
-0.095279435
-0.076744193
-0.059532852
-0.049172583
-0.035840981
-0.33593326
-0.33596707
-0.33600684
-0.33604885
-0.33609442
-0.33614403
-0.33619782
-0.3362559
-0.33631835
-0.3363852
-0.33645639
-0.33653176
-0.33661103
-0.33669374
-0.33677925
-0.33686672
-0.33695519
-0.33704374
-0.33713175
-0.33721818
-0.33730131
-0.33737916
-0.33744978
-0.33749452
-0.33747765
-0.33742599
-0.33740293
-0.3373641
-0.33721819
-0.33692939
-0.336388
-0.33551764
-0.33430594
-0.33255232
-0.33009488
-0.32657546
-0.32200574
-0.31697505
-0.31182907
-0.30774184
-0.30646713
-0.31075711
-0.32227503
-0.34034542
-0.36163287
-0.38282658
-0.40159028
-0.41761075
-0.41704804
-0.41168321
-0.39871678
-0.37701833
-0.34937817
-0.31666643
-0.28106849
-0.24481029
-0.2091385
-0.17607238
-0.14571234
-0.11973116
-0.096537488
-0.07863577
-0.061631619
-0.051361472
-0.03778298
-0.335637
-0.33567011
-0.33570905
-0.33575016
-0.33579472
-0.33584325
-0.33589587
-0.33595271
-0.33601388
-0.33607943
-0.33614932
-0.33622341
-0.33630147
-0.33638311
-0.33646779
-0.33655481
-0.3366433
-0.33673224
-0.33682052
-0.33690683
-0.33699012
-0.33706962
-0.33714385
-0.33721038
-0.33726631
-0.33730889
-0.33733181
-0.33731681
-0.33725888
-0.33712046
-0.33688797
-0.33652573
-0.33581133
-0.33446691
-0.33252208
-0.33015367
-0.32700199
-0.32284091
-0.31832813
-0.31462942
-0.31323285
-0.31575992
-0.3233491
-0.33624316
-0.35061382
-0.36728355
-0.38080005
-0.38533967
-0.38955178
-0.3827216
-0.37029688
-0.3513386
-0.32694503
-0.29812805
-0.26654669
-0.23409909
-0.20185153
-0.17162607
-0.14349335
-0.1191593
-0.097056177
-0.079864897
-0.063165244
-0.053080134
-0.039350607
-0.33730125
-0.33732357
-0.33734983
-0.33737762
-0.33740783
-0.33744081
-0.3374767
-0.33751563
-0.33755771
-0.33760305
-0.33765168
-0.33770361
-0.33775873
-0.33781691
-0.33787791
-0.3379414
-0.33800676
-0.33807363
-0.33814541
-0.33822312
-0.33830115
-0.33837675
-0.33845072
-0.33852225
-0.33859321
-0.33866872
-0.33875056
-0.33884057
-0.3389609
-0.33902459
-0.33890893
-0.33869542
-0.33834536
-0.33770787
-0.33656126
-0.33467819
-0.33203506
-0.32873484
-0.32496104
-0.32146093
-0.31943599
-0.32027185
-0.32501599
-0.33291248
-0.3424153
-0.35310117
-0.36222308
-0.3637536
-0.36367132
-0.35708725
-0.34552766
-0.32834571
-0.30646701
-0.28082893
-0.25263872
-0.22349609
-0.19428582
-0.16665389
-0.14061062
-0.11787845
-0.096885082
-0.080462594
-0.064150917
-0.054332844
-0.040547042
-0.34024241
-0.34025199
-0.3402633
-0.34027533
-0.34028846
-0.34030288
-0.34031867
-0.34033591
-0.34035469
-0.34037507
-0.34039711
-0.34042083
-0.34044625
-0.34047334
-0.34050197
-0.34053155
-0.3405624
-0.34060433
-0.34065641
-0.34069305
-0.34071209
-0.34073594
-0.34077283
-0.34082605
-0.34088046
-0.34097304
-0.3410864
-0.34112437
-0.34115424
-0.34121911
-0.34122588
-0.34111007
-0.34082111
-0.34025703
-0.33931245
-0.33788918
-0.33585833
-0.33316159
-0.32991673
-0.32663046
-0.32420693
-0.32353634
-0.32526123
-0.32922512
-0.33504462
-0.34114218
-0.34347138
-0.34381524
-0.34180112
-0.33469885
-0.32330244
-0.30745185
-0.28763215
-0.26460914
-0.23928776
-0.21301462
-0.18649764
-0.1612276
-0.13713579
-0.11594965
-0.096071106
-0.080460261
-0.064607339
-0.05512621
-0.041374021
-0.34345383
-0.3434561
-0.34345877
-0.34346159
-0.34346464
-0.34346795
-0.3434715
-0.34347527
-0.34347925
-0.34348337
-0.34348754
-0.34349165
-0.34349552
-0.34349892
-0.34350154
-0.34350301
-0.34350298
-0.34350093
-0.3434937
-0.34347972
-0.34346189
-0.34344148
-0.34342159
-0.34339605
-0.34335814
-0.34331178
-0.3432458
-0.343147
-0.34303325
-0.34291773
-0.3427796
-0.34256227
-0.34223598
-0.34174984
-0.34101759
-0.33991633
-0.33828603
-0.33598868
-0.33302372
-0.32975685
-0.32678561
-0.32476771
-0.32449124
-0.32602116
-0.32775406
-0.32821787
-0.32871889
-0.32672222
-0.32243748
-0.31462997
-0.30336084
-0.28846896
-0.27025961
-0.24936908
-0.22646357
-0.20267253
-0.1785369
-0.15541051
-0.13313382
-0.11342993
-0.09465933
-0.079889292
-0.064554216
-0.055470067
-0.041834969
-0.34666116
-0.34666206
-0.34666299
-0.3466638
-0.34666445
-0.34666486
-0.34666492
-0.34666447
-0.34666333
-0.34666123
-0.34665786
-0.34665279
-0.34664551
-0.34663531
-0.34662138
-0.34660268
-0.34657793
-0.34654564
-0.34650396
-0.34645038
-0.34638235
-0.34629771
-0.34619393
-0.34606132
-0.34590308
-0.34572675
-0.3455185
-0.3452741
-0.34499338
-0.34468056
-0.34434947
-0.34400592
-0.34361976
-0.34314414
-0.34249279
-0.3415049
-0.33995964
-0.33766088
-0.33461286
-0.33107404
-0.32742075
-0.32470669
-0.32269533
-0.3209303
-0.3187705
-0.31735999
-0.31490629
-0.31087368
-0.30506665
-0.29655
-0.28522155
-0.27101042
-0.25408776
-0.23495594
-0.21409632
-0.19245905
-0.17043204
-0.14925006
-0.12865823
-0.11036909
-0.092691212
-0.078780206
-0.064011461
-0.055375983
-0.041931872
-0.35040826
-0.35040944
-0.35041057
-0.35041138
-0.35041177
-0.35041158
-0.3504106
-0.35040854
-0.35040504
-0.35039964
-0.35039176
-0.35038068
-0.35036548
-0.35034503
-0.35031792
-0.35028246
-0.35023657
-0.35017778
-0.35010315
-0.35000934
-0.34989256
-0.34974868
-0.34957337
-0.34936222
-0.34911227
-0.34882029
-0.34848255
-0.34810125
-0.34768653
-0.34724794
-0.34679102
-0.34632123
-0.34582465
-0.34524219
-0.34444257
-0.34321512
-0.34131781
-0.33859721
-0.33509303
-0.33090716
-0.32696192
-0.32305612
-0.31863016
-0.31435587
-0.31076875
-0.3067979
-0.30223629
-0.29650623
-0.28927088
-0.2800146
-0.26856165
-0.25484068
-0.23893839
-0.22125627
-0.20213007
-0.18236254
-0.16220367
-0.14278482
-0.12375501
-0.10681158
-0.090205
-0.077162178
-0.06299914
-0.054857735
-0.041669612
-0.35533688
-0.35533632
-0.35533526
-0.35533353
-0.3553309
-0.3553271
-0.35532181
-0.35531458
-0.35530491
-0.35529211
-0.35527537
-0.35525367
-0.35522575
-0.35519007
-0.35514475
-0.35508753
-0.35501571
-0.3549261
-0.35481502
-0.35467826
-0.35451115
-0.35430872
-0.35406588
-0.3537777
-0.35343986
-0.35305064
-0.35261229
-0.35212821
-0.35160419
-0.3510499
-0.35047292
-0.34986452
-0.34917846
-0.34830635
-0.34706724
-0.34523412
-0.34262011
-0.33915652
-0.33483106
-0.33014231
-0.32516634
-0.3194234
-0.31340039
-0.30805821
-0.30244859
-0.29661416
-0.29025738
-0.28300341
-0.27459823
-0.26467569
-0.25305404
-0.2396862
-0.22460614
-0.20813413
-0.19048933
-0.17235478
-0.15385801
-0.13604136
-0.11846089
-0.10279542
-0.087235175
-0.07506246
-0.061537146
-0.053929283
-0.04105548
-0.36203472
-0.36202927
-0.3620223
-0.36201408
-0.3620041
-0.36199193
-0.36197709
-0.36195898
-0.36193687
-0.36190987
-0.36187687
-0.36183655
-0.3617873
-0.36172716
-0.36165381
-0.36156448
-0.36145594
-0.36132445
-0.36116574
-0.36097508
-0.36074731
-0.36047701
-0.36015914
-0.35978978
-0.35936643
-0.35888759
-0.35835414
-0.35777044
-0.35714141
-0.35646705
-0.35573175
-0.3548869
-0.35383151
-0.35240492
-0.35040518
-0.34765286
-0.34405644
-0.339548
-0.33441942
-0.32888867
-0.32210841
-0.3150584
-0.30833095
-0.3012968
-0.29410218
-0.28664934
-0.2787613
-0.27021043
-0.26078192
-0.25024245
-0.2384373
-0.22533199
-0.21092419
-0.19547318
-0.17910474
-0.1624052
-0.14539457
-0.12903852
-0.11280554
-0.098353167
-0.083813068
-0.072506722
-0.059645584
-0.052607809
-0.040094819
-0.37095667
-0.37094347
-0.37092718
-0.3709088
-0.37088744
-0.37086243
-0.3708331
-0.37079866
-0.37075812
-0.3707103
-0.3706538
-0.37058694
-0.37050768
-0.37041363
-0.37030204
-0.37016965
-0.37001273
-0.36982703
-0.36960787
-0.36935038
-0.3690496
-0.36870073
-0.36829922
-0.36784125
-0.36732449
-0.36674837
-0.36611276
-0.36541576
-0.36464809
-0.36378306
-0.36276244
-0.36148197
-0.3597883
-0.35749701
-0.35443923
-0.35052654
-0.34568468
-0.34006558
-0.3339866
-0.32663981
-0.31884102
-0.3109776
-0.30271251
-0.29426631
-0.28562472
-0.27674109
-0.26752498
-0.25783514
-0.24752547
-0.23644387
-0.22446355
-0.21156565
-0.19772415
-0.18315199
-0.16789937
-0.15247434
-0.13680356
-0.1217866
-0.10681168
-0.093511828
-0.07996597
-0.069515815
-0.057341786
-0.050891956
-0.038803963
-0.38260983
-0.38258596
-0.38255691
-0.38252472
-0.38248796
-0.38244569
-0.38239702
-0.38234091
-0.38227613
-0.38220119
-0.38211434
-0.38201359
-0.38189656
-0.38176036
-0.38160182
-0.38141739
-0.38120303
-0.38095429
-0.38066646
-0.38033452
-0.37995344
-0.3795185
-0.37902548
-0.37847064
-0.3778503
-0.37715951
-0.37638887
-0.37551867
-0.37450965
-0.37329113
-0.371751
-0.36973471
-0.36706647
-0.36358516
-0.35920129
-0.35386662
-0.34764619
-0.34091509
-0.33295853
-0.32437949
-0.31553832
-0.30624464
-0.29668066
-0.28689454
-0.27691535
-0.26675112
-0.25636257
-0.24567973
-0.23460728
-0.22305365
-0.21092099
-0.19820326
-0.18485692
-0.17105939
-0.15679926
-0.14252092
-0.12807062
-0.11429014
-0.10049658
-0.088294505
-0.075720172
-0.066115264
-0.054653095
-0.048830326
-0.03720098
-0.39749653
-0.39745918
-0.39741401
-0.39736444
-0.39730847
-0.39724484
-0.39717248
-0.39709
-0.39699565
-0.39688767
-0.39676781
-0.39663537
-0.39647592
-0.39628295
-0.39606647
-0.39582449
-0.39554706
-0.3952294
-0.39486684
-0.39445432
-0.39398644
-0.3934576
-0.39286159
-0.39219058
-0.39143314
-0.39057051
-0.38957063
-0.38837972
-0.38691281
-0.38504724
-0.38262501
-0.37947255
-0.37543786
-0.37042347
-0.36440311
-0.3574329
-0.34988838
-0.34125137
-0.33179764
-0.32200532
-0.31173235
-0.30109951
-0.29019203
-0.27908878
-0.26785097
-0.2565143
-0.24508113
-0.2335289
-0.22180366
-0.2098561
-0.19761057
-0.18507092
-0.17217994