/*--------------------------------*- C++ -*----------------------------------*\
  =========                 |
  \\      /  F ield         | OpenFOAM: The Open Source CFD Toolbox
   \\    /   O peration     | Website:  https://openfoam.org
    \\  /    A nd           | Version:  13
     \\/     M anipulation  |
\*---------------------------------------------------------------------------*/
FoamFile
{
    format      ascii;
    class       volSymmTensorField;
    location    "8.200645";
    object      UPrime2Mean;
}
// * * * * * * * * * * * * * * * * * * * * * * * * * * * * * * * * * * * * * //

dimensions      [0 2 -2 0 0 0 0];

internalField   nonuniform List<symmTensor> 
17140
(
(2.4176188e-12 -9.8111717e-11 -7.3789085e-27 4.1491686e-09 1.407943e-25 3.6599683e-40)
(4.145812e-10 -3.9353026e-09 -4.0402562e-27 3.9118617e-08 3.1458887e-26 3.1390011e-42)
(3.7413026e-09 -2.0456994e-08 7.0614098e-25 1.1776983e-07 -3.3908742e-24 1.3678822e-38)
(1.7557668e-08 -6.4579381e-08 -1.5737342e-24 2.5084553e-07 5.2808625e-24 1.6523424e-38)
(5.851434e-08 -1.5777061e-07 3.2348996e-25 4.502255e-07 -8.1604736e-25 2.2568095e-40)
(1.5968166e-07 -3.312482e-07 -1.7094838e-24 7.2869202e-07 3.3860994e-24 2.4155107e-39)
(3.8198548e-07 -6.2870711e-07 -4.3942632e-24 1.0995019e-06 7.0184524e-24 6.8401256e-39)
(8.3177822e-07 -1.1094971e-06 3.1469034e-24 1.5758059e-06 -4.1262687e-24 1.6284457e-39)
(1.6873688e-06 -1.8521771e-06 1.4661045e-23 2.1697869e-06 -1.5987524e-23 1.7422082e-38)
(3.2379848e-06 -2.9580795e-06 4.9987582e-23 2.8915486e-06 -4.5774411e-23 1.0463162e-37)
(5.9395443e-06 -4.554426e-06 -1.0109618e-22 3.7477201e-06 7.8313113e-23 2.2958673e-37)
(1.0492446e-05 -6.7963486e-06 1.2096636e-22 4.7398312e-06 -7.9716561e-23 1.8186986e-37)
(1.794708e-05 -9.8669393e-06 2.4533827e-23 5.8625719e-06 -1.3813275e-23 4.2474099e-39)
(2.984257e-05 -1.3974278e-05 -1.817429e-22 7.1021367e-06 8.7707275e-23 1.3534505e-37)
(4.8383175e-05 -1.9344438e-05 2.616737e-23 8.4349659e-06 -1.0849191e-23 1.6607977e-39)
(7.6654246e-05 -2.620985e-05 -2.6632946e-22 9.8273327e-06 9.5018567e-23 1.0363804e-37)
(0.00011887545 -3.4793238e-05 1.2623687e-23 1.1236258e-05 -3.8793683e-24 1.4260926e-40)
(0.00018068505 -4.5289088e-05 -3.57628e-24 1.2612185e-05 9.4702807e-25 7.0865993e-42)
(0.00026944632 -5.7846968e-05 -3.174393e-22 1.3903725e-05 7.2457842e-23 3.5331203e-38)
(0.00039456991 -7.2563543e-05 5.1101056e-22 1.5064237e-05 -1.0052533e-22 5.8646783e-38)
(0.00056786161 -8.9492063e-05 -3.0277645e-22 1.6059354e-05 5.1321322e-23 1.3391052e-38)
(0.00080393185 -0.00010867725 7.0356843e-23 1.6874041e-05 -1.0274596e-23 4.7868541e-40)
(0.0011208323 -0.00013022019 6.2534755e-22 1.751699e-05 -7.8668283e-23 2.5420438e-38)
(0.0015412369 -0.00015436893 -7.4412721e-22 1.8020379e-05 8.0649682e-23 2.464709e-38)
(0.0020927039 -0.00018158106 -1.3991352e-21 1.8435459e-05 1.3069801e-22 6.0788938e-38)
(0.0028102817 -0.00021252083 1.3146231e-21 1.8820412e-05 -1.0591e-22 3.8165329e-38)
(0.0037420439 -0.00024804882 7.4832611e-21 1.9215828e-05 -5.1998315e-22 8.950575e-37)
(0.0049482662 -0.0002891729 1.0139304e-21 1.9648337e-05 -6.0743093e-23 1.2091437e-38)
(0.0065057228 -0.0003368633 -1.0159875e-20 2.0130995e-05 5.2423976e-22 9.0938772e-37)
(0.0085157271 -0.00039206569 -2.6977755e-21 2.0655319e-05 1.1961452e-22 4.8671535e-38)
(0.011106023 -0.00045552485 -1.0874645e-20 2.1198073e-05 4.1294144e-22 6.0907865e-37)
(0.014437634 -0.00052770729 1.6098768e-20 2.172495e-05 -5.212429e-22 1.0409775e-36)
(0.018710415 -0.0006087191 -4.7004866e-21 2.2196692e-05 1.2904422e-22 6.9960577e-38)
(0.024168869 -0.00069813793 -2.5055798e-21 2.2568654e-05 5.7903924e-23 1.5866472e-38)
(0.031107348 -0.00079488056 -2.7395295e-20 2.2795034e-05 5.2818891e-22 1.5276825e-36)
(0.039873677 -0.00089697306 1.3310179e-20 2.2828518e-05 -2.1146312e-22 2.9394886e-37)
(0.050869257 -0.0010012072 -2.212595e-20 2.2618551e-05 2.8499359e-22 6.6808458e-37)
(0.064543598 -0.0011027559 -1.6439162e-20 2.2114087e-05 1.6766584e-22 3.0659134e-37)
(0.081379264 -0.0011947695 -8.2224397e-21 2.1272593e-05 6.4113559e-23 6.4411047e-38)
(0.10186305 -0.0012675421 2.7049393e-20 2.0061134e-05 -1.5209005e-22 5.9245939e-37)
(0.12643988 -0.0013084844 5.5084878e-20 1.8499303e-05 -2.0072258e-22 2.1099685e-36)
(0.15544425 -0.001301803 5.3549216e-20 1.6692157e-05 -9.7210607e-23 1.7338842e-36)
(0.1890093 -0.0012298888 2.4848712e-20 1.4895433e-05 -2.5494037e-24 3.291219e-37)
(0.22699762 -0.001074926 -1.2754737e-19 1.3548347e-05 -1.9293364e-22 7.745615e-36)
(0.26891172 -0.00082254484 -9.741527e-20 1.3267665e-05 -2.9843171e-22 4.1053545e-36)
(0.31383492 -0.00047015325 2.4744961e-20 1.4629922e-05 1.1263772e-22 2.4522108e-37)
(0.36051729 -1.5791195e-05 -1.7199426e-19 1.7873202e-05 -1.0301263e-21 1.1185058e-35)
(0.4070824 0.0005393225 -5.8993583e-20 2.2820364e-05 -4.3560235e-22 1.270978e-36)
(0.4511639 0.0011911276 5.990456e-20 2.8887054e-05 5.2389107e-22 1.2978661e-36)
(0.49012457 0.0019171688 1.4412308e-19 3.5748728e-05 1.450577e-21 7.6417716e-36)
(0.52069241 0.002713049 -8.592667e-20 4.3072172e-05 -9.7751626e-22 2.8453368e-36)
(0.53826978 0.003569123 -5.1652766e-20 5.1527423e-05 -6.5800024e-22 1.1129073e-36)
(0.53979288 0.0043558511 1.2611912e-19 6.140321e-05 1.7810783e-21 7.4260587e-36)
(0.52238112 0.0049908599 5.4718009e-20 7.1885904e-05 8.5234797e-22 1.6278558e-36)
(0.4842119 0.0054429811 3.5004193e-20 8.2398225e-05 6.0275249e-22 8.1189536e-37)
(0.42570365 0.0056020848 -2.4139141e-20 9.1158238e-05 -4.5990166e-22 4.9254611e-37)
(0.35056297 0.0053685146 5.5261573e-20 9.5418753e-05 1.1671439e-21 3.5262962e-36)
(0.26745961 0.0047060257 3.8172665e-20 9.2003416e-05 8.8896095e-22 2.4231459e-36)
(0.18780439 0.0037171521 7.6789242e-21 7.9609032e-05 1.9570547e-22 1.5002447e-37)
(0.12153415 0.0026207 -1.554528e-20 6.0568019e-05 -4.2849758e-22 9.8560718e-37)
(0.073421181 0.0016646672 -9.3706336e-21 4.0721401e-05 -2.7804872e-22 5.986247e-37)
(0.042157146 0.00098031093 -2.6360097e-20 2.5145822e-05 -8.4469958e-22 8.1429702e-36)
(0.023197057 0.00054694234 -2.8964747e-21 1.4821222e-05 -1.0231671e-22 1.7444479e-37)
(0.01248566 0.00029667754 1.7888067e-20 8.6403146e-06 7.2030243e-22 1.2316456e-35)
(0.0064947897 0.0001601381 -9.6472656e-21 5.3313754e-06 -4.9958024e-22 7.3589793e-36)
(2.542441e-10 -5.9317751e-09 1.1251521e-26 1.3844666e-07 -2.3245092e-25 2.9639746e-41)
(4.1226615e-09 -7.3369926e-08 -3.8692939e-24 1.3061629e-06 6.3362932e-23 3.7665507e-37)
(1.8678317e-08 -2.709937e-07 6.8565429e-24 3.9334975e-06 -9.1844342e-23 2.9815056e-37)
(5.8417616e-08 -6.995646e-07 -3.1803904e-24 8.3826073e-06 3.5370248e-23 2.2147556e-38)
(1.495612e-07 -1.5e-06 -1.0285182e-23 1.505576e-05 9.6425224e-23 9.4454969e-38)
(3.3852231e-07 -2.871891e-06 2.921605e-23 2.4387192e-05 -2.3347372e-22 3.4460767e-37)
(7.0413047e-07 -5.0895984e-06 -4.3686012e-23 3.6830365e-05 2.9977795e-22 3.7411014e-37)
(1.3759741e-06 -8.5209963e-06 5.3710743e-24 5.283841e-05 -3.1815852e-23 2.8943441e-39)
(2.5615748e-06 -1.3648598e-05 -2.2949733e-23 7.2836206e-05 1.1781501e-22 2.817041e-38)
(4.5856431e-06 -2.1091075e-05 -5.2261456e-25 9.7183097e-05 2.332258e-24 8.0338582e-42)
(7.9455114e-06 -3.1622662e-05 -1.3701834e-22 0.00012612609 5.3278598e-22 3.1274842e-37)
(1.3387598e-05 -4.6186808e-05 2.8589657e-22 0.00015974467 -9.7041798e-22 7.8740237e-37)
(2.201028e-05 -6.589932e-05 3.0704554e-23 0.00019789105 -9.1097473e-23 5.3523672e-39)
(3.5398395e-05 -9.2035067e-05 -3.9060389e-22 0.00024013246 1.0138743e-21 5.1902057e-37)
(5.5793571e-05 -0.00012599237 1.5337253e-22 0.00028570655 -3.4846693e-22 4.866615e-38)
(8.6302439e-05 -0.00016923114 1.2357652e-22 0.00033350453 -2.4580445e-22 1.9475222e-38)
(0.00013114153 -0.00022318586 -9.8727055e-22 0.00038209985 1.7189965e-21 7.7605208e-37)
(0.00019591392 -0.0002891636 4.0201569e-21 0.00042983969 -6.1250788e-21 8.1360166e-36)
(0.00028791081 -0.00036825032 -3.1221652e-21 0.00047500927 4.1603737e-21 3.1421852e-36)
(0.00041643531 -0.00046126502 4.6028493e-21 0.00051606505 -5.3612186e-21 4.430458e-36)
(0.00059315891 -0.00056881243 -8.2970771e-21 0.00055190917 8.4430375e-21 9.4711014e-36)
(0.00083254696 -0.00069148161 2.4603796e-21 0.0005821498 -2.1865608e-21 5.5615493e-37)
(0.0011525086 -0.00083023455 1.2150748e-21 0.00060727107 -9.4299803e-22 9.2037074e-38)
(0.0015755815 -0.00098697838 -4.7178649e-21 0.00062864294 3.1980388e-21 9.5691947e-37)
(0.0021293406 -0.0011648194 1.9967322e-20 0.00064834833 -1.1829557e-20 1.2033434e-35)
(0.0028486032 -0.001368366 3.4756244e-21 0.00066868975 -1.8014385e-21 2.6037902e-37)
(0.003781185 -0.0016037942 -2.0833373e-20 0.00069130348 9.4547777e-21 6.8072999e-36)
(0.0049872829 -0.0018782935 2.683334e-20 0.00071755573 -1.0668559e-20 8.3466726e-36)
(0.006542924 -0.002199523 -4.2105881e-21 0.00074828595 1.4670777e-21 1.5450359e-37)
(0.0085485959 -0.0025757987 -4.6817259e-20 0.00078364899 1.4289296e-20 1.4524125e-35)
(0.011130742 -0.0030151605 5.4838103e-21 0.00082331664 -1.4651742e-21 1.5393905e-37)
(0.014448511 -0.003525231 4.7286901e-20 0.00086658448 -1.104891e-20 8.9319759e-36)
(0.018699247 -0.0041128317 1.3388071e-21 0.00091248253 -2.7333387e-22 5.6149546e-39)
(0.024124129 -0.0047834251 -4.4122955e-20 0.00095979705 7.8554164e-21 4.9096933e-36)
(0.031013079 -0.0055402921 5.4766779e-20 0.0010070436 -8.4917231e-21 6.1083195e-36)
(0.039708328 -0.0063834033 -2.7330848e-20 0.0010524198 3.6835164e-21 1.2405586e-36)
(0.050604016 -0.0073077152 3.5477305e-20 0.0010937429 -4.1440336e-21 1.724528e-36)
(0.064139998 -0.0083008178 1.2397082e-19 0.0011284015 -1.2506574e-20 1.752042e-35)
(0.080786582 -0.0093399728 3.0362808e-20 0.0011534149 -2.6316044e-21 8.8330646e-37)
(0.10101462 -0.010388507 1.2898227e-19 0.0011656743 -9.5273627e-21 1.3558034e-35)
(0.12524812 -0.011392729 -1.7840018e-19 0.0011626485 1.110335e-20 2.2317277e-35)
(0.15379452 -0.012280793 -1.7616556e-19 0.0011436673 9.0897646e-21 1.8932054e-35)
(0.18675285 -0.01296633 -3.212827e-20 0.0011116076 1.3421404e-21 5.5421625e-37)
(0.22393741 -0.013357698 2.7070046e-19 0.0010740451 -8.7645888e-21 3.5340339e-35)
(0.26478287 -0.013368659 -1.3396831e-19 0.0010426379 3.1618333e-21 7.8673389e-36)
(0.30831853 -0.0129358 -4.8056972e-20 0.0010292083 7.3057364e-22 9.3806199e-37)
(0.35309892 -0.011997547 2.6290637e-20 0.0010364037 -1.8303692e-22 2.6675352e-37)
(0.3972762 -0.010515782 8.2900125e-20 0.0010531376 7.3390448e-23 2.5651014e-36)
(0.43860061 -0.0084770973 -4.0400296e-20 0.0010579144 -3.4329639e-22 6.0567026e-37)
(0.47419181 -0.0058386385 7.1938372e-20 0.001036981 1.1443529e-21 1.9609938e-36)
(0.50065576 -0.0025275711 4.1881447e-19 0.00098755712 9.7416031e-21 6.9977093e-35)
(0.51440652 0.00133969 1.9028435e-20 0.0009412999 5.8422596e-22 1.5717932e-37)
(0.51210185 0.005475884 -8.0060734e-20 0.00093779999 -3.064408e-21 3.1384388e-36)
(0.49103832 0.0096332895 1.6299585e-19 0.00099254695 7.5784324e-21 1.5278755e-35)
(0.450139 0.013436966 -1.2447966e-19 0.0011061047 -6.9255029e-21 1.095297e-35)
(0.3902707 0.016347629 3.0747654e-19 0.0012637225 2.0271168e-20 8.6703678e-35)
(0.31556832 0.017659612 7.4137097e-20 0.0014202092 5.7260561e-21 6.9395762e-36)
(0.2349781 0.016815701 -1.7073925e-19 0.0014953048 -1.5185194e-20 5.4176256e-35)
(0.15973451 0.014022256 2.3072422e-20 0.0014119962 2.3092637e-21 1.5407383e-36)
(0.099069436 0.010199188 2.0352522e-20 0.0011621713 2.2350385e-21 1.983815e-36)
(0.056621787 0.0065460215 3.0956577e-21 0.00083404628 3.6524588e-22 7.9195287e-38)
(0.030184274 0.0038090639 -3.0743419e-20 0.00054032489 -3.8588182e-21 1.3908887e-35)
(0.015132198 0.002044192 4.39826e-20 0.00032710623 5.926968e-21 5.2701819e-35)
(0.0073425147 0.0010367845 9.4595604e-21 0.0001929369 1.4055219e-21 4.7216644e-36)
(0.0034706775 0.00048721764 1.0684135e-20 0.00011225677 1.9596384e-21 1.3038294e-35)
(2.2169872e-09 -3.165319e-08 1.7021288e-24 4.5195045e-07 -2.3269002e-23 9.008975e-38)
(2.5239955e-08 -3.28115e-07 -2.7703595e-24 4.2656046e-06 3.4737566e-23 3.4408396e-38)
(8.9725009e-08 -1.0737658e-06 -1.307528e-24 1.2850788e-05 1.5038122e-23 2.4328002e-39)
(2.2758294e-07 -2.4970152e-06 1.9128773e-24 2.7399105e-05 -2.0135318e-23 2.186231e-39)
(4.8810025e-07 -4.9020996e-06 -1.3368838e-23 4.9238013e-05 1.2875031e-22 5.130938e-38)
(9.4842483e-07 -8.6994117e-06 -1.3781286e-24 7.9805987e-05 1.2133332e-23 2.8345382e-40)
(1.7271655e-06 -1.4432017e-05 -2.3770075e-23 0.00012061308 1.9100138e-22 4.6241789e-38)
(3.0039421e-06 -2.2805882e-05 -3.392328e-23 0.00017317917 2.4827206e-22 5.362052e-38)
(5.0474016e-06 -3.4723553e-05 3.6204858e-22 0.00023894513 -2.4079961e-21 3.57685e-36)
(8.2544328e-06 -5.1317841e-05 -4.1750797e-22 0.00031915306 2.5178247e-21 2.8464549e-36)
(1.3204121e-05 -7.3981464e-05 2.5580018e-22 0.00041469446 -1.3955524e-21 6.5044187e-37)
(2.0730637e-05 -0.00010438682 4.7641505e-22 0.00052592961 -2.3460218e-21 1.3925661e-36)
(3.2019678e-05 -0.00014448815 -1.1934729e-21 0.00065248898 5.2926907e-21 5.4569824e-36)
(4.8733193e-05 -0.00019649712 -1.8561868e-22 0.00079307784 7.396291e-22 8.3240849e-38)
(7.3166263e-05 -0.00026282238 8.9588169e-22 0.0009453184 -3.2001492e-21 1.2340281e-36)
(0.00010843877 -0.00034596753 7.6610823e-22 0.0011056778 -2.4475129e-21 5.7902256e-37)
(0.0001587223 -0.00044838999 -1.0996146e-21 0.001269541 3.1345116e-21 7.7168537e-37)
(0.00022950091 -0.00057233846 4.9012465e-21 0.0014314869 -1.2436904e-20 1.000072e-35)
(0.00032786263 -0.00071970744 -3.546887e-21 0.0015858093 7.9934274e-21 3.4472355e-36)
(0.00046282527 -0.00089197571 2.134434e-21 0.0017272751 -4.2628448e-21 8.2960911e-37)
(0.00064571048 -0.0010903131 -8.6995983e-21 0.0018520377 1.5366786e-20 9.2612787e-36)
(0.00089060171 -0.0013159362 -2.7151772e-21 0.001958533 4.2345004e-21 6.1356626e-37)
(0.0012150142 -0.0015707822 6.743581e-21 0.0020481037 -9.2730848e-21 2.6096651e-36)
(0.0016410755 -0.0018585096 -1.1985371e-20 0.002125101 1.4517223e-20 5.7659144e-36)
(0.0021962774 -0.0021850718 -5.5284141e-21 0.0021963564 5.8951819e-21 8.7117969e-37)
(0.0029147399 -0.002558909 7.714397e-21 0.0022696438 -7.2424219e-21 1.2258547e-36)
(0.0038435092 -0.0029915165 5.052976e-20 0.0023507498 -4.1760276e-20 3.8565762e-35)
(0.0050424107 -0.0034962695 2.6197236e-20 0.0024443465 -1.9056266e-20 7.7186424e-36)
(0.0065855321 -0.0040871859 -1.4889423e-20 0.0025535428 9.5311428e-21 1.8861473e-36)
(0.0085712137 -0.004779785 1.8071333e-20 0.0026792028 -1.017317e-20 2.1246765e-36)
(0.011122636 -0.0055891302 -1.274292e-20 0.0028205238 6.3038823e-21 8.2161354e-37)
(0.014394437 -0.0065297266 -8.116353e-20 0.0029754495 3.5251746e-20 2.6120897e-35)
(0.018577803 -0.0076147837 3.0442654e-20 0.0031409654 -1.1596937e-20 2.9169e-36)
(0.023905769 -0.0088553242 1.0147871e-19 0.0033132289 -3.3870083e-20 2.5985548e-35)
(0.030657665 -0.010258641 -3.7658044e-20 0.0034873975 1.0996532e-20 2.9037563e-36)
(0.039161726 -0.011826198 -5.848717e-20 0.0036574672 1.4921684e-20 5.7267649e-36)
(0.049793999 -0.013550547 1.1194004e-19 0.0038160409 -2.4895256e-20 1.7338183e-35)
(0.062971029 -0.015410963 3.7591011e-20 0.0039541305 -7.2664134e-21 1.6309805e-36)
(0.079132677 -0.017367783 -7.3190343e-20 0.0040612661 1.2238146e-20 5.2204973e-36)
(0.098710429 -0.019355825 -3.1965956e-20 0.0041263613 4.5945547e-21 8.4925735e-37)
(0.12207716 -0.02127812 1.6644436e-19 0.0041398536 -2.0378803e-20 1.9837245e-35)
(0.14947343 -0.023003483 -5.0678947e-20 0.0040980553 5.2025064e-21 1.6103262e-36)
(0.18091362 -0.024372401 -7.8417463e-20 0.0040088406 6.6290091e-21 3.4055201e-36)
(0.21610111 -0.02521462 -2.2184091e-19 0.0038960692 1.4957721e-20 2.4457826e-35)
(0.25434527 -0.025372966 4.4251841e-19 0.0037977771 -2.2594034e-20 8.8991923e-35)
(0.29453312 -0.024733821 -2.9739608e-19 0.0037516962 1.0531798e-20 3.7437403e-35)
(0.33517456 -0.023222801 -7.7013834e-20 0.0037639164 1.575889e-21 2.385414e-36)
(0.37444287 -0.020795465 -3.0848304e-19 0.0037951326 1.7508325e-21 3.7391309e-35)
(0.41009874 -0.0173957 -3.6920864e-19 0.0037722256 -3.1576179e-21 5.3642382e-35)
(0.43943299 -0.012940538 -1.8447123e-20 0.0036373771 -4.0635216e-22 1.3761526e-37)
(0.45937312 -0.0073695472 7.546391e-20 0.0033955812 2.7340551e-21 2.4535487e-36)
(0.46673373 -0.00082264604 -5.2739978e-19 0.0031431892 -2.6575882e-20 1.3170529e-34)
(0.45861846 0.0062723318 -2.0934903e-19 0.0030079438 -1.3614243e-20 2.3692669e-35)
(0.43318542 0.013369331 -1.9596056e-19 0.003063781 -1.5861222e-20 2.4716093e-35)
(0.3901077 0.019822233 -5.7245887e-20 0.0033219816 -5.6625688e-21 2.6320083e-36)
(0.33079968 0.024750402 -3.8167056e-19 0.0037433968 -4.5577098e-20 1.5508107e-34)
(0.25971984 0.026943994 1.2684342e-19 0.0041979652 1.8055274e-20 2.41173e-35)
(0.1858861 0.025467521 -3.1117445e-20 0.004430927 -5.1849043e-21 2.2031541e-36)
(0.11984617 0.020781686 -1.9989058e-19 0.0041843672 -3.7990475e-20 1.4658728e-34)
(0.069410234 0.014587207 -6.0467402e-20 0.0034248919 -1.2757675e-20 2.2963461e-35)
(0.036227629 0.0088868138 5.3539816e-20 0.0024280649 1.2261316e-20 3.2389869e-35)
(0.017180646 0.0047992326 1.3474733e-19 0.0015376929 3.3053257e-20 3.8223245e-34)
(0.0075017618 0.0023154437 -3.0946147e-20 0.00089458282 -8.1667487e-21 3.8974716e-35)
(0.003218094 0.0010128333 -3.5157888e-20 0.00049849646 -1.0208869e-20 1.0124396e-34)
(0.0015038921 0.00038687552 -1.0052129e-20 0.00026875524 -3.5802039e-21 1.8570311e-35)
(8.7499632e-09 -8.8965438e-08 -1.122571e-23 9.0456813e-07 1.1167333e-22 1.01036e-36)
(9.0045994e-08 -8.7707264e-07 3.7550825e-23 8.5430354e-06 -3.5845911e-22 1.7887457e-36)
(2.9428067e-07 -2.7529372e-06 -2.3059406e-23 2.5753743e-05 2.1070884e-22 2.337821e-37)
(6.8572027e-07 -6.1382772e-06 3.7056703e-24 5.494919e-05 -3.2322749e-23 2.7617335e-39)
(1.3544484e-06 -1.1569376e-05 -1.0146159e-22 9.8828021e-05 8.4298666e-22 1.0788386e-36)
(2.4289537e-06 -1.9733373e-05 1.4003197e-22 0.00016032997 -1.1054984e-21 1.154269e-36)
(4.091164e-06 -3.1500361e-05 -2.7637419e-22 0.00024256324 2.0670164e-21 2.6540512e-36)
(6.5969869e-06 -4.7958462e-05 1.6624344e-22 0.00034868716 -1.1739745e-21 5.870036e-37)
(1.0304639e-05 -7.0451855e-05 7.9785706e-22 0.00048174161 -5.3011491e-21 8.4756163e-36)
(1.5712759e-05 -0.00010061702 -2.3989146e-22 0.00064441333 1.4941516e-21 4.893618e-37)
(2.3511212e-05 -0.00014041263 -1.1344052e-21 0.00083873606 6.5985807e-21 7.0860662e-36)
(3.464788e-05 -0.00019213608 4.2763773e-22 0.0010657281 -2.314183e-21 6.5899456e-37)
(5.0415203e-05 -0.00025841776 3.5136876e-23 0.0013249863 -1.7621141e-22 2.936245e-39)
(7.2560413e-05 -0.00034218295 -1.6853982e-21 0.0016142744 7.8021704e-21 4.4836546e-36)
(0.0001034235 -0.00044657224 6.4389408e-21 0.0019291723 -2.7405265e-20 4.3685429e-35)
(0.00014610585 -0.00057481431 -4.8128587e-21 0.0022628802 1.8757705e-20 1.6370118e-35)
(0.00020467309 -0.0007300577 -5.5670747e-23 0.0026062986 1.9788036e-22 1.4754302e-39)
(0.00028439421 -0.00091518407 3.9097567e-21 0.0029485105 -1.2623204e-20 4.9282702e-36)
(0.00039201981 -0.0011326519 -1.196927e-20 0.0032777647 3.4962749e-20 3.1444131e-35)
(0.00053611123 -0.001384457 6.7817747e-21 0.0035829705 -1.7853697e-20 6.9172039e-36)
(0.00072743763 -0.001672313 1.2084436e-20 0.0038555707 -2.8567895e-20 1.5165691e-35)
(0.00097947797 -0.0019981545 5.8150126e-21 0.0040914563 -1.23033e-20 2.4468498e-36)
(0.0013091161 -0.0023650342 -3.3976634e-20 0.004292419 6.4150514e-20 5.8848852e-35)
(0.0017378 -0.0027784539 -2.0841948e-20 0.0044665806 3.5029179e-20 1.5783404e-35)
(0.0022927577 -0.0032474334 1.5703717e-20 0.0046274687 -2.3448907e-20 6.4737908e-36)
(0.003007061 -0.0037840594 -1.0612681e-20 0.0047912535 1.4060733e-20 2.1644125e-36)
(0.0039264742 -0.0044051416 4.5757714e-20 0.0049709749 -5.3733587e-20 2.9904355e-35)
(0.0051100444 -0.0051300694 -1.504071e-20 0.0051762311 1.5637655e-20 2.4329621e-36)
(0.0066289751 -0.0059786384 4.6151105e-20 0.0054140863 -4.2442997e-20 1.7478999e-35)
(0.0085780432 -0.0069731177 -2.9550837e-20 0.0056870746 2.4012768e-20 5.5391501e-36)
(0.011075429 -0.0081350827 2.0628681e-20 0.0059940413 -1.4794698e-20 2.1095118e-36)
(0.014268731 -0.009485265 -8.5036369e-20 0.006331097 5.3765735e-20 2.834759e-35)
(0.018339664 -0.011042561 1.3675656e-20 0.0066922253 -7.613711e-21 5.8614313e-37)
(0.023508712 -0.012822699 -8.0546546e-20 0.0070694886 3.9442045e-20 1.6390244e-35)
(0.030038742 -0.014836101 8.5776788e-20 0.0074527992 -3.6892179e-20 1.5147439e-35)
(0.038236392 -0.017084695 3.0442541e-20 0.0078294505 -1.1484868e-20 1.5662363e-36)
(0.048449861 -0.019557402 -4.1910876e-19 0.0081835705 1.3832376e-19 2.4704072e-34)
(0.061059738 -0.02222372 -1.2028567e-19 0.0084957185 3.4644334e-20 1.705516e-35)
(0.076459788 -0.025025344 1.0912032e-19 0.0087430548 -2.7306617e-20 1.1898014e-35)
(0.095022537 -0.027866229 -1.1673529e-19 0.0089010456 2.5232666e-20 1.1658157e-35)
(0.11704567 -0.030603343 3.2521187e-20 0.0089481452 -6.0196711e-21 7.8268294e-37)
(0.14267542 -0.033043049 2.1892041e-19 0.0088750255 -3.4244711e-20 3.1128323e-35)
(0.17181297 -0.034951291 -1.0843653e-20 0.0086975427 1.4060705e-21 6.8045855e-38)
(0.20402734 -0.036082806 -8.3000857e-20 0.0084672138 8.6753304e-21 3.5879768e-36)
(0.2385065 -0.036229038 4.2297118e-20 0.0082678606 -3.3696906e-21 8.6126607e-37)
(0.27407536 -0.035265038 -2.2093127e-20 0.0081797435 1.2841822e-21 2.1662907e-37)
(0.30928483 -0.033142969 -6.4969439e-20 0.008212425 2.2645631e-21 1.8170805e-36)
(0.34244075 -0.029845127 1.0095555e-18 0.0082702624 -1.2906706e-20 4.3312856e-34)
(0.37153269 -0.025297249 -1.1240009e-19 0.0081807614 -9.9454229e-22 5.4258192e-36)
(0.39412497 -0.019350018 1.0161531e-19 0.007808438 3.0108527e-21 4.6206751e-36)
(0.4074167 -0.011910326 -9.1826172e-19 0.0071799601 -4.643069e-20 4.0586166e-34)
(0.40858906 -0.0031956988 4.7434795e-19 0.0065160516 3.4123166e-20 1.2070382e-34)
(0.39538533 0.0061874568 3.6061278e-19 0.0060865977 3.4103655e-20 8.0720876e-35)
(0.36681338 0.01545289 3.1048732e-19 0.0060524997 3.7118898e-20 7.2463666e-35)
(0.32334089 0.02373906 2.627073e-19 0.0064437726 3.8906999e-20 6.6079313e-35)
(0.26690297 0.029929015 3.5143967e-19 0.0071901178 6.3737067e-20 1.5992202e-34)
(0.20207076 0.032423838 -5.7904698e-19 0.008039855 -1.2694917e-19 6.2810368e-34)
(0.13772581 0.030078301 2.8324441e-19 0.0084689387 7.3595084e-20 2.3419767e-34)
(0.083306317 0.023751746 3.3011007e-19 0.0079442443 9.9065597e-20 5.3183642e-34)
(0.044530462 0.01591862 -1.8128562e-19 0.0064192634 -6.0924034e-20 2.8346599e-34)
(0.021032305 0.0091161097 -4.2398789e-20 0.0044635618 -1.5528496e-20 2.8681802e-35)
(0.0089291752 0.0045391509 -2.6824957e-20 0.0027418693 -1.0481687e-20 2.1746689e-35)
(0.0035694109 0.00197521 9.8489091e-20 0.0015280974 4.0833746e-20 5.6318698e-34)
(0.0015839113 0.00076436281 5.1707956e-20 0.00080348942 2.2973691e-20 3.0385866e-34)
(0.00092468325 0.00026207694 -1.5616113e-21 0.00040703065 -8.2409456e-22 5.8975267e-37)
(2.3242219e-08 -1.8231109e-07 1.3028402e-23 1.430047e-06 -1.0088075e-22 5.0095204e-37)
(2.2961704e-07 -1.7617913e-06 -8.9046438e-23 1.3517863e-05 6.7419696e-22 3.8615208e-36)
(7.2366057e-07 -5.4328651e-06 1.2074501e-22 4.0787825e-05 -8.9197963e-22 2.5659844e-36)
(1.6218646e-06 -1.1886249e-05 -6.6053235e-23 8.7114357e-05 4.7519848e-22 3.6636695e-37)
(3.0773927e-06 -2.196994e-05 -3.2374865e-23 0.00015685538 2.2641616e-22 4.7802151e-38)
(5.2938274e-06 -3.6724733e-05 3.6406514e-22 0.0002547914 -2.4700397e-21 3.5383742e-36)
(8.5410483e-06 -5.7416501e-05 -1.1751997e-22 0.00038602456 7.7157638e-22 2.2689646e-37)
(1.3175746e-05 -8.5568634e-05 -3.1244376e-22 0.00055580775 1.9794699e-21 1.0224788e-36)
(1.9668639e-05 -0.00012299494 -2.9629302e-23 0.00076929133 1.8057411e-22 6.0156861e-39)
(2.8639643e-05 -0.00017182745 -3.0816023e-22 0.0010311687 1.8005844e-21 4.3379244e-37)
(4.0903211e-05 -0.00023453456 5.2456153e-22 0.0013452131 -2.9281092e-21 8.4976209e-37)
(5.7526279e-05 -0.00031392251 -4.4084932e-22 0.0017137054 2.3420482e-21 4.0997061e-37)
(7.9901981e-05 -0.00041311252 -1.9563918e-21 0.0021367765 9.8525396e-21 5.5570604e-36)
(0.00010984221 -0.0005354843 -6.8266231e-23 0.0026117163 3.2454199e-22 4.6811678e-39)
(0.00014969324 -0.00068457974 2.1501157e-21 0.0031323439 -9.6070341e-21 3.2300783e-36)
(0.00020247922 -0.00086396619 1.8199771e-21 0.0036885858 -7.6080698e-21 1.6144041e-36)
(0.00027207821 -0.0010770673 -1.867651e-21 0.0042664533 7.2698959e-21 1.1895222e-36)
(0.00036343853 -0.0013269924 2.1322452e-22 0.0048486377 -7.6908751e-22 1.0888605e-38)
(0.00048284521 -0.00161642 5.1426844e-21 0.0054159137 -1.7103613e-20 4.4586376e-36)
(0.00063825272 -0.0019476248 7.4146249e-21 0.0059494288 -2.2625049e-20 6.5556575e-36)
(0.0008397082 -0.0023227602 -9.9766812e-21 0.0064337243 2.7795256e-20 8.4418008e-36)
(0.0010999023 -0.0027445071 -1.1782574e-20 0.0068600149 2.9831624e-20 8.431299e-36)
(0.0014348961 -0.0032171353 1.8515342e-20 0.007228924 -4.2415961e-20 1.5032283e-35)
(0.0018652401 -0.0037480356 -2.6610563e-20 0.0075516935 5.494271e-20 2.2634658e-35)
(0.0024175996 -0.0043493539 -5.3239618e-20 0.0078490927 9.8734629e-20 6.6753467e-35)
(0.0031240515 -0.0050368817 1.4395481e-19 0.0081478748 -2.3916061e-19 3.6396914e-34)
(0.0040284546 -0.0058326636 -9.0371005e-20 0.0084724159 1.3420262e-19 1.0828943e-34)
(0.0051882453 -0.006761365 1.5184703e-19 0.0088378331 -2.0114081e-19 2.3356227e-34)
(0.0066715843 -0.0078481995 -2.1410811e-19 0.0092570559 2.5253181e-19 3.5892024e-34)
(0.0085680941 -0.0091213183 2.6852344e-19 0.0097360051 -2.8152267e-19 4.4132642e-34)
(0.010989501 -0.010608105 -3.1069194e-19 0.010273711 2.8907427e-19 4.6692059e-34)
(0.014074115 -0.012334532 5.8304715e-20 0.010864302 -4.8068066e-20 1.3132712e-35)
(0.017991266 -0.01432408 2.2393071e-19 0.011497966 -1.6334891e-19 1.5601994e-34)
(0.022944981 -0.01659595 -1.3999911e-19 0.012161367 9.0223408e-20 4.9604798e-35)
(0.029176596 -0.019162326 4.8381125e-20 0.012837325 -2.7502237e-20 4.8641678e-36)
(0.036964925 -0.022024132 1.5553609e-20 0.013503899 -7.7843977e-21 4.1676568e-37)
(0.04662243 -0.025165061 2.1078747e-19 0.014133421 -9.2723941e-20 6.3853704e-35)
(0.058484322 -0.02854313 7.5203785e-20 0.014691746 -2.8995473e-20 6.8479561e-36)
(0.072887083 -0.03207945 8.2632963e-20 0.015138369 -2.7803795e-20 7.0434544e-36)
(0.090131966 -0.035645209 8.8554898e-20 0.015429401 -2.5846949e-20 6.9726266e-36)
(0.11042932 -0.039049684 -4.8641682e-19 0.015525793 1.2209981e-19 1.8330417e-34)
(0.13382096 -0.042036977 2.2858217e-19 0.015410266 -4.8729195e-20 3.5716456e-35)
(0.1600914 -0.044303923 3.8749775e-20 0.015111487 -6.912828e-21 9.1321369e-37)
(0.18869642 -0.04555078 -4.694622e-19 0.014725317 6.7656628e-20 1.2264926e-34)
(0.21876658 -0.045562058 -2.4797152e-19 0.014406487 2.7790516e-20 3.1693181e-35)
(0.24918651 -0.044262305 1.2542972e-19 0.014292324 -1.0165057e-20 7.6889195e-36)
(0.27870199 -0.041678168 4.6366066e-19 0.014380581 -2.3485941e-20 1.0168582e-34)
(0.30588998 -0.037808849 -2.0202053e-19 0.014466518 4.2771853e-21 1.9222078e-35)
(0.32896002 -0.032494343 5.8310578e-19 0.014216924 4.8526057e-21 1.635164e-34)
(0.34558328 -0.025453361 3.0780787e-19 0.013396124 1.1420313e-20 4.8052483e-35)
(0.35303397 -0.016534748 4.0503182e-19 0.012095254 2.6671556e-20 9.0760286e-35)
(0.34874342 -0.0060670191 1.0183549e-18 0.010739493 9.7587326e-20 6.4813553e-34)
(0.3311086 0.0050698787 -7.20767e-19 0.0098109569 -9.2128919e-20 3.8268297e-34)
(0.30017555 0.015799908 2.1062744e-19 0.009579324 3.4462641e-20 4.0135388e-35)
(0.25741231 0.025128967 -3.1396585e-19 0.01007518 -6.4475817e-20 1.1663033e-34)
(0.20528519 0.031848419 -2.5139335e-19 0.011177047 -6.40821e-20 1.0348078e-34)
(0.14830475 0.034122957 -7.9835325e-20 0.012475877 -2.4978909e-20 1.5565849e-35)
(0.094986759 0.03079766 -5.6725091e-19 0.01308774 -2.1287192e-19 1.2694766e-33)
(0.053126898 0.023311423 -1.1545224e-19 0.012149357 -5.0456665e-20 9.0528849e-35)
(0.025839831 0.01476641 1.9558346e-19 0.0096456541 9.5883876e-20 4.6830016e-34)
(0.011059664 0.0079003722 5.4253151e-20 0.0065429742 2.8751957e-20 6.6512093e-35)
(0.0044165244 0.0036576383 -2.9827413e-20 0.0038875135 -1.6487499e-20 3.7047808e-35)
(0.0018867207 0.0015000054 -4.5725427e-20 0.0020775436 -2.588543e-20 1.583367e-34)
(0.0010811945 0.00058544578 -5.3171857e-20 0.0010341399 -3.07728e-20 3.8383866e-34)
(0.0008101262 0.00024113342 2.931871e-21 0.00049594029 1.9160169e-21 2.232028e-36)
(4.8212278e-08 -3.0625405e-07 5.8537566e-23 1.9453909e-06 -3.6862311e-22 4.6507296e-36)
(4.6694462e-07 -2.9319883e-06 4.1982681e-23 1.8410347e-05 -2.6100498e-22 4.0513357e-37)
(1.4451222e-06 -8.9649908e-06 -5.5839051e-23 5.5616447e-05 3.4212512e-22 2.6557908e-37)
(3.1745134e-06 -1.9431143e-05 -2.9486509e-22 0.00011894238 1.7785147e-21 3.6202503e-36)
(5.8963697e-06 -3.556076e-05 2.1661518e-22 0.00021448043 -1.2846131e-21 1.0865072e-36)
(9.9145258e-06 -5.8817603e-05 -4.0268603e-22 0.00034897244 2.3445541e-21 2.2502419e-36)
(1.5611048e-05 -9.0927257e-05 2.1941177e-22 0.00052969782 -1.2519237e-21 4.2114258e-37)
(2.3465032e-05 -0.00013390066 6.4622756e-23 0.00076426866 -3.6058959e-22 2.3881034e-38)
(3.4076675e-05 -0.00019005421 -4.4627638e-22 0.0010603169 2.429471e-21 7.6472824e-37)
(4.8197027e-05 -0.00026201956 -1.1617681e-21 0.0014250422 6.1541418e-21 3.5499398e-36)
(6.6765256e-05 -0.00035273954 -6.9922647e-23 0.0018646067 3.5938253e-22 8.9381844e-39)
(9.0955107e-05 -0.0004654434 2.729671e-21 0.0023833648 -1.3569665e-20 9.5815327e-36)
(0.00012223317 -0.000603596 -4.4825451e-21 0.0029829497 2.1479051e-20 1.8320715e-35)
(0.00016243238 -0.00077081612 8.5639432e-21 0.0036612696 -3.9407237e-20 4.7713734e-35)
(0.00021384487 -0.00097076183 -2.6414715e-21 0.0044115274 1.1625332e-20 3.2540397e-36)
(0.00027933994 -0.0012069878 6.6103484e-21 0.0052214474 -2.7704367e-20 1.46609e-35)
(0.00036251675 -0.0014827955 -9.3967341e-21 0.0060729723 3.7327898e-20 2.1377415e-35)
(0.00046790005 -0.0018011058 7.1627361e-21 0.0069427489 -2.6835289e-20 8.9869043e-36)
(0.00060119877 -0.0021644235 -1.3256696e-21 0.0078037255 4.6596821e-21 2.2341531e-37)
(0.00076964675 -0.0025749761 -6.2844537e-21 0.0086280617 2.0612121e-20 3.6554594e-36)
(0.00098245112 -0.0030351303 1.7804128e-20 0.0093912778 -5.4187805e-20 2.1454045e-35)
(0.0012513891 -0.0035481939 -2.9190283e-20 0.010077103 8.1986647e-20 4.2405127e-35)