/*--------------------------------*- C++ -*----------------------------------*\
  =========                 |
  \\      /  F ield         | OpenFOAM: The Open Source CFD Toolbox
   \\    /   O peration     | Website:  https://openfoam.org
    \\  /    A nd           | Version:  13
     \\/     M anipulation  |
\*---------------------------------------------------------------------------*/
FoamFile
{
    format      ascii;
    class       volScalarField;
    location    "8.499753";
    object      omega;
}
// * * * * * * * * * * * * * * * * * * * * * * * * * * * * * * * * * * * * * //

dimensions      [0 0 -1 0 0 0 0];

internalField   nonuniform List<scalar> 
17140
(
3736295.3
603676.93
185333.74
78618.682
40002.092
22781.242
13987.13
9055.5431
6095.7388
4226.2251
2997.6567
2164.4756
1584.8244
1172.9616
875.08943
656.38198
493.6966
371.31581
278.37743
207.27992
152.66798
110.76727
78.923599
55.249564
38.318811
26.896941
19.727389
15.610701
13.371054
12.138589
11.346432
10.702184
10.11067
9.5545672
9.032489
8.5443058
8.0904206
7.6715246
7.2884212
6.941769
6.6312556
6.3580805
6.1230942
5.9286793
5.7880977
5.7126872
5.68124
5.6658539
5.6944981
5.753673
5.8403711
5.9455345
6.0444974
6.1194881
6.1968154
6.2567341
6.276198
6.1581048
5.9423881
5.5566605
5.0474738
4.537631
4.0123919
3.5717522
3.1578627
3736320.9
603681.58
185335.48
78619.624
40002.711
22781.714
13987.531
9055.9114
6096.0964
4226.5854
2998.0283
2164.8637
1585.2319
1173.3893
875.53631
656.84543
494.17216
371.79722
278.85646
207.74628
153.10929
111.16939
79.271759
55.530675
38.524984
27.028956
19.796983
15.633264
13.365755
12.118721
11.32255
10.679069
10.089737
9.5363981
9.0177103
8.5336711
8.0846443
7.6709396
7.2942266
6.9555211
6.6559097
6.3959015
6.1772126
6.0027995
5.899694
5.8541101
5.8456187
5.8873976
5.9828395
6.1100628
6.274151
6.4575912
6.6307923
6.8124982
6.9369388
7.0146836
7.0320323
6.8923313
6.5855478
6.095431
5.466627
4.883023
4.2567729
3.7418204
3.2268116
3736345.9
603685.73
185336.83
78620.322
40003.214
22782.166
13987.996
9056.4154
6096.6545
4227.2072
2998.7192
2165.6266
1586.0666
1174.2931
876.50355
657.8673
495.23636
372.88758
279.95252
208.82281
154.13609
112.11195
80.093711
56.19921
39.019243
27.348619
19.968552
15.693415
13.360764
12.080867
11.277264
10.636418
10.051724
9.5038352
8.9916725
8.5159268
8.0782085
7.6780882
7.3183118
7.0002723
6.7259247
6.497406
6.3169722
6.2110246
6.1641071
6.1565645
6.2316135
6.348284
6.5025524
6.683302
6.8828605
7.0824623
7.2651116
7.4021738
7.4647239
7.4757956
7.4079373
7.2169159
6.7915468
6.1882718
5.4250599
4.6708958
3.8911671
3.2693838
2.6279383
3736372.1
603690.08
185338.28
78621.134
40003.854
22782.791
13988.672
9057.1706
6097.5054
4228.1647
2999.7903
2166.8143
1587.3705
1175.7089
878.02265
659.47623
496.91629
374.61362
281.69292
210.53818
155.77891
113.62742
81.423372
57.289183
39.833483
27.883089
20.263088
15.804798
13.363722
12.02961
11.212099
10.572494
9.9944648
9.4553771
8.9541024
8.4920087
8.0715056
7.6944015
7.3608034
7.074696
6.8377663
6.6519926
6.5319395
6.4709643
6.4524164
6.5055351
6.6260396
6.7636039
6.9350703
7.1099598
7.2923592
7.4587677
7.5895448
7.6526353
7.6677885
7.6033403
7.4771056
7.2365081
6.6436875
5.8086393
4.8507275
3.9509077
3.1087351
2.4729455
1.867412
3736400.1
603694.73
185339.85
78622.055
40004.625
22783.577
13989.548
9058.1622
6098.6323
4229.4398
3001.2219
2168.4066
1589.1234
1177.6173
880.07609
661.65774
499.20168
376.97041
284.07919
212.90131
158.05481
115.7412
83.293813
58.839332
41.008439
28.670257
20.712258
15.989515
13.387148
11.969881
11.125545
10.485283
9.9158443
9.389503
8.9039154
8.4599226
8.0609478
7.7127208
7.4089507
7.1580211
6.9590885
6.8182605
6.7411121
6.7079554
6.7057775
6.8081699
6.9223596
7.0616765
7.2088091
7.3544953
7.4993109
7.6284529
7.7032086
7.7376504
7.6887748
7.5412664
7.3380531
7.0503527
6.3735273
5.3833664
4.2912741
3.3194846
2.4809426
1.8978763
1.4030491
3736429.1
603699.55
185341.49
78623.07
40005.513
22784.509
13990.599
9059.3644
6100.0057
4230.9992
3002.9779
2170.3652
1591.2857
1179.9789
882.62576
664.37677
502.06233
379.93453
287.09659
215.908
160.97163
118.47423
85.738977
60.894647
42.595718
29.761835
21.358804
16.277651
13.449001
11.910733
11.017903
10.370535
9.8131026
9.303755
8.8382653
8.4182547
8.0437557
7.7231468
7.4517008
7.2352007
7.0708356
6.9674724
6.9127675
6.8912515
6.9134697
7.0228627
7.1181471
7.2412395
7.3516923
7.4674932
7.5795816
7.6822585
7.7378568
7.7561995
7.6096365
7.3993457
7.1403734
6.8120879
6.0470128
4.890086
3.6961208
2.709948
1.9393776
1.4497564
1.0598565
3736459.3
603704.54
185343.2
78624.164
40006.5
22785.56
13991.797
9060.7404
6101.5831
4232.7955
3005.006
2172.6338
1593.7983
1182.7329
885.61161
667.57599
505.4461
383.46174
290.71158
219.53821
164.52551
121.8409
88.792405
63.506435
44.659599
31.226743
22.255143
16.716661
13.580793
11.870963
10.900174
10.241205
9.6949692
9.2037068
8.7592506
8.3627482
8.0160036
7.7186858
7.4836842
7.2943524
7.161284
7.0818218
7.0403973
7.0252096
7.0606246
7.1561333
7.2330465
7.3337687
7.4164957
7.5154179
7.6152503
7.7038148
7.7459333
7.7245894
7.5011597
7.212518
6.9105973
6.5432971
5.6729494
4.3722752
3.1391063
2.202256
1.5306441
1.1341164
0.83201493
3736490.6
603709.71
185344.99
78625.324
40007.559
22786.698
13993.1
9062.242
6103.3085
4234.765
3007.2357
2175.1355
1596.5793
1185.7944
888.94726
671.1704
509.27249
387.47945
294.86323
223.74654
168.69033
125.83761
92.474949
66.719335
47.26358
33.136945
23.47719
17.367274
13.818478
11.868635
10.790134
10.103774
9.5648736
9.0915553
8.6684151
8.2955404
7.974703
7.7021862
7.4894788
7.3320203
7.2191375
7.156101
7.1234869
7.1119216
7.1503342
7.2289399
7.2931641
7.377418
7.4504507
7.549678
7.655592
7.7401818
7.7764262
7.628542
7.3261786
6.9921002
6.6748159
6.2732499
5.264707
3.8388873
2.6168449
1.7695265
1.2077832
0.89452252
0.66090435
3736522
603715.04
185346.85
78626.53
40008.659
22787.883
13994.46
9063.8107
6105.1142
4236.8307
3009.5809
2177.7761
1599.527
1189.0556
892.52157
675.04815
513.43242
391.88554
299.4611
228.45928
173.4144
130.4398
96.793399
70.573515
50.479127
35.587195
25.13016
18.30937
14.22706
11.956465
10.712387
9.9706514
9.4290597
8.9706611
8.5671968
8.2158123
7.9172991
7.6722019
7.4771704
7.3389573
7.252487
7.201903
7.1742703
7.1637106
7.197636
7.2624439
7.3221555
7.4044609
7.4873687
7.6037641
7.7208652
7.7861847
7.7988177
7.4699575
7.0793344
6.7472362
6.4487367
6.0014303
4.8049552
3.2983499
2.1473694
1.4185821
0.96797432
0.72648857
0.54297125
3736555.2
603720.64
185348.82
78627.788
40009.788
22789.085
13995.827
9065.3844
6106.9255
4238.906
3011.9433
2180.446
1602.5217
1192.3882
896.19917
679.06991
517.78635
396.54492
304.38001
233.56747
178.61174
135.59143
101.72809
75.09026
54.368761
38.674068
27.327474
19.66122
14.897257
12.183264
10.697037
9.8546543
9.293813
8.8453595
8.4591516
8.1267668
7.8482813
7.6240644
7.4511413
7.3260356
7.2475243
7.2041855
7.1818635
7.1725275
7.2026353
7.2667773
7.3373316
7.4295798
7.5326813
7.6702199
7.7866418
7.8401053
7.7391523
7.2190519
6.7909952
6.5174319
6.251649
5.7318631
4.2840673
2.7598898
1.726541
1.1296181
0.78117167
0.59785138
0.45134705
3736589.7
603726.56
185350.98
78629.122
40010.945
22790.279
13997.153
9066.8963
6108.6606
4240.8947
3014.2127
2183.0213
1605.4259
1195.6419
899.81904
683.06614
522.15979
401.28292
309.4512
238.91556
184.14839
141.18926
107.2159
80.254939
58.971356
42.48763
30.196675
21.563032
15.960962
12.638262
10.80368
9.8003386
9.1775943
8.7238537
8.3490879
8.0321491
7.7696082
7.5614519
7.4058106
7.2977566
7.2291425
7.1919099
7.1720685
7.163357
7.1926222
7.2576913
7.3336613
7.4380819
7.5626568
7.7077678
7.7915187
7.8059019
7.5539723
6.8815392
6.5231689
6.3467079
6.0842863
5.4148233
3.6998289
2.2452559
1.3700602
0.90403893
0.64187939
0.50314425
0.38370968
3736625.1
603732.6
185353.14
78630.412
40012.028
22791.373
13998.355
9068.2597
6110.2239
4242.6896
3016.2684
2185.3661
1608.0882
1198.6496
903.19841
686.84015
526.34486
405.8847
314.45885
244.29448
189.83163
147.06814
113.13169
85.995349
64.278903
47.089383
33.861605
24.176422
17.577136
13.459628
11.107222
9.8256904
9.0975546
8.6154963
8.2439367
7.9363185
7.6857966
7.4893978
7.3444045
7.2463482
7.1907592
7.1620559
7.1462538
7.1376799
7.1639656
7.2304323
7.3142069
7.4253878
7.5519915
7.6852889
7.734542
7.6452325
7.2181339
6.5732895
6.3910509
6.2609529
5.9439655
4.9630056
3.057684
1.7793057
1.0835404
0.73266808
0.53525075
0.42618648
0.3273723
3736662.3
603738.85
185355.31
78631.629
40012.994
22792.313
13999.365
9069.3953
6111.5223
4244.1822
3017.9851
2187.3373
1610.3461
1201.2282
906.13329
690.16705
530.09715
410.08934
319.13063
249.42812
195.39186
152.97806
119.26069
92.149756
70.201222
52.476104
38.41041
27.663995
19.941311
14.830142
11.747109
10.028292
9.1069225
8.5426565
8.1507899
7.8481412
7.6019638
7.4113676
7.2735532
7.1821507
7.1322167
7.1090979
7.0977576
7.0883379
7.110565
7.1767051
7.2666457
7.3810278
7.5005559
7.5947581
7.5622271
7.3855314
6.7665894
6.3946445
6.3491011
6.2264124
5.7957521
4.339165
2.4286905
1.3738648
0.85775794
0.60374452
0.45481999
0.36689459
0.28359524
3736699.8
603745.14
185357.42
78632.738
40013.804
22793.049
14000.126
9070.2329
6112.4727
4245.2751
3019.2491
2188.8027
1612.0463
1203.2011
908.42124
692.81654
533.15728
413.60864
323.15194
253.98087
200.48151
158.57271
125.2757
98.432486
76.520689
58.526313
43.840167
32.144255
23.262672
16.985735
12.934964
10.556513
9.2571182
8.5530962
8.0993374
7.7699207
7.5266969
7.3375085
7.198177
7.1081266
7.0612328
7.0428541
7.0366753
7.0248927
7.0381068
7.0953279
7.1807727
7.2817949
7.3842145
7.391171
7.3116665
7.0206859
6.4708807
6.3180503
6.4060678
6.2461968
5.5706939
3.4333305
1.8094665
1.0489128
0.69107346
0.50803027
0.39142797
0.31847502
0.24773757
3736738.4
603751.54
185359.47
78633.724
40014.43
22793.548
14000.594
9070.7205
6113.0122
4245.8929
3019.9705
2189.6553
1613.0621
1204.4178
909.88391
694.57805
535.27807
416.15521
326.1931
257.58142
204.69234
163.41706
130.7316
104.41272
82.853532
64.943827
49.985954
37.616609
27.703245
20.194745
14.945905
11.624666
9.7113492
8.6906841
8.1201078
7.7475422
7.4653571
7.2672593
7.1284535
7.0342894
6.9820826
6.9638133
6.9622833
6.9516208
6.9549882
6.986534
7.0568228
7.1364487
7.1814385
7.1451476
7.0077731
6.5825232
6.3340822
6.4438778
6.6664863
6.2885994
4.8768183
2.5047609
1.3437361
0.81371973
0.56545044
0.43320035
0.34042465
0.27956523
0.22012918
3736780.4
603758.29
185361.52
78634.584
40014.864
22793.796
14000.752
9070.8347
6113.1111
4245.9977
3020.101
2189.8335
1613.3144
1204.7777
910.39396
695.29178
536.26137
417.48604
327.95806
259.87351
207.6038
167.0272
135.08978
109.51617
88.62171
71.193873
56.418111
43.824945
33.23116
24.645009
18.119116
13.582367
10.734489
9.1159836
8.2675156
7.7826918
7.4646889
7.230984
7.0628404
6.96025
6.9048768
6.8831471
6.881437
6.871595
6.8631218
6.8728834
6.9053832
6.9507938
6.9406072
6.872515
6.633275
6.3931667
6.4405927
6.8997055
6.862707
6.1086905
3.65003
1.8002135
0.99191271
0.64578864
0.47991532
0.37845139
0.30029492
0.247038
0.19660783
3736824.8
603765.22
185363.54
78635.333
40015.125
22793.814
14000.622
9070.6021
6112.7989
4245.6214
3019.6737
2189.3693
1612.8312
1204.2989
909.95103
694.92653
536.02899
417.45895
328.23215
260.56495
208.84453
168.9535
137.81448
113.12036
93.130049
76.54391
62.428898
50.177108
39.476611
30.269908
22.671255
16.823616
12.731653
10.157107
8.7220932
7.9602093
7.5257573
7.2451638
7.0527724
6.911011
6.8275404
6.7958544
6.7958935
6.7909235
6.775369
6.7644597
6.7643475
6.757946
6.7198271
6.6022177
6.4396555
6.4764322
6.8324951
7.4896583
7.0103176
5.2479551
2.4595468
1.2546761
0.77410624
0.55623995
0.42441745
0.33579277
0.2674933
0.22151179
0.17825209
3736869.6
603772.22
185365.54
78635.994
40015.247
22793.647
14000.261
9070.0869
6112.1489
4244.8465
3018.7804
2188.3644
1611.724
1203.1036
908.68897
693.62864
534.73815
416.2319
327.13988
259.69683
208.31183
168.89611
138.42147
114.58988
95.630806
80.138502
67.084785
55.728932
45.601489
36.490822
28.418193
21.569246
16.16642
12.297151
9.828059
8.4842547
7.758218
7.3429174
7.0862966
6.9180572
6.8063468
6.7367706
6.711988
6.7008199
6.6815712
6.657562
6.6407297
6.603699
6.5543433
6.4735071
6.5424525
6.9278619
8.0134179
7.7711707
6.704167
3.4872411
1.6596843
0.93233183
0.61930768
0.46541194
0.36493153
0.29291323
0.23767023
0.19983084
0.16320161
3736913.9
603779.34
185367.54
78636.606
40015.289
22793.369
13999.756
9069.3946
6111.2839
4243.8133
3017.5795
2186.9946
1610.1853
1201.3993
906.8272
691.62562
532.6207
414.04072
324.9328
257.55166
206.32788
167.19207
137.12399
113.84696
95.624444
81.142401
69.323434
59.283958
50.35233
42.135284
34.473848
27.424487
21.209846
16.106535
12.299254
9.7998669
8.4234975
7.671312
7.2447267
6.9926736
6.8383692
6.7465567
6.7045815
6.6761498
6.6453988
6.6076747
6.5782133
6.5361187
6.5363895
6.6567919
7.0830896
8.3937665
8.7502211
7.8952996
4.9799214
2.1724378
1.1105756
0.70935266
0.53615166
0.42191332
0.33652767
0.26820754
0.21573804
0.18183708
0.1508381
3736961
603786.77
185369.63
78637.238
40015.323
22793.065
13999.211
9068.646
6110.3449
4242.6857
3016.2589
2185.4742
1608.4574
1199.4571
904.66663
689.2473
530.03261
411.26133
321.99494
254.50671
203.25001
164.18151
134.30809
111.37838
93.671129
79.850531
68.865594
59.912545
52.351228
45.611024
39.215048
32.996227
27.003412
21.45178
16.643448
12.808368
10.121132
8.603551
7.7525651
7.2774297
7.0095353
6.8579045
6.7841505
6.7406417
6.7071986
6.6618674
6.666333
6.7181075
6.8781757
7.390279
8.8558003
9.7185069
9.0379661
6.6553034
2.743741
1.3452562
0.82626723
0.60325326
0.46346678
0.36399928
0.29168201
0.2391306
0.19627463
0.16636889
0.14004966
3737011.6
603794.64
185371.84
78637.94
40015.412
22792.814
13998.721
9067.9556
6109.4679
4241.6228
3015.004
2184.0173
1606.7862
1197.5583
902.52712
686.85558
527.38053
408.34662
318.82441
251.10053
199.64693
160.44503
130.53324
107.69899
90.269021
76.90863
66.551975
58.347896
51.626459
45.957512
40.967729
36.290201
31.55906
26.756174
22.042401
17.683638
13.952978
11.008194
9.191687
8.1539032
7.5609024
7.2421899
7.0808782
6.9952903
6.9683772
7.0056871
7.1214237
7.3819998
8.0187242
9.6965596
10.793529
10.206538
8.204444
3.5492849
1.6659818
0.97293987
0.69012649
0.52849196
0.41809733
0.33573635
0.26835391
0.21735769
0.18093154
0.15543681
0.13252992
3737062.3
603802.69
185374.16
78638.737
40015.6
22792.674
13998.359
9067.4138
6108.761
4240.7524
3013.9647
2182.7987
1605.3748
1195.9383
900.68105
684.76487
525.02657
405.71206
315.89509
247.86828
196.1133
156.62625
126.46592
103.44558
85.91276
72.606388
62.535153
54.904159
49.010887
44.214285
40.098
36.374629
32.969023
29.631928
26.136201
22.495142
18.893862
15.596048
12.753251
10.609096
9.2391034
8.4715407
8.0680714
7.8860222
7.9446329
8.1353138
8.5422342
9.2725942
11.057608
12.056012
11.466779
9.4866257
4.4949961
2.0460559
1.1308511
0.76889658
0.57416392
0.4482856
0.35804571
0.28894217
0.23915594
0.19809074
0.16556786
0.14377109
0.12512633
3737113.2
603810.94
185376.61
78639.645
40015.907
22792.673
13998.16
9067.0617
6108.2738
4240.1345
3013.2125
2181.9039
1604.3252
1194.7186
899.27328
683.1486
523.17908
403.60873
313.51006
245.17547
193.08792
153.24647
122.7155
99.31571
81.412566
67.783559
57.500265
49.826658
44.186602
40.054267
36.946606
34.343313
31.888285
29.417277
27.056273
24.687021
22.231466
19.66923
17.149161
14.911868
13.074022
11.713307
10.865835
10.499934
10.571467
10.824072
11.413447
12.931566
13.483804
12.842341
10.738896
5.4767099
2.442116
1.2932598
0.84818534
0.62428743
0.49380957
0.4030901
0.32906304
0.26714744
0.21824958
0.18214147
0.15557581
0.13627161
0.11991001
3737167.7
603819.7
185379.22
78640.663
40016.324
22792.793
13998.1
9066.8708
6107.9735
4239.7317
3012.7062
2181.2883
1603.5904
1193.8518
898.2588
681.96781
521.81058
402.02813
311.68986
243.08525
190.69542
150.5203
119.62782
95.8464
77.550286
63.529342
52.864613
44.8477
38.92538
34.650837
31.65236
29.640117
28.2396
27.076189
25.719646
24.183046
22.56731
20.996505
19.406687
17.821407
16.360885
15.154414
14.324873
13.745739
13.626757
13.84202
14.889216
15.002183
14.266112
11.90044
6.1892581
2.8041946
1.4604642
0.9223696
0.66781177
0.53228874
0.4333349
0.34603416
0.28310392
0.23418317
0.19648713
0.16745807
0.1451951
0.12911704
0.11546631
3737225.4
603828.85
185381.96
78641.74
40016.774
22792.938
13998.062
9066.7042
6107.7003
4239.3605
3012.2377
2180.7179
1602.9104
1193.0513
897.32442
680.88391
520.55916
400.58884
310.0401
241.20037
188.54909
148.08472
116.87526
92.752597
74.101225
59.710039
48.665995
40.275987
34.00806
29.445736
26.251811
24.141062
22.835844
22.101413
21.669969
21.329281
20.892275
20.092908
19.164666
18.186489
17.256306
16.428548
15.682593
15.288176
15.604369
16.759996
16.557256
15.65806
12.900025
6.5703583
3.0713342
1.6193528
1.0031286
0.72239751
0.5760706
0.46438686
0.37425224
0.31266824
0.26163413
0.21876295
0.18363527
0.15611659
0.1364679
0.12282088
0.11147956
3737283.9
603838.23
185384.78
78642.828
40017.193
22793.024
13997.94
9066.4319
6107.3029
4238.8478
3011.6115
2179.9753
1602.0451
1192.0545
896.18548
679.59001
519.09555
398.93912
308.18669
239.12507
186.23365
145.51172
114.02892
89.620154
70.674765
55.988304
44.656167
35.994944
29.482478
24.71157
21.354218
19.132911
17.799322
17.122695
16.873537
16.805321
16.863878
16.993262
16.911704
16.69731
16.156293
15.864465
16.378373
17.382343
18.771339
18.374146
17.007837
13.538939
6.6552687
3.2479009
1.7575769
1.0923985
0.78565795
0.61866591
0.49040337
0.39925878
0.33528975
0.27769348
0.22940893
0.19341541
0.16758274
0.14744581
0.13112958
0.11872335
0.10869168
3737344.3
603847.96
185387.68
78643.9
40017.549
22793.008
13997.684
9065.9946
6106.7119
4238.1138
3010.7369
2178.9581
1600.8806
1190.7368
894.70735
677.94414
517.27464
396.93633
305.99601
236.74167
183.65426
142.73444
111.05399
86.45114
67.320294
52.463632
40.983783
32.202696
25.605092
20.788522
17.424047
15.226179
13.95377
13.354948
13.19442
13.292677
13.537826
13.988229
14.449415
15.046626
15.934281
17.782803
20.138331
20.497681
19.926959
18.049094
13.516789
6.7140782
3.3918783
1.8790737
1.1837015
0.84782606
0.65493775
0.51506439
0.42464343
0.35632877
0.29414277
0.24754106
0.21292371
0.18241631
0.15688254
0.13766999
0.12394356
0.11406044
0.10614543
3737407.1
603858.05
185390.72
78645.049
40017.974
22793.067
13997.512
9065.6571
6106.2372
4237.5149
3010.0187
2178.121
1599.9228
1189.6552
893.49887
676.60571
515.80404
395.3324
304.25885
234.87275
181.65636
140.61225
108.8146
84.104787
64.880854
49.951574
38.427075
29.632899
23.055852
18.292864
15.006615
12.927309
11.882246
11.437383
11.427542
11.840522
12.626113
13.82467
15.49891
17.573904
20.137273
22.009198
21.951201
21.153284
18.712582
13.250047
6.7639415
3.5158699
1.9924316
1.2742943
0.91394938
0.69709776
0.54887077
0.45449609
0.37746285
0.31282876
0.26759891
0.22821248
0.19423433
0.16852946
0.14889394
0.13293774
0.12060672
0.11138475
0.1042162
3737471.9
603868.54
185393.95
78646.418
40018.669
22793.461
13997.751
9065.8078
6106.3339
4237.576
3010.0546
2178.1376
1599.9234
1189.6414
893.47076
676.56263
515.74439
395.25377
304.15799
234.74564
181.49847
140.41899
108.58189
83.829488
64.56148
49.586932
38.017145
29.190413
22.604259
17.858728
14.612185
12.62648
11.695062
11.428953
11.7664
12.706281
14.320028
16.591935
19.238536
21.877965
23.614368
23.302916
22.177439
19.110248
13.079168
6.8613705
3.6524752
2.1101728
1.3696022
0.98988271
0.74865568
0.58769767
0.48171434
0.39658976
0.33083373
0.28423693
0.24045699
0.2053594
0.17850805
0.15592939
0.13861399
0.12556531
0.11548701
0.10812917
0.1026004
3737539.4
603879.53
185397.37
78647.995
40019.611
22794.158
13998.36
9066.3996
6106.9468
4238.2336
3010.773
2178.928
1600.7943
1190.5991
894.51998
677.70626
516.98357
396.58759
305.58316
236.25619
183.08549
142.0703
110.28154
85.557113
66.291594
51.28879
39.658786
30.733235
24.009585
19.119635
15.773716
13.779098
12.918139
12.917658
13.772936
15.44911
17.816817
20.720487
23.519968
25.224165
24.767094
23.277409
19.531375
13.171531
7.1566879
3.8369151
2.2460168
1.4751104
1.0763667
0.80895335
0.63035983
0.51066978
0.41837566
0.35226456
0.30141527
0.2556146
0.21998421
0.19286047
0.16891397
0.14941827
0.13390915
0.12213638
0.11328111
0.10618081
0.10111524
3737610.3
603890.97
185400.96
78649.664
40020.632
22794.937
13999.063
9067.0999
6107.6865
4239.0394
3011.6634
2179.9175
1601.8946
1191.8202
895.87047
679.1935
518.61363
398.36509
307.51112
238.33563
185.31466
144.44408
112.79093
88.188688
69.027424
54.106881
42.532002
33.637646
26.933084
22.0594
18.752942
16.81549
16.104067
16.460404
17.743873
19.972747
22.691733
25.509464
27.146694
26.51333
24.601012
20.129939
13.497944
7.5390126
4.0614743
2.400447
1.5977874
1.1742563
0.87900877
0.68077574
0.54612154
0.4467724
0.3766724
0.32088345
0.27145938
0.23479013
0.20477604
0.17731981
0.15557742
0.13972496
0.12690842
0.11698617
0.1096278
0.10434893
0.10026276
3737682.9
603902.73
185404.63
78651.309
40021.576
22795.598
13999.61
9067.6098
6108.2019
4239.5868
3012.2614
2180.5805
1602.6349
1192.649
896.79839
680.23095
519.77108
399.65322
308.94082
239.91789
187.06041
146.36371
114.89372
90.482524
71.519329
56.802351
45.437156
36.761688
30.29151
25.679182
22.682132
21.129643
20.889606
21.610119
23.250236
25.714459
28.562144
29.522258
28.586752
26.170336
20.865286
13.96714
7.9333139
4.2884955
2.5741397
1.736514
1.283882
0.95915594
0.74224782
0.59018842
0.48054041
0.40270244
0.33970541
0.28773732
0.24886354
0.21631278
0.18743559
0.16624188
0.1495403
0.13532447
0.12372007
0.11482944
0.1076663
0.10253141
0.099055718
3737758.4
603914.97
185408.39
78652.923
40022.423
22796.113
13999.965
9067.8849
6108.4394
4239.8124
3012.4925
2180.8305
1602.9153
1192.9705
897.17207
680.66869
520.28593
400.25978
309.65552
240.75937
188.04998
147.52577
116.25617
92.077237
73.381983
58.974226
47.965647
39.70209
33.709106
29.649529
27.285761
26.434343
26.76624
27.838236
30.03878
32.368247
32.183987
30.868865
27.659618
21.665427
14.510445
8.3468756
4.560852
2.7747704
1.9001558
1.4091026
1.0546351
0.81530967
0.64476941
0.52010879
0.43269333
0.36296849
0.30874324
0.26747874
0.23017231
0.20115209
0.17812235
0.15870316
0.14111702
0.12795302
0.1181913
0.11127697
0.10580011
0.10160774
0.098512236
3737836.4
603927.56
185412.25
78654.564
40023.26
22796.593
14000.267
9068.0899
6108.5913
4239.9371
3012.6072
2180.9483
1603.0472
1193.1275
897.36545
680.91112
520.59206
400.64685
310.14407
241.37398
188.82012
148.4868
117.45049
93.555389
75.203744
61.209563
50.695046
43.015223
37.700041
34.404145
32.854579
32.784399
33.426153
35.075851
36.161316
35.351205
33.252699
29.042284
22.477271
15.086353
8.7767059
4.876244
3.0073301
2.0859894
1.5467169
1.159711
0.89952893
0.70807938
0.56943611
0.468717
0.39223414
0.33303289
0.2862257
0.24463952
0.21345321
0.18853079
0.16524626
0.14834127
0.13500877
0.12457843
0.11572241
0.10910086
0.10380482
0.10020053
0.097607515
3737916.9
603940.57
185416.26
78656.293
40024.174
22797.151
14000.653
9068.3905
6108.8526
4240.1867
3012.8642
2181.2274
1603.3613
1193.4891
897.78779
681.40908
521.18285
401.35093
310.98609
242.38386
190.03436
149.94983
119.21605
95.687638
77.777571
64.306361
54.404252
47.421115
42.862013
40.32475
39.431889
39.688726
40.287794
39.742213
38.30737
35.499817
30.391594
23.297819
15.651301
9.2257244
5.2419758
3.2915258
2.2987017
1.6980154
1.280091
0.99839583
0.78658032
0.6291096
0.51433163
0.4256596
0.36094795
0.30728354
0.26298308
0.22949752
0.20037261
0.17667026
0.15884739
0.14364979
0.13055399
0.12064061
0.1128375
0.10744373
0.10279334
0.099587123
0.09720992
3738001.3
603954.22
185420.5
78658.159
40025.205
22797.831
14001.175
9068.8475
6109.2947
4240.6452
3013.3613
2181.781
1603.9878
1194.2048
898.61005
682.35729
522.27941
402.62228
312.46388
244.10635
192.04791
152.31063
121.99054
98.945496
81.576528
68.696405
59.444346
53.127518
49.173939
47.082012
46.159572
45.291524
43.566748
41.117369
37.430638
31.52978
23.97876
16.15384
9.715138
5.6887858
3.6296192
2.5263498
1.8560902
1.4135823
1.1114976
0.87552658
0.69866565
0.56624704
0.46721274
0.39270999
0.33432965
0.28509015
0.24760827
0.21394232
0.18848092
0.16883717
0.15014466
0.13611398
0.12510707
0.11684828
0.11018746
0.10523361
0.1011512
0.098596862
0.096533706
3738088.5
603968.38
185424.94
78660.15
40026.345
22798.627
14001.829
9069.4566
6109.9134
4241.3084
3014.0949
2182.6068
1604.9263
1195.2769
899.83842
683.76728
523.90036
404.48874
314.61693
246.59396
194.92475
155.63536
125.8205
103.33553
86.5726
74.309649
65.607642
59.708343
55.846558
53.130274
50.511938
47.534517
44.166262
39.401472
32.712027
24.750982
16.822171
10.391441
6.2647521
4.0151106
2.7631455
2.0298749
1.5700143
1.2438663
0.97946996
0.78059747
0.63158886
0.51794829
0.43314802
0.36430807
0.31173845
0.26745471
0.23088555
0.20219389
0.17910138
0.15915796
0.14393703
0.1328456
0.12256619
0.11478714
0.10866052
0.10429066
0.10047864
0.098185017
0.096243393
3738178.6
603983.05
185429.55
78662.26
40027.593
22799.536
14002.611
9070.2134
6110.703
4242.1694
3015.0566
2183.6947
1606.165
1196.6918
901.45674
685.61932
526.0199
406.91309
317.38622
249.75064
198.51116
159.6899
130.37167
108.39093
92.112477
80.228463
71.658396
65.417336
60.496922
56.141855
51.984128
47.451309
41.485205
33.999342
25.656897
17.629075
11.152783
6.8546524
4.3830041
3.0023342
2.2318483
1.7522193
1.3899219
1.0947426
0.8745023
0.70738622
0.57827438
0.47856741
0.40134974
0.34114954
0.2934257
0.25076717
0.21924394
0.19153584
0.17026636
0.15383055
0.13913431
0.12766388
0.11806821
0.11170186
0.10617026
0.102772
0.099423592
0.097459377
0.095759446
3738271.2
603998.22
185434.36
78664.498
40028.955
22800.564
14003.524
9071.1196
6111.6638
4243.2263
3016.2416
2185.0359
1607.6892
1198.4264
903.43076
687.86361
528.56708
409.79675
320.63891
253.39953
202.5713
164.15377
135.19414
113.4689
97.259128
85.195016
76.05551
68.799495
62.650614
56.986957
50.93691
43.757676
35.510919
26.811039
18.660249
12.076948
7.5645221
4.862217
3.3468079
2.5067775
1.9654652
1.5492179
1.226179
0.98751205
0.79880784
0.65047598
0.5356087
0.44621819
0.3782937
0.32140589
0.27627971
0.23792234
0.20745349
0.18221021
0.16354741
0.14687131
0.13375765
0.12430474
0.11614117
0.11043737
0.10516923
0.10173108
0.098747056
0.097133559
0.095560129
3738367.1
604011.13
185437.01
78665.024
40029.07
22800.674
14003.757
9071.5227
6112.26
4244.0312
3017.2698
2186.3028
1609.2125
1200.2255
905.52716
690.27974
531.32483
412.91455
324.12713
257.2536
206.76206
168.61502
139.80811
118.0519
101.55095
88.855388
78.768678
70.349189
62.744774
54.939445
46.487388
37.452004
28.345868
19.989744
13.203322
8.4097179
5.431152
3.7287832
2.7724515
2.1587355
1.7100484
1.3766513
1.1194583
0.90436641
0.73342887
0.6024303
0.5000862
0.41976277
0.35578244
0.30408174
0.26313102
0.22533251
0.19840068
0.17478803
0.15692236
0.14226301
0.13010757
0.12156169
0.11368707
0.10825882
0.10376261
0.1009799
0.098156899
0.096548206
0.095236604
3739014.3
604121.84
185474.35
78682.808
40039.266
22807.319
14008.535
9075.2518
6115.3836
4246.8127
3019.8785
2188.8553
1611.7938
1202.9011
908.34843
693.28641
534.54471
416.36075
327.79292
261.10489
210.72799
172.57806
143.59633
121.43828
104.26467
90.625105
79.314386
69.196031
59.408389
49.552455
39.629434
30.023437
21.38354
14.354565
9.2821829
6.0385954
4.1447171
3.0705975
2.3991108
1.9267776
1.56768
1.2708064
1.0220836
0.83005114
0.68153262
0.56407265
0.47037202
0.3959801
0.33826997
0.28918728
0.24932183
0.21528238
0.18962125
0.16711149
0.15159827
0.13768364
0.12656497
0.11805868
0.11111091
0.1065144
0.1025904
0.099785309
0.097703074
0.096277462
0.095102753
3739013.7
604118.88
185472
78681.155
40038.231
22806.746
14008.324
9075.3437
6115.7462
4247.4299
3020.7441
2189.9697
1613.1612
1204.5268
910.23602
695.43404
536.9402
418.97529
330.57343
263.96559
213.54247
175.1744
145.75926
122.93041
104.81236
89.841734
76.773857
64.761864
53.327362
42.36774
32.128707
23.088474
15.742755
10.351726
6.8029224
4.6662519
3.4306685
2.671301
2.148557
1.7456536
1.4139652
1.1483694
0.94312707
0.77513995
0.63771291
0.52962248
0.44392728
0.37600058
0.32082223
0.27494479
0.23892213
0.2051228
0.18205077
0.16140879
0.14650232
0.1329006
0.12323359
0.1163602
0.10987732
0.10548144
0.10182095
0.099308823
0.097034473
0.095843131
0.094902676
3739013.8
604119.05
185472.19
78681.412
40038.566
22807.167
14008.839
9075.9627
6116.4797
4248.2886
3021.7387
2191.1098
1614.4542
1205.9757
911.83672
697.17168
538.78404
420.87308
332.44538
265.69942
214.99256
176.16647
146.06982
122.25526
102.82611
86.354618
71.817155
58.578167
46.380637
35.303172
25.65041
17.773996
11.870837
7.8482057
5.3401308
3.8662794
2.9847628
2.4032223
1.9656363
1.6115459
1.324627
1.0879869
0.88781571
0.72696576
0.60176196
0.50295062
0.42287828
0.35853437
0.30740156
0.26385801
0.22844313
0.19740558
0.17581073
0.15545138
0.14209534
0.13017303
0.12081426
0.11357566
0.10773646
0.10403004
0.1005616
0.098768906
0.096756851
0.095634415
0.094780736
3739014
604119.17
185472.3
78681.561
40038.76
22807.413
14009.143
9076.3322
6116.9214
4248.8091
3022.3435
2191.8023
1615.2337
1206.8352
912.75974
698.12859
539.72794
421.73613
333.13294
266.08369
214.90328
175.37919
144.35629
119.44371
98.842335
81.245583
65.786436
51.999241
39.763297
29.201704
20.531205
13.893486
9.2266393
6.2256357
4.4350821
3.3844375
2.7172723
2.2289045
1.8357134
1.5095099
1.235684
1.0111558
0.83432433
0.69126806
0.5739316
0.48009074
0.4046491
0.34433526
0.29495029
0.25331635
0.22103062
0.19024655
0.17002043
0.15141862
0.13888885
0.12619019
0.11833835
0.11244572
0.10686387
0.10344715
0.10003877
0.098076177
0.096420717
0.095340538
0.094626668
3739014.9
604119.28
185472.34
78681.593
40038.803
22807.472
14009.223
9076.4357
6117.0525
4248.9703
3022.5355
2192.0224
1615.4738
1207.0796
912.98163
698.28618
539.75938
421.55303
332.61946
265.09983
213.29729
173.01395
141.12148
115.28727
93.804766
75.489179
59.60515
45.794749
33.980979
24.237765
16.640634
11.137125
7.4737627
5.2242669
3.9002711
3.0880771
2.5252682
2.0878552
1.727513
1.4261257
1.1776711
0.97289042
0.80056936
0.65979204
0.5489875
0.46128024
0.3895934
0.33164102
0.28483638
0.24504853
0.21339484