/*--------------------------------*- C++ -*----------------------------------*\
  =========                 |
  \\      /  F ield         | OpenFOAM: The Open Source CFD Toolbox
   \\    /   O peration     | Website:  https://openfoam.org
    \\  /    A nd           | Version:  13
     \\/     M anipulation  |
\*---------------------------------------------------------------------------*/
FoamFile
{
    format      ascii;
    class       volScalarField;
    location    "48.097426";
    object      omega;
}
// * * * * * * * * * * * * * * * * * * * * * * * * * * * * * * * * * * * * * //

dimensions      [0 0 -1 0 0 0 0];

internalField   nonuniform List<scalar> 
17140
(
4528389.9
731657.66
224626.36
95289.48
48487.714
27617.624
16960.862
10985.496
7400.01
5136.0633
3649.0615
2641.394
1941.1307
1444.35
1085.8403
823.37588
628.87675
483.24013
373.21281
289.44219
225.2297
175.715
137.33119
107.43436
84.047696
65.682207
51.209739
39.772231
30.716471
23.546834
17.890124
13.467128
10.065855
7.5140476
5.6556264
4.3398883
3.4274502
2.8020248
2.3761145
2.0887471
1.8993279
1.7831198
1.724475
1.7060074
1.7199063
1.7651391
1.8376571
1.9345271
2.0535575
2.1928328
2.3491338
2.5149628
2.6827093
2.8512562
3.0189637
3.1792623
3.3260155
3.4837623
3.7446088
4.1220969
3.9417009
3.2663624
3.2517999
3.2712225
3.0183567
4528420.9
731663.26
224628.41
95290.537
48488.345
27618.039
16961.151
10985.707
7400.168
5136.1838
3649.1542
2641.4652
1941.1849
1444.3902
1085.869
823.39462
628.88686
483.24258
373.20834
289.43133
225.2128
175.69227
137.30269
107.40007
84.007536
65.636101
51.157743
39.714675
30.65416
23.481258
17.823601
13.402739
10.00699
7.4635909
5.6149455
4.3088444
3.4048891
2.7863347
2.3657473
2.0824693
1.8962441
1.7829102
1.7270041
1.7100885
1.7257768
1.7728092
1.8472491
1.9463401
2.0681764
2.2112814
2.37297
2.5463285
2.7248311
2.9088314
3.096012
3.2769791
3.4381795
3.5871387
3.7752409
4.0243906
3.8649797
3.3566477
3.3361977
3.2700716
3.0801043
4528451.2
731668.24
224629.96
95291.19
48488.678
27618.229
16961.267
10985.78
7400.2167
5136.2166
3649.1765
2641.4803
1941.1949
1444.3967
1085.8728
823.39644
628.88715
483.24161
373.20622
289.42804
225.20818
175.68604
137.29446
107.38935
83.993746
65.618691
51.136241
39.688824
30.624067
23.447552
17.78755
13.36629
9.9724564
7.4330927
5.5898178
4.2893602
3.3905181
2.776262
2.3592015
2.0788022
1.8949652
1.7839668
1.7304589
1.7149479
1.7324298
1.781424
1.8581444
1.9600838
2.0857466
2.234281
2.4036657
2.5876662
2.7817772
2.9883414
3.204493
3.4150125
3.5978865
3.7426727
3.87191
3.96488
3.8285651
3.4777137
3.3680307
3.276264
3.1390963
4528483
731673.41
224631.56
95291.873
48489.026
27618.428
16961.391
10985.862
7400.2729
5136.2571
3649.2071
2641.5046
1941.2153
1444.4146
1085.8895
823.41271
628.90356
483.25854
373.2239
289.44654
225.22741
175.70573
137.31418
107.40847
84.011532
65.634292
51.148796
39.697578
30.628515
23.447593
17.783601
13.35918
9.9633805
7.4233868
5.5806547
4.2815237
3.3843834
2.7719166
2.3565784
2.0778082
1.8955346
1.7863388
1.7349056
1.7206978
1.740058
1.791287
1.8708012
1.9764335
2.1072473
2.2632147
2.4430358
2.641304
2.8567612
3.0950843
3.3532357
3.6056741
3.8128458
3.9561786
4.0450631
4.0541211
3.8463684
3.5348539
3.3864631
3.3228658
3.2121253
4528516.9
731678.91
224633.26
95292.59
48489.391
27618.639
16961.524
10985.952
7400.3382
5136.3074
3649.2483
2641.5406
1941.2485
1444.447
1085.9222
823.44665
628.93946
483.2969
373.26502
289.49057
225.27429
175.7552
137.36577
107.46149
84.065077
65.687271
51.199985
39.745692
30.672306
23.485951
17.81566
13.384496
9.9820256
7.4360218
5.5884716
4.2859806
3.3868627
2.7735069
2.3580437
2.0796666
1.8981502
1.7902169
1.7405171
1.7275829
1.7490137
1.8028918
1.8859083
1.9963521
2.1340276
2.2999369
2.4934481
2.7104122
2.9548945
3.2377603
3.5573014
3.8704455
4.1041065
4.2328804
4.2958802
4.2499761
3.9492407
3.6122247
3.44311
3.4554048
3.3342289
4528552.1
731684.59
224635
95293.331
48489.773
27618.862
16961.667
10986.052
7400.4129
5136.3677
3649.3005
2641.5887
1941.2954
1444.4944
1085.9716
823.49919
628.9959
483.35785
373.33089
289.56154
225.35037
175.83613
137.45105
107.55034
84.156424
65.779777
51.292055
39.835516
30.757908
23.565258
17.886603
13.445215
10.031231
7.473472
5.615239
4.3041814
3.3989658
2.7817219
2.3640692
2.0847245
1.9031327
1.7960034
1.7474619
1.7359461
1.7597796
1.8168966
1.9043679
2.0210896
2.1678369
2.346819
2.5578595
2.799285
3.0835048
3.4289218
3.832911
4.243573
4.5079453
4.6072018
4.6295615
4.521928
4.1835726
3.7859712
3.6140148
3.6744013
3.4687253
4528588.7
731690.44
224636.79
95294.098
48490.172
27619.097
16961.82
10986.16
7400.4971
5136.4382
3649.3639
2641.6493
1941.3559
1444.5571
1086.0381
823.5706
629.07321
483.44176
373.4219
289.65995
225.45622
175.9492
137.5708
107.67594
84.28666
65.913074
51.426462
39.968703
30.887168
23.687521
17.998526
13.543452
10.11304
7.5375902
5.6625222
4.3373623
3.4216265
2.7972588
2.3751893
2.093417
1.9108525
1.8039706
1.7562298
1.7462865
1.7730068
1.8341715
1.9273637
2.0522893
2.2109872
2.4069068
2.640044
2.9140834
3.2541026
3.6907158
4.2264172
4.7788931
5.0905357
5.1455249
5.0747222
4.8711434
4.5107199
4.1149732
3.9739097
3.9380651
3.5788258
4528626.6
731696.5
224638.64
95294.894
48490.588
27619.344
16961.983
10986.279
7400.5908
5136.5188
3649.4383
2641.7219
1941.43
1444.6349
1086.1212
823.6605
629.17095
483.54818
373.53762
289.78535
225.59141
176.09402
137.72475
107.83812
84.455771
66.08735
51.603634
40.145959
31.061095
23.85407
18.153067
13.681106
10.229504
7.630416
5.7321661
4.3870544
3.4560405
2.8210296
2.3921109
2.1063228
1.9218245
1.8146082
1.7672453
1.7592755
1.7895677
1.8558712
1.956468
2.0921557
2.2666031
2.4841276
2.7451604
3.0641036
3.4842845
4.0566517
4.7951899
5.5510274
5.9600477
5.9357771
5.6759486
5.3249714
4.8849665
4.501688
4.3549692
4.1696644
3.5288558
4528664.7
731702.75
224640.57
95295.722
48491.019
27619.601
16962.155
10986.406
7400.6936
5136.6089
3649.523
2641.806
1941.5167
1444.7267
1086.22
823.76775
629.28787
483.67576
373.6766
289.93622
225.7544
176.26905
137.91136
108.03544
84.66246
66.301511
51.822757
40.366819
31.279648
24.065351
18.351204
13.859678
10.38255
7.7540945
5.8262697
4.4550953
3.5036952
2.854195
2.4157454
2.1241937
1.9367432
1.8287952
1.7814657
1.7758792
1.8106439
1.8835516
1.9938123
2.1437243
2.3389867
2.5836246
2.8810479
3.2640858
3.8015581
4.5771434
5.6116047
6.6471025
7.1973362
6.9819077
6.4673962
5.9058454
5.3356297
4.8930045
4.710448
4.3480559
3.1203693
4528704.9
731709.26
224642.57
95296.582
48491.467
27619.871
16962.337
10986.542
7400.8048
5136.7077
3649.617
2641.9003
1941.6147
1444.831
1086.3326
823.89038
629.42185
483.82218
373.83634
290.10992
225.94242
176.47141
138.12772
108.26502
84.903945
66.55297
52.081535
40.629395
31.541466
24.320653
18.59298
14.080017
10.573768
7.9107362
5.9471191
4.543621
3.5663949
2.8982026
2.4472476
2.1479722
1.9563621
1.847004
1.8003186
1.7974325
1.8378541
1.9193586
2.0423688
2.2112943
2.4340684
2.71256
3.0604372
3.5374765
4.2476618
5.3214293
6.7272707
7.875055
7.8619462
7.4338063
6.8906762
6.3475851
5.7658957
5.2928224
5.0167144
4.3604161
2.3104467
4528746.8
731716
224644.65
95297.476
48491.935
27620.153
16962.528
10986.685
7400.9232
5136.8139
3649.7189
2642.0029
1941.7219
1444.9455
1086.4566
824.02557
629.56975
483.98404
374.01318
290.30253
226.1513
176.69678
138.3694
108.52236
85.175769
66.837422
52.375945
40.930098
31.843567
24.617782
18.87717
14.341994
10.804126
8.1021987
6.0970604
4.6550226
3.6462755
2.9548356
2.4880935
2.178942
1.9819602
1.8707144
1.8248331
1.8256662
1.8734529
1.9663471
2.1064354
2.3011369
2.5598959
2.882166
3.3043683
3.9213218
4.8851477
6.3693766
8.0420382
8.3480076
8.0275188
7.1353041
6.5272521
6.2595252
5.8996902
5.5043435
4.9999976
3.4404796
1.3214898
4528789.6
731722.95
224646.8
95298.401
48492.421
27620.446
16962.727
10986.835
7401.0474
5136.9257
3649.8264
2642.1117
1941.8357
1445.0672
1086.5885
824.16962
629.72752
484.1569
374.2023
290.50886
226.37555
176.93934
138.63033
108.80126
85.471665
67.148668
52.700021
41.26338
32.181039
24.952714
19.200892
14.644095
11.073577
8.3297598
6.2782785
4.7918385
3.7457841
3.0262439
2.5401295
2.2187398
2.0152302
1.901705
1.8567601
1.8630445
1.9206944
2.029046
2.1925317
2.4227877
2.7277304
3.111868
3.6480205
4.4770206
5.8124898
7.7680122
8.7456808
8.4590837
7.3559399
5.3653131
4.1293466
4.0882175
4.3860162
4.2990898
3.44582
1.5349639
0.62552708
4528834.7
731730.22
224649.04
95299.361
48492.924
27620.75
16962.934
10986.991
7401.1759
5137.0411
3649.9374
2642.2238
1941.9529
1445.1925
1086.7244
824.31801
629.89014
484.33527
374.39773
290.72246
226.60823
177.19176
138.9028
109.09369
85.783441
67.478477
53.04566
41.621485
32.546735
25.319216
19.559173
14.982935
11.380555
8.5936533
6.492439
4.9565406
3.8675968
3.114956
2.6056537
2.2695261
2.058258
1.9422099
1.8989517
1.9130497
1.9844478
2.1144776
2.3111387
2.5917472
2.9583525
3.4369029
4.1532252
5.3164489
7.1867921
9.0420023
8.963417
8.1062539
5.57867
3.3299565
2.1562363
1.7366705
1.7193817
1.6132602
1.1857296
0.6209985
0.32647417
4528880.1
731737.64
224651.34
95300.349
48493.443
27621.063
16963.145
10987.149
7401.3063
5137.1576
3650.0488
2642.3359
1942.0698
1445.3173
1086.8595
824.46555
630.05189
484.51283
374.59253
290.9358
226.84123
177.44533
139.17759
109.38999
86.101061
67.816585
53.402554
41.994291
32.931011
25.708484
19.944471
15.352685
11.721331
8.8924337
6.7401487
5.1511603
4.0144237
3.2238249
2.68745
2.3340544
2.113868
1.9954056
1.9554538
1.9810156
2.0723307
2.2340214
2.4800054
2.8347802
3.2891237
3.9211889
4.9384056
6.6549013
9.0269353
9.5471491
8.9263642
6.7624788
3.745346
2.0898398
1.3307354
0.96554551
0.80424146
0.68670311
0.50396917
0.33065648
0.22868839
4528926.9
731745.3
224653.7
95301.374
48493.979
27621.385
16963.361
10987.309
7401.4363
5137.2725
3650.1575
2642.4444
1942.1823
1445.4368
1086.9886
824.60631
630.20617
484.6823
374.77876
291.14021
227.06516
177.68996
139.44393
109.67876
86.412592
68.150648
53.758118
42.369196
33.321542
26.108836
20.346217
15.744474
12.089335
9.222221
7.0202246
5.3767089
4.1886534
3.3558904
2.7888292
2.415874
2.185973
2.0658744
2.03242
2.0753604
2.1967946
2.4069228
2.7299818
3.1934869
3.7867066
4.6900864
6.2506563
8.7756231
10.086037
9.6892139
8.1775755
4.5875344
2.4388785
1.4435045
0.92848883
0.65947106
0.50655167
0.40021824
0.30298055
0.24115492
0.19084222
4528977.9
731753.5
224656.21
95302.442
48494.534
27621.715
16963.581
10987.469
7401.5644
5137.3835
3650.2607
2642.5459
1942.2863
1445.5466
1087.1066
824.73463
630.34666
484.83667
374.94862
291.32713
227.27064
177.91546
139.69079
109.94817
86.705464
68.467447
54.098632
42.732196
33.704332
26.506674
20.751668
16.146898
12.475097
9.5761985
7.3289483
5.6324274
4.3917986
3.5141079
2.9136367
2.5196026
2.2801078
2.1605847
2.1399313
2.2098656
2.3792292
2.6674853
3.1163615
3.7363961
4.5847011
6.0100855
8.5321073
10.589372
10.417805
9.3209769
5.9098439
3.0354601
1.6584842
1.008838
0.69012371
0.50797331
0.38587447
0.3033132
0.23806586
0.20401873
0.16635073
4529031.7
731762.01
224658.8
95303.55
48495.108
27622.054
16963.802
10987.628
7401.6878
5137.4877
3650.3551
2642.6366
1942.3777
1445.6418
1087.208
824.84432
630.46645
484.96823
375.09358
291.48711
227.4473
178.11046
139.90581
110.18484
86.965291
68.751647
54.407906
43.066402
34.062022
26.884505
21.143709
16.544032
12.864788
9.9434376
7.6589557
5.9147463
4.6236841
3.7008983
3.0661922
2.6511202
2.4041625
2.2914079
2.2946906
2.4084308
2.6588735
3.0802405
3.7323391
4.6043947
5.9684154
8.3936439
11.029272
11.188453
10.334336
7.4712277
3.7358464
1.9169276
1.0925437
0.71253534
0.51788658
0.40271186
0.31677026
0.25385509
0.20146216
0.17143178
0.14433339
4529085.9
731770.7
224661.48
95304.692
48495.695
27622.397
16964.023
10987.782
7401.8041
5137.5821
3650.4373
2642.7129
1942.4522
1445.7175
1087.2874
824.92924
630.55864
485.06929
375.20509
291.6107
227.58468
178.26347
140.07639
110.37505
87.177196
68.987217
54.668806
43.353677
34.375661
27.22285
21.502747
16.916672
13.240403
10.308329
7.9983075
6.216258
4.8815534
3.91767
3.2515076
2.819035
2.5714124
2.4781782
2.5235602
2.7175758
3.1107995
3.7684137
4.7211862
6.1017742
8.474633
11.461575
11.938535
11.267607
8.9639408
4.5300915
2.2965002
1.2803753
0.81439923
0.57043921
0.42276778
0.32480761
0.25460362
0.20418602
0.16592277
0.14917066
0.12880666
4529139.6
731779.58
224664.22
95305.857
48496.294
27622.744
16964.241
10987.93
7401.9112
5137.6645
3650.5047
2642.7715
1942.5062
1445.7698
1087.3402
824.98428
630.61748
485.1334
375.27594
291.68985
227.67383
178.36454
140.19153
110.50664
87.327821
69.15956
54.865479
43.57695
34.627049
27.50256
21.808971
17.244805
13.582424
10.652757
8.3316218
6.5258943
5.1598519
4.1648599
3.4761741
3.036775
2.8040841
2.7558752
2.8787232
3.2265941
3.8830196
4.9254521
6.3931214
8.7756438
11.997706
12.713541
12.146553
10.171445
5.5127923
2.8447471
1.5307819
0.91789212
0.6218901
0.46351456
0.35868637
0.27850957
0.21823806
0.17713987
0.14975385
0.13465533
0.11759168
4529196.7
731788.85
224667.06
95307.066
48496.911
27623.096
16964.459
10988.072
7402.008
5137.7332
3650.5552
2642.81
1942.5367
1445.7951
1087.3623
825.00482
630.63774
485.15463
375.29941
291.71697
227.70623
178.40415
140.24064
110.56793
87.404368
69.254717
54.98271
43.71969
34.79835
27.704556
22.042194
17.507444
13.869634
10.956413
8.6410474
6.8301551
5.4514549
4.4435307
3.7511704
3.3278603
3.1435116
3.1855286
3.4653463
4.1121575
5.2373919
6.8292521
9.2838015
12.664061
13.554931
13.042584
11.234209
6.6677948
3.4550575
1.773359
1.0294387
0.69161809
0.50974931
0.38801854
0.30197626
0.24004126
0.19308514
0.15978949
0.13365891
0.1218764
0.10780229
4529258.1
731798.62
224670.04
95308.321
48497.545
27623.453
16964.674
10988.206
7402.0933
5137.7866
3650.587
2642.8262
1942.5414
1445.7908
1087.3508
824.98752
630.6157
485.12883
375.27088
291.68686
227.67595
178.37541
140.21559
110.54923
87.395262
69.259213
55.005521
43.765894
34.872997
27.811983
22.184942
17.68651
14.08369
11.201428
8.9106861
7.117503
5.7523468
4.7609368
4.0996037
3.7379402
3.6691797
3.8833502
4.4977111
5.6850298
7.4517032
9.9602984
13.460063
14.469615
13.985561
12.281345
7.858166
4.0433802
2.0466531
1.1817211
0.79062669
0.56771846
0.42393237
0.32696676
0.2563169
0.20450461
0.16554819
0.13935029
0.12158203
0.1126334
0.10200645
4529319.5
731808.55
224673.09
95309.609
48498.193
27623.813
16964.885
10988.332
7402.1661
5137.824
3650.5991
2642.8193
1942.5192
1445.7558
1087.3046
824.93116
630.55007
485.05469
375.18906
291.59837
227.58207
178.27783
140.11651
110.4514
87.302068
69.174622
54.934119
43.712923
34.844349
27.814324
22.225889
17.771627
14.214896
11.379319
9.1347988
7.3878241
6.072638
5.1440863
4.5750261
4.3621042
4.5104175
5.0918341
6.3329566
8.2602537
10.87049
14.344754
15.464787
14.988341
13.332829
9.0130214
4.6542683
2.3877343
1.3742705
0.89949465
0.62278553
0.45789359
0.35816237
0.28723187
0.23071909
0.18524756
0.1523392
0.13055717
0.11485323
0.10625183
0.096070041
4529381.2
731818.67
224676.21
95310.927
48498.853
27624.176
16965.093
10988.45
7402.2269
5137.8457
3650.5921
2642.7898
1942.4708
1445.6909
1087.2245
824.83672
630.44198
484.93352
375.05543
291.45312
227.4264
178.1134
139.94557
110.27693
87.12784
69.005294
54.775234
43.570869
34.726216
27.727602
22.1781
17.771357
14.272481
11.501965
9.3307042
7.6682982
6.45645
5.6651215
5.294631
5.369868
5.9230098
7.209382
9.2807469
11.960033
15.338816
16.549125
16.06491
14.410928
10.142008
5.3391044
2.7895798
1.5965914
1.010062
0.68498795
0.50588598
0.40107141
0.31964967
0.25198286
0.20180135
0.16578017
0.13916957
0.12056747
0.10691031
0.10058355
0.092272993
4529447.3
731829.37
224679.48
95312.295
48499.534
27624.546
16965.3
10988.562
7402.2779
5137.8543
3650.5688
2642.7408
1942.3998
1445.6
1087.115
824.70953
630.29751
484.77221
374.8778
291.25993
227.21881
177.89311
139.71497
110.03925
86.887308
68.767217
54.546102
43.358384
34.539256
27.576129
22.073042
17.724591
14.296811
11.615938
9.5565155
8.0358909
7.0105293
6.4767306
6.4779977
7.0088848
8.3284484
10.505446
13.235266
16.479723
17.738111
17.231404
15.537044
11.249164
6.1062454
3.2575944
1.8426415
1.1315675
0.76358226
0.56793481
0.44411345
0.3465588
0.27189642
0.21924874
0.17896675
0.14866322
0.12710797
0.1121001
0.10213485
0.09558323
0.088617853
4529517.1
731840.53
224682.9
95313.725
48500.243
27624.929
16965.511
10988.673
7402.3244
5137.8554
3650.5357
2642.6797
1942.3146
1445.4929
1086.9874
824.56202
630.13065
484.58642
374.67362
291.0382
226.98079
177.64069
139.45079
109.76696
86.61167
68.494351
54.283619
43.115537
34.327071
27.407549
21.963118
17.690486
14.36316
11.814674
9.9294527
8.6409908
7.9317648
7.8381837
8.3597136
9.7062231
11.947301
14.716699
17.784447
19.045679
18.500961
16.727954
12.348434
6.9493713
3.7656741
2.0992265
1.2657615
0.85994796
0.6370105
0.48579661
0.37528267
0.29919234
0.24498902
0.20185273
0.16689068
0.14048437
0.12133958
0.10802487
0.098109585
0.092892599
0.086227515
4529588.1
731851.96
224686.4
95315.203
48500.975
27625.324
16965.729
10988.788
7402.3721
5137.8563
3650.5011
2642.6165
1942.2267
1445.3828
1086.8565
824.41136
629.96087
484.39817
374.46774
290.81582
226.74355
177.39091
139.19171
109.50288
86.348266
68.238885
54.045227
42.905526
34.159202
27.2982
21.933668
17.773475
14.598226
12.252374
10.638794
9.7170831
9.5049263
9.9954871
11.340806
13.617789
16.414504
19.287433
20.479909
19.882249
17.99181
13.465133
7.8578164
4.3195158
2.387508
1.4340376
0.97916299
0.71487048
0.53292296
0.41298752
0.33287115
0.27175496
0.21992385
0.17868365
0.14924993
0.12833305
0.11242646
0.10150658
0.093949214
0.088840605
0.083765637
4529661.3
731863.83
224690.03
95316.734
48501.738
27625.739
16965.962
10988.914
7402.4315
5137.8692
3650.4795
2642.5676
1942.155
1445.2911
1086.7466
824.28464
629.81851
484.24133
374.29775
290.6344
226.553
177.19428
138.99305
109.30749
86.162994
68.072404
53.908398
42.812674
34.129684
27.359235
22.122006
18.13239
15.185004
13.143802
11.936988
11.554599
11.974854
13.26844
15.537008
18.340608
21.013348
22.050057
21.377657
19.338689
14.613253
8.8395869
4.9316824
2.7203845
1.6302955
1.1080791
0.79403805
0.58761087
0.45833467
0.3681234
0.29596477
0.23890754
0.19686153
0.1654551
0.14018341
0.12093435
0.10776657
0.098296859
0.091267342
0.086967004
0.082307169
4529737.4
731876.14
224693.82
95318.326
48502.536
27626.18
16966.218
10989.064
7402.5148
5137.9083
3650.4872
2642.5518
1942.1207
1445.2418
1086.6849
824.21257
629.73789
484.15404
374.2059
290.54055
226.4603
177.10679
138.91599
109.2477
86.12951
68.077436
53.968709
42.950035
34.372421
27.744269
22.696002
18.957643
16.342855
14.738829
14.098656
14.377684
15.551247
17.749185
20.504331
22.99463
23.789044
23.000718
20.781752
15.804159
9.8906759
5.6034352
3.0914754
1.8459259
1.243853
0.8849009
0.6575449
0.51331125
0.40475349
0.32347021
0.26374438
0.2189304
0.18164441
0.1526716
0.13133163
0.11542203
0.10324719
0.094990866
0.088882209
0.084820634
0.080649262
4529816
731888.84
224697.73
95319.983
48503.374
27626.654
16966.504
10989.243
7402.63
5137.9827
3650.5348
2642.5813
1942.1382
1445.2516
1086.6905
824.21699
629.74408
484.16512
374.22539
290.57259
226.50999
177.18046
139.02165
109.39558
86.332744
68.352985
54.338516
43.443299
35.027399
28.610242
23.837167
20.456131
18.300902
17.277031
17.336586
18.264823
20.292581
22.967289
25.272879
25.72092
24.772884
22.291306
17.048277
11.005199
6.3350382
3.5044521
2.0868019
1.3995723
0.995679
0.74239243
0.57228931
0.44520969
0.35605473
0.29237679
0.24089135
0.19900852
0.16655746
0.14179768
0.12218276
0.10867463
0.098714127
0.091616624
0.08639573
0.08282605
0.079533033
4529897.8
731902.1
224701.79
95321.713
48504.259
27627.162
16966.823
10989.458
7402.7833
5138.0999
3650.631
2642.6665
1942.2195
1445.3345
1086.7796
824.31685
629.85915
484.30024
374.38602
290.76512
226.74208
177.46144
139.36311
109.81211
86.842944
68.98085
55.114807
44.407452
36.229921
30.115268
25.724811
22.822774
21.254177
20.924878
21.57444
23.246761
25.664161
27.860229
27.843863
26.697527
23.832356
18.365307
12.176043
7.1254348
3.9607958
2.3575254
1.5752351
1.1212476
0.83253276
0.63552239
0.4924029
0.39561676
0.32233962
0.26480371
0.21867263
0.18295298
0.15443446
0.13314198
0.11746923
0.10558307
0.096525176
0.09001963
0.08519644
0.081854736
0.078665598
4529983.7
731915.9
224706.03
95323.521
48505.191
27627.709
16967.178
10989.709
7402.9777
5138.2636
3650.7804
2642.8128
1942.371
1445.4981
1086.9617
824.52333
630.09652
484.57555
374.70732
291.14186
227.1855
177.98525
139.98414
110.55139
87.726701
70.041924
56.394455
45.957088
38.113039
32.408297
28.515011
26.202987
25.301926
25.57797
26.720383
28.698791
30.488675
30.171606
28.741128
25.407019
19.746002
13.373486
7.9599592
4.4603916
2.6614063
1.7741635
1.2614612
0.93500258
0.71116255
0.55310721
0.44159486
0.3566311
0.29165437
0.24210651
0.20154002
0.16999512
0.14520402
0.12631192
0.1114328
0.10052399
0.092687219
0.087245449
0.083047931
0.080246241
0.077782751
4530071.7
731930.11
224710.42
95325.4
48506.171
27628.295
16967.57
10990
7403.2161
5138.4773
3650.9873
2643.0255
1942.5994
1445.7507
1087.2466
824.84891
630.47158
485.01005
375.21273
291.73165
227.87577
178.79542
140.93791
111.67764
89.060903
71.627343
58.28355
48.212405
40.806387
35.616487
32.309241
30.625876
30.340653
30.912448
32.129932
33.301543
32.668131
30.894007
27.064722
21.192879
14.599169
8.8333951
5.0144069
3.0118726
2.0012824
1.4189995
1.0504694
0.79969285
0.62057004
0.49172684
0.39340484
0.32241081
0.26686459
0.22305193
0.18691532
0.15859547
0.13593996
0.11933409
0.10673478
0.097819935
0.090761267
0.085855674
0.081994298
0.079553546
0.077225942
4530163.2
731944.95
224714.98
95327.362
48507.206
27628.928
16968.01
10990.343
7403.5122
5138.7568
3651.2698
2643.3254
1942.9284
1446.1195
1087.6654
825.32857
631.024
485.64868
375.95321
292.59239
228.87871
179.96689
142.30959
113.28761
90.954578
73.858021
60.908098
51.296194
44.41285
39.793344
37.064052
35.888694
35.904654
36.467412
36.388277
35.323138
33.049575
28.809474
22.671246
15.815667
9.7417671
5.6346287
3.4138317
2.2544896
1.5908052
1.1797491
0.90020255
0.69831526
0.5497225
0.4400199
0.35888418
0.29664532
0.24661401
0.20690352
0.17371013
0.14880998
0.12930521
0.11498541
0.10358263
0.095252269
0.08889125
0.084407464
0.080957327
0.07856031
0.076497314
4530257.7
731960.25
224719.71
95329.422
48508.313
27629.626
16968.514
10990.755
7403.8862
5139.1252
3651.6547
2643.7432
1943.393
1446.6438
1088.2626
826.01259
631.81035
486.55513
377.00043
293.80483
230.2855
181.60286
144.21638
115.51475
93.554092
76.873942
64.385184
55.284674
48.937719
44.829752
42.498445
41.496367
41.074742
40.042792
38.044121
35.316583
30.598699
24.133512
17.017143
10.713167
6.3463495
3.8769735
2.5383598
1.7837714
1.3284915
1.0172491
0.78784921
0.6186575
0.4931973
0.40048675
0.32774248
0.27289928
0.22815452
0.19268614
0.16339347
0.14113515
0.12321681
0.10989516
0.099395692
0.092292451
0.086714988
0.082947658
0.079766356
0.077892252
0.076066193
4530355.2
731976.06
224724.62
95331.58
48509.498
27630.397
16969.096
10991.254
7404.3593
5139.6076
3652.1706
2644.3116
1944.0303
1447.3659
1089.0857
826.95431
632.89047
487.7964
378.4295
295.45326
232.19059
183.80738
146.767
118.45695
96.931724
80.721795
68.720919
60.095612
54.166687
50.343553
47.970854
46.145632
43.92566
41.20503
37.723883
32.425195
25.609781
18.283483
11.799863
7.1671575
4.4011512
2.8543641
2.0009623
1.4966305
1.1477446
0.88861824
0.69714895
0.55527617
0.44792337
0.3662487
0.30322127
0.25431596
0.21361215
0.18126233
0.15387411
0.13378778
0.11762688
0.10629809
0.097494048
0.090855
0.085666486
0.082075903
0.079234782
0.07733165
0.075655474
4530457.6
731992.62
224729.77
95333.863
48510.775
27631.253
16969.767
10991.853
7404.9467
5140.2213
3652.8374
2645.053
1944.8657
1448.3141
1090.1664
828.18902
634.30319
489.41434
380.28346
297.57745
234.62213
186.58614
149.9341
122.05289
100.9901
85.266219
73.720611
65.421598
59.559442
55.309486
51.765711
48.2884
44.71732
40.345141
34.414591
27.236168
19.707131
13.021612
8.0824481
4.9820075
3.2122124
2.2521341
1.6881822
1.2953004
1.005128
0.7908144
0.62871251
0.5052096
0.41058123
0.33897442
0.28163401
0.23742212
0.20005861
0.17045001
0.14601657
0.12809453
0.11374607
0.10321919
0.09435848
0.088531919
0.083882981
0.08080976
0.078250192
0.076782343
0.075186892
4530563.2
732009.78
224735.14
95336.267
48512.144
27632.201
16970.537
10992.562
7405.659
5140.9781
3653.668
2645.9815
1945.914
1449.5036
1091.5191
829.72844
636.05486
491.406
382.54468
300.13907
237.51443
189.83498
153.55509
126.04289
105.31637
89.856952
78.439306
69.980299
63.504252
58.173923
53.388896
48.738846
43.337972
36.691292
29.085554
21.29896
14.36395
9.0916352
5.6499838
3.6454543
2.5527151
1.9059918
1.4609914
1.1385883
0.89840633
0.71296262
0.57034637
0.46235912
0.37924594
0.31492529
0.26369969
0.22342708
0.18896983
0.16202042
0.13919328
0.12299518
0.10934088
0.099890034
0.092587606
0.087554881
0.083157746
0.080309675
0.077803038
0.076324338
0.074913484
4530672.5
732027.53
224740.71
95338.788
48513.607
27633.239
16971.405
10993.381
7406.4962
5141.8766
3654.6591
2647.0907
1947.1643
1450.9174
1093.1192
831.53843
638.09956
493.71067
385.13395
303.03428
240.72937
193.36926
157.3845
130.1059
109.49633
93.958019
82.194951
73.101184
65.761741
59.406655
53.395968
46.789636
39.314603
31.20148
23.098885
15.879297
10.261947
6.4628496
4.1795951
2.9021369
2.145839
1.6455675
1.2915732
1.0227211
0.81149209
0.6489788
0.5246741
0.4288371
0.35357752
0.29542294
0.24801734
0.21111954
0.17913033
0.15414364
0.13322217
0.11839709
0.10638891
0.098084556
0.090750909
0.085811629
0.08190836
0.079428415
0.07725914
0.076017929
0.074612568
4530784.7
732045.87
224746.48
95341.413
48515.145
27634.342
16972.336
10994.265
7407.4057
5142.856
3655.7413
2648.3027
1948.5301
1452.46
1094.8614
833.50267
640.3072
496.18052
387.87988
306.06117
244.02717
196.90481
161.09136
133.87344
113.16045
97.298221
84.94428
74.98972
66.570336
58.78224
50.813036
42.407311
33.7064
25.219755
17.660875
11.655142
7.4453977
4.8164982
3.3026882
2.419221
1.8614564
1.4704774
1.1668837
0.92666985
0.74149561
0.59776743
0.48542061
0.39863756
0.33071256
0.27772995
0.23459429
0.20041703
0.17045725
0.14752741
0.12820505
0.1148955
0.10329611
0.095344694
0.088911103
0.084722432
0.081126554
0.078752647
0.076722795
0.075599142
0.074365452
4530901
732061.45
224749.59
95341.919
48515.11
27634.257
16972.35
10994.43
7407.7424
5143.3769
3656.4561
2649.2211
1949.6632
1453.8195
1096.4595
835.3508
642.41384
498.54852
390.50206
308.9147
247.06649
200.05352
164.23435
136.85158
115.77207
99.311192
86.138712
75.133773
65.214284
55.674794
46.18511
36.76812
27.781428
19.788225
13.318885
8.6312692
5.5919543
3.7935283
2.7540841
2.1172262
1.6735836
1.3293805
1.059664
0.84974647
0.68401356
0.55393283
0.45309202
0.37478927
0.31227
0.26331306
0.22278096
0.19116152
0.16314382
0.14183015
0.12362587
0.11125932
0.10078732
0.09399167
0.087928279
0.083933503
0.080461115
0.078393256
0.07649157
0.075408175
0.074243546
4531685.4
732195.53
224794.73
95363.313
48527.259
27642.047
16977.818
10998.56
7411.0655
5146.2033
3658.9813
2651.5757
1951.9382
1456.0811
1098.7558
837.71546
644.86707
501.09536
393.12919
311.58564
249.71603
202.58263
166.50773
138.70068
117.01337
99.732255
85.417394
72.927662
61.487454
50.648894
40.303124
30.655832
22.124272
15.142808
9.9543082
6.4797009
4.3637077
3.1342676
2.3932915
1.8894013
1.5084602
1.2114748
0.97477016
0.78401617
0.63399832
0.51658467
0.4240841
0.35169919
0.29419561
0.24923934
0.21206108
0.18266339
0.15629927
0.13648964
0.11969
0.10855275
0.098630257
0.091883989
0.086212477
0.08267765
0.079598838
0.077747984
0.076018982
0.075003662
0.074079289
4531684.6
732191.83
224791.75
95361.126
48525.766
27641.055
16977.198
10998.235
7410.9888
5146.3476
3659.3302
2652.1199
1952.6722
1457.0006
1099.855
838.98379
646.28561
502.63227
394.73456
313.18617
251.21049
203.84038
167.37535
138.98462
116.44839
98.030831
82.415867
68.649418
56.126736
44.587641
34.081934
24.875707
17.297329
11.548768
7.5776121
5.076112
3.5960947
2.7151476
2.1397621
1.7185722
1.3875949
1.1178561
0.89957697
0.72716695
0.59103362
0.48311295
0.39862756
0.33272943
0.27948478
0.23758332
0.20228976
0.1749465
0.15012757
0.13189282
0.1160197
0.10561955
0.096259504
0.090691521
0.085492335
0.082146006
0.079148254
0.077319047
0.075734659
0.074849831
0.073973355
4531684.8
732191.94
224791.85
95361.268
48525.951
27641.287
16977.483
10998.579
7411.398
5146.8277
3659.887
2652.7577
1953.3935
1457.804
1100.7334
839.92177
647.25605
503.59278
395.62401
313.9228
251.68488
203.90809
166.84
137.63842
114.13091
94.666198
78.030693
63.405647
50.337896
38.694776
28.578634
20.194417
13.698114
9.0612126
6.0289191
4.1918096
3.1105046
2.4358923
1.9601941
1.5877896
1.283673
1.0376924
0.840477
0.68168972
0.55559461
0.45593081
0.37717606
0.31523364
0.26534336
0.22655115
0.19394714
0.16847258
0.14510521
0.12787307
0.1128719
0.10351037
0.094909444
0.089130369
0.084136127
0.081181403
0.078610556
0.077037338
0.075537911
0.074657381
0.073858319
4531684.9
732192.01
224791.9
95361.325
48526.026
27641.383
16977.604
10998.728
7411.5787
5147.0431
3660.1389
2653.0463
1953.7156
1458.1518
1101.0921
840.26738
647.5515
503.78433
395.63608
313.65067
251.00061
202.6704
164.91984
134.93068
110.57868
90.291584
72.962808
57.892752
44.730509
33.392941
23.951442
16.495808
11.01353
7.2995071
4.9858737
3.6216936
2.7991415
2.2454987
1.8242368
1.4835005
1.2049805
0.97676621
0.79096633
0.64267012
0.52527761
0.43179559
0.35833531
0.30103775
0.25434952
0.21783088
0.18670715
0.16289831
0.1405045
0.12456087
0.11040457
0.10137956
0.092963481
0.088233874
0.083650991
0.080830929
0.078085475
0.076603665
0.075248667
0.074478091
0.073782507
4531686.1
732192.1
224791.89
95361.293
48525.985
27641.337
16977.552
10998.674
7411.5213
5146.9829
3660.0741
2652.9724
1953.6242
1458.0285
1100.9144
840.00198
647.15163
503.18765
394.76451
312.41445
249.30117
200.4101
162.01737
131.34206
106.32109
85.464731
67.759438
52.589393
39.652956
28.859852
20.209859
13.670083
9.0772994
6.107946
4.317594
3.2560638
2.5823475
2.0983441
1.7150912
1.398846
1.136377
0.92187633
0.74901685
0.61005602
0.49952052