/*--------------------------------*- C++ -*----------------------------------*\
  =========                 |
  \\      /  F ield         | OpenFOAM: The Open Source CFD Toolbox
   \\    /   O peration     | Website:  https://openfoam.org
    \\  /    A nd           | Version:  13
     \\/     M anipulation  |
\*---------------------------------------------------------------------------*/
FoamFile
{
    format      ascii;
    class       volSymmTensorField;
    location    "48.097426";
    object      UPrime2Mean;
}
// * * * * * * * * * * * * * * * * * * * * * * * * * * * * * * * * * * * * * //

dimensions      [0 2 -2 0 0 0 0];

internalField   nonuniform List<symmTensor> 
17140
(
(6.3524341e-12 -4.048771e-10 -7.228347e-28 2.7184285e-08 9.5315357e-27 4.4544079e-41)
(3.8866275e-10 -6.3025498e-09 -3.0482894e-28 2.6011533e-07 1.9756795e-27 3.9575449e-43)
(3.2696664e-09 -2.6168448e-08 4.8396532e-26 7.9296659e-07 -2.0068744e-25 1.7252705e-39)
(1.5073204e-08 -7.3373534e-08 -1.0142281e-25 1.714414e-06 3.0329422e-25 2.0850855e-39)
(5.0000881e-08 -1.6725809e-07 2.0079195e-26 3.1323863e-06 -4.6219862e-26 2.8496062e-41)
(1.3647753e-07 -3.3609021e-07 -1.0351628e-25 5.1770576e-06 1.9119458e-25 3.0523027e-40)
(3.2739475e-07 -6.1997224e-07 -2.6210363e-25 8.0039963e-06 3.9753708e-25 8.6514384e-40)
(7.1618988e-07 -1.074432e-06 1.8614089e-25 1.1797268e-05 -2.3522214e-25 2.0620426e-40)
(1.4617075e-06 -1.7747888e-06 8.6586203e-25 1.6772226e-05 -9.2096501e-25 2.20922e-39)
(2.8257214e-06 -2.8211338e-06 2.9607636e-24 2.3177626e-05 -2.6707211e-24 1.3290959e-38)
(5.228323e-06 -4.343688e-06 -6.0274824e-24 3.1296562e-05 4.6378609e-24 2.9225635e-38)
(9.3278696e-06 -6.5080716e-06 7.2864368e-24 4.1445564e-05 -4.8043811e-24 2.3211597e-38)
(1.6133698e-05 -9.5197308e-06 1.4987191e-24 5.3971024e-05 -8.4999224e-25 5.4379806e-40)
(2.7160929e-05 -1.362636e-05 -1.1267937e-23 6.9241981e-05 5.5151938e-24 1.7394579e-38)
(4.4636948e-05 -1.9116782e-05 1.6530825e-24 8.7638189e-05 -6.9989713e-25 2.1442741e-40)
(7.1767687e-05 -2.6314371e-05 -1.7169899e-23 0.00010953237 6.3025679e-24 1.3454332e-38)
(0.0001130676 -3.5563081e-05 8.2956784e-25 0.00013526575 -2.6431959e-25 1.8634237e-41)
(0.00017474947 -4.7204507e-05 -2.4571065e-25 0.00016511625 6.8142543e-26 9.329784e-43)
(0.00026515799 -6.1545671e-05 -2.203342e-23 0.00019925949 5.3104591e-24 4.6928484e-39)
(0.00039521661 -7.8819518e-05 3.6442247e-23 0.00023772353 -7.6454699e-24 7.8683758e-39)
(0.00057884307 -9.9143382e-05 -2.2244083e-23 0.00028033966 4.0629114e-24 1.8170053e-39)
(0.00083328358 -0.00012248439 5.3031212e-24 0.00032669339 -8.439426e-25 6.5767573e-41)
(0.0011793258 -0.00014864274 4.8724224e-23 0.00037608211 -6.7383766e-24 3.5400087e-39)
(0.0016414121 -0.00017726424 -5.9815358e-23 0.00042748968 7.1953804e-24 3.4818866e-39)
(0.0022478386 -0.00020789034 -1.1588811e-22 0.0004795936 1.2102649e-23 8.7167711e-39)
(0.0030308693 -0.00024002335 1.1198509e-22 0.00053082558 -1.0145582e-23 5.5566143e-39)
(0.0040266651 -0.00027313942 6.5616387e-22 0.00057950112 -5.1504284e-23 1.3231401e-37)
(0.0052776093 -0.00030682215 9.1562949e-23 0.0006239942 -6.2168495e-24 1.8141393e-39)
(0.0068334955 -0.00034080486 -9.3637584e-22 0.00066291163 5.493519e-23 1.3835241e-37)
(0.0087524677 -0.00037454293 -2.5469604e-22 0.00069522947 1.28981e-23 7.502926e-39)
(0.011103639 -0.00040757943 -1.0470012e-21 0.00072034378 4.5680682e-23 9.5052144e-38)
(0.013967512 -0.00043960015 1.5777461e-21 0.00073810342 -5.919065e-23 1.6428496e-37)
(0.017438727 -0.00046985093 -4.6963636e-22 0.00074904504 1.5097865e-23 1.1152875e-38)
(0.021625727 -0.00049739352 -2.5400954e-22 0.00075447976 6.9732303e-24 2.5521341e-39)
(0.026650323 -0.00052098052 -2.8288202e-21 0.00075619188 6.5637185e-23 2.47672e-37)
(0.032645321 -0.00053893424 1.3932807e-21 0.00075592335 -2.7155705e-23 4.7984975e-38)
(0.039750061 -0.00054902068 -2.3554568e-21 0.00075503748 3.8053949e-23 1.0971456e-37)
(0.048102898 -0.00054837215 -1.7764308e-21 0.00075452816 2.3416399e-23 5.0611623e-38)
(0.057829232 -0.00053349014 -9.0204645e-22 0.00075528315 9.4808138e-24 1.0681034e-38)
(0.069023288 -0.00050032696 3.0026193e-21 0.00075845643 -2.443187e-23 9.8633427e-38)
(0.081722843 -0.00044464263 6.2028765e-21 0.00076582837 -3.7178967e-23 3.5248737e-37)
(0.095877481 -0.00036253485 6.1155856e-21 0.00078002521 -2.490747e-23 2.9054579e-37)
(0.1113122 -0.00025127047 2.8792449e-21 0.00080450973 -6.7498993e-24 5.5300954e-38)
(0.12769777 -0.00010997718 -1.5065426e-20 0.00084342299 1.1672774e-23 1.3046445e-36)
(0.14453894 5.9216708e-05 -1.173612e-20 0.00090153915 -7.727967e-24 6.9302073e-37)
(0.16117444 0.00024906389 3.0469929e-21 0.00098476387 6.0478615e-24 4.1478904e-38)
(0.17687698 0.00045043446 -2.174167e-20 0.0011012797 -7.0181718e-23 1.8954278e-36)
(0.19094978 0.00065753415 -7.692142e-21 0.0012630847 -3.3872373e-23 2.1574628e-37)
(0.20263775 0.00086572444 8.0998512e-21 0.0014878954 4.4786138e-23 2.2065493e-37)
(0.21152438 0.0010681902 2.0340696e-20 0.0018008865 1.3427e-22 1.3010785e-36)
(0.21726977 0.0012620753 -1.2750099e-20 0.0022383658 -9.7092086e-23 4.8508757e-37)
(0.21970506 0.0014564908 -8.133797e-21 0.0028518723 -6.960665e-23 1.8996667e-37)
(0.21875302 0.0016769864 2.1287445e-20 0.0037092847 2.0109348e-22 1.268996e-36)
(0.21468092 0.0019404785 1.0025871e-20 0.0048936002 1.02268e-22 2.7845851e-37)
(0.20796803 0.0022337973 7.0660923e-21 0.0064952264 7.5669495e-23 1.3900999e-37)
(0.19957677 0.0025205975 -5.4717408e-21 0.0086164067 -5.896227e-23 8.4401391e-38)
(0.19080266 0.002741943 1.4358117e-20 0.011387735 1.4553892e-22 6.047103e-37)
(0.18259881 0.0028707023 1.1618986e-20 0.015172897 9.8733235e-23 4.1580594e-37)
(0.17572147 0.0029905789 2.7844815e-21 0.020842658 1.5923715e-23 2.575852e-38)
(0.17024339 0.0032312471 -6.8023838e-21 0.029775658 -2.4772072e-23 1.6930806e-37)
(0.16535836 0.0029415414 -4.9282944e-21 0.040295191 -2.062303e-23 1.0287113e-37)
(0.15934022 0.0014305469 -1.6645273e-20 0.048036799 -1.4071267e-22 1.3998588e-36)
(0.14943703 -0.00075218053 -2.1732012e-21 0.05185698 -3.192409e-23 2.9998597e-38)
(0.13758598 -0.0023133239 1.6110719e-20 0.051561406 3.6237086e-22 2.1186178e-36)
(0.11874253 -0.0026356517 -1.0554787e-20 0.050215759 -3.4641069e-22 1.266163e-36)
(2.5101197e-10 -5.9032006e-09 8.1121722e-28 1.3887475e-07 -1.5366815e-26 3.6073279e-42)
(3.8368748e-09 -7.0680957e-08 -2.589301e-25 1.3175099e-06 3.8592183e-24 4.7487349e-38)
(1.6875163e-08 -2.5573258e-07 4.326941e-25 3.9852784e-06 -5.23168e-24 3.7604846e-38)
(5.1864191e-08 -6.5055674e-07 -1.9343198e-25 8.5429301e-06 1.9394761e-24 2.7947924e-39)
(1.3153679e-07 -1.3816067e-06 -6.1197441e-25 1.5460499e-05 5.1885973e-24 1.1926552e-38)
(2.9644686e-07 -2.6303006e-06 1.7165322e-24 2.5280259e-05 -1.2489038e-23 4.3545594e-38)
(6.161689e-07 -4.6503082e-06 -2.5510552e-24 3.8616663e-05 1.6069075e-23 4.7317864e-38)
(1.2064395e-06 -7.7888664e-06 3.1336619e-25 5.6151126e-05 -1.7183968e-24 3.6650222e-40)
(2.2551772e-06 -1.2512825e-05 -1.3433435e-24 7.8619641e-05 6.4375013e-24 3.5722006e-39)
(4.0610276e-06 -1.9438195e-05 -3.1095431e-26 0.00010679059 1.3073598e-25 1.0205105e-42)
(7.0894436e-06 -2.9362011e-05 -8.1528898e-24 0.00014143035 3.0077217e-23 3.9812694e-38)
(1.2052629e-05 -4.3293713e-05 1.722101e-23 0.00018325401 -5.5911703e-23 1.0049751e-37)
(2.0021082e-05 -6.248166e-05 1.8776176e-24 0.00023285994 -5.3736432e-24 6.8530088e-40)
(3.2575481e-05 -8.8427987e-05 -2.4299369e-23 0.00029064798 6.1382209e-23 6.6709409e-38)
(5.200779e-05 -0.00012288262 9.723811e-24 0.00035672477 -2.1702179e-23 6.2840059e-39)
(8.157912e-05 -0.00016780526 8.0050601e-24 0.00043080338 -1.5797613e-23 2.5286589e-39)
(0.00012583779 -0.00022528354 -6.549013e-23 0.0005121103 1.1432563e-22 1.0142376e-37)
(0.0001909938 -0.00029739793 2.733577e-22 0.00059931911 -4.2220453e-22 1.0715051e-36)
(0.00028533474 -0.00038603155 -2.1797471e-22 0.00069053443 2.9784707e-22 4.1751991e-37)
(0.00041965449 -0.00049263721 3.3047959e-22 0.0007833509 -3.9938651e-22 5.9471337e-37)
(0.00060765363 -0.00061799518 -6.1308797e-22 0.00087500495 6.5497312e-22 1.2859469e-36)
(0.00086626513 -0.00076202015 1.8725335e-22 0.00096261921 -1.7673414e-22 7.6471649e-38)
(0.0012158694 -0.000923694 9.5246354e-23 0.0010435126 -7.9360963e-23 1.282938e-38)
(0.0016804174 -0.0011012063 -3.8156655e-22 0.0011155176 2.8041259e-22 1.3533766e-37)
(0.0022876418 -0.0012923675 1.6628069e-21 0.0011772295 -1.0771412e-21 1.7277639e-36)
(0.0030692425 -0.001495169 2.9869493e-22 0.0012281294 -1.7035729e-22 3.7963803e-38)
(0.0040607166 -0.0017082034 -1.8352291e-21 0.0012685154 9.2187488e-22 1.0078775e-36)
(0.0053037099 -0.0019312168 2.4267363e-21 0.0012991064 -1.0725639e-21 1.2543668e-36)
(0.0068472649 -0.0021650696 -3.8787142e-22 0.001320836 1.5093754e-22 2.354618e-38)
(0.0087485037 -0.0024108151 -4.4294372e-21 0.0013347932 1.5136405e-21 2.2428512e-36)
(0.011075342 -0.0026699333 5.2764387e-22 0.0013418007 -1.5839929e-22 2.4065386e-38)
(0.013906769 -0.0029438606 4.654479e-21 0.0013423093 -1.2238862e-21 1.412034e-36)
(0.01733554 -0.0032330766 1.3752922e-22 0.0013368191 -3.1462012e-23 8.9658133e-40)
(0.021467711 -0.0035368064 -4.4967798e-21 0.0013261591 9.03105e-22 7.9097464e-37)
(0.026422074 -0.0038525005 5.6705901e-21 0.0013113616 -9.9209615e-22 9.9177484e-37)
(0.032327635 -0.0041753369 -2.8772089e-21 0.001293308 4.3744695e-22 2.02794e-37)
(0.039318967 -0.004497662 3.7807513e-21 0.0012725152 -4.9887012e-22 2.8357286e-37)
(0.04752843 -0.0048082534 1.3425742e-20 0.0012492236 -1.5332022e-21 2.8956905e-36)
(0.057073933 -0.0050914408 3.3418728e-21 0.0012237424 -3.2959826e-22 1.4663521e-37)
(0.068040513 -0.005326299 1.4379815e-20 0.0011969574 -1.2220591e-21 2.2594074e-36)
(0.080454845 -0.0054864368 -2.0137547e-20 0.0011708969 1.4692808e-21 3.7316576e-36)
(0.094253451 -0.005540968 -2.0204302e-20 0.0011491478 1.2590828e-21 3.1750265e-36)
(0.10924664 -0.0054573004 -3.7611495e-21 0.0011370907 1.9891718e-22 9.3191266e-38)
(0.12508866 -0.0052060302 3.2038612e-20 0.0011420028 -1.4224784e-21 5.9565281e-36)
(0.1412638 -0.0047682533 -1.6225016e-20 0.0011730996 5.9727557e-22 1.3288585e-36)
(0.15709497 -0.0041460816 -5.9623612e-21 0.0012416005 1.7862745e-22 1.5875542e-37)
(0.17182176 -0.0033672166 3.3265586e-21 0.0013604254 -7.8827408e-23 4.5225516e-38)
(0.18472356 -0.0024738202 1.0867027e-20 0.0015430083 -1.953459e-22 4.3559894e-37)
(0.19517396 -0.0015205142 -5.4944875e-21 0.0018028592 7.056758e-23 1.0300916e-37)
(0.20269542 -0.0005609709 1.0233966e-20 0.0021587817 -8.3134301e-23 3.339796e-37)
(0.20699859 0.00037947676 6.2710397e-20 0.0026416399 -2.4277018e-22 1.1933233e-35)
(0.20795802 0.0012908035 3.0227561e-21 0.003301386 2.237509e-25 2.6835514e-38)
(0.20563454 0.0021609031 -1.3679457e-20 0.0042101406 -4.8331719e-23 5.3641677e-37)
(0.20037307 0.0029634431 3.0320581e-20 0.0054566786 2.0542355e-22 2.6140071e-36)
(0.19290278 0.0036403607 -2.5597126e-20 0.007136123 -2.4712905e-22 1.8755968e-36)
(0.18429126 0.0041146486 7.1283835e-20 0.0093473907 8.5587796e-22 1.4859218e-35)
(0.17586249 0.0043314599 1.9819191e-20 0.012200324 2.7590796e-22 1.1901546e-36)
(0.16864207 0.0042236915 -5.385316e-20 0.016018152 -8.13096e-22 9.2972956e-36)
(0.16320427 0.0036953403 8.7606936e-21 0.021588443 1.4889023e-22 2.6455533e-37)
(0.15947177 0.0025115028 9.3917364e-21 0.030230356 1.8144201e-22 3.4079949e-37)
(0.15649484 0.00070174524 1.7379169e-21 0.040570164 4.4457176e-23 1.3609998e-38)
(0.15247461 -0.0018901293 -2.0998268e-20 0.048197965 -7.6356763e-22 2.3911664e-36)
(0.14392254 -0.0045235081 3.6223162e-20 0.051643665 1.7455206e-21 9.0631831e-36)
(0.13310276 -0.0059319708 9.4990583e-21 0.050804938 5.9407706e-22 8.1221629e-37)
(0.11430644 -0.0060975096 1.3260303e-20 0.049116323 1.0664933e-21 2.2433585e-36)
(1.9726344e-09 -2.8193272e-08 1.1669672e-25 4.0295097e-07 -1.5430001e-24 1.0964407e-38)
(2.2382181e-08 -2.9225342e-07 -1.7690743e-25 3.818531e-06 2.1255952e-24 4.3380758e-39)
(7.9288519e-08 -9.5559434e-07 -7.8768768e-26 1.1538554e-05 8.6000111e-25 3.0684101e-40)
(2.0075188e-07 -2.2229778e-06 1.1149384e-25 2.470697e-05 -1.1074103e-24 2.7587911e-40)
(4.3053009e-07 -4.3716393e-06 -7.6666013e-25 4.465784e-05 6.9451554e-24 6.4786763e-39)
(8.3787168e-07 -7.7823438e-06 -7.8703887e-26 7.2919212e-05 6.5173123e-25 3.581796e-41)
(1.5305183e-06 -1.2969182e-05 -1.3558885e-24 0.00011120694 1.0260589e-23 5.8487221e-39)
(2.6737638e-06 -2.0615734e-05 -1.9450706e-24 0.00016140193 1.3439842e-23 6.789838e-39)
(4.518527e-06 -3.1619117e-05 2.0925291e-23 0.00022550302 -1.3180899e-22 4.5357332e-37)
(7.4413326e-06 -4.7138352e-05 -2.4401257e-23 0.0003055494 1.3988623e-22 3.6158527e-37)
(1.2001068e-05 -6.8646425e-05 1.5153836e-23 0.00040350399 -7.8929867e-23 8.2803023e-38)
(1.9017828e-05 -9.7980051e-05 2.8677066e-23 0.00052109092 -1.3549313e-22 1.7774261e-37)
(2.9680693e-05 -0.00013738007 -7.3120803e-23 0.00065958326 3.1290092e-22 6.9873784e-37)
(4.5691926e-05 -0.00018951096 -1.1605849e-23 0.00081954276 4.4915751e-23 1.0699843e-38)
(6.9455049e-05 -0.00025744383 5.7196148e-23 0.0010005233 -1.9988236e-22 1.5936426e-37)
(0.00010431314 -0.00034458457 5.0066791e-23 0.001200765 -1.5776757e-22 7.519413e-38)
(0.00015484008 -0.00045452753 -7.3658208e-23 0.0014169239 2.0896972e-22 1.0087967e-37)
(0.00022718142 -0.00059081962 3.3705288e-22 0.0016439046 -8.5955036e-22 1.3175625e-36)
(0.00032943203 -0.00075663234 -2.5062529e-22 0.0018748767 5.7357983e-22 4.5827823e-37)
(0.00047202656 -0.00095436368 1.5525887e-22 0.0021015627 -3.183284e-22 1.1143269e-37)
(0.00066810851 -0.0011852282 -6.5139734e-22 0.0023148589 1.194441e-21 1.2585003e-36)
(0.00093383988 -0.0014489366 -2.0947615e-22 0.0025057892 3.4290577e-22 8.4452872e-38)
(0.0012886222 -0.0017435987 5.3604323e-22 0.0026666957 -7.8204606e-22 3.6422611e-37)
(0.0017552424 -0.0020659904 -9.8192387e-22 0.0027924407 1.2744925e-21 8.1667948e-37)
(0.0023601064 -0.0024123023 -4.6710999e-22 0.0028813133 5.3844095e-22 1.2529444e-37)
(0.0031335676 -0.0027792074 6.6854538e-22 0.0029353495 -6.8385992e-22 1.7906672e-37)
(0.0041095736 -0.0031645853 4.5048318e-21 0.0029598123 -4.0811467e-21 5.7214545e-36)
(0.0053280427 -0.0035685559 2.3979183e-21 0.0029614231 -1.9217664e-21 1.1624394e-36)
(0.0068361408 -0.0039932582 -1.38888e-21 0.0029468141 9.8456266e-22 2.8807822e-37)
(0.0086885737 -0.004441438 1.7311571e-21 0.0029218071 -1.0820972e-21 3.2882962e-37)
(0.010950424 -0.0049165573 -1.2357014e-21 0.0028905728 6.8165401e-22 1.2872883e-37)
(0.013697004 -0.0054217888 -8.0568046e-21 0.002855203 3.9046959e-21 4.1383621e-36)
(0.017016519 -0.0059587952 3.0750892e-21 0.0028163327 -1.3080492e-21 4.6674713e-37)
(0.021009289 -0.0065268577 1.0433138e-20 0.0027738162 -3.8864016e-21 4.1947217e-36)
(0.025786913 -0.0071219829 -3.9174986e-21 0.0027269872 1.2768292e-21 4.7234941e-37)
(0.031469401 -0.0077360386 -6.1985013e-21 0.0026746665 1.7623428e-21 9.3778086e-37)
(0.038180111 -0.0083557732 1.2048359e-20 0.0026151798 -2.9855007e-21 2.8555676e-36)
(0.046037426 -0.008961454 4.1172521e-21 0.0025465787 -8.8776606e-22 2.6995521e-37)
(0.055141894 -0.0095251485 -8.0974541e-21 0.0024671065 1.5186087e-21 8.6779784e-37)
(0.065557248 -0.010009089 -3.5789917e-21 0.0023759776 5.8261936e-22 1.4169776e-37)
(0.077284548 -0.010364934 1.8951819e-20 0.0022744229 -2.670023e-21 3.3205845e-36)
(0.090230231 -0.01053524 -5.8237209e-21 0.0021669339 7.0717637e-22 2.7032511e-37)
(0.10417078 -0.010458323 -9.1830405e-21 0.002062549 9.5796064e-22 5.7313734e-37)
(0.11872457 -0.010077589 -2.6516402e-20 0.0019760439 2.3583276e-21 4.1255216e-36)
(0.13333942 -0.0093558703 5.3946959e-20 0.0019283988 -4.0477169e-21 1.5041871e-35)
(0.14731537 -0.0082961866 -3.7164811e-20 0.0019458549 2.3210183e-21 6.3396749e-36)
(0.159909 -0.0069574366 -9.9386114e-21 0.002055167 5.0863698e-22 4.0463907e-37)
(0.17042971 -0.0054322536 -4.0990038e-20 0.0022742598 1.6719904e-21 6.3526805e-36)
(0.17831933 -0.0038190697 -5.100154e-20 0.0026084955 1.6097453e-21 9.1269414e-36)
(0.18321538 -0.0022184675 -2.6756848e-21 0.0030614217 6.3784875e-23 2.344627e-38)
(0.18498717 -0.00069393898 1.1563258e-20 0.0036494248 -1.8186987e-22 4.1853675e-37)
(0.18368166 0.00072418087 -8.581433e-20 0.0044181462 7.3279488e-22 2.2492221e-35)
(0.17955474 0.0020032698 -3.6715952e-20 0.005446978 8.3787336e-23 4.0504095e-36)
(0.17312478 0.0030772701 -3.7560766e-20 0.0068345332 -1.3071641e-22 4.2294202e-36)
(0.16531909 0.0038512937 -1.2193109e-20 0.0086769032 -1.1035987e-22 4.5077822e-37)
(0.15730827 0.0042318517 -9.2268595e-20 0.01105681 -1.2474885e-21 2.658135e-35)
(0.15043573 0.004194733 3.5648025e-20 0.014042316 6.5338616e-22 4.1366458e-36)
(0.14558948 0.0036947022 -1.0411324e-20 0.017892655 -2.3213025e-22 3.7812403e-37)
(0.14302102 0.0024961009 -8.1515016e-20 0.023308327 -2.3366975e-21 2.517207e-35)
(0.14244807 3.9432499e-05 -3.0348984e-20 0.0314849 -1.1479771e-21 3.945147e-36)
(0.14209857 -0.0030871465 3.3101175e-20 0.041085765 1.664034e-21 5.5666131e-36)
(0.14030261 -0.0063344255 1.0265101e-19 0.047996375 6.8781898e-21 6.5714764e-35)
(0.13283681 -0.0089564278 -2.8716374e-20 0.050527645 -2.4751388e-21 6.7027322e-36)
(0.12324761 -0.0098288504 -4.0109323e-20 0.04886921 -4.3537464e-21 1.7416289e-35)
(0.10469526 -0.0095683115 -1.4213829e-20 0.046671531 -1.9591343e-21 3.1952404e-36)
(7.6408827e-09 -7.7707659e-08 -7.6587423e-25 7.9028812e-07 7.4933052e-24 1.2296554e-37)
(7.8881509e-08 -7.6861631e-07 2.3825528e-24 7.4899616e-06 -2.2237748e-23 2.2551702e-37)
(2.5820235e-07 -2.4172022e-06 -1.3756505e-24 2.2634864e-05 1.2210343e-23 2.948604e-38)
(6.0327608e-07 -5.4061464e-06 2.1357109e-25 4.8472884e-05 -1.8002013e-24 3.4850017e-40)
(1.1962102e-06 -1.0233208e-05 -5.7532626e-24 8.7626559e-05 4.602463e-23 1.3622124e-37)
(2.1559576e-06 -1.7551483e-05 7.9020767e-24 0.0001431019 -5.9945373e-23 1.4585651e-37)
(3.6536351e-06 -2.8208904e-05 -1.5639811e-23 0.00021827636 1.1230048e-22 3.3568819e-37)
(5.9338524e-06 -4.3294561e-05 9.4755007e-24 0.00031685384 -6.4231133e-23 7.4331183e-38)
(9.3447866e-06 -6.4193217e-05 4.5991756e-23 0.00044277216 -2.9346169e-22 1.074785e-36)
(1.4379459e-05 -9.264434e-05 -1.4016084e-23 0.00060004917 8.3918136e-23 6.2164585e-38)
(2.1731909e-05 -0.00013080222 -6.7382945e-23 0.00079255253 3.7738814e-22 9.0209754e-37)
(3.2373332e-05 -0.00018129232 2.5865589e-23 0.0010236739 -1.3508067e-22 8.4115217e-38)
(4.7652578e-05 -0.0002472506 2.1625962e-24 0.0012959009 -1.0496921e-23 3.7599438e-40)
(6.9427486e-05 -0.00033233391 -1.0637928e-22 0.0016102904 4.7862003e-22 5.7638391e-37)
(0.00010023283 -0.0004406819 4.1610947e-22 0.0019658614 -1.7297312e-21 5.6423295e-36)
(0.00014348907 -0.00057680655 -3.1892904e-22 0.0023589633 1.2211924e-21 2.1262813e-36)
(0.00020375432 -0.00074538679 -3.7910492e-24 0.0027827055 1.3330623e-23 1.9292736e-40)
(0.00028701653 -0.00095095006 2.7350251e-22 0.0032265847 -8.8047779e-22 6.4951631e-37)
(0.00040101684 -0.0011974415 -8.6161172e-22 0.0036764864 2.5316208e-21 4.1822198e-36)
(0.00055558611 -0.0014877097 5.0265977e-22 0.0041152418 -1.3438427e-21 9.2970475e-37)
(0.00076297039 -0.0018229871 9.2289387e-22 0.0045238929 -2.2380681e-21 2.0625087e-36)
(0.0010381186 -0.002202499 4.5801056e-22 0.0048836918 -1.0044068e-21 3.3712934e-37)
(0.0013989131 -0.0026233749 -2.7557725e-21 0.0051786501 5.4491616e-21 8.2233867e-36)
(0.0018663505 -0.0030810445 -1.7420612e-21 0.0053981977 3.0969222e-21 2.2387255e-36)
(0.0024648058 -0.0035702707 1.3488575e-21 0.0055392628 -2.1504506e-21 9.3258007e-37)
(0.0032225293 -0.0040867132 -9.3930718e-22 0.0056070843 1.3390208e-21 3.167311e-37)
(0.0041711663 -0.0046278705 4.1518429e-21 0.0056142598 -5.2826755e-21 4.4450474e-36)
(0.0053479771 -0.0051946222 -1.3994834e-21 0.005577164 1.5854928e-21 3.6715323e-37)
(0.0067971146 -0.0057905276 4.3890115e-21 0.0055113458 -4.4194648e-21 2.6752428e-36)
(0.0085696933 -0.0064202278 -2.8673325e-21 0.0054301635 2.5609228e-21 8.5910721e-37)
(0.010726419 -0.00708922 2.045703e-21 0.0053433249 -1.6159093e-21 3.3121304e-37)
(0.013336947 -0.0078023244 -8.5730693e-21 0.0052558477 5.9797373e-21 4.5004464e-36)
(0.016482489 -0.008562268 1.3995025e-21 0.0051688493 -8.6012229e-22 9.3978829e-38)
(0.020254599 -0.009368181 -8.4028828e-21 0.0050807981 4.5369584e-21 2.6508105e-36)
(0.024753947 -0.010214385 9.0814463e-21 0.0049883952 -4.3029365e-21 2.468384e-36)
(0.030087019 -0.011089176 3.2892333e-21 0.0048871461 -1.3644974e-21 2.569001e-37)
(0.036360432 -0.011973445 -4.5680985e-20 0.0047717638 1.6594379e-20 4.0749128e-35)
(0.04367198 -0.012838764 -1.3312322e-20 0.0046365811 4.2263703e-21 2.8268595e-36)
(0.052097083 -0.013644925 1.2221852e-20 0.0044761919 -3.3874824e-21 1.9803016e-36)
(0.061669315 -0.014337633 -1.3252235e-20 0.0042866342 3.2010842e-21 1.9473791e-36)
(0.07235461 -0.014847529 3.7612557e-21 0.0040672757 -7.8947744e-22 1.3114881e-37)
(0.084020229 -0.015092386 2.5576378e-20 0.0038234561 -4.6576644e-21 5.23037e-36)
(0.096402212 -0.014984563 -1.279352e-21 0.0035698037 2.0144e-22 1.1461564e-38)
(0.1090818 -0.014445553 -1.0084605e-20 0.0033333842 1.3592196e-21 6.0566192e-37)
(0.12148115 -0.013428887 5.207126e-21 0.0031550515 -5.9187234e-22 1.4566795e-37)
(0.13291236 -0.011952657 -2.8850514e-21 0.0030864555 2.7748386e-22 3.6704494e-38)
(0.14270148 -0.010116943 -8.5550784e-21 0.0031763668 6.7910967e-22 3.0838655e-37)
(0.15025138 -0.008071567 1.3678662e-19 0.0034486357 -8.8174444e-21 7.3620142e-35)
(0.15516815 -0.0059735289 -1.5873114e-20 0.0038930121 7.9865952e-22 9.235142e-37)
(0.1572944 -0.003962955 1.5061165e-20 0.0044855004 -5.8297568e-22 7.8749667e-37)
(0.15669722 -0.0021197869 -1.4412453e-19 0.0052188037 4.0052952e-21 6.9253133e-35)
(0.15359945 -0.00048143298 7.9612572e-20 0.0061328588 -1.4322011e-21 2.0618719e-35)
(0.14841912 0.00090232135 6.5539646e-20 0.0073191682 -5.6423553e-22 1.3802709e-35)
(0.14182544 0.0019366763 6.1973237e-20 0.0088897273 -1.2119123e-23 1.2402274e-35)
(0.13485538 0.0025128531 5.8629984e-20 0.010939205 4.4711156e-22 1.1319101e-35)
(0.12869499 0.0025585061 8.9633224e-20 0.013514746 1.342461e-21 2.7414702e-35)
(0.12451601 0.0021364416 -1.731988e-19 0.016627243 -3.9209906e-21 1.0774547e-34)
(0.12285262 0.0012281006 1.0201734e-19 0.020444502 3.1689258e-21 4.0198521e-35)
(0.12361499 -0.00054312065 1.4594004e-19 0.025618838 6.1359683e-21 9.133412e-35)
(0.12607559 -0.0039135955 -9.9197077e-20 0.03309718 -5.7791579e-21 4.870273e-35)
(0.12764471 -0.0078950284 -2.867609e-20 0.041510032 -2.2307157e-21 4.9295868e-36)
(0.12676057 -0.011218548 -2.2249331e-20 0.047112551 -2.2378582e-21 3.7389125e-36)
(0.1190172 -0.013391755 9.7479435e-20 0.048356138 1.2875983e-20 9.6857962e-35)
(0.10918827 -0.013497019 6.1110608e-20 0.045771398 1.0039676e-20 5.2271866e-35)
(0.090573064 -0.012742365 -2.1500554e-21 0.043014984 -4.2028299e-22 1.0147459e-37)
(2.0342448e-08 -1.5957287e-07 8.9854986e-25 1.2517434e-06 -6.8893778e-24 6.0967816e-38)
(2.0185634e-07 -1.5478815e-06 -5.7149839e-24 1.1869722e-05 4.2687123e-23 4.8684071e-37)
(6.3792528e-07 -4.7846232e-06 7.2700442e-24 3.5888067e-05 -5.2744869e-23 3.2363627e-37)
(1.4353464e-06 -1.050522e-05 -3.8350572e-24 7.6896654e-05 2.6992941e-23 4.6231257e-38)
(2.7375037e-06 -1.9511129e-05 -1.8468225e-24 0.0001390939 1.2598696e-23 6.0357941e-39)
(4.7391487e-06 -3.2815334e-05 2.0662606e-23 0.00022730707 -1.3646219e-22 4.471175e-37)
(7.7039298e-06 -5.1687762e-05 -6.6872998e-24 0.00034698068 4.2676978e-23 2.8698196e-38)
(1.1987572e-05 -7.7706116e-05 -1.7928411e-23 0.00050411373 1.1029755e-22 1.2947495e-37)
(1.8069066e-05 -0.00011281267 -1.7194278e-24 0.00070512392 1.016882e-23 7.6284941e-40)
(2.6591719e-05 -0.00015937273 -1.8160712e-23 0.00095661403 1.029469e-22 5.5106234e-38)
(3.8416863e-05 -0.00022023002 3.1460604e-23 0.0012650137 -1.7039968e-22 1.0818215e-37)
(5.4693753e-05 -0.00029875163 -2.6961561e-23 0.001636068 1.3907487e-22 5.233127e-38)
(7.6949155e-05 -0.00039885028 -1.2230551e-22 0.0020741568 5.9883085e-22 7.1163432e-37)
(0.00010719989 -0.00052496648 -4.3811569e-24 0.0025814472 2.0293369e-23 6.0182358e-40)
(0.00014809455 -0.00068199586 1.4110995e-22 0.0031568926 -6.1597e-22 4.1724252e-37)
(0.00020308468 -0.00087513098 1.2269678e-22 0.0037951609 -5.0297684e-22 2.0972881e-37)
(0.00027662717 -0.0011095965 -1.2952264e-22 0.0044856277 4.9674449e-22 1.555812e-37)
(0.00037441939 -0.0013902721 1.5162284e-23 0.0052116592 -5.4183158e-23 1.4355519e-39)
(0.00050365762 -0.0017211951 3.7818536e-22 0.0059504554 -1.2546093e-21 5.9329485e-37)
(0.00067331103 -0.0021049904 5.6236631e-22 0.0066737944 -1.7246663e-21 8.8164661e-37)
(0.00089439733 -0.0025423157 -7.802942e-22 0.0073499508 2.2031232e-21 1.1489635e-36)
(0.0011802461 -0.0030314749 -9.5017554e-22 0.0079469133 2.4597989e-21 1.1627967e-36)
(0.0015467427 -0.0035683981 1.5388622e-21 0.0084366652 -3.6379949e-21 2.1030224e-36)
(0.0020125569 -0.0041471874 -2.2786473e-21 0.0087998506 4.9000307e-21 3.2148976e-36)
(0.0025994471 -0.0047613851 -4.6929749e-21 0.0090296837 9.1450459e-21 9.6310693e-36)
(0.0033328401 -0.0054059265 1.3033621e-20 0.0091338055 -2.2935506e-20 5.3353356e-35)
(0.0042416506 -0.0060784989 -8.3937761e-21 0.0091332343 1.3294346e-20 1.6126271e-35)
(0.0053595645 -0.0067810215 1.4449137e-20 0.0090570424 -2.0533363e-20 3.5315335e-35)
(0.0067265753 -0.0075186677 -2.0815259e-20 0.0089329388 2.6466544e-20 5.5045348e-35)
(0.0083896057 -0.0082985716 2.6644418e-20 0.008784915 -3.022362e-20 6.8588413e-35)
(0.010403465 -0.0091281647 -3.1417631e-20 0.0086305171 3.1701365e-20 7.3459855e-35)
(0.012830604 -0.01001381 5.9921726e-21 0.0084793351 -5.3648684e-21 2.0890779e-36)
(0.015743175 -0.010959146 2.3435987e-20 0.0083336534 -1.8563515e-20 2.5062979e-35)
(0.019221542 -0.011962914 -1.488114e-20 0.0081903333 1.0408113e-20 8.0371391e-36)
(0.023352523 -0.013017479 5.2166791e-21 0.0080425782 -3.2158352e-21 7.939941e-37)
(0.028225615 -0.014107285 1.6916562e-21 0.0078812944 -9.182888e-22 6.8467547e-38)
(0.033926787 -0.015207166 2.3392064e-20 0.0076960794 -1.1152276e-20 1.0547832e-35)
(0.040528947 -0.016279982 8.47741e-21 0.0074759292 -3.5478377e-21 1.1365342e-36)
(0.048078036 -0.017273646 9.4672938e-21 0.0072101352 -3.4716615e-21 1.1737116e-36)
(0.056573708 -0.018118395 1.0233866e-20 0.0068900237 -3.2853221e-21 1.1659716e-36)
(0.065944505 -0.018725908 -5.6992598e-20 0.0065119955 1.5970588e-20 3.0745224e-35)
(0.07601938 -0.018992732 2.7188067e-20 0.0060823024 -6.6297179e-21 6.006539e-36)
(0.086500652 -0.018811048 4.7431244e-21 0.0056233543 -1.0044612e-21 1.5393769e-37)
(0.096948721 -0.018089515 -5.7976046e-20 0.0051799032 1.0544428e-20 2.0718022e-35)
(0.10679383 -0.016786584 -3.1377876e-20 0.0048217038 4.8761826e-21 5.36378e-36)
(0.11541658 -0.014954204 1.6253964e-20 0.0046363946 -2.1386062e-21 1.3035325e-36)
(0.12227475 -0.012749673 6.2177434e-20 0.0047006727 -6.7899584e-21 1.7266127e-35)
(0.12695533 -0.010379255 -2.8051609e-20 0.0050393502 2.5242582e-21 3.2686562e-36)
(0.12927411 -0.0080471975 8.4715257e-20 0.0056160904 -6.0270234e-21 2.7842174e-35)
(0.1292743 -0.0059095203 4.7094572e-20 0.0063654444 -2.6009001e-21 8.1921366e-36)
(0.12716739 -0.0040386826 6.5856117e-20 0.0072496982 -2.7194021e-21 1.5491009e-35)
(0.12328756 -0.0024633263 1.7790326e-19 0.0083070459 -4.8934933e-21 1.1074064e-34)
(0.11814323 -0.0012452682 -1.3699039e-19 0.0096495745 2.1167655e-21 6.5449414e-35)
(0.11248728 -0.00049931678 4.4201266e-20 0.011405873 -1.1973237e-22 6.8703021e-36)
(0.10737522 -0.0003260443 -7.4232536e-20 0.013661594 -4.9407636e-22 1.9981152e-35)
(0.10388606 -0.00073560802 -6.8420239e-20 0.016410899 -1.2012289e-21 1.7741286e-35)
(0.10284352 -0.0015544516 -2.5679251e-20 0.019589523 -7.473164e-22 2.6704382e-36)
(0.10429815 -0.0027608653 -2.2203305e-19 0.023259038 -9.0165958e-21 2.179164e-34)
(0.10784541 -0.0049539435 -5.5695234e-20 0.028060995 -3.1952738e-21 1.5547947e-35)
(0.11221161 -0.0088124811 1.1642629e-19 0.034584773 9.4329753e-21 8.0464021e-35)
(0.11413484 -0.013050807 3.9162142e-20 0.041382126 4.3544244e-21 1.1432201e-35)
(0.11243884 -0.015905565 -2.5602562e-20 0.045294023 -3.6711252e-21 6.3698784e-36)
(0.10314201 -0.017164103 -4.4741181e-20 0.045096732 -8.3036905e-21 2.7231806e-35)
(0.091931692 -0.016410715 -5.8184727e-20 0.04162892 -1.368243e-20 6.6032038e-35)
(0.073838188 -0.015222714 3.5010719e-21 0.038456382 9.9671416e-22 3.840508e-37)
(4.2730977e-08 -2.7142633e-07 4.1133782e-24 1.7240954e-06 -2.5738267e-23 5.660083e-37)
(4.1577788e-07 -2.6082501e-06 2.7518758e-24 1.6362115e-05 -1.6951323e-23 5.1076901e-38)
(1.2905774e-06 -7.9932657e-06 -3.4288714e-24 4.9507629e-05 2.0743377e-23 3.3496164e-38)
(2.8469025e-06 -1.7384883e-05 -1.7438969e-23 0.00010616667 1.035336e-22 4.5683172e-37)
(5.3167062e-06 -3.1966859e-05 1.257496e-23 0.00019221585 -7.3210407e-23 1.3718866e-37)
(9.000277e-06 -5.3195281e-05 -2.3248418e-23 0.00031444397 1.3260613e-22 2.8434545e-37)
(1.428538e-05 -8.2846697e-05 1.2703544e-23 0.00048055205 -7.0887337e-23 5.3266718e-38)
(2.1671082e-05 -0.00012306811 3.773214e-24 0.00069908651 -2.0559424e-23 3.0240278e-39)
(3.1798347e-05 -0.00017642868 -2.637614e-23 0.00097927539 1.4002555e-22 9.6975852e-38)
(4.5488373e-05 -0.00024596741 -6.9730114e-23 0.0013307323 3.5979578e-22 4.5096774e-37)
(6.3790599e-05 -0.00033523068 -4.2838991e-24 0.0017629878 2.1430052e-23 1.1379332e-39)
(8.8042292e-05 -0.00044829028 1.702716e-22 0.0022848073 -8.2327021e-22 1.2230918e-36)
(0.00011994215 -0.0005897298 -2.8604708e-22 0.0029032612 1.3329293e-21 2.346271e-36)
(0.00016163898 -0.00076457989 5.600646e-22 0.0036225314 -2.5071879e-21 6.1347328e-36)
(0.0002158403 -0.00097818999 -1.7735762e-22 0.0044424765 7.6016609e-22 4.2038853e-37)
(0.00028594045 -0.0012360114 4.564877e-22 0.005357048 -1.8665648e-21 1.9049423e-36)
(0.00037616815 -0.0015432715 -6.6799255e-22 0.0063527335 2.5958298e-21 2.7967e-36)
(0.00049175977 -0.0019045447 5.2480299e-22 0.0074072872 -1.9303837e-21 1.1852251e-36)
(0.00063914945 -0.0023232203 -1.0011525e-22 0.0084891966 3.4707981e-22 2.9742491e-38)
(0.00082617983 -0.0028009295 -4.8985369e-22 0.0095583612 1.593549e-21 4.9190086e-37)
(0.0010623288 -0.0033370299 1.4323441e-21 0.010568465 -4.3522627e-21 2.9221911e-36)
(0.0013589514 -0.0039283069 -2.422603e-21 0.011471335 6.8433867e-21 5.8537556e-36)