/*--------------------------------*- C++ -*----------------------------------*\
  =========                 |
  \\      /  F ield         | OpenFOAM: The Open Source CFD Toolbox
   \\    /   O peration     | Website:  https://openfoam.org
    \\  /    A nd           | Version:  13
     \\/     M anipulation  |
\*---------------------------------------------------------------------------*/
FoamFile
{
    format      ascii;
    class       volScalarField;
    location    "1452";
    object      p;
}
// * * * * * * * * * * * * * * * * * * * * * * * * * * * * * * * * * * * * * //

dimensions      [0 2 -2 0 0 0 0];

internalField   nonuniform List<scalar> 
2416
(
-1.371356
-1.3696523
-1.3672021
-1.3642072
-1.3603029
-1.3551616
-1.3484193
-1.3395962
-1.3280831
-1.3131194
-1.2937743
-1.2689413
-1.2373598
-1.1976824
-1.1486143
-1.0891379
-1.0188363
-0.93814135
-0.8488763
-0.75314398
-0.65642692
-0.55748327
-0.47239065
-0.37628963
-0.32497709
-0.22177351
-1.3704851
-1.368728
-1.3663318
-1.3633659
-1.3594425
-1.3542871
-1.3475261
-1.3386774
-1.3271296
-1.3121194
-1.292713
-1.2678012
-1.2361228
-1.1963339
-1.1471481
-1.0875629
-1.0171776
-0.93644715
-0.84719102
-0.75155872
-0.65493065
-0.55619407
-0.4712365
-0.37533859
-0.32454082
-0.22032226
-1.3692681
-1.3674876
-1.3650642
-1.3620589
-1.3580851
-1.3528643
-1.3460192
-1.3370632
-1.3253801
-1.3102015
-1.2905899
-1.265435
-1.2334796
-1.1933913
-1.1439055
-1.0840508
-1.0134626
-0.93264088
-0.84340613
-0.74798687
-0.65158386
-0.55329372
-0.46874974
-0.3731852
-0.32365227
-0.21708809
-1.3671406
-1.3653199
-1.3628486
-1.3597747
-1.3557131
-1.3503797
-1.343391
-1.3342537
-1.3223446
-1.3068891
-1.286945
-1.2614018
-1.2290093
-1.1884537
-1.1385031
-1.0782357
-1.0073445
-0.92639826
-0.83722674
-0.74216771
-0.6461573
-0.54858325
-0.46478248
-0.36969799
-0.32222853
-0.21192373
-1.3636218
-1.3617452
-1.3592077
-1.3560378
-1.3518538
-1.346363
-1.3391733
-1.3297819
-1.3175557
-1.3017109
-1.2812995
-1.255212
-1.2222104
-1.1810095
-1.1304269
-1.0696106
-0.99833497
-0.91725923
-0.82823181
-0.7337302
-0.63831437
-0.5417803
-0.45910939
-0.36470145
-0.32008224
-0.20476012
-1.3577966
-1.3558498
-1.3532302
-1.3499397
-1.3456019
-1.3399135
-1.3324717
-1.3227618
-1.3101387
-1.2938077
-1.2728144
-1.2460517
-1.2122986
-1.1703086
-1.1189645
-1.0575056
-0.98581243
-0.90465599
-0.8159132
-0.72223911
-0.62765465
-0.53258655
-0.45148889
-0.35799997
-0.31695275
-0.19557248
-1.348377
-1.3463489
-1.3436359
-1.340205
-1.3356889
-1.3297714
-1.3220376
-1.3119595
-1.2988781
-1.2819874
-1.2603266
-1.2327936
-1.1981907
-1.1553209
-1.1031482
-1.0410244
-0.96895999
-0.88785464
-0.79963607
-0.707231
-0.61367667
-0.52059421
-0.44138629
-0.34934708
-0.31248558
-0.18444478
-1.3336371
-1.3315215
-1.3287102
-1.3251273
-1.320419
-1.3142548
-1.3062069
-1.2957334
-1.2821615
-1.2646739
-1.2423055
-1.2139631
-1.17848
-1.1347207
-1.081748
-1.0190476
-0.94678434
-0.86600245
-0.77875809
-0.68840066
-0.59558597
-0.50452652
-0.42847807
-0.3385461
-0.30623943
-0.17167806
-1.3111558
-1.3089528
-1.3060476
-1.302313
-1.2974139
-1.2910057
-1.2826483
-1.2717867
-1.2577364
-1.2396716
-1.2166273
-1.1875257
-1.1512393
-1.1067048
-1.0530955
-0.9900407
-0.91785733
-0.83768235
-0.75158975
-0.6617708
-0.57438264
-0.48712708
-0.41244493
-0.32518044
-0.29761655
-0.15694255
-1.2781482
-1.2758653
-1.272863
-1.2689962
-1.2639284
-1.2573051
-1.2486762
-1.2374771
-1.2230152
-1.2044613
-1.1808575
-1.1511505
-1.1142641
-1.069224
-1.0153342
-0.95239315
-0.880905
-0.80218958
-0.71875282
-0.6308737
-0.54762599
-0.46435532
-0.39265708
-0.30871195
-0.2858529
-0.14043534
-1.2307014
-1.2283605
-1.2252842
-1.2213238
-1.2161367
-1.2093631
-1.2005481
-1.1891234
-1.1743962
-1.1555443
-1.1316286
-1.101634
-1.06455
-1.0195022
-0.96593265
-0.90380787
-0.83380697
-0.75739224
-0.67697258
-0.5948891
-0.51401073
-0.43415164
-0.36764805
-0.28848255
-0.27016483
-0.1222498
-1.1649246
-1.1625637
-1.159463
-1.1554727
-1.1502495
-1.1434341
-1.1345733
-1.1231038
-1.1083425
-1.0894857
-1.065626
-1.0358001
-0.99907766
-0.95469968
-0.90225846
-0.84189095
-0.77443101
-0.70143459
-0.6251436
-0.54787864
-0.47226711
-0.39937541
-0.33776654
-0.26399622
-0.24966335
-0.10211546
-1.0751828
-1.0728557
-1.0698011
-1.0658721
-1.0607325
-1.054032
-1.0453305
-1.0340835
-1.0196356
-1.0012226
-0.97799394
-0.94906436
-0.91360703
-0.870991
-0.82095443
-0.76378119
-0.7004241
-0.63249748
-0.56214738
-0.49156524
-0.4231548
-0.35719002
-0.30148637
-0.23439557
-0.22343073
-0.079824049
-0.95795411
-0.95573497
-0.95282449
-0.94908205
-0.94418911
-0.93781479
-0.92954456
-0.91886772
-0.90517303
-0.88775407
-0.86583453
-0.83862412
-0.80541477
-0.76571899
-0.71943501
-0.66699833
-0.60945935
-0.5484261
-0.4858754
-0.42373411
-0.36399219
-0.3065804
-0.2579285
-0.19887689
-0.19064996
-0.05490165
-0.80481695
-0.80279818
-0.80015238
-0.79675251
-0.79231137
-0.78653235
-0.77904579
-0.76939946
-0.75705739
-0.74140873
-0.72179554
-0.69756847
-0.66817661
-0.63329025
-0.59294033
-0.54763866
-0.49842436
-0.44678034
-0.39441663
-0.34289687
-0.29369649
-0.24648942
-0.20614388
-0.15653253
-0.14952807
-0.022788987
-0.61772422
-0.61601674
-0.61378238
-0.61091185
-0.60716458
-0.60229254
-0.59598783
-0.58787574
-0.57751564
-0.56441127
-0.54803867
-0.52789974
-0.50360691
-0.47499547
-0.44224242
-0.40594857
-0.36712998
-0.32708288
-0.28714524
-0.24838665
-0.21165537
-0.1763531
-0.14576704
-0.10724206
-0.099100246
0.010561904
-0.3817063
-0.38044371
-0.37879281
-0.3766749
-0.37391522
-0.37033587
-0.36571851
-0.35980158
-0.35228434
-0.34283921
-0.33113827
-0.31689866
-0.2999482
-0.28030472
-0.25824892
-0.23435683
-0.2094528
-0.18446247
-0.16019675
-0.13712538
-0.11544362
-0.094335469
-0.075929309
-0.051545801
-0.046470967
-0.0036891521
-0.10944198
-0.10873988
-0.10782322
-0.10665138
-0.10513128
-0.10317134
-0.10066265
-0.09748049
-0.093491277
-0.088565953
-0.082603063
-0.07556295
-0.067510481
-0.058656161
-0.049375703
-0.040182111
-0.031630539
-0.024161655
-0.017932046
-0.012700381
-0.007954695
-0.0025718735
0.0022177699
0.012971008
0.01289433
0.036415603
0.18175476
0.18179887
0.18185138
0.18191208
0.18197888
0.18204459
0.18209415
0.18209922
0.18200967
0.18174136
0.1811599
0.18006193
0.17815912
0.17507634
0.17038162
0.16366718
0.15468709
0.14352206
0.13069956
0.11718487
0.10417487
0.092994696
0.083074578
0.080353879
0.07101435
0.077860936
0.49175767
0.49106953
0.49016193
0.48898728
0.48743806
0.48539693
0.48271046
0.47917925
0.47454751
0.46849219
0.46061482
0.45044185
0.43744312
0.42108163
0.40090773
0.3767004
0.34863509
0.31742494
0.2843571
0.25115013
0.21970248
0.19138186
0.16757718
0.14830356
0.12936617
0.12162447
0.80374289
0.80228532
0.80036849
0.79789644
0.79465146
0.79040196
0.78485179
0.77762617
0.7682605
0.75619209
0.7407621
0.7212367
0.69686026
0.66695412
0.63106881
0.58918018
0.54188788
0.49053756
0.437174
0.38426688
0.33442941
0.28855134
0.25008025
0.21585484
0.1863128
0.16484418
1.1074634
1.1052387
1.1023161
1.0985509
1.0936159
1.0871655
1.0787614
1.0678541
1.0537711
1.0357112
1.012757
0.98391736
0.94821801
0.90485179
0.85339226
0.79404229
0.72785107
0.65679753
0.5836395
0.51146484
0.44321411
0.38180307
0.326757
0.28022725
0.23828019
0.20605531
1.3882002
1.3852506
1.3813778
1.3763914
1.3698608
1.3613335
1.350238
1.3358615
1.3173379
1.2936453
1.263629
1.2260651
1.1797851
1.1238745
1.0579402
0.98240609
0.8987469
0.80953869
0.71822255
0.62856611
0.54406992
0.46730333
0.39660935
0.33792384
0.28535093
0.24326536
1.6330709
1.6294814
1.6247676
1.6187009
1.610759
1.6003956
1.5869214
1.5694801
1.5470354
1.5183721
1.482128
1.4368766
1.3812822
1.3143404
1.2356943
1.1459686
1.0470148
0.94192505
0.83470943
0.72965093
0.63054708
0.54022865
0.45904102
0.38808334
0.32552369
0.27504308
1.8304079
1.826299
1.8208212
1.813907
1.8048334
1.7929892
1.7775842
1.7576368
1.7319787
1.6992471
1.6579127
1.606388
1.5432078
1.467304
1.3783576
1.2771632
1.1658792
1.0480108
0.92801862
0.81058933
0.6997857
0.59848273
0.50751026
0.42769413
0.35722253
0.30013462
1.9687709
1.9642991
1.9582729
1.9507849
1.9409437
1.9281001
1.9113898
1.8897205
1.8618384
1.82629
1.7814265
1.7255422
1.6570783
1.574915
1.4787547
1.3695083
1.2495508
1.1226816
0.99368252
0.86752538
0.74848019
0.63947832
0.54155947
0.4553945
0.37931477
0.3176007
2.0440563
2.0419161
2.0368699
2.0302303
2.0207875
2.0074963
1.9883103
1.9623817
1.9311789
1.8939195
1.8472671
1.7890144
1.7176919
1.6321552
1.5321188
1.4185588
1.2939668
1.1622979
1.0285026
0.89769863
0.77427272
0.66116759
0.55949619
0.46995971
0.39090536
0.32674621
-0.21456071
-0.13540207
-0.13762079
-0.094080338
-0.088244561
-0.065893023
-0.058132297
-0.044136376
-0.039421541
-0.026801438
-0.21523168
-0.13497028
-0.13774872
-0.094313173
-0.088298131
-0.066080349
-0.058176837
-0.044191029
-0.039436688
-0.026710401
-0.21658386
-0.13360431
-0.13772936
-0.094201322
-0.088084844
-0.066052504
-0.058015996
-0.04407876
-0.039346594
-0.026420166
-0.21853766
-0.13123273
-0.13752908
-0.093767371
-0.087627097
-0.065841455
-0.057682284
-0.043822248
-0.039174318
-0.025937114
-0.22094686
-0.12790014
-0.13707061
-0.092991117
-0.086892435
-0.06542357
-0.057157653
-0.043406282
-0.038903394
-0.025258099
-0.22346104
-0.12325002
-0.13621571
-0.09185281
-0.085843501
-0.064774224
-0.056423669
-0.042816972
-0.038513988
-0.024388994
-0.22575771
-0.11771888
-0.13499838
-0.090370025
-0.084433489
-0.063867723
-0.055460333
-0.042041654
-0.037981877
-0.0233455
-0.22794505
-0.11224048
-0.13266746
-0.088643368
-0.082627181
-0.062675832
-0.054245002
-0.041067609
-0.037277894
-0.02215251
-0.2282075
-0.10616166
-0.1292341
-0.086332817
-0.080351907
-0.061163346
-0.052751792
-0.039881403
-0.036368921
-0.020842466
-0.22495566
-0.099490345
-0.12508468
-0.083646592
-0.077573705
-0.05929955
-0.050955299
-0.038469435
-0.035220356
-0.019452433
-0.21828018
-0.093651519
-0.11945382
-0.080503975
-0.074244014
-0.057054486
-0.048833664
-0.036819621
-0.033800142
-0.018020066
-0.20675676
-0.088091426
-0.11225544
-0.076829451
-0.070334521
-0.054407187
-0.046373953
-0.034923965
-0.032083993
-0.016578916
-0.18949628
-0.082667742
-0.10331488
-0.072457944
-0.065825013
-0.051347674
-0.0435757
-0.032780677
-0.030060365
-0.015153628
-0.16828387
-0.078792109
-0.093556194
-0.06763908
-0.060912368
-0.047963104
-0.0404879
-0.030412355
-0.027739418
-0.013758796
-0.13875659
-0.07654549
-0.083817082
-0.062403463
-0.055673347
-0.044316243
-0.03717704
-0.027852367
-0.025156373
-0.012401283
-0.065423902
-0.048193409
-0.060040513
-0.050186569
-0.047667601
-0.039544878
-0.033292202
-0.024907236
-0.022292575
-0.011023057
-0.02672883
-0.014253627
-0.014550734
-0.0067871052
-0.0051970778
-0.0013513849
0.00058677859
0.0013370722
0.0032608487
-7.7479343e-05
-0.026790192
-0.014187985
-0.014527779
-0.0067799817
-0.0051859769
-0.0013496944
0.00058805636
0.0013339731
0.0032613485
-8.3935158e-05
-0.026916102
-0.014026971
-0.014476363
-0.0067568068
-0.0051581206
-0.0013408299
0.00059533874
0.0013336405
0.0032614288
-8.7874952e-05
-0.027112542
-0.013764473
-0.014395084
-0.0067178641
-0.0051143013
-0.0013262752
0.00060735047
0.0013339622
0.0032592397
-8.5543583e-05
-0.027367282
-0.013399886
-0.014278866
-0.0066618116
-0.0050526888
-0.0013052156
0.00062446024
0.0013400282
0.0032578295
-8.6068282e-05
-0.027656047
-0.01293905
-0.014121809
-0.0065881936
-0.0049721545
-0.0012774763
0.00064657912
0.0013511138
0.0032670469
-8.7948403e-05
-0.027939704
-0.012395075
-0.013916921
-0.0064970104
-0.0048716565
-0.0012429487
0.00067350887
0.0013631466
0.0032810183
-8.8549333e-05
-0.028162523
-0.01178826
-0.013656044
-0.0063885673
-0.004750259
-0.0012015294
0.00070496472
0.0013770227
0.0032933449
-8.9670075e-05
-0.028252742
-0.011144762
-0.013330117
-0.0062630884
-0.0046071724
-0.0011530813
0.00074058409
0.001392416
0.0033058397
-9.2114435e-05
-0.028126446
-0.010493751
-0.012929695
-0.0061202091
-0.0044416854
-0.0010973574
0.00077994734
0.0014087924
0.0033180349
-9.6726549e-05
-0.027695565
-0.0098631253
-0.012445743
-0.0059583647
-0.0042530585
-0.0010338882
0.00082261777
0.0014256916
0.0033290764
-0.00010390716
-0.026879822
-0.0092743592
-0.01187063
-0.0057741968
-0.0040403887
-0.00096181354
0.00086821758
0.0014427391
0.0033383063
-0.00011274383
-0.025620732
-0.0087377093
-0.011199214
-0.0055622173
-0.0038024801
-0.00087973777
0.00091653196
0.001459701
0.003345074
-0.00012162631
-0.023894418
-0.0082488403
-0.01042965
-0.0053149908
-0.0035378159
-0.00078567179
0.00096750435
0.0014764807
0.0033483742
-0.0001287207
-0.021720506
-0.0077891968
-0.0095643632
-0.0050228351
-0.0032443391
-0.00067682115
0.0010209682
0.0014926425
0.0033458892
-0.00013498666
-0.019213119
-0.0073084388
-0.008612599
-0.0046668368
-0.0029147702
-0.00054523206
0.0010813924
0.0015107791
0.0033403913
-0.0001321878
-0.035551016
0.0025856885
0.010123015
0.021403108
0.016932078
0.021290136
0.024064919
0.035600886
0.026107719
0.029842425
0.021350133
0.024181585
0.061839867
0.059533513
0.041206906
0.037894331
0.025563346
0.027276091
0.10080804
0.084077672
0.056436915
0.045626999
0.029657917
0.030090895
0.13701784
0.10734036
0.070980327
0.052784404
0.033408578
0.032808965
0.17012385
0.12887197
0.084384667
0.059232807
0.036770759
0.035483809
0.19933617
0.14801594
0.096218533
0.064830314
0.039787402
0.037906114
0.22390533
0.16418794
0.10613884
0.069474533
0.042405661
0.03983818
0.24312671
0.17687422
0.11387209
0.073077848
0.044443168
0.041300357
0.25642945
0.18566659
0.11920441
0.075545649
0.04580771
0.042297328
0.26336565
0.19024263
0.12195219
0.076786331
0.04648815
0.042823823
-0.073310806
-0.065344253
-0.063534118
-0.049983751
-0.044525948
-0.036258954
-0.029760665
-0.022217206
-0.01956403
-0.0097859373
-0.0035763252
-0.011941211
-0.017190578
-0.020465763
-0.025409505
-0.024404238
-0.021106261
-0.016793133
-0.014906066
-0.0084570272
0.00195055
-0.0087568152
-0.013188038
-0.01368114
-0.012734149
-0.010513675
-0.0088013712
-0.0078798737
-0.0075900999
-0.0056856467
0.017138657
0.014324881
0.012056814
0.010059939
0.0079534816
0.0057888391
0.0038983363
0.0026130623
0.0016926117
0.0011003201
0.01474847
0.013754414
0.01269952
0.011745487
0.010866946
0.010082646
0.0093913934
0.0087507046
0.008146729
0.0074874421
0.019062339
0.018398064
0.018001114
0.017557119
0.017038298
0.016475274
0.015862032
0.015193553
0.014463844
0.013698307
-0.016742594
-0.0068993334
-0.0077556382
-0.0043469471
-0.0026281635
-0.00042876489
0.0011384083
0.0015349634
0.0033555402
-9.7063546e-05
-0.012849295
-0.0065843289
-0.0064084124
-0.0038539886
-0.0021685834
-0.00022235364
0.001225901
0.0015705101
0.0033186759
-7.36147e-05
-0.007348027
-0.0048115655
-0.0037576132
-0.002310063
-0.00094972871
0.0004473689
0.0014590699
0.0016105346
0.0030887003
-0.00011500405
0.00047158801
8.04461e-06
-0.00025870801
-0.00019298086
0.00020488942
0.00088378571
0.0015120126
0.0018413522
0.0031910724
0.00033331676
0.0070713492
0.0061255085
0.0053688201
0.0047632069
0.004185294
0.0037266868
0.0034332775
0.0029730537
0.0023519572
0.00071288205
0.012918705
0.012033683
0.011166346
0.010190301
0.0090828855
0.007854376
0.0065111945
0.0050594584
0.0033915927
0.0018896672
-1.3713097
-1.369663
-1.3672034
-1.364151
-1.3602228
-1.3550826
-1.3483343
-1.3395033
-1.3279803
-1.3130044
-1.2936443
-1.2687935
-1.2371914
-1.1974917
-1.148401
-1.088904
-1.0185864
-0.93788201
-0.84861716
-0.75289237
-0.65619384
-0.55728725
-0.47225952
-0.37614948
-0.32488988
-0.22161598
-1.3702492
-1.3684871
-1.3660843
-1.3631098
-1.3591753
-1.3540054
-1.3472259
-1.3383535
-1.3267761
-1.3117292
-1.2922781
-1.2673138
-1.2355757
-1.1957222
-1.1464714
-1.0868268
-1.0163958
-0.93563963
-0.84638715
-0.75078024
-0.65421081
-0.55559191
-0.47083558
-0.37491113
-0.32426966
-0.21985437
-1.3687937
-1.3670048
-1.3645704
-1.3615507
-1.3575582
-1.3523133
-1.3454373
-1.3364421
-1.3247097
-1.3094705
-1.2897854
-1.2645444
-1.2324914
-1.1922985
-1.1427079
-1.0827589
-1.0121
-0.9312412
-0.84201902
-0.74664542
-0.6503428
-0.55226316
-0.46807051
-0.37245583
-0.32317324
-0.21631483
-1.366339
-1.3645065
-1.3620202
-1.3589265
-1.3548394
-1.349473
-1.3424422
-1.3332513
-1.321275
-1.3057366
-1.2856923
-1.2600318
-1.2275069
-1.1868096
-1.1367187
-1.076327
-1.0053457
-0.92435655
-0.83521294
-0.74022005
-0.64435164
-0.54710035
-0.46382179
-0.36865159
-0.32150969
-0.21086443
-1.3623467
-1.3604555
-1.3578995
-1.3547053
-1.3504897
-1.3449582
-1.3377165
-1.3282591
-1.3159502
-1.3000036
-1.2794696
-1.253239
-1.2200768
-1.1787056
-1.1279564
-1.0669961
-0.99562196
-0.91450789
-0.82553487
-0.73111839
-0.63588413
-0.53981594
-0.4578984
-0.36331526
-0.31907655
-0.2034447
-1.3558462
-1.3538828
-1.3512422
-1.3479237
-1.3435498
-1.3378148
-1.3303135
-1.3205283
-1.3078109
-1.2913644
-1.2702324
-1.2433086
-1.2093764
-1.1671991
-1.1156757
-1.0540683
-0.98228451
-0.90111006
-0.81246688
-0.71889159
-0.6245174
-0.53012304
-0.45019612
-0.35623191
-0.31559963
-0.19404362
-1.3454884
-1.3434425
-1.3407072
-1.3372462
-1.3326914
-1.3267241
-1.3189267
-1.3087682
-1.2955867
-1.2785736
-1.256767
-1.2290662
-1.1942793
-1.1512213
-1.0988755
-1.03662
-0.96449578
-0.88341527
-0.79536418
-0.70300871
-0.609627
-0.51750727
-0.43910214
-0.34704706
-0.31069274
-0.18271684
-1.3294623
-1.3273289
-1.324496
-1.3208829
-1.3161359
-1.3099222
-1.3018112
-1.2912583
-1.2775881
-1.2599812
-1.2374722
-1.2089706
-1.1733169
-1.12939
-1.0762746
-1.0134852
-0.9412181
-0.86052611
-0.77352311
-0.68298931
-0.59069382
-0.50107115
-0.42477878
-0.33611131
-0.30390628
-0.16977966
-1.3052901
-1.3030708
-1.3001465
-1.2963844
-1.2914503
-1.2849973
-1.2765831
-1.2656508
-1.2515138
-1.2333453
-1.2101814
-1.1809487
-1.1445296
-1.099878
-1.0461932
-0.98313918
-0.9110754
-0.83118163
-0.74569759
-0.65652709
-0.5692032
-0.48244284
-0.40847213
-0.32260862
-0.29492995
-0.15492324
-1.2700803
-1.2677847
-1.2647661
-1.2608787
-1.2557844
-1.2491275
-1.2404566
-1.2292058
-1.2146818
-1.1960561
-1.1723736
-1.1425871
-1.1056327
-1.0605546
-1.006684
-0.94385317
-0.87260405
-0.79428859
-0.7114244
-0.62480575
-0.54166326
-0.45851448
-0.38875218
-0.30537731
-0.28265528
-0.13828532
-1.2198797
-1.2175326
-1.2144482
-1.2104779
-1.2052781
-1.1984891
-1.1896557
-1.1782098
-1.1634597
-1.1445859
-1.1206544
-1.0906587
-1.0536024
-1.0086312
-0.95521378
-0.89334726
-0.82373937
-0.74786829
-0.66810448
-0.58676613
-0.50655849
-0.42772283
-0.3629268
-0.28448129
-0.26637157
-0.11994172
-1.1507944
-1.1484359
-1.1453385
-1.1413529
-1.1361362
-1.1293302
-1.1204834
-1.1090344
-1.0943039
-1.0754934
-1.0517037
-1.0219831
-0.985418
-0.94127109
-0.88916124
-0.82925373
-0.76240651
-0.6901879
-0.61482036
-0.53860503
-0.46398
-0.39217455
-0.33202621
-0.25926771
-0.24519041
-0.099596501
-1.0572024
-1.0548887
-1.0518519
-1.0479462
-1.0428375
-1.0361782
-1.0275317
-1.0163583
-1.0020091
-0.98372857
-0.96067783
-0.93198693
-0.89684832
-0.85465421
-0.80516807
-0.74869759
-0.68621155
-0.61932489
-0.55015697
-0.48086572
-0.41372446
-0.3490408
-0.2947543
-0.22888934
-0.21823041
-0.077017812
-0.93566932
-0.9334768
-0.93060148
-0.92690453
-0.92207157
-0.91577626
-0.90761002
-0.89706988
-0.88355455
-0.86637029
-0.84475661
-0.81794243
-0.785242
-0.74619208
-0.70071432
-0.64926218
-0.59289217
-0.53319961
-0.47212245
-0.41153327
-0.35331814
-0.29738937
-0.25016508
-0.19254364
-0.18471311
-0.051712096
-0.7779108
-0.77593363
-0.77334261
-0.77001343
-0.76566518
-0.76000796
-0.75268074
-0.74324231
-0.73117051
-0.71587144
-0.69670745
-0.67305256
-0.64438121
-0.6103887
-0.5711268
-0.5271183
-0.47939686
-0.42941768
-0.3788374
-0.32914704
-0.28172683
-0.23619689
-0.19732086
-0.14934917
-0.14291747
-0.019198579
-0.58610857
-0.58445861
-0.58229987
-0.5795268
-0.57590735
-0.57120253
-0.56511591
-0.5572873
-0.54729389
-0.53466092
-0.51888941
-0.49950886
-0.47615997
-0.44870341
-0.41733347
-0.38265369
-0.34566179
-0.30761034
-0.26976847
-0.23311617
-0.19841112
-0.16496115
-0.13588251
-0.099235304
-0.09201912
0.014590072
-0.34564731
-0.34445777
-0.34290284
-0.3409085
-0.33831069
-0.33494276
-0.3306006
-0.32504042
-0.31798317
-0.30912695
-0.29817314
-0.28487028
-0.26907704
-0.25083682
-0.23044433
-0.20847067
-0.18570977
-0.16302854
-0.14115429
-0.12045048
-0.10103415
-0.081917659
-0.064992886
-0.042740981
-0.038906705
0.0022534631
-0.069532024
-0.068917436
-0.068115624
-0.067091617
-0.065765027
-0.064057589
-0.061877174
-0.059119923
-0.0556775
-0.051450478
-0.046370668
-0.040433327
-0.033736198
-0.02651487
-0.019154872
-0.012155854
-0.0060306419
-0.0011479431
0.0024303624
0.0050663723
0.0073125284
0.010641809
0.014130043
0.022327553
0.020757381
0.042777915
0.22421278
0.22415855
0.22408205
0.22397677
0.22382646
0.22360912
0.22329111
0.2228211
0.22212129
0.22107536
0.2195132
0.21719456
0.21379733
0.20892201
0.20212972
0.19303135
0.18143056
0.16748767
0.15183236
0.13556993
0.11985565
0.10678045
0.096052344
0.089726071
0.078799879
0.084385283
0.53536316
0.53457023
0.53352516
0.53217372
0.53039331
0.52805092
0.52497346
0.52093725
0.51565742
0.50877717
0.49986089
0.48839708
0.47382156
0.45557404
0.43320072
0.40650344
0.3757113
0.3416181
0.30561467
0.26954213
0.23493622
0.20498721
0.18019589
0.15784769
0.13741505
0.12819503
0.84682835
0.84526413
0.8432074
0.84055547
0.83707534
0.83251954
0.82657202
0.81883354
0.80881018
0.79590546
0.77942349
0.75859293
0.73262499
0.70081898
0.66272249
0.6183341
0.56830237
0.51403942
0.45766353
0.40153094
0.34736634
0.30237324
0.26328307
0.2252765
0.19416527
0.17115268
1.1483372
1.146008
1.1429485
1.1390074
1.1338424
1.1270927
1.1183005
1.1068929
1.0921692
1.0732957
1.0493202
1.0192169
0.98198154
0.93678889
0.88321383
0.82148607
0.75270827
0.67893381
0.60299108
0.52763275
0.45787679
0.39636829
0.33776868
0.28804657
0.24515496
0.21169614
1.4251165
1.4220695
1.4180691
1.4129187
1.4061738
1.397368
1.3859117
1.3710708
1.3519534
1.327509
1.2965518
1.2578282
1.2101456
1.1525773
1.0847382
1.0070862
0.92116138
0.82963934
0.73610389
0.64433168
0.55979727
0.4793533
0.4040707
0.34505093
0.29127269
0.24813517
1.6640743
1.6604017
1.6555788
1.6493719
1.6412471
1.6306456
1.616863
1.5990246
1.5760725
1.5467667
1.509719
1.4634779
1.4066879
1.3383357
1.2580721
1.1665512
1.0656775
0.95861761
0.84947675
0.74252145
0.6423591
0.55034175
0.4660532
0.39413273
0.33036308
0.27900031
1.853805
1.8496299
1.844059
1.837036
1.8278188
1.8157887
1.8001447
1.7798957
1.753862
1.7206533
1.67872
1.6264555
1.562379
1.4854146
1.395249
1.2926999
1.179967
1.0606119
0.93916292
0.82031003
0.70842766
0.60581227
0.51290771
0.43224122
0.36081568
0.30305613
1.983573
1.9790603
1.9729759
1.9654203
1.9554903
1.9425303
1.9256623
1.9037817
1.8756413
1.839772
1.7945055
1.7381304
1.669078
1.5862266
1.4892842
1.379177
1.2583057
1.1305029
1.0005894
0.873548
0.75377733
0.64396777
0.54494504
0.45821253
0.38152645
0.31938875
2.0490805
2.0466397
2.0414313
2.0346332
2.0249875
2.0112424
1.9914971
1.9658843
1.9357743
1.898845
1.8518942
1.7934414
1.7218862
1.6360815
1.5357492
1.421873
1.2969539
1.1649575
1.0308452
0.89973781
0.77605594
0.66267687
0.56064676
0.47091179
0.39165001
0.32734579
-0.21455337
-0.13532189
-0.13757801
-0.094041362
-0.088212681
-0.065867767
-0.058112576
-0.044120442
-0.039413333
-0.026783472
-0.21522606
-0.13477749
-0.13766631
-0.094246811
-0.088244854
-0.066041016
-0.058144459
-0.044162646
-0.039422125
-0.026662845
-0.21654608
-0.13328308
-0.13757681
-0.094086504
-0.087988073
-0.065982502
-0.057957045
-0.044029094
-0.039318087
-0.026342965
-0.21843145
-0.13079554
-0.13729843
-0.0936072
-0.087486415
-0.065742028
-0.05759729
-0.043753259
-0.03913037
-0.025835799
-0.22071666
-0.12736011
-0.13674742
-0.092785389
-0.086703778
-0.065292697
-0.05704452
-0.043318098
-0.038840079
-0.02513947
-0.22303609
-0.122633
-0.13578084
-0.091598831
-0.085600785
-0.064608055
-0.056279077
-0.042709
-0.038425949
-0.024261565
-0.22503818
-0.11705815
-0.13443441
-0.090061511
-0.084128274
-0.063659941
-0.055279384
-0.041912061
-0.037862299
-0.023218765
-0.22675957
-0.11160217
-0.13196638
-0.088269241
-0.082248254
-0.062417063
-0.054020969
-0.040912867
-0.037118705
-0.022035876
-0.2264706
-0.10551406
-0.12835598
-0.085871559
-0.07988389
-0.060840899
-0.052476293
-0.039696153
-0.036161371
-0.020743923
-0.22261746
-0.098767532
-0.12399624
-0.083076631
-0.076998974
-0.058898239
-0.050619179
-0.038246867
-0.034956016
-0.019377111
-0.21524303
-0.092861345
-0.11814417
-0.079798638
-0.073544155
-0.056558162
-0.048428569
-0.036552448
-0.033472269
-0.017968886
-0.20296016
-0.087168818
-0.11072048
-0.075959612
-0.069491045
-0.053800247
-0.045894203
-0.034605798
-0.03168896
-0.016547583
-0.18494472
-0.081523093
-0.10156013
-0.071393839
-0.064820141
-0.050617271
-0.043020553
-0.032407623
-0.029598802
-0.015132234
-0.16308943
-0.077397573
-0.091655318
-0.066390244
-0.059748617
-0.047108474
-0.039865605
-0.029985193
-0.027217055
-0.013732709
-0.1328231
-0.074719989
-0.081799845
-0.060955821
-0.054329465
-0.043321907
-0.036496277
-0.027374621
-0.024581746
-0.012352041
-0.058556442
-0.045133176
-0.057472095
-0.048226754
-0.045962967
-0.038352293
-0.032564
-0.024384515
-0.021672448
-0.010931276
-0.026739336
-0.014244807
-0.014549656
-0.006785681
-0.0051959904
-0.0013496754
0.00058925731
0.0013410012
0.0032587984
-6.9453284e-05
-0.026822051
-0.014161822
-0.014522931
-0.0067737773
-0.0051805095
-0.0013423292
0.00059656797
0.0013480999
0.0032567607
-4.3850498e-05
-0.026965933
-0.013984793
-0.014468726
-0.006747647
-0.0051502618
-0.0013298071
0.00060824797
0.0013581482
0.00325423
-1.2133434e-05
-0.027174733
-0.013708942
-0.014383734
-0.0067056352
-0.0051036642
-0.0013113154
0.00062460936
0.0013732057
0.003256853
1.3463746e-05
-0.027432677
-0.01333514
-0.014263008
-0.0066470114
-0.0050394976
-0.0012866502
0.00064562086
0.0013912864
0.003265401
3.7408504e-05
-0.02771164
-0.012870566
-0.014100466
-0.0065713902
-0.0049566235
-0.0012556522
0.00067120034
0.0014106558
0.0032741489
6.133368e-05
-0.027968559
-0.012329428
-0.013888799
-0.0064787291
-0.0048539857
-0.0012181845
0.00070120976
0.0014317039
0.0032810528
8.4189146e-05
-0.02814434
-0.011732595
-0.013619562
-0.0063691272
-0.0047306174
-0.0011741114
0.00073544622
0.0014542039
0.0032867337
0.0001052615
-0.028165321
-0.011105954
-0.013283495
-0.0062424483
-0.0045856152
-0.0011232311
0.00077365818
0.0014777521
0.0032908775
0.00012390224
-0.027948181
-0.010477297
-0.012871116
-0.0060978128
-0.0044180797
-0.0010651757
0.00081558187
0.001501944
0.0032929047
0.00013936872
-0.027408863
-0.0098719291
-0.012373574
-0.0059330249
-0.0042270281
-0.00099928412
0.00086099707
0.0015264277
0.0032921336
0.00015098596
-0.026474941
-0.0093076622
-0.0117837
-0.0057440654
-0.0040112792
-0.00092445582
0.00090980777
0.0015509534
0.0032879999
0.0001591324
-0.025099094
-0.0087905563
-0.011097038
-0.0055248719
-0.0037693519
-0.00083902826
0.0009621458
0.0015754548
0.0032800605
0.00016541922
-0.02326939
-0.0083133103
-0.010312507
-0.0052676735
-0.003499487
-0.00074079607
0.0010183415
0.0016000242
0.0032675652
0.00017157478
-0.021018195
-0.0078545942
-0.0094336191
-0.0049628082
-0.0031995742
-0.00062688676
0.0010786249
0.0016243906
0.0032483324
0.00017659763
-0.018467679
-0.0073651618
-0.0084726243
-0.004592878
-0.0028632813
-0.00048962948
0.0011478732
0.0016516302
0.0032256476
0.00018590391
-0.029590393
0.0066030105
0.012269184
0.022630203
0.01748686
0.021624205
0.029497054
0.039293838
0.028224048
0.031067069
0.021904376
0.024562094
0.067214751
0.0632257
0.043352778
0.039079348
0.026104197
0.027641854
0.10596256
0.087621933
0.058508028
0.046742771
0.030175938
0.030448633
0.14183271
0.1106523
0.0729137
0.053804395
0.033887061
0.033150187
0.17444433
0.13185213
0.086119599
0.06013437
0.037201953
0.035796796
0.20305194
0.15057952
0.097705614
0.065594946
0.040164036
0.038168653
0.22691267
0.1662612
0.1073376
0.070085804
0.042716739
0.040046194
0.24533976
0.1783978
0.11475107
0.073523135
0.04467538
0.041450772
0.25778019
0.18659402
0.11973759
0.075812451
0.045950338
0.042387473
0.26381784
0.19055183
0.12212889
0.076872868
0.046535997
0.042852325
-0.069560683
-0.06300885
-0.061560834
-0.048353665
-0.0430225
-0.035222786
-0.029103972
-0.021678118
-0.018932825
-0.0096395298
-0.00050127356
-0.0096800017
-0.015386115
-0.018494075
-0.023489074
-0.023193289
-0.020384214
-0.016123617
-0.014234585
-0.0082193523
0.0038496079
-0.007091529
-0.011864736
-0.01278889
-0.012057505
-0.0098836755
-0.0081569898
-0.0070774943
-0.0068235944
-0.0053037351
0.018317088
0.015444889
0.013108518
0.011077528
0.0089335063
0.0067319133
0.0046747148
0.0031132274
0.0020233962
0.0013902701
0.015311781
0.014300063
0.01323055
0.012263043
0.011370006
0.010573884
0.0098820405
0.0092603771
0.0086799619
0.0080328671
0.019399026
0.018747049
0.018343072
0.017891891
0.017366313
0.016795054
0.016172112
0.015492251
0.014749719
0.01396892
-0.01599236
-0.0069333051
-0.0076073737
-0.0042538629
-0.0025661001
-0.00036470144
0.0012154516
0.0016850618
0.0032273402
0.00022747202
-0.012217996
-0.0065710184
-0.0062743672
-0.0037395621
-0.0020978666
-0.00015144182
0.0013174632
0.0017319944
0.0031765842
0.00025885158
-0.0070041099
-0.0048209673
-0.0036549039
-0.0021880373
-0.00090421779
0.00050030852
0.0015869674
0.0018085838
0.0029265427
0.00021780232
0.00091630314
0.00047634808
0.00020533915
0.00019513715
0.00049040904
0.0010970511
0.0017032351
0.0019106514
0.0027368249
0.00053808551
0.0076012102
0.0066005998
0.0057950814
0.0051343063
0.0045147576
0.003957477
0.0034838792
0.0030373299
0.0024713901
0.0011235641
0.01318093
0.012292724
0.011416791
0.010426839
0.0092992896
0.0080449094
0.0066643823
0.0051593332
0.0034169151
0.0018506519
)
;

boundaryField
{
    inlet
    {
        type            zeroGradient;
    }
    outlet
    {
        type            fixedValue;
        value           uniform 0;
    }
    cylinder
    {
        type            zeroGradient;
    }
    frontAndBack
    {
        type            empty;
    }
}


// ************************************************************************* //
