/*--------------------------------*- C++ -*----------------------------------*\
  =========                 |
  \\      /  F ield         | OpenFOAM: The Open Source CFD Toolbox
   \\    /   O peration     | Website:  https://openfoam.org
    \\  /    A nd           | Version:  13
     \\/     M anipulation  |
\*---------------------------------------------------------------------------*/
FoamFile
{
    format      ascii;
    class       volVectorField;
    location    "41.497152";
    object      U;
}
// * * * * * * * * * * * * * * * * * * * * * * * * * * * * * * * * * * * * * //

dimensions      [0 1 -1 0 0 0 0];

internalField   nonuniform List<vector> 
17140
(
(2.831085e-06 -0.00021458906 2.8740994e-23)
(7.4524154e-06 -0.00066596106 3.1832031e-24)
(1.0610447e-05 -0.0011661553 -2.1005966e-22)
(1.1677457e-05 -0.0017199994 2.3083404e-22)
(9.9021341e-06 -0.0023327033 -2.6972138e-23)
(4.302446e-06 -0.0030098535 8.8226262e-23)
(-6.3726705e-06 -0.0037573851 1.4842879e-22)
(-2.3682043e-05 -0.0045815432 -7.2381641e-23)
(-4.9567107e-05 -0.0054888235 -2.3667825e-22)
(-8.6431299e-05 -0.0064858912 -5.7972392e-22)
(-0.0001372368 -0.0075794719 8.5810694e-22)
(-0.00020561482 -0.008776209 -7.6310933e-22)
(-0.00029599414 -0.010082481 -1.1654543e-22)
(-0.00041374681 -0.011504173 6.5668356e-22)
(-0.0005653519 -0.013046382 -7.2650478e-23)
(-0.00075857535 -0.014713069 5.725999e-22)
(-0.0010026629 -0.016506621 -2.115931e-23)
(-0.0013085396 -0.018427331 4.7412954e-24)
(-0.0016890069 -0.02047277 3.3145524e-22)
(-0.0021589206 -0.022637069 -4.2515895e-22)
(-0.0027353304 -0.024910073 2.0225358e-22)
(-0.0034375484 -0.027276418 -3.7943536e-23)
(-0.0042871084 -0.02971454 -2.7537641e-22)
(-0.0053075616 -0.03219568 2.6919094e-22)
(-0.0065240438 -0.034683037 4.1963033e-22)
(-0.0079625333 -0.037131236 -3.2956456e-22)
(-0.009648709 -0.03948648 -1.5811231e-21)
(-0.011606318 -0.041687892 -1.8204723e-22)
(-0.013854991 -0.043670832 1.5587582e-21)
(-0.016407531 -0.045373223 3.5572432e-22)
(-0.019266916 -0.046745891 1.236642e-21)
(-0.022423666 -0.047766721 -1.5813524e-21)
(-0.025854778 -0.04845481 3.9890263e-22)
(-0.029525694 -0.048875512 1.8305882e-22)
(-0.033395989 -0.049127489 1.7286187e-21)
(-0.037426808 -0.049315772 -7.225433e-22)
(-0.041586009 -0.0495288 1.0384475e-21)
(-0.045849016 -0.049832426 6.7178394e-22)
(-0.050197075 -0.05027741 2.9605955e-22)
(-0.054615738 -0.050910406 -8.6860803e-22)
(-0.059095215 -0.051782562 -1.6037796e-21)
(-0.063632275 -0.05295446 -1.435922e-21)
(-0.068233467 -0.054498467 -6.2354249e-22)
(-0.072923063 -0.05649783 3.0417314e-21)
(-0.077747187 -0.059034172 2.2380307e-21)
(-0.082778872 -0.062175406 -5.5516532e-22)
(-0.088127794 -0.065975029 3.8092521e-21)
(-0.093950403 -0.0704491 1.308382e-21)
(-0.1004532 -0.075539049 -1.3478441e-21)
(-0.10791468 -0.081062952 -3.331993e-21)
(-0.11667785 -0.08661461 2.0752782e-21)
(-0.12720991 -0.091386363 1.3248428e-21)
(-0.14000253 -0.093865558 -3.4918975e-21)
(-0.15569313 -0.09130947 -1.6676918e-21)
(-0.17445015 -0.07916267 -1.2145187e-21)
(-0.19633726 -0.050084719 9.5196411e-22)
(-0.21856135 0.0064357034 -2.6009249e-21)
(-0.23397007 0.10113527 -2.1172927e-21)
(-0.22502713 0.23586376 -4.7581655e-22)
(-0.17319382 0.37530234 1.0646131e-21)
(-0.097339858 0.45965096 7.2029129e-22)
(-0.03179672 0.43339185 2.6940138e-21)
(0.075864224 0.20458066 4.6594654e-22)
(0.29965958 -0.17551079 -3.6058925e-21)
(0.48230655 -0.43106314 1.4080316e-21)
(7.5212797e-06 -0.00018538629 -8.1772154e-24)
(2.1970399e-05 -0.00057550263 1.1013964e-21)
(3.5962346e-05 -0.0010080288 -9.7982469e-22)
(4.8954427e-05 -0.001487201 2.6699613e-22)
(6.0284704e-05 -0.0020175996 5.5132121e-22)
(6.9061071e-05 -0.002604148 -1.0528669e-21)
(7.4120784e-05 -0.0032520883 1.0966714e-21)
(7.3989267e-05 -0.0039669486 -9.6429225e-23)
(6.6801329e-05 -0.004754492 3.0071564e-22)
(5.0218519e-05 -0.0056206482 5.0929255e-24)
(2.132512e-05 -0.0065714202 1.0007909e-21)
(-2.3494142e-05 -0.007612764 -1.5865038e-21)
(-8.8687372e-05 -0.0087504326 -1.3068855e-22)
(-0.00017968737 -0.0099897781 1.285179e-21)
(-0.00030308969 -0.011335506 -3.9282857e-22)
(-0.00046684521 -0.01279137 -2.479965e-22)
(-0.00068046715 -0.014359805 1.5626861e-21)
(-0.00095524561 -0.016041469 -5.0457787e-21)
(-0.0013044597 -0.017834718 3.1256101e-21)
(-0.0017435711 -0.019734968 -3.6978966e-21)
(-0.0022903765 -0.021733974 5.3831058e-21)
(-0.0029650876 -0.023819025 -1.2976757e-21)
(-0.0037902953 -0.025972079 -5.2499515e-22)
(-0.0047907639 -0.028168914 1.6826582e-21)
(-0.0059929863 -0.030378399 -5.9251702e-21)
(-0.0074244144 -0.032562083 -8.6544303e-22)
(-0.0091122708 -0.034674411 4.3855271e-21)
(-0.011081844 -0.036664039 -4.8110029e-21)
(-0.013354194 -0.038476929 6.4603929e-22)
(-0.015943298 -0.040062068 6.1942284e-21)
(-0.018852867 -0.04138054 -6.2701419e-22)
(-0.022073539 -0.042417434 -4.6810961e-21)
(-0.025581737 -0.043193001 -1.1559597e-22)
(-0.029341844 -0.043765359 3.265592e-21)
(-0.033312261 -0.044218141 -3.4953653e-21)
(-0.037453266 -0.044637831 1.5054078e-21)
(-0.041732525 -0.045096067 -1.6880216e-21)
(-0.046125978 -0.045646421 -5.1486991e-21)
(-0.050615989 -0.04633159 -1.1127762e-21)
(-0.055189756 -0.047192601 -4.2219525e-21)
(-0.059839691 -0.048275716 5.2986116e-21)
(-0.064565352 -0.049636116 4.8232611e-21)
(-0.069376724 -0.051339292 8.241396e-22)
(-0.074302167 -0.05345987 -6.5955178e-21)
(-0.079393083 -0.056070187 3.1402058e-21)
(-0.084727518 -0.059228346 1.0991185e-21)
(-0.09041924 -0.062975911 -6.0375724e-22)
(-0.096626377 -0.067315862 -1.8804e-21)
(-0.10355199 -0.072176002 9.3303734e-22)
(-0.11146117 -0.077358941 -1.6802222e-21)
(-0.12066603 -0.082442046 -1.0304321e-20)
(-0.13157743 -0.086605508 -5.1469269e-22)
(-0.14458561 -0.088344931 2.3023133e-21)
(-0.16017058 -0.084994004 -4.9914269e-21)
(-0.17823155 -0.072178828 4.3510616e-21)
(-0.19837011 -0.04302773 -1.2274486e-20)
(-0.21746503 0.011866083 -3.2069876e-21)
(-0.22919547 0.1012386 9.2785482e-21)
(-0.21817981 0.22548398 -1.4215814e-21)
(-0.16765104 0.35445896 -1.482927e-21)
(-0.088419353 0.43656522 -2.4502164e-22)
(-0.0090470906 0.40365765 4.0972287e-21)
(0.16264136 0.15384967 -9.1920852e-21)
(0.40123147 -0.2306931 -3.2374565e-21)
(0.56188615 -0.46304041 -1.9897367e-21)
(1.0601709e-05 -0.00015482196 -4.5020338e-22)
(3.152002e-05 -0.00048083459 3.3266042e-22)
(5.266133e-05 -0.00084254841 8.8450434e-23)
(7.3543559e-05 -0.0012435712 -8.3829668e-23)
(9.3569091e-05 -0.0016878139 4.0607816e-22)
(0.00011191164 -0.0021794937 3.0199849e-23)
(0.00012747426 -0.0027231149 3.8534774e-22)
(0.00013884667 -0.0033234399 4.1484328e-22)
(0.00014422539 -0.0039854619 -3.3862064e-21)
(0.00014131399 -0.0047144106 3.0191573e-21)
(0.00012721699 -0.0055154113 -1.4422719e-21)
(9.8340576e-05 -0.0063935868 -2.1087839e-21)
(5.0250329e-05 -0.0073541397 4.1701836e-21)
(-2.2508524e-05 -0.0084018837 5.1462191e-22)
(-0.00012660044 -0.00954112 -1.9777063e-21)
(-0.0002700907 -0.010775406 -1.3524594e-21)
(-0.00046266329 -0.01210725 1.5581509e-21)
(-0.00071584522 -0.013537743 -5.595819e-21)
(-0.0010432304 -0.01506611 3.2755977e-21)
(-0.0014606836 -0.016689185 -1.6021509e-21)
(-0.0019865028 -0.018400807 5.3319079e-21)
(-0.0026415071 -0.020191132 1.3671335e-21)
(-0.0034490066 -0.02204591 -2.8048001e-21)
(-0.0044345968 -0.023945759 4.1479029e-21)
(-0.0056257068 -0.025865562 1.6035585e-21)
(-0.0070508139 -0.027774156 -1.8876992e-21)
(-0.0087382251 -0.029634588 -1.0519657e-20)
(-0.010714323 -0.031405383 -4.6701739e-21)
(-0.013001201 -0.033043367 2.2832563e-21)
(-0.01561371 -0.034508746 -2.4001184e-21)
(-0.018556167 -0.035772824 1.4648887e-21)
(-0.021819454 -0.036827639 8.1187181e-21)
(-0.025379843 -0.037694126 -2.6420042e-21)
(-0.029201246 -0.038422573 -7.6404045e-21)
(-0.033241555 -0.039081052 2.4469252e-21)
(-0.037460789 -0.039737091 3.2914316e-21)
(-0.041826715 -0.040445199 -5.4643308e-21)
(-0.046315725 -0.041246363 -1.6037056e-21)
(-0.050910995 -0.042174895 2.7580761e-21)
(-0.055600862 -0.043265888 1.0800405e-21)
(-0.060379162 -0.04456036 -5.1046172e-21)
(-0.065247198 -0.046107815 1.4302748e-21)
(-0.070216897 -0.047966722 2.0807571e-21)
(-0.075318603 -0.050202926 5.6023254e-21)
(-0.080606066 -0.052879681 -1.0777902e-20)
(-0.086158244 -0.056046184 7.0678431e-21)
(-0.092087016 -0.059733591 1.8023965e-21)
(-0.098543574 -0.063934302 7.2704726e-21)
(-0.10571493 -0.068566605 8.8430826e-21)
(-0.11383483 -0.07342427 4.633822e-22)
(-0.12315978 -0.078077947 -1.8566276e-21)
(-0.13401193 -0.081710572 1.4337361e-20)
(-0.14663811 -0.082847553 6.1628918e-21)
(-0.16131382 -0.078932397 6.4287671e-21)
(-0.17762589 -0.065825169 1.9932716e-21)
(-0.19472138 -0.037139851 1.610454e-20)
(-0.20913887 0.015575294 -5.4813598e-21)
(-0.21489836 0.099568532 1.0524128e-21)
(-0.19840831 0.21390503 1.2372196e-20)
(-0.143183 0.33242635 4.3530333e-21)
(-0.056249763 0.41074145 -5.0398684e-21)
(0.051356083 0.36391494 -2.1360858e-20)
(0.28301115 0.097318208 8.0659674e-21)
(0.5193698 -0.27739619 1.2770285e-20)
(0.65100329 -0.48373142 3.1685018e-21)
(1.1956531e-05 -0.00012333267 1.5069672e-21)
(3.5741107e-05 -0.00038330858 -2.3973908e-21)
(6.0074267e-05 -0.00067207447 8.6661348e-22)
(8.4505593e-05 -0.00099258013 -9.4175245e-23)
(0.00010847169 -0.0013480346 1.8611617e-21)
(0.00013119018 -0.0017419135 -1.9246339e-21)
(0.0001516054 -0.0021779446 2.9178308e-21)
(0.00016820679 -0.0026601079 -1.3715876e-21)
(0.00017952784 -0.003192432 -5.2102775e-21)
(0.00018322197 -0.0037789264 1.2511836e-21)
(0.00017592329 -0.0044243734 4.7586707e-21)
(0.00015483411 -0.0051336054 -1.4498974e-21)
(0.00011538919 -0.0059108546 -9.6565491e-23)
(5.1684403e-05 -0.0067602132 3.7749582e-21)
(-4.2656305e-05 -0.0076855321 -1.1766405e-20)
(-0.00017579706 -0.0086901594 7.1911059e-21)
(-0.00035749461 -0.0097766868 6.8270586e-23)
(-0.00059938058 -0.010946659 -3.9300287e-21)
(-0.00091518171 -0.012200222 9.9023288e-21)
(-0.0013209449 -0.013535712 -4.6306065e-21)
(-0.001835199 -0.014949161 -6.8358581e-21)
(-0.0024790505 -0.01643374 -2.7368216e-21)
(-0.0032761577 -0.017979168 1.3365267e-20)
(-0.0042525295 -0.019571113 6.8932092e-21)
(-0.0054360737 -0.021190705 -4.3915706e-21)
(-0.0068558084 -0.022814309 2.5279262e-21)
(-0.0085406321 -0.024413818 -9.3360537e-21)
(-0.010517549 -0.025957832 2.6455436e-21)
(-0.012809272 -0.027414209 -7.0322461e-21)
(-0.015431223 -0.028754456 3.9151278e-21)
(-0.018388198 -0.029960112 -2.3844324e-21)
(-0.021671422 -0.031030125 8.5812544e-21)
(-0.025257399 -0.031986072 -1.2020034e-21)
(-0.029110249 -0.032870346 6.1693264e-21)
(-0.033188133 -0.033735281 -5.7029495e-21)
(-0.037451417 -0.034629198 -1.7630742e-21)
(-0.04186828 -0.03558917 2.1047799e-20)
(-0.046415593 -0.036643204 5.299744e-21)
(-0.051077072 -0.037816741 -4.2533442e-21)
(-0.055841674 -0.039138546 4.0841517e-21)
(-0.060703819 -0.040644172 -1.034481e-21)
(-0.065665325 -0.042377237 -6.4571584e-21)
(-0.070738551 -0.044389094 3.0170064e-22)
(-0.075953898 -0.046736809 2.1896137e-21)
(-0.081364585 -0.049474955 -1.0755479e-21)
(-0.087046278 -0.052645199 5.3747698e-22)
(-0.093103115 -0.056270292 1.5944576e-21)
(-0.099670975 -0.060335328 -2.5154227e-20)
(-0.10690852 -0.064754303 2.8304073e-21)
(-0.11500084 -0.069319948 -2.6614983e-21)
(-0.12412492 -0.073606902 2.5183721e-20)
(-0.13448195 -0.076816046 -1.393748e-20)
(-0.14613668 -0.077522541 -1.1319163e-20)
(-0.15912088 -0.073307335 -1.0680912e-20)
(-0.17268275 -0.060300112 -1.005826e-20)
(-0.18557533 -0.032625907 -1.5432361e-20)
(-0.1940993 0.017454687 2.9306424e-20)
(-0.19232763 0.095751876 -1.6496961e-20)
(-0.16583322 0.20032317 -2.2740615e-20)
(-0.099960695 0.3084693 1.3524994e-20)
(0.00065915535 0.37965298 4.7240636e-21)
(0.1547731 0.31625814 4.9691861e-21)
(0.41914163 0.041097468 -3.6347425e-20)
(0.64622677 -0.31303657 -2.3478171e-20)
(0.74453301 -0.49189056 3.7326902e-23)
(1.1501229e-05 -9.128318e-05 -1.0608774e-21)
(3.4375819e-05 -0.00028404656 3.5216767e-21)
(5.7760114e-05 -0.00049855524 -2.870451e-21)
(8.1205032e-05 -0.00073707461 1.084489e-21)
(0.00010415841 -0.001002082 3.9169153e-22)
(0.00012584307 -0.0012962778 -3.3691389e-21)
(0.00014513612 -0.0016225926 8.5281239e-22)
(0.00016075247 -0.0019842444 1.809977e-21)
(0.00017112986 -0.0023847746 1.3876038e-22)
(0.00017391882 -0.0028276375 1.1779309e-21)
(0.00016583175 -0.0033164694 -1.6476318e-21)
(0.00014380741 -0.0038542658 1.1435759e-21)
(0.0001036895 -0.0044441684 4.2068558e-21)
(3.9304112e-05 -0.005090576 1.2239937e-22)
(-5.5571442e-05 -0.0057969158 -3.1994426e-21)
(-0.00018899828 -0.0065663124 -2.2587396e-21)
(-0.00037072554 -0.0074014339 1.9358948e-21)
(-0.00061233689 -0.0083042777 -1.845911e-22)
(-0.00092751139 -0.0092759241 -3.7324827e-21)
(-0.0013322436 -0.010316229 -4.5157127e-21)
(-0.0018450131 -0.011423457 5.1098426e-21)
(-0.0024868799 -0.012593853 5.0928768e-21)
(-0.0032814652 -0.013821176 -6.7791348e-21)
(-0.0042547554 -0.015096232 8.2906309e-21)
(-0.0054346597 -0.016406501 1.4187376e-20)
(-0.0068502298 -0.017735979 -3.2988519e-20)
(-0.0085304393 -0.019065499 1.7910906e-20)
(-0.010502416 -0.020373818 -2.6163851e-20)
(-0.012789049 -0.021639876 3.220631e-20)
(-0.015405998 -0.022846528 -3.5386776e-20)
(-0.018358366 -0.023985624 3.5946593e-20)
(-0.021637812 -0.025063193 -5.9203871e-21)
(-0.025221484 -0.026101755 -1.9959532e-20)
(-0.029074407 -0.02713623 1.0913054e-20)
(-0.033155807 -0.0282036 -3.2870901e-21)
(-0.037427047 -0.029333041 -9.2044675e-22)
(-0.041857089 -0.030543784 -1.0935574e-20)
(-0.046423391 -0.031850263 -3.441584e-21)
(-0.051109935 -0.033268579 -3.3545997e-21)
(-0.055905543 -0.034820805 -3.2372934e-21)
(-0.060804302 -0.036536744 1.6230904e-20)
(-0.065807498 -0.038453937 -7.0731337e-21)
(-0.070926483 -0.040616534 -1.1276961e-21)
(-0.07618983 -0.043072989 1.3081157e-20)
(-0.081647319 -0.045869892 6.7007501e-21)
(-0.087367147 -0.049043074 -3.3421894e-21)
(-0.093440081 -0.052609368 -1.2252084e-20)
(-0.099978509 -0.056550601 5.4221198e-21)
(-0.10710079 -0.060782692 -1.5881812e-20)
(-0.11492624 -0.065106329 -8.6703221e-21)
(-0.12352818 -0.069112302 -1.2058561e-20)
(-0.13295394 -0.072035109 -3.1997336e-20)
(-0.14304447 -0.072516083 2.4576182e-20)
(-0.15354448 -0.068292628 -7.6778146e-21)
(-0.16333453 -0.055774781 1.3123483e-20)
(-0.17078918 -0.029481622 1.2215443e-20)
(-0.17226546 0.017304513 3.3127108e-21)
(-0.15969459 0.089249742 3.4861219e-20)
(-0.11838435 0.18389516 9.0097174e-21)
(-0.03681945 0.28196569 -1.8021206e-20)
(0.084613492 0.34145739 -6.9857247e-21)
(0.28545037 0.26400366 7.4664566e-21)
(0.559661 -0.010118667 1.9375784e-20)
(0.77368432 -0.33711744 2.6924534e-20)
(0.8366472 -0.48723459 -3.1565711e-22)
(9.2422734e-06 -5.9418735e-05 -3.2325182e-21)
(2.7443822e-05 -0.0001853559 -1.1408225e-21)
(4.5752179e-05 -0.00032602255 9.2340139e-22)
(6.3688131e-05 -0.00048299121 3.4091953e-21)
(8.0667744e-05 -0.00065799712 -1.8674263e-21)
(9.5885604e-05 -0.00085295616 2.686844e-21)
(0.00010827349 -0.001069961 -1.1620733e-21)
(0.00011645341 -0.0013112656 -2.7666674e-22)
(0.00011865022 -0.0015792355 1.564844e-21)
(0.00011261199 -0.0018764049 3.3700848e-21)
(9.5522609e-05 -0.00220559 1.6930827e-22)
(6.3867311e-05 -0.0025697998 -5.5291821e-21)
(1.329125e-05 -0.0029717568 7.6398144e-21)
(-6.1581074e-05 -0.0034143287 -1.2316425e-20)
(-0.00016731189 -0.0039004372 3.2125074e-21)
(-0.00031185331 -0.0044329291 -6.8110551e-21)
(-0.00050476415 -0.0050144858 8.2111552e-21)
(-0.00075743409 -0.005647508 -5.3158999e-21)
(-0.0010833082 -0.0063339644 8.3583069e-22)
(-0.0014980945 -0.0070751953 3.3768351e-21)
(-0.0020199323 -0.007871666 -8.1661859e-21)
(-0.0026694901 -0.0087226686 1.1453928e-20)
(-0.0034699498 -0.0096259853 -1.2371811e-20)
(-0.0044468212 -0.010577547 -2.1122568e-21)
(-0.0056275153 -0.011571159 2.0545128e-20)
(-0.007040586 -0.012598427 -2.059504e-20)
(-0.0087145389 -0.013649085 1.3270588e-20)
(-0.010676098 -0.01471199 -1.4761966e-20)
(-0.012947858 -0.015777108 -1.3993753e-21)
(-0.015545345 -0.016838611 -8.6542395e-22)
(-0.018473778 -0.017898745 5.6559036e-21)
(-0.02172531 -0.018970946 -3.7928887e-22)
(-0.025278093 -0.020079382 2.0557773e-20)
(-0.029098708 -0.021252524 -5.4057221e-21)
(-0.033148239 -0.022512924 -1.5690664e-20)
(-0.037389791 -0.023870956 7.0494013e-21)
(-0.041793599 -0.025327691 -5.5719126e-21)
(-0.046337644 -0.026883389 5.4111428e-21)
(-0.051005697 -0.028544276 2.9211442e-20)
(-0.055785888 -0.030325231 -1.5778768e-20)
(-0.060671244 -0.03224985 -3.8142094e-21)
(-0.065661442 -0.034349387 2.1463164e-20)
(-0.070765329 -0.036660855 -1.2211871e-21)
(-0.07600787 -0.039224415 -2.625478e-21)
(-0.081432453 -0.042079637 -2.8865757e-20)
(-0.087095707 -0.045258427 -6.7454315e-21)
(-0.093069616 -0.048774627 1.0716709e-20)
(-0.099435071 -0.052611603 1.1045111e-20)
(-0.10625828 -0.056694462 1.5794688e-20)
(-0.11357538 -0.060842188 1.9497901e-20)
(-0.12133074 -0.064675306 1.181039e-20)
(-0.12938144 -0.067478471 1.8567992e-20)
(-0.13729437 -0.067974216 -6.2443691e-21)
(-0.14446704 -0.064071837 3.7219026e-20)
(-0.14928209 -0.052446366 1.9570973e-21)
(-0.14977762 -0.028011916 1.6022208e-21)
(-0.14102641 0.014859512 -3.0471205e-24)
(-0.11219653 0.079657497 -3.66761e-20)
(-0.052102117 0.16427336 -1.1501171e-20)
(0.047002642 0.25210189 1.6275363e-20)
(0.19242854 0.29826007 2.7760246e-20)
(0.42090377 0.20997523 1.7946818e-20)
(0.69823185 -0.055185222 7.4583456e-21)
(0.89568902 -0.3500209 -3.6284985e-20)
(0.92047727 -0.4684301 5.3318187e-21)
(5.1951246e-06 -2.8113619e-05 6.107616e-22)
(1.499567e-05 -8.8388665e-05 1.9408794e-21)
(2.4122554e-05 -0.000156482 -4.684017e-21)
(3.2040221e-05 -0.00023326748 1.7404413e-22)
(3.8100703e-05 -0.00031973122 2.2798923e-21)
(4.1438586e-05 -0.00041699261 1.0047206e-21)
(4.093e-05 -0.00052630309 7.4171098e-22)
(3.5150953e-05 -0.00064904561 -1.4611486e-21)
(2.2300026e-05 -0.00078673709 7.5615413e-21)
(1.1582084e-07 -0.00094103004 -5.7031247e-21)
(-3.4226845e-05 -0.001113716 2.7583696e-22)
(-8.4238828e-05 -0.0013067301 3.4477109e-21)
(-0.00015424881 -0.0015221514 -1.2887069e-20)
(-0.00024955072 -0.0017622046 1.2831155e-20)
(-0.00037657998 -0.00202926 -1.7066972e-21)
(-0.0005431053 -0.0023258278 -1.054635e-20)
(-0.00075843387 -0.0026545426 9.8981492e-21)
(-0.0010336253 -0.0030181325 -3.4508797e-21)
(-0.0013817046 -0.0034193654 6.6858328e-21)
(-0.0018178602 -0.0038609632 -8.5498129e-21)
(-0.0023596053 -0.0043454759 -1.598592e-20)
(-0.0030268733 -0.0048751126 1.5741846e-20)
(-0.0038420055 -0.0054515336 2.2923937e-20)
(-0.0048295787 -0.0060756319 -4.3900325e-20)
(-0.0060160011 -0.0067473667 3.4914194e-20)
(-0.0074287896 -0.0074657594 -2.008201e-20)
(-0.0090954259 -0.008229234 5.1240391e-21)
(-0.011041687 -0.009036534 -1.1994308e-20)
(-0.013289375 -0.0098884421 1.2135074e-20)
(-0.015853481 -0.01079032 1.6179721e-20)
(-0.018739098 -0.011754877 -1.0603123e-20)
(-0.021938843 -0.012803423 -1.7309238e-20)
(-0.025432133 -0.013962838 1.4809377e-21)
(-0.029187648 -0.015256699 5.9735856e-22)
(-0.033169149 -0.016694662 1.0285283e-20)
(-0.037342176 -0.018269201 -4.3038319e-21)
(-0.041678579 -0.019963069 -1.5181178e-20)
(-0.046156851 -0.021761771 -7.3942955e-21)
(-0.050760339 -0.023660777 1.094952e-20)
(-0.055476049 -0.02566703 -8.4228628e-21)
(-0.060295157 -0.027797519 7.0832986e-21)
(-0.065214569 -0.030077083 -2.3058366e-21)
(-0.070239136 -0.032535632 -8.9372656e-21)
(-0.075388497 -0.035205475 2.1597329e-20)
(-0.080696637 -0.038120385 1.2934006e-20)
(-0.086204577 -0.041310389 8.5323765e-21)
(-0.091960234 -0.044789665 -2.7149185e-20)
(-0.098004958 -0.048548675 -1.7752303e-20)
(-0.10434069 -0.0525301 -2.0901153e-20)
(-0.11090214 -0.056583135 -3.6465711e-20)
(-0.11747675 -0.060373821 1.2373746e-20)
(-0.12368838 -0.06325552 -2.6674299e-21)
(-0.12876736 -0.064047444 -2.0137703e-20)
(-0.13168432 -0.060860885 -5.6965853e-20)
(-0.1300895 -0.05052478 -3.5373738e-20)
(-0.12165358 -0.028828429 -1.2744827e-20)
(-0.097261109 0.0091576437 -3.3916484e-20)
(-0.049573723 0.066444234 2.0612676e-20)
(0.030680189 0.14201555 -6.0808632e-22)
(0.14593608 0.21908733 -2.5352903e-20)
(0.31088083 0.25303889 -2.1011476e-20)
(0.55099347 0.15595915 -1.574395e-21)
(0.83391878 -0.093237648 5.8820584e-20)
(1.0070585 -0.35172267 -4.0130472e-21)
(0.98913524 -0.43998524 2.853412e-21)
(-5.3528133e-07 2.0522283e-06 2.4131961e-21)
(-2.6558564e-06 5.066658e-06 -1.6277177e-21)
(-6.573972e-06 6.9509282e-06 2.1985308e-21)
(-1.2918379e-05 7.5210802e-06 1.2494398e-21)
(-2.243312e-05 6.5345285e-06 -3.4859399e-21)
(-3.607661e-05 3.6650183e-06 -3.2536206e-21)
(-5.5060811e-05 -1.4995718e-06 3.3377109e-21)
(-8.0890549e-05 -9.462639e-06 -4.0161751e-22)
(-0.00011543702 -2.0831204e-05 -9.3008786e-23)
(-0.00016101608 -3.633113e-05 -6.6039292e-21)
(-0.00022048326 -5.6827919e-05 7.2335783e-22)
(-0.00029734202 -8.3353138e-05 1.3300841e-20)
(-0.00039586969 -0.0001171375 -1.0626725e-20)
(-0.00052125982 -0.00015965176 3.6551522e-22)
(-0.00067978208 -0.00021265413 7.1078425e-21)
(-0.00087895804 -0.00027824318 6.1073944e-22)
(-0.0011277502 -0.00035891272 -1.5511168e-21)
(-0.0014367589 -0.00045760381 -6.9760934e-21)
(-0.0018184188 -0.00057774661 1.2748937e-20)
(-0.002287181 -0.00072328275 -2.2352148e-20)
(-0.0028596626 -0.00089865825 4.8022049e-21)
(-0.0035547358 -0.00110878 -3.516612e-21)
(-0.0043935179 -0.0013589364 2.8728777e-21)
(-0.0053992126 -0.0016547017 -1.2392297e-22)
(-0.0065967348 -0.0020018743 1.6867696e-20)
(-0.0080120334 -0.0024065477 1.6715676e-20)
(-0.0096710134 -0.0028754692 -3.2885781e-20)
(-0.011597952 -0.0034168874 -5.4443811e-21)
(-0.013813342 -0.0040420489 1.879482e-20)
(-0.0163312 -0.0047672528 6.6166313e-21)
(-0.019156168 -0.0056156867 1.4881606e-20)
(-0.022281191 -0.0066170883 -1.6540891e-20)
(-0.025687041 -0.0078023842 -7.1237733e-21)
(-0.029344888 -0.0091923785 1.6145272e-20)
(-0.033221911 -0.010786113 -6.5868156e-21)
(-0.037286605 -0.012559193 -3.1005597e-21)
(-0.041512658 -0.014476686 8.5490071e-21)
(-0.045879495 -0.016508505 2.1764251e-20)
(-0.050369945 -0.018638291 6.4681467e-21)
(-0.054969375 -0.020864262 -4.1857613e-21)
(-0.059666279 -0.023196336 -9.8154498e-21)
(-0.064453611 -0.025652774 -1.0115147e-20)
(-0.069330822 -0.028256397 -1.1203674e-20)
(-0.074310292 -0.031031993 -2.360294e-20)
(-0.079413448 -0.034009246 6.727796e-22)
(-0.084661814 -0.037218249 -1.0095591e-20)
(-0.090073689 -0.040677191 5.5772504e-20)
(-0.095642374 -0.044389906 1.5550426e-20)
(-0.10129244 -0.048326158 1.7864503e-20)
(-0.10683678 -0.052379109 4.9403821e-20)
(-0.11187328 -0.056279016 -5.7225933e-20)
(-0.11574067 -0.059469838 1.2506609e-20)
(-0.11725698 -0.060883592 3.9207869e-20)
(-0.1148007 -0.058862093 4.6406285e-20)
(-0.10527793 -0.050494254 5.8248503e-21)
(-0.084652505 -0.032571695 -1.2045337e-20)
(-0.041885518 -0.0002012711 -1.6800704e-20)
(0.024113238 0.049298549 5.916478e-21)
(0.12090895 0.11651051 -8.1176725e-21)
(0.24700776 0.18399349 7.8246794e-21)
(0.42652222 0.20679096 3.414817e-21)
(0.67901458 0.10348801 1.3979848e-20)
(0.96873076 -0.12404171 -7.1297704e-20)
(1.1011304 -0.34111421 8.3286081e-22)
(1.037511 -0.40173824 -1.1097591e-20)
(-7.7771916e-06 3.0545735e-05 -2.2688986e-21)
(-2.5036369e-05 9.3341912e-05 -6.0776509e-22)
(-4.5488959e-05 0.00016137177 6.6763388e-22)
(-6.9958919e-05 0.00023510257 3.2808524e-21)
(-9.9291814e-05 0.00031502378 -3.9335485e-21)
(-0.00013457585 0.00040158504 3.3389034e-21)
(-0.00017714521 0.00049519955 1.5950593e-21)
(-0.00022861926 0.00059623271 -8.5374929e-23)
(-0.00029096905 0.00070498197 -1.344575e-21)
(-0.00036659024 0.00082164938 -7.6399187e-21)
(-0.0004583889 0.00094630487 1.2812493e-20)
(-0.0005698795 0.0010788381 -1.5371934e-20)
(-0.00070529803 0.0012188969 4.505796e-21)
(-0.00086972958 0.0013658105 6.1025959e-21)
(-0.001069251 0.001518498 -9.3358489e-21)
(-0.001311087 0.0016753597 1.8348086e-20)
(-0.0016037783 0.0018341569 -2.2162403e-20)
(-0.0019573552 0.0019918803 -3.4856287e-22)
(-0.0023835119 0.002144618 -1.2602811e-20)
(-0.0028957672 0.0022874288 4.979298e-20)
(-0.0035095966 0.002414235 -1.1998512e-20)
(-0.0042425109 0.0025177433 -4.9415864e-20)
(-0.0051140458 0.002589398 2.3238225e-20)
(-0.0061456171 0.0026193547 2.7591065e-20)
(-0.0073601781 0.0025964354 -6.8993269e-21)
(-0.0087815966 0.0025079787 -3.5958249e-20)
(-0.010433656 0.0023394528 5.4199695e-20)
(-0.01233858 0.0020736582 -5.9811203e-20)
(-0.01451501 0.0016894105 4.6820246e-20)
(-0.016975496 0.0011598774 -8.9014367e-21)
(-0.019723825 0.00045148411 1.5175237e-20)
(-0.022752989 -0.00047446707 2.1390669e-20)
(-0.02604504 -0.0016544788 -8.2384175e-21)
(-0.029573768 -0.0031091466 -2.0538868e-21)
(-0.033309514 -0.0048297212 -2.9299914e-20)
(-0.03722485 -0.0067774817 5.4561756e-21)
(-0.041296445 -0.0089000666 -1.3712945e-20)
(-0.045504341 -0.01115095 1.1353023e-20)
(-0.049830831 -0.013500903 -6.4071643e-21)
(-0.054259182 -0.01593851 -4.1708552e-21)
(-0.05877439 -0.018466043 -3.5661537e-21)
(-0.063364223 -0.021094827 -3.4589976e-21)
(-0.068021394 -0.023840736 2.1196851e-20)
(-0.07274859 -0.026721665 1.68879e-20)
(-0.07755128 -0.029764368 -4.7595158e-21)
(-0.082427547 -0.033001325 3.1083297e-21)
(-0.087359594 -0.036458638 -1.2815074e-20)
(-0.092282766 -0.040160328 2.58274e-20)
(-0.097028672 -0.044113744 3.016289e-20)
(-0.10126338 -0.048271711 8.6640662e-21)
(-0.10435393 -0.052450156 2.266576e-20)
(-0.105293 -0.056210027 -7.2218994e-22)
(-0.10240134 -0.058638571 -1.0645927e-20)
(-0.093231607 -0.058290462 -4.7267173e-20)
(-0.074099891 -0.052831798 2.2556872e-20)
(-0.038510386 -0.039760247 -7.073008e-21)
(0.020052619 -0.013608747 2.1209456e-20)
(0.10061206 0.029139351 -2.7911048e-20)
(0.20728286 0.08833617 1.4612944e-20)
(0.34561574 0.14679685 -4.3748346e-21)
(0.54123997 0.15846628 -3.6988283e-22)
(0.81852571 0.054221439 -7.2208763e-21)
(1.0990719 -0.14511072 -2.4001207e-20)
(1.1688946 -0.32095998 4.0894296e-20)
(1.0647336 -0.35701726 -1.7783625e-20)
(-1.6356622e-05 5.6880898e-05 5.075917e-21)
(-5.1469366e-05 0.00017496503 3.4921569e-21)
(-9.1514099e-05 0.00030418524 -5.4815403e-21)
(-0.00013744388 0.00044565609 1.4430834e-22)
(-0.00019027366 0.0006005593 4.9549616e-21)
(-0.00025124929 0.00077009154 2.5905764e-21)
(-0.00032185912 0.00095546359 -5.4586648e-21)
(-0.0004038689 0.0011578852 8.9627567e-22)
(-0.00049938164 0.001378538 -1.2632236e-20)
(-0.00061090206 0.0016185382 2.4612696e-21)
(-0.00074141226 0.001878886 6.3068261e-23)
(-0.00089445722 0.0021603985 -9.0470524e-21)
(-0.0010742428 0.0024636235 2.8978212e-20)
(-0.0012857456 0.0027887308 -1.3495643e-20)
(-0.0015348344 0.0031353802 -2.4166614e-20)
(-0.0018284032 0.0035025641 2.5735263e-20)
(-0.0021745129 0.0038884255 -3.1666649e-21)
(-0.0025825372 0.0042900555 1.796637e-20)
(-0.0030633086 0.0047032759 1.333199e-20)
(-0.0036292522 0.0051224155 -4.1881427e-20)
(-0.0042944948 0.0055400943 3.1401398e-20)
(-0.0050749273 0.0059470265 -4.1271162e-20)
(-0.0059881909 0.0063318507 4.8384952e-21)
(-0.0070535438 0.006680983 -1.9743334e-20)
(-0.0082915517 0.006978462 4.2814286e-20)
(-0.0097235234 0.0072057151 -1.0121395e-20)
(-0.0113706 0.0073411295 -2.5488975e-20)
(-0.0132524 0.0073592828 6.139863e-20)
(-0.015385153 0.0072297566 -2.6564245e-20)
(-0.017779387 0.0069157647 -2.8491651e-20)
(-0.020437505 0.0063735992 2.3390756e-20)
(-0.02335207 0.0055551815 3.1108398e-21)
(-0.026505993 0.0044168967 -1.537928e-20)
(-0.029875464 0.0029355081 8.3487485e-21)
(-0.033434723 0.0011238491 -1.2552992e-20)
(-0.037160209 -0.00096807244 4.2937427e-20)
(-0.041031804 -0.0032711058 -2.1959009e-20)
(-0.045031206 -0.0057220236 -1.2878214e-20)
(-0.049140086 -0.0082775738 -2.5879536e-20)
(-0.053339127 -0.010915627 -3.5000284e-21)
(-0.057608885 -0.013630066 2.6720489e-20)
(-0.061930647 -0.016424929 -1.0715923e-20)
(-0.066288606 -0.019309051 -1.5797106e-20)
(-0.070673452 -0.022294353 -2.3956431e-21)
(-0.075070489 -0.02540546 1.5792482e-20)
(-0.079449036 -0.028679313 1.4029306e-20)
(-0.083747209 -0.032154221 -4.3019412e-20)
(-0.087829045 -0.035881573 -2.2924528e-20)
(-0.091411901 -0.039917373 -4.991235e-20)
(-0.093979587 -0.044291235 -1.7523895e-20)
(-0.094610739 -0.048925704 -6.7390239e-21)
(-0.091887294 -0.053528286 -4.8116033e-20)
(-0.083552602 -0.057403769 -1.7792698e-20)
(-0.066450021 -0.059300165 5.7856956e-20)
(-0.036093852 -0.057471298 -4.1971875e-20)
(0.013546341 -0.049425343 3.5004618e-20)
(0.084938402 -0.029384245 -1.3007058e-20)
(0.17796535 0.0071538226 5.2105465e-20)
(0.29662177 0.059008083 2.2107142e-20)
(0.45382222 0.10849056 -8.8023553e-21)
(0.67434581 0.10958254 -1.8071727e-20)
(0.97966437 0.012141486 -3.8557279e-20)
(1.2052335 -0.153547 -3.3444689e-21)
(1.1974494 -0.28794094 -6.1549552e-21)
(1.0765082 -0.3121158 2.2662584e-20)
(-2.5989525e-05 8.0613704e-05 9.2209685e-23)
(-8.1162561e-05 0.00024855988 -6.5632292e-21)
(-0.00014323701 0.00043300832 7.7360676e-21)
(-0.0002133186 0.00063567854 3.7221835e-21)
(-0.00029261957 0.00085840033 -7.4531864e-21)
(-0.00038257238 0.0011030743 -2.4133804e-21)
(-0.00048484953 0.0013716669 1.1700325e-20)
(-0.00060139397 0.0016661928 -1.2585088e-20)
(-0.0007344714 0.0019886827 -2.6534586e-21)
(-0.00088672541 0.0023411385 -1.0547979e-20)
(-0.0010612418 0.0027254711 2.7985151e-20)
(-0.0012616199 0.0031434185 3.4065347e-22)
(-0.0014920539 0.0035964382 -2.5074016e-20)
(-0.0017574217 0.0040855722 2.6875074e-20)
(-0.0020633835 0.0046112798 -1.9204237e-20)
(-0.0024164875 0.0051732378 -7.1067357e-21)
(-0.0028242808 0.0057701051 1.4812068e-20)
(-0.0032954242 0.0063992561 -1.33314e-20)
(-0.0038398037 0.0070564862 -1.7701155e-20)
(-0.004468632 0.0077357006 3.7244546e-22)
(-0.0051945289 0.0084285966 2.7729371e-20)
(-0.0060315619 0.0091243552 -1.7092646e-20)
(-0.0069952226 0.0098093534 9.4911892e-21)
(-0.0081023012 0.010466897 4.5727831e-20)
(-0.0093706065 0.011076955 1.5250883e-20)
(-0.01081846 0.011615831 -4.1264436e-20)
(-0.012463878 0.012055682 4.1155641e-21)
(-0.014323336 0.01236375 -4.6368376e-20)
(-0.016410078 0.012501258 2.7376756e-20)
(-0.018732002 0.01242223 -1.4455284e-20)
(-0.021289497 0.012073281 2.0902461e-20)
(-0.024074036 0.011396733 5.090326e-21)
(-0.027068735 0.010340465 -2.5354842e-20)
(-0.030251614 0.0088756558 2.5838076e-20)
(-0.03360039 0.0070152029 3.7428109e-20)
(-0.037095821 0.0048170656 -3.4751503e-21)
(-0.040721502 0.0023647594 -3.866741e-20)
(-0.044461104 -0.00026161747 4.8408918e-20)