/*--------------------------------*- C++ -*----------------------------------*\
  =========                 |
  \\      /  F ield         | OpenFOAM: The Open Source CFD Toolbox
   \\    /   O peration     | Website:  https://openfoam.org
    \\  /    A nd           | Version:  13
     \\/     M anipulation  |
\*---------------------------------------------------------------------------*/
FoamFile
{
    format      ascii;
    class       volScalarField;
    location    "45.697648";
    object      pPrime2Mean;
}
// * * * * * * * * * * * * * * * * * * * * * * * * * * * * * * * * * * * * * //

dimensions      [0 4 -4 0 0 0 0];

internalField   nonuniform List<scalar> 
17140
(
6815.4235
6815.4236
6815.4235
6815.4232
6815.4226
6815.4218
6815.4205
6815.4188
6815.4166
6815.4136
6815.4099
6815.4051
6815.399
6815.3913
6815.3816
6815.3695
6815.3543
6815.3352
6815.3113
6815.2815
6815.244
6815.197
6815.1379
6815.0637
6814.9701
6814.8522
6814.7035
6814.5158
6814.2791
6813.981
6813.6059
6813.1352
6812.5458
6811.81
6810.8946
6809.7598
6808.3587
6806.6362
6804.5283
6801.9613
6798.8512
6795.103
6790.6095
6785.2509
6778.8937
6771.3902
6762.5776
6752.2779
6740.2969
6726.4224
6710.4244
6692.0533
6671.0395
6647.0923
6619.8981
6589.1191
6554.3885
6515.3123
6471.4574
6422.3635
6367.5162
6306.3924
6238.38
6162.8814
6079.1766
6815.5895
6815.5895
6815.5894
6815.5891
6815.5885
6815.5877
6815.5864
6815.5847
6815.5824
6815.5795
6815.5757
6815.5708
6815.5647
6815.557
6815.5473
6815.5351
6815.5199
6815.5008
6815.4769
6815.447
6815.4096
6815.3626
6815.3036
6815.2295
6815.1362
6815.0186
6814.8703
6814.6831
6814.447
6814.1495
6813.7753
6813.3055
6812.717
6811.9822
6811.0678
6809.9339
6808.5337
6806.8121
6804.7051
6802.1393
6799.0307
6795.2842
6790.7928
6785.4368
6779.0827
6771.5828
6762.7746
6752.48
6740.5046
6726.6367
6710.6462
6692.2837
6671.2797
6647.3438
6620.1624
6589.398
6554.6839
6515.6263
6471.7917
6422.7196
6367.8964
6306.7994
6238.8182
6163.3562
6079.6875
6815.9998
6815.9998
6815.9998
6815.9994
6815.9989
6815.998
6815.9967
6815.995
6815.9928
6815.9898
6815.9861
6815.9813
6815.9752
6815.9675
6815.9579
6815.9458
6815.9306
6815.9117
6815.8879
6815.8582
6815.821
6815.7744
6815.7158
6815.6422
6815.5494
6815.4325
6815.2851
6815.099
6814.8641
6814.5681
6814.1955
6813.7274
6813.1408
6812.4079
6811.4954
6810.3634
6808.9651
6807.2454
6805.1407
6802.5776
6799.4724
6795.7302
6791.244
6785.8942
6779.5476
6772.0568
6763.2593
6752.9772
6741.016
6727.1641
6711.1919
6692.8504
6671.8706
6647.9623
6620.8124
6590.0835
6555.4096
6516.397
6472.6123
6423.5949
6368.8315
6307.8016
6239.8966
6164.5217
6080.9397
6816.6682
6816.6682
6816.6681
6816.6678
6816.6673
6816.6664
6816.6651
6816.6635
6816.6612
6816.6583
6816.6546
6816.6499
6816.6439
6816.6363
6816.6268
6816.6149
6816.5999
6816.5812
6816.5578
6816.5284
6816.4917
6816.4456
6816.3876
6816.3148
6816.223
6816.1072
6815.961
6815.7765
6815.5434
6815.2495
6814.8792
6814.4136
6813.8296
6813.0994
6812.1896
6811.0603
6809.6649
6807.9485
6805.8475
6803.289
6800.1894
6796.454
6791.9762
6786.6367
6780.3024
6772.8263
6764.0461
6753.784
6741.8457
6728.02
6712.0776
6693.7703
6672.8299
6648.9665
6621.8677
6591.1966
6556.5878
6517.6482
6473.9442
6425.0156
6370.3503
6309.4301
6241.6486
6166.4147
6082.9727
6817.6084
6817.6085
6817.6084
6817.608
6817.6075
6817.6066
6817.6054
6817.6037
6817.6015
6817.5986
6817.595
6817.5903
6817.5844
6817.5769
6817.5675
6817.5558
6817.541
6817.5226
6817.4995
6817.4706
6817.4343
6817.3888
6817.3317
6817.2598
6817.1691
6817.0547
6816.9102
6816.7276
6816.4969
6816.2055
6815.8381
6815.3756
6814.795
6814.0682
6813.1619
6812.0364
6810.645
6808.9332
6806.8378
6804.2859
6801.1944
6797.4688
6793.0029
6787.6777
6781.3607
6773.9052
6765.1492
6754.915
6743.0087
6729.2196
6713.3192
6695.0603
6674.1752
6650.375
6623.3478
6592.7578
6558.2402
6519.4025
6475.8115
6427.0075
6372.4808
6311.7154
6244.1082
6169.0723
6085.8276
6818.8321
6818.8321
6818.832
6818.8317
6818.8311
6818.8302
6818.829
6818.8273
6818.8252
6818.8223
6818.8187
6818.8141
6818.8083
6818.8009
6818.7917
6818.7801
6818.7656
6818.7475
6818.7248
6818.6963
6818.6607
6818.6159
6818.5597
6818.4889
6818.3996
6818.2868
6818.1443
6817.964
6817.7361
6817.4479
6817.084
6816.6253
6816.0487
6815.3262
6814.4244
6813.3038
6811.9178
6810.2123
6808.1242
6805.5813
6802.5005
6798.7878
6794.3375
6789.0311
6782.7366
6775.3078
6766.583
6756.385
6744.5203
6730.7789
6714.9334
6696.7375
6675.9246
6652.2067
6625.2728
6594.7881
6560.389
6521.6835
6478.2392
6429.5975
6375.2521
6314.6894
6247.3101
6172.5327
6089.5465
6820.3518
6820.3519
6820.3517
6820.3514
6820.3508
6820.3499
6820.3487
6820.3471
6820.3449
6820.3421
6820.3385
6820.334
6820.3282
6820.321
6820.3119
6820.3005
6820.2863
6820.2685
6820.2462
6820.2183
6820.1833
6820.1394
6820.0842
6820.0147
6819.927
6819.8162
6819.676
6819.4985
6819.2738
6818.9893
6818.6295
6818.1752
6817.6034
6816.886
6815.9898
6814.8752
6813.4961
6811.7986
6809.72
6807.1883
6804.121
6800.4245
6795.9937
6790.7107
6784.4442
6777.0485
6768.3623
6758.2091
6746.396
6732.7141
6716.937
6698.8197
6678.0966
6654.4809
6627.6629
6597.3089
6563.0567
6524.515
6481.2527
6432.8133
6378.6942
6318.3848
6251.29
6176.8349
6094.1725
6822.1814
6822.1814
6822.1813
6822.1809
6822.1803
6822.1795
6822.1782
6822.1766
6822.1745
6822.1717
6822.1682
6822.1637
6822.1581
6822.151
6822.1421
6822.131
6822.1171
6822.0996
6822.0778
6822.0506
6822.0164
6821.9734
6821.9195
6821.8514
6821.7656
6821.6569
6821.5194
6821.345
6821.1239
6820.8435
6820.4882
6820.039
6819.4726
6818.7611
6817.8713
6816.764
6815.3933
6813.7055
6811.6385
6809.1205
6806.0695
6802.3927
6797.9854
6792.7307
6786.4979
6779.1418
6770.5021
6760.4027
6748.6519
6735.0418
6719.3474
6701.3249
6680.7101
6657.2175
6630.5389
6600.3422
6566.2664
6527.9216
6484.8784
6436.6834
6382.8382
6322.8352
6256.0846
6182.0182
6099.7488
6824.3372
6824.3372
6824.337
6824.3366
6824.336
6824.3351
6824.3339
6824.3323
6824.3302
6824.3275
6824.324
6824.3196
6824.3141
6824.3072
6824.2985
6824.2876
6824.274
6824.2571
6824.2358
6824.2092
6824.1759
6824.134
6824.0814
6824.015
6823.9311
6823.8248
6823.6901
6823.519
6823.3016
6823.0255
6822.675
6822.231
6821.6704
6820.9654
6820.083
6818.9841
6817.6232
6815.9469
6813.8934
6811.3916
6808.3599
6804.7062
6800.3268
6795.1053
6788.912
6781.6025
6773.0172
6762.9812
6751.3039
6737.7786
6722.1818
6704.2713
6683.7842
6660.4367
6633.9222
6603.9104
6570.042
6531.9286
6489.1435
6441.2369
6387.7154
6328.0746
6261.7304
6188.1229
6106.32
6826.8363
6826.8363
6826.8361
6826.8357
6826.8351
6826.8342
6826.833
6826.8314
6826.8293
6826.8266
6826.8233
6826.819
6826.8136
6826.8068
6826.7984
6826.7878
6826.7746
6826.758
6826.7374
6826.7115
6826.6791
6826.6383
6826.587
6826.5222
6826.4403
6826.3364
6826.2044
6826.0365
6825.8228
6825.5508
6825.2051
6824.7665
6824.2119
6823.5139
6822.6394
6821.5499
6820.2001
6818.5368
6816.4989
6814.0156
6811.0062
6807.3793
6803.032
6797.849
6791.7013
6784.4455
6775.923
6765.9603
6754.3681
6740.9413
6725.4579
6707.6771
6687.3379
6664.1584
6637.8338
6608.0359
6574.4072
6536.5612
6494.075
6446.5036
6393.3589
6334.1391
6268.2668
6195.1917
6113.9315
6829.6968
6829.6967
6829.6965
6829.6961
6829.6955
6829.6946
6829.6934
6829.6918
6829.6897
6829.6871
6829.6838
6829.6796
6829.6744
6829.6678
6829.6595
6829.6492
6829.6364
6829.6203
6829.6002
6829.575
6829.5434
6829.5037
6829.4536
6829.3903
6829.3102
6829.2084
6829.0788
6828.9138
6828.7034
6828.4353
6828.0939
6827.6605
6827.1121
6826.4212
6825.5553
6824.4759
6823.1382
6821.4895
6819.469
6817.0066
6814.0225
6810.4261
6806.1155
6800.9762
6794.8804
6787.6855
6779.2346
6769.3556
6757.8607
6744.5466
6729.1929
6711.5607
6691.3908
6668.4032
6642.2956
6612.7418
6579.3864
6541.8462
6499.7026
6452.516
6399.8035
6341.0661
6275.733
6203.266
6122.6289
6832.9351
6832.935
6832.9348
6832.9344
6832.9338
6832.9329
6832.9317
6832.9301
6832.9281
6832.9255
6832.9222
6832.9181
6832.913
6832.9065
6832.8985
6832.8884
6832.8759
6832.8601
6832.8405
6832.8159
6832.785
6832.7461
6832.6971
6832.635
6832.5563
6832.4563
6832.3288
6832.1662
6831.9586
6831.6938
6831.3565
6830.9279
6830.3855
6829.7019
6828.8449
6827.7765
6826.4519
6824.8192
6822.8179
6820.3789
6817.4232
6813.8611
6809.5918
6804.5017
6798.4641
6791.3379
6782.9676
6773.183
6761.7982
6748.6117
6733.4051
6715.9411
6695.9628
6673.1924
6647.33
6618.0518
6585.0054
6547.8113
6506.0565
6459.3064
6407.083
6348.8909
6284.1679
6212.3888
6132.4581
6836.5653
6836.5652
6836.565
6836.5646
6836.564
6836.5631
6836.5619
6836.5604
6836.5584
6836.5558
6836.5526
6836.5486
6836.5435
6836.5372
6836.5293
6836.5195
6836.5072
6836.4918
6836.4725
6836.4484
6836.418
6836.3798
6836.3315
6836.2704
6836.1928
6836.0941
6835.9682
6835.8075
6835.6023
6835.3404
6835.0067
6834.5828
6834.0463
6833.3702
6832.5226
6831.4658
6830.1554
6828.54
6826.5599
6824.1468
6821.2227
6817.6989
6813.4756
6808.4404
6802.4677
6795.4181
6787.1381
6777.4592
6766.1978
6753.1546
6738.113
6720.8378
6701.0742
6678.5472
6652.9593
6623.9899
6591.2901
6554.4846
6513.1664
6466.9063
6415.2319
6357.6515
6293.6116
6222.6037
6143.4647
6840.5998
6840.5997
6840.5995
6840.5991
6840.5984
6840.5976
6840.5964
6840.5949
6840.5929
6840.5904
6840.5872
6840.5832
6840.5783
6840.572
6840.5643
6840.5546
6840.5424
6840.5273
6840.5083
6840.4845
6840.4545
6840.4168
6840.3691
6840.3087
6840.2319
6840.1342
6840.0096
6839.8504
6839.6472
6839.388
6839.0579
6838.6387
6838.1082
6837.44
6836.6023
6835.5577
6834.2626
6832.666
6830.7092
6828.3248
6825.4356
6821.9543
6817.782
6812.8076
6806.9069
6799.9424
6791.7626
6782.2014
6771.0777
6758.194
6743.336
6726.2708
6706.7461
6684.4896
6659.2071
6630.5813
6598.2672
6561.8948
6521.0634
6475.3493
6424.2857
6367.3844
6304.1042
6233.9534
6155.6936
6845.0499
6845.0498
6845.0495
6845.0491
6845.0485
6845.0476
6845.0465
6845.0449
6845.043
6845.0405
6845.0374
6845.0335
6845.0286
6845.0225
6845.0148
6845.0052
6844.9933
6844.9783
6844.9595
6844.936
6844.9064
6844.869
6844.8217
6844.7619
6844.6857
6844.5888
6844.4653
6844.3075
6844.1063
6843.8497
6843.5232
6843.1088
6842.5847
6841.9249
6841.0977
6840.0664
6838.7878
6837.2117
6835.2804
6832.9274
6830.0768
6826.6422
6822.5261
6817.6187
6811.7977
6804.9273
6796.8585
6787.4278
6776.4562
6763.749
6749.0939
6732.2608
6713.0001
6691.0425
6666.0975
6637.8511
6605.9637
6570.0711
6529.7789
6484.6686
6434.279
6378.128
6315.6854
6246.4805
6169.1901
6849.9281
6849.928
6849.9278
6849.9274
6849.9268
6849.9259
6849.9248
6849.9233
6849.9213
6849.9189
6849.9158
6849.912
6849.9071
6849.9011
6849.8935
6849.884
6849.8722
6849.8574
6849.8388
6849.8155
6849.7861
6849.749
6849.7022
6849.6427
6849.5672
6849.471
6849.3485
6849.1922
6848.9929
6848.7392
6848.4165
6848.0073
6847.4901
6846.8389
6846.0231
6845.0061
6843.7454
6842.1916
6840.2881
6837.9696
6835.1612
6831.778
6827.7237
6822.89
6817.1565
6810.39
6802.4436
6793.1565
6782.3524
6769.8391
6755.4071
6738.8289
6719.8581
6698.229
6673.6543
6645.825
6614.4076
6579.0437
6539.3443
6494.8971
6445.2476
6389.9194
6328.3948
6260.2271
6183.9983
6855.2497
6855.2496
6855.2493
6855.2489
6855.2483
6855.2475
6855.2464
6855.2449
6855.243
6855.2406
6855.2375
6855.2337
6855.2289
6855.2228
6855.2153
6855.2059
6855.1942
6855.1794
6855.161
6855.1378
6855.1085
6855.0717
6855.0251
6854.966
6854.8909
6854.7955
6854.674
6854.5192
6854.322
6854.0712
6853.7526
6853.3489
6852.8389
6852.1972
6851.3934
6850.3915
6849.1501
6847.6208
6845.7476
6843.4667
6840.7045
6837.3774
6833.3905
6828.6376
6823.0003
6816.3477
6808.5356
6799.4059
6788.7851
6776.4839
6762.2957
6745.9962
6727.3424
6706.0719
6681.902
6654.5296
6623.6271
6588.8416
6549.7908
6506.0682
6457.2261
6402.7952
6342.2714
6275.2348
6200.1622
6861.0309
6861.0308
6861.0306
6861.0302
6861.0296
6861.0288
6861.0277
6861.0262
6861.0243
6861.0219
6861.0189
6861.015
6861.0102
6861.0042
6860.9967
6860.9873
6860.9755
6860.9608
6860.9424
6860.9192
6860.89
6860.8532
6860.8067
6860.7478
6860.6731
6860.5783
6860.4577
6860.3043
6860.1092
6859.8614
6859.5469
6859.1489
6858.6465
6858.0146
6857.2235
6856.2382
6855.0177
6853.5146
6851.6745
6849.4344
6846.7224
6843.4562
6839.5429
6834.8782
6829.346
6822.8179
6815.1524
6806.1943
6795.7733
6783.703
6769.7803
6753.784
6735.4747
6714.5942
6690.8658
6663.9917
6633.6497
6599.4947
6561.1496
6518.214
6470.2489
6416.7917
6357.3536
6291.5446
6217.7247
6867.2888
6867.2887
6867.2885
6867.2881
6867.2875
6867.2867
6867.2855
6867.2841
6867.2822
6867.2797
6867.2767
6867.2728
6867.2679
6867.2619
6867.2542
6867.2447
6867.2328
6867.218
6867.1993
6867.176
6867.1466
6867.1097
6867.0631
6867.0043
6866.9298
6866.8354
6866.7156
6866.5635
6866.3705
6866.1256
6865.8154
6865.4231
6864.9284
6864.3069
6863.5294
6862.5615
6861.3635
6859.889
6858.0845
6855.8887
6853.231
6850.0309
6846.1974
6841.6285
6836.2105
6829.8178
6822.3117
6813.54
6803.3357
6791.516
6777.881
6762.213
6744.2767
6723.8197
6700.5705
6674.2365
6644.5037
6611.0323
6573.4506
6531.3669
6484.3491
6431.9444
6373.6795
6309.1969
6236.7283
6874.0364
6874.0363
6874.0361
6874.0357
6874.0351
6874.0343
6874.0332
6874.0317
6874.0298
6874.0273
6874.0242
6874.0202
6874.0153
6874.0091
6874.0014
6873.9918
6873.9797
6873.9646
6873.9458
6873.9222
6873.8926
6873.8554
6873.8086
6873.7497
6873.6754
6873.5813
6873.4623
6873.3116
6873.1207
6872.8789
6872.5729
6872.1867
6871.7001
6871.0895
6870.3263
6869.3773
6868.2034
6866.7596
6864.9937
6862.8456
6860.2464
6857.1176
6853.3704
6848.9051
6843.6108
6837.3647
6830.0311
6821.4611
6811.4912
6799.942
6786.6172
6771.3035
6753.7705
6733.7713
6711.0395
6685.2907
6656.2165
6623.4819
6586.7244
6545.5574
6499.5599
6448.2883
6391.2861
6328.2308
6257.2137
6881.2837
6881.2836
6881.2834
6881.2831
6881.2825
6881.2817
6881.2805
6881.279
6881.2771
6881.2746
6881.2714
6881.2675
6881.2625
6881.2562
6881.2484
6881.2386
6881.2264
6881.2111
6881.1921
6881.1683
6881.1385
6881.1012
6881.0544
6880.9955
6880.9214
6880.828
6880.71
6880.5609
6880.3724
6880.1341
6879.8331
6879.4534
6878.9758
6878.3771
6877.6295
6876.7008
6875.553
6874.1423
6872.4178
6870.3209
6867.7846
6864.7325
6861.0782
6856.7247
6851.5638
6845.4757
6838.3281
6829.9754
6820.2577
6808.9992
6796.008
6781.0754
6763.9769
6744.4703
6722.2972
6697.1796
6668.8133
6636.872
6600.9987
6560.8163
6515.9136
6465.8575
6410.2093
6348.6847
6279.2205
6889.0365
6889.0364
6889.0362
6889.0359
6889.0353
6889.0345
6889.0334
6889.0319
6889.0299
6889.0275
6889.0243
6889.0203
6889.0153
6889.0091
6889.0013
6888.9915
6888.9793
6888.9641
6888.9451
6888.9214
6888.8918
6888.8547
6888.8083
6888.75
6888.6768
6888.5846
6888.4683
6888.3216
6888.1364
6887.9024
6887.6073
6887.2355
6886.7682
6886.1828
6885.4527
6884.5464
6883.4271
6882.0522
6880.3722
6878.3303
6875.8615
6872.8918
6869.3372
6865.1037
6860.0862
6854.1679
6847.2198
6839.1001
6829.6526
6818.7055
6806.0717
6791.5484
6774.9156
6755.939
6734.3672
6709.927
6682.3203
6651.2284
6616.302
6577.1735
6533.442
6484.6854
6430.4843
6370.5954
6302.786
6897.2992
6897.2991
6897.299
6897.2986
6897.2981
6897.2973
6897.2962
6897.2948
6897.2929
6897.2905
6897.2875
6897.2836
6897.2788
6897.2727
6897.2651
6897.2556
6897.2437
6897.2289
6897.2104
6897.1873
6897.1584
6897.1223
6897.077
6897.0201
6896.9486
6896.8586
6896.7452
6896.602
6896.4213
6896.1931
6895.9054
6895.543
6895.0878
6894.5181
6893.8079
6892.9267
6891.8388
6890.5029
6888.8711
6886.8885
6884.4923
6881.6107
6878.1631
6874.0581
6869.1939
6863.4572
6856.7224
6848.8516
6839.6923
6829.0773
6816.826
6802.7398
6786.6065
6768.1993
6747.2719
6723.5555
6696.7618
6666.5768
6632.6616
6594.658
6552.1758
6504.8045
6452.1448
6393.9987
6327.9458
6906.0783
6906.0783
6906.0781
6906.0778
6906.0773
6906.0766
6906.0756
6906.0743
6906.0725
6906.0703
6906.0674
6906.0638
6906.0593
6906.0536
6906.0464
6906.0375
6906.0263
6906.0123
6905.9948
6905.9729
6905.9454
6905.9109
6905.8676
6905.8131
6905.7444
6905.6578
6905.5484
6905.4101
6905.2353
6905.0145
6904.736
6904.3852
6903.9446
6903.393
6902.7054
6901.8523
6900.7993
6899.5063
6897.9271
6896.0086
6893.6904
6890.9037
6887.5704
6883.6027
6878.9021
6873.3588
6866.8509
6859.2442
6850.3906
6840.1304
6828.2861
6814.6673
6799.0695
6781.2713
6761.0305
6738.0881
6712.1599
6682.9418
6650.1039
6613.2981
6572.1452
6526.2459
6475.2232
6418.9287
6354.7334
6915.3846
6915.3846
6915.3845
6915.3842
6915.3838
6915.3831
6915.3823
6915.3811
6915.3795
6915.3775
6915.3749
6915.3717
6915.3675
6915.3624
6915.3559
6915.3477
6915.3375
6915.3246
6915.3085
6915.2882
6915.2626
6915.2305
6915.1899
6915.1386
6915.0736
6914.9914
6914.8871
6914.755
6914.5876
6914.3757
6914.1081
6913.7707
6913.3465
6912.8155
6912.1535
6911.3319
6910.3176
6909.0719
6907.55
6905.7012
6903.4672
6900.7821
6897.5712
6893.7499
6889.2231
6883.8847
6877.6166
6870.2893
6861.762
6851.8781
6840.468
6827.3493
6812.3226
6795.1719
6775.6635
6753.5437
6728.5369
6700.3472
6668.6544
6633.1209
6593.3788
6549.0399
6499.7502
6445.4184
6383.1808
6925.2332
6925.2332
6925.2332
6925.2329
6925.2326
6925.232
6925.2312
6925.2302
6925.2288
6925.2271
6925.2248
6925.2219
6925.2183
6925.2137
6925.2079
6925.2006
6925.1914
6925.1798
6925.1651
6925.1467
6925.1233
6925.0936
6925.056
6925.0082
6924.9475
6924.8701
6924.7716
6924.6463
6924.4871
6924.2852
6924.0296
6923.7072
6923.3017
6922.7936
6922.1599
6921.3731
6920.4012
6919.207
6917.7475
6915.9739
6913.8307
6911.2548
6908.1745
6904.5086
6900.1657
6895.0436
6889.0292
6881.9996
6873.8177
6864.3342
6853.3879
6840.8004
6826.3805
6809.9182
6791.1875
6769.9417
6745.9134
6718.8156
6688.3377
6654.1528
6615.9044
6573.2156
6525.7552
6473.4995
6413.3191
6935.6404
6935.6404
6935.6403
6935.6402
6935.6399
6935.6394
6935.6387
6935.6378
6935.6366
6935.6351
6935.6331
6935.6305
6935.6273
6935.6232
6935.618
6935.6114
6935.6031
6935.5925
6935.5792
6935.5623
6935.5409
6935.5136
6935.4787
6935.4343
6935.3774
6935.3048
6935.2121
6935.0938
6934.9431
6934.7517
6934.5093
6934.203
6933.8176
6933.3344
6932.7314
6931.9822
6931.0562
6929.9175
6928.5253
6926.8328
6924.787
6922.3275
6919.3858
6915.8844
6911.7361
6906.843
6901.0987
6894.3845
6886.5689
6877.5124
6867.0571
6855.0335
6841.2565
6825.525
6807.6188
6787.2998
6764.3091
6738.3686
6709.1773
6676.4189
6639.7489
6598.8007
6553.2668
6503.2019
6445.1794
6946.6187
6946.6188
6946.6187
6946.6186
6946.6183
6946.6179
6946.6173
6946.6164
6946.6153
6946.6139
6946.6121
6946.6097
6946.6067
6946.6029
6946.5981
6946.592
6946.5843
6946.5745
6946.5621
6946.5463
6946.5263
6946.5007
6946.4681
6946.4263
6946.3728
6946.3044
6946.217
6946.1054
6945.9633
6945.7827
6945.5538
6945.2647
6944.9007
6944.4442
6943.874
6943.165
6942.288
6941.2087
6939.8881
6938.2819
6936.3394
6934.0034
6931.2088
6927.8819
6923.9397
6919.2906
6913.8327
6907.4517
6900.0264
6891.421
6881.4855
6870.0591
6856.9636
6842.0051
6824.9721
6805.6345
6783.7423
6759.0265
6731.1956
6699.9439
6664.9382
6625.8224
6582.3129
6534.5536
6478.7951
6958.1736
6958.1736
6958.1736
6958.1734
6958.1731
6958.1727
6958.1722
6958.1714
6958.1703
6958.1689
6958.1671
6958.1648
6958.1619
6958.1582
6958.1535
6958.1476
6958.1402
6958.1307
6958.1188
6958.1037
6958.0845
6958.0601
6958.029
6957.9893
6957.9386
6957.8739
6957.7915
6957.6864
6957.5527
6957.383
6957.1683
6956.8972
6956.5558
6956.1274
6955.5918
6954.9253
6954.0999
6953.0833
6951.8385
6950.3234
6948.4903
6946.285
6943.6463
6940.5044
6936.7815
6932.3913
6927.2354
6921.2085
6914.1957
6906.0669
6896.6821
6885.8866
6873.5109
6859.3699
6843.2601
6824.9603
6804.2295
6780.8083
6754.4142
6724.7515
6691.4982
6654.308
6612.9219
6567.5838
6514.2013
6970.3022
6970.3022
6970.3021
6970.302
6970.3017
6970.3013
6970.3007
6970.2999
6970.2988
6970.2974
6970.2956
6970.2933
6970.2904
6970.2867
6970.2821
6970.2762
6970.2689
6970.2596
6970.2479
6970.2332
6970.2146
6970.191
6970.1612
6970.1233
6970.0752
6970.0141
6969.9364
6969.8378
6969.7129
6969.5548
6969.3549
6969.1026
6968.7849
6968.3861
6967.8869
6967.2649
6966.4937
6965.5428
6964.3774
6962.9582
6961.2405
6959.1736
6956.6999
6953.7543
6950.2644
6946.1466
6941.3106
6935.6589
6929.0808
6921.4559
6912.6518
6902.5222
6890.9064
6877.6283
6862.4935
6845.2898
6825.7858
6803.7315
6778.8535
6750.8652
6719.4549
6684.2855
6645.1253
6602.329
6551.4338
6982.9971
6982.9971
6982.997
6982.9969
6982.9966
6982.9961
6982.9955
6982.9947
6982.9936
6982.9922
6982.9904
6982.9882
6982.9853
6982.9816
6982.977
6982.9713
6982.9641
6982.955
6982.9437
6982.9294
6982.9115
6982.889
6982.8606
6982.8248
6982.7795
6982.7223
6982.65
6982.5586
6982.4431
6982.2972
6982.1131
6981.8808
6981.5881
6981.2202
6980.7591
6980.1835
6979.4688
6978.5864
6977.5043
6976.1858
6974.5897
6972.6688
6970.3697
6967.6324
6964.387
6960.557
6956.0601
6950.803
6944.6834
6937.5896
6929.3976
6919.9701
6909.1554
6896.7869
6882.6804
6866.6333
6848.4238
6827.8118
6804.5327
6778.3082
6748.8354
6715.7846
6678.9566
6638.8329
6590.5354
6996.25
6996.25
6996.2499
6996.2497
6996.2495
6996.249
6996.2484
6996.2477
6996.2466
6996.2453
6996.2435
6996.2414
6996.2386
6996.2351
6996.2308
6996.2253
6996.2185
6996.2099
6996.1993
6996.1859
6996.1691
6996.1481
6996.1218
6996.0887
6996.047
6995.9945
6995.9283
6995.845
6995.74
6995.6075
6995.4403
6995.2293
6994.9629
6994.6274
6994.2058
6993.6785
6993.0224
6992.2116
6991.2165
6990.0037
6988.5355
6986.7685
6984.654
6982.1348
6979.147
6975.6216
6971.4808
6966.6386
6961.002
6954.4673
6946.9197
6938.2312
6928.2599
6916.8494
6903.8261
6888.9982
6872.1539
6853.063
6831.47
6807.1041
6779.6695
6748.8395
6714.4425
6677.1021
6631.6065
7010.0528
7010.0528
7010.0528
7010.0526
7010.0523
7010.052
7010.0514
7010.0507
7010.0498
7010.0486
7010.0471
7010.0451
7010.0426
7010.0395
7010.0357
7010.0308
7010.0247
7010.0171
7010.0076
7009.9956
7009.9807
7009.962
7009.9386
7009.9091
7009.872
7009.8253
7009.7666
7009.6926
7009.5993
7009.4814
7009.3323
7009.1436
7008.9046
7008.6025
7008.2217
7007.7442
7007.149
7006.4127
7005.5087
7004.407
7003.0731
7001.4682
6999.5469
6997.2565
6994.5403
6991.3342
6987.5668
6983.1612
6978.032
6972.0851
6965.2147
6957.3031
6948.2187
6937.8159
6925.9325
6912.3887
6896.9834
6879.4966
6859.682
6837.2767
6811.9905
6783.4868
6751.5974
6717.2346
6674.6759
7024.401
7024.401
7024.4009
7024.4008
7024.4006
7024.4002
7024.3998
7024.3992
7024.3985
7024.3975
7024.3962
7024.3946
7024.3926
7024.39
7024.3868
7024.3828
7024.3778
7024.3715
7024.3636
7024.3536
7024.3412
7024.3254
7024.3056
7024.2806
7024.2491
7024.2092
7024.1588
7024.0951
7024.0144
7023.912
7023.7818
7023.6161
7023.4051
7023.1371
7022.7981
7022.3719
7021.84
7021.1814
7020.3729
7019.3874
7018.1947
7016.7595
7015.0397
7012.9898
7010.5577
7007.6854
7004.3098
7000.362
6995.7655
6990.4354
6984.2758
6977.1795
6969.0264
6959.6823
6948.9976
6936.8052
6922.9164
6907.1216
6889.1846
6868.8502
6845.8275
6819.7482
6790.4864
6759.2746
6719.7899
7039.2888
7039.2888
7039.2887
7039.2886
7039.2885
7039.2882
7039.2879
7039.2875
7039.2869
7039.2862
7039.2853
7039.2841
7039.2827
7039.2808
7039.2785
7039.2755
7039.2718
7039.2671
7039.2611
7039.2536
7039.244
7039.2318
7039.2162
7039.1964
7039.171
7039.1385
7039.0971
7039.0441
7038.9764
7038.8896
7038.7784
7038.6356
7038.4528
7038.2193
7037.9229
7037.5497
7037.0834
7036.5062
7035.7975
7034.934
7033.8889
7032.6299
7031.1212
7029.3221
7027.1861
7024.6629
7021.6973
7018.229
7014.1907
7009.5067
7004.0918
6997.85
6990.6732
6982.4402
6973.0146
6962.2437
6949.9527
6935.9441
6919.9919
6901.8455
6881.2077
6857.7093
6831.1539
6803.2675
6767.0897
7054.7117
7054.7117
7054.7117
7054.7116
7054.7115
7054.7113
7054.7111
7054.7109
7054.7105
7054.7101
7054.7095
7054.7088
7054.7079
7054.7068
7054.7053
7054.7034
7054.701
7054.698
7054.694
7054.6889
7054.6822
7054.6735
7054.6622
7054.6473
7054.628
7054.6027
7054.5699
7054.5272
7054.4719
7054.4002
7054.3073
7054.1871
7054.0322
7053.8337
7053.5811
7053.2627
7052.8649
7052.3725
7051.768
7051.0318
7050.1394
7049.064
7047.775
7046.2364
7044.4091
7042.2502
7039.713
7036.7461
7033.2913
7029.2832
7024.6471
7019.2992
7013.1445
7006.0759
6997.9719
6988.6953
6978.0875
6965.9647
6952.1108
6936.2787
6918.1911
6897.4203
6873.6959
6849.2935
6816.7209
7070.6589
7070.6589
7070.6588
7070.6588
7070.6587
7070.6586
7070.6585
7070.6584
7070.6582
7070.658
7070.6577
7070.6574
7070.6569
7070.6564
7070.6556
7070.6547
7070.6535
7070.6518
7070.6496
7070.6465
7070.6424
7070.6368
7070.6291
7070.6187
7070.6046
7070.5857
7070.5604
7070.527
7070.483
7070.4253
7070.35
7070.2519
7070.125
7069.9619
7069.7543
7069.4926
7069.1657
7068.7613
7068.2651
7067.66
7066.926
7066.0414
7064.9798
7063.7118
7062.2056
7060.4265
7058.3364
7055.8926
7053.0468
7049.7438
7045.9208
7041.5065
7036.4202
7030.5703
7023.8518
7016.1444
7007.3076
6997.1713
6985.5417
6972.182
6956.81
6938.9739
6918.2917
6897.5153
6868.7994
7087.1139
7087.1138
7087.1138
7087.1137
7087.1136
7087.1136
7087.1135
7087.1134
7087.1133
7087.1132
7087.1131
7087.113
7087.1128
7087.1125
7087.1122
7087.1118
7087.1112
7087.1104
7087.1092
7087.1074
7087.1049
7087.1013
7087.0961
7087.0887
7087.0785
7087.0644
7087.0452
7087.0196
7086.9856
7086.9408
7086.8821
7086.8057
7086.7067
7086.5794
7086.4177
7086.2141
7085.9603
7085.6468
7085.2618
7084.7919
7084.222
7083.5343
7082.7082
7081.7211
7080.549
7079.1654
7077.541
7075.6421
7073.4303
7070.8617
7067.8857
7064.4449
7060.4735
7055.8967
7050.6276
7044.5626
7037.5862
7029.5518
7020.2834
7009.5603
6997.1163
6982.4817
6965.1957
6948.1867
6923.3231
7104.0466
7104.0465
7104.0464
7104.0463
7104.0462
7104.0461
7104.046
7104.0459
7104.0458
7104.0457
7104.0455
7104.0454
7104.0452
7104.0451
7104.0449
7104.0446
7104.0441
7104.0435
7104.0427
7104.0415
7104.0397
7104.037
7104.0332
7104.0277
7104.0201
7104.0095
7103.9953
7103.9763
7103.9513
7103.9186
7103.8762
7103.8213
7103.7505
7103.6598
7103.5448
7103.4009
7103.2223
7103.0017
7102.7306
7102.4002
7101.9991
7101.5143
7100.9317
7100.2358
7099.4105
7098.4379
7097.2973
7095.9643
7094.4109
7092.6049
7090.5086
7088.0785
7085.2675
7082.0182
7078.2635
7073.9222
7068.8996
7063.0767
7056.314
7048.4225
7039.1603
7028.0682
7014.6812
7001.3688
6980.6514
7121.4216
7121.4215
7121.4213
7121.4212
7121.4211
7121.4209
7121.4207
7121.4205
7121.4203
7121.4201
7121.4198
7121.4195
7121.4191
7121.4187
7121.4183
7121.4178
7121.4172
7121.4164
7121.4154
7121.414
7121.4122
7121.4097
7121.4063
7121.4017
7121.3954
7121.3873
7121.3767
7121.3633
7121.3464
7121.3252
7121.2987
7121.2654
7121.2236
7121.17
7121.1028
7121.0196
7120.9171
7120.7909
7120.6371
7120.4499
7120.2222
7119.9467
7119.6158
7119.2216
7118.7559
7118.2092
7117.5696
7116.8225
7115.9513
7114.9362
7113.7528
7112.3743
7110.7703
7108.9039
7106.7291
7104.1879
7101.2151
7097.721
7093.6033
7088.7294
7082.9093
7075.7816
7066.9522
7057.9039
7042.3217
7139.9788
7139.9787
7139.9784
7139.9782
7139.9779
7139.9776
7139.9773
7139.9769
7139.9765
7139.976
7139.9755
7139.9749
7139.9741
7139.9733
7139.9724
7139.9713
7139.97
7139.9684
7139.9666
7139.9644
7139.9618
7139.9585
7139.9546
7139.9499
7139.9442
7139.9376
7139.9301
7139.9216
7139.9123
7139.9022
7139.8914
7139.8797
7139.8669
7139.8527
7139.8371
7139.8198
7139.8003
7139.7783
7139.7525
7139.7213
7139.6831
7139.6366
7139.5814
7139.5173
7139.4439
7139.3609
7139.2658
7139.1547
7139.0229
7138.8642
7138.6709
7138.4337
7138.1414
7137.7789
7137.3243
7136.7478
7136.0124
7135.0698
7133.8593
7132.3095
7130.3176
7127.681
7124.4089
7121.4137
7115.6929
7159.5017
7159.5015
7159.5012
7159.5009
7159.5006
7159.5002
7159.4997
7159.4992
7159.4986
7159.4979
7159.4971
7159.4962
7159.4952
7159.4939
7159.4925
7159.4908
7159.4889
7159.4866
7159.484
7159.4809
7159.4774
7159.4734
7159.469
7159.4642
7159.4593
7159.4545
7159.4503
7159.4474
7159.4467
7159.4492
7159.4559
7159.4683
7159.4879
7159.5161
7159.5553
7159.6086
7159.6793
7159.7693
7159.88
7160.0153
7160.1793
7160.3774
7160.6165
7160.9048
7161.2504
7161.6618
7162.1467
7162.713
7163.3689
7164.1236
7164.987
7165.9691
7167.0788
7168.3242
7169.7099
7171.2376
7172.9039
7174.7036
7176.6259
7178.6663
7180.8186
7183.0553
7185.5917
7188.8612
7191.3269
7178.9862
7178.986
7178.9857
7178.9853
7178.985
7178.9845
7178.984
7178.9835
7178.9828
7178.9821
7178.9813
7178.9803
7178.9792
7178.978
7178.9766
7178.9749
7178.973
7178.9709
7178.9685
7178.9657
7178.9627
7178.9595
7178.9562
7178.9532
7178.9507
7178.9495
7178.9505
7178.9548
7178.9641
7178.9802
7179.0053
7179.0418
7179.0924
7179.1615
7179.254
7179.3749
7179.5303
7179.7263
7179.97
7180.2694
7180.6343
7181.0765
7181.6103
7182.2511
7183.0157
7183.9217
7184.9872
7186.232
7187.6783
7189.351
7191.2774
7193.4869
7196.0096
7198.8764
7202.1191
7205.7712
7209.8657
7214.4405
7219.5369
7225.2126
7231.5354
7238.6066
7246.674
7255.9989
7266.4177
7198.3491
7198.3488
7198.3485
7198.3482
7198.3478
7198.3474
7198.3469
7198.3464
7198.3459
7198.3453
7198.3446
7198.3438
7198.3429
7198.342
7198.3409
7198.3397
7198.3384
7198.3369
7198.3353
7198.3336
7198.332
7198.3304
7198.3293
7198.3289
7198.3299
7198.3333
7198.3403
7198.3524
7198.3718
7198.4011
7198.4436
7198.5031
7198.5847
7198.6946
7198.8391
7199.0261
7199.2652
7199.5664
7199.941
7200.4025
7200.9663
7201.6509
7202.4774
7203.4689
7204.6502
7206.048
7207.6912
7209.6121
7211.8469
7214.4364
7217.4253
7220.8624
7224.799
7229.2893
7234.3922
7240.1729
7246.7011
7254.0568
7262.3304
7271.636
7282.1063
7293.9302
7307.3964
7322.8441
7340.7593
7217.4983
7217.4981
7217.4977
7217.4974
7217.4971
7217.4967
7217.4964
7217.496
7217.4956
7217.4952
7217.4948
7217.4944
7217.494
7217.4936
7217.4932
7217.4928
7217.4925
7217.4922
7217.4921
7217.4923
7217.4928
7217.4939
7217.4959
7217.4993
7217.505
7217.5141
7217.528
7217.5491
7217.5799
7217.624
7217.6856
7217.7701
7217.8842
7218.0348
7218.2311
7218.4844
7218.8069
7219.2125
7219.717
7220.3391
7221.1003
7222.0253
7223.1421
7224.4809
7226.0747
7227.9595
7230.1754
7232.7671
7235.7854
7239.2865
7243.3322
7247.9901
7253.3327
7259.4387
7266.3937
7274.2937
7283.2441
7293.3652
7304.7941
7317.6984
7332.2746
7348.7848
7367.5822
7389.1166
7414.0559
7236.3603
7236.3601
7236.3598
7236.3595
7236.3593
7236.359
7236.3588
7236.3586
7236.3585
7236.3584
7236.3584
7236.3584
7236.3586
7236.3588
7236.3593
7236.3599
7236.3608
7236.362
7236.3637
7236.3659
7236.3689
7236.373
7236.3786
7236.3864
7236.3974
7236.413
7236.435
7236.4663
7236.51
7236.5705
7236.6531
7236.7642
7236.9112
7237.1036
7237.3528
7237.6725
7238.0782
7238.5876