/*--------------------------------*- C++ -*----------------------------------*\
  =========                 |
  \\      /  F ield         | OpenFOAM: The Open Source CFD Toolbox
   \\    /   O peration     | Website:  https://openfoam.org
    \\  /    A nd           | Version:  13
     \\/     M anipulation  |
\*---------------------------------------------------------------------------*/
FoamFile
{
    format      ascii;
    class       volVectorField;
    location    "45.697648";
    object      U;
}
// * * * * * * * * * * * * * * * * * * * * * * * * * * * * * * * * * * * * * //

dimensions      [0 1 -1 0 0 0 0];

internalField   nonuniform List<vector> 
17140
(
(1.145067e-06 -9.1080744e-05 3.0101469e-23)
(2.0710041e-06 -0.00027881777 3.3341621e-24)
(9.6888285e-07 -0.00048522174 -2.1999333e-22)
(-2.8328455e-06 -0.00071563288 2.4174588e-22)
(-1.0136382e-05 -0.00097604053 -2.8246801e-23)
(-2.1988392e-05 -0.0012731229 9.2391296e-23)
(-3.9723889e-05 -0.0016142067 1.5543244e-22)
(-6.5006746e-05 -0.0020072189 -7.5796043e-23)
(-9.9913013e-05 -0.0024606158 -2.4782958e-22)
(-0.00014701626 -0.0029832534 -6.0700217e-22)
(-0.00020949485 -0.0035842025 8.9842766e-22)
(-0.00029125185 -0.004272491 -7.9892253e-22)
(-0.00039705652 -0.0050567604 -1.2202749e-22)
(-0.00053270312 -0.0059448227 6.873868e-22)
(-0.00070518949 -0.006943102 -7.6068146e-23)
(-0.0009229116 -0.0080559513 5.9923258e-22)
(-0.0011958706 -0.0092848393 -2.216459e-23)
(-0.0015358843 -0.010627408 4.9322373e-24)
(-0.0019567914 -0.012076426 3.4666477e-22)
(-0.0024746298 -0.013618666 -4.4457296e-22)
(-0.0031077659 -0.015233794 2.1135243e-22)
(-0.0038769389 -0.016893365 -3.958542e-23)
(-0.0048051769 -0.018560082 -2.8802618e-22)
(-0.0059175294 -0.020187541 2.8089894e-22)
(-0.0072405464 -0.021720705 4.3842708e-22)
(-0.0088014265 -0.023097436 -3.4436933e-22)
(-0.010626749 -0.024251423 -1.6500253e-21)
(-0.012740712 -0.025116877 -1.8993517e-22)
(-0.01516285 -0.025635344 1.6265274e-21)
(-0.017905314 -0.02576482 3.7056885e-22)
(-0.020970065 -0.025490718 1.2867795e-21)
(-0.024346773 -0.024836464 -1.6430209e-21)
(-0.028012669 -0.023868032 4.1260923e-22)
(-0.031935638 -0.022684483 1.8820891e-22)
(-0.036080446 -0.021392467 1.7861396e-21)
(-0.040415724 -0.020077206 -7.4615672e-22)
(-0.044918191 -0.018787933 1.0677606e-21)
(-0.049572952 -0.017541204 6.8988292e-22)
(-0.054372257 -0.016331158 3.0495992e-22)
(-0.059315372 -0.015136539 -8.9549422e-22)
(-0.064410779 -0.013921648 -1.6557916e-21)
(-0.069678845 -0.012631342 -1.4861564e-21)
(-0.075158883 -0.011181729 -6.4772359e-22)
(-0.080919727 -0.0094447701 3.1672457e-21)
(-0.087057267 -0.0072346647 2.335721e-21)
(-0.093707589 -0.0042948317 -5.8248336e-22)
(-0.10105259 -0.0002592965 3.983857e-21)
(-0.10931169 0.0053781071 1.3676567e-21)
(-0.11873121 0.0133206 -1.4048423e-21)
(-0.12955194 0.024555209 -3.449483e-21)
(-0.14192168 0.040456899 2.1318492e-21)
(-0.15577697 0.062957082 1.3393967e-21)
(-0.17067362 0.094526491 -3.4732594e-21)
(-0.18553226 0.13758638 -1.6192779e-21)
(-0.19757422 0.19272155 -1.1468471e-21)
(-0.20310457 0.25694057 8.8520323e-22)
(-0.19746609 0.31987863 -2.3688854e-21)
(-0.17908738 0.36133452 -2.0480555e-21)
(-0.15076579 0.35524585 -5.6448436e-22)
(-0.10732584 0.21727024 1.7477075e-21)
(0.054010753 -0.098475495 1.2559428e-21)
(0.24243016 -0.42394644 3.3847428e-21)
(0.38508936 -0.55350575 2.6584326e-22)
(0.41962378 -0.5511098 -1.2871321e-21)
(0.38616434 -0.43455135 1.0218433e-21)
(2.3972482e-06 -6.0706133e-05 -8.5328537e-24)
(5.8852164e-06 -0.00018476195 1.1493347e-21)
(7.7084854e-06 -0.00032079449 -1.0224541e-21)
(7.1858931e-06 -0.00047349064 2.7860841e-22)
(3.6837304e-06 -0.00064820514 5.7528145e-22)
(-3.4764922e-06 -0.00085084939 -1.0985997e-21)
(-1.5596832e-05 -0.0010879761 1.1442715e-21)
(-3.4118881e-05 -0.0013667183 -1.0061293e-22)
(-6.083975e-05 -0.00169472 3.1374675e-22)
(-9.8101538e-05 -0.0020800228 5.3081556e-24)
(-0.00014881337 -0.0025308985 1.044032e-21)
(-0.00021661358 -0.0030556187 -1.6548818e-21)
(-0.0003060059 -0.0036621424 -1.3633665e-22)
(-0.00042253482 -0.0043577127 1.3403578e-21)
(-0.00057297658 -0.0051483472 -4.0963369e-22)
(-0.0007655517 -0.0060382134 -2.5845841e-22)
(-0.0010101528 -0.0070288846 1.6290011e-21)
(-0.0013185798 -0.0081184798 -5.2594934e-21)
(-0.0017047707 -0.009300707 3.2574702e-21)
(-0.0021850078 -0.01056385 -3.8527847e-21)
(-0.0027780734 -0.011889767 5.6079064e-21)
(-0.0035053178 -0.013253007 -1.3508944e-21)
(-0.0043905905 -0.014620195 -5.4698579e-22)
(-0.0054599758 -0.015949896 1.7514112e-21)
(-0.0067412556 -0.0171932 -6.1688516e-21)
(-0.0082630168 -0.018295333 -9.0015625e-22)
(-0.010053309 -0.019198609 4.5671871e-21)
(-0.012137774 -0.019847048 -5.0074544e-21)
(-0.014537202 -0.020192875 6.7086642e-22)
(-0.017264612 -0.020204901 6.4400253e-21)
(-0.020322209 -0.019878039 -6.5391356e-22)
(-0.023699022 -0.019241493 -4.8553051e-21)
(-0.02737061 -0.018360363 -1.1823243e-22)
(-0.031302245 -0.017324409 3.3726433e-21)
(-0.035455589 -0.016224052 -3.6038544e-21)
(-0.039796166 -0.015125996 1.5490401e-21)
(-0.044297868 -0.014063328 -1.7358893e-21)
(-0.04894332 -0.013040702 -5.2943654e-21)
(-0.053722392 -0.012043748 -1.1436273e-21)
(-0.058631747 -0.011044321 -4.3400415e-21)
(-0.063676419 -0.010000105 5.4727116e-21)
(-0.068871709 -0.0088482358 4.983517e-21)
(-0.074249402 -0.0074952406 8.5550174e-22)
(-0.079867176 -0.0058027552 -6.8457589e-21)
(-0.085805334 -0.0035748545 3.235417e-21)
(-0.092175917 -0.0005447263 1.1338778e-21)
(-0.099126673 0.0036614386 -6.5697599e-22)
(-0.10683072 0.0095510057 -1.9499725e-21)
(-0.11546924 0.017815504 9.7093481e-22)
(-0.12520067 0.029408072 -1.6839774e-21)
(-0.13606058 0.045630051 -1.0442585e-20)
(-0.14786528 0.068308467 -5.3445752e-22)
(-0.16017468 0.099740299 2.2948346e-21)
(-0.17179841 0.14192286 -4.826811e-21)
(-0.17951889 0.195101 4.1582849e-21)
(-0.17972092 0.25620827 -1.1631332e-20)
(-0.16765912 0.31524682 -3.2877983e-21)
(-0.14190182 0.3534757 9.9592728e-21)
(-0.10208164 0.34279598 -1.8775508e-21)
(-0.023630832 0.1844279 -2.4763554e-21)
(0.16506714 -0.14928557 -5.175438e-22)
(0.34110461 -0.46829252 5.343568e-21)
(0.46396614 -0.5757518 -4.9965458e-21)
(0.47785229 -0.54600398 -6.1293654e-22)
(0.41118098 -0.43068704 -1.2990709e-21)
(2.0146262e-06 -3.0728806e-05 -4.6809347e-22)
(4.720376e-06 -9.1949018e-05 3.4586989e-22)
(5.6852286e-06 -0.00015861462 9.1961194e-23)
(4.4240164e-06 -0.00023475577 -8.7157894e-23)
(3.8270863e-07 -0.00032498748 4.2217178e-22)
(-7.0399007e-06 -0.00043439165 3.139911e-23)
(-1.8779629e-05 -0.00056868762 4.0059276e-22)
(-3.6258255e-05 -0.00073426203 4.3124067e-22)
(-6.0987911e-05 -0.00093789511 -3.5198962e-21)
(-9.5057694e-05 -0.0011867623 3.1381892e-21)
(-0.0001411367 -0.0014882863 -1.4990462e-21)
(-0.00020258371 -0.0018499247 -2.1915689e-21)
(-0.00028362108 -0.0022788958 4.3336708e-21)
(-0.00038950626 -0.0027818133 5.3476819e-22)
(-0.00052673917 -0.0033642287 -2.0546868e-21)
(-0.00070328524 -0.0040300673 -1.4048665e-21)
(-0.00092882045 -0.0047809561 1.6184485e-21)
(-0.0012149858 -0.0056154486 -5.8112648e-21)
(-0.0015756395 -0.0065281643 3.4014279e-21)
(-0.0020270875 -0.0075088831 -1.663254e-21)
(-0.0025882616 -0.0085416603 5.5346958e-21)
(-0.0032808094 -0.0096040663 1.4200732e-21)
(-0.0041290404 -0.010666698 -2.9105492e-21)
(-0.0051596668 -0.011693158 4.304029e-21)
(-0.0064012562 -0.012640749 1.6625814e-21)
(-0.0078833083 -0.013462156 -1.9567199e-21)
(-0.0096348554 -0.014108425 -1.0910238e-20)
(-0.0116825 -0.014533487 -4.8423558e-21)
(-0.014047855 -0.014700363 2.367207e-21)
(-0.01674448 -0.014588841 -2.4900955e-21)
(-0.019774663 -0.014203572 1.517957e-21)
(-0.023126889 -0.013579913 8.4135845e-21)
(-0.026775462 -0.012782643 -2.7279048e-21)
(-0.030683755 -0.011892872 -7.8975108e-21)
(-0.034811025 -0.01098527 2.5321859e-21)
(-0.039120073 -0.010108155 3.3924647e-21)
(-0.043582001 -0.0092781501 -5.6122428e-21)
(-0.048176707 -0.0084874896 -1.6308641e-21)
(-0.052891113 -0.0077129909 2.8357239e-21)
(-0.057718444 -0.006920069 1.1234059e-21)
(-0.062659193 -0.0060599099 -5.2436231e-21)
(-0.067722157 -0.0050630799 1.44891e-21)
(-0.072929769 -0.0038279535 2.1468245e-21)
(-0.078326067 -0.0022076494 5.7814559e-21)
(-0.08397143 7.6690865e-07 -1.1101814e-20)
(-0.089950011 0.0030724101 7.235365e-21)
(-0.096370495 0.0073836343 1.8106759e-21)
(-0.10335117 0.013438315 7.4065658e-21)
(-0.11099897 0.021911328 8.9799359e-21)
(-0.11937981 0.033714907 4.8260215e-22)
(-0.12839765 0.050072028 -1.7341492e-21)
(-0.13773433 0.072756067 1.414305e-20)
(-0.14704861 0.10379526 6.0345941e-21)
(-0.15445213 0.14481637 6.2764049e-21)
(-0.15662964 0.1957063 1.9549357e-21)
(-0.14992309 0.2534243 1.5664864e-20)
(-0.1289158 0.30835468 -6.1274133e-21)
(-0.089581518 0.34279089 2.2642759e-21)
(-0.030637407 0.32330637 1.9811517e-20)
(0.098857442 0.14778354 9.738681e-21)
(0.29347692 -0.19373033 -1.1796343e-20)
(0.45474945 -0.50232925 -2.7194325e-20)
(0.54966539 -0.5879289 4.3223207e-21)
(0.54178084 -0.53239841 3.3773903e-21)
(0.45374682 -0.41573896 9.8904622e-22)
(8.208857e-08 -1.7346148e-06 1.5610312e-21)
(-1.3240612e-06 -2.1726782e-06 -2.4833274e-21)
(-4.8643812e-06 -1.6585871e-06 8.9766362e-22)
(-1.0872064e-05 -3.5372439e-06 -9.7552698e-23)
(-1.976321e-05 -1.1683319e-05 1.9277318e-21)
(-3.2134408e-05 -3.0504185e-05 -1.9934274e-21)
(-4.8802001e-05 -6.4903589e-05 3.0219842e-21)
(-7.0846677e-05 -0.0001203145 -1.4205182e-21)
(-9.9693085e-05 -0.0002026372 -5.3957519e-21)
(-0.00013720145 -0.00031814856 1.2956986e-21)
(-0.00018577942 -0.0004733758 4.9274584e-21)
(-0.00024851475 -0.00067491501 -1.5012157e-21)
(-0.0003293324 -0.00092918552 -1.000155e-22)
(-0.0004331776 -0.0012421087 3.907853e-21)
(-0.00056622502 -0.0016187003 -1.2178958e-20)
(-0.00073611315 -0.0020625694 7.4424085e-21)
(-0.00095219996 -0.0025753206 7.0756123e-23)
(-0.0012258318 -0.0031558647 -4.0663181e-21)
(-0.0015706124 -0.0037996579 1.0243811e-20)
(-0.0020026515 -0.0044979054 -4.7892364e-21)
(-0.0025407636 -0.0052367956 -7.0697171e-21)
(-0.0032065751 -0.0059968644 -2.8288145e-21)
(-0.0040244868 -0.0067526316 1.3816688e-20)
(-0.0050214208 -0.0074727013 7.1240947e-21)
(-0.0062262692 -0.0081205549 -4.5411295e-21)
(-0.0076689496 -0.0086563089 2.6120878e-21)
(-0.009378966 -0.0090397096 -9.6463161e-21)
(-0.011383382 -0.0092345746 2.732251e-21)
(-0.013704183 -0.0092147291 -7.2674137e-21)
(-0.016355103 -0.0089710008 4.0422561e-21)
(-0.019338297 -0.0085180002 -2.4562511e-21)
(-0.022641743 -0.0078977573 8.8662482e-21)
(-0.026238829 -0.0071757142 -1.2403774e-21)
(-0.030091673 -0.0064256371 6.355873e-21)
(-0.034157859 -0.0057075555 -5.8724706e-21)
(-0.038397974 -0.0050517162 -1.8095926e-21)
(-0.042780515 -0.0044579722 2.1622355e-20)
(-0.047282517 -0.0039055942 5.4371493e-21)
(-0.05188781 -0.0033622729 -4.3551496e-21)
(-0.056585056 -0.0027866972 4.1761625e-21)
(-0.061368771 -0.0021244373 -1.0337523e-21)
(-0.066240393 -0.0013005269 -6.6222611e-21)
(-0.071211099 -0.00020679879 3.2016515e-22)
(-0.076308958 0.0013101958 2.2256797e-21)
(-0.081571961 0.0034580561 -1.0692269e-21)
(-0.087051799 0.0065150298 4.8808154e-22)
(-0.092812832 0.010857562 1.561426e-21)
(-0.098911824 0.016980353 -2.5403222e-20)
(-0.10537213 0.025536323 2.798872e-21)
(-0.11215527 0.037387391 -2.6579455e-21)
(-0.11899277 0.053680333 2.4929661e-20)
(-0.12547855 0.076150152 -1.3730472e-20)
(-0.13105812 0.10651499 -1.1052258e-20)
(-0.13314866 0.14598608 -1.0480496e-20)
(-0.12844214 0.19424192 -9.9682252e-21)
(-0.11275765 0.24817834 -1.5796432e-20)
(-0.079845376 0.2981351 3.2216777e-20)
(-0.022510198 0.32787655 -2.1448283e-20)
(0.064358058 0.29594187 -3.8553688e-20)
(0.23479607 0.1086858 3.6701139e-20)
(0.43056418 -0.2294899 1.119699e-20)
(0.57714286 -0.52437838 5.7085871e-21)
(0.6390689 -0.59065709 -1.7231348e-20)
(0.60884469 -0.51193184 -5.2254854e-21)
(0.50563654 -0.38954671 -1.5550594e-22)
(-3.3382565e-06 2.58306e-05 -1.0947933e-21)
(-1.2017779e-05 8.3140217e-05 3.6341448e-21)
(-2.3415043e-05 0.0001474731 -2.9620648e-21)
(-3.7925903e-05 0.00021614937 1.1190769e-21)
(-5.5851493e-05 0.00028604868 4.0417157e-22)
(-7.7700571e-05 0.00035356403 -3.4763594e-21)
(-0.00010417469 0.00041460399 8.7994808e-22)
(-0.0001362129 0.00046461203 1.8674084e-21)
(-0.0001750696 0.00049860453 1.43185e-22)
(-0.0002224048 0.00051124111 1.2152553e-21)
(-0.00028039386 0.00049693282 -1.6995779e-21)
(-0.00035185901 0.00044999863 1.1796052e-21)
(-0.00044042635 0.00036487869 4.3385015e-21)
(-0.00055070964 0.00023641494 1.2632967e-22)
(-0.00068852198 6.0207377e-05 -3.2988601e-21)
(-0.00086111458 -0.0001669467 -2.3284902e-21)
(-0.0010774387 -0.00044652927 1.9951902e-21)
(-0.0013484236 -0.0007776995 -1.9064865e-22)
(-0.0016872565 -0.0011566316 -3.8464262e-21)
(-0.0021096452 -0.0015758298 -4.6515872e-21)
(-0.0026340292 -0.002023481 5.2618263e-21)
(-0.0032817019 -0.002482945 5.2452433e-21)
(-0.0040767973 -0.00293252 -6.9824855e-21)
(-0.0050460381 -0.0033456578 8.5365572e-21)
(-0.0062181697 -0.0036918581 1.4603245e-20)
(-0.0076230176 -0.0039385016 -3.3966296e-20)
(-0.0092900245 -0.0040538607 1.8446781e-20)
(-0.011246202 -0.0040114727 -2.6937754e-20)
(-0.013513399 -0.0037958287 3.3160963e-20)
(-0.016105063 -0.0034087767 -3.6428275e-20)
(-0.019022936 -0.0028751311 3.6995692e-20)
(-0.022254518 -0.002244329 -6.089918e-21)
(-0.025772715 -0.0015837998 -2.0523608e-20)
(-0.029538833 -0.00096170254 1.120477e-20)
(-0.033509197 -0.00042502999 -3.364572e-21)
(-0.037642864 1.3213634e-05 -9.5287652e-22)
(-0.041906266 0.00037009776 -1.1217152e-20)
(-0.046273534 0.00067990624 -3.5394791e-21)
(-0.050724638 0.00098458088 -3.3887582e-21)
(-0.055243455 0.0013324554 -3.3134875e-21)
(-0.059817879 0.0017827162 1.6519348e-20)
(-0.064440324 0.002414883 -7.1799285e-21)
(-0.069109195 0.0033418662 -1.1340884e-21)
(-0.073834539 0.0047211875 1.3220257e-20)
(-0.07862933 0.006762464 6.7723637e-21)
(-0.083509493 0.0097438988 -3.4255578e-21)
(-0.08849056 0.014036827 -1.2292469e-20)
(-0.093560902 0.020121272 5.5264651e-21)
(-0.098651997 0.028622184 -1.5767591e-20)
(-0.10360444 0.040338802 -8.529062e-21)
(-0.10793801 0.056366528 -1.1852927e-20)
(-0.11126259 0.078309846 -3.0918409e-20)
(-0.11213646 0.10761769 2.3990982e-20)
(-0.10809134 0.14509615 -7.5252953e-21)
(-0.095079704 0.19027226 1.3133823e-20)
(-0.068507994 0.23988577 1.2616022e-20)
(-0.020076034 0.28399028 4.9016984e-21)
(0.057106446 0.30713597 5.0773602e-20)
(0.17785958 0.26333339 1.6303016e-20)
(0.36889376 0.069589562 -4.6664423e-20)
(0.56871026 -0.25757065 -1.7579289e-20)
(0.70175527 -0.53419109 7.8635503e-21)
(0.72826142 -0.58209864 8.0385294e-21)
(0.67240581 -0.48492273 5.5832936e-21)
(0.56066166 -0.35532849 -1.4712909e-23)
(-8.1366493e-06 5.1493893e-05 -3.3231018e-21)
(-2.6870905e-05 0.00016255755 -1.1727361e-21)
(-4.9265863e-05 0.00028630478 9.4925341e-22)
(-7.5689052e-05 0.00042072636 3.5044448e-21)
(-0.00010640703 0.0005634312 -1.919515e-21)
(-0.00014186785 0.00071159696 2.7616946e-21)
(-0.00018268905 0.00086197091 -1.1944007e-21)
(-0.00022970073 0.0010108843 -2.8435237e-22)
(-0.00028401893 0.0011542824 1.6081905e-21)
(-0.0003471322 0.0012877823 3.4632287e-21)
(-0.00042100774 0.0014067641 1.7391512e-22)
(-0.00050821954 0.0015065039 -5.6807726e-21)
(-0.00061210225 0.0015823564 7.8481477e-21)
(-0.00073693254 0.0016299959 -1.2650858e-20)
(-0.00088813924 0.0016457233 3.2991585e-21)
(-0.0010725417 0.0016268447 -6.9930853e-21)
(-0.001298613 0.0015721214 8.4294015e-21)
(-0.0015767614 0.0014822862 -5.4562547e-21)
(-0.0019196151 0.0013606068 8.5770874e-22)
(-0.0023422931 0.0012134605 3.4650512e-21)
(-0.0028626293 0.0010508597 -8.377889e-21)
(-0.0035013064 0.00088683705 1.1747516e-20)
(-0.0042818291 0.00073955762 -1.2687863e-20)
(-0.0052302959 0.0006309836 -2.1627197e-21)
(-0.0063748654 0.00058587347 2.1052905e-20)
(-0.0077447809 0.00062987953 -2.1097874e-20)
(-0.0093688882 0.00078651257 1.3597329e-20)
(-0.01127354 0.0010728294 -1.5116344e-20)
(-0.013479895 0.0014939655 -1.4213588e-21)
(-0.016000698 0.0020372072 -8.8272605e-22)
(-0.01883695 0.002667385 5.7812425e-21)
(-0.021975461 0.0033269041 -3.8350901e-22)
(-0.025388606 0.0039447968 2.1013925e-20)
(-0.029037454 0.0044562249 -5.5263816e-21)
(-0.032878077 0.0048249154 -1.6005104e-20)
(-0.036868616 0.0050537307 7.1980256e-21)
(-0.040973664 0.0051766503 -5.6878622e-21)
(-0.045164514 0.0052422 5.4748543e-21)
(-0.049417101 0.0053025894 2.9708108e-20)
(-0.053709918 0.0054129237 -1.6001839e-20)
(-0.05802348 0.0056371365 -3.873645e-21)
(-0.062340224 0.0060581776 2.1639848e-20)
(-0.06664454 0.0067917192 -1.2559788e-21)
(-0.070926577 0.0079969811 -2.6664481e-21)
(-0.075172105 0.0098825754 -2.8811631e-20)
(-0.079358578 0.012722768 -6.755719e-21)
(-0.083448969 0.016878724 1.0638882e-20)
(-0.087356839 0.022809676 1.0957525e-20)
(-0.090914883 0.031104277 1.5544932e-20)
(-0.093814553 0.042487252 1.8939628e-20)
(-0.095374454 0.058005968 1.1318214e-20)
(-0.095100602 0.079065604 1.8045366e-20)
(-0.090667532 0.10686972 -6.1423803e-21)
(-0.079709791 0.14186521 3.6838257e-20)
(-0.057223351 0.18336284 2.1577643e-21)
(-0.018116842 0.22781965 2.0165936e-21)
(0.048329142 0.26549978 9.248025e-22)
(0.14664876 0.28028662 -5.4984937e-20)
(0.29600067 0.22727942 -2.6537409e-20)
(0.49491574 0.031911505 4.9476011e-20)
(0.70384417 -0.27938904 6.962429e-20)
(0.82237886 -0.53220229 2.1768534e-20)
(0.81216708 -0.56223753 3.3853549e-21)
(0.72814318 -0.45331329 -6.7693051e-21)
(0.6158152 -0.31712461 -2.7661061e-22)
(-1.4107201e-05 7.4826794e-05 6.2543675e-22)
(-4.5326967e-05 0.00023476532 1.9874382e-21)
(-8.1402576e-05 0.00041255517 -4.7962639e-21)
(-0.00012269377 0.00060683824 1.7823929e-22)
(-0.00016946569 0.00081593547 2.3344107e-21)
(-0.00022213978 0.0010377954 1.0286669e-21)
(-0.00028128492 0.0012699946 7.5935047e-22)
(-0.00034765785 0.0015097477 -1.4958323e-21)
(-0.00042227167 0.0017539309 7.7404294e-21)
(-0.00050647759 0.0019991293 -5.8376826e-21)
(-0.00060206587 0.0022417127 2.8223066e-22)
(-0.00071138854 0.0024779465 3.5282263e-21)
(-0.00083750765 0.0027041469 -1.318604e-20)
(-0.00098437102 0.0029168845 1.3126469e-20)
(-0.001157017 0.0031132444 -1.7459932e-21)
(-0.0013618081 0.0032911473 -1.0784226e-20)
(-0.0016066902 0.0034497289 1.0119044e-20)
(-0.001901471 0.0035897732 -3.5279194e-21)
(-0.0022581046 0.0037141795 6.8312545e-21)
(-0.0026909622 0.003828428 -8.7322825e-21)
(-0.0032170584 0.0039409878 -1.6321438e-20)
(-0.0038561885 0.0040635771 1.6066249e-20)
(-0.0046309203 0.0042111508 2.3382819e-20)
(-0.0055663632 0.0044014459 -4.4761426e-20)
(-0.0066896268 0.0046538827 3.5581583e-20)
(-0.0080288609 0.004987589 -2.0451622e-20)
(-0.0096117729 0.0054183318 5.2189355e-21)
(-0.011463538 0.005954251 -1.2210628e-20)
(-0.013604091 0.0065905607 1.2356565e-20)
(-0.016044932 0.0073040251 1.645253e-20)
(-0.018785911 0.0080491088 -1.0786824e-20)
(-0.021812901 0.0087593659 -1.7567039e-20)
(-0.025097733 0.0093584815 1.5109306e-21)
(-0.028601412 0.0097820791 6.2100697e-22)
(-0.032280196 0.010001619 1.045773e-20)
(-0.036092022 0.010033966 -4.3476858e-21)
(-0.040000244 0.0099296143 -1.5425174e-20)
(-0.043973598 0.0097519861 -7.5189397e-21)
(-0.047983964 0.0095643254 1.1049189e-20)
(-0.052004094 0.0094288387 -8.4811006e-21)
(-0.056006517 0.0094137446 7.1114592e-21)
(-0.059962849 0.0096042825 -2.3609601e-21)
(-0.063842529 0.010116987 -8.9628741e-21)
(-0.067614162 0.011110401 2.144045e-20)
(-0.071234757 0.012788963 1.2912746e-20)
(-0.074641302 0.015418891 8.3825001e-21)
(-0.077741314 0.019345527 -2.6539677e-20)
(-0.080368488 0.0250006 -1.7238316e-20)
(-0.082252223 0.032924203 -2.0201276e-20)
(-0.082903523 0.043760641 -3.4988365e-20)
(-0.081492272 0.058492972 1.1625801e-20)
(-0.077139276 0.078282369 -2.5593715e-21)
(-0.067114205 0.10407644 -1.954464e-20)
(-0.048600322 0.13602131 -5.6537931e-20)
(-0.015839263 0.17315309 -3.6603536e-20)
(0.037227128 0.21147412 -1.4368978e-20)
(0.12261002 0.24213368 -4.3754019e-20)
(0.24063661 0.24867868 3.2395542e-20)
(0.40543533 0.18920429 -3.9107965e-21)
(0.61256182 -0.0052388196 -7.8624414e-20)
(0.83511887 -0.29632284 -5.2609174e-20)
(0.93416776 -0.51989783 -1.8741861e-21)
(0.8855376 -0.5315453 2.279127e-20)
(0.77478024 -0.41835566 -1.0268056e-21)
(0.66980528 -0.27814379 -1.0965458e-21)
(-2.1019308e-05 9.5479853e-05 2.4614256e-21)
(-6.6688568e-05 0.00029867296 -1.6601825e-21)
(-0.00011860995 0.00052431389 2.2423269e-21)
(-0.00017716366 0.00077166812 1.2742802e-21)
(-0.00024264511 0.0010397416 -3.5551398e-21)
(-0.00031548301 0.0013272296 -3.3180411e-21)
(-0.00039623351 0.001632517 3.4036527e-21)
(-0.00048561756 0.001953686 -4.0945785e-22)
(-0.00058458398 0.002288534 -9.4836428e-23)
(-0.00069438539 0.0026346121 -6.7327324e-21)
(-0.00081667273 0.0029892873 7.3756335e-22)
(-0.00095361079 0.0033498355 1.3557031e-20)
(-0.0011080188 0.0037135697 -1.0829498e-20)
(-0.0012835375 0.0040780107 3.7250695e-22)
(-0.0014848256 0.0044411039 7.2403012e-21)
(-0.0017177839 0.0048014859 6.2214049e-22)
(-0.0019898058 0.0051587985 -1.5793505e-21)
(-0.0023100475 0.0055140431 -7.1007188e-21)
(-0.0026897054 0.0058699554 1.2970063e-20)
(-0.0031422804 0.0062313684 -2.2727657e-20)
(-0.0036838005 0.006605505 4.8813341e-21)
(-0.0043329566 0.007002118 -3.571502e-21)
(-0.0051110952 0.0074333561 2.9183209e-21)
(-0.006041991 0.0079131959 -1.2413422e-22)
(-0.0071513082 0.008456242 1.7097026e-20)
(-0.0084656467 0.0090756769 1.693767e-20)
(-0.010011068 0.009780159 -3.3285561e-20)
(-0.011811019 0.010569581 -5.5085286e-21)
(-0.013883645 0.011429894 1.9002744e-20)
(-0.016238656 0.012327848 6.697111e-21)
(-0.018874219 0.013207681 1.5002154e-20)
(-0.021774835 0.013993476 -1.6669152e-20)
(-0.024911517 0.014601776 -7.1778183e-21)
(-0.028245194 0.014965592 1.6304699e-20)
(-0.031732609 0.015060494 -6.6830001e-21)
(-0.03533208 0.014914596 -3.0967745e-21)
(-0.039006401 0.014594017 8.6392097e-21)
(-0.042722244 0.014177626 2.196143e-20)
(-0.046447635 0.013740618 6.4902674e-21)
(-0.05014947 0.013352806 -4.1720822e-21)
(-0.053791931 0.013086401 -9.8344986e-21)
(-0.057335183 0.01302786 -1.0077894e-20)
(-0.06073308 0.013292565 -1.1100907e-20)
(-0.063931354 0.014035867 -2.3328035e-20)
(-0.066857109 0.015454995 7.1205342e-22)
(-0.069405587 0.017803987 -9.9415491e-21)
(-0.071426888 0.021406287 5.405962e-20)
(-0.072672241 0.026659052 1.5039176e-20)
(-0.072765659 0.034037707 1.7128369e-20)
(-0.071018405 0.044106551 4.6969876e-20)
(-0.066496825 0.057732924 -5.3843071e-20)
(-0.057803976 0.07585161 1.1873158e-20)
(-0.041922091 0.099120273 3.7870112e-20)
(-0.01535006 0.12738742 4.6032185e-20)
(0.028401226 0.15936853 5.9284321e-21)
(0.096322665 0.19063801 -1.3901847e-20)
(0.19927833 0.21433902 -2.3360041e-20)
(0.3308374 0.21423239 1.0515038e-20)
(0.50291519 0.14884514 -2.3467387e-20)
(0.7285899 -0.042738365 2.5192688e-20)
(0.96258701 -0.30857574 6.8023803e-21)
(1.0313637 -0.49625457 1.325421e-20)
(0.94377624 -0.49246873 -2.9008965e-20)
(0.81311757 -0.3820817 1.1222092e-22)
(0.71853474 -0.24272397 1.1071428e-21)
(-2.8615464e-05 0.00011317704 -2.3049825e-21)
(-9.0161846e-05 0.00035342639 -6.1739376e-22)
(-0.00015950757 0.000620087 6.7822204e-22)
(-0.00023708015 0.00091301183 3.3327105e-21)
(-0.00032323564 0.001231855 -3.99556e-21)
(-0.00041844316 0.001576024 3.391407e-21)
(-0.00052328213 0.00194468 1.6199875e-21)
(-0.00063847642 0.0023367442 -8.6734434e-23)
(-0.00076495154 0.0027509125 -1.3654763e-21)
(-0.00090390411 0.0031856863 -7.7576963e-21)
(-0.001056889 0.0036394243 1.3008572e-20)
(-0.0012259265 0.0041104189 -1.5605041e-20)
(-0.0014136333 0.0045970021 4.5735692e-21)
(-0.001623379 0.0050976859 6.1928653e-21)
(-0.0018594705 0.0056113405 -9.4718997e-21)
(-0.002127364 0.0061374109 1.8610434e-20)
(-0.0024339019 0.0066761714 -2.2471639e-20)
(-0.0027875696 0.0072290059 -3.5260911e-22)
(-0.0031987594 0.0077986982 -1.2768016e-20)
(-0.0036800227 0.0083896966 5.0426521e-20)
(-0.0042462807 0.0090083 -1.2145716e-20)
(-0.0049149526 0.0096626841 -4.9984409e-20)
(-0.0057059417 0.010362651 2.3494065e-20)
(-0.006641405 0.011118953 2.7872073e-20)
(-0.0077452168 0.011941994 -6.9663635e-21)
(-0.0090420187 0.012839712 -3.6258418e-20)
(-0.010555757 0.013814431 5.4627141e-20)
(-0.012307623 0.014858633 -6.02238e-20)
(-0.014313406 0.015949843 4.71062e-20)
(-0.016580424 0.017045525 -8.9483149e-21)
(-0.019104545 0.018080072 1.5247397e-20)
(-0.021868281 0.018967714 2.1487935e-20)
(-0.024841286 0.019616194 -8.2960433e-21)
(-0.02798407 0.019952717 -2.0873846e-21)
(-0.031253905 0.01995282 -2.953256e-20)
(-0.034609978 0.019652317 5.5510806e-21)
(-0.038015282 0.019131349 -1.3824796e-20)
(-0.041435127 0.018484489 1.1363362e-20)
(-0.044834124 0.017799874 -6.463963e-21)
(-0.04817343 0.017155622 -4.1505648e-21)
(-0.051408749 0.016627835 -3.4934506e-21)
(-0.054488414 0.016303229 -3.4154514e-21)
(-0.057350158 0.01629404 2.0864982e-20)
(-0.059916255 0.016749672 1.6476e-20)
(-0.062082903 0.017857492 -4.5597296e-21)
(-0.063702982 0.019855037 2.9450467e-21)
(-0.064567543 0.023038126 -1.2470179e-20)
(-0.064345834 0.027762365 2.4454365e-20)
(-0.062553765 0.034421622 2.8192305e-20)
(-0.058302688 0.043505826 7.9413604e-21)
(-0.050566485 0.05570446 2.1244917e-20)
(-0.037359184 0.071719449 -6.9467433e-22)
(-0.015315183 0.09193495 -1.0347363e-20)
(0.019938138 0.1158743 -4.6691958e-20)
(0.075447862 0.14193808 2.3024542e-20)
(0.15838487 0.16593301 -8.5392339e-21)
(0.27370514 0.18279718 2.7750188e-20)
(0.41217091 0.17778377 -5.2063802e-20)
(0.5950028 0.10543684 3.6605236e-20)
(0.85367668 -0.080136837 -1.3287027e-20)
(1.0833987 -0.31405829 -1.7898458e-22)
(1.1066217 -0.46146831 -8.0193496e-21)
(0.98488522 -0.44661511 -9.7035812e-21)
(0.84582382 -0.34517465 8.4523115e-21)
(0.75813726 -0.21383955 3.1188587e-21)
(-3.6621037e-05 0.000127738 5.1357811e-21)
(-0.00011490015 0.00039846692 3.5331597e-21)
(-0.00020262286 0.00069889517 -5.5458671e-21)
(-0.00030028893 0.0010294192 1.4597325e-22)
(-0.00040834322 0.001390296 5.0126591e-21)
(-0.00052732696 0.0017816005 2.6205044e-21)
(-0.00065787815 0.0022032271 -5.5219101e-21)
(-0.0008007625 0.0026548962 9.0642392e-22)
(-0.00095692454 0.0031361656 -1.2776304e-20)
(-0.0011275505 0.0036464576 2.4892042e-21)
(-0.0013141472 0.0041851013 6.3733376e-23)
(-0.0015186405 0.0047513957 -9.146692e-21)
(-0.0017434946 0.005344697 2.929385e-20)
(-0.0019918571 0.0059645324 -1.3640373e-20)
(-0.0022677287 0.0066107442 -2.4419685e-20)
(-0.0025761596 0.0072836632 2.5998602e-20)
(-0.0029234699 0.0079843076 -3.1969516e-21)
(-0.0033174877 0.0087145986 1.81375e-20)
(-0.0037677943 0.0094775718 1.3453396e-20)
(-0.0042859576 0.010277554 -4.2246328e-20)
(-0.0048857252 0.011120249 3.1659803e-20)
(-0.0055831353 0.012012662 -4.1585068e-20)
(-0.00639649 0.012962737 4.8743e-21)
(-0.0073461151 0.013978584 -1.986658e-20)
(-0.0084538174 0.015067093 4.3059087e-20)
(-0.0097419365 0.016231739 -1.0167957e-20)
(-0.011231889 0.017469405 -2.5587923e-20)
(-0.012942127 0.018766134 6.1608316e-20)
(-0.014885528 0.020092043 -2.6648771e-20)
(-0.017066396 0.021396267 -2.8556206e-20)
(-0.019477604 0.022604016 2.3437538e-20)
(-0.022098916 0.023619637 3.0973509e-21)
(-0.024897831 0.024340764 -1.5436565e-20)
(-0.02783374 0.024685745 8.3815278e-21)
(-0.0308641 0.02462561 -1.2642852e-20)
(-0.033949213 0.024199498 4.32217e-20)
(-0.03705302 0.023499075 -2.2053782e-20)
(-0.040140389 0.022634392 -1.294689e-20)
(-0.043173232 0.021707485 -2.5854698e-20)
(-0.046107364 0.020805667 -3.4352256e-21)
(-0.048890094 0.02000905 2.6516392e-20)
(-0.051457724 0.019403808 -1.0490412e-20)
(-0.053731376 0.019097201 -1.5447808e-20)
(-0.05560984 0.019229929 -2.3895818e-21)
(-0.056957408 0.019976772 1.5173589e-20)
(-0.057584281 0.02155468 1.3326537e-20)
(-0.057220731 0.024227006 -4.0740117e-20)
(-0.055455784 0.028300911 -2.16072e-20)
(-0.051688302 0.034076739 -4.6706615e-20)
(-0.04485256 0.041962324 -1.6274282e-20)
(-0.033767929 0.052434418 -6.1763559e-21)
(-0.015780318 0.065902504 -4.4772503e-20)
(0.013026432 0.082513177 -1.7096925e-20)
(0.057935535 0.10154052 5.6552492e-20)
(0.12606709 0.12131133 -4.3393226e-20)
(0.22174463 0.13829297 3.9624974e-20)
(0.3420866 0.14927131 -1.8944881e-20)
(0.48785051 0.13861599 1.0310268e-19)
(0.70051519 0.058874672 5.9879645e-20)
(0.99545782 -0.1140637 -2.426223e-20)
(1.1857705 -0.30939192 -3.5218048e-20)
(1.1517466 -0.41995612 -4.1024368e-20)
(1.0108503 -0.39771102 -2.0165643e-21)
(0.87503815 -0.30842484 -1.3739722e-21)
(0.7938024 -0.19072083 -4.3212274e-21)
(-4.4759713e-05 0.00013908943 9.2915413e-23)
(-0.00014005161 0.00043356648 -6.6132822e-21)
(-0.0002464738 0.00076033515 7.7948707e-21)
(-0.0003646208 0.0011202848 3.750285e-21)
(-0.00049505163 0.0015142223 -7.5093519e-21)
(-0.00063840918 0.0019428368 -2.4314291e-21)
(-0.00079542381 0.0024067032 1.1787093e-20)
(-0.00096694124 0.0029062886 -1.2677786e-20)
(-0.0011539679 0.0034419647 -2.6727093e-21)
(-0.0013577268 0.0040140301 -1.0623625e-20)
(-0.0015797289 0.0046227471 2.818316e-20)
(-0.0018218611 0.0052683942 3.4292988e-22)
(-0.0020864946 0.0059513374 -2.5244455e-20)
(-0.002376616 0.0066721229 2.705258e-20)
(-0.0026959814 0.007431591 -1.9327517e-20)
(-0.0030492953 0.0082310124 -7.150091e-21)
(-0.0034424103 0.009072239 1.4899118e-20)
(-0.0038825434 0.0099578612 -1.3405803e-20)
(-0.0043784978 0.010891351 -1.7790727e-20)
(-0.0049408715 0.011877158 3.758362e-22)
(-0.0055822251 0.012920709 2.7849418e-20)
(-0.0063171699 0.014028235 -1.7154256e-20)
(-0.0071623177 0.015206318 9.517988e-21)
(-0.008136023 0.016461026 4.5848682e-20)
(-0.0092578261 0.017796443 1.5271626e-20)
(-0.010547497 0.019212424 -4.1311092e-20)
(-0.012023579 0.02070137 4.1158982e-21)
(-0.013701359 0.022243973 -4.6368254e-20)
(-0.015590286 0.023804112 2.7369086e-20)
(-0.017691024 0.02532376 -1.4442064e-20)
(-0.019992714 0.026719923 2.0864388e-20)
(-0.022471482 0.027887466 5.0732683e-21)
(-0.025091645 0.028713141 -2.5371653e-20)
(-0.027810414 0.029103833 2.5862568e-20)
(-0.030584649 0.029021572 3.7456639e-20)
(-0.033375623 0.028503736 -3.5425845e-21)
(-0.036148847 0.02764998 -3.8804002e-20)
(-0.038869811 0.026584856 4.8520193e-20)
(-0.041498737 0.025425046 -1.0200878e-20)
(-0.043986756 0.024268108 2.1503569e-20)
(-0.04627307 0.023198512 -3.3136254e-21)
(-0.048281858 0.022301291 3.2863532e-20)
(-0.049917176 0.021677186 1.5696294e-20)