/*--------------------------------*- C++ -*----------------------------------*\
  =========                 |
  \\      /  F ield         | OpenFOAM: The Open Source CFD Toolbox
   \\    /   O peration     | Website:  https://openfoam.org
    \\  /    A nd           | Version:  13
     \\/     M anipulation  |
\*---------------------------------------------------------------------------*/
FoamFile
{
    format      ascii;
    class       volVectorField;
    location    "619";
    object      U;
}
// * * * * * * * * * * * * * * * * * * * * * * * * * * * * * * * * * * * * * //

dimensions      [0 1 -1 0 0 0 0];

internalField   nonuniform List<vector> 
1208
(
(1.0709259e-07 1.7148625e-05 2.6763497e-23)
(1.3519565e-07 4.2544255e-05 -8.1796057e-23)
(3.8252851e-07 7.3718489e-05 6.6175218e-23)
(8.2047019e-07 0.00012759685 2.7747293e-23)
(1.7466112e-06 0.00022052256 -2.6145217e-23)
(3.7171114e-06 0.00038031021 1.1733149e-22)
(7.9020362e-06 0.00065386467 -4.5634304e-22)
(1.6755512e-05 0.0011191832 1.3827344e-22)
(3.523566e-05 0.0019032324 5.4249452e-22)
(7.277039e-05 0.0032060664 -3.3409047e-22)
(0.00014536476 0.0053275457 1.989365e-22)
(0.0002749687 0.0086838808 -2.9790829e-23)
(0.00048038997 0.013788409 -4.5106257e-23)
(0.00075691096 0.021169637 1.6054031e-21)
(0.001047711 0.031238708 2.5544403e-21)
(0.0012624678 0.044193253 -1.0065424e-21)
(0.0012689184 0.06009114 -6.7530085e-21)
(0.00078379315 0.079142494 8.951498e-21)
(-0.00034124943 0.10179478 6.0664809e-21)
(-0.0022424148 0.12823156 2.321169e-20)
(-0.0044065422 0.15825578 -4.1120647e-20)
(-0.0022694647 0.18977645 -8.4789957e-20)
(0.005949436 0.22053289 -7.7578162e-20)
(0.031589149 0.24392957 2.5136664e-19)
(0.064255659 0.26412587 -1.5364072e-19)
(0.12401022 0.26246169 -1.7823396e-19)
(-3.9008467e-08 -3.5474935e-07 -1.3006942e-22)
(-5.0435386e-08 -8.715785e-07 1.3959379e-22)
(-2.4018075e-07 -1.4995892e-06 7.4132472e-23)
(-6.5640686e-07 -2.560053e-06 3.0902072e-23)
(-1.5992626e-06 -4.3397866e-06 -3.3885135e-22)
(-3.7556346e-06 -7.284734e-06 6.3398738e-22)
(-8.630321e-06 -1.2053009e-05 -5.9926329e-22)
(-1.9499481e-05 -1.9523885e-05 1.0642765e-22)
(-4.3246706e-05 -3.0642392e-05 2.2051028e-22)
(-9.3508498e-05 -4.5880053e-05 5.5171385e-22)
(-0.00019478839 -6.4045536e-05 1.0626156e-21)
(-0.00038288897 -8.0410801e-05 -3.5460456e-21)
(-0.00069553461 -8.4803308e-05 2.3545095e-21)
(-0.0011539453 -6.1344514e-05 -2.77089e-21)
(-0.0017509933 7.7010935e-06 -1.5123201e-21)
(-0.002485864 0.00014172088 -1.9614899e-21)
(-0.0034601278 0.00036797467 6.6556024e-22)
(-0.0049492774 0.00067040303 2.5334139e-20)
(-0.0070020213 0.00091710908 1.7666183e-20)
(-0.0086787905 0.000750069 -4.5429067e-20)
(-0.0074991605 -0.00044139125 -1.5569648e-20)
(0.0018166911 -0.0029773271 4.1217872e-20)
(0.022040034 -0.006724524 -2.9740115e-20)
(0.060838574 -0.011083067 -5.0542976e-21)
(0.10805646 -0.014688205 6.7593985e-20)
(0.18578728 -0.019976103 2.8027217e-19)
(-1.445956e-07 4.4448278e-07 -4.0080112e-23)
(-1.7904319e-07 1.1226832e-06 2.307633e-22)
(-3.3575501e-07 1.9479187e-06 -4.3570356e-22)
(-5.7198734e-07 3.384363e-06 2.9475911e-22)
(-9.7544756e-07 5.8706214e-06 -4.9668413e-22)
(-1.6524162e-06 1.015485e-05 4.6598476e-23)
(-2.7495354e-06 1.7476543e-05 9.529744e-22)
(-4.4955676e-06 2.981932e-05 -3.4537176e-23)
(-7.232238e-06 5.0159411e-05 -7.2269072e-22)
(-1.1453234e-05 8.2496016e-05 1.3737638e-21)
(-1.8782923e-05 0.00013130028 -9.0444152e-22)
(-3.5213263e-05 0.00020034617 -4.0207597e-21)
(-7.9899646e-05 0.00029249396 2.7541564e-21)
(-0.00019840512 0.00041382576 -6.9259763e-22)
(-0.00046861672 0.00058514049 5.1650647e-21)
(-0.001022699 0.00085483434 -1.0293098e-20)
(-0.0020722782 0.0012686481 2.6424837e-20)
(-0.0036877156 0.0017228247 -4.0160206e-20)
(-0.0052375635 0.0017773527 -2.4063873e-20)
(-0.0037909302 0.00068102522 9.0735207e-20)
(0.005637128 -0.0023400357 -4.5603788e-20)
(0.029268925 -0.0072900229 2.3143759e-19)
(0.06926662 -0.013564434 4.3552065e-20)
(0.13058517 -0.019813479 3.1144994e-21)
(0.1984061 -0.025033371 -1.4452814e-19)
(0.30067474 -0.030328372 -1.828497e-19)
(-2.0562597e-07 4.2248388e-07 -2.1679912e-22)
(-2.5919055e-07 1.0851448e-06 -4.7225504e-22)
(-4.9542845e-07 1.8791486e-06 1.9296887e-22)
(-8.6055882e-07 3.267284e-06 3.7595836e-24)
(-1.5067874e-06 5.6767092e-06 1.4583101e-21)
(-2.6418717e-06 9.8563277e-06 -6.2838771e-22)
(-4.6436132e-06 1.7091734e-05 -1.4021158e-21)
(-8.1872799e-06 2.9571683e-05 1.030543e-21)
(-1.4493435e-05 5.0959838e-05 -8.1611456e-22)
(-2.5787923e-05 8.722742e-05 3.7705694e-21)
(-4.6186697e-05 0.00014769866 -6.2730989e-21)
(-8.3484326e-05 0.000246035 6.5961235e-21)
(-0.00015350715 0.00040098233 -2.308131e-21)
(-0.00029373957 0.00063832957 1.5679923e-20)
(-0.00059860417 0.00099678342 -4.1682126e-21)
(-0.0012675072 0.0015164111 8.0416086e-21)
(-0.0024678651 0.0021301408 -5.3533556e-20)
(-0.003641721 0.0024461729 -9.4725762e-21)
(-0.0022199277 0.0016213203 9.1842875e-20)
(0.007702773 -0.0012152583 -8.4422006e-21)
(0.032863759 -0.0062843506 1.5543785e-19)
(0.078771947 -0.012727338 -1.8353949e-19)
(0.14488948 -0.019377101 7.4316239e-21)
(0.23153582 -0.024571326 -2.5953085e-19)
(0.32149257 -0.028600232 6.8951661e-20)
(0.44191474 -0.030296025 1.1160543e-19)
(-3.0447118e-07 4.6408606e-07 1.8291863e-22)
(-3.9603373e-07 1.2215951e-06 -1.704714e-22)
(-7.5642942e-07 2.1135768e-06 3.1237767e-22)
(-1.3224406e-06 3.6829792e-06 -1.5291789e-21)
(-2.33224e-06 6.4153972e-06 3.1327505e-21)
(-4.1255488e-06 1.1177389e-05 -5.8917787e-23)
(-7.3303497e-06 1.9472007e-05 -2.4677943e-21)
(-1.3096731e-05 3.3897938e-05 -1.2571438e-21)
(-2.3558178e-05 5.8906197e-05 5.9135772e-21)
(-4.2723457e-05 0.00010200657 -1.1966567e-20)
(-7.8244323e-05 0.0001756176 5.2680981e-21)
(-0.0001451419 0.00029993265 3.8870175e-21)
(-0.00027492731 0.00050771344 1.3615246e-21)
(-0.00053947499 0.00085032428 -1.4279189e-20)
(-0.0010916736 0.0013863048 6.568691e-21)
(-0.0021024532 0.0020807481 2.2037341e-20)
(-0.0031304659 0.0025783432 -7.5472954e-21)
(-0.0018583939 0.00203596 2.2335149e-21)
(0.0075552451 -0.00056761366 -3.6875125e-20)
(0.033042107 -0.0055437863 -1.3486942e-19)
(0.081123148 -0.011988918 5.3892595e-20)
(0.15337076 -0.018227353 -1.5127232e-19)
(0.244892 -0.023016205 9.1048645e-20)
(0.35097733 -0.025245558 1.4718903e-19)
(0.45513104 -0.026490061 1.1514397e-19)
(0.57933302 -0.024097378 2.0983113e-20)
(-4.6075332e-07 5.4877879e-07 2.6047799e-22)
(-6.2349636e-07 1.4911604e-06 5.0183598e-22)
(-1.1811365e-06 2.5768249e-06 -1.7596751e-21)
(-2.0710447e-06 4.4993478e-06 1.2500812e-21)
(-3.6618458e-06 7.8559018e-06 3.279883e-22)
(-6.4994838e-06 1.3730673e-05 -2.7351681e-21)
(-1.1599144e-05 2.402315e-05 5.3192706e-21)
(-2.0842375e-05 4.2066772e-05 -4.7911373e-22)
(-3.7770433e-05 7.3694008e-05 -5.0189977e-21)
(-6.9161178e-05 0.00012906986 9.9157295e-21)
(-0.0001283639 0.0002259007 -1.0185772e-20)
(-0.00024325644 0.00039511821 1.3773128e-21)
(-0.0004760405 0.0006887561 -3.5764285e-21)
(-0.00095662966 0.0011750781 3.5180914e-20)
(-0.0018458119 0.0018540042 -1.3688981e-20)
(-0.0027915035 0.0024290948 -2.3303929e-20)
(-0.0017511954 0.0020850533 -5.6308763e-20)
(0.0067868798 -0.00028249122 -4.7330841e-20)
(0.031332004 -0.0051403683 -2.6589959e-20)
(0.079598218 -0.011530714 5.8046065e-20)
(0.15379165 -0.017512904 7.8430618e-21)
(0.24940649 -0.021399248 1.5048928e-19)
(0.35758245 -0.02277759 -3.1743363e-19)
(0.47107213 -0.021664358 3.0499274e-19)
(0.57707444 -0.020315932 -3.6482199e-19)
(0.69079282 -0.015712137 -1.7112162e-19)
(-7.0221781e-07 6.7167431e-07 -4.9410557e-22)
(-9.972789e-07 1.8992772e-06 4.0797461e-22)
(-1.8717059e-06 3.2791257e-06 -1.6273322e-22)
(-3.2902545e-06 5.738315e-06 1.1711488e-21)
(-5.8311444e-06 1.0045053e-05 6.4058893e-22)
(-1.0383684e-05 1.7618876e-05 -1.1351821e-21)
(-1.8614663e-05 3.0975615e-05 -3.1343798e-21)
(-3.3659906e-05 5.4609736e-05 1.828538e-21)
(-6.1551075e-05 9.6606005e-05 -5.3536406e-22)
(-0.00011428279 0.00017167936 -7.1836629e-22)
(-0.00021702635 0.00030685739 2.1185039e-20)
(-0.00042492451 0.00054985647 -2.2914011e-20)
(-0.00084904511 0.0009682253 -1.3449592e-20)
(-0.0016262388 0.0015816275 6.8600919e-21)
(-0.0024566858 0.002151456 3.0920665e-20)
(-0.0015232003 0.0019269494 2.0203835e-20)
(0.006233052 -0.00022667768 1.1157344e-19)
(0.029366549 -0.0049264648 -5.0627846e-20)
(0.07631196 -0.011256869 -7.5512293e-21)
(0.1500564 -0.017032083 5.7605625e-20)
(0.24585247 -0.020329201 -2.8430796e-19)
(0.35462962 -0.020593799 1.7899255e-19)
(0.46644808 -0.018704999 -7.1147253e-20)
(0.57526475 -0.015543267 -2.4094426e-19)
(0.67290593 -0.013108038 1.0890799e-19)
(0.7698649 -0.008651921 1.1631665e-19)
(-1.0835047e-06 8.4459441e-07 -3.7817543e-22)
(-1.6315614e-06 2.507567e-06 4.0725867e-22)
(-3.0376063e-06 4.3310358e-06 1.4645861e-21)
(-5.3576859e-06 7.6010156e-06 -4.3353483e-21)
(-9.5305773e-06 1.3351551e-05 1.5321037e-21)
(-1.7060349e-05 2.3531103e-05 7.534107e-23)
(-3.0810423e-05 4.1653464e-05 -4.7473424e-22)
(-5.6320099e-05 7.4174073e-05 5.0413366e-22)
(-0.00010472492 0.00013317441 -5.392663e-21)
(-0.00019948274 0.00024146583 1.2545446e-20)
(-0.00039078909 0.0004400558 8.2024617e-21)
(-0.00077341305 0.00078786154 -1.5773749e-20)
(-0.0014486262 0.001306945 8.39069e-22)
(-0.0021222408 0.001800091 -1.8061326e-20)
(-0.0011041668 0.001599822 -3.0404783e-20)
(0.0062182981 -0.00038709595 -1.0661645e-19)
(0.028078695 -0.0048796713 1.0158848e-19)
(0.073099931 -0.011070302 6.0328301e-20)
(0.14475912 -0.016657941 -7.5973344e-20)
(0.23841058 -0.019483955 1.2782849e-19)
(0.34448642 -0.019012987 7.4975164e-20)
(0.4533241 -0.016260802 -1.7610696e-19)
(0.5578833 -0.012778363 -1.2211331e-20)
(0.65499269 -0.009476748 8.9300612e-20)
(0.74098863 -0.0074365512 1.7160344e-19)
(0.82289677 -0.0043085428 4.1492954e-20)
(-1.7098817e-06 1.0939029e-06 -1.9607987e-22)
(-2.7634404e-06 3.4438916e-06 -4.5690371e-22)
(-5.1213179e-06 5.9684858e-06 -1.085524e-21)
(-9.0841399e-06 1.0524921e-05 3.5533075e-21)
(-1.6274943e-05 1.859713e-05 -4.7878196e-21)
(-2.9431409e-05 3.3055375e-05 3.9728924e-21)
(-5.3944099e-05 5.9233145e-05 -1.6521099e-21)
(-0.00010074844 0.00010727217 -7.9432972e-22)
(-0.00019266579 0.0001963832 1.3961439e-21)
(-0.00037606393 0.0003603579 5.7416177e-21)
(-0.00072915842 0.00064459886 2.781828e-21)
(-0.0013022607 0.001057693 -2.415339e-20)
(-0.0017518335 0.0014176065 2.2035081e-20)
(-0.00040652217 0.0011356198 -4.2124933e-20)
(0.0069949535 -0.00077483676 5.4245356e-20)
(0.028151322 -0.0050336424 -5.6755816e-20)
(0.071338522 -0.010957009 1.1899011e-20)
(0.1401026 -0.016263884 1.2192933e-19)
(0.22988946 -0.018686719 -6.9024845e-20)
(0.33115316 -0.017663188 8.9527041e-21)
(0.43462658 -0.014400406 -2.2099943e-20)
(0.5339405 -0.010617269 6.2153674e-20)
(0.62663918 -0.0074587546 1.4385402e-19)
(0.71203944 -0.0052184259 -4.0085994e-21)
(0.78840187 -0.0040956496 -3.4209838e-20)
(0.85964665 -0.0021838867 2.2488709e-20)
(-2.8481208e-06 1.4970567e-06 2.4344559e-22)
(-5.0300838e-06 5.055529e-06 -6.3129564e-22)
(-9.3316472e-06 8.840454e-06 1.8666184e-21)
(-1.6739482e-05 1.5726994e-05 -6.9000018e-22)
(-3.0426302e-05 2.8100637e-05 2.4008705e-21)
(-5.611495e-05 5.0695977e-05 -2.9368459e-21)
(-0.00010539428 9.2426828e-05 -1.6576131e-22)
(-0.00020142847 0.00016960041 4.9828924e-22)
(-0.00038616237 0.00030850298 2.2881444e-21)
(-0.00071349718 0.00053751291 -1.8360797e-21)
(-0.0011594664 0.0008394633 5.1143368e-21)
(-0.0012574347 0.0010236139 1.2714317e-20)
(0.00074938374 0.00056379467 -2.2880437e-20)
(0.0089030803 -0.0013751806 -3.7903357e-20)
(0.030235291 -0.0053952958 2.6590404e-20)
(0.072168658 -0.010881341 1.7418298e-20)
(0.137795 -0.015713501 6.3447501e-21)
(0.22253938 -0.017685466 -3.8094473e-20)
(0.31723851 -0.01627285 1.301952e-20)
(0.41353945 -0.012761354 -2.4490022e-20)
(0.50612794 -0.0089506057 2.7116495e-21)
(0.59368492 -0.0059594844 1.3956129e-20)
(0.67619372 -0.0040450185 -7.5029362e-20)
(0.75325189 -0.0029324962 -1.2098759e-20)
(0.82305131 -0.0024483765 -1.0669633e-20)
(0.88684404 -0.0012222416 5.7609458e-21)
(-5.2033375e-06 2.2324828e-06 3.2572322e-22)
(-1.0219768e-05 8.1957713e-06 -1.8795914e-21)
(-1.925307e-05 1.4608587e-05 9.1783473e-22)
(-3.5259558e-05 2.6399583e-05 1.710708e-21)
(-6.5463946e-05 4.7861619e-05 -1.6162946e-21)
(-0.00012272327 8.7124636e-05 -1.4552689e-21)
(-0.00022972907 0.00015750995 7.0745014e-21)
(-0.00041826312 0.00027604187 -3.7529889e-21)
(-0.00069538014 0.00044883762 8.574707e-21)
(-0.00091710177 0.00062243374 -2.8029485e-20)
(-0.00039780189 0.00058570464 1.2256087e-20)
(0.0027623653 -0.00012736284 -7.5887809e-21)
(0.01254585 -0.0021713782 -1.9990045e-20)
(0.035120553 -0.0059287514 -2.5192827e-20)
(0.076614257 -0.010756676 8.0159678e-20)
(0.13903446 -0.014811068 -5.6239111e-20)
(0.21781309 -0.016181481 1.822756e-20)
(0.3044406 -0.014496852 4.3279527e-20)
(0.39207864 -0.011032184 4.0672513e-20)
(0.47669539 -0.0074844522 -4.0630484e-20)
(0.5581122 -0.004829129 9.3277431e-21)
(0.63690595 -0.003207784 -1.727507e-20)
(0.71284021 -0.0023372921 3.2792147e-20)
(0.78453287 -0.0018584006 -1.3914469e-21)
(0.8496387 -0.0016115752 -2.1009391e-21)
(0.9076931 -0.00073234444 -3.0551924e-20)
(-1.1263987e-05 3.8750305e-06 6.7440889e-22)
(-2.508683e-05 1.5634649e-05 -7.3889596e-22)
(-4.8290647e-05 2.8442505e-05 2.5069423e-21)
(-8.8704074e-05 5.1335553e-05 -2.2314546e-21)
(-0.00016030348 9.0558381e-05 -3.3998286e-21)
(-0.00027753407 0.00015415871 6.433746e-21)
(-0.00043925185 0.0002449675 -5.9341093e-22)
(-0.0005609632 0.00033961973 -1.3348859e-20)
(-0.00029011944 0.00034344217 1.6562477e-20)
(0.0013467873 3.073236e-05 -1.6197785e-21)
(0.0064849963 -0.00098449141 -6.2060424e-21)
(0.018955847 -0.0031339189 2.6513143e-20)
(0.043854443 -0.0065138514 -5.5019926e-20)
(0.085542813 -0.010406167 7.3853592e-20)
(0.14446451 -0.013313259 1.3057921e-20)
(0.2161443 -0.013883317 1.301729e-22)
(0.29346982 -0.012031401 -2.6849146e-20)
(0.37107497 -0.0089441732 -2.146529e-20)
(0.44683188 -0.0059903777 -2.6509419e-20)
(0.52134217 -0.003879164 2.7560892e-20)
(0.59552775 -0.0026073511 1.3060878e-20)
(0.66921044 -0.001913762 -1.4781624e-20)
(0.74105678 -0.0015399945 1.66278e-21)
(0.80892841 -0.0012931801 5.2182788e-21)
(0.87026674 -0.0010968579 5.0973955e-22)
(0.92372479 -0.00044439407 -6.04369e-21)
(-3.0228418e-05 7.9263374e-06 1.0458186e-22)
(-7.2374361e-05 3.3763561e-05 -9.4789575e-25)
(-0.00012884868 5.8160175e-05 3.605873e-22)
(-0.00020159862 9.3094119e-05 3.0575802e-21)
(-0.00027220036 0.00013418645 -2.4771611e-21)
(-0.00024552765 0.00016110142 -4.5395011e-21)
(0.0001506457 0.00011588786 7.8626791e-21)
(0.0015530625 -0.00012304514 -8.7480083e-21)
(0.0052716497 -0.00076029812 1.5988824e-20)
(0.013608358 -0.0020514815 -3.0773517e-20)
(0.029888787 -0.0041571869 8.8055461e-21)
(0.057742444 -0.0068880768 -2.5660276e-21)
(0.099379608 -0.0095158712 1.118352e-20)
(0.15375064 -0.010978157 1.5686877e-20)
(0.21665398 -0.010621142 -2.2017641e-20)
(0.28340272 -0.0087767781 6.4410642e-22)
(0.35013387 -0.006414585 -1.36016e-20)
(0.41662834 -0.0043798377 -5.4498863e-22)
(0.48398867 -0.0030032642 -1.9732119e-22)
(0.55296707 -0.0021467222 -3.2897212e-21)
(0.62334245 -0.001616493 -7.1132963e-21)
(0.69392888 -0.0012914954 4.1405035e-21)
(0.76284829 -0.0010877051 7.2104975e-22)
(0.82773297 -0.00092071701 -6.7530689e-21)
(0.88601001 -0.00073764223 4.613049e-21)
(0.93588181 -0.00026866166 3.1230252e-20)
(-4.8863036e-05 8.6463188e-06 -8.1871698e-22)
(-8.1859664e-05 3.0241717e-05 2.8161421e-21)
(-1.9427226e-05 2.8353099e-05 -1.9038664e-21)
(0.00026574319 -1.0077066e-05 3.8803994e-22)
(0.0010493162 -0.00012905284 6.1476285e-22)
(0.0028664978 -0.00040052652 -9.5903402e-21)
(0.0066562944 -0.0009272886 6.2211827e-21)
(0.013896808 -0.0018216491 5.2928069e-21)
(0.026615049 -0.0031437683 -1.8448152e-21)
(0.047079178 -0.0048000117 8.7387077e-21)
(0.077050457 -0.0064487033 -3.3637487e-21)
(0.11667751 -0.007535497 -1.0928256e-20)
(0.16421529 -0.0075928595 1.103978e-21)
(0.21681758 -0.006617487 -2.3009336e-22)
(0.27159907 -0.0051038424 1.0836276e-20)
(0.3275596 -0.0037121301 -1.2577687e-20)
(0.38530224 -0.0027824277 3.3181102e-21)
(0.44586097 -0.0021950002 2.8705305e-21)
(0.50951481 -0.0017566967 -6.7581752e-22)
(0.57582956 -0.0013849209 -3.1300097e-22)
(0.64389764 -0.0010934487 1.8251273e-22)
(0.71228165 -0.00089766503 -2.1127391e-21)
(0.77900092 -0.00076952823 5.7110537e-21)
(0.84161729 -0.00064605396 -7.6064555e-22)
(0.89754208 -0.00047780364 1.3271964e-20)
(0.94471097 -0.00017220443 -5.5667461e-21)
(0.00034460566 -4.0019736e-05 4.9212565e-22)
(0.001292507 -0.00022019941 -6.2803895e-22)
(0.0029456216 -0.00042354699 1.6964807e-21)
(0.0058061342 -0.00073674728 -9.8866638e-22)
(0.010602648 -0.0011840194 -1.7968832e-22)
(0.01828765 -0.001789429 -1.776324e-21)
(0.02998229 -0.0025397364 3.5135951e-21)
(0.046801247 -0.0033543655 -1.8385818e-21)
(0.069543519 -0.0040649294 1.7988062e-22)
(0.098272829 -0.0044417238 1.1687127e-21)
(0.13225542 -0.0043027147 3.6097852e-21)
(0.17027295 -0.0036557271 -3.5375564e-21)
(0.21110302 -0.0027563002 1.801104e-21)
(0.25442116 -0.0019931008 4.3612931e-22)
(0.30086233 -0.0016068233 -1.8247376e-21)
(0.35131215 -0.0015204973 4.6331461e-22)
(0.40605341 -0.0014903249 -8.2759026e-22)
(0.46466768 -0.0013566154 1.5140061e-21)
(0.52660476 -0.0011297362 -6.1180004e-22)
(0.59126207 -0.00089483416 -5.4235097e-22)
(0.65776072 -0.00071289752 -2.6526459e-22)
(0.72464498 -0.00059755474 -1.5013499e-21)
(0.78987273 -0.00052142154 -6.9129624e-21)
(0.85094182 -0.00043037447 -6.0452293e-21)
(0.90522149 -0.00028975263 -2.1091841e-20)
(0.95039231 -0.00014710553 -4.5253835e-21)
(0.002680422 -0.00010264157 -1.5303988e-22)
(0.0085887449 -0.00052782784 3.4104965e-22)
(0.016034153 -0.00090441754 2.4441474e-22)
(0.025347008 -0.0013350334 1.1879483e-22)
(0.036843815 -0.0017442796 -1.0658532e-21)
(0.050766872 -0.0020669178 3.4041281e-22)
(0.067266319 -0.0022225794 7.6718265e-22)
(0.086438045 -0.0021399123 1.1167831e-22)
(0.10832064 -0.0017937297 5.131513e-22)
(0.13294355 -0.0012453119 -4.5791382e-22)
(0.1606227 -0.00065701977 7.4968843e-23)
(0.1918687 -0.00024116736 -7.6130488e-23)
(0.22730931 -0.00014772152 4.7301056e-23)
(0.26769088 -0.00034891037 8.5663626e-23)
(0.31313198 -0.00063905611 3.0878651e-22)
(0.36311533 -0.00081133427 -2.3073089e-22)
(0.41706289 -0.00082190134 -3.2730657e-22)
(0.47463741 -0.00073554715 1.2799432e-22)
(0.53553142 -0.00061119341 5.3727354e-23)
(0.59926513 -0.00049039683 -2.281578e-22)
(0.66494431 -0.00039764609 1.1877487e-21)
(0.73105069 -0.00034163339 2.6102758e-21)
(0.79550716 -0.0003045211 1.9703358e-22)
(0.85577672 -0.00024145772 9.1292602e-21)
(0.90918514 -0.00012838569 -1.5413272e-21)
(0.95316463 -0.00014266427 1.6134651e-20)
(0.0025933652 0.000104464 2.5980883e-22)
(0.0083206362 0.0005384369 5.661073e-22)
(0.015571537 0.00092554025 -3.0868339e-22)
(0.024700742 0.0013722517 -1.1314723e-21)
(0.036063473 0.0018032295 2.5585414e-22)
(0.049950016 0.0021514041 1.635544e-22)
(0.066544038 0.0023295335 -4.5286743e-22)
(0.085952297 0.0022531946 2.3550338e-22)
(0.10821645 0.0018807824 -1.1145582e-22)
(0.13326409 0.0012599207 2.2866177e-22)
(0.16121884 0.00055061567 3.6389943e-23)
(0.19243392 -1.6660032e-05 5.5452595e-24)
(0.22756906 -0.00025923452 2.5910979e-23)
(0.26754608 -0.00017983752 1.2037221e-22)
(0.31274934 2.0710753e-05 -2.216234e-22)
(0.36274613 0.00011581519 1.22735e-22)
(0.41684945 6.0201963e-05 -2.46555e-22)
(0.47458102 -3.0658901e-05 -4.2503035e-22)
(0.53555421 -7.585439e-05 2.0735826e-21)
(0.59930058 -7.9158806e-05 -1.4255935e-21)
(0.6649622 -6.8211782e-05 -2.5459427e-21)
(0.73104319 -6.6024527e-05 4.8073918e-21)
(0.7955065 -6.7976449e-05 6.251016e-21)
(0.85581433 -3.3049377e-05 -1.8927734e-21)
(0.90928083 9.9320948e-05 -5.874545e-21)
(0.95338537 0.00061977115 -4.8194361e-24)
(0.0002434457 3.0308015e-05 8.2919878e-22)
(0.00095344195 0.00017056141 7.7119209e-22)
(0.0022585016 0.00033703261 -1.46381e-21)
(0.0046095 0.00060600544 7.6339884e-21)
(0.0086833078 0.0010109597 -2.4636039e-21)
(0.015406998 0.0015902835 -3.2092587e-21)
(0.025944703 0.0023551637 4.3070691e-21)
(0.041565546 0.0032552471 -1.1286153e-21)
(0.063357943 0.0041400693 -1.2260686e-20)
(0.091738126 0.004753373 1.2019797e-20)
(0.12622366 0.0048202443 -2.0149376e-21)
(0.16556216 0.0042185234 -1.4792147e-21)
(0.20799814 0.0031175306 -2.5947987e-21)
(0.25262492 0.0019372269 -4.8259682e-22)
(0.29965642 0.0010943533 2.5056821e-22)
(0.35002166 0.00071395447 8.912295e-22)
(0.40465783 0.00062028903 2.1130168e-21)
(0.4634015 0.00058631211 1.1357343e-21)
(0.52552976 0.00050913313 -3.1985378e-22)
(0.59031818 0.00041170226 -3.3021246e-21)
(0.65689638 0.00033178001 3.0897874e-21)
(0.7238286 0.00026565307 -4.2849456e-21)
(0.78918726 0.0002101458 -2.1050172e-20)
(0.85047455 0.00019670367 -7.5734393e-21)
(0.90503184 0.00027835986 2.628907e-20)
(0.95063494 0.00058034166 2.9590263e-20)
(-4.8372739e-05 -9.6177598e-06 -3.8552854e-22)
(-9.8024138e-05 -3.7677909e-05 1.7770305e-22)
(-0.00010074064 -5.0214286e-05 -1.9372226e-21)
(1.9545293e-05 -4.4677913e-05 2.4936315e-21)
(0.00044181785 1.0296999e-05 1.197019e-21)
(0.0015473149 0.00017208838 -3.2600887e-21)
(0.0040604837 0.00053607507 1.2117429e-21)
(0.0092247391 0.0012322766 -6.4169574e-21)
(0.018938112 0.0023887672 1.6825688e-20)
(0.035676025 0.0040410128 -1.1024836e-20)
(0.061940398 0.0060007513 -6.724118e-21)
(0.099282824 0.0077599193 7.2539265e-21)
(0.1468686 0.0086066799 -4.1248073e-21)
(0.20174575 0.0080917176 7.5844053e-21)
(0.26042608 0.0064429674 -1.2658056e-21)
(0.31992336 0.0044108897 -1.5809661e-21)
(0.37990828 0.0027442457 -5.1090468e-21)
(0.44135879 0.0017248377 -2.2691664e-21)
(0.50529068 0.0011981066 -5.733542e-21)
(0.57174682 0.00092802055 1.1975418e-20)
(0.64002558 0.00076268061 -5.8367681e-21)
(0.7086534 0.00063543126 8.1405343e-21)
(0.77580914 0.00052733323 7.3158452e-21)
(0.83905342 0.00046345055 -2.099585e-20)
(0.89574071 0.00050550766 3.5978911e-20)
(0.94346738 0.00077499028 1.6223714e-20)
(-2.0126989e-05 -5.9429049e-06 6.5995138e-22)
(-4.6750449e-05 -2.4814068e-05 -1.0361575e-21)
(-8.6187625e-05 -4.3815363e-05 3.0660104e-22)
(-0.00014492512 -7.4205896e-05 3.2685406e-21)
(-0.00022638153 -0.00011878973 2.0496926e-21)
(-0.00030678778 -0.00017498812 6.1877323e-21)
(-0.00027098335 -0.0002185213 1.8425296e-21)
(0.00021277314 -0.00017803828 -9.61255e-21)
(0.0019241943 9.7961501e-05 -1.8900933e-20)
(0.0064718261 0.00086394627 7.050285e-21)
(0.016650019 0.0024322469 1.6595213e-20)
(0.036434228 0.0049808507 6.5912408e-21)
(0.069941765 0.0082298625 -3.0401863e-20)
(0.11925876 0.011235625 -1.3871234e-20)
(0.18229444 0.012706465 1.845682e-20)
(0.25353646 0.011957381 -9.3514803e-21)
(0.32744694 0.0095249132 -8.7089992e-21)
(0.40010358 0.0065983139 -1.481977e-20)
(0.47140024 0.0041652982 -1.7155338e-20)
(0.54222711 0.0025857367 -1.683542e-20)
(0.61351874 0.0016849759 2.8001401e-20)
(0.68471184 0.0011958657 -1.7533714e-20)
(0.75449639 0.00090888533 1.0702729e-20)
(0.82061837 0.00073911298 -1.0320241e-20)
(0.88050593 0.00069720082 -8.0226233e-20)
(0.93171316 0.00092065518 3.7499263e-20)
(-6.5827946e-06 -2.6332957e-06 -5.1334868e-22)
(-1.3456923e-05 -9.9804273e-06 -1.3219585e-21)
(-2.5682448e-05 -1.7951617e-05 4.9345248e-22)
(-4.7253524e-05 -3.2518581e-05 8.712145e-22)
(-8.7089212e-05 -5.8570187e-05 2.1898575e-21)
(-0.00015910862 -0.00010445427 -5.359625e-21)
(-0.00028072449 -0.0001811521 -1.0750304e-20)
(-0.00045627812 -0.0002975757 2.8339621e-20)
(-0.00062546948 -0.00043983496 -7.7466977e-22)
(-0.00044857925 -0.00051451715 -4.6236117e-20)
(0.001100077 -0.00026990381 1.1744222e-20)
(0.0062923269 0.00074388611 3.7034639e-20)
(0.019336469 0.0030695576 9.1216771e-21)
(0.046071916 0.0069295668 -7.1376799e-20)
(0.091647387 0.011628847 1.002383e-20)
(0.15689428 0.01547243 -2.1737806e-20)
(0.23662579 0.016756374 5.7119334e-20)
(0.3225747 0.015159382 4.0274653e-20)
(0.40891707 0.011853747 -2.1105729e-20)
(0.49178371 0.0083306897 2.689003e-20)
(0.57160126 0.0054740455 2.0658708e-20)
(0.64870182 0.0035426814 4.1446447e-20)
(0.72314036 0.0023157536 -2.5604852e-21)
(0.79357306 0.0015593975 6.7121702e-20)
(0.85795453 0.0011299022 1.0858461e-20)
(0.91391844 0.0011341887 1.0462672e-20)
(-2.7198741e-06 -1.4313258e-06 1.1326204e-21)
(-4.7947548e-06 -4.8346687e-06 -9.9461316e-22)
(-8.940306e-06 -8.4744196e-06 -9.5652875e-22)
(-1.6136945e-05 -1.5133546e-05 -2.1489807e-21)
(-2.9546615e-05 -2.7163352e-05 4.7118164e-21)
(-5.4862457e-05 -4.9193033e-05 -1.092608e-21)
(-0.00010323792 -8.9757438e-05 -9.1838803e-21)
(-0.00019567254 -0.00016392015 1.3265223e-20)
(-0.00036684736 -0.00029417085 -6.6178872e-21)
(-0.00064276953 -0.00050340902 2.7140606e-21)
(-0.00097829119 -0.00077701064 -2.0467257e-20)
(-0.00088979202 -0.0009492389 1.465877e-20)
(0.0012752488 -0.00055894396 -2.6797111e-20)
(0.0091125024 0.00115124 1.2687928e-19)
(0.028924789 0.0048758673 -8.8037834e-20)
(0.067964462 0.010440588 -4.8418815e-20)
(0.13019122 0.016231262 -9.1534366e-21)
(0.21258268 0.019955733 -8.4699266e-20)
(0.30670526 0.020346956 1.0895507e-19)
(0.4036762 0.01795144 1.0023689e-20)
(0.49850168 0.014278734 -3.926709e-20)
(0.58816193 0.010652974 -1.24818e-19)
(0.67256076 0.0076557053 -1.3852612e-19)
(0.75127477 0.0054293592 9.6361261e-21)
(0.82317617 0.0038638532 -4.1786037e-20)
(0.88655284 0.003078666 5.527165e-20)
(-1.271153e-06 -8.8376424e-07 -3.9725912e-22)
(-1.983203e-06 -2.7093975e-06 1.1246241e-21)
(-3.6987835e-06 -4.6945661e-06 3.7755795e-22)
(-6.5705826e-06 -8.2815202e-06 -3.063068e-21)
(-1.1799321e-05 -1.4646448e-05 1.6380263e-21)
(-2.1403422e-05 -2.6067174e-05 2.3516761e-21)
(-3.937745e-05 -4.6786925e-05 5.7370363e-22)
(-7.3810184e-05 -8.4871825e-05 9.625102e-21)
(-0.00014138274 -0.00015562993 -5.2807163e-22)
(-0.00027530121 -0.00028664603 -1.3039656e-20)
(-0.00053485202 -0.00051926005 -1.3844604e-20)
(-0.0009679282 -0.00088872601 2.9805175e-20)
(-0.0014617075 -0.0013310457 -2.8341016e-20)
(-0.001040651 -0.0014710167 2.9091507e-20)
(0.0032846806 -0.00047536751 -4.6322647e-20)
(0.017123613 0.002671502 6.2196868e-20)
(0.04868115 0.0083326824 -1.078914e-20)
(0.10412827 0.015342225 5.1835733e-20)
(0.18317208 0.021342244 -6.6868954e-20)
(0.27893897 0.024398664 -9.2824008e-20)
(0.38203369 0.024265194 -1.2884221e-19)
(0.48523533 0.021963951 -1.5887909e-21)
(0.58399552 0.018755976 2.6510687e-19)
(0.67609024 0.015537441 1.1113259e-19)
(0.76012624 0.012747249 -1.2488288e-19)
(0.83513303 0.010824921 2.329771e-19)
(-6.0875335e-07 -5.7393955e-07 3.7737271e-22)
(-8.6089298e-07 -1.6256982e-06 -5.7807364e-22)
(-1.6271182e-06 -2.8112064e-06 1.876299e-22)
(-2.8705282e-06 -4.9314787e-06 1.8170834e-21)
(-5.1149508e-06 -8.6606218e-06 1.0969042e-21)
(-9.1753816e-06 -1.5262329e-05 3.2876549e-21)
(-1.6616417e-05 -2.7020398e-05 -6.8903189e-21)
(-3.0481361e-05 -4.8138591e-05 5.1058832e-21)
(-5.6896746e-05 -8.650198e-05 3.1643407e-21)
(-0.00010869734 -0.00015715757 -1.3704233e-20)
(-0.0002135785 -0.00028863987 -1.2640128e-20)
(-0.00042821309 -0.00053058756 6.7432308e-21)
(-0.00085095549 -0.00094731175 4.1888255e-20)
(-0.0015196946 -0.0015470742 -1.448511e-20)
(-0.0019869859 -0.0020669934 3.2684253e-20)
(-6.6109457e-05 -0.0017288423 -3.7510948e-20)
(0.0090725153 0.00064374963 -1.3078467e-19)
(0.03305012 0.0058428667 1.6485378e-19)
(0.079033446 0.013301771 -7.5757662e-20)
(0.14924124 0.021068279 1.1878776e-19)
(0.23894281 0.027090858 1.326069e-19)
(0.34027508 0.030326453 -1.7128797e-19)
(0.44505207 0.031042157 -5.3440291e-21)
(0.54802847 0.030040658 1.6013015e-19)
(0.64466629 0.028114429 6.7579802e-19)
(0.73343665 0.026176741 -2.6196005e-19)
(-2.726556e-07 -3.6958058e-07 -1.4555587e-22)
(-3.5968009e-07 -9.8603161e-07 6.4935843e-23)
(-6.9276922e-07 -1.7103702e-06 -7.1372181e-22)
(-1.2213101e-06 -2.994804e-06 -7.0035776e-22)
(-2.1768707e-06 -5.2488582e-06 4.3750641e-22)
(-3.9012756e-06 -9.2208432e-06 1.5576046e-21)
(-7.045029e-06 -1.6243426e-05 -3.1822874e-21)
(-1.2839436e-05 -2.8709018e-05 6.698633e-21)
(-2.3681503e-05 -5.0940077e-05 -4.4606506e-21)
(-4.4324294e-05 -9.0814307e-05 2.702133e-21)
(-8.4553474e-05 -0.00016288561 -5.5813799e-21)
(-0.00016565677 -0.00029426706 4.868622e-21)
(-0.00033588168 -0.0005336507 -8.2941171e-21)
(-0.00069432434 -0.00095181992 1.4954822e-20)
(-0.0013671089 -0.0015889188 -5.8665956e-21)
(-0.0021965977 -0.0022664359 -3.8097168e-21)
(-0.0019253669 -0.0023140508 1.019597e-19)
(0.003344224 -0.00058255956 -5.3339961e-20)
(0.019710041 0.0039549424 -7.3435854e-21)
(0.054140727 0.011315243 2.195278e-19)
(0.10988133 0.020238433 -5.6604745e-20)
(0.18541721 0.028746327 -3.2669874e-19)
(0.27459351 0.035370372 -8.3559719e-20)
(0.37178874 0.039496885 2.4681299e-19)
(0.47070083 0.041152237 -4.1457245e-19)
(0.56712299 0.041211712 4.2796837e-19)
(-1.7095072e-08 1.1531132e-07 1.9025406e-22)
(-2.8491963e-08 2.7975494e-07 1.7212176e-22)
(-8.8670802e-08 4.7744537e-07 -3.9877964e-22)
(-2.17863e-07 8.0503855e-07 2.0535313e-21)
(-5.0472303e-07 1.3421618e-06 -6.0340847e-22)
(-1.1502782e-06 2.2024083e-06 -9.9724119e-22)
(-2.6019522e-06 3.5294621e-06 -1.5484033e-21)
(-5.8619807e-06 5.4522172e-06 4.771724e-21)
(-1.3183156e-05 7.9286264e-06 -8.5174546e-21)
(-2.9458388e-05 1.0315136e-05 4.1692418e-21)
(-6.5157475e-05 1.0267334e-05 3.6706824e-22)
(-0.00014237402 1.1511777e-06 1.318789e-20)
(-0.0003054615 -3.3563352e-05 -2.3513025e-20)
(-0.00063944677 -0.00013055685 4.8077858e-21)
(-0.0012970995 -0.00035513712 1.4821472e-20)
(-0.002532944 -0.00076260546 -6.1954571e-20)
(-0.0043134219 -0.0012572201 7.5187119e-20)
(-0.0059724509 -0.0013398815 -2.0492617e-20)
(-0.0048538756 -5.7247774e-05 -6.0251802e-20)
(0.0036938124 0.0035404465 5.4423341e-20)
(0.025106017 0.0095619393 5.5664302e-20)
(0.064100628 0.0170672 -4.4190206e-20)
(0.12076275 0.024685234 3.8984455e-19)
(0.19352334 0.031027692 1.9406566e-19)
(0.27841572 0.035218538 -8.313781e-19)
(0.36972731 0.03758158 5.5696404e-20)
(6.2457623e-08 -7.7251908e-06 1.0859564e-22)
(9.4046351e-08 -1.9167199e-05 -7.9508364e-23)
(2.0571132e-07 -3.3220721e-05 -6.3839511e-23)
(3.8057886e-07 -5.7528922e-05 -1.3378115e-23)
(7.2317677e-07 -9.9511245e-05 6.9206325e-23)
(1.3945644e-06 -0.00017186568 7.4828682e-23)
(2.7155878e-06 -0.00029621388 -6.593005e-22)