/*--------------------------------*- C++ -*----------------------------------*\
  =========                 |
  \\      /  F ield         | OpenFOAM: The Open Source CFD Toolbox
   \\    /   O peration     | Website:  https://openfoam.org
    \\  /    A nd           | Version:  13
     \\/     M anipulation  |
\*---------------------------------------------------------------------------*/
FoamFile
{
    format      ascii;
    class       volVectorField;
    location    "28.596275";
    object      U;
}
// * * * * * * * * * * * * * * * * * * * * * * * * * * * * * * * * * * * * * //

dimensions      [0 1 -1 0 0 0 0];

internalField   nonuniform List<vector> 
17140
(
(4.9003289e-07 -4.3933088e-05 2.9670358e-23)
(-3.2351421e-07 -0.00013521623 3.2847204e-24)
(-3.8968697e-06 -0.00023576922 -2.1668582e-22)
(-1.1081309e-05 -0.00034734681 2.3803645e-22)
(-2.302072e-05 -0.0004718792 -2.7802387e-23)
(-4.107332e-05 -0.0006114807 9.0897976e-23)
(-6.6985322e-05 -0.00076843554 1.5283099e-22)
(-0.00010291498 -0.00094517423 -7.4467348e-23)
(-0.00015152053 -0.0011442399 -2.4328122e-22)
(-0.00021606438 -0.0013682385 -5.9522649e-22)
(-0.00030053143 -0.0016197703 8.7981438e-22)
(-0.00040976384 -0.0019013383 -7.8109461e-22)
(-0.00054961328 -0.0022152291 -1.1906269e-22)
(-0.00072710974 -0.0025633632 6.6910847e-22)
(-0.00095064394 -0.0029471089 -7.3814006e-23)
(-0.0012301585 -0.0033670579 5.7967112e-22)
(-0.0015773388 -0.0038227618 -2.1324601e-23)
(-0.002005791 -0.0043124299 4.7644049e-24)
(-0.0025311861 -0.0048325957 3.3070752e-22)
(-0.0031713445 -0.0053777653 -4.2147241e-22)
(-0.0039462214 -0.0059400702 1.9908392e-22)
(-0.0048777451 -0.0065089594 -3.7024428e-23)
(-0.005989444 -0.007070987 -2.6657173e-22)
(-0.0073057857 -0.0076097681 2.5805889e-22)
(-0.0088511377 -0.0081062218 3.98159e-22)
(-0.010648263 -0.0085392659 -3.0904742e-22)
(-0.012716292 -0.0088872162 -1.4635226e-21)
(-0.015068203 -0.0091302201 -1.661503e-22)
(-0.017708103 -0.0092540042 1.3962347e-21)
(-0.020628961 -0.0092546542 3.1214944e-22)
(-0.023811965 -0.0091426537 1.057927e-21)
(-0.027228796 -0.008942745 -1.3144972e-21)
(-0.030846923 -0.0086873612 3.2241027e-22)
(-0.034635582 -0.0084067085 1.438851e-22)
(-0.038569117 -0.008121948 1.3366861e-21)
(-0.042626804 -0.0078442573 -5.5248396e-22)
(-0.046791033 -0.0075774051 7.9249554e-22)
(-0.051045784 -0.0073206267 5.1465545e-22)
(-0.055376137 -0.0070703957 2.2861536e-22)
(-0.059768775 -0.0068209833 -6.7629298e-22)
(-0.064213323 -0.0065640428 -1.2588724e-21)
(-0.068704392 -0.0062873809 -1.1350745e-21)
(-0.073244596 -0.0059729183 -4.9569637e-22)
(-0.07784717 -0.0055938253 2.4271279e-21)
(-0.082540454 -0.0051106377 1.7924964e-21)
(-0.087373544 -0.0044657135 -4.4649857e-22)
(-0.092410735 -0.0035783087 3.0713871e-21)
(-0.097733699 -0.0023385328 1.0572553e-21)
(-0.10343761 -0.00059633156 -1.0910594e-21)
(-0.10962542 0.0018501096 -2.6999341e-21)
(-0.116377 0.0052660977 1.6788165e-21)
(-0.12375625 0.0099996644 1.0665328e-21)
(-0.13170101 0.016480236 -2.7954346e-21)
(-0.14011337 0.025214689 -1.3221277e-21)
(-0.14849218 0.036656828 -9.4052666e-22)
(-0.15638079 0.051021291 7.3598069e-22)
(-0.16235462 0.06775751 -1.943821e-21)
(-0.16572583 0.08486575 -1.5990461e-21)
(-0.1635861 0.097696698 -3.8585555e-22)
(-0.15691056 0.099261131 9.9193567e-22)
(-0.14053254 0.078769842 7.1380373e-22)
(-0.11585619 0.028142744 2.5465886e-21)
(-0.062867269 -0.052401277 3.0745111e-22)
(0.0042877827 -0.1394586 -2.0103155e-21)
(0.096002992 -0.18989219 8.5766135e-22)
(1.4385505e-07 -5.4886637e-06 -8.4400452e-24)
(-1.4884482e-06 -1.6223782e-05 1.1360525e-21)
(-5.8846674e-06 -2.7902225e-05 -1.010392e-21)
(-1.3927075e-05 -4.1522368e-05 2.752306e-22)
(-2.6732505e-05 -5.8262696e-05 5.6810312e-22)
(-4.5605553e-05 -7.9430848e-05 -1.0843808e-21)
(-7.2249001e-05 -0.00010648245 1.1287898e-21)
(-0.00010877056 -0.0001410098 -9.9178412e-23)
(-0.00015776928 -0.00018472399 3.090027e-22)
(-0.00022244185 -0.00023942795 5.2314018e-24)
(-0.00030670101 -0.00030697613 1.0257698e-21)
(-0.00041531111 -0.00038921944 -1.623307e-21)
(-0.0005540415 -0.00048793167 -1.3345156e-22)
(-0.000729837 -0.00060471536 1.3090662e-21)
(-0.00095100274 -0.00074088412 -3.9892404e-22)
(-0.0012273983 -0.00089731999 -2.5094724e-22)
(-0.0015706329 -0.0010743059 1.5749291e-21)
(-0.0019942472 -0.0012713357 -5.0607643e-21)
(-0.0025138639 -0.0014869079 3.1174784e-21)
(-0.0031472775 -0.0017183174 -3.6650351e-21)
(-0.0039144464 -0.0019614629 5.2973471e-21)
(-0.0048373368 -0.0022107058 -1.2668154e-21)
(-0.0059395544 -0.0024588217 -5.0809108e-22)
(-0.0072456855 -0.0026971108 1.6130798e-21)
(-0.0087802568 -0.002915749 -5.6210521e-21)
(-0.010566223 -0.0031044812 -8.1184848e-22)
(-0.012622921 -0.0032537757 4.05956e-21)
(-0.014963533 -0.0033565133 -4.3874188e-21)
(-0.017592317 -0.0034101168 5.7750394e-22)
(-0.020502311 -0.0034185478 5.4326026e-21)
(-0.02367465 -0.0033928794 -5.3574667e-22)
(-0.027080828 -0.0033489808 -3.8961929e-21)
(-0.030688006 -0.003302567 -9.4816785e-23)
(-0.034465041 -0.0032645362 2.5762109e-21)
(-0.038385896 -0.0032394341 -2.705828e-21)
(-0.042429491 -0.0032267633 1.1538593e-21)
(-0.046577851 -0.0032229805 -1.2899616e-21)
(-0.050814533 -0.0032227765 -3.9518294e-21)
(-0.055124071 -0.0032193977 -8.603482e-22)
(-0.059492397 -0.0032042256 -3.290351e-21)
(-0.063908073 -0.0031657765 4.1646628e-21)
(-0.068364174 -0.003088152 3.8157454e-21)
(-0.072861097 -0.0029489 6.5552618e-22)
(-0.077408938 -0.0027161323 -5.2657124e-21)
(-0.0820315 -0.0023444788 2.5123441e-21)
(-0.086771421 -0.0017712558 8.8258675e-22)
(-0.091684085 -0.00091351469 -4.8865349e-22)
(-0.096838926 0.00033965902 -1.5196424e-21)
(-0.10231439 0.0021364253 7.550056e-22)
(-0.1081914 0.0046705909 -1.3664706e-21)
(-0.11452055 0.0081922722 -8.3675921e-21)
(-0.12133037 0.013023727 -4.1042344e-22)
(-0.12851582 0.019556803 1.8369691e-21)
(-0.13594114 0.0282411 -4.0383884e-21)
(-0.14307744 0.039459511 3.4546781e-21)
(-0.1495004 0.053342487 -9.7159056e-21)
(-0.15392353 0.069262989 -2.7167181e-21)
(-0.15583276 0.085146405 7.5876934e-21)
(-0.15249859 0.096508903 -1.274449e-21)
(-0.14524731 0.096113032 -1.3992211e-21)
(-0.12716447 0.072902859 -2.666656e-22)
(-0.10001323 0.017074778 3.823782e-21)
(-0.039942047 -0.070086127 -5.8445055e-21)
(0.036363895 -0.16209869 -1.5243885e-21)
(0.13210441 -0.21280451 -1.1724666e-21)
(-2.356923e-06 3.2860164e-05 -4.6449781e-22)
(-9.1954971e-06 0.0001024841 3.4304726e-22)
(-1.9231995e-05 0.00017947298 9.1188987e-23)
(-3.3479151e-05 0.0002635525 -8.6395114e-23)
(-5.2919199e-05 0.00035435588 4.1834092e-22)
(-7.8901312e-05 0.00045139209 3.110099e-23)
(-0.0001131034 0.00055404863 3.9654359e-22)
(-0.00015759915 0.00066158934 4.2657482e-22)
(-0.00021494245 0.00077315498 -3.478582e-21)
(-0.00028827074 0.00088776876 3.0979446e-21)
(-0.00038142002 0.0010043479 -1.4778216e-21)
(-0.00049905809 0.0011217226 -2.1570876e-21)
(-0.00064683559 0.0012386642 4.2568349e-21)
(-0.00083155395 0.0013539228 5.2403768e-22)
(-0.0010613479 0.0014662768 -2.0077139e-21)
(-0.0013458777 0.001574593 -1.3681214e-21)
(-0.0016965224 0.0016778971 1.5696187e-21)
(-0.0021265617 0.0017754507 -5.6095725e-21)
(-0.0026513262 0.0018668278 3.2651405e-21)
(-0.0032882891 0.0019519795 -1.5868909e-21)
(-0.0040570614 0.0020312676 5.2429299e-21)
(-0.0049792411 0.0021054386 1.3337061e-21)
(-0.0060780519 0.002175503 -2.7117416e-21)
(-0.0073776935 0.0022424677 3.9717927e-21)
(-0.0089023129 0.0023068727 1.5194646e-21)
(-0.010674507 0.0023680893 -1.7670587e-21)
(-0.0127133 0.0024234006 -9.7219885e-21)
(-0.015031631 0.0024670312 -4.2527875e-21)
(-0.01763365 0.0024896045 2.0400128e-21)
(-0.020512471 0.0024788956 -2.1048729e-21)
(-0.023649556 0.0024227447 1.2480857e-21)
(-0.027016932 0.0023136767 6.7513717e-21)
(-0.030582336 0.0021524496 -2.1353262e-21)
(-0.034315038 0.0019475766 -6.0321079e-21)
(-0.038189131 0.0017114737 1.8934423e-21)
(-0.042183388 0.0014566999 2.5242941e-21)
(-0.046279445 0.0011943904 -4.1805476e-21)
(-0.05046025 0.000934553 -1.2298571e-21)
(-0.054709472 0.00068721072 2.133237e-21)
(-0.05901185 0.00046382249 8.4399957e-22)
(-0.063354296 0.00027887516 -4.0094914e-21)
(-0.067727583 0.00015175641 1.1277206e-21)
(-0.072128878 0.00010898869 1.6542325e-21)
(-0.07656374 0.00018711098 4.4694702e-21)
(-0.081049748 0.00043682411 -8.6273311e-21)
(-0.085620471 0.00092517558 5.674726e-21)
(-0.090318916 0.0017365045 1.4489623e-21)
(-0.095198055 0.0029816303 5.8733473e-21)
(-0.10031367 0.0048054005 7.1641921e-21)
(-0.1057166 0.0073920021 3.7402228e-22)
(-0.11141724 0.010974693 -1.5377402e-21)
(-0.11739424 0.01584885 1.1731778e-20)
(-0.12347939 0.02236958 5.0364325e-21)
(-0.12947187 0.030934215 5.2064005e-21)
(-0.13477206 0.041869697 1.683512e-21)
(-0.13893705 0.055255664 1.3069166e-20)
(-0.1407408 0.070432166 -5.0754609e-21)
(-0.13977435 0.085232273 1.5186263e-21)
(-0.13335938 0.095365538 1.2543301e-20)
(-0.12284341 0.09314659 5.0321289e-21)
(-0.099617626 0.067285442 -5.9641177e-21)
(-0.065766854 0.0056189402 -2.018778e-20)
(0.006911811 -0.088427822 5.1236744e-21)
(0.096313901 -0.18449844 6.6824576e-21)
(0.19734866 -0.23314395 1.5689529e-21)
(-6.9596896e-06 7.0465439e-05 1.5545802e-21)
(-2.3430852e-05 0.00021887933 -2.4718682e-21)
(-4.398139e-05 0.00038283122 8.9329639e-22)
(-6.968639e-05 0.00056277974 -9.7042213e-23)
(-0.00010155234 0.00075914578 1.9170491e-21)
(-0.00014094005 0.00097226115 -1.9814059e-21)
(-0.00018953608 0.0012023626 3.0020335e-21)
(-0.00024940345 0.0014495798 -1.4100569e-21)
(-0.00032306871 0.0017139192 -5.351372e-21)
(-0.00041361811 0.001995249 1.2835401e-21)
(-0.000524809 0.002293283 4.8749082e-21)
(-0.00066119698 0.0026075645 -1.4827158e-21)
(-0.00082828083 0.0029374495 -9.8529228e-23)
(-0.0010326637 0.0032820901 3.8425658e-21)
(-0.0012822285 0.003640416 -1.1940534e-20)
(-0.0015863227 0.0040111142 7.2710656e-21)
(-0.0019559447 0.0043926025 6.8753794e-23)
(-0.0024039188 0.004782995 -3.9370309e-21)
(-0.0029450408 0.0051800494 9.8627549e-21)
(-0.0035961662 0.0055810867 -4.5816462e-21)
(-0.0043762055 0.0059828658 -6.7135215e-21)
(-0.0053059773 0.0063813886 -2.6656743e-21)
(-0.006407856 0.0067716051 1.2898847e-20)
(-0.0077051378 0.007146984 6.5865841e-21)
(-0.0092210371 0.0074989257 -4.1501802e-21)
(-0.010977226 0.0078160364 2.3609813e-21)
(-0.012991867 0.0080834065 -8.6015496e-21)
(-0.015277194 0.0082823017 2.4007804e-21)
(-0.017836935 0.0083911069 -6.2699184e-21)
(-0.020664247 0.0083887192 3.4168519e-21)
(-0.023741245 0.0082609299 -2.0325351e-21)
(-0.027041186 0.0080075827 7.122681e-21)
(-0.030533277 0.0076451597 -9.6946044e-22)
(-0.034188028 0.0072014479 4.8656721e-21)
(-0.037980232 0.0067061819 -4.4168061e-21)
(-0.041888774 0.0061844984 -1.3544478e-21)
(-0.045894917 0.0056555521 1.6105625e-20)
(-0.04998082 0.0051343008 4.0707207e-21)
(-0.054128978 0.004634124 -3.287108e-21)
(-0.05832249 0.0041692747 3.180595e-21)
(-0.062546027 0.0037570877 -8.0818615e-22)
(-0.066787285 0.0034201778 -5.1027186e-21)
(-0.071039163 0.0031887622 2.4112171e-22)
(-0.075301307 0.0031035518 1.7426833e-21)
(-0.079583352 0.0032199043 -8.5711837e-22)
(-0.083907233 0.0036083325 4.254593e-22)
(-0.088300084 0.0043537331 1.2798992e-21)
(-0.092794092 0.0055656246 -2.0319809e-20)
(-0.097416347 0.0073837724 2.2986775e-21)
(-0.10217921 0.0099808249 -2.1671286e-21)
(-0.10704134 0.013571144 2.0590778e-20)
(-0.11191576 0.01842147 -1.1398534e-20)
(-0.11654823 0.024850223 -9.3609711e-21)
(-0.1206409 0.033205418 -8.9150463e-21)
(-0.12347152 0.043772071 -8.5229216e-21)
(-0.12451727 0.05660876 -1.3286774e-20)
(-0.12251324 0.071057249 2.6299879e-20)
(-0.11704179 0.084868744 -1.6091219e-20)
(-0.10526558 0.09397651 -2.4282691e-20)
(-0.088017467 0.089994949 1.8436754e-20)
(-0.055313214 0.061591789 5.6973923e-21)
(-0.0084422485 -0.0060849655 4.2435498e-21)
(0.084316739 -0.10715534 -2.3080115e-20)
(0.19134095 -0.20531525 -1.2275299e-20)
(0.2986356 -0.24811615 -8.5392681e-23)
(-1.361964e-05 0.00010665943 -1.0942989e-21)
(-4.3965667e-05 0.00033092136 3.6307566e-21)
(-7.9719499e-05 0.00057859958 -2.9585578e-21)
(-0.00012199961 0.00085088657 1.1174022e-21)
(-0.00017187872 0.0011489819 4.0341348e-22)
(-0.00023076389 0.0014740328 -3.4681717e-21)
(-0.00030037379 0.0018271219 8.7731858e-22)
(-0.00038278562 0.0022092456 1.860532e-21)
(-0.00048051648 0.0026212831 1.4249624e-22)
(-0.00059661294 0.0030639616 1.2082558e-21)
(-0.00073475493 0.0035378143 -1.6876101e-21)
(-0.00089937428 0.0040431311 1.1692617e-21)
(-0.0010957899 0.0045799 4.2921349e-21)
(-0.0013303578 0.0051477378 1.2459223e-22)
(-0.0016106349 0.0057458066 -3.2457496e-21)
(-0.0019455512 0.006372716 -2.2829766e-21)
(-0.0023455829 0.0070264033 1.9481417e-21)
(-0.0028229158 0.0077039889 -1.8480702e-22)
(-0.0033915794 0.0084015981 -3.7148267e-21)
(-0.0040675272 0.009114137 -4.4639651e-21)
(-0.0048686277 0.0098350091 5.0126201e-21)
(-0.0058145194 0.010555749 4.9535469e-21)
(-0.0069262685 0.011265552 -6.5318103e-21)
(-0.0082257563 0.011950672 7.9061039e-21)
(-0.009734711 0.012593698 1.3378283e-20)
(-0.011473304 0.013172775 -3.0726455e-20)
(-0.013458274 0.013661027 1.645716e-20)
(-0.015700641 0.014026814 -2.3675056e-20)
(-0.018203349 0.014235997 2.8631197e-20)
(-0.020959474 0.014257788 -3.0818923e-20)
(-0.023952013 0.014074524 3.0573242e-20)
(-0.027156059 0.013691662 -4.900689e-21)
(-0.030543149 0.013140069 -1.6110551e-20)
(-0.034085892 0.012466357 8.6001142e-21)
(-0.037760411 0.011717924 -2.542946e-21)
(-0.041546039 0.010933141 -7.0591023e-22)
(-0.045423719 0.010139762 -8.3721435e-21)
(-0.049374687 0.009358054 -2.6468122e-21)
(-0.053379955 0.008604892 -2.5874845e-21)
(-0.057420549 0.0078972884 -2.5222785e-21)
(-0.061478297 0.0072552482 1.272573e-20)
(-0.065537042 0.0067043078 -5.5787967e-21)
(-0.069584365 0.0062779406 -8.926523e-22)
(-0.073612649 0.0060204612 1.0402923e-20)
(-0.0776218 0.0059911199 5.3503431e-21)
(-0.081619593 0.0062628441 -2.6848377e-21)
(-0.085613887 0.0069201507 -9.8558053e-21)
(-0.089611468 0.0080698947 4.3816765e-21)
(-0.093604525 0.0098446726 -1.288695e-20)
(-0.097558125 0.012403254 -7.0770537e-21)
(-0.10136672 0.015938529 -9.8787406e-21)
(-0.10486012 0.020685923 -2.6542544e-20)
(-0.10767183 0.026925783 2.0569979e-20)
(-0.10936879 0.034956907 -6.6518407e-21)
(-0.1090457 0.045034437 1.1409934e-20)
(-0.10603205 0.057223997 1.0803618e-20)
(-0.098898256 0.070908293 4.0970049e-21)
(-0.087029537 0.083743958 3.7861331e-20)
(-0.067177575 0.0918431 1.0194077e-20)
(-0.039200071 0.086069253 -2.3884922e-20)
(0.0085217158 0.055084076 -9.5391896e-21)
(0.077418218 -0.018651153 6.4001511e-21)
(0.19906586 -0.12584351 1.1505634e-20)
(0.32824434 -0.22284331 1.4457729e-20)
(0.44201839 -0.25371917 -1.2165186e-23)
(-2.2179022e-05 0.00014076186 -3.3341933e-21)
(-7.0357254e-05 0.00043650982 -1.1761042e-21)
(-0.00012565863 0.00076312896 9.516906e-22)
(-0.0001892695 0.0011225243 3.5124683e-21)
(-0.00026236132 0.0015166532 -1.9231912e-21)
(-0.00034641663 0.0019474605 2.7656429e-21)
(-0.00044321377 0.0024168616 -1.1953892e-21)
(-0.00055486887 0.0029267111 -2.8437506e-22)
(-0.00068391 0.0034787596 1.6068755e-21)
(-0.00083335807 0.0040746011 3.4564822e-21)
(-0.001006821 0.004715608 1.734018e-22)
(-0.0012086007 0.005402851 -5.6525402e-21)
(-0.0014438152 0.0061370026 7.793347e-21)
(-0.0017185336 0.0069182182 -1.2531013e-20)
(-0.0020399236 0.0077459936 3.25818e-21)
(-0.0024164059 0.0086189927 -6.8819254e-21)
(-0.0028578096 0.0095348401 8.2596813e-21)
(-0.0033755166 0.010489872 -5.3194417e-21)
(-0.0039825793 0.011478836 8.3132701e-22)
(-0.0046937875 0.012494528 3.3354096e-21)
(-0.0055256501 0.013527353 -8.00285e-21)
(-0.0064962494 0.014564788 1.1126634e-20)
(-0.0076249083 0.015590731 -1.1902454e-20)
(-0.0089316021 0.01658472 -2.0107177e-21)
(-0.010436034 0.017521055 1.9332878e-20)
(-0.012156305 0.018367922 -1.9138188e-20)
(-0.014107153 0.019086903 1.2162749e-20)
(-0.016297849 0.019633651 -1.3323343e-20)
(-0.018730115 0.019961275 -1.2428553e-21)
(-0.021396712 0.02002835 -7.5573857e-22)
(-0.024281593 0.019811948 4.7987547e-21)
(-0.027362143 0.019320791 -3.1738327e-22)
(-0.030613009 0.018598129 1.6588684e-20)
(-0.03400976 0.017708528 -4.2584796e-21)
(-0.03753056 0.016717309 -1.2158754e-20)
(-0.0411556 0.015676862 5.4092766e-21)
(-0.044865633 0.014624289 -4.2643184e-21)
(-0.048640863 0.013585652 4.1482592e-21)
(-0.052460547 0.012581534 2.2561244e-20)
(-0.056303201 0.011631693 -1.2271982e-20)
(-0.06014722 0.010758611 -2.9896687e-21)
(-0.063971812 0.0099903985 1.6907147e-20)
(-0.067758174 0.0093632883 -9.7037805e-22)
(-0.071490116 0.0089245643 -2.0896307e-21)
(-0.075156029 0.0087364709 -2.3006963e-20)
(-0.078746818 0.0088732025 -5.403837e-21)
(-0.082247816 0.0094177326 8.6135449e-21)
(-0.085635659 0.010472736 8.9186739e-21)
(-0.088860946 0.012161221 1.2819743e-20)
(-0.091832025 0.014625206 1.5942007e-20)
(-0.094365437 0.018032787 9.7598395e-21)
(-0.09618784 0.022584069 1.5363132e-20)
(-0.096790152 0.028518133 -5.2144181e-21)
(-0.095559905 0.036081422 3.2158804e-20)
(-0.091345944 0.045511503 2.0881422e-21)
(-0.083269416 0.056896895 1.7643699e-21)
(-0.069602318 0.069666372 9.2865513e-22)
(-0.049164064 0.081448027 -4.1461468e-20)
(-0.018219039 0.088412177 -1.6548639e-20)
(0.024797557 0.080603678 2.6638288e-20)
(0.093762251 0.046388563 3.97812e-20)
(0.19532317 -0.033617059 1.8124811e-20)
(0.35274232 -0.14454737 4.8188568e-21)
(0.50454656 -0.23625854 -2.0638164e-20)
(0.61861968 -0.24713561 2.0844205e-21)
(-3.2414945e-05 0.00017211167 6.2995299e-22)
(-0.00010192023 0.00053360001 2.0008307e-21)
(-0.00018060785 0.00093285228 -4.8273715e-21)
(-0.00026975595 0.0013724548 1.7931256e-22)
(-0.00037066547 0.0018550899 2.3478768e-21)
(-0.00048492292 0.0023834714 1.0341392e-21)
(-0.00061439365 0.0029603225 7.6293492e-22)
(-0.0007612582 0.0035883373 -1.5017639e-21)
(-0.00092807773 0.004270127 7.7641019e-21)
(-0.0011178647 0.0050081527 -5.8488607e-21)
(-0.001334165 0.0058046402 2.8246146e-22)
(-0.0015811514 0.0066614738 3.5242072e-21)
(-0.0018637287 0.0075800648 -1.3144134e-20)
(-0.0021876514 0.0085611905 1.3052339e-20)
(-0.0025596497 0.0096047968 -1.730597e-21)
(-0.0029875621 0.010709759 -1.0652993e-20)
(-0.0034804671 0.011873593 9.9529794e-21)
(-0.0040488038 0.013092109 -3.4515962e-21)
(-0.0047044676 0.014358999 6.6458599e-21)
(-0.0054608564 0.015665337 -8.4385899e-21)
(-0.0063328394 0.016998991 -1.5651403e-20)
(-0.0073366056 0.018343916 1.5274523e-20)
(-0.0084893388 0.019679322 2.2023295e-20)
(-0.0098086535 0.020978706 -4.1720504e-20)
(-0.011311721 0.022208791 3.2792054e-20)
(-0.013014021 0.023328527 -1.8621864e-20)
(-0.014927716 0.024288585 4.6855208e-21)
(-0.017059763 0.025032305 -1.0801309e-20)
(-0.019410147 0.025499921 1.0737572e-20)
(-0.021970937 0.025638371 1.4037503e-20)
(-0.024726912 0.025417322 -8.9918629e-21)
(-0.027657996 0.024845791 -1.4325224e-20)
(-0.030742568 0.023976661 1.193741e-21)
(-0.033960004 0.022891033 4.7301875e-22)
(-0.037291286 0.02167223 7.9804991e-21)
(-0.040717979 0.020387531 -3.3012178e-21)
(-0.044220859 0.01908432 -1.1628219e-20)
(-0.04777905 0.017795094 -5.6817793e-21)
(-0.051369802 0.016544446 8.4470772e-21)
(-0.054968704 0.0153549 -6.541992e-21)
(-0.05855013 0.014251221 5.5390046e-21)
(-0.062087864 0.013263705 -1.8219905e-21)
(-0.065555662 0.012430801 -7.0703952e-21)
(-0.068927431 0.01180207 1.7122328e-20)
(-0.0721782 0.011441667 1.0310959e-20)
(-0.075279285 0.011423779 6.8157437e-21)
(-0.078190087 0.01182866 -2.178745e-20)
(-0.080852203 0.012752855 -1.4316434e-20)
(-0.083167346 0.014307012 -1.6967924e-20)
(-0.084976749 0.016612935 -2.9840458e-20)
(-0.086003557 0.019809662 1.0296592e-20)
(-0.085848017 0.024056334 -2.2190235e-21)
(-0.083822238 0.029545678 -1.7257184e-20)
(-0.079085129 0.036466533 -5.0282043e-20)
(-0.070186859 0.045045041 -3.2742084e-20)
(-0.056030906 0.05541098 -1.2736414e-20)
(-0.034275307 0.067027409 -3.7051595e-20)
(-0.0028198749 0.077496787 2.5277987e-20)
(0.04216062 0.083051488 -2.7516471e-21)
(0.10465129 0.072681782 -4.3674702e-20)
(0.20131193 0.034000853 -3.0680375e-20)
(0.34412336 -0.051598749 -1.2425885e-21)
(0.53562859 -0.16310508 4.344877e-20)
(0.69852348 -0.2442491 -3.9732494e-21)
(0.79021748 -0.23317912 1.1669445e-21)
(-4.4031102e-05 0.00020008778 2.4889172e-21)
(-0.00013774308 0.00062027222 -1.6779213e-21)
(-0.00024298289 0.00108442 2.2657104e-21)
(-0.00036114305 0.0015957565 1.2871698e-21)
(-0.00049368185 0.0021576445 -3.5896991e-21)
(-0.00064231656 0.0027735262 -3.3486899e-21)
(-0.00080902604 0.0034468956 3.4330228e-21)
(-0.00099608074 0.0041812562 -4.1274715e-22)
(-0.0012060984 0.0049800583 -9.5485741e-23)
(-0.0014421032 0.0058466205 -6.7720802e-21)
(-0.0017075944 0.0067840288 7.4073089e-22)
(-0.0020066234 0.0077950079 1.3594508e-20)
(-0.0023438811 0.0088817624 -1.0837276e-20)
(-0.002724793 0.010045778 3.7181463e-22)
(-0.0031556223 0.011287576 7.2059076e-21)
(-0.0036435751 0.01260642 6.1677554e-22)
(-0.0041969046 0.013999949 -1.5592537e-21)
(-0.0048250023 0.015463749 -6.9748955e-21)
(-0.0055384654 0.016990831 1.266706e-20)
(-0.0063491176 0.01857101 -2.2048754e-20)
(-0.0072699582 0.020190172 4.6987299e-21)
(-0.0083149998 0.021829404 -3.4090392e-21)
(-0.0094989462 0.02346398 2.7575132e-21)
(-0.010836652 0.025062196 -1.1737646e-22)
(-0.012342297 0.026584113 1.5820794e-20)
(-0.014028226 0.027980378 1.547757e-20)
(-0.015903469 0.02919162 -3.002569e-20)
(-0.017972077 0.030149493 -4.8957985e-21)
(-0.020231717 0.03078142 1.6609879e-20)
(-0.022673224 0.031021753 5.7364367e-21)
(-0.025281835 0.030830416 1.2622104e-20)
(-0.028039963 0.030213195 -1.3688396e-20)
(-0.030930123 0.029229052 -5.7556205e-21)
(-0.033936261 0.027973495 1.2760169e-20)
(-0.03704301 0.026547592 -5.1215599e-21)
(-0.040233952 0.025034414 -2.3838687e-21)
(-0.043490203 0.023492739 6.5465434e-21)
(-0.046789833 0.021962323 1.670532e-20)
(-0.05010788 0.020472192 4.9869612e-21)
(-0.053416598 0.019047712 -3.2442451e-21)
(-0.056685752 0.017715741 -7.6723934e-21)
(-0.059882903 0.016508349 -7.9484402e-21)
(-0.062973299 0.015465613 -8.8403567e-21)
(-0.065919569 0.014638599 -1.8697959e-20)
(-0.068681393 0.014092163 5.4669533e-22)
(-0.071207742 0.013899094 -8.0667688e-21)
(-0.073428448 0.014135583 4.4714533e-20)
(-0.075244694 0.014889786 1.2542173e-20)
(-0.076501112 0.016256749 1.448875e-20)
(-0.076959771 0.018333946 4.0442276e-20)
(-0.07623206 0.021225984 -4.7449738e-20)
(-0.073762867 0.025043548 1.0574984e-20)
(-0.068640699 0.029927965 3.3918947e-20)
(-0.059748025 0.03600631 4.1391924e-20)
(-0.045295812 0.043545324 5.2146169e-21)
(-0.023987151 0.052545838 -1.2880362e-20)
(0.0081901155 0.062698225 -2.0586466e-20)
(0.052631545 0.071535148 8.7368422e-21)
(0.11463533 0.075207409 -1.6115107e-20)
(0.20087665 0.061445633 1.4011454e-20)
(0.33207443 0.01720451 5.0209006e-21)
(0.51809379 -0.072440677 1.4565428e-20)
(0.73164545 -0.17871788 -5.4228783e-20)
(0.87301846 -0.24617289 -7.7633602e-22)
(0.91224876 -0.21966066 -4.4151298e-21)
(-5.6663803e-05 0.00022413367 -2.3399073e-21)
(-0.00017670674 0.00069480549 -6.2645386e-22)
(-0.00031083832 0.0012148275 6.8798488e-22)
(-0.00046058575 0.0017880108 3.3796529e-21)
(-0.00062758876 0.0024183426 -4.0502739e-21)
(-0.0008137195 0.0031099405 3.4361664e-21)
(-0.001021095 0.0038670206 1.6404344e-21)
(-0.0012521006 0.0046938528 -8.7758996e-23)
(-0.0015094351 0.0055946928 -1.3803804e-21)
(-0.0017961571 0.0065736961 -7.8336594e-21)
(-0.0021157396 0.0076348046 1.3117796e-20)
(-0.0024721293 0.0087816028 -1.5709522e-20)
(-0.0028698132 0.010017136 4.5945914e-21)
(-0.0033138906 0.011343682 6.206031e-21)
(-0.0038101486 0.01276247 -9.4632876e-21)
(-0.0043651383 0.014273333 1.8526496e-20)
(-0.0049862457 0.015874287 -2.227506e-20)
(-0.0056817505 0.017561022 -3.4823121e-22)
(-0.0064608584 0.019326285 -1.2518967e-20)
(-0.007333692 0.021159154 4.9106577e-20)
(-0.0083112122 0.023044167 -1.1736924e-20)
(-0.0094050399 0.024960296 -4.7894621e-20)
(-0.01062713 0.026879756 2.2296873e-20)
(-0.011989249 0.028766639 2.6182066e-20)
(-0.013502194 0.030575442 -6.469723e-21)
(-0.015174718 0.032249664 -3.3287457e-20)
(-0.017012192 0.03372101 4.9485302e-20)
(-0.01901517 0.034910343 -5.3789437e-20)
(-0.021178344 0.035732607 4.1406782e-20)
(-0.023490626 0.036108816 -7.7245204e-21)
(-0.025937059 0.035986781 1.289864e-20)
(-0.028502146 0.035365105 1.7771043e-20)
(-0.031172616 0.034304455 -6.6769677e-21)
(-0.033937585 0.032911727 -1.6282044e-21)
(-0.036786203 0.03130496 -2.2856474e-20)
(-0.03970483 0.029583835 4.2144659e-21)
(-0.042675382 0.027819806 -1.053294e-20)
(-0.045675 0.026060916 8.7174333e-21)
(-0.048676349 0.024341195 -4.9503203e-21)
(-0.051647969 0.022689016 -3.2338447e-21)
(-0.054554415 0.02113316 -2.7727037e-21)
(-0.057356195 0.019707052 -2.7123227e-21)
(-0.060008928 0.018451763 1.670263e-20)
(-0.062462498 0.017419021 1.334621e-20)
(-0.064659001 0.016673059 -3.7607598e-21)
(-0.066522152 0.016283769 2.470445e-21)
(-0.067948094 0.016321764 -1.0280674e-20)
(-0.068791301 0.016864183 2.0780261e-20)
(-0.068829452 0.017986751 2.4438069e-20)
(-0.067730437 0.019757799 7.1155644e-21)
(-0.064970207 0.022240796 1.879654e-20)
(-0.059798414 0.025488929 -6.0019778e-22)
(-0.051023734 0.029589306 -9.0957892e-21)
(-0.037186205 0.034617676 -4.3254669e-20)
(-0.016180528 0.040847172 2.1464682e-20)
(0.014157869 0.048133923 -8.3285765e-21)
(0.058802713 0.056459174 2.4471445e-20)
(0.11804638 0.063390302 -4.0864757e-20)
(0.20056338 0.064583492 2.3835428e-20)
(0.31586356 0.046444189 -8.7209311e-21)
(0.48788433 -0.0033743145 8.7279782e-25)
(0.71073415 -0.092710318 -7.2337148e-21)
(0.91852475 -0.18670646 -2.0666445e-20)
(1.0014603 -0.23513436 2.8493587e-20)
(0.98139319 -0.20319915 -1.0614731e-20)
(-6.9892145e-05 0.00024378906 5.2340204e-21)
(-0.00021752353 0.00075577265 3.5990241e-21)
(-0.00038193104 0.001321581 -5.6477701e-21)
(-0.00056480327 0.0019455445 1.486187e-22)
(-0.00076797667 0.0026322086 5.1011932e-21)
(-0.00099349942 0.0033863011 2.6655547e-21)
(-0.0012436487 0.0042126991 -5.6132282e-21)
(-0.0015209482 0.0051163828 9.2082019e-22)
(-0.0018282018 0.0061023665 -1.2966377e-20)
(-0.0021685282 0.0071756076 2.5233299e-21)
(-0.0025453989 0.0083408875 6.4584689e-23)
(-0.0029626804 0.0096026567 -9.2441469e-21)
(-0.0034246786 0.010964838 2.954412e-20)
(-0.0039361856 0.012430576 -1.3722427e-20)
(-0.0045025269 0.014001931 -2.4492726e-20)
(-0.0051296045 0.015679491 2.5981986e-20)
(-0.0058239336 0.017461904 -3.1823425e-21)
(-0.0065926623 0.019345303 1.7957754e-20)
(-0.0074435671 0.021322618 1.3241709e-20)
(-0.0083850053 0.023382748 -4.1301776e-20)
(-0.0094258045 0.025509568 3.0714545e-20)
(-0.010575059 0.027680767 -4.0002402e-20)
(-0.011841793 0.02986648 4.643375e-21)
(-0.013234444 0.032027725 -1.8738449e-20)
(-0.014760122 0.034114696 4.0161998e-20)
(-0.016423608 0.03606511 -9.3752603e-21)
(-0.018226144 0.037803121 -2.329218e-20)
(-0.020164216 0.03924 5.5291719e-20)
(-0.022228839 0.040278893 -2.3539554e-20)
(-0.024406159 0.040827064 -2.479884e-20)
(-0.026680099 0.040818041 1.9951264e-20)
(-0.029036438 0.040239075 2.594272e-21)
(-0.031465772 0.039147388 -1.2550711e-20)
(-0.033962709 0.037657216 6.6656346e-21)
(-0.036521737 0.035902015 -9.8591007e-21)
(-0.03913288 0.033998648 3.331201e-20)
(-0.041779475 0.03203264 -1.6934576e-20)
(-0.044437985 0.030061572 -9.9356041e-21)
(-0.047078615 0.02812524 -2.0009147e-20)
(-0.049665822 0.026255294 -2.710163e-21)
(-0.052158334 0.024482324 2.0869202e-20)
(-0.054508697 0.022840682 -8.3878e-21)
(-0.056661666 0.021371776 -1.2427908e-20)
(-0.058552724 0.020127077 -1.8994163e-21)
(-0.060103679 0.019168798 1.2498204e-20)
(-0.061209757 0.018562345 1.1134731e-20)
(-0.061728261 0.018371031 -3.4341719e-20)
(-0.06145894 0.018657965 -1.8417174e-20)
(-0.060099466 0.01947537 -4.04071e-20)
(-0.057202987 0.020856903 -1.4313894e-20)
(-0.052075862 0.022816554 -5.5800388e-21)
(-0.043714522 0.025340953 -4.0993134e-20)
(-0.030582075 0.028461152 -1.5832021e-20)
(-0.010809967 0.032227592 5.3029403e-20)
(0.018164661 0.036837631 -4.1432302e-20)
(0.059784849 0.042051585 3.7356983e-20)
(0.11813756 0.048345946 -1.7247397e-20)
(0.19608285 0.053154661 8.2969229e-20)
(0.30411045 0.051259253 4.2053297e-20)
(0.45709067 0.028607376 -1.7563824e-20)
(0.67166534 -0.024886951 -2.7740799e-20)
(0.91101995 -0.10704292 -4.4621356e-20)
(1.0662639 -0.18325623 -4.6171012e-21)
(1.0753502 -0.21547427 -4.2219576e-21)
(1.0140656 -0.18095729 1.4288053e-20)
(-8.3254314e-05 0.00025871127 9.5055655e-23)
(-0.0002587818 0.00080210401 -6.7625531e-21)
(-0.00045380046 0.0014028082 7.9687706e-21)
(-0.00067019527 0.0020655919 3.8327595e-21)
(-0.00091000482 0.0027954848 -7.6714252e-21)
(-0.0011754701 0.0035977487 -2.4827052e-21)
(-0.0014690471 0.0044778477 1.2028508e-20)
(-0.0017934186 0.0054414033 -1.2927738e-20)
(-0.0021515177 0.006494127 -2.7229339e-21)
(-0.0025465491 0.0076417292 -1.0810982e-20)
(-0.0029820125 0.0088897976 2.8640545e-20)
(-0.0034617261 0.010243639 3.4779459e-22)
(-0.003989849 0.011708072 -2.5557607e-20)
(-0.0045709029 0.013287171 2.7319849e-20)
(-0.0052097886 0.014983932 -1.9459187e-20)
(-0.0059117967 0.01679987 -7.1730215e-21)
(-0.0066826053 0.018734509 1.4882474e-20)
(-0.0075282611 0.020784766 -1.3322665e-20)
(-0.0084551308 0.022944196 -1.7578672e-20)
(-0.0094698124 0.025202087 3.6838061e-22)
(-0.010578985 0.02754237 2.7121769e-20)
(-0.011789171 0.029942323 -1.6566155e-20)
(-0.01310638 0.032371048 9.1085975e-21)
(-0.014535588 0.034787715 4.3410648e-20)
(-0.016080014 0.03713962 1.430894e-20)
(-0.017740183 0.039360242 -3.8245295e-20)
(-0.019512821 0.0413678 3.7639863e-21)
(-0.021389817 0.043065501 -4.1813571e-20)
(-0.023357795 0.044345788 2.4308658e-20)
(-0.025399185 0.045102265 -1.2618127e-20)
(-0.027495593 0.045252443 1.789709e-20)
(-0.029632821 0.044768135 4.2683709e-21)
(-0.031804452 0.043697369 -2.0815623e-20)
(-0.034010491 0.042156517 2.0768066e-20)
(-0.036251429 0.040291852 2.9566744e-20)
(-0.038521934 0.038237508 -2.7123893e-21)
(-0.040807564 0.036094486 -2.998503e-20)
(-0.043084508 0.033931378 3.7489323e-20)
(-0.045320513 0.031794726 -7.9218622e-21)
(-0.047475598 0.029719876 1.6839183e-20)
(-0.04950198 0.027739182 -2.6226958e-21)
(-0.051343207 0.025887518 2.6275427e-20)
(-0.052931712 0.024205949 1.267657e-20)
(-0.054186538 0.022744664 1.6048938e-20)
(-0.055005687 0.021562542 -6.570616e-20)