/*--------------------------------*- C++ -*----------------------------------*\
  =========                 |
  \\      /  F ield         | OpenFOAM: The Open Source CFD Toolbox
   \\    /   O peration     | Website:  https://openfoam.org
    \\  /    A nd           | Version:  13
     \\/     M anipulation  |
\*---------------------------------------------------------------------------*/
FoamFile
{
    format      ascii;
    class       volVectorField;
    location    "20.295905";
    object      wallShearStress;
}
// * * * * * * * * * * * * * * * * * * * * * * * * * * * * * * * * * * * * * //

dimensions      [0 2 -2 0 0 0 0];

internalField   uniform (0 0 0);

boundaryField
{
    inlet
    {
        type            calculated;
        value           uniform (0 0 0);
    }
    outlet
    {
        type            calculated;
        value           uniform (0 0 0);
    }
    cylinder
    {
        type            calculated;
        value           nonuniform List<vector> 
132
(
(3.5484297e-05 -0.0017072633 -2.1966608e-22)
(0.00012165277 -0.0026925209 6.2571813e-23)
(0.00026254217 -0.0036478223 3.4585357e-21)
(0.00045416323 -0.0045477255 -1.1621592e-20)
(0.00069049636 -0.0053665556 8.2190417e-21)
(0.00096252819 -0.0060789561 2.517276e-20)
(0.001258326 -0.0066611354 -4.7822966e-21)
(0.0015630516 -0.0070921994 -1.9000178e-20)
(0.0018602067 -0.0073553461 1.7959604e-20)
(0.0021318029 -0.0074394506 -4.0374102e-20)
(0.002359509 -0.0073402407 -7.3635405e-22)
(0.0025261371 -0.0070617597 2.5181637e-20)
(0.0026171775 -0.0066170069 4.1108442e-20)
(0.0026232287 -0.0060300073 -3.3397317e-20)
(0.0025397589 -0.0053307065 3.5144257e-20)
(0.0023707217 -0.0045591688 5.6484614e-20)
(0.0021270513 -0.0037583493 -3.6935639e-20)
(0.0018265875 -0.0029715038 5.9091952e-20)
(0.0014935506 -0.0022407053 7.789823e-20)
(0.0011530239 -0.0015971037 -5.0371933e-20)
(0.00083146805 -0.0010640729 -6.4002834e-20)
(0.00055113918 -0.00065182576 2.2464655e-23)
(0.00033588126 -0.00036684636 9.2315045e-21)
(0.00020843005 -0.00020921644 -1.1024221e-20)
(0.00020866559 -0.0001907751 -1.8708293e-20)
(0.00037826998 -0.00031613023 3.9922248e-21)
(0.00075842413 -0.00058114169 -3.5975902e-20)
(0.0013228041 -0.0009274404 9.6021637e-21)
(0.0019729551 -0.0012597723 7.538638e-21)
(0.0025886405 -0.0014959839 -5.1945578e-20)
(0.0030633896 -0.0015897509 6.7814494e-20)
(0.0033906671 -0.001564384 2.0520217e-21)
(0.003635537 -0.001472427 1.4775264e-20)
(0.0038456792 -0.0013451362 -1.7477555e-20)
(0.0039659983 -0.0011723446 5.5428513e-20)
(0.0038595783 -0.00093518186 -3.4990935e-21)
(0.0033614048 -0.00063816263 1.4092173e-20)
(0.0022718477 -0.0003161071 -1.9328884e-21)
(0.00038129857 -4.6544864e-05 2.7728406e-21)
(-0.0025530218 4.5115792e-05 -1.7313966e-21)
(-0.0068882322 -0.00023404641 3.2425607e-21)
(-0.012674636 -0.0011848055 -1.0053269e-22)
(-0.019498609 -0.0030065767 3.7107039e-20)
(-0.02693832 -0.0058254735 -1.440393e-20)
(-0.034429997 -0.009642989 1.3094625e-20)
(-0.041519015 -0.014373665 -8.4723073e-20)
(-0.047697584 -0.019804147 -1.3745557e-20)
(-0.052659414 -0.025683043 1.2128626e-19)
(-0.056194014 -0.031730831 -1.0376483e-19)
(-0.058212594 -0.037667671 -1.9838102e-21)
(-0.058710184 -0.043222397 3.159145e-20)
(-0.05779406 -0.048179494 -2.8623141e-20)
(-0.055561177 -0.052306453 -5.5346011e-21)
(-0.052193491 -0.055440653 -3.3884422e-21)
(-0.047926859 -0.057491548 -4.2694497e-21)
(-0.0429386 -0.058326671 -4.1211954e-21)
(-0.037470863 -0.057913058 6.5711196e-22)
(-0.031746045 -0.056229287 5.0840139e-20)
(-0.025987422 -0.053296705 -7.6330576e-20)
(-0.020407438 -0.049169014 -8.07498e-20)
(-0.015204041 -0.043931745 -3.2621702e-20)
(-0.01055612 -0.037699099 -7.4582095e-20)
(-0.006619889 -0.030611614 1.6615058e-20)
(-0.0035231323 -0.022830671 2.4158369e-20)
(-0.0013697113 -0.014551608 -3.7542311e-20)
(-0.00021576201 -0.0059254057 -5.0170885e-21)
(2.7731512e-06 -0.00070713127 -1.0104902e-21)
(2.4731205e-05 0.00030248336 -6.0228523e-23)
(0.00010150977 0.0013075399 -3.4610185e-21)
(0.000233785 0.0022832706 1.1624224e-20)
(0.00041684813 0.0032033 -8.2237588e-21)
(0.00064381284 0.0040412434 -2.5201331e-20)
(0.00090468333 0.0047712721 4.7916203e-21)
(0.0011864825 0.0053695447 1.9057852e-20)
(0.0014734575 0.0058155706 -1.8039317e-20)
(0.0017484996 0.0060937271 4.0622449e-20)
(0.0019932638 0.0061945761 7.4233448e-22)
(0.0021899245 0.0061169031 -2.5445396e-20)
(0.0023224435 0.005867857 -4.1644149e-20)
(0.0023788852 0.0054651077 3.3924857e-20)
(0.0023526663 0.004935363 -3.5801633e-20)
(0.0022429863 0.004311301 -5.7710584e-20)
(0.0020590107 0.0036362319 3.7847385e-20)
(0.0018152013 0.0029515959 -6.0725311e-20)
(0.0015332735 0.0022991142 -8.0269498e-20)
(0.0012377674 0.0017132461 5.2038283e-20)
(0.00095426048 0.001219858 6.6274349e-20)
(0.00070563718 0.00083291106 5.9298526e-20)
(0.00051857034 0.00056437797 4.8663552e-20)
(0.00041847665 0.00041862242 1.1480948e-20)
(0.00045155349 0.00041372766 1.9513256e-20)
(0.00064851627 0.00054402426 -4.1701923e-21)
(0.0010371563 0.00079684908 3.7629464e-20)
(0.0015721313 0.0011042663 -1.0055498e-20)
(0.0021438506 0.0013705071 -7.9006128e-21)
(0.0026583126 0.0015373987 5.4461426e-20)
(0.0030424413 0.0015795142 -7.110348e-20)
(0.0033222738 0.0015330464 -2.1391974e-21)
(0.0035503688 0.001438055 3.5261917e-20)
(0.0037299461 0.0013050254 1.8349014e-20)
(0.003770821 0.0011154364 -5.8248053e-20)
(0.0035273914 0.00085605824 3.680816e-21)
(0.0028307926 0.00053985421 1.082051e-20)
(0.0014748519 0.00021059129 2.0363111e-21)
(-0.00074087794 -4.0912758e-05 -2.9210478e-21)
(-0.0040422555 -8.2033706e-05 1.8222337e-21)
(-0.0087712232 0.00029728856 -3.4047619e-21)
(-0.014912731 0.0013898997 2.7715721e-20)
(-0.021959221 0.0033821288 -3.8558458e-20)
(-0.029480473 0.0063715703 1.4860613e-20)
(-0.036922725 0.010337618 -1.3399981e-20)
(-0.043796378 0.01515918 8.5913204e-20)
(-0.0496695 0.020619218 1.3809092e-20)
(-0.054271486 0.02646555 -1.2058802e-19)
(-0.057407512 0.032412526 1.0201548e-19)
(-0.059039014 0.038199034 1.9245313e-21)
(-0.05915638 0.043547619 -3.0133504e-20)
(-0.057909407 0.048272472 2.6660559e-20)
(-0.055367984 0.05212124 -3.9845137e-20)
(-0.051746487 0.054962635 2.748032e-21)
(-0.047289273 0.056723239 -2.3399285e-21)
(-0.042143407 0.05724266 6.4790623e-21)
(-0.036576011 0.056525738 -7.8511699e-22)
(-0.030797735 0.054544597 -5.6662767e-20)
(-0.025031629 0.051330409 8.23348e-20)
(-0.019486656 0.046942758 8.5397108e-20)
(-0.014356193 0.041471481 3.4028901e-20)
(-0.0098148445 0.035036715 7.6990713e-20)
(-0.0060130286 0.027781263 -1.7006303e-20)
(-0.0030729816 0.019872245 4.8682042e-20)
(-0.0010920257 0.011495722 3.7892868e-20)
(-0.00012506446 0.0028497202 5.0354864e-21)
)
;
    }
    frontAndBack
    {
        type            empty;
    }
}


// ************************************************************************* //
