/*--------------------------------*- C++ -*----------------------------------*\
  =========                 |
  \\      /  F ield         | OpenFOAM: The Open Source CFD Toolbox
   \\    /   O peration     | Website:  https://openfoam.org
    \\  /    A nd           | Version:  13
     \\/     M anipulation  |
\*---------------------------------------------------------------------------*/
FoamFile
{
    format      ascii;
    class       volScalarField;
    location    "8.198347";
    object      yPlus;
}
// * * * * * * * * * * * * * * * * * * * * * * * * * * * * * * * * * * * * * //

dimensions      [];

internalField   uniform 0;

boundaryField
{
    inlet
    {
        type            calculated;
        value           uniform 0;
    }
    outlet
    {
        type            calculated;
        value           uniform 0;
    }
    cylinder
    {
        type            calculated;
        value           nonuniform List<scalar> 
132
(
2.7389068e-07
2.7234775e-07
2.6874527e-07
2.630028e-07
2.551279e-07
2.4514633e-07
2.3318805e-07
2.1942427e-07
2.0406962e-07
1.8740374e-07
1.6975566e-07
1.5150131e-07
1.3305917e-07
1.1487392e-07
9.7391093e-08
8.1031889e-08
6.6151935e-08
5.3011786e-08
4.1747747e-08
3.2370404e-08
2.4775595e-08
1.8799809e-08
1.4287207e-08
1.1151517e-08
9.3589735e-09
8.6789693e-09
8.5281327e-09
8.1723072e-09
7.2226291e-09
5.8178715e-09
4.3668064e-09
3.2577483e-09
2.7774117e-09
2.9314412e-09
3.4940778e-09
4.3259571e-09
5.3881788e-09
6.7174099e-09
8.3472126e-09
1.0320685e-08
1.2724746e-08
1.5655237e-08
1.8867492e-08
2.2314299e-08
2.590111e-08
2.9543658e-08
3.316697e-08
3.6708356e-08
4.0125471e-08
4.3386115e-08
4.6469771e-08
4.9366979e-08
5.2065956e-08
5.4559319e-08
5.687771e-08
5.8979262e-08
6.0892281e-08
6.2610296e-08
6.4140674e-08
6.547475e-08
6.6612416e-08
6.7565628e-08
6.8332709e-08
6.8912887e-08
6.9310316e-08
6.9518135e-08
2.7336316e-07
2.707625e-07
2.6610531e-07
2.5934431e-07
2.5050848e-07
2.3965221e-07
2.2692831e-07
2.125153e-07
1.9664962e-07
1.7962646e-07
1.6179134e-07
1.4353359e-07
1.252762e-07
1.0745809e-07
9.0510495e-08
7.4821e-08
6.0706876e-08
4.8377004e-08
3.7916195e-08
2.9289811e-08
2.2362389e-08
1.6971292e-08
1.2981575e-08
1.0350443e-08
9.0042892e-09
8.5981454e-09
8.4665865e-09
7.9173779e-09
6.7803375e-09
5.322227e-09
3.9527958e-09
3.0243949e-09
2.7656206e-09
3.0622957e-09
3.7125145e-09
4.6056705e-09
5.7350274e-09
7.1389976e-09
8.8502622e-09
1.091092e-08
1.3403238e-08
1.641871e-08
1.9696519e-08
2.3186121e-08
2.6793879e-08
3.0439796e-08
3.4049804e-08
3.7564805e-08
4.0946784e-08
4.4166345e-08
4.7204423e-08
5.0057059e-08
5.2707298e-08
5.514487e-08
5.7425179e-08
5.9472148e-08
6.1341731e-08
6.300899e-08
6.4493963e-08
6.5774879e-08
6.6868562e-08
6.777394e-08
6.8494387e-08
6.9026887e-08
6.9373111e-08
6.9535439e-08
)
;
    }
    frontAndBack
    {
        type            empty;
    }
}


// ************************************************************************* //
