/*--------------------------------*- C++ -*----------------------------------*\
  =========                 |
  \\      /  F ield         | OpenFOAM: The Open Source CFD Toolbox
   \\    /   O peration     | Website:  https://openfoam.org
    \\  /    A nd           | Version:  13
     \\/     M anipulation  |
\*---------------------------------------------------------------------------*/
FoamFile
{
    format      ascii;
    class       volScalarField;
    location    "47.498222";
    object      omega;
}
// * * * * * * * * * * * * * * * * * * * * * * * * * * * * * * * * * * * * * //

dimensions      [0 0 -1 0 0 0 0];

internalField   nonuniform List<scalar> 
17140
(
3736295.3
603677.93
185335.27
78621.664
40006.337
22786.783
13994.065
9063.8858
6105.5543
4237.6007
3010.6899
2179.2683
1601.4795
1191.5795
895.76317
679.19067
518.69366
398.51057
307.70625
238.56382
185.55618
144.67292
112.97087
88.26859
68.935384
53.743767
41.76517
32.295701
24.802896
18.886682
14.248722
10.664663
7.9560864
5.9651209
4.5408411
3.5421539
2.8488513
2.3685688
2.035794
1.8062959
1.6509148
1.5508072
1.4954671
1.4743453
1.4774464
1.5051992
1.5545065
1.6230571
1.7093013
1.8123783
1.9318858
2.0669253
2.2142756
2.3718003
2.5453972
2.7469789
2.9943655
3.3248954
3.811878
4.2195811
4.28607
4.095147
3.771103
3.2899382
2.7312744
3736320.9
603682.55
185336.96
78622.533
40006.853
22787.12
13994.297
9064.0513
6105.6745
4237.688
3010.7521
2179.3106
1601.5053
1191.5911
895.76238
679.17868
518.67136
398.47868
307.66535
238.51442
185.49879
144.60807
112.89921
88.190876
68.852584
53.657091
41.676135
32.206189
24.71518
18.803395
14.172678
10.598458
7.9014918
5.9225504
4.5092935
3.5197238
2.8334183
2.3582657
2.0291688
1.802289
1.6487739
1.550069
1.4957742
1.4753005
1.4788389
1.5068879
1.556327
1.6248428
1.7108644
1.8135014
1.9323946
2.0668035
2.2138511
2.3715151
2.544925
2.7438805
2.9804421
3.2696104
3.6515146
3.9297672
4.01452
3.8639915
3.5669954
3.3255545
2.8736394
3736345.9
603686.66
185338.24
78623.069
40007.125
22787.271
13994.386
9064.1038
6105.7046
4237.7033
3010.7568
2179.3072
1601.4954
1191.5756
895.7419
679.15356
518.64181
398.44481
307.62723
238.47212
185.4524
144.55776
112.84522
88.13361
68.792597
53.59516
41.613284
32.143711
24.654627
18.74652
14.121278
10.554104
7.8651692
5.8943676
4.4885045
3.5050564
2.8234844
2.3518405
2.0252928
1.8002589
1.6480924
1.5504448
1.49701
1.4770809
1.4811187
1.5096284
1.5594786
1.6283869
1.7148109
1.8179138
1.9374525
2.072896
2.2217385
2.382216
2.5587997
2.7590802
2.989579
3.2523614
3.5409317
3.7426012
3.7902697
3.6634655
3.4998826
3.3753985
2.972295
3736372.1
603690.93
185339.56
78623.63
40007.408
22787.43
13994.481
9064.163
6105.7415
4237.7256
3010.7691
2179.3122
1601.4948
1191.5705
895.73306
679.14144
518.62673
398.42699
307.60683
238.44928
185.42726
144.53047
112.81601
88.102765
68.760525
53.562388
41.580479
32.111665
24.62422
18.718626
14.09665
10.533253
7.8482979
5.8813682
4.4789956
3.4984868
2.819263
2.3494326
2.0242629
1.8002798
1.648915
1.5520525
1.4993214
1.4799562
1.4845289
1.5137438
1.5644164
1.6343355
1.7220576
1.8269119
1.9489275
2.0878983
2.2415667
2.4084212
2.5926888
2.8002435
3.0333327
3.2843962
3.5298612
3.667839
3.6712845
3.596845
3.5556992
3.4599608
3.0188185
3736400.1
603695.46
185340.96
78624.219
40007.706
22787.599
13994.585
9064.2304
6105.7867
4237.7567
3010.7908
2179.3276
1601.5057
1191.5782
895.73839
679.14501
518.62896
398.42818
307.6072
238.44901
185.4265
144.52936
112.8147
88.101428
68.759373
53.561673
41.580469
32.112601
24.626232
18.721648
14.100361
10.537135
7.8518296
5.8842553
4.4812586
3.5003466
2.8209721
2.3511848
2.0261743
1.8024387
1.6514447
1.5550562
1.5029146
1.4841111
1.4894572
1.5197324
1.5718234
1.6436398
1.7339409
1.842387
1.9694967
2.1154701
2.2780407
2.4560126
2.6537503
2.8753198
3.1189544
3.3715599
3.5906007
3.7015866
3.6911804
3.6545631
3.7239217
3.5804862
3.0048618
3736429.1
603700.14
185342.39
78624.828
40008.017
22787.778
13994.697
9064.3054
6105.84
4237.7966
3010.8223
2179.3539
1601.5288
1191.5996
895.75891
679.16539
518.64972
398.4497
307.62977
238.47283
185.45173
144.55611
112.84302
88.131349
68.790887
53.594711
41.614867
32.148021
24.662061
18.756889
14.133621
10.566831
7.8766748
5.9037703
4.4958791
3.5110937
2.8289762
2.3574126
2.0313653
1.8070953
1.6558802
1.5597032
1.5080955
1.4899293
1.4963929
1.528271
1.5826345
1.6576094
1.7523164
1.866995
2.0029528
2.1607712
2.3377738
2.5335147
2.752675
2.9963642
3.2569956
3.5195354
3.7293714
3.8247343
3.8041713
3.8447408
3.9073448
3.6894906
2.8794489
3736459.3
603704.97
185343.86
78625.459
40008.343
22787.968
13994.818
9064.3887
6105.9017
4237.8455
3010.8639
2179.3913
1601.5644
1191.6348
895.79488
679.20295
518.68949
398.49215
307.67525
238.52162
185.50396
144.61188
112.90231
88.194073
68.856823
53.6635
41.685935
32.220468
24.734512
18.827355
14.199512
10.625323
7.925493
5.9420497
4.5244597
3.5319023
2.8441676
2.3687939
2.0402755
1.8144981
1.6625152
1.5663223
1.5152869
1.4979084
1.5059756
1.5402647
1.5981146
1.6780343
1.7797562
1.9044822
2.0546976
2.2310141
2.4301544
2.6538281
2.9066947
3.183974
3.4664594
3.7393973
3.9435746
4.0304408
4.0385156
4.1122332
4.0902287
3.7657258
2.6192885
3736490.6
603709.97
185345.39
78626.114
40008.684
22788.168
13994.948
9064.4806
6105.9722
4237.9039
3010.9157
2179.4402
1601.6126
1191.6841
895.84662
679.25799
518.74857
398.55584
307.74398
238.59569
185.58356
144.69705
112.99299
88.290024
68.957638
53.76853
41.794202
32.33052
24.844233
18.933804
14.298952
10.713718
7.9995747
6.0005124
4.5683379
3.5638511
2.8672816
2.3858077
2.0532896
1.825051
1.6717352
1.5753028
1.5250987
1.5087179
1.5190922
1.556928
1.6199713
1.7073661
1.819851
1.9601821
2.1323554
2.3360437
2.5689311
2.8377232
3.1458098
3.4773713
3.788566
4.0617933
4.2349815
4.286083
4.3124223
4.3641944
4.2741722
3.7871878
2.1790803
3736522
603715.13
185346.98
78626.795
40009.037
22788.378
13995.087
9064.5808
6106.0512
4237.9714
3010.9775
2179.5001
1601.6733
1191.7473
895.91374
679.33011
518.82654
398.64032
307.83549
238.69457
185.69004
144.81118
113.11463
88.418834
69.09303
53.90959
41.939575
32.478234
24.991475
19.076721
14.432687
10.833
8.100037
6.080231
4.6284582
3.6077471
2.8990357
2.4090987
2.0709927
1.8392927
1.6840928
1.5872843
1.5382042
1.5232277
1.5369218
1.5798892
1.650523
1.7489968
1.8776857
2.0417466
2.2462806
2.4893612
2.7758146
3.1209505
3.5248159
3.951551
4.3104646
4.5734909
4.6808376
4.6732137
4.6817519
4.6757945
4.435704
3.5444316
1.5535799
3736555.2
603720.49
185348.64
78627.504
40009.405
22788.598
13995.234
9064.6892
6106.1384
4238.0476
3011.0488
2179.5705
1601.7455
1191.8234
895.9952
679.41818
518.92216
398.74428
307.94839
238.81684
185.82193
144.95275
113.26573
88.579035
69.261603
54.085396
42.120932
32.662715
25.175643
19.255897
14.600969
10.983908
8.2280305
6.1825925
4.7062193
3.6648415
2.9404777
2.4395378
2.0941363
1.8579339
1.7003881
1.6034016
1.5551891
1.5425614
1.5610374
1.6113522
1.6929613
1.807707
1.960614
2.1599753
2.4097659
2.7114635
3.0882311
3.5677653
4.144199
4.7464951
5.1953432
5.4551973
5.4477413
5.3226393
5.2493158
5.100703
4.5200028
2.649329
0.98606308
3736589.7
603726.06
185350.35
78628.241
40009.789
22788.829
13995.389
9064.8051
6106.2331
4238.1315
3011.1285
2179.6501
1601.8279
1191.9109
896.08938
679.52038
519.03348
398.8656
308.0804
238.96007
185.9767
145.11917
113.44363
88.76798
69.460761
54.293469
42.335989
32.881964
25.395138
19.470262
14.803376
11.166733
8.3844981
6.3089773
4.8031498
3.7365793
2.9928641
2.4781938
2.1236532
1.8818282
1.7213821
1.6241924
1.5777769
1.5683364
1.5935832
1.6543557
1.7517784
1.890415
2.0794408
2.3289145
2.641142
3.0382291
3.5732357
4.2914639
5.169801
6.064915
6.6810906
6.8988083
6.6936981
6.3016264
5.9073166
5.3202809
3.6289746
1.416522
0.58205078
3736625.1
603731.79
185352.13
78629.003
40010.19
22789.071
13995.553
9064.9276
6106.3341
4238.222
3011.2151
2179.7372
1601.9188
1192.0077
896.19396
679.63419
519.15772
399.00126
308.2283
239.12083
186.15073
145.30664
113.64445
88.981715
69.686565
54.529967
42.581105
33.132667
25.647122
19.717623
15.038536
11.38104
8.5699235
6.4605762
4.9208026
3.8245569
3.0576571
2.526357
2.1607075
1.9120959
1.7482666
1.6511331
1.6074924
1.6027069
1.6375442
1.7132097
1.8334908
2.0074572
2.2494579
2.5658111
2.9727477
3.5354918
4.3476369
5.4690159
6.7992882
7.9699738
8.1832776
7.8469255
7.3064275
6.6372742
5.8078182
3.983664
1.6917018
0.70644704
0.36448698
3736662.3
603737.79
185353.98
78629.795
40010.605
22789.322
13995.723
9065.0561
6106.4404
4238.3176
3011.3069
2179.83
1602.0157
1192.1113
896.30609
679.75642
519.29137
399.14745
308.38794
239.29466
186.33928
145.51019
113.86301
89.214928
69.933647
54.789569
42.851126
33.409992
25.927268
19.994376
15.303797
11.625325
8.7840054
6.6381217
5.0605731
3.9304276
3.1364952
2.5855531
2.2067363
1.9501822
1.7826624
1.6861488
1.646383
1.6487701
1.6972352
1.7942645
1.9479209
2.1744425
2.4895431
2.898928
3.4676079
4.3202329
5.5955844
7.2974738
8.8287605
8.9726718
8.6296528
7.7063382
6.2682419
4.7772374
2.9224775
1.5291127
0.74621758
0.4041912
0.26357052
3736699.8
603743.92
185355.87
78630.611
40011.035
22789.581
13995.899
9065.1887
6106.5502
4238.4163
3011.4019
2179.9259
1602.116
1192.2185
896.42224
679.88317
519.43014
399.29945
308.55422
239.47606
186.53647
145.7236
114.09278
89.46086
70.195104
55.065338
43.139224
33.707388
26.229516
20.295208
15.59488
11.896617
9.0252466
6.8415173
5.2234184
4.0557289
3.2311167
2.6575342
2.2634848
1.9979029
1.8268207
1.7319622
1.697231
1.7111427
1.7791804
1.9073519
2.1105738
2.4143741
2.826293
3.3880968
4.243414
5.5883645
7.5495085
9.4471225
9.6501444
9.1795395
7.711446
5.2115673
3.0038493
1.8481809
1.1466393
0.67975985
0.41170695
0.2886008
0.21910503
3736738.4
603750.23
185357.82
78631.457
40011.478
22789.848
13996.08
9065.3244
6106.6619
4238.5162
3011.4975
2180.0222
1602.2165
1192.3258
896.53846
680.01005
519.56915
399.4519
308.72125
239.65866
186.73543
145.93952
114.326
89.711394
70.462547
55.348727
43.436841
34.016475
26.545893
20.612838
15.905536
12.190061
9.2904828
7.0693657
5.4094585
4.2016095
3.3432157
2.7442439
2.3330511
2.057547
1.8836334
1.7920585
1.7651865
1.7966525
1.8937491
2.068663
2.3475882
2.7613088
3.3174905
4.1545411
5.5120248
7.6349479
9.9389099
10.27732
9.7464061
7.9915873
4.7570375
2.4964839
1.4305922
0.88969044
0.5830193
0.40511888
0.29376274
0.23995194
0.1897189
3736780.4
603756.99
185359.88
78632.338
40011.937
22790.124
13996.265
9065.4618
6106.7739
4238.6153
3011.5913
2180.116
1602.3138
1192.4293
896.65032
680.13206
519.70288
399.59871
308.88236
239.83517
186.9283
146.14952
114.55369
89.957069
70.726108
55.629571
43.733658
34.326964
26.866383
20.937821
16.227261
12.498527
9.5743873
7.3184182
5.6174588
4.3684347
3.4742228
2.8477869
2.4180803
2.1324283
1.9570328
1.8717265
1.8579739
1.9165733
2.0585039
2.306759
2.7059242
3.2758408
4.0906779
5.4305937
7.6400199
10.359552
10.893429
10.375749
8.6187965
4.8749935
2.4515161
1.348474
0.82420079
0.55292641
0.39609431
0.3027125
0.24326945
0.20830224
0.16682812
3736824.8
603764.02
185362.02
78633.253
40012.413
22790.407
13996.453
9065.5993
6106.8839
4238.7109
3011.6806
2180.204
1602.4043
1192.525
896.75329
680.24414
519.82563
399.73355
309.03058
239.99795
187.10672
146.34454
114.76613
90.187494
70.97481
55.8964
44.017842
34.626838
27.179009
21.258521
16.549153
12.812328
9.869041
7.583019
5.8442342
4.5552748
3.6249751
2.9703199
2.5218659
2.2271372
2.053203
1.9789225
1.9883491
2.0903964
2.3049589
2.6749354
3.2635834
4.0876714
5.4060688
7.6411202
10.75787
11.516264
11.045593
9.3694739
5.4264957
2.6275582
1.4010659
0.84174339
0.56438273
0.40913962
0.31362744
0.25391738
0.20876259
0.17856602
0.1503057
3736869.6
603771.19
185364.23
78634.197
40012.901
22790.695
13996.642
9065.7349
6106.9899
4238.8008
3011.7623
2180.283
1602.4841
1192.6084
896.8424
680.34074
519.93126
399.84959
309.15836
240.13871
187.26165
146.51478
114.95271
90.391343
71.19662
56.136544
44.276189
34.9025
27.469982
21.561224
16.857931
13.119132
10.163702
7.8546952
6.0840994
4.7593586
3.7953344
3.1139557
2.6486147
2.34839
2.1818249
2.1272472
2.1785365
2.3537279
2.6927659
3.2742818
4.1479283
5.4747343
7.7460814
11.158968
12.16039
11.75284
10.215123
6.2452284
2.9448317
1.5302039
0.90494077
0.60319088
0.44049568
0.33763127
0.2650907
0.2132526
0.17702696
0.15991804
0.13530176
3736913.9
603778.51
185366.49
78635.162
40013.4
22790.988
13996.831
9065.8671
6107.0902
4238.8826
3011.8341
2180.35
1602.55
1192.6758
896.91344
680.41707
520.01434
399.94078
309.25893
240.24993
187.38478
146.65108
115.10345
90.557735
71.379803
56.337454
44.495413
35.140038
27.724921
21.831296
17.139
13.404766
10.445253
8.1222847
6.3287296
4.9757745
3.9839869
3.2809105
2.8041609
2.5064618
2.3582815
2.343091
2.4694247
2.7753258
3.3402121
4.2681644
5.6472534
7.9728206
11.599262
12.860499
12.508883
11.113957
7.2019356
3.3584699
1.7153461
0.99824981
0.66355012
0.48207058
0.3644424
0.27953699
0.21946764
0.18310479
0.15874533
0.14357068
0.12364252
3736961
603786.16
185368.84
78636.164
40013.915
22791.286
13997.019
9065.995
6107.1829
4238.9544
3011.8932
2180.4019
1602.5984
1192.7232
896.96174
680.46786
520.06898
400.00052
309.32498
240.32351
187.46717
146.74365
115.20763
90.675063
71.511831
56.485699
44.661214
35.324361
27.928057
22.052466
17.375879
13.65306
10.698491
8.3722831
6.5674406
5.1977979
4.1889943
3.4747088
2.998542
2.7186857
2.612029
2.6757756
2.9408325
3.4938041
4.4695162
5.941064
8.3387185
12.138429
13.616006
13.308666
12.038414
8.2296429
3.8428164
1.9474373
1.1195509
0.73715407
0.527853
0.39241091
0.29774407
0.23440872
0.19301709
0.16530224
0.14323192
0.13021784
0.11457236
3737011.6
603794.23
185371.31
78637.204
40014.444
22791.588
13997.206
9066.1168
6107.2662
4239.0137
3011.9372
2180.4359
1602.6259
1192.7467
896.98297
680.48825
520.08971
400.02267
309.34964
240.35182
187.50038
146.78319
115.25511
90.732309
71.580853
56.568592
44.760094
35.441214
28.064501
22.209381
17.552955
13.848354
10.908161
8.590927
6.7892706
5.4188856
4.4099653
3.7029396
3.2496699
3.0187485
3.0030682
3.2180417
3.7599439
4.7801285
6.3812569
8.8713098
12.797372
14.440503
14.168597
12.980986
9.2867806
4.3816636
2.2191491
1.264988
0.82313977
0.57956212
0.4256231
0.3236152
0.25711169
0.20959551
0.17350725
0.14820372
0.13042789
0.12079449
0.10620895
3737062.3
603802.42
185373.82
78638.271
40014.984
22791.891
13997.389
9066.2312
6107.3389
4239.0594
3011.9646
2180.4502
1602.6306
1192.744
896.97459
680.47535
520.07328
400.00361
309.32883
240.33023
187.47914
146.76362
115.23881
90.721199
71.577247
56.575312
44.780348
35.478444
28.122112
22.290278
17.658655
13.979412
11.063801
8.7692298
6.9881306
5.638163
4.654499
3.9860855
3.5976775
3.4778828
3.6401724
4.1685739
5.2470419
6.9998652
9.6057056
13.593156
15.360047
15.092885
13.947868
10.357833
4.9694312
2.5298385
1.4346214
0.92104597
0.63812718
0.46610888
0.35749633
0.28428521
0.22781465
0.18386719
0.15414221
0.13560698
0.12087986
0.11137726
0.10057096
3737113.2
603810.78
185376.4
78639.363
40015.534
22792.197
13997.568
9066.3377
6107.4001
4239.0903
3011.974
2180.4434
1602.6109
1192.7135
896.93484
680.42733
520.01781
399.94142
309.26071
240.25709
187.40209
146.68407
115.15854
90.642363
71.502444
56.507537
44.72305
35.435522
28.097919
22.289724
17.687712
14.042535
11.163528
8.9082208
7.1701484
5.8703724
4.9514421
4.3757675
4.13111
4.2347859
4.7517894
5.8994805
7.831797
10.556812
14.535265
16.389437
16.109688
14.972228
11.421175
5.605856
2.8895645
1.6322795
1.031235
0.7063252
0.51528353
0.39632298
0.31251863
0.24669743
0.19773
0.16557889
0.14284474
0.12579836
0.11380825
0.10560441
0.094968744
3737167.7
603819.6
185379.11
78640.496
40016.101
22792.508
13997.745
9066.4373
6107.4505
4239.1071
3011.966
2180.4161
1602.5674
1192.6559
896.86442
680.34499
519.92422
399.83721
309.14656
240.13386
187.27093
146.54651
115.01657
90.498541
71.359957
56.370248
44.595519
35.323002
28.006296
22.225382
17.657228
14.053949
11.225738
9.0316135
7.3685012
6.1645235
5.375801
4.98934
5.0310345
5.5457334
6.7642133
8.8566002
11.706798
15.62561
17.531467
17.229222
16.05495
12.464643
6.3135935
3.3114239
1.8533542
1.1487345
0.78347307
0.57225992
0.43803748
0.34168333
0.26864737
0.21675105
0.18119582
0.15269853
0.13207831
0.11795884
0.10667288
0.099903347
0.091342086
3737225.4
603828.82
185381.92
78641.677
40016.688
22792.826
13997.921
9066.5316
6107.4921
4239.1119
3011.9433
2180.3712
1602.5036
1192.5753
896.76808
680.23379
519.79876
399.69806
308.99439
239.96959
187.09581
146.36227
114.82554
90.303762
71.165291
56.180482
44.416453
35.161501
27.870327
22.124029
17.600696
14.053601
11.29923
9.2011668
7.6646102
6.6324685
6.0867342
6.0580172
6.5784724
7.8737349
10.106208
13.06859
16.874163
18.798455
18.455062
17.190729
13.482634
7.1109408
3.7785198
2.0873302
1.2780628
0.87703307
0.64013904
0.4841354
0.37385249
0.29508091
0.23994266
0.1986288
0.16412847
0.140029
0.12279822
0.11084608
0.10194396
0.095427734
0.088094738
3737283.9
603838.25
185384.81
78642.896
40017.29
22793.151
13998.1
9066.6243
6107.5294
4239.1104
3011.9124
2180.3165
1602.4284
1192.4816
896.6572
680.10659
519.65593
399.54025
308.82241
239.78453
186.89921
146.1562
114.61282
90.088059
70.951319
55.974149
44.22503
34.99381
27.73698
22.037676
17.576856
14.115986
11.477902
9.5366669
8.2146351
7.4822834
7.3648832
7.8907106
9.2540015
11.602891
14.665014
18.307867
20.204621
19.801742
18.398574
14.506838
7.9606364
4.2702909
2.3375494
1.428191
0.98322984
0.71144271
0.53092383
0.41022786
0.32645874
0.26589648
0.21662783
0.1769402
0.15008838
0.13042446
0.11662907
0.1057082
0.097758879
0.092040783
0.085325339
3737344.3
603848.04
185387.81
78644.157
40017.916
22793.489
13998.287
9066.7223
6107.5706
4239.1119
3011.8841
2180.2642
1602.3558
1192.3909
896.54996
679.98386
519.51862
399.38934
308.65906
239.61026
186.71604
145.96686
114.42085
89.898118
70.769321
55.807553
44.083086
34.88775
27.681582
22.053801
17.694269
14.371863
11.921427
10.237242
9.2706636
9.0329455
9.5397138
10.94526
13.379383
16.520383
19.967648
21.765113
21.283155
19.689568
15.533232
8.8591739
4.7998883
2.6209669
1.5998303
1.1000452
0.79040968
0.59018053
0.45716711
0.36258651
0.29143984
0.23514903
0.19310156
0.16403456
0.14097612
0.1234931
0.11008177
0.10119974
0.09364751
0.088716541
0.083415098
3737407.1
603858.19
185390.93
78645.465
40018.568
22793.844
13998.487
9066.8327
6107.6239
4239.1263
3011.8699
2180.2278
1602.3011
1192.3207
896.46625
679.88817
519.41243
399.27419
308.53678
239.48312
186.58692
145.83944
114.29982
89.789408
70.680663
55.749108
44.068517
34.93614
27.817959
22.310278
18.113457
15.010949
12.859201
11.582007
11.168221
11.612862
13.008712
15.47886
18.660869
21.899935
23.488099
22.907944
21.073178
16.570616
9.8063337
5.3793016
2.9391583
1.7928153
1.2296479
0.88337313
0.65918833
0.50778559
0.39717821
0.31799185
0.25839774
0.21496803
0.18080685
0.15241016
0.13103653
0.11613888
0.10548194
0.097018729
0.091295492
0.086507039
0.08156514
3737471.9
603868.67
185394.16
78646.827
40019.252
22794.224
13998.709
9066.9641
6107.6995
4239.165
3011.883
2180.2224
1602.2819
1192.291
896.42869
679.84507
519.36606
399.22698
308.49155
239.44328
186.55673
145.82434
114.30693
89.828107
70.763061
55.890903
44.290148
35.26428
28.288558
22.972048
19.030101
16.268299
14.570943
13.892946
14.212335
15.513021
17.964029
21.119769
24.144982
25.388469
24.673705
22.557082
17.630155
10.798561
6.0053571
3.2887379
2.0003151
1.3703408
0.98433942
0.73461884
0.5618303
0.43839288
0.35147822
0.28733904
0.2371732
0.19612807
0.16313756
0.1403094
0.12362633
0.110795
0.1011492
0.094211454
0.088259822
0.084322406
0.080207843
3737539.4
603879.61
185397.5
78648.249
40019.974
22794.633
13998.959
9067.1253
6107.8075
4239.2402
3011.9377
2180.2644
1602.3168
1192.3232
896.46173
679.88243
519.41124
399.28389
308.56469
239.53807
186.67984
145.98407
114.51373
90.095251
71.107806
56.335961
44.8658
36.010781
29.258585
24.234448
20.67505
18.410626
17.352893
17.456221
18.53723
20.860107
23.975424
26.751138
27.49512
26.584057
24.140099
18.715283
11.821602
6.6723975
3.6630384
2.223765
1.5229539
1.0996879
0.82021955
0.62674314
0.48744948
0.39032222
0.31614727
0.25992285
0.21443304
0.18022189
0.15457063
0.13455783
0.11823451
0.10671399
0.097673031
0.091227771
0.086332276
0.082590938
0.07913682
3737610.3
603891
185400.99
78649.735
40020.736
22795.075
13999.24
9067.3185
6107.9511
4239.3557
3012.0386
2180.3596
1602.4132
1192.4263
896.57654
680.01392
519.56472
399.46529
308.78091
239.79737
186.99227
146.36211
114.9731
90.656081
71.796376
57.186223
45.921538
37.328338
30.910365
26.312066
23.291051
21.695131
21.436371
22.238636
24.207266
27.079933
29.689078
29.794726
28.637997
25.712449
19.849708
12.877667
7.3781642
4.067657
2.4709453
1.6982734
1.2310994
0.91949275
0.70022718
0.54503691
0.43282483
0.34918705
0.28596268
0.23746325
0.19876432
0.1685132
0.14344996
0.12490522
0.11178536
0.10183087
0.094635569
0.088900033
0.084620388
0.081400662
0.078148011
3737682.9
603902.72
185404.61
78651.28
40021.536
22795.549
13999.552
9067.5447
6108.1314
4239.5134
3012.1881
2180.5115
1602.5756
1192.6063
896.781
680.24991
519.84
399.78871
309.16291
240.25047
187.53178
147.00701
115.74743
91.589885
72.927378
58.562206
47.60259
39.389352
33.442833
29.422857
27.094657
26.29319
26.73261
28.174279
30.416658
32.656202
32.309282
30.807924
27.261472
21.043923
13.939785
8.1046012
4.4967163
2.7426519
1.8906479
1.3744585
1.0258548
0.78305797
0.60729698
0.48081147
0.38489153
0.31617154
0.26178722
0.21944656
0.18393331
0.15631638
0.13554551
0.1205443
0.10811459
0.099243371
0.092003313
0.087091791
0.082764823
0.079903875
0.077420991
3737758.4
603914.96
185408.37
78652.894
40022.383
22796.062
13999.904
9067.8143
6108.3609
4239.7274
3012.4032
2180.7398
1602.8271
1192.8901
897.1064
680.62678
520.27942
400.30353
309.76833
240.9648
188.37739
148.0114
116.94434
93.021255
74.644845
60.628927
50.094718
42.395455
37.059205
33.740817
32.175017
32.123508
32.909029
34.394898
35.802727
35.098253
33.10318
28.842061
22.289562
14.988472
8.832965
4.9565921
3.0503488
2.1077435
1.5323649
1.1466079
0.87678233
0.68136094
0.53660264
0.43100505
0.35170645
0.29105163
0.24188569
0.20326134
0.17151816
0.14828747
0.12918685
0.11494676
0.10401323
0.096001731
0.089762241
0.085222187
0.081840435
0.079218517
0.076801633
3737836.4
603927.57
185412.26
78654.581
40023.286
22796.628
14000.312
9068.1477
6108.6634
4240.0262
3012.7166
2181.0822
1603.2108
1193.327
897.6088
681.20815
520.95507
401.09133
310.68952
242.04494
189.64743
149.50902
118.71528
95.120706
77.13844
63.585403
53.595788
46.520996
41.870157
39.249828
38.308824
38.563149
39.406604
39.22698
38.007168
35.378979
30.478065
23.546723
15.986167
9.5622429
5.4691999
3.4075514
2.3489056
1.7030645
1.279405
0.98456551
0.76576238
0.60384803
0.48180059
0.39171306
0.31992048
0.26708179
0.22370383
0.18986823
0.1616751
0.13973278
0.12246388
0.11008903
0.10035415
0.093326753
0.087933542
0.083919769
0.080481415
0.078299245
0.076139531
3737916.9
603940.61
185416.32
78656.366
40024.27
22797.273
14000.803
9068.5732
6109.0717
4240.447
3013.1713
2181.5876
1603.7824
1193.9799
898.35914
682.07387
521.95676
402.25318
312.0404
243.61961
191.48799
151.66648
121.24959
98.09522
80.606709
67.601667
58.221039
51.782927
47.728584
45.54417
44.748467
44.302131
43.067037
40.828152
37.548629
32.026233
24.704016
16.912192
10.330167
6.0667946
3.8190263
2.6092827
1.8855472
1.4286575
1.1071795
0.86248901
0.67769477
0.54011057
0.43511889
0.35688925
0.29623452
0.24962611
0.20979303
0.17856987
0.15190604
0.13321588
0.11813387
0.10719559
0.098138616
0.091614438
0.086134737
0.082606879
0.079580391
0.077573012
0.075719838
3738001.3
603954.28
185420.58
78658.266
40025.345
22798.008
14001.393
9069.1119
6109.6109
4241.0195
3013.8012
2182.2952
1604.5864
1194.8996
899.41516
683.28951
523.35898
403.8738
313.91739
245.79763
194.01836
154.60508
124.65356
102.02093
85.102526
72.686642
63.857282
57.902212
54.137686
51.744453
49.605349
47.009111
43.985476
39.803991
33.602304
25.891478
17.929836
11.244193
6.7826126
4.2808672
2.88816
2.0884128
1.6001459
1.2471717
0.9715542
0.76422964
0.6084239
0.49083485
0.39988137
0.33208956
0.27572117
0.23318333
0.19659469
0.16838424
0.14518197
0.12779306
0.11332302
0.10315004
0.094935465
0.089320955
0.084823641
0.0815718
0.078891674
0.077082463
0.075245196
3738088.5
603968.46
185425.03
78660.283
40026.519
22798.846
14002.099
9069.7831
6110.303
4241.769
3014.6352
2183.2372
1605.6589
1196.1258
900.8203
684.90162
525.20989
405.99946
316.35757
248.5961
197.22161
158.26
128.80293
106.69563
90.3172
78.380458
69.862371
63.822183
59.310496
55.400379
51.551492
47.506814
42.259123
35.319235
27.217855
19.091694
12.270394
7.5528511
4.7584034
3.1872627
2.3215222
1.7947608
1.4008818
1.0934682
0.86343866
0.68877973
0.55355697
0.45022434
0.36910695
0.30718485
0.25719167
0.21910481
0.18564541
0.16012051
0.13770719
0.1222525
0.1096436
0.10066115
0.093251048
0.088005008
0.083560771
0.080650192
0.078007746
0.076560411
0.074951909
3738178.6
603983.14
185429.66
78662.414
40027.794
22799.789
14002.922
9070.5892
6111.1506
4242.6974
3015.6748
2184.4143
1606.9989
1197.6545
902.56516
686.89235
527.47865
408.58055
319.28634
251.90578
200.93808
162.39339
133.33496
111.56236
95.388613
83.480669
74.614789
67.728987
61.969948
56.754223
51.437329
44.995368
37.269065
28.753819
20.430561
13.422893
8.4185894
5.3254953
3.572266
2.6135965
2.0169689
1.5707715
1.2338393
0.98128695
0.78290026
0.62763654
0.50766061
0.41556807
0.34318258
0.28937484
0.24339617
0.20825854
0.17643984
0.15249815
0.13262814
0.1186259
0.10656226
0.098350814
0.091168694
0.08647893
0.082410901
0.079886848
0.077617902
0.07611382
0.074577699
3738271.2
603998.31
185434.48
78664.658
40029.165
22800.827
14003.847
9071.5087
6112.1268
4243.772
3016.8802
2185.7788
1608.5496
1199.4187
904.57122
689.16962
530.05679
411.4876
322.54497
255.52787
204.91629
166.68909
137.86267
116.17124
99.841997
87.439218
77.765321
69.806534
62.802101
55.83578
48.118166
39.566654
30.598023
22.023622
14.772141
9.4441444
6.022035
4.0355903
2.9302639
2.2417315
1.7518896
1.3938192
1.1164164
0.89009507
0.71247553
0.57639252
0.47052998
0.38874903
0.32321522
0.27219395
0.22914192
0.19682792
0.16774646
0.1464226
0.12735758
0.11437133
0.10326849
0.095735828
0.089434441
0.085264349
0.081689016
0.079142444
0.076933688
0.075737811
0.074434013
3738367.1
604011.22
185437.12
78665.179
40029.272
22800.927
14004.067
9071.8957
6112.7033
4244.553
3017.8793
2187.0107
1610.0304
1201.1662
906.60398
691.50578
532.71142
414.46887
325.84874
259.12957
208.76072
170.67889
141.84707
119.93935
103.12676
89.938315
79.210511
69.928771
61.01778
51.890582
42.421054
32.90514
23.982323
16.399738
10.682494
6.8715821
4.5844269
3.2902875
2.5054648
1.9766321
1.5887158
1.2735425
1.0152482
0.81472418
0.65920407
0.53646254
0.43938325
0.36360849
0.30301525
0.25804413
0.21879221
0.18892317
0.16089142
0.1405053
0.12302609
0.11148557
0.10125232
0.094441461
0.088240655
0.084223521
0.080599407
0.078625782
0.07664512
0.075457101
0.074193716
3739014.3
604121.92
185474.44
78682.939
40039.435
22807.531
14008.796
9075.5659
6115.7569
4247.252
3020.3913
2189.4498
1612.4789
1203.6855
909.24027
694.29174
535.66542
417.59158
329.1176
262.49134
212.12324
173.90393
144.748
122.28766
104.68203
90.438087
78.238416
67.05746
56.293267
45.722933
35.505966
26.114178
18.135412
12.00697
7.7985488
5.1899389
3.6922905
2.80369
2.2217586
1.7888919
1.4346696
1.1512762
0.93089563
0.75294882
0.61021212
0.49863874
0.41127109
0.34353265
0.28858856
0.24557076
0.20790547
0.18008821
0.15409068
0.13593383
0.11937176
0.10839809
0.098503202
0.092195585
0.086607075
0.0831407
0.080128801
0.077966762
0.076123458
0.075067733
0.074058796
3739013.7
604118.93
185472.06
78681.237
40038.338
22806.882
14008.492
9075.5468
6115.9898
4247.7192
3021.0849
2190.368
1613.6228
1205.0565
910.83627
696.1036
537.67148
419.75141
331.36472
264.72606
214.20719
175.65955
145.97109
122.73346
104.01317
88.284109
74.435961
61.732829
49.816467
38.696313
28.677265
20.197163
13.598412
8.9453988
5.9568832
4.1992517
3.1598829
2.4941554
2.0093314
1.624522
1.3183556
1.0700268
0.8637447
0.69856571
0.57021988
0.46886
0.38783725
0.32411799
0.27200562
0.23330816
0.19877129
0.17312433
0.14833556
0.13090242
0.1154005
0.10561131
0.096678453
0.090923656
0.08578943
0.082392846
0.079249235
0.077571004
0.075920239
0.074905683
0.073949957
3739013.8
604119.07
185472.21
78681.44
40038.603
22807.215
14008.901
9076.0408
6116.5774
4248.4094
3021.8864
2191.2878
1614.6652
1206.2203
912.11264
697.47142
539.09293
421.16677
332.68766
265.84159
214.96932
175.87832
145.39019
121.07626
101.0902
84.05792
69.029414
55.457046
43.164839
32.27369
23.063714
15.789242
10.505706
6.9809245
4.8430707
3.5802199
2.8029771
2.2651057
1.8488997
1.509658
1.2248686
0.99011073
0.80422384
0.65566033
0.53644696
0.44172829
0.36672428
0.3083776
0.26080865
0.2241643
0.19094638
0.16684877
0.14328829
0.12756879
0.11287686
0.10371892
0.09494333
0.089549071
0.084431569
0.081618046
0.078913341
0.077148041
0.075540538
0.074640869
0.07383823
3739014
604119.15
185472.28
78681.535
40038.728
22807.376
14009.103
9076.2902
6116.8795
4248.7693
3022.3078
2191.772
1615.2087
1206.8132
912.73499
698.09011
539.65705
421.6027
332.89321
265.67747
214.25702
174.4272
143.03862
117.72039
96.709917
78.754203
63.050326
49.19228
37.093524
26.866908
18.670744
12.557632
8.3465616
5.7027428
4.1339106
3.1987808
2.5811433
2.1135166
1.7300781
1.4093394
1.1474194
0.9356929
0.76110617
0.61942185
0.50837492
0.4204066
0.35017434
0.29513088
0.24896713
0.21496634
0.18386062
0.16146945
0.13906151
0.1239424
0.10983336
0.1012648
0.093195899
0.088354835
0.083928049
0.080872975
0.078238504
0.076767576
0.075336127
0.074500428
0.073756867
3739014.9
604119.23
185472.29
78681.523
40038.716
22807.367
14009.1
9076.2967
6116.8981
4248.8015
3022.3527
2191.825
1615.2597
1206.8435
912.71407
697.97154
539.375
421.0693
331.99904
264.29883
212.26907
171.71569
139.524
113.38725
91.636754
73.133406
57.185924
43.465415
31.895833
22.516875
15.341921
10.241182
6.9115779
4.8889269
3.6935461
2.9417147
2.4044977
1.9787129
1.6263533
1.3329686
1.087213
0.88343732
0.71962992