/*--------------------------------*- C++ -*----------------------------------*\
  =========                 |
  \\      /  F ield         | OpenFOAM: The Open Source CFD Toolbox
   \\    /   O peration     | Website:  https://openfoam.org
    \\  /    A nd           | Version:  13
     \\/     M anipulation  |
\*---------------------------------------------------------------------------*/
FoamFile
{
    format      ascii;
    class       volScalarField;
    location    "49.201389";
    object      p;
}
// * * * * * * * * * * * * * * * * * * * * * * * * * * * * * * * * * * * * * //

dimensions      [0 2 -2 0 0 0 0];

internalField   nonuniform List<scalar> 
17140
(
-0.3394611
-0.33946904
-0.33947847
-0.33948854
-0.3394996
-0.33951181
-0.33952526
-0.33954003
-0.33955622
-0.33957392
-0.33959321
-0.33961418
-0.33963688
-0.33966135
-0.3396876
-0.3397156
-0.33974528
-0.33977651
-0.33980909
-0.33984278
-0.33987727
-0.33991223
-0.33994735
-0.33998244
-0.3400176
-0.34005345
-0.3400916
-0.3401352
-0.34018991
-0.34026506
-0.34037502
-0.34054001
-0.34078497
-0.34113479
-0.34160577
-0.34219696
-0.34288688
-0.34363864
-0.34441059
-0.3451677
-0.34588941
-0.34657129
-0.34723448
-0.34793032
-0.34872592
-0.34970493
-0.35098862
-0.35274566
-0.35519442
-0.35864692
-0.3634736
-0.37015031
-0.37906315
-0.39021159
-0.40287664
-0.41256673
-0.41021082
-0.36213716
-0.28285703
-0.22965023
-0.22248683
-0.24080235
-0.21919356
-0.12292818
-0.079573486
-0.3404035
-0.34041095
-0.34041999
-0.34042937
-0.34043967
-0.34045106
-0.34046361
-0.3404774
-0.34049252
-0.34050904
-0.34052705
-0.34054661
-0.34056778
-0.34059058
-0.34061501
-0.34064104
-0.34066858
-0.34069751
-0.34072762
-0.34075867
-0.34079036
-0.34082235
-0.34085436
-0.34088622
-0.34091804
-0.3409505
-0.34098524
-0.34102544
-0.34107674
-0.3411484
-0.34125452
-0.34141485
-0.34165367
-0.34199528
-0.34245608
-0.34303636
-0.34371725
-0.34446552
-0.34524386
-0.34602198
-0.34678472
-0.34753423
-0.34829963
-0.34914202
-0.35014296
-0.35140854
-0.35309197
-0.35541056
-0.35865511
-0.36325197
-0.36972963
-0.37882595
-0.39123058
-0.40752407
-0.42732029
-0.44714096
-0.45300766
-0.39859635
-0.30199456
-0.22768301
-0.19345546
-0.19538691
-0.16782941
-0.094859034
-0.070893954
-0.34140372
-0.34141048
-0.34141866
-0.34142721
-0.3414366
-0.341447
-0.34145846
-0.34147106
-0.34148487
-0.34149996
-0.34151641
-0.34153427
-0.34155357
-0.34157435
-0.34159659
-0.34162025
-0.34164524
-0.34167143
-0.34169861
-0.34172654
-0.34175492
-0.34178344
-0.3418118
-0.34183988
-0.3418678
-0.34189627
-0.34192694
-0.34196299
-0.34200999
-0.34207699
-0.34217769
-0.34233116
-0.3425608
-0.34289014
-0.34333558
-0.34389879
-0.34456378
-0.34530138
-0.34607892
-0.34687106
-0.34766805
-0.34847866
-0.34933941
-0.35032046
-0.3515173
-0.35305751
-0.35512482
-0.35798384
-0.36199665
-0.36770328
-0.37578982
-0.38725785
-0.40312428
-0.42454875
-0.45164537
-0.48182509
-0.49587773
-0.43397088
-0.31643202
-0.21675327
-0.16288291
-0.15093399
-0.114373
-0.06501627
-0.055437907
-0.3424478
-0.34245376
-0.34246095
-0.34246852
-0.34247685
-0.34248608
-0.34249627
-0.34250746
-0.34251974
-0.34253315
-0.34254777
-0.34256363
-0.34258077
-0.34259919
-0.34261888
-0.34263979
-0.34266182
-0.34268484
-0.34270865
-0.342733
-0.3427576
-0.34278215
-0.34280638
-0.34283016
-0.34285366
-0.34287759
-0.34290359
-0.34293481
-0.34297667
-0.34303792
-0.34313173
-0.34327627
-0.34349384
-0.34380703
-0.3442321
-0.34477214
-0.34541428
-0.34613365
-0.34690251
-0.34770063
-0.34852362
-0.34938677
-0.35033334
-0.35144161
-0.35282007
-0.35461625
-0.35704219
-0.36040721
-0.36514211
-0.37189623
-0.38150783
-0.39524638
-0.41442426
-0.4407742
-0.47505384
-0.51603749
-0.53695672
-0.465993
-0.32411097
-0.20081756
-0.12992889
-0.10904723
-0.066559487
-0.034681953
-0.037564774
-0.34352104
-0.3435261
-0.34353215
-0.34353862
-0.34354575
-0.34355365
-0.34356238
-0.34357198
-0.3435825
-0.34359401
-0.34360655
-0.34362014
-0.34363481
-0.34365056
-0.34366736
-0.34368516
-0.34370386
-0.34372331
-0.34374332
-0.34376365
-0.34378402
-0.34380414
-0.34382375
-0.34384275
-0.34386132
-0.34388017
-0.34390092
-0.34392663
-0.34396253
-0.34401698
-0.34410246
-0.34423613
-0.34443897
-0.34473238
-0.34513236
-0.34564336
-0.34625569
-0.34694902
-0.34770073
-0.34849579
-0.34933514
-0.35024029
-0.35126054
-0.35248116
-0.35402223
-0.35604906
-0.35879885
-0.36262166
-0.36801293
-0.37572326
-0.3867318
-0.40254668
-0.42479517
-0.45561123
-0.49649697
-0.54686123
-0.57199385
-0.49331322
-0.32566103
-0.18347587
-0.095338907
-0.068804944
-0.034361486
-0.0056671129
-0.017057028
-0.3446065
-0.34461058
-0.34461545
-0.3446207
-0.34462649
-0.34463292
-0.34464003
-0.34464786
-0.34465645
-0.34466585
-0.34467607
-0.34468715
-0.3446991
-0.34471189
-0.3447255
-0.34473987
-0.34475488
-0.34477041
-0.34478625
-0.34480217
-0.34481791
-0.34483318
-0.34484775
-0.34486154
-0.34487471
-0.34488799
-0.34490295
-0.34492251
-0.34495168
-0.34499834
-0.34507419
-0.34519521
-0.34538092
-0.34565133
-0.34602194
-0.34649845
-0.34707426
-0.34773369
-0.34845933
-0.34924148
-0.35008622
-0.3510209
-0.35210013
-0.35341483
-0.35509479
-0.35732025
-0.36034942
-0.36456749
-0.37052875
-0.37907242
-0.39130489
-0.40901223
-0.43394521
-0.46845435
-0.51489715
-0.57260231
-0.59909815
-0.51130369
-0.32384362
-0.15965043
-0.062799357
-0.031381979
0.00020200144
0.019525349
0.0026194704
-0.34568615
-0.34568919
-0.34569281
-0.34569674
-0.34570108
-0.34570593
-0.34571129
-0.34571721
-0.34572371
-0.34573081
-0.34573855
-0.34574691
-0.34575591
-0.34576551
-0.34577568
-0.34578634
-0.34579739
-0.34580869
-0.34582005
-0.34583123
-0.34584199
-0.34585207
-0.34586123
-0.34586941
-0.3458768
-0.34588407
-0.34589274
-0.34590558
-0.3459273
-0.34596527
-0.34603032
-0.34613716
-0.34630372
-0.3465484
-0.3468859
-0.347323
-0.34785596
-0.34847373
-0.34916414
-0.34992279
-0.35076078
-0.35171074
-0.35283187
-0.35421925
-0.35601002
-0.35839576
-0.36165045
-0.36618771
-0.37261621
-0.38183337
-0.39508129
-0.41416107
-0.4411628
-0.47863789
-0.52944429
-0.59031929
-0.61671314
-0.51759407
-0.31987853
-0.1405894
-0.037574287
0.0013707114
0.028913058
0.038130677
0.018407954
-0.34674163
-0.34674356
-0.34674589
-0.34674842
-0.34675125
-0.34675442
-0.34675794
-0.34676184
-0.34676613
-0.34677082
-0.34677591
-0.34678141
-0.34678729
-0.34679352
-0.34680005
-0.34680681
-0.34681368
-0.34682051
-0.34682713
-0.34683332
-0.34683883
-0.34684342
-0.34684687
-0.34684912
-0.34685034
-0.3468512
-0.34685311
-0.34685867
-0.34687225
-0.34690063
-0.34695375
-0.34704494
-0.34719065
-0.34740725
-0.3477085
-0.34810208
-0.34858652
-0.3491553
-0.3498013
-0.35052545
-0.35134359
-0.35229306
-0.35343688
-0.35487278
-0.35674249
-0.3592444
-0.36266147
-0.3674269
-0.37418498
-0.38390168
-0.39783516
-0.41793914
-0.44627094
-0.48546862
-0.53848376
-0.59995179
-0.62162288
-0.51312431
-0.31171406
-0.12997515
-0.019721769
0.025433734
0.05066462
0.051346513
0.028157482
-0.3477538
-0.3477546
-0.34775559
-0.3477567
-0.34775796
-0.34775941
-0.34776104
-0.34776286
-0.34776487
-0.34776707
-0.34776945
-0.34777199
-0.34777466
-0.34777741
-0.34778019
-0.34778292
-0.34778547
-0.3477877
-0.34778944
-0.34779047
-0.34779055
-0.34778946
-0.34778699
-0.34778307
-0.34777788
-0.34777201
-0.34776677
-0.34776456
-0.34776938
-0.34778743
-0.34782769
-0.34790199
-0.34802607
-0.34821321
-0.34847522
-0.34882185
-0.34925257
-0.34976545
-0.35035798
-0.35103632
-0.35182083
-0.35275286
-0.35389845
-0.35535656
-0.35727037
-0.35983995
-0.36334965
-0.3682455
-0.37524628
-0.38529905
-0.39950658
-0.42000883
-0.44851463
-0.48857228
-0.54251119
-0.60094289
-0.61441464
-0.4968335
-0.29903135
-0.12447649
-0.012177877
0.036819766
0.065146431
0.058684756
0.03377001
-0.34870559
-0.34870527
-0.34870492
-0.34870461
-0.34870431
-0.34870403
-0.34870376
-0.3487035
-0.34870322
-0.34870292
-0.34870256
-0.34870213
-0.34870156
-0.34870081
-0.34869982
-0.34869847
-0.34869666
-0.34869425
-0.34869104
-0.34868684
-0.34868142
-0.34867454
-0.34866602
-0.34865578
-0.34864394
-0.34863105
-0.34861827
-0.34860777
-0.34860314
-0.34860993
-0.34863614
-0.34869147
-0.34879465
-0.34894952
-0.34916994
-0.34946755
-0.34984054
-0.35029171
-0.35082236
-0.35144377
-0.35218057
-0.35307747
-0.35420271
-0.35565518
-0.35757617
-0.36016068
-0.36367428
-0.36868133
-0.37582503
-0.38590817
-0.4000412
-0.42017529
-0.44783121
-0.48808196
-0.54047594
-0.59389563
-0.59540971
-0.47261662
-0.28173673
-0.12235381
-0.015478488
0.039042567
0.071702747
0.061738554
0.038104808
-0.34957982
-0.34957841
-0.34957677
-0.34957507
-0.34957326
-0.3495713
-0.34956918
-0.34956688
-0.34956438
-0.34956163
-0.3495586
-0.34955525
-0.34955152
-0.34954735
-0.34954264
-0.34953731
-0.34953122
-0.34952422
-0.34951615
-0.34950678
-0.3494959
-0.34948327
-0.34946869
-0.34945207
-0.34943349
-0.3494134
-0.3493928
-0.34937358
-0.34935892
-0.34935374
-0.34936529
-0.34939773
-0.34948271
-0.34961085
-0.34977896
-0.3500284
-0.35033972
-0.35072394
-0.35118477
-0.35173838
-0.35241337
-0.35325717
-0.35433958
-0.3557582
-0.35765028
-0.36019283
-0.36368568
-0.36872579
-0.37583033
-0.38568213
-0.39942965
-0.41880712
-0.44548994
-0.48450967
-0.53407771
-0.57886746
-0.56728054
-0.44975948
-0.26184623
-0.12238513
-0.022796647
0.032010577
0.067542726
0.061103708
0.039962957
-0.35036397
-0.35036154
-0.35035869
-0.35035569
-0.35035245
-0.35034891
-0.35034505
-0.35034082
-0.3503362
-0.35033114
-0.35032558
-0.35031947
-0.35031273
-0.35030529
-0.35029705
-0.3502879
-0.35027772
-0.35026633
-0.35025357
-0.35023922
-0.35022304
-0.35020481
-0.3501843
-0.35016138
-0.35013608
-0.35010872
-0.35008014
-0.35005194
-0.35002686
-0.3500091
-0.35000414
-0.3500249
-0.35007403
-0.35015344
-0.35028985
-0.3504918
-0.3507395
-0.35105294
-0.35143735
-0.3519132
-0.35251281
-0.35328622
-0.35430348
-0.3556603
-0.35748644
-0.35992927
-0.36341591
-0.36835168
-0.37524144
-0.38466043
-0.39773024
-0.41586304
-0.44181093
-0.47818107
-0.5228186
-0.55672649
-0.53271593
-0.41976056
-0.24523368
-0.12367944
-0.031675208
0.02078224
0.055835468
0.054569645
0.038410357
-0.35104653
-0.35104318
-0.35103924
-0.35103508
-0.35103055
-0.35102558
-0.35102013
-0.35101417
-0.35100763
-0.35100046
-0.3509926
-0.35098397
-0.35097448
-0.35096405
-0.35095258
-0.35093993
-0.35092597
-0.35091053
-0.35089341
-0.35087441
-0.35085326
-0.35082973
-0.35080354
-0.35077453
-0.35074262
-0.35070801
-0.35067132
-0.35063383
-0.35059781
-0.35056689
-0.35054559
-0.35054586
-0.35055785
-0.35061084
-0.35071619
-0.35084782
-0.35103499
-0.35127298
-0.35157532
-0.35196428
-0.35247576
-0.35316176
-0.35409184
-0.35535939
-0.35707349
-0.35939408
-0.36280089
-0.36756341
-0.37405575
-0.38288128
-0.39497559
-0.4122077
-0.43645871
-0.4694895
-0.50739728
-0.52845055
-0.49105529
-0.3814691
-0.23393228
-0.12531954
-0.041180149
0.0092947123
0.043166301
0.045142195
0.032381102
-0.35162226
-0.35161813
-0.35161326
-0.35160809
-0.35160245
-0.35159625
-0.35158945
-0.35158198
-0.35157378
-0.35156479
-0.35155492
-0.35154409
-0.35153221
-0.35151917
-0.35150485
-0.35148913
-0.35147183
-0.3514528
-0.3514318
-0.35140862
-0.35138297
-0.35135456
-0.35132311
-0.35128833
-0.35125005
-0.35120828
-0.35116338
-0.35111625
-0.35106865
-0.35102347
-0.35098466
-0.35095963
-0.35095049
-0.35096743
-0.35101894
-0.35110021
-0.3512205
-0.35138106
-0.35159634
-0.35189045
-0.35230208
-0.35288476
-0.35370726
-0.3548607
-0.35642555
-0.35864287
-0.36183673
-0.36632646
-0.37231234
-0.38041436
-0.39172746
-0.40772997
-0.42917096
-0.4584934
-0.48846901
-0.49560113
-0.45063241
-0.34808372
-0.22202757
-0.12718391
-0.050519783
-0.0030310723
0.029303358
0.034188269
0.025229366
-0.35208807
-0.35208333
-0.35207773
-0.35207178
-0.35206527
-0.35205809
-0.35205021
-0.35204154
-0.35203202
-0.35202157
-0.35201009
-0.3519975
-0.35198368
-0.35196852
-0.35195189
-0.35193365
-0.35191361
-0.35189158
-0.35186733
-0.3518406
-0.35181107
-0.3517784
-0.35174223
-0.35170216
-0.35165786
-0.35160912
-0.35155598
-0.3514989
-0.35143902
-0.35137844
-0.35132035
-0.35126962
-0.35123104
-0.35121068
-0.35121428
-0.35124089
-0.35129373
-0.3513758
-0.35150062
-0.35169359
-0.3519952
-0.3524598
-0.35315568
-0.35416631
-0.35555322
-0.3576338
-0.36056296
-0.36464794
-0.37008285
-0.37750541
-0.38790054
-0.40165243
-0.4208801
-0.44564392
-0.46423896
-0.45856387
-0.40888008
-0.3225972
-0.21215761
-0.12897784
-0.059513397
-0.014777622
0.015797761
0.023252349
0.016853068
-0.35244825
-0.35244311
-0.35243701
-0.35243052
-0.35242341
-0.35241557
-0.35240693
-0.35239743
-0.35238697
-0.35237549
-0.35236287
-0.35234902
-0.35233381
-0.35231713
-0.35229882
-0.35227872
-0.35225664
-0.35223237
-0.35220565
-0.35217617
-0.35214357
-0.35210745
-0.35206732
-0.35202269
-0.35197301
-0.35191781
-0.35185675
-0.35178982
-0.35171748
-0.35164102
-0.35156271
-0.35148604
-0.35141519
-0.35135476
-0.35130856
-0.35127687
-0.35126056
-0.35126202
-0.35129333
-0.35137969
-0.351562
-0.35189384
-0.35244349
-0.35326988
-0.35447812
-0.35632133
-0.35894104
-0.36260272
-0.36748411
-0.37418632
-0.38296571
-0.39516806
-0.41211143
-0.43062956
-0.43724585
-0.42325919
-0.3702937
-0.29721928
-0.20394246
-0.13058133
-0.067802014
-0.02598829
0.002855092
0.012155079
0.0088744628
-0.35270978
-0.35270444
-0.35269812
-0.35269138
-0.35268398
-0.3526758
-0.35266678
-0.35265685
-0.35264591
-0.35263388
-0.35262066
-0.35260613
-0.35259016
-0.35257263
-0.35255337
-0.35253221
-0.35250893
-0.3524833
-0.35245501
-0.35242373
-0.35238903
-0.35235042
-0.35230729
-0.35225898
-0.35220471
-0.35214369
-0.35207516
-0.35199852
-0.35191352
-0.35182053
-0.35172076
-0.35161648
-0.35151088
-0.3514075
-0.35130922
-0.35121654
-0.35112903
-0.35104806
-0.3509836
-0.35095916
-0.35101429
-0.35120062
-0.35158391
-0.35220093
-0.35321018
-0.35471718
-0.3570432
-0.36022855
-0.36449378
-0.37011903
-0.37799643
-0.38887064
-0.4023471
-0.41128424
-0.40882062
-0.38757762
-0.34247831
-0.27559173
-0.19696004
-0.13185915
-0.075279066
-0.036155417
-0.0088920829
0.0023304651
0.0010710596
-0.35288603
-0.35288075
-0.35287449
-0.35286779
-0.35286043
-0.35285229
-0.3528433
-0.35283339
-0.35282247
-0.35281044
-0.35279719
-0.35278262
-0.3527666
-0.35274897
-0.35272958
-0.35270822
-0.35268467
-0.35265866
-0.35262986
-0.35259787
-0.35256218
-0.35252221
-0.35247721
-0.3524263
-0.35236847
-0.35230253
-0.35222724
-0.35214137
-0.35204384
-0.35193404
-0.351812
-0.35167873
-0.35153624
-0.35138713
-0.35123368
-0.35107649
-0.35091477
-0.3507488
-0.35058598
-0.3504465
-0.35036568
-0.35039212
-0.35057642
-0.35097174
-0.35172581
-0.35294228
-0.35487932
-0.35752378
-0.36123739
-0.36621603
-0.3731915
-0.38158488
-0.38885782
-0.39094291
-0.38213952
-0.35605512
-0.31624755
-0.25790161
-0.19065697
-0.13277669
-0.081822163
-0.045330613
-0.019540493
-0.007066866
-0.0059916648
-0.35299375
-0.35298878
-0.35298288
-0.35297655
-0.35296959
-0.35296188
-0.35295336
-0.35294395
-0.35293356
-0.35292211
-0.35290948
-0.35289557
-0.35288024
-0.35286333
-0.35284468
-0.35282408
-0.35280128
-0.35277597
-0.35274779
-0.35271628
-0.35268085
-0.35264078
-0.35259519
-0.35254295
-0.35248275
-0.352413
-0.35233191
-0.35223753
-0.35212793
-0.35200137
-0.35185665
-0.35169343
-0.35151241
-0.35131523
-0.3511037
-0.35087863
-0.35063937
-0.35038543
-0.35012126
-0.34986186
-0.34963524
-0.34948277
-0.34943656
-0.34959778
-0.35001797
-0.35094898
-0.35242319
-0.35479942
-0.3578434
-0.36235273
-0.36758319
-0.37255895
-0.37432188
-0.37075716
-0.35497836
-0.33248865
-0.29392846
-0.242809
-0.18481619
-0.13325978
-0.087373575
-0.053346397
-0.028898698
-0.015312788
-0.012502002
-0.35305365
-0.35304925
-0.35304402
-0.35303841
-0.35303223
-0.35302537
-0.35301777
-0.35300936
-0.35300007
-0.3529898
-0.35297846
-0.35296593
-0.35295207
-0.35293675
-0.35291978
-0.35290094
-0.35287995
-0.3528565
-0.35283016
-0.35280039
-0.35276654
-0.35272775
-0.35268294
-0.35263076
-0.35256954
-0.35249726
-0.35241154
-0.35230968
-0.35218879
-0.352046
-0.35187878
-0.35168534
-0.35146504
-0.35121842
-0.35094678
-0.35065114
-0.35033122
-0.34998588
-0.34961612
-0.34922901
-0.34884329
-0.34848097
-0.34818179
-0.34803657
-0.34813258
-0.34880543
-0.35007155
-0.35207228
-0.35465701
-0.35801611
-0.36037813
-0.36051379
-0.35709677
-0.3504708
-0.33359921
-0.30973255
-0.2748164
-0.22989842
-0.17941833
-0.13336187
-0.091973731
-0.06027411
-0.037075587
-0.022806707
-0.018294158
-0.3530912
-0.35308765
-0.35308343
-0.35307889
-0.35307387
-0.35306828
-0.35306208
-0.3530552
-0.35304757
-0.35303912
-0.35302974
-0.35301934
-0.35300779
-0.35299493
-0.35298058
-0.35296451
-0.35294643
-0.35292598
-0.35290268
-0.35287595
-0.35284499
-0.35280882
-0.35276616
-0.35271539
-0.35265449
-0.35258097
-0.35249184
-0.35238362
-0.35225246
-0.35209432
-0.35190532
-0.35168224
-0.35142299
-0.35112696
-0.35079479
-0.35042752
-0.35002497
-0.34958501
-0.349104
-0.3485795
-0.34801867
-0.34742901
-0.34688847
-0.34645979
-0.34641371
-0.34698656
-0.34803712
-0.34961946
-0.35147923
-0.35223696
-0.35073631
-0.34787838
-0.34180958
-0.32936849
-0.31428933
-0.29098534
-0.2586371
-0.21860871
-0.17428926
-0.13302733
-0.095627621
-0.066108086
-0.044064986
-0.029349233
-0.023449264
-0.35313372
-0.35313131
-0.35312843
-0.35312532
-0.35312186
-0.35311799
-0.35311366
-0.35310884
-0.35310345
-0.35309744
-0.35309072
-0.3530832
-0.35307475
-0.35306522
-0.35305443
-0.35304213
-0.35302801
-0.35301167
-0.35299259
-0.35297007
-0.35294324
-0.35291094
-0.35287168
-0.35282356
-0.35276419
-0.3526906
-0.3525992
-0.35248576
-0.35234548
-0.35217322
-0.35196381
-0.35171266
-0.3514163
-0.35107282
-0.35068202
-0.35024446
-0.3497592
-0.34922225
-0.34862419
-0.34795305
-0.34721539
-0.34643067
-0.34570431
-0.3452072
-0.34523127
-0.34550007
-0.3461538
-0.34677515
-0.34648046
-0.34385424
-0.34048624
-0.33492541
-0.32573489
-0.31408451
-0.29719312
-0.27422254
-0.24440777
-0.20861043
-0.16940937
-0.13231554
-0.098420561
-0.070941275
-0.049967927
-0.035095388
-0.027943979
-0.35321858
-0.35321759
-0.35321638
-0.35321505
-0.35321353
-0.35321179
-0.3532098
-0.35320753
-0.35320494
-0.35320196
-0.35319854
-0.35319457
-0.35318996
-0.35318455
-0.35317813
-0.35317047
-0.35316121
-0.3531499
-0.35313596
-0.35311861
-0.35309683
-0.3530693
-0.3530343
-0.35298965
-0.35293259
-0.35285969
-0.35276677
-0.35264891
-0.35250045
-0.35231524
-0.35208688
-0.35180962
-0.35147902
-0.35109183
-0.35064672
-0.35014327
-0.34957836
-0.3489466
-0.34823193
-0.34743084
-0.34656224
-0.34566799
-0.34497518
-0.34444602
-0.34428862
-0.34417247
-0.34393352
-0.34264343
-0.3397774
-0.33557153
-0.32998455
-0.32167328
-0.31159718
-0.29834511
-0.28146479
-0.25951101
-0.23191386
-0.19962262
-0.16467553
-0.13121197
-0.10039806
-0.07482596
-0.054841793
-0.040027298
-0.03183851
-0.35338538
-0.35338605
-0.35338679
-0.35338753
-0.35338827
-0.35338902
-0.35338976
-0.35339046
-0.3533911
-0.35339165
-0.35339203
-0.35339217
-0.35339196
-0.35339125
-0.35338982
-0.3533874
-0.35338359
-0.3533779
-0.35336966
-0.35335796
-0.35334166
-0.35331924
-0.35328874
-0.3532477
-0.35319299
-0.35312079
-0.35302635
-0.35290418
-0.35274793
-0.35255066
-0.35230507
-0.35200564
-0.35164589
-0.35122101
-0.35072876
-0.35016757
-0.3495316
-0.34881827
-0.3480198
-0.34713752
-0.34624106
-0.34545433
-0.3446584
-0.34402386
-0.34353286
-0.34245362
-0.34044757
-0.3370123
-0.33254373
-0.32678585
-0.31845412
-0.30913313
-0.29814916
-0.28459611
-0.26757801
-0.24635609
-0.22071767
-0.19143338
-0.16006388
-0.12976064
-0.10164642
-0.077850499
-0.058789257
-0.044211587
-0.035162472
-0.35369496
-0.3536974
-0.35370025
-0.35370322
-0.3537064
-0.35370982
-0.35371348
-0.35371736
-0.35372146
-0.35372574
-0.35373015
-0.35373461
-0.35373902
-0.35374319
-0.35374691
-0.35374984
-0.35375156
-0.35375149
-0.35374886
-0.35374264
-0.35373154
-0.35371384
-0.35368737
-0.3536494
-0.35359652
-0.35352457
-0.35342853
-0.35330256
-0.35314019
-0.35293484
-0.35267254
-0.35234527
-0.3519623
-0.35150742
-0.3509789
-0.35037553
-0.34968995
-0.34894065
-0.34808042
-0.34722963
-0.3463665
-0.3455476
-0.34468291
-0.34370931
-0.34214696
-0.33953808
-0.33541955
-0.33032922
-0.32411191
-0.31680606
-0.30680309
-0.29729589
-0.28565644
-0.27160919
-0.25471962
-0.23442754
-0.21057269
-0.18385679
-0.15550881
-0.1279655
-0.10222266
-0.080079753
-0.061887242
-0.04768288
-0.037941782
-0.35421089
-0.35421509
-0.35422002
-0.35422519
-0.35423076
-0.35423679
-0.35424329
-0.35425026
-0.35425769
-0.35426555
-0.3542738
-0.35428235
-0.35429107
-0.35429976
-0.35430816
-0.35431589
-0.35432245
-0.35432716
-0.35432914
-0.35432723
-0.35431994
-0.35430537
-0.35428114
-0.35424427
-0.35419112
-0.3541173
-0.3540176
-0.35388625
-0.35371766
-0.35349044
-0.35320267
-0.35287998
-0.35248686
-0.3520068
-0.35145486
-0.35083069
-0.35011373
-0.34934494
-0.34856767
-0.34769672
-0.34681828
-0.34591706
-0.34462078
-0.34269618
-0.33975199
-0.33523532
-0.32965098
-0.32351826
-0.31546402
-0.30574308
-0.29683866
-0.28617151
-0.27389859
-0.2596845
-0.24301687
-0.22355821
-0.20126832
-0.17676463
-0.15098774
-0.12585737
-0.10219808
-0.081589951
-0.064218971
-0.050492021
-0.04021412
-0.35501941
-0.35502508
-0.35503173
-0.35503873
-0.35504627
-0.35505445
-0.35506327
-0.35507274
-0.35508284
-0.35509355
-0.3551048
-0.35511649
-0.35512845
-0.35514046
-0.35515217
-0.35516316
-0.3551728
-0.35518032
-0.35518469
-0.35518456
-0.35517827
-0.3551637
-0.35513822
-0.35509864
-0.35504107
-0.35496073
-0.35485204
-0.35471084
-0.35452926
-0.35430673
-0.35402502
-0.3536704
-0.35324776
-0.35276687
-0.35220313
-0.35156526
-0.35087755
-0.35010568
-0.34931577
-0.34846726
-0.34744076
-0.34603499
-0.34389484
-0.34072363
-0.33601348
-0.33001254
-0.32373914
-0.31557809
-0.30640301
-0.29702132
-0.2866898
-0.27541082
-0.26280354
-0.24847007
-0.23209659
-0.2134818
-0.19260887
-0.17002801
-0.14645578
-0.123445
-0.10162448
-0.082442395
-0.065852896
-0.052683805
-0.042006552
-0.35620548
-0.35621204
-0.35621972
-0.3562278
-0.3562365
-0.35624592
-0.35625606
-0.35626691
-0.35627845
-0.35629064
-0.35630337
-0.35631651
-0.35632984
-0.35634309
-0.35635583
-0.35636752
-0.35637744
-0.35638467
-0.35638799
-0.35638588
-0.35637646
-0.35635737
-0.35632576
-0.35627814
-0.35620987
-0.35611539
-0.35600203
-0.35587484
-0.35570939
-0.35544954
-0.35511365
-0.35474697
-0.35432219
-0.35382052
-0.35325478
-0.35261611
-0.35191645
-0.35115337
-0.35031078
-0.34925327
-0.34778231
-0.34553888
-0.34226051
-0.33755365
-0.33122802
-0.32478863
-0.3166327
-0.30726272
-0.29780731
-0.28760079
-0.2768647
-0.26517185
-0.25226515
-0.23793
-0.22190427
-0.20407922
-0.18446579
-0.16356124
-0.14189137
-0.12074823
-0.10055565
-0.082698065
-0.066854749
-0.054296897
-0.04334754
-0.35787205
-0.35787871
-0.35788649
-0.35789464
-0.35790339
-0.35791282
-0.35792291
-0.35793364
-0.35794495
-0.35795676
-0.35796893
-0.35798127
-0.35799349
-0.35800522
-0.35801596
-0.35802504
-0.3580316
-0.35803453
-0.35803246
-0.35802365
-0.35800601
-0.35797693
-0.35793299
-0.35787025
-0.3577934
-0.35770114
-0.35758256
-0.35740177
-0.35715188
-0.35687231
-0.35655023
-0.35615322
-0.35570298
-0.35518224
-0.35458236
-0.35392124
-0.35319906
-0.35235309
-0.35128975
-0.34978537
-0.34752137
-0.34414245
-0.33958055
-0.33318202
-0.32667724
-0.3184909
-0.30885785
-0.29926462
-0.28926087
-0.27863635
-0.26736196
-0.25527092
-0.24218144
-0.22790474
-0.21224916
-0.1951786
-0.17670324
-0.15727585
-0.13726251
-0.11777482
-0.09903241
-0.082407178
-0.067280506
-0.055373125
-0.044261247
-0.36009098
-0.36009693
-0.36010385
-0.36011104
-0.3601187
-0.36012686
-0.36013548
-0.3601445
-0.36015381
-0.36016328
-0.3601727
-0.36018178
-0.36019017
-0.36019736
-0.3602027
-0.36020538
-0.36020433
-0.36019825
-0.36018553
-0.36016413
-0.36013126
-0.36008411
-0.36002725
-0.3599513
-0.35985106
-0.3597182
-0.35951915
-0.35928337
-0.3590239
-0.3587049
-0.35832721
-0.35788466
-0.35737697
-0.35681113
-0.35617967
-0.35546308
-0.35462561
-0.35355565
-0.35203404
-0.3497454
-0.34636324
-0.34166249
-0.3354451
-0.32869781
-0.32072899
-0.31101836
-0.30131747
-0.29134098
-0.28079032
-0.26968769
-0.25802727
-0.24567075
-0.23246879
-0.21830622
-0.20303862
-0.18667787
-0.16922786
-0.15110848
-0.13254822
-0.11453565
-0.097092642
-0.081615686
-0.06717944
-0.055945135
-0.044764586
-0.36294216
-0.36294677
-0.36295207
-0.36295747
-0.3629631
-0.36296893
-0.36297488
-0.36298081
-0.36298656
-0.36299191
-0.36299654
-0.36300005
-0.36300194
-0.36300152
-0.36299796
-0.3629902
-0.3629769
-0.36295644
-0.36292681
-0.36288556
-0.36282983
-0.36275753
-0.36266499
-0.36254389
-0.36238163
-0.36218392
-0.36195335
-0.36167635
-0.36134652
-0.36095767
-0.36050748
-0.35999779
-0.35942618
-0.35878959
-0.3580717
-0.35722808
-0.35614594
-0.35461537
-0.35232804
-0.34898781
-0.34435765
-0.33824529
-0.33125207
-0.323583
-0.31379705
-0.30386042
-0.29392918
-0.28340268
-0.27238147
-0.26088528
-0.24888219
-0.23630095
-0.22304087
-0.20902822
-0.19415253
-0.17846223
-0.16194555
-0.14499641
-0.12772365
-0.11103509
-0.094765554
-0.080361831
-0.066594328
-0.056047567
-0.044881975
-0.36655831
-0.36656104
-0.36656406
-0.36656695
-0.36656969
-0.36657221
-0.36657434
-0.36657587
-0.36657653
-0.36657597
-0.36657373
-0.36656925
-0.36656179
-0.36655047
-0.36653413
-0.36651138
-0.36648052
-0.36643945
-0.36638567
-0.36631625
-0.36622809
-0.36611704
-0.36597091
-0.36579146
-0.36558161
-0.36532833
-0.36502559
-0.36466782
-0.36425147
-0.36377634
-0.36324105
-0.36264338
-0.36198085
-0.36123682
-0.3603617
-0.35924253
-0.35768069
-0.35539119
-0.35207002
-0.34755168
-0.34156461
-0.33457508
-0.32697665
-0.31750855
-0.30731062
-0.29731993
-0.28659803
-0.27549651
-0.26400992
-0.25212418
-0.23983014
-0.22708571
-0.21381537
-0.1999832
-0.18550223
-0.17044618
-0.15478368
-0.1388899
-0.12276871
-0.10727723
-0.092076215
-0.078678705
-0.065561594
-0.055707758
-0.044626562
-0.37115637
-0.37115636
-0.37115605
-0.37115526
-0.37115384
-0.37115157
-0.37114822
-0.37114344
-0.37113684
-0.37112789
-0.37111597
-0.37110027
-0.37107981
-0.37105337
-0.37101947
-0.37097628
-0.37092163
-0.37085289
-0.37076698
-0.37066028
-0.37052862
-0.37036734
-0.3701712
-0.36993513
-0.36965312
-0.36931915
-0.36892877
-0.36847965
-0.36796935
-0.36739572
-0.36675798
-0.36605091
-0.36525492
-0.36431792
-0.3631303
-0.3615017
-0.35917444
-0.35585485
-0.35137924
-0.34559747
-0.33851289
-0.33095221
-0.32158847
-0.31142625
-0.30119548
-0.29032725
-0.27908718
-0.2675097
-0.25559463
-0.24336767
-0.23082655
-0.21795897
-0.20471462
-0.19108528
-0.17699829
-0.16254564
-0.14767296
-0.13274146
-0.11766212
-0.10326245
-0.089043769
-0.076593593
-0.064112741
-0.054953855
-0.044019108
-0.37706406
-0.37705988
-0.37705455
-0.37704825
-0.37704061
-0.37703127
-0.37701986
-0.3770059
-0.37698883
-0.37696792
-0.3769423
-0.37691091
-0.37687245
-0.37682533
-0.37676767
-0.37669719
-0.37661118
-0.37650647
-0.37637934
-0.37622558
-0.37604039
-0.37581849
-0.37555418
-0.37524167
-0.37487584
-0.3744524
-0.37396708
-0.3734164
-0.37279854
-0.37211062
-0.37134402
-0.37047484
-0.36944755
-0.36815323
-0.36641314
-0.36398368
-0.3606082
-0.35608626
-0.35037982
-0.34332956
-0.33571401
-0.32640467
-0.31613206
-0.30572479
-0.294701
-0.28328319
-0.27150525
-0.25942727
-0.24709799
-0.23455064
-0.22179702
-0.20884545
-0.19566053
-0.18225487
-0.16856307
-0.15468941
-0.14055479
-0.12651029
-0.11238471
-0.098989943
-0.085683766
-0.074129314
-0.062274555
-0.053808743
-0.043074073
-0.38461645
-0.38460618
-0.38459353
-0.38457926
-0.38456268
-0.38454325
-0.38452043
-0.38449358
-0.38446192
-0.38442449
-0.38438014
-0.38432751
-0.38426493
-0.38419045
-0.38410171
-0.38399597
-0.38387
-0.38372004
-0.38354183
-0.38333056
-0.38308101
-0.38278776
-0.38244529
-0.38204807
-0.38159064
-0.3810682
-0.3804769
-0.37981266
-0.37906909
-0.3782326
-0.37727315
-0.37612963
-0.37469184
-0.37278745
-0.37018875
-0.366651
-0.3619871
-0.35610286
-0.34897953
-0.3411125
-0.33196713
-0.32150503
-0.31090442
-0.29973496
-0.28808092
-0.2760462
-0.26371174
-0.25115789
-0.23843848
-0.22560274
-0.21267298
-0.19967285
-0.186578
-0.17341591
-0.16012272
-0.14681051
-0.13337453
-0.12015806
-0.10691725
-0.094456676
-0.082007773
-0.071304016
-0.060070036
-0.052293633
-0.041807017
-0.39422415
-0.39420549
-0.39418279
-0.39415764
-0.39412893
-0.39409586
-0.39405774
-0.3940137
-0.39396273
-0.39390361
-0.39383488
-0.39375479
-0.39366129
-0.39355204
-0.39342427
-0.39327475
-0.39309984
-0.39289529
-0.39265645
-0.39237827
-0.39205526
-0.39168157
-0.39125134
-0.39075884
-0.39019847
-0.38956439
-0.38884947
-0.38804269
-0.38712409
-0.38605604
-0.38477042
-0.38315423
-0.38103961
-0.37821209
-0.37444276
-0.36955122
-0.36344595
-0.35609195
-0.34780152
-0.33858326
-0.32791653
-0.31698609
-0.30557666
-0.2936209
-0.28124449
-0.26856363
-0.25566704
-0.24263866
-0.22954629
-0.21644936
-0.20337743
-0.19036444
-0.17739139
-0.16449517
-0.15160883
-0.13884834
-0.12608321
-0.11365006
-0.10124152
-0.089658461
-0.078024656
-0.068131545
-0.057518319
-0.050418646
-0.040240011
-0.40621048
-0.40618088
-0.40614513
-0.4061059
-0.4060616
-0.40601111
-0.40595355
-0.40588786
-0.40581273
-0.40572668
-0.40562799
-0.40551468
-0.4053842
-0.40523361
-0.40505993
-0.40486139
-0.40463206
-0.4043637
-0.40405499
-0.40370264
-0.40329864
-0.40283679
-0.40231068
-0.40171325
-0.40103619
-0.4002685
-0.3993935
-0.39838368
-0.39719248
-0.39574332
-0.39391786
-0.39155008
-0.38843297
-0.38435333
-0.37913365
-0.37269225
-0.36500192
-0.35629835
-0.34673645
-0.33577241
-0.32440292
-0.3125439
-0.30008449
-0.28723707
-0.27408598
-0.2607293
-0.24726072
-0.23377017
-0.22033026
-0.20700612
-0.19383072
-0.18084363
-0.1680271
-0.15542279
-0.14295712
-0.13074666
-0.11863569
-0.10695421
-0.095340078
-0.084590303
-0.073741484
-0.064625148
-0.054639485
-0.048216765
-0.038371763
-0.42088873
-0.42084514
-0.4207933
-0.42073683
-0.42067347
-0.42060181
-0.42052068
-0.42042842
-0.42032513
-0.42021621
-0.42010189
-0.4199571
-0.41976639
-0.41955371
-0.41932828
-0.41907426
-0.41878272
-0.41844932
-0.41806951
-0.41763721
-0.41714555
-0.41658683
-0.41595188
-0.41522905
-0.4144023
-0.41344787
-0.4123291
-0.41098883
-0.40934009
-0.40725731
-0.40457283
-0.40108717
-0.39659389
-0.39093367
-0.38400653
-0.3758352
-0.36656934
-0.35647295
-0.34504806
-0.33307381
-0.32064936
-0.30756594
-0.29411721
-0.28037512
-0.26643319
-0.25239877
-0.23837033
-0.22444189