/*--------------------------------*- C++ -*----------------------------------*\
  =========                 |
  \\      /  F ield         | OpenFOAM: The Open Source CFD Toolbox
   \\    /   O peration     | Website:  https://openfoam.org
    \\  /    A nd           | Version:  13
     \\/     M anipulation  |
\*---------------------------------------------------------------------------*/
FoamFile
{
    format      ascii;
    class       surfaceScalarField;
    location    "36.397001";
    object      phi;
}
// * * * * * * * * * * * * * * * * * * * * * * * * * * * * * * * * * * * * * //

dimensions      [0 3 -1 0 0 0 0];

internalField   nonuniform List<scalar> 
34068
(
-1.0379832e-08
-4.0829227e-08
5.1209059e-08
-4.6209104e-08
-1.4157438e-07
1.7740365e-07
-1.1600673e-07
-2.7654082e-07
3.4633845e-07
-2.3053306e-07
-4.5439372e-07
5.6892005e-07
-4.0331652e-07
-6.857057e-07
8.5848917e-07
-6.5129354e-07
-9.8334291e-07
1.2313199e-06
-9.9561175e-07
-1.3628809e-06
1.7071991e-06
-1.4625323e-06
-1.8431933e-06
2.3101138e-06
-2.0845514e-06
-2.4470422e-06
3.0690613e-06
-2.9017809e-06
-3.2017537e-06
4.0189832e-06
-3.9635606e-06
-4.1400571e-06
5.2018368e-06
-5.3303366e-06
-5.3010766e-06
6.6678528e-06
-7.0758787e-06
-6.7314147e-06
8.4769567e-06
-9.2898462e-06
-8.4864296e-06
1.0700397e-05
-1.2080722e-05
-1.0631676e-05
1.3422551e-05
-1.5579137e-05
-1.324453e-05
1.6742945e-05
-1.9941547e-05
-1.6416003e-05
2.0778413e-05
-2.5354225e-05
-2.0252705e-05
2.5665384e-05
-3.2037449e-05
-2.4878913e-05
3.1562137e-05
-4.0249723e-05
-3.0438626e-05
3.86509e-05
-5.0291736e-05
-3.7097395e-05
4.7139409e-05
-6.2509646e-05
-4.5043627e-05
5.7261537e-05
-7.729714e-05
-5.4488794e-05
6.9276288e-05
-9.5095426e-05
-6.5665927e-05
8.3464213e-05
-0.00011639016
-7.8825387e-05
0.00010012013
-0.00014170401
-9.4226975e-05
0.00011954082
-0.0001715832
-0.0001121276
0.00014200679
-0.00020657677
-0.0001327647
0.00016775826
-0.00024720734
-0.00015633809
0.00019696866
-0.00029393498
-0.0001829974
0.00022972504
-0.00034712016
-0.00021284914
0.00026603432
-0.00040700022
-0.00024600269
0.00030588275
-0.00047370061
-0.00028266693
0.00034936732
-0.00054729592
-0.00032327557
0.00039687088
-0.0006279069
-0.00036857907
0.00044919005
-0.00071578979
-0.00041965731
0.0005075402
-0.00081138304
-0.00047789037
0.00057348363
-0.00091531515
-0.00054497137
0.00064890348
-0.0010284019
-0.00062300817
0.0007360949
-0.0011516581
-0.00071471592
0.00083797214
-0.0012863382
-0.00082369747
0.00095837752
-0.0014340129
-0.00095482281
0.0011024976
-0.001596692
-0.0011147273
0.0012774063
-0.0017770053
-0.0013124894
0.0014928027
-0.0019784304
-0.001560411
0.0017618362
-0.0022054832
-0.0018746106
0.0021016633
-0.0024640186
-0.0022759486
0.002534484
-0.002761639
-0.00279127
0.0030888904
-0.0031080671
-0.0034537616
0.0038001896
-0.0035156242
-0.0043023937
0.0047099509
-0.0039999873
-0.0053788655
0.0058632286
-0.0045813403
-0.0067182393
0.0072995923
-0.0052857386
-0.0083253579
0.0090297561
-0.0061456655
-0.010123295
0.010983222
-0.0071988421
-0.01185664
0.012909817
-0.008478122
-0.012934162
0.014213442
-0.0099896532
-0.012084952
0.013596483
-0.011580093
-0.0070322565
0.0086226966
-0.012700512
0.0058190465
-0.0046986274
-0.012059742
0.030056344
-0.030697115
-0.0086964279
0.064275654
-0.067638968
-0.0035123929
0.096964197
-0.10214823
0.0024237902
0.11120751
-0.1171437
0.014154176
0.072939781
-0.084670167
-0.033674188
0.035621029
0.012207335
-1.0836591e-08
-2.9992636e-08
-4.8241377e-08
-1.0416959e-07
-1.2110722e-07
-2.0367498e-07
-2.4066793e-07
-3.3483301e-07
-4.2104004e-07
-5.0533359e-07
-6.798934e-07
-7.2448954e-07
-1.0392879e-06
-1.0034864e-06
-1.5266238e-06
-1.3558574e-06
-2.1758131e-06
-1.7978529e-06
-3.0287313e-06
-2.3488355e-06
-4.1368665e-06
-3.0319218e-06
-5.563286e-06
-3.8746572e-06
-7.3849378e-06
-4.9097628e-06
-9.6953206e-06
-6.1760468e-06
-1.2607532e-05
-7.7194647e-06
-1.6257702e-05
-9.5943598e-06
-2.0808804e-05
-1.1864901e-05
-2.6454767e-05
-1.4606742e-05
-3.3424783e-05
-1.7908898e-05
-4.1987622e-05
-2.1875787e-05
-5.2455657e-05
-2.662936e-05
-6.518818e-05
-3.2311104e-05
-8.0593384e-05
-3.9083591e-05
-9.9128231e-05
-4.7131081e-05
-0.00012129512
-5.6658498e-05
-0.00014763405
-6.7888047e-05
-0.00017870872
-8.1052924e-05
-0.00021508516
-9.6388265e-05
-0.00025730196
-0.00011412129
-0.00030583385
-0.00013446551
-0.000361055
-0.00015762799
-0.00042321703
-0.00018384066
-0.00049246342
-0.00021342054
-0.00056889478
-0.00024684421
-0.00065266948
-0.00028480437
-0.00074409452
-0.00032823228
-0.0008436732
-0.0003783117
-0.00095211546
-0.00043652911
-0.0010703402
-0.00050478345
-0.0011994948
-0.00058556132
-0.0013410067
-0.00068218551
-0.0014966752
-0.00079915433
-0.0016688122
-0.00094259034
-0.0018604498
-0.0011208518
-0.0020755984
-0.0013452624
-0.0023194487
-0.0016307603
-0.0025986896
-0.0019967077
-0.0029219245
-0.0024680351
-0.0032999955
-0.0030756905
-0.0037463175
-0.0038560717
-0.0042773082
-0.0048478749
-0.0049129088
-0.0060826387
-0.0056768445
-0.0075614223
-0.0065954908
-0.0092046492
-0.0076941095
-0.010758022
-0.0089799122
-0.011648359
-0.010416472
-0.010648392
-0.011803773
-0.0056449559
-0.012602347
0.0066176201
-0.011681503
0.029135501
-0.0080613392
0.06065549
-0.0022648824
0.091167741
0.00584892
0.10309371
0.021786285
0.057002416
-0.057290383
0.045402481
-1.1170249e-08
-1.8822386e-08
-4.9727106e-08
-6.5612733e-08
-1.2483667e-07
-1.2856541e-07
-2.4807053e-07
-2.1159914e-07
-4.3397608e-07
-3.1942804e-07
-7.0078396e-07
-4.5768166e-07
-1.0711938e-06
-6.3307653e-07
-1.573449e-06
-8.5360213e-07
-2.2425694e-06
-1.1287325e-06
-3.1217444e-06
-1.4696605e-06
-4.2640557e-06
-1.8896105e-06
-5.7345314e-06
-2.4041814e-06
-7.6125112e-06
-3.031783e-06
-9.9943911e-06
-3.7941669e-06
-1.2996763e-05
-4.717093e-06
-1.675995e-05
-5.8311728e-06
-2.1451918e-05
-7.1729329e-06
-2.7272499e-05
-8.7861612e-06
-3.4457813e-05
-1.0723583e-05
-4.3284688e-05
-1.3048912e-05
-5.4074776e-05
-1.5839272e-05
-6.7197938e-05
-1.9187942e-05
-8.3074265e-05
-2.3207263e-05
-0.00010217394
-2.8031403e-05
-0.00012501384
-3.3818596e-05
-0.00015214957
-4.0752319e-05
-0.0001841614
-4.90411e-05
-0.00022163262
-5.8917043e-05
-0.00026511965
-7.0634253e-05
-0.00031511539
-8.4469777e-05
-0.00037201259
-0.00010073079
-0.00043608245
-0.0001197708
-0.00050749012
-0.00014201286
-0.00058636135
-0.00016797298
-0.0006728852
-0.00019828052
-0.00076740793
-0.00023370955
-0.00087048348
-0.00027523615
-0.00098288712
-0.00032412547
-0.0011056219
-0.00038204862
-0.0012399447
-0.0004512386
-0.0013874264
-0.00053470373
-0.0015500557
-0.0006365251
-0.0017303927
-0.00076225334
-0.0019317973
-0.00091944716
-0.0021587072
-0.0011183525
-0.0024168388
-0.0013726287
-0.0027135005
-0.0017000461
-0.0030579712
-0.0021235644
-0.0034617108
-0.0026719509
-0.003938448
-0.0033793344
-0.0045041261
-0.0042821968
-0.0051765682
-0.0054101965
-0.005974299
-0.0067636915
-0.0069133712
-0.0082655769
-0.0080009955
-0.0096703973
-0.0092120741
-0.010437281
-0.010463054
-0.0093974119
-0.011506229
-0.0046017812
-0.011775335
0.006886726
-0.010217198
0.027577364
-0.0058638908
0.056302183
0.001125188
0.084178662
0.012779365
0.091439533
0.03306994
0.036711841
-0.08142342
0.057202977
-1.1361512e-08
-7.4608744e-09
-5.0578435e-08
-2.639581e-08
-1.2697496e-07
-5.2168888e-08
-2.523271e-07
-8.6246996e-08
-4.4145161e-07
-1.3030353e-07
-7.129036e-07
-1.8622967e-07
-1.0898149e-06
-2.5616519e-07
-1.6009493e-06
-3.4246777e-07
-2.2819376e-06
-4.4774425e-07
-3.1767485e-06
-5.7484962e-07
-4.3394516e-06
-7.269074e-07
-5.8362845e-06
-9.0734848e-07
-7.7480746e-06
-1.1199929e-06
-1.017304e-05
-1.3692015e-06
-1.3229993e-05
-1.6601401e-06
-1.706195e-05
-1.9992154e-06
-2.1840129e-05
-2.3947547e-06
-2.7768263e-05
-2.8580263e-06
-3.5087135e-05
-3.404712e-06
-4.4079102e-05
-4.0569448e-06
-5.5072344e-05
-4.8460299e-06
-6.8444368e-05
-5.8159188e-06
-8.4624173e-05
-7.0274575e-06
-0.00010409225
-8.5633309e-06
-0.00012737731
-1.0533528e-05
-0.00015504854
-1.3081098e-05
-0.00018770161
-1.6388027e-05
-0.00022593733
-2.0681326e-05
-0.00027033182
-2.6239759e-05
-0.00032140001
-3.3401589e-05
-0.00037955877
-4.257203e-05
-0.00044510481
-5.4224759e-05
-0.00051822842
-6.8889252e-05
-0.00059907726
-8.7124137e-05
-0.00068786419
-0.00010949358
-0.00078496217
-0.00013661157
-0.00089095945
-0.00016923887
-0.0010066776
-0.00020840734
-0.0011331821
-0.00025554413
-0.001271812
-0.00031260873
-0.0014242468
-0.00038226887
-0.0015926169
-0.00046815507
-0.001779669
-0.00057520121
-0.0019890068
-0.00071010936
-0.0022253709
-0.00088198838
-0.0024948425
-0.0011031571
-0.0028051154
-0.0013897732
-0.0031657966
-0.0017628833
-0.0035884373
-0.0022493102
-0.0040862749
-0.0028814969
-0.0046735351
-0.0036949366
-0.0053640033
-0.0047197283
-0.0061680433
-0.0059596515
-0.0070870565
-0.0073465637
-0.0081047426
-0.0086527112
-0.0091580366
-0.0093839869
-0.01011503
-0.0084404189
-0.01067376
-0.004043051
-0.010210942
0.0064239083
-0.0076450418
0.025011464
-0.0020177951
0.050674936
0.0070467535
0.075114113
0.022914841
0.075571446
0.046763781
0.0128629
-0.10508895
0.070429315
-1.139519e-08
3.9343152e-09
-5.0732359e-08
1.2941359e-08
-1.2736978e-07
2.4468533e-08
-2.5312886e-07
3.9512079e-08
-4.4287772e-07
5.9445335e-08
-7.1523579e-07
8.6128395e-08
-1.0934522e-06
1.2205121e-07
-1.6064254e-06
1.7050541e-07
-2.2899581e-06
2.3578846e-07
-3.1882473e-06
3.234396e-07
-4.3556564e-06
4.4050171e-07
-5.8588044e-06
5.9579954e-07
-7.7790099e-06
8.0021248e-07
-1.0215121e-05
1.06691e-06
-1.3286758e-05
1.4114963e-06
-1.7137966e-05
1.8519933e-06
-2.1941278e-05
2.4085569e-06
-2.79021e-05
3.102796e-06
-3.5263339e-05
3.9565272e-06
-4.4310052e-05
4.9897681e-06
-5.537384e-05
6.2177578e-06
-6.8836547e-05
7.6467883e-06
-8.5132665e-05
9.2686602e-06
-0.00010474963
1.1053631e-05
-0.00012822494
1.2941784e-05
-0.00015613883
1.4832797e-05
-0.00018910093
1.657407e-05
-0.00022772941
1.7947151e-05
-0.00027262184
1.8652668e-05
-0.00032431894
1.8295518e-05
-0.00038326687
1.6375902e-05
-0.00044979422
1.2302587e-05
-0.00052412403
5.4405575e-06
-0.00060641574
-4.8324265e-06
-0.00069690354
-1.900578e-05
-0.00079597225
-3.7542866e-05
-0.00090422549
-6.0985621e-05
-0.0010225096
-9.0123233e-05
-0.0011519276
-0.00012612612
-0.0012938658
-0.00017067049
-0.0014500719
-0.00022606281
-0.0016227644
-0.00029546259
-0.0018148063
-0.00038315931
-0.0020299491
-0.00049496656
-0.0022730994
-0.00063883804
-0.0025505228
-0.00082573368
-0.0028700455
-0.0010702505
-0.0032412326
-0.0013916962
-0.0036751755
-0.0018153673
-0.0041837856
-0.0023728868
-0.0047782876
-0.0031004346
-0.005466418
-0.0040315979
-0.0062472085
-0.0051788609
-0.0071025335
-0.0064912388
-0.0079855143
-0.0077697304
-0.0087888185
-0.0085806826
-0.0093250888
-0.0079041486
-0.0092304458
-0.004137694
-0.0077610769
0.0049545394
-0.0037584508
0.021008838
0.0036670125
0.043249473
0.015542059
0.063239067
0.03534189
0.055771615
0.061540701
-0.013335911
-0.12781669
0.084268439
-1.1258755e-08
1.519307e-08
-5.0129369e-08
5.1811974e-08
-1.2586644e-07
1.0020561e-07
-2.50163e-07
1.6380863e-07
-4.3772988e-07
2.4701222e-07
-7.0700049e-07
3.55399e-07
-1.0809855e-06
4.9603625e-07
-1.5883052e-06
6.7782513e-07
-2.264431e-06
9.1191418e-07
-3.1531698e-06
1.2121785e-06
-4.3084293e-06
1.5957612e-06
-5.7963013e-06
2.0836716e-06
-7.6975029e-06
2.701414e-06
-1.0110207e-05
3.4796142e-06
-1.315329e-05
4.4545794e-06
-1.6970007e-05
5.6687098e-06
-2.1732075e-05
7.1706249e-06
-2.7644123e-05
9.0148447e-06
-3.4948395e-05
1.1260799e-05
-4.3929522e-05
1.3970896e-05
-5.4919098e-05
1.7207334e-05
-6.8299628e-05
2.1027318e-05
-8.4507275e-05
2.5476307e-05
-0.00010403262
3.0578973e-05
-0.00012741838
3.632755e-05
-0.00015525288
4.2667292e-05
-0.0001881576
4.9478788e-05
-0.00022676749
5.6557044e-05
-0.00027170286
6.3588041e-05
-0.00032353361
7.0126262e-05
-0.00038274129
7.5583582e-05
-0.0004496896
7.9250904e-05
-0.00052462591
8.037686e-05
-0.00060775528
7.8296947e-05
-0.00069930482
7.2543755e-05
-0.00079965527
6.2807587e-05
-0.00090940493
4.8764036e-05
-0.0010293986
2.9870412e-05
-0.0011607508
5.2261347e-06
-0.0013048505
-2.6570768e-05
-0.0014634721
-6.7441295e-05
-0.0016388591
-0.00012007553
-0.0018339094
-0.000188109
-0.0020524114
-0.00027646454
-0.0022992996
-0.00039194985
-0.0025808079
-0.00054422542
-0.0029046194
-0.00074643892
-0.0032798631
-0.0010164525
-0.0037165824
-0.001378648
-0.0042244805
-0.0018649888
-0.0048104163
-0.0025144987
-0.0054739156
-0.0033680985
-0.0061991932
-0.0044535833
-0.0069428205
-0.0057476115
-0.0076172372
-0.0070953137
-0.0080619387
-0.0081359812
-0.0080107688
-0.0079553185
-0.0069628391
-0.0051856237
-0.0040496095
0.0020413098
0.0017109306
0.015248298
0.011127668
0.033832735
0.025964679
0.048402056
0.048961189
0.032775105
0.076589725
-0.040964446
-0.14907389
0.097846927
-1.0947736e-08
2.6140806e-08
-4.8748225e-08
8.9612463e-08
-1.2240802e-07
1.738654e-07
-2.4331182e-07
2.8471244e-07
-4.2578702e-07
4.2948741e-07
-6.8779275e-07
6.1740473e-07
-1.0517562e-06
8.5999969e-07
-1.545584e-06
1.1716529e-06
-2.2038794e-06
1.5702096e-06
-3.0694003e-06
2.0776994e-06
-4.1947937e-06
2.7211545e-06
-5.6446492e-06
3.5335271e-06
-7.4979053e-06
4.5546702e-06
-9.8506523e-06
5.8323612e-06
-1.2819352e-05
7.4232788e-06
-1.6544495e-05
9.3938536e-06
-2.1194693e-05
1.1820823e-05
-2.6971147e-05
1.4791298e-05
-3.4112416e-05
1.8402067e-05
-4.2899318e-05
2.2757798e-05
-5.3659705e-05
2.7967721e-05
-6.6772708e-05
3.4140321e-05
-8.267193e-05
4.1375529e-05
-0.00010184681
4.9753855e-05
-0.00012484118
5.9321919e-05
-0.00015224775
7.0073859e-05
-0.00018469704
8.192808e-05
-0.00022283921
9.4699216e-05
-0.0002673175
0.00010806632
-0.00031873356
0.00012154232
-0.00037760858
0.00013445861
-0.00044435092
0.00014599325
-0.00051925084
0.00015527677
-0.00060252526
0.00016157137
-0.0006944067
0.00016442519
-0.0007952554
0.00016365628
-0.00090564027
0.00015914891
-0.0010263763
0.00015060646
-0.0011585347
0.00013738455
-0.0013035016
0.00011839604
-0.001463
9.205712e-05
-0.0016392299
5.6154437e-05
-0.0018350381
7.6991564e-06
-0.0020541169
-5.7385745e-05
-0.0023012696
-0.00014479714
-0.0025824674
-0.00026302768
-0.0029049304
-0.00042397592
-0.0032769154
-0.00064446741
-0.0037067664
-0.00094879711
-0.0042009953
-0.0013707599
-0.0047605654
-0.0019549287
-0.0053743708
-0.0027542931
-0.0060080717
-0.0038198825
-0.0065868068
-0.0051688764
-0.0069697168
-0.0067124038
-0.0069323766
-0.0081733213
-0.0060890827
-0.0087986124
-0.0037834239
-0.0074912825
0.00076842069
-0.0025105348
0.0082309343
0.0077857843
0.019664402
0.022399268
0.037351257
0.0307152
0.06296874
0.0071576221
0.091473463
-0.06946917
-0.16788468
0.11028425
-1.0452363e-08
3.6593168e-08
-4.6550009e-08
1.2571011e-07
-1.1690502e-07
2.4422041e-07
-2.3240707e-07
4.0021448e-07
-4.0676646e-07
6.038468e-07
-6.5717655e-07
8.6781482e-07
-1.0051188e-06
1.207942e-06
-1.4773386e-06
1.6438727e-06
-2.1070188e-06
2.1998898e-06
-2.9351905e-06
2.9058711e-06
-4.0124138e-06
3.7983777e-06
-5.4007694e-06
4.9218827e-06
-7.1762054e-06
6.3301062e-06
-9.4312702e-06
8.087426e-06
-1.2278275e-05
1.0270283e-05
-1.5852893e-05
1.2968472e-05
-2.0318214e-05
1.6286144e-05
-2.5869213e-05
2.0342298e-05
-3.2737562e-05
2.5270415e-05
-4.1196636e-05
3.1216872e-05
-5.1566503e-05
3.8337588e-05
-6.4218523e-05
4.6792341e-05
-7.9579058e-05
5.6736065e-05
-9.8131586e-05
6.8306383e-05
-0.00012041628
8.1606616e-05
-0.00014702586
9.6683436e-05
-0.0001785962
0.00011349842
-0.00021579017
0.00013189319
-0.00025927322
0.00015154938
-0.00030968023
0.00017194933
-0.00036757625
0.00019235463
-0.00043341962
0.00021183661
-0.00050754538
0.00022940254
-0.00059019283
0.00024421882
-0.00068158735
0.00025581971
-0.00078205205
0.00026412099
-0.00089210031
0.00026919717
-0.0010124832
0.00027098935
-0.0011442092
0.00026911057
-0.001288576
0.00026276278
-0.001447217
0.00025069814
-0.0016222093
0.00023114677
-0.0018162131
0.00020170292
-0.0020327304
0.00015913159
-0.0022761934
9.8665837e-05
-0.0025520774
1.2856348e-05
-0.0028667466
-0.00010930671
-0.0032270845
-0.00028412949
-0.0036389423
-0.00053693934
-0.0041044524
-0.0009052498
-0.0046167954
-0.0014425857
-0.0051513498
-0.0022197386
-0.0056512503
-0.003319982
-0.0060056274
-0.0048144992
-0.0060160976
-0.0067019336
-0.0053788581
-0.0088105608
-0.003602982
-0.010574489
-5.4689781e-06
-0.011088795
0.0059631582
-0.008479162
0.015065708
-0.0013167652
0.028737884
0.0087270913
0.049249072
0.010204013
0.07743345
-0.021026756
0.10579671
-0.097832431
-0.18277001
0.12068204
-9.7771505e-09
4.6370319e-08
-4.3554166e-08
1.5948713e-07
-1.0940367e-07
3.1006992e-07
-2.1753768e-07
5.0834849e-07
-3.8081922e-07
7.6712834e-07
-6.1538769e-07
1.1023833e-06
-9.414207e-07
1.533975e-06
-1.3840559e-06
2.0865079e-06
-1.9745062e-06
2.7903401e-06
-2.7513985e-06
3.6827634e-06
-3.7623754e-06
4.8093547e-06
-5.0659994e-06
6.2255068e-06
-6.7340025e-06
7.9981092e-06
-8.8539152e-06
1.0207339e-05
-1.1532127e-05
1.2948495e-05
-1.4897394e-05
1.6333739e-05
-1.9104812e-05
2.0493562e-05
-2.4340234e-05
2.5577719e-05
-3.0825097e-05
3.1755279e-05
-3.8821526e-05
3.9213301e-05
-4.8637516e-05
4.8153578e-05
-6.0631919e-05
5.8786744e-05
-7.5218733e-05
7.1322879e-05
-9.2870082e-05
8.5957732e-05
-0.000114117
0.00010285353
-0.00013954688
0.00012211332
-0.00016979618
0.00014374771
-0.00020553665
0.00016763366
-0.00024745362
0.00019346635
-0.00029621501
0.00022071073
-0.00035243212
0.00024857173
-0.00041661787
0.00027602236
-0.00048915762
0.00030194229
-0.00057031745
0.00032537865
-0.00066031017
0.00034581243
-0.00075940542
0.00036321624
-0.00086803382
0.00037782556
-0.00098684699
0.00038980252
-0.0011167407
0.00039900428
-0.001258875
0.00040489707
-0.0014147162
0.00040653938
-0.0015861218
0.00040255231
-0.0017754737
0.00039105488
-0.001985864
0.0003695218
-0.0022211615
0.00033396337
-0.0024859393
0.00027763419
-0.0027853824
0.0001901364
-0.0031242465
5.4734543e-05
-0.0035048606
-0.0001563252
-0.003923354
-0.00048675637
-0.0043624856
-0.001003454
-0.0047803222
-0.001801902
-0.0050925723
-0.003007732
-0.0051468357
-0.0047602358
-0.0046860678
-0.0071627015
-0.0033325124
-0.010164116
-0.00055815803
-0.013348843
0.0042392487
-0.015886202
0.011643772
-0.015883685
0.022538964
-0.012211957
0.038687018
-0.0074209635
0.062272811
-0.013381779
0.092618062
-0.051372008
0.11861914
-0.12383351
-0.19225342
0.12810255
-8.9329776e-09
5.5303297e-08
-3.9806158e-08
1.9036031e-07
-1.0001493e-07
3.7027869e-07
-1.9891915e-07
6.0725272e-07
-3.4831541e-07
9.165246e-07
-5.6301438e-07
1.3170823e-06
-8.6154576e-07
1.8325064e-06
-1.2670127e-06
2.4919748e-06
-1.8081285e-06
3.3314559e-06
-2.5204623e-06
4.3950972e-06
-3.4479386e-06
5.736831e-06
-4.6446197e-06
7.4221879e-06
-6.176825e-06
9.5303146e-06
-8.125624e-06
1.2156138e-05
-1.0589747e-05
1.5412618e-05
-1.3688954e-05
1.9432946e-05
-1.7567874e-05
2.4372482e-05
-2.2400343e-05
3.0410188e-05
-2.839418e-05
3.7749116e-05
-3.5796349e-05
4.661547e-05
-4.4898338e-05
5.7255567e-05
-5.6041499e-05
6.9929906e-05
-6.9621972e-05
8.4903351e-05
-8.6094594e-05
0.00010243035
-0.00010597504
0.00012273398
-0.00012983904
0.00014597733
-0.0001583175
0.00017222616
-0.00019208555
0.00020140171
-0.00023184403
0.00023322483
-0.00027829133
0.00026715803
-0.00033208496
0.00030236536
-0.00039379549
0.00033773289
-0.00046386406
0.00037201086
-0.00054258823
0.00040410283
-0.00063016597
0.00043339017
-0.00072679858
0.00045984885
-0.00083280561
0.0004838326
-0.0009486988
0.00050569571
-0.0010752089
0.00052551435
-0.0012132959
0.00054298405
-0.0013641745
0.00055741802
-0.0015293746
0.00056775245
-0.0017108471
0.00057252735
-0.0019110724
0.00056974713
-0.0021330365
0.00055592748
-0.0023800938
0.0005246914
-0.0026555147
0.0004655573
-0.0029609781
0.00036019795
-0.0032938841
0.00017658086
-0.0036417367
-0.00013890382
-0.0039728017
-0.00067238901
-0.0042220427
-0.0015526611
-0.0042691729
-0.0029606017
-0.0039067192
-0.0051226895
-0.0028043387
-0.0082650819
-0.00050749641
-0.012460959
0.0034980523
-0.017354392
0.0098038432
-0.022191993
0.018974491
-0.025054333
0.032049873
-0.025287339
0.050890558
-0.026261649
0.077562122
-0.040053343
0.10794379
-0.081753672
0.1276176
-0.14350733
-0.19630931
0.13167349
-7.9375783e-09
6.3240875e-08
-3.5384863e-08
2.1780759e-07
-8.8935924e-08
4.2382975e-07
-1.7694149e-07
6.9525828e-07
-3.0993344e-07
1.0495166e-06
-5.011447e-07
1.5082935e-06
-7.6714431e-07
2.098506e-06
-1.1286117e-06
2.8534422e-06
-1.6112751e-06
3.8141193e-06
-2.2470469e-06
5.030869e-06
-3.07539e-06
6.5651741e-06
-4.1449579e-06
8.4917558e-06
-5.5155442e-06
1.0900901e-05
-7.2604018e-06
1.3900995e-05
-9.4689578e-06
1.7621175e-05
-1.2249993e-05
2.2213981e-05
-1.5735311e-05
2.78578e-05
-2.0083908e-05
3.4758786e-05
-2.5486672e-05
4.315188e-05
-3.2171532e-05
5.330033e-05
-4.0408988e-05
6.5493023e-05
-5.0517775e-05
8.0038693e-05
-6.2870407e-05
9.7255984e-05
-7.7898057e-05
0.000117458
-9.6094075e-05
0.00014092999
-0.00011801522
0.00016789847
-0.00014427923
0.00019849017
-0.00017555721
0.00023267969
-0.00021255865
0.00027022627
-0.00025600683
0.00031060621
-0.00030660218
0.00035296071
-0.00036497298
0.0003961037
-0.00043161998
0.00043865785
-0.00050687763
0.00047936048
-0.0005909295
0.00051744204
-0.00068389644
0.00055281578
-0.00078595825
0.00058589441
-0.00089744286
0.00061718032
-0.0010188578
0.00064692931
-0.0011508892
0.00067501539
-0.0012944023
0.00070093121
-0.0014504686
0.00072381869
-0.0016204244
0.00074248319
-0.0018058815
0.00075520422
-0.0020085613
0.00075860722
-0.0022300245
0.00074615464
-0.0024707429
0.00070627571
-0.002727941
0.00061739606
-0.0029914686
0.00044010844
-0.0032361077
0.00010573528
-0.0034089034
-0.00049959331
-0.0034110164
-0.001550548
-0.0030664103
-0.0033052079
-0.0020782537
-0.0061108461
9.0427277e-06
-0.010352378
0.0037630307
-0.016214947
0.0097131384
-0.023304499
0.018300652
-0.030779507
0.029999925
-0.036753605
0.04577757
-0.041064984
0.067296887
-0.047780966
0.094972951
-0.067729407
0.12016739
-0.10694811
0.13206906
-0.155409
-0.1972786
0.13303835
-6.8158853e-09
7.005676e-08
-3.0401303e-08
2.4139301e-07
-7.6444754e-08
4.698732e-07
-1.5215593e-07
7.7096946e-07
-2.6663383e-07
1.1639945e-06
-4.3132253e-07
1.6729822e-06
-6.6056521e-07
2.3277487e-06
-9.7228399e-07
3.165161e-06
-1.3888065e-06
4.2306418e-06
-1.9378691e-06
5.5799316e-06
-2.6538328e-06
7.2811378e-06
-3.5791445e-06
9.4170675e-06
-4.7660951e-06
1.2087851e-05
-6.2789165e-06
1.5413817e-05
-8.1962688e-06
1.9538527e-05
-1.0614175e-05
2.4631888e-05
-1.3649448e-05
3.0893072e-05
-1.7443652e-05
3.855299e-05
-2.2167641e-05
4.7875869e-05
-2.8026629e-05
5.9159318e-05
-3.5265781e-05
7.2732175e-05
-4.4176168e-05
8.8949079e-05
-5.5100828e-05
0.00010818064
-6.8440586e-05
0.00013079776
-8.4658979e-05
0.00015714839
-0.00010428544
0.00018752493
-0.00012791558
0.00022212031
-0.00015620689
0.000260971
-0.00018986785
0.00030388723
-0.00022963743
0.00035037579
-0.00027625133
0.00039957461
-0.00033039113
0.00045024349
-0.00039261763
0.00050088435
-0.00046330676
0.00055004961
-0.00054263064
0.00059676591
-0.00063062082
0.00064080597
-0.00072728988
0.00068256347
-0.00083273482
0.00072262527
-0.00094717463
0.00076136912
-0.0010709351
0.00079877587
-0.0012044169
0.00083441304
-0.001348072
0.00086747375
-0.0015023939
0.00089680514
-0.0016677831
0.00092059335
-0.0018441851
0.00093500927
-0.0020305436
0.00093251309
-0.0022231879
0.00089892005
-0.0024125089
0.000806717
-0.0025766785
0.00060427808
-0.0026704907
0.00019954749
-0.002608432
-0.00056165205
-0.0022351424
-0.0019238376
-0.0012731363
-0.0042672139
0.00074426814
-0.0081282506
0.004481311
-0.014089421
0.010658675
-0.022392311
0.019687299
-0.032333122
0.031544471
-0.04263668
0.046288219
-0.051497354
0.064318277
-0.059095042
0.086049052
-0.069511742
0.10898876
-0.090669113
0.12555109
-0.12351044
0.13248523
-0.16234314
-0.19807403
0.13328066
-5.6026479e-09
7.5659408e-08
-2.5010097e-08
2.6080046e-07
-6.2929347e-08
5.0779245e-07
-1.2533072e-07
8.3337084e-07
-2.1975738e-07
1.2584211e-06
-3.5570522e-07
1.8089301e-06
-5.4509185e-07
2.5171353e-06
-8.0282915e-07
3.4228983e-06
-1.1475258e-06
4.5753385e-06
-1.6023438e-06
6.0347495e-06
-2.1960381e-06
7.8748322e-06
-2.9642267e-06
1.0185256e-05
-3.9509157e-06
1.307454e-05
-5.210348e-06
1.6673249e-05
-6.8092151e-06
2.1137394e-05
-8.8292978e-06
2.665197e-05
-1.1370597e-05
3.3434371e-05
-1.455502e-05
4.1737414e-05
-1.853066e-05
5.1851508e-05
-2.3476713e-05
6.4105372e-05
-2.960903e-05
7.8864492e-05
-3.7186222e-05
9.6526271e-05
-4.6516179e-05
0.0001175106
-5.7962658e-05
0.00014224424
-7.1951531e-05
0.00017113726
-8.8975847e-05
0.00020454925
-0.0001095987
0.00024274317
-0.0001344524
0.0002858247
-0.00016423166
0.00033366649
-0.00019967783
0.00038582196
-0.00024154896
0.00044144575
-0.0002905695
0.00049926403
-0.0003473551
0.00055766995
-0.00041232458
0.0006150191
-0.00048564229
0.00067008363
-0.00056724539
0.00072240906
-0.00065695382
0.0007722719
-0.00075458406
0.0008202555
-0.00085999269
0.00086677775
-0.00097304426
0.00091182743
-0.0010935355
0.00095490426
-0.0012211003
0.00099503861
-0.0013550885
0.0010307933
-0.0014942197
0.0010597245
-0.0016359532
0.0010767428
-0.0017753749
0.0010719348
-0.0019024982
0.0010260433
-0.0019969076
0.00090112643
-0.002017862
0.00062523248
-0.0018886509
7.0336312e-05
-0.0014686365
-0.00098166642
-0.00049812061
-0.0028943535
0.001495881
-0.0062612156
0.0052745247
-0.011906894
0.011727894
-0.02054279
0.021357916
-0.032022333
0.0339018
-0.044877006
0.048475875
-0.057210755
0.064378176
-0.067399654
0.081300127
-0.076016992
0.098900546
-0.087112161
0.11478357
-0.10655213
0.12577939
-0.13450626
0.13131632
-0.16788007
-0.19972954
0.13297183
-4.3399946e-09
7.9999403e-08
-1.9397369e-08
2.7585783e-07
-4.8854419e-08
5.372495e-07
-9.7387014e-08
8.8190343e-07
-1.7090965e-07
1.3319437e-06
-2.7687952e-07
1.9148999e-06
-4.2466852e-07
2.6649243e-06
-6.2602715e-07
3.624257e-06
-8.956487e-07
4.84496e-06
-1.2518687e-06
6.3909695e-06
-1.71752e-06
8.3404836e-06
-2.3209814e-06
1.0788717e-05
-3.0974575e-06
1.3851016e-05
-4.0905427e-06
1.7666334e-05
-5.3541227e-06
2.2400974e-05
-6.9546794e-06
2.8252527e-05
-8.9740619e-06
3.5453753e-05
-1.1512823e-05
4.4276176e-05
-1.4694169e-05
5.5032854e-05
-1.8668605e-05
6.8079807e-05
-2.3619322e-05
8.381521e-05
-2.9768314e-05
0.00010267526
-3.7383135e-05
0.00012512542
-4.6784136e-05
0.00015164524
-5.8351714e-05
0.00018270484
-7.2533083e-05
0.00021873062
-8.9847495e-05
0.00026005758
-0.00011088858
0.00030686579
-0.00013632172
0.00035909962
-0.00016687289
0.00041637313
-0.00020330373
0.00047787659
-0.00024636367
0.00054232396
-0.00029670952
0.0006080158
-0.00035479718
0.00067310676
-0.00042078467
0.00073607112
-0.00049451201
0.0007961364
-0.00057558389
0.00085334378
-0.00066348476
0.00090815637
-0.00075762541
0.00096091841
-0.00085728849
0.0010114905
-0.00096149474
0.0010591105
-0.0010688067
0.0011023505
-0.001177021
0.0011390077
-0.0012825246
0.001165228
-0.0013792286
0.0011734469
-0.0014564251
0.0011491313
-0.0014942064
0.0010638246
-0.0014546292
0.00086154923
-0.0012662142
0.00043681748
-0.00079930629
-0.00039657162
0.00018607464
-0.0019670473
0.0021519614
-0.0048602402
0.00590368
-0.010012934
0.012449412
-0.018452627
0.022371522
-0.0304649
0.035140654
-0.044791465
0.049349894
-0.059086247
0.063505654
-0.071366515
0.076948308
-0.080842309
0.089907286
-0.08897597
0.10279308
-0.099997953
0.11427867
-0.11803773
0.12326666
-0.14349424
0.12946169
-0.1740751
-0.20322051
0.13295265
-3.0803596e-09
8.3079762e-08
-1.3797129e-08
2.865746e-07
-3.4807644e-08
5.5826001e-07
-6.9490894e-08
9.1658668e-07
-1.2212899e-07
1.3845818e-06
-1.9812844e-07
1.9908994e-06
-3.043023e-07
2.7710982e-06
-4.4921206e-07
3.7691667e-06
-6.4359817e-07
5.0393461e-06
-9.0091163e-07
6.6482829e-06
-1.2379755e-06
8.6775475e-06
-1.6757994e-06
1.1226541e-05
-2.2406065e-06
1.4415823e-05
-2.9650826e-06
1.839081e-05
-3.8899438e-06
2.3325835e-05
-5.0658579e-06
2.9428441e-05
-6.5558274e-06
3.6943723e-05
-8.4380727e-06
4.6158421e-05
-1.0809595e-05
5.7404377e-05
-1.3790418e-05
7.106063e-05
-1.7528667e-05
8.7553459e-05
-2.2206506e-05
0.0001073531
-2.8046921e-05
0.00013096584
-3.5321266e-05
0.00015891959
-4.435727e-05
0.00019174084
-5.5547026e-05
0.00022992037
-6.9354152e-05
0.00027386471
-8.6318854e-05
0.00032383049
-0.00010705888
0.00037983965
-0.000132263
0.00044157725
-0.00016267106
0.00050828466
-0.00019903098
0.00057868388
-0.00024201631
0.00065100112
-0.00029210437
0.00072319482
-0.00034944016
0.0007934069
-0.00041376357
0.00086045982
-0.00048444236
0.00092402257
-0.0005605744
0.00098428841
-0.0006410295
0.0010413735
-0.00072436182
0.0010948228
-0.00080859497
0.0011433437
-0.00089087529
0.0011846308
-0.00096687771
0.0012150101
-0.0010297195
0.0012280699
-0.0010680846
0.001211812
-0.0010623266
0.0011433733
-0.00097658848
0.0009780865
-0.00074382308
0.00062878384
-0.00024204227
-6.4963334e-05
0.00075210507
-0.001390719
0.0026742876
-0.0038892298
0.0063237084
-0.008509661
0.012752663
-0.016441889
0.022571938
-0.028271902
0.035140252
-0.043033214
0.048683359
-0.058334572
0.061408581
-0.071811469
0.0724128
-0.082370734
0.082192565
-0.090622074
0.091998458
-0.098781863
0.10231955
-0.11031905
0.11238868
-0.12810685
0.12126302
-0.15236859
0.12808371
-0.18089579
-0.20808285
0.13294606
-1.8804844e-09
8.4960247e-08
-8.4599092e-09
2.9315403e-07
-2.141531e-08
5.7121542e-07
-4.2884771e-08
9.3805614e-07
-7.5583528e-08
1.4172806e-06
-1.2295263e-07
2.0382685e-06
-1.8934126e-07
2.8374868e-06
-2.8023905e-07
3.8600645e-06
-4.0256918e-07
5.1616763e-06
-5.6505371e-07
6.8107675e-06
-7.7868092e-07
8.8911747e-06
-1.0572944e-06
1.1505155e-05
-1.4183365e-06
1.4776866e-05
-1.8838044e-06
1.8856278e-05
-2.4814444e-06
2.3923475e-05
-3.2462823e-06
3.0193279e-05
-4.2225444e-06
3.7919985e-05
-5.466098e-06
4.7401975e-05
-7.047461e-06
5.8985739e-05
-9.0555845e-06
7.3068754e-05
-1.1602436e-05
9.010031e-05
-1.4828552e-05
0.00011057922
-1.8909562e-05
0.00013504685
-2.4063689e-05
0.00016407371
-3.0560013e-05
0.00019823717
-3.8727164e-05
0.00023808752
-4.8961723e-05
0.00028409927
-6.1735214e-05
0.00033660398
-7.7597871e-05
0.0003957023
-9.7176037e-05
0.00046115542
-0.00012115741
0.00053226603
-0.00015025684
0.00060778331
-0.00018512852
0.0006858728
-0.00022622178
0.00076428808
-0.00027366803
0.00084085315
-0.00032708853
0.00091388032
-0.00038558743