/*--------------------------------*- C++ -*----------------------------------*\
  =========                 |
  \\      /  F ield         | OpenFOAM: The Open Source CFD Toolbox
   \\    /   O peration     | Website:  https://openfoam.org
    \\  /    A nd           | Version:  13
     \\/     M anipulation  |
\*---------------------------------------------------------------------------*/
FoamFile
{
    format      ascii;
    class       volScalarField;
    location    "36.397001";
    object      yPlus;
}
// * * * * * * * * * * * * * * * * * * * * * * * * * * * * * * * * * * * * * //

dimensions      [];

internalField   uniform 0;

boundaryField
{
    inlet
    {
        type            calculated;
        value           uniform 0;
    }
    outlet
    {
        type            calculated;
        value           uniform 0;
    }
    cylinder
    {
        type            calculated;
        value           nonuniform List<scalar> 
132
(
1.267001e-07
1.2671178e-07
1.2630486e-07
1.2543179e-07
1.2405827e-07
1.2216989e-07
1.1977662e-07
1.1688208e-07
1.1349742e-07
1.096438e-07
1.0535323e-07
1.0066877e-07
9.5644532e-08
9.0345392e-08
8.4845998e-08
7.922895e-08
7.3582523e-08
6.7996132e-08
6.2554843e-08
5.7333226e-08
5.2382204e-08
4.7717395e-08
4.330518e-08
3.9057751e-08
3.4842459e-08
3.0515437e-08
2.59792e-08
2.1249188e-08
1.6492588e-08
1.2010056e-08
8.1590793e-09
5.2628239e-09
3.5641799e-09
3.133222e-09
3.5272424e-09
4.2964098e-09
5.3022708e-09
6.5428439e-09
8.043635e-09
9.8394745e-09
1.1996953e-08
1.4599123e-08
1.7421952e-08
2.0425832e-08
2.3535083e-08
2.6684711e-08
2.9812077e-08
3.2867451e-08
3.5818003e-08
3.863688e-08
4.1307214e-08
4.3819662e-08
4.6163625e-08
4.8332078e-08
5.0355269e-08
5.2193075e-08
5.386457e-08
5.5369035e-08
5.6714326e-08
5.7895254e-08
5.8900522e-08
5.9743966e-08
6.0421328e-08
6.0937311e-08
6.1291728e-08
6.1480568e-08
1.2623345e-07
1.2530571e-07
1.2394628e-07
1.2213639e-07
1.1987332e-07
1.1716194e-07
1.1401405e-07
1.1044867e-07
1.0649222e-07
1.021787e-07
9.7549705e-08
9.2654358e-08
8.7548521e-08
8.2294631e-08
7.6960737e-08
7.161807e-08
6.6342369e-08
6.1209099e-08
5.6289007e-08
5.1640344e-08
4.729849e-08
4.3261243e-08
3.9472471e-08
3.5813093e-08
3.211379e-08
2.8201956e-08
2.3977884e-08
1.9488155e-08
1.4952033e-08
1.0721027e-08
7.1740387e-09
4.6320652e-09
3.3176019e-09
3.1911182e-09
3.7176982e-09
4.5575388e-09
5.6285311e-09
6.9403528e-09
8.5204182e-09
1.0402037e-08
1.2647626e-08
1.5335877e-08
1.8227626e-08
2.1282582e-08
2.442593e-08
2.7588207e-08
3.0710595e-08
3.3750459e-08
3.6673317e-08
3.9458882e-08
4.2088733e-08
4.4560824e-08
4.685914e-08
4.8975914e-08
5.0956894e-08
5.2740437e-08
5.4365201e-08
5.581906e-08
5.7115637e-08
5.8240057e-08
5.919345e-08
5.9981481e-08
6.0607393e-08
6.1069288e-08
6.1367924e-08
6.1503976e-08
)
;
    }
    frontAndBack
    {
        type            empty;
    }
}


// ************************************************************************* //
