/*--------------------------------*- C++ -*----------------------------------*\
  =========                 |
  \\      /  F ield         | OpenFOAM: The Open Source CFD Toolbox
   \\    /   O peration     | Website:  https://openfoam.org
    \\  /    A nd           | Version:  13
     \\/     M anipulation  |
\*---------------------------------------------------------------------------*/
FoamFile
{
    format      ascii;
    class       surfaceScalarField;
    location    "0.0035";
    object      CrankNicolson:ddtCorrDdt0(phi);
}
// * * * * * * * * * * * * * * * * * * * * * * * * * * * * * * * * * * * * * //

dimensions      [1 0 -2 0 0 0 0];

internalField   nonuniform List<scalar> 
999
(
-3.94516e-09
-3.47086e-09
1.31219e-08
1.52921e-08
-1.16295e-08
2.20836e-08
7.70714e-09
-1.24602e-08
6.87529e-10
-9.15076e-10
-1.59115e-08
-7.97579e-09
2.64832e-08
4.75794e-08
-2.26219e-08
-1.425e-08
2.41172e-09
-5.6815e-09
-1.70618e-08
-4.30921e-08
3.0942e-08
-3.11587e-10
2.19007e-08
-1.09588e-08
1.95626e-08
-3.13948e-08
-2.11063e-08
1.51508e-08
-1.90451e-08
-1.7204e-08
-6.01328e-09
9.21166e-09
-5.04615e-08
-9.748e-09
-1.38348e-08
4.4744e-11
-5.7212e-09
1.13411e-08
-2.63867e-08
3.0248e-08
9.13932e-09
-8.22468e-09
-3.41826e-08
4.09948e-09
1.787e-08
4.13527e-08
-9.61732e-09
-1.58885e-08
-1.51506e-08
4.93206e-10
-1.83554e-08
1.70898e-09
3.15306e-08
9.00753e-09
-4.44263e-09
-2.84712e-08
7.82197e-09
1.58739e-08
-3.80681e-08
1.1422e-08
2.58459e-08
-2.35453e-08
2.40481e-08
3.81795e-09
-5.56913e-09
-3.83986e-09
-5.98977e-09
1.15957e-09
-5.05133e-09
4.85569e-09
5.92247e-09
-2.00732e-09
1.24528e-08
-4.2116e-09
3.39474e-10
1.62995e-08
-3.83372e-08
-3.43073e-08
-3.64074e-08
-1.28341e-08
-1.38577e-08
1.16479e-08
-1.14096e-08
1.80425e-08
-2.35439e-08
-1.92924e-08
1.39901e-08
-1.81128e-09
1.55564e-09
-1.79107e-08
3.17865e-08
-5.63352e-10
-7.45485e-09
4.72709e-09
-7.57178e-09
-1.92001e-08
-3.95931e-08
-1.83059e-08
-2.06453e-08
1.12208e-08
-3.09312e-08
-3.00709e-08
-3.71098e-08
-2.75492e-08
1.51119e-09
2.33876e-08
-7.93916e-09
2.32068e-08
2.40995e-08
5.05272e-08
4.29309e-08
1.8016e-08
1.68984e-08
2.61114e-09
-1.3905e-08
-1.64831e-08
-2.10416e-08
1.6489e-08
-1.24016e-09
-1.56535e-09
1.08786e-08
-1.35239e-08
1.08447e-08
5.29444e-09
-8.408e-09
1.9715e-08
1.54974e-08
4.43614e-09
7.74296e-09
-1.33576e-09
1.53218e-09
-1.38607e-08
5.22398e-09
-4.41068e-08
-1.46761e-09
-2.87768e-08
1.25064e-08
-2.265e-08
8.64519e-09
4.92391e-09
1.99731e-08
-1.51376e-09
-4.60332e-09
1.32474e-08
-2.04327e-08
-2.15263e-08
2.43357e-08
-3.27385e-09
-3.56499e-08
-2.95133e-09
-2.38986e-08
1.61271e-08
-3.59172e-08
-2.17413e-08
-7.78292e-08
1.91507e-08
-1.95282e-09
1.81039e-08
5.29535e-08
3.93796e-09
4.77722e-08
2.72644e-08
1.63425e-08
-2.89174e-09
-2.44517e-08
3.18652e-08
2.96281e-08
-1.66274e-08
-3.26748e-09
8.41191e-09
1.72594e-08
-2.44803e-08
-2.7869e-08
-1.41568e-08
3.28825e-09
-2.5491e-08
2.30969e-09
3.78061e-08
1.62299e-08
-1.52358e-09
-9.19105e-09
-3.98009e-09
-1.26173e-08
1.2456e-08
1.75568e-09
-7.03866e-09
-1.33082e-08
-1.98516e-08
-1.14853e-08
2.74392e-10
7.20068e-09
-2.70086e-08
1.89197e-08
-8.62869e-09
-1.26889e-08
4.42087e-09
-1.7048e-08
-1.78639e-08
-1.04085e-08
3.62129e-08
4.36056e-08
-1.34635e-08
1.06271e-08
-5.52644e-09
4.04816e-08
-7.3607e-09
-3.86531e-08
-4.70627e-08
-5.66055e-08
-3.99871e-08
-2.72326e-08
-3.75582e-08
-2.69634e-08
-2.20463e-08
1.77414e-08
2.19889e-08
4.91193e-09
2.0963e-09
6.99648e-10
1.11101e-08
-1.72351e-08
3.38804e-09
-1.93967e-08
1.45819e-08
4.63809e-09
4.71104e-10
-2.88078e-08
3.15458e-08
5.13231e-08
4.58805e-08
1.83814e-08
1.96937e-08
1.05571e-08
2.17342e-08
-1.46768e-08
-1.44491e-09
-5.4401e-09
1.92855e-08
3.2205e-08
6.44159e-09
-1.87436e-08
-1.41365e-08
2.83709e-08
-1.10967e-08
2.27053e-09
-5.75614e-08
-2.69888e-08
1.28917e-08
1.53987e-08
9.8177e-09
-1.59238e-08
1.5897e-08
-2.48968e-08
3.43571e-08
4.65502e-08
3.46654e-08
2.53029e-08
1.14504e-08
8.83161e-09
-3.43782e-09
-2.9648e-08
-2.50565e-08
-3.45182e-08
-2.11307e-08
-1.70383e-08
1.57876e-08
2.17681e-08
1.91722e-08
8.18903e-09
6.55022e-09
5.48072e-09
-2.46787e-08
5.22706e-09
4.21536e-08
2.21057e-08
6.23246e-09
-1.27994e-08
5.06462e-08
-1.07989e-08
3.37975e-09
1.35966e-08
2.54316e-08
2.90494e-08
-1.11218e-08
-2.22805e-08
-3.96277e-08
7.34927e-09
-5.74443e-08
6.75495e-09
3.77904e-08
-2.54608e-08
-1.04171e-08
2.48759e-08
-6.69685e-09
-9.63211e-09
-1.86224e-08
2.04504e-08
-1.46304e-08
1.36842e-08
1.49017e-08
-8.22047e-09
1.32675e-08
1.9649e-08
-1.59379e-08
-8.52534e-09
-8.00554e-09
-8.4519e-09
5.62724e-08
4.55896e-08
5.59967e-09
2.60331e-09
-8.38212e-09
2.17724e-08
-2.05196e-08
-9.43043e-09
2.6824e-08
5.69266e-08
2.43579e-07
5.92263e-07
1.31984e-06
3.1254e-06
7.07416e-06
1.60982e-05
3.61003e-05
8.02496e-05
0.00017677
0.000385613
0.000833121
0.00178235
0.00377501
0.00791422
0.0164202
0.0337087
0.0684551
0.13749
0.273049
0.536047
1.04003
1.99366
3.77477
7.05714
13.0233
23.7146
42.5939
75.429
131.643
226.318
383.073
638.028
1045.04
1682.18
2659.19
4125.05
6274.14
9348.52
13633.2
19440.9
27082.9
36826.5
48840.5
63138.6
79532.7
97612.3
116761
136213
155142
172765
188427
201736
212625
221220
227753
232494
235718
237678
238597
238664
238036
236844
235192
233168
230840
228264
225486
222543
219465
216275
212994
209638
206220
202752
199244
195704
192139
188555
184957
181351
177741
174132
170527
166929
163343
159772
156218
152685
149175
145691
142235
138810
135417
132058
128736
125452
122206
119002
115839
112719
109643
106612
103626
100686
97792
94945.5
92146.2
89394.6
86690.7
84034.8
81426.9
78867.1
76355.4
73891.6
71475.8
69107.7
66787.2
64514.1
62288.3
60109.3
57977.1
55891.2
53851.5
51857.4
49908.9
48005.4
46146.6
44332.1
42561.6
40834.6
39150.9
37509.9
35911.2
34354.5
32839.2
31365
29931.5
28538.2
27184.6
25870.4
24595
23358.1
22159.2
20997.8
19873.5
18785.8
17734.4
16718.7
15738.2
14792.6
13881.4
13004.2
12160.4
11349.7
10571.6
9825.66
9111.39
8428.37
7776.16
7154.34
6562.45
6000.04
5466.67
4961.88
4485.23
4036.28
3614.6
3219.74
2851.26
2508.68
2191.54
1899.37
1631.7
1388.05
1167.91
970.78
796.102
643.299
511.748
400.778
309.66
237.579
183.608
146.675
125.513
118.614
124.164
139.969
163.379
191.195
219.618
244.24
260.175
262.382
246.27
208.623
148.745
69.586
-21.6362
-113.382
-191.025
-239.588
-247.286
-208.65
-125.996
-8.8762
127.981
267.186
391.121
482.579
527.027
514.39
440.927
311.087
138.841
-52.3377
-231.551
-365.448
-422.82
-383.439
-245.214
-26.8987
235.27
495.783
709.479
839.445
862.747
770.568
574.722
306.29
11.7976
-253.544
-435.506
-492.719
-404.084
-179.307
140.474
491.211
801.356
1008.82
1074.82
988.628
772.527
477.874
174.708
-63.4178
-176.201
-131.805
65.9954
374.626
723.198
1032.09
1234.68
1294.75
1213.94
1032.94
820.823
656.356
605.882
704.535
947.74
1292.42
1671.59
2016.63
2278.58
2440.87
2520.15
2562.09
2642.85
2898.08
3600.61
5296.1
8976.5
16236.8
29322.2
50956.8
83862.8
129956
189344
259434
334606
406816
467126
507672
523338
512583
477336
422216
353481
277995
202400
132517
72928.8
26652.9
-5091.66
-22948.4
-29197.4
-27197.1
-20611.6
-12657.2
-5598.03
-594.86
2137.84
3003.89
2672.5
1801.78
879.926
177.167
-224.792
-366.38
-340.703
-241.701
-136.797
-60.6346
-21.694
-13.385
-23.905
-42.4028
-61.4821
-77.2715
-88.435
-95.0756
-97.9561
-98.0778
-96.4829
-94.1356
-91.8107
-89.9943
-88.8368
-88.1966
-87.78
-87.3262
-86.7461
-86.1862
-86.0181
-86.6533
-88.2506
-90.7541
-94.0885
-97.6917
-100.595
-103.38
-107.297
-109.681
-109.518
-115.845
-125.304
-113.875
-106.676
-152.769
-145.508
-21.4175
-126.36
-388.839
137.3
594.058
-1066.05
-934.42
4071.79
653.605
-10378.1
8227.4
28186.8
-36376.7
-42895.4
151709
43330.3
-425748
256719
1.1736e+06
-1.37143e+06
-2.51277e+06
7.58472e+06
8.6712e+06
2.9952e+06
610553
96865.5
15852
2622.52
434.007
71.8045
11.8785
1.96499
0.325053
0.0537704
0.00889468
0.00147135
0.000243386
4.02755e-05
6.65445e-06
1.11213e-06
1.76877e-07
2.88585e-08
9.36737e-09
-4.28607e-09
-1.66126e-09
7.10434e-09
-5.42201e-10
1.70315e-09
-2.02692e-09
-3.71005e-09
1.2808e-09
-2.35929e-09
-7.66124e-10
-3.46518e-09
2.95874e-09
-9.90681e-10
-2.14713e-09
1.87182e-09
1.8908e-12
1.98952e-09
-7.05385e-10
2.21105e-09
7.70338e-10
-3.59819e-09
-5.37302e-09
-4.21792e-10
1.3054e-09
-2.84808e-09
-6.53911e-09
3.96409e-09
-3.39623e-09
9.90943e-10
4.23383e-09
7.92735e-09
1.83495e-10
2.28565e-09
-2.57468e-09
-1.01527e-09
-5.5064e-10
-1.85563e-10
-3.98023e-09
1.11219e-09
-7.23801e-10
7.38738e-10
3.60896e-09
2.06474e-09
-1.39921e-09
-3.12088e-10
-2.19459e-09
-1.23862e-09
1.71336e-09
-5.06306e-09
1.31938e-09
-2.03045e-11
4.27291e-10
2.89796e-09
-8.12133e-09
-2.13375e-09
1.32883e-10
1.56836e-09
3.83034e-12
1.85369e-10
-2.2387e-09
-1.02713e-09
2.06401e-09
8.31525e-10
2.48462e-09
1.29069e-09
1.45647e-09
3.16327e-09
-1.53238e-09
-4.57284e-09
-7.08199e-09
-4.00113e-09
-4.78317e-10
-2.14092e-09
-8.67916e-09
-4.15095e-09
-4.21911e-09
-3.15977e-10
-2.58149e-09
-3.62425e-09
1.27961e-09
2.61148e-09
5.00595e-09
3.7323e-09
1.72253e-10
-1.89164e-09
-2.74189e-09
-1.43542e-09
3.24279e-09
9.4389e-10
1.63639e-09
-8.69364e-10
-3.24637e-10
1.81005e-09
-1.74417e-09
-1.15477e-09
3.22191e-09
8.09607e-10
-7.07166e-10
4.42842e-10
2.0567e-10
-1.75129e-10
-1.18542e-09
1.07947e-09
-4.92714e-09
9.94433e-10
6.97803e-10
1.54523e-09
-6.55197e-09
-1.6987e-09
1.83663e-09
1.9093e-09
5.99056e-09
7.00653e-10
2.57155e-09
-1.63956e-09
-1.20854e-09
-6.65574e-10
9.5059e-10
-3.15441e-10
5.68707e-10
-3.64001e-09
-7.27407e-10
1.76281e-09
4.62024e-10
3.04163e-10
-3.07535e-09
-1.11312e-09
5.51675e-10
-1.05374e-09
-1.69032e-09
-1.24618e-09
-2.53789e-09
1.75432e-10
-2.07651e-09
1.88686e-09
3.3529e-09
2.79226e-09
4.28654e-09
1.94247e-10
-4.02054e-10
-2.84581e-09
-1.06076e-09
-2.76141e-09
-3.07558e-09
1.748e-09
-3.16789e-09
5.02803e-09
2.79696e-09
-3.67188e-09
-1.63037e-09
1.03649e-09
-4.23631e-09
2.6314e-09
-1.74695e-11
-1.47222e-09
-1.92327e-09
5.01628e-10
1.64583e-09
-1.17661e-09
2.33915e-09
-6.73059e-10
5.01293e-09
-3.68797e-09
3.65579e-10
2.28103e-09
2.26959e-09
-2.12392e-09
2.7112e-09
3.77822e-09
-7.02528e-10
-1.08718e-10
2.63419e-09
-9.47421e-10
-1.12263e-10
-3.28318e-09
-1.14202e-09
-5.22225e-09
-3.26732e-09
-6.60698e-10
-5.45826e-09
-5.85519e-09
-1.76527e-09
-2.19445e-09
-3.13708e-09
5.47112e-09
3.14606e-09
8.88481e-11
5.08857e-10
2.92315e-09
4.31738e-09
3.78984e-10
2.5056e-09
2.19682e-09
-2.67186e-09
3.57902e-09
-1.94154e-09
8.87746e-10
-2.08394e-09
-3.03915e-11
1.5112e-09
-6.52081e-10
3.59282e-10
-2.65765e-09
5.32857e-10
-1.63534e-09
2.28921e-09
-4.02971e-10
-3.92313e-09
2.59439e-09
-1.07063e-09
2.28723e-09
1.72813e-09
-3.41054e-09
7.75723e-11
-2.90617e-09
4.65851e-09
4.82703e-09
4.88582e-10
2.00123e-09
-3.2149e-09
3.48877e-09
3.07792e-09
2.94034e-10
3.89029e-09
-2.81738e-09
7.73286e-11
5.01723e-09
3.54569e-09
-6.25484e-10
-3.55176e-09
-4.6839e-09
-3.92709e-09
-5.56638e-09
-8.41712e-09
8.03698e-10
-3.15626e-09
1.56461e-09
-2.51519e-09
1.10736e-09
1.98631e-09
-9.19051e-10
3.78269e-09
-1.78375e-09
3.63757e-09
1.96884e-09
-2.50715e-09
-5.94425e-09
5.15785e-10
-2.87567e-09
4.89943e-10
-3.52118e-09
-2.28043e-09
-2.97391e-09
-5.32401e-10
-6.62961e-10
-9.93328e-10
9.8832e-10
-1.48718e-09
9.69742e-10
-6.67768e-10
2.40723e-10
-2.32037e-09
-1.04358e-09
7.43471e-12
-5.16488e-10
-7.2746e-10
1.51807e-09
-3.46274e-09
-5.58387e-10
-1.9714e-09
-6.59437e-10
4.09238e-09
-2.67425e-09
2.18464e-09
1.41722e-09
-1.75994e-10
-2.96862e-09
1.35608e-10
-6.56247e-10
1.02158e-09
3.18636e-09
-6.08509e-10
2.00524e-09
-5.74044e-10
-1.494e-09
-5.37942e-10
-5.7472e-10
-1.90962e-09
)
;

boundaryField
{
    sides
    {
        type            calculated;
        value           nonuniform List<scalar> 2(-8.39418e-10 1.48247e-09);
    }
    empty
    {
        type            empty;
    }
}


// ************************************************************************* //
