/*--------------------------------*- C++ -*----------------------------------*\
  =========                 |
  \\      /  F ield         | OpenFOAM: The Open Source CFD Toolbox
   \\    /   O peration     | Website:  https://openfoam.org
    \\  /    A nd           | Version:  13
     \\/     M anipulation  |
\*---------------------------------------------------------------------------*/
FoamFile
{
    format      ascii;
    class       volVectorField;
    location    "0.0035";
    object      CrankNicolson:ddt0(rho,U);
}
// * * * * * * * * * * * * * * * * * * * * * * * * * * * * * * * * * * * * * //

dimensions      [1 -2 -2 0 0 0 0];

internalField   nonuniform List<vector> 
1000
(
(-1.45519e-09 0 0)
(-4.87003e-23 0 0)
(1.45519e-09 0 0)
(4.36557e-09 0 0)
(-3.13747e-23 0 0)
(2.91038e-09 0 0)
(4.36557e-09 0 0)
(-1.45519e-09 0 0)
(-1.45519e-09 0 0)
(-8.02365e-23 0 0)
(-2.91038e-09 0 0)
(-2.91038e-09 0 0)
(1.45519e-09 0 0)
(8.73115e-09 0 0)
(2.91038e-09 0 0)
(-4.36557e-09 0 0)
(-2.91038e-09 0 0)
(1.23457e-22 0 0)
(-1.45519e-09 0 0)
(-8.73115e-09 0 0)
(-1.45519e-09 0 0)
(4.36557e-09 0 0)
(2.91038e-09 0 0)
(2.91038e-09 0 0)
(2.91038e-09 0 0)
(-2.91038e-09 0 0)
(-5.82077e-09 0 0)
(-1.45519e-09 0 0)
(-1.45519e-09 0 0)
(-2.91038e-09 0 0)
(-5.82077e-09 0 0)
(2.45259e-22 0 0)
(-4.36557e-09 0 0)
(-7.27596e-09 0 0)
(-1.45519e-09 0 0)
(-1.45519e-09 0 0)
(-2.70696e-23 0 0)
(-6.19351e-23 0 0)
(-1.45519e-09 0 0)
(-1.45519e-09 0 0)
(4.36557e-09 0 0)
(1.45519e-09 0 0)
(-4.36557e-09 0 0)
(-4.36557e-09 0 0)
(2.91038e-09 0 0)
(7.27596e-09 0 0)
(4.36557e-09 0 0)
(-2.91038e-09 0 0)
(-2.91038e-09 0 0)
(-1.05466e-22 0 0)
(-2.91038e-09 0 0)
(-2.91038e-09 0 0)
(4.36557e-09 0 0)
(4.36557e-09 0 0)
(-3.13295e-23 0 0)
(-4.36557e-09 0 0)
(-2.91038e-09 0 0)
(1.45519e-09 0 0)
(-2.91038e-09 0 0)
(-4.36557e-09 0 0)
(5.82077e-09 0 0)
(-2.70902e-23 0 0)
(-1.63853e-23 0 0)
(2.91038e-09 0 0)
(1.45519e-09 0 0)
(-1.45519e-09 0 0)
(-1.45519e-09 0 0)
(1.45519e-09 0 0)
(-1.45519e-09 0 0)
(1.45519e-09 0 0)
(2.44018e-23 0 0)
(1.60919e-22 0 0)
(1.45519e-09 0 0)
(4.3427e-24 0 0)
(-4.15747e-23 0 0)
(1.45519e-09 0 0)
(-2.91038e-09 0 0)
(-1.01863e-08 0 0)
(-1.01863e-08 0 0)
(-5.82077e-09 0 0)
(-2.91038e-09 0 0)
(1.53028e-23 0 0)
(2.44018e-23 0 0)
(1.45519e-09 0 0)
(-4.36557e-09 0 0)
(-5.82077e-09 0 0)
(-2.48154e-24 0 0)
(2.91038e-09 0 0)
(1.45519e-09 0 0)
(-4.36557e-09 0 0)
(2.91038e-09 0 0)
(4.36557e-09 0 0)
(7.85822e-24 0 0)
(-2.91038e-09 0 0)
(-8.59412e-24 0 0)
(-2.91038e-09 0 0)
(-7.27596e-09 0 0)
(-7.27596e-09 0 0)
(-5.82077e-09 0 0)
(-2.91038e-09 0 0)
(-1.45519e-09 0 0)
(-7.27596e-09 0 0)
(-7.27596e-09 0 0)
(-8.73115e-09 0 0)
(-4.36557e-09 0 0)
(2.91038e-09 0 0)
(2.91038e-09 0 0)
(1.45519e-09 0 0)
(4.36557e-09 0 0)
(1.01863e-08 0 0)
(1.30967e-08 0 0)
(1.01863e-08 0 0)
(4.36557e-09 0 0)
(1.45519e-09 0 0)
(-1.63246e-23 0 0)
(-4.36557e-09 0 0)
(-5.82077e-09 0 0)
(1.67504e-23 0 0)
(0 0 0)
(1.45519e-09 0 0)
(-1.45519e-09 0 0)
(-4.36557e-09 0 0)
(1.45519e-09 0 0)
(2.91038e-09 0 0)
(1.45519e-09 0 0)
(1.45519e-09 0 0)
(5.82077e-09 0 0)
(1.45519e-09 0 0)
(1.45519e-09 0 0)
(1.62835e-23 0 0)
(6.04876e-24 0 0)
(-1.45519e-09 0 0)
(-1.45519e-09 0 0)
(-2.91038e-09 0 0)
(-1.01863e-08 0 0)
(-5.82077e-09 0 0)
(-2.91038e-09 0 0)
(-1.45519e-09 0 0)
(-1.45519e-09 0 0)
(1.45519e-09 0 0)
(2.91038e-09 0 0)
(2.91038e-09 0 0)
(-1.71608e-23 0 0)
(1.45519e-09 0 0)
(-1.45519e-09 0 0)
(-5.82077e-09 0 0)
(-1.47859e-23 0 0)
(2.91038e-09 0 0)
(-4.36557e-09 0 0)
(-4.36557e-09 0 0)
(-1.45519e-09 0 0)
(4.89071e-23 0 0)
(-2.91038e-09 0 0)
(-8.73115e-09 0 0)
(-1.30967e-08 0 0)
(-7.27596e-09 0 0)
(2.89513e-24 0 0)
(-1.45519e-09 0 0)
(1.01863e-08 0 0)
(5.82077e-09 0 0)
(5.82077e-09 0 0)
(1.01863e-08 0 0)
(5.82077e-09 0 0)
(1.45519e-09 0 0)
(-4.36557e-09 0 0)
(9.51258e-24 0 0)
(7.27596e-09 0 0)
(1.45519e-09 0 0)
(-1.45519e-09 0 0)
(1.45519e-09 0 0)
(1.45519e-09 0 0)
(-1.45519e-09 0 0)
(-4.36557e-09 0 0)
(-5.82077e-09 0 0)
(-2.91038e-09 0 0)
(-1.45519e-09 0 0)
(-2.91038e-09 0 0)
(5.82077e-09 0 0)
(7.27596e-09 0 0)
(1.45519e-09 0 0)
(1.45519e-09 0 0)
(-1.45519e-09 0 0)
(-4.36557e-09 0 0)
(4.85969e-24 0 0)
(2.91038e-09 0 0)
(2.68834e-24 0 0)
(-1.45519e-09 0 0)
(4.65289e-24 0 0)
(1.45519e-09 0 0)
(-1.45519e-09 0 0)
(2.4195e-23 0 0)
(2.91038e-09 0 0)
(4.36557e-09 0 0)
(-1.45519e-09 0 0)
(-2.91038e-09 0 0)
(-7.91537e-25 0 0)
(-1.45519e-09 0 0)
(-2.91038e-09 0 0)
(-4.36557e-09 0 0)
(2.91038e-09 0 0)
(1.01863e-08 0 0)
(8.73115e-09 0 0)
(5.82077e-09 0 0)
(1.45519e-09 0 0)
(5.82077e-09 0 0)
(2.91038e-09 0 0)
(-5.82077e-09 0 0)
(-1.16415e-08 0 0)
(-1.45519e-08 0 0)
(-1.30967e-08 0 0)
(-8.73115e-09 0 0)
(-8.73115e-09 0 0)
(-7.27596e-09 0 0)
(-5.82077e-09 0 0)
(3.5719e-23 0 0)
(5.82077e-09 0 0)
(5.82077e-09 0 0)
(-1.45519e-09 0 0)
(-1.45519e-09 0 0)
(2.91038e-09 0 0)
(4.85262e-24 0 0)
(-4.1359e-25 0 0)
(4.2393e-24 0 0)
(-1.45519e-09 0 0)
(1.45519e-09 0 0)
(2.91038e-09 0 0)
(-5.82077e-09 0 0)
(-1.45519e-09 0 0)
(1.16415e-08 0 0)
(1.16415e-08 0 0)
(7.27596e-09 0 0)
(5.82077e-09 0 0)
(4.36557e-09 0 0)
(4.36557e-09 0 0)
(-1.45519e-09 0 0)
(-2.91038e-09 0 0)
(-1.45519e-09 0 0)
(2.91038e-09 0 0)
(5.82077e-09 0 0)
(2.91038e-09 0 0)
(-2.22305e-23 0 0)
(-4.36557e-09 0 0)
(1.45519e-09 0 0)
(3.82571e-24 0 0)
(9.09899e-24 0 0)
(-5.82077e-09 0 0)
(-1.01863e-08 0 0)
(-1.45519e-09 0 0)
(2.91038e-09 0 0)
(2.91038e-09 0 0)
(-1.42689e-23 0 0)
(-2.91038e-09 0 0)
(1.45519e-09 0 0)
(4.36557e-09 0 0)
(5.82077e-09 0 0)
(8.73115e-09 0 0)
(7.27596e-09 0 0)
(4.36557e-09 0 0)
(2.91038e-09 0 0)
(4.75564e-23 0 0)
(-4.36557e-09 0 0)
(-4.36557e-09 0 0)
(-1.01863e-08 0 0)
(-1.01863e-08 0 0)
(-1.45519e-09 0 0)
(-4.36557e-09 0 0)
(2.91038e-09 0 0)
(2.91038e-09 0 0)
(1.45519e-09 0 0)
(2.91038e-09 0 0)
(1.45519e-09 0 0)
(-2.91038e-09 0 0)
(-2.91038e-09 0 0)
(5.82077e-09 0 0)
(8.73115e-09 0 0)
(2.91038e-09 0 0)
(-3.30872e-23 0 0)
(5.82077e-09 0 0)
(4.36557e-09 0 0)
(-1.45519e-09 0 0)
(2.91038e-09 0 0)
(4.36557e-09 0 0)
(7.27596e-09 0 0)
(2.91038e-09 0 0)
(-4.36557e-09 0 0)
(-7.27596e-09 0 0)
(-2.91038e-09 0 0)
(-5.82077e-09 0 0)
(-5.82077e-09 0 0)
(5.82077e-09 0 0)
(2.91038e-09 0 0)
(-4.36557e-09 0 0)
(1.45519e-09 0 0)
(1.45519e-09 0 0)
(-1.45519e-09 0 0)
(-2.91038e-09 0 0)
(-2.31061e-23 0 0)
(1.45519e-09 0 0)
(-1.45519e-09 0 0)
(2.91038e-09 0 0)
(1.45519e-09 0 0)
(1.45519e-09 0 0)
(2.91038e-09 0 0)
(4.44593e-23 0 0)
(-1.45519e-09 0 0)
(-1.45519e-09 0 0)
(-4.36557e-09 0 0)
(7.27596e-09 0 0)
(1.30967e-08 0 0)
(7.27596e-09 0 0)
(1.45519e-09 0 0)
(1.45519e-09 0 0)
(3.24588e-23 0 0)
(-1.45519e-09 0 0)
(-2.91038e-09 0 0)
(2.91038e-09 0 0)
(8.73115e-09 0 0)
(3.34694e-08 0 0)
(9.8953e-08 0 0)
(2.2701e-07 0 0)
(5.28235e-07 0 0)
(1.20926e-06 0 0)
(2.75177e-06 0 0)
(6.20348e-06 0 0)
(1.38476e-05 0 0)
(3.06332e-05 0 0)
(6.71178e-05 0 0)
(0.000145649 0 0)
(0.000312993 0 0)
(0.000665947 0 0)
(0.00140264 0 0)
(0.00292396 0 0)
(0.00603155 0 0)
(0.0123092 0 0)
(0.0248471 0 0)
(0.0495988 0 0)
(0.0978833 0 0)
(0.190932 0 0)
(0.368014 0 0)
(0.700717 0 0)
(1.31759 0 0)
(2.44591 0 0)
(4.48096 0 0)
(8.09865 0 0)
(14.4343 0 0)
(25.3591 0 0)
(43.8964 0 0)
(74.8283 0 0)
(125.548 0 0)
(207.209 0 0)
(336.191 0 0)
(535.849 0 0)
(838.405 0 0)
(1286.68 0 0)
(1935.19 0 0)
(2849.82 0 0)
(4105.37 0 0)
(5779.93 0 0)
(7945.83 0 0)
(10657.3 0 0)
(13936.6 0 0)
(17760.7 0 0)
(22053.6 0 0)
(26685.3 0 0)
(31482.4 0 0)
(36246.4 0 0)
(40778 0 0)
(44901.9 0 0)
(48495.1 0 0)
(51505 0 0)
(53938.4 0 0)
(55838.1 0 0)
(57264.7 0 0)
(58284.3 0 0)
(58960.7 0 0)
(59351.8 0 0)
(59507.7 0 0)
(59470.6 0 0)
(59275.7 0 0)
(58951.8 0 0)
(58522.3 0 0)
(58006.3 0 0)
(57419.2 0 0)
(56773.5 0 0)
(56079.4 0 0)
(55345.2 0 0)
(54577.6 0 0)
(53782.2 0 0)
(52963.7 0 0)
(52125.8 0 0)
(51271.9 0 0)
(50404.7 0 0)
(49526.6 0 0)
(48639.8 0 0)
(47745.9 0 0)
(46846.8 0 0)
(45943.9 0 0)
(45038.5 0 0)
(44132 0 0)
(43225.4 0 0)
(42319.9 0 0)
(41416.4 0 0)
(40516 0 0)
(39619.5 0 0)
(38727.7 0 0)
(37841.4 0 0)
(36961.3 0 0)
(36088.2 0 0)
(35222.5 0 0)
(34364.9 0 0)
(33515.9 0 0)
(32676 0 0)
(31845.6 0 0)
(31025 0 0)
(30214.7 0 0)
(29415 0 0)
(28626.1 0 0)
(27848.2 0 0)
(27081.7 0 0)
(26326.6 0 0)
(25583.1 0 0)
(24851.3 0 0)
(24131.4 0 0)
(23423.5 0 0)
(22727.5 0 0)
(22043.6 0 0)
(21371.9 0 0)
(20712.2 0 0)
(20064.6 0 0)
(19429.2 0 0)
(18805.8 0 0)
(18194.5 0 0)
(17595.3 0 0)
(17008 0 0)
(16432.7 0 0)
(15869.3 0 0)
(15317.7 0 0)
(14777.9 0 0)
(14249.7 0 0)
(13733.2 0 0)
(13228.2 0 0)
(12734.6 0 0)
(12252.3 0 0)
(11781.4 0 0)
(11321.5 0 0)
(10872.8 0 0)
(10435 0 0)
(10008.1 0 0)
(9591.95 0 0)
(9186.47 0 0)
(8791.54 0 0)
(8407.06 0 0)
(8032.93 0 0)
(7669.02 0 0)
(7315.24 0 0)
(6971.48 0 0)
(6637.62 0 0)
(6313.55 0 0)
(5999.15 0 0)
(5694.33 0 0)
(5398.96 0 0)
(5112.93 0 0)
(4836.13 0 0)
(4568.44 0 0)
(4309.76 0 0)
(4059.97 0 0)
(3818.95 0 0)
(3586.59 0 0)
(3362.78 0 0)
(3147.41 0 0)
(2940.37 0 0)
(2741.54 0 0)
(2550.81 0 0)
(2368.06 0 0)
(2193.19 0 0)
(2026.08 0 0)
(1866.62 0 0)
(1714.7 0 0)
(1570.21 0 0)
(1433.04 0 0)
(1303.07 0 0)
(1180.18 0 0)
(1064.28 0 0)
(955.234 0 0)
(852.942 0 0)
(757.288 0 0)
(668.151 0 0)
(585.411 0 0)
(508.944 0 0)
(438.62 0 0)
(374.309 0 0)
(315.87 0 0)
(263.156 0 0)
(216.004 0 0)
(174.235 0 0)
(137.647 0 0)
(106.01 0 0)
(79.0586 0 0)
(56.4826 0 0)
(37.9136 0 0)
(22.9122 0 0)
(10.9542 0 0)
(1.42223 0 0)
(-6.39226 0 0)
(-13.266 0 0)
(-19.9846 0 0)
(-27.227 0 0)
(-35.3721 0 0)
(-44.2175 0 0)
(-52.6367 0 0)
(-58.2727 0 0)
(-57.4794 0 0)
(-45.8027 0 0)
(-19.3185 0 0)
(23.3459 0 0)
(78.3598 0 0)
(135.49 0 0)
(180.187 0 0)
(197.988 0 0)
(180.454 0 0)
(129.199 0 0)
(55.4893 0 0)
(-24.3861 0 0)
(-94.9856 0 0)
(-146.343 0 0)
(-173.628 0 0)
(-177.721 0 0)
(-161.996 0 0)
(-129.242 0 0)
(-80.3708 0 0)
(-14.7946 0 0)
(67.4304 0 0)
(162.31 0 0)
(258.971 0 0)
(339.337 0 0)
(379.145 0 0)
(361.21 0 0)
(280.53 0 0)
(149.474 0 0)
(-4.87394 0 0)
(-149.859 0 0)
(-257.597 0 0)
(-312.287 0 0)
(-307.663 0 0)
(-250.268 0 0)
(-151.33 0 0)
(-24.2123 0 0)
(115.825 0 0)
(250.455 0 0)
(358.242 0 0)
(416.99 0 0)
(409.077 0 0)
(332.377 0 0)
(201.421 0 0)
(45.534 0 0)
(-99.3824 0 0)
(-201.433 0 0)
(-240.517 0 0)
(-210.518 0 0)
(-121.097 0 0)
(8.25589 0 0)
(151.799 0 0)
(281.21 0 0)
(370.275 0 0)
(399.823 0 0)
(364.107 0 0)
(274.457 0 0)
(156.537 0 0)
(43.6198 0 0)
(-33.0852 0 0)
(-52.9213 0 0)
(-10.531 0 0)
(82.8894 0 0)
(204.234 0 0)
(324.556 0 0)
(416.475 0 0)
(461.275 0 0)
(454.615 0 0)
(408.885 0 0)
(349.475 0 0)
(306.99 0 0)
(307.337 0 0)
(363.322 0 0)
(469.682 0 0)
(604.782 0 0)
(739.625 0 0)
(855.345 0 0)
(970.043 0 0)
(1174.83 0 0)
(1674.77 0 0)
(2825.55 0 0)
(5150.63 0 0)
(9316.51 0 0)
(16042.6 0 0)
(25933.5 0 0)
(39249.6 0 0)
(55673.8 0 0)
(74167.4 0 0)
(93004.6 0 0)
(110025 0 0)
(123055 0 0)
(130368 0 0)
(131051 0 0)
(125140 0 0)
(113522 0 0)
(97652.4 0 0)
(79242.1 0 0)
(60004.7 0 0)
(41502.6 0 0)
(25051.2 0 0)
(11632.5 0 0)
(1808.83 0 0)
(-4336.63 0 0)
(-7189.93 0 0)
(-7501.8 0 0)
(-6204.23 0 0)
(-4201.8 0 0)
(-2203.83 0 0)
(-641.114 0 0)
(327.67 0 0)
(747.009 0 0)
(771.75 0 0)
(583.245 0 0)
(332.859 0 0)
(116.814 0 0)
(-23.7511 0 0)
(-88.0837 0 0)
(-96.8447 0 0)
(-76.0314 0 0)
(-47.0182 0 0)
(-22.719 0 0)
(-8.08872 0 0)
(-2.72588 0 0)
(-3.76534 0 0)
(-8.02266 0 0)
(-13.094 0 0)
(-17.606 0 0)
(-21.0006 0 0)
(-23.2012 0 0)
(-24.3531 0 0)
(-24.6836 0 0)
(-24.4461 0 0)
(-23.8933 0 0)
(-23.2502 0 0)
(-22.6849 0 0)
(-22.2859 0 0)
(-22.0595 0 0)
(-21.951 0 0)
(-21.8844 0 0)
(-21.8044 0 0)
(-21.7016 0 0)
(-21.6243 0 0)
(-21.6652 0 0)
(-21.9056 0 0)
(-22.3699 0 0)
(-23.0599 0 0)
(-23.9369 0 0)
(-24.8031 0 0)
(-25.501 0 0)
(-26.2526 0 0)
(-27.04 0 0)
(-27.2188 0 0)
(-27.5066 0 0)
(-29.4566 0 0)
(-30.0343 0 0)
(-26.9407 0 0)
(-30.0771 0 0)
(-37.8576 0 0)
(-21.6642 0 0)
(-4.90563 0 0)
(-51.3338 0 0)
(-47.0469 0 0)
(111.723 0 0)
(32.8772 0 0)
(-293.449 0 0)
(270.734 0 0)
(967.649 0 0)
(-864.78 0 0)
(-1152.14 0 0)
(4854.58 0 0)
(2291.66 0 0)
(-11644.6 0 0)
(7549.87 0 0)
(36625.1 0 0)
(-34110.9 0 0)
(-59259.7 0 0)
(179241 0 0)
(105260 0 0)
(-505764 0 0)
(403093 0 0)
(2.27227e+06 0 0)
(1.45774e+06 0 0)
(361512 0 0)
(62282.5 0 0)
(10543.2 0 0)
(1729.97 0 0)
(285.452 0 0)
(47.2035 0 0)
(7.80829 0 0)
(1.29167 0 0)
(0.21367 0 0)
(0.0353455 0 0)
(0.00584687 0 0)
(0.000967186 0 0)
(0.000159991 0 0)
(2.64663e-05 0 0)
(4.3794e-06 0 0)
(7.26141e-07 0 0)
(1.20417e-07 0 0)
(2.03727e-08 0 0)
(4.36557e-09 0 0)
(1.81899e-10 0 0)
(-7.27596e-10 0 0)
(7.27596e-10 0 0)
(1.09139e-09 0 0)
(1.18907e-24 0 0)
(-3.63798e-10 0 0)
(-7.27596e-10 0 0)
(-1.81899e-10 0 0)
(-1.81899e-10 0 0)
(-3.63798e-10 0 0)
(-5.45697e-10 0 0)
(-1.81899e-10 0 0)
(1.81899e-10 0 0)
(-3.63798e-10 0 0)
(1.81899e-10 0 0)
(1.81899e-10 0 0)
(3.63798e-10 0 0)
(1.81899e-10 0 0)
(-2.51335e-24 0 0)
(3.63798e-10 0 0)
(-1.81899e-10 0 0)
(-1.27329e-09 0 0)
(-7.27596e-10 0 0)
(1.81899e-10 0 0)
(-1.81899e-10 0 0)
(-1.27329e-09 0 0)
(-3.63798e-10 0 0)
(1.81899e-10 0 0)
(-5.45697e-10 0 0)
(7.27596e-10 0 0)
(1.45519e-09 0 0)
(1.27329e-09 0 0)
(1.81899e-10 0 0)
(-1.81899e-10 0 0)
(-3.63798e-10 0 0)
(-3.63798e-10 0 0)
(-1.81899e-10 0 0)
(-3.63798e-10 0 0)
(-1.81899e-10 0 0)
(-8.22011e-24 0 0)
(1.44926e-23 0 0)
(5.45697e-10 0 0)
(9.09495e-10 0 0)
(-9.4738e-24 0 0)
(-1.81899e-10 0 0)
(-3.63798e-10 0 0)
(-5.45697e-10 0 0)
(3.94809e-24 0 0)
(-3.63798e-10 0 0)
(-3.63798e-10 0 0)
(1.81899e-10 0 0)
(3.42504e-24 0 0)
(3.63798e-10 0 0)
(-5.45697e-10 0 0)
(-1.27329e-09 0 0)
(-3.63798e-10 0 0)
(1.81899e-10 0 0)
(1.81899e-10 0 0)
(1.60912e-24 0 0)
(-3.63798e-10 0 0)
(-3.63798e-10 0 0)
(1.81899e-10 0 0)
(5.45697e-10 0 0)
(3.63798e-10 0 0)
(3.63798e-10 0 0)
(3.63798e-10 0 0)
(5.45697e-10 0 0)
(1.81899e-10 0 0)
(-7.27596e-10 0 0)
(-1.63709e-09 0 0)
(-1.45519e-09 0 0)
(-5.45697e-10 0 0)
(-1.81899e-10 0 0)
(-1.27329e-09 0 0)
(-1.63709e-09 0 0)
(-1.09139e-09 0 0)
(-5.45697e-10 0 0)
(-3.63798e-10 0 0)
(-9.09495e-10 0 0)
(-3.63798e-10 0 0)
(5.45697e-10 0 0)
(1.27329e-09 0 0)
(9.09495e-10 0 0)
(-1.55096e-25 0 0)
(-1.81899e-10 0 0)
(-7.27596e-10 0 0)
(-7.27596e-10 0 0)
(-1.75776e-24 0 0)
(5.45697e-10 0 0)
(3.63798e-10 0 0)
(1.6994e-24 0 0)
(-3.40036e-24 0 0)
(-7.68818e-25 0 0)
(-1.81899e-10 0 0)
(-3.63798e-10 0 0)
(3.56236e-24 0 0)
(5.45697e-10 0 0)
(-4.27101e-24 0 0)
(-2.10026e-25 0 0)
(7.62557e-25 0 0)
(-1.81899e-10 0 0)
(-1.81899e-10 0 0)
(3.10193e-25 0 0)
(-3.63798e-10 0 0)
(-5.45697e-10 0 0)
(1.81899e-10 0 0)
(1.81899e-10 0 0)
(-5.45697e-10 0 0)
(-1.45519e-09 0 0)
(-1.81899e-10 0 0)
(5.45697e-10 0 0)
(1.09139e-09 0 0)
(1.09139e-09 0 0)
(5.45697e-10 0 0)
(-4.91138e-25 0 0)
(-3.63798e-10 0 0)
(-5.45697e-10 0 0)
(1.81899e-10 0 0)
(3.63798e-10 0 0)
(-3.63798e-10 0 0)
(-7.27596e-10 0 0)
(-7.27596e-10 0 0)
(1.81899e-10 0 0)
(3.63798e-10 0 0)
(1.42172e-25 0 0)
(-3.63798e-10 0 0)
(-5.45697e-10 0 0)
(2.86221e-24 0 0)
(-1.81899e-10 0 0)
(-1.81899e-10 0 0)
(-1.81899e-10 0 0)
(-7.27596e-10 0 0)
(-3.63798e-10 0 0)
(-1.81899e-10 0 0)
(1.81899e-10 0 0)
(3.63798e-10 0 0)
(5.45697e-10 0 0)
(1.27329e-09 0 0)
(3.63798e-10 0 0)
(-3.63798e-10 0 0)
(-3.63798e-10 0 0)
(-3.63798e-10 0 0)
(-5.45697e-10 0 0)
(-9.09495e-10 0 0)
(-1.81899e-10 0 0)
(9.3805e-26 0 0)
(1.81899e-10 0 0)
(9.09495e-10 0 0)
(-3.63798e-10 0 0)
(-5.45697e-10 0 0)
(-1.81899e-10 0 0)
(-3.63798e-10 0 0)
(-1.81899e-10 0 0)
(3.63798e-10 0 0)
(-1.81899e-10 0 0)
(-1.81899e-10 0 0)
(-3.63798e-10 0 0)
(1.81899e-10 0 0)
(3.73524e-24 0 0)
(3.63798e-10 0 0)
(1.81899e-10 0 0)
(3.63798e-10 0 0)
(2.89513e-24 0 0)
(4.81071e-24 0 0)
(3.63798e-10 0 0)
(5.45697e-10 0 0)
(-1.81899e-10 0 0)
(3.63798e-10 0 0)
(9.09495e-10 0 0)
(5.45697e-10 0 0)
(-1.81899e-10 0 0)
(1.81899e-10 0 0)
(1.81899e-10 0 0)
(-2.52234e-25 0 0)
(-3.63798e-10 0 0)
(-5.45697e-10 0 0)
(-7.27596e-10 0 0)
(-1.27329e-09 0 0)
(-3.63798e-10 0 0)
(-9.09495e-10 0 0)
(-1.27329e-09 0 0)
(-9.09495e-10 0 0)
(-3.63798e-10 0 0)
(-7.27596e-10 0 0)
(3.63798e-10 0 0)
(1.09139e-09 0 0)
(5.45697e-10 0 0)
(1.81899e-10 0 0)
(3.63798e-10 0 0)
(9.09495e-10 0 0)
(5.45697e-10 0 0)
(3.63798e-10 0 0)
(5.45697e-10 0 0)
(-2.46993e-24 0 0)
(1.81899e-10 0 0)
(1.81899e-10 0 0)
(2.88221e-24 0 0)
(-1.81899e-10 0 0)
(-1.81899e-10 0 0)
(1.81899e-10 0 0)
(1.81899e-10 0 0)
(-1.81899e-10 0 0)
(-3.63798e-10 0 0)
(-1.81899e-10 0 0)
(-1.81899e-10 0 0)
(1.68001e-24 0 0)
(2.01625e-24 0 0)
(-3.63798e-10 0 0)
(-8.01331e-25 0 0)
(-1.55096e-25 0 0)
(3.63798e-10 0 0)
(3.63798e-10 0 0)
(-1.81899e-10 0 0)
(-5.45697e-10 0 0)
(6.72084e-25 0 0)
(1.09139e-09 0 0)
(1.09139e-09 0 0)
(7.27596e-10 0 0)
(1.81899e-10 0 0)
(-1.81899e-10 0 0)
(4.4259e-24 0 0)
(7.27596e-10 0 0)
(3.63798e-10 0 0)
(3.63798e-10 0 0)
(5.80319e-24 0 0)
(-1.81899e-10 0 0)
(5.45697e-10 0 0)
(1.09139e-09 0 0)
(3.63798e-10 0 0)
(-5.45697e-10 0 0)
(-1.27329e-09 0 0)
(-1.09139e-09 0 0)
(-1.09139e-09 0 0)
(-1.63709e-09 0 0)
(-9.09495e-10 0 0)
(-1.81899e-10 0 0)
(-1.81899e-10 0 0)
(2.95309e-24 0 0)
(-1.81899e-10 0 0)
(3.63798e-10 0 0)
(1.81899e-10 0 0)
(3.63798e-10 0 0)
(1.81899e-10 0 0)
(1.81899e-10 0 0)
(7.27596e-10 0 0)
(3.32165e-24 0 0)
(-1.27329e-09 0 0)
(-7.27596e-10 0 0)
(-1.81899e-10 0 0)
(-1.81899e-10 0 0)
(-5.45697e-10 0 0)
(-7.27596e-10 0 0)
(-7.27596e-10 0 0)
(-5.45697e-10 0 0)
(-1.81899e-10 0 0)
(3.63798e-10 0 0)
(3.63798e-10 0 0)
(-1.81899e-10 0 0)
(-1.81899e-10 0 0)
(1.81899e-10 0 0)
(-8.19426e-24 0 0)
(-3.63798e-10 0 0)
(-3.63798e-10 0 0)
(-1.81899e-10 0 0)
(-1.33261e-25 0 0)
(-3.63798e-10 0 0)
(1.81899e-10 0 0)
(-3.63798e-10 0 0)
(-3.63798e-10 0 0)
(-5.45697e-10 0 0)
(-3.63798e-10 0 0)
(5.45697e-10 0 0)
(1.81899e-10 0 0)
(-1.60266e-24 0 0)
(3.63798e-10 0 0)
(6.3331e-25 0 0)
(-3.63798e-10 0 0)
(-1.81899e-10 0 0)
(-1.81899e-10 0 0)
(-1.79653e-24 0 0)
(5.45697e-10 0 0)
(3.63798e-10 0 0)
(2.68834e-24 0 0)
(1.81899e-10 0 0)
(-8.65955e-24 0 0)
(-3.63798e-10 0 0)
(-1.81899e-10 0 0)
(-1.81899e-10 0 0)
(-3.63798e-10 0 0)
)
;

boundaryField
{
    sides
    {
        type            calculated;
        value           nonuniform List<vector> 2((-3.63798e-10 0 0) (-1.45519e-09 0 0));
    }
    empty
    {
        type            empty;
    }
}


// ************************************************************************* //
