/*--------------------------------*- C++ -*----------------------------------*\
  =========                 |
  \\      /  F ield         | OpenFOAM: The Open Source CFD Toolbox
   \\    /   O peration     | Website:  https://openfoam.org
    \\  /    A nd           | Version:  13
     \\/     M anipulation  |
\*---------------------------------------------------------------------------*/
FoamFile
{
    format      ascii;
    class       volScalarField;
    location    "0.0035";
    object      CrankNicolson:ddt0(rho,e);
}
// * * * * * * * * * * * * * * * * * * * * * * * * * * * * * * * * * * * * * //

dimensions      [1 -1 -3 0 0 0 0];

internalField   nonuniform List<scalar> 
1000
(
2.29286e-08
-1.88182e-06
1.97392e-06
6.68923e-07
-1.45437e-06
-9.18463e-07
7.06275e-07
-1.49624e-06
7.95286e-07
-2.28551e-07
8.70004e-07
-2.36715e-06
-3.95431e-08
-1.41075e-06
-1.36925e-06
-2.92866e-06
-2.4119e-07
2.39776e-06
2.91501e-07
-9.61321e-10
3.4492e-06
-2.10948e-07
3.41868e-07
3.75321e-07
1.77195e-06
-2.15303e-06
-2.28412e-06
2.45499e-06
1.15939e-06
-2.9845e-07
3.45457e-06
-3.17238e-07
-1.21747e-06
-1.70862e-06
-8.12184e-08
-1.55209e-08
4.25598e-08
-7.08252e-07
5.45728e-07
1.40333e-07
2.18214e-07
-2.5563e-06
1.61298e-07
6.66416e-07
-3.13669e-06
9.5818e-07
-1.79036e-06
-1.85125e-06
-2.4358e-06
5.3677e-07
1.83191e-06
1.28199e-06
-3.72692e-08
-9.76449e-07
-5.11155e-07
1.65785e-06
-2.38429e-06
1.02449e-06
-2.04056e-06
4.33056e-06
-1.39832e-06
-9.58815e-07
5.80994e-07
-1.06981e-06
1.77444e-06
-3.60215e-06
4.29897e-07
2.76653e-06
-6.40014e-07
-2.1295e-06
7.10892e-07
2.53731e-06
-3.32162e-06
3.80772e-07
2.34241e-07
3.94361e-08
2.38502e-06
4.59797e-07
-3.22413e-06
1.34825e-06
4.7398e-08
1.63907e-06
1.9439e-06
-2.54803e-06
1.03703e-07
-7.50855e-07
4.46039e-07
-1.46552e-06
-1.31189e-06
1.35039e-06
7.13321e-07
-6.48176e-07
-2.64248e-07
-2.4923e-07
-1.60663e-06
-1.14242e-06
-5.841e-07
4.85564e-07
9.45003e-07
-1.44329e-06
1.54642e-06
-9.12843e-07
-1.82203e-06
2.48086e-06
-1.37977e-07
2.26972e-08
1.47881e-06
-8.38841e-07
3.4783e-06
-2.43471e-06
4.46983e-07
1.8639e-06
-1.92072e-08
1.43793e-06
1.90545e-06
-4.25709e-07
-1.05558e-06
-3.47744e-06
-2.47389e-06
-4.24823e-08
2.65927e-06
-8.98344e-07
1.22893e-06
-7.70468e-07
2.19886e-06
-1.9818e-07
-2.31739e-06
3.8931e-07
-6.95697e-09
4.40066e-06
-4.66261e-10
1.06624e-06
-7.63349e-07
1.21614e-06
-2.52601e-06
4.33281e-08
-1.17467e-06
5.5416e-07
-2.45617e-06
-1.09146e-06
-5.54239e-07
-2.73698e-06
-4.72755e-07
-2.15456e-06
6.30768e-07
2.72832e-07
-1.11706e-06
-3.55982e-07
4.77178e-06
1.48267e-06
-1.53366e-06
-2.68446e-06
1.52222e-06
-1.30422e-06
2.74534e-06
9.27196e-08
2.59142e-06
-1.53601e-06
1.11141e-06
2.54931e-08
-9.80666e-07
2.41578e-08
4.32431e-06
2.30145e-07
2.52808e-06
4.49499e-07
1.1049e-06
-3.25176e-07
-9.14668e-09
2.32331e-06
-1.10864e-06
-1.7522e-06
1.08007e-08
-1.54805e-06
8.64464e-07
3.02071e-06
2.51445e-06
-5.65444e-07
-1.09319e-06
-2.70428e-06
6.24368e-07
-2.50909e-08
-1.14386e-07
5.73222e-07
-9.59492e-07
-6.88467e-08
-1.43146e-06
2.98779e-06
1.33997e-06
3.51574e-06
3.46854e-06
-1.28092e-08
3.07172e-07
-3.64059e-08
-2.35017e-08
1.21509e-07
1.15701e-06
4.94577e-07
-5.87829e-07
-9.97608e-07
2.70234e-06
6.35998e-07
9.53679e-07
2.18009e-07
1.1171e-06
-4.04093e-07
-7.10393e-07
1.10617e-06
1.27189e-06
-2.42096e-07
2.98445e-06
-1.44103e-06
-1.12868e-07
-2.28007e-06
-6.37234e-08
1.07468e-06
1.79691e-07
-6.51463e-07
-7.43585e-07
-1.39057e-06
3.27216e-07
-5.43987e-07
-5.44223e-09
3.70481e-07
1.80128e-06
1.18044e-06
2.18997e-06
1.71108e-06
3.27988e-06
3.36011e-06
-1.53029e-06
1.33055e-06
-4.94411e-07
2.11919e-06
2.99312e-06
-2.84827e-06
-2.98954e-06
-1.25606e-06
-1.6904e-06
-3.76229e-06
-2.31986e-06
9.5173e-07
-1.24977e-06
3.44235e-07
1.15929e-06
2.1825e-06
1.51316e-06
1.40876e-06
4.41594e-06
2.98901e-06
1.09156e-06
-1.91158e-06
-2.67333e-07
-2.81096e-06
2.42459e-07
-9.18795e-07
8.8525e-07
3.72622e-08
-3.69288e-07
-3.18517e-06
1.84963e-07
6.31563e-09
1.18637e-06
1.47076e-06
-1.24206e-06
2.48948e-06
1.19136e-06
-2.62867e-07
4.87431e-07
1.86424e-06
3.41975e-06
8.9084e-07
-2.18698e-06
-5.18481e-07
-4.3099e-07
1.77211e-06
2.27223e-06
-9.04599e-08
3.53477e-06
-5.62594e-07
-2.71154e-06
-1.50386e-06
-5.33156e-07
-9.15701e-07
-1.77718e-06
7.60108e-07
-1.76577e-06
1.6367e-06
-2.92269e-07
-6.13853e-07
-5.78946e-06
2.39309e-07
3.33513e-07
-1.07621e-06
2.88928e-06
-2.42791e-07
2.91567e-06
6.30711e-07
5.11016e-08
-6.85782e-08
8.9351e-07
2.12526e-06
-1.2583e-06
-7.69347e-06
-2.61188e-06
2.14392e-06
2.90259e-08
-3.47838e-06
-2.593e-06
-1.38381e-06
-2.4985e-06
-6.13935e-08
4.25372e-07
2.45581e-06
-1.89265e-06
-1.63506e-06
-5.19313e-07
-7.01301e-06
-1.28156e-05
-2.83898e-05
-6.80019e-05
-0.00015146
-0.0003516
-0.000787588
-0.00176112
-0.0039008
-0.0085621
-0.0186063
-0.0400317
-0.0852849
-0.179885
-0.375519
-0.775709
-1.58531
-3.20465
-6.40616
-12.6608
-24.7323
-47.7406
-91.0347
-171.432
-318.717
-584.783
-1058.53
-1889.54
-3324.86
-5764.41
-9842.03
-16539.8
-27342.3
-44434.9
-70940.5
-111178
-170900
-257443
-379694
-547741
-772109
-1.06248e+06
-1.42598e+06
-1.86515e+06
-2.37617e+06
-2.94763e+06
-3.56057e+06
-4.18996e+06
-4.80752e+06
-5.38526e+06
-5.89896e+06
-6.33173e+06
-6.67781e+06
-6.93988e+06
-7.1253e+06
-7.24365e+06
-7.30501e+06
-7.31892e+06
-7.29386e+06
-7.23714e+06
-7.15486e+06
-7.05206e+06
-6.93285e+06
-6.80058e+06
-6.65793e+06
-6.50709e+06
-6.34984e+06
-6.18761e+06
-6.02156e+06
-5.85265e+06
-5.68167e+06
-5.50927e+06
-5.33601e+06
-5.16235e+06
-4.98868e+06
-4.81535e+06
-4.64266e+06
-4.47087e+06
-4.30021e+06
-4.13091e+06
-3.96315e+06
-3.79712e+06
-3.63296e+06
-3.47084e+06
-3.31088e+06
-3.15321e+06
-2.99795e+06
-2.8452e+06
-2.69506e+06
-2.5476e+06
-2.40291e+06
-2.26105e+06
-2.12209e+06
-1.98608e+06
-1.85305e+06
-1.72305e+06
-1.59612e+06
-1.47226e+06
-1.3515e+06
-1.23387e+06
-1.11935e+06
-1.00796e+06
-899697
-794557
-692531
-593608
-497774
-405014
-315308
-228635
-144972
-64296
13420
88203
160081
229085
295244
358589
419152
476967
532066
584482
634251
681405
725980
768010
807531
844578
879186
911391
941229
968734
993942
1.01689e+06
1.03761e+06
1.05614e+06
1.07252e+06
1.08678e+06
1.09895e+06
1.10908e+06
1.11719e+06
1.12332e+06
1.12751e+06
1.12979e+06
1.1302e+06
1.12876e+06
1.12551e+06
1.1205e+06
1.11374e+06
1.10528e+06
1.09515e+06
1.08338e+06
1.07e+06
1.05506e+06
1.03857e+06
1.02058e+06
1.00111e+06
980206
957892
934204
909173
882832
855216
826357
796289
765046
732664
699179
664626
629046
592478
554968
516562
477311
437275
396518
355117
313164
270769
228067
185226
142458
100032
58291.8
17678.3
-21246.6
-57772.2
-91011.1
-119881
-143101
-159232
-166767
-164320
-150916
-126390
-91834.5
-49965.5
-5255.59
36491.6
68763.6
85189.2
81188.4
55491.5
10904.1
-46143.7
-107069
-162977
-206008
-230514
-232263
-209112
-161620
-93259.4
-10558.1
77044.5
157881
219468
250568
243976
196322
111844
2480.59
-114285
-219320
-296022
-333134
-326833
-278059
-194600
-90008.9
18333.7
111884
174030
193407
166242
96489.7
-2671.01
-111577
-208751
-275965
-302198
-285420
-231488
-154016
-71334.2
-2520.39
36702.4
37646.3
146.393
-67289.3
-149051
-226701
-283986
-311078
-306626
-277386
-236663
-200566
-183652
-195053
-236394
-301878
-380277
-458883
-527578
-581452
-620972
-651124
-681604
-732429
-849955
-1.13657e+06
-1.79174e+06
-3.15452e+06
-5.72839e+06
-1.01628e+07
-1.71668e+07
-2.73409e+07
-4.09429e+07
-5.76427e+07
-7.63667e+07
-9.53365e+07
-1.12351e+08
-1.25239e+08
-1.32333e+08
-1.32789e+08
-1.26684e+08
-1.14903e+08
-9.88879e+07
-8.03499e+07
-6.10211e+07
-4.24755e+07
-2.60144e+07
-1.25832e+07
-2.70518e+06
3.55824e+06
6.58802e+06
7.10724e+06
6.01072e+06
4.17085e+06
2.27894e+06
764185
-203628
-651300
-715625
-564027
-340118
-138237
-1658.03
65015.2
78701.3
62740.3
37148.3
14537.2
199.588
-5691.8
-5484.6
-2046.22
2330
6252.84
9111.5
10797.8
11453.4
11308.2
10602.4
9557.41
8364.86
7177.92
6103.19
5196.63
4467.13
3887.38
3409.48
2981.57
2560.11
2115.02
1632.9
1118.84
584.559
38.8028
-490.163
-961.709
-1397.62
-1821.74
-2106.59
-2276.14
-2731.28
-3192.53
-2755.44
-2834.88
-4879.77
-3544.83
1976.49
-3674.95
-11824.7
14937.7
25332.4
-50580.6
-17159.9
189170
-26912.9
-414424
541690
1.07347e+06
-1.87532e+06
-1.05685e+06
7.04786e+06
-386928
-1.7885e+07
1.82575e+07
4.62672e+07
-6.49347e+07
-2.48457e+07
3.44684e+08
1.41835e+08
-1.04428e+07
-4.65331e+06
-587351
-93471.5
-15663
-2606.56
-431.872
-71.4667
-11.823
-1.95581
-0.323531
-0.0535188
-0.00885261
-0.00146432
-0.000242308
-4.03984e-05
-6.77716e-06
-1.2638e-06
-1.31937e-07
-1.54244e-07
2.17018e-07
-2.23604e-07
5.10438e-07
8.46122e-08
4.87752e-07
4.47636e-07
1.04045e-07
9.29801e-07
5.73378e-07
5.25539e-08
7.07316e-07
8.01742e-08
8.76926e-07
-2.86187e-07
6.59816e-07
8.35417e-07
1.23634e-06
7.38558e-08
3.36897e-07
2.03e-07
-7.7075e-07
3.58305e-07
-5.7612e-07
-2.07359e-07
-3.07397e-07
-2.09219e-07
4.77911e-08
-2.57988e-09
-1.41144e-07
1.69958e-08
-5.67347e-07
3.80498e-08
6.28185e-07
7.84113e-07
-7.13314e-07
5.89722e-07
6.53426e-07
-2.14833e-07
1.06456e-06
-4.58742e-09
-6.31239e-07
-3.7719e-07
-7.13594e-09
-6.14637e-07
-4.12485e-07
1.15429e-07
4.2418e-07
-2.80838e-07
8.17221e-07
5.27806e-08
3.23642e-08
-9.24174e-08
-4.71157e-08
2.36041e-07
-2.75092e-08
-3.23562e-07
-7.44002e-07
-2.18922e-08
-1.12369e-07
3.80974e-07
3.35754e-07
5.62051e-07
-1.57554e-07
2.77643e-07
-2.4786e-07
-7.991e-07
-4.87432e-07
3.31051e-07
3.70965e-07
-3.57071e-09
-7.45569e-07
-3.73279e-07
4.47942e-07
-6.05588e-07
-2.81671e-07
-3.39196e-07
1.57901e-07
1.13308e-07
-4.50924e-07
-9.67565e-07
-5.96974e-07
1.50677e-07
-5.03314e-07
-8.62117e-08
-1.01677e-08
-6.99174e-07
-3.41106e-07
8.48627e-07
2.72306e-07
2.65814e-07
-6.99138e-07
-7.84469e-07
-3.76568e-07
-2.25449e-08
1.38692e-07
-3.81373e-07
-3.12728e-07
2.33017e-08
1.32843e-08
-2.5926e-07
-8.69704e-07
3.85525e-08
3.77631e-07
1.40277e-07
9.10219e-07
8.93477e-09
2.29956e-07
4.41713e-07
-3.72804e-07
-3.13071e-08
1.69522e-07
-6.46953e-07
3.00168e-07
8.16505e-07
-2.66937e-07
2.74471e-08
-2.48366e-07
-9.41762e-11
-2.86634e-07
-2.71019e-07
-4.44578e-07
9.64824e-07
-2.44078e-08
4.03409e-07
-3.50668e-07
2.58418e-08
-6.63469e-08
-6.14434e-07
-1.8377e-08
6.39641e-09
-1.72144e-09
3.39128e-07
-3.39201e-07
8.95816e-07
-1.87128e-07
2.51421e-08
4.62137e-07
6.52364e-07
-5.39054e-07
-3.78849e-07
7.20211e-07
1.40097e-07
-4.98804e-07
4.66414e-08
4.92607e-08
-3.83403e-07
3.56807e-08
1.78927e-07
4.31846e-07
1.05423e-06
1.62233e-07
-3.73261e-09
-6.44745e-08
-3.74761e-08
-1.01209e-07
4.72238e-07
-3.86891e-07
8.92995e-08
-6.6079e-07
1.08161e-07
5.98184e-07
8.39214e-08
1.06608e-06
1.81551e-07
-2.71526e-07
2.03038e-07
4.49224e-07
-1.02318e-07
2.74457e-07
5.96851e-07
6.49326e-07
-1.38576e-07
1.00857e-09
2.68137e-08
1.2385e-07
-4.24076e-07
1.7064e-07
2.38275e-07
3.73567e-07
-5.64703e-07
1.10415e-06
5.28102e-10
-7.66364e-08
3.08453e-10
3.20806e-09
-2.82985e-07
-4.73765e-07
-1.39221e-07
2.72024e-07
-3.35409e-10
-8.04132e-07
-2.52231e-08
-2.74863e-08
6.53422e-08
1.3633e-07
1.94386e-07
7.4154e-07
4.82218e-07
7.85305e-09
-2.85907e-07
4.26513e-09
6.76994e-07
-2.26535e-07
-4.04809e-07
3.10672e-07
-3.22368e-07
2.706e-07
-5.00043e-07
4.29404e-08
-2.61255e-08
-8.70896e-09
1.1208e-06
2.81791e-07
-1.67727e-07
1.91925e-07
-3.71348e-07
-3.48849e-07
-4.00929e-07
-2.71234e-07
-1.80822e-07
2.40843e-07
5.84661e-08
-5.62514e-07
-5.19607e-08
-1.24862e-06
-5.38447e-07
7.68938e-08
-2.70806e-07
-1.08837e-07
-1.47762e-07
-1.35893e-08
3.67051e-07
-1.22442e-07
-3.8157e-07
1.80018e-07
-4.77822e-07
4.53012e-07
9.46793e-07
-5.35205e-07
3.27826e-07
-1.27889e-06
5.49415e-07
-6.70936e-07
-4.8352e-07
-2.55463e-07
-1.86581e-08
-8.1878e-07
-4.40067e-07
-2.58621e-07
5.60586e-07
-7.20713e-07
-6.65143e-07
3.33768e-08
7.92448e-09
2.09695e-08
-2.68996e-07
-5.03544e-07
-1.06139e-07
1.41049e-07
-1.23469e-06
-3.48156e-07
9.0763e-07
3.40096e-09
1.24829e-08
1.02775e-07
-4.08187e-07
4.14116e-07
-9.24014e-07
-3.89744e-07
2.63371e-07
-5.28311e-07
-2.77412e-07
-2.12365e-07
8.34428e-09
-2.63074e-08
-3.87186e-07
-1.51273e-07
-7.9513e-07
-6.90264e-07
-1.71021e-07
2.24774e-07
-6.94026e-07
4.12248e-07
-6.38007e-07
1.07756e-07
-3.45939e-08
3.82669e-07
-1.42573e-08
)
;

boundaryField
{
    sides
    {
        type            calculated;
        value           nonuniform List<scalar> 2(-1.42573e-08 2.29286e-08);
    }
    empty
    {
        type            empty;
    }
}


// ************************************************************************* //
