/*--------------------------------*- C++ -*----------------------------------*\
  =========                 |
  \\      /  F ield         | OpenFOAM: The Open Source CFD Toolbox
   \\    /   O peration     | Website:  https://openfoam.org
    \\  /    A nd           | Version:  13
     \\/     M anipulation  |
\*---------------------------------------------------------------------------*/
FoamFile
{
    format      ascii;
    class       volScalarField;
    location    "0.0035";
    object      CrankNicolson:ddt0(rho,K);
}
// * * * * * * * * * * * * * * * * * * * * * * * * * * * * * * * * * * * * * //

dimensions      [1 -1 -3 0 0 0 0];

internalField   nonuniform List<scalar> 
1000
(
3.05914e-21
8.18775e-24
-2.89874e-21
-7.99418e-21
-2.48637e-24
-5.85566e-21
-9.98074e-21
2.81446e-21
3.23156e-21
2.29027e-23
6.89585e-21
6.08758e-21
-3.22555e-21
-1.61924e-20
-5.70946e-21
7.22074e-21
5.13892e-21
2.01073e-24
2.42717e-21
1.39131e-20
2.66698e-21
-8.13001e-21
-5.69866e-21
-4.88557e-21
-5.01934e-21
5.21651e-21
9.30782e-21
2.55815e-21
2.06725e-21
4.97149e-21
9.38985e-21
1.86911e-23
5.67344e-21
9.22136e-21
1.68682e-21
1.5767e-21
2.46804e-26
3.79093e-24
1.51767e-21
1.82398e-21
-5.22423e-21
-1.93257e-21
4.62452e-21
3.92155e-21
-2.86822e-21
-5.71935e-21
-4.92557e-21
2.58135e-21
3.34135e-21
4.3267e-23
3.98383e-21
3.33987e-21
-5.37683e-21
-4.48619e-21
7.51129e-25
5.64689e-21
4.20535e-21
-1.77864e-21
3.56566e-21
4.44034e-21
-6.93346e-21
-5.41987e-25
1.08394e-23
-3.7872e-21
-1.85121e-21
1.98251e-21
1.97362e-21
-1.83994e-21
2.19417e-21
-1.94455e-21
4.96615e-24
-2.58926e-24
-1.39258e-21
9.6657e-25
2.13534e-25
-1.87465e-21
2.94353e-21
1.02286e-20
6.39781e-21
2.70622e-21
7.53601e-22
7.44225e-24
1.76704e-23
-7.87835e-23
5.19542e-22
1.10207e-21
3.11833e-24
-2.85289e-22
-4.1996e-22
1.67633e-21
-1.49451e-21
-2.39852e-21
5.54642e-24
6.68834e-22
-1.2554e-24
9.66961e-22
4.5054e-21
4.55767e-21
5.6837e-21
3.26124e-21
1.47923e-21
5.7192e-21
3.35205e-21
1.27318e-21
2.6017e-22
7.96686e-22
4.56316e-22
6.4127e-22
7.26609e-22
2.73181e-21
6.59782e-21
5.8152e-21
2.02205e-21
6.0428e-22
7.70108e-26
-1.13267e-21
-1.09832e-21
7.02026e-24
1.20264e-23
3.46008e-22
-1.37915e-22
6.17214e-22
-2.47882e-22
-5.94685e-22
-5.50297e-22
-6.31544e-22
-3.14809e-21
-7.08868e-22
-4.96779e-22
-3.19102e-24
-2.95867e-24
5.95085e-22
5.54377e-22
-7.03962e-23
-4.21896e-22
-9.26758e-22
-6.19812e-22
-4.83252e-22
-6.15566e-22
3.06936e-22
7.46609e-22
1.06623e-21
3.42626e-25
7.95263e-22
-1.16602e-21
-3.94782e-21
-5.47269e-24
2.66395e-21
-4.5857e-21
-3.71441e-21
-1.30668e-21
-8.04815e-25
-1.64224e-21
-3.70629e-21
-4.02265e-21
-1.64938e-21
-1.64476e-23
-2.6451e-22
2.34152e-21
3.46438e-23
-1.35846e-21
-2.55418e-21
-3.81309e-21
-9.87815e-22
3.96691e-21
6.69272e-24
-5.96662e-21
-6.65105e-22
9.81868e-22
-9.05748e-22
-1.0523e-21
6.67143e-22
1.61486e-21
1.12383e-21
1.61177e-21
7.7861e-22
2.41184e-21
-3.60101e-21
-4.41019e-21
-5.65788e-22
-4.99814e-22
4.92004e-22
1.1462e-21
4.47473e-24
2.96936e-22
2.7378e-24
-1.23502e-22
6.96231e-24
-1.0266e-22
3.62165e-22
5.01688e-24
-9.10779e-22
-2.21567e-22
5.79404e-22
-9.5882e-23
-2.06668e-24
-3.10299e-22
-2.45798e-22
2.84777e-23
2.3198e-22
6.44492e-22
-2.11359e-22
-5.5596e-22
-7.22126e-22
-2.8969e-21
-1.86926e-21
3.56407e-21
8.0823e-21
1.02727e-20
1.10511e-20
8.32731e-21
5.20339e-21
6.27147e-21
3.05401e-21
-2.2706e-24
-1.57239e-21
-2.902e-21
5.38595e-22
6.07155e-22
-2.6301e-22
-3.2976e-24
-1.67208e-24
3.13362e-24
-4.1808e-22
2.20774e-23
4.23942e-22
3.34137e-22
2.78622e-22
-7.21401e-21
-8.98944e-21
-6.92184e-21
-4.28394e-21
-3.47028e-21
-2.91637e-21
1.27405e-21
2.6058e-21
7.0197e-22
-9.48809e-22
-1.05284e-21
-4.38975e-22
1.1724e-23
-2.68206e-21
8.81166e-22
-1.09962e-23
7.72953e-24
-7.39133e-22
1.09896e-21
5.25591e-22
-1.2858e-21
-1.84654e-21
1.46241e-23
2.13312e-21
-6.28493e-22
-2.30182e-21
-2.07226e-21
-1.95728e-21
1.71035e-21
1.97662e-21
1.85684e-21
1.30829e-25
-3.07176e-21
-1.38366e-21
-2.1821e-21
-8.97412e-22
-3.12398e-22
-7.72539e-22
6.29188e-23
2.07013e-22
9.67185e-23
-4.14288e-22
-3.97298e-22
-5.71636e-23
-5.14105e-23
1.49242e-21
3.39627e-21
2.08286e-21
3.86415e-23
4.88463e-21
3.09311e-21
-1.07008e-21
2.4787e-21
3.35216e-21
6.75539e-21
2.25164e-21
-3.65399e-21
-3.93633e-21
-2.09078e-21
-3.41544e-21
-4.24293e-21
4.04946e-21
2.68169e-21
-4.04515e-21
1.2428e-21
1.21087e-21
-9.87675e-22
-1.96147e-21
-2.50364e-24
7.77372e-22
-4.24235e-22
1.74216e-21
7.2596e-22
8.77073e-22
1.10577e-21
-1.92086e-24
-9.99489e-22
-1.14333e-21
-1.38373e-21
4.79465e-21
5.72172e-21
7.86625e-21
1.1929e-21
1.93842e-21
5.89576e-25
-1.61282e-21
-2.64176e-21
3.34989e-21
9.81592e-21
5.28714e-20
3.19321e-19
1.58956e-18
8.19114e-18
4.23716e-17
2.17186e-16
1.10827e-15
5.57956e-15
2.76549e-14
1.34604e-13
6.4299e-13
3.0134e-12
1.38495e-11
6.24011e-11
2.75533e-10
1.19181e-09
5.04811e-09
2.09295e-08
8.4901e-08
3.36818e-07
1.30617e-06
4.94896e-06
1.83108e-05
6.61216e-05
0.000232897
0.000799648
0.00267461
0.0087085
0.0275814
0.0849039
0.253805
0.736077
2.069
5.63042
14.8167
37.6575
92.3122
217.952
494.907
1079.19
2256.53
4518.02
8651.13
15826.2
27642.1
46084.1
73357.8
111594
162472
226862
304591
394494
494768
603360
718223
837492
959559
1.0831e+06
1.20706e+06
1.3306e+06
1.45309e+06
1.574e+06
1.69298e+06
1.80971e+06
1.92396e+06
2.03556e+06
2.14435e+06
2.25022e+06
2.35305e+06
2.45278e+06
2.54931e+06
2.64259e+06
2.73255e+06
2.81915e+06
2.90234e+06
2.98207e+06
3.05833e+06
3.13106e+06
3.20027e+06
3.26593e+06
3.32803e+06
3.38658e+06
3.44158e+06
3.49304e+06
3.54098e+06
3.58544e+06
3.62644e+06
3.66401e+06
3.69821e+06
3.72907e+06
3.75665e+06
3.78101e+06
3.8022e+06
3.82028e+06
3.83532e+06
3.84739e+06
3.85654e+06
3.86285e+06
3.86638e+06
3.86721e+06
3.86541e+06
3.86103e+06
3.85417e+06
3.84487e+06
3.83322e+06
3.81928e+06
3.80312e+06
3.7848e+06
3.76439e+06
3.74197e+06
3.71759e+06
3.69132e+06
3.66322e+06
3.63335e+06
3.60179e+06
3.56858e+06
3.53379e+06
3.49748e+06
3.4597e+06
3.42053e+06
3.38e+06
3.33819e+06
3.29513e+06
3.2509e+06
3.20554e+06
3.15911e+06
3.11166e+06
3.06323e+06
3.01388e+06
2.96367e+06
2.91263e+06
2.86083e+06
2.80829e+06
2.75508e+06
2.70124e+06
2.64681e+06
2.59183e+06
2.53636e+06
2.48043e+06
2.42408e+06
2.36737e+06
2.31032e+06
2.25298e+06
2.19538e+06
2.13757e+06
2.07959e+06
2.02146e+06
1.96323e+06
1.90494e+06
1.84661e+06
1.78828e+06
1.72999e+06
1.67177e+06
1.61365e+06
1.55567e+06
1.49785e+06
1.44022e+06
1.38282e+06
1.32568e+06
1.26882e+06
1.21227e+06
1.15607e+06
1.10023e+06
1.04479e+06
989779
935216
881130
827550
774501
722013
670111
618826
568186
518223
468974
420477
372775
325919
279969
234998
191097
148380
106995
67134.6
29049.5
-6930.19
-40369.8
-70699
-97176.3
-118855
-134558
-142895
-142335
-131411
-109090
-75332.1
-31763.3
17776.1
67014.1
107742
131412
131451
105505
56524.8
-7838.9
-77231.3
-140989
-190168
-218157
-220999
-197257
-147803
-75813.7
12990.1
109996
203635
280144
325570
328023
281973
190984
68390.3
-65293.4
-187215
-277293
-322066
-315356
-259067
-162247
-39846.6
89050.4
203537
283960
315418
290916
214504
101345
-25187.1
-139020
-217567
-246517
-221959
-151015
-49918.1
59307.3
153306
212355
224616
189089
116292
25709.5
-59305.1
-117767
-136360
-112392
-54186.4
21514.9
94181.6
145116
162494
144546
100005
45278.9
-760.545
-22717.5
-13339.5
24346.1
78260.2
131709
170136
188797
200087
239286
367661
671723
1.2566e+06
2.23094e+06
3.68194e+06
5.6435e+06
8.06572e+06
1.07975e+07
1.35915e+07
1.61359e+07
1.81077e+07
1.92395e+07
1.93794e+07
1.85238e+07
1.68056e+07
1.44477e+07
1.17084e+07
8.8418e+06
6.07857e+06
3.61641e+06
1.60761e+06
142885
-761466
-1.16381e+06
-1.18074e+06
-957397
-633949
-319211
-77973.2
67517
126393
124434
90852.5
49490
15058.9
-6583.62
-15885.5
-16481.6
-12646.5
-7779.77
-3867.74
-1612.73
-874.328
-1143.58
-1889.41
-2729.97
-3461.36
-4010.87
-4375.82
-4581.29
-4661.55
-4655.1
-4602.16
-4539.54
-4494.25
-4478.82
-4490.93
-4517.87
-4544.74
-4562.4
-4572.08
-4587.04
-4629.39
-4717.8
-4857.43
-5047.28
-5277.22
-5502.68
-5686.71
-5876.53
-6076.71
-6155.84
-6254.12
-6691.85
-6835.68
-6176.37
-6762.94
-8313.3
-4832.91
-1146.76
-10821
-10107.3
23702.1
8570.85
-59783.3
59189.9
212529
-167631
-237832
1.03493e+06
542586
-2.40559e+06
1.57438e+06
7.87139e+06
-6.77336e+06
-1.24755e+07
3.78886e+07
2.33668e+07
-1.02206e+08
9.55851e+07
4.30615e+08
1.4423e+08
9.3722e+06
297838
8522.38
230.661
6.29041
0.172057
0.00470811
0.000128835
3.52548e-06
9.64712e-08
2.6398e-09
7.22327e-11
1.97623e-12
5.40344e-14
1.47417e-15
3.99864e-17
1.01217e-18
1.6939e-20
-4.21815e-21
-1.79992e-22
8.07538e-22
-6.5746e-22
-1.02021e-21
3.68744e-24
4.17551e-22
7.2771e-22
1.64896e-22
2.15192e-22
3.48181e-22
7.49948e-22
1.6917e-22
-1.99774e-22
4.34327e-22
-2.74738e-22
-3.04409e-22
-6.4939e-22
-2.54046e-22
3.80718e-26
-5.25379e-22
2.90524e-22
2.49769e-21
1.42325e-21
-3.41906e-22
3.7539e-22
2.68329e-21
7.55362e-22
-4.07105e-22
1.19432e-21
-1.78708e-21
-2.49051e-21
-2.52537e-21
-2.98212e-22
3.01288e-22
3.64564e-22
4.88725e-22
2.40665e-22
6.01332e-22
3.10393e-22
6.35494e-25
-2.33508e-25
-7.12626e-22
-1.41041e-21
6.03756e-25
2.93841e-22
5.67296e-22
8.01646e-22
5.3756e-25
4.85864e-22
5.50462e-22
-3.01993e-22
5.28779e-25
-6.25202e-22
8.13752e-22
1.751e-21
5.62695e-22
-2.38604e-22
-2.7771e-22
-1.55006e-25
6.09287e-22
6.19114e-22
-3.04487e-22
-9.68763e-22
-5.6506e-22
-5.03955e-22
-4.63433e-22
-4.47375e-22
-1.84433e-22
3.95859e-22
9.0393e-22
5.12785e-22
7.19659e-23
3.02473e-23
-3.92627e-22
-2.36426e-22
-6.68007e-22
-2.49967e-22
-1.38668e-22
-2.19421e-22
-1.98013e-22
2.25861e-22
5.19394e-22
4.59864e-24
2.16205e-24
1.90825e-23
-6.89521e-23
9.16876e-23
3.26624e-25
-2.67914e-22
-1.21883e-22
-8.99558e-25
4.19655e-26
-1.39988e-25
7.39815e-23
2.2292e-22
8.98145e-26
-2.27949e-22
-3.29818e-25
-8.64497e-26
2.50934e-25
7.14917e-23
6.09597e-23
2.29169e-24
-4.20886e-23
-2.85764e-22
5.92429e-23
1.11771e-22
-2.79015e-22
-4.28594e-22
-5.32037e-23
1.68623e-22
5.67147e-22
2.90574e-22
2.40188e-22
-1.45949e-25
-5.1485e-23
4.73792e-23
3.24175e-24
7.37703e-23
-1.19195e-23
3.33675e-24
2.64062e-22
-3.52297e-23
-8.5819e-23
1.61537e-25
9.43246e-23
1.99211e-22
-1.05323e-25
7.15488e-23
1.06752e-22
-1.67534e-24
1.30091e-22
6.17047e-23
9.24167e-24
-5.71525e-23
-2.33505e-22
-1.57731e-22
-2.40196e-22
3.72691e-23
-5.84899e-23
-1.38051e-22
4.11212e-23
1.26718e-22
3.65207e-22
8.45807e-23
-6.27699e-25
-1.29725e-22
-8.16052e-22
3.98375e-22
4.12265e-22
1.39295e-22
1.87363e-22
1.41893e-22
-1.61361e-22
4.31738e-23
7.70893e-23
1.99666e-22
-1.37515e-22
-4.63736e-25
-1.70576e-22
-1.35265e-22
-1.90477e-22
3.41555e-25
-4.10269e-25
-2.21724e-22
-1.82602e-22
1.13204e-22
-1.73126e-22
-5.23497e-22
-4.75126e-22
1.44641e-22
-1.69115e-22
-1.78983e-22
-2.39661e-25
2.44668e-22
2.75754e-22
7.05613e-22
1.33568e-21
4.06715e-22
8.4327e-22
1.28637e-21
5.3418e-22
2.96128e-22
4.86787e-22
-1.87044e-22
-5.69913e-22
-2.97351e-22
-1.11187e-22
-2.23581e-22
-9.09192e-22
-5.76113e-22
-4.39841e-22
-7.22068e-22
-5.98103e-26
-2.63996e-22
-2.07189e-22
4.99238e-25
1.66144e-22
1.37743e-22
-1.58362e-22
-1.25088e-22
1.29993e-22
2.14348e-22
7.81674e-23
7.15577e-23
4.22301e-25
-3.15415e-25
1.00825e-22
1.1428e-24
4.92288e-25
-1.18801e-22
-1.65537e-22
5.40323e-23
2.54234e-22
-4.97923e-24
-3.50849e-22
-6.23708e-22
-4.30277e-22
-1.58876e-22
2.05887e-22
-2.68662e-25
-7.54928e-22
-4.20759e-22
-4.36183e-22
3.19361e-25
1.87337e-22
-7.14448e-22
-1.33892e-21
-7.34942e-22
1.08853e-21
3.09075e-21
2.25025e-21
2.09267e-21
2.13815e-21
8.47939e-22
2.16462e-22
1.84451e-22
-1.23047e-25
9.85074e-23
-2.77522e-22
-1.20841e-22
-2.68308e-22
-1.78534e-22
-1.72161e-22
-6.80415e-22
-3.27274e-25
9.14716e-22
4.3548e-22
6.48078e-23
1.29832e-22
4.61114e-22
8.08579e-22
6.00716e-22
6.6447e-22
1.52833e-22
-2.5582e-22
-2.53326e-22
1.46219e-22
2.1214e-22
-1.23342e-22
9.33329e-25
3.04366e-22
4.49009e-22
8.0918e-23
2.55682e-26
1.04905e-22
-1.37258e-22
2.6424e-22
3.32459e-22
3.26583e-22
3.21613e-22
-4.0107e-22
-1.70721e-22
5.82894e-25
-4.13321e-22
3.43222e-25
3.54245e-22
1.30996e-22
2.73695e-22
-3.69384e-26
-8.47154e-22
-4.97641e-22
3.67752e-24
-2.21312e-22
-6.47332e-25
4.68048e-22
2.92785e-22
2.63983e-22
4.23427e-22
)
;

boundaryField
{
    sides
    {
        type            calculated;
        value           nonuniform List<scalar> 2(4.23427e-22 3.05914e-21);
    }
    empty
    {
        type            empty;
    }
}


// ************************************************************************* //
