/*--------------------------------*- C++ -*----------------------------------*\
  =========                 |
  \\      /  F ield         | OpenFOAM: The Open Source CFD Toolbox
   \\    /   O peration     | Website:  https://openfoam.org
    \\  /    A nd           | Version:  13
     \\/     M anipulation  |
\*---------------------------------------------------------------------------*/
FoamFile
{
    format      ascii;
    class       volScalarField;
    location    "0.0035";
    object      mag(U);
}
// * * * * * * * * * * * * * * * * * * * * * * * * * * * * * * * * * * * * * //

dimensions      [0 1 -1 0 0 0 0];

internalField   nonuniform List<scalar> 
1000
(
2.11516e-12
1.86717e-12
1.98873e-12
1.78937e-12
2.13947e-12
1.96928e-12
2.25617e-12
1.94011e-12
2.21727e-12
2.04708e-12
2.4069e-12
2.11516e-12
2.20754e-12
1.7602e-12
1.92552e-12
1.70671e-12
1.7991e-12
1.70671e-12
1.68726e-12
1.69213e-12
1.86717e-12
1.80882e-12
1.90121e-12
1.66781e-12
1.70671e-12
1.79424e-12
1.66295e-12
1.7602e-12
1.449e-12
1.7602e-12
1.64836e-12
1.80396e-12
1.37607e-12
1.37121e-12
1.17185e-12
1.09891e-12
7.77989e-13
1.06974e-12
1.06974e-12
1.26909e-12
1.14753e-12
1.28368e-12
1.09891e-12
9.48174e-13
9.72486e-13
7.1964e-13
1.06974e-12
9.23862e-13
1.20588e-12
1.12808e-12
1.35176e-12
1.18643e-12
1.18643e-12
9.77349e-13
1.14267e-12
1.34203e-12
1.4879e-12
1.20102e-12
1.24965e-12
1.0746e-12
1.13295e-12
1.08432e-12
1.21561e-12
1.26423e-12
1.25937e-12
1.38093e-12
1.36634e-12
1.24478e-12
1.50735e-12
1.32258e-12
1.24965e-12
1.19616e-12
9.82211e-13
1.16698e-12
1.13781e-12
1.25451e-12
1.04056e-12
1.10377e-12
7.53677e-13
5.54317e-13
2.96608e-13
4.18169e-13
1.89635e-13
4.37619e-14
1.6046e-13
2.62571e-13
1.7991e-13
8.26613e-14
2.77159e-13
4.18169e-13
4.76518e-13
4.95968e-13
4.03582e-13
2.57709e-13
3.20921e-13
3.64682e-13
6.85603e-13
7.3909e-13
1.04542e-12
1.10863e-12
1.03084e-12
8.801e-13
5.2028e-13
2.38259e-13
1.26423e-13
3.01471e-13
1.84772e-13
4.23032e-13
2.47984e-13
3.88995e-13
6.46703e-13
6.85603e-13
5.10555e-13
4.32756e-13
4.57069e-13
1.94497e-13
1.21561e-13
2.72296e-13
2.33397e-13
2.43122e-13
6.8074e-14
1.70185e-13
1.6046e-13
1.89635e-13
3.4037e-13
4.08444e-13
4.71656e-13
4.61931e-13
3.45233e-13
3.4037e-13
4.57069e-13
4.32756e-13
3.88995e-13
4.86243e-15
7.29365e-14
9.23862e-14
1.89635e-13
2.96608e-13
3.98719e-13
2.18809e-13
3.06333e-13
3.93857e-13
6.32116e-13
5.68905e-13
7.77989e-13
6.12666e-13
8.94687e-13
9.23862e-13
9.96799e-13
8.12026e-13
8.65513e-13
6.17529e-13
5.10555e-13
3.20921e-13
1.70185e-13
1.50735e-13
1.06974e-13
1.65323e-13
3.4037e-13
6.8074e-14
1.65323e-13
1.41011e-13
6.12666e-13
6.61291e-13
9.33587e-13
7.29365e-13
7.53677e-13
4.57069e-13
6.8074e-13
6.07804e-13
7.05053e-13
4.76518e-13
4.32756e-13
2.77159e-13
5.78629e-13
5.34868e-13
8.65513e-13
5.54317e-13
5.2028e-13
3.69545e-13
3.25783e-13
3.64682e-13
2.96608e-13
2.04222e-13
1.26423e-13
2.91746e-14
8.26613e-14
8.75238e-14
7.29365e-14
2.57709e-13
3.84132e-13
2.86883e-13
3.92537e-27
3.88995e-13
4.86243e-15
3.88995e-14
1.84772e-13
5.34868e-14
3.88995e-14
1.41011e-13
1.65323e-13
2.91746e-14
3.88995e-14
4.66793e-13
4.37619e-13
5.93217e-13
6.85603e-13
8.41201e-13
8.6065e-13
9.87074e-13
1.0357e-12
7.09915e-13
9.72486e-13
5.83492e-13
5.88354e-13
2.04222e-13
4.13307e-13
3.88995e-13
4.23032e-13
4.37619e-14
7.29365e-14
1.7991e-13
5.34868e-14
2.82021e-13
3.4037e-14
1.50735e-13
1.31286e-13
2.18809e-13
4.76518e-13
6.07804e-13
8.6065e-13
6.51566e-13
7.43952e-13
6.56428e-13
8.70375e-13
9.33587e-13
4.76518e-13
2.91746e-13
1.11836e-13
1.02111e-13
4.18169e-13
5.3973e-13
6.12666e-13
4.91106e-13
1.31286e-13
5.34868e-14
2.28534e-13
3.54958e-13
3.93857e-13
5.93217e-13
7.29365e-13
7.43952e-13
4.47344e-13
4.81381e-13
2.62571e-13
9.72486e-14
2.96608e-13
4.81381e-13
6.66153e-13
4.61931e-13
6.27254e-13
2.77159e-13
1.26423e-13
2.91746e-14
1.89635e-13
1.16698e-13
5.83492e-14
1.11836e-13
7.77989e-14
1.02111e-13
2.43122e-13
9.72486e-15
2.91746e-14
3.4037e-13
4.95968e-13
7.48815e-13
7.48815e-13
8.75238e-13
7.68264e-13
7.1964e-13
8.6065e-13
8.31476e-13
1.01625e-12
8.12026e-13
7.92576e-13
4.71656e-13
6.85603e-13
5.05693e-13
6.71016e-13
7.73127e-13
9.33587e-13
8.801e-13
8.801e-13
8.46063e-13
6.71016e-13
6.36979e-13
5.30005e-13
5.34868e-13
3.16058e-13
6.36979e-13
5.10555e-13
6.36979e-13
4.08444e-13
5.3973e-13
6.8074e-13
7.43952e-13
2.77159e-13
7.48815e-13
5.93217e-13
1.15726e-12
8.36338e-13
1.34689e-12
8.50926e-13
1.09405e-12
8.801e-13
1.18643e-12
1.28854e-12
2.16378e-12
4.74573e-12
1.04688e-11
2.3505e-11
5.33263e-11
1.20428e-10
2.71922e-10
6.10425e-10
1.36019e-09
3.00423e-09
6.57439e-09
1.42525e-08
3.06015e-08
6.50648e-08
1.36969e-07
2.85425e-07
5.88673e-07
1.2014e-06
2.42572e-06
4.84445e-06
9.56759e-06
1.86816e-05
3.60556e-05
6.87651e-05
0.000129563
0.000241096
0.000442958
0.000803263
0.00143724
0.00253641
0.00441327
0.00756788
0.0127841
0.021264
0.0348086
0.0560489
0.0887257
0.138004
0.210786
0.315978
0.464627
0.669839
0.946406
1.31008
1.77649
2.35987
3.07165
3.91928
4.90542
6.02773
7.27918
8.64919
10.1253
11.6946
13.3448
15.0648
16.845
18.6768
20.5534
22.4689
24.4182
26.3975
28.4034
30.433
32.484
34.5545
36.6428
38.7474
40.8672
43.0011
45.1482
47.3077
49.4787
51.6606
53.8529
56.0548
58.266
60.4859
62.7139
64.9498
67.193
69.4431
71.6998
73.9626
76.2314
78.5056
80.785
83.0693
85.3582
87.6515
89.9489
92.25
94.5548
96.8631
99.1745
101.489
103.806
106.126
108.448
110.773
113.1
115.429
117.761
120.093
122.428
124.765
127.102
129.442
131.783
134.125
136.468
138.812
141.158
143.504
145.852
148.2
150.549
152.899
155.25
157.601
159.953
162.305
164.658
167.011
169.365
171.719
174.073
176.428
178.782
181.137
183.492
185.847
188.202
190.557
192.911
195.266
197.62
199.974
202.328
204.681
207.033
209.385
211.736
214.087
216.436
218.785
221.133
223.479
225.824
228.167
230.509
232.85
235.188
237.524
239.858
242.189
244.518
246.843
249.165
251.483
253.796
256.105
258.409
260.707
262.998
265.282
267.558
269.824
272.08
274.324
276.554
278.768
280.964
283.14
285.291
287.414
289.504
291.555
293.561
295.513
297.401
299.212
300.931
302.54
304.018
305.336
306.464
307.365
307.994
308.304
308.241
307.753
306.789
305.313
303.315
300.819
297.905
294.713
291.445
288.351
285.71
283.776
282.742
282.693
283.594
285.303
287.595
290.205
292.862
295.315
297.349
298.797
299.551
299.566
298.864
297.54
295.757
293.734
291.726
289.992
288.753
288.155
288.242
288.949
290.122
291.552
293.008
294.275
295.18
295.617
295.553
295.038
294.188
293.168
292.165
291.354
290.863
290.755
291.013
291.552
292.24
292.93
293.486
293.812
293.865
293.662
293.273
292.801
292.356
292.037
291.901
291.959
292.174
292.476
292.781
293.013
293.123
293.098
292.961
292.764
292.568
292.426
292.372
292.408
292.512
292.642
292.755
292.818
292.818
292.765
292.686
292.613
292.574
292.581
292.632
292.711
292.797
292.872
292.929
292.97
293.002
293.031
293.049
293.039
292.984
292.881
292.74
292.584
292.436
292.311
292.218
292.166
292.163
292.208
292.294
292.4
292.508
292.599
292.664
292.701
292.714
292.709
292.695
292.679
292.665
292.656
292.652
292.651
292.653
292.655
292.657
292.658
292.659
292.66
292.66
292.66
292.66
292.66
292.66
292.66
292.661
292.661
292.661
292.662
292.662
292.662
292.663
292.663
292.663
292.664
292.664
292.665
292.665
292.666
292.666
292.667
292.667
292.668
292.668
292.669
292.67
292.67
292.671
292.672
292.673
292.673
292.674
292.675
292.676
292.677
292.678
292.679
292.679
292.68
292.681
292.682
292.679
292.676
292.681
292.674
292.647
292.657
292.684
292.568
292.462
292.695
292.569
291.592
292.041
293.548
289.563
285.293
294.682
283.855
199.184
76.1878
16.151
2.82255
0.469395
0.077404
0.0127968
0.00211675
0.000350158
5.79239e-05
9.58185e-06
1.58503e-06
2.62194e-07
4.33702e-08
7.17268e-09
1.18552e-09
1.9564e-10
3.16934e-11
4.7117e-12
2.1881e-13
8.75239e-13
1.17185e-12
8.41202e-13
8.41202e-13
1.08919e-12
1.17671e-12
1.08432e-12
9.48176e-13
1.20102e-12
9.968e-13
1.41011e-12
9.48176e-13
1.08919e-12
1.2302e-12
1.50736e-12
1.62405e-12
1.73589e-12
1.41011e-12
1.41983e-12
1.41011e-12
1.63378e-12
2.0714e-12
2.01305e-12
1.87204e-12
2.09085e-12
2.21727e-12
2.1103e-12
2.227e-12
2.21727e-12
2.3826e-12
1.58516e-12
1.86718e-12
1.61433e-12
1.66782e-12
1.06001e-12
1.39066e-12
1.31286e-12
1.68727e-12
1.73103e-12
1.66782e-12
1.96443e-12
1.24478e-12
1.48791e-12
1.27882e-12
1.63864e-12
1.59974e-12
1.51222e-12
1.26423e-12
1.3858e-12
1.55112e-12
1.62892e-12
1.60947e-12
1.6824e-12
1.54626e-12
1.49763e-12
1.58029e-12
1.29341e-12
1.51708e-12
1.51708e-12
1.69699e-12
1.74075e-12
1.66295e-12
1.7213e-12
1.50736e-12
1.33717e-12
1.22533e-12
7.9744e-13
1.00652e-12
6.02942e-13
7.05054e-13
5.00831e-13
1.7991e-13
1.7991e-13
1.89635e-13
2.59504e-26
5.20281e-13
4.08445e-13
3.25783e-13
1.65323e-13
5.05694e-13
4.47344e-13
5.00831e-13
1.02111e-13
2.3826e-13
1.21561e-13
1.94498e-14
1.9936e-13
3.01471e-13
4.3762e-13
3.11196e-13
4.1817e-13
2.28535e-13
4.71657e-13
4.1817e-13
6.46704e-13
4.27895e-13
3.69545e-13
5.7863e-13
4.86244e-13
4.76519e-13
3.93858e-13
3.54958e-13
1.9936e-13
6.80741e-14
4.86244e-13
3.35508e-13
6.32117e-13
4.57069e-13
1.65323e-13
2.47984e-13
3.74408e-13
6.02942e-13
3.54958e-13
4.86244e-13
2.47984e-13
1.11836e-13
1.21561e-13
2.43122e-14
2.1881e-13
4.86244e-15
5.34868e-14
4.32757e-13
1.84773e-13
1.9936e-13
6.80741e-14
3.06334e-13
4.08445e-13
8.46064e-13
3.9872e-13
5.83493e-13
3.88995e-14
2.47984e-13
1.84773e-13
7.7799e-14
3.06334e-13
5.88355e-13
2.23672e-13
7.29366e-14
1.31286e-13
1.16699e-13
3.35508e-13
1.6046e-13
2.77159e-13
4.76519e-13
4.66794e-13
3.84133e-13
7.24503e-13
8.1689e-13
1.08919e-12
8.02302e-13
7.82853e-13
5.73768e-13
7.7799e-13
4.1817e-13
2.57709e-13
4.32757e-13
5.88355e-13
7.43953e-13
7.87715e-13
4.42482e-13
7.29366e-13
5.00831e-13
7.92578e-13
4.47344e-13
5.68905e-13
2.86884e-13
6.3698e-13
4.61932e-13
5.00831e-13
8.1689e-13
7.9744e-13
9.23863e-13
9.53038e-13
5.7863e-13
7.05054e-13
5.64043e-13
1.05029e-12
1.15726e-12
1.14754e-12
1.01139e-12
1.11836e-12
6.71017e-13
8.36339e-13
7.48816e-13
4.86244e-13
4.23032e-13
5.05694e-13
6.12667e-13
5.68905e-13
9.14139e-13
1.01139e-12
1.17185e-12
1.26423e-12
1.11836e-12
1.43442e-12
1.13295e-12
1.0746e-12
9.28726e-13
7.82853e-13
8.50927e-13
6.71017e-13
7.34228e-13
6.12667e-13
4.47344e-13
3.9872e-13
4.23032e-13
4.3762e-13
3.11196e-13
3.06334e-13
2.77159e-13
2.96609e-13
4.23032e-13
3.16059e-13
5.15419e-13
3.69545e-13
2.13947e-13
4.66794e-13
5.7863e-13
8.41202e-13
1.10864e-12
1.16699e-12
9.67625e-13
1.14267e-12
1.16212e-12
1.05029e-12
1.04542e-12
1.25451e-12
1.1524e-12
2.01305e-12
2.01305e-12
2.49929e-12
2.13947e-12
2.01305e-12
1.48791e-12
1.04542e-12
1.18157e-12
1.0357e-12
9.14139e-13
5.7863e-13
7.24503e-13
6.32117e-13
7.43953e-13
9.43313e-13
9.14139e-13
8.80101e-13
8.75239e-13
8.31477e-13
6.85604e-13
3.84133e-13
7.24503e-13
8.80101e-13
1.18644e-12
8.75239e-13
1.25937e-12
8.70377e-13
6.85604e-13
6.66154e-13
8.1689e-13
1.16212e-12
6.71017e-13
1.25451e-12
8.50927e-13
1.25937e-12
4.76519e-13
8.26615e-13
3.20921e-13
7.48816e-13
7.48816e-13
9.28726e-13
6.46704e-13
9.33588e-13
7.05054e-13
9.23863e-13
9.72488e-13
1.09891e-12
8.02302e-13
1.02111e-12
7.68265e-13
1.50249e-12
1.35662e-12
1.49277e-12
1.33717e-12
1.52194e-12
1.19616e-12
1.06001e-12
1.31772e-12
1.63378e-12
1.46846e-12
1.20102e-12
)
;

boundaryField
{
    sides
    {
        type            calculated;
        value           nonuniform List<scalar> 2(1.20102e-12 2.11516e-12);
    }
    empty
    {
        type            empty;
    }
}


// ************************************************************************* //
