/*--------------------------------*- C++ -*----------------------------------*\
  =========                 |
  \\      /  F ield         | OpenFOAM: The Open Source CFD Toolbox
   \\    /   O peration     | Website:  https://openfoam.org
    \\  /    A nd           | Version:  13
     \\/     M anipulation  |
\*---------------------------------------------------------------------------*/
FoamFile
{
    format      ascii;
    class       volScalarField;
    location    "0.0035";
    object      p_0;
}
// * * * * * * * * * * * * * * * * * * * * * * * * * * * * * * * * * * * * * //

dimensions      [1 -1 -2 0 0 0 0];

internalField   nonuniform List<scalar> 
1000
(
100000
100000
100000
100000
100000
100000
100000
100000
100000
100000
100000
100000
100000
100000
100000
100000
100000
100000
100000
100000
100000
100000
100000
100000
100000
100000
100000
100000
100000
100000
100000
100000
100000
100000
100000
100000
100000
100000
100000
100000
100000
100000
100000
100000
100000
100000
100000
100000
100000
100000
100000
100000
100000
100000
100000
100000
100000
100000
100000
100000
100000
100000
100000
100000
100000
100000
100000
100000
100000
100000
100000
100000
100000
100000
100000
100000
100000
100000
100000
100000
100000
100000
100000
100000
100000
100000
100000
100000
100000
100000
100000
100000
100000
100000
100000
100000
100000
100000
100000
100000
100000
100000
100000
100000
100000
100000
100000
100000
100000
100000
100000
100000
100000
100000
100000
100000
100000
100000
100000
100000
100000
100000
100000
100000
100000
100000
100000
100000
100000
100000
100000
100000
100000
100000
100000
100000
100000
100000
100000
100000
100000
100000
100000
100000
100000
100000
100000
100000
100000
100000
100000
100000
100000
100000
100000
100000
100000
100000
100000
100000
100000
100000
100000
100000
100000
100000
100000
100000
100000
100000
100000
100000
100000
100000
100000
100000
100000
100000
100000
100000
100000
100000
100000
100000
100000
100000
100000
100000
100000
100000
100000
100000
100000
100000
100000
100000
100000
100000
100000
100000
100000
100000
100000
100000
100000
100000
100000
100000
100000
100000
100000
100000
100000
100000
100000
100000
100000
100000
100000
100000
100000
100000
100000
100000
100000
100000
100000
100000
100000
100000
100000
100000
100000
100000
100000
100000
100000
100000
100000
100000
100000
100000
100000
100000
100000
100000
100000
100000
100000
100000
100000
100000
100000
100000
100000
100000
100000
100000
100000
100000
100000
100000
100000
100000
100000
100000
100000
100000
100000
100000
100000
100000
100000
100000
100000
100000
100000
100000
100000
100000
100000
100000
100000
100000
100000
100000
100000
100000
100000
100000
100000
100000
100000
100000
100000
100000
100000
100000
100000
100000
100000
100000
100000
100000
100000
100000
100000
100000
100000
100000
100000
100000
100000
100000
100000
100000
100000
100000
100000
100000
100000
100000
100000
100000
100000
100000
100000
100000
100000
100000
100000
100000
100000
100000
100000
100000
100000
100000
100000
100000
100000
100000
99999.9
99999.9
99999.8
99999.6
99999.3
99998.7
99997.8
99996.2
99993.6
99989.5
99982.9
99972.7
99957.2
99934
99900.1
99851.7
99784.3
99692.3
99570.2
99411.9
99211.9
98965.7
98670.2
98323.8
97927.3
97483.2
96995.5
96469.4
95910.2
95323
94712.6
94083
93437.7
92779.9
92111.9
91435.8
90753.3
90065.9
89374.6
88680.5
87984.4
87287
86588.9
85890.5
85192.3
84494.7
83798
83102.5
82408.5
81716.1
81025.7
80337.4
79651.3
78967.8
78286.8
77608.7
76933.5
76261.3
75592.3
74926.5
74264.2
73605.3
72950
72298.3
71650.4
71006.3
70366.1
69729.7
69097.4
68469
67844.7
67224.6
66608.5
65996.6
65388.9
64785.4
64186.2
63591.1
63000.3
62413.8
61831.5
61253.5
60679.8
60110.3
59545.1
58984.2
58427.5
57875
57326.8
56782.8
56243.1
55707.5
55176.2
54649
54126.1
53607.2
53092.6
52582
52075.6
51573.3
51075
50580.9
50090.7
49604.7
49122.6
48644.5
48170.5
47700.3
47234.2
46772
46313.7
45859.3
45408.7
44962.1
44519.3
44080.4
43645.2
43213.9
42786.4
42362.7
41942.7
41526.5
41114.1
40705.4
40300.5
39899.2
39501.7
39108
38717.9
38331.6
37949
37570.1
37195
36823.7
36456.2
36092.5
35732.6
35376.6
35024.6
34676.6
34332.7
33993
33657.5
33326.5
33000
32678.2
32361.5
32049.9
31744
31444
31150.3
30863.7
30584.7
30314.2
30053.1
29802.8
29564.6
29340.4
29132.5
28943.4
28776.3
28635.1
28524.3
28449
28415.2
28429
28497
28625
28817.1
29074.7
29394.1
29765.3
30170.4
30584
30974.1
31305.9
31546.8
31673.3
31674.9
31557.3
31339.8
31051.7
30727
30399.4
30099.5
29853.1
29679.5
29591
29592.2
29679.4
29840.7
30055.9
30298.5
30537.9
30743.5
30888.9
30957.4
30944.5
30858.8
30719.3
30551.4
30382.1
30236.2
30133.2
30084.9
30094.1
30154.5
30252.4
30368.5
30481.7
30572.4
30626.3
30636.9
30606.8
30546
30469.4
30393.6
30333.2
30298.6
30293.9
30316.8
30359.3
30410.3
30457.6
30491.1
30504.8
30498.1
30475
30443.3
30411.7
30388
30377.2
30380.2
30394.4
30414.5
30434.2
30448.2
30453.4
30449.6
30439.3
30426.7
30415.9
30410
30410.1
30415.2
30422.6
30429.4
30433.4
30433.6
30430.6
30426.3
30422.6
30421.1
30421.8
30424
30426
30426.8
30426.3
30425
30424.2
30424.2
30424.9
30425.7
30426.1
30426.1
30426.2
30426.4
30426.7
30427
30427
30426.9
30426.7
30426.6
30426.5
30426.4
30426.4
30426.4
30426.4
30426.4
30426.5
30426.5
30426.6
30426.6
30426.6
30426.7
30426.7
30426.7
30426.7
30426.7
30426.8
30426.8
30426.8
30426.9
30426.9
30426.9
30427
30427
30427.1
30427.1
30427.2
30427.2
30427.3
30427.3
30427.4
30427.4
30427.5
30427.5
30427.6
30427.6
30427.7
30427.7
30427.8
30427.8
30427.9
30428
30428.1
30428.1
30428.2
30428.3
30428.4
30428.5
30428.5
30428.7
30428.7
30428.8
30428.9
30429.1
30429
30429.1
30429.3
30429.3
30428.8
30429.4
30430.4
30427.3
30425.1
30432.8
30429
30403.3
30422.8
30468.1
30359.2
30273
30594.2
30517.4
29480.1
30179.7
32298.1
26451.9
16002.4
11264.8
10217.7
10035.6
10005.9
10001
10000.2
10000
10000
10000
10000
10000
10000
10000
10000
10000
10000
10000
10000
10000
10000
10000
10000
10000
10000
10000
10000
10000
10000
10000
10000
10000
10000
10000
10000
10000
10000
10000
10000
10000
10000
10000
10000
10000
10000
10000
10000
10000
10000
10000
10000
10000
10000
10000
10000
10000
10000
10000
10000
10000
10000
10000
10000
10000
10000
10000
10000
10000
10000
10000
10000
10000
10000
10000
10000
10000
10000
10000
10000
10000
10000
10000
10000
10000
10000
10000
10000
10000
10000
10000
10000
10000
10000
10000
10000
10000
10000
10000
10000
10000
10000
10000
10000
10000
10000
10000
10000
10000
10000
10000
10000
10000
10000
10000
10000
10000
10000
10000
10000
10000
10000
10000
10000
10000
10000
10000
10000
10000
10000
10000
10000
10000
10000
10000
10000
10000
10000
10000
10000
10000
10000
10000
10000
10000
10000
10000
10000
10000
10000
10000
10000
10000
10000
10000
10000
10000
10000
10000
10000
10000
10000
10000
10000
10000
10000
10000
10000
10000
10000
10000
10000
10000
10000
10000
10000
10000
10000
10000
10000
10000
10000
10000
10000
10000
10000
10000
10000
10000
10000
10000
10000
10000
10000
10000
10000
10000
10000
10000
10000
10000
10000
10000
10000
10000
10000
10000
10000
10000
10000
10000
10000
10000
10000
10000
10000
10000
10000
10000
10000
10000
10000
10000
10000
10000
10000
10000
10000
10000
10000
10000
10000
10000
10000
10000
10000
10000
10000
10000
10000
10000
10000
10000
10000
10000
10000
10000
10000
10000
10000
10000
10000
10000
10000
10000
10000
10000
10000
10000
10000
10000
10000
10000
10000
10000
10000
10000
10000
10000
10000
10000
10000
10000
10000
10000
10000
10000
10000
10000
10000
10000
10000
10000
10000
10000
10000
10000
10000
10000
10000
10000
10000
10000
10000
10000
10000
10000
10000
10000
10000
10000
10000
10000
10000
10000
10000
10000
10000
10000
10000
)
;

boundaryField
{
    sides
    {
        type            calculated;
        value           nonuniform List<scalar> 2(10000 100000);
    }
    empty
    {
        type            empty;
    }
}


// ************************************************************************* //
