/*--------------------------------*- C++ -*----------------------------------*\
  =========                 |
  \\      /  F ield         | OpenFOAM: The Open Source CFD Toolbox
   \\    /   O peration     | Website:  https://openfoam.org
    \\  /    A nd           | Version:  13
     \\/     M anipulation  |
\*---------------------------------------------------------------------------*/
FoamFile
{
    format      ascii;
    class       surfaceScalarField;
    location    "0.0035";
    object      phi_0;
}
// * * * * * * * * * * * * * * * * * * * * * * * * * * * * * * * * * * * * * //

dimensions      [1 0 -1 0 0 0 0];

internalField   nonuniform List<scalar> 
999
(
-8.19545e-12
-7.41261e-12
-7.22869e-12
-8.31626e-12
-8.27946e-12
-8.15869e-12
-9.05241e-12
-8.17592e-12
-8.54666e-12
-8.48244e-12
-9.59854e-12
-8.88205e-12
-8.01724e-12
-7.59239e-12
-7.33794e-12
-6.64456e-12
-6.92857e-12
-6.37088e-12
-6.59267e-12
-6.83219e-12
-7.32668e-12
-7.57047e-12
-7.48557e-12
-6.48516e-12
-7.27948e-12
-6.63147e-12
-6.93556e-12
-6.1146e-12
-6.31036e-12
-6.2151e-12
-7.58919e-12
-6.27702e-12
-4.96045e-12
-5.19491e-12
-4.3156e-12
-3.51319e-12
-3.99915e-12
-3.9029e-12
-4.64946e-12
-4.84868e-12
-5.30872e-12
-4.63112e-12
-3.8203e-12
-3.80145e-12
-3.19391e-12
-3.94892e-12
-4.09847e-12
-4.24477e-12
-4.31347e-12
-5.40659e-12
-4.98911e-12
-4.61756e-12
-4.68656e-12
-4.09168e-12
-4.63965e-12
-5.85647e-12
-5.39818e-12
-5.00058e-12
-4.24332e-12
-4.80723e-12
-4.415e-12
-4.74075e-12
-4.97363e-12
-5.12399e-12
-5.23606e-12
-5.76316e-12
-4.79112e-12
-5.75131e-12
-5.76538e-12
-5.08731e-12
-5.26301e-12
-4.06512e-12
-4.22968e-12
-4.5602e-12
-4.86378e-12
-4.71291e-12
-4.02985e-12
-3.78977e-12
-2.06954e-12
-1.31778e-12
-1.51202e-12
-1.49795e-12
-4.4586e-13
-1.54352e-13
-1.00994e-12
-5.65726e-13
-6.75663e-13
-5.86797e-13
-1.57454e-12
-1.8159e-12
-2.07653e-12
-1.92097e-12
-1.1284e-12
-1.34584e-12
-1.04005e-12
-2.20012e-12
-2.54219e-12
-3.02713e-12
-4.76893e-12
-4.52971e-12
-3.36783e-12
-2.61328e-12
-1.30164e-12
-5.99727e-13
6.09142e-13
8.68776e-13
1.2144e-12
1.35098e-12
7.44489e-13
1.64002e-12
2.74161e-12
1.65505e-12
1.86042e-12
1.81027e-12
1.21179e-12
7.79407e-13
1.00627e-12
9.20136e-13
9.3139e-13
8.88622e-13
-1.31557e-13
-5.28561e-13
-7.51946e-13
-9.36765e-13
-1.74236e-12
-1.8586e-12
-2.11572e-12
-1.7662e-12
-1.15013e-12
-1.83018e-12
-1.72739e-12
-1.55827e-12
-4.83791e-13
9.22145e-14
2.87419e-13
5.70651e-13
1.40328e-12
1.63015e-12
1.19557e-12
9.96105e-13
1.22141e-12
2.17649e-12
2.37913e-12
2.82253e-12
2.75627e-12
2.76678e-12
3.8935e-12
4.1803e-12
3.70145e-12
3.37129e-12
3.12993e-12
2.30732e-12
2.04718e-12
1.29819e-12
4.98016e-13
9.80461e-13
3.18213e-13
1.16225e-12
6.7946e-13
-7.48592e-13
-9.39e-13
-1.47833e-12
-2.9105e-12
-3.29847e-12
-3.30753e-12
-3.4771e-12
-2.0547e-12
-2.53984e-12
-2.52859e-12
-2.7882e-12
-2.38486e-12
-1.70201e-12
-1.14567e-12
-1.64408e-12
-2.31066e-12
-2.48626e-12
-3.4249e-12
-2.12627e-12
-2.1206e-12
-1.24396e-12
-1.28475e-12
-1.49048e-12
-1.07757e-12
-1.92383e-13
4.34454e-13
2.4925e-13
-8.72598e-16
-2.5415e-13
-7.53587e-13
-1.27364e-12
-1.70732e-12
-5.43744e-13
-8.05334e-13
-8.37234e-13
1.79125e-14
3.0213e-13
7.09159e-13
7.85721e-14
1.44181e-13
5.10865e-13
-3.93581e-14
-1.77481e-13
-1.36772e-12
-2.1454e-12
-2.02029e-12
-2.65358e-12
-2.3981e-12
-3.29604e-12
-3.4551e-12
-3.17832e-12
-3.62637e-12
-2.72368e-12
-2.93904e-12
-2.35995e-12
-1.39973e-12
-1.61841e-12
-1.35805e-12
-2.08279e-12
-8.0951e-13
-3.82374e-13
1.57703e-13
7.03535e-13
7.23555e-13
4.82706e-13
4.9891e-13
2.41644e-13
-9.11637e-13
-1.23722e-12
-2.86355e-12
-3.42806e-12
-3.54733e-12
-3.2048e-12
-2.8692e-12
-2.85042e-12
-3.93183e-12
-3.05828e-12
-1.84199e-12
-6.25531e-13
-8.91923e-13
7.24636e-13
1.82666e-12
2.63124e-12
2.09506e-12
1.36264e-12
6.75959e-13
-1.3929e-13
-1.0803e-12
-1.74031e-12
-1.79442e-12
-2.66599e-12
-3.30024e-12
-2.62991e-12
-1.67839e-12
-1.79662e-12
-1.34424e-12
1.70424e-13
1.5605e-12
2.2335e-12
2.26774e-12
2.20162e-12
2.10781e-12
1.30669e-12
2.84091e-13
8.31759e-13
1.06111e-12
2.49102e-13
4.54622e-13
1.63474e-13
-2.53084e-14
-1.10657e-12
-3.85129e-13
-8.19382e-14
5.41358e-13
1.53848e-12
2.38966e-12
2.95611e-12
3.18547e-12
3.15227e-12
2.93882e-12
3.28399e-12
3.23924e-12
3.30094e-12
3.76571e-12
3.08977e-12
2.59151e-12
2.3064e-12
2.6088e-12
2.33702e-12
3.05338e-12
3.02931e-12
3.99292e-12
3.30609e-12
3.50209e-12
3.26545e-12
2.4354e-12
2.49878e-12
2.24683e-12
1.67308e-12
1.54136e-12
2.39674e-12
2.45616e-12
1.93563e-12
1.78568e-12
2.24697e-12
3.28897e-12
2.02615e-12
1.64139e-12
2.78008e-12
2.89064e-12
4.06673e-12
4.50086e-12
4.51668e-12
3.644e-12
3.83225e-12
4.49831e-12
4.49684e-12
4.85305e-12
9.15946e-12
1.98407e-11
4.33152e-11
9.75081e-11
2.19748e-10
4.97906e-10
1.12466e-09
2.52794e-09
5.63572e-09
1.24534e-08
2.72645e-08
5.91282e-08
1.27001e-07
2.70123e-07
5.68824e-07
1.18571e-06
2.44613e-06
4.99346e-06
1.00845e-05
2.01439e-05
3.97902e-05
7.77052e-05
0.000149989
0.000286082
0.000539046
0.00100309
0.00184291
0.00334176
0.00597867
0.0105495
0.0183524
0.0314633
0.0531342
0.0883482
0.144563
0.23266
0.368086
0.572123
0.873143
1.30762
1.92058
2.7651
3.90052
5.38918
7.29171
9.6614
12.5384
15.9451
19.8826
24.331
29.2509
34.5886
40.2841
46.2777
52.5142
58.9444
65.5256
72.2219
79.0033
85.8448
92.7259
99.6295
106.542
113.451
120.347
127.223
134.072
140.887
147.664
154.399
161.088
167.728
174.315
180.849
187.326
193.744
200.102
206.398
212.629
218.796
224.897
230.93
236.894
242.789
248.614
254.368
260.049
265.658
271.195
276.657
282.046
287.361
292.601
297.767
302.858
307.875
312.816
317.682
322.474
327.191
331.834
336.402
340.896
345.317
349.663
353.937
358.137
362.265
366.32
370.304
374.216
378.056
381.827
385.526
389.156
392.717
396.209
399.632
402.988
406.276
409.497
412.651
415.74
418.763
421.721
424.615
427.444
430.211
432.914
435.555
438.134
440.652
443.109
445.506
447.843
450.121
452.34
454.501
456.604
458.651
460.64
462.574
464.452
466.275
468.043
469.758
471.419
473.027
474.583
476.087
477.539
478.941
480.292
481.594
482.846
484.049
485.205
486.312
487.372
488.385
489.352
490.273
491.149
491.98
492.767
493.511
494.211
494.868
495.483
496.056
496.588
497.08
497.531
497.942
498.315
498.649
498.945
499.205
499.427
499.614
499.765
499.883
499.967
500.02
500.042
500.036
500.003
499.947
499.87
499.777
499.673
499.564
499.456
499.359
499.279
499.225
499.201
499.211
499.253
499.319
499.397
499.472
499.527
499.547
499.523
499.454
499.344
499.204
499.048
498.894
498.759
498.661
498.615
498.63
498.711
498.851
499.037
499.247
499.451
499.62
499.726
499.75
499.688
499.551
499.358
499.141
498.931
498.76
498.652
498.622
498.672
498.791
498.956
499.136
499.297
499.408
499.448
499.412
499.308
499.159
498.994
498.844
498.737
498.688
498.702
498.768
498.864
498.965
499.042
499.076
499.057
498.99
498.888
498.775
498.673
498.6
498.564
498.564
498.585
498.611
498.622
498.603
498.55
498.465
498.36
498.248
498.143
498.05
497.971
497.896
497.807
497.673
497.439
497.01
496.229
494.856
492.555
488.905
483.447
475.763
465.574
452.846
437.841
421.117
403.45
385.727
368.822
353.487
340.288
329.563
321.42
315.752
312.282
310.604
310.242
310.716
311.595
312.542
313.344
313.901
314.205
314.307
314.281
314.195
314.1
314.025
313.981
313.963
313.963
313.972
313.983
313.992
313.998
314.001
314.001
314.001
314.001
314.002
314.003
314.004
314.006
314.008
314.011
314.013
314.016
314.018
314.02
314.022
314.024
314.026
314.027
314.029
314.031
314.032
314.034
314.036
314.037
314.039
314.04
314.042
314.044
314.045
314.047
314.049
314.05
314.052
314.054
314.056
314.057
314.059
314.062
314.063
314.064
314.067
314.071
314.062
314.062
314.086
314.067
314.001
314.081
314.174
313.813
313.694
314.63
314.036
311.389
314.369
318.941
305.347
298.873
341.238
318.755
155.522
41.3131
7.60212
1.21858
0.200308
0.0331436
0.00548445
0.000907341
0.000150098
2.48296e-05
4.10733e-06
6.79434e-07
1.12391e-07
1.85909e-08
3.0746e-09
5.08055e-10
8.37614e-11
1.35526e-11
2.0373e-12
-8.9302e-14
-5.61747e-13
-5.40648e-13
-4.85554e-13
-4.4119e-13
-4.56073e-13
-6.58496e-13
-5.18844e-13
-4.84651e-13
-5.15216e-13
-5.21427e-13
-5.8333e-13
-6.39127e-13
-4.71552e-13
-5.4176e-13
-6.98337e-13
-7.58184e-13
-9.21158e-13
-7.51459e-13
-7.14621e-13
-6.70301e-13
-7.71713e-13
-8.95712e-13
-1.00633e-12
-9.41158e-13
-1.01041e-12
-1.02134e-12
-1.07583e-12
-1.06442e-12
-1.11612e-12
-1.15587e-12
-1.0435e-12
-9.05892e-13
-8.75402e-13
-8.78011e-13
-6.4805e-13
-5.72056e-13
-6.51305e-13
-7.95045e-13
-7.91868e-13
-8.50355e-13
-9.63467e-13
-7.79877e-13
-6.9155e-13
-6.96663e-13
-7.32579e-13
-8.45739e-13
-7.50108e-13
-6.93557e-13
-6.47961e-13
-6.91276e-13
-7.9803e-13
-8.14031e-13
-8.8843e-13
-7.38729e-13
-7.86569e-13
-7.34064e-13
-6.97274e-13
-7.06488e-13
-7.54498e-13
-7.88519e-13
-8.67339e-13
-8.32937e-13
-8.66006e-13
-8.17982e-13
-7.47052e-13
-6.27473e-13
-5.66244e-13
-3.82777e-13
-4.1621e-13
-3.08396e-13
-2.33744e-13
-1.46295e-13
-5.71581e-14
5.70207e-14
8.06365e-14
1.79319e-13
2.62029e-13
2.59663e-13
1.09767e-13
1.89549e-13
2.52735e-13
2.06891e-13
1.60772e-13
4.71959e-14
5.34062e-14
-1.69627e-15
-2.54572e-14
-1.45945e-13
-1.8723e-13
-1.76675e-13
-2.11945e-13
-1.5096e-13
-1.77272e-13
-2.41727e-13
-2.56744e-13
-3.05095e-13
-1.61569e-13
-2.56097e-13
-3.03262e-13
-2.29695e-13
-2.16012e-13
-2.12591e-13
-1.08203e-13
-2.07935e-14
1.69296e-13
1.90695e-13
2.31857e-13
3.04834e-13
2.08291e-13
9.97291e-14
1.93739e-13
1.73256e-13
2.67455e-13
1.42646e-13
1.95563e-13
8.25412e-14
1.16597e-14
-4.09524e-14
9.02222e-14
6.09331e-14
-9.077e-16
-8.93179e-14
-1.55876e-13
-8.65142e-14
-7.85272e-14
-8.19689e-14
-1.53413e-13
-3.30376e-13
-3.16547e-13
-2.387e-13
-1.14418e-13
-4.32877e-14
-1.19472e-13
-3.93895e-14
-1.18209e-13
-2.10093e-13
-2.8497e-13
-8.31298e-14
5.02435e-15
3.90797e-14
1.43385e-13
6.84368e-14
-6.98349e-14
-2.03834e-13
-2.39564e-13
-1.61604e-13
-2.97622e-13
-3.42209e-13
-5.45844e-13
-4.6643e-13
-3.66399e-13
-3.25654e-13
-3.70231e-13
-2.77166e-13
-2.08679e-13
-1.3487e-13
-2.51937e-13
-3.33025e-13
-4.07402e-13
-3.49185e-13
-2.49736e-13
-3.02902e-13
-3.62838e-13
-3.32892e-13
-2.10315e-13
-2.66645e-13
-2.23719e-13
-3.08944e-13
-2.15184e-13
-3.53092e-13
-4.55976e-13
-4.03039e-13
-4.6546e-13
-4.33778e-13
-2.67265e-13
-3.11009e-13
-3.59325e-13
-5.28616e-13
-5.60821e-13
-5.2698e-13
-4.72131e-13
-4.27704e-13
-3.58399e-13
-3.7343e-13
-2.95438e-13
-2.61851e-13
-2.14443e-13
-2.9748e-13
-2.98729e-13
-4.04643e-13
-4.78582e-13
-5.98833e-13
-6.57028e-13
-5.75266e-13
-6.70871e-13
-6.3596e-13
-5.3332e-13
-5.2847e-13
-4.00372e-13
-3.99955e-13
-3.85723e-13
-3.66537e-13
-3.50758e-13
-2.66861e-13
-1.63881e-13
-2.34249e-13
-1.92476e-13
-2.41646e-13
-1.19335e-13
-1.68094e-13
-1.31047e-13
-2.08352e-13
-2.04383e-13
-1.78287e-13
-2.72053e-13
-1.28305e-13
-2.47583e-13
-2.78313e-13
-3.50789e-13
-5.37639e-13
-5.62385e-13
-5.66012e-13
-5.13143e-13
-5.62021e-13
-6.08677e-13
-4.91778e-13
-5.93627e-13
-6.0939e-13
-7.46431e-13
-1.01842e-12
-1.16364e-12
-1.17785e-12
-1.04742e-12
-8.20555e-13
-5.44536e-13
-4.98621e-13
-5.79523e-13
-4.76543e-13
-3.69886e-13
-2.98269e-13
-3.65846e-13
-3.43892e-13
-4.14264e-13
-5.00092e-13
-5.0372e-13
-3.98219e-13
-4.04022e-13
-3.82237e-13
-2.46519e-13
-2.45e-13
-4.02915e-13
-5.01845e-13
-5.59204e-13
-4.70824e-13
-4.89247e-13
-4.49481e-13
-2.72239e-13
-4.41299e-13
-4.66071e-13
-4.84472e-13
-4.4821e-13
-5.37715e-13
-5.2644e-13
-4.47226e-13
-2.99358e-13
-2.73851e-13
-2.50697e-13
-3.61642e-13
-4.47811e-13
-3.79081e-13
-3.61513e-13
-4.06741e-13
-3.95797e-13
-4.84095e-13
-5.71177e-13
-4.45388e-13
-4.63416e-13
-4.00717e-13
-5.90336e-13
-7.10491e-13
-7.35019e-13
-7.29828e-13
-7.62094e-13
-7.21841e-13
-5.00934e-13
-5.87913e-13
-7.10642e-13
-7.77186e-13
-7.14265e-13
)
;

boundaryField
{
    sides
    {
        type            calculated;
        value           nonuniform List<scalar> 2(-5.74801e-13 8.3819e-12);
    }
    empty
    {
        type            empty;
    }
}


// ************************************************************************* //
