/*--------------------------------*- C++ -*----------------------------------*\
  =========                 |
  \\      /  F ield         | OpenFOAM: The Open Source CFD Toolbox
   \\    /   O peration     | Website:  https://openfoam.org
    \\  /    A nd           | Version:  13
     \\/     M anipulation  |
\*---------------------------------------------------------------------------*/
FoamFile
{
    format      ascii;
    class       volScalarField;
    location    "0.0035";
    object      rho;
}
// * * * * * * * * * * * * * * * * * * * * * * * * * * * * * * * * * * * * * //

dimensions      [1 -3 0 0 0 0 0];

internalField   nonuniform List<scalar> 
1000
(
0.997575
0.997575
0.997575
0.997575
0.997575
0.997575
0.997575
0.997575
0.997575
0.997575
0.997575
0.997575
0.997575
0.997575
0.997575
0.997575
0.997575
0.997575
0.997575
0.997575
0.997575
0.997575
0.997575
0.997575
0.997575
0.997575
0.997575
0.997575
0.997575
0.997575
0.997575
0.997575
0.997575
0.997575
0.997575
0.997575
0.997575
0.997575
0.997575
0.997575
0.997575
0.997575
0.997575
0.997575
0.997575
0.997575
0.997575
0.997575
0.997575
0.997575
0.997575
0.997575
0.997575
0.997575
0.997575
0.997575
0.997575
0.997575
0.997575
0.997575
0.997575
0.997575
0.997575
0.997575
0.997575
0.997575
0.997575
0.997575
0.997575
0.997575
0.997575
0.997575
0.997575
0.997575
0.997575
0.997575
0.997575
0.997575
0.997575
0.997575
0.997575
0.997575
0.997575
0.997575
0.997575
0.997575
0.997575
0.997575
0.997575
0.997575
0.997575
0.997575
0.997575
0.997575
0.997575
0.997575
0.997575
0.997575
0.997575
0.997575
0.997575
0.997575
0.997575
0.997575
0.997575
0.997575
0.997575
0.997575
0.997575
0.997575
0.997575
0.997575
0.997575
0.997575
0.997575
0.997575
0.997575
0.997575
0.997575
0.997575
0.997575
0.997575
0.997575
0.997575
0.997575
0.997575
0.997575
0.997575
0.997575
0.997575
0.997575
0.997575
0.997575
0.997575
0.997575
0.997575
0.997575
0.997575
0.997575
0.997575
0.997575
0.997575
0.997575
0.997575
0.997575
0.997575
0.997575
0.997575
0.997575
0.997575
0.997575
0.997575
0.997575
0.997575
0.997575
0.997575
0.997575
0.997575
0.997575
0.997575
0.997575
0.997575
0.997575
0.997575
0.997575
0.997575
0.997575
0.997575
0.997575
0.997575
0.997575
0.997575
0.997575
0.997575
0.997575
0.997575
0.997575
0.997575
0.997575
0.997575
0.997575
0.997575
0.997575
0.997575
0.997575
0.997575
0.997575
0.997575
0.997575
0.997575
0.997575
0.997575
0.997575
0.997575
0.997575
0.997575
0.997575
0.997575
0.997575
0.997575
0.997575
0.997575
0.997575
0.997575
0.997575
0.997575
0.997575
0.997575
0.997575
0.997575
0.997575
0.997575
0.997575
0.997575
0.997575
0.997575
0.997575
0.997575
0.997575
0.997575
0.997575
0.997575
0.997575
0.997575
0.997575
0.997575
0.997575
0.997575
0.997575
0.997575
0.997575
0.997575
0.997575
0.997575
0.997575
0.997575
0.997575
0.997575
0.997575
0.997575
0.997575
0.997575
0.997575
0.997575
0.997575
0.997575
0.997575
0.997575
0.997575
0.997575
0.997575
0.997575
0.997575
0.997575
0.997575
0.997575
0.997575
0.997575
0.997575
0.997575
0.997575
0.997575
0.997575
0.997575
0.997575
0.997575
0.997575
0.997575
0.997575
0.997575
0.997575
0.997575
0.997575
0.997575
0.997575
0.997575
0.997575
0.997575
0.997575
0.997575
0.997575
0.997575
0.997575
0.997575
0.997575
0.997575
0.997575
0.997575
0.997575
0.997575
0.997575
0.997575
0.997575
0.997575
0.997575
0.997575
0.997575
0.997575
0.997575
0.997575
0.997575
0.997575
0.997575
0.997575
0.997575
0.997575
0.997575
0.997575
0.997575
0.997575
0.997575
0.997575
0.997575
0.997575
0.997575
0.997575
0.997575
0.997575
0.997575
0.997575
0.997575
0.997575
0.997575
0.997575
0.997575
0.997575
0.997575
0.997575
0.997575
0.997575
0.997575
0.997575
0.997575
0.997575
0.997575
0.997575
0.997575
0.997575
0.997575
0.997574
0.997574
0.997574
0.997574
0.997573
0.997572
0.997571
0.997568
0.997563
0.997555
0.997541
0.997519
0.997484
0.997428
0.997342
0.997213
0.997021
0.996744
0.996352
0.99581
0.995078
0.994115
0.99288
0.991334
0.989448
0.987204
0.984596
0.981632
0.978333
0.974732
0.970864
0.966766
0.962473
0.958015
0.953421
0.948713
0.943911
0.939031
0.934087
0.92909
0.924048
0.918971
0.913863
0.908732
0.90358
0.898413
0.893233
0.888043
0.882846
0.877645
0.87244
0.867235
0.862031
0.856829
0.851631
0.846438
0.841251
0.836072
0.830901
0.82574
0.82059
0.815452
0.810326
0.805213
0.800114
0.795031
0.789963
0.784911
0.779876
0.774858
0.769859
0.764877
0.759915
0.754972
0.750048
0.745145
0.740262
0.735399
0.730558
0.725737
0.720938
0.71616
0.711404
0.70667
0.701959
0.697269
0.692602
0.687957
0.683334
0.678734
0.674157
0.669603
0.665071
0.660562
0.656077
0.651614
0.647174
0.642757
0.638363
0.633992
0.629644
0.625319
0.621018
0.616739
0.612484
0.608251
0.604042
0.599856
0.595693
0.591553
0.587436
0.583342
0.579271
0.575223
0.571199
0.567197
0.563219
0.559263
0.555331
0.551422
0.547536
0.543674
0.539834
0.536018
0.532225
0.528456
0.52471
0.520988
0.517289
0.513614
0.509963
0.506337
0.502734
0.499156
0.495603
0.492075
0.488572
0.485095
0.481644
0.47822
0.474823
0.471454
0.468114
0.464804
0.461524
0.458277
0.455063
0.451884
0.448743
0.445642
0.442583
0.439571
0.436609
0.433702
0.430857
0.428081
0.425381
0.42277
0.420259
0.417865
0.415606
0.413506
0.411592
0.409898
0.408463
0.407334
0.406565
0.406216
0.406352
0.407037
0.408332
0.410276
0.412881
0.416107
0.419851
0.423931
0.428088
0.432006
0.435336
0.437756
0.439029
0.439054
0.437882
0.435706
0.432815
0.429548
0.426242
0.423206
0.420702
0.418928
0.418013
0.418005
0.41887
0.420488
0.422657
0.425108
0.427532
0.42962
0.431105
0.431815
0.431701
0.430845
0.429438
0.427734
0.426007
0.424508
0.423438
0.422921
0.422987
0.42358
0.424559
0.425731
0.426882
0.427811
0.42837
0.428489
0.428189
0.427569
0.426781
0.425992
0.425354
0.424973
0.424897
0.425106
0.42552
0.426027
0.426503
0.426842
0.426979
0.426904
0.426656
0.426313
0.425963
0.425689
0.425543
0.425538
0.42565
0.425825
0.425998
0.426112
0.426133
0.426056
0.425905
0.42572
0.425544
0.42541
0.425331
0.425298
0.425284
0.42525
0.425148
0.424917
0.42447
0.423666
0.422296
0.420065
0.416606
0.411529
0.404494
0.395303
0.383986
0.370831
0.356363
0.341273
0.326315
0.312206
0.299549
0.288776
0.280129
0.273654
0.269227
0.266585
0.265374
0.26519
0.265639
0.266375
0.267137
0.267764
0.268187
0.26841
0.268477
0.268449
0.268378
0.268303
0.268247
0.268214
0.268201
0.268202
0.26821
0.268218
0.268225
0.268229
0.26823
0.268231
0.26823
0.26823
0.26823
0.268231
0.268232
0.268234
0.268236
0.268237
0.268239
0.268241
0.268242
0.268244
0.268245
0.268246
0.268247
0.268248
0.268249
0.26825
0.268251
0.268252
0.268253
0.268254
0.268255
0.268256
0.268256
0.268257
0.268258
0.268259
0.268259
0.26826
0.268261
0.268261
0.268262
0.268263
0.268263
0.268264
0.268265
0.268265
0.268266
0.268268
0.268265
0.268264
0.268273
0.268267
0.268241
0.268263
0.268301
0.268181
0.268111
0.268436
0.268298
0.267301
0.268142
0.26997
0.265458
0.262112
0.276573
0.271542
0.207868
0.150585
0.129977
0.125565
0.124838
0.12472
0.124701
0.124697
0.124697
0.124697
0.124697
0.124697
0.124697
0.124697
0.124697
0.124697
0.124697
0.124697
0.124697
0.124697
0.124697
0.124697
0.124697
0.124697
0.124697
0.124697
0.124697
0.124697
0.124697
0.124697
0.124697
0.124697
0.124697
0.124697
0.124697
0.124697
0.124697
0.124697
0.124697
0.124697
0.124697
0.124697
0.124697
0.124697
0.124697
0.124697
0.124697
0.124697
0.124697
0.124697
0.124697
0.124697
0.124697
0.124697
0.124697
0.124697
0.124697
0.124697
0.124697
0.124697
0.124697
0.124697
0.124697
0.124697
0.124697
0.124697
0.124697
0.124697
0.124697
0.124697
0.124697
0.124697
0.124697
0.124697
0.124697
0.124697
0.124697
0.124697
0.124697
0.124697
0.124697
0.124697
0.124697
0.124697
0.124697
0.124697
0.124697
0.124697
0.124697
0.124697
0.124697
0.124697
0.124697
0.124697
0.124697
0.124697
0.124697
0.124697
0.124697
0.124697
0.124697
0.124697
0.124697
0.124697
0.124697
0.124697
0.124697
0.124697
0.124697
0.124697
0.124697
0.124697
0.124697
0.124697
0.124697
0.124697
0.124697
0.124697
0.124697
0.124697
0.124697
0.124697
0.124697
0.124697
0.124697
0.124697
0.124697
0.124697
0.124697
0.124697
0.124697
0.124697
0.124697
0.124697
0.124697
0.124697
0.124697
0.124697
0.124697
0.124697
0.124697
0.124697
0.124697
0.124697
0.124697
0.124697
0.124697
0.124697
0.124697
0.124697
0.124697
0.124697
0.124697
0.124697
0.124697
0.124697
0.124697
0.124697
0.124697
0.124697
0.124697
0.124697
0.124697
0.124697
0.124697
0.124697
0.124697
0.124697
0.124697
0.124697
0.124697
0.124697
0.124697
0.124697
0.124697
0.124697
0.124697
0.124697
0.124697
0.124697
0.124697
0.124697
0.124697
0.124697
0.124697
0.124697
0.124697
0.124697
0.124697
0.124697
0.124697
0.124697
0.124697
0.124697
0.124697
0.124697
0.124697
0.124697
0.124697
0.124697
0.124697
0.124697
0.124697
0.124697
0.124697
0.124697
0.124697
0.124697
0.124697
0.124697
0.124697
0.124697
0.124697
0.124697
0.124697
0.124697
0.124697
0.124697
0.124697
0.124697
0.124697
0.124697
0.124697
0.124697
0.124697
0.124697
0.124697
0.124697
0.124697
0.124697
0.124697
0.124697
0.124697
0.124697
0.124697
0.124697
0.124697
0.124697
0.124697
0.124697
0.124697
0.124697
0.124697
0.124697
0.124697
0.124697
0.124697
0.124697
0.124697
0.124697
0.124697
0.124697
0.124697
0.124697
0.124697
0.124697
0.124697
0.124697
0.124697
0.124697
0.124697
0.124697
0.124697
0.124697
0.124697
0.124697
0.124697
0.124697
0.124697
0.124697
0.124697
0.124697
0.124697
0.124697
0.124697
0.124697
0.124697
0.124697
0.124697
0.124697
0.124697
0.124697
0.124697
0.124697
0.124697
0.124697
0.124697
0.124697
0.124697
0.124697
0.124697
0.124697
0.124697
0.124697
0.124697
0.124697
0.124697
0.124697
0.124697
0.124697
0.124697
0.124697
0.124697
0.124697
0.124697
0.124697
0.124697
0.124697
0.124697
)
;

boundaryField
{
    sides
    {
        type            calculated;
        value           nonuniform List<scalar> 2(0.124697 0.997575);
    }
    empty
    {
        type            empty;
    }
}


// ************************************************************************* //
