/*--------------------------------*- C++ -*----------------------------------*\
  =========                 |
  \\      /  F ield         | OpenFOAM: The Open Source CFD Toolbox
   \\    /   O peration     | Website:  https://openfoam.org
    \\  /    A nd           | Version:  13
     \\/     M anipulation  |
\*---------------------------------------------------------------------------*/
FoamFile
{
    format      ascii;
    class       volVectorField;
    location    "0.0035";
    object      U;
}
// * * * * * * * * * * * * * * * * * * * * * * * * * * * * * * * * * * * * * //

dimensions      [0 1 -1 0 0 0 0];

internalField   nonuniform List<vector> 
1000
(
(-2.11516e-12 0 0)
(-1.86717e-12 0 0)
(-1.98873e-12 0 0)
(-1.78937e-12 0 0)
(-2.13947e-12 0 0)
(-1.96928e-12 0 0)
(-2.25617e-12 0 0)
(-1.94011e-12 0 0)
(-2.21727e-12 0 0)
(-2.04708e-12 0 0)
(-2.4069e-12 0 0)
(-2.11516e-12 0 0)
(-2.20754e-12 0 0)
(-1.7602e-12 0 0)
(-1.92552e-12 0 0)
(-1.70671e-12 0 0)
(-1.7991e-12 0 0)
(-1.70671e-12 0 0)
(-1.68726e-12 0 0)
(-1.69213e-12 0 0)
(-1.86717e-12 0 0)
(-1.80882e-12 0 0)
(-1.90121e-12 0 0)
(-1.66781e-12 0 0)
(-1.70671e-12 0 0)
(-1.79424e-12 0 0)
(-1.66295e-12 0 0)
(-1.7602e-12 0 0)
(-1.449e-12 0 0)
(-1.7602e-12 0 0)
(-1.64836e-12 0 0)
(-1.80396e-12 0 0)
(-1.37607e-12 0 0)
(-1.37121e-12 0 0)
(-1.17185e-12 0 0)
(-1.09891e-12 0 0)
(-7.77989e-13 0 0)
(-1.06974e-12 0 0)
(-1.06974e-12 0 0)
(-1.26909e-12 0 0)
(-1.14753e-12 0 0)
(-1.28368e-12 0 0)
(-1.09891e-12 0 0)
(-9.48174e-13 0 0)
(-9.72486e-13 0 0)
(-7.1964e-13 0 0)
(-1.06974e-12 0 0)
(-9.23862e-13 0 0)
(-1.20588e-12 0 0)
(-1.12808e-12 0 0)
(-1.35176e-12 0 0)
(-1.18643e-12 0 0)
(-1.18643e-12 0 0)
(-9.77349e-13 0 0)
(-1.14267e-12 0 0)
(-1.34203e-12 0 0)
(-1.4879e-12 0 0)
(-1.20102e-12 0 0)
(-1.24965e-12 0 0)
(-1.0746e-12 0 0)
(-1.13295e-12 0 0)
(-1.08432e-12 0 0)
(-1.21561e-12 0 0)
(-1.26423e-12 0 0)
(-1.25937e-12 0 0)
(-1.38093e-12 0 0)
(-1.36634e-12 0 0)
(-1.24478e-12 0 0)
(-1.50735e-12 0 0)
(-1.32258e-12 0 0)
(-1.24965e-12 0 0)
(-1.19616e-12 0 0)
(-9.82211e-13 0 0)
(-1.16698e-12 0 0)
(-1.13781e-12 0 0)
(-1.25451e-12 0 0)
(-1.04056e-12 0 0)
(-1.10377e-12 0 0)
(-7.53677e-13 0 0)
(-5.54317e-13 0 0)
(-2.96608e-13 0 0)
(-4.18169e-13 0 0)
(-1.89635e-13 0 0)
(-4.37619e-14 0 0)
(-1.6046e-13 0 0)
(-2.62571e-13 0 0)
(-1.7991e-13 0 0)
(-8.26613e-14 0 0)
(-2.77159e-13 0 0)
(-4.18169e-13 0 0)
(-4.76518e-13 0 0)
(-4.95968e-13 0 0)
(-4.03582e-13 0 0)
(-2.57709e-13 0 0)
(-3.20921e-13 0 0)
(-3.64682e-13 0 0)
(-6.85603e-13 0 0)
(-7.3909e-13 0 0)
(-1.04542e-12 0 0)
(-1.10863e-12 0 0)
(-1.03084e-12 0 0)
(-8.801e-13 0 0)
(-5.2028e-13 0 0)
(-2.38259e-13 0 0)
(-1.26423e-13 0 0)
(3.01471e-13 0 0)
(1.84772e-13 0 0)
(4.23032e-13 0 0)
(2.47984e-13 0 0)
(3.88995e-13 0 0)
(6.46703e-13 0 0)
(6.85603e-13 0 0)
(5.10555e-13 0 0)
(4.32756e-13 0 0)
(4.57069e-13 0 0)
(1.94497e-13 0 0)
(1.21561e-13 0 0)
(2.72296e-13 0 0)
(2.33397e-13 0 0)
(2.43122e-13 0 0)
(6.8074e-14 0 0)
(-1.70185e-13 0 0)
(-1.6046e-13 0 0)
(-1.89635e-13 0 0)
(-3.4037e-13 0 0)
(-4.08444e-13 0 0)
(-4.71656e-13 0 0)
(-4.61931e-13 0 0)
(-3.45233e-13 0 0)
(-3.4037e-13 0 0)
(-4.57069e-13 0 0)
(-4.32756e-13 0 0)
(-3.88995e-13 0 0)
(-4.86243e-15 0 0)
(-7.29365e-14 0 0)
(9.23862e-14 0 0)
(1.89635e-13 0 0)
(2.96608e-13 0 0)
(3.98719e-13 0 0)
(2.18809e-13 0 0)
(3.06333e-13 0 0)
(3.93857e-13 0 0)
(6.32116e-13 0 0)
(5.68905e-13 0 0)
(7.77989e-13 0 0)
(6.12666e-13 0 0)
(8.94687e-13 0 0)
(9.23862e-13 0 0)
(9.96799e-13 0 0)
(8.12026e-13 0 0)
(8.65513e-13 0 0)
(6.17529e-13 0 0)
(5.10555e-13 0 0)
(3.20921e-13 0 0)
(1.70185e-13 0 0)
(1.50735e-13 0 0)
(1.06974e-13 0 0)
(1.65323e-13 0 0)
(3.4037e-13 0 0)
(6.8074e-14 0 0)
(-1.65323e-13 0 0)
(-1.41011e-13 0 0)
(-6.12666e-13 0 0)
(-6.61291e-13 0 0)
(-9.33587e-13 0 0)
(-7.29365e-13 0 0)
(-7.53677e-13 0 0)
(-4.57069e-13 0 0)
(-6.8074e-13 0 0)
(-6.07804e-13 0 0)
(-7.05053e-13 0 0)
(-4.76518e-13 0 0)
(-4.32756e-13 0 0)
(-2.77159e-13 0 0)
(-5.78629e-13 0 0)
(-5.34868e-13 0 0)
(-8.65513e-13 0 0)
(-5.54317e-13 0 0)
(-5.2028e-13 0 0)
(-3.69545e-13 0 0)
(-3.25783e-13 0 0)
(-3.64682e-13 0 0)
(-2.96608e-13 0 0)
(-2.04222e-13 0 0)
(1.26423e-13 0 0)
(2.91746e-14 0 0)
(8.26613e-14 0 0)
(-8.75238e-14 0 0)
(-7.29365e-14 0 0)
(-2.57709e-13 0 0)
(-3.84132e-13 0 0)
(-2.86883e-13 0 0)
(-3.92537e-27 0 0)
(-3.88995e-13 0 0)
(4.86243e-15 0 0)
(-3.88995e-14 0 0)
(1.84772e-13 0 0)
(5.34868e-14 0 0)
(-3.88995e-14 0 0)
(1.41011e-13 0 0)
(1.65323e-13 0 0)
(2.91746e-14 0 0)
(-3.88995e-14 0 0)
(-4.66793e-13 0 0)
(-4.37619e-13 0 0)
(-5.93217e-13 0 0)
(-6.85603e-13 0 0)
(-8.41201e-13 0 0)
(-8.6065e-13 0 0)
(-9.87074e-13 0 0)
(-1.0357e-12 0 0)
(-7.09915e-13 0 0)
(-9.72486e-13 0 0)
(-5.83492e-13 0 0)
(-5.88354e-13 0 0)
(-2.04222e-13 0 0)
(-4.13307e-13 0 0)
(-3.88995e-13 0 0)
(-4.23032e-13 0 0)
(-4.37619e-14 0 0)
(-7.29365e-14 0 0)
(1.7991e-13 0 0)
(5.34868e-14 0 0)
(2.82021e-13 0 0)
(3.4037e-14 0 0)
(1.50735e-13 0 0)
(-1.31286e-13 0 0)
(-2.18809e-13 0 0)
(-4.76518e-13 0 0)
(-6.07804e-13 0 0)
(-8.6065e-13 0 0)
(-6.51566e-13 0 0)
(-7.43952e-13 0 0)
(-6.56428e-13 0 0)
(-8.70375e-13 0 0)
(-9.33587e-13 0 0)
(-4.76518e-13 0 0)
(-2.91746e-13 0 0)
(-1.11836e-13 0 0)
(-1.02111e-13 0 0)
(4.18169e-13 0 0)
(5.3973e-13 0 0)
(6.12666e-13 0 0)
(4.91106e-13 0 0)
(1.31286e-13 0 0)
(5.34868e-14 0 0)
(-2.28534e-13 0 0)
(-3.54958e-13 0 0)
(-3.93857e-13 0 0)
(-5.93217e-13 0 0)
(-7.29365e-13 0 0)
(-7.43952e-13 0 0)
(-4.47344e-13 0 0)
(-4.81381e-13 0 0)
(-2.62571e-13 0 0)
(-9.72486e-14 0 0)
(2.96608e-13 0 0)
(4.81381e-13 0 0)
(6.66153e-13 0 0)
(4.61931e-13 0 0)
(6.27254e-13 0 0)
(2.77159e-13 0 0)
(1.26423e-13 0 0)
(-2.91746e-14 0 0)
(1.89635e-13 0 0)
(1.16698e-13 0 0)
(5.83492e-14 0 0)
(1.11836e-13 0 0)
(7.77989e-14 0 0)
(-1.02111e-13 0 0)
(-2.43122e-13 0 0)
(-9.72486e-15 0 0)
(-2.91746e-14 0 0)
(3.4037e-13 0 0)
(4.95968e-13 0 0)
(7.48815e-13 0 0)
(7.48815e-13 0 0)
(8.75238e-13 0 0)
(7.68264e-13 0 0)
(7.1964e-13 0 0)
(8.6065e-13 0 0)
(8.31476e-13 0 0)
(1.01625e-12 0 0)
(8.12026e-13 0 0)
(7.92576e-13 0 0)
(4.71656e-13 0 0)
(6.85603e-13 0 0)
(5.05693e-13 0 0)
(6.71016e-13 0 0)
(7.73127e-13 0 0)
(9.33587e-13 0 0)
(8.801e-13 0 0)
(8.801e-13 0 0)
(8.46063e-13 0 0)
(6.71016e-13 0 0)
(6.36979e-13 0 0)
(5.30005e-13 0 0)
(5.34868e-13 0 0)
(3.16058e-13 0 0)
(6.36979e-13 0 0)
(5.10555e-13 0 0)
(6.36979e-13 0 0)
(4.08444e-13 0 0)
(5.3973e-13 0 0)
(6.8074e-13 0 0)
(7.43952e-13 0 0)
(2.77159e-13 0 0)
(7.48815e-13 0 0)
(5.93217e-13 0 0)
(1.15726e-12 0 0)
(8.36338e-13 0 0)
(1.34689e-12 0 0)
(8.50926e-13 0 0)
(1.09405e-12 0 0)
(8.801e-13 0 0)
(1.18643e-12 0 0)
(1.28854e-12 0 0)
(2.16378e-12 0 0)
(4.74573e-12 0 0)
(1.04688e-11 0 0)
(2.3505e-11 0 0)
(5.33263e-11 0 0)
(1.20428e-10 0 0)
(2.71922e-10 0 0)
(6.10425e-10 0 0)
(1.36019e-09 0 0)
(3.00423e-09 0 0)
(6.57439e-09 0 0)
(1.42525e-08 0 0)
(3.06015e-08 0 0)
(6.50648e-08 0 0)
(1.36969e-07 0 0)
(2.85425e-07 0 0)
(5.88673e-07 0 0)
(1.2014e-06 0 0)
(2.42572e-06 0 0)
(4.84445e-06 0 0)
(9.56759e-06 0 0)
(1.86816e-05 0 0)
(3.60556e-05 0 0)
(6.87651e-05 0 0)
(0.000129563 0 0)
(0.000241096 0 0)
(0.000442958 0 0)
(0.000803263 0 0)
(0.00143724 0 0)
(0.00253641 0 0)
(0.00441327 0 0)
(0.00756788 0 0)
(0.0127841 0 0)
(0.021264 0 0)
(0.0348086 0 0)
(0.0560489 0 0)
(0.0887257 0 0)
(0.138004 0 0)
(0.210786 0 0)
(0.315978 0 0)
(0.464627 0 0)
(0.669839 0 0)
(0.946406 0 0)
(1.31008 0 0)
(1.77649 0 0)
(2.35987 0 0)
(3.07165 0 0)
(3.91928 0 0)
(4.90542 0 0)
(6.02773 0 0)
(7.27918 0 0)
(8.64919 0 0)
(10.1253 0 0)
(11.6946 0 0)
(13.3448 0 0)
(15.0648 0 0)
(16.845 0 0)
(18.6768 0 0)
(20.5534 0 0)
(22.4689 0 0)
(24.4182 0 0)
(26.3975 0 0)
(28.4034 0 0)
(30.433 0 0)
(32.484 0 0)
(34.5545 0 0)
(36.6428 0 0)
(38.7474 0 0)
(40.8672 0 0)
(43.0011 0 0)
(45.1482 0 0)
(47.3077 0 0)
(49.4787 0 0)
(51.6606 0 0)
(53.8529 0 0)
(56.0548 0 0)
(58.266 0 0)
(60.4859 0 0)
(62.7139 0 0)
(64.9498 0 0)
(67.193 0 0)
(69.4431 0 0)
(71.6998 0 0)
(73.9626 0 0)
(76.2314 0 0)
(78.5056 0 0)
(80.785 0 0)
(83.0693 0 0)
(85.3582 0 0)
(87.6515 0 0)
(89.9489 0 0)
(92.25 0 0)
(94.5548 0 0)
(96.8631 0 0)
(99.1745 0 0)
(101.489 0 0)
(103.806 0 0)
(106.126 0 0)
(108.448 0 0)
(110.773 0 0)
(113.1 0 0)
(115.429 0 0)
(117.761 0 0)
(120.093 0 0)
(122.428 0 0)
(124.765 0 0)
(127.102 0 0)
(129.442 0 0)
(131.783 0 0)
(134.125 0 0)
(136.468 0 0)
(138.812 0 0)
(141.158 0 0)
(143.504 0 0)
(145.852 0 0)
(148.2 0 0)
(150.549 0 0)
(152.899 0 0)
(155.25 0 0)
(157.601 0 0)
(159.953 0 0)
(162.305 0 0)
(164.658 0 0)
(167.011 0 0)
(169.365 0 0)
(171.719 0 0)
(174.073 0 0)
(176.428 0 0)
(178.782 0 0)
(181.137 0 0)
(183.492 0 0)
(185.847 0 0)
(188.202 0 0)
(190.557 0 0)
(192.911 0 0)
(195.266 0 0)
(197.62 0 0)
(199.974 0 0)
(202.328 0 0)
(204.681 0 0)
(207.033 0 0)
(209.385 0 0)
(211.736 0 0)
(214.087 0 0)
(216.436 0 0)
(218.785 0 0)
(221.133 0 0)
(223.479 0 0)
(225.824 0 0)
(228.167 0 0)
(230.509 0 0)
(232.85 0 0)
(235.188 0 0)
(237.524 0 0)
(239.858 0 0)
(242.189 0 0)
(244.518 0 0)
(246.843 0 0)
(249.165 0 0)
(251.483 0 0)
(253.796 0 0)
(256.105 0 0)
(258.409 0 0)
(260.707 0 0)
(262.998 0 0)
(265.282 0 0)
(267.558 0 0)
(269.824 0 0)
(272.08 0 0)
(274.324 0 0)
(276.554 0 0)
(278.768 0 0)
(280.964 0 0)
(283.14 0 0)
(285.291 0 0)
(287.414 0 0)
(289.504 0 0)
(291.555 0 0)
(293.561 0 0)
(295.513 0 0)
(297.401 0 0)
(299.212 0 0)
(300.931 0 0)
(302.54 0 0)
(304.018 0 0)
(305.336 0 0)
(306.464 0 0)
(307.365 0 0)
(307.994 0 0)
(308.304 0 0)
(308.241 0 0)
(307.753 0 0)
(306.789 0 0)
(305.313 0 0)
(303.315 0 0)
(300.819 0 0)
(297.905 0 0)
(294.713 0 0)
(291.445 0 0)
(288.351 0 0)
(285.71 0 0)
(283.776 0 0)
(282.742 0 0)
(282.693 0 0)
(283.594 0 0)
(285.303 0 0)
(287.595 0 0)
(290.205 0 0)
(292.862 0 0)
(295.315 0 0)
(297.349 0 0)
(298.797 0 0)
(299.551 0 0)
(299.566 0 0)
(298.864 0 0)
(297.54 0 0)
(295.757 0 0)
(293.734 0 0)
(291.726 0 0)
(289.992 0 0)
(288.753 0 0)
(288.155 0 0)
(288.242 0 0)
(288.949 0 0)
(290.122 0 0)
(291.552 0 0)
(293.008 0 0)
(294.275 0 0)
(295.18 0 0)
(295.617 0 0)
(295.553 0 0)
(295.038 0 0)
(294.188 0 0)
(293.168 0 0)
(292.165 0 0)
(291.354 0 0)
(290.863 0 0)
(290.755 0 0)
(291.013 0 0)
(291.552 0 0)
(292.24 0 0)
(292.93 0 0)
(293.486 0 0)
(293.812 0 0)
(293.865 0 0)
(293.662 0 0)
(293.273 0 0)
(292.801 0 0)
(292.356 0 0)
(292.037 0 0)
(291.901 0 0)
(291.959 0 0)
(292.174 0 0)
(292.476 0 0)
(292.781 0 0)
(293.013 0 0)
(293.123 0 0)
(293.098 0 0)
(292.961 0 0)
(292.764 0 0)
(292.568 0 0)
(292.426 0 0)
(292.372 0 0)
(292.408 0 0)
(292.512 0 0)
(292.642 0 0)
(292.755 0 0)
(292.818 0 0)
(292.818 0 0)
(292.765 0 0)
(292.686 0 0)
(292.613 0 0)
(292.574 0 0)
(292.581 0 0)
(292.632 0 0)
(292.711 0 0)
(292.797 0 0)
(292.872 0 0)
(292.929 0 0)
(292.97 0 0)
(293.002 0 0)
(293.031 0 0)
(293.049 0 0)
(293.039 0 0)
(292.984 0 0)
(292.881 0 0)
(292.74 0 0)
(292.584 0 0)
(292.436 0 0)
(292.311 0 0)
(292.218 0 0)
(292.166 0 0)
(292.163 0 0)
(292.208 0 0)
(292.294 0 0)
(292.4 0 0)
(292.508 0 0)
(292.599 0 0)
(292.664 0 0)
(292.701 0 0)
(292.714 0 0)
(292.709 0 0)
(292.695 0 0)
(292.679 0 0)
(292.665 0 0)
(292.656 0 0)
(292.652 0 0)
(292.651 0 0)
(292.653 0 0)
(292.655 0 0)
(292.657 0 0)
(292.658 0 0)
(292.659 0 0)
(292.66 0 0)
(292.66 0 0)
(292.66 0 0)
(292.66 0 0)
(292.66 0 0)
(292.66 0 0)
(292.66 0 0)
(292.661 0 0)
(292.661 0 0)
(292.661 0 0)
(292.662 0 0)
(292.662 0 0)
(292.662 0 0)
(292.663 0 0)
(292.663 0 0)
(292.663 0 0)
(292.664 0 0)
(292.664 0 0)
(292.665 0 0)
(292.665 0 0)
(292.666 0 0)
(292.666 0 0)
(292.667 0 0)
(292.667 0 0)
(292.668 0 0)
(292.668 0 0)
(292.669 0 0)
(292.67 0 0)
(292.67 0 0)
(292.671 0 0)
(292.672 0 0)
(292.673 0 0)
(292.673 0 0)
(292.674 0 0)
(292.675 0 0)
(292.676 0 0)
(292.677 0 0)
(292.678 0 0)
(292.679 0 0)
(292.679 0 0)
(292.68 0 0)
(292.681 0 0)
(292.682 0 0)
(292.679 0 0)
(292.676 0 0)
(292.681 0 0)
(292.674 0 0)
(292.647 0 0)
(292.657 0 0)
(292.684 0 0)
(292.568 0 0)
(292.462 0 0)
(292.695 0 0)
(292.569 0 0)
(291.592 0 0)
(292.041 0 0)
(293.548 0 0)
(289.563 0 0)
(285.293 0 0)
(294.682 0 0)
(283.855 0 0)
(199.184 0 0)
(76.1878 0 0)
(16.151 0 0)
(2.82255 0 0)
(0.469395 0 0)
(0.077404 0 0)
(0.0127968 0 0)
(0.00211675 0 0)
(0.000350158 0 0)
(5.79239e-05 0 0)
(9.58185e-06 0 0)
(1.58503e-06 0 0)
(2.62194e-07 0 0)
(4.33702e-08 0 0)
(7.17268e-09 0 0)
(1.18552e-09 0 0)
(1.9564e-10 0 0)
(3.16934e-11 0 0)
(4.7117e-12 0 0)
(-2.1881e-13 0 0)
(-8.75239e-13 0 0)
(-1.17185e-12 0 0)
(-8.41202e-13 0 0)
(-8.41202e-13 0 0)
(-1.08919e-12 0 0)
(-1.17671e-12 0 0)
(-1.08432e-12 0 0)
(-9.48176e-13 0 0)
(-1.20102e-12 0 0)
(-9.968e-13 0 0)
(-1.41011e-12 0 0)
(-9.48176e-13 0 0)
(-1.08919e-12 0 0)
(-1.2302e-12 0 0)
(-1.50736e-12 0 0)
(-1.62405e-12 0 0)
(-1.73589e-12 0 0)
(-1.41011e-12 0 0)
(-1.41983e-12 0 0)
(-1.41011e-12 0 0)
(-1.63378e-12 0 0)
(-2.0714e-12 0 0)
(-2.01305e-12 0 0)
(-1.87204e-12 0 0)
(-2.09085e-12 0 0)
(-2.21727e-12 0 0)
(-2.1103e-12 0 0)
(-2.227e-12 0 0)
(-2.21727e-12 0 0)
(-2.3826e-12 0 0)
(-1.58516e-12 0 0)
(-1.86718e-12 0 0)
(-1.61433e-12 0 0)
(-1.66782e-12 0 0)
(-1.06001e-12 0 0)
(-1.39066e-12 0 0)
(-1.31286e-12 0 0)
(-1.68727e-12 0 0)
(-1.73103e-12 0 0)
(-1.66782e-12 0 0)
(-1.96443e-12 0 0)
(-1.24478e-12 0 0)
(-1.48791e-12 0 0)
(-1.27882e-12 0 0)
(-1.63864e-12 0 0)
(-1.59974e-12 0 0)
(-1.51222e-12 0 0)
(-1.26423e-12 0 0)
(-1.3858e-12 0 0)
(-1.55112e-12 0 0)
(-1.62892e-12 0 0)
(-1.60947e-12 0 0)
(-1.6824e-12 0 0)
(-1.54626e-12 0 0)
(-1.49763e-12 0 0)
(-1.58029e-12 0 0)
(-1.29341e-12 0 0)
(-1.51708e-12 0 0)
(-1.51708e-12 0 0)
(-1.69699e-12 0 0)
(-1.74075e-12 0 0)
(-1.66295e-12 0 0)
(-1.7213e-12 0 0)
(-1.50736e-12 0 0)
(-1.33717e-12 0 0)
(-1.22533e-12 0 0)
(-7.9744e-13 0 0)
(-1.00652e-12 0 0)
(-6.02942e-13 0 0)
(-7.05054e-13 0 0)
(-5.00831e-13 0 0)
(-1.7991e-13 0 0)
(-1.7991e-13 0 0)
(1.89635e-13 0 0)
(2.59504e-26 0 0)
(5.20281e-13 0 0)
(4.08445e-13 0 0)
(3.25783e-13 0 0)
(1.65323e-13 0 0)
(5.05694e-13 0 0)
(4.47344e-13 0 0)
(5.00831e-13 0 0)
(1.02111e-13 0 0)
(2.3826e-13 0 0)
(-1.21561e-13 0 0)
(1.94498e-14 0 0)
(-1.9936e-13 0 0)
(-3.01471e-13 0 0)
(-4.3762e-13 0 0)
(-3.11196e-13 0 0)
(-4.1817e-13 0 0)
(-2.28535e-13 0 0)
(-4.71657e-13 0 0)
(-4.1817e-13 0 0)
(-6.46704e-13 0 0)
(-4.27895e-13 0 0)
(-3.69545e-13 0 0)
(-5.7863e-13 0 0)
(-4.86244e-13 0 0)
(-4.76519e-13 0 0)
(-3.93858e-13 0 0)
(-3.54958e-13 0 0)
(-1.9936e-13 0 0)
(6.80741e-14 0 0)
(4.86244e-13 0 0)
(3.35508e-13 0 0)
(6.32117e-13 0 0)
(4.57069e-13 0 0)
(1.65323e-13 0 0)
(2.47984e-13 0 0)
(3.74408e-13 0 0)
(6.02942e-13 0 0)
(3.54958e-13 0 0)
(4.86244e-13 0 0)
(2.47984e-13 0 0)
(1.11836e-13 0 0)
(-1.21561e-13 0 0)
(2.43122e-14 0 0)
(2.1881e-13 0 0)
(-4.86244e-15 0 0)
(-5.34868e-14 0 0)
(-4.32757e-13 0 0)
(-1.84773e-13 0 0)
(-1.9936e-13 0 0)
(-6.80741e-14 0 0)
(-3.06334e-13 0 0)
(-4.08445e-13 0 0)
(-8.46064e-13 0 0)
(-3.9872e-13 0 0)
(-5.83493e-13 0 0)
(-3.88995e-14 0 0)
(-2.47984e-13 0 0)
(-1.84773e-13 0 0)
(-7.7799e-14 0 0)
(-3.06334e-13 0 0)
(-5.88355e-13 0 0)
(-2.23672e-13 0 0)
(-7.29366e-14 0 0)
(1.31286e-13 0 0)
(1.16699e-13 0 0)
(3.35508e-13 0 0)
(-1.6046e-13 0 0)
(-2.77159e-13 0 0)
(-4.76519e-13 0 0)
(-4.66794e-13 0 0)
(-3.84133e-13 0 0)
(-7.24503e-13 0 0)
(-8.1689e-13 0 0)
(-1.08919e-12 0 0)
(-8.02302e-13 0 0)
(-7.82853e-13 0 0)
(-5.73768e-13 0 0)
(-7.7799e-13 0 0)
(-4.1817e-13 0 0)
(-2.57709e-13 0 0)
(-4.32757e-13 0 0)
(-5.88355e-13 0 0)
(-7.43953e-13 0 0)
(-7.87715e-13 0 0)
(-4.42482e-13 0 0)
(-7.29366e-13 0 0)
(-5.00831e-13 0 0)
(-7.92578e-13 0 0)
(-4.47344e-13 0 0)
(-5.68905e-13 0 0)
(-2.86884e-13 0 0)
(-6.3698e-13 0 0)
(-4.61932e-13 0 0)
(-5.00831e-13 0 0)
(-8.1689e-13 0 0)
(-7.9744e-13 0 0)
(-9.23863e-13 0 0)
(-9.53038e-13 0 0)
(-5.7863e-13 0 0)
(-7.05054e-13 0 0)
(-5.64043e-13 0 0)
(-1.05029e-12 0 0)
(-1.15726e-12 0 0)
(-1.14754e-12 0 0)
(-1.01139e-12 0 0)
(-1.11836e-12 0 0)
(-6.71017e-13 0 0)
(-8.36339e-13 0 0)
(-7.48816e-13 0 0)
(-4.86244e-13 0 0)
(-4.23032e-13 0 0)
(-5.05694e-13 0 0)
(-6.12667e-13 0 0)
(-5.68905e-13 0 0)
(-9.14139e-13 0 0)
(-1.01139e-12 0 0)
(-1.17185e-12 0 0)
(-1.26423e-12 0 0)
(-1.11836e-12 0 0)
(-1.43442e-12 0 0)
(-1.13295e-12 0 0)
(-1.0746e-12 0 0)
(-9.28726e-13 0 0)
(-7.82853e-13 0 0)
(-8.50927e-13 0 0)
(-6.71017e-13 0 0)
(-7.34228e-13 0 0)
(-6.12667e-13 0 0)
(-4.47344e-13 0 0)
(-3.9872e-13 0 0)
(-4.23032e-13 0 0)
(-4.3762e-13 0 0)
(-3.11196e-13 0 0)
(-3.06334e-13 0 0)
(-2.77159e-13 0 0)
(-2.96609e-13 0 0)
(-4.23032e-13 0 0)
(-3.16059e-13 0 0)
(-5.15419e-13 0 0)
(-3.69545e-13 0 0)
(-2.13947e-13 0 0)
(-4.66794e-13 0 0)
(-5.7863e-13 0 0)
(-8.41202e-13 0 0)
(-1.10864e-12 0 0)
(-1.16699e-12 0 0)
(-9.67625e-13 0 0)
(-1.14267e-12 0 0)
(-1.16212e-12 0 0)
(-1.05029e-12 0 0)
(-1.04542e-12 0 0)
(-1.25451e-12 0 0)
(-1.1524e-12 0 0)
(-2.01305e-12 0 0)
(-2.01305e-12 0 0)
(-2.49929e-12 0 0)
(-2.13947e-12 0 0)
(-2.01305e-12 0 0)
(-1.48791e-12 0 0)
(-1.04542e-12 0 0)
(-1.18157e-12 0 0)
(-1.0357e-12 0 0)
(-9.14139e-13 0 0)
(-5.7863e-13 0 0)
(-7.24503e-13 0 0)
(-6.32117e-13 0 0)
(-7.43953e-13 0 0)
(-9.43313e-13 0 0)
(-9.14139e-13 0 0)
(-8.80101e-13 0 0)
(-8.75239e-13 0 0)
(-8.31477e-13 0 0)
(-6.85604e-13 0 0)
(-3.84133e-13 0 0)
(-7.24503e-13 0 0)
(-8.80101e-13 0 0)
(-1.18644e-12 0 0)
(-8.75239e-13 0 0)
(-1.25937e-12 0 0)
(-8.70377e-13 0 0)
(-6.85604e-13 0 0)
(-6.66154e-13 0 0)
(-8.1689e-13 0 0)
(-1.16212e-12 0 0)
(-6.71017e-13 0 0)
(-1.25451e-12 0 0)
(-8.50927e-13 0 0)
(-1.25937e-12 0 0)
(-4.76519e-13 0 0)
(-8.26615e-13 0 0)
(-3.20921e-13 0 0)
(-7.48816e-13 0 0)
(-7.48816e-13 0 0)
(-9.28726e-13 0 0)
(-6.46704e-13 0 0)
(-9.33588e-13 0 0)
(-7.05054e-13 0 0)
(-9.23863e-13 0 0)
(-9.72488e-13 0 0)
(-1.09891e-12 0 0)
(-8.02302e-13 0 0)
(-1.02111e-12 0 0)
(-7.68265e-13 0 0)
(-1.50249e-12 0 0)
(-1.35662e-12 0 0)
(-1.49277e-12 0 0)
(-1.33717e-12 0 0)
(-1.52194e-12 0 0)
(-1.19616e-12 0 0)
(-1.06001e-12 0 0)
(-1.31772e-12 0 0)
(-1.63378e-12 0 0)
(-1.46846e-12 0 0)
(-1.20102e-12 0 0)
)
;

boundaryField
{
    sides
    {
        type            zeroGradient;
    }
    empty
    {
        type            empty;
    }
}


// ************************************************************************* //
