/*--------------------------------*- C++ -*----------------------------------*\
  =========                 |
  \\      /  F ield         | OpenFOAM: The Open Source CFD Toolbox
   \\    /   O peration     | Website:  https://openfoam.org
    \\  /    A nd           | Version:  13
     \\/     M anipulation  |
\*---------------------------------------------------------------------------*/
FoamFile
{
    format      ascii;
    class       volScalarField;
    location    "6.297242";
    object      nut;
}
// * * * * * * * * * * * * * * * * * * * * * * * * * * * * * * * * * * * * * //

dimensions      [0 2 -1 0 0 0 0];

internalField   nonuniform List<scalar> 
17140
(
1.6469471e-17
3.2030909e-15
8.5314666e-14
8.648972e-13
5.2303829e-12
2.3171549e-11
8.3663098e-11
2.6176427e-10
7.3733529e-10
1.9175789e-09
4.6855316e-09
1.0892525e-08
2.431589e-08
5.2491949e-08
1.1017622e-07
2.2579682e-07
4.533619e-07
8.942178e-07
1.7364212e-06
3.3250658e-06
6.2847674e-06
1.1720052e-05
2.1489078e-05
3.8364614e-05
6.5316019e-05
9.1116666e-05
9.7472245e-05
0.00010112584
0.00010249621
0.00010208407
0.00010122373
0.00010058612
0.00010036522
0.00010059804
0.0001013305
0.00010263988
0.00010463646
0.00010747163
0.00011135418
0.00011661415
0.00012413655
0.00013692546
0.00016248864
0.0002151988
0.00026140145
0.00025923987
0.0002585859
0.00026022674
0.00026473845
0.00027080876
0.00027901388
0.00028844638
0.00029847424
0.00030775885
0.00031322796
0.0003196128
0.00032900969
0.00032075316
0.00031407481
0.00030157741
0.00028829166
0.000274903
0.00026412796
0.00025247502
0.00023075322
1.6277691e-17
3.1657897e-15
8.4321232e-14
8.5482811e-13
5.1695086e-12
2.2901937e-11
8.2689828e-11
2.5871935e-10
7.2875722e-10
1.8952597e-09
4.6309447e-09
1.0765426e-08
2.4031471e-08
5.1875799e-08
1.088767e-07
2.2311654e-07
4.4793661e-07
8.8341068e-07
1.7151927e-06
3.2839035e-06
6.206038e-06
1.1572178e-05
2.1219715e-05
3.7902393e-05
6.4612189e-05
9.1630565e-05
9.8130668e-05
0.00010185093
0.00010326282
0.0001028587
0.00010198658
0.00010133033
0.00010109297
0.000101308
0.00010202078
0.000103307
0.00010527334
0.00010806407
0.00011187559
0.00011701577
0.00012435288
0.00013695994
0.00016248751
0.0002155589
0.00025084966
0.00024684545
0.00024286152
0.00023849327
0.0002365654
0.00023369803
0.00023067903
0.00022622219
0.00022204947
0.00021572449
0.00021173299
0.00021076362
0.00020581708
0.00020344165
0.00020142162
0.00019752744
0.0001930589
0.00018621164
0.00018015226
0.00017722321
0.0001732036
1.5822159e-17
3.0771946e-15
8.1961486e-14
8.3090517e-13
5.0248298e-12
2.2260915e-11
8.0374871e-11
2.5147371e-10
7.0833563e-10
1.8420996e-09
4.5008656e-09
1.0462401e-08
2.3353029e-08
5.0405328e-08
1.0577384e-07
2.1671374e-07
4.3497036e-07
8.5757007e-07
1.6644096e-06
3.1853817e-06
6.0174685e-06
1.1217603e-05
2.0572513e-05
3.6787236e-05
6.2899952e-05
9.2932633e-05
9.9805781e-05
0.00010370657
0.00010528043
0.00010491267
0.00010401561
0.00010331307
0.00010301836
0.00010317395
0.00010382455
0.00010503998
0.0001069153
0.00010956845
0.00011316021
0.00011795517
0.00012479805
0.00013700702
0.0001629724
0.00021678735
0.00022854418
0.00022151674
0.00021446273
0.00020749209
0.00020084353
0.00019433901
0.00018732117
0.00017921186
0.00016900782
0.00015611812
0.00014183781
0.00013494228
0.00012466469
0.00012390858
0.00012726921
0.00013290078
0.00013887257
0.00014120985
0.00014527668
0.00015163183
0.00016416343
1.5107569e-17
2.9382164e-15
7.825979e-14
7.9337769e-13
4.797877e-12
2.1255381e-11
7.6743614e-11
2.4010861e-10
6.7630546e-10
1.7587289e-09
4.2968907e-09
9.9873245e-09
2.228966e-08
4.8101349e-08
1.0091431e-07
2.0669148e-07
4.1468755e-07
8.1717847e-07
1.5850956e-06
3.0316351e-06
5.7233884e-06
1.0664655e-05
1.9561708e-05
3.5036964e-05
6.0180429e-05
9.5116169e-05
0.0001026148
0.00010681765
0.00010866161
0.00010838534
0.00010743189
0.00010661596
0.00010618847
0.0001061845
0.00010666529
0.00010769494
0.00010936635
0.00011180407
0.00011514743
0.00011961023
0.0001261548
0.00013874681
0.00016670138
0.00022283396
0.00021420676
0.00020690462
0.00020122889
0.00019586758
0.00019104403
0.00018648384
0.00018146737
0.00017435859
0.00016286702
0.00014564703
0.00012247814
0.00010924341
9.3905656e-05
9.3165871e-05
0.00010080295
0.00011227718
0.00012587647
0.00013629046
0.00015077286
0.00016688332
0.00019469761
1.4146312e-17
2.751265e-15
7.3280334e-14
7.4289648e-13
4.4925849e-12
1.9902764e-11
7.1859009e-11
2.2482117e-10
6.3322301e-10
1.6465991e-09
4.0225874e-09
9.3485607e-09
2.0860264e-08
4.5005334e-08
9.4386966e-08
1.9323638e-07
3.8747323e-07
7.6301681e-07
1.4788041e-06
2.8256743e-06
5.3293834e-06
9.9228008e-06
1.8199901e-05
3.2654682e-05
5.6394082e-05
9.1011014e-05
0.00010665921
0.00011139158
0.00011365133
0.00011348059
0.00011240652
0.00011135928
0.00011068731
0.00011048196
0.00011077081
0.00011162587
0.00011314826
0.00011546069
0.00011869495
0.00012306417
0.00012969081
0.00014323608
0.00017359776
0.00021392164
0.00020696469
0.000201688
0.0001981004
0.00019581668
0.00019624244
0.00019810005
0.0001976716
0.00019648611
0.00017984235
0.00016048487
0.00012313811
0.00010151607
8.1579992e-05
7.8246174e-05
8.5975971e-05
0.00010121859
0.00012177868
0.00014368648
0.00017189002
0.00019802831
0.00023858105
1.2972846e-17
2.5230419e-15
6.7201607e-14
6.8127109e-13
4.1198992e-12
1.8251584e-11
6.5896442e-11
2.0616114e-10
5.8064116e-10
1.509766e-09
3.6879272e-09
8.5694948e-09
1.911768e-08
4.1233204e-08
8.6440274e-08
1.7687131e-07
3.5441202e-07
6.9730958e-07
1.3500556e-06
2.5766088e-06
4.8536229e-06
9.0276382e-06
1.6554241e-05
2.9757037e-05
5.1711268e-05
8.4599758e-05
0.00011205933
0.00011759325
0.0001204473
0.00012047221
0.00011927121
0.00011797355
0.00011703492
0.00011657583
0.00011664718
0.00011733948
0.00011877239
0.00012107965
0.00012439527
0.00012889961
0.00013583684
0.00015049081
0.00018323591
0.00020977102
0.00020587695
0.0002036055
0.00020499521
0.00020897332
0.00021487192
0.00021985313
0.00022147157
0.00022102851
0.0002008123
0.00017436155
0.00012991945
9.6599106e-05
7.1318561e-05
6.774233e-05
7.8253569e-05
9.9058562e-05
0.00012853852
0.00016330454
0.00020579689
0.00024341357
0.00029516756
1.1637579e-17
2.2633511e-15
6.0284742e-14
6.1114898e-13
3.6958322e-12
1.6372798e-11
5.9112248e-11
1.849313e-10
5.2082464e-10
1.3541337e-09
3.3073895e-09
7.683966e-09
1.7138011e-08
3.6950905e-08
7.7427148e-08
1.5833162e-07
3.1701057e-07
6.2310002e-07
1.2049195e-06
2.2963901e-06
4.3192796e-06
8.0230187e-06
1.4703907e-05
2.6472854e-05
4.629229e-05
7.6839703e-05
0.00011646138
0.00012617204
0.00012965966
0.0001300746
0.0001287781
0.00012715998
0.00012585972
0.00012507626
0.00012489636
0.00012543646
0.00012683795
0.00012923228
0.00013269266
0.00013727648
0.00014447379
0.00016001298
0.00019413283
0.00021103863
0.00021062515
0.00021305659
0.00021772708
0.00022311411
0.00022903954
0.00023462052
0.00023770861
0.00023846615
0.00021712415
0.00018269579
0.00013407318
9.1021683e-05
6.4497673e-05
6.2430594e-05
7.7582329e-05
0.00010547992
0.0001452055
0.00019313637
0.00024938153
0.00029644296
0.0003490403
1.019191e-17
1.9821886e-15
5.2795966e-14
5.3522912e-13
3.2367063e-12
1.4338722e-11
5.1767572e-11
1.6194898e-10
4.5607735e-10
1.1857009e-09
2.8956588e-09
6.7262094e-09
1.4997999e-08
3.2325068e-08
6.770005e-08
1.3834692e-07
2.7675187e-07
5.4335541e-07
1.049249e-06
1.996405e-06
3.7481597e-06
6.9497946e-06
1.2722533e-05
2.2924391e-05
4.0301983e-05
6.7828889e-05
0.00010577119
0.00013778325
0.00014227275
0.00014322411
0.00014187439
0.00013982669
0.00013801824
0.00013678272
0.00013625454
0.00013656712
0.00013785544
0.00014019228
0.00014350142
0.00014821019
0.0001556727
0.00017155854
0.00020741117
0.00021552736
0.00021847341
0.00022325969
0.00022848202
0.0002338901
0.00023978389
0.00024599655
0.00024874727
0.00024915759
0.00022802011
0.00018558559
0.00013064245
8.2699776e-05
5.6654841e-05
5.7902188e-05
7.9196535e-05
0.00011745837
0.00017049585
0.0002321858
0.00029886615
0.00034745636
0.00039876914
8.6952227e-18
1.6911029e-15
4.5042854e-14
4.5662978e-13
2.7613811e-12
1.2232922e-11
4.4164231e-11
1.38159e-10
3.8906262e-10
1.0114024e-09
2.4697111e-09
5.735794e-09
1.2786317e-08
2.7548164e-08
5.7666037e-08
1.1775997e-07
2.3535088e-07
4.6151688e-07
8.8987134e-07
1.6900767e-06
3.1664641e-06
5.8587757e-06
1.0707806e-05
1.9295941e-05
3.4070408e-05
5.8081376e-05
9.3046979e-05
0.00013465394
0.00015962973
0.00016156077
0.00016018704
0.0001575694
0.00015499464
0.00015304185
0.00015191108
0.00015174874
0.00015265664
0.00015461829
0.00015781802
0.00016257887
0.00016952826
0.00018507715
0.00021784879
0.0002209168
0.00022602523
0.00023161303
0.00023681093
0.00024180961
0.00024839378
0.00025588523
0.0002596647
0.00025661302
0.00023167822
0.00018181405
0.00012040548
7.232733e-05
5.1270941e-05
5.8401272e-05
8.7254725e-05
0.00013776389
0.00020427605
0.00027793364
0.00034761892
0.00039046529
0.0004447275
7.2103022e-18
1.4023053e-15
3.7350633e-14
3.786474e-13
2.2897908e-12
1.0143716e-11
3.6621145e-11
1.1455929e-10
3.2259185e-10
8.3855136e-10
2.0474218e-09
4.7543011e-09
1.0595884e-08
2.2821115e-08
4.7747914e-08
9.7440632e-08
1.9456381e-07
3.8107459e-07
7.3363092e-07
1.3906768e-06
2.599678e-06
4.7984835e-06
8.7513122e-06
1.5757977e-05
2.7902175e-05
4.8068764e-05
7.8850975e-05
0.00011898719
0.00015973785
0.00018767802
0.00018643145
0.00018278155
0.00017886908
0.00017563348
0.00017339044
0.00017227142
0.0001723212
0.0001734273
0.00017639658
0.00018038026
0.00018567498
0.00020031807
0.0002210498
0.00022528007
0.0002324121
0.00023847398
0.0002431827
0.00024774617
0.00025303325
0.00025968099
0.00026314781
0.00025632642
0.00022452357
0.00016841203
0.00010607244
6.1785386e-05
4.7760998e-05
6.1748286e-05
0.00010040958
0.00016655454
0.00024690675
0.00032678322
0.00038759011
0.00043080358
0.00049047837
5.7961593e-18
1.1272729e-15
3.0025029e-14
3.0438166e-13
1.8406792e-12
8.1541301e-12
2.9438019e-11
9.2087238e-11
2.5930401e-10
6.7400538e-10
1.6455288e-09
3.8205816e-09
8.5132587e-09
1.8330324e-08
3.8335825e-08
7.8186034e-08
1.5598619e-07
3.0516677e-07
5.8660857e-07
1.10984e-06
2.0698409e-06
3.810411e-06
6.9312199e-06
1.245939e-05
2.2085332e-05
3.8335099e-05
6.4132725e-05
0.00010055083
0.00014247733
0.00017900044
0.00020200572
0.00021181469
0.00021422142
0.00020860064
0.00020404833
0.00020087427
0.00019902257
0.00019860171
0.00020002343
0.00020164608
0.00020399328
0.00021596961
0.00022269788
0.00022937427
0.00023747059
0.00024327184
0.00024755831
0.00025076509
0.00025468681
0.00025857874
0.00026089012
0.00025195031
0.00021267235
0.00015054681
8.9438224e-05
5.1743324e-05
4.6093037e-05
6.9665517e-05
0.00012184771
0.0002015377
0.00029188651
0.00036672665
0.00042091828
0.00046779721
0.00053553312
4.5035055e-18
8.7586883e-16
2.3328801e-14
2.3649707e-13
1.4301596e-12
6.3355309e-12
2.2872393e-11
7.1548047e-11
2.0146476e-10
5.2364715e-10
1.2783714e-09
2.9678562e-09
6.6122489e-09
1.4234125e-08
2.9759426e-08
6.0665075e-08
1.2094531e-07
2.3637642e-07
4.5374779e-07
8.5689726e-07
1.5943886e-06
2.9270243e-06
5.3085471e-06
9.5185645e-06
1.6862842e-05
2.9399907e-05
4.9917455e-05
8.0804446e-05
0.00012073163
0.00016137822
0.00019174276
0.00020729698
0.00021285629
0.00021309028
0.00021162714
0.00020966178
0.00020754277
0.00020625792
0.00020688858
0.00020866138
0.00021139714
0.00021648932
0.00022326899
0.00023068171
0.00024035345
0.00024739648
0.00025191709
0.00025441761
0.00025571898
0.00025755839
0.00025628527
0.00024292882
0.00019315877
0.00012821333
7.1805858e-05
4.5025536e-05
4.786337e-05
8.3223219e-05
0.00015182302
0.00024239152
0.00033312937
0.00039366361
0.00045316062
0.00050726314
0.00058442634
3.3717306e-18
6.5575402e-16
1.7466e-14
1.7706202e-13
1.0707391e-12
4.7433148e-12
1.7124186e-11
5.3566675e-11
1.5083188e-10
3.9203732e-10
9.5705319e-10
2.2218001e-09
4.9497361e-09
1.0654024e-08
2.2270178e-08
4.5383788e-08
9.0434231e-08
1.7660884e-07
3.3863092e-07
6.3846758e-07
1.1853884e-06
2.1702081e-06
3.923485e-06
7.0129507e-06
1.2398965e-05
2.1649539e-05
3.7110525e-05
6.1571797e-05
9.6361671e-05
0.0001375106
0.00017462739
0.00019853133
0.0002085073
0.00021128937
0.00021031026
0.00020807336
0.00020587126
0.0002045981
0.00020510704
0.00020681269
0.00020972608
0.00021514691
0.00022254392
0.00023098536
0.00024107114
0.00024852411
0.00025377258
0.00025608033
0.00025643738
0.00025581575
0.00025344147
0.00022187729
0.00016872553
0.00010392379
5.5748249e-05
4.0664814e-05
5.536073e-05
0.00010470881
0.00018907291
0.00028421494
0.00035951251
0.0004170268
0.00048363855
0.00054577964
0.00063205848
2.4252709e-18
4.716806e-16
1.2563184e-14
1.2735928e-13
7.701736e-13
3.4118307e-12
1.2317331e-11
3.8530381e-11
1.0849376e-10
2.8199633e-10
6.8842715e-10
1.5982097e-09
3.5605473e-09
7.6638833e-09
1.6019353e-08
3.2642075e-08
6.5029398e-08
1.2693925e-07
2.4320566e-07
4.5798124e-07
8.4873317e-07
1.5499372e-06
2.7931818e-06
4.9747744e-06
8.7672764e-06
1.5291113e-05
2.6327543e-05
4.439247e-05
7.2037307e-05
0.0001092798
0.00014985459
0.00018261289
0.00020125904
0.00020725667
0.00020800545
0.00020652695
0.00020412593
0.00020242926
0.0002025274
0.00020410539
0.00020685785
0.00021201239
0.00021936834
0.0002289899
0.00023997449
0.0002487785
0.00025481643
0.00025701526
0.00025680041
0.00025371641
0.00024198714
0.00019787318
0.00014258967
7.8421708e-05
4.3757816e-05
3.9447716e-05
7.0917785e-05
0.00013656028
0.00022948538
0.00032082509
0.00037899602
0.00044150322
0.00051442731
0.00058584558
0.00068064366
1.6717357e-18
3.2512854e-16
8.6597653e-15
8.7788219e-14
5.3087745e-13
2.3517669e-12
8.4903591e-12
2.6559368e-11
7.4787279e-11
1.9439278e-10
4.7458689e-10
1.1018492e-09
2.4549765e-09
5.2848591e-09
1.1048215e-08
2.2515761e-08
4.4860015e-08
8.7565089e-08
1.6772054e-07
3.1561634e-07
5.8414618e-07
1.0645452e-06
1.9127769e-06
3.3939332e-06
5.9566357e-06
1.0354151e-05
1.7824185e-05
3.0286942e-05
5.0310937e-05
8.0085836e-05
0.00011837652
0.00015740745
0.00018622845
0.00020119795
0.00020475821
0.00020398308
0.00020219987
0.00020044512
0.00019980673
0.00020075346
0.00020295678
0.00020693227
0.00021398677
0.00022337945
0.00023500409
0.00024595363
0.00025332621
0.00025556243
0.00025310447
0.00024721135
0.00021567179
0.00017266475
0.00010990388
5.5922849e-05
3.6645162e-05
4.5825673e-05
9.0828211e-05
0.00017770896
0.00027215088
0.00033779042
0.00039970691
0.00047027422
0.00054867277
0.00062613239
0.00072671648
1.1028015e-18
2.1447899e-16
5.7126219e-15
5.7911568e-14
3.5020606e-13
1.5514053e-12
5.6009402e-12
1.7521051e-11
4.9338213e-11
1.2825015e-10
3.1313274e-10
7.2709006e-10
1.6202845e-09
3.4888822e-09
7.2960758e-09
1.4875203e-08
2.965094e-08
5.7903925e-08
1.1094396e-07
2.0877667e-07
3.8620774e-07
7.0290381e-07
1.2600208e-06
2.2278761e-06
3.8923565e-06
6.7324027e-06
1.1544939e-05
1.9625507e-05
3.2949347e-05
5.4059496e-05
8.4828252e-05
0.00012324333
0.00016070222
0.0001867031
0.00019908362
0.00020144826
0.00020003017
0.00019778667
0.0001967952
0.00019723535
0.00019899746
0.00020128691
0.00020632619
0.00021430616
0.00022483944
0.00023515578
0.00024419023
0.00024356232
0.00023897803
0.00022178457
0.00018660373
0.00014276011
7.6209566e-05
4.0194383e-05
3.3933204e-05
6.1257645e-05
0.00012799211
0.00021754501
0.00029305968
0.00035126494
0.00041839323
0.00049682365
0.00058386105
0.00066921796
0.00077327094
6.9624649e-19
1.3540995e-16
3.6066269e-15
3.6562089e-14
2.2110045e-13
9.7947413e-13
3.53617e-12
1.1062195e-11
3.1151626e-11
8.098088e-11
1.9774123e-10
4.5922511e-10
1.0236034e-09
2.2048345e-09
4.6130477e-09
9.4111502e-09
1.8775001e-08
3.6701924e-08
7.0400478e-08
1.3262502e-07
2.4551014e-07
4.4678483e-07
7.9979634e-07
1.4100986e-06
2.4526539e-06
4.2175023e-06
7.1857885e-06
1.2151809e-05
2.0397549e-05
3.3862136e-05
5.5014401e-05
8.5633469e-05
0.00012358032
0.00016027054
0.00018461935
0.00019572267
0.00019780528
0.00019661823
0.00019437138
0.00019302983
0.00019411266
0.0001959207
0.00019838709
0.00020397359
0.00021088609
0.0002196825
0.00022331575
0.00022176999
0.00021450353
0.00018955146
0.00016222076
0.00010094647
4.8013103e-05
3.1378035e-05
4.0645852e-05
8.4477264e-05
0.00016626669
0.0002557672
0.00031240581
0.00037426619
0.00044144283
0.00052444491
0.0006171744
0.00070812657
0.00081401615
4.2156589e-19
8.1988533e-17
2.1837535e-15
2.213775e-14
1.3387281e-13
5.9305828e-13
2.1411254e-12
6.6982252e-12
1.8863247e-11
4.9039723e-11
1.1975996e-10
2.781745e-10
6.2021387e-10
1.336474e-09
2.7978404e-09
5.7124822e-09
1.1408426e-08
2.2332017e-08
4.2907905e-08
8.0987587e-08
1.5023006e-07
2.7392659e-07
4.9102902e-07
8.6543615e-07
1.5008397e-06
2.565246e-06
4.3351059e-06
7.2633143e-06
1.2091586e-05
2.00108e-05
3.2826493e-05
5.2897585e-05
8.2126266e-05
0.00011908748
0.00015516356
0.0001793107
0.00019134573
0.00019412383
0.00019322987
0.00019162776
0.00019022857
0.00018992158
0.00019118393
0.00019347755
0.00019705104
0.00020204773
0.00020232414
0.00019993653
0.0001893545
0.00016699195
0.00012605352
6.0268707e-05
3.232015e-05
2.9380575e-05
5.9242286e-05
0.00012887001
0.00021257433
0.00026979403
0.00032774891
0.00039697875
0.00047026213
0.00055714086
0.00065289453
0.00074736109
0.00085164159
2.4580832e-19
4.7806181e-17
1.2733104e-15
1.2908162e-14
7.8059078e-14
3.4580375e-13
1.2484712e-12
3.9057542e-12
1.0999629e-11
2.8598181e-11
6.9847389e-11
1.6226812e-10
3.6189096e-10
7.8015105e-10
1.634212e-09
3.3395794e-09
6.6775978e-09
1.3092629e-08
2.5207991e-08
4.7699929e-08
8.873855e-08
1.6229904e-07
2.9177961e-07
5.1557118e-07
8.955952e-07
1.5302659e-06
2.5732397e-06
4.2672948e-06
7.0090344e-06
1.144225e-05
1.8592273e-05
3.0018942e-05
4.7831908e-05
7.4027812e-05
0.00010921627
0.00014489446
0.00016992149
0.00018456565
0.00019003529
0.00018988155
0.00018907089
0.00018770846
0.00018693126
0.00018718202
0.00018839946
0.00018989664
0.00018904233
0.00018389518
0.00016924832
0.00013522236
7.1740293e-05
3.4314689e-05
2.4943705e-05
4.0041895e-05
8.8172699e-05
0.00016654624
0.00023586386
0.00026613046
0.00029864925
0.0003614897
0.00044552105
0.00057238862
0.00068481379
0.00078242477
0.00088474915
1.3884591e-19
2.7003532e-17
7.1923493e-16
7.2912363e-15
4.4092049e-14
1.953294e-13
7.0521227e-13
2.206245e-12
6.2135702e-12
1.6155746e-11
3.9462251e-11
9.1692761e-11
2.0454575e-10
4.4112534e-10
9.2458667e-10
1.8910615e-09
3.7858958e-09
7.4356046e-09
1.4348986e-08
2.7232022e-08
5.0844058e-08
9.3376955e-08
1.6860419e-07
2.9913081e-07
5.2119869e-07
8.9227693e-07
1.5025157e-06
2.4905233e-06
4.0648901e-06
6.5436369e-06
1.0432273e-05
1.6542956e-05
2.6097028e-05
4.076213e-05
6.2379384e-05
9.3498478e-05
0.00012813641
0.00015489381
0.00017236772
0.00018178807
0.0001854184
0.00018526201
0.00018448143
0.00018445666
0.00018472995
0.00018369351
0.00017861332
0.00016569575
0.00013453435
7.6739381e-05
3.4495098e-05
2.2283829e-05
2.8209555e-05
6.5231661e-05
0.00013655572
0.00019246996
0.00018034801
0.0002050308
0.00024368514
0.00029329416
0.00036458991
0.00047600147
0.00064225979
0.00081711203
0.00091520794
7.6444342e-20
1.4867332e-17
3.9598923e-16
4.0143384e-15
2.4275765e-14
1.0754263e-13
3.8827105e-13
1.2147142e-12
3.4211502e-12
8.8956392e-12
2.1730256e-11
5.0497724e-11
1.1267154e-10
2.4306544e-10
5.0970731e-10
1.0432746e-09
2.0908994e-09
4.1130095e-09
7.9545651e-09
1.5141447e-08
2.8380063e-08
5.2372133e-08
9.5090466e-08
1.6967984e-07
2.9725912e-07
5.1082926e-07
8.6118435e-07
1.4271616e-06
2.3298818e-06
3.7547099e-06
5.956659e-06
9.3043663e-06
1.4343899e-05
2.194275e-05
3.3214768e-05
4.9667923e-05
7.3603824e-05
0.00010305238
0.0001311491
0.00015079683
0.00015829241
0.00016852485
0.000175727
0.00017621118
0.00017399668
0.00016729173
0.00015242105
0.00012350722
7.11358e-05
3.2663812e-05
2.000307e-05
2.1407607e-05
4.9853836e-05
0.00010785633
0.00015244641
0.00014137782
0.0001552181
0.00017268209
0.00019846953
0.00024453332
0.00031226599
0.00041493164
0.00057034931
0.00084747819
0.00094016343
4.1467041e-20
8.0647464e-18
2.1480324e-16
2.1775637e-15
1.3168254e-14
5.8335621e-14
2.1061358e-13
6.5890843e-13
1.8557782e-12
4.8254845e-12
1.1788297e-11
2.7396955e-11
6.1139186e-11
1.3193088e-10
2.7677335e-10
5.6685631e-10
1.137127e-09
2.239864e-09
4.3403e-09
8.2843267e-09
1.5586757e-08
2.8912467e-08
5.2852498e-08
9.5124724e-08
1.6831662e-07
2.9224986e-07
4.9692231e-07
8.2642673e-07
1.3448849e-06
2.1480522e-06
3.3912871e-06
5.2972734e-06
8.1652905e-06
1.2340074e-05
1.8278488e-05
2.6631423e-05
3.845906e-05
5.4637233e-05
7.5866352e-05
9.7549251e-05
0.00011554219
0.00012889093
0.00013889969
0.00013878017
0.00013281295
0.00012035117
9.8162053e-05
5.5966631e-05
2.7492886e-05
1.7503595e-05
1.7245353e-05
3.8223175e-05
8.3969651e-05
0.00013025613
0.00010909237
0.00010877771
0.00011966378
0.00014246037
0.00017469653
0.00021306656
0.00026735166
0.00035916726
0.00050644561
0.00078880837
0.00096128401
2.288415e-20
4.4506369e-18
1.1854169e-16
1.2017054e-15
7.2668899e-15
3.2191642e-14
1.1621974e-13
3.6357787e-13
1.0239323e-12
2.6622698e-12
6.5031009e-12
1.5111995e-11
3.3719813e-11
7.2755693e-11
1.5262508e-10
3.1261331e-10
6.2728842e-10
1.2363842e-09
2.3986143e-09
4.5872895e-09
8.656871e-09
1.6127759e-08
2.9659297e-08
5.3806979e-08
9.6171003e-08
1.6901226e-07
2.9134516e-07
4.9134132e-07
8.0886624e-07
1.297751e-06
2.0304215e-06
3.1123432e-06
4.7186195e-06
7.0993621e-06
1.0571519e-05
1.5319833e-05
2.1672021e-05
2.996551e-05
4.0471888e-05
5.3440191e-05
6.7264429e-05
7.8815636e-05
8.6412798e-05
8.693011e-05
8.153595e-05
6.7361881e-05
3.6354847e-05
2.099514e-05
1.4707196e-05
1.4719948e-05
3.0587247e-05
6.694751e-05
0.00010852865
8.2224278e-05
7.7980434e-05
8.7063012e-05
0.00010131194
0.00011899163
0.00014449322
0.00018515795
0.00024562086
0.00033721253
0.00047873983
0.00074864897
0.00097909005
1.4541049e-20
2.828024e-18
7.5323643e-17
7.6357959e-16
4.6173682e-15
2.0453677e-14
7.383855e-14
2.3097671e-13
6.5043168e-13
1.6909616e-12
4.1299416e-12
9.5956818e-12
2.1407015e-11
4.6177875e-11
9.6841425e-11
1.9827898e-10
3.9767708e-10
7.8337371e-10
1.518769e-09
2.9026212e-09
5.4749347e-09
1.0200103e-08
1.8777398e-08
3.4154685e-08
6.1336051e-08
1.085521e-07
1.8883267e-07
3.2181369e-07
5.3548169e-07
8.6723425e-07
1.3645686e-06
2.0866116e-06
3.1020973e-06
4.5149188e-06
6.4768971e-06
9.2618081e-06
1.3072727e-05
1.8142488e-05
2.4275677e-05
3.175231e-05
3.9294099e-05
4.7456131e-05
5.0390408e-05
4.9265606e-05
3.8507271e-05
2.241595e-05
1.4924846e-05
1.1793812e-05
1.2651071e-05
2.5777166e-05
5.5698542e-05
8.5952157e-05
6.5325779e-05
6.2959634e-05
7.0642017e-05
8.1100563e-05
9.424149e-05
0.00011287002
0.00013794389
0.00017188494
0.00022028564
0.00030394931
0.00044064581
0.00070539649
0.00099553988
1.2681874e-20
2.4664444e-18
6.5693258e-17
6.6595291e-16
4.026976e-15
1.7838033e-14
6.4394254e-14
2.014281e-13
5.6720949e-13
1.4745866e-12
3.6014958e-12
8.3681276e-12
1.8669663e-11
4.0277302e-11
8.4480367e-11
1.730078e-10
3.4709185e-10
6.8397901e-10
1.3266803e-09
2.5369593e-09
4.7884847e-09
8.9280481e-09
1.6448927e-08
2.9941533e-08
5.3806633e-08
9.5318119e-08
1.6606752e-07
2.8357799e-07
4.7235443e-07
7.6335362e-07
1.1917362e-06
1.7958868e-06
2.6176506e-06
3.7135442e-06
5.1733834e-06
7.0792607e-06
9.568268e-06
1.2762138e-05
1.6765774e-05
2.1711094e-05
2.6984272e-05
2.9631036e-05
2.7771502e-05
2.0039108e-05
1.3266726e-05
1.0236798e-05
9.3567325e-06
1.0757504e-05
2.2796393e-05
4.8367583e-05
6.9763156e-05
5.5505518e-05
5.5337814e-05
5.9848498e-05
6.5611261e-05
7.2725923e-05
8.4977966e-05
0.00010196768
0.00012516592
0.00016048787
0.00021434113
0.00029827721
0.00043352872
0.00069375701
0.0010065147
1.4957054e-20
2.9089411e-18
7.7479806e-17
7.8545206e-16
4.749724e-15
2.1040517e-14
7.596041e-14
2.3763266e-13
6.6926225e-13
1.7402745e-12
4.2516865e-12
9.8828831e-12
2.2061094e-11
4.7627577e-11
9.9988625e-11
2.0500587e-10
4.1189229e-10
8.131709e-10
1.580885e-09
3.0316452e-09
5.742198e-09
1.0752075e-08
1.9912892e-08
3.6475653e-08
6.603642e-08
1.1796791e-07
2.0734424e-07
3.5694975e-07
5.9787452e-07
9.6635136e-07
1.4946565e-06
2.2011796e-06
3.0937319e-06
4.1927246e-06
5.5452657e-06
7.2290806e-06
9.3312133e-06
1.1801551e-05
1.417718e-05
1.6060357e-05
1.579473e-05
1.3361392e-05
9.6540154e-06
7.6558819e-06
6.9457861e-06
7.2572508e-06
9.5899381e-06
2.0519377e-05
4.4325068e-05
6.3012918e-05
5.1553802e-05
5.2149084e-05
5.4338707e-05
5.7925079e-05
6.3824754e-05
7.3397284e-05
8.5910758e-05
0.00010235354
0.00012564294
0.00015707133
0.0002034363
0.00028309932
0.00041495231
0.00067421908
0.0010152768
1.8386578e-20
3.5759445e-18
9.524658e-17
9.6559164e-16
5.8393709e-15
2.5869748e-14
9.3406951e-14
2.9226483e-13
8.2332914e-13
2.1415938e-12
5.2344042e-12
1.2173964e-11
2.719487e-11
5.8764629e-11
1.2351276e-10
2.5360722e-10
5.1047248e-10
1.010083e-09
1.9692242e-09
3.7893999e-09
7.2076751e-09
1.3564919e-08
2.5275904e-08
4.6634633e-08
8.5144281e-08
1.535555e-07
2.7260976e-07
4.7354271e-07
7.9756586e-07
1.2868934e-06
1.9643415e-06
2.8090101e-06
3.7609065e-06
4.7689001e-06
5.811365e-06
6.8405866e-06
7.7140141e-06
8.2689631e-06
8.1790888e-06
7.2190626e-06
5.7333541e-06
4.7886665e-06
4.5667788e-06
4.8870852e-06
5.7182937e-06
8.5732821e-06
1.9683612e-05
4.1849692e-05
6.2145326e-05
5.0980401e-05
5.1136659e-05
5.2413952e-05
5.5461858e-05
6.0047633e-05
6.6331046e-05
7.4429247e-05
8.5305362e-05
0.0001005992
0.00012212786
0.0001553426
0.00020415053
0.00028455854
0.00041707988
0.00067761433
0.0010219297
1.858486e-20
3.6145097e-18
9.6274131e-17
9.7602141e-16
5.9026075e-15
2.6151073e-14
9.4428717e-14
2.954864e-13
8.3249102e-13
2.1656994e-12
5.2941268e-12
1.2315088e-11
2.7515986e-11
5.9473408e-11
1.250391e-10
2.5682876e-10
5.171606e-10
1.0237779e-09
1.9969288e-09
3.8448289e-09
7.3173471e-09
1.3779207e-08
2.5688866e-08
4.7420787e-08
8.6620656e-08
1.5628863e-07
2.7747599e-07
4.8148815e-07
8.0836114e-07
1.2935775e-06
1.9381978e-06
2.6625396e-06
3.3214584e-06
3.8631335e-06
4.2188398e-06
4.3398152e-06
4.1573887e-06
3.6606444e-06
3.0772467e-06
2.7220104e-06
2.6531155e-06
2.9654406e-06
3.4719908e-06
4.7067467e-06
8.2387547e-06
1.9544014e-05
3.9462007e-05
6.7244169e-05
5.3423605e-05
5.3354676e-05
5.4245992e-05
5.6658309e-05
5.9686014e-05
6.3589436e-05
6.920385e-05
7.7311486e-05
8.895517e-05
0.00010485956
0.0001261183
0.00015645926
0.00020182607
0.00027946512
0.00041101262
0.00067465794
0.0010264931
1.4576679e-20
2.8349694e-18
7.5510554e-17
7.6552154e-16
4.6296149e-15
2.0511413e-14
7.4065387e-14
2.3176662e-13
6.5296253e-13
1.6985973e-12
4.1519511e-12
9.6568486e-12
2.1571864e-11
4.6610363e-11
9.7948892e-11
2.0105224e-10
4.044785e-10
7.9972998e-10
1.5573784e-09
2.9921536e-09
5.6789023e-09
1.0656332e-08
1.9777549e-08
3.6294099e-08
6.5787052e-08
1.175206e-07
2.060522e-07
3.5213695e-07
5.7959526e-07
9.035034e-07
1.307251e-06
1.7173757e-06
2.0347992e-06
2.2105867e-06
2.1865994e-06
1.9874817e-06
1.7226862e-06
1.5385827e-06
1.5136242e-06
1.5917047e-06
2.0593115e-06
2.7548239e-06
4.113104e-06
8.2883629e-06
1.8605691e-05
3.6859822e-05
6.5612601e-05
6.1679101e-05
5.9643255e-05
5.9818714e-05
6.015944e-05
6.1236737e-05
6.3388603e-05
6.7376286e-05
7.3408338e-05
8.2020033e-05
9.3340036e-05
0.00010872211
0.00012995918
0.00016132131
0.00020737014
0.00028593997
0.00041787537
0.00068709356
0.0010302068
8.9445292e-21
1.7395881e-18
4.6334282e-17
4.6972732e-16
2.840691e-15
1.2585201e-14
4.5441821e-14
1.4218443e-13
4.0052316e-13
1.0416843e-12
2.5454257e-12
5.9176188e-12
1.3210646e-11
2.8519401e-11
5.9861025e-11
1.2267767e-10
2.4628544e-10
4.8560651e-10
9.4224587e-10
1.8018294e-09
3.3990603e-09
6.3287201e-09
1.162975e-08
2.1078012e-08
3.7621198e-08
6.5946199e-08
1.1301139e-07
1.8797288e-07
3.0014774e-07
4.5303722e-07
6.3422763e-07
8.0607865e-07
9.2178208e-07
9.4938372e-07
9.1021754e-07
8.7692252e-07
8.5127558e-07
9.2393979e-07
1.1210227e-06
1.6023175e-06
2.4121462e-06
3.943414e-06
8.1040805e-06
1.7416849e-05
3.4311684e-05
6.1120803e-05
7.8352318e-05
7.1734946e-05
6.8682999e-05
6.6179599e-05
6.4880417e-05
6.5563316e-05
6.8026478e-05
7.221896e-05
7.8234491e-05
8.6555674e-05
9.7988566e-05
0.00011356254
0.00013459262
0.00016499489
0.00020978707
0.00028798825
0.00042050983
0.00069583786
0.00103168
4.6033898e-21
8.9529461e-19
2.384616e-17
2.4174319e-16
1.4619095e-15
6.4764615e-15
2.3383161e-14
7.3156478e-14
2.0604295e-13
5.3575041e-13
1.3086941e-12
3.040997e-12
6.7842975e-12
1.4632842e-11
3.0676356e-11
6.2765302e-11
1.2573578e-10
2.4721616e-10
4.7791698e-10
9.0953174e-10
1.7051795e-09
3.149676e-09
5.7292451e-09
1.0250418e-08
1.7999866e-08
3.0917246e-08
5.1675846e-08
8.3419188e-08
1.2870199e-07
1.8725599e-07
2.5336045e-07
3.1583412e-07
3.6547926e-07
4.1357072e-07
4.5687006e-07
5.2324087e-07
6.6492133e-07
8.9868921e-07
1.4014377e-06
2.2288609e-06
3.7596002e-06
7.5737015e-06
1.5946161e-05
3.2220308e-05
5.7232846e-05
8.7132867e-05
9.1893415e-05
8.2889691e-05
7.5410809e-05
7.1392536e-05
6.9712122e-05
7.0269926e-05
7.2416682e-05
7.6404178e-05
8.2428302e-05
9.1291968e-05
0.00010328042
0.0001195589
0.00014118354
0.00017229652
0.00021675934
0.00029455595
0.00042848025
0.00071040078
0.0010327572
2.202896e-21
4.2843165e-19
1.1411184e-17
1.1568025e-16
6.9954098e-16
3.0989251e-15
1.1187866e-14
3.4998865e-14
9.8559336e-14
2.5622242e-13
6.257136e-13
1.4534331e-12
3.2409492e-12
6.9857946e-12
1.4632647e-11
2.9906031e-11
5.9824001e-11
1.1740582e-10
2.2642903e-10
4.2961146e-10
8.0231803e-10
1.4747459e-09
2.6661629e-09
4.7341148e-09
8.237218e-09
1.3997975e-08
2.3127405e-08
3.6940102e-08
5.6682176e-08
8.2898422e-08
1.159828e-07
1.5683012e-07
2.0964562e-07
2.8361901e-07
3.8438302e-07
5.3779112e-07
7.9960075e-07
1.2730149e-06
2.0379602e-06
3.5157962e-06
6.9948398e-06
1.4739828e-05
3.0497955e-05
5.3598683e-05
8.0521516e-05
0.00010854093
0.00010398202
8.9207237e-05
8.0808189e-05
7.6174193e-05
7.415646e-05
7.4552773e-05
7.6740943e-05
8.1007991e-05
8.7408083e-05
9.6622124e-05
0.00010870633
0.00012508903
0.00014691
0.00017807843
0.00022335244
0.00030290684
0.00043817053
0.00072430181
0.0010317674
1.2601085e-21
2.4507288e-19
6.5274434e-18
6.617089e-17
4.0013888e-16
1.7725273e-15
6.3989523e-15
2.0016714e-14
5.636558e-14
1.46526e-13
3.578193e-13
8.3117118e-13
1.8535398e-12
3.9959596e-12
8.3726888e-12
1.7120884e-11
3.4276347e-11
6.7350114e-11
1.3012457e-10
2.4752987e-10
4.6398398e-10
8.5732296e-10
1.5613236e-09
2.800638e-09
4.9420633e-09
8.56384e-09
1.4539114e-08
2.4123375e-08
3.9057537e-08
6.162543e-08