/*--------------------------------*- C++ -*----------------------------------*\
  =========                 |
  \\      /  F ield         | OpenFOAM: The Open Source CFD Toolbox
   \\    /   O peration     | Website:  https://openfoam.org
    \\  /    A nd           | Version:  13
     \\/     M anipulation  |
\*---------------------------------------------------------------------------*/
FoamFile
{
    format      ascii;
    class       volScalarField;
    location    "19.395988";
    object      omega;
}
// * * * * * * * * * * * * * * * * * * * * * * * * * * * * * * * * * * * * * //

dimensions      [0 0 -1 0 0 0 0];

internalField   nonuniform List<scalar> 
17140
(
3736295.3
603677.77
185335.03
78621.189
40005.659
22785.895
13992.949
9062.5377
6103.9613
4235.7456
3008.5531
2176.8286
1598.7139
1188.4635
892.27091
675.29438
514.36399
393.71688
302.41759
232.75132
179.19772
137.76168
105.52952
80.37023
60.729783
45.480404
33.795013
25.03013
18.627321
14.064176
10.86431
8.6311736
7.0652528
5.9560686
5.161687
4.5878667
4.1718777
3.8712691
3.6565118
3.5063064
3.4044483
3.3382172
3.2978163
3.275719
3.2656277
3.2624509
3.2648789
3.2735352
3.2870628
3.3050108
3.327224
3.3535983
3.3839933
3.41802
3.4545602
3.491881
3.5288959
3.5593012
3.5846553
3.6065086
3.6285353
3.6606767
3.698369
3.7183879
3.6189869
3736320.9
603682.4
185336.73
78622.08
40006.206
22786.272
13993.233
9062.7657
6104.1554
4235.9191
3008.7146
2176.984
1598.8675
1188.6183
892.42906
675.4575
514.53306
393.89235
302.59937
232.93871
179.38938
137.9555
105.72247
80.55823
60.907638
45.642139
33.93486
25.144142
18.7148
14.127743
10.908529
8.6608822
7.0845517
5.9680423
5.1685153
4.591065
4.1725033
3.8700968
3.6540566
3.502941
3.4006041
3.3342446
3.2943146
3.2730772
3.2643695
3.2623352
3.2670363
3.2783725
3.2951947
3.317107
3.3440075
3.3760254
3.4134282
3.4564418
3.5049046
3.5581945
3.6156127
3.6751581
3.7381418
3.8036705
3.8705355
3.9309095
3.9823109
4.0042118
3.9157317
3736345.9
603686.52
185338.02
78622.648
40006.523
22786.483
13993.397
9062.9096
6104.2935
4236.06
3008.8637
2177.145
1599.043
1188.8102
892.63869
675.68568
514.78008
394.15792
302.88254
233.23777
179.70162
138.27701
106.04776
80.879876
61.216087
45.926178
34.183325
25.348907
18.873554
14.244355
10.990693
8.7170604
7.122041
5.9923902
5.1836801
4.599807
4.1767508
3.871224
3.6531644
3.5008366
3.397954
3.3317997
3.2932303
3.2739331
3.266982
3.2675468
3.2764564
3.2925983
3.3150512
3.3433856
3.3773291
3.4168903
3.4627394
3.5157057
3.5762385
3.6441576
3.7187143
3.7985421
3.8827926
3.9704269
4.0597381
4.1424546
4.2223368
4.2720531
4.1999539
3736372.1
603690.8
185339.37
78623.252
40006.868
22786.723
13993.593
9063.0905
6104.4741
4236.2493
3009.0678
2177.368
1599.2881
1189.0796
892.93412
676.00812
515.12993
394.53485
303.28537
233.66427
180.14825
138.73848
106.51654
81.345545
61.665013
46.342041
34.549505
25.65282
19.110901
14.420013
11.115489
8.8032694
7.1804175
6.031183
5.2088087
4.6154098
4.1857246
3.875644
3.6545863
3.5005688
3.3970441
3.331397
3.2946224
3.2783026
3.2737109
3.2787687
3.2931991
3.315543
3.3449144
3.3806667
3.4221392
3.4690587
3.5221124
3.582379
3.6504488
3.7258828
3.8074481
3.8928998
3.980259
4.0690958
4.1589029
4.2433737
4.3188146
4.3672285
4.2837453
3736400.1
603695.35
185340.79
78623.895
40007.243
22786.993
13993.824
9063.3106
6104.6995
4236.4898
3009.33
2177.6566
1599.6065
1189.4307
893.31975
676.42959
515.58774
395.02865
303.81377
234.22459
180.73613
139.34735
107.13688
81.964069
62.26405
46.90012
35.044257
26.066602
19.43667
14.66305
11.289535
8.9245495
7.2634363
6.0871992
5.245957
4.6393973
4.200551
3.8841738
3.6589611
3.5024876
3.3979993
3.3332817
3.2988169
3.2852478
3.2841071
3.2947247
3.3155162
3.3449118
3.3818132
3.4251352
3.4735634
3.5262655
3.5837882
3.6473399
3.7175607
3.7937714
3.8744128
3.9564376
4.037959
4.1208395
4.2058899
4.2876247
4.3499488
4.3828166
4.2394505
3736429.1
603700.06
185342.26
78624.569
40007.647
22787.294
13994.088
9063.5692
6104.9692
4236.7809
3009.6496
2178.01
1599.9977
1189.8628
893.79508
676.94972
516.15339
395.63956
304.46849
234.92012
181.46749
140.1069
107.91336
82.741535
63.021037
47.610065
35.678775
26.602243
19.862535
14.983801
11.521294
9.0874686
7.3760515
6.164134
5.2978764
4.673819
4.2227512
3.897925
3.6670712
3.5071742
3.4011422
3.3372261
3.3051223
3.2942611
3.2974006
3.3140717
3.3416919
3.3784548
3.4228673
3.4732055
3.5273039
3.5836617
3.6427289
3.706005
3.7744019
3.8473203
3.9228917
3.9975172
4.0708441
4.1479149
4.2300836
4.3111592
4.358967
4.3358923
4.078883
3736459.3
603704.91
185343.77
78625.275
40008.08
22787.623
13994.384
9063.8638
6105.28
4237.119
3010.0227
2178.4239
1600.4569
1190.3708
894.35476
677.56302
516.8214
396.36228
305.24461
235.74661
182.33906
141.01517
108.84576
83.679962
63.940663
48.479544
36.463591
27.272339
20.401735
15.394628
11.821252
9.3003588
7.5246386
6.2667856
5.3681618
4.7213678
4.254336
3.9183792
3.6799706
3.5153105
3.4068173
3.3429543
3.3132306
3.3046669
3.3126112
3.3353925
3.3698952
3.4138953
3.465357
3.5217809
3.5800585
3.6380689
3.6963833
3.7571134
3.8218087
3.8900027
3.9591007
4.0251523
4.0917412
4.1675383
4.2530313
4.3370503
4.3622953
4.2580715
3.7909326
3736490.6
603709.94
185345.34
78626.012
40008.538
22787.978
13994.708
9064.1896
6105.6262
4237.4975
3010.4417
2178.8897
1600.9747
1190.9446
894.98795
678.25812
517.58003
397.18496
306.13046
236.69294
183.34069
142.06353
109.9276
84.775691
65.022859
49.512706
37.407245
28.089141
21.068581
15.90984
12.202117
9.5736108
7.7172898
6.4013084
5.4614561
4.7855421
4.2979365
3.9474965
3.6990833
3.5278905
3.4157631
3.3511214
3.3220579
3.315957
3.3286183
3.357257
3.3983338
3.4491078
3.5069084
3.5683957
3.6295145
3.6876835
3.7438954
3.8013363
3.8624017
3.9258449
3.9884493
4.0472551
4.1118525
4.1947825
4.2929969
4.3792386
4.3639808
4.1421645
3.277757
3736522
603715.12
185346.98
78626.782
40009.017
22788.352
13995.053
9064.5389
6105.999
4237.9062
3010.8951
2179.3948
1601.537
1191.5689
895.67818
679.01752
518.41096
398.08874
307.107
237.7403
184.45439
143.23549
111.14467
86.017796
66.261061
50.708387
38.514593
29.063178
21.877605
16.545414
12.678941
9.9200074
7.964191
6.5755543
5.5837323
4.8708716
4.3569855
3.9878615
3.7263106
3.5462153
3.4286141
3.3614366
3.3321574
3.3277681
3.344481
3.3783611
3.425385
3.4822311
3.5455569
3.6111758
3.67414
3.7316062
3.7854326
3.8403212
3.8982229
3.9575398
4.0150717
4.0719264
4.1432642
4.2454962
4.3665312
4.4426523
4.3484858
3.9224166
2.4644785
3736555.2
603720.52
185348.68
78627.58
40009.514
22788.741
13995.412
9064.9022
6106.387
4238.3319
3011.368
2179.9222
1602.1251
1192.2232
896.40326
679.81743
519.28901
399.0473
308.14717
238.86143
185.6533
144.50539
112.47354
87.386278
67.640142
52.057842
39.784504
30.201188
22.842057
17.31823
13.269026
10.355017
8.2780595
6.7995096
5.7426708
4.9832274
4.4359701
4.042898
3.7642366
3.5721777
3.4466871
3.3747911
3.343648
3.3399137
3.3595457
3.3976727
3.4497206
3.511754
3.5797635
3.6487493
3.7129413
3.7695548
3.8219179
3.8752002
3.9307682
3.9883007
4.0455414
4.1108029
4.2031342
4.3426552
4.4883126
4.494823
4.2603947
3.3781525
1.5581203
3736589.7
603726.15
185350.46
78628.421
40010.035
22789.144
13995.778
9065.2698
6106.7778
4238.7598
3011.8431
2180.4525
1602.7172
1192.8831
897.13647
680.62889
520.18311
400.0277
309.21652
240.02083
186.90156
145.83787
113.88049
88.850516
69.134329
53.542182
41.206946
31.5032
23.971443
18.244494
13.991296
10.896866
8.6745657
7.0858111
5.9481458
5.1302359
4.5407734
4.1171528
3.8163706
3.6084591
3.4719906
3.3926313
3.357301
3.3526666
3.3736384
3.4146294
3.4704874
3.5366543
3.6085014
3.6802742
3.7454869
3.8020289
3.8544674
3.9074889
3.9641253
4.0256519
4.0934084
4.1839243
4.3195585
4.5139897
4.6426433
4.5116278
3.9673836
2.2287339
0.96251391
3736625.1
603731.94
185352.32
78629.285
40010.566
22789.547
13996.138
9065.6271
6107.1549
4239.1714
3012.2995
2180.9619
1603.2869
1193.5196
897.84585
681.41705
521.05563
400.98971
310.27247
241.17402
188.15341
147.18675
115.32005
90.36727
70.704602
55.129069
42.759027
32.958186
25.267415
19.336575
14.864494
11.565958
9.1725183
7.4502634
6.2128099
5.3218151
4.6791307
4.2166756
3.8874656
3.6587985
3.5074483
3.4172841
3.3748095
3.3670693
3.3873535
3.4294188
3.4875889
3.5566963
3.6315704
3.7057499
3.7724171
3.8308158
3.8854055
3.942286
4.0078432
4.0857285
4.1841417
4.327098
4.5365193
4.7723034
4.7326907
4.3498448
2.9744068
1.2424302
0.59743477
3736662.3
603737.99
185354.23
78630.165
40011.094
22789.939
13996.479
9065.9591
6107.5012
4239.5466
3012.7142
2181.4246
1603.8051
1194.1002
898.49553
682.14251
521.86356
401.88679
311.26513
242.26805
189.35332
148.49469
116.73414
91.87921
72.296429
56.769482
44.400655
34.538658
26.717783
20.597704
15.903529
12.383101
9.793486
7.9122059
6.5527317
5.5708384
4.8612258
4.34953
3.9839526
3.7283649
3.5572228
3.4522756
3.3991503
3.3853629
3.4024821
3.4433854
3.5021424
3.5729393
3.650176
3.7267978
3.796525
3.8599003
3.9213567
3.9915394
4.0817887
4.2004924
4.3649824
4.601097
4.9020601
4.9758187
4.7027017
3.7167046
1.5385884
0.70824492
0.40155275
3736699.8
603744.16
185356.18
78631.051
40011.613
22790.308
13996.789
9066.2527
6107.8013
4239.8678
3013.0671
2181.8177
1604.2456
1194.5952
899.0521
682.7679
522.5654
402.67309
312.1442
243.24822
190.44241
149.69907
118.05724
93.319212
73.843009
58.399744
46.075128
36.199725
28.294272
22.017965
17.115832
13.367074
10.560783
8.4945167
6.9879341
5.8938565
5.1004148
4.5264505
4.1145225
3.8242748
3.6271649
3.5026203
3.4349796
3.4116685
3.4226565
3.4595847
3.5171766
3.5885858
3.6679733
3.7480663
3.8243173
3.8987731
3.9779213
4.0803824
4.2268006
4.4328905
4.7204934
5.0890319
5.2785122
5.039415
4.152235
1.8921614
0.83811885
0.46063865
0.30509481
3736738.4
603750.51
185358.17
78631.944
40012.116
22790.65
13997.06
9066.4961
6108.041
4240.1184
3013.3388
2182.1186
1604.5828
1194.9755
899.4826
683.25604
523.11936
403.30186
312.85761
244.05685
191.35722
150.7307
119.21473
94.607993
75.261828
59.936498
47.702031
37.869433
29.940315
23.563528
18.489798
14.525951
11.494215
9.2213068
7.5418815
6.3114482
5.4139043
4.7615961
4.2908642
3.9563252
3.7256895
3.5756753
3.4889182
3.4519772
3.454176
3.483927
3.5387377
3.6103593
3.6929253
3.7796318
3.8694685
3.968763
4.0886132
4.2619144
4.5257654
4.9048278
5.3785871
5.6548806
5.4175228
4.5403309
2.2360477
0.98861213
0.51224302
0.34173339
0.25623711
3736780.4
603757.28
185360.25
78632.846
40012.6
22790.957
13997.284
9066.6803
6108.2094
4240.2853
3013.5139
2182.3092
1604.7957
1195.2169
899.75901
683.57471
523.48845
403.73072
313.35695
244.63882
192.03527
151.51914
120.12787
95.658444
76.45793
61.2784
49.176593
39.444781
31.562483
25.159276
19.979177
15.840954
12.599278
10.111532
8.238497
6.8473297
5.8229234
5.073174
4.5284375
4.1377783
3.8644599
3.6819086
3.5705365
3.5155552
3.5057826
3.5270254
3.5774572
3.6506152
3.7400623
3.8406403
3.9599338
4.1151858
4.3256967
4.6450621
5.1494659
5.817776
6.1275589
5.8646881
4.9181178
2.4954151
1.1101871
0.57641493
0.36330181
0.2840765
0.22530979
3736824.8
603764.3
185362.39
78633.754
40013.067
22791.228
13997.457
9066.8012
6108.3014
4240.3623
3013.5849
2182.3808
1604.8734
1195.3061
899.86532
683.70453
523.64928
403.93153
313.60846
244.95367
192.42816
152.00683
120.72863
96.391011
77.339468
62.321265
50.383619
40.803301
33.038424
26.694499
21.496494
17.258958
13.851798
11.166983
9.0946704
7.5245816
6.3512953
5.4832821
4.8469245
4.3860619
4.0591295
3.8357115
3.6934746
3.6159251
3.5912721
3.6052024
3.6509041
3.7305286
3.8356434
3.9663348
4.15364
4.4371224
4.842738
5.4634919
6.4169885
6.6856283
6.3731378
5.2873131
2.6314472
1.199809
0.62489027
0.39701926
0.29435025
0.24656958
0.20001701
3736869.6
603771.46
185364.57
78634.666
40013.513
22791.463
13997.582
9066.8607
6108.3194
4240.3518
3013.554
2182.3351
1604.8173
1195.2437
899.80076
683.64263
523.59589
403.89395
313.59595
244.97803
192.50417
152.15238
120.96476
96.741251
77.827914
62.969811
51.209546
41.813561
34.222771
28.019201
22.90222
18.667375
15.181548
12.353391
10.104817
8.3555107
7.0197625
6.0152018
5.2692515
4.7227396
4.3298592
4.0562303
3.8764637
3.7722122
3.7316209
3.7417339
3.7881535
3.8847064
4.0234205
4.2253542
4.5826857
5.1543076
5.9822829
7.1902802
7.3362649
6.9375196
5.6248219
2.6590606
1.2523299
0.66799548
0.42274602
0.31571313
0.25621046
0.21972419
0.18167555
3736913.9
603778.75
185366.79
78635.578
40013.942
22791.669
13997.665
9066.8682
6108.2739
4240.2659
3013.4348
2182.1874
1604.6442
1195.0478
899.58489
683.41006
523.35079
403.64181
313.34392
244.73527
192.28226
151.96585
120.83155
96.683398
77.872814
63.15019
51.557955
42.357065
34.972229
28.968412
24.020571
19.897685
16.447082
13.574027
11.216371
9.3213354
7.8316187
6.6842954
5.8163037
5.1706983
4.7000578
4.3671103
4.1438317
4.0105226
3.9573788
3.9713638
4.0319738
4.1645296
4.3855878
4.7830264
5.5785184
6.7746265
8.1785325
8.1354025
7.5636074
5.8677259
2.6902506
1.2943417
0.70437866
0.45038645
0.33300808
0.27543441
0.22724916
0.19772528
0.16497028
3736961
603786.36
185369.1
78636.513
40014.371
22791.859
13997.722
9066.8395
6108.183
4240.125
3013.2505
2181.9632
1604.3821
1194.7492
899.25094
683.04215
522.95104
403.21344
312.89169
244.26597
191.80519
151.49335
120.37938
96.270876
77.522342
62.886716
51.41027
42.358363
35.164873
29.38327
24.666123
20.746754
17.447241
14.652876
12.296443
10.337606
8.7432722
7.4759016
6.4915054
5.7438501
5.1897077
4.7924082
4.5235265
4.3642244
4.3104776
4.3390998
4.4404972
4.6758182
5.1409541
6.1153658
7.9789502
9.3177501
9.0909023
8.2266878
5.8967685
2.7194825
1.3310246
0.73935481
0.47725054
0.35332438
0.28960486
0.24165446
0.20335739
0.17968119
0.15259661
3737011.6
603794.39
185371.51
78637.482
40014.808
22792.045
13997.767
9066.7924
6108.0673
4239.9528
3013.028
2181.6931
1604.0655
1194.386
898.84082
682.58467
522.44616
402.66184
312.29524
243.62817
191.13176
150.79282
119.66376
95.55625
76.829285
62.2404
50.840006
41.895788
34.838568
29.223173
24.70322
21.015653
17.95153
15.355357
13.129782
11.228863
9.6278648
8.3085927
7.2493248
6.422305
5.7966606
5.343136
5.038758
4.8725871
4.8456979
4.9146581
5.1582754
5.7598524
6.9823358
9.5324534
10.500779
10.143872
8.8927503
5.798508
2.7059173
1.3563401
0.77301109
0.50618733
0.37517609
0.30592939
0.25268773
0.21569849
0.18598521
0.16554758
0.14223925
3737062.3
603802.54
185373.97
78638.48
40015.258
22792.236
13997.811
9066.7404
6107.9436
4239.7692
3012.7903
2181.4036
1603.7245
1193.9925
898.39303
682.08059
521.88375
402.03938
311.61171
242.8837
190.32816
149.93419
118.75728
94.61299
75.865045
61.276471
49.903612
41.019932
34.060934
28.582575
24.22791
20.720256
17.854502
15.474799
13.467746
11.751386
10.269081
9.0071612
7.9591366
7.1157203
6.4642612
5.9920193
5.693533
5.5827142
5.6400805
5.9102742
6.7075295
8.5382653
11.20534
11.726936
11.214965
9.5166846
5.5948183
2.6709366
1.380121
0.80794257
0.53875915
0.40090365
0.32464252
0.26424451
0.22380604
0.19548686
0.16985142
0.15350487
0.13274247
3737113.2
603810.86
185376.51
78639.507
40015.723
22792.436
13997.861
9066.6909
6107.8197
4239.5831
3012.5475
2181.1058
1603.3713
1193.582
897.92268
681.54717
521.28388
401.36973
310.86925
242.06606
189.43405
148.96401
117.7138
93.50227
74.697511
60.068193
48.677799
39.808829
32.902752
27.513654
23.293303
19.960269
17.284008
15.095569
13.271671
11.734877
10.442521
9.3469759
8.4218019
7.6604554
7.0710682
6.66961
6.4926191
6.5705569
6.9384819
8.0098027
10.66612
12.881021
12.980493
12.272347
10.107914
5.3944215
2.6502165
1.4130135
0.84975871
0.57541433
0.43170997
0.34501228
0.27745645
0.23386094
0.20280113
0.17796751
0.15754242
0.143007
0.12599372
3737167.7
603819.65
185379.16
78640.572
40016.202
22792.636
13997.903
9066.6285
6107.6782
4239.3751
3012.2787
2180.7782
1602.9845
1193.1343
897.41116
680.96831
520.63363
400.64378
310.06325
241.17592
188.45629
147.89622
116.55519
92.254406
73.365282
58.660783
47.209594
38.299798
31.375401
26.00455
21.846863
18.631763
16.13512
14.173075
12.595806
11.287107
10.185341
9.2616764
8.5165067
7.9388938
7.541747
7.4007469
7.5771587
8.2088609
9.7062642
12.997039
14.558329
14.266956
13.250866
10.476089
5.2735204
2.667902
1.4639818
0.90090791
0.61885417
0.46687449
0.36844526
0.29211014
0.24579786
0.21099488
0.18457416
0.16399238
0.14670443
0.13486497
0.11895696
3737225.4
603828.82
185381.93
78641.686
40016.701
22792.844
13997.944
9066.5593
6107.5257
4239.1522
3011.9912
2180.4281
1602.5711
1192.6553
896.86332
680.34744
519.93505
399.86255
309.19447
240.21492
187.39891
146.73914
115.29639
90.893824
71.905466
57.107587
45.572679
36.592632
29.619115
24.227658
20.089515
16.935996
14.547476
12.742868
11.375569
10.327098
9.5045686
8.8600158
8.3792459
8.1159643
8.1575283
8.5989623
9.672675
11.924789
15.155439
16.095731
15.672665
14.240376
10.675614
5.3204978
2.7447465
1.5368371
0.96422708
0.67069433
0.50811873
0.39420318
0.31008025
0.25926012
0.22097206
0.19177905
0.1703138
0.15299625
0.1376296
0.12679485
0.11425714
3737283.9
603838.23
185384.79
78642.84
40017.21
22793.046
13997.968
9066.4651
6107.3414
4238.8915
3011.6605
2180.0294
1602.104
1192.1181
896.25308
679.6609
519.16861
399.01243
308.25686
239.18627
186.2762
145.5202
113.98035
89.481483
70.399895
55.514834
43.902332
34.858675
27.84292
22.439672
18.320896
15.223325
12.931136
11.265324
10.079196
9.2576531
8.7191203
8.4428025
8.4516077
8.8147759
9.7351081
11.49775
14.229866
16.985894
17.495065
16.927399
15.08662
10.804229
5.4823551
2.8703183
1.63301
1.0384285
0.73280379
0.55319737
0.42300677
0.33116992
0.27634098
0.23212058
0.20046235
0.1766994
0.15846202
0.14258008
0.13050646
0.12098749
0.10909608
3737344.3
603848
185387.75
78644.035
40017.742
22793.26
13998
9066.3762
6107.1619
4238.6365
3011.3374
2179.6414
1601.6521
1191.6017
895.67095
679.01133
518.44971
398.22228
307.39364
238.24845
185.26273
144.43076
112.81559
88.243329
69.091739
54.141957
42.472647
33.383045
26.343682
20.94058
16.85257
13.823775
11.645478
10.14513
9.1912631
8.7095728
8.58604
8.8501548
9.6283281
11.208639
13.43004
16.335991
18.659021
18.803066
18.107885
15.920224
11.040722
5.7222427
3.0403881
1.7508934
1.1256645
0.80250285
0.60146606
0.45422751
0.35755572
0.29622061
0.24596085
0.21015205
0.18479398
0.16415253
0.14828518
0.13548425
0.12387356
0.1155314
0.10571274
3737407.1
603858.14
185390.85
78645.311
40018.348
22793.556
13998.125
9066.3947
6107.1064
4238.5238
3011.1765
2179.4371
1601.4066
1191.3159
895.34478
678.6442
518.04075
397.77055
306.89831
237.70881
184.67826
143.80128
112.1414
87.525424
68.332137
53.344093
41.642004
32.52823
25.477405
20.09265
16.059753
13.133038
11.113365
9.854396
9.2543867
9.1656906
9.6373037
10.811098
12.756477
15.324559
18.185022
20.274507
20.133194
19.279022
16.762693
11.395044
6.0916527
3.2807685
1.892647
1.2287125
0.88152105
0.65419422
0.4934616
0.3905172
0.32073884
0.2618664
0.22280766
0.19382828
0.17137872
0.15370163
0.14008795
0.12792002
0.11880599
0.11098176
0.10254373
3737471.9
603868.62
185394.09
78646.686
40019.05
22793.959
13998.376
9066.5614
6107.223
4238.6095
3011.2425
2179.4905
1601.4518
1191.3557
895.38115
678.67813
518.07268
397.80042
306.92556
237.73247
184.69698
143.81341
112.1452
87.519485
68.316178
53.320032
41.615648
32.511767
25.485906
20.143202
16.183733
13.375884
11.542601
10.578925
10.368361
10.917506
12.273032
14.418288
17.194126
20.049741
21.974246
21.623792
20.524689
17.574971
11.879734
6.5468479
3.5548365
2.052331
1.3411329
0.96446768
0.71315992
0.53946125
0.42857252
0.3460809
0.28046931
0.2373155
0.20518797
0.17922686
0.16053479
0.14494383
0.13289673
0.12275402
0.11435946
0.10757885
0.1001414
3737539.4
603879.58
185397.46
78648.16
40019.846
22794.466
13998.748
9066.8685
6107.5022
4238.8822
3011.5222
2179.7862
1601.7701
1191.7016
895.75844
679.08993
518.52146
398.28811
307.4536
238.30177
185.308
144.46614
112.83926
88.254327
69.091551
54.136871
42.477302
33.425777
26.466728
21.213299
17.380092
14.759425
13.223163
12.671989
13.034505
14.28061
16.453694
19.300554
22.165779
23.854866
23.393451
21.933652
18.419089
12.48786
7.0632309
3.8369056
2.2251109
1.463652
1.058143
0.78386562
0.59619404
0.47071929
0.37592763
0.30361631
0.25703523
0.21864098
0.1897041
0.16813295
0.15135636
0.13762629
0.12693111
0.11770176
0.11037997
0.10399725
0.097975718
3737610.3
603890.99
185400.98
78649.708
40020.696
22795.022
13999.171
9067.2324
6107.846
4239.2289
3011.8868
2180.179
1602.1992
1192.1735
896.27864
679.66342
519.15282
398.98164
308.21339
239.13184
186.2123
145.44874
113.90448
89.40712
70.338003
55.485033
43.938982
35.018142
28.215447
23.158695
19.581309
17.300752
16.202814
16.221485
17.143763
19.190232
21.943292
24.733825
25.978639
25.305008
23.487651
19.347769
13.196087
7.6211919
4.1324001
2.4161766
1.6028773
1.1661274
0.86573832
0.65895622
0.51632303
0.40906765
0.33262917
0.27896076
0.23449311
0.20108571
0.17769274
0.1581016
0.14358108
0.13119161
0.1218781
0.11358784
0.10728272
0.10193679
0.096445873
3737682.9
603902.72
185404.62
78651.288
40021.546
22795.56
13999.563
9067.5554
6108.1398
4239.5173
3012.1853
2180.4987
1602.5487
1192.5603
896.70964
680.14532
519.69246
399.58623
308.89074
239.89053
187.062
146.40049
114.9712
90.604158
71.684302
57.003554
45.658124
36.974497
30.456073
25.74463
22.591209
20.832343
20.36684
20.969238
22.637457
25.24078
27.775011
28.333001
27.399935
25.122772
20.316068
13.935665
8.1751009
4.4438043
2.6263091
1.7599336
1.2854989
0.95589489
0.72847142
0.56869639
0.45056671
0.36699891
0.30517592
0.25252957
0.21642277
0.18877807
0.16712421
0.15003724
0.13692543
0.12609049
0.1173603
0.11041223
0.10446033
0.099224893
0.094958031
3737758.4
603914.96
185408.38
78652.897
40022.386
22796.064
13999.904
9067.8113
6108.3525
4239.7113
3012.3763
2180.6984
1602.7664
1192.8042
896.98782
680.46628
520.06546
400.02171
309.40071
240.48903
187.76557
147.2288
115.94776
91.757315
73.048039
58.619481
47.576743
39.256941
33.175777
28.987249
26.449998
25.393677
25.611874
26.746235
28.851319
30.959674
30.824846
29.584539
26.661216
21.30366
14.696854
8.7365206
4.7971301
2.86267
1.9368318
1.4177868
1.0556062
0.80835363
0.6307923
0.4994266
0.4053763
0.33309263
0.27527838
0.23448796
0.20308008
0.1770252
0.1585715
0.14295886
0.13140445
0.12113413
0.11390406
0.10688603
0.1021049
0.09791807
0.093843107
3737836.4
603927.56
185412.25
78654.553
40023.244
22796.572
14000.239
9068.0555
6108.5492
4239.8861
3012.5461
2180.8755
1602.9611
1193.0262
897.24682
680.77278
520.43135
400.46082
309.92941
241.12689
188.53621
148.16075
117.07564
93.123001
74.701986
60.622042
49.999175
42.180638
36.688092
33.170498
31.359405
31.022264
31.602087
32.921088
34.132168
33.451909
31.804492
28.156665
22.321405
15.474923
9.3030764
5.1848055
3.1336297
2.1351844
1.5608703
1.1666976
0.89844403
0.70258083
0.55477231
0.44810589
0.36622592
0.30316033
0.25748561
0.21867431
0.18972213
0.16771867
0.1508499
0.13687735
0.12630746
0.11755579
0.11039314
0.10498298
0.10010958
0.095895505
0.092658002
3737916.9
603940.57
185416.26
78656.287
40024.166
22797.139
14000.637
9068.3702
6108.8264
4240.1533
3012.8221
2181.1747
1603.2958
1193.4081
897.68822
681.28709
521.03385
401.16943
310.76544
242.116
189.70944
149.55582
118.73812
95.107523
77.072896
63.445519
53.353597
46.141865
41.313387
38.471246
37.262405
37.315703
37.8162
37.597375
36.385498
33.990584
29.654393
23.343403
16.214012
9.855671
5.6058119
3.4419087
2.3519425
1.7145714
1.2900504
1.0015519
0.78353418
0.61905556
0.49767734
0.40587088
0.33610254
0.28281187
0.2379255
0.20453259
0.18048827
0.15979606
0.14468103
0.13180224
0.12237391
0.11380843
0.10797126
0.1021735
0.098221272
0.095007978
0.091976488
3738001.3
603954.21
185420.49
78658.142
40025.182
22797.8
14001.136
9068.7986
6109.2343
4240.5715
3013.2719
2181.6733
1603.8586
1194.0503
898.42573
682.13761
522.01765
402.31028
312.09165
243.66162
191.51566
151.67251
121.22344
98.022968
80.471034
67.37151
57.862931
51.258953
46.998472
44.5828
43.507484
42.829176
41.403143
39.197826
36.135099
31.070588
24.27345
16.88404
10.432028
6.1031189
3.8092127
2.5962145
1.8858798
1.4309349
1.1183839
0.87587752
0.69190119
0.55637916
0.45149173
0.37332555
0.31174907
0.2613314
0.22431285
0.1944261
0.17103584
0.15250092
0.13884242
0.12706867
0.11848032
0.11104241
0.10528925
0.10087823
0.097080448
0.093684362
0.091077637
3738088.5
603968.36
185424.91
78660.111
40026.293
22798.56
14001.745
9069.3539
6109.7891
4241.1596
3013.918
2182.3979
1604.6807
1194.9889
899.50135
683.3732
523.43961
403.94959
313.98488
245.85143
194.05064
154.60501
124.60733
101.91167
84.912612
72.388161
63.406081
57.238666
53.192548
50.479143
48.07258
45.349002
42.324849
38.296654
32.453072
25.198463
17.631538
11.14473
6.7170358
4.2287201
2.8536008
2.066626
1.5839108
1.2456867
0.97832559
0.77597809
0.62375067
0.50593781
0.41555887
0.3461257
0.28996165
0.24739594
0.21169395
0.18377846
0.16397465
0.14688488
0.13423119
0.12345319
0.11545333
0.10847657
0.10345485
0.098784095
0.095431409
0.092867999
0.090475366
3738178.6
603983.01
185429.5
78662.193
40027.504
22799.423
14002.471
9070.0428
6110.4981
4241.9259
3014.7695
2183.3584
1605.7728
1196.2357
900.92771
685.00641
525.31018
406.09133
316.43483
248.64944
197.23775
158.22063
128.68356
106.46457
89.935063
77.821929
69.070968
62.755661
57.940829
53.811243
49.869772
45.784933
40.632157
33.98252
26.29184
18.561235
11.997826
7.3970588
4.6623082
3.1223075
2.2737065
1.7643289
1.3944913
1.099241
0.87566922
0.70354765
0.56861958
0.46609174
0.38534474
0.32351851
0.27379008
0.23228862
0.20080807
0.17647512
0.15728754
0.1412438
0.12990033
0.11968069
0.11265861
0.10605385
0.1015058
0.097709008
0.094686902
0.092083884
0.089860309
3738271.2
603998.16
185434.29
78664.398
40028.824
22800.397
14003.318
9070.8703
6111.3657
4242.8737
3015.8281
2184.5538
1607.1301
1197.7802
902.68612
687.0073
527.5841
408.67028
319.35071
251.9308
200.90439
162.27506
133.0985
111.16582
94.780257
82.602034
73.453526
66.303338
60.358222
55.007766
49.590022
43.20814
35.729116
27.594125
19.669275
12.967359
8.1483858
5.1609071
3.4628363
2.5395704
1.9752276
1.556406
1.2303561
0.98489548
0.79214654
0.64031584
0.52398971
0.43297642
0.36110531
0.30523117
0.25775419
0.2218861
0.19241329
0.16870532
0.15161974
0.13695941
0.12621925
0.11696917
0.11014567
0.10442432
0.10013356
0.096292347
0.093431278
0.091332933
0.089520996
3738367.1
604011.06
185436.91
78664.889
40028.893
22800.451
14003.482
9071.1906
6111.8644
4243.5649
3016.7248
2185.6701
1608.4818
1199.3853
904.56455
689.18061
530.07401
411.49643
322.5269
255.45921
204.76727
166.42361
137.43919
115.54555
98.972762
86.29682
76.34511
68.147016
60.951022
53.843754
46.161519
37.830473
29.222086
21.054035
14.148782
9.0642572
5.7949633
3.8929739
2.8401664
2.1903071
1.7247389
1.3790245
1.1153729
0.90027408
0.72876098
0.59514147
0.48938008
0.4067473
0.34058915
0.28879773
0.24623363
0.2111828
0.18377778
0.16303232
0.14684946
0.13274687
0.1231073
0.11413101
0.10821439
0.10233092
0.098562812
0.095273735
0.092905763
0.090818887
0.089022247
3739014.3
604121.75
185474.23
78682.645
40039.052
22807.049
14008.204
9074.8519
6114.9081
4246.2535
3019.2265
2188.1004
1610.925
1201.9061
907.21448
692.00032
533.09381
414.73423
325.98393
259.11354
208.56521
170.27003
141.1888
118.99901
101.88313
88.390374
77.390492
67.816348
58.69794
49.537008
40.224425
31.030563
22.527395
15.366508
10.001583
6.4519203
4.329908
3.1348167
2.4111222
1.9186687
1.5561299
1.2642336
1.0189056
0.82421227
0.6722117
0.5513882
0.45713273
0.38249034
0.32234938
0.27528863
0.23391858
0.2028347
0.17758012
0.15705117
0.14205184
0.12907163
0.1199436
0.11174444
0.10601753
0.10124429
0.097633135
0.094413796
0.091978395
0.090103729
0.088754049
3739013.7
604118.77
185471.87
78680.975
40037.996
22806.45
14007.96
9074.9053
6115.2251
4246.8172
3020.0302
2189.1442
1612.2129
1203.4441
909.00755
694.04968
535.3924
417.26127
328.698
261.94456
211.40637
172.97165
143.55721
120.80681
102.90076
88.323239
75.775368
64.363154
53.535467
43.095449
33.193564
24.251133
16.772783
11.103217
7.2542803
4.8804465
3.5146908
2.6980404
2.1565794
1.7516448
1.4192473
1.1473003
0.93500001
0.7657374
0.62870664
0.51982471
0.43288445
0.36348474
0.30720561
0.26237718
0.22475092
0.19458609
0.17038886
0.15222005
0.13829731
0.12584945
0.11751502
0.10968644
0.10453903
0.099397399
0.096246112
0.093356675
0.09156587
0.089779553
0.088519461
3739013.8
604118.94
185472.05
78681.23
40038.328
22806.866
14008.469
9075.5162
6115.9484
4247.6636
3021.0102
2190.2679
1613.4886
1204.8767
910.59624
695.78445
537.24974
419.19883
330.64875
263.81138
213.0591
174.25119
144.27339
120.7136
101.6547
85.65354
71.649303
58.943985
47.2001
36.416592
26.848194
18.856391
12.699958
8.3841842
5.6166515
3.9841282
3.0191476
2.4026131
1.9539309
1.5956648
1.3074031
1.0741221
0.87873945
0.71874361
0.59181567
0.49041395
0.41026821
0.34607999
0.29363791
0.25255064
0.21574482
0.18813767
0.16584354
0.14777697
0.13454293
0.12272407
0.11502339
0.10754669
0.10278818
0.098443081
0.095607347
0.092844187
0.090808143
0.0892599
0.088272799
3739014
604119.07
185472.17
78681.388
40038.533
22807.125
14008.788
9075.903
6116.4096
4248.2061
3021.6403
2190.9898
1614.3037
1205.7808
911.57719
696.81847
538.29742
420.20102
331.52359
264.44878
213.31307
173.92646
143.13581
118.5527
98.365905
81.236657
66.244942
52.857672
40.887378
30.412755
21.647574
14.783356
9.830774
6.5571548
4.5788907
3.4234159
2.7146973
2.2179384
1.8266808
1.5045564
1.2333522
1.0062335
0.8243374
0.67993661
0.56315494
0.46930446
0.39397631
0.33311519
0.28331264
0.24342883
0.20913208
0.18238011
0.16053599
0.1440657
0.13177703
0.12052711
0.11320943
0.10623623
0.1017572
0.097433658
0.094556187
0.092013862
0.090530895
0.089053287
0.088082193
3739014.9
604119.19
185472.23
78681.444
40038.606
22807.222
14008.912
9076.0574
6116.5989
4248.4334
3021.907
2191.2949
1614.6413
1206.1387
911.93337
697.1381
538.52842
420.26898
331.32471
263.85074
212.16457
172.07876
140.4677
114.98905
93.910179
76.003303
60.477563
46.918065
35.205437
25.402061
17.609619
11.838986
7.8956838
5.4306575
3.9742865
3.1004709
2.5159703
2.0720246
1.7099538
1.4077601
1.1589576
0.95675468
0.78908036
0.65062582
0.53926417
0.44974859
0.37844827
0.32086851
0.27341651
0.23638189
0.20268187
0.17750522
0.15723634