/*--------------------------------*- C++ -*----------------------------------*\
  =========                 |
  \\      /  F ield         | OpenFOAM: The Open Source CFD Toolbox
   \\    /   O peration     | Website:  https://openfoam.org
    \\  /    A nd           | Version:  13
     \\/     M anipulation  |
\*---------------------------------------------------------------------------*/
FoamFile
{
    format      ascii;
    class       volVectorField;
    location    "4000";
    object      C;
}
// * * * * * * * * * * * * * * * * * * * * * * * * * * * * * * * * * * * * * //

dimensions      [0 1 0 0 0 0 0];

internalField   nonuniform List<vector> 
25000
(
(0.001 7.8576e-06 0.005)
(0.003 7.8576e-06 0.005)
(0.005 7.8576e-06 0.005)
(0.007 7.8576e-06 0.005)
(0.009 7.8576e-06 0.005)
(0.011 7.8576e-06 0.005)
(0.013 7.8576e-06 0.005)
(0.015 7.8576e-06 0.005)
(0.017 7.8576e-06 0.005)
(0.019 7.8576e-06 0.005)
(0.021 7.8576e-06 0.005)
(0.023 7.8576e-06 0.005)
(0.025 7.8576e-06 0.005)
(0.027 7.8576e-06 0.005)
(0.029 7.8576e-06 0.005)
(0.031 7.8576e-06 0.005)
(0.033 7.8576e-06 0.005)
(0.035 7.8576e-06 0.005)
(0.037 7.8576e-06 0.005)
(0.039 7.8576e-06 0.005)
(0.041 7.8576e-06 0.005)
(0.043 7.8576e-06 0.005)
(0.045 7.8576e-06 0.005)
(0.047 7.8576e-06 0.005)
(0.049 7.8576e-06 0.005)
(0.051 7.8576e-06 0.005)
(0.053 7.8576e-06 0.005)
(0.055 7.8576e-06 0.005)
(0.057 7.8576e-06 0.005)
(0.059 7.8576e-06 0.005)
(0.061 7.8576e-06 0.005)
(0.063 7.8576e-06 0.005)
(0.065 7.8576e-06 0.005)
(0.067 7.8576e-06 0.005)
(0.069 7.8576e-06 0.005)
(0.071 7.8576e-06 0.005)
(0.073 7.8576e-06 0.005)
(0.075 7.8576e-06 0.005)
(0.077 7.8576e-06 0.005)
(0.079 7.8576e-06 0.005)
(0.081 7.8576e-06 0.005)
(0.083 7.8576e-06 0.005)
(0.085 7.8576e-06 0.005)
(0.087 7.8576e-06 0.005)
(0.089 7.8576e-06 0.005)
(0.091 7.8576e-06 0.005)
(0.093 7.8576e-06 0.005)
(0.095 7.8576e-06 0.005)
(0.097 7.8576e-06 0.005)
(0.099 7.8576e-06 0.005)
(0.001 2.3692e-05 0.005)
(0.003 2.3692e-05 0.005)
(0.005 2.3692e-05 0.005)
(0.007 2.3692e-05 0.005)
(0.009 2.3692e-05 0.005)
(0.011 2.3692e-05 0.005)
(0.013 2.3692e-05 0.005)
(0.015 2.3692e-05 0.005)
(0.017 2.3692e-05 0.005)
(0.019 2.3692e-05 0.005)
(0.021 2.3692e-05 0.005)
(0.023 2.3692e-05 0.005)
(0.025 2.3692e-05 0.005)
(0.027 2.3692e-05 0.005)
(0.029 2.3692e-05 0.005)
(0.031 2.3692e-05 0.005)
(0.033 2.3692e-05 0.005)
(0.035 2.3692e-05 0.005)
(0.037 2.3692e-05 0.005)
(0.039 2.3692e-05 0.005)
(0.041 2.3692e-05 0.005)
(0.043 2.3692e-05 0.005)
(0.045 2.3692e-05 0.005)
(0.047 2.3692e-05 0.005)
(0.049 2.3692e-05 0.005)
(0.051 2.3692e-05 0.005)
(0.053 2.3692e-05 0.005)
(0.055 2.3692e-05 0.005)
(0.057 2.3692e-05 0.005)
(0.059 2.3692e-05 0.005)
(0.061 2.3692e-05 0.005)
(0.063 2.3692e-05 0.005)
(0.065 2.3692e-05 0.005)
(0.067 2.3692e-05 0.005)
(0.069 2.3692e-05 0.005)
(0.071 2.3692e-05 0.005)
(0.073 2.3692e-05 0.005)
(0.075 2.3692e-05 0.005)
(0.077 2.3692e-05 0.005)
(0.079 2.3692e-05 0.005)
(0.081 2.3692e-05 0.005)
(0.083 2.3692e-05 0.005)
(0.085 2.3692e-05 0.005)
(0.087 2.3692e-05 0.005)
(0.089 2.3692e-05 0.005)
(0.091 2.3692e-05 0.005)
(0.093 2.3692e-05 0.005)
(0.095 2.3692e-05 0.005)
(0.097 2.3692e-05 0.005)
(0.099 2.3692e-05 0.005)
(0.001 3.97666e-05 0.005)
(0.003 3.97666e-05 0.005)
(0.005 3.97666e-05 0.005)
(0.007 3.97666e-05 0.005)
(0.009 3.97666e-05 0.005)
(0.011 3.97666e-05 0.005)
(0.013 3.97666e-05 0.005)
(0.015 3.97666e-05 0.005)
(0.017 3.97666e-05 0.005)
(0.019 3.97666e-05 0.005)
(0.021 3.97666e-05 0.005)
(0.023 3.97666e-05 0.005)
(0.025 3.97666e-05 0.005)
(0.027 3.97666e-05 0.005)
(0.029 3.97666e-05 0.005)
(0.031 3.97666e-05 0.005)
(0.033 3.97666e-05 0.005)
(0.035 3.97666e-05 0.005)
(0.037 3.97666e-05 0.005)
(0.039 3.97666e-05 0.005)
(0.041 3.97666e-05 0.005)
(0.043 3.97666e-05 0.005)
(0.045 3.97666e-05 0.005)
(0.047 3.97666e-05 0.005)
(0.049 3.97666e-05 0.005)
(0.051 3.97666e-05 0.005)
(0.053 3.97666e-05 0.005)
(0.055 3.97666e-05 0.005)
(0.057 3.97666e-05 0.005)
(0.059 3.97666e-05 0.005)
(0.061 3.97666e-05 0.005)
(0.063 3.97666e-05 0.005)
(0.065 3.97666e-05 0.005)
(0.067 3.97666e-05 0.005)
(0.069 3.97666e-05 0.005)
(0.071 3.97666e-05 0.005)
(0.073 3.97666e-05 0.005)
(0.075 3.97666e-05 0.005)
(0.077 3.97666e-05 0.005)
(0.079 3.97666e-05 0.005)
(0.081 3.97666e-05 0.005)
(0.083 3.97666e-05 0.005)
(0.085 3.97666e-05 0.005)
(0.087 3.97666e-05 0.005)
(0.089 3.97666e-05 0.005)
(0.091 3.97666e-05 0.005)
(0.093 3.97666e-05 0.005)
(0.095 3.97666e-05 0.005)
(0.097 3.97666e-05 0.005)
(0.099 3.97666e-05 0.005)
(0.001 5.60849e-05 0.005)
(0.003 5.60849e-05 0.005)
(0.005 5.60849e-05 0.005)
(0.007 5.60849e-05 0.005)
(0.009 5.60849e-05 0.005)
(0.011 5.60849e-05 0.005)
(0.013 5.60849e-05 0.005)
(0.015 5.60849e-05 0.005)
(0.017 5.60849e-05 0.005)
(0.019 5.60849e-05 0.005)
(0.021 5.60849e-05 0.005)
(0.023 5.60849e-05 0.005)
(0.025 5.60849e-05 0.005)
(0.027 5.60849e-05 0.005)
(0.029 5.60849e-05 0.005)
(0.031 5.60849e-05 0.005)
(0.033 5.60849e-05 0.005)
(0.035 5.60849e-05 0.005)
(0.037 5.60849e-05 0.005)
(0.039 5.60849e-05 0.005)
(0.041 5.60849e-05 0.005)
(0.043 5.60849e-05 0.005)
(0.045 5.60849e-05 0.005)
(0.047 5.60849e-05 0.005)
(0.049 5.60849e-05 0.005)
(0.051 5.60849e-05 0.005)
(0.053 5.60849e-05 0.005)
(0.055 5.60849e-05 0.005)
(0.057 5.60849e-05 0.005)
(0.059 5.60849e-05 0.005)
(0.061 5.60849e-05 0.005)
(0.063 5.60849e-05 0.005)
(0.065 5.60849e-05 0.005)
(0.067 5.60849e-05 0.005)
(0.069 5.60849e-05 0.005)
(0.071 5.60849e-05 0.005)
(0.073 5.60849e-05 0.005)
(0.075 5.60849e-05 0.005)
(0.077 5.60849e-05 0.005)
(0.079 5.60849e-05 0.005)
(0.081 5.60849e-05 0.005)
(0.083 5.60849e-05 0.005)
(0.085 5.60849e-05 0.005)
(0.087 5.60849e-05 0.005)
(0.089 5.60849e-05 0.005)
(0.091 5.60849e-05 0.005)
(0.093 5.60849e-05 0.005)
(0.095 5.60849e-05 0.005)
(0.097 5.60849e-05 0.005)
(0.099 5.60849e-05 0.005)
(0.001 7.26508e-05 0.005)
(0.003 7.26508e-05 0.005)
(0.005 7.26508e-05 0.005)
(0.007 7.26508e-05 0.005)
(0.009 7.26508e-05 0.005)
(0.011 7.26508e-05 0.005)
(0.013 7.26508e-05 0.005)
(0.015 7.26508e-05 0.005)
(0.017 7.26508e-05 0.005)
(0.019 7.26508e-05 0.005)
(0.021 7.26508e-05 0.005)
(0.023 7.26508e-05 0.005)
(0.025 7.26508e-05 0.005)
(0.027 7.26508e-05 0.005)
(0.029 7.26508e-05 0.005)
(0.031 7.26508e-05 0.005)
(0.033 7.26508e-05 0.005)
(0.035 7.26508e-05 0.005)
(0.037 7.26508e-05 0.005)
(0.039 7.26508e-05 0.005)
(0.041 7.26508e-05 0.005)
(0.043 7.26508e-05 0.005)
(0.045 7.26508e-05 0.005)
(0.047 7.26508e-05 0.005)
(0.049 7.26508e-05 0.005)
(0.051 7.26508e-05 0.005)
(0.053 7.26508e-05 0.005)
(0.055 7.26508e-05 0.005)
(0.057 7.26508e-05 0.005)
(0.059 7.26508e-05 0.005)
(0.061 7.26508e-05 0.005)
(0.063 7.26508e-05 0.005)
(0.065 7.26508e-05 0.005)
(0.067 7.26508e-05 0.005)
(0.069 7.26508e-05 0.005)
(0.071 7.26508e-05 0.005)
(0.073 7.26508e-05 0.005)
(0.075 7.26508e-05 0.005)
(0.077 7.26508e-05 0.005)
(0.079 7.26508e-05 0.005)
(0.081 7.26508e-05 0.005)
(0.083 7.26508e-05 0.005)
(0.085 7.26508e-05 0.005)
(0.087 7.26508e-05 0.005)
(0.089 7.26508e-05 0.005)
(0.091 7.26508e-05 0.005)
(0.093 7.26508e-05 0.005)
(0.095 7.26508e-05 0.005)
(0.097 7.26508e-05 0.005)
(0.099 7.26508e-05 0.005)
(0.001 8.9468e-05 0.005)
(0.003 8.9468e-05 0.005)
(0.005 8.9468e-05 0.005)
(0.007 8.9468e-05 0.005)
(0.009 8.9468e-05 0.005)
(0.011 8.9468e-05 0.005)
(0.013 8.9468e-05 0.005)
(0.015 8.9468e-05 0.005)
(0.017 8.9468e-05 0.005)
(0.019 8.9468e-05 0.005)
(0.021 8.9468e-05 0.005)
(0.023 8.9468e-05 0.005)
(0.025 8.9468e-05 0.005)
(0.027 8.9468e-05 0.005)
(0.029 8.9468e-05 0.005)
(0.031 8.9468e-05 0.005)
(0.033 8.9468e-05 0.005)
(0.035 8.9468e-05 0.005)
(0.037 8.9468e-05 0.005)
(0.039 8.9468e-05 0.005)
(0.041 8.9468e-05 0.005)
(0.043 8.9468e-05 0.005)
(0.045 8.9468e-05 0.005)
(0.047 8.9468e-05 0.005)
(0.049 8.9468e-05 0.005)
(0.051 8.9468e-05 0.005)
(0.053 8.9468e-05 0.005)
(0.055 8.9468e-05 0.005)
(0.057 8.9468e-05 0.005)
(0.059 8.9468e-05 0.005)
(0.061 8.9468e-05 0.005)
(0.063 8.9468e-05 0.005)
(0.065 8.9468e-05 0.005)
(0.067 8.9468e-05 0.005)
(0.069 8.9468e-05 0.005)
(0.071 8.9468e-05 0.005)
(0.073 8.9468e-05 0.005)
(0.075 8.9468e-05 0.005)
(0.077 8.9468e-05 0.005)
(0.079 8.9468e-05 0.005)
(0.081 8.9468e-05 0.005)
(0.083 8.9468e-05 0.005)
(0.085 8.9468e-05 0.005)
(0.087 8.9468e-05 0.005)
(0.089 8.9468e-05 0.005)
(0.091 8.9468e-05 0.005)
(0.093 8.9468e-05 0.005)
(0.095 8.9468e-05 0.005)
(0.097 8.9468e-05 0.005)
(0.099 8.9468e-05 0.005)
(0.001 0.00010654 0.005)
(0.003 0.00010654 0.005)
(0.005 0.00010654 0.005)
(0.007 0.00010654 0.005)
(0.009 0.00010654 0.005)
(0.011 0.00010654 0.005)
(0.013 0.00010654 0.005)
(0.015 0.00010654 0.005)
(0.017 0.00010654 0.005)
(0.019 0.00010654 0.005)
(0.021 0.00010654 0.005)
(0.023 0.00010654 0.005)
(0.025 0.00010654 0.005)
(0.027 0.00010654 0.005)
(0.029 0.00010654 0.005)
(0.031 0.00010654 0.005)
(0.033 0.00010654 0.005)
(0.035 0.00010654 0.005)
(0.037 0.00010654 0.005)
(0.039 0.00010654 0.005)
(0.041 0.00010654 0.005)
(0.043 0.00010654 0.005)
(0.045 0.00010654 0.005)
(0.047 0.00010654 0.005)
(0.049 0.00010654 0.005)
(0.051 0.00010654 0.005)
(0.053 0.00010654 0.005)
(0.055 0.00010654 0.005)
(0.057 0.00010654 0.005)
(0.059 0.00010654 0.005)
(0.061 0.00010654 0.005)
(0.063 0.00010654 0.005)
(0.065 0.00010654 0.005)
(0.067 0.00010654 0.005)
(0.069 0.00010654 0.005)
(0.071 0.00010654 0.005)
(0.073 0.00010654 0.005)
(0.075 0.00010654 0.005)
(0.077 0.00010654 0.005)
(0.079 0.00010654 0.005)
(0.081 0.00010654 0.005)
(0.083 0.00010654 0.005)
(0.085 0.00010654 0.005)
(0.087 0.00010654 0.005)
(0.089 0.00010654 0.005)
(0.091 0.00010654 0.005)
(0.093 0.00010654 0.005)
(0.095 0.00010654 0.005)
(0.097 0.00010654 0.005)
(0.099 0.00010654 0.005)
(0.001 0.000123871 0.005)
(0.003 0.000123871 0.005)
(0.005 0.000123871 0.005)
(0.007 0.000123871 0.005)
(0.009 0.000123871 0.005)
(0.011 0.000123871 0.005)
(0.013 0.000123871 0.005)
(0.015 0.000123871 0.005)
(0.017 0.000123871 0.005)
(0.019 0.000123871 0.005)
(0.021 0.000123871 0.005)
(0.023 0.000123871 0.005)
(0.025 0.000123871 0.005)
(0.027 0.000123871 0.005)
(0.029 0.000123871 0.005)
(0.031 0.000123871 0.005)
(0.033 0.000123871 0.005)
(0.035 0.000123871 0.005)
(0.037 0.000123871 0.005)
(0.039 0.000123871 0.005)
(0.041 0.000123871 0.005)
(0.043 0.000123871 0.005)
(0.045 0.000123871 0.005)
(0.047 0.000123871 0.005)
(0.049 0.000123871 0.005)
(0.051 0.000123871 0.005)
(0.053 0.000123871 0.005)
(0.055 0.000123871 0.005)
(0.057 0.000123871 0.005)
(0.059 0.000123871 0.005)
(0.061 0.000123871 0.005)
(0.063 0.000123871 0.005)
(0.065 0.000123871 0.005)
(0.067 0.000123871 0.005)
(0.069 0.000123871 0.005)
(0.071 0.000123871 0.005)
(0.073 0.000123871 0.005)
(0.075 0.000123871 0.005)
(0.077 0.000123871 0.005)
(0.079 0.000123871 0.005)
(0.081 0.000123871 0.005)
(0.083 0.000123871 0.005)
(0.085 0.000123871 0.005)
(0.087 0.000123871 0.005)
(0.089 0.000123871 0.005)
(0.091 0.000123871 0.005)
(0.093 0.000123871 0.005)
(0.095 0.000123871 0.005)
(0.097 0.000123871 0.005)
(0.099 0.000123871 0.005)
(0.001 0.000141465 0.005)
(0.003 0.000141465 0.005)
(0.005 0.000141465 0.005)
(0.007 0.000141465 0.005)
(0.009 0.000141465 0.005)
(0.011 0.000141465 0.005)
(0.013 0.000141465 0.005)
(0.015 0.000141465 0.005)
(0.017 0.000141465 0.005)
(0.019 0.000141465 0.005)
(0.021 0.000141465 0.005)
(0.023 0.000141465 0.005)
(0.025 0.000141465 0.005)
(0.027 0.000141465 0.005)
(0.029 0.000141465 0.005)
(0.031 0.000141465 0.005)
(0.033 0.000141465 0.005)
(0.035 0.000141465 0.005)
(0.037 0.000141465 0.005)
(0.039 0.000141465 0.005)
(0.041 0.000141465 0.005)
(0.043 0.000141465 0.005)
(0.045 0.000141465 0.005)
(0.047 0.000141465 0.005)
(0.049 0.000141465 0.005)
(0.051 0.000141465 0.005)
(0.053 0.000141465 0.005)
(0.055 0.000141465 0.005)
(0.057 0.000141465 0.005)
(0.059 0.000141465 0.005)
(0.061 0.000141465 0.005)
(0.063 0.000141465 0.005)
(0.065 0.000141465 0.005)
(0.067 0.000141465 0.005)
(0.069 0.000141465 0.005)
(0.071 0.000141465 0.005)
(0.073 0.000141465 0.005)
(0.075 0.000141465 0.005)
(0.077 0.000141465 0.005)
(0.079 0.000141465 0.005)
(0.081 0.000141465 0.005)
(0.083 0.000141465 0.005)
(0.085 0.000141465 0.005)
(0.087 0.000141465 0.005)
(0.089 0.000141465 0.005)
(0.091 0.000141465 0.005)
(0.093 0.000141465 0.005)
(0.095 0.000141465 0.005)
(0.097 0.000141465 0.005)
(0.099 0.000141465 0.005)
(0.001 0.000159326 0.005)
(0.003 0.000159326 0.005)
(0.005 0.000159326 0.005)
(0.007 0.000159326 0.005)
(0.009 0.000159326 0.005)
(0.011 0.000159326 0.005)
(0.013 0.000159326 0.005)
(0.015 0.000159326 0.005)
(0.017 0.000159326 0.005)
(0.019 0.000159326 0.005)
(0.021 0.000159326 0.005)
(0.023 0.000159326 0.005)
(0.025 0.000159326 0.005)
(0.027 0.000159326 0.005)
(0.029 0.000159326 0.005)
(0.031 0.000159326 0.005)
(0.033 0.000159326 0.005)
(0.035 0.000159326 0.005)
(0.037 0.000159326 0.005)
(0.039 0.000159326 0.005)
(0.041 0.000159326 0.005)
(0.043 0.000159326 0.005)
(0.045 0.000159326 0.005)
(0.047 0.000159326 0.005)
(0.049 0.000159326 0.005)
(0.051 0.000159326 0.005)
(0.053 0.000159326 0.005)
(0.055 0.000159326 0.005)
(0.057 0.000159326 0.005)
(0.059 0.000159326 0.005)
(0.061 0.000159326 0.005)
(0.063 0.000159326 0.005)
(0.065 0.000159326 0.005)
(0.067 0.000159326 0.005)
(0.069 0.000159326 0.005)
(0.071 0.000159326 0.005)
(0.073 0.000159326 0.005)
(0.075 0.000159326 0.005)
(0.077 0.000159326 0.005)
(0.079 0.000159326 0.005)
(0.081 0.000159326 0.005)
(0.083 0.000159326 0.005)
(0.085 0.000159326 0.005)
(0.087 0.000159326 0.005)
(0.089 0.000159326 0.005)
(0.091 0.000159326 0.005)
(0.093 0.000159326 0.005)
(0.095 0.000159326 0.005)
(0.097 0.000159326 0.005)
(0.099 0.000159326 0.005)
(0.001 0.000177458 0.005)
(0.003 0.000177458 0.005)
(0.005 0.000177458 0.005)
(0.007 0.000177458 0.005)
(0.009 0.000177458 0.005)
(0.011 0.000177458 0.005)
(0.013 0.000177458 0.005)
(0.015 0.000177458 0.005)
(0.017 0.000177458 0.005)
(0.019 0.000177458 0.005)
(0.021 0.000177458 0.005)
(0.023 0.000177458 0.005)
(0.025 0.000177458 0.005)
(0.027 0.000177458 0.005)
(0.029 0.000177458 0.005)
(0.031 0.000177458 0.005)
(0.033 0.000177458 0.005)
(0.035 0.000177458 0.005)
(0.037 0.000177458 0.005)
(0.039 0.000177458 0.005)
(0.041 0.000177458 0.005)
(0.043 0.000177458 0.005)
(0.045 0.000177458 0.005)
(0.047 0.000177458 0.005)
(0.049 0.000177458 0.005)
(0.051 0.000177458 0.005)
(0.053 0.000177458 0.005)
(0.055 0.000177458 0.005)
(0.057 0.000177458 0.005)
(0.059 0.000177458 0.005)
(0.061 0.000177458 0.005)
(0.063 0.000177458 0.005)
(0.065 0.000177458 0.005)
(0.067 0.000177458 0.005)
(0.069 0.000177458 0.005)
(0.071 0.000177458 0.005)
(0.073 0.000177458 0.005)
(0.075 0.000177458 0.005)
(0.077 0.000177458 0.005)
(0.079 0.000177458 0.005)
(0.081 0.000177458 0.005)
(0.083 0.000177458 0.005)
(0.085 0.000177458 0.005)
(0.087 0.000177458 0.005)
(0.089 0.000177458 0.005)
(0.091 0.000177458 0.005)
(0.093 0.000177458 0.005)
(0.095 0.000177458 0.005)
(0.097 0.000177458 0.005)
(0.099 0.000177458 0.005)
(0.001 0.000195865 0.005)
(0.003 0.000195865 0.005)
(0.005 0.000195865 0.005)
(0.007 0.000195865 0.005)
(0.009 0.000195865 0.005)
(0.011 0.000195865 0.005)
(0.013 0.000195865 0.005)
(0.015 0.000195865 0.005)
(0.017 0.000195865 0.005)
(0.019 0.000195865 0.005)
(0.021 0.000195865 0.005)
(0.023 0.000195865 0.005)
(0.025 0.000195865 0.005)
(0.027 0.000195865 0.005)
(0.029 0.000195865 0.005)
(0.031 0.000195865 0.005)
(0.033 0.000195865 0.005)
(0.035 0.000195865 0.005)
(0.037 0.000195865 0.005)
(0.039 0.000195865 0.005)
(0.041 0.000195865 0.005)
(0.043 0.000195865 0.005)
(0.045 0.000195865 0.005)
(0.047 0.000195865 0.005)
(0.049 0.000195865 0.005)
(0.051 0.000195865 0.005)
(0.053 0.000195865 0.005)
(0.055 0.000195865 0.005)
(0.057 0.000195865 0.005)
(0.059 0.000195865 0.005)
(0.061 0.000195865 0.005)
(0.063 0.000195865 0.005)
(0.065 0.000195865 0.005)
(0.067 0.000195865 0.005)
(0.069 0.000195865 0.005)
(0.071 0.000195865 0.005)
(0.073 0.000195865 0.005)
(0.075 0.000195865 0.005)
(0.077 0.000195865 0.005)
(0.079 0.000195865 0.005)
(0.081 0.000195865 0.005)
(0.083 0.000195865 0.005)
(0.085 0.000195865 0.005)
(0.087 0.000195865 0.005)
(0.089 0.000195865 0.005)
(0.091 0.000195865 0.005)
(0.093 0.000195865 0.005)
(0.095 0.000195865 0.005)
(0.097 0.000195865 0.005)
(0.099 0.000195865 0.005)
(0.001 0.000214551 0.005)
(0.003 0.000214551 0.005)
(0.005 0.000214551 0.005)
(0.007 0.000214551 0.005)
(0.009 0.000214551 0.005)
(0.011 0.000214551 0.005)
(0.013 0.000214551 0.005)
(0.015 0.000214551 0.005)
(0.017 0.000214551 0.005)
(0.019 0.000214551 0.005)
(0.021 0.000214551 0.005)
(0.023 0.000214551 0.005)
(0.025 0.000214551 0.005)
(0.027 0.000214551 0.005)
(0.029 0.000214551 0.005)
(0.031 0.000214551 0.005)
(0.033 0.000214551 0.005)
(0.035 0.000214551 0.005)
(0.037 0.000214551 0.005)
(0.039 0.000214551 0.005)
(0.041 0.000214551 0.005)
(0.043 0.000214551 0.005)
(0.045 0.000214551 0.005)
(0.047 0.000214551 0.005)
(0.049 0.000214551 0.005)
(0.051 0.000214551 0.005)
(0.053 0.000214551 0.005)
(0.055 0.000214551 0.005)
(0.057 0.000214551 0.005)
(0.059 0.000214551 0.005)
(0.061 0.000214551 0.005)
(0.063 0.000214551 0.005)
(0.065 0.000214551 0.005)
(0.067 0.000214551 0.005)
(0.069 0.000214551 0.005)
(0.071 0.000214551 0.005)
(0.073 0.000214551 0.005)
(0.075 0.000214551 0.005)
(0.077 0.000214551 0.005)
(0.079 0.000214551 0.005)
(0.081 0.000214551 0.005)
(0.083 0.000214551 0.005)
(0.085 0.000214551 0.005)
(0.087 0.000214551 0.005)
(0.089 0.000214551 0.005)
(0.091 0.000214551 0.005)
(0.093 0.000214551 0.005)
(0.095 0.000214551 0.005)
(0.097 0.000214551 0.005)
(0.099 0.000214551 0.005)
(0.001 0.000233521 0.005)
(0.003 0.000233521 0.005)
(0.005 0.000233521 0.005)
(0.007 0.000233521 0.005)
(0.009 0.000233521 0.005)
(0.011 0.000233521 0.005)
(0.013 0.000233521 0.005)
(0.015 0.000233521 0.005)
(0.017 0.000233521 0.005)
(0.019 0.000233521 0.005)
(0.021 0.000233521 0.005)
(0.023 0.000233521 0.005)
(0.025 0.000233521 0.005)
(0.027 0.000233521 0.005)
(0.029 0.000233521 0.005)
(0.031 0.000233521 0.005)
(0.033 0.000233521 0.005)
(0.035 0.000233521 0.005)
(0.037 0.000233521 0.005)
(0.039 0.000233521 0.005)
(0.041 0.000233521 0.005)
(0.043 0.000233521 0.005)
(0.045 0.000233521 0.005)
(0.047 0.000233521 0.005)
(0.049 0.000233521 0.005)
(0.051 0.000233521 0.005)
(0.053 0.000233521 0.005)
(0.055 0.000233521 0.005)
(0.057 0.000233521 0.005)
(0.059 0.000233521 0.005)
(0.061 0.000233521 0.005)
(0.063 0.000233521 0.005)
(0.065 0.000233521 0.005)
(0.067 0.000233521 0.005)
(0.069 0.000233521 0.005)
(0.071 0.000233521 0.005)
(0.073 0.000233521 0.005)
(0.075 0.000233521 0.005)
(0.077 0.000233521 0.005)
(0.079 0.000233521 0.005)
(0.081 0.000233521 0.005)
(0.083 0.000233521 0.005)
(0.085 0.000233521 0.005)
(0.087 0.000233521 0.005)
(0.089 0.000233521 0.005)
(0.091 0.000233521 0.005)
(0.093 0.000233521 0.005)
(0.095 0.000233521 0.005)
(0.097 0.000233521 0.005)
(0.099 0.000233521 0.005)
(0.001 0.000252778 0.005)
(0.003 0.000252778 0.005)
(0.005 0.000252778 0.005)
(0.007 0.000252778 0.005)
(0.009 0.000252778 0.005)
(0.011 0.000252778 0.005)
(0.013 0.000252778 0.005)
(0.015 0.000252778 0.005)
(0.017 0.000252778 0.005)
(0.019 0.000252778 0.005)
(0.021 0.000252778 0.005)
(0.023 0.000252778 0.005)
(0.025 0.000252778 0.005)
(0.027 0.000252778 0.005)
(0.029 0.000252778 0.005)
(0.031 0.000252778 0.005)
(0.033 0.000252778 0.005)
(0.035 0.000252778 0.005)
(0.037 0.000252778 0.005)
(0.039 0.000252778 0.005)
(0.041 0.000252778 0.005)
(0.043 0.000252778 0.005)
(0.045 0.000252778 0.005)
(0.047 0.000252778 0.005)
(0.049 0.000252778 0.005)
(0.051 0.000252778 0.005)
(0.053 0.000252778 0.005)
(0.055 0.000252778 0.005)
(0.057 0.000252778 0.005)
(0.059 0.000252778 0.005)
(0.061 0.000252778 0.005)
(0.063 0.000252778 0.005)
(0.065 0.000252778 0.005)
(0.067 0.000252778 0.005)
(0.069 0.000252778 0.005)
(0.071 0.000252778 0.005)
(0.073 0.000252778 0.005)
(0.075 0.000252778 0.005)
(0.077 0.000252778 0.005)
(0.079 0.000252778 0.005)
(0.081 0.000252778 0.005)
(0.083 0.000252778 0.005)
(0.085 0.000252778 0.005)
(0.087 0.000252778 0.005)
(0.089 0.000252778 0.005)
(0.091 0.000252778 0.005)
(0.093 0.000252778 0.005)
(0.095 0.000252778 0.005)
(0.097 0.000252778 0.005)
(0.099 0.000252778 0.005)
(0.001 0.000272327 0.005)
(0.003 0.000272327 0.005)
(0.005 0.000272327 0.005)
(0.007 0.000272327 0.005)
(0.009 0.000272327 0.005)
(0.011 0.000272327 0.005)
(0.013 0.000272327 0.005)
(0.015 0.000272327 0.005)
(0.017 0.000272327 0.005)
(0.019 0.000272327 0.005)
(0.021 0.000272327 0.005)
(0.023 0.000272327 0.005)
(0.025 0.000272327 0.005)
(0.027 0.000272327 0.005)
(0.029 0.000272327 0.005)
(0.031 0.000272327 0.005)
(0.033 0.000272327 0.005)
(0.035 0.000272327 0.005)
(0.037 0.000272327 0.005)
(0.039 0.000272327 0.005)
(0.041 0.000272327 0.005)
(0.043 0.000272327 0.005)
(0.045 0.000272327 0.005)
(0.047 0.000272327 0.005)
(0.049 0.000272327 0.005)
(0.051 0.000272327 0.005)
(0.053 0.000272327 0.005)
(0.055 0.000272327 0.005)
(0.057 0.000272327 0.005)
(0.059 0.000272327 0.005)
(0.061 0.000272327 0.005)
(0.063 0.000272327 0.005)
(0.065 0.000272327 0.005)
(0.067 0.000272327 0.005)
(0.069 0.000272327 0.005)
(0.071 0.000272327 0.005)
(0.073 0.000272327 0.005)
(0.075 0.000272327 0.005)
(0.077 0.000272327 0.005)
(0.079 0.000272327 0.005)
(0.081 0.000272327 0.005)
(0.083 0.000272327 0.005)
(0.085 0.000272327 0.005)
(0.087 0.000272327 0.005)
(0.089 0.000272327 0.005)
(0.091 0.000272327 0.005)
(0.093 0.000272327 0.005)
(0.095 0.000272327 0.005)
(0.097 0.000272327 0.005)
(0.099 0.000272327 0.005)
(0.001 0.000292173 0.005)
(0.003 0.000292173 0.005)
(0.005 0.000292173 0.005)
(0.007 0.000292173 0.005)
(0.009 0.000292173 0.005)
(0.011 0.000292173 0.005)
(0.013 0.000292173 0.005)
(0.015 0.000292173 0.005)
(0.017 0.000292173 0.005)
(0.019 0.000292173 0.005)
(0.021 0.000292173 0.005)
(0.023 0.000292173 0.005)
(0.025 0.000292173 0.005)
(0.027 0.000292173 0.005)
(0.029 0.000292173 0.005)
(0.031 0.000292173 0.005)
(0.033 0.000292173 0.005)
(0.035 0.000292173 0.005)
(0.037 0.000292173 0.005)
(0.039 0.000292173 0.005)
(0.041 0.000292173 0.005)
(0.043 0.000292173 0.005)
(0.045 0.000292173 0.005)
(0.047 0.000292173 0.005)
(0.049 0.000292173 0.005)
(0.051 0.000292173 0.005)
(0.053 0.000292173 0.005)
(0.055 0.000292173 0.005)
(0.057 0.000292173 0.005)
(0.059 0.000292173 0.005)
(0.061 0.000292173 0.005)
(0.063 0.000292173 0.005)
(0.065 0.000292173 0.005)
(0.067 0.000292173 0.005)
(0.069 0.000292173 0.005)
(0.071 0.000292173 0.005)
(0.073 0.000292173 0.005)
(0.075 0.000292173 0.005)
(0.077 0.000292173 0.005)
(0.079 0.000292173 0.005)
(0.081 0.000292173 0.005)
(0.083 0.000292173 0.005)
(0.085 0.000292173 0.005)
(0.087 0.000292173 0.005)
(0.089 0.000292173 0.005)
(0.091 0.000292173 0.005)
(0.093 0.000292173 0.005)
(0.095 0.000292173 0.005)
(0.097 0.000292173 0.005)
(0.099 0.000292173 0.005)
(0.001 0.00031232 0.005)
(0.003 0.00031232 0.005)
(0.005 0.00031232 0.005)
(0.007 0.00031232 0.005)
(0.009 0.00031232 0.005)
(0.011 0.00031232 0.005)
(0.013 0.00031232 0.005)
(0.015 0.00031232 0.005)
(0.017 0.00031232 0.005)
(0.019 0.00031232 0.005)
(0.021 0.00031232 0.005)
(0.023 0.00031232 0.005)
(0.025 0.00031232 0.005)
(0.027 0.00031232 0.005)
(0.029 0.00031232 0.005)
(0.031 0.00031232 0.005)
(0.033 0.00031232 0.005)
(0.035 0.00031232 0.005)
(0.037 0.00031232 0.005)
(0.039 0.00031232 0.005)
(0.041 0.00031232 0.005)
(0.043 0.00031232 0.005)
(0.045 0.00031232 0.005)
(0.047 0.00031232 0.005)
(0.049 0.00031232 0.005)
(0.051 0.00031232 0.005)
(0.053 0.00031232 0.005)
(0.055 0.00031232 0.005)
(0.057 0.00031232 0.005)
(0.059 0.00031232 0.005)
(0.061 0.00031232 0.005)
(0.063 0.00031232 0.005)
(0.065 0.00031232 0.005)
(0.067 0.00031232 0.005)
(0.069 0.00031232 0.005)
(0.071 0.00031232 0.005)
(0.073 0.00031232 0.005)
(0.075 0.00031232 0.005)
(0.077 0.00031232 0.005)
(0.079 0.00031232 0.005)
(0.081 0.00031232 0.005)
(0.083 0.00031232 0.005)
(0.085 0.00031232 0.005)
(0.087 0.00031232 0.005)
(0.089 0.00031232 0.005)
(0.091 0.00031232 0.005)
(0.093 0.00031232 0.005)
(0.095 0.00031232 0.005)
(0.097 0.00031232 0.005)
(0.099 0.00031232 0.005)
(0.001 0.000332772 0.005)
(0.003 0.000332772 0.005)
(0.005 0.000332772 0.005)
(0.007 0.000332772 0.005)
(0.009 0.000332772 0.005)
(0.011 0.000332772 0.005)
(0.013 0.000332772 0.005)
(0.015 0.000332772 0.005)
(0.017 0.000332772 0.005)
(0.019 0.000332772 0.005)
(0.021 0.000332772 0.005)
(0.023 0.000332772 0.005)
(0.025 0.000332772 0.005)
(0.027 0.000332772 0.005)
(0.029 0.000332772 0.005)
(0.031 0.000332772 0.005)
(0.033 0.000332772 0.005)
(0.035 0.000332772 0.005)
(0.037 0.000332772 0.005)
(0.039 0.000332772 0.005)
(0.041 0.000332772 0.005)
(0.043 0.000332772 0.005)
(0.045 0.000332772 0.005)
(0.047 0.000332772 0.005)
(0.049 0.000332772 0.005)
(0.051 0.000332772 0.005)
(0.053 0.000332772 0.005)
(0.055 0.000332772 0.005)
(0.057 0.000332772 0.005)
(0.059 0.000332772 0.005)
(0.061 0.000332772 0.005)
(0.063 0.000332772 0.005)
(0.065 0.000332772 0.005)
(0.067 0.000332772 0.005)
(0.069 0.000332772 0.005)
(0.071 0.000332772 0.005)
(0.073 0.000332772 0.005)
(0.075 0.000332772 0.005)
(0.077 0.000332772 0.005)
(0.079 0.000332772 0.005)
(0.081 0.000332772 0.005)
(0.083 0.000332772 0.005)
(0.085 0.000332772 0.005)
(0.087 0.000332772 0.005)
(0.089 0.000332772 0.005)
(0.091 0.000332772 0.005)
(0.093 0.000332772 0.005)
(0.095 0.000332772 0.005)
(0.097 0.000332772 0.005)
(0.099 0.000332772 0.005)
(0.001 0.000353535 0.005)
(0.003 0.000353535 0.005)
(0.005 0.000353535 0.005)
(0.007 0.000353535 0.005)
(0.009 0.000353535 0.005)
(0.011 0.000353535 0.005)
(0.013 0.000353535 0.005)
(0.015 0.000353535 0.005)
(0.017 0.000353535 0.005)
(0.019 0.000353535 0.005)
(0.021 0.000353535 0.005)
(0.023 0.000353535 0.005)
(0.025 0.000353535 0.005)
(0.027 0.000353535 0.005)
(0.029 0.000353535 0.005)
(0.031 0.000353535 0.005)
(0.033 0.000353535 0.005)
(0.035 0.000353535 0.005)
(0.037 0.000353535 0.005)
(0.039 0.000353535 0.005)
(0.041 0.000353535 0.005)
(0.043 0.000353535 0.005)
(0.045 0.000353535 0.005)
(0.047 0.000353535 0.005)
(0.049 0.000353535 0.005)
(0.051 0.000353535 0.005)
(0.053 0.000353535 0.005)
(0.055 0.000353535 0.005)
(0.057 0.000353535 0.005)
(0.059 0.000353535 0.005)
(0.061 0.000353535 0.005)
(0.063 0.000353535 0.005)
(0.065 0.000353535 0.005)
(0.067 0.000353535 0.005)
(0.069 0.000353535 0.005)
(0.071 0.000353535 0.005)
(0.073 0.000353535 0.005)
(0.075 0.000353535 0.005)
(0.077 0.000353535 0.005)
(0.079 0.000353535 0.005)
(0.081 0.000353535 0.005)
(0.083 0.000353535 0.005)
(0.085 0.000353535 0.005)
(0.087 0.000353535 0.005)
(0.089 0.000353535 0.005)
(0.091 0.000353535 0.005)
(0.093 0.000353535 0.005)
(0.095 0.000353535 0.005)
(0.097 0.000353535 0.005)
(0.099 0.000353535 0.005)
(0.001 0.000374612 0.005)
(0.003 0.000374612 0.005)
(0.005 0.000374612 0.005)
(0.007 0.000374612 0.005)
(0.009 0.000374612 0.005)
(0.011 0.000374612 0.005)
(0.013 0.000374612 0.005)
(0.015 0.000374612 0.005)
(0.017 0.000374612 0.005)
(0.019 0.000374612 0.005)
(0.021 0.000374612 0.005)
(0.023 0.000374612 0.005)
(0.025 0.000374612 0.005)
(0.027 0.000374612 0.005)
(0.029 0.000374612 0.005)
(0.031 0.000374612 0.005)
(0.033 0.000374612 0.005)
(0.035 0.000374612 0.005)
(0.037 0.000374612 0.005)
(0.039 0.000374612 0.005)
(0.041 0.000374612 0.005)
(0.043 0.000374612 0.005)
(0.045 0.000374612 0.005)
(0.047 0.000374612 0.005)
(0.049 0.000374612 0.005)
(0.051 0.000374612 0.005)
(0.053 0.000374612 0.005)
(0.055 0.000374612 0.005)
(0.057 0.000374612 0.005)
(0.059 0.000374612 0.005)
(0.061 0.000374612 0.005)
(0.063 0.000374612 0.005)
(0.065 0.000374612 0.005)
(0.067 0.000374612 0.005)
(0.069 0.000374612 0.005)
(0.071 0.000374612 0.005)
(0.073 0.000374612 0.005)
(0.075 0.000374612 0.005)
(0.077 0.000374612 0.005)
(0.079 0.000374612 0.005)
(0.081 0.000374612 0.005)
(0.083 0.000374612 0.005)
(0.085 0.000374612 0.005)
(0.087 0.000374612 0.005)
(0.089 0.000374612 0.005)
(0.091 0.000374612 0.005)
(0.093 0.000374612 0.005)
(0.095 0.000374612 0.005)
(0.097 0.000374612 0.005)
(0.099 0.000374612 0.005)
(0.001 0.00039601 0.005)
(0.003 0.00039601 0.005)
(0.005 0.00039601 0.005)
(0.007 0.00039601 0.005)
(0.009 0.00039601 0.005)
(0.011 0.00039601 0.005)
(0.013 0.00039601 0.005)
(0.015 0.00039601 0.005)
(0.017 0.00039601 0.005)
(0.019 0.00039601 0.005)
(0.021 0.00039601 0.005)
(0.023 0.00039601 0.005)
(0.025 0.00039601 0.005)
(0.027 0.00039601 0.005)
(0.029 0.00039601 0.005)
(0.031 0.00039601 0.005)
(0.033 0.00039601 0.005)
(0.035 0.00039601 0.005)
(0.037 0.00039601 0.005)
(0.039 0.00039601 0.005)
(0.041 0.00039601 0.005)
(0.043 0.00039601 0.005)
(0.045 0.00039601 0.005)
(0.047 0.00039601 0.005)
(0.049 0.00039601 0.005)
(0.051 0.00039601 0.005)
(0.053 0.00039601 0.005)
(0.055 0.00039601 0.005)
(0.057 0.00039601 0.005)
(0.059 0.00039601 0.005)
(0.061 0.00039601 0.005)
(0.063 0.00039601 0.005)
(0.065 0.00039601 0.005)
(0.067 0.00039601 0.005)
(0.069 0.00039601 0.005)
(0.071 0.00039601 0.005)
(0.073 0.00039601 0.005)
(0.075 0.00039601 0.005)
(0.077 0.00039601 0.005)
(0.079 0.00039601 0.005)
(0.081 0.00039601 0.005)
(0.083 0.00039601 0.005)
(0.085 0.00039601 0.005)
(0.087 0.00039601 0.005)
(0.089 0.00039601 0.005)
(0.091 0.00039601 0.005)
(0.093 0.00039601 0.005)
(0.095 0.00039601 0.005)
(0.097 0.00039601 0.005)
(0.099 0.00039601 0.005)
(0.001 0.000417731 0.005)
(0.003 0.000417731 0.005)
(0.005 0.000417731 0.005)
(0.007 0.000417731 0.005)
(0.009 0.000417731 0.005)
(0.011 0.000417731 0.005)
(0.013 0.000417731 0.005)
(0.015 0.000417731 0.005)
(0.017 0.000417731 0.005)
(0.019 0.000417731 0.005)
(0.021 0.000417731 0.005)
(0.023 0.000417731 0.005)
(0.025 0.000417731 0.005)
(0.027 0.000417731 0.005)
(0.029 0.000417731 0.005)
(0.031 0.000417731 0.005)
(0.033 0.000417731 0.005)
(0.035 0.000417731 0.005)
(0.037 0.000417731 0.005)
(0.039 0.000417731 0.005)
(0.041 0.000417731 0.005)
(0.043 0.000417731 0.005)
(0.045 0.000417731 0.005)
(0.047 0.000417731 0.005)
(0.049 0.000417731 0.005)
(0.051 0.000417731 0.005)
(0.053 0.000417731 0.005)
(0.055 0.000417731 0.005)
(0.057 0.000417731 0.005)
(0.059 0.000417731 0.005)
(0.061 0.000417731 0.005)
(0.063 0.000417731 0.005)
(0.065 0.000417731 0.005)
(0.067 0.000417731 0.005)
(0.069 0.000417731 0.005)
(0.071 0.000417731 0.005)
(0.073 0.000417731 0.005)
(0.075 0.000417731 0.005)
(0.077 0.000417731 0.005)