/*--------------------------------*- C++ -*----------------------------------*\
  =========                 |
  \\      /  F ield         | OpenFOAM: The Open Source CFD Toolbox
   \\    /   O peration     | Website:  https://openfoam.org
    \\  /    A nd           | Version:  13
     \\/     M anipulation  |
\*---------------------------------------------------------------------------*/
FoamFile
{
    format      ascii;
    class       volScalarField;
    location    "4000";
    object      epsilon;
}
// * * * * * * * * * * * * * * * * * * * * * * * * * * * * * * * * * * * * * //

dimensions      [0 2 -3 0 0 0 0];

internalField   nonuniform List<scalar> 
25000
(
0.00315877
0.00315739
0.00315543
0.00315323
0.00315122
0.00314957
0.00314833
0.00314746
0.00314687
0.00314653
0.0031464
0.00314648
0.00314673
0.00314716
0.00314775
0.00314849
0.00314936
0.00315035
0.00315144
0.00315262
0.00315387
0.00315518
0.00315652
0.00315787
0.00315921
0.00316053
0.0031618
0.003163
0.00316412
0.00316514
0.00316604
0.00316682
0.00316746
0.00316793
0.00316824
0.00316839
0.00316835
0.00316815
0.00316778
0.00316725
0.00316656
0.00316574
0.00316481
0.0031638
0.00316277
0.0031618
0.00316099
0.00316042
0.00316004
0.00315953
0.0182618
0.0182532
0.0182407
0.0182267
0.0182139
0.0182034
0.0181955
0.01819
0.0181862
0.018184
0.0181833
0.0181837
0.0181854
0.0181881
0.0181919
0.0181966
0.0182021
0.0182084
0.0182154
0.0182229
0.0182309
0.0182392
0.0182477
0.0182563
0.0182648
0.0182732
0.0182813
0.0182889
0.0182961
0.0183025
0.0183083
0.0183132
0.0183173
0.0183203
0.0183223
0.0183232
0.018323
0.0183217
0.0183193
0.0183159
0.0183115
0.0183063
0.0183004
0.0182939
0.0182874
0.0182812
0.018276
0.0182724
0.01827
0.0182668
0.0327697
0.0327536
0.032731
0.0327058
0.0326829
0.0326642
0.0326502
0.0326404
0.0326339
0.0326303
0.0326294
0.0326306
0.0326341
0.0326396
0.0326469
0.0326559
0.0326666
0.0326785
0.0326917
0.0327059
0.0327208
0.0327363
0.0327521
0.032768
0.0327837
0.0327991
0.0328139
0.0328278
0.0328407
0.0328524
0.0328626
0.0328714
0.0328783
0.0328835
0.0328867
0.0328879
0.0328871
0.0328843
0.0328795
0.0328728
0.0328644
0.0328545
0.0328432
0.0328312
0.0328188
0.0328072
0.0327973
0.0327903
0.0327853
0.0327791
0.0446415
0.0446179
0.0445877
0.0445544
0.0445247
0.0445006
0.0444831
0.0444711
0.0444637
0.0444605
0.044461
0.0444647
0.0444716
0.0444813
0.0444936
0.0445083
0.0445251
0.0445438
0.044564
0.0445855
0.0446078
0.0446307
0.0446538
0.0446767
0.0446992
0.0447208
0.0447413
0.0447604
0.0447777
0.044793
0.0448061
0.044817
0.0448251
0.0448305
0.0448331
0.0448328
0.0448297
0.0448238
0.0448151
0.0448039
0.0447903
0.0447747
0.0447573
0.0447389
0.0447201
0.0447025
0.044687
0.0446753
0.0446661
0.0446562
0.0511392
0.0511096
0.0510763
0.0510402
0.0510091
0.0509843
0.050967
0.0509557
0.0509499
0.0509492
0.0509529
0.0509607
0.0509721
0.050987
0.0510049
0.0510258
0.051049
0.0510743
0.0511011
0.0511292
0.0511579
0.051187
0.0512158
0.051244
0.0512712
0.0512969
0.0513208
0.0513424
0.0513616
0.0513781
0.0513917
0.0514021
0.0514088
0.0514122
0.051412
0.0514085
0.0514013
0.051391
0.0513773
0.0513609
0.0513416
0.0513203
0.0512969
0.0512728
0.0512481
0.051225
0.0512038
0.0511871
0.0511724
0.0511588
0.0523676
0.0523354
0.0523023
0.052267
0.0522376
0.0522145
0.0521991
0.0521899
0.0521863
0.0521882
0.0521948
0.0522059
0.0522207
0.0522394
0.0522612
0.052286
0.0523132
0.0523425
0.0523732
0.052405
0.0524372
0.0524694
0.052501
0.0525317
0.0525607
0.0525879
0.0526127
0.0526348
0.0526539
0.0526698
0.0526824
0.0526913
0.0526959
0.052697
0.0526941
0.0526875
0.0526771
0.0526633
0.052646
0.0526259
0.0526028
0.0525779
0.0525509
0.0525234
0.0524953
0.052469
0.0524443
0.0524243
0.052406
0.05239
0.0506938
0.0506616
0.0506297
0.0505962
0.0505688
0.0505476
0.050534
0.0505263
0.0505243
0.0505278
0.0505359
0.0505485
0.0505648
0.050585
0.0506082
0.0506344
0.0506629
0.0506934
0.0507251
0.0507579
0.0507908
0.0508236
0.0508557
0.0508865
0.0509155
0.0509425
0.0509669
0.0509884
0.0510067
0.0510216
0.0510332
0.0510408
0.051044
0.0510436
0.0510392
0.0510311
0.0510191
0.0510038
0.0509849
0.0509634
0.050939
0.0509128
0.0508847
0.0508562
0.050827
0.0507998
0.0507741
0.050753
0.0507335
0.0507168
0.0480303
0.0479994
0.0479688
0.0479368
0.0479109
0.0478912
0.0478787
0.047872
0.0478708
0.0478749
0.0478834
0.0478964
0.0479129
0.0479331
0.0479562
0.0479822
0.0480104
0.0480405
0.0480718
0.0481039
0.0481362
0.0481683
0.0481995
0.0482295
0.0482576
0.0482837
0.0483072
0.0483278
0.0483452
0.0483594
0.0483701
0.048377
0.0483795
0.0483785
0.0483735
0.048365
0.0483527
0.0483371
0.0483181
0.0482965
0.0482722
0.0482462
0.0482183
0.0481901
0.0481614
0.0481345
0.0481092
0.0480884
0.0480692
0.0480528
0.0452646
0.0452352
0.0452057
0.0451751
0.0451504
0.0451317
0.0451199
0.0451137
0.0451129
0.0451172
0.0451256
0.0451383
0.0451544
0.045174
0.0451965
0.0452216
0.0452489
0.0452779
0.0453081
0.045339
0.0453701
0.045401
0.045431
0.0454598
0.0454868
0.0455118
0.0455343
0.045554
0.0455706
0.0455841
0.0455942
0.0456006
0.0456029
0.0456017
0.0455967
0.0455883
0.0455762
0.0455609
0.0455424
0.0455214
0.0454978
0.0454725
0.0454455
0.0454182
0.0453904
0.0453644
0.0453401
0.04532
0.0453018
0.0452861
0.0426949
0.0426671
0.0426386
0.0426092
0.0425853
0.0425674
0.0425562
0.0425503
0.0425497
0.0425539
0.0425621
0.0425743
0.0425898
0.0426086
0.0426302
0.0426543
0.0426804
0.0427082
0.0427371
0.0427667
0.0427965
0.0428261
0.0428548
0.0428824
0.0429083
0.0429322
0.0429538
0.0429726
0.0429886
0.0430015
0.0430111
0.0430172
0.0430194
0.0430182
0.0430134
0.0430052
0.0429935
0.0429788
0.042961
0.0429408
0.0429181
0.0428937
0.0428677
0.0428414
0.0428148
0.0427898
0.0427666
0.0427475
0.0427303
0.0427154
0.0403867
0.0403604
0.0403328
0.0403043
0.0402812
0.040264
0.0402531
0.0402476
0.040247
0.040251
0.0402589
0.0402707
0.0402855
0.0403035
0.0403241
0.0403472
0.0403722
0.0403988
0.0404265
0.0404549
0.0404834
0.0405116
0.0405392
0.0405656
0.0405904
0.0406134
0.040634
0.0406522
0.0406675
0.0406799
0.0406891
0.040695
0.0406971
0.040696
0.0406914
0.0406836
0.0406724
0.0406583
0.0406412
0.0406218
0.0405999
0.0405766
0.0405516
0.0405264
0.0405008
0.0404769
0.0404546
0.0404365
0.0404203
0.0404062
0.03833
0.0383049
0.0382781
0.0382506
0.0382282
0.0382115
0.038201
0.0381956
0.0381951
0.0381989
0.0382065
0.0382177
0.038232
0.0382492
0.038269
0.0382911
0.038315
0.0383405
0.038367
0.0383942
0.0384215
0.0384486
0.038475
0.0385004
0.0385242
0.0385463
0.0385661
0.0385836
0.0385983
0.0386102
0.0386192
0.0386248
0.038627
0.0386259
0.0386216
0.0386141
0.0386034
0.0385899
0.0385735
0.0385548
0.0385339
0.0385114
0.0384874
0.0384631
0.0384386
0.0384156
0.0383944
0.0383771
0.0383619
0.0383485
0.0364951
0.0364712
0.0364451
0.0364184
0.0363966
0.0363805
0.0363702
0.0363651
0.0363645
0.0363682
0.0363755
0.0363862
0.0363999
0.0364164
0.0364354
0.0364566
0.0364795
0.036504
0.0365294
0.0365555
0.0365817
0.0366078
0.0366331
0.0366575
0.0366805
0.0367017
0.0367208
0.0367376
0.0367519
0.0367634
0.0367721
0.0367775
0.0367796
0.0367787
0.0367746
0.0367674
0.0367572
0.0367442
0.0367285
0.0367105
0.0366904
0.0366688
0.0366457
0.0366223
0.0365988
0.0365767
0.0365564
0.0365399
0.0365255
0.0365128
0.0348511
0.0348283
0.0348029
0.034777
0.0347557
0.03474
0.0347301
0.0347251
0.0347246
0.0347281
0.0347351
0.0347454
0.0347585
0.0347744
0.0347925
0.0348129
0.034835
0.0348585
0.0348829
0.034908
0.0349332
0.0349583
0.0349827
0.0350062
0.0350283
0.0350488
0.0350673
0.0350835
0.0350973
0.0351084
0.0351168
0.0351222
0.0351243
0.0351234
0.0351195
0.0351127
0.0351028
0.0350904
0.0350753
0.035058
0.0350386
0.0350178
0.0349956
0.034973
0.0349503
0.034929
0.0349096
0.0348938
0.0348802
0.0348681
0.0333708
0.0333489
0.0333242
0.033299
0.0332782
0.033263
0.0332533
0.0332484
0.0332479
0.0332512
0.0332579
0.0332678
0.0332804
0.0332957
0.0333132
0.0333328
0.033354
0.0333767
0.0334002
0.0334244
0.0334487
0.0334729
0.0334964
0.0335191
0.0335405
0.0335602
0.0335781
0.0335938
0.0336071
0.033618
0.0336261
0.0336313
0.0336334
0.0336327
0.0336289
0.0336224
0.0336129
0.0336009
0.0335864
0.0335697
0.033551
0.0335309
0.0335095
0.0334877
0.0334659
0.0334453
0.0334266
0.0334115
0.0333987
0.033387
0.0320311
0.0320101
0.031986
0.0319614
0.0319412
0.0319263
0.0319169
0.0319122
0.0319116
0.0319148
0.0319212
0.0319308
0.0319429
0.0319576
0.0319745
0.0319934
0.0320138
0.0320357
0.0320584
0.0320817
0.0321052
0.0321285
0.0321513
0.0321732
0.0321938
0.032213
0.0322302
0.0322455
0.0322584
0.0322689
0.0322769
0.0322819
0.032284
0.0322833
0.0322798
0.0322735
0.0322644
0.0322529
0.0322388
0.0322228
0.0322047
0.0321853
0.0321646
0.0321436
0.0321224
0.0321026
0.0320846
0.0320701
0.0320579
0.0320467
0.0308133
0.030793
0.0307695
0.0307455
0.0307258
0.0307113
0.0307021
0.0306974
0.0306969
0.0307
0.0307061
0.0307153
0.030727
0.0307412
0.0307575
0.0307757
0.0307955
0.0308165
0.0308385
0.030861
0.0308837
0.0309063
0.0309283
0.0309495
0.0309695
0.030988
0.0310048
0.0310196
0.0310321
0.0310424
0.0310501
0.031055
0.0310571
0.0310565
0.0310531
0.0310471
0.0310384
0.0310272
0.0310137
0.0309981
0.0309807
0.0309619
0.0309419
0.0309215
0.0309011
0.0308819
0.0308646
0.0308506
0.030839
0.0308283
0.0297016
0.0296821
0.0296592
0.0296357
0.0296164
0.0296023
0.0295933
0.0295887
0.0295881
0.0295911
0.0295971
0.0296059
0.0296172
0.0296309
0.0296466
0.0296642
0.0296833
0.0297037
0.0297249
0.0297467
0.0297687
0.0297906
0.0298119
0.0298324
0.0298518
0.0298698
0.0298861
0.0299004
0.0299127
0.0299226
0.0299301
0.029935
0.0299371
0.0299365
0.0299333
0.0299275
0.0299191
0.0299083
0.0298952
0.0298802
0.0298633
0.0298451
0.0298258
0.029806
0.0297863
0.0297677
0.0297509
0.0297375
0.0297264
0.0297161
0.0286834
0.0286645
0.0286421
0.0286192
0.0286003
0.0285865
0.0285777
0.0285732
0.0285726
0.0285755
0.0285812
0.0285897
0.0286007
0.0286139
0.0286291
0.0286461
0.0286646
0.0286843
0.0287049
0.028726
0.0287473
0.0287685
0.0287892
0.0288091
0.0288279
0.0288454
0.0288612
0.0288752
0.0288871
0.0288968
0.0289041
0.0289088
0.0289109
0.0289105
0.0289074
0.0289018
0.0288937
0.0288832
0.0288706
0.028856
0.0288397
0.0288221
0.0288033
0.0287842
0.028765
0.028747
0.0287308
0.0287179
0.0287073
0.0286973
0.0277477
0.0277295
0.0277076
0.0276852
0.0276667
0.0276532
0.0276445
0.0276402
0.0276396
0.0276423
0.0276478
0.0276561
0.0276667
0.0276795
0.0276942
0.0277107
0.0277286
0.0277477
0.0277676
0.0277881
0.0278087
0.0278293
0.0278494
0.0278687
0.027887
0.027904
0.0279194
0.027933
0.0279446
0.027954
0.0279612
0.0279659
0.0279679
0.0279675
0.0279646
0.0279592
0.0279514
0.0279413
0.027929
0.0279149
0.0278991
0.027882
0.0278638
0.0278452
0.0278266
0.0278092
0.0277935
0.027781
0.0277708
0.0277612
0.0268858
0.0268681
0.0268467
0.0268248
0.0268067
0.0267934
0.026785
0.0267807
0.0267801
0.0267827
0.026788
0.026796
0.0268062
0.0268186
0.0268329
0.0268489
0.0268662
0.0268848
0.0269041
0.026924
0.026944
0.026964
0.0269835
0.0270023
0.0270201
0.0270366
0.0270516
0.0270648
0.0270761
0.0270854
0.0270924
0.027097
0.027099
0.0270987
0.0270959
0.0270907
0.0270831
0.0270734
0.0270615
0.0270478
0.0270325
0.0270159
0.0269982
0.0269802
0.0269621
0.0269451
0.0269299
0.0269179
0.0269081
0.0268989
0.0260899
0.0260728
0.0260518
0.0260304
0.0260126
0.0259996
0.0259914
0.0259872
0.0259865
0.025989
0.0259942
0.0260019
0.0260118
0.0260238
0.0260377
0.0260532
0.02607
0.026088
0.0261068
0.0261261
0.0261455
0.0261649
0.0261839
0.0262022
0.0262195
0.0262356
0.0262502
0.0262631
0.0262741
0.0262832
0.02629
0.0262945
0.0262966
0.0262963
0.0262936
0.0262886
0.0262813
0.0262719
0.0262603
0.0262471
0.0262322
0.026216
0.0261989
0.0261814
0.0261638
0.0261473
0.0261326
0.0261209
0.0261116
0.0261026
0.0253537
0.0253371
0.0253165
0.0252955
0.0252781
0.0252654
0.0252573
0.0252531
0.0252525
0.0252549
0.0252599
0.0252673
0.0252769
0.0252886
0.025302
0.025317
0.0253334
0.0253509
0.0253691
0.0253878
0.0254068
0.0254257
0.0254441
0.0254619
0.0254788
0.0254945
0.0255087
0.0255213
0.0255321
0.0255409
0.0255476
0.025552
0.0255541
0.0255539
0.0255513
0.0255465
0.0255394
0.0255303
0.0255191
0.0255062
0.0254917
0.0254761
0.0254594
0.0254423
0.0254253
0.0254092
0.025395
0.0253837
0.0253746
0.025366
0.0246714
0.0246553
0.0246351
0.0246146
0.0245975
0.024585
0.0245771
0.024573
0.0245724
0.0245747
0.0245795
0.0245867
0.024596
0.0246073
0.0246203
0.0246349
0.0246508
0.0246678
0.0246855
0.0247038
0.0247222
0.0247406
0.0247585
0.0247759
0.0247923
0.0248076
0.0248215
0.0248338
0.0248444
0.024853
0.0248596
0.0248639
0.024866
0.0248658
0.0248634
0.0248587
0.0248519
0.024843
0.0248322
0.0248197
0.0248056
0.0247903
0.0247741
0.0247575
0.0247409
0.0247253
0.0247114
0.0247005
0.0246918
0.0246834
0.0240384
0.0240228
0.024003
0.0239828
0.0239661
0.0239539
0.023946
0.0239421
0.0239414
0.0239436
0.0239482
0.0239552
0.0239642
0.0239752
0.0239878
0.0240021
0.0240175
0.024034
0.0240513
0.024069
0.024087
0.0241048
0.0241224
0.0241393
0.0241553
0.0241702
0.0241838
0.0241958
0.0242061
0.0242146
0.024221
0.0242253
0.0242274
0.0242273
0.0242249
0.0242204
0.0242138
0.0242052
0.0241947
0.0241825
0.0241689
0.024154
0.0241382
0.0241221
0.0241059
0.0240907
0.0240772
0.0240666
0.0240582
0.02405
0.0234505
0.0234352
0.0234158
0.0233961
0.0233796
0.0233676
0.02336
0.023356
0.0233553
0.0233574
0.0233619
0.0233687
0.0233775
0.0233881
0.0234004
0.0234142
0.0234292
0.0234453
0.0234621
0.0234794
0.0234969
0.0235143
0.0235314
0.0235479
0.0235635
0.0235781
0.0235913
0.0236031
0.0236132
0.0236215
0.0236278
0.023632
0.0236341
0.023634
0.0236318
0.0236275
0.0236211
0.0236127
0.0236025
0.0235907
0.0235774
0.0235629
0.0235476
0.0235318
0.0235161
0.0235013
0.0234881
0.0234778
0.0234697
0.0234618
0.0229039
0.0228891
0.0228701
0.0228507
0.0228345
0.0228227
0.0228152
0.0228113
0.0228106
0.0228126
0.022817
0.0228235
0.022832
0.0228424
0.0228543
0.0228677
0.0228824
0.022898
0.0229144
0.0229312
0.0229482
0.0229652
0.0229819
0.022998
0.0230133
0.0230275
0.0230405
0.023052
0.0230618
0.02307
0.0230762
0.0230804
0.0230824
0.0230824
0.0230803
0.0230761
0.0230699
0.0230618
0.0230519
0.0230404
0.0230274
0.0230134
0.0229984
0.0229831
0.0229677
0.0229533
0.0229405
0.0229305
0.0229227
0.0229149
0.0223955
0.0223811
0.0223624
0.0223434
0.0223275
0.0223159
0.0223085
0.0223047
0.0223039
0.0223059
0.0223101
0.0223164
0.0223247
0.0223347
0.0223464
0.0223594
0.0223737
0.0223889
0.0224048
0.0224212
0.0224379
0.0224544
0.0224707
0.0224864
0.0225013
0.0225152
0.0225279
0.0225392
0.0225488
0.0225568
0.0225629
0.0225671
0.0225691
0.0225692
0.0225671
0.0225631
0.0225571
0.0225492
0.0225396
0.0225284
0.0225158
0.0225021
0.0224875
0.0224726
0.0224576
0.0224435
0.0224311
0.0224214
0.0224138
0.0224062
0.0219224
0.0219083
0.02189
0.0218713
0.0218557
0.0218444
0.0218371
0.0218333
0.0218325
0.0218344
0.0218384
0.0218446
0.0218526
0.0218624
0.0218737
0.0218864
0.0219003
0.0219151
0.0219306
0.0219466
0.0219628
0.021979
0.0219949
0.0220103
0.0220248
0.0220384
0.0220508
0.0220619
0.0220714
0.0220792
0.0220852
0.0220893
0.0220913
0.0220914
0.0220895
0.0220856
0.0220798
0.0220722
0.0220628
0.0220519
0.0220396
0.0220263
0.0220121
0.0219975
0.0219829
0.0219692
0.021957
0.0219476
0.0219402
0.0219329
0.0214821
0.0214683
0.0214504
0.021432
0.0214167
0.0214055
0.0213983
0.0213946
0.0213938
0.0213956
0.0213995
0.0214055
0.0214133
0.0214228
0.0214338
0.0214461
0.0214597
0.0214741
0.0214893
0.0215049
0.0215207
0.0215365
0.021552
0.021567
0.0215813
0.0215946
0.0216067
0.0216175
0.0216268
0.0216345
0.0216404
0.0216444
0.0216465
0.0216466
0.0216448
0.0216411
0.0216354
0.021628
0.0216189
0.0216083
0.0215964
0.0215834
0.0215695
0.0215553
0.021541
0.0215276
0.0215158
0.0215066
0.0214995
0.0214923
0.0210723
0.0210588
0.0210412
0.0210232
0.0210081
0.0209971
0.02099
0.0209864
0.0209855
0.0209872
0.020991
0.0209968
0.0210044
0.0210136
0.0210243
0.0210364
0.0210496
0.0210636
0.0210784
0.0210937
0.0211091
0.0211245
0.0211397
0.0211543
0.0211683
0.0211813
0.0211932
0.0212038
0.0212129
0.0212205
0.0212263
0.0212303
0.0212324
0.0212326
0.0212308
0.0212272
0.0212218
0.0212146
0.0212057
0.0211954
0.0211837
0.0211711
0.0211575
0.0211436
0.0211297
0.0211167
0.0211051
0.0210961
0.0210892
0.0210822
0.0206909
0.0206778
0.0206605
0.0206428
0.020628
0.0206172
0.0206102
0.0206065
0.0206057
0.0206073
0.020611
0.0206166
0.0206239
0.0206329
0.0206433
0.0206551
0.0206679
0.0206817
0.0206961
0.020711
0.020726
0.0207411
0.0207559
0.0207703
0.0207839
0.0207967
0.0208083
0.0208187
0.0208277
0.0208351
0.0208408
0.0208448
0.0208469
0.0208471
0.0208455
0.020842
0.0208367
0.0208297
0.0208211
0.0208111
0.0207997
0.0207874
0.0207742
0.0207606
0.020747
0.0207342
0.020723
0.0207142
0.0207075
0.0207007
0.0203362
0.0203234
0.0203064
0.020289
0.0202745
0.0202638
0.0202569
0.0202533
0.0202525
0.020254
0.0202575
0.020263
0.0202701
0.0202789
0.020289
0.0203005
0.020313
0.0203264
0.0203404
0.020355
0.0203697
0.0203844
0.0203989
0.020413
0.0204263
0.0204388
0.0204502
0.0204604
0.0204692
0.0204765
0.0204822
0.0204861
0.0204882
0.0204885
0.0204869
0.0204836
0.0204785
0.0204717
0.0204633
0.0204535
0.0204425
0.0204304
0.0204175
0.0204043
0.020391
0.0203785
0.0203675
0.020359
0.0203525
0.0203458
0.0200066
0.0199941
0.0199774
0.0199602
0.0199459
0.0199354
0.0199287
0.0199251
0.0199242
0.0199256
0.019929
0.0199343
0.0199413
0.0199498
0.0199597
0.0199708
0.019983
0.0199961
0.0200099
0.020024
0.0200384
0.0200528
0.020067
0.0200807
0.0200938
0.0201061
0.0201173
0.0201273
0.0201359
0.0201431
0.0201487
0.0201526
0.0201546
0.020155
0.0201535
0.0201503
0.0201454
0.0201388
0.0201306
0.0201211
0.0201103
0.0200985
0.020086
0.020073
0.0200601
0.0200479
0.0200371
0.0200288
0.0200224
0.0200159
0.0197004
0.0196882
0.0196718
0.019655
0.0196409
0.0196306
0.0196239
0.0196203
0.0196194
0.0196208
0.0196241
0.0196292
0.0196359
0.0196442
0.0196539
0.0196647
0.0196766
0.0196894
0.0197028
0.0197167
0.0197307
0.0197448
0.0197587
0.0197721
0.019785
0.019797
0.0198079
0.0198178
0.0198263
0.0198333
0.0198389
0.0198427
0.0198448
0.0198452
0.0198438
0.0198407
0.0198359
0.0198295
0.0198216
0.0198123
0.0198018
0.0197903
0.019778
0.0197654
0.0197527
0.0197408
0.0197303
0.0197222
0.019716
0.0197096
0.0194165
0.0194045
0.0193884
0.0193719
0.019358
0.0193478
0.0193412
0.0193377
0.0193368
0.0193381
0.0193412
0.0193462
0.0193528
0.0193608
0.0193702
0.0193808
0.0193924
0.0194049
0.019418
0.0194315
0.0194453
0.0194591
0.0194726
0.0194858
0.0194984
0.0195101
0.0195209
0.0195306
0.0195389
0.0195459
0.0195513
0.0195551
0.0195572
0.0195577
0.0195564
0.0195534
0.0195488
0.0195426
0.0195348
0.0195258
0.0195156
0.0195043
0.0194924
0.01948
0.0194676
0.0194559
0.0194457
0.0194378
0.0194317
0.0194254
0.0191535
0.0191418
0.019126
0.0191097
0.019096
0.019086
0.0190795
0.019076
0.0190751
0.0190763
0.0190793
0.0190842
0.0190905
0.0190984
0.0191075
0.0191179
0.0191292
0.0191414
0.0191542
0.0191674
0.0191808
0.0191943
0.0192076
0.0192205
0.0192328
0.0192444
0.0192549
0.0192644
0.0192726
0.0192795
0.0192849
0.0192887
0.0192908
0.0192913
0.0192901
0.0192872
0.0192827
0.0192767
0.0192692
0.0192604
0.0192504
0.0192394
0.0192277
0.0192156
0.0192035
0.0191921
0.0191821
0.0191743
0.0191684
0.0191623
0.0189104
0.0188989
0.0188834
0.0188674
0.0188539
0.018844
0.0188376
0.0188341
0.0188331
0.0188343
0.0188372
0.0188419
0.0188481
0.0188557
0.0188647
0.0188747
0.0188858
0.0188977
0.0189102
0.0189231
0.0189363
0.0189495
0.0189625
0.0189751
0.0189872
0.0189985
0.0190089
0.0190182
0.0190263
0.0190331
0.0190384
0.0190421
0.0190443
0.0190448
0.0190437
0.0190409
0.0190366
0.0190307
0.0190234
0.0190149
0.0190051
0.0189944
0.018983
0.0189712
0.0189593
0.0189482
0.0189384
0.0189308
0.018925
0.018919
0.0186861
0.0186749
0.0186596
0.0186438
0.0186306
0.0186208
0.0186145
0.018611
0.01861
0.0186111
0.018614
0.0186185
0.0186245
0.0186319
0.0186406
0.0186505
0.0186612
0.0186729
0.0186851
0.0186977
0.0187106
0.0187235
0.0187362
0.0187486
0.0187605
0.0187716
0.0187818
0.0187909
0.0187989
0.0188056
0.0188108
0.0188146
0.0188167
0.0188173
0.0188162
0.0188136
0.0188094
0.0188037
0.0187966
0.0187883
0.0187787
0.0187683
0.0187571
0.0187456
0.018734
0.0187231
0.0187135
0.0187061
0.0187005
0.0186945
0.0184797
0.0184687
0.0184537
0.0184382
0.0184251
0.0184155
0.0184092
0.0184058
0.0184048
0.0184058
0.0184085
0.0184129
0.0184188
0.018426
0.0184345
0.0184441
0.0184546
0.0184659
0.0184779
0.0184902
0.0185028
0.0185155
0.018528
0.0185401
0.0185517
0.0185626
0.0185726
0.0185817
0.0185895
0.0185961
0.0186013
0.018605
0.0186071
0.0186078
0.0186068
0.0186043
0.0186002
0.0185947
0.0185878
0.0185796
0.0185704
0.0185602
0.0185493
0.018538
0.0185266
0.0185159
0.0185066
0.0184993
0.0184938
0.0184879
0.0182903
0.0182796
0.0182648
0.0182496
0.0182367
0.0182272
0.018221
0.0182176
0.0182166
0.0182175
0.0182201
0.0182244
0.0182301
0.0182371
0.0182454
0.0182547
0.018265
0.0182761
0.0182877
0.0182998
0.0183122
0.0183245
0.0183368
0.0183487
0.0183601
0.0183708
0.0183806
0.0183895
0.0183972
0.0184037
0.0184089
0.0184125
0.0184147
0.0184154
0.0184145
0.0184121
0.0184081
0.0184028
0.0183961
0.0183881
0.0183791
0.0183692
0.0183585
0.0183474
0.0183363
0.0183259
0.0183167
0.0183096
0.0183042
0.0182984
0.0181172
0.0181067
0.0180922
0.0180772
0.0180645
0.0180552
0.018049
0.0180457
0.0180446
0.0180454
0.018048
0.0180521
0.0180576
0.0180645
0.0180725
0.0180816
0.0180917
0.0181025
0.0181139
0.0181257
0.0181378
0.0181499
0.0181619
0.0181736
0.0181848
0.0181953
0.018205
0.0182137
0.0182213
0.0182277
0.0182328
0.0182365
0.0182386
0.0182393
0.0182385
0.0182362
0.0182324
0.0182272
0.0182207
0.018213
0.0182042
0.0181945
0.018184
0.0181732
0.0181623
0.0181521
0.0181431
0.0181362
0.0181309
0.0181252
0.0179597
0.0179494
0.0179351
0.0179204
0.0179079
0.0178987
0.0178926
0.0178892
0.0178881
0.0178889
0.0178914
0.0178953
0.0179007
0.0179074
0.0179152
0.0179241
0.0179339
0.0179445
0.0179556
0.0179672
0.017979
0.0179909
0.0180026
0.0180141
0.0180251
0.0180354
0.0180449
0.0180535
0.018061
0.0180673
0.0180724
0.018076
0.0180782
0.018079
0.0180782
0.018076
0.0180724
0.0180673
0.018061
0.0180534
0.0180448
0.0180354
0.0180252
0.0180146
0.018004
0.0179939
0.0179851
0.0179783
0.0179732
0.0179676
0.0178171
0.017807
0.0177929
0.0177784
0.0177661
0.017757
0.017751
0.0177477
0.0177465
0.0177473
0.0177496
0.0177535
0.0177587
0.0177651
0.0177728
0.0177815
0.017791
0.0178014
0.0178123
0.0178236
0.0178351
0.0178468
0.0178583
0.0178695
0.0178803
0.0178905
0.0178998
0.0179083
0.0179157
0.0179219
0.0179269
0.0179305
0.0179327
0.0179335
0.0179329
0.0179308
0.0179272
0.0179224
0.0179162
0.0179089
0.0179005
0.0178912
0.0178812
0.0178709
0.0178605
0.0178507
0.017842
0.0178354
0.0178303
0.0178248
0.0176887
0.0176789
0.017665
0.0176507
0.0176386
0.0176296
0.0176237
0.0176204
0.0176192
0.0176199
0.0176221
0.0176258
0.0176309
0.0176372
0.0176446
0.0176531
0.0176624
0.0176725
0.0176832
0.0176943
0.0177056
0.017717
0.0177283
0.0177393
0.0177499
0.0177599
0.0177691
0.0177774
0.0177847
0.0177909
0.0177958
0.0177994
0.0178016
0.0178025
0.0178019
0.0177999
0.0177965
0.0177918
0.0177858
0.0177786
0.0177704
0.0177614
0.0177516
0.0177415
0.0177313
0.0177217
0.0177133
0.0177067
0.0177018
0.0176963
0.0175741
0.0175644
0.0175509
0.0175368
0.0175248
0.017516
0.0175101
0.0175068
0.0175056
0.0175062
0.0175083
0.0175119
0.0175168
0.017523
0.0175302
0.0175385
0.0175476
0.0175574
0.0175679
0.0175787
0.0175898
0.017601
0.017612
0.0176229
0.0176332
0.017643
0.0176521
0.0176603
0.0176675
0.0176736
0.0176785
0.0176821
0.0176843
0.0176852
0.0176847
0.0176828
0.0176795
0.017675
0.0176691
0.0176622
0.0176542
0.0176453
0.0176358
0.0176259
0.0176159
0.0176065
0.0175982
0.0175918
0.017587
0.0175816
0.0174727
0.0174632
0.0174499
0.017436
0.0174242
0.0174155
0.0174097
0.0174064
0.0174052
0.0174057
0.0174078
0.0174112
0.017416
0.0174219
0.017429
0.017437
0.017446
0.0174556
0.0174658
0.0174764
0.0174872
0.0174982
0.017509
0.0175197
0.0175299
0.0175395
0.0175484
0.0175565
0.0175636
0.0175696
0.0175745
0.0175781
0.0175803
0.0175813
0.0175808
0.017579
0.0175758
0.0175714
0.0175657
0.017559
0.0175512
0.0175426
0.0175333
0.0175236
0.0175138
0.0175046
0.0174965
0.0174902
0.0174854
0.0174801
0.0173841
0.0173748
0.0173616
0.017348
0.0173364
0.0173277
0.017322
0.0173187
0.0173174
0.0173179
0.0173199
0.0173232
0.0173278
0.0173336
0.0173405
0.0173484
0.0173571
0.0173665
0.0173764
0.0173868
0.0173975
0.0174082
0.0174188
0.0174292
0.0174393
0.0174487
0.0174575
0.0174655
0.0174725
0.0174784
0.0174832
0.0174868
0.0174891
0.0174901
0.0174897
0.017488
0.017485
0.0174807
0.0174752
0.0174686
0.017461
0.0174526
0.0174435
0.017434
0.0174244
0.0174154
0.0174074
0.0174013
0.0173966
0.0173913
0.0173077
0.0172986
0.0172857
0.0172723
0.0172608
0.0172523
0.0172466
0.0172433
0.017242
0.0172424
0.0172443
0.0172475
0.017252
0.0172576
0.0172643
0.017272
0.0172805
0.0172897
0.0172994
0.0173096
0.01732
0.0173305
0.0173409
0.0173512
0.017361
0.0173703
0.017379
0.0173868
0.0173937
0.0173996
0.0174044
0.0174079
0.0174102
0.0174113
0.017411
0.0174093
0.0174064
0.0174023
0.0173969
0.0173905
0.0173831
0.0173749
0.017366
0.0173567
0.0173473
0.0173385
0.0173307
0.0173247
0.0173201
0.0173149
0.0172433
0.0172343
0.0172216
0.0172084
0.0171971
0.0171887
0.017183
0.0171798
0.0171784
0.0171788
0.0171806
0.0171837
0.017188
0.0171935
0.0172
0.0172075
0.0172158
0.0172247
0.0172343
0.0172442
0.0172544
0.0172647
0.017275
0.017285
0.0172947
0.0173038
0.0173123
0.0173201
0.0173269
0.0173327
0.0173375
0.017341
0.0173433
0.0173444
0.0173442
0.0173426
0.0173398
0.0173358
0.0173306
0.0173244
0.0173172
0.0173091
0.0173004
0.0172914
0.0172822
0.0172735
0.0172659
0.01726
0.0172554
0.0172503
0.0171903
0.0171816
0.0171691
0.0171561
0.0171449
0.0171366
0.017131
0.0171277
0.0171264
0.0171267
0.0171284
0.0171314
0.0171356
0.0171409
0.0171472
0.0171545
0.0171626
0.0171714
0.0171807
0.0171904
0.0172004
0.0172105
0.0172205
0.0172304
0.0172399
0.0172489
0.0172573
0.0172649
0.0172716
0.0172774
0.0172821
0.0172856
0.017288
0.0172891
0.0172889
0.0172875
0.0172848
0.0172809
0.0172759
0.0172698
0.0172628
0.017255
0.0172465
0.0172376
0.0172286
0.0172201
0.0172126
0.0172068
0.0172024
0.0171972
0.0171485
0.01714
0.0171277
0.0171149
0.0171039
0.0170957
0.0170901
0.0170869
0.0170855
0.0170857
0.0170874
0.0170902
0.0170943
0.0170995
0.0171056
0.0171127
0.0171206
0.0171292
0.0171383
0.0171478
0.0171576
0.0171675
0.0171773
0.017187
0.0171963
0.0172052
0.0172134
0.017221
0.0172276
0.0172333
0.017238
0.0172415
0.0172439
0.017245
0.0172449
0.0172436
0.017241
0.0172373
0.0172324
0.0172265
0.0172196
0.017212
0.0172037
0.017195
0.0171862
0.0171779
0.0171705
0.0171648
0.0171604
0.0171554
0.0171176
0.0171092
0.0170972
0.0170845
0.0170737
0.0170656
0.0170601
0.0170568
0.0170555
0.0170556
0.0170572
0.0170599
0.0170639
0.0170689
0.0170749
0.0170818
0.0170895
0.0170978
0.0171067
0.017116
0.0171256
0.0171353
0.017145
0.0171545
0.0171637
0.0171724
0.0171805
0.0171879
0.0171945
0.0172001
0.0172048
0.0172083
0.0172107
0.0172119
0.0172118
0.0172106
0.0172081
0.0172045
0.0171998
0.017194
0.0171873
0.0171799
0.0171718
0.0171633
0.0171547
0.0171465
0.0171393
0.0171337
0.0171294
0.0171244
0.0170973
0.017089
0.0170772
0.0170648
0.0170541
0.017046
0.0170406
0.0170374
0.0170359
0.0170361
0.0170375
0.0170402
0.017044
0.0170488
0.0170547
0.0170614
0.0170689
0.0170771
0.0170858
0.0170949
0.0171042
0.0171138
0.0171232
0.0171326
0.0171416
0.0171501
0.0171581
0.0171655
0.017172
0.0171776
0.0171821
0.0171857
0.0171881
0.0171893
0.0171893
0.0171882
0.0171858
0.0171823
0.0171777
0.0171722
0.0171657
0.0171584
0.0171505
0.0171421
0.0171337
0.0171257
0.0171187
0.0171132
0.0171089
0.0171039
0.0170872
0.0170792
0.0170675
0.0170553
0.0170447
0.0170368
0.0170314
0.0170282
0.0170267
0.0170268
0.0170281
0.0170307
0.0170344
0.0170391
0.0170447
0.0170513
0.0170586
0.0170666
0.0170751
0.017084
0.0170932
0.0171025
0.0171118
0.0171209
0.0171298
0.0171382
0.0171461
0.0171533
0.0171598
0.0171653
0.0171699
0.0171734
0.0171758
0.0171771
0.0171772
0.0171761
0.0171738
0.0171705
0.0171661
0.0171606
0.0171543
0.0171472
0.0171395
0.0171313
0.0171231
0.0171152
0.0171083
0.0171029
0.0170987
0.0170938
0.0170872
0.0170793
0.0170678
0.0170558
0.0170454
0.0170376
0.0170322
0.017029
0.0170275
0.0170275
0.0170288
0.0170312
0.0170348
0.0170393
0.0170449
0.0170512
0.0170584
0.0170661
0.0170745
0.0170832
0.0170922
0.0171013
0.0171104
0.0171194
0.0171281
0.0171364
0.0171442
0.0171513
0.0171576
0.0171631
0.0171676
0.0171712
0.0171736
0.0171749
0.0171751
0.0171741
0.017172
0.0171687
0.0171644
0.0171592
0.017153
0.0171461
0.0171385
0.0171306
0.0171225
0.0171148
0.017108
0.0171027
0.0170986
0.0170937
0.017097
0.0170892
0.017078
0.0170661
0.0170559
0.0170481
0.0170428
0.0170396
0.0170381
0.017038
0.0170392
0.0170416
0.017045
0.0170494
0.0170548
0.017061
0.0170679
0.0170755
0.0170836
0.0170922
0.017101
0.0171099
0.0171189
0.0171277
0.0171362
0.0171444
0.0171521
0.0171591
0.0171653
0.0171708
0.0171753
0.0171788
0.0171812
0.0171826
0.0171828
0.0171819
0.0171799
0.0171768
0.0171726
0.0171675
0.0171615
0.0171548
0.0171474
0.0171396
0.0171317
0.0171242
0.0171176
0.0171123
0.0171083
0.0171034
0.0171164
0.0171088
0.0170977
0.017086
0.0170759
0.0170683
0.017063
0.0170598
0.0170583
0.0170582
0.0170593
0.0170615
0.0170648
0.0170691
0.0170743
0.0170803
0.0170871
0.0170945
0.0171024
0.0171108
0.0171194
0.0171281
0.0171369
0.0171456
0.017154
0.017162
0.0171696
0.0171765
0.0171827
0.0171881
0.0171925
0.017196
0.0171985
0.0171999
0.0172002
0.0171994
0.0171975
0.0171945
0.0171905
0.0171855
0.0171797
0.0171731
0.0171659
0.0171583
0.0171506
0.0171432
0.0171367
0.0171316
0.0171275
0.0171227
0.0171451
0.0171377
0.0171268
0.0171153
0.0171054
0.0170978
0.0170926
0.0170894
0.0170878
0.0170876
0.0170887
0.0170908
0.017094
0.0170981
0.0171032
0.017109
0.0171156
0.0171229
0.0171306
0.0171388
0.0171472
0.0171558
0.0171644
0.0171729
0.0171812
0.0171891
0.0171965
0.0172033
0.0172094
0.0172148
0.0172192
0.0172227
0.0172252
0.0172266
0.017227
0.0172263
0.0172244
0.0172216
0.0172177
0.0172129
0.0172072
0.0172008
0.0171938
0.0171864
0.0171788
0.0171716
0.0171652
0.0171602
0.0171562
0.0171514
0.0171831
0.0171758
0.0171651
0.0171538
0.017144
0.0171365
0.0171313
0.0171281
0.0171266