/*--------------------------------*- C++ -*----------------------------------*\
  =========                 |
  \\      /  F ield         | OpenFOAM: The Open Source CFD Toolbox
   \\    /   O peration     | Website:  https://openfoam.org
    \\  /    A nd           | Version:  13
     \\/     M anipulation  |
\*---------------------------------------------------------------------------*/
FoamFile
{
    format      ascii;
    class       volScalarField;
    location    "4000";
    object      k;
}
// * * * * * * * * * * * * * * * * * * * * * * * * * * * * * * * * * * * * * //

dimensions      [0 2 -2 0 0 0 0];

internalField   nonuniform List<scalar> 
25000
(
0.000139041
0.000139039
0.000139026
0.000139011
0.000138995
0.000138981
0.00013897
0.000138961
0.000138953
0.000138946
0.00013894
0.000138934
0.000138929
0.000138925
0.000138921
0.000138917
0.000138915
0.000138913
0.000138912
0.000138912
0.000138912
0.000138914
0.000138917
0.00013892
0.000138924
0.00013893
0.000138936
0.000138942
0.000138949
0.000138957
0.000138964
0.000138972
0.00013898
0.000138987
0.000138995
0.000139001
0.000139007
0.000139013
0.000139017
0.000139021
0.000139024
0.000139025
0.000139026
0.000139026
0.000139027
0.000139027
0.000139029
0.000139032
0.000139038
0.00013904
0.000470807
0.000470782
0.000470635
0.000470462
0.000470281
0.000470129
0.000470002
0.000469903
0.000469819
0.000469745
0.000469679
0.000469619
0.000469568
0.000469522
0.000469485
0.000469455
0.000469434
0.00046942
0.000469417
0.000469422
0.000469438
0.000469463
0.000469499
0.000469544
0.000469598
0.000469661
0.000469731
0.000469808
0.000469889
0.000469972
0.000470055
0.00047014
0.000470228
0.00047031
0.000470388
0.000470458
0.000470522
0.000470575
0.000470621
0.000470655
0.00047068
0.000470691
0.000470696
0.00047069
0.000470685
0.000470679
0.000470695
0.000470725
0.000470785
0.000470798
0.000949902
0.000949811
0.00094945
0.00094903
0.0009486
0.000948241
0.000947945
0.000947715
0.000947529
0.000947367
0.000947231
0.000947113
0.000947018
0.000946941
0.000946886
0.00094685
0.000946835
0.000946841
0.000946869
0.000946919
0.000946992
0.000947085
0.000947201
0.000947336
0.00094749
0.000947659
0.000947842
0.000948035
0.000948235
0.000948436
0.000948634
0.00094883
0.000949028
0.000949209
0.000949375
0.000949521
0.000949648
0.00094975
0.00094983
0.00094988
0.000949908
0.000949904
0.000949883
0.000949836
0.000949793
0.000949748
0.000949755
0.000949797
0.000949903
0.000949914
0.00145464
0.00145442
0.00145385
0.0014532
0.00145255
0.00145201
0.00145158
0.00145125
0.00145099
0.00145078
0.00145062
0.0014505
0.00145042
0.00145037
0.00145036
0.00145039
0.00145045
0.00145054
0.00145067
0.00145083
0.00145102
0.00145124
0.00145148
0.00145175
0.00145204
0.00145234
0.00145265
0.00145297
0.00145329
0.0014536
0.0014539
0.00145418
0.00145445
0.00145469
0.0014549
0.00145508
0.00145521
0.00145531
0.00145536
0.00145537
0.00145534
0.00145526
0.00145516
0.00145502
0.00145488
0.00145474
0.00145468
0.00145467
0.00145476
0.00145473
0.00188265
0.00188229
0.00188157
0.00188075
0.00187996
0.00187931
0.0018788
0.00187842
0.00187814
0.00187794
0.0018778
0.00187772
0.0018777
0.00187773
0.00187782
0.00187795
0.00187813
0.00187835
0.00187861
0.0018789
0.00187924
0.0018796
0.00187998
0.00188038
0.0018808
0.00188122
0.00188165
0.00188207
0.00188248
0.00188286
0.00188322
0.00188355
0.00188385
0.0018841
0.0018843
0.00188445
0.00188455
0.00188459
0.00188457
0.00188449
0.00188437
0.00188418
0.00188396
0.0018837
0.00188344
0.00188319
0.00188302
0.00188293
0.00188294
0.00188283
0.00221195
0.00221147
0.00221064
0.00220971
0.00220884
0.00220813
0.00220758
0.00220719
0.00220691
0.00220673
0.00220664
0.00220662
0.00220667
0.00220678
0.00220696
0.0022072
0.00220749
0.00220784
0.00220822
0.00220865
0.00220911
0.00220959
0.0022101
0.00221062
0.00221114
0.00221166
0.00221217
0.00221267
0.00221314
0.00221357
0.00221396
0.00221431
0.00221461
0.00221485
0.00221502
0.00221513
0.00221517
0.00221514
0.00221505
0.00221488
0.00221466
0.00221437
0.00221404
0.00221367
0.00221329
0.00221294
0.00221266
0.00221248
0.0022124
0.00221223
0.00246131
0.00246073
0.00245983
0.00245882
0.0024579
0.00245714
0.00245658
0.00245618
0.00245591
0.00245575
0.0024557
0.00245573
0.00245584
0.00245603
0.00245629
0.00245662
0.00245701
0.00245745
0.00245794
0.00245847
0.00245903
0.00245962
0.00246022
0.00246083
0.00246144
0.00246203
0.00246261
0.00246316
0.00246367
0.00246414
0.00246455
0.00246491
0.0024652
0.00246542
0.00246557
0.00246564
0.00246563
0.00246554
0.00246538
0.00246514
0.00246483
0.00246445
0.00246403
0.00246357
0.0024631
0.00246266
0.0024623
0.00246205
0.00246189
0.00246167
0.00265489
0.00265424
0.00265328
0.00265221
0.00265124
0.00265046
0.00264987
0.00264947
0.00264921
0.00264908
0.00264905
0.00264912
0.00264928
0.00264953
0.00264986
0.00265025
0.00265072
0.00265124
0.00265181
0.00265242
0.00265306
0.00265373
0.00265441
0.00265509
0.00265576
0.00265642
0.00265705
0.00265764
0.00265818
0.00265868
0.00265911
0.00265947
0.00265976
0.00265997
0.00266009
0.00266013
0.00266008
0.00265995
0.00265973
0.00265943
0.00265905
0.00265861
0.00265811
0.00265758
0.00265704
0.00265653
0.0026561
0.00265579
0.00265558
0.00265531
0.00281103
0.00281032
0.0028093
0.00280819
0.00280718
0.00280636
0.00280577
0.00280536
0.0028051
0.00280498
0.00280498
0.00280508
0.00280528
0.00280557
0.00280595
0.0028064
0.00280693
0.00280751
0.00280814
0.00280882
0.00280953
0.00281026
0.002811
0.00281173
0.00281246
0.00281316
0.00281383
0.00281446
0.00281504
0.00281555
0.002816
0.00281637
0.00281666
0.00281686
0.00281696
0.00281698
0.0028169
0.00281673
0.00281647
0.00281612
0.00281569
0.00281519
0.00281464
0.00281405
0.00281345
0.00281288
0.0028124
0.00281205
0.0028118
0.00281149
0.0029417
0.00294094
0.00293988
0.00293871
0.00293767
0.00293683
0.00293622
0.0029358
0.00293555
0.00293544
0.00293545
0.00293558
0.00293581
0.00293614
0.00293656
0.00293705
0.00293762
0.00293826
0.00293894
0.00293967
0.00294043
0.00294121
0.002942
0.00294279
0.00294356
0.0029443
0.00294501
0.00294567
0.00294627
0.0029468
0.00294726
0.00294764
0.00294793
0.00294812
0.00294822
0.00294822
0.00294811
0.00294791
0.00294762
0.00294723
0.00294676
0.00294622
0.00294562
0.00294498
0.00294433
0.00294372
0.0029432
0.00294281
0.00294253
0.0029422
0.00305448
0.00305369
0.00305258
0.00305138
0.0030503
0.00304944
0.00304881
0.00304839
0.00304814
0.00304803
0.00304806
0.00304821
0.00304846
0.00304882
0.00304927
0.0030498
0.00305041
0.00305109
0.00305182
0.00305259
0.0030534
0.00305422
0.00305505
0.00305588
0.00305668
0.00305746
0.0030582
0.00305889
0.00305951
0.00306006
0.00306053
0.00306092
0.00306121
0.0030614
0.00306149
0.00306147
0.00306135
0.00306113
0.0030608
0.00306039
0.00305988
0.0030593
0.00305866
0.00305798
0.0030573
0.00305665
0.00305609
0.00305568
0.00305537
0.00305501
0.00315428
0.00315345
0.00315231
0.00315107
0.00314995
0.00314907
0.00314843
0.003148
0.00314775
0.00314765
0.00314769
0.00314785
0.00314813
0.00314851
0.00314898
0.00314955
0.00315019
0.0031509
0.00315167
0.00315248
0.00315332
0.00315418
0.00315505
0.00315591
0.00315675
0.00315756
0.00315833
0.00315904
0.00315968
0.00316025
0.00316073
0.00316113
0.00316142
0.00316161
0.00316169
0.00316167
0.00316153
0.00316129
0.00316094
0.0031605
0.00315996
0.00315935
0.00315868
0.00315797
0.00315724
0.00315656
0.00315598
0.00315554
0.00315521
0.00315484
0.00324434
0.00324348
0.00324231
0.00324103
0.00323989
0.00323898
0.00323832
0.00323789
0.00323764
0.00323754
0.00323759
0.00323777
0.00323806
0.00323846
0.00323896
0.00323955
0.00324023
0.00324097
0.00324177
0.00324261
0.00324348
0.00324438
0.00324528
0.00324617
0.00324704
0.00324788
0.00324867
0.0032494
0.00325006
0.00325065
0.00325114
0.00325154
0.00325184
0.00325203
0.00325211
0.00325207
0.00325192
0.00325166
0.0032513
0.00325083
0.00325027
0.00324963
0.00324893
0.00324819
0.00324744
0.00324673
0.00324612
0.00324566
0.00324531
0.00324492
0.00332692
0.00332603
0.00332482
0.00332351
0.00332234
0.00332142
0.00332075
0.0033203
0.00332005
0.00331996
0.00332002
0.0033202
0.00332051
0.00332093
0.00332145
0.00332207
0.00332276
0.00332353
0.00332436
0.00332523
0.00332614
0.00332706
0.00332799
0.00332891
0.00332981
0.00333067
0.00333148
0.00333223
0.00333291
0.00333351
0.00333402
0.00333443
0.00333473
0.00333492
0.00333499
0.00333495
0.00333479
0.00333452
0.00333413
0.00333365
0.00333307
0.0033324
0.00333167
0.0033309
0.00333013
0.00332939
0.00332876
0.00332828
0.00332792
0.00332752
0.00340362
0.00340271
0.00340147
0.00340013
0.00339893
0.00339799
0.0033973
0.00339685
0.0033966
0.00339651
0.00339657
0.00339677
0.00339709
0.00339752
0.00339806
0.0033987
0.00339942
0.00340021
0.00340106
0.00340196
0.00340289
0.00340385
0.0034048
0.00340575
0.00340667
0.00340755
0.00340839
0.00340916
0.00340985
0.00341047
0.00341098
0.0034114
0.0034117
0.00341189
0.00341197
0.00341192
0.00341175
0.00341147
0.00341107
0.00341056
0.00340996
0.00340928
0.00340852
0.00340773
0.00340693
0.00340617
0.00340552
0.00340502
0.00340465
0.00340423
0.00347562
0.0034747
0.00347343
0.00347206
0.00347084
0.00346987
0.00346918
0.00346872
0.00346846
0.00346838
0.00346844
0.00346865
0.00346898
0.00346943
0.00346998
0.00347064
0.00347138
0.00347219
0.00347307
0.00347399
0.00347495
0.00347592
0.0034769
0.00347787
0.00347882
0.00347972
0.00348057
0.00348136
0.00348207
0.0034827
0.00348323
0.00348365
0.00348396
0.00348415
0.00348422
0.00348417
0.00348399
0.0034837
0.00348328
0.00348277
0.00348215
0.00348144
0.00348067
0.00347985
0.00347903
0.00347825
0.00347758
0.00347707
0.00347669
0.00347626
0.00354384
0.00354289
0.0035416
0.0035402
0.00353896
0.00353797
0.00353726
0.0035368
0.00353654
0.00353646
0.00353653
0.00353674
0.00353708
0.00353754
0.00353811
0.00353878
0.00353954
0.00354038
0.00354127
0.00354222
0.0035432
0.00354419
0.0035452
0.00354619
0.00354715
0.00354808
0.00354895
0.00354975
0.00355048
0.00355112
0.00355165
0.00355208
0.0035524
0.00355259
0.00355266
0.0035526
0.00355242
0.00355211
0.00355169
0.00355116
0.00355052
0.0035498
0.00354901
0.00354817
0.00354733
0.00354653
0.00354584
0.00354532
0.00354493
0.00354449
0.00360896
0.003608
0.00360667
0.00360525
0.00360398
0.00360298
0.00360226
0.00360179
0.00360153
0.00360145
0.00360152
0.00360174
0.00360209
0.00360256
0.00360314
0.00360383
0.00360461
0.00360546
0.00360638
0.00360734
0.00360834
0.00360936
0.00361038
0.00361139
0.00361238
0.00361332
0.00361421
0.00361503
0.00361577
0.00361642
0.00361696
0.0036174
0.00361772
0.00361791
0.00361798
0.00361792
0.00361773
0.00361742
0.00361699
0.00361644
0.00361579
0.00361505
0.00361424
0.00361338
0.00361252
0.00361171
0.00361101
0.00361047
0.00361007
0.00360962
0.00367153
0.00367055
0.00366921
0.00366776
0.00366647
0.00366545
0.00366472
0.00366425
0.00366398
0.0036639
0.00366397
0.0036642
0.00366455
0.00366504
0.00366563
0.00366633
0.00366713
0.003668
0.00366893
0.00366991
0.00367093
0.00367197
0.00367301
0.00367404
0.00367504
0.00367601
0.00367691
0.00367774
0.0036785
0.00367916
0.00367971
0.00368016
0.00368048
0.00368068
0.00368074
0.00368068
0.00368049
0.00368017
0.00367972
0.00367916
0.0036785
0.00367775
0.00367692
0.00367605
0.00367517
0.00367434
0.00367362
0.00367308
0.00367267
0.00367221
0.00373201
0.00373102
0.00372965
0.00372818
0.00372687
0.00372583
0.00372509
0.00372461
0.00372434
0.00372426
0.00372434
0.00372456
0.00372493
0.00372542
0.00372603
0.00372674
0.00372755
0.00372843
0.00372938
0.00373038
0.00373142
0.00373248
0.00373354
0.00373458
0.0037356
0.00373658
0.0037375
0.00373835
0.00373911
0.00373978
0.00374035
0.0037408
0.00374112
0.00374132
0.00374139
0.00374133
0.00374113
0.0037408
0.00374035
0.00373978
0.0037391
0.00373834
0.00373749
0.00373661
0.00373571
0.00373487
0.00373414
0.00373358
0.00373316
0.0037327
0.00379075
0.00378975
0.00378836
0.00378686
0.00378553
0.00378449
0.00378373
0.00378324
0.00378297
0.00378289
0.00378297
0.0037832
0.00378357
0.00378407
0.00378469
0.00378541
0.00378623
0.00378713
0.0037881
0.00378912
0.00379017
0.00379124
0.00379232
0.00379338
0.00379442
0.00379541
0.00379635
0.00379721
0.00379798
0.00379866
0.00379924
0.00379969
0.00380002
0.00380023
0.0038003
0.00380023
0.00380003
0.00379969
0.00379923
0.00379865
0.00379796
0.00379718
0.00379633
0.00379543
0.00379452
0.00379366
0.00379292
0.00379235
0.00379193
0.00379145
0.00384807
0.00384705
0.00384564
0.00384412
0.00384277
0.00384171
0.00384095
0.00384045
0.00384018
0.00384009
0.00384018
0.00384041
0.00384079
0.0038413
0.00384192
0.00384266
0.00384349
0.0038444
0.00384538
0.00384642
0.00384748
0.00384857
0.00384967
0.00385075
0.0038518
0.0038528
0.00385375
0.00385462
0.00385541
0.0038561
0.00385668
0.00385715
0.00385748
0.00385769
0.00385776
0.00385769
0.00385748
0.00385714
0.00385667
0.00385609
0.00385539
0.0038546
0.00385373
0.00385281
0.00385189
0.00385102
0.00385026
0.00384969
0.00384926
0.00384878
0.00390421
0.00390317
0.00390175
0.00390021
0.00389884
0.00389777
0.003897
0.00389649
0.00389621
0.00389613
0.00389621
0.00389645
0.00389684
0.00389735
0.00389799
0.00389873
0.00389957
0.0039005
0.00390149
0.00390254
0.00390362
0.00390473
0.00390583
0.00390693
0.00390799
0.00390901
0.00390997
0.00391086
0.00391166
0.00391236
0.00391295
0.00391342
0.00391376
0.00391396
0.00391403
0.00391396
0.00391375
0.00391341
0.00391294
0.00391234
0.00391163
0.00391083
0.00390995
0.00390902
0.00390808
0.0039072
0.00390644
0.00390586
0.00390542
0.00390493
0.00395939
0.00395835
0.0039569
0.00395535
0.00395396
0.00395287
0.00395209
0.00395158
0.0039513
0.00395121
0.0039513
0.00395154
0.00395193
0.00395245
0.00395309
0.00395385
0.0039547
0.00395564
0.00395664
0.0039577
0.0039588
0.00395992
0.00396104
0.00396215
0.00396323
0.00396426
0.00396523
0.00396613
0.00396694
0.00396765
0.00396824
0.00396872
0.00396906
0.00396927
0.00396934
0.00396927
0.00396906
0.00396871
0.00396823
0.00396763
0.00396691
0.0039661
0.00396521
0.00396427
0.00396332
0.00396243
0.00396165
0.00396106
0.00396062
0.00396012
0.00401381
0.00401276
0.00401129
0.00400972
0.00400832
0.00400722
0.00400643
0.00400591
0.00400562
0.00400554
0.00400562
0.00400587
0.00400626
0.00400679
0.00400744
0.0040082
0.00400906
0.00401001
0.00401103
0.0040121
0.00401321
0.00401434
0.00401547
0.00401659
0.00401768
0.00401873
0.00401972
0.00402062
0.00402144
0.00402216
0.00402276
0.00402324
0.00402359
0.00402381
0.00402388
0.00402381
0.0040236
0.00402324
0.00402276
0.00402215
0.00402142
0.0040206
0.0040197
0.00401875
0.00401779
0.00401688
0.0040161
0.0040155
0.00401506
0.00401455
0.00406762
0.00406656
0.00406508
0.00406349
0.00406207
0.00406096
0.00406016
0.00405964
0.00405935
0.00405926
0.00405935
0.00405959
0.00405999
0.00406052
0.00406118
0.00406195
0.00406282
0.00406378
0.0040648
0.00406589
0.00406701
0.00406815
0.0040693
0.00407043
0.00407153
0.00407259
0.00407359
0.00407451
0.00407533
0.00407606
0.00407667
0.00407716
0.00407751
0.00407773
0.0040778
0.00407773
0.00407752
0.00407716
0.00407667
0.00407605
0.00407532
0.00407449
0.00407358
0.00407262
0.00407165
0.00407073
0.00406994
0.00406934
0.00406889
0.00406837
0.00412098
0.00411991
0.00411841
0.0041168
0.00411537
0.00411425
0.00411344
0.00411291
0.00411262
0.00411253
0.00411261
0.00411286
0.00411326
0.0041138
0.00411446
0.00411524
0.00411611
0.00411708
0.00411812
0.00411921
0.00412034
0.0041215
0.00412266
0.0041238
0.00412492
0.00412599
0.00412699
0.00412792
0.00412876
0.00412949
0.00413011
0.0041306
0.00413096
0.00413118
0.00413126
0.00413119
0.00413097
0.00413061
0.00413012
0.00412949
0.00412876
0.00412792
0.00412699
0.00412602
0.00412504
0.00412412
0.00412332
0.00412271
0.00412226
0.00412174
0.004174
0.00417292
0.00417141
0.00416979
0.00416834
0.0041672
0.00416639
0.00416585
0.00416556
0.00416546
0.00416555
0.0041658
0.0041662
0.00416674
0.00416741
0.00416819
0.00416908
0.00417005
0.0041711
0.0041722
0.00417335
0.00417451
0.00417568
0.00417684
0.00417796
0.00417904
0.00418006
0.004181
0.00418184
0.00418259
0.00418321
0.00418371
0.00418407
0.0041843
0.00418437
0.0041843
0.00418408
0.00418372
0.00418323
0.0041826
0.00418185
0.00418101
0.00418008
0.0041791
0.00417811
0.00417718
0.00417637
0.00417576
0.00417529
0.00417477
0.00422681
0.00422572
0.00422419
0.00422255
0.00422109
0.00421994
0.00421912
0.00421858
0.00421828
0.00421819
0.00421827
0.00421852
0.00421893
0.00421947
0.00422014
0.00422093
0.00422182
0.00422281
0.00422386
0.00422498
0.00422613
0.0042273
0.00422848
0.00422965
0.00423078
0.00423187
0.0042329
0.00423385
0.0042347
0.00423545
0.00423608
0.00423659
0.00423696
0.00423718
0.00423726
0.00423719
0.00423697
0.00423661
0.00423611
0.00423548
0.00423473
0.00423387
0.00423294
0.00423195
0.00423095
0.00423001
0.0042292
0.00422858
0.00422811
0.00422758
0.00427949
0.0042784
0.00427686
0.0042752
0.00427373
0.00427257
0.00427174
0.00427119
0.00427089
0.0042708
0.00427088
0.00427113
0.00427154
0.00427208
0.00427276
0.00427355
0.00427445
0.00427544
0.00427651
0.00427763
0.00427879
0.00427997
0.00428116
0.00428234
0.00428348
0.00428458
0.00428562
0.00428658
0.00428744
0.00428819
0.00428883
0.00428934
0.00428972
0.00428994
0.00429003
0.00428996
0.00428974
0.00428938
0.00428887
0.00428823
0.00428748
0.00428662
0.00428567
0.00428468
0.00428368
0.00428273
0.00428191
0.00428128
0.00428081
0.00428027
0.00433216
0.00433105
0.0043295
0.00432784
0.00432635
0.00432518
0.00432434
0.00432379
0.00432348
0.00432338
0.00432347
0.00432372
0.00432413
0.00432467
0.00432535
0.00432615
0.00432706
0.00432806
0.00432913
0.00433025
0.00433142
0.00433262
0.00433381
0.004335
0.00433616
0.00433726
0.00433831
0.00433927
0.00434014
0.00434091
0.00434155
0.00434207
0.00434244
0.00434268
0.00434276
0.00434269
0.00434247
0.00434211
0.0043416
0.00434096
0.0043402
0.00433934
0.00433839
0.00433739
0.00433637
0.00433542
0.00433459
0.00433396
0.00433349
0.00433294
0.00438488
0.00438377
0.00438221
0.00438053
0.00437903
0.00437785
0.004377
0.00437645
0.00437614
0.00437604
0.00437612
0.00437637
0.00437678
0.00437733
0.00437801
0.00437882
0.00437973
0.00438073
0.0043818
0.00438294
0.00438412
0.00438532
0.00438652
0.00438772
0.00438888
0.00439
0.00439105
0.00439202
0.0043929
0.00439367
0.00439432
0.00439485
0.00439523
0.00439546
0.00439555
0.00439548
0.00439527
0.0043949
0.00439439
0.00439375
0.00439298
0.00439211
0.00439116
0.00439015
0.00438913
0.00438817
0.00438734
0.00438671
0.00438623
0.00438568
0.00443775
0.00443663
0.00443506
0.00443336
0.00443186
0.00443067
0.00442981
0.00442925
0.00442893
0.00442883
0.00442891
0.00442916
0.00442957
0.00443012
0.00443081
0.00443162
0.00443253
0.00443354
0.00443462
0.00443576
0.00443695
0.00443815
0.00443937
0.00444057
0.00444174
0.00444287
0.00444393
0.00444491
0.00444579
0.00444657
0.00444723
0.00444775
0.00444814
0.00444838
0.00444847
0.00444841
0.00444819
0.00444782
0.00444731
0.00444667
0.0044459
0.00444503
0.00444406
0.00444305
0.00444203
0.00444106
0.00444022
0.00443958
0.0044391
0.00443855
0.00449082
0.00448969
0.00448811
0.00448641
0.00448489
0.00448369
0.00448283
0.00448226
0.00448194
0.00448184
0.00448192
0.00448217
0.00448257
0.00448313
0.00448382
0.00448463
0.00448554
0.00448656
0.00448764
0.00448879
0.00448998
0.0044912
0.00449242
0.00449363
0.00449481
0.00449594
0.00449701
0.004498
0.00449889
0.00449967
0.00450034
0.00450087
0.00450126
0.0045015
0.00450159
0.00450153
0.00450132
0.00450095
0.00450044
0.00449979
0.00449902
0.00449814
0.00449718
0.00449616
0.00449513
0.00449416
0.00449332
0.00449267
0.00449219
0.00449162
0.00454417
0.00454304
0.00454145
0.00453973
0.0045382
0.004537
0.00453613
0.00453555
0.00453523
0.00453512
0.0045352
0.00453545
0.00453586
0.00453641
0.0045371
0.00453791
0.00453884
0.00453985
0.00454094
0.0045421
0.00454329
0.00454451
0.00454574
0.00454696
0.00454815
0.00454929
0.00455036
0.00455136
0.00455226
0.00455305
0.00455371
0.00455425
0.00455465
0.00455489
0.00455499
0.00455493
0.00455471
0.00455435
0.00455384
0.00455319
0.00455242
0.00455153
0.00455056
0.00454954
0.00454851
0.00454753
0.00454668
0.00454604
0.00454555
0.00454498
0.00459785
0.00459672
0.00459512
0.0045934
0.00459186
0.00459064
0.00458977
0.00458919
0.00458886
0.00458875
0.00458883
0.00458907
0.00458948
0.00459003
0.00459073
0.00459154
0.00459246
0.00459348
0.00459458
0.00459574
0.00459694
0.00459817
0.0045994
0.00460062
0.00460182
0.00460296
0.00460405
0.00460505
0.00460595
0.00460675
0.00460742
0.00460797
0.00460837
0.00460862
0.00460872
0.00460866
0.00460844
0.00460808
0.00460757
0.00460692
0.00460614
0.00460526
0.00460429
0.00460326
0.00460222
0.00460124
0.00460039
0.00459974
0.00459925
0.00459867
0.00465194
0.0046508
0.00464919
0.00464746
0.00464591
0.00464469
0.00464381
0.00464322
0.00464289
0.00464278
0.00464285
0.0046431
0.0046435
0.00464406
0.00464475
0.00464556
0.00464649
0.00464751
0.00464861
0.00464977
0.00465098
0.00465221
0.00465345
0.00465468
0.00465588
0.00465703
0.00465812
0.00465913
0.00466004
0.00466084
0.00466152
0.00466207
0.00466248
0.00466273
0.00466283
0.00466278
0.00466257
0.0046622
0.00466169
0.00466104
0.00466026
0.00465938
0.0046584
0.00465737
0.00465633
0.00465534
0.00465449
0.00465384
0.00465334
0.00465276
0.00470647
0.00470533
0.00470372
0.00470198
0.00470042
0.00469919
0.0046983
0.00469771
0.00469737
0.00469726
0.00469733
0.00469757
0.00469797
0.00469853
0.00469922
0.00470004
0.00470097
0.00470199
0.00470309
0.00470426
0.00470547
0.00470671
0.00470795
0.00470919
0.00471039
0.00471155
0.00471264
0.00471366
0.00471458
0.00471538
0.00471607
0.00471662
0.00471703
0.00471729
0.00471739
0.00471734
0.00471713
0.00471677
0.00471626
0.00471561
0.00471483
0.00471395
0.00471297
0.00471193
0.00471089
0.0047099
0.00470904
0.00470839
0.00470789
0.0047073
0.00476151
0.00476037
0.00475874
0.004757
0.00475543
0.00475419
0.0047533
0.0047527
0.00475236
0.00475224
0.00475231
0.00475255
0.00475295
0.00475351
0.0047542
0.00475502
0.00475594
0.00475697
0.00475808
0.00475924
0.00476046
0.0047617
0.00476295
0.00476419
0.0047654
0.00476656
0.00476766
0.00476868
0.00476961
0.00477042
0.00477111
0.00477167
0.00477208
0.00477235
0.00477245
0.00477241
0.0047722
0.00477184
0.00477133
0.00477068
0.0047699
0.00476901
0.00476803
0.004767
0.00476595
0.00476495
0.0047641
0.00476344
0.00476293
0.00476234
0.0048171
0.00481595
0.00481433
0.00481257
0.004811
0.00480975
0.00480885
0.00480825
0.00480791
0.00480778
0.00480785
0.00480809
0.00480849
0.00480904
0.00480973
0.00481055
0.00481148
0.0048125
0.00481361
0.00481478
0.004816
0.00481724
0.0048185
0.00481974
0.00482096
0.00482212
0.00482323
0.00482425
0.00482518
0.004826
0.0048267
0.00482726
0.00482768
0.00482795
0.00482806
0.00482801
0.00482781
0.00482745
0.00482694
0.00482629
0.00482552
0.00482463
0.00482365
0.00482261
0.00482156
0.00482056
0.0048197
0.00481904
0.00481853
0.00481794
0.00487329
0.00487214
0.00487051
0.00486874
0.00486717
0.00486591
0.004865
0.0048644
0.00486405
0.00486392
0.00486398
0.00486422
0.00486462
0.00486517
0.00486586
0.00486668
0.00486761
0.00486863
0.00486974
0.00487091
0.00487213
0.00487338
0.00487464
0.00487589
0.00487711
0.00487828
0.00487939
0.00488042
0.00488135
0.00488218
0.00488288
0.00488344
0.00488387
0.00488414
0.00488426
0.00488422
0.00488402
0.00488366
0.00488315
0.00488251
0.00488173
0.00488084
0.00487986
0.00487882
0.00487776
0.00487677
0.0048759
0.00487524
0.00487473
0.00487413
0.00493012
0.00492897
0.00492733
0.00492556
0.00492398
0.00492272
0.00492181
0.0049212
0.00492084
0.00492071
0.00492077
0.004921
0.0049214
0.00492195
0.00492263
0.00492345
0.00492438
0.00492541
0.00492652
0.00492769
0.00492891
0.00493016
0.00493142
0.00493267
0.0049339
0.00493507
0.00493619
0.00493722
0.00493816
0.00493899
0.0049397
0.00494027
0.0049407
0.00494097
0.0049411
0.00494106
0.00494086
0.00494051
0.00494
0.00493936
0.00493858
0.00493769
0.00493671
0.00493567
0.00493461
0.00493362
0.00493275
0.00493208
0.00493157
0.00493096
0.00498764
0.00498649
0.00498485
0.00498307
0.00498148
0.00498022
0.0049793
0.00497868
0.00497833
0.00497819
0.00497824
0.00497847
0.00497887
0.00497941
0.0049801
0.00498091
0.00498184
0.00498287
0.00498398
0.00498515
0.00498637
0.00498763
0.00498889
0.00499014
0.00499137
0.00499255
0.00499367
0.00499471
0.00499565
0.00499648
0.0049972
0.00499777
0.00499821
0.00499849
0.00499861
0.00499858
0.00499838
0.00499803
0.00499753
0.00499689
0.00499611
0.00499523
0.00499424
0.0049932
0.00499215
0.00499115
0.00499028
0.00498961
0.0049891
0.00498849
0.00504588
0.00504473
0.00504309
0.00504131
0.00503971
0.00503845
0.00503752
0.0050369
0.00503654
0.0050364
0.00503645
0.00503668
0.00503706
0.00503761
0.00503829
0.0050391
0.00504003
0.00504105
0.00504216
0.00504334
0.00504456
0.00504582
0.00504708
0.00504834
0.00504957
0.00505075
0.00505187
0.00505292
0.00505386
0.0050547
0.00505542
0.005056
0.00505644
0.00505672
0.00505685
0.00505682
0.00505663
0.00505629
0.00505579
0.00505515
0.00505437
0.00505349
0.00505251
0.00505147
0.00505041
0.00504941
0.00504854
0.00504787
0.00504735
0.00504674
0.0051049
0.00510375
0.0051021
0.00510032
0.00509872
0.00509744
0.00509651
0.00509589
0.00509552
0.00509538
0.00509542
0.00509565
0.00509603
0.00509657
0.00509725
0.00509806
0.00509899
0.00510001
0.00510112
0.00510229
0.00510352
0.00510477
0.00510604
0.0051073
0.00510853
0.00510972
0.00511084
0.00511189
0.00511284
0.00511368
0.0051144
0.00511499
0.00511543
0.00511572
0.00511586
0.00511583
0.00511565
0.0051153
0.00511481
0.00511417
0.0051134
0.00511251
0.00511154
0.0051105
0.00510944
0.00510844
0.00510757
0.0051069
0.00510638
0.00510576
0.00516472
0.00516357
0.00516192
0.00516014
0.00515853
0.00515725
0.00515632
0.00515569
0.00515532
0.00515517
0.00515521
0.00515543
0.00515581
0.00515635
0.00515702
0.00515783
0.00515875
0.00515977
0.00516088
0.00516206
0.00516328
0.00516453
0.0051658
0.00516706
0.00516829
0.00516948
0.00517061
0.00517166
0.00517262
0.00517347
0.00517419
0.00517478
0.00517523
0.00517553
0.00517566
0.00517564
0.00517546
0.00517512
0.00517463
0.005174
0.00517323
0.00517235
0.00517137
0.00517033
0.00516928
0.00516828
0.00516741
0.00516673
0.00516621
0.00516558
0.00522539
0.00522424
0.00522259
0.00522081
0.0052192
0.00521791
0.00521697
0.00521634
0.00521596
0.00521581
0.00521585
0.00521606
0.00521644
0.00521697
0.00521764
0.00521844
0.00521936
0.00522038
0.00522149
0.00522266
0.00522388
0.00522514
0.0052264
0.00522766
0.0052289
0.00523009
0.00523122
0.00523228
0.00523324
0.00523409
0.00523482
0.00523541
0.00523586
0.00523617
0.00523631
0.00523629
0.00523612
0.00523578
0.0052353
0.00523466
0.0052339
0.00523302
0.00523205
0.00523101
0.00522996
0.00522896
0.00522809
0.00522741
0.00522689
0.00522625
0.00528694
0.00528579
0.00528414
0.00528236
0.00528074
0.00527945
0.00527851
0.00527787
0.00527749
0.00527733
0.00527736
0.00527757
0.00527795
0.00527847
0.00527914
0.00527994
0.00528086
0.00528187
0.00528298
0.00528415
0.00528537
0.00528662
0.00528789
0.00528915
0.00529038
0.00529158
0.00529271
0.00529377
0.00529473
0.00529559
0.00529632
0.00529692
0.00529738
0.00529768
0.00529783
0.00529782
0.00529765
0.00529732
0.00529684
0.00529621
0.00529545
0.00529457
0.0052936
0.00529257
0.00529152
0.00529052
0.00528965
0.00528897
0.00528845
0.00528781
0.00534941
0.00534826
0.00534661
0.00534482
0.00534321
0.00534192
0.00534097
0.00534033
0.00533994
0.00533978
0.0053398
0.00534001
0.00534038
0.0053409
0.00534156
0.00534236
0.00534327
0.00534428
0.00534538
0.00534655
0.00534777
0.00534902
0.00535029
0.00535155
0.00535278
0.00535398
0.00535512
0.00535617
0.00535714
0.005358
0.00535874
0.00535934
0.0053598
0.00536011
0.00536027
0.00536026
0.0053601
0.00535977
0.00535929
0.00535867
0.00535792
0.00535704
0.00535607
0.00535504
0.00535399
0.00535299
0.00535213
0.00535145
0.00535092
0.00535028
0.00541283
0.00541169
0.00541004
0.00540825
0.00540663
0.00540534
0.00540439
0.00540374
0.00540335
0.00540318
0.0054032
0.0054034
0.00540376
0.00540428
0.00540494
0.00540573
0.00540663
0.00540764
0.00540874
0.0054099
0.00541112
0.00541237
0.00541363
0.00541489
0.00541613
0.00541733
0.00541847
0.00541953
0.0054205
0.00542136
0.0054221
0.00542271
0.00542318
0.00542349
0.00542365
0.00542365
0.00542349
0.00542317
0.0054227
0.00542208
0.00542133
0.00542046
0.0054195
0.00541847
0.00541742
0.00541643
0.00541556
0.00541488
0.00541435
0.0054137
0.00547724
0.0054761
0.00547445
0.00547266
0.00547105
0.00546975
0.00546879
0.00546814
0.00546775
0.00546757
0.00546759
0.00546778
0.00546814
0.00546865
0.0054693
0.00547008
0.00547099
0.00547199
0.00547308
0.00547424
0.00547546
0.0054767
0.00547797
0.00547923
0.00548047
0.00548166
0.0054828
0.00548386
0.00548484
0.0054857
0.00548644
0.00548706
0.00548753
0.00548785
0.00548802
0.00548802
0.00548787
0.00548755
0.00548709
0.00548648
0.00548573
0.00548487
0.0054839
0.00548288
0.00548184
0.00548084
0.00547998
0.0054793
0.00547877
0.00547812
0.00554267
0.00554153
0.00553989
0.0055381
0.00553648
0.00553518
0.00553422
0.00553357
0.00553317
0.00553299
0.005533
0.00553318
0.00553353
0.00553404
0.00553469
0.00553547
0.00553636
0.00553736
0.00553845
0.0055396
0.00554081
0.00554206
0.00554332
0.00554458
0.00554582
0.00554701
0.00554815
0.00554922
0.00555019
0.00555106
0.00555181
0.00555242
0.0055529
0.00555323
0.0055534
0.00555341
0.00555326
0.00555295
0.00555249
0.00555189
0.00555115
0.00555029
0.00554933
0.00554831
0.00554727
0.00554628
0.00554542
0.00554474
0.00554421
0.00554355
0.00560916
0.00560802
0.00560638
0.0056046
0.00560298
0.00560167
0.00560071
0.00560005
0.00559965
0.00559946
0.00559946
0.00559965
0.00559999
0.00560049
0.00560113
0.0056019
0.00560279
0.00560379
0.00560487
0.00560602
0.00560723
0.00560847
0.00560972
0.00561098
0.00561222
0.00561341
0.00561455
0.00561562
0.0056166
0.00561747
0.00561822
0.00561884
0.00561932
0.00561965
0.00561983
0.00561985
0.0056197
0.0056194
0.00561895
0.00561835
0.00561761
0.00561676
0.00561581
0.0056148
0.00561376
0.00561277
0.00561191
0.00561123
0.0056107
0.00561004
0.00567673
0.0056756
0.00567396
0.00567218
0.00567056
0.00566925
0.00566829
0.00566762
0.00566721
0.00566702
0.00566702
0.0056672
0.00566753
0.00566803
0.00566866
0.00566943
0.00567031
0.0056713
0.00567237
0.00567352
0.00567472
0.00567596
0.00567721
0.00567847
0.0056797
0.0056809
0.00568204
0.00568311
0.00568408
0.00568496