/*--------------------------------*- C++ -*----------------------------------*\
  =========                 |
  \\      /  F ield         | OpenFOAM: The Open Source CFD Toolbox
   \\    /   O peration     | Website:  https://openfoam.org
    \\  /    A nd           | Version:  13
     \\/     M anipulation  |
\*---------------------------------------------------------------------------*/
FoamFile
{
    format      ascii;
    class       volScalarField;
    location    "0.09";
    object      mag(U);
}
// * * * * * * * * * * * * * * * * * * * * * * * * * * * * * * * * * * * * * //

dimensions      [0 1 -1 0 0 0 0];

internalField   nonuniform List<scalar> 
1000
(
30.6726
30.7098
30.7784
30.8606
30.9485
31.0387
31.1298
31.2213
31.313
31.4047
31.4965
31.5883
31.6802
31.7721
31.864
31.9559
32.0479
32.1399
32.2318
32.3239
32.4159
32.508
32.6
32.6921
32.7842
32.8763
32.9684
33.0606
33.1527
33.2449
33.3371
33.4292
33.5214
33.6136
33.7058
33.798
33.8902
33.9825
34.0747
34.1669
34.2591
34.3513
34.4436
34.5358
34.628
34.7202
34.8124
34.9046
34.9968
35.089
35.1812
35.2734
35.3656
35.4577
35.5499
35.642
35.7341
35.8262
35.9183
36.0104
36.1025
36.1946
36.2866
36.3786
36.4706
36.5626
36.6545
36.7465
36.8384
36.9303
37.0221
37.114
37.2058
37.2976
37.3893
37.4811
37.5728
37.6645
37.7561
37.8477
37.9393
38.0308
38.1223
38.2138
38.3053
38.3967
38.488
38.5794
38.6707
38.7619
38.8531
38.9443
39.0354
39.1265
39.2175
39.3085
39.3995
39.4904
39.5812
39.672
39.7628
39.8535
39.9442
40.0348
40.1253
40.2158
40.3063
40.3967
40.487
40.5773
40.6675
40.7576
40.8477
40.9378
41.0278
41.1177
41.2075
41.2973
41.3871
41.4767
41.5663
41.6558
41.7453
41.8347
41.924
42.0133
42.1025
42.1916
42.2806
42.3696
42.4585
42.5473
42.636
42.7247
42.8132
42.9017
42.9901
43.0785
43.1667
43.2549
43.343
43.431
43.5189
43.6068
43.6945
43.7822
43.8697
43.9572
44.0446
44.1319
44.2191
44.3062
44.3932
44.4801
44.567
44.6537
44.7403
44.8268
44.9133
44.9996
45.0858
45.1719
45.258
45.3439
45.4297
45.5154
45.601
45.6865
45.7719
45.8571
45.9423
46.0273
46.1123
46.1971
46.2818
46.3664
46.4509
46.5352
46.6195
46.7036
46.7876
46.8715
46.9552
47.0389
47.1224
47.2058
47.289
47.3722
47.4552
47.5381
47.6208
47.7035
47.7859
47.8683
47.9505
48.0326
48.1146
48.1964
48.2781
48.3597
48.4411
48.5224
48.6035
48.6845
48.7654
48.8461
48.9267
49.0071
49.0874
49.1675
49.2475
49.3274
49.4071
49.4866
49.566
49.6453
49.7244
49.8033
49.8821
49.9607
50.0392
50.1176
50.1957
50.2738
50.3516
50.4293
50.5069
50.5842
50.6615
50.7385
50.8154
50.8922
50.9687
51.0451
51.1214
51.1975
51.2734
51.3491
51.4247
51.5001
51.5753
51.6504
51.7253
51.8
51.8746
51.949
52.0232
52.0972
52.1711
52.2448
52.3183
52.3916
52.4648
52.5377
52.6105
52.6832
52.7556
52.8279
52.9
52.9719
53.0436
53.1151
53.1865
53.2577
53.3287
53.3995
53.4701
53.5406
53.6109
53.6809
53.7508
53.8205
53.8901
53.9594
54.0286
54.0975
54.1663
54.2349
54.3033
54.3715
54.4396
54.5074
54.5751
54.6426
54.7099
54.777
54.8439
54.9106
54.9771
55.0435
55.1096
55.1756
55.2414
55.307
55.3724
55.4376
55.5026
55.5674
55.6321
55.6966
55.7608
55.8249
55.8888
55.9525
56.0161
56.0794
56.1426
56.2055
56.2683
56.3309
56.3933
56.4555
56.5175
56.5794
56.6411
56.7025
56.7638
56.8249
56.8859
56.9466
57.0072
57.0675
57.1277
57.1877
57.2476
57.3072
57.3667
57.426
57.4851
57.544
57.6028
57.6613
57.7197
57.7779
57.836
57.8938
57.9515
58.009
58.0664
58.1235
58.1805
58.2373
58.294
58.3505
58.4068
58.4629
58.5189
58.5747
58.6303
58.6857
58.741
58.7961
58.8511
58.9059
58.9605
59.015
59.0693
59.1234
59.1774
59.2312
59.2849
59.3384
59.3917
59.4449
59.4979
59.5508
59.6035
59.656
59.7085
59.7607
59.8128
59.8647
59.9165
59.9682
60.0197
60.071
60.1222
60.1733
60.2242
60.275
60.3256
60.3761
60.4264
60.4766
60.5267
60.5766
60.6264
60.676
60.7255
60.7749
60.8241
60.8732
60.9222
60.971
61.0197
61.0683
61.1167
61.1651
61.2133
61.2613
61.3093
61.3571
61.4048
61.4524
61.4998
61.5472
61.5944
61.6415
61.6885
61.7353
61.7821
61.8287
61.8753
61.9217
61.968
62.0142
62.0603
62.1063
62.1522
62.198
62.2437
62.2893
62.3348
62.3802
62.4255
62.4707
62.5158
62.5608
62.6057
62.6506
62.6953
62.74
62.7846
62.8291
62.8735
62.9178
62.9621
63.0062
63.0503
63.0944
63.1383
63.1822
63.226
63.2697
63.3134
63.357
63.4006
63.4441
63.4875
63.5308
63.5741
63.6174
63.6606
63.7037
63.7468
63.7899
63.8328
63.8758
63.9187
63.9615
64.0044
64.0471
64.0899
64.1326
64.1752
64.2179
64.2605
64.303
64.3456
64.3881
64.4306
64.473
64.5155
64.5579
64.6003
64.6427
64.685
64.7274
64.7697
64.812
64.8543
64.8966
64.9389
64.9812
65.0235
65.0658
65.1081
65.1504
65.1927
65.2349
65.2772
65.3195
65.3618
65.4042
65.4465
65.4888
65.5312
65.5735
65.6159
65.6583
65.7007
65.7431
65.7856
65.8281
65.8706
65.9131
65.9556
65.9982
66.0408
66.0834
66.1261
66.1688
66.2115
66.2542
66.297
66.3398
66.3827
66.4256
66.4685
66.5115
66.5545
66.5976
66.6407
66.6838
66.727
66.7702
66.8135
66.8568
66.9002
66.9436
66.987
67.0305
67.0741
67.1177
67.1614
67.2051
67.2489
67.2927
67.3366
67.3805
67.4245
67.4686
67.5127
67.5569
67.6011
67.6454
67.6897
67.7341
67.7786
67.8231
67.8677
67.9124
67.9571
68.0019
68.0467
68.0916
68.1366
68.1817
68.2268
68.272
68.3172
68.3625
68.4079
68.4533
68.4989
68.5445
68.5901
68.6358
68.6816
68.7275
68.7735
68.8195
68.8656
68.9117
68.9579
69.0042
69.0506
69.0971
69.1436
69.1902
69.2368
69.2836
69.3304
69.3773
69.4243
69.4713
69.5184
69.5656
69.6129
69.6602
69.7076
69.7551
69.8027
69.8504
69.8981
69.9459
69.9938
70.0417
70.0897
70.1378
70.186
70.2343
70.2826
70.331
70.3795
70.4281
70.4768
70.5255
70.5743
70.6232
70.6721
70.7212
70.7703
70.8195
70.8687
70.9181
70.9675
71.017
71.0666
71.1162
71.166
71.2158
71.2657
71.3156
71.3657
71.4158
71.466
71.5163
71.5666
71.617
71.6675
71.7181
71.7688
71.8195
71.8703
71.9212
71.9722
72.0232
72.0743
72.1255
72.1768
72.2281
72.2795
72.331
72.3826
72.4343
72.486
72.5378
72.5896
72.6416
72.6936
72.7457
72.7979
72.8501
72.9024
72.9548
73.0073
73.0598
73.1124
73.1651
73.2178
73.2707
73.3236
73.3765
73.4296
73.4827
73.5359
73.5891
73.6425
73.6959
73.7493
73.8029
73.8565
73.9102
73.9639
74.0178
74.0716
74.1256
74.1796
74.2337
74.2879
74.3421
74.3964
74.4508
74.5053
74.5598
74.6143
74.669
74.7237
74.7785
74.8333
74.8882
74.9432
74.9982
75.0533
75.1085
75.1637
75.219
75.2744
75.3298
75.3853
75.4409
75.4965
75.5522
75.6079
75.6637
75.7196
75.7755
75.8315
75.8875
75.9437
75.9998
76.0561
76.1124
76.1687
76.2251
76.2816
76.3381
76.3947
76.4514
76.5081
76.5649
76.6217
76.6786
76.7355
76.7925
76.8496
76.9067
76.9638
77.0211
77.0783
77.1357
77.1931
77.2505
77.308
77.3656
77.4232
77.4808
77.5385
77.5963
77.6541
77.712
77.7699
77.8279
77.8859
77.944
78.0021
78.0603
78.1185
78.1768
78.2351
78.2935
78.3519
78.4104
78.4689
78.5275
78.5861
78.6448
78.7035
78.7622
78.8211
78.8799
78.9388
78.9977
79.0567
79.1158
79.1749
79.234
79.2931
79.3524
79.4116
79.4709
79.5303
79.5896
79.6491
79.7085
79.768
79.8276
79.8872
79.9468
80.0065
80.0662
80.1259
80.1857
80.2456
80.3054
80.3653
80.4253
80.4853
80.5453
80.6054
80.6654
80.7256
80.7857
80.8459
80.9062
80.9665
81.0268
81.0871
81.1475
81.2079
81.2683
81.3288
81.3893
81.4499
81.5104
81.571
81.6317
81.6924
81.7531
81.8138
81.8745
81.9353
81.9962
82.057
82.1179
82.1788
82.2397
82.3007
82.3617
82.4227
82.4837
82.5448
82.6059
82.667
82.7282
82.7893
82.8505
82.9117
82.973
83.0343
83.0955
83.1569
83.2182
83.2796
83.3409
83.4023
83.4638
83.5252
83.5867
83.6482
83.7097
83.7712
83.8327
83.8943
83.9559
84.0175
84.0791
84.1407
84.2024
84.2641
84.3257
84.3874
84.4492
84.5109
84.5726
84.6344
84.6962
84.758
84.8198
84.8816
84.9434
85.0053
85.0671
85.129
85.1909
85.2528
85.3147
85.3766
85.4385
85.5004
85.5624
85.6243
85.6863
85.7482
85.8102
85.8722
85.9342
85.9962
86.0582
86.1202
86.1822
86.2442
86.3062
86.3683
86.4303
86.4923
86.5544
86.6164
86.6785
86.7405
86.8026
86.8646
86.9267
86.9887
87.0508
87.1129
87.1749
87.237
87.299
87.3611
87.4231
87.4852
87.5473
87.6093
87.6714
87.7334
87.7955
87.8575
87.9195
87.9816
88.0436
88.1056
88.1676
88.2297
88.2917
88.3537
88.4157
88.4777
88.5396
88.6016
88.6636
88.7255
88.7875
88.8494
88.9114
88.9733
89.0352
89.0971
89.159
89.2209
89.2828
89.3447
89.4065
89.4684
89.5302
89.592
89.6538
89.7156
89.7774
89.8392
89.9009
89.9627
90.0244
90.0861
90.1478
90.2095
90.2712
90.3329
90.3945
90.4561
90.5178
90.5794
90.641
90.7025
90.7641
90.8256
90.8871
90.9487
91.0101
91.0716
91.1331
91.1945
91.2559
91.3174
91.3787
91.4401
91.5015
91.5628
91.6241
91.6855
91.7467
91.808
91.8693
91.9305
91.9917
92.053
92.1141
92.1753
92.2365
92.2976
92.3587
92.4198
92.4809
92.542
92.6031
92.6641
92.7252
92.7862
92.8472
92.9082
92.9692
93.0301
93.0911
93.152
93.2129
93.2738
93.3347
93.3955
93.4577
)
;

boundaryField
{
    sides
    {
        type            calculated;
        value           nonuniform List<scalar> 2(93.4577 30.6726);
    }
    empty
    {
        type            empty;
    }
}


// ************************************************************************* //
