/*--------------------------------*- C++ -*----------------------------------*\
  =========                 |
  \\      /  F ield         | OpenFOAM: The Open Source CFD Toolbox
   \\    /   O peration     | Website:  https://openfoam.org
    \\  /    A nd           | Version:  13
     \\/     M anipulation  |
\*---------------------------------------------------------------------------*/
FoamFile
{
    format      ascii;
    class       volScalarField;
    location    "0.09";
    object      rho;
}
// * * * * * * * * * * * * * * * * * * * * * * * * * * * * * * * * * * * * * //

dimensions      [1 -3 0 0 0 0 0];

internalField   nonuniform List<scalar> 
1000
(
0.169203
0.1692
0.169194
0.169186
0.169177
0.169168
0.169158
0.169149
0.169139
0.16913
0.16912
0.16911
0.1691
0.16909
0.169081
0.169071
0.169061
0.169051
0.16904
0.16903
0.16902
0.16901
0.169
0.16899
0.168979
0.168969
0.168959
0.168948
0.168938
0.168927
0.168917
0.168906
0.168896
0.168885
0.168874
0.168864
0.168853
0.168842
0.168831
0.16882
0.168809
0.168798
0.168787
0.168776
0.168765
0.168754
0.168743
0.168731
0.16872
0.168708
0.168697
0.168685
0.168674
0.168662
0.16865
0.168638
0.168626
0.168614
0.168602
0.168589
0.168577
0.168564
0.168552
0.168539
0.168526
0.168513
0.1685
0.168487
0.168474
0.168461
0.168448
0.168434
0.16842
0.168407
0.168393
0.168379
0.168365
0.168351
0.168337
0.168323
0.168308
0.168294
0.168279
0.168264
0.16825
0.168235
0.16822
0.168205
0.168189
0.168174
0.168159
0.168143
0.168127
0.168112
0.168096
0.16808
0.168064
0.168048
0.168031
0.168015
0.167999
0.167982
0.167965
0.167948
0.167932
0.167915
0.167897
0.16788
0.167863
0.167845
0.167828
0.16781
0.167792
0.167775
0.167757
0.167739
0.16772
0.167702
0.167684
0.167665
0.167647
0.167628
0.167609
0.16759
0.167571
0.167552
0.167533
0.167513
0.167494
0.167474
0.167455
0.167435
0.167415
0.167395
0.167375
0.167355
0.167334
0.167314
0.167293
0.167273
0.167252
0.167231
0.16721
0.167189
0.167168
0.167147
0.167125
0.167104
0.167082
0.167061
0.167039
0.167017
0.166995
0.166973
0.16695
0.166928
0.166906
0.166883
0.16686
0.166838
0.166815
0.166792
0.166769
0.166745
0.166722
0.166699
0.166675
0.166651
0.166628
0.166604
0.16658
0.166556
0.166531
0.166507
0.166483
0.166458
0.166433
0.166409
0.166384
0.166359
0.166334
0.166308
0.166283
0.166258
0.166232
0.166206
0.166181
0.166155
0.166129
0.166103
0.166076
0.16605
0.166023
0.165997
0.16597
0.165943
0.165916
0.165889
0.165862
0.165835
0.165807
0.16578
0.165752
0.165725
0.165697
0.165669
0.165641
0.165612
0.165584
0.165556
0.165527
0.165498
0.16547
0.165441
0.165412
0.165383
0.165353
0.165324
0.165294
0.165265
0.165235
0.165205
0.165175
0.165145
0.165115
0.165085
0.165054
0.165024
0.164993
0.164962
0.164931
0.1649
0.164869
0.164838
0.164807
0.164775
0.164744
0.164712
0.16468
0.164648
0.164616
0.164584
0.164552
0.16452
0.164487
0.164455
0.164422
0.164389
0.164356
0.164323
0.16429
0.164257
0.164224
0.164191
0.164157
0.164124
0.16409
0.164057
0.164023
0.163989
0.163955
0.163921
0.163887
0.163853
0.163819
0.163785
0.16375
0.163716
0.163681
0.163647
0.163612
0.163577
0.163543
0.163508
0.163473
0.163438
0.163403
0.163368
0.163333
0.163298
0.163263
0.163227
0.163192
0.163157
0.163121
0.163086
0.16305
0.163015
0.162979
0.162943
0.162908
0.162872
0.162836
0.1628
0.162764
0.162728
0.162692
0.162656
0.16262
0.162584
0.162548
0.162511
0.162475
0.162439
0.162402
0.162366
0.162329
0.162292
0.162255
0.162219
0.162182
0.162145
0.162108
0.162071
0.162034
0.161997
0.161959
0.161922
0.161884
0.161847
0.161809
0.161772
0.161734
0.161696
0.161658
0.161621
0.161583
0.161544
0.161506
0.161468
0.16143
0.161391
0.161353
0.161314
0.161276
0.161237
0.161198
0.161159
0.16112
0.161081
0.161042
0.161003
0.160963
0.160924
0.160885
0.160845
0.160805
0.160766
0.160726
0.160686
0.160646
0.160606
0.160566
0.160526
0.160486
0.160445
0.160405
0.160364
0.160324
0.160283
0.160242
0.160202
0.160161
0.16012
0.160079
0.160038
0.159996
0.159955
0.159914
0.159872
0.159831
0.159789
0.159748
0.159706
0.159664
0.159622
0.159581
0.159539
0.159497
0.159455
0.159412
0.15937
0.159328
0.159286
0.159243
0.159201
0.159158
0.159116
0.159073
0.15903
0.158987
0.158945
0.158902
0.158859
0.158816
0.158773
0.15873
0.158687
0.158643
0.1586
0.158557
0.158513
0.15847
0.158427
0.158383
0.158339
0.158296
0.158252
0.158209
0.158165
0.158121
0.158077
0.158033
0.15799
0.157946
0.157902
0.157858
0.157814
0.15777
0.157725
0.157681
0.157637
0.157593
0.157549
0.157504
0.15746
0.157416
0.157371
0.157327
0.157283
0.157238
0.157194
0.157149
0.157105
0.15706
0.157016
0.156971
0.156927
0.156882
0.156837
0.156793
0.156748
0.156704
0.156659
0.156614
0.15657
0.156525
0.15648
0.156435
0.156391
0.156346
0.156301
0.156257
0.156212
0.156167
0.156123
0.156078
0.156033
0.155988
0.155944
0.155899
0.155854
0.15581
0.155765
0.15572
0.155676
0.155631
0.155587
0.155542
0.155497
0.155453
0.155408
0.155364
0.155319
0.155275
0.155231
0.155186
0.155142
0.155097
0.155053
0.155009
0.154964
0.15492
0.154876
0.154832
0.154788
0.154743
0.154699
0.154655
0.154611
0.154567
0.154523
0.154479
0.154436
0.154392
0.154348
0.154304
0.154261
0.154217
0.154173
0.15413
0.154086
0.154043
0.153999
0.153956
0.153913
0.15387
0.153826
0.153783
0.15374
0.153697
0.153654
0.153611
0.153568
0.153525
0.153483
0.15344
0.153397
0.153355
0.153312
0.15327
0.153227
0.153185
0.153143
0.153101
0.153059
0.153017
0.152975
0.152933
0.152891
0.152849
0.152807
0.152766
0.152724
0.152683
0.152641
0.1526
0.152558
0.152517
0.152476
0.152435
0.152394
0.152353
0.152312
0.152271
0.152231
0.15219
0.15215
0.152109
0.152069
0.152028
0.151988
0.151948
0.151908
0.151868
0.151828
0.151788
0.151748
0.151709
0.151669
0.15163
0.15159
0.151551
0.151511
0.151472
0.151433
0.151394
0.151355
0.151316
0.151278
0.151239
0.1512
0.151162
0.151123
0.151085
0.151047
0.151009
0.15097
0.150932
0.150894
0.150857
0.150819
0.150781
0.150744
0.150706
0.150669
0.150631
0.150594
0.150557
0.15052
0.150483
0.150446
0.150409
0.150373
0.150336
0.1503
0.150263
0.150227
0.150191
0.150155
0.150118
0.150082
0.150047
0.150011
0.149975
0.149939
0.149904
0.149869
0.149833
0.149798
0.149763
0.149728
0.149693
0.149658
0.149623
0.149588
0.149554
0.149519
0.149485
0.14945
0.149416
0.149382
0.149348
0.149314
0.14928
0.149246
0.149213
0.149179
0.149145
0.149112
0.149079
0.149045
0.149012
0.148979
0.148946
0.148913
0.148881
0.148848
0.148815
0.148783
0.14875
0.148718
0.148686
0.148654
0.148622
0.14859
0.148558
0.148526
0.148494
0.148463
0.148431
0.1484
0.148369
0.148337
0.148306
0.148275
0.148244
0.148213
0.148183
0.148152
0.148121
0.148091
0.14806
0.14803
0.148
0.14797
0.14794
0.14791
0.14788
0.14785
0.147821
0.147791
0.147761
0.147732
0.147703
0.147674
0.147644
0.147615
0.147586
0.147558
0.147529
0.1475
0.147472
0.147443
0.147415
0.147386
0.147358
0.14733
0.147302
0.147274
0.147246
0.147219
0.147191
0.147163
0.147136
0.147108
0.147081
0.147054
0.147027
0.147
0.146973
0.146946
0.146919
0.146892
0.146866
0.146839
0.146813
0.146787
0.14676
0.146734
0.146708
0.146682
0.146656
0.146631
0.146605
0.146579
0.146554
0.146528
0.146503
0.146478
0.146453
0.146427
0.146402
0.146378
0.146353
0.146328
0.146303
0.146279
0.146254
0.14623
0.146206
0.146182
0.146157
0.146133
0.14611
0.146086
0.146062
0.146038
0.146015
0.145991
0.145968
0.145945
0.145921
0.145898
0.145875
0.145852
0.145829
0.145807
0.145784
0.145761
0.145739
0.145716
0.145694
0.145672
0.14565
0.145628
0.145606
0.145584
0.145562
0.14554
0.145519
0.145497
0.145476
0.145454
0.145433
0.145412
0.145391
0.14537
0.145349
0.145328
0.145307
0.145286
0.145266
0.145245
0.145225
0.145204
0.145184
0.145164
0.145144
0.145124
0.145104
0.145084
0.145065
0.145045
0.145025
0.145006
0.144987
0.144967
0.144948
0.144929
0.14491
0.144891
0.144872
0.144853
0.144835
0.144816
0.144798
0.144779
0.144761
0.144743
0.144725
0.144706
0.144688
0.144671
0.144653
0.144635
0.144617
0.1446
0.144582
0.144565
0.144548
0.144531
0.144513
0.144496
0.144479
0.144463
0.144446
0.144429
0.144413
0.144396
0.14438
0.144363
0.144347
0.144331
0.144315
0.144299
0.144283
0.144267
0.144252
0.144236
0.14422
0.144205
0.14419
0.144174
0.144159
0.144144
0.144129
0.144114
0.144099
0.144084
0.14407
0.144055
0.144041
0.144026
0.144012
0.143998
0.143984
0.14397
0.143956
0.143942
0.143928
0.143914
0.143901
0.143887
0.143874
0.14386
0.143847
0.143834
0.143821
0.143808
0.143795
0.143782
0.143769
0.143757
0.143744
0.143732
0.143719
0.143707
0.143695
0.143683
0.143671
0.143659
0.143647
0.143635
0.143623
0.143612
0.1436
0.143589
0.143578
0.143567
0.143555
0.143544
0.143533
0.143523
0.143512
0.143501
0.143491
0.14348
0.14347
0.143459
0.143449
0.143439
0.143429
0.143419
0.143409
0.143399
0.14339
0.14338
0.143371
0.143361
0.143352
0.143343
0.143334
0.143324
0.143316
0.143307
0.143298
0.143289
0.143281
0.143272
0.143264
0.143255
0.143247
0.143239
0.143231
0.143223
0.143215
0.143208
0.1432
0.143192
0.143185
0.143177
0.14317
0.143163
0.143156
0.143149
0.143142
0.143135
0.143128
0.143122
0.143115
0.143109
0.143102
0.143096
0.14309
0.143084
0.143078
0.143072
0.143066
0.14306
0.143055
0.143049
0.143044
0.143039
0.143033
0.143028
0.143023
0.143018
0.143013
0.143009
0.143004
0.142999
0.142995
0.142991
0.142986
0.142982
0.142978
0.142974
0.14297
0.142966
0.142963
0.142959
0.142955
0.142952
0.142949
0.142945
0.142942
0.142939
0.142936
0.142934
0.142931
0.142928
0.142926
0.142923
0.142921
0.142918
0.142916
0.142914
0.142912
0.14291
0.142909
0.142907
0.142905
0.142904
0.142902
0.142901
0.1429
0.142899
0.142898
0.142897
0.142896
0.142895
0.142895
0.142894
0.142893
0.142893
0.142893
0.142893
0.142893
0.142892
)
;

boundaryField
{
    sides
    {
        type            calculated;
        value           nonuniform List<scalar> 2(0.142892 0.169203);
    }
    empty
    {
        type            empty;
    }
}


// ************************************************************************* //
