/*--------------------------------*- C++ -*----------------------------------*\
  =========                 |
  \\      /  F ield         | OpenFOAM: The Open Source CFD Toolbox
   \\    /   O peration     | Website:  https://openfoam.org
    \\  /    A nd           | Version:  13
     \\/     M anipulation  |
\*---------------------------------------------------------------------------*/
FoamFile
{
    format      ascii;
    class       volScalarField;
    location    "0.09";
    object      T;
}
// * * * * * * * * * * * * * * * * * * * * * * * * * * * * * * * * * * * * * //

dimensions      [0 0 0 1 0 0 0];

internalField   nonuniform List<scalar> 
1000
(
170.232
170.232
170.23
170.228
170.226
170.224
170.222
170.219
170.217
170.214
170.211
170.209
170.206
170.203
170.2
170.197
170.194
170.191
170.188
170.185
170.182
170.178
170.175
170.171
170.168
170.164
170.16
170.157
170.153
170.149
170.145
170.141
170.137
170.133
170.128
170.124
170.12
170.115
170.111
170.106
170.101
170.097
170.092
170.087
170.082
170.077
170.072
170.067
170.062
170.057
170.052
170.047
170.042
170.037
170.032
170.027
170.021
170.016
170.011
170.006
170
169.995
169.99
169.985
169.979
169.974
169.969
169.963
169.958
169.953
169.947
169.942
169.937
169.931
169.926
169.921
169.915
169.91
169.905
169.899
169.894
169.889
169.883
169.878
169.873
169.867
169.862
169.856
169.851
169.846
169.84
169.835
169.83
169.824
169.819
169.813
169.808
169.803
169.797
169.792
169.786
169.781
169.776
169.77
169.765
169.76
169.754
169.749
169.743
169.738
169.732
169.727
169.722
169.716
169.711
169.705
169.7
169.695
169.689
169.684
169.678
169.673
169.667
169.662
169.656
169.651
169.645
169.64
169.634
169.629
169.623
169.618
169.612
169.607
169.601
169.596
169.59
169.585
169.579
169.573
169.568
169.562
169.557
169.551
169.545
169.54
169.534
169.528
169.523
169.517
169.511
169.506
169.5
169.494
169.488
169.482
169.477
169.471
169.465
169.459
169.453
169.448
169.442
169.436
169.43
169.424
169.418
169.412
169.406
169.4
169.394
169.388
169.382
169.376
169.37
169.364
169.358
169.352
169.346
169.339
169.333
169.327
169.321
169.315
169.308
169.302
169.296
169.29
169.283
169.277
169.271
169.264
169.258
169.251
169.245
169.238
169.232
169.225
169.219
169.212
169.206
169.199
169.193
169.186
169.179
169.172
169.166
169.159
169.152
169.145
169.139
169.132
169.125
169.118
169.111
169.104
169.097
169.09
169.083
169.076
169.069
169.062
169.054
169.047
169.04
169.033
169.026
169.018
169.011
169.003
168.996
168.989
168.981
168.974
168.966
168.958
168.951
168.943
168.935
168.927
168.92
168.912
168.904
168.896
168.888
168.88
168.872
168.864
168.855
168.847
168.839
168.83
168.822
168.813
168.805
168.796
168.787
168.778
168.77
168.761
168.752
168.742
168.733
168.724
168.715
168.705
168.696
168.686
168.676
168.666
168.657
168.647
168.636
168.626
168.616
168.606
168.595
168.585
168.574
168.563
168.552
168.541
168.53
168.519
168.507
168.496
168.484
168.473
168.461
168.449
168.437
168.425
168.413
168.401
168.388
168.376
168.363
168.35
168.338
168.325
168.312
168.299
168.285
168.272
168.259
168.245
168.232
168.218
168.204
168.19
168.176
168.162
168.148
168.134
168.12
168.106
168.091
168.077
168.062
168.047
168.033
168.018
168.003
167.988
167.973
167.958
167.943
167.928
167.913
167.897
167.882
167.866
167.851
167.835
167.82
167.804
167.789
167.773
167.757
167.741
167.725
167.709
167.693
167.677
167.661
167.645
167.629
167.613
167.596
167.58
167.564
167.547
167.531
167.514
167.498
167.481
167.465
167.448
167.431
167.415
167.398
167.381
167.364
167.347
167.33
167.313
167.297
167.28
167.262
167.245
167.228
167.211
167.194
167.177
167.159
167.142
167.125
167.108
167.09
167.073
167.055
167.038
167.02
167.003
166.985
166.968
166.95
166.933
166.915
166.897
166.879
166.862
166.844
166.826
166.808
166.791
166.773
166.755
166.737
166.719
166.701
166.683
166.665
166.647
166.629
166.611
166.593
166.574
166.556
166.538
166.52
166.502
166.484
166.465
166.447
166.429
166.41
166.392
166.374
166.355
166.337
166.319
166.3
166.282
166.263
166.245
166.226
166.208
166.189
166.171
166.152
166.134
166.115
166.097
166.078
166.06
166.041
166.022
166.004
165.985
165.967
165.948
165.929
165.911
165.892
165.873
165.855
165.836
165.817
165.799
165.78
165.761
165.742
165.724
165.705
165.686
165.668
165.649
165.63
165.611
165.593
165.574
165.555
165.537
165.518
165.499
165.48
165.462
165.443
165.424
165.406
165.387
165.368
165.35
165.331
165.312
165.294
165.275
165.256
165.238
165.219
165.201
165.182
165.163
165.145
165.126
165.108
165.089
165.071
165.052
165.034
165.015
164.997
164.978
164.96
164.941
164.923
164.905
164.886
164.868
164.85
164.831
164.813
164.795
164.776
164.758
164.74
164.722
164.703
164.685
164.667
164.649
164.631
164.613
164.595
164.577
164.559
164.541
164.523
164.505
164.487
164.469
164.451
164.433
164.416
164.398
164.38
164.362
164.345
164.327
164.309
164.292
164.274
164.256
164.239
164.221
164.204
164.186
164.169
164.152
164.134
164.117
164.099
164.082
164.065
164.048
164.031
164.013
163.996
163.979
163.962
163.945
163.928
163.911
163.894
163.877
163.86
163.843
163.827
163.81
163.793
163.776
163.76
163.743
163.726
163.71
163.693
163.677
163.66
163.644
163.628
163.611
163.595
163.579
163.562
163.546
163.53
163.514
163.498
163.481
163.465
163.449
163.433
163.417
163.402
163.386
163.37
163.354
163.338
163.323
163.307
163.291
163.276
163.26
163.245
163.229
163.214
163.198
163.183
163.167
163.152
163.137
163.122
163.106
163.091
163.076
163.061
163.046
163.031
163.016
163.001
162.986
162.971
162.956
162.942
162.927
162.912
162.897
162.883
162.868
162.854
162.839
162.825
162.81
162.796
162.782
162.767
162.753
162.739
162.724
162.71
162.696
162.682
162.668
162.654
162.64
162.626
162.612
162.598
162.585
162.571
162.557
162.543
162.53
162.516
162.502
162.489
162.475
162.462
162.449
162.435
162.422
162.408
162.395
162.382
162.369
162.356
162.343
162.329
162.316
162.303
162.29
162.278
162.265
162.252
162.239
162.226
162.214
162.201
162.188
162.176
162.163
162.151
162.138
162.126
162.113
162.101
162.089
162.076
162.064
162.052
162.04
162.027
162.015
162.003
161.991
161.979
161.967
161.956
161.944
161.932
161.92
161.908
161.897
161.885
161.873
161.862
161.85
161.839
161.827
161.816
161.804
161.793
161.782
161.77
161.759
161.748
161.737
161.726
161.715
161.704
161.693
161.682
161.671
161.66
161.649
161.638
161.628
161.617
161.606
161.595
161.585
161.574
161.564
161.553
161.543
161.532
161.522
161.512
161.501
161.491
161.481
161.471
161.461
161.45
161.44
161.43
161.42
161.41
161.401
161.391
161.381
161.371
161.361
161.352
161.342
161.332
161.323
161.313
161.304
161.294
161.285
161.275
161.266
161.257
161.247
161.238
161.229
161.22
161.21
161.201
161.192
161.183
161.174
161.165
161.156
161.148
161.139
161.13
161.121
161.113
161.104
161.095
161.087
161.078
161.07
161.061
161.053
161.044
161.036
161.028
161.019
161.011
161.003
160.995
160.987
160.978
160.97
160.962
160.954
160.946
160.939
160.931
160.923
160.915
160.907
160.9
160.892
160.884
160.877
160.869
160.862
160.854
160.847
160.839
160.832
160.825
160.817
160.81
160.803
160.796
160.789
160.782
160.775
160.768
160.761
160.754
160.747
160.74
160.733
160.726
160.72
160.713
160.706
160.7
160.693
160.687
160.68
160.674
160.667
160.661
160.655
160.648
160.642
160.636
160.63
160.623
160.617
160.611
160.605
160.599
160.593
160.587
160.582
160.576
160.57
160.564
160.558
160.553
160.547
160.542
160.536
160.531
160.525
160.52
160.514
160.509
160.504
160.498
160.493
160.488
160.483
160.478
160.473
160.468
160.463
160.458
160.453
160.448
160.443
160.438
160.434
160.429
160.424
160.42
160.415
160.41
160.406
160.401
160.397
160.393
160.388
160.384
160.38
160.376
160.371
160.367
160.363
160.359
160.355
160.351
160.347
160.343
160.339
160.336
160.332
160.328
160.324
160.321
160.317
160.314
160.31
160.307
160.303
160.3
160.296
160.293
160.29
160.287
160.284
160.28
160.277
160.274
160.271
160.268
160.265
160.262
160.26
160.257
160.254
160.251
160.249
160.246
160.243
160.241
160.238
160.236
160.233
160.231
160.229
160.226
160.224
160.222
160.22
160.218
160.216
160.214
160.212
160.21
160.208
160.206
160.204
160.202
160.201
160.199
160.197
160.196
160.194
160.193
160.191
160.19
160.188
160.187
160.186
160.184
160.183
160.182
160.181
160.18
160.179
160.178
160.177
160.176
160.175
160.174
160.173
160.173
160.172
160.171
160.171
160.17
160.17
160.169
160.169
160.168
160.168
160.168
160.168
160.167
160.167
160.167
160.167
160.167
160.167
160.167
160.167
160.167
160.168
160.168
160.168
160.168
160.169
160.169
160.17
160.17
160.171
160.171
160.172
160.173
160.174
)
;

boundaryField
{
    sides
    {
        type            zeroGradient;
    }
    empty
    {
        type            empty;
    }
}


// ************************************************************************* //
