/*--------------------------------*- C++ -*----------------------------------*\
  =========                 |
  \\      /  F ield         | OpenFOAM: The Open Source CFD Toolbox
   \\    /   O peration     | Website:  https://openfoam.org
    \\  /    A nd           | Version:  13
     \\/     M anipulation  |
\*---------------------------------------------------------------------------*/
FoamFile
{
    format      ascii;
    class       volVectorField;
    location    "32.196286";
    object      UMean;
}
// * * * * * * * * * * * * * * * * * * * * * * * * * * * * * * * * * * * * * //

dimensions      [0 1 -1 0 0 0 0];

internalField   nonuniform List<vector> 
17140
(
(-2.0998696e-06 9.7177085e-05 -1.02722e-22)
(-2.4087972e-05 0.00029952285 -8.2847395e-24)
(-7.1225402e-05 0.0005212188 5.4771496e-22)
(-0.00015318334 0.00076352805 -6.024431e-22)
(-0.0002789 0.0010277734 7.0472668e-23)
(-0.0004605332 0.001315174 -2.3074719e-22)
(-0.00071305921 0.0016268018 -3.8877742e-22)
(-0.0010545903 0.0019635097 1.901999e-22)
(-0.0015069705 0.0023258434 6.2307445e-22)
(-0.0020963592 0.0027139359 1.5306563e-21)
(-0.0028538305 0.0031273828 -2.2752789e-21)
(-0.00381596 0.0035651024 2.0331397e-21)
(-0.0050253653 0.004025182 3.1181885e-22)
(-0.0065311379 0.0045047158 -1.7740284e-21)
(-0.0083890903 0.0049996491 1.9782819e-22)
(-0.010661725 0.0055046394 -1.5776142e-21)
(-0.013417818 0.0060129656 5.9524728e-23)
(-0.01673152 0.0065165067 -1.2939283e-23)
(-0.020680881 0.0070058314 -9.5584826e-22)
(-0.025345776 0.0074704318 1.2536358e-21)
(-0.030805279 0.0078991336 -6.0926258e-22)
(-0.037134711 0.0082807005 1.1856362e-22)
(-0.044402663 0.0086046159 8.7822739e-22)
(-0.05266872 0.0088620155 -8.8361688e-22)
(-0.061983287 0.0090467162 -1.4218043e-21)
(-0.072387429 0.0091563193 1.1577815e-21)
(-0.083911693 0.0091931558 5.7324205e-21)
(-0.096585224 0.00916418 6.7657314e-22)
(-0.11043664 0.0090804438 -6.048284e-21)
(-0.12549887 0.0089549328 -1.4210989e-21)
(-0.14180413 0.0087964303 -5.129857e-21)
(-0.1593752 0.0086075662 6.8328455e-21)
(-0.17823502 0.0083870879 -1.7883585e-21)
(-0.19839701 0.008131993 -8.6642639e-22)
(-0.21986285 0.0078381434 -8.5273862e-21)
(-0.2426161 0.0075000974 3.783399e-21)
(-0.26661388 0.0071113355 -5.6968872e-21)
(-0.29177631 0.0066645808 -3.8584509e-21)
(-0.3179741 0.0061522141 -1.761077e-21)
(-0.34501469 0.005567913 5.3513158e-21)
(-0.37262908 0.0049081988 1.0031852e-20)
(-0.40045925 0.0041738238 9.0374182e-21)
(-0.42804347 0.0033678561 3.9151212e-21)
(-0.45480884 0.0024927532 -1.869955e-20)
(-0.48007009 0.0015488279 -1.3456614e-20)
(-0.50302705 0.00053714879 3.2585833e-21)
(-0.52285539 -0.00054455794 -2.1764323e-20)
(-0.53876073 -0.0017042302 -7.2629932e-21)
(-0.54981775 -0.0029436271 7.2853919e-21)
(-0.55535638 -0.0042342561 1.7593517e-20)
(-0.55474777 -0.0055378761 -1.0732497e-20)
(-0.54749177 -0.0068243606 -6.7404737e-21)
(-0.53303236 -0.0080886132 1.7526326e-20)
(-0.51096825 -0.0092989564 8.3034146e-21)
(-0.48066681 -0.010353791 5.9712867e-21)
(-0.44182304 -0.011109792 -4.7040012e-21)
(-0.39393747 -0.01137895 1.3036933e-20)
(-0.33693264 -0.010878716 1.1068408e-20)
(-0.2700159 -0.0092937558 2.8436094e-21)
(-0.19418135 -0.0064110152 -7.4129153e-21)
(-0.10814077 -0.002247502 -5.9618166e-21)
(-0.015970325 0.0025102654 -2.2540587e-20)
(0.086236958 0.006153268 -3.3787501e-21)
(0.18506748 0.0060551583 2.8752049e-20)
(0.29325264 0.0012759866 -2.264536e-20)
(-1.9089206e-05 0.00044654356 2.9127082e-23)
(-7.61017e-05 0.0013757267 -2.8676181e-21)
(-0.00016108872 0.0023929142 2.552574e-21)
(-0.0002837925 0.0035037943 -6.9638922e-22)
(-0.00045317797 0.0047139398 -1.4390176e-21)
(-0.00068137075 0.0060283742 2.7513132e-21)
(-0.00098323266 0.0074513271 -2.8710392e-21)
(-0.0013766806 0.0089858828 2.5295946e-22)
(-0.0018832399 0.010633545 -7.9077889e-22)
(-0.0025286178 0.012393728 -1.3189221e-23)
(-0.0033432779 0.014263168 -2.6504357e-21)
(-0.0043630027 0.016235261 4.2240755e-21)
(-0.0056294163 0.018299351 3.499278e-22)
(-0.0071904028 0.020440007 -3.4676698e-21)
(-0.0091003484 0.022636346 1.0706671e-21)
(-0.011420122 0.024861506 6.8336266e-22)
(-0.014216688 0.027082381 -4.3564733e-21)
(-0.017562262 0.0292598 1.4291325e-20)
(-0.021532913 0.031349338 -9.0150032e-21)
(-0.026206592 0.033302938 1.088245e-20)
(-0.031660644 0.035071519 -1.6220589e-20)
(-0.037968971 0.036608568 4.0148334e-21)
(-0.045199197 0.037874566 1.6725719e-21)
(-0.053410433 0.038841735 -5.5093849e-21)
(-0.062653045 0.039498332 2.0043441e-20)
(-0.072968827 0.039851584 3.0050666e-21)
(-0.084388902 0.039927682 -1.5849393e-20)
(-0.096943055 0.039765717 1.794259e-20)
(-0.11066064 0.039410529 -2.526624e-21)
(-0.1255742 0.038902597 -2.4697034e-20)
(-0.14171537 0.038273241 2.610845e-21)
(-0.15910573 0.037542281 1.9996629e-20)
(-0.17776676 0.036720043 4.7445189e-22)
(-0.19770971 0.035810429 -1.5175655e-20)
(-0.21893329 0.034811257 1.7084336e-20)
(-0.24141739 0.033713507 -7.722732e-21)
(-0.26511472 0.032501287 9.2024992e-21)
(-0.28993997 0.031152674 2.92228e-20)
(-0.31575752 0.029641118 6.51157e-21)
(-0.34236778 0.027938226 2.5478877e-20)
(-0.36949355 0.026017156 -3.2638298e-20)
(-0.39676669 0.023854307 -2.9721737e-20)
(-0.42371284 0.021428884 -4.9697733e-21)
(-0.44974073 0.018721915 4.002969e-20)
(-0.47413788 0.01572056 -1.8502372e-20)
(-0.49607582 0.012431809 -6.2924193e-21)
(-0.51467472 0.0088854159 3.3968678e-21)
(-0.52909109 0.0051128633 1.0299809e-20)
(-0.53849631 0.0011640575 -4.9762382e-21)
(-0.54213306 -0.0028688115 8.8737998e-21)
(-0.53937477 -0.0069163501 5.3068106e-20)
(-0.52970834 -0.01093216 2.5359105e-21)
(-0.5126373 -0.014889359 -1.1391274e-20)
(-0.48774614 -0.018760086 2.5405282e-20)
(-0.45453284 -0.02245727 -2.186427e-20)
(-0.41270706 -0.025832989 6.2797205e-20)
(-0.36174936 -0.028703501 1.8143935e-20)
(-0.30169072 -0.030785657 -5.2313924e-20)
(-0.23179537 -0.031721035 8.9785968e-21)
(-0.15308735 -0.031227275 1.0563636e-20)
(-0.064369602 -0.029091555 2.1780463e-21)
(0.029942277 -0.026048066 -2.9352629e-20)
(0.13398886 -0.023067805 5.8600427e-20)
(0.23464832 -0.023344236 1.7697158e-20)
(0.34576275 -0.027031322 3.0118116e-20)
(-5.5201167e-05 0.00078854588 1.6045164e-21)
(-0.0001864498 0.0024295082 -8.6305939e-22)
(-0.00035168437 0.0042260161 -2.2956839e-22)
(-0.00056058308 0.0061882416 2.1786697e-22)
(-0.00082221459 0.008326075 -1.0559684e-21)
(-0.0011485741 0.010648467 -7.8348103e-23)
(-0.0015542328 0.013162975 -1.0046825e-21)
(-0.0020566196 0.015875135 -1.0835393e-21)
(-0.0026765104 0.018787721 8.8746143e-21)
(-0.003438568 0.021899834 -7.9386588e-21)
(-0.0043718604 0.025205859 3.8081063e-21)
(-0.0055103783 0.02869429 5.5938886e-21)
(-0.006893517 0.032346462 -1.113303e-20)
(-0.0085664691 0.036135255 -1.3822641e-21)
(-0.010580461 0.040023874 5.3692893e-21)
(-0.012992762 0.04396488 3.7109922e-21)
(-0.015866365 0.047899699 -4.3320146e-21)
(-0.019269264 0.051758898 1.5795541e-20)
(-0.023273229 0.055463589 -9.4198019e-21)
(-0.027952075 0.058928315 4.6964823e-21)
(-0.033379437 0.062065706 -1.6010611e-20)
(-0.03962623 0.064792977 -4.2092311e-21)
(-0.046758058 0.067039958 8.8870098e-21)
(-0.054833089 0.068757752 -1.3523539e-20)
(-0.063901665 0.069926519 -5.3700784e-21)
(-0.074007026 0.070560552 6.5772748e-21)
(-0.085181531 0.070707989 3.768947e-20)
(-0.097456541 0.070439789 1.7205941e-20)
(-0.11086219 0.06983429 -8.7807973e-21)
(-0.12543023 0.068960417 9.3799743e-21)
(-0.14119177 0.067873016 -6.0572012e-21)
(-0.15816562 0.066609985 -3.4241038e-20)
(-0.17636998 0.065193766 1.1592886e-20)
(-0.19581143 0.063635321 3.4870475e-20)
(-0.21648246 0.061934442 -1.1883107e-20)
(-0.23835495 0.060078648 -1.6633153e-20)
(-0.2613717 0.058042796 2.8968507e-20)
(-0.2854354 0.055790217 8.8088881e-21)
(-0.31039587 0.053275314 -1.5895066e-20)
(-0.33603628 0.050447299 -6.41714e-21)
(-0.36205874 0.047254881 3.0583248e-20)
(-0.38806917 0.043648578 -8.7828342e-21)
(-0.41356015 0.039581195 -1.2556015e-20)
(-0.43789927 0.035009693 -3.3053708e-20)
(-0.46032256 0.029906308 6.2507896e-20)
(-0.47995124 0.024285569 -3.9967405e-20)
(-0.49588163 0.018222854 -9.8423247e-21)
(-0.50722357 0.011809257 -3.9080732e-20)
(-0.51314012 0.0051322757 -4.6498246e-20)
(-0.51291165 -0.0016516737 -2.3314427e-21)
(-0.50597852 -0.0084079888 9.7724017e-21)
(-0.49190052 -0.015070376 -7.2622138e-20)
(-0.47026295 -0.021627083 -3.10794e-20)
(-0.44068956 -0.02806255 -3.2167926e-20)
(-0.402764 -0.034294635 -1.0623292e-20)
(-0.35624962 -0.04017586 -8.3800123e-20)
(-0.30072916 -0.04551483 3.3639878e-20)
(-0.23634943 -0.050025394 -1.053977e-20)
(-0.16236501 -0.053300544 -8.7994261e-20)
(-0.080016107 -0.055003902 -3.5709238e-20)
(0.01195401 -0.054618486 4.3697152e-20)
(0.10865638 -0.053033875 1.5366723e-19)
(0.21471758 -0.050484132 -5.0372445e-20)
(0.31636549 -0.050929449 -8.2014862e-20)
(0.42874559 -0.053121019 -3.5743647e-20)
(-0.00010931363 0.0011116156 -5.3473025e-21)
(-0.00035176248 0.0034255051 6.1814197e-21)
(-0.00063721393 0.0059594644 -2.2359749e-21)
(-0.0009752093 0.0087281553 2.4326353e-22)
(-0.0013749594 0.01174582 -4.8103909e-21)
(-0.0018482778 0.01502546 4.9822629e-21)
(-0.0024092938 0.018578204 -7.5641431e-21)
(-0.0030746737 0.022412445 3.5654161e-21)
(-0.0038640715 0.026532782 1.3572993e-20)
(-0.0048005656 0.030938753 -3.2720599e-21)
(-0.0059111127 0.035623367 -1.2488145e-20)
(-0.007226991 0.040571438 3.8260133e-21)
(-0.0087842221 0.045757771 2.5794865e-22)
(-0.010623918 0.05114528 -1.0091898e-20)
(-0.012792508 0.0566832 3.1754464e-20)
(-0.015341784 0.062305604 -1.9625037e-20)
(-0.01832868 0.06793055 -1.880611e-22)
(-0.021814718 0.073460282 1.1034125e-20)
(-0.025865054 0.078783009 -2.830311e-20)
(-0.030547085 0.083776758 1.3515283e-20)
(-0.035928644 0.088315805 2.0409439e-20)
(-0.042075891 0.092279836 8.3648883e-21)
(-0.049051132 0.095565442 -4.2061114e-20)
(-0.056910882 0.098098805 -2.2300937e-20)
(-0.06570528 0.099847319 1.4699534e-20)
(-0.075479318 0.10082737 -8.6705872e-21)
(-0.086267614 0.10110506 3.3150921e-20)
(-0.098103806 0.10078228 -9.6613694e-21)
(-0.11101859 0.099969744 2.649324e-20)
(-0.12504328 0.09876666 -1.5246322e-20)
(-0.14020838 0.097252292 9.5157469e-21)
(-0.15652858 0.095483791 -3.5565747e-20)
(-0.17401712 0.093496671 5.2102863e-21)
(-0.19267367 0.091309257 -2.7604624e-20)
(-0.21248166 0.088923502 2.680008e-20)
(-0.23340138 0.086323591 8.528487e-21)
(-0.25536103 0.083475166 -1.0912271e-19)
(-0.27824553 0.080326798 -2.8563327e-20)
(-0.30188348 0.076813458 2.392148e-20)
(-0.32603301 0.072861551 -2.3589606e-20)
(-0.35036652 0.068394302 5.9926516e-21)
(-0.37445345 0.063334756 3.8046711e-20)
(-0.39774237 0.057607658 -1.7988794e-21)
(-0.41954926 0.051145853 -1.2504998e-20)
(-0.43905408 0.043910863 6.2164519e-21)
(-0.45534292 0.035935722 -2.7333184e-21)
(-0.46751326 0.027338417 -8.4661223e-21)
(-0.47465596 0.018273117 1.325128e-19)
(-0.47598271 0.0089040842 -1.4664676e-20)
(-0.47087139 -0.00053928914 1.3515502e-20)
(-0.45887731 -0.0098758748 -1.2656904e-19)
(-0.43965887 -0.019025612 6.9454549e-20)
(-0.41287864 -0.027992635 5.7050118e-20)
(-0.37822135 -0.036780855 5.4815611e-20)
(-0.33533676 -0.045319574 5.3285588e-20)
(-0.28408849 -0.053469943 8.4798262e-20)
(-0.22415647 -0.061035125 -1.7169433e-19)
(-0.1557864 -0.067762235 1.075494e-19)
(-0.078249887 -0.07317505 1.6699092e-19)
(0.0070322328 -0.076897803 -1.2486241e-19)
(0.10140575 -0.078069356 -4.1013574e-20)
(0.19942179 -0.07780572 -3.702965e-20)
(0.30635209 -0.075462468 1.8987026e-19)
(0.40761019 -0.075894735 1.4145705e-19)
(0.51796643 -0.076282854 -6.3477755e-21)
(-0.00017901456 0.0014042233 3.7409934e-21)
(-0.00056474113 0.0043283939 -9.0015362e-21)
(-0.0010051161 0.0075321275 7.3422282e-21)
(-0.0015095192 0.011034516 -2.7763992e-21)
(-0.00208737 0.014854159 -1.0036509e-21)
(-0.0027502551 0.019008266 8.645839e-21)
(-0.0035117507 0.023511847 -2.193628e-21)
(-0.0043875794 0.02837666 -4.6636474e-21)
(-0.0053959664 0.03360989 -3.588611e-22)
(-0.0065579779 0.039212574 -3.0535342e-21)
(-0.0078978758 0.045177747 4.2881459e-21)
(-0.009443464 0.051488329 -2.9921725e-21)
(-0.011226424 0.058114786 -1.1071501e-20)
(-0.013282597 0.065012679 -3.2168689e-22)
(-0.015652188 0.072120245 8.5688736e-21)
(-0.018379836 0.079356326 6.1152078e-21)
(-0.021514509 0.086618982 -5.3072941e-21)
(-0.025109152 0.093785388 5.188829e-22)
(-0.02922006 0.1007136 1.058937e-20)
(-0.033905914 0.10724702 1.3063549e-20)
(-0.039226515 0.11322208 -1.5130331e-20)
(-0.045241268 0.11847971 -1.5466417e-20)
(-0.052007547 0.12287997 2.1163438e-20)
(-0.059579153 0.12631886 -2.6620878e-20)
(-0.068005547 0.12874419 -4.6858665e-20)
(-0.077332926 0.130167 1.124148e-19)
(-0.087600195 0.13066454 -6.2907132e-20)
(-0.098842846 0.13036604 9.449959e-20)
(-0.11109178 0.12941415 -1.1981598e-19)
(-0.12437991 0.12794154 1.3549694e-19)
(-0.13873596 0.12605176 -1.4184586e-19)
(-0.1541703 0.12382277 2.4247227e-20)
(-0.17068944 0.1213049 8.4224722e-20)
(-0.18828467 0.1185246 -4.798736e-20)
(-0.20692818 0.11548642 1.5168001e-20)
(-0.22656579 0.11217125 4.5350019e-21)
(-0.24710769 0.10853555 5.5244429e-20)
(-0.26841712 0.10451321 1.7973598e-20)
(-0.29029732 0.10001983 1.8029642e-20)
(-0.31247726 0.094958614 1.8130903e-20)
(-0.33459493 0.089226196 -9.2489275e-20)
(-0.35617884 0.082716372 4.0537e-20)
(-0.37663105 0.075324949 6.1802215e-21)
(-0.39521786 0.066962301 -7.3438159e-20)
(-0.41107736 0.057587471 -3.6728016e-20)
(-0.4232943 0.047266048 1.8090589e-20)
(-0.43099796 0.036174005 6.4348838e-20)
(-0.4333366 0.024522784 -2.8002523e-20)
(-0.42960987 0.012565603 8.02379e-20)
(-0.41931118 0.0006082898 4.3265109e-20)
(-0.40209057 -0.011125049 5.9603108e-20)
(-0.37768313 -0.02256076 1.5896112e-19)
(-0.34579121 -0.033735814 -1.2335421e-19)
(-0.3061266 -0.044678634 3.9907979e-20)
(-0.25839245 -0.055317542 -7.0149033e-20)
(-0.20257069 -0.06550914 -6.7298569e-20)
(-0.13847521 -0.075066303 -2.6510537e-20)
(-0.066457692 -0.083786091 -2.4911975e-19)
(0.014250164 -0.091111633 -6.8715064e-20)
(0.1019707 -0.09666171 1.6057921e-19)
(0.19813446 -0.099127138 6.1937871e-20)
(0.2967185 -0.10000781 -4.8020741e-20)
(0.40341534 -0.09773174 -1.0130349e-19)
(0.50316525 -0.097678872 -1.5842309e-19)
(0.60804036 -0.095807122 1.2576618e-20)
(-0.00026060202 0.0016553182 1.1309585e-20)
(-0.00081412612 0.005104279 2.8836703e-21)
(-0.001436016 0.0088852754 -2.3374959e-21)
(-0.0021354939 0.013021696 -8.6341005e-21)
(-0.0029222577 0.017536442 4.7340823e-21)
(-0.0038076702 0.022451047 -6.8216534e-21)
(-0.0048047088 0.027784731 2.9556665e-21)
(-0.0059280473 0.033553203 7.0503437e-22)
(-0.0071943021 0.039767143 -3.9998214e-21)
(-0.0086222507 0.04643038 -8.6428195e-21)
(-0.010233068 0.053537725 -4.3337453e-22)
(-0.012050552 0.061072464 1.431648e-20)
(-0.014101349 0.069003553 -1.9902784e-20)
(-0.016415142 0.077282594 3.2342558e-20)
(-0.019024807 0.085840798 -8.5165931e-21)
(-0.021966492 0.094586178 1.8249527e-20)
(-0.025279606 0.1034015 -2.2306995e-20)
(-0.02900668 0.11214352 1.4664521e-20)
(-0.033193082 0.12064435 -2.3536976e-21)
(-0.037886541 0.12871594 -9.6910915e-21)
(-0.043136514 0.13615843 2.3960808e-20)
(-0.048993377 0.14277321 -3.4473422e-20)
(-0.055507523 0.14838035 3.8242614e-20)
(-0.062728416 0.15283928 6.6713218e-21)
(-0.070703842 0.15606943 -6.7199787e-20)
(-0.079480278 0.15806637 6.9313647e-20)
(-0.089101864 0.15890809 -4.6020473e-20)
(-0.099605559 0.15874314 5.2566233e-20)
(-0.11102458 0.15774848 4.9663056e-21)
(-0.1233936 0.1560914 3.1217338e-21)
(-0.13673773 0.15390041 -2.2002375e-20)
(-0.1510656 0.15127633 1.4011707e-21)
(-0.16637459 0.14828683 -8.4980558e-20)
(-0.18264687 0.14496788 2.3388263e-20)
(-0.19984178 0.14132721 7.0284816e-20)
(-0.21788884 0.13734277 -3.3171116e-20)
(-0.23667839 0.13296228 2.756162e-20)
(-0.25605019 0.12810544 -2.7707571e-20)
(-0.27578065 0.12266887 -1.5525711e-19)
(-0.29556799 0.11653225 8.6114122e-20)
(-0.31501486 0.10956451 2.1010567e-20)
(-0.33360994 0.1016295 -1.1891701e-19)
(-0.3507146 0.092595031 7.159944e-21)
(-0.36555988 0.08235402 1.460887e-20)
(-0.37727289 0.070874623 1.543082e-19)
(-0.38499092 0.05826894 3.5353775e-20)
(-0.38789917 0.04477769 -5.4848595e-20)
(-0.38526287 0.030665985 -5.5458761e-20)
(-0.37647101 0.016275657 -7.7900694e-20)
(-0.36108731 0.0019775953 -9.5121473e-20)
(-0.3388017 -0.011969639 -5.7632266e-20)
(-0.30939231 -0.025503578 -8.99811e-20)
(-0.2725757 -0.038699048 3.0876804e-20)
(-0.22808135 -0.051601234 -1.9090166e-19)
(-0.17566908 -0.06412252 -1.2813985e-20)
(-0.11545789 -0.07611225 -1.1255505e-20)
(-0.047366914 -0.087391974 -6.0786124e-21)
(0.028155572 -0.097856213 2.6791111e-19)
(0.111967 -0.10682824 1.0727685e-19)
(0.20195102 -0.1139659 -1.6875061e-19)
(0.29950086 -0.11747388 -2.4897169e-19)
(0.39838548 -0.11917395 -1.1407458e-19)
(0.50355215 -0.11678937 -3.8117456e-20)
(0.59988648 -0.1156046 2.2477405e-19)
(0.69623819 -0.1108393 -5.7571151e-20)
(-0.00034914508 0.0018550713 -2.1172305e-21)
(-0.0010850945 0.005722889 -4.8453131e-21)
(-0.0019042854 0.0099663468 1.1702271e-20)
(-0.0028160443 0.014612847 -4.360432e-22)
(-0.0038303377 0.019689458 -5.7086065e-21)
(-0.0049583589 0.025222081 -2.5190045e-21)
(-0.0062125132 0.031234427 -1.8628007e-21)
(-0.0076064247 0.037746735 3.6784153e-21)
(-0.0091550594 0.044774134 -1.9088303e-20)
(-0.010874817 0.05232466 1.4450672e-20)
(-0.012783632 0.060396856 -7.0041074e-22)
(-0.014901055 0.068976968 -8.8173543e-21)
(-0.017248342 0.078035735 3.3177556e-20)
(-0.019848529 0.087524853 -3.3293864e-20)
(-0.022726496 0.097373292 4.4762005e-21)
(-0.02590902 0.10748374 2.7940361e-20)
(-0.029424819 0.11772962 -2.6580824e-20)
(-0.033304589 0.12795344 9.4239059e-21)
(-0.037581034 0.13796721 -1.8573486e-20)
(-0.042288893 0.1475563 2.4248247e-20)
(-0.047464959 0.15648766 4.6379376e-20)
(-0.053148098 0.16452355 -4.6845808e-20)
(-0.059379206 0.17144107 -7.0007115e-20)
(-0.066201093 0.17705621 1.3788041e-19)
(-0.073658124 0.1812496 -1.128091e-19)
(-0.081796019 0.1839884 6.6719739e-20)
(-0.090662156 0.18533759 -1.7547734e-20)
(-0.10029803 0.18545328 4.2091289e-20)
(-0.11074039 0.18454558 -4.3896364e-20)
(-0.12202201 0.18281598 -5.9873027e-20)
(-0.134168 0.18042362 4.0465073e-20)
(-0.14718663 0.17749294 6.76002e-20)
(-0.16106446 0.17411147 -6.0886668e-21)
(-0.17577414 0.17032736 -2.5739953e-21)
(-0.19126126 0.166153 -4.4975229e-20)
(-0.20743834 0.16156444 1.9621073e-20)
(-0.22417537 0.15650159 7.2377526e-20)
(-0.24128857 0.1508708 3.6476933e-20)
(-0.2585275 0.14455001 -5.6216516e-20)
(-0.27556028 0.13739527 4.4675376e-20)
(-0.29195631 0.12924767 -3.7765822e-20)
(-0.30717026 0.11994199 1.2827434e-20)
(-0.32053538 0.10932172 4.792707e-20)
(-0.33127211 0.097271594 -1.1402876e-19)
(-0.33853879 0.083783895 -6.7401225e-20)
(-0.34156991 0.069024234 -4.3358159e-20)
(-0.33964611 0.053289707 1.3451866e-19)
(-0.33214682 0.036893936 8.6334999e-20)
(-0.3185036 0.020236769 1.0023465e-19)
(-0.29826916 0.0037524504 1.7332826e-19)
(-0.2711471 -0.012253975 -5.9376683e-20)
(-0.2369476 -0.027725879 1.2503256e-20)
(-0.1953919 -0.042779943 9.9303198e-20)
(-0.14624315 -0.057474454 2.929399e-19)
(-0.089347332 -0.071686897 1.9508313e-19)
(-0.024972335 -0.085259892 7.7927239e-20)
(0.046999402 -0.098024361 2.3149738e-19)
(0.12606096 -0.11000043 -1.5990189e-19)
(0.21300153 -0.12033449 1.6822341e-20)
(0.30521996 -0.12870309 2.7195573e-19)
(0.40382198 -0.13297207 1.8950637e-19)
(0.50285509 -0.13504879 9.0616671e-21)
(0.60492012 -0.13214845 -3.1687903e-19)
(0.69524349 -0.12924541 3.3520539e-20)
(0.78017046 -0.1211402 -4.9320958e-20)
(-0.00043880158 0.0019954774 -8.2802591e-21)
(-0.001359809 0.0061594549 4.0072187e-21)
(-0.0023791662 0.010732149 -5.4166716e-21)
(-0.003506567 0.01574455 -3.0810032e-21)
(-0.0047522458 0.021227633 8.6074241e-21)
(-0.0061273151 0.027211586 8.0452941e-21)
(-0.0076437024 0.033724769 -8.2697608e-21)
(-0.009314084 0.040792431 9.9657555e-22)
(-0.011151884 0.048435035 2.3138342e-22)
(-0.013171236 0.056666205 1.6504522e-20)
(-0.015386936 0.065490216 -1.8193041e-21)
(-0.017814374 0.074898982 -3.3572695e-20)
(-0.020469462 0.084868562 2.6998341e-20)
(-0.02336856 0.095355195 -9.3862078e-22)
(-0.026528414 0.10629102 -1.8379913e-20)
(-0.029966127 0.11757973 -1.5990267e-21)
(-0.033699195 0.12909256 4.1145672e-21)
(-0.037745641 0.14066538 1.8801817e-20)
(-0.042124288 0.15209778 -3.4987223e-20)
(-0.046855213 0.16315548 6.260272e-20)
(-0.051960424 0.17357748 -1.377917e-20)
(-0.057464688 0.18308942 1.0317444e-20)
(-0.063396506 0.1914239 -8.6985487e-21)
(-0.069789014 0.19834725 3.52297e-22)
(-0.076680478 0.20369007 -5.377216e-20)
(-0.084114136 0.20737584 -5.479098e-20)
(-0.092137506 0.20943967 1.1070933e-19)
(-0.10079929 0.21002839 1.8766701e-20)
(-0.11013937 0.20937159 -6.6681445e-20)
(-0.12018797 0.20771307 -2.4109927e-20)
(-0.130973 0.20524997 -5.5222397e-20)
(-0.142502 0.20212689 6.3354368e-20)
(-0.15475415 0.19845534 2.8048229e-20)
(-0.16769005 0.19430028 -6.6014703e-20)
(-0.18124167 0.18968088 2.8088962e-20)
(-0.19530481 0.18457344 1.3212018e-20)
(-0.20972958 0.17891161 -3.9972665e-20)
(-0.22430932 0.17258951 -1.0499471e-19)
(-0.23876781 0.16546713 -3.1952447e-20)
(-0.25274479 0.15737744 2.1483995e-20)
(-0.26578042 0.14813495 5.0994119e-20)
(-0.27730422 0.13754872 5.2536995e-20)
(-0.28663783 0.125445 5.7873477e-20)
(-0.29301869 0.1117124 1.2065631e-19)
(-0.29567818 0.096381222 -3.2602955e-21)
(-0.29396476 0.079673787 5.0143925e-20)
(-0.28727418 0.061919148 -2.6787281e-19)
(-0.27504386 0.043453229 -7.3416313e-20)
(-0.2566746 0.0247066 -8.3159212e-20)
(-0.23170466 0.006187337 -2.2856684e-19)
(-0.19988807 -0.011730905 2.6565778e-19)
(-0.1610664 -0.028997136 -5.9180247e-20)
(-0.11495954 -0.045764023 -1.9069248e-19)
(-0.06137655 -0.062087092 -2.3601137e-19)
(-0.00025305983 -0.077802097 -3.0376672e-20)
(0.068080734 -0.092771667 7.7389759e-20)
(0.14384446 -0.10683564 1.2691835e-19)
(0.22645925 -0.12010501 -5.4539682e-20)
(0.3164573 -0.13151607 1.0039504e-19)
(0.4110126 -0.14073625 -8.5631909e-20)
(0.51058935 -0.14547195 -2.9487904e-20)
(0.60903249 -0.14730519 -8.8873958e-20)
(0.70586855 -0.14322265 3.9513695e-19)
(0.78697659 -0.13801999 1.3018123e-20)
(0.85719342 -0.12626806 1.6215523e-19)
(-0.00052315727 0.0020710256 7.7018823e-21)
(-0.0016184853 0.0063968345 1.4743418e-21)
(-0.0028265802 0.011152547 -1.6212196e-21)
(-0.0041575528 0.016372195 -7.9741338e-21)
(-0.0056219736 0.022090222 9.5724635e-21)
(-0.0072309791 0.028340835 -8.1382591e-21)
(-0.0089961613 0.035157012 -3.8946742e-21)
(-0.010929442 0.042569283 2.0942226e-22)
(-0.013042948 0.050604118 3.3017908e-21)
(-0.015348848 0.059281912 1.8826505e-20)
(-0.017859161 0.068614472 -3.1716034e-20)
(-0.02058553 0.07860196 3.82625e-20)
(-0.023538979 0.089229236 -1.1293302e-20)
(-0.026729663 0.1004616 -1.5417452e-20)
(-0.030166638 0.11224003 2.381932e-20)
(-0.033857694 0.12447607 -4.7363828e-20)
(-0.037809293 0.13704679 5.8001245e-20)
(-0.042026688 0.14979037 9.1998975e-22)
(-0.046514326 0.16250344 3.4133212e-20)
(-0.051276587 0.17494136 -1.3774506e-19)
(-0.056318976 0.18682326 3.3979451e-20)
(-0.061649748 0.1978436 1.4337839e-19)
(-0.067281906 0.2076919 -6.9271918e-20)
(-0.073235286 0.2160807 -8.4470191e-20)
(-0.079538296 0.22278008 2.1742001e-20)
(-0.086228576 0.22765332 1.1615663e-19)
(-0.09335198 0.23068506 -1.79883e-19)
(-0.10095942 0.23199106 2.0347396e-19)
(-0.10909905 0.23179842 -1.6322076e-19)
(-0.11780374 0.23038792 3.1821713e-20)
(-0.12709402 0.22801101 -5.538669e-20)
(-0.13698038 0.22484318 -7.9986001e-20)
(-0.14744199 0.22100953 3.2110906e-20)
(-0.15842585 0.21659759 8.4708156e-21)
(-0.16985159 0.21164101 1.2134874e-19)
(-0.18159771 0.20611962 -2.393825e-20)
(-0.19349516 0.19996275 6.1631108e-20)
(-0.20531522 0.19305365 -5.2434576e-20)
(-0.21675702 0.18523559 3.1441949e-20)
(-0.22743395 0.17631996 2.0434771e-20)
(-0.23686148 0.16609785 1.7508624e-20)
(-0.24445334 0.15435856 1.7382477e-20)
(-0.24953565 0.14092118 -1.0553655e-19)
(-0.25138469 0.12569153 -8.2419256e-20)
(-0.24933074 0.10874694 2.3165513e-20)
(-0.24281622 0.090361686 -1.4448584e-20)
(-0.23133142 0.070863467 6.0017769e-20)
(-0.21430027 0.05057662 -1.1762667e-19)
(-0.19110524 0.029955438 -1.3557236e-19)
(-0.16138061 0.0095971205 -3.8999203e-20)
(-0.12497489 -0.010058874 -1.0230036e-19)
(-0.081728515 -0.028964257 3.2665401e-21)
(-0.031320276 -0.047298708 4.9575403e-20)
(0.026390429 -0.065110586 2.4172615e-19)
(0.091438838 -0.082189446 -1.2190318e-19)
(0.16356055 -0.098430967 4.9778408e-20)
(0.24300129 -0.11366324 -1.4811813e-19)
(0.32918571 -0.12800484 2.5306616e-19)
(0.42244848 -0.14019994 -1.478057e-19)
(0.51969103 -0.14976852 5.1974471e-20)
(0.6201133 -0.15432419 -6.0588317e-23)
(0.71622345 -0.15519209 4.2474229e-20)
(0.80470253 -0.14927541 1.602911e-19)
(0.87255029 -0.14153741 -3.0581605e-19)
(0.92465814 -0.12658631 3.1689759e-19)
(-0.00059560764 0.0020793093 -1.7045862e-20)
(-0.0018408852 0.0064273176 -8.3491156e-21)
(-0.0032115307 0.011213637 1.3117023e-20)
(-0.0047180857 0.016474627 -3.4556732e-22)
(-0.0063715021 0.02224757 -1.188449e-20)
(-0.008183044 0.028570192 -6.2229033e-21)
(-0.01016414 0.035479785 1.3141493e-20)
(-0.01232621 0.043012124 -2.1620466e-21)
(-0.01468043 0.051200004 3.0577447e-20)
(-0.017237465 0.060071375 -5.9808484e-21)
(-0.020007135 0.069646967 -1.5354134e-22)
(-0.022998047 0.079937327 2.2205487e-20)
(-0.026217173 0.090939177 -7.1624128e-20)
(-0.029669415 0.10263105 3.3636717e-20)
(-0.033357176 0.11496822 6.0832794e-20)
(-0.037279982 0.12787699 -6.5559222e-20)
(-0.041434245 0.14124863 8.1712888e-21)
(-0.045813241 0.15493354 -4.7166093e-20)
(-0.050407444 0.16873643 -3.5654665e-20)
(-0.055205381 0.18241396 1.1439439e-19)
(-0.060195099 0.19567664 -8.7775881e-20)
(-0.065366425 0.20819724 1.1826118e-19)
(-0.070713879 0.2196279 -1.4254015e-20)
(-0.07624007 0.22962737 5.96438e-20)
(-0.081958899 0.23789764 -1.3298398e-19)
(-0.08789771 0.2442259 3.2261087e-20)
(-0.09409715 0.24852329 8.3295193e-20)
(-0.10060765 0.25084778 -2.0573371e-19)
(-0.10748161 0.25139777 9.1259893e-20)
(-0.11476169 0.25046572 9.9935289e-20)
(-0.12246751 0.24835624 -8.4085085e-20)
(-0.13059843 0.24530623 -1.1316813e-20)
(-0.13913817 0.24147073 5.8136433e-20)
(-0.14803046 0.23694771 -3.2617891e-20)
(-0.15717793 0.23178429 5.0620055e-20)
(-0.16644613 0.22597198 -1.8006209e-19)
(-0.17564764 0.21944097 9.5452841e-20)
(-0.18453136 0.2120666 5.7893456e-20)
(-0.19277175 0.20367762 1.19496e-19)
(-0.19995744 0.19406663 1.5767092e-20)
(-0.20558372 0.18300605 -1.2911497e-19)
(-0.2090567 0.17027324 5.2005636e-20)
(-0.20971869 0.15569119 7.6588899e-20)
(-0.20689673 0.13919505 1.2023291e-20)
(-0.20001566 0.12090928 -7.3294005e-20)
(-0.18857805 0.10114461 -6.3907267e-20)
(-0.17212201 0.080204722 1.9246825e-19)
(-0.15005183 0.058389883 1.0099637e-19)
(-0.1218728 0.036186469 2.175012e-19)
(-0.087415111 0.014270093 7.5950839e-20)
(-0.046599569 -0.0068863704 2.9358067e-20)
(0.0008057 -0.027255233 2.1690765e-19)
(0.055191154 -0.04702186 8.544833e-20)
(0.11669433 -0.066203564 -2.8864285e-19)
(0.18544984 -0.08453681 2.3325376e-19)
(0.26124951 -0.10192866 -2.163252e-19)
(0.34445175 -0.11817266 1.0489962e-19)
(0.43480306 -0.13331149 -5.124432e-19)
(0.53213846 -0.14587425 -2.5921189e-19)
(0.6325717 -0.15522108 1.0605904e-19)
(0.73295398 -0.15892667 1.6770615e-19)
(0.823409 -0.15800795 2.8257322e-19)
(0.89884394 -0.14978332 5.0202857e-20)
(0.94858865 -0.13960886 3.95109e-20)
(0.97987194 -0.12225636 -4.2340838e-19)
(-0.00064998944 0.0020215525 -3.0651574e-22)
(-0.0020080759 0.0062542693 1.5475007e-20)
(-0.0035012083 0.010920612 -1.8256463e-20)
(-0.0051403212 0.016058394 -8.7936939e-21)
(-0.0069367495 0.021706891 1.7631959e-20)
(-0.0089019623 0.027906596 5.7189225e-21)
(-0.011047389 0.034698486 -2.7782723e-20)
(-0.013384215 0.042123143 2.9960389e-20)
(-0.015923069 0.050219527 6.3367194e-21)
(-0.018673662 0.05902336 2.5287604e-20)
(-0.021644348 0.068565027 -6.7408324e-20)
(-0.02484162 0.078866846 -8.2651911e-22)
(-0.028269537 0.089939666 6.1177082e-20)
(-0.031929099 0.10177859 -6.6128804e-20)
(-0.035817603 0.11435787 4.7740391e-20)
(-0.039928019 0.1276248 1.7880199e-20)
(-0.044248485 0.14149297 -3.7802451e-20)
(-0.048762016 0.15583501 3.4593399e-20)
(-0.053446603 0.17047572 4.6787644e-20)
(-0.058275881 0.1851867 -1.0137114e-21)
(-0.06322065 0.19968442 -7.6633514e-20)
(-0.068251354 0.21363403 4.8399962e-20)
(-0.073341722 0.22666194 -2.7577445e-20)
(-0.078473264 0.2383795 -1.3654807e-19)
(-0.083640158 0.24841893 -4.6669745e-20)
(-0.088853389 0.25647934 1.2980709e-19)
(-0.094142497 0.2623754 -1.324979e-20)
(-0.099553253 0.26607614 1.529701e-19)
(-0.10513975 0.26771735 -9.2493053e-20)
(-0.11095093 0.26757138 4.9774476e-20)
(-0.11701513 0.26597311 -7.3622822e-20)
(-0.12333339 0.26322927 -1.8248584e-20)
(-0.12987465 0.25955483 9.3663792e-20)
(-0.13657545 0.25507545 -9.8343289e-20)
(-0.14333821 0.24985647 -1.4616996e-19)
(-0.1500146 0.24389892 1.5203188e-20)
(-0.15639788 0.23713444 1.6291559e-19)
(-0.16221601 0.22943312 -2.1114562e-19)
(-0.16711928 0.22061319 4.619942e-20)
(-0.17067368 0.21045367 -9.9390673e-20)
(-0.17235879 0.19871493 1.5370296e-20)
(-0.17158025 0.18517082 -1.5656033e-19)
(-0.1677033 0.16965747 -7.5143119e-20)
(-0.16011075 0.15214331 -9.2744114e-20)
(-0.14828534 0.13279872 3.7224019e-19)
(-0.13177755 0.11195012 1.2041193e-19)
(-0.11014896 0.089878802 -1.5964854e-19)
(-0.082877388 0.066872948 1.2904841e-19)
(-0.049724028 0.043452912 1.0720771e-19)
(-0.010703341 0.020320102 -1.2049442e-19)
(0.034269125 -0.0020768793 -6.2798e-20)
(0.085560484 -0.023744068 -1.469278e-19)
(0.14365427 -0.044819803 -7.1325439e-20)
(0.20882512 -0.065262341 2.4437145e-19)
(0.28133753 -0.084748314 1.3814462e-19)
(0.3610962 -0.10318379 2.2308673e-20)
(0.44903821 -0.12028826 -8.9396163e-22)
(0.54504644 -0.13588689 1.2678938e-19)
(0.64752452 -0.1482842 -1.8531818e-19)
(0.75073543 -0.15649217 -2.4206811e-19)
(0.84773655 -0.15822667 -6.8326043e-20)
(0.92687761 -0.15484269 -5.2267892e-19)
(0.98272347 -0.14441341 -4.1881031e-19)
(1.0097797 -0.13276649 -1.0722082e-19)
(1.0197006 -0.11494807 -5.7556793e-20)
(-0.00068124475 0.0019029152 1.0348434e-20)
(-0.002104464 0.0058931195 6.4806013e-21)
(-0.0036685047 0.010299547 -1.3486801e-20)
(-0.005384593 0.015160446 2.313399e-20)
(-0.0072643847 0.020516053 5.7970983e-21)