/*--------------------------------*- C++ -*----------------------------------*\
  =========                 |
  \\      /  F ield         | OpenFOAM: The Open Source CFD Toolbox
   \\    /   O peration     | Website:  https://openfoam.org
    \\  /    A nd           | Version:  13
     \\/     M anipulation  |
\*---------------------------------------------------------------------------*/
FoamFile
{
    format      ascii;
    class       volScalarField;
    location    "36.397";
    object      nut;
}
// * * * * * * * * * * * * * * * * * * * * * * * * * * * * * * * * * * * * * //

dimensions      [0 2 -1 0 0 0 0];

internalField   nonuniform List<scalar> 
17140
(
1.2160084e-18
2.3649753e-16
6.2991857e-15
6.3860099e-14
3.8619765e-13
1.7110011e-12
6.1781305e-12
1.9332033e-11
5.4462581e-11
1.4167184e-10
3.4628273e-10
8.0538943e-10
1.799132e-09
3.8876378e-09
8.1708848e-09
1.6776665e-08
3.3768621e-08
6.6822739e-08
1.303012e-07
2.5085329e-07
4.7756252e-07
9.002316e-07
1.6821574e-06
3.118559e-06
5.7401065e-06
1.0495011e-05
1.9066077e-05
3.4414417e-05
6.1688635e-05
0.00010967878
0.00019295488
0.00033452005
0.00056792419
0.00093632145
0.001485269
0.0022488363
0.003234683
0.0044168083
0.0057396469
0.0071298874
0.0085103407
0.0098119417
0.010982433
0.011975337
0.012780343
0.01346846
0.014036189
0.014504129
0.014908569
0.015279939
0.015639152
0.015995844
0.016353832
0.016715331
0.01707305
0.017383456
0.017568948
0.017539504
0.017318094
0.017166736
0.01808194
0.020099629
0.021718042
0.014494122
0.0058258708
1.2162328e-18
2.3654098e-16
6.3003509e-15
6.3872185e-14
3.8627388e-13
1.7113584e-12
6.1795127e-12
1.9336709e-11
5.4476907e-11
1.4171254e-10
3.4639164e-10
8.0566731e-10
1.7998139e-09
3.8892584e-09
8.174636e-09
1.6785162e-08
3.3787536e-08
6.686426e-08
1.3039137e-07
2.5104753e-07
4.7797856e-07
9.0111924e-07
1.6840464e-06
3.1225718e-06
5.7486169e-06
1.0513018e-05
1.910404e-05
3.4493963e-05
6.1853689e-05
0.00011001602
0.00019362744
0.00033581387
0.00057029042
0.00094034024
0.0014914567
0.002257363
0.0032450679
0.0044278302
0.0057495317
0.0071366652
0.0085121847
0.0098075143
0.010970912
0.011956264
0.012754606
0.01343759
0.01400188
0.014469342
0.01487772
0.015259369
0.01563795
0.016028921
0.016441684
0.016885203
0.017366366
0.017860946
0.018317257
0.018652356
0.018808794
0.018951279
0.019672359
0.020706482
0.019615681
0.010187402
0.0047362858
1.2084337e-18
2.3502413e-16
6.2599499e-15
6.3462715e-14
3.8379918e-13
1.7004067e-12
6.1400296e-12
1.9213409e-11
5.4130395e-11
1.4081375e-10
3.4420207e-10
8.0059405e-10
1.7885295e-09
3.8649929e-09
8.1239153e-09
1.668167e-08
3.3580704e-08
6.645832e-08
1.2960732e-07
2.4955489e-07
4.7517438e-07
8.9591637e-07
1.6745086e-06
3.105296e-06
5.7177096e-06
1.0458446e-05
1.9009068e-05
3.4331379e-05
6.1580694e-05
0.0001095685
0.00019291127
0.00033469252
0.00056855409
0.00093770829
0.0014875823
0.0022516675
0.0032366447
0.004415432
0.0057316806
0.0071118964
0.0084791079
0.0097647274
0.010917762
0.011892062
0.012680436
0.013353856
0.013908665
0.014368453
0.014772038
0.015153475
0.015539399
0.015949518
0.01639965
0.016911805
0.01750426
0.018171822
0.018878228
0.019537659
0.02005062
0.020422803
0.020775434
0.020459086
0.017033451
0.0090508952
0.0049816279
1.1917852e-18
2.3178619e-16
6.173707e-15
6.2588495e-14
3.7851383e-13
1.677002e-12
6.0555774e-12
1.8949382e-11
5.3387365e-11
1.3888335e-10
3.3949038e-10
7.8965315e-10
1.764133e-09
3.8123812e-09
8.0135841e-09
1.6455695e-08
3.3127107e-08
6.5563494e-08
1.2786852e-07
2.462206e-07
4.6885537e-07
8.8406671e-07
1.6525005e-06
3.0647839e-06
5.6437631e-06
1.0324578e-05
1.8768726e-05
3.3903552e-05
6.0825853e-05
0.00010824939
0.0001906413
0.00033087695
0.00056236078
0.00092804688
0.0014731438
0.0022310721
0.0032085415
0.0043785505
0.0056848226
0.0070537851
0.0084086102
0.0096811123
0.010820123
0.0117793
0.012554229
0.013212702
0.013750854
0.014194333
0.014582465
0.014950468
0.015327152
0.01573568
0.01619894
0.016750814
0.017426526
0.01823533
0.019160387
0.020111271
0.020935489
0.021405175
0.021473916
0.020100418
0.015750266
0.010106283
0.0058625965
1.1658271e-18
2.267377e-16
6.0392402e-15
6.1225384e-14
3.7027172e-13
1.6404965e-12
5.9238128e-12
1.8537278e-11
5.2227062e-11
1.3586714e-10
3.3212366e-10
7.7253411e-10
1.725927e-09
3.7299075e-09
7.8404326e-09
1.6100591e-08
3.2413238e-08
6.4152759e-08
1.2512163e-07
2.4094058e-07
4.5882056e-07
8.6518567e-07
1.6172923e-06
2.9996617e-06
5.5242109e-06
1.010665e-05
1.8374207e-05
3.3194604e-05
5.9563332e-05
0.00010602787
0.00018679409
0.00032435956
0.00055164537
0.0009111289
0.0014477301
0.0021949314
0.0031598201
0.0043158367
0.0056070604
0.0069603178
0.0082989048
0.0095543961
0.010675219
0.011614059
0.01237243
0.013009144
0.013522226
0.01393915
0.014298965
0.014637241
0.014983867
0.015364299
0.015808384
0.016364338
0.017084473
0.017987488
0.019077836
0.020268285
0.020351293
0.018778537
0.02002254
0.020069144
0.01515181
0.011533438
0.0061851291
1.1306054e-18
2.1988757e-16
5.8567862e-15
5.9375775e-14
3.5908732e-13
1.5909547e-12
5.7449731e-12
1.7977856e-11
5.0651668e-11
1.3177097e-10
3.2211662e-10
7.4927234e-10
1.6739938e-09
3.6177575e-09
7.6048718e-09
1.5617251e-08
3.1441006e-08
6.223015e-08
1.2137509e-07
2.3373241e-07
4.451063e-07
8.3934839e-07
1.5690397e-06
2.9102546e-06
5.3597441e-06
9.8061756e-06
1.7828977e-05
3.2212321e-05
5.7807991e-05
0.00010292311
0.00018137955
0.00031510982
0.00053631567
0.00088676648
0.0014109912
0.0021426575
0.0030895761
0.0042261599
0.0054973208
0.0068302628
0.0081482454
0.0093825259
0.010480888
0.011395153
0.01212829
0.012737602
0.013216169
0.013594577
0.013910852
0.014199894
0.014491348
0.014811798
0.015199931
0.015720673
0.016431603
0.017368736
0.018546805
0.019894067
0.017926892
0.01756156
0.019612141
0.020178275
0.015992973
0.012098646
0.0060962274
1.086743e-18
2.1135695e-16
5.6295726e-15
5.707238e-14
3.4515836e-13
1.5292516e-12
5.5222126e-12
1.7280965e-11
4.8688876e-11
1.2666671e-10
3.0964444e-10
7.2027428e-10
1.6092391e-09
3.4778839e-09
7.310997e-09
1.5014068e-08
3.0227281e-08
5.9829018e-08
1.1669391e-07
2.2472117e-07
4.2795067e-07
8.0700315e-07
1.5085776e-06
2.798099e-06
5.1531436e-06
9.4280648e-06
1.7141339e-05
3.0969983e-05
5.5580382e-05
9.8967348e-05
0.00017445039
0.00030321665
0.00051650667
0.00085512662
0.0013630695
0.0020743047
0.0029977708
0.004109312
0.005354975
0.0066625043
0.007955118
0.0091636008
0.010234084
0.011118059
0.01181896
0.012392592
0.01282589
0.01315208
0.013407263
0.013624506
0.013831898
0.014057199
0.014353465
0.014798676
0.015444775
0.016326073
0.01748603
0.018295231
0.017407184
0.018443328
0.021203377
0.019933266
0.016472534
0.011711046
0.005180584
1.0348528e-18
2.0126502e-16
5.3607726e-15
5.434737e-14
3.2867936e-13
1.4562488e-12
5.2586392e-12
1.6456323e-11
4.6366027e-11
1.2062536e-10
2.9488046e-10
6.8594231e-10
1.5325599e-09
3.3122201e-09
6.9628607e-09
1.4299338e-08
2.8788706e-08
5.6982179e-08
1.1114182e-07
2.1402908e-07
4.0758533e-07
7.685848e-07
1.4367153e-06
2.6646895e-06
4.9071545e-06
8.9773407e-06
1.6320486e-05
2.9484442e-05
5.2911266e-05
9.4216079e-05
0.00016610392
0.0002888424
0.00049247163
0.00081657306
0.0013044305
0.0019903648
0.0028847545
0.0039653337
0.0051796833
0.0064562856
0.007718279
0.0088957484
0.0099319356
0.010778713
0.011441963
0.011968352
0.012344686
0.012603386
0.012777928
0.012898412
0.012990832
0.013088712
0.013266349
0.013595636
0.01410939
0.014847985
0.015864849
0.017147864
0.01841057
0.020336603
0.020615496
0.018640789
0.015704031
0.0097053928
0.0039542105
9.7578627e-19
1.8977734e-16
5.054794e-15
5.124543e-14
3.0992059e-13
1.3731435e-12
4.9585753e-12
1.5517449e-11
4.3721203e-11
1.1374598e-10
2.7806669e-10
6.4683913e-10
1.4452129e-09
3.1234812e-09
6.5661692e-09
1.3484779e-08
2.7148879e-08
5.3736367e-08
1.0481008e-07
2.0183218e-07
3.8434644e-07
7.2472961e-07
1.3546484e-06
2.5122591e-06
4.6259254e-06
8.4616774e-06
1.5380553e-05
2.7781598e-05
4.9847713e-05
8.875369e-05
0.00015648786
0.00027223569
0.00046460397
0.00077167398
0.0012357999
0.0018916347
0.002751257
0.003794736
0.0049716056
0.0062113056
0.0074368596
0.0085773813
0.0095723548
0.010374472
0.010992716
0.011460204
0.011766429
0.011941192
0.012014374
0.012012226
0.011961543
0.011914945
0.011958802
0.012127711
0.012434889
0.012927207
0.013668884
0.014706049
0.01617304
0.017685692
0.017783505
0.015999486
0.013287352
0.0059687088
0.0029021879
9.1064873e-19
1.7710896e-16
4.7173672e-15
4.7824652e-14
2.8923333e-13
1.2814918e-12
4.6276398e-12
1.4481927e-11
4.0803935e-11
1.0615739e-10
2.5951806e-10
6.0369732e-10
1.3488349e-09
2.9152053e-09
6.1283626e-09
1.2585679e-08
2.5338607e-08
5.0152647e-08
9.7818029e-08
1.8836093e-07
3.5867445e-07
6.7627222e-07
1.2639468e-06
2.3437426e-06
4.3149135e-06
7.8911733e-06
1.4340137e-05
2.5895507e-05
4.6451603e-05
8.2691218e-05
0.00014579737
0.00025372798
0.00043343702
0.00072122224
0.0011582388
0.0017793659
0.0025985606
0.0035986382
0.0047315194
0.0059278533
0.0071105386
0.0082074766
0.0091536829
0.0099028415
0.010467459
0.010863892
0.011086084
0.011160172
0.011111713
0.010963216
0.010756145
0.010572584
0.010467672
0.01042981
0.010466602
0.01062945
0.010979456
0.011586781
0.012611752
0.01369372
0.013376619
0.012107888
0.0079053355
0.0031786582
0.0021871658
8.4077239e-19
1.6351896e-16
4.3553927e-15
4.415499e-14
2.6704059e-13
1.183168e-12
4.2726012e-12
1.3370937e-11
3.7673898e-11
9.8014862e-11
2.3961411e-10
5.5739983e-10
1.245399e-09
2.6916584e-09
5.6584139e-09
1.1620481e-08
2.3395063e-08
4.6304706e-08
9.0309698e-08
1.7389346e-07
3.3110105e-07
6.2422007e-07
1.1665054e-06
2.1626815e-06
3.980702e-06
7.2780067e-06
1.3221661e-05
2.3867232e-05
4.2797595e-05
7.6162925e-05
0.00013426958
0.00023372577
0.00039963522
0.00066623009
0.0010731505
0.0016552951
0.0024285646
0.0033788682
0.0044609494
0.0056069561
0.0067396904
0.0077856457
0.0086748495
0.0093619784
0.009863211
0.010176105
0.010300417
0.010258343
0.01007122
0.0097625746
0.0094182168
0.0091134449
0.0088377633
0.0085641003
0.008308128
0.0081181621
0.0080170138
0.0080712798
0.0083272469
0.0085372177
0.0082271332
0.0062517716
0.0027849428
0.0019271755
0.00144519
7.6766587e-19
1.4930071e-16
3.9766837e-15
4.0315658e-14
2.4382147e-13
1.0802947e-12
3.9011244e-12
1.2208468e-11
3.4398689e-11
8.9494266e-11
2.1878488e-10
5.0894731e-10
1.1371417e-09
2.4576762e-09
5.1664954e-09
1.0610093e-08
2.1360392e-08
4.2276103e-08
8.2448412e-08
1.5874519e-07
3.0222905e-07
5.6971521e-07
1.0644717e-06
1.9730881e-06
3.6307464e-06
6.6359638e-06
1.2050499e-05
2.174324e-05
3.8970241e-05
6.9321191e-05
0.00012217486
0.00021269658
0.00036397418
0.00060790629
0.00098226412
0.0015216509
0.0022438322
0.0031380551
0.0041623014
0.0052505412
0.0063255439
0.0073122044
0.0081354951
0.0087512667
0.0091779228
0.0093950002
0.0094088886
0.0092387387
0.0089038584
0.008450161
0.0080107122
0.0075836577
0.0071265126
0.0066320423
0.0061227567
0.0056203894
0.0050697128
0.00462623
0.0042037714
0.0036187254
0.0027239622
0.0019905978
0.001593592
0.0012338084
0.00090906417
6.9295178e-19
1.3476983e-16
3.5896477e-15
3.6391896e-14
2.200915e-13
9.7515635e-13
3.5214593e-12
1.102034e-11
3.1051068e-11
8.0784945e-11
1.9749339e-10
4.5941719e-10
1.0264715e-09
2.2184674e-09
4.6635647e-09
9.5770415e-09
1.9280005e-08
3.8156861e-08
7.4410128e-08
1.4325586e-07
2.727077e-07
5.1398722e-07
9.6015663e-07
1.7792779e-06
3.2730602e-06
5.9798516e-06
1.0853885e-05
1.9573389e-05
3.5060281e-05
6.2329796e-05
0.00010980498
0.00019114903
0.00032730973
0.00054761438
0.00088759137
0.0013811273
0.0020476036
0.0028796991
0.0038389895
0.0048616142
0.0058704073
0.0067881983
0.007535565
0.0080727453
0.0084104434
0.0085208173
0.0084147109
0.008111218
0.0076350278
0.0070934132
0.0065808177
0.0060269601
0.0054132341
0.0047549301
0.0040515143
0.0032681686
0.0026199938
0.0017112479
0.00122676
0.0011106328
0.0010739736
0.0011992817
0.0010497437
0.00080335028
0.00065451686
6.1829357e-19
1.2024978e-16
3.2028997e-15
3.2471035e-14
1.9637886e-13
8.7009326e-13
3.1420585e-12
9.8330094e-12
2.7705601e-11
7.2080945e-11
1.7621416e-10
4.0991383e-10
9.158571e-10
1.979371e-09
4.1608553e-09
8.5444194e-09
1.7200451e-08
3.4039267e-08
6.63752e-08
1.2777366e-07
2.4320208e-07
4.5829516e-07
8.5592526e-07
1.5856636e-06
2.9158302e-06
5.3247824e-06
9.659589e-06
1.7408469e-05
3.1160129e-05
5.5355721e-05
9.7458432e-05
0.00016960747
0.00029053657
0.00048681179
0.00079135003
0.0012368117
0.0018437585
0.0026081938
0.0034955302
0.0044444473
0.0053781913
0.0062158429
0.0068770417
0.0073281552
0.0075620742
0.0075568824
0.0073262315
0.0068944078
0.0063122505
0.0057444725
0.0051580646
0.0045006043
0.0037830611
0.0030023729
0.0022413599
0.001503668
0.00079489678
0.00054345032
0.00047154336
0.00060040058
0.00071108294
0.00076681337
0.00068809205
0.00058158079
0.00058144016
5.4531249e-19
1.0605591e-16
2.8248395e-15
2.8638239e-14
1.7319866e-13
7.6738807e-13
2.7711665e-12
8.6722848e-12
2.4435024e-11
6.3571581e-11
1.5541024e-10
3.6151492e-10
8.0770794e-10
1.7455984e-09
3.6693317e-09
7.5347681e-09
1.516717e-08
3.0013393e-08
5.8519628e-08
1.1263824e-07
2.1436075e-07
4.0386603e-07
7.5408045e-07
1.3965379e-06
2.5670094e-06
4.6854148e-06
8.4945002e-06
1.5297587e-05
2.7359042e-05
4.8560255e-05
8.542429e-05
0.00014858316
0.00025453898
0.00042697169
0.00069585481
0.0010920582
0.0016367053
0.0023287653
0.0031375347
0.0040045165
0.0048536274
0.0056000965
0.0061645958
0.0065187118
0.0066376285
0.0065111927
0.0061591265
0.0056181918
0.0050013016
0.004425691
0.0037793826
0.0030673443
0.0022820981
0.0015780094
0.00083498136
0.00045283175
0.00027272102
0.00025773813
0.00030081797
0.00037354196
0.00044197339
0.00049551728
0.0005090711
0.00051419963
0.00058296083
4.755e-19
9.2478333e-17
2.4631955e-15
2.4971873e-14
1.5102493e-13
6.6914137e-13
2.4163708e-12
7.5619171e-12
2.1306285e-11
5.5431098e-11
1.355078e-10
3.1521249e-10
7.0424197e-10
1.5219468e-09
3.1990878e-09
6.5688373e-09
1.3221985e-08
2.6162127e-08
5.1005322e-08
9.8161935e-08
1.8677973e-07
3.5182647e-07
6.5673443e-07
1.2158323e-06
2.2338703e-06
4.0751262e-06
7.383106e-06
1.3285366e-05
2.3737978e-05
4.208961e-05
7.3965091e-05
0.00012854349
0.0002201366
0.00036949184
0.00060337775
0.00095030266
0.0014311797
0.0020473034
0.0027716152
0.0035485467
0.0043028926
0.0049472456
0.005404992
0.0056493594
0.0056459222
0.005399204
0.004940771
0.0043349768
0.0037514031
0.0031605884
0.0024909587
0.0017675808
0.001154654
0.00054314777
0.00026235209
0.00016166838
0.00015044242
0.00017765829
0.000218606
0.00027621411
0.00034125527
0.00040813079
0.00046930988
0.00052473844
0.00062694449
4.1013994e-19
7.9766717e-17
2.1246171e-15
2.153934e-14
1.3026529e-13
5.7715966e-13
2.084197e-12
6.5223362e-12
1.8376972e-11
4.7809407e-11
1.1687355e-10
2.7186012e-10
6.0736779e-10
1.3125447e-09
2.75881e-09
5.6644838e-09
1.1400885e-08
2.2556779e-08
4.3971534e-08
8.4613251e-08
1.6097099e-07
3.0314329e-07
5.6569735e-07
1.0469102e-06
1.9226203e-06
3.5053047e-06
6.3461875e-06
1.1409547e-05
2.0365205e-05
3.606681e-05
6.3301802e-05
0.00010988377
0.00018803149
0.00031559873
0.00051598722
0.00081482338
0.0012319428
0.00177005
0.0024051425
0.003084421
0.0037335562
0.0042644584
0.0046087554
0.004729484
0.0046033203
0.0042492998
0.0037185635
0.0031344355
0.0025918832
0.0019937515
0.0013564807
0.00081703028
0.00037696426
0.00017269865
9.93978e-05
9.820448e-05
0.00011721154
0.00015447738
0.00020595423
0.00026931319
0.00033919675
0.00041152252
0.00049256082
0.0005516631
0.00056833672
3.5022822e-19
6.8114698e-17
1.8142605e-15
1.8392917e-14
1.1123598e-13
4.9284433e-13
1.7797072e-12
5.5693907e-12
1.5691764e-11
4.0822809e-11
9.9791998e-11
2.3212014e-10
5.1856636e-10
1.1205954e-09
2.3552378e-09
4.8355588e-09
9.731775e-09
1.9252624e-08
3.7526124e-08
7.219995e-08
1.3733021e-07
2.5856235e-07
4.8236236e-07
8.9235247e-07
1.6380047e-06
2.9846153e-06
5.39947e-06
9.6985169e-06
1.7291741e-05
3.0583337e-05
5.3598482e-05
9.2899165e-05
0.00015875669
0.00026625371
0.00043538103
0.0006884655
0.0010433836
0.0015031148
0.0020457756
0.002621007
0.0031550393
0.0035636253
0.0037842671
0.003777859
0.0035397738
0.003110935
0.0025760537
0.0020769779
0.0015594667
0.0010211578
0.00055585112
0.00025429968
0.00011965042
6.7425585e-05
6.672264e-05
8.6343234e-05
0.00012180237
0.00017338965
0.00023498958
0.00030084391
0.00037074591
0.00045523818
0.00046075823
0.00049417378
0.00052963481
2.9641801e-19
5.7649301e-17
1.5355094e-15
1.5566916e-14
9.4144531e-14
4.1711516e-13
1.5062244e-12
4.7134856e-12
1.3279997e-11
3.4547692e-11
8.4450036e-11
1.9642766e-10
4.3881072e-10
9.4820362e-10
1.9927991e-09
4.0911612e-09
8.2329813e-09
1.6285928e-08
3.1739795e-08
6.1058013e-08
1.1611578e-07
2.1856933e-07
4.0763315e-07
7.5382475e-07
1.3830662e-06
2.5185706e-06
4.5528637e-06
8.1699745e-06
1.4549056e-05
2.5695081e-05
4.4954928e-05
7.7770485e-05
0.00013264794
0.00022209078
0.00036274692
0.0005733621
0.00086904552
0.0012517928
0.0017005453
0.0021665764
0.0025781068
0.0028581259
0.0029486358
0.0028260015
0.002506812
0.0020624652
0.0016143618
0.0011892426
0.00074990505
0.00036557417
0.00016896612
8.1588395e-05
4.7712258e-05
4.8620324e-05
6.6724844e-05
0.00010175423
0.00015207121
0.00021201838
0.00027579005
0.00034547449
0.000430773
0.00052353881
0.00041933224
0.00045833804
0.00050723049
2.4899777e-19
4.8426697e-17
1.2898613e-15
1.3076516e-14
7.9082805e-14
3.5037953e-13
1.2652212e-12
3.9592344e-12
1.1154688e-11
2.9017972e-11
7.0930719e-11
1.6497624e-10
3.6853403e-10
7.9630703e-10
1.6734679e-09
3.4353494e-09
6.9126782e-09
1.3672868e-08
2.6644046e-08
5.1247914e-08
9.7442253e-08
1.8337848e-07
3.4190556e-07
6.3204937e-07
1.1591067e-06
2.1094864e-06
3.8104362e-06
6.8309793e-06
1.2149295e-05
2.1422954e-05
3.7407748e-05
6.456431e-05
0.00010983227
0.00018336604
0.00029862863
0.00047067274
0.0007111728
0.0010198817
0.0013751652
0.001729346
0.0020147585
0.0021629802
0.002134858
0.001924624
0.0015830842
0.0012129704
0.00086856061
0.00052922411
0.00023353166
0.00011089165
5.5402249e-05
3.4004918e-05
3.6585817e-05
5.3237129e-05
8.5868453e-05
0.00013452164
0.00019424156
0.00025799452
0.00032933599
0.00041257479
0.00049774843
0.00048973223
0.00039963038
0.00043138569
0.00049553253
2.078501e-19
4.0424043e-17
1.0767077e-15
1.0915555e-14
6.6013542e-14
2.9247247e-13
1.0561025e-12
3.3047774e-12
9.3106059e-12
2.4220055e-11
5.9200849e-11
1.376887e-10
3.0756392e-10
6.6453286e-10
1.3964588e-09
2.8665036e-09
5.7675831e-09
1.1406879e-08
2.222589e-08
4.2744136e-08
8.1259718e-08
1.5289234e-07
2.8498913e-07
5.2665308e-07
9.6539115e-07
1.7559067e-06
3.1692841e-06
5.6757119e-06
1.0080803e-05
1.7743852e-05
3.0912168e-05
5.3197847e-05
9.0171492e-05
0.00014989378
0.00024287434
0.00038045853
0.00057037415
0.00080906196
0.001073176
0.0013162581
0.0014775353
0.0015077685
0.0013907866
0.0011496671
0.00086715909
0.00060434873
0.00034587424
0.00015168159
7.1777518e-05
3.7642831e-05
2.4624497e-05
2.7971416e-05
4.332767e-05
7.4058804e-05
0.00012113003
0.0001798425
0.000243648
0.00031344244
0.00038891752
0.0004629087
0.00053630883
0.00045184504
0.00038300557
0.00042608444
0.0004853059
1.7247896e-19
3.3544831e-17
8.9347717e-16
9.0579571e-15
5.4779057e-14
2.4269541e-13
8.7634608e-13
2.7422235e-12
7.7255204e-12
2.009612e-11
4.9119103e-11
1.1423632e-10
2.5516589e-10
5.5129311e-10
1.1584314e-09
2.3777565e-09
4.7838455e-09
9.4604777e-09
1.8431517e-08
3.5442507e-08
6.7368363e-08
1.2673048e-07
2.3616378e-07
4.3627923e-07
7.993739e-07
1.4530749e-06
2.6205654e-06
4.6878432e-06
8.3135673e-06
1.4602658e-05
2.5367556e-05
4.349108e-05
7.335417e-05
0.00012115646
0.00019467928
0.00030162944
0.00044549862
0.00061877111
0.00079618753
0.00093468812
0.00098748623
0.00093482347
0.00078091701
0.00058347986
0.00039528145
0.00021330408
9.3162586e-05
4.6395477e-05
2.5574202e-05
1.8212238e-05
2.1835471e-05
3.5959987e-05
6.3852344e-05
0.00010833925
0.00016419907
0.00018879545
0.0002203375
0.00028607135
0.00041500352
0.00050643415
0.00053085914
0.00042128863
0.00037436425
0.00041865972
0.00050000956
1.4205691e-19
2.7628141e-17
7.3588363e-16
7.4602741e-15
4.5116579e-14
1.9988409e-13
7.2174763e-13
2.2584149e-12
6.3623564e-12
1.6549699e-11
4.04496e-11
9.4070224e-11
2.1011296e-10
4.5393424e-10
9.5380216e-10
1.9576264e-09
3.9383106e-09
7.7877276e-09
1.5171065e-08
2.916931e-08
5.54357e-08
1.042618e-07
1.9423966e-07
3.5869609e-07
6.5688369e-07
1.1932088e-06
2.1497679e-06
3.8403209e-06
6.7974269e-06
1.1907711e-05
2.0609402e-05
3.5151386e-05
5.8868495e-05
9.6292097e-05
0.0001526805
0.0002322361
0.00033423988
0.00044750954
0.00054678098
0.00059792454
0.00057970086
0.00049114698
0.00036532502
0.00023847796
0.00012247166
5.4794891e-05
2.8906537e-05
1.7463193e-05
1.3657394e-05
1.7534753e-05
2.9964052e-05
5.5097565e-05
9.5917541e-05
0.00014813803
0.00015469444
0.00017251904
0.00020657591
0.0002653055
0.00035677639
0.00045472912
0.00044827256
0.00039589465
0.00037197278
0.00041920973
0.00050493821
1.1555723e-19
2.2474312e-17
5.9860967e-16
6.068598e-15
3.6700076e-14
1.625939e-13
5.8709004e-13
1.8370227e-12
5.1750969e-12
1.3461039e-11
3.2899478e-11
7.6508807e-11
1.708813e-10
3.6916006e-10
7.7563449e-10
1.5918485e-09
3.2022085e-09
6.331559e-09
1.2332915e-08
2.3708861e-08
4.5049256e-08
8.4704501e-08
1.577462e-07
2.9115582e-07
5.3281582e-07
9.6687433e-07
1.7395372e-06
3.1013447e-06
5.4741875e-06
9.5523651e-06
1.6443018e-05
2.7833145e-05
4.6119442e-05
7.4314206e-05
0.00011535442
0.00017024274
0.00023474493
0.00029600848
0.0003334598
0.00033028056
0.00028371965
0.00020994244
0.00013216696
6.7109771e-05
3.1758243e-05
1.7752116e-05
1.1843524e-05
1.0376629e-05
1.4196361e-05
2.5290772e-05
4.7581224e-05
8.5230212e-05
0.00013377336
0.00013551309
0.00014686739
0.00016729646
0.00020104951
0.00025113596
0.00031805699
0.00038539511
0.00039542775
0.00037758666
0.00036734205
0.00042546266
0.00051988764
9.1960275e-20
1.7885028e-17
4.763727e-16
4.8293698e-15
2.920561e-14
1.2938942e-13
4.671888e-13
1.4618184e-12
4.1180019e-12
1.0711092e-11
2.617755e-11
6.0874249e-11
1.3595519e-10
2.9369121e-10
6.1702551e-10
1.2662237e-09
2.5468968e-09
5.0351462e-09
9.8059178e-09
1.8846396e-08
3.5798433e-08
6.7280744e-08
1.2522178e-07
2.309317e-07
4.221172e-07
7.6476733e-07
1.3728556e-06
2.4400236e-06
4.2883227e-06
7.4381165e-06
1.2696448e-05
2.1240262e-05
3.4611916e-05
5.446028e-05
8.1714169e-05
0.00011491881
0.00014814959
0.00017066181
0.00017200769
0.00014958511
0.00011035776
6.6879273e-05
3.462577e-05
1.7746568e-05
1.0931671e-05
8.1330525e-06
7.9297191e-06
1.1519863e-05
2.1301324e-05
4.1354552e-05
7.6853216e-05
0.00012123765
0.00012449523
0.00013245493
0.00014584468
0.00016817119
0.00019840728
0.00024004728
0.00029348401
0.00034496526
0.00036240601
0.00036272977
0.00036796628
0.00042670689
0.00053976172
7.0537786e-20
1.3718644e-17
3.6539966e-16
3.7043357e-15
2.2401801e-14
9.9245289e-14
3.5834024e-13
1.1212075e-12
3.1583895e-12
8.2147845e-12
2.0075706e-11
4.668206e-11
1.0425109e-10
2.2518334e-10
4.7304053e-10
9.7060267e-10
1.9519072e-09
3.8578991e-09
7.5107427e-09
1.4428824e-08
2.7391093e-08
5.1438658e-08
9.5633557e-08
1.7610788e-07
3.2126603e-07
5.804765e-07
1.0381829e-06
1.8358819e-06
3.2042229e-06
5.5049083e-06
9.2726179e-06
1.522441e-05
2.4161636e-05
3.6619743e-05
5.2118309e-05
6.8124145e-05
7.964769e-05
8.1273583e-05
7.1422178e-05
5.2337641e-05
3.1296766e-05
1.6895955e-05
9.663861e-06
6.6552149e-06
5.7226277e-06
6.1033114e-06
9.405054e-06
1.7956967e-05
3.7308918e-05
6.9025207e-05
0.00010976186
0.0001179375
0.00012353902
0.00013299693
0.00014850538
0.00016839804
0.00019509582
0.00023268632
0.00027631135
0.00031845101
0.00033929609
0.00035263158
0.00036800988
0.00043692256
0.00055847704
5.11251e-20
9.9431362e-18
2.6483767e-16
2.6848496e-15
1.6236341e-14
7.1929618e-14
2.5970637e-13
8.1256522e-13
2.2888558e-12
5.9528332e-12
1.454675e-11
3.3822344e-11
7.5523311e-11
1.6310526e-10
3.4256348e-10
7.0269733e-10
1.4126493e-09
2.7907878e-09
5.4299525e-09
1.0423086e-08
1.9765749e-08
3.7066347e-08
6.8783225e-08
1.2634527e-07
2.2971245e-07
4.131882e-07
7.3452892e-07
1.2883491e-06
2.2237849e-06
3.7627268e-06
6.2059637e-06
9.8960565e-06
1.507818e-05
2.1593321e-05
2.8436787e-05
3.353724e-05
3.4447233e-05
3.0474099e-05
2.2192554e-05
1.3637723e-05
8.0655391e-06
5.1519241e-06
4.172371e-06
3.974725e-06
4.7969302e-06
7.7023968e-06
1.5888641e-05
3.3594697e-05
6.2346562e-05
9.946427e-05
0.0001144334
0.00011803479
0.00012426981
0.00013544454
0.00014891481
0.00016742825
0.00019294287
0.00022564986
0.00026289969
0.0003006113
0.0003247708
0.00034647067
0.0003694104
0.00044378102
0.00057898182
3.4203245e-20
6.6520624e-18
1.7717873e-16
1.796175e-15
1.0862012e-14
4.8119261e-14
1.7373113e-13
5.4353911e-13
1.5309489e-12
3.9813085e-12
9.7278177e-12
2.2614362e-11
5.0486117e-11
1.0900388e-10
2.2885608e-10
4.6923491e-10
9.4274787e-10
1.8610001e-09
3.6171588e-09
6.9339323e-09
1.3125725e-08
2.4556833e-08
4.5429148e-08
8.310785e-08
1.5028914e-07
2.684012e-07
4.7261178e-07
8.184318e-07
1.3885653e-06
2.2952969e-06
3.666951e-06
5.5972061e-06
8.0331986e-06
1.0612369e-05
1.2570267e-05
1.2954745e-05
1.1542918e-05
8.5752649e-06
5.6661961e-06
3.7510675e-06
2.8469392e-06
2.6114681e-06
2.8935338e-06
3.7078564e-06
6.5520688e-06
1.4619253e-05
3.0220211e-05
5.6392718e-05
9.0107102e-05
0.00011313243
0.00011434457
0.00011779788
0.00012581207
0.00013552619
0.00014867365
0.00016688131
0.00018992617
0.00022006633
0.00025365688
0.00028851086
0.0003136501
0.00034149641
0.00037201143
0.00045238516
0.00060120582
2.0604412e-20
4.0072725e-18
1.0673388e-16
1.0820175e-15
6.5431351e-15
2.8985315e-14
1.0464348e-13
3.2736397e-13
9.2196366e-13
2.3972653e-12
5.8562886e-12
1.3610745e-11
3.0375682e-11
6.5555393e-11
1.3755738e-10
2.8183309e-10
5.65692e-10
1.1152869e-09
2.1642012e-09
4.1398327e-09
7.8147708e-09
1.4567461e-08
2.6821156e-08
4.8761277e-08
8.7458773e-08
1.5451761e-07
2.6823117e-07
4.5578678e-07
7.5395815e-07
1.2045662e-06
1.8380487e-06
2.6376468e-06
3.4874866e-06
4.1408518e-06
4.2878464e-06
3.8861953e-06
3.0875945e-06
2.3261569e-06
1.8038545e-06
1.5854536e-06
1.7509775e-06
2.0783429e-06
3.0349044e-06
6.1109382e-06
1.3416148e-05
2.7151011e-05
5.0769295e-05
8.1286514e-05
0.00011197085
0.0001113691
0.00011246211
0.00011834616
0.00012540814
0.00013524354
0.00014822644
0.00016531687
0.00018756962
0.00021543806
0.0002457857
0.00027901314
0.00030680822
0.00033973016
0.00037437769
0.00046391981
0.00062230949
1.0926287e-20
2.1250085e-18
5.6599331e-17
5.737673e-16
3.4695468e-15
1.5368837e-14
5.5480408e-14
1.7354342e-13
4.886775e-13
1.2703755e-12
3.1025263e-12
7.2079627e-12
1.6078424e-11
3.4677429e-11
7.2703996e-11
1.4879627e-10
2.9823791e-10
5.8690372e-10
1.1361482e-09
2.1665329e-09
4.073226e-09
7.5529812e-09
1.3811359e-08
2.4886198e-08
4.4119327e-08
7.6768489e-08
1.3062232e-07
2.1617268e-07
3.4531936e-07
5.2680257e-07
7.5646298e-07
1.0032498e-06
1.2001953e-06
1.2758735e-06
1.2326313e-06
1.1209086e-06
9.8712272e-07
9.1867134e-07
9.7208619e-07
1.1710188e-06
1.6487794e-06
2.7912762e-06
5.7413084e-06
1.2032832e-05
2.4170429e-05
4.5601803e-05
7.3456737e-05
0.0001055826
0.00010835835
0.00010789166
0.00011221278
0.0001173677
0.00012469307
0.00013448669
0.00014712891
0.00016418445
0.00018504969
0.0002111064
0.00024021772
0.0002730366
0.00030154304
0.00033855433
0.00037814174
0.00047327162
0.00063974413
5.04272e-21
9.8073622e-19
2.6121556e-17
2.6479722e-16
1.6011468e-15
7.0919909e-15
2.5598839e-14
8.0061334e-14
2.2539597e-13
5.857781e-13
1.4300546e-12
3.3207251e-12
7.4025096e-12
1.5951799e-11
3.3406821e-11
6.8271132e-11
1.3658034e-10
2.681207e-10
5.1739797e-10
9.8260577e-10
1.8376323e-09
3.3843552e-09
6.1343353e-09
1.0928121e-08
1.9090767e-08
3.2591769e-08
5.4106626e-08
8.6746716e-08
1.3306428e-07
1.9293216e-07
2.6054845e-07
3.2424858e-07
3.7494828e-07
4.1101694e-07
4.4291088e-07
4.7602325e-07
5.1283884e-07
6.4887187e-07
9.2102565e-07
1.4894695e-06
2.656193e-06
5.215056e-06
1.0584517e-05
2.1473261e-05
4.0998185e-05
6.640524e-05
9.573337e-05
0.00010511506
0.00010351753
0.00010678301
0.00011050336
0.00011600909
0.00012345234
0.0001333436
0.00014609078
0.00016240837
0.00018254053
0.0002079578
0.00023542517
0.00026783272
0.0002982294
0.00033884467
0.0003813939
0.00048444655
0.0006564609
2.0980712e-21
4.0804378e-19
1.0867994e-17
1.1016752e-16
6.6612054e-16
2.9502593e-15
1.0648e-14
3.3297171e-14
9.3722271e-14
2.4350625e-13
5.9424967e-13
1.3792279e-12
3.0725675e-12
6.6155418e-12
1.383931e-11
2.8242326e-11
5.6397347e-11
1.1045472e-10
2.1251037e-10
4.0205206e-10
7.4828545e-10
1.3697547e-09
2.4638932e-09
4.347914e-09
7.5076145e-09
1.2638887e-08
2.0645311e-08
3.2530496e-08
4.9132845e-08
7.0873512e-08
9.7945311e-08
1.2960755e-07
1.6431401e-07
2.0953731e-07
2.7240041e-07
3.6290324e-07
5.3352105e-07
8.4647846e-07
1.4013408e-06
2.4629304e-06
4.6543677e-06
9.3282698e-06
1.9344107e-05
3.6947502e-05
5.9944899e-05
8.6689065e-05
0.00010138374
9.9088858e-05
0.00010155825
0.00010430813
0.00010845379
0.00011417823
0.00012196747
0.00013200809
0.00014447009
0.00016075012
0.00018047903
0.00020465599
0.00023196827
0.00026458244
0.00029609864
0.00033953577
0.00038578227
0.00049615312
0.00066714691
9.622808e-22
1.8714929e-19
4.9846017e-18
5.0528447e-17
3.0552034e-16
1.3531841e-15
4.8840323e-15
1.5273407e-14
4.2992624e-14
1.117092e-13
2.726352e-13
6.3283722e-13
1.409981e-12
3.036352e-12
6.3533761e-12
1.296991e-11
2.5912298e-11
5.0785363e-11
9.7810405e-11
1.8533262e-10
3.4571688e-10
6.3497461e-10
1.1479164e-09
2.0408953e-09
3.5638868e-09
6.1022533e-09
1.0226339e-08
1.6747341e-08
2.6789986e-08
4.1856927e-08
6.3812777e-08
9.5181822e-08
1.3997106e-07
2.0834733e-07
3.1255341e-07
4.9244957e-07
7.8939852e-07
1.2927974e-06
2.2421462e-06
4.1885619e-06
8.3884368e-06
1.7479062e-05
3.318344e-05
5.3954649e-05
7.8522404e-05
9.6952258e-05
9.4831361e-05
9.6394029e-05
9.8377128e-05
0.00010156225
0.00010596012
0.00011217912
0.00012020502
0.000130252
0.00014287515
0.0001589272
0.00017800719
0.00020231944
0.00022882368
0.00026174255
0.00029454062
0.00034102314
0.00038954211
0.00050466912
0.00067646486
7.4364386e-22
1.4462812e-19
3.8521431e-18
3.9050766e-17
2.3614477e-16
1.0460899e-15
3.7765922e-15
1.1814362e-14
3.3271685e-14
8.6505513e-14
2.1129858e-13
4.9099419e-13
1.0954909e-12
2.3634232e-12
4.9570588e-12
1.0150612e-11
2.0360675e-11
4.0111224e-11
7.776966e-11