/*--------------------------------*- C++ -*----------------------------------*\
  =========                 |
  \\      /  F ield         | OpenFOAM: The Open Source CFD Toolbox
   \\    /   O peration     | Website:  https://openfoam.org
    \\  /    A nd           | Version:  13
     \\/     M anipulation  |
\*---------------------------------------------------------------------------*/
FoamFile
{
    format      ascii;
    class       volScalarField;
    location    "0.01";
    object      p;
}
// * * * * * * * * * * * * * * * * * * * * * * * * * * * * * * * * * * * * * //

dimensions      [1 -1 -2 0 0 0 0];

internalField   nonuniform List<scalar> 
1000
(
100000
100000
100000
100000
100000
100000
100000
100000
100000
100000
100000
100000
100000
100000
100000
100000
100000
100000
100000
100000
100000
100000
100000
100000
100000
100000
100000
100000
100000
100000
100000
100000
100000
100000
100000
100000
100000
100000
100000
100000
100000
100000
100000
100000
100000
100000
100000
100000
100000
100000
100000
100000
100000
100000
100000
100000
100000
100000
100000
100000
100000
100000
100000
100000
100000
100000
100000
100000
100000
100000
100000
100000
100000
100000
100000
100000
100000
100000
100000
100000
100000
100000
100000
100000
100000
100000
99999.9
99999.9
99999.8
99999.7
99999.5
99999.2
99998.8
99998.1
99997
99995.3
99992.7
99988.7
99982.7
99973.7
99960.3
99940.6
99912.1
99871.2
99814.2
99737.5
99640.7
99524.4
99388
99231.7
99056.1
98862.8
98653.9
98431.8
98198.9
97957.5
97709.5
97456.4
97199.6
96940
96678.3
96415
96150.6
95885.2
95619.2
95352.8
95086
94819.1
94552
94285
94018.1
93751.2
93484.6
93218.2
92952.1
92686.2
92420.7
92155.6
91890.9
91626.5
91362.6
91099.2
90836.2
90573.6
90311.6
90050
89789
89528.4
89268.4
89008.9
88749.9
88491.5
88233.6
87976.3
87719.5
87463.3
87207.7
86952.6
86698.1
86444.1
86190.8
85938
85685.7
85434.1
85183
84932.6
84682.7
84433.4
84184.7
83936.5
83689
83442
83195.7
82949.9
82704.7
82460.1
82216.1
81972.7
81729.8
81487.6
81246
81004.9
80764.4
80524.6
80285.3
80046.6
79808.5
79571
79334.1
79097.8
78862
78626.9
78392.3
78158.3
77925
77692.2
77459.9
77228.3
76997.3
76766.8
76536.9
76307.7
76078.9
75850.8
75623.3
75396.3
75169.9
74944.1
74718.9
74494.3
74270.2
74046.7
73823.8
73601.5
73379.7
73158.6
72938
72717.9
72498.5
72279.6
72061.3
71843.5
71626.3
71409.7
71193.7
70978.2
70763.3
70549
70335.2
70122
69909.3
69697.2
69485.7
69274.8
69064.4
68854.5
68645.2
68436.5
68228.4
68020.8
67813.7
67607.2
67401.3
67195.9
66991.1
66786.8
66583.1
66379.9
66177.3
65975.2
65773.7
65572.7
65372.3
65172.4
64973.1
64774.3
64576.1
64378.4
64181.2
63984.6
63788.6
63593.1
63398.1
63203.7
63009.8
62816.4
62623.6
62431.3
62239.6
62048.4
61857.7
61667.6
61478
61289
61100.5
60912.5
60725
60538.1
60351.7
60165.9
59980.6
59795.8
59611.5
59427.8
59244.6
59061.9
58879.8
58698.2
58517.1
58336.6
58156.5
57977.1
57798.1
57619.6
57441.7
57264.3
57087.5
56911.1
56735.3
56560
56385.3
56211
56037.3
55864.1
55691.4
55519.3
55347.7
55176.6
55006
54835.9
54666.4
54497.4
54328.9
54160.9
53993.5
53826.5
53660.1
53494.2
53328.9
53164
52999.7
52835.9
52672.6
52509.9
52347.7
52186
52024.8
51864.1
51704
51544.3
51385.2
51226.7
51068.6
50911.1
50754.1
50597.6
50441.6
50286.2
50131.3
49976.9
49823
49669.7
49516.9
49364.6
49212.9
49061.6
48910.9
48760.8
48611.1
48462
48313.4
48165.4
48017.9
47870.9
47724.4
47578.5
47433.1
47288.3
47144
47000.2
46857
46714.3
46572.1
46430.5
46289.4
46148.9
46008.9
45869.5
45730.6
45592.2
45454.4
45317.2
45180.5
45044.3
44908.8
44773.7
44639.2
44505.3
44371.9
44239.1
44106.9
43975.2
43844.1
43713.5
43583.5
43454.1
43325.3
43197
43069.3
42942.1
42815.6
42689.6
42564.2
42439.4
42315.2
42191.6
42068.5
41946.1
41824.2
41702.9
41582.3
41462.2
41342.7
41223.8
41105.6
40987.9
40870.9
40754.4
40638.6
40523.4
40408.8
40294.8
40181.5
40068.7
39956.6
39845.2
39734.3
39624.1
39514.6
39405.7
39297.4
39189.7
39082.7
38976.4
38870.7
38765.7
38661.3
38557.6
38454.5
38352.1
38250.4
38149.3
38049
37949.2
37850.2
37751.9
37654.2
37557.2
37460.9
37365.3
37270.4
37176.1
37082.6
36989.8
36897.7
36806.2
36715.5
36625.5
36536.2
36447.6
36359.7
36272.6
36186.1
36100.4
36015.4
35931.2
35847.6
35764.8
35682.7
35601.3
35520.7
35440.8
35361.7
35283.2
35205.5
35128.6
35052.4
34976.9
34902.2
34828.2
34755
34682.5
34610.7
34539.7
34469.5
34400
34331.2
34263.2
34195.9
34129.4
34063.6
33998.5
33934.2
33870.7
33807.9
33745.8
33684.4
33623.8
33564
33504.9
33446.5
33388.8
33331.9
33275.7
33220.2
33165.4
33111.4
33058.1
33005.5
32953.6
32902.5
32852
32802.3
32753.2
32704.8
32657.2
32610.2
32563.9
32518.3
32473.4
32429.2
32385.6
32342.7
32300.4
32258.8
32217.9
32177.6
32138
32099
32060.6
32022.9
31985.7
31949.2
31913.3
31878
31843.4
31809.3
31775.8
31742.9
31710.5
31678.7
31647.5
31616.9
31586.8
31557.3
31528.3
31499.8
31471.9
31444.5
31417.6
31391.2
31365.4
31340
31315.1
31290.7
31266.8
31243.3
31220.4
31197.8
31175.8
31154.2
31133
31112.3
31091.9
31072.1
31052.6
31033.5
31014.9
30996.6
30978.7
30961.3
30944.2
30927.4
30911.1
30895.1
30879.4
30864.1
30849.2
30834.5
30820.2
30806.3
30792.7
30779.3
30766.3
30753.6
30741.2
30729.1
30717.2
30705.7
30694.4
30683.4
30672.7
30662.2
30652
30642.1
30632.3
30622.9
30613.6
30604.6
30595.9
30587.3
30579
30570.9
30563
30555.3
30547.8
30540.5
30533.4
30526.5
30519.8
30513.2
30506.9
30500.7
30494.7
30488.8
30483.1
30477.6
30472.2
30467
30461.9
30457
30452.2
30447.6
30443.1
30438.7
30434.5
30430.4
30426.4
30422.5
30418.8
30415.1
30411.6
30408.2
30404.9
30401.7
30398.6
30395.6
30392.7
30389.9
30387.2
30384.6
30382.1
30379.6
30377.3
30375
30372.8
30370.7
30368.6
30366.7
30364.8
30362.9
30361.2
30359.5
30357.8
30356.3
30354.8
30353.3
30351.9
30350.6
30349.3
30348
30346.9
30345.7
30344.7
30343.6
30342.6
30341.7
30340.8
30339.9
30339.1
30338.3
30337.5
30336.8
30336.2
30335.5
30334.9
30334.3
30333.8
30333.3
30332.8
30332.3
30331.9
30331.5
30331.1
30330.7
30330.4
30330.1
30329.8
30329.5
30329.3
30329.1
30328.8
30328.7
30328.5
30328.3
30328.2
30328.1
30327.9
30327.8
30327.8
30327.7
30327.6
30327.6
30327.6
30327.5
30327.5
30327.5
30327.5
30327.5
30327.6
30327.6
30327.6
30327.7
30327.7
30327.8
30327.9
30328
30328
30328.1
30328.2
30328.3
30328.4
30328.5
30328.7
30328.8
30328.9
30329
30329.1
30329.3
30329.4
30329.6
30329.7
30329.8
30330
30330.1
30330.3
30330.4
30330.6
30330.7
30330.9
30331.1
30331.2
30331.4
30331.5
30331.7
30331.9
30332
30332.2
30332.4
30332.5
30332.7
30332.9
30333
30333.2
30333.4
30333.5
30333.7
30333.9
30334
30334.2
30334.4
30334.6
30334.7
30334.9
30335.1
30335.2
30335.4
30335.6
30335.7
30335.9
30336.1
30336.3
30336.4
30336.6
30336.8
30336.9
30337.1
30337.3
30337.4
30337.6
30337.7
30337.9
30338.1
30338.2
30338.4
30338.5
30338.7
30338.9
30339
30339.2
30339.3
30339.5
30339.6
30339.8
30339.9
30340.1
30340.2
30340.4
30340.5
30340.7
30340.8
30341
30341.1
30341.2
30341.4
30341.5
30341.6
30341.8
30341.9
30342
30342.1
30342.3
30342.4
30342.5
30342.6
30342.8
30342.9
30343
30343.1
30343.2
30343.3
30343.5
30343.6
30343.7
30343.8
30343.9
30344
30344.2
30344.3
30344.4
30344.5
30344.6
30344.7
30344.8
30344.9
30345.1
30345.2
30345.3
30345.4
30345.5
30345.6
30345.7
30345.8
30346
30346.1
30346.2
30346.3
30346.4
30346.5
30346.6
30346.8
30346.9
30347
30347.1
30347.2
30347.3
30347.5
30347.6
30347.7
30347.8
30347.9
30348
30348.2
30348.3
30348.4
30348.5
30348.7
30348.8
30348.9
30349
30349.1
30349.3
30349.4
30349.5
30349.7
30349.8
30349.9
30350
30350.2
30350.3
30350.4
30350.6
30350.7
30350.9
30351
30351.2
30351.3
30351.5
30351.6
30351.8
30352
30352.1
30352.3
30352.5
30352.7
30352.9
30353.1
30353.4
30353.6
30353.9
30354.2
30354.5
30354.8
30355.1
30355.5
30355.9
30356.3
30356.7
30357.2
30357.7
30358.3
30358.9
30359.5
30360.2
30361
30361.8
30362.7
30363.7
30364.8
30365.9
30367.1
30368.5
30369.9
30371.4
30373.1
30374.9
30376.9
30379
30381.3
30383.8
30386.4
30389.3
30392.4
30395.7
30399.3
30403.1
30407.2
30411.7
30416.4
30421.6
30427.1
30433
30439.3
30446.1
30453.4
30461.2
30469.6
30478.6
30488.2
30498.5
30509.5
30521.3
30533.9
30547.4
30561.8
30577.2
30593.7
30611.3
30630
30650.1
30671.5
30694.2
30718.5
30744.4
30772
30801.2
30832.4
30865.4
30900.5
30937.6
30976.9
31018.4
31062.2
31108.2
31156.6
31207.4
31260.4
31315.7
31373.2
31432.7
31494.1
31557.2
31621.8
31687.6
31754.3
31821.5
31888.8
31955.9
32022.3
32087.6
32151.3
32213
32272.4
32329
32382.6
32432.8
32479.5
32522.4
32561.4
32596.6
32627.8
32655.1
32678.7
32698.5
32714.9
32727.8
32737.6
32744.5
32748.5
32750.1
)
;

boundaryField
{
    sides
    {
        type            zeroGradient;
    }
    empty
    {
        type            empty;
    }
}


// ************************************************************************* //
