/*--------------------------------*- C++ -*----------------------------------*\
  =========                 |
  \\      /  F ield         | OpenFOAM: The Open Source CFD Toolbox
   \\    /   O peration     | Website:  https://openfoam.org
    \\  /    A nd           | Version:  13
     \\/     M anipulation  |
\*---------------------------------------------------------------------------*/
FoamFile
{
    format      ascii;
    class       volScalarField;
    location    "16.89762";
    object      p;
}
// * * * * * * * * * * * * * * * * * * * * * * * * * * * * * * * * * * * * * //

dimensions      [0 2 -2 0 0 0 0];

internalField   nonuniform List<scalar> 
17140
(
-0.15737303
-0.15746627
-0.15757941
-0.15769506
-0.15782082
-0.15795874
-0.15810912
-0.15827246
-0.15844932
-0.15864017
-0.15884541
-0.15906536
-0.15930031
-0.15955062
-0.15981682
-0.16009987
-0.16040149
-0.16072475
-0.16107488
-0.1614605
-0.16189545
-0.16240153
-0.16301255
-0.16378056
-0.16478464
-0.16613986
-0.16800134
-0.17057579
-0.17405751
-0.17798047
-0.18159592
-0.18532725
-0.18976405
-0.19492583
-0.20098397
-0.20810198
-0.21643247
-0.2261213
-0.23728834
-0.25001399
-0.26432843
-0.28020667
-0.29757572
-0.3163171
-0.33628369
-0.35734706
-0.37925108
-0.40190729
-0.42509803
-0.44859448
-0.47187755
-0.49413488
-0.51431018
-0.53147116
-0.54411485
-0.55175345
-0.55162784
-0.54290879
-0.52048658
-0.4749584
-0.39403606
-0.26947256
-0.099615711
0.02991248
0.12424083
-0.15989796
-0.15998883
-0.16009899
-0.16021179
-0.16033449
-0.16046908
-0.16061587
-0.16077534
-0.16094803
-0.16113442
-0.16133487
-0.1615497
-0.16177916
-0.16202359
-0.16228347
-0.1625597
-0.16285394
-0.16316915
-0.16351042
-0.16388618
-0.16431003
-0.1648034
-0.16539958
-0.16614982
-0.16713202
-0.16845973
-0.1702855
-0.17281027
-0.17624175
-0.18016065
-0.18382111
-0.18756313
-0.19199012
-0.19715132
-0.20320914
-0.2103294
-0.21866499
-0.22835777
-0.23952392
-0.25223855
-0.26652559
-0.28235642
-0.29965934
-0.31832243
-0.33820151
-0.35916299
-0.3810233
-0.40352577
-0.42653866
-0.44981826
-0.4728863
-0.49487953
-0.51476098
-0.53153936
-0.5434945
-0.55007788
-0.54968486
-0.54044145
-0.51698793
-0.47154611
-0.39102622
-0.26861375
-0.10098389
0.026862232
0.12078015
-0.16378673
-0.1638728
-0.16397698
-0.164084
-0.1642005
-0.16432834
-0.16446783
-0.16461945
-0.16478371
-0.16496106
-0.16515184
-0.16535634
-0.16557478
-0.16580745
-0.16605475
-0.1663175
-0.1665972
-0.16689663
-0.1672206
-0.16757718
-0.16797945
-0.16844811
-0.16901538
-0.16973084
-0.17066987
-0.17194265
-0.173698
-0.17612927
-0.17944288
-0.18332452
-0.18706579
-0.1908238
-0.19519813
-0.20033061
-0.20635821
-0.21344898
-0.22175526
-0.23141508
-0.24253777
-0.25519019
-0.26938946
-0.2851069
-0.30227775
-0.32080185
-0.34054215
-0.36134986
-0.38306684
-0.40542236
-0.42826962
-0.45138912
-0.47423359
-0.49596754
-0.51559164
-0.532069
-0.54375857
-0.54993379
-0.54907146
-0.53991963
-0.51694754
-0.47302364
-0.39506274
-0.27562563
-0.10978273
0.018334681
0.11295443
-0.16896471
-0.16904363
-0.1691389
-0.1692373
-0.16934451
-0.16946223
-0.16959077
-0.1697306
-0.16988219
-0.17004596
-0.17022221
-0.1704112
-0.17061311
-0.17082813
-0.17105661
-0.17129919
-0.17155721
-0.17183316
-0.17213145
-0.17245961
-0.17282992
-0.17326198
-0.17378635
-0.17445012
-0.17532479
-0.17651532
-0.17816465
-0.18045532
-0.18358745
-0.18739534
-0.19122897
-0.19501181
-0.19930044
-0.20437783
-0.21034633
-0.21737341
-0.22561188
-0.23519514
-0.24622411
-0.25875686
-0.27280544
-0.28834731
-0.30533068
-0.32367031
-0.34323686
-0.3638675
-0.38538289
-0.40753548
-0.43020947
-0.45311179
-0.47570093
-0.49732887
-0.51685894
-0.53311271
-0.54454687
-0.55047679
-0.54992636
-0.54149568
-0.51991247
-0.47890333
-0.40507809
-0.28958551
-0.12446568
0.0042733592
0.10007162
-0.17529469
-0.1753643
-0.175448
-0.17553515
-0.17563022
-0.17573471
-0.17584893
-0.17597331
-0.17610829
-0.17625425
-0.17641145
-0.17658009
-0.17676031
-0.17695222
-0.17715604
-0.17737227
-0.17760198
-0.17784732
-0.1781122
-0.17840343
-0.17873227
-0.17911683
-0.17958553
-0.18018215
-0.18097313
-0.18205649
-0.18356711
-0.1856729
-0.18856021
-0.19224173
-0.19616914
-0.19999609
-0.20417042
-0.20916145
-0.21504115
-0.22196784
-0.23009524
-0.23955143
-0.25043007
-0.26278125
-0.27661744
-0.29193068
-0.30868544
-0.3268086
-0.34617261
-0.36660033
-0.38788795
-0.40981291
-0.43222833
-0.45478329
-0.47704526
-0.49846741
-0.51804079
-0.53443476
-0.54581947
-0.55163856
-0.55151209
-0.54429431
-0.52477707
-0.48744452
-0.41887019
-0.30754686
-0.14376835
-0.014093549
0.082849211
-0.18257682
-0.18263527
-0.18270513
-0.18277871
-0.18285916
-0.18294769
-0.18304461
-0.18315034
-0.18326525
-0.18338966
-0.18352382
-0.18366786
-0.18382186
-0.18398586
-0.18415996
-0.18434449
-0.18454026
-0.18474904
-0.18497419
-0.18522171
-0.1855017
-0.18583059
-0.18623426
-0.18675274
-0.18744666
-0.18840573
-0.18975497
-0.19164879
-0.19425405
-0.19769439
-0.20163353
-0.20554667
-0.20965647
-0.21450304
-0.22025522
-0.22703992
-0.23500696
-0.24428071
-0.25494935
-0.2670594
-0.28063262
-0.29568198
-0.31218347
-0.33006796
-0.34920392
-0.36939651
-0.39040924
-0.41204066
-0.43416113
-0.45641926
-0.47832987
-0.49929696
-0.51861917
-0.53531267
-0.54711558
-0.55303878
-0.55349535
-0.54767504
-0.53049103
-0.49714813
-0.43430002
-0.32708657
-0.16488101
-0.034139358
0.062202637
-0.19055199
-0.19059779
-0.19065215
-0.19071025
-0.19077397
-0.19084423
-0.19092135
-0.19100569
-0.19109756
-0.19119726
-0.19130495
-0.19142075
-0.19154468
-0.19167671
-0.19181685
-0.19196527
-0.19212257
-0.19229013
-0.19247079
-0.19266971
-0.1928958
-0.19316367
-0.19349654
-0.19393035
-0.19451948
-0.19534429
-0.19651804
-0.19818393
-0.20049219
-0.2035659
-0.20736089
-0.21141813
-0.2155315
-0.22017744
-0.22576167
-0.23236396
-0.24012302
-0.24916066
-0.25956185
-0.27137199
-0.28463064
-0.29938496
-0.31561603
-0.33325189
-0.35215345
-0.37209362
-0.39279931
-0.41409682
-0.43588493
-0.45781
-0.47938604
-0.50001011
-0.51891462
-0.53535045
-0.54776789
-0.5543438
-0.55540508
-0.55100082
-0.53610507
-0.50659404
-0.4486259
-0.34558599
-0.18485968
-0.058151809
0.040433468
-0.19891933
-0.19895149
-0.19898978
-0.19903092
-0.19907626
-0.19912648
-0.19918186
-0.19924269
-0.19930923
-0.1993817
-0.19946026
-0.19954496
-0.1996358
-0.19973272
-0.19983567
-0.19994472
-0.20006028
-0.20018348
-0.20031668
-0.20046431
-0.20063417
-0.20083912
-0.20109975
-0.20144791
-0.20193174
-0.20262214
-0.20361945
-0.20505412
-0.20706835
-0.20977522
-0.21321071
-0.21720461
-0.22145354
-0.22598996
-0.23126877
-0.23761144
-0.24510463
-0.25384743
-0.26391985
-0.27538354
-0.28833465
-0.30283376
-0.31883781
-0.33625911
-0.35492862
-0.3745689
-0.3949132
-0.41583154
-0.43725818
-0.45883725
-0.48007202
-0.50035931
-0.51896066
-0.53499397
-0.54749459
-0.55497109
-0.55691534
-0.5539056
-0.54101277
-0.51472036
-0.46073633
-0.35956653
-0.20449847
-0.077694928
0.017792938
-0.20733888
-0.20735665
-0.20737801
-0.20740124
-0.20742713
-0.20745614
-0.20748847
-0.20752434
-0.20756396
-0.20760749
-0.20765504
-0.20770667
-0.20776234
-0.207822
-0.2078856
-0.20795319
-0.20802512
-0.20810235
-0.20818694
-0.2082828
-0.20839678
-0.2085403
-0.20873153
-0.2089986
-0.20938381
-0.20994916
-0.21078236
-0.2119995
-0.21373445
-0.21610359
-0.21915558
-0.22283423
-0.22701484
-0.23161319
-0.2367388
-0.24272822
-0.24986165
-0.25827096
-0.26804612
-0.27924718
-0.29194157
-0.30616335
-0.32188335
-0.33900418
-0.35737662
-0.37674607
-0.3966949
-0.41711445
-0.43813231
-0.45933901
-0.48022607
-0.50017907
-0.51848306
-0.53428233
-0.54646494
-0.55462127
-0.55773884
-0.5559169
-0.54458368
-0.52055758
-0.46827852
-0.36748505
-0.21548282
-0.088907665
-0.00529605
-0.21545713
-0.21546022
-0.21546428
-0.21546918
-0.21547515
-0.21548238
-0.21549101
-0.2155012
-0.21551306
-0.21552672
-0.21554226
-0.2155597
-0.21557906
-0.21560032
-0.21562349
-0.21564869
-0.21567634
-0.21570742
-0.2157439
-0.21578944
-0.21585031
-0.21593689
-0.21606551
-0.21626122
-0.21656138
-0.21702028
-0.21771444
-0.21874616
-0.22023884
-0.2223137
-0.22504638
-0.22842888
-0.2323844
-0.23686777
-0.24195205
-0.24780899
-0.25468102
-0.26277048
-0.27222723
-0.283135
-0.29550064
-0.30932217
-0.32459625
-0.34125013
-0.35917431
-0.37820273
-0.3978354
-0.41778623
-0.43832783
-0.45913985
-0.47966261
-0.49927472
-0.51727862
-0.53278098
-0.5446373
-0.55332181
-0.55757661
-0.55660114
-0.54626055
-0.52352674
-0.469453
-0.36882684
-0.22493577
-0.10245859
-0.024260511
-0.22291362
-0.22290232
-0.22288939
-0.22287625
-0.22286258
-0.2228483
-0.22283348
-0.22281817
-0.22280244
-0.22278633
-0.2227699
-0.22275317
-0.22273619
-0.22271901
-0.22270176
-0.22268469
-0.22266841
-0.22265403
-0.22264366
-0.2226409
-0.22265181
-0.22268605
-0.22275862
-0.22289215
-0.22311988
-0.22348949
-0.22406752
-0.22494312
-0.22622699
-0.22803824
-0.23047368
-0.23357278
-0.23731175
-0.2416556
-0.24662462
-0.25235644
-0.25904825
-0.2668819
-0.27599777
-0.28648185
-0.29837763
-0.31172259
-0.32651047
-0.34267306
-0.36008978
-0.37860573
-0.39791931
-0.41754484
-0.43761751
-0.45803174
-0.4781771
-0.49743371
-0.51513202
-0.53023947
-0.54194353
-0.55092177
-0.55610662
-0.55553492
-0.54555727
-0.52169336
-0.46396883
-0.36375074
-0.22948789
-0.11393656
-0.04001302
-0.22937415
-0.22934946
-0.22932069
-0.22929069
-0.22925861
-0.22922409
-0.22918714
-0.2291477
-0.22910576
-0.22906128
-0.22901428
-0.22896476
-0.2289128
-0.22885851
-0.22880215
-0.22874417
-0.22868535
-0.22862708
-0.22857168
-0.22852295
-0.2284869
-0.22847287
-0.22849495
-0.22857393
-0.22873972
-0.22903449
-0.22951609
-0.23026151
-0.23136762
-0.23294516
-0.23509909
-0.23790179
-0.24137322
-0.24550606
-0.250317
-0.25588976
-0.26236656
-0.26990954
-0.27866421
-0.28873715
-0.30019434
-0.31307277
-0.3273703
-0.34302797
-0.35993551
-0.3779253
-0.39679498
-0.4160966
-0.43579445
-0.45581545
-0.47557386
-0.49446039
-0.51177291
-0.52625342
-0.53813806
-0.54745081
-0.55300457
-0.55232179
-0.54180363
-0.51307385
-0.45239814
-0.35167685
-0.22597093
-0.12469227
-0.05365795
-0.23456833
-0.23453203
-0.23448949
-0.23444478
-0.23439656
-0.23434424
-0.23428772
-0.23422684
-0.23416149
-0.23409153
-0.23401691
-0.23393759
-0.23385364
-0.23376522
-0.23367266
-0.23357656
-0.2334779
-0.23337833
-0.23328042
-0.23318822
-0.23310788
-0.23304865
-0.23302409
-0.23305372
-0.23316504
-0.2333959
-0.2337973
-0.23443597
-0.23539597
-0.23677606
-0.238679
-0.24119733
-0.24438376
-0.24826179
-0.2528539
-0.25821876
-0.26446224
-0.27172168
-0.2801346
-0.28981168
-0.30082606
-0.31322248
-0.3270082
-0.34213629
-0.35851283
-0.37598087
-0.39433159
-0.41329513
-0.43268815
-0.452314
-0.47167468
-0.49015076
-0.50693
-0.52099698
-0.53284589
-0.54257582
-0.54780342
-0.5466274
-0.53269979
-0.49900368
-0.43390853
-0.33747949
-0.22286602
-0.13221907
-0.064972522
-0.23831634
-0.23827095
-0.23821757
-0.23816121
-0.23810013
-0.23803352
-0.23796119
-0.23788287
-0.23779831
-0.23770728
-0.23760961
-0.23750519
-0.23739403
-0.23727626
-0.23715223
-0.2370226
-0.23688846
-0.23675161
-0.2366148
-0.23648225
-0.23636024
-0.23625796
-0.2361886
-0.2361708
-0.23623028
-0.23640185
-0.23673142
-0.23727803
-0.23811515
-0.23932968
-0.24101174
-0.24330412
-0.24622108
-0.24979956
-0.25413473
-0.25925991
-0.26524913
-0.27221484
-0.28027811
-0.28955041
-0.3001104
-0.31200706
-0.32525946
-0.33983479
-0.35565576
-0.3725873
-0.39040455
-0.40902311
-0.42813668
-0.44735486
-0.46629559
-0.48427287
-0.50039686
-0.51436608
-0.52627186
-0.53573901
-0.54028757
-0.53687764
-0.51770252
-0.47937553
-0.41144861
-0.31964901
-0.21981523
-0.13792951
-0.074522695
-0.2405641
-0.24051267
-0.24045204
-0.2403878
-0.24031793
-0.24024145
-0.24015805
-0.24006737
-0.23996902
-0.23986263
-0.23974793
-0.23962466
-0.23949272
-0.23935215
-0.2392032
-0.23904646
-0.23888302
-0.23871462
-0.23854404
-0.23837547
-0.23821509
-0.2380719
-0.23795869
-0.23789328
-0.23790006
-0.23801159
-0.23827031
-0.23872995
-0.23945659
-0.24053041
-0.24202815
-0.24400824
-0.24666478
-0.25004991
-0.2540882
-0.2589282
-0.26462581
-0.27127478
-0.27897186
-0.28781904
-0.29790327
-0.30927943
-0.32197284
-0.33597078
-0.35121635
-0.36759252
-0.38489198
-0.40315418
-0.42199224
-0.44079698
-0.45926495
-0.47660197
-0.49232447
-0.5061724
-0.51814189
-0.52667236
-0.52967655
-0.52197578
-0.49765759
-0.45469785
-0.38728984
-0.30347373
-0.21464716
-0.14271552
-0.08244735
-0.24137309
-0.24131906
-0.24125516
-0.24118725
-0.24111315
-0.24103178
-0.24094273
-0.24084551
-0.24073963
-0.24062459
-0.24049995
-0.24036532
-0.24022042
-0.2400651
-0.23989943
-0.23972382
-0.23953911
-0.23934682
-0.23914945
-0.23895083
-0.23875674
-0.23857555
-0.23841926
-0.23830457
-0.23825432
-0.23829899
-0.2384782
-0.23884192
-0.23945095
-0.24037713
-0.24170304
-0.24349802
-0.24585115
-0.24879034
-0.25259059
-0.25719938
-0.26255823
-0.26884626
-0.27614264
-0.28453335
-0.29410239
-0.30491999
-0.31702216
-0.33041332
-0.34506464
-0.36086986
-0.37769902
-0.39558109
-0.41410868
-0.43248142
-0.45044069
-0.46727526
-0.48283995
-0.49648604
-0.50783595
-0.51492084
-0.51478234
-0.5023389
-0.47304467
-0.4289077
-0.36178732
-0.28876037
-0.20939705
-0.14568691
-0.088867964
-0.24093118
-0.24087777
-0.24081407
-0.24074672
-0.24067303
-0.24059182
-0.24050264
-0.2404049
-0.24029802
-0.24018137
-0.24005437
-0.23991645
-0.23976714
-0.23960605
-0.23943301
-0.23924807
-0.23905171
-0.23884501
-0.23862988
-0.23840947
-0.23818867
-0.23797475
-0.23777828
-0.23761418
-0.23750308
-0.23747279
-0.23755979
-0.23781052
-0.23828196
-0.23904103
-0.24016342
-0.24173414
-0.24379816
-0.24648398
-0.24990101
-0.25401688
-0.2590255
-0.26491
-0.27175167
-0.27963601
-0.28864113
-0.29884686
-0.31030876
-0.32305235
-0.33708399
-0.35230403
-0.36870625
-0.38619476
-0.40438714
-0.422338
-0.43982074
-0.45642606
-0.47181718
-0.48496035
-0.49523885
-0.49993542
-0.49655142
-0.47861751
-0.44595775
-0.40033489
-0.34177684
-0.27405742
-0.20423114
-0.14763385
-0.094051435
-0.23950041
-0.23945054
-0.23939059
-0.23932761
-0.23925852
-0.2391821
-0.23909787
-0.23900523
-0.2389035
-0.23879195
-0.2386699
-0.23853663
-0.23839146
-0.23823378
-0.2380631
-0.2378791
-0.2376818
-0.23747166
-0.23724982
-0.23701846
-0.23678119
-0.23654368
-0.23631443
-0.23610578
-0.23593518
-0.23582665
-0.23581236
-0.23593412
-0.23624446
-0.23680666
-0.23769284
-0.23898444
-0.24075575
-0.2430968
-0.24611227
-0.24991865
-0.25430906
-0.25956719
-0.2658512
-0.27313388
-0.28149132
-0.29101511
-0.30177355
-0.31381885
-0.32718792
-0.34183437
-0.35782784
-0.3749515
-0.39268541
-0.41030173
-0.42760319
-0.44404582
-0.45902342
-0.47128222
-0.47992461
-0.48154497
-0.47247601
-0.4519369
-0.41777431
-0.37397874
-0.32128825
-0.26166149
-0.19894027
-0.1484023
-0.098035743
-0.23740392
-0.23735992
-0.23730663
-0.23725097
-0.23718974
-0.23712178
-0.23704661
-0.23696362
-0.23687208
-0.23677126
-0.23666036
-0.23653858
-0.23640509
-0.23625908
-0.23609978
-0.23592651
-0.23573881
-0.2355365
-0.23531989
-0.23509004
-0.2348491
-0.23460079
-0.23435111
-0.23410917
-0.23388831
-0.23370748
-0.23359284
-0.23357946
-0.23371281
-0.23404979
-0.23465823
-0.23561571
-0.23700299
-0.23891448
-0.24138975
-0.24452002
-0.24841705
-0.25307395
-0.25853535
-0.26507582
-0.27266441
-0.28141037
-0.29139111
-0.30268652
-0.31536479
-0.32943705
-0.34494806
-0.36165631
-0.37908176
-0.39649901
-0.41377265
-0.42989806
-0.44438724
-0.45553236
-0.46194411
-0.45957712
-0.44655272
-0.42510527
-0.38884461
-0.35149957
-0.30246287
-0.24959607
-0.19337668
-0.14829644
-0.10100935
-0.23493945
-0.23490276
-0.23485799
-0.23481151
-0.23476024
-0.23470313
-0.23463973
-0.23456946
-0.23449163
-0.23440548
-0.23431024
-0.23420504
-0.234089
-0.23396116
-0.23382058
-0.23366631
-0.23349749
-0.2333134
-0.23311361
-0.23289811
-0.23266763
-0.23242396
-0.23217046
-0.23191271
-0.23165943
-0.23142357
-0.23122368
-0.23108558
-0.23104403
-0.23114435
-0.23144324
-0.23200869
-0.23291596
-0.23425073
-0.23608081
-0.23850749
-0.24163825
-0.24542096
-0.25012603
-0.25571752
-0.26230012
-0.27010737
-0.27918778
-0.28965675
-0.30160531
-0.3150713
-0.33006932
-0.34643861
-0.36375591
-0.38123522
-0.39839236
-0.41440023
-0.42839739
-0.43769477
-0.44160728
-0.43599407
-0.4207229
-0.39665886
-0.36586533
-0.32954481
-0.28533472
-0.23851341
-0.18774845
-0.14738868
-0.10304437
-0.23239373
-0.23236479
-0.23232949
-0.23229285
-0.2322523
-0.23220698
-0.2321565
-0.23210031
-0.23203781
-0.23196831
-0.23189106
-0.23180524
-0.23170997
-0.23160428
-0.23148714
-0.23135749
-0.23121422
-0.23105625
-0.23088262
-0.23069253
-0.23048557
-0.2302619
-0.23002259
-0.22977004
-0.22950857
-0.22924522
-0.22899068
-0.22876051
-0.22857659
-0.22846903
-0.22847773
-0.22865408
-0.22906078
-0.22977244
-0.23086754
-0.23243448
-0.23455543
-0.23734448
-0.24091327
-0.24530296
-0.25074056
-0.25738303
-0.26538329
-0.27490855
-0.28608981
-0.29899501
-0.31364088
-0.32980542
-0.34720948
-0.36440798
-0.38216824
-0.39828712
-0.41067921
-0.41724232
-0.41756065
-0.40699812
-0.39386111
-0.37073365
-0.34221856
-0.30976769
-0.26960384
-0.2278185
-0.1819201
-0.14579935
-0.10426405
-0.22993712
-0.22991594
-0.22989074
-0.22986352
-0.22983328
-0.22979943
-0.2297616
-0.22971934
-0.22967213
-0.2296194
-0.2295605
-0.22949471
-0.22942124
-0.22933922
-0.22924767
-0.22914555
-0.22903173
-0.22890501
-0.22876414
-0.22860791
-0.22843516
-0.22824494
-0.22803663
-0.22781013
-0.22756618
-0.22730667
-0.22703533
-0.22675827
-0.22648388
-0.22622575
-0.22600306
-0.22584302
-0.22578366
-0.22587699
-0.22618959
-0.22680673
-0.22782665
-0.22936823
-0.23155978
-0.23458151
-0.23861004
-0.24387388
-0.25062109
-0.2590841
-0.2694607
-0.28191068
-0.2962956
-0.31254089
-0.33015581
-0.34834664
-0.3666907
-0.38120453
-0.39091716
-0.39479835
-0.39079879
-0.38343487
-0.36464856
-0.34760655
-0.32152421
-0.29146783
-0.25491753
-0.21763957
-0.17600676
-0.14362877
-0.10474052
-0.22770974
-0.22769534
-0.22767809
-0.22765942
-0.22763861
-0.22761525
-0.22758906
-0.22755971
-0.22752679
-0.22748986
-0.22744842
-0.22740194
-0.2273498
-0.22729129
-0.22722552
-0.22715147
-0.22706803
-0.22697415
-0.2268687
-0.22675032
-0.22661757
-0.22646887
-0.22630255
-0.22611677
-0.22590954
-0.22567957
-0.22542876
-0.22514999
-0.22483687
-0.22449328
-0.2241178
-0.22371186
-0.223285
-0.22285387
-0.22245352
-0.22214775
-0.2220339
-0.22225095
-0.22297571
-0.22442868
-0.226873
-0.23060619
-0.23599281
-0.24336752
-0.25303192
-0.26509243
-0.27985439
-0.29664356
-0.31532542
-0.33408116
-0.35044985
-0.36244015
-0.3695007
-0.36970386
-0.36692272
-0.35870531
-0.34405272
-0.32610667
-0.30171325
-0.27437785
-0.24116157
-0.20779877
-0.16996199
-0.14093421
-0.1045524
-0.22568551
-0.2256773
-0.22566744
-0.22565673
-0.22564474
-0.22563124
-0.22561602
-0.22559888
-0.2255796
-0.22555789
-0.22553259
-0.22550259
-0.22546785
-0.22542844
-0.22538451
-0.22533662
-0.22528555
-0.22522973
-0.22516409
-0.22508689
-0.22499875
-0.22489766
-0.22478103
-0.22464608
-0.22449
-0.22430918
-0.22409745
-0.22384411
-0.22354163
-0.22317851
-0.22273579
-0.22219258
-0.22152861
-0.22073292
-0.21979703
-0.2187469
-0.21765283
-0.21665585
-0.21596371
-0.21586713
-0.2167241
-0.21896044
-0.22301796
-0.22932686
-0.23834206
-0.25068989
-0.26605138
-0.28356025
-0.30186934
-0.31909444
-0.33274332
-0.34235343
-0.34586424
-0.34752552
-0.34428543
-0.3356483
-0.32169249
-0.30551074
-0.28340358
-0.25841517
-0.22818001
-0.19829809
-0.1638377
-0.13779732
-0.10377098
-0.22388797
-0.22388623
-0.22388409
-0.22388165
-0.22387881
-0.22387548
-0.22387162
-0.22386687
-0.22386047
-0.22384814
-0.22382827
-0.22381073
-0.22380687
-0.22381708
-0.22382608
-0.22381381
-0.22377534
-0.22372531
-0.22368058
-0.22364217
-0.22360036
-0.22354918
-0.22348608
-0.22340629
-0.22330458
-0.22317559
-0.22300803
-0.2227936
-0.22252138
-0.22216826
-0.22169864
-0.22108609
-0.22030539
-0.21929586
-0.21801879
-0.21647855
-0.21470842
-0.21283392
-0.21106091
-0.20972247
-0.20925065
-0.21004226
-0.21291759
-0.21865161
-0.2277953
-0.24042281
-0.25535743
-0.27236208
-0.28896774
-0.30302342
-0.31447287
-0.32241151
-0.32535246
-0.32649058
-0.32181063
-0.31439561
-0.30205601
-0.28666283
-0.26616865
-0.24338714
-0.21587084
-0.18906207
-0.15762377
-0.13426883
-0.10245796
-0.2222266
-0.22223152
-0.22223726
-0.22224326
-0.22224944
-0.22225588
-0.22226606
-0.22228241
-0.2222968
-0.22230059
-0.22229782
-0.22229659
-0.22229893
-0.22230384
-0.22231059
-0.22231811
-0.22232746
-0.22233983
-0.22235205
-0.22236072
-0.22236765
-0.222367
-0.22233753
-0.22227573
-0.22220262
-0.22211553
-0.22199146
-0.22181872
-0.22158502
-0.22126732
-0.22083089
-0.22022911
-0.21942566
-0.21836236
-0.21697145
-0.21519074
-0.21304271
-0.2106707
-0.2082304
-0.20606568
-0.20462594
-0.20475895
-0.20739321
-0.21287655
-0.22150782
-0.23306766
-0.2468207
-0.26187413
-0.27534117
-0.28685511
-0.29869558
-0.30313811
-0.30740814
-0.30506349
-0.3017828
-0.29454005
-0.28290024
-0.26864989
-0.24993144
-0.22919863
-0.20413538
-0.18006782
-0.15134317
-0.13040196
-0.10067185
-0.22100497
-0.22101707
-0.22103131
-0.22104635
-0.22106263
-0.22108034
-0.22109949
-0.2211207
-0.2211446
-0.2211711
-0.22119963
-0.22122965
-0.22126093
-0.22129311
-0.22132578
-0.22135853
-0.22138938
-0.22141361
-0.22142872
-0.22143698
-0.22144441
-0.22145753
-0.2214679
-0.22146424
-0.22145368
-0.22143293
-0.2213643
-0.22120958
-0.22097344
-0.22066033
-0.22023441
-0.21964995
-0.21883281
-0.21771042
-0.21624984
-0.21443764
-0.21228804
-0.20984218
-0.20724718
-0.20499435
-0.20347812
-0.20332655
-0.20532591
-0.20985787
-0.21728558
-0.22740684
-0.23942299
-0.25149049
-0.26197838
-0.27388186
-0.28185899
-0.28671186
-0.28711891
-0.28668176
-0.28285431
-0.27584426
-0.26515293
-0.25187564
-0.23462891
-0.21574665
-0.19290133
-0.17127687
-0.14499843
-0.12623753
-0.098460148
-0.22028219
-0.22030064
-0.22032235
-0.22034531
-0.22037022
-0.22039739
-0.22042691
-0.22045886
-0.22049327
-0.22053018
-0.22056956
-0.22061134
-0.22065537
-0.22070141
-0.2207491
-0.22079795
-0.22084727
-0.22089612
-0.22094292
-0.22098542
-0.22102065
-0.22104654
-0.22106202
-0.22105471
-0.22100704
-0.22093871
-0.22087435
-0.22077456
-0.2205924
-0.22034104
-0.21997265
-0.21939727
-0.21869934
-0.21788201
-0.21670429
-0.21513184
-0.21318706
-0.21089322
-0.20854279
-0.20631991
-0.20462381
-0.20415916
-0.20536232
-0.20889523
-0.21491916
-0.2232092
-0.23274414
-0.24173867
-0.25170524
-0.26065339
-0.26558046
-0.26930075
-0.27055634
-0.26906235
-0.26504566
-0.25830852
-0.2482572
-0.23592889
-0.2201025
-0.20293212
-0.18209761
-0.16266525
-0.13859946
-0.12181237
-0.095866535
-0.22064145
-0.2206611
-0.22068426
-0.22070875
-0.22073534
-0.22076438
-0.22079593
-0.22083008
-0.22086692
-0.22090647
-0.22094873
-0.2209936
-0.22104093
-0.22109045
-0.22114178
-0.22119438
-0.22124755
-0.22130037
-0.22135175
-0.22140033
-0.22144451
-0.22148228
-0.2215112
-0.22152799
-0.22152778
-0.22150445
-0.22145833
-0.22138002
-0.22123016
-0.22098106
-0.22067736
-0.22033029
-0.21982161
-0.21905567
-0.21802464
-0.21677419
-0.21522618
-0.21329171
-0.21111566
-0.2089436
-0.20712658
-0.20613314
-0.20658642
-0.20893476
-0.21338217
-0.21979377
-0.22653458
-0.2336675
-0.24142403
-0.2472513
-0.25150816
-0.2541299
-0.25420415
-0.25244507
-0.24829978
-0.24174699
-0.23233182
-0.2208834
-0.20631258
-0.19068923
-0.17167326
-0.15420911
-0.13215161
-0.11715839
-0.092928117
-0.2219488
-0.22196495
-0.22198399
-0.22200415
-0.22202605
-0.22204999
-0.22207602
-0.22210422
-0.22213466
-0.22216736
-0.22220231
-0.22223945
-0.22227864
-0.22231965
-0.22236218
-0.22240578
-0.22244987
-0.22249369
-0.22253634
-0.22257666
-0.22261331
-0.22264464
-0.22266874
-0.22268406
-0.22268853
-0.22266423
-0.22261082
-0.22255209
-0.22251752
-0.2224554
-0.22222476
-0.2218467
-0.22143384
-0.22090361
-0.22011117
-0.21903548
-0.21764909
-0.21591708
-0.21389988
-0.21174664
-0.20973918
-0.20831913
-0.20801553
-0.20918926
-0.21222985
-0.2161644
-0.22038336
-0.22609943
-0.2314619
-0.23543858
-0.23811002
-0.23947178
-0.23905503
-0.23680518
-0.23246127
-0.22608388
-0.21719255
-0.20655325
-0.19314255
-0.17893798
-0.16157509
-0.14588762
-0.1256589
-0.11230133
-0.089678362
-0.2241235
-0.22413372
-0.22414576
-0.22415851
-0.22417235
-0.22418746
-0.22420388
-0.22422162
-0.22424072
-0.22426117
-0.22428292
-0.22430589
-0.22432992
-0.2243548
-0.22438023
-0.22440579
-0.22443097
-0.22445509
-0.22447734
-0.22449676
-0.22451214
-0.2245217
-0.22452387
-0.2245245
-0.22451627
-0.22451526
-0.22453192
-0.22446855
-0.22429886
-0.22414074
-0.22398506
-0.22372786
-0.22335234
-0.22282445
-0.22208748
-0.22110905
-0.2198378
-0.21823375
-0.21630066
-0.21412453
-0.21191988
-0.21006856
-0.20898958
-0.20901243
-0.21028242
-0.21217
-0.21560807
-0.21916289
-0.22185773
-0.22412407
-0.22553019
-0.22585147
-0.22463814
-0.22193625
-0.21743589
-0.21120345
-0.20279197
-0.19290155
-0.18054013
-0.16762442
-0.15176339
-0.13768282
-0.1191252
-0.10726596
-0.086146442
-0.22674286
-0.22674772
-0.22675341
-0.22675939
-0.22676581
-0.22677272
-0.22678012
-0.22678796
-0.22679619
-0.22680473
-0.22681345
-0.22682219
-0.22683069
-0.22683865
-0.22684565
-0.22685117
-0.22685453
-0.22685493
-0.22685137
-0.22684266
-0.22682713
-0.22680325
-0.22677225
-0.2267457
-0.22670136
-0.22660186
-0.22647702
-0.22635945
-0.22621178
-0.2260097
-0.22575024
-0.22541205
-0.22498105
-0.22442578
-0.22370434
-0.2227712
-0.22156702
-0.22002392
-0.21809241
-0.21580931
-0.21336207
-0.21106213
-0.2092261
-0.20838529
-0.20829322
-0.20928252
-0.21043945
-0.21126501
-0.21254106
-0.21338358
-0.21352653
-0.2128166
-0.21092906
-0.20779085
-0.20311904
-0.1970134
-0.18902554
-0.17982195
-0.16842246
-0.1566866
-0.14219711
-0.12957675
-0.11255204
-0.10207121
-0.082358401
-0.22975272
-0.22975437
-0.22975621
-0.229758
-0.22975972
-0.22976134
-0.22976276
-0.22976386
-0.22976447
-0.22976439
-0.22976335
-0.22976101
-0.22975692
-0.22975052
-0.22974114
-0.2297279
-0.22970976
-0.22968543
-0.22965331
-0.2296116
-0.22955892
-0.22949252
-0.22940802
-0.2292958
-0.22915798
-0.22899669
-0.22880265
-0.22857473
-0.22830455
-0.22798456
-0.22761287
-0.22717685
-0.22665951
-0.2260403
-0.22528293
-0.22432937
-0.22309049
-0.22146069
-0.21935808
-0.21683168
-0.21403292
-0.21118558
-0.20892605
-0.20724481
-0.20587721
-0.20482755
-0.20418031
-0.20383805
-0.20352855
-0.20298214
-0.20198691
-0.20035247
-0.1977884
-0.19423206
-0.18940636
-0.18341688
-0.17581843
-0.16725129
-0.15673324
-0.14607665
-0.1328429
-0.12155348
-0.10594083
-0.096734266
-0.078339322
-0.23325827
-0.23325809
-0.23325766
-0.2332569
-0.23325567
-0.23325383
-0.2332512
-0.23324754
-0.23324257
-0.2332359
-0.23322709
-0.23321556
-0.23320058
-0.23318129
-0.23315659
-0.23312517
-0.23308542
-0.23303541
-0.23297287
-0.23289515
-0.23279914
-0.2326806
-0.23253625
-0.2323625
-0.23215446
-0.23190701
-0.23161437
-0.23127417
-0.23088617
-0.23044655
-0.22995063
-0.2293944
-0.22876752
-0.22804581
-0.2271789
-0.22607931
-0.22462543
-0.22269404
-0.22022682
-0.2173029
-0.21396185
-0.21083008
-0.20800659
-0.20503735
-0.20212338
-0.19982914
-0.19792582
-0.19615498
-0.19451725
-0.1927892
-0.19075882
-0.18827599
-0.1851022
-0.18116771
-0.17620255
-0.17032534
-0.1630874
-0.15511158
-0.14540816
-0.13574474
-0.12366767
-0.11359679
-0.09929166
-0.091270281
-0.074110501
-0.23772146
-0.23771879
-0.23771533
-0.23771118
-0.23770605
-0.23769968
-0.2376918
-0.23768203
-0.23766993
-0.23765494
-0.23763638
-0.23761342
-0.23758503
-0.23754999
-0.23750678
-0.23745359
-0.23738827
-0.23730826
-0.23721057
-0.23709171
-0.23694777
-0.23677432
-0.23656657
-0.23631936
-0.23602771
-0.23568749
-0.23529559
-0.2348485
-0.23434369
-0.23378075
-0.23315813
-0.23246933
-0.23169504
-0.23079134
-0.22967773
-0.22823648
-0.2263353
-0.22387925
-0.22087417
-0.21734363
-0.21360573
-0.21004778
-0.20589197
-0.20169574
-0.19776375
-0.19442026
-0.19126185
-0.18831522
-0.18550474
-0.18269558
-0.17973283
-0.17649241
-0.17276384
-0.16849129
-0.16341205
-0.15765195
-0.15075785
-0.14333841
-0.1343936
-0.12564796
-0.11464232
-0.10569038
-0.09260352
-0.085685552
-0.069691358
-0.24351561
-0.24350838
-0.24349941
-0.24348923
-0.24347731
-0.24346324
-0.2434466
-0.24342687
-0.24340342
-0.24337549
-0.24334214
-0.24330227
-0.24325453
-0.2431973
-0.24312867
-0.24304635
-0.24294767
-0.24282948
-0.24268817
-0.24251961
-0.24231919
-0.24208195
-0.24180283
-0.24147675
-0.24109867
-0.24066381
-0.24016837
-0.2396099
-0.23898623
-0.23829403
-0.23752475
-0.23665741
-0.23564813
-0.23441968
-0.23286032
-0.2308412
-0.22825687
-0.2250748
-0.22129678
-0.21708789
-0.21291915
-0.20795719
-0.20270836
-0.1977069
-0.1930158
-0.18851572
-0.1842502
-0.1802057
-0.17634172
-0.17257831
-0.16878879
-0.16487867
-0.16066557
-0.15610694
-0.15094558
-0.14531513
-0.13875681
-0.13186703
-0.12363632
-0.11574478
-0.10573953
-0.097818526
-0.085876288
-0.079987103
-0.065114499
-0.2510128
-0.25099848
-0.25098102
-0.25096164
-0.25093945
-0.2509138
-0.25088414
-0.25084976
-0.25080981
-0.2507633
-0.25070902
-0.25064554
-0.25057118
-0.25048394
-0.25038147
-0.25026102
-0.25011941
-0.24995303
-0.24975782
-0.24952926
-0.24926245
-0.24895212
-0.2485928
-0.24817909
-0.24770599
-0.24716888
-0.24656342
-0.24588477
-0.24512561
-0.24427201
-0.24329677
-0.24215029
-0.24075282
-0.23899337
-0.23674714
-0.23390683
-0.23042387
-0.22628971
-0.22161401
-0.21678622
-0.21120197
-0.20503073
-0.19912787
-0.19333569
-0.18759965
-0.18207639
-0.17679019
-0.17175517
-0.16695449
-0.16234263
-0.15782572
-0.15333554
-0.14870982
-0.14392091
-0.13871663
-0.1332363
-0.12701534
-0.12063798
-0.11308778
-0.10599708
-0.096934303
-0.089965526
-0.079108532
-0.074186469
-0.060344849
-0.26054501
-0.26052103
-0.26049205
-0.26046024
-0.26042428
-0.26038326
-0.2603364
-0.26028276
-0.26022126
-0.26015062
-0.26006934
-0.25997567
-0.25986758
-0.25974275
-0.25959848
-0.25943165
-0.25923871
-0.25901565
-0.25875799
-0.25846086
-0.25811907
-0.25772714
-0.25727944
-0.25677019
-0.25619336
-0.25554219
-0.25480787
-0.25397718
-0.25302815
-0.25192385
-0.25060493
-0.2489842
-0.2469485
-0.24437263
-0.24115498
-0.23723339
-0.23260156
-0.22735507
-0.22185494
-0.21564532
-0.20873607
-0.20192428
-0.19513233
-0.18827539
-0.18155989
-0.17505517
-0.16881424
-0.16287367
-0.15723466
-0.15187959
-0.14673675
-0.14175878
-0.13679956
-0.13184413
-0.12664379
-0.12134188
-0.11546871
-0.109595