/*--------------------------------*- C++ -*----------------------------------*\
  =========                 |
  \\      /  F ield         | OpenFOAM: The Open Source CFD Toolbox
   \\    /   O peration     | Website:  https://openfoam.org
    \\  /    A nd           | Version:  13
     \\/     M anipulation  |
\*---------------------------------------------------------------------------*/
FoamFile
{
    format      ascii;
    class       surfaceScalarField;
    location    "16.89762";
    object      phi;
}
// * * * * * * * * * * * * * * * * * * * * * * * * * * * * * * * * * * * * * //

dimensions      [0 3 -1 0 0 0 0];

internalField   nonuniform List<scalar> 
34068
(
-1.2181403e-07
1.3426475e-07
-1.2450719e-08
-5.4082535e-07
4.6090543e-07
-4.1894111e-08
-1.3541528e-06
8.9425689e-07
-8.0929388e-08
-2.6828604e-06
1.4623884e-06
-1.3368088e-07
-4.6770014e-06
2.2000131e-06
-2.0587208e-07
-7.5214992e-06
3.1498075e-06
-3.0530979e-07
-1.144297e-05
4.3639577e-06
-4.4248706e-07
-1.6717546e-05
5.905884e-06
-6.3130828e-07
-2.3679727e-05
7.8521272e-06
-8.8994581e-07
-3.2732242e-05
1.0294342e-05
-1.2418261e-06
-4.4356793e-05
1.3341279e-05
-1.7167279e-06
-5.9125471e-05
1.7120631e-05
-2.3519533e-06
-7.7712455e-05
2.178048e-05
-3.1934957e-06
-0.00010090541
2.7490047e-05
-4.2970874e-06
-0.00012961579
3.4439305e-05
-5.7289337e-06
-0.00016488683
4.2836924e-05
-7.5658826e-06
-0.00020789809
5.290591e-05
-9.8946517e-06
-0.00025996468
6.4876259e-05
-1.2809669e-05
-0.00032252969
7.8973957e-05
-1.6408945e-05
-0.00039714829
9.5406016e-05
-2.0787411e-05
-0.00048546281
0.00011434168
-2.6027167e-05
-0.00058916966
0.00013589137
-3.2184513e-05
-0.00070998197
0.00016008686
-3.9274552e-05
-0.00084959658
0.00018687074
-4.7256136e-05
-0.0010096815
0.0002161085
-5.6023609e-05
-0.0011919079
0.00024764268
-6.5416283e-05
-0.001398054
0.00028140347
-7.5257332e-05
-0.001630199
0.00031756781
-8.5422864e-05
-0.0018909812
0.00035668614
-9.5903906e-05
-0.0021837738
0.00039954014
-0.00010674755
-0.0025126344
0.00044662082
-0.00011776023
-0.002881253
0.00049683826
-0.00012821961
-0.0032937197
0.00054982009
-0.00013735343
-0.0037547985
0.00060518287
-0.00014410408
-0.0042698426
0.00066215752
-0.00014711342
-0.0048447563
0.00071963412
-0.00014472039
-0.0054859046
0.00077584797
-0.00013469962
-0.0061999308
0.0008282389
-0.00011421274
-0.0069936049
0.00087334933
-7.9675265e-05
-0.0078737672
0.00090692577
-2.6763441e-05
-0.0088475435
0.00092420055
4.9575766e-05
-0.0099227291
0.00092010076
0.00015508485
-0.011108423
0.00088950055
0.00029619348
-0.012415894
0.00082752612
0.00047994519
-0.01385965
0.00072964006
0.00071411519
-0.015459708
0.00059300238
0.0010070557
-0.01724383
0.00041721852
0.0013669033
-0.019245813
0.00020064162
0.0018013416
-0.021487541
-7.7546828e-05
0.0023192746
-0.023986312
-0.00042730407
0.0029260757
-0.02675902
-0.00084955368
0.0036222615
-0.029811323
-0.0013451258
0.0043974289
-0.033133899
-0.0019028572
0.0052254334
-0.03670289
-0.0024928177
0.0060618083
-0.040464679
-0.0030617488
0.006823538
-0.044345032
-0.0035216309
0.0074019837
-0.048304055
-0.0037087487
0.0076677716
-0.051987656
-0.0035968572
0.007280458
-0.054762833
-0.0030938239
0.0058690008
-0.055733828
-0.0019845021
0.0029554974
-0.053067783
-0.00046760037
-0.0021984446
-0.044717187
0.00097620586
-0.0093268013
-0.029501742
0.00089112041
-0.016106566
-0.0080504572
-0.00096514871
-0.020486136
-0.0046967424
0.016901511
-0.020255226
-1.2085186e-07
2.5511661e-07
-5.3659527e-07
8.7664884e-07
-1.3436374e-06
1.701299e-06
-2.6622109e-06
2.780962e-06
-4.6413628e-06
4.179165e-06
-7.4648145e-06
5.9732592e-06
-1.1357765e-05
8.2569083e-06
-1.6594702e-05
1.1142821e-05
-2.3508261e-05
1.4765687e-05
-3.2499108e-05
1.9285189e-05
-4.4046756e-05
2.4888926e-05
-5.8721073e-05
3.1794949e-05
-7.719419e-05
4.0253597e-05
-0.00010025214
5.0547994e-05
-0.00012880552
6.2992687e-05
-0.00016389808
7.7929487e-05
-0.0002067118
9.5719624e-05
-0.00025856687
0.00011673133
-0.00032091498
0.00014132207
-0.00039532409
0.00016981513
-0.00048345399
0.00020247158
-0.000587023
0.00023946038
-0.00070776936
0.00028083322
-0.00084741505
0.00032651643
-0.0010076474
0.00037634084
-0.0011901428
0.00043013804
-0.0013966608
0.00048792154
-0.0016292223
0.0005501293
-0.0018903747
0.00061783855
-0.0021834587
0.00069262416
-0.0025128007
0.00077596274
-0.0028819762
0.00086601376
-0.0032949026
0.00096274651
-0.0037562257
0.001066506
-0.0042711609
0.0011770928
-0.0048453503
0.0012938234
-0.0054848487
0.0014153464
-0.0061959269
0.0015393171
-0.0069849663
0.0016623887
-0.0078584052
0.0017803647
-0.0088229503
0.0018887456
-0.0098860912
0.0019832418
-0.011056727
0.0020601366
-0.012345712
0.0021165107
-0.01376634
0.0021502676
-0.015334767
0.0021614294
-0.017070643
0.0021530946
-0.018998127
0.0021281258
-0.021143605
0.002067931
-0.023527896
0.0019569874
-0.026169749
0.0017922989
-0.029081411
0.001566536
-0.032262301
0.0012780335
-0.035696995
0.00094187594
-0.039352819
0.0005940747
-0.043185982
0.00031153235
-0.047055186
0.00016045569
-0.050649253
-2.7907519e-06
-0.053381093
-0.00036198395
-0.054140566
-0.0012250285
-0.051086435
-0.0035217315
-0.041885486
-0.0082247435
-0.025262531
-0.015731834
-0.0018427864
-0.024384893
-0.031794452
0.025254923
-1.1653328e-07
3.7164989e-07
-5.1755455e-07
1.2776701e-06
-1.2962405e-06
2.4799849e-06
-2.5688532e-06
4.0535747e-06
-4.4795995e-06
6.0899113e-06
-7.2063548e-06
8.7000145e-06
-1.0967314e-05
1.2017867e-05
-1.6028678e-05
1.6204185e-05
-2.271337e-05
2.1450379e-05
-3.141085e-05
2.7982668e-05
-4.2587878e-05
3.6065954e-05
-5.6800126e-05
4.6007197e-05
-7.4704247e-05
5.8157717e-05
-9.7069949e-05
7.2913696e-05
-0.00012479126
9.0713997e-05
-0.00015889601
0.00011203424
-0.00020055214
0.00013737576
-0.00025106926
0.00016724844
-0.00031189351
0.00020214632
-0.00038459417
0.00024251579
-0.00047084043
0.00028871784
-0.00057236851
0.00034098846
-0.00069094153
0.00039940624
-0.00082830894
0.00046388383
-0.00098617976
0.00053421167
-0.0011662333
0.00061019158
-0.0013701978
0.00069188599
-0.0016000217
0.00077995325
-0.0018581672
0.00087598406
-0.0021478994
0.00098235635
-0.0024733394
0.0011014027
-0.0028379715
0.0012306459
-0.0032456365
0.0013704115
-0.0037007414
0.0015216109
-0.0042081646
0.001684516
-0.0047731115
0.0018587704
-0.0054010524
0.0020432874
-0.0060975674
0.0022358321
-0.0068682405
0.0024330618
-0.0077186916
0.0026308158
-0.008654864
0.0028249179
-0.0096835613
0.0030119391
-0.010812908
0.0031894831
-0.012052422
0.0033560248
-0.013412837
0.0035106827
-0.014905433
0.0036540254
-0.016541305
0.0037889665
-0.018330663
0.003917484
-0.020290082
0.0040273504
-0.022437375
0.0041042806
-0.024785572
0.0041404954
-0.027346267
0.0041272306
-0.030117961
0.0040497285
-0.033075909
0.0038998239
-0.036178234
0.0036963994
-0.039365579
0.0034988775
-0.04250078
0.0032956565
-0.04529067
0.0027870997
-0.047130695
0.0014780407
-0.046852097
-0.0015036267
-0.042498744
-0.0078750846
-0.031557942
-0.019165545
-0.012734926
-0.03455485
0.012595719
-0.049715538
-0.060212953
0.04101422
-1.0880216e-07
4.8045205e-07
-4.8341206e-07
1.65228e-06
-1.2111461e-06
3.2077189e-06
-2.4010534e-06
5.2434821e-06
-4.1885383e-06
7.8773962e-06
-6.7408145e-06
1.1252291e-05
-1.02633e-05
1.5540353e-05
-1.5006994e-05
2.0947879e-05
-2.1276968e-05
2.7720353e-05
-2.9441925e-05
3.6147626e-05
-3.9944873e-05
4.6568901e-05
-5.3314705e-05
5.937703e-05
-7.0178523e-05
7.5021534e-05
-9.127417e-05
9.4009344e-05
-0.0001174624
0.00011690223
-0.00014973766
0.0001443095
-0.00018923626
0.00017687436
-0.00023724027
0.00021525246
-0.0002951752
0.00026008125
-0.00036459943
0.00031194001
-0.00044718364
0.00037130206
-0.00054467938
0.00043848419
-0.00065887773
0.00051360459
-0.00079156385
0.00059656996
-0.0009444789
0.00068712673
-0.0011193119
0.00078502456
-0.0013177526
0.00089032673
-0.0015416343
0.0010038349
-0.0017931865
0.0011275363
-0.0020753787
0.0012645485
-0.0023918547
0.0014178787
-0.0027466079
0.001585399
-0.0031431916
0.0017669953
-0.0035855162
0.0019639355
-0.0040779365
0.0021769362
-0.0046250506
0.0024058845
-0.0052315196
0.0026497563
-0.0059019734
0.0029062859
-0.006640939
0.0031720274
-0.0074529843
0.0034428612
-0.0083431016
0.0037150351
-0.0093171695
0.003986007
-0.010382038
0.004254352
-0.01154508
0.0045190663
-0.012813513
0.0047791153
-0.014193532
0.0050340446
-0.015689719
0.0052851534
-0.01730443
0.0055321952
-0.01904141
0.0057643309
-0.020905051
0.0059679211
-0.022895078
0.0061305228
-0.025008467
0.0062406196
-0.027238857
0.0062801178
-0.029556396
0.0062173633
-0.031892916
0.0060329194
-0.034154677
0.0057606389
-0.036197461
0.0053384397
-0.037745724
0.0043353626
-0.038230371
0.0019626879
-0.036557488
-0.0031765092
-0.030739774
-0.013692799
-0.017985162
-0.031920158
0.002873
-0.055413012
0.02937813
-0.076220668
-0.088730392
0.057895569
-9.7759465e-08
5.7821152e-07
-4.3460255e-07
1.9891231e-06
-1.0894093e-06
3.8625256e-06
-2.1608398e-06
6.3149126e-06
-3.7716028e-06
9.4881592e-06
-6.073535e-06
1.3554223e-05
-9.2535583e-06
1.8720376e-05
-1.354067e-05
2.523499e-05
-1.9213975e-05
3.3393658e-05
-2.6611942e-05
4.3545593e-05
-3.6142766e-05
5.6099725e-05
-4.8295925e-05
7.1530188e-05
-6.3654616e-05
9.0380226e-05
-8.2908937e-05
0.00011326366
-0.00010686907
0.00014086236
-0.00013647782
0.00017391825
-0.0001728212
0.00021321774
-0.00021713556
0.00025956682
-0.00027080927
0.00031375496
-0.00033537653
0.00037650728
-0.000412501
0.00044842653
-0.00050394721
0.0005299304
-0.00061153926
0.00062119664
-0.00073710969
0.00072214038
-0.00088244642
0.00083246346
-0.0010492559
0.00095183408
-0.0012391733
0.0010802441
-0.0014538506
0.0012185121
-0.0016951036
0.0013687893
-0.0019651869
0.0015346319
-0.0022671
0.0017197918
-0.0026062623
0.0019245614
-0.0029859111
0.002146644
-0.0034089842
0.0023870086
-0.0038790317
0.0026469837
-0.0043998603
0.0029267131
-0.0049751866
0.0032250827
-0.0056085566
0.0035396559
-0.0063033402
0.003866811
-0.00706299
0.004202511
-0.0078915379
0.004543583
-0.0087938492
0.0048883183
-0.0097751151
0.0052356179
-0.010839917
0.0055838686
-0.011991335
0.0059305331
-0.013230263
0.0062729727
-0.01455528
0.0066101699
-0.015963273
0.0069401889
-0.017451321
0.0072523785
-0.019012684
0.007529284
-0.020632014
0.0077498528
-0.022283424
0.0078920296
-0.023934912
0.0079316057
-0.025545869
0.0078283204
-0.02703828
0.0075253302
-0.028282534
0.0070048937
-0.029103051
0.0061589565
-0.029219833
0.0044521446
-0.028099612
0.00084246715
-0.02474011
-0.0065360121
-0.017215546
-0.021217362
-0.0025247973
-0.046610907
0.019901874
-0.077839683
0.046628189
-0.10294698
-0.11598569
0.073883485
-8.3639452e-08
6.6185097e-07
-3.721528e-07
2.2776364e-06
-9.3357038e-07
4.4239432e-06
-1.8531701e-06
7.2345123e-06
-3.2372929e-06
1.0872282e-05
-5.2178946e-06
1.5534825e-05
-7.9579695e-06
2.1460451e-05
-1.1657923e-05
2.8934944e-05
-1.6563082e-05
3.8298817e-05
-2.2972369e-05
4.9954881e-05
-3.124828e-05
6.4375636e-05
-4.1828192e-05
8.21101e-05
-5.5236957e-05
0.00010378899
-7.2100556e-05
0.00013012726
-9.3160511e-05
0.00016192231
-0.00011928838
0.00020004612
-0.00015149937
0.00024542873
-0.00019096347
0.00029903092
-0.00023901228
0.00036180376
-0.00029713877
0.00043463377
-0.00036698686
0.00051827462
-0.00045032781
0.00061327135
-0.00054902038
0.00071988921
-0.00066495423
0.00083807424
-0.00079998002
0.00096748926
-0.00095583703
0.0011076911
-0.0011341063
0.0012585134
-0.0013362287
0.0014206346
-0.0015635636
0.0015961243
-0.0018175801
0.0017886484
-0.0021006331
0.0020028448
-0.0024180111
0.0022419393
-0.0027741191
0.0025027521
-0.0031712003
0.0027840897
-0.0036116203
0.0030874038
-0.0040980045
0.0034130973
-0.004633003
0.0037600811
-0.0052190709
0.0041257238
-0.0058584683
0.0045062084
-0.0065535811
0.0048976238
-0.0073074992
0.0052975011
-0.0081240574
0.0057048766
-0.0090065654
0.0061181258
-0.0099565374
0.0065338406
-0.010972753
0.0069467483
-0.012050626
0.007350846
-0.013182796
0.00774234
-0.014361179
0.0081185721
-0.015576868
0.0084680669
-0.016814355
0.008766771
-0.018048093
0.0089835915
-0.01923872
0.0090826567
-0.020325871
0.0090187559
-0.02123365
0.0087360995
-0.021871123
0.0081628031
-0.022089829
0.0072236002
-0.021681377
0.0057505043
-0.02033752
0.0031082877
-0.017531311
-0.0019637424
-0.012288734
-0.011778589
-0.0026493975
-0.030856698
0.014034822
-0.063295127
0.037510519
-0.10131538
0.063239765
-0.12867623
-0.1405272
0.087781281
-6.6749803e-08
7.2860077e-07
-2.9740299e-07
2.5082896e-06
-7.4693e-07
4.8734702e-06
-1.4844783e-06
7.9720606e-06
-2.5966127e-06
1.1984416e-05
-4.1912353e-06
1.7129447e-05
-6.4022871e-06
2.3671503e-05
-9.3953943e-06
3.1928051e-05
-1.3374594e-05
4.2278017e-05
-1.8590299e-05
5.5170586e-05
-2.5348648e-05
7.1133985e-05
-3.4022418e-05
9.078387e-05
-4.506346e-05
0.00011483003
-5.9016874e-05
0.00014408068
-7.6536535e-05
0.00017944197
-9.840172e-05
0.00022191131
-0.00012553404
0.00027256105
-0.00015901339
0.00033251026
-0.00020009086
0.00040288123
-0.00025019616
0.00048473907
-0.0003109355
0.00057901396
-0.00038407533
0.00068641118
-0.00047150739
0.00080732127
-0.00057519004
0.00094175688
-0.00069706375
0.001089363
-0.00083894594
0.0012495733
-0.0010024239
0.0014219913
-0.0011887964
0.0016070071
-0.001399117
0.0018064448
-0.0016343251
0.0020238565
-0.0018955437
0.0022640634
-0.0021854937
0.0025318893
-0.0025104818
0.0028277401
-0.002874282
0.0031478899
-0.0032777795
0.0034909013
-0.0037219766
0.0038572944
-0.0042082715
0.004246376
-0.0047380557
0.004655508
-0.0053126613
0.005080814
-0.0059334851
0.0055184475
-0.0066025461
0.0059665621
-0.0073224269
0.0064247574
-0.0080942871
0.006889986
-0.0089166645
0.007356218
-0.0097845106
0.0078145943
-0.010687959
0.0082542948
-0.011613287
0.0086676675
-0.012546775
0.0090520601
-0.01347393
0.0093952223
-0.014372035
0.0096648756
-0.015205663
0.0098172191
-0.015923262
0.0098002558
-0.016450828
0.0095463221
-0.016685573
0.0089708449
-0.016498296
0.0079755259
-0.015719664
0.0064449687
-0.014129042
0.0041598815
-0.011374185
0.00035343139
-0.006884724
-0.0064532038
0.0003629224
-0.019026235
0.012465117
-0.042958893
0.03125999
-0.08209
0.054966497
-0.12502189
0.078246024
-0.15195576
-0.16116787
0.098886692
-4.7528233e-08
7.76129e-07
-2.1227131e-07
2.6730327e-06
-5.3423919e-07
5.1954381e-06
-1.0640639e-06
8.5018854e-06
-1.8655639e-06
1.2785916e-05
-3.01888e-06
1.8282763e-05
-4.6243289e-06
2.5276952e-05
-6.807134e-06
3.4110856e-05
-9.7231611e-06
4.5194044e-05
-1.3565938e-05
5.9013362e-05
-1.8575123e-05
7.614317e-05
-2.504667e-05
9.7255418e-05
-3.3345009e-05
0.00012312837
-4.3917266e-05
0.00015465294
-5.730986e-05
0.00019283457
-7.4187108e-05
0.00023878855
-9.5351631e-05
0.00029372557
-0.00012176556
0.00035892419
-0.00015457078
0.00043568646
-0.00019510539
0.00052527367
-0.00024491242
0.000628821
-0.00030573506
0.00074723381
-0.00037949104
0.00088107726
-0.00046821796
0.0010304838
-0.00057398191
0.0011951269
-0.00069874556
0.0013743369
-0.00084420747
0.0015674533
-0.001011659
0.0017744586
-0.0012019457
0.0019967315
-0.0014155567
0.0022374676
-0.0016528191
0.0025013258
-0.001914192
0.0027932622
-0.0022031397
0.0031166878
-0.0025253129
0.0034700631
-0.0028834504
0.0038490388
-0.0032777024
0.0042515464
-0.003707872
0.0046765455
-0.0041740247
0.0051216608
-0.0046767023
0.0055834916
-0.0052168217
0.0060585669
-0.0057953097
0.0065450501
-0.0064121283
0.007041576
-0.007065107
0.0075429647
-0.0077493505
0.0080404616
-0.0084567343
0.0085219782
-0.0091743083
0.0089718689
-0.0098826711
0.0093760303
-0.010560777
0.0097301658
-0.011188395
0.010022841
-0.011735821
0.010212301
-0.012158174
0.010239572
-0.012392538
0.01003462
-0.012352995
0.0095067794
-0.011921609
0.0085394587
-0.010939547
0.0069934639
-0.0092193225
0.0047247443
-0.0065093738
0.0014499328
-0.0024032943
-0.0037526481
0.0037399241
-0.012596422
0.013148631
-0.028434943
0.027941714
-0.057751975
0.04858245
-0.10273074
0.071253874
-0.14769331
0.090954858
-0.17165674
-0.17714455
0.10693154
-2.6503741e-08
8.0263275e-07
-1.1908876e-07
2.7656177e-06
-3.0128534e-07
5.3776347e-06
-6.0328669e-07
8.8038867e-06
-1.0637214e-06
1.3246351e-05
-1.7319e-06
1.8950942e-05
-2.670675e-06
2.6215727e-05
-3.9600289e-06
3.540021e-05
-5.7016591e-06
4.6935674e-05
-8.0247361e-06
6.1336439e-05
-1.1093186e-05
7.921162e-05
-1.5114815e-05
0.00010127705
-2.0352707e-05
0.00012836626
-2.7139178e-05
0.00016143941
-3.5892905e-05
0.00020158829
-4.7139267e-05
0.00025003492
-6.1534051e-05
0.00030812035
-7.9889862e-05
0.00037728
-0.00010320434
0.00045900093
-0.00013268723
0.00055475656
-0.00016978235
0.00066591612
-0.0002161782
0.00079362967
-0.00027379758
0.00093869663
-0.00034475474
0.001101441
-0.00043126604
0.0012816382
-0.00053550148
0.0014785724
-0.00065937625
0.001691328
-0.00080431765
0.0019194
-0.00097110819
0.0021635221
-0.0011599199
0.0024262793
-0.001370533
0.0027119388
-0.0016026086
0.0030253378
-0.0018562151
0.0033702944
-0.0021337974
0.0037476453
-0.0024397522
0.0041549937
-0.002776742
0.0045885362
-0.0031444268
0.0050442303
-0.0035416125
0.0055188466
-0.0039676629
0.0060095419
-0.0044228205
0.0065137245
-0.0049068139
0.0070290436
-0.005416298
0.0075510601
-0.0059450668
0.0080717335
-0.0064842585
0.0085796533
-0.0070218607
0.0090595803
-0.007542054
0.0094920621
-0.0080225684
0.0098565447
-0.0084362445
0.010143842
-0.008755487
0.010342083
-0.0089435281
0.010400342
-0.0089459768
0.010242021
-0.008688441
0.009777084
-0.0080719119
0.0088902503
-0.0069650166
0.0074325634
-0.0052046433
0.0052330906
-0.0025969998
0.0021171008
0.0011781819
-0.0023252489
0.0065898256
-0.0091642918
0.014401085
-0.020407681
0.026151248
-0.040185105
0.043767428
-0.075368156
0.065365188
-0.12432849
0.085268348
-0.16759647
0.10052504
-0.18691343
-0.18872743
0.11210791
-4.2791939e-09
8.0691194e-07
-2.0516677e-08
2.7818552e-06
-5.4688693e-08
5.4118067e-06
-1.1515593e-07
8.8643539e-06
-2.1356736e-07
1.3344762e-05
-3.6609485e-07
1.9103469e-05
-5.9513966e-07
2.6444771e-05
-9.316323e-07
3.5736703e-05
-1.4182006e-06
4.7422242e-05
-2.1133897e-06
6.2031628e-05
-3.0974338e-06
8.0195664e-05
-4.4798235e-06
0.00010265944
-6.4094159e-06
0.00013029586
-9.0875775e-06
0.00016411757
-1.2785082e-05
0.0002052858
-1.7863451e-05
0.00025511329
-2.4801158e-05
0.00031505806
-3.4225071e-05
0.00038670391
-4.6946127e-05
0.00047172199
-6.3997789e-05
0.00057180823
-8.6673196e-05
0.00068859152
-0.00011655427
0.00082351074
-0.00015552233
0.00097766469
-0.00020573495
0.0011516536
-0.00026954943
0.0013454527
-0.00034936957
0.0015583925
-0.00044740027
0.0017893587
-0.00056532678
0.0020373265
-0.0007040182
0.0023022135
-0.0008634343
0.0025856953
-0.0010428252
0.0028913298
-0.0012411357
0.0032236483
-0.0014574707
0.0035866293
-0.0016920286
0.0039822033
-0.0019467192
0.0044096843
-0.0022236343
0.0048654513
-0.0025241334
0.0053447294
-0.002848343
0.0058430562
-0.003195233
0.0063564319
-0.003562804
0.0068812956
-0.0039475239
0.0074137634
-0.0043433886
0.0079469248
-0.0047416281
0.008469973
-0.005130268
0.0089682932
-0.0054934115
0.0094227238
-0.0058107768
0.0098094273
-0.0060562203
0.010101988
-0.0061974421
0.010285064
-0.0062004753
0.010345116
-0.0060213771
0.010221244
-0.0055962586
0.0098169026
-0.0048389023
0.0090197277
-0.0036360152
0.0076873631
-0.0018464045
0.0056429527
0.00067792664
0.0027087594
0.0041479416
-0.0013529142
0.0089607619
-0.0071380691
0.015663638
-0.015867168
0.025252859
-0.029996902
0.039660819
-0.054593065
0.059745541
-0.095452878
0.080615901
-0.14519886
0.09627423
-0.1832548
0.10692179
-0.19756098
-0.19698817
0.11518253
1.8265666e-08
7.8864627e-07
7.9573393e-08
2.7205475e-06
1.9591866e-07
5.2954614e-06
3.8136527e-07
8.6789073e-06
6.5207539e-07
1.3074052e-05
1.0261716e-06
1.8729373e-05
1.5233183e-06
2.5947625e-05
2.1638552e-06
3.5096166e-05
2.967302e-06
4.6618796e-05
3.9499097e-06
6.1049021e-05
5.1209012e-06
7.9024673e-05
6.4768133e-06
0.00010130352
7.9934126e-06
0.00012877926
9.6141534e-06
0.00016249683
1.1234496e-05
0.00020366546
1.2680698e-05
0.00025366708
1.3682159e-05
0.0003140566
1.3836582e-05
0.00038654949
1.2567459e-05
0.00047299111
9.0749752e-06
0.00057530071
2.2831837e-06
0.00069538331
-9.2100603e-06
0.00083500399
-2.7169962e-05
0.00099562459
-5.3730428e-05
0.001178214
-9.1343688e-05
0.001383066
-0.00014264171
0.0016096905
-0.00021017593
0.0018568929
-0.0002960284
0.0021231789
-0.00040136872
0.0024075538
-0.0005261839
0.0027105105
-0.00066939927
0.0030345451
-0.0008293591
0.0033836081
-0.0010044139
0.0037616841
-0.0011935454
0.0041713348
-0.0013966167
0.0046127556
-0.0016144579
0.0050832924
-0.001848073
0.0055783445
-0.0020975875
0.0060925707
-0.0023616031
0.0066204475
-0.0026367271
0.0071564196
-0.0029170448
0.0076940811
-0.0031940507
0.0082239307
-0.00345632
0.0087322422
-0.0036890257
0.0092009989
-0.0038733076
0.0096070058
-0.0039851832
0.0099213029
-0.0039931438
0.010109949
-0.0038579701
0.01014989
-0.0035397281
0.010026874
-0.0029874459
0.0096689617
-0.0021281038
0.0089575606
-0.00086347514
0.007755099
0.00093423379
0.0058896542
0.0034093636
0.0031678229
0.0066843783
-0.00056625528
0.011017295
-0.0056858307
0.016870131
-0.012990905
0.024925701
-0.023922739
0.036595728
-0.041666929
0.053910912
-0.071908248
0.075129626
-0.11667159
0.093179458
-0.16324869
0.10402449
-0.19409983
0.11075564
-0.20429213
-0.20332824
0.11709571
3.9976874e-08
7.486694e-07
1.7608108e-07
2.5844433e-06
4.378259e-07
5.0337166e-06
8.6120589e-07
8.2555274e-06
1.4897121e-06
1.2445546e-05
2.3753183e-06
1.7843767e-05
3.5794351e-06
2.4743508e-05
5.173623e-06
3.3501978e-05
7.2399204e-06
4.4552498e-05
9.8704877e-06
5.8418453e-05
1.3166138e-05
7.5729023e-05
1.7233273e-05
9.7236389e-05
2.2178376e-05
0.00012383415
2.8099162e-05
0.00015657604
3.5071167e-05
0.00019669345
4.3128249e-05
0.00024561
5.2235464e-05
0.00030494939
6.2252533e-05
0.00037653242
7.2886668e-05
0.00046235697
8.3634477e-05
0.0005645529
9.3714283e-05
0.00068530351
0.00010199396
0.00082672431
0.00010692418
0.00099069437
0.00010649479
0.0011786434
9.8243035e-05
0.0013913177
7.9353856e-05
0.0016285797
4.6900763e-05
0.001889346
-1.7363754e-06
0.0021718161
-6.8317178e-05
0.0024741346
-0.00015323583
0.0027954292
-0.0002554196
0.0031367289
-0.0003727683
0.0035009568
-0.0005028675
0.0038917833
-0.00064359471
0.004312062
-0.00079346637
0.0047626272
-0.00095185599
0.0052416821
-0.0011185039
0.0057449924
-0.0012925546
0.0062666214
-0.0014716315
0.0067995244
-0.0016509851
0.0073357731
-0.0018229128
0.0078660088
-0.0019767362
0.0083777542
-0.0020985849
0.0088540909
-0.002170869
0.009273283
-0.0021717083
0.0096078451
-0.0020735846
0.0098231792
-0.0018408242
0.0098771884
-0.0014285522
0.009737618
-0.00078720124
0.0093855233
0.00014301617
0.0087387443
0.001443823
0.0076567537
0.0032264681
0.005972454
0.0056266546
0.0034894677
0.0087701381
2.4339371e-05
0.012783099
-0.004579216
0.018003404
-0.010906136
0.024949631
-0.019937132
0.034583229
-0.033556336
0.048844512
-0.055928213
0.068569179
-0.091632915
0.088587195
-0.13668961
0.10203317
-0.17669466
0.10855343
-0.20062009
0.11283867
-0.20857738
-0.2090647
0.11857513
5.9510283e-08
6.8915912e-07
2.6305277e-07
2.3809008e-06
6.5614851e-07
4.6406209e-06
1.2949427e-06
7.6167332e-06
2.248147e-06
1.1492342e-05
3.5992013e-06
1.6492713e-05
5.4485668e-06
2.2894142e-05
7.9160994e-06
3.1034445e-05
1.1143308e-05
4.1325289e-05
1.5295271e-05
5.426649e-05
2.0561851e-05
7.0462443e-05
2.7157578e-05
9.0640662e-05
3.5319575e-05
0.00011567216
4.5302324e-05
0.00014659329
5.7367969e-05
0.00018462781
7.1770387e-05
0.00023120758
8.8730823e-05
0.00028798895
0.00010840261
0.00035686063
0.00013082272
0.00043993686
0.00015584783
0.0005395278
0.00018307461
0.00065807673
0.00021174656
0.00079805236
0.00024065514
0.00096178579
0.00026805158
0.001151247
0.00029159768
0.0013677716
0.00030840106
0.0016117763
0.00031519604
0.001882551
0.0003087352
0.0021782769
0.00028641339
0.0024964564
0.00024699822
0.0028348444
0.00019107853
0.0031926486
0.00012074258
0.0035712928
3.9177698e-05
0.0039733482
-5.0325965e-05
0.0044015657
-0.00014505576
0.004857357
-0.00024282499
0.0053394513
-0.00034171341
0.0058438808
-0.0004393382
0.0063642462
-0.00053191252
0.0068920988
-0.00061328382
0.0074171444
-0.00067415039
0.0079268754
-0.00070178693
0.0084053907
-0.00067988651
0.0088321905
-0.00058806112
0.0091814576
-0.00040130854
0.0094210926
-8.8792496e-05
0.0095106631
0.00038860377
0.0093997921
0.0010798452
0.0090463766
0.0020465531
0.0084188155
0.003360497
0.0074248004
0.0051140183
0.0059032324
0.0074278397
0.0036586326
0.010428397
0.00048891044
0.014207301
-0.003754565
0.018963065
-0.0093349798
0.02510876
-0.017051831
0.033304378
-0.02813275
0.045022395
-0.045274354
0.062109144
-0.073014962
0.082350573
-0.11187434
0.098626582
-0.15296562
0.10716635
-0.18523443
0.11073642
-0.20419016
0.11407453
-0.21191549
-0.21502097
0.1200308
7.5537602e-08
6.1362151e-07
3.3458868e-07
2.1218497e-06
8.361082e-07
4.1391013e-06
1.6532538e-06
6.7995876e-06
2.8762004e-06
1.0269395e-05
4.615351e-06
1.4753562e-05
7.0049631e-06
2.050453e-05
1.0207084e-05
2.7832324e-05
1.4415786e-05
3.7116588e-05
1.9861413e-05
4.8820864e-05
2.6814605e-05
6.350925e-05
3.5589594e-05
8.1865673e-05
4.654604e-05
0.00010471571
6.0088389e-05
0.00013305094
7.666129e-05
0.00016805491
9.6739124e-05
0.00021112975
0.00012080721
0.00026392086
0.00014933138
0.00032833646
0.00018271257
0.00040655568
0.00022122252
0.00050101784
0.0002649177
0.00061438155
0.00031353043
0.00074943963
0.00036634095
0.00090897527
0.0004220423
0.0010955456
0.00047862368
0.0013111902
0.00053331658
0.0015570834
0.00058267328
0.0018331943
0.00062286675
0.0021380835
0.00065028542
0.0024690377
0.00066238789
0.0028227419
0.00065863877
0.0031963977
0.00064049535
0.0035894362
0.000612136
0.0040017076
0.00057736475
0.0044363369
0.0005402224
0.0048944994
0.0005046892
0.0053749845
0.00047456179
0.0058740083
0.00045409981
0.0063847082
0.000448834
0.0068973646
0.00046659106
0.0073993874
0.00051840538
0.0078750611
0.00061904823
0.0083047479
0.00078730215
0.0086639366
0.0010464104
0.0089223493
0.0014245903
0.0090429126
0.0019559403
0.0089793132
0.0026828013
0.0086729311
0.0036579482
0.0080712296
0.004955256
0.0071215077
0.0066612646
0.0057187919
0.0088796215
0.0036848754
0.01172763
0.00081062454
0.015291898
-0.0030753576
0.019681694
-0.0081443611
0.025208777
-0.014862063
0.032380781
-0.024223835
0.04223115
-0.037983119
0.05663172
-0.059674923
0.075492863
-0.091876105
0.093363182
-0.12974466
0.10444403
-0.16404647
0.10920082
-0.18999122
0.11155689
-0.20654623
0.11506277
-0.21542137
-0.22149882
0.12154062
8.6929098e-08
5.2669242e-07
3.8563534e-07
1.8231435e-06
9.6497258e-07
3.5597641e-06
1.9107647e-06
5.8537955e-06
3.3293346e-06
8.8508252e-06
5.3516493e-06
1.2731247e-05
8.1380438e-06
1.7718136e-05
1.1883639e-05
2.4086728e-05
1.6824334e-05
3.2175892e-05
2.3243331e-05
4.2401867e-05
3.1477954e-05
5.5274628e-05
4.192646e-05
7.1417167e-05
5.5054093e-05
9.1588076e-05
7.1397732e-05
0.0001167073
9.1567491e-05
0.00014788515
0.0001162436
0.00018645364
0.00014616567
0.00023399879
0.00018211124
0.00029239089
0.00022485853
0.00036380839
0.00027512888
0.00045074749
0.00033350285
0.00055600758
0.00040030546
0.00068263703
0.00047545889
0.00083382184
0.00055830785
0.0010126967
0.00064743541
0.0012220627
0.00074050834
0.0014640105
0.00083422017
0.0017394825
0.00092443612
0.0020478675
0.0010066674
0.0023868065
0.0010769469
0.0027524624
0.0011328939
0.0031404507
0.0011747232
0.0035476069
0.0012052276
0.0039712031
0.0012291853
0.0044123792
0.0012525509
0.0048711339
0.0012810716
0.0053464637
0.0013207317
0.0058343482
0.0013778288
0.0063276111
0.0014599622
0.0068152312
0.0015769935
0.0072823561
0.0017419563
0.0077100983
0.0019718317
0.0080748724
0.0022880303
0.008347738
0.0027167835
0.0084935961
0.0032896633
0.0084700328
0.0040441347
0.0082248418
0.0050256082
0.0076914575
0.0062920882
0.0068047497
0.007928612
0.0054849839
0.010036726
0.0036106783
0.012722975
0.00099862593
0.016070209
-0.0025366094
0.020145506
-0.0071506547
0.02515645
-0.013155305
0.031531031
-0.021236644
0.04004927
-0.032742074
0.052233313
-0.050167162
0.069002982
-0.076444592
0.086991567
-0.10986469
0.10007041
-0.14282351
0.10676496
-0.17074102
0.10970936
-0.19293561
0.11180782
-0.2086447
0.11596872
-0.21958227
-0.22851829
0.12298819
9.2893407e-08
4.3379901e-07
4.1263623e-07
1.5034006e-06
1.0337351e-06
2.9386653e-06
2.0494034e-06
4.8381272e-06
3.5756256e-06
7.3246029e-06
5.7559475e-06
1.0550925e-05
8.7671211e-06
1.4706962e-05
1.2825641e-05
2.0028208e-05
1.8195241e-05
2.6806293e-05
2.5195375e-05
3.5401733e-05
3.4210571e-05
4.6259432e-05
4.5700479e-05
5.9927259e-05
6.0210247e-05
7.7078308e-05
7.8380436e-05
9.8537116e-05
0.00010095555
0.00012531004
0.00012878931
0.00015861988
0.00016284439
0.00019994371
0.00020418281
0.00025105247
0.00025394273
0.00031404848
0.00031329472
0.0003913955
0.00038337075
0.00048593154
0.00046515701
0.00060085077
0.00055934362
0.00073963522
0.00066612784
0.00090591247
0.00078497769
0.0011032128
0.00091438163
0.0013346066
0.0010516416
0.0016022225
0.0011928112
0.0019066979
0.0013329276
0.0022466901
0.0014667077
0.0026186823
0.0015897888
0.0030173696
0.0017007259
0.0034366698
0.0017993278
0.0038726012
0.0018897005
0.0043220066
0.0019779896
0.0047828447
0.0020735912
0.0052508622
0.0021845522
0.0057233872
0.0023194858
0.0061926775
0.0024885086
0.0066462084
0.0027039087
0.007066956
0.002981181
0.007432826
0.0033397942
0.0077162592
0.0038040106
0.0078835217
0.0044033174
0.0078942892
0.0051728141
0.0077005362
0.006153561
0.0072440949
0.0073941416
0.0064508769
0.0089610407
0.0052378505
0.010947129
0.003498896
0.013459681
0.0010981257
0.016580237
-0.0021219298
0.020361019
-0.0063173915
0.024929844
-0.01171948
0.030628669
-0.01885413
0.038122724
-0.028730699
0.048639994
-0.043259344
0.063270065
-0.064797233
0.080335748
-0.093510275
0.094508187
-0.12403713
0.10281254
-0.15112786
0.10706476
-0.17499324
0.10932213
-0.19519298
0.11200626
-0.21132883
0.11684261
-0.22441861
-0.23589329
0.12421761
9.3192164e-08
3.4060684e-07
4.1445901e-07
1.1821338e-06
1.0394043e-06
2.3137199e-06
2.0629392e-06
3.8145924e-06
3.6036093e-06
5.7839329e-06
5.8087859e-06
8.3457488e-06
8.8608303e-06
1.1654918e-05
1.2984383e-05
1.5904656e-05
1.8454925e-05
2.1335751e-05
2.560867e-05
2.8247988e-05
3.485393e-05
3.7014172e-05
4.6683862e-05