/*--------------------------------*- C++ -*----------------------------------*\
  =========                 |
  \\      /  F ield         | OpenFOAM: The Open Source CFD Toolbox
   \\    /   O peration     | Website:  https://openfoam.org
    \\  /    A nd           | Version:  13
     \\/     M anipulation  |
\*---------------------------------------------------------------------------*/
FoamFile
{
    format      ascii;
    class       volScalarField;
    location    "19.701766";
    object      pMean;
}
// * * * * * * * * * * * * * * * * * * * * * * * * * * * * * * * * * * * * * //

dimensions      [0 2 -2 0 0 0 0];

internalField   nonuniform List<scalar> 
17140
(
2.3393347
2.3391882
2.3390114
2.3388319
2.3386383
2.3384278
2.3382003
2.3379555
2.3376931
2.3374128
2.3371143
2.3367974
2.3364615
2.3361052
2.335726
2.3353193
2.3348776
2.3343888
2.3338344
2.3331875
2.3324099
2.3314483
2.3302299
2.3286554
2.3266102
2.3240012
2.3207751
2.3168738
2.3121882
2.3065736
2.2998684
2.291885
2.2824082
2.2711971
2.2579895
2.2425136
2.224505
2.2037311
2.180024
2.1533245
2.1237326
2.0915686
2.0574579
2.0223848
1.9877523
1.955373
1.9270744
1.9046965
1.8900671
1.884678
1.8895077
1.9051432
1.9317399
1.968767
2.0151365
2.0689053
2.1276766
2.1882921
2.2483219
2.3032947
2.3519279
2.3874898
2.4134333
2.4187361
2.4174311
2.3368843
2.3367406
2.3365675
2.3363915
2.3362017
2.3359951
2.335772
2.3355319
2.3352744
2.3349994
2.3347067
2.3343959
2.3340667
2.3337177
2.3333465
2.3329488
2.3325172
2.3320397
2.3314984
2.3308664
2.330106
2.3291644
2.3279692
2.3264218
2.3244068
2.3218291
2.3186354
2.3147683
2.3101182
2.3045395
2.2978699
2.2899213
2.2804778
2.2692976
2.2561174
2.2406641
2.2226718
2.2019062
2.1781973
2.1514836
2.1218628
2.0896538
2.0554799
2.0203301
1.9856265
1.9531411
1.9247291
1.9023001
1.8876315
1.8821828
1.8869646
1.9025656
1.9291012
1.9660647
2.0123638
2.0660414
2.1247473
2.1853409
2.2454181
2.3005284
2.3494126
2.3852721
2.4115225
2.417045
2.4161342
2.3309021
2.3307657
2.3306016
2.3304342
2.3302535
2.3300569
2.3298444
2.3296156
2.3293703
2.3291083
2.3288296
2.3285339
2.328221
2.3278897
2.3275381
2.3271622
2.3267549
2.326305
2.3257952
2.3251995
2.3244808
2.3235875
2.3224484
2.3209668
2.3190258
2.3165253
2.3134098
2.3096229
2.3050564
2.2995635
2.2929797
2.2851159
2.2757541
2.2646501
2.251538
2.2361416
2.2181912
2.1974481
2.1737379
2.1469943
2.1173107
2.0850045
2.0507001
2.0154044
1.9805555
1.9478895
1.919295
1.8967194
1.8819517
1.8764365
1.8811422
1.8966333
1.9230391
1.9598624
2.0059954
2.0594773
2.1179876
2.1784205
2.2384517
2.293662
2.3427821
2.3790771
2.4059669
2.4122372
2.4122167
2.3215048
2.32138
2.3212302
2.3210765
2.3209104
2.3207295
2.3205339
2.3203232
2.3200972
2.319856
2.3195994
2.3193276
2.3190404
2.3187371
2.3184162
2.3180742
2.317705
2.3172981
2.3168371
2.3162976
2.3156436
2.314825
2.3137728
2.3123933
2.310568
2.3081901
2.3051976
2.3015348
2.297098
2.2917397
2.2852913
2.2775618
2.2683305
2.2573495
2.2443488
2.2290472
2.2111696
2.1904709
2.1667695
2.1399921
2.1102267
2.0777892
2.0433074
2.0078137
1.9727605
1.9398527
1.9110342
1.8882754
1.8733791
1.8677771
1.8723963
1.8877548
1.9139708
1.9505591
1.9964016
2.0495168
2.1076394
2.1677175
2.2275493
2.2827826
2.3322328
2.3691808
2.3970012
2.4045308
2.4059418
2.3090016
2.3088923
2.3087619
2.3086267
2.3084802
2.3083207
2.3081479
2.3079617
2.3077619
2.3075486
2.307322
2.3070822
2.3068296
2.3065637
2.3062836
2.3059866
2.3056674
2.3053168
2.3049198
2.3044534
2.3038836
2.3031623
2.3022233
2.3009766
2.2993047
2.297092
2.2942639
2.2907646
2.2864994
2.2813205
2.2750536
2.2675053
2.2584514
2.2476395
2.2347945
2.219629
2.2018606
2.1812361
2.1575652
2.1307655
2.1009185
2.0683384
2.0336623
1.9979537
1.9626617
1.9294984
1.9004542
1.8775133
1.8625112
1.8568488
1.8614005
1.8766304
1.9026455
1.9389607
1.984436
2.0370747
2.0947012
2.1543273
2.2138728
2.2690976
2.3188846
2.3565734
2.3855235
2.3946512
2.3977645
2.2939026
2.2938125
2.2937057
2.2935932
2.2934711
2.2933379
2.2931934
2.2930374
2.29287
2.2926912
2.2925014
2.292301
2.2920905
2.2918701
2.2916393
2.2913962
2.2911366
2.2908526
2.2905307
2.29015
2.2896786
2.2890712
2.2882645
2.2871731
2.2856846
2.2836737
2.2810451
2.277742
2.2736824
2.2687197
2.2626738
2.2553479
2.2465138
2.2359144
2.2232684
2.2082817
2.1906637
2.1701516
2.1465444
2.1197491
2.0898398
2.0571297
2.0222705
1.9863575
1.95083
1.9174405
1.8881988
1.8651087
1.8500392
1.844369
1.8489082
1.8640601
1.8899071
1.9259455
1.9710049
2.0230805
2.0800917
2.1391733
2.1983848
2.2535835
2.3037348
2.3422729
2.3725046
2.3834949
2.3885161
2.2768976
2.2768292
2.2767482
2.2766622
2.2765683
2.2764657
2.276354
2.2762331
2.2761032
2.2759644
2.2758171
2.2756621
2.2755
2.2753314
2.2751563
2.2749735
2.27478
2.2745691
2.2743292
2.2740412
2.273676
2.2731911
2.2725269
2.271603
2.2703134
2.2685284
2.2661314
2.2630526
2.2592196
2.2544969
2.248702
2.2416306
2.2330511
2.2227015
2.2102948
2.1955297
2.1781065
2.1577521
2.1342536
2.1075063
2.0775765
2.0447777
2.0097815
1.9737059
1.9379935
1.9044359
1.8750351
1.8518302
1.8367292
1.8310965
1.8356798
1.8508209
1.876568
1.9123937
1.957098
2.0086506
2.0650345
2.123542
2.1824327
2.2376456
2.2881758
2.327559
2.3590851
2.3719026
2.3786817
2.2588209
2.2587762
2.258723
2.258666
2.2586034
2.2585345
2.258459
2.258377
2.2582885
2.2581939
2.2580936
2.2579883
2.257879
2.2577664
2.257651
2.2575322
2.2574078
2.2572724
2.257116
2.2569216
2.2566627
2.2563001
2.2557782
2.2550215
2.2539307
2.2523817
2.25024
2.2474037
2.243805
2.2393327
2.2338046
2.2270082
2.2187083
2.2086381
2.1965055
2.1820021
2.1648198
2.1446743
2.1213402
2.0947011
2.0648154
2.0319997
1.9969486
1.960783
1.9249686
1.8913145
1.8617931
1.8384889
1.8233674
1.8178049
1.8224891
1.8376808
1.8634013
1.899099
1.9435401
1.994672
2.050532
2.108501
2.1670523
2.2221871
2.2730558
2.3133171
2.3461716
2.3608627
2.3694251
2.2406007
2.2405809
2.2405568
2.2405304
2.2405006
2.2404673
2.2404301
2.2403892
2.2403446
2.2402967
2.2402459
2.2401931
2.240139
2.2400846
2.2400306
2.2399766
2.2399211
2.2398596
2.2397834
2.2396776
2.2395181
2.2392689
2.2388785
2.2382764
2.23737
2.2360426
2.2341585
2.2315849
2.2282254
2.2239923
2.2187295
2.2122148
2.2042055
2.1944333
2.1826018
2.1683965
2.1515012
2.1316212
2.108519
2.0820672
2.0523172
2.0195903
1.9846013
1.9484635
1.9126712
1.8790147
1.8494268
1.8260498
1.8109284
1.8054506
1.8102407
1.825518
1.8512802
1.8869288
1.9311808
1.981957
2.0373443
2.0948067
2.1530419
2.2084061
2.2599184
2.301196
2.3352639
2.351227
2.3610139
2.2231924
2.2231974
2.2232025
2.2232067
2.2232101
2.2232126
2.2232142
2.2232149
2.2232148
2.2232144
2.2232139
2.2232141
2.2232157
2.2232196
2.2232262
2.2232354
2.2232458
2.2232535
2.2232508
2.2232239
2.2231512
2.2229993
2.2227206
2.2222499
2.2215007
2.2203636
2.2187086
2.2163951
2.2132906
2.2092845
2.2042548
2.1980102
2.1902961
2.1808328
2.1693216
2.1554453
2.1388818
2.119329
2.0965401
2.0703785
2.0408915
2.0084058
1.9736444
1.9377158
1.9021246
1.8686091
1.8390765
1.8157274
1.8006571
1.7952586
1.8001642
1.8155699
1.8413992
1.8770039
1.9210876
1.9715607
2.0265829
2.0838315
2.1421524
2.1977605
2.2495579
2.2913329
2.3259465
2.342527
2.3533331
2.2074981
2.2075267
2.2075594
2.2075928
2.2076278
2.2076648
2.2077037
2.2077446
2.2077878
2.2078334
2.2078818
2.2079336
2.2079893
2.2080493
2.208114
2.2081829
2.2082544
2.2083246
2.2083862
2.2084264
2.2084249
2.2083507
2.2081595
2.2077903
2.2071629
2.2061749
2.2047028
2.2026073
2.1997455
2.1959819
2.1911759
2.1851572
2.1777054
2.1685462
2.1573694
2.1438539
2.1276754
2.1085267
2.0861566
2.0604242
2.0313763
1.999345
1.9650357
1.9295666
1.8944361
1.8613077
1.8320741
1.8089372
1.7940046
1.7887289
1.7937111
1.8090869
1.8348577
1.8703451
1.9142319
1.9644326
2.0191036
2.0761023
2.1343108
2.1898275
2.2416633
2.283664
2.3184426
2.3353003
2.3468368
2.1942833
2.1943326
2.1943899
2.1944494
2.1945129
2.1945809
2.1946537
2.1947313
2.194814
2.1949021
2.1949958
2.1950954
2.1952013
2.1953135
2.1954319
2.1955555
2.1956823
2.1958079
2.1959248
2.1960206
2.1960755
2.1960601
2.1959325
2.1956353
2.1950932
2.1942106
2.1928713
2.1909395
2.1882701
2.1847174
2.1801313
2.1743424
2.1671389
2.1582641
2.1474221
2.1342958
2.1185615
2.0999129
2.0780965
2.0529719
2.024587
1.9932745
1.9597244
1.9250491
1.8906937
1.8582746
1.8296539
1.8069694
1.7923276
1.7870601
1.7918435
1.8069283
1.8323817
1.8675315
1.9110229
1.9607037
2.0149281
2.071579
2.1296313
2.1851864
2.23707
2.2788073
2.3129582
2.3294987
2.3408761
2.1840942
2.1841603
2.1842375
2.1843182
2.184405
2.1844988
2.1845998
2.1847083
2.1848247
2.1849491
2.1850818
2.1852231
2.1853731
2.1855314
2.1856975
2.18587
2.186046
2.1862208
2.1863863
2.1865296
2.1866314
2.1866627
2.1865833
2.1863382
2.1858555
2.1850451
2.1837976
2.1819865
2.1794659
2.1760808
2.1716851
2.1661113
2.159155
2.1505769
2.1400941
2.1274006
2.1121809
2.094139
2.0730372
2.0487317
2.0212708
1.9909799
1.9585408
1.9250258
1.8917971
1.8604181
1.8327131
1.8107396
1.7963349
1.7908992
1.7952386
1.809806
1.8346799
1.8692151
1.9119907
1.9609699
2.0147587
2.071239
2.1292115
2.1843579
2.2354527
2.2758417
2.3089495
2.3243691
2.3359947
2.177195
2.1772726
2.1773636
2.1774594
2.1775628
2.1776752
2.1777969
2.1779283
2.17807
2.1782222
2.1783853
2.1785596
2.1787449
2.178941
2.1791469
2.1793608
2.1795795
2.1797977
2.1800069
2.1801939
2.1803392
2.1804145
2.1803801
2.1801826
2.1797524
2.1790026
2.1778283
2.1761083
2.1737082
2.1704867
2.1662354
2.1608652
2.1541681
2.1459051
2.1358173
2.1236222
2.1090281
2.0917502
2.0715393
2.0482811
2.0220265
1.9930823
1.9620979
1.9300771
1.8983078
1.8682725
1.841733
1.8204553
1.8062199
1.8005016
1.8042222
1.8180143
1.8420649
1.875686
1.917477
1.9656587
2.0188767
2.0750282
2.1323923
2.1866168
2.2359716
2.2746705
2.3058957
2.3202832
2.3318097
2.1735188
2.173602
2.1737
2.1738034
2.1739156
2.1740382
2.1741715
2.1743163
2.1744732
2.1746427
2.1748253
2.1750214
2.1752311
2.175454
2.1756894
2.1759353
2.1761887
2.1764441
2.176693
2.1769226
2.1771138
2.177239
2.1772596
2.1771236
2.1767632
2.1760932
2.1750116
2.1734014
2.1711299
2.1680605
2.1640959
2.1589473
2.1524338
2.1445326
2.1349114
2.1233062
2.1094377
2.0930458
2.0739209
2.0519602
2.0271938
1.9999086
1.9706933
1.9404585
1.9104018
1.8819306
1.8565334
1.8358961
1.8217786
1.8156025
1.8185566
1.8314164
1.8544
1.8867933
1.927381
1.9746078
2.0272332
2.0827079
2.1390482
2.19122
2.238311
2.274486
2.3036059
2.3169706
2.3284928
2.1727198
2.1728025
2.1729008
2.1730043
2.1731171
2.1732408
2.1733762
2.1735239
2.1736849
2.1738599
2.1740496
2.1742547
2.1744755
2.1747122
2.1749641
2.17523
2.1755072
2.175791
2.1760738
2.176344
2.1765839
2.1767681
2.1768605
2.1768115
2.1765558
2.1760106
2.175075
2.1736322
2.171551
2.1686946
2.1649276
2.1600405
2.1539982
2.1464861
2.1373318
2.126405
2.1134066
2.0980989
2.0802965
2.0598709
2.0368597
2.0115056
1.9843104
1.9560851
1.927905
1.9009661
1.8766476
1.8565908
1.8424079
1.8357134
1.8378162
1.8496107
1.8713046
1.9022537
1.9415239
1.9878054
2.0395131
2.0937542
2.1480068
2.1975791
2.2417491
2.2748566
2.3022383
2.3144791
2.3259683
2.1741785
2.1742555
2.174348
2.1744447
2.1745505
2.1746673
2.1747956
2.1749364
2.1750907
2.1752596
2.1754439
2.1756448
2.1758628
2.1760987
2.1763524
2.1766235
2.1769102
2.1772093
2.1775149
2.1778176
2.1781027
2.1783483
2.1785228
2.178582
2.1784652
2.178094
2.177369
2.1761726
2.174374
2.1718336
2.1684009
2.1639752
2.1583688
2.1514059
2.1430201
2.1328797
2.1208818
2.1068387
2.0905469
2.0718835
2.0508586
2.0276456
2.0026588
1.9765692
1.9502423
1.9247693
1.9014533
1.8817645
1.8674445
1.8601608
1.8613769
1.8719901
1.8922051
1.9216542
1.9596355
2.004741
2.0550108
2.1073174
2.1587587
2.205016
2.2455847
2.276031
2.3015253
2.3128139
2.3242853
2.1771996
2.1772667
2.1773481
2.1774326
2.1775256
2.1776286
2.1777425
2.1778682
2.1780067
2.1781594
2.1783273
2.1785118
2.1787139
2.1789348
2.1791753
2.1794357
2.1797157
2.1800136
2.1803261
2.1806468
2.1809652
2.1812649
2.1815209
2.1816974
2.1817436
2.1815899
2.1811466
2.1803021
2.1789248
2.1768708
2.1739857
2.1701331
2.1651704
2.1589865
2.1513788
2.1422982
2.1316084
2.1189875
2.1043845
2.0876756
2.0688166
2.047907
2.0252292
2.0012642
1.9767406
1.9526415
1.9301121
1.9106824
1.8961349
1.8882623
1.8885115
1.8977913
1.9165427
1.9445126
1.9811079
2.0246617
2.0731534
2.122539
2.1704609
2.2127646
2.2498904
2.2777911
2.3016589
2.3120052
2.3234262
2.1810478
2.1811026
2.1811694
2.1812386
2.1813151
2.1814003
2.1814949
2.1816
2.1817166
2.181846
2.1819895
2.1821484
2.1823243
2.1825186
2.1827326
2.1829677
2.1832247
2.1835036
2.1838034
2.1841211
2.1844509
2.1847824
2.1850989
2.1853748
2.1855725
2.1856384
2.1854988
2.1850563
2.1841911
2.182762
2.1806136
2.1775915
2.1735429
2.1683586
2.1619104
2.1540977
2.144766
2.1338812
2.1212697
2.1067164
2.0901906
2.0716865
2.0513329
2.0294607
2.0066471
1.9837158
1.9618175
1.9425023
1.9276743
1.9191182
1.9183011
1.9262432
1.9434695
1.9699608
2.0051718
2.0471016
2.0928523
2.1384993
2.1824554
2.2205161
2.2547137
2.2802407
2.3025745
2.3120273
2.3233999
2.1851311
2.1851729
2.1852236
2.1852767
2.1853356
2.1854016
2.1854753
2.1855576
2.1856496
2.1857524
2.1858674
2.1859958
2.1861393
2.1862995
2.1864783
2.1866773
2.1868982
2.1871425
2.1874109
2.1877034
2.1880179
2.18835
2.1886908
2.1890256
2.1893309
2.1895709
2.1896946
2.1896305
2.1892839
2.1885356
2.1872444
2.1852567
2.1824142
2.1785756
2.1736115
2.1674204
2.1599237
2.1510449
2.1405709
2.1283716
2.1143113
2.0982617
2.0802259
2.060352
2.0390565
2.0170974
1.9956395
1.9763429
1.9611064
1.9517766
1.949809
1.9563509
1.9722387
1.9975953
2.0314624
2.0710079
2.1129114
2.1546233
2.1939264
2.2286972
2.2600188
2.2833651
2.3043068
2.3128926
2.3242013
2.1890069
2.1890367
2.1890725
2.1891107
2.1891532
2.1892011
2.1892549
2.1893154
2.1893835
2.1894601
2.1895465
2.1896438
2.1897537
2.1898777
2.1900176
2.1901755
2.1903533
2.1905534
2.1907776
2.1910276
2.1913043
2.1916073
2.1919342
2.192279
2.192631
2.1929717
2.1932724
2.1934916
2.1935702
2.1934282
2.1929626
2.1920492
2.1905477
2.1883128
2.1852053
2.1810895
2.1758238
2.1692842
2.1613146
2.1517326
2.1402886
2.1267539
2.1109712
2.0929274
2.0729266
2.0517092
2.0305259
2.0111045
1.9953636
1.9851319
1.9819859
1.9874712
2.0025628
2.0269531
2.0589593
2.0948074
2.133033
2.1699589
2.205682
2.2370942
2.265846
2.2871846
2.3068251
2.3145822
2.3258244
2.192459
2.1924788
2.1925026
2.1925283
2.1925572
2.1925899
2.1926267
2.1926685
2.1927157
2.1927693
2.1928303
2.1928997
2.1929789
2.1930694
2.1931725
2.1932899
2.1934238
2.1935763
2.1937497
2.1939463
2.1941687
2.1944195
2.1947002
2.1950106
2.1953489
2.1957101
2.1960849
2.1964577
2.1968045
2.1970898
2.1972629
2.197255
2.1969788
2.1963242
2.1951598
2.1933333
2.1906678
2.1869549
2.1819393
2.1753227
2.1667377
2.155805
2.1421999
2.1258088
2.1068779
2.0862183
2.0651239
2.0454291
2.0289309
2.0178041
2.0139781
2.0192075
2.0340073
2.0570598
2.0857942
2.1184114
2.1521365
2.1852223
2.2173526
2.2458332
2.2722218
2.2916858
2.3101321
2.3170952
2.3282647
2.1954191
2.1954313
2.195446
2.195462
2.19548
2.1955005
2.1955237
2.1955502
2.1955803
2.1956148
2.1956547
2.1957003
2.1957517
2.1958098
2.1958766
2.1959547
2.1960464
2.1961542
2.1962801
2.1964257
2.1965915
2.1967801
2.1969962
2.1972443
2.1975285
2.1978526
2.1982207
2.1986358
2.1991011
2.1996178
2.2001839
2.2007954
2.201437
2.2020723
2.2026305
2.2029875
2.2029438
2.2022039
2.2003843
2.1970123
2.1915086
2.1832685
2.1718606
2.1570881
2.1391576
2.1189221
2.0977548
2.0774382
2.0602721
2.0489625
2.0455669
2.0514272
2.0656118
2.0865441
2.112007
2.1409097
2.1705781
2.2000933
2.2291454
2.2549209
2.2791391
2.2968702
2.3142088
2.3204105
2.3315106
2.1980137
2.1980197
2.1980269
2.1980348
2.1980438
2.198054
2.1980658
2.1980795
2.1980954
2.1981138
2.1981351
2.1981595
2.1981877
2.1982212
2.1982616
2.1983101
2.198367
2.1984327
2.1985093
2.1986005
2.1987098
2.1988381
2.1989878
2.1991634
2.1993719
2.1996253
2.199937
2.2003198
2.2007921
2.2013803
2.202118
2.2030542
2.204238
2.2057024
2.2074666
2.2094902
2.21161
2.213513
2.2146973
2.2144569
2.2119899
2.2065199
2.1974091
2.1842728
2.167336
2.1473495
2.1257977
2.1054854
2.0890827
2.0790816
2.0772988
2.0832099
2.0960676
2.114279
2.1373325
2.1618097
2.1883385
2.2147956
2.2410325
2.2643551
2.2865928
2.3027192
2.3190385
2.3245159
2.3355528
2.2003544
2.2003536
2.2003527
2.2003516
2.2003506
2.2003498
2.2003497
2.2003504
2.2003519
2.2003545
2.2003585
2.2003654
2.2003751
2.2003843
2.2003914
2.2003998
2.2004126
2.2004333
2.2004664
2.2005143
2.200577
2.2006528
2.2007424
2.2008541
2.200998
2.2011849
2.2014312
2.2017595
2.2021999
2.2027903
2.2035821
2.2046489
2.2060745
2.2079511
2.2103732
2.2133628
2.2168314
2.2204964
2.2238406
2.226118
2.2263347
2.2234433
2.2165537
2.2050434
2.1888597
2.1693911
2.1490758
2.1307593
2.1164372
2.1089041
2.1077704
2.1132176
2.1243982
2.1406385
2.1600289
2.1819701
2.205639
2.2293081
2.2530443
2.2741377
2.2945694
2.3092187
2.3246014
2.3293925
2.3403828
2.2025404
2.2025314
2.2025209
2.2025098
2.2024979
2.2024848
2.2024708
2.2024561
2.2024408
2.202425
2.2024086
2.2023919
2.2023748
2.2023575
2.2023405
2.2023244
2.202311
2.2023027
2.2023006
2.2023071
2.2023279
2.2023649
2.2024169
2.2024888
2.2025905
2.2027324
2.2029292
2.203205
2.2035963
2.2041499
2.2049168
2.2059677
2.2074085
2.2093529
2.2119247
2.2152096
2.2192108
2.2237451
2.2283704
2.2323138
2.2344597
2.2335586
2.2282922
2.217992
2.2036723
2.1867937
2.1693815
2.1536447
2.1426184
2.1363095
2.1353094
2.1408128
2.1507827
2.164629
2.1818954
2.2012882
2.2224377
2.2436851
2.2651804
2.2842605
2.3030562
2.3163505
2.330877
2.3350253
2.3459906
2.2042195
2.2042026
2.2041828
2.2041619
2.2041391
2.2041135
2.2040846
2.2040536
2.2040228
2.2039921
2.2039604
2.2039274
2.2038932
2.2038577
2.2038209
2.203783
2.2037447
2.203707
2.2036718
2.203643
2.2036256
2.2036242
2.2036403
2.2036748
2.2037383
2.2038498
2.2040233
2.204272
2.2046269
2.205133
2.2058488
2.2068521
2.2082344
2.2101094
2.212618
2.2158809
2.2199206
2.2246202
2.2296132
2.234163
2.2371103
2.2372355
2.2336775
2.2259621
2.2146622
2.2008235
2.1867052
2.1747948
2.1660849
2.1605783
2.1610409
2.165895
2.1749789
2.1871846
2.2024914
2.2198372
2.2388468
2.257944
2.2774503
2.2947208
2.3120377
2.3240951
2.3378417
2.3413893
2.3523605
2.2050612
2.2050398
2.2050147
2.2049881
2.2049594
2.2049281
2.2048942
2.2048574
2.2048177
2.2047755
2.2047309
2.204684
2.2046352
2.204585
2.2045339
2.2044828
2.204433
2.2043858
2.2043428
2.2043059
2.2042798
2.2042731
2.2042893
2.2043213
2.2043721
2.2044625
2.2046104
2.204831
2.2051471
2.2055896
2.2062132
2.2070992
2.2083326
2.210016
2.212246
2.2151158
2.2187628
2.2231486
2.2279857
2.2326362
2.2362559
2.2378193
2.2361941
2.2309642
2.2226129
2.2123573
2.2020727
2.1933966
2.1862244
2.1833103
2.1846933
2.1891596
2.1972833
2.2083482
2.2221653
2.2377503
2.2548934
2.2721129
2.289861
2.305512
2.3214975
2.3324346
2.3454776
2.3484851
2.3594819
2.204475
2.2044557
2.2044331
2.2044091
2.2043832
2.204355
2.2043245
2.2042917
2.2042564
2.2042188
2.204179
2.2041371
2.2040934
2.2040484
2.2040025
2.2039565
2.2039115
2.2038682
2.2038284
2.2037956
2.2037724
2.2037605
2.2037628
2.2037837
2.2038298
2.2039131
2.2040465
2.2042449
2.2045291
2.2049262
2.2054713
2.2062277
2.2072842
2.2087225
2.2106781
2.2132695
2.2165794
2.2206377
2.2252788
2.2301096
2.2343114
2.2369239
2.2370207
2.2342389
2.22901
2.2222544
2.215521
2.2093452
2.2050655
2.2041164
2.2058034
2.210461
2.2181828
2.2283815
2.2409556
2.2550747
2.270635
2.2862181
2.3024193
2.3166279
2.3314232
2.3413507
2.3537622
2.3562854
2.3673183
2.2028234
2.2028107
2.2027958
2.20278
2.2027629
2.2027444
2.2027243
2.2027027
2.2026796
2.2026549
2.2026289
2.2026016
2.2025733
2.2025444
2.2025154
2.202487
2.2024602
2.2024361
2.2024164
2.2024028
2.2023973
2.2024028
2.2024233
2.2024626
2.2025264
2.2026227
2.2027675
2.2029669
2.2032219
2.2035661
2.2040555
2.2047617
2.2057588
2.2070974
2.2088801
2.2112822
2.2144299
2.2183527
2.2229566
2.2278997
2.2325589
2.236095
2.237722
2.2371698
2.2347018
2.2311677
2.2274008
2.2240537
2.2224167
2.2227402
2.2253991
2.2303847
2.2378379
2.2474006
2.2590099
2.2719112
2.2861219
2.3002863
2.3151343
2.3280671
2.3418031
2.3508266
2.3626736
2.3647683
2.3758638
2.2003915
2.2003861
2.2003797
2.200373
2.2003659
2.2003582
2.20035
2.2003413
2.2003322
2.2003229
2.2003134
2.2003041
2.2002951
2.2002868
2.2002798
2.2002752
2.2002739
2.2002773
2.200287
2.2003052
2.2003345
2.2003778
2.2004394
2.2005227
2.2006299
2.2007668
2.2009465
2.2011898
2.2015294
2.2019907
2.2025789
2.2033378
2.2043631
2.2057496
2.2076034
2.2100521
2.2132085
2.2171292
2.2217636
2.2268496
2.2318757
2.2361533
2.239073
2.2403773
2.2403578
2.2397269
2.2385578
2.2378587
2.2382457
2.2400758
2.2436301
2.2490346
2.2564487
2.2655798
2.27643
2.2883291
2.3014043
2.3143449
2.3280184
2.3398187
2.3526194
2.3608357
2.3721977
2.3738863
2.3851521
2.1976553
2.1976548
2.1976543
2.1976539
2.1976536
2.1976536
2.1976539
2.1976547
2.1976562
2.1976585
2.1976621
2.1976672
2.1976744
2.1976844
2.197698
2.1977163
2.1977406
2.1977729
2.1978152
2.1978701
2.19794
2.198029
2.1981436
2.1982922
2.1984766
2.1987122
2.1990256
2.1994145
2.1998816
2.2004674
2.2012176
2.2021793
2.2034094
2.2049801
2.207005
2.2096075
2.2128957
2.2169447
2.2217281
2.2270377
2.2324203
2.2373749
2.2413904
2.2443351
2.2466901
2.2481624
2.2493484
2.2509519
2.2531467
2.2563279
2.2608209
2.2667303
2.2742157
2.2830607
2.2933314
2.3044118
2.3165335
2.328422
2.3410783
2.3518787
2.3638672
2.3713555
2.3823195
2.383621
2.3951108
2.1945568
2.1945586
2.1945609
2.1945636
2.1945669
2.1945711
2.1945762
2.1945825
2.1945904
2.1946002
2.1946124
2.1946276
2.1946468
2.1946707
2.1947007
2.1947383
2.1947855
2.1948447
2.1949191
2.1950123
2.1951291
2.1952743
2.1954566
2.1956873
2.1959744
2.1963263
2.1967572
2.1972858
2.1979362
2.198737
2.1997212
2.2009253
2.202409
2.2042673
2.2066014
2.2095176
2.2131342
2.2175233
2.2226418
2.228293
2.2341431
2.2397128
2.2447075
2.2493327
2.2533787
2.2568064
2.2601871
2.2635917
2.2673692
2.2718254
2.2772195
2.2836554
2.2913048
2.299985
2.309818
2.320233
2.3315589
2.3425464
2.3543271
2.3642489
2.3755404
2.3823645
2.3930198
2.3939594
2.4057063
2.1908132
2.1908167
2.1908211
2.1908261
2.1908322
2.1908395
2.1908485
2.1908594
2.1908728
2.1908891
2.1909091
2.1909338
2.1909641
2.1910014
2.1910475
2.1911044
2.1911748
2.1912617
2.1913693
2.1915023
2.1916666
2.1918696
2.1921215
2.1924311
2.1928092
2.1932721
2.1938383
2.1945309
2.1953729
2.1963888
2.1976155
2.1991148
2.2009594
2.2032246
2.2060146
2.2094443
2.2136145
2.2185558
2.2242037
2.2303741
2.2367665
2.242992
2.2492284
2.2552267
2.260785
2.2660207
2.2710173
2.276002
2.2811964
2.2868026
2.2930504
2.3000208
2.3078859
2.3164854
2.3259925
2.335868
2.34653
2.3567469
2.3677745
2.3769303
2.3876177
2.3938679
2.4042675
2.4048884
2.4169242
2.1859335
2.18594
2.1859481
2.1859572
2.185968
2.1859807
2.1859958
2.1860139
2.1860355
2.1860614
2.1860926
2.1861302
2.1861756
2.1862306
2.1862972
2.1863783
2.1864768
2.1865968
2.186743
2.1869213
2.1871385
2.1874032
2.1877259
2.1881189
2.188599
2.1891845
2.1898926
2.190747
2.1917828
2.1930454
2.194587
2.1964702
2.1987741
2.2015953
2.2050391
2.2092022
2.2141421
2.2198305
2.2261879
2.2330228
2.2400252
2.2473402
2.2548169
2.2620438
2.2689065
2.2755451
2.2820086
2.2883845
2.2948253
2.3014726
2.3085117
2.3159983
2.3241061
2.3326846
2.3419504
2.3513867
2.3614942
2.3710521
2.381434
2.3899183
2.4000964
2.4058298
2.4160414
2.4163758
2.4287176
2.1795084
2.1795203
2.1795349
2.1795511
2.1795698
2.1795915
2.1796168
2.1796464
2.1796809
2.1797216
2.1797695
2.179826
2.1798931
2.1799727
2.1800676
2.1801807
2.1803158
2.1804777
2.1806719
2.1809049
2.1811851
2.1815238
2.1819324
2.1824239
2.1830148
2.1837282
2.1845958
2.1856533
2.1869439
2.1885238
2.1904634
2.1928478
2.195775
2.1993471
2.2036553
2.2087561
2.2146411
2.2212515
2.2284742
2.236066
2.2441664
2.2526915
2.2611129
2.2694361
2.2775781
2.2855319
2.2932887
2.3008921
2.308441
2.3160207
2.3237808
2.3317521
2.3401073
2.3486994
2.3577833
2.3668578
2.3764979
2.3854896
2.3953128
2.403225
2.4129478
2.4182538
2.428299
2.4284097
2.4410366
2.1712061
2.171226
2.1712502
2.1712766
2.1713067
2.1713412
2.1713808
2.1714264
2.171479
2.1715399
2.1716105
2.1716927
2.1717885
2.1719007
2.1720319
2.1721847
2.1723644
2.1725792
2.1728343
2.1731347
2.1734891
2.1739103
2.1744149
2.1750211
2.175751
2.1766343
2.1777089
2.1790243
2.1806441
2.1826473
2.1851289
2.188195
2.1919547
2.1964992
2.2018834
2.2081044
2.2151086
2.2228038
2.2309872
2.2397738
2.2491571
2.2586126
2.2680925
2.277568
2.286906
2.296048
2.3049698
2.3136688
2.3222007
2.3306095
2.3390154
2.3474268
2.3560159
2.364636
2.3735755
2.3823442
2.3915837
2.4000874
2.4094293
2.4168418
2.4261776
2.4311237
2.4410238
2.4409187
2.4538998
2.1607028
2.160733
2.1607696
2.1608093
2.1608543
2.1609055
2.1609637
2.1610299
2.1611051
2.1611901
2.1612859
2.1613969
2.1615294
2.1616841
2.161859
2.1620593
2.1622931
2.1625668
2.162888
2.1632661
2.1637117
2.1642381
2.1648642
2.1656144
2.1665202
2.1676235
2.1689793
2.1706584
2.17275
2.1753609
2.1786096
2.1826141
2.187474
2.1932409
2.1999167
2.2074456
2.2157246
2.2245894
2.2340878
2.2442777
2.254673
2.265204
2.2758539
2.2864712
2.2969464
2.3071997
2.3171802
2.3268573
2.3362568
2.3453923
2.3543621
2.3631567
2.3719487
2.3805918
2.3894036
2.3979056
2.4067938
2.4148688
2.4237855
2.4307744
2.4397741
2.4444529
2.4541954
2.4541375
2.4671095
2.1479152
2.1479584
2.1480094
2.1480626
2.14812
2.148186
2.1482672
2.1483633
2.1484675
2.1485802
2.1487078
2.1488548
2.1490238
2.1492184
2.149443
2.1497023
2.1500018
2.1503474
2.1507481
2.1512162
2.1517674
2.1524212
2.153204
2.1541504
2.1553068
2.1567348
2.1585137
2.1607431
2.1635407
2.1670358
2.171354
2.1765987
2.1828254
2.1900304
2.198175
2.2071246
2.2167058
2.2270033
2.2380252
2.2493644
2.260929
2.2727063
2.284529
2.2962784
2.3078439
2.3191284
2.3300673
2.340611
2.3507651
2.3605228
2.3699672
2.3790773
2.3880262
2.3966702
2.4053515
2.413604
2.4221686
2.4298616
2.4383928
2.4450126
2.4537002
2.4581753
2.467747
2.4675967
2.480576
2.1328536
2.1329106
2.1329742
2.1330419
2.1331191
2.1332067
2.1333054
2.133417
2.1335435
2.133687
2.133851
2.1340413
2.1342649
2.1345227
2.1348081
2.1351243
2.1354847
2.1359015
2.1363857
2.1369523
2.1376215
2.1384199
2.1393838
2.1405621
2.14202
2.1438429
2.1461392
2.1490394
2.1526904
2.157242
2.1628189
2.1695087
2.1773277
2.1862279
2.1960495
2.206612
2.2179745
2.2300482
2.2424808
2.2551717
2.2681174
2.2811557
2.2941698
2.3070381
2.3196459
2.3318897
2.3436958
2.3550043
2.3658079
2.3760876
2.385918
2.3952708
2.4043224
2.412935
2.4214698
2.429478
2.4377323
2.4450738
2.4532497
2.4595607
2.4679621
2.4724032
2.4818003
2.4823421
2.496084
2.11527
2.1153372
2.1154229
2.1155163
2.1156205
2.1157375
2.1158679
2.1160123
2.1161724
2.1163513
2.1165522
2.1167783
2.1170334
2.1173223
2.1176508
2.1180265
2.1184591
2.1189611
2.1195492
2.1202457
2.1210806
2.1220943
2.1233412
2.1248936
2.1268452
2.1293136
2.1324397
2.1363815
2.1413002
2.1473353
2.1545811
2.1630781
2.172751
2.1835067
2.1951302
2.2076938
2.2209839
2.2346202
2.2485413
2.2627478
2.2770752
2.2914105
2.3056285
2.3196019
2.3332118
2.3463527
2.3589452
2.3709258
2.3822791
2.3929822
2.4031014
2.4126133
2.4216944
2.4302204
2.4385658
2.4463047
2.4542329
2.4612265
2.4690459
2.4750722
2.4831686
2.4876607
2.4966154
2.4988244
2.5092721
2.0969091
2.0969949
2.0970998
2.0972083
2.0973279
2.0974614
2.0976099
2.0977753
2.0979597
2.098166
2.0983972
2.0986573
2.0989514
2.0992856
2.0996682
2.1001097
2.1006244
2.1012313
2.101956
2.1028331
2.1039091
2.1052461
2.1069258
2.1090529
2.1117572
2.1151921
2.1195273
2.1249337
2.1315593
2.1395008
2.1488024
2.1593708
2.1711098
2.1838476
2.1975129
2.211901
2.2266479
2.2417658
2.2572324
2.2728647
2.288539
2.3041204
2.319471
2.3344577
2.3489585
2.3628665
2.3761024
2.3886027
2.4003509
2.4113255
2.4215923
2.4311369
2.4401364
2.4484917
2.4565721
2.4640032
2.471558
2.4782086
2.4856383
2.491422
2.4991929
2.5037131
2.51242
2.5150912
2.5251118
2.0800762
2.0801723
2.0802895
2.0804104
2.0805434
2.0806913
2.0808555
2.0810379
2.0812412
2.0814686
2.0817238
2.0820121
2.0823398
2.0827156
2.083151
2.0836614
2.0842673
2.0849969
2.0858878
2.0869908
2.088373
2.0901219
2.0923493
2.0951928
2.0988148
2.1033956
2.1091186
2.116148
2.1245994
2.1345246
2.1458679
2.1585112
2.1723964
2.1870881
2.2025092
2.2183637
2.2347062
2.2514312
2.268342
2.2853195
2.3022201
2.3188999
2.3352178
2.3510385
2.3662416
2.3807234
2.3944078
2.4072366
2.4191951
2.4302704
2.4405283
2.4499721
2.4587762
2.4668754
2.4746215
2.4817073
2.4888536
2.495169
2.5021855
2.5077836
2.5151677
2.5198782
2.5281269
2.5319123
2.5409261
2.0678855
2.0679867
2.0681099
2.0682368
2.0683761
2.0685307
2.0687022
2.068893
2.069106
2.069345
2.0696151
2.0699228
2.070277
2.0706894
2.0711761
2.0717588
2.0724666
2.0733392
2.074429
2.0758056
2.0775591
2.079804
2.082681
2.0863563
2.0910156
2.0968515
2.1040417
2.1127228
2.1229634
2.1347407
2.1479465
2.162575
2.177999
2.1941794
2.2110812
2.228549
2.2463888
2.2644503
2.2826045
2.3007043
2.3186021
2.3361483
2.3531984
2.369618
2.3852896
2.400115
2.4140234
2.4269646
2.4389294
2.4499178
2.4599969
2.4691924
2.4776742
2.4854166
2.4927456
2.4994338
2.5061241
2.5120907
2.5186692
2.5240863
2.5310778
2.5359275
2.543806
2.5481148
2.5568197
2.0621629
2.0622642
2.062387
2.0625137
2.0626525
2.0628067
2.062978
2.0631691
2.0633835
2.0636262
2.0639035
2.064224
2.0645995
2.065046
2.0655851
2.0662462
2.0670685
2.0681046
2.0694236
2.0711145
2.0732906
2.0760907
2.0796799
2.0842442
2.0899802
2.0970766
2.1056894
2.1159141
2.1277612
2.1411476
2.1560191
2.1718982
2.188576
2.2062868
2.2245668
2.2432541
2.2622267
2.281337
2.3004342
2.3193639
2.3379689
2.3560945
2.3735949
2.3903381
2.4062116
2.4211244
2.4350113
2.447833
2.4595892
2.4702913
2.4800176
2.4888125
2.496842
2.5041215
2.510947
2.5171743
2.5233595
2.5289505
2.5350689
2.5403018
2.5469041
2.5519148
2.5594468
2.5644853
2.5729055
2.0651896
2.065286
2.0654016
2.0655222
2.0656544
2.0658013
2.0659652
2.0661491
2.0663574
2.0665961
2.0668733
2.0672
2.0675914
2.0680681
2.068658
2.0693987
2.0703402
2.0715482
2.0731077
2.0751261
2.0777365
2.0810971
2.0853891
2.0908078
2.0975476
2.1057801
2.1156275
2.1271382
2.1402688
2.1549166
2.1708377
2.1877578
2.2057555
2.2243928
2.2435424
2.2630561
2.2827795
2.3025572
2.3222274
2.3416248