/*--------------------------------*- C++ -*----------------------------------*\
  =========                 |
  \\      /  F ield         | OpenFOAM: The Open Source CFD Toolbox
   \\    /   O peration     | Website:  https://openfoam.org
    \\  /    A nd           | Version:  13
     \\/     M anipulation  |
\*---------------------------------------------------------------------------*/
FoamFile
{
    format      ascii;
    class       volScalarField;
    location    "8.600418";
    object      omega;
}
// * * * * * * * * * * * * * * * * * * * * * * * * * * * * * * * * * * * * * //

dimensions      [0 0 -1 0 0 0 0];

internalField   nonuniform List<scalar> 
17140
(
4528389.9
731656.87
224625.15
95287.124
48484.356
27613.237
16955.363
10978.871
7392.204
5127.0013
3638.6602
2629.5656
1927.7853
1429.3977
1069.1942
804.95487
608.61175
461.0827
349.14973
263.518
197.58009
146.61204
107.23703
77.050378
54.33275
37.802406
26.388943
19.04178
14.714473
12.346437
11.060188
10.291188
9.7069969
9.1842865
8.6955129
8.2376797
7.8103865
7.4137764
7.0486421
6.7164314
6.4175839
6.1535412
5.9257014
5.7351836
5.583057
5.4843935
5.4373933
5.4184312
5.4261425
5.4836408
5.5482252
5.6430237
5.7425505
5.822247
5.9014701
5.9698893
6.0165797
6.0034199
5.8103344
5.5098772
5.048285
4.5575885
4.0373829
3.5916879
3.1713864
4528420.9
731662.49
224627.24
95288.238
48485.068
27613.758
16955.785
10979.242
7392.5489
5127.3371
3638.9976
2629.9115
1928.1442
1429.7723
1069.5854
805.36237
609.03358
461.51547
349.58846
263.956
198.00882
147.02105
107.61416
77.382506
54.607567
38.011204
26.529815
19.122439
14.747029
12.349319
11.047226
10.272945
9.6891335
9.1686862
8.6828769
8.2286188
7.805559
7.4136022
7.0536407
6.7277838
6.4377153
6.184986
5.9712037
5.798121
5.670673
5.6046219
5.5835042
5.599166
5.6756679
5.7857481
5.9267968
6.0925705
6.2634074
6.4355831
6.5830305
6.6989642
6.7487733
6.7323217
6.4836475
6.0797408
5.4897934
4.9204529
4.2995307
3.7794887
3.2544921
4528451.2
731667.51
224628.85
95289.018
48485.582
27614.183
16956.195
10979.669
7393.0114
5127.8466
3639.5614
2630.5342
1928.8281
1430.5176
1070.3904
806.22264
609.94239
462.46313
350.562
264.93879
198.98005
147.95552
108.48253
78.15301
55.249918
38.503156
26.864847
19.316943
14.828605
12.361384
11.022964
10.237223
9.6547689
9.1387005
8.6584162
8.2110408
7.7972327
7.4172259
7.0714163
6.7633994
6.4948486
6.2690762
6.0885166
5.9622887
5.8963301
5.8737862
5.9054596
6.0121289
6.1541767
6.3254589
6.5193351
6.7190592
6.9099981
7.0698918
7.1651833
7.1999582
7.1927613
7.0915806
6.7501746
6.2275607
5.5247126
4.7927091
4.0097061
3.3778614
2.7146565
4528483
731672.75
224630.55
95289.896
48486.208
27614.744
16956.772
10980.293
7393.7044
5128.621
3640.4259
2631.4946
1929.8872
1431.6756
1071.6442
807.5659
611.3648
463.94997
352.09349
266.48935
200.5175
149.44055
109.86899
79.390325
56.288991
39.30657
27.419284
19.645873
14.973746
12.391694
10.992805
10.18688
9.6033327
9.0934904
8.6220818
8.1856984
7.7854671
7.4245794
7.1008291
6.8202242
6.5846789
6.3977239
6.2678524
6.198441
6.1709278
6.1772175
6.2876152
6.4234039
6.5960226
6.7789798
6.9692171
7.1457038
7.295939
7.3745036
7.4015459
7.3708915
7.2890932
7.1340041
6.7005985
5.9466755
5.0224526
4.1218396
3.2558936
2.5940781
1.9542104
4528516.9
731678.34
224632.38
95290.872
48486.941
27615.436
16957.506
10981.105
7394.6155
5129.6465
3641.5764
2632.777
1931.3055
1433.2301
1073.3315
809.3782
613.28918
465.9676
354.17871
268.60855
202.62802
151.48966
111.79414
81.121887
57.757757
40.457295
28.228019
20.139179
15.203882
12.452756
10.962567
10.121259
9.5334476
9.0314638
8.5726979
8.1514553
7.7696538
7.4312615
7.1348544
6.8861583
6.686907
6.5423268
6.4620084
6.4246529
6.4148237
6.4719199
6.6044115
6.7446697
6.912296
7.0702676
7.2270717
7.3611341
7.4415765
7.4809142
7.4642576
7.3352646
7.1754138
6.9642669
6.4657936
5.5658058
4.496541
3.4999339
2.6192935
1.9959334
1.463246
4528552.1
731684.12
224634.28
95291.928
48487.772
27616.244
16958.38
10982.083
7395.7217
5130.8971
3642.984
2634.3503
1933.0499
1435.1472
1075.4183
811.6266
615.68491
468.48919
356.79618
271.28194
205.30575
154.10715
114.27352
83.374798
59.693796
42.000206
29.337932
20.831689
15.550598
12.563313
10.943426
10.043108
9.4423899
8.9502127
8.5076824
8.1063293
7.7460186
7.4298619
7.1652605
6.9477596
6.7829079
6.682772
6.632248
6.6139088
6.617953
6.7055114
6.8277682
6.9566002
7.0941815
7.2147951
7.3317892
7.4294412
7.4848666
7.5052739
7.4018283
7.2079908
6.9908684
6.7381134
6.1901895
5.1309481
3.9318912
2.8944354
2.0656044
1.5286607
1.105564
4528588.7
731690.09
224636.25
95293.055
48488.683
27617.148
16959.371
10983.199
7396.988
5132.3334
3644.6048
2636.1667
1935.0693
1437.373
1077.8493
814.25583
618.4985
471.46498
359.90208
274.47396
208.52587
157.28124
117.31039
86.16841
62.131793
43.981764
30.80028
21.775874
16.057063
12.749682
10.94746
9.9607933
9.3403637
8.8561156
8.4304405
8.0490955
7.7124599
7.4196882
7.1854417
6.9963874
6.867523
6.7972068
6.7647897
6.7553767
6.7743548
6.8639418
6.9669293
7.0762013
7.1812304
7.2742105
7.3681634
7.4430439
7.4809343
7.4853248
7.300058
7.0379264
6.7823139
6.4940699
5.8681475
4.6430631
3.3710864
2.364845
1.6328679
1.1928083
0.86355737
4528626.6
731696.28
224638.3
95294.242
48489.657
27618.123
16960.445
10984.413
7398.3701
5133.9047
3646.3822
2638.1637
1937.296
1439.8358
1080.5497
817.18974
621.65445
474.82256
363.42985
278.12702
212.24306
160.98232
120.8941
89.513553
65.104935
46.455497
32.683084
23.045581
16.782397
13.058254
11.006731
9.8930954
9.2338695
8.7517181
8.3418281
7.9802474
7.6656386
7.3996543
7.1843769
7.0280462
6.9276511
6.8767524
6.8563776
6.8525076
6.8781007
6.9572897
7.0429192
7.1344651
7.2188897
7.3019077
7.3919236
7.4635526
7.4970442
7.4128906
7.1502492
6.8354096
6.565654
6.2538009
5.5158674
4.1214713
2.8274004
1.901901
1.2863928
0.93857071
0.68439891
4528664.7
731702.67
224640.44
95295.475
48490.666
27619.136
16961.564
10985.68
7399.8144
5135.5497
3648.2471
2640.2648
1939.6466
1442.4458
1083.4249
820.33035
625.05366
478.46443
367.28688
282.15716
216.38623
165.15669
124.99291
93.404548
68.636173
49.472376
35.059597
24.724478
17.804791
13.551098
11.1605
9.8629954
9.134042
8.6421383
8.2447584
7.9018977
7.6085082
7.3664207
7.1711152
7.0367443
6.9631832
6.9265204
6.9141227
6.9134683
6.9399434
7.0055501
7.0784784
7.160278
7.2410427
7.3318945
7.4320482
7.4975544
7.5206637
7.2849971
6.9271702
6.6051184
6.3611886
6.0207372
5.10879
3.5820494
2.3261953
1.5172885
1.0216765
0.75550319
0.55860333
4528704.9
731709.34
224642.68
95296.753
48491.697
27620.161
16962.688
10986.949
7401.261
5137.1989
3650.1206
2642.3816
1942.0235
1445.0971
1086.3613
823.5582
628.57286
482.26636
371.35154
286.44967
220.85261
169.71909
129.54501
97.80891
72.727118
53.069908
37.999439
26.902552
19.219646
14.314396
11.463213
9.9080153
9.0585957
8.5356777
8.1431005
7.8157509
7.5404058
7.3166724
7.1443999
7.0248932
6.9619362
6.937807
6.9322888
6.9372102
6.9568139
7.0104361
7.0821837
7.1690778
7.2624908
7.3677259
7.4693101
7.5207423
7.4812381
7.0668736
6.6517793
6.3820382
6.188865
5.8009153
4.6321325
3.0199867
1.8743361
1.2055449
0.81990497
0.61899865
0.46354076
4528746.8
731716.36
224645.1
95298.108
48492.76
27621.186
16963.782
10988.171
7402.6468
5138.7777
3651.9165
2644.4165
1944.3177
1447.6693
1089.2283
826.73332
632.06461
486.07609
375.4703
290.85431
225.50084
174.54368
134.44763
102.65501
77.345149
57.26051
41.561263
29.677583
21.14719
15.464137
12.005897
10.080151
9.0432645
8.444548
8.0427626
7.7253144
7.4643843
7.2557409
7.0991957
6.9987445
6.947005
6.9274909
6.924702
6.9324324
6.9501
7.000141
7.0720535
7.1614272
7.2600529
7.3739132
7.4550953
7.4793765
7.3088159
6.7497594
6.3818038
6.2403459
6.0568275
5.5629553
4.0516623
2.4606674
1.483844
0.95985094
0.66932305
0.5179282
0.39252001
4528789.6
731723.55
224647.56
95299.438
48493.771
27622.136
16964.781
10989.276
7403.8977
5140.2028
3653.541
2646.2641
1946.4114
1450.0319
1091.882
829.699
635.36051
489.71543
379.45825
295.18375
230.14687
179.4569
139.54636
107.81769
82.405487
62.01045
45.769594
33.130787
23.709358
17.131718
12.915418
10.457388
9.1230398
8.407861
7.9556749
7.6365663
7.384064
7.186262
7.040381
6.9521538
6.912026
6.8995059
6.90161
6.91352
6.9276255
6.970093
7.0415698
7.1332352
7.2346958
7.3421241
7.3890472
7.3246191
7.0161202
6.4120398
6.2503578
6.1827955
5.9564679
5.2415767
3.3515494
1.9317755
1.1618633
0.77075136
0.5550908
0.43812421
0.33477892
4528834.7
731731.01
224650.04
95300.726
48494.699
27622.97
16965.635
10990.208
7404.9449
5141.3941
3654.9016
2647.8182
1948.1838
1452.0484
1094.1698
832.28595
638.27451
492.98244
383.09951
299.21159
234.55901
184.22895
144.62275
113.10165
87.74999
67.214505
50.587135
37.301634
27.016839
19.473832
14.350758
11.181817
9.3949017
8.4440509
7.9108313
7.5577762
7.3063785
7.1129208
6.9731004
6.8905943
6.8541734
6.8453824
6.8539751
6.8719303
6.8803548
6.9138692
6.9798636
7.0688074
7.16484
7.242658
7.218533
7.0815228
6.5796347
6.2350336
6.2163798
6.1734497
5.8366553
4.6445796
2.6345436
1.4788956
0.91121495
0.63109123
0.46929142
0.37613976
0.28951202
4528880.1
731738.57
224652.5
95301.943
48495.514
27623.655
16966.301
10990.915
7405.7285
5142.2814
3655.9166
2648.9843
1949.5258
1453.5933
1095.9476
834.33004
640.62083
495.66874
386.16303
302.6855
238.46691
188.5773
149.39091
118.22992
93.126923
72.666501
55.876627
42.143709
31.12473
22.633414
16.498091
12.431873
9.9874341
8.6372927
7.9372345
7.5216969
7.2365043
7.0428339
6.9041633
6.8192961
6.7819933
6.7761107
6.78968
6.8125069
6.8182139
6.8373375
6.8887084
6.9596441
7.0362997
7.0411578
6.9790761
6.7517003
6.2921803
6.1658333
6.3175934
6.2433217
5.6845584
3.7766644
1.9783529
1.114092
0.72104994
0.52665022
0.40324022
0.32626754
0.25297719
4528926.9
731746.29
224654.96
95303.082
48496.201
27624.166
16966.753
10991.362
7406.206
5142.814
3656.5254
2649.6905
1950.3521
1454.5659
1097.0968
835.69121
642.23503
497.5823
388.42648
305.35102
241.5839
192.18544
153.51036
122.84847
98.184623
78.039785
61.366321
47.475454
35.974205
26.68713
19.54316
14.432646
11.110519
9.1556089
8.1044963
7.5516709
7.2183602
6.9824477
6.8346604
6.7466922
6.7032617
6.6950926
6.7080057
6.738111
6.7439351
6.7499257
6.7727797
6.8201898
6.8445336
6.8144758
6.7019577
6.3657168
6.1658457
6.3011861
6.6171652
6.3275133
5.2344425
2.6968755
1.4322802
0.86608177
0.59400289
0.44913905
0.35079038
0.28573784
0.22370954
4528977.9
731754.49
224657.45
95304.147
48496.753
27624.497
16966.977
10991.536
7406.3599
5142.9691
3656.699
2649.8996
1950.6156
1454.9063
1097.5416
836.27463
642.999
498.57707
389.70986
306.98839
243.64538
194.74062
156.6199
126.55201
102.48469
82.882535
66.621843
52.923432
41.305862
31.538483
23.570794
17.421937
13.045206
10.21996
8.5722439
7.7176647
7.2582118
6.9808843
6.7902796
6.6748124
6.6229527
6.6121621
6.6210026
6.6513643
6.66023
6.6555222
6.655967
6.6587091
6.643662
6.5800929
6.388494
6.2076633
6.284023
6.7992835
6.938206
6.2635808
3.9479906
1.9896557
1.0824939
0.68738006
0.49764116
0.38901195
0.30934195
0.25340007
0.20020787
4529031.7
731762.94
224659.97
95305.145
48497.186
27624.663
16966.993
10991.455
7406.21
5142.768
3656.4596
2649.6335
1950.3357
1454.6282
1097.2856
836.0671
642.87446
498.58073
389.90132
307.44074
244.44501
195.98359
158.40156
128.95581
105.5738
86.680283
71.088652
57.932537
46.625334
36.832557
28.438116
21.482489
16.056496
12.169806
9.6547044
8.203741
7.4488396
7.0425922
6.8020783
6.6505044
6.5548441
6.5223255
6.5275299
6.5527207
6.5676338
6.5606419
6.5422984
6.5174502
6.4690078
6.363729
6.2462292
6.3251759
6.7064974
7.5043362
7.084383
5.5479839
2.6647394
1.3161956
0.79077391
0.56214516
0.43334226
0.34144088
0.27202768
0.22524053
0.180858
4529085.9
731771.51
224662.5
95306.092
48497.522
27624.694
16966.836
10991.163
7405.8081
5142.2696
3655.873
2648.9653
1949.5931
1453.8207
1096.4265
835.17531
641.97598
497.71015
389.10265
306.77035
243.97373
195.80032
158.6217
129.71883
107.01806
88.913804
74.158904
61.820559
51.217662
41.898598
33.627582
26.362825
20.20417
15.298128
11.707839
9.3448541
7.9986163
7.2862209
6.9010204
6.6826774
6.557478
6.4864002
6.4571626
6.4612749
6.4645411
6.4515413
6.4343995
6.3935097
6.342844
6.2908545
6.4019964
6.831035
8.0243541
7.8285046
6.8367889
3.7380044
1.7546988
0.98382926
0.65839469
0.48494191
0.37792062
0.30331432
0.24348134
0.20251136
0.16482654
4529139.6
731780.24
224665.06
95307.008
48497.798
27624.639
16966.567
10990.731
7405.2367
5141.5684
3655.046
2648.0141
1948.5187
1452.6254
1095.1155
833.75815
640.4684
496.13621
387.49691
305.17997
242.46014
194.43955
157.50113
128.93741
106.69606
89.210071
75.265877
63.887058
54.269134
45.848613
38.262669
31.336864
25.069559
19.592255
15.084028
11.673129
9.3210455
7.9766595
7.2480155
6.8516839
6.634075
6.5290038
6.4761491
6.4590337
6.449395
6.4345703
6.3987405
6.3752373
6.4000341
6.53897
7.0304726
8.4500681
8.8041533
7.9900202
5.2199889
2.2843501
1.1626357
0.73565357
0.53870279
0.42602189
0.3404862
0.27441296
0.22173143
0.18480935
0.15229631
4529196.7
731789.35
224667.71
95307.951
48498.069
27624.558
16966.257
10990.243
7404.5919
5140.7756
3654.1062
2646.9248
1947.2761
1451.2254
1093.5554
832.03778
638.59197
494.11417
385.34823
302.93486
240.1629
192.15108
155.3007
126.92281
104.98076
87.911243
74.49894
63.791605
55.070553
47.726553
41.240503
35.248073
29.598725
24.303669
19.497235
15.374343
12.097411
9.676897
8.2219753
7.4062838
6.9574361
6.7293683
6.6179905
6.5739195
6.5599027
6.5443142
6.5716813
6.6478201
6.8503991
7.4259809
9.0215983
9.7619065
9.1007254
6.8158301
2.8789154
1.4115655
0.85454783
0.62353973
0.48128609
0.37358869
0.29651059
0.23961939
0.19778106
0.16851047
0.14176201
4529258.1
731798.98
224670.51
95308.956
48498.379
27624.507
16965.973
10989.779
7403.9709
5140.0045
3653.1847
2645.8483
1946.0374
1449.8161
1091.9668
830.26205
636.62316
491.94984
382.99143
300.39661
237.46522
189.33061
152.41249
124.04406
102.21385
85.385963
72.359068
62.161817
54.030643
47.38429
41.80037
36.916932
32.407109
28.022746
23.750129
19.704754
16.069433
13.009533
10.595281
8.908255
7.9482639
7.3985656
7.1252326
7.0029627
6.9995737
7.0628108
7.2253551
7.5496474
8.2399239
9.9473519
10.818749
10.233018
8.2626847
3.6893804
1.7483343
1.0116907
0.70482448
0.52347024
0.41056084
0.33343315
0.27212683
0.22242509
0.18257351
0.15606393
0.13323111
4529319.5
731808.79
224673.4
95310.036
48498.755
27624.525
16965.764
10989.4
7403.4445
5139.3389
3652.3798
2644.8989
1944.9352
1448.5507
1090.5264
828.6339
634.79466
489.90925
380.72924
297.90731
234.74978
186.39964
149.29032
120.77353
98.861681
82.048458
69.150738
59.250785
51.59953
45.561168
40.624117
36.413385
32.721648
29.384655
26.216538
23.026981
19.881811
16.923606
14.298756
12.153778
10.490804
9.3688503
8.7165976
8.4003298
8.4455863
8.6161436
9.0002391
9.6640792
11.286563
12.023949
11.433948
9.4805055
4.6480069
2.1562016
1.1790719
0.77237195
0.56250796
0.44455286
0.35890154
0.29016478
0.23703994
0.19736154
0.16746975
0.14565185
0.12645838
4529381.2
731818.83
224676.41
95311.197
48499.208
27624.627
16965.651
10989.13
7403.0426
5138.815
3651.7348
2644.1285
1944.0314
1447.503
1089.322
827.25855
633.23246
488.1434
378.74255
295.68308
232.27313
183.65931
146.28086
117.49768
95.331906
78.284567
65.217113
55.250225
47.699865
42.001639
37.667738
34.259103
31.343099
28.701216
26.206021
23.924916
21.734268
19.577893
17.472448
15.558364
13.935277
12.671397
11.822401
11.28869
11.167762
11.275569
11.699684
12.943757
13.348291
12.713751
10.655213
5.6182992
2.5640587
1.3409351
0.84153783
0.61134284
0.49068516
0.39819742
0.32523137
0.26687018
0.22075883
0.18363166
0.15591437
0.13697678
0.12074487
4529447.3
731829.45
224679.59
95312.445
48499.732
27624.797
16965.611
10988.941
7402.7337
5138.3966
3651.2091
2643.4924
1943.2781
1446.6228
1088.303
826.08679
631.89226
486.61731
377.01156
293.72702
230.07127
181.19144
143.52875
114.44662
91.974106
74.622188
61.273785
51.071075
43.342559
37.556391
33.280853
30.163963
27.894927
26.140642
24.584147
23.019987
21.443699
19.94831
18.576944
17.299146
16.112437
15.066127
14.22874
13.588986
13.371557
13.606178
14.686578
14.731126
14.017436
11.74175
6.3549282
2.9275421
1.5204216
0.93170948
0.67011955
0.53110724
0.42388398
0.34050956
0.28054866
0.23244904
0.19546511
0.1674252
0.14590851
0.13008613
0.11627645
4529517.1
731840.54
224682.91
95313.749
48500.279
27624.976
16965.572
10988.75
7402.4197
5137.9723
3650.678
2642.8524
1942.5234
1445.7451
1087.2916
824.92919
630.57422
485.12309
375.32416
291.82852
227.94338
178.81637
140.89057
111.53367
88.779346
71.146368
57.519745
47.052185
39.08808
33.115069
28.723661
25.577486
23.382531
21.888813
20.8962
20.171983
19.52323
18.755142
17.918241
17.072563
16.244981
15.49446
14.753001
14.73801
15.200527
16.439048
16.171572
15.293552
12.68873
6.8289423
3.2391886
1.6967498
1.0321026
0.73394155
0.57189605
0.45345185
0.37040669
0.3105297
0.25905922
0.21655065
0.18376733
0.1575069
0.13741161
0.12370686
0.11240357
4529588.1
731851.93
224686.35
95315.098
48500.825
27625.128
16965.484
10988.493
7402.0255
5137.4555
3650.0434
2642.0992
1941.6475
1444.7402
1086.1499
823.6412
629.12961
483.51078
373.53272
289.84638
225.75882
176.41739
138.26522
108.67124
85.674395
67.80446
53.951198
43.271165
35.118108
28.989282
24.484742
21.276254
19.084755
17.667232
16.807816
16.300473
15.930866
15.66121
15.403118
15.188909
15.062471
15.187932
15.794041
17.187429
18.254182
17.857448
16.545722
13.317491
7.0832101
3.4904892
1.8625551
1.1339203
0.7949593
0.60761442
0.48120153
0.39565109
0.32975224
0.27157347
0.22651525
0.19328205
0.16633937
0.14627593
0.13132668
0.11945533
0.10931487
4529661.3
731863.75
224689.91
95316.489
48501.387
27625.28
16965.387
10988.221
7401.6133
5136.9187
3649.388
2641.326
1940.7545
1443.7231
1085.0034
822.35956
627.70662
481.94006
371.80782
287.96095
223.70706
174.19488
135.86998
106.10443
82.941347
64.913925
50.917105
40.107766
31.844608
25.632249
21.077666
17.857788
15.695605
14.347448
13.601504
13.267112
13.226474
13.413775
13.795447
14.543441
15.675753
17.48026
19.543652
19.808283
19.266223
17.532262
13.500381
7.28819
3.7152662
2.02041
1.2393899
0.8651489
0.654435
0.51769234
0.42319904
0.34930512
0.29009626
0.24577579
0.21169663
0.18258975
0.15882195
0.13874703
0.12439232
0.11491333
0.1070577
4529737.4
731876.03
224693.65
95317.996
48502.066
27625.565
16965.446
10988.132
7401.4149
5136.629
3649.0162
2640.876
1940.2269
1443.1168
1084.3161
821.58843
626.84843
480.99167
370.76641
286.82441
222.47433
172.86604
134.44586
104.58602
81.328757
63.206372
49.113936
38.225804
29.906727
23.66674
19.11704
15.941759
13.870341
12.700891
12.224512
12.236607
12.742228
13.747293
15.320258
17.368053
19.588284
21.355085
21.247221
20.49873
18.316639
13.513386
7.5358301
3.9525779
2.1845715
1.347585
0.94250191
0.70267221
0.55065384
0.44734805
0.36923134
0.31020839
0.26410756
0.22602295
0.19247994
0.16557248
0.14655511
0.13242145
0.12105566
0.11180435
0.10463511
4529816
731888.74
224697.58
95319.68
48502.942
27626.087
16965.791
10988.383
7401.612
5136.7962
3649.1672
2641.019
1940.3672
1443.2575
1084.459
821.734
626.9964
481.14078
370.91439
286.96785
222.60849
172.98486
134.54232
104.65307
81.360713
63.201092
49.074397
38.151733
29.807354
23.563767
19.041951
15.928539
13.989862
13.07072
12.874452
13.400317
14.649304
16.554255
18.985126
21.403931
23.021698
22.69207
21.662731
18.925813
13.648114
7.8899498
4.2714243
2.3717718
1.4684425
1.0262125
0.75768175
0.58982334
0.47806634
0.3942185
0.33059181
0.28040246
0.2372845
0.20326305
0.17751694
0.1569201
0.13908697
0.12558649
0.11584109
0.10913671
0.10335387
4529897.8
731902.04
224701.7
95321.525
48503.989
27626.808
16966.376
10988.915
7402.1382
5137.3439
3649.7542
2641.6579
1941.0673
1444.0259
1085.3012
822.65429
627.9976
482.22442
372.08052
288.2148
223.93268
174.38059
136.00178
106.16641
82.916132
64.785777
50.674085
39.752773
31.398604
25.136841
20.612006
17.559322
15.788633
15.103239
15.372026
16.44347
18.253196
20.645522
23.210522
24.772636
24.330342
22.932046
19.58181
14.026834
8.3661571
4.601325
2.5478847
1.5869282
1.1108805
0.82033475
0.63843479
0.51266718
0.42064916
0.35069181
0.29699657
0.25296179
0.21932526
0.19207052
0.1676145
0.14854066
0.13391283
0.12224935
0.11344035
0.10660542
0.10160106
4529983.7
731915.88
224705.99
95323.455
48505.096
27627.582
16967.015
10989.509
7402.7349
5137.9734
3650.4364
2642.4077
1941.8963
1444.944
1086.317
823.77522
629.2304
483.57489
373.55356
289.81428
225.66133
176.23987
137.9914
108.28422
85.158319
67.146607
53.148642
42.338306
34.098347
27.969998
23.613635
20.777724
19.273513
18.946735
19.524663
20.982612
22.841092
25.141474
26.789605
26.158648
24.414401
20.445223
14.620141
8.9002346
4.9021654
2.7463048
1.7281276
1.2207981
0.9069759
0.69977848
0.55350122
0.44943305
0.37442687
0.31664184
0.27028753
0.23345892
0.20196136
0.17509028
0.1552451
0.13935122
0.12671143
0.11724672
0.11009428
0.10502148
0.10081266
4530071.7
731930.11
224710.41
95325.398
48506.166
27628.287
16967.556
10989.98
7403.1858
5138.4341
3650.9271
2642.9434
1942.4892
1445.605
1087.056
824.60212
630.15498
484.60719
374.70399
291.09376
227.08139
177.81267
139.72978
110.20188
87.269304
69.46602
55.693392
45.129182
37.160986
31.337063
27.327932
24.890533
23.832102
23.924441
24.648102
26.284377
28.433216
29.253316
28.335516
26.092989
21.452441
15.325154
9.4443759
5.2337762
2.9751837
1.8924828
1.3464302
0.99668793
0.76003801
0.59483384
0.48310391
0.4022582
0.34015523
0.28812035
0.24787457
0.21422794
0.18705446
0.16693684
0.14951173
0.13489882
0.12331878
0.11500083
0.10803637
0.1030652
0.099447608
4530163.2
731944.95
224714.97
95327.356
48507.197
27628.915
16967.99
10990.316
7403.4746
5138.706
3651.2021
2643.2362
1942.812
1445.9686
1087.4713
825.08025
630.70808
485.24866
375.44884
291.95893
228.08607
178.97868
141.08213
111.76899
89.083959
71.565536
58.119913
47.930295
40.390104
35.051528
31.582456
29.724321
29.240187
29.613668
30.645741
32.203327
31.898716
30.632295
27.707055
22.508802
16.095274
10.017675
5.6306077
3.2442177
2.0918767
1.4902274
1.0987143
0.83587613
0.65712315
0.53197238
0.43883899
0.36598829
0.3086683
0.26430723
0.22900463
0.2002727
0.17688244
0.15700512
0.14027213
0.127956
0.1183446
0.11114639
0.10597135
0.10213203
0.098832623
4530257.7
731960.23
224719.68
95329.372
48508.246
27629.54
16968.407
10990.624
7403.7269
5138.9335
3651.4255
2643.4705
1943.0696
1446.2611
1087.8103
825.47823
631.17888
485.80818
376.11558
292.7546
229.03621
180.11334
142.43661
113.38451
91.008219
73.85282
60.830324
51.127668
44.136225
39.394603
36.536622
35.241134
35.181238
35.729188
35.788141
34.918868
32.910577
29.285314
23.614864
16.919885
10.63413
6.0913616
3.5742127
2.3254856
1.6467094
1.2108599
0.92606705
0.72816489
0.58299555
0.47272554
0.39278981
0.33175078
0.28528205
0.24503917
0.21374254
0.18677201
0.16525427
0.14830032
0.13510258
0.12491023
0.11621537
0.10951173
0.10411124
0.10063145
0.098025428
4530355.2
731976.01
224724.55
95331.486
48509.374
27630.239
16968.9
10991.016
7404.0746
5139.2697
3651.7723
2643.8448
1943.4856
1446.7322
1088.3499
826.10089
631.90097
486.64856
377.09638
293.90204
230.38156
181.69388
144.29657
115.57595
93.589246
76.876048
64.341622
55.180596
48.759578
44.567825
42.149524
41.080536
40.638366
39.645646
37.731834
35.172679
30.868494
24.733157
17.743787
11.291141
6.6215562
3.9596529
2.5797612
1.812461
1.3383911
1.0332076
0.81192359
0.64385681
0.52097284
0.43255781
0.36559033
0.31034913
0.26438658
0.22796434
0.19986441
0.1762134
0.15854584
0.14318235
0.13033679
0.12014974
0.11259681
0.10729883
0.10302566
0.099984464
0.097307439
4530457.6
731992.55
224729.68
95333.735
48510.606
27631.04
16969.505
10991.534
7404.5661
5139.7709
3652.3083
2644.4351
1944.1473
1447.4814
1089.2036
827.07711
633.02012
487.9341
378.57576
295.60776
232.35236
183.97484
146.93765
118.62757
97.095029
80.868538
68.837939
60.163971
54.179123
50.29985
47.829971
45.888447
43.631655
40.932869
37.561304
32.478402
25.853779
18.611928
12.050737
7.2610596
4.4131475
2.8639139
2.002043
1.4918807
1.1589651
0.90730087
0.71645697
0.57863164
0.47742334
0.39698467
0.33435257
0.28388619
0.24621896
0.21418773
0.18893803
0.16735772
0.14993439
0.13595997
0.1250781
0.11700571
0.11029298
0.10545901
0.10137541
0.099117012
0.09690799
4530563.2
732009.69
224735.03
95336.112
48511.94
27631.944
16970.221
10992.179
7405.2029
5140.4393
3653.0364
2645.2453
1945.0597
1448.5158
1090.3802
828.41821
634.55037
489.68141
380.57165
297.88729
234.95291
186.93537
150.29717
122.42243
101.3554
85.613416
74.027887
65.667268
59.706988
55.314688
51.616953
48.050731
44.429591
40.040586
34.169681
27.084357
19.631565
12.961667
8.0039064
4.9151056
3.1726553
2.2162969
1.6654393
1.295816
1.0120938
0.8015787
0.64770037
0.52946792
0.43768069
0.36813852
0.31497688
0.27040882
0.23297136
0.20192225
0.17897098
0.15884501
0.1446881
0.13272454
0.12245527
0.1148175
0.10855944
0.10435741
0.10069281
0.098355246
0.096261034
4530672.5
732027.43
224740.58
95338.608
48513.372
27632.944
16971.043
10992.943
7405.9758
5141.2638
3653.9431
2646.2595
1946.2042
1449.8129
1091.8528
830.0904
636.44807
491.83229
383.0048
300.63214
238.03732
190.38138
154.11433
126.59836
105.84369
90.321527
78.806725
70.202824
63.553863
58.048504
53.152659
48.37129
42.833013
36.13611
28.563689
20.86281
14.023154
8.8382502
5.4795402
3.5382718
2.4790329
1.8686421
1.4515283
1.1369151
0.90584339
0.73091548
0.59255197
0.48729624
0.40869812
0.34518929
0.29354744
0.24995171
0.21785763
0.1913776
0.17083889
0.15292284
0.13915916
0.12725857
0.11813863
0.11179076
0.10632204
0.10274404
0.099698145
0.097957328
0.095987595
4530784.7
732045.76
224746.35
95341.228
48514.903
27634.037
16971.962
10993.815
7406.8696
5142.2245
3655.0034
2647.4463
1947.5417
1451.3245
1093.5622
832.0221
638.62691
494.28299
385.75029
303.69066
241.41782
194.07646
158.09028
130.78196
110.10557
94.455435
82.530481
73.244903
65.682692
59.121248
52.845688
46.018672
38.427392
30.316101
22.315571
15.253928
9.8078943
6.1621398
3.9958686
2.7936286
2.0922721
1.6206909
1.2782892
1.0239365
0.82335822
0.66547617
0.54631534
0.45501415
0.38184393
0.32374631
0.27857001
0.24078408
0.20980286
0.18294919
0.16353384
0.14635114
0.13425964
0.12415634
0.11638056
0.11045227
0.10530365
0.10208654
0.098870407
0.097298697
0.095563303
4530901
732061.35
224749.46
95341.746
48514.885
27633.974
16972.002
10994.01
7407.2434
5142.7891
3655.769
2648.4231
1948.7414
1452.7601
1095.2482
833.9733
640.85758
496.80449
388.56787
306.79882
244.79379
197.67195
161.82182
134.52136
113.67339
97.622441
85.033316
74.828561
66.128229
57.991496
49.748607
41.19088
32.481068
24.115323
16.764962
10.998479
7.0095945
4.5533811
3.1534595
2.3396753
1.8159894
1.4464352
1.1632968
0.93426663
0.75597771
0.62009781
0.51190589
0.42669902
0.36116609
0.30769655
0.26335543
0.22529835
0.19724805
0.17439003
0.15719909
0.14219394
0.13112824
0.12105412
0.11375625
0.10804891
0.10364687
0.10091194
0.098480886
0.096901344
0.095390316
4531685.4
732195.44
224794.62
95363.163
48527.063
27641.802
16977.517
10998.199
7410.6362
5145.6985
3658.3925
2650.8934
1951.1524
1455.1812
1097.732
836.55947
643.57405
499.66656
391.57543
309.93175
248.00587
200.88397
164.9155
137.33663
116.0127
99.27057
85.776739
74.352463
64.000806
54.11272
44.411161
34.955779
26.105509
18.384228
12.257709
7.9089517
5.1475016
3.5409758
2.6162001
2.0397743
1.6333802
1.3140285
1.0566871
0.85736659
0.70123795
0.57571618
0.47789646
0.40255912
0.34103817
0.29080581
0.25123253
0.21821748
0.19172673
0.16836651
0.15178386
0.13681814
0.12663408
0.11767785
0.11152143
0.106961
0.10295747
0.099941154
0.09780413
0.096409038
0.095148025
4531684.6
732191.77
224791.67
95361.021
48525.629
27640.882
16976.985
10997.977
7410.6806
5145.9826
3658.9017
2651.6206
1952.095
1456.3389
1099.1038
838.1413
645.35523
501.62544
393.67414
312.1102
250.17574
202.92405
166.67065
138.62688
116.63234
98.94408
84.146406
71.199546
59.387778
48.322342
37.941358
28.465027
20.276058
13.735623
8.9951448
5.8926173
4.0387507
2.9622137
2.2990204
1.8371024
1.4808283
1.1998063
0.97833116
0.79873566
0.65483302
0.54296268
0.45351959
0.38170559
0.32502137
0.27832351
0.23918817
0.20552033
0.18122403
0.16102079
0.1464278
0.13326216
0.12462858
0.1160609
0.11002778
0.10524017
0.10172592
0.09949522
0.097253445
0.096106137
0.09496649
4531684.8
732191.91
224791.81
95361.218
48525.885
27641.202
16977.376
10998.446
7411.2346
5146.6296
3659.649
2652.4749
1953.0612
1457.4188
1100.2946
839.43269
646.7263
503.04072
395.07928
313.42804
251.30442
203.73712
167.00438
138.26262
115.31074
96.464074
80.451002
66.36895
53.66705
42.126591
31.809135
22.951219
15.810228
10.50464
6.9070614
4.6837108
3.3755421
2.590094
2.0689224
1.6808986
1.3731936
1.1212431
0.91346439
0.74800732
0.61777553
0.51258389
0.42877823
0.3635398
0.30981005
0.2654276
0.23003593
0.20043118
0.17725439
0.15674343
0.1428061
0.12973378
0.12094635
0.11315416
0.1081903
0.10420398
0.10070796
0.09882389
0.096874298
0.095708724
0.09479463
4531684.9
732192.01
224791.9
95361.323
48526.021
27641.374
16977.588
10998.704
7411.5415
5146.9901
3660.0666
2652.9514
1953.5958
1458.0065
1100.924
840.08399
647.36808
503.62632
395.54263
313.67863
251.22002
203.15676
165.75344
136.18515
112.30489
92.497501
75.594236
60.822401
47.76393
36.296894
26.501589
18.531527
12.47308
8.2330219
5.5257247
3.9116938
2.9639673
2.361897
1.9242799
1.5744837
1.2858004
1.0504588
0.86243123
0.71052235
0.58773135
0.49049137
0.41226846
0.34914007
0.29844021
0.25643494
0.2210872
0.19082959
0.16946898
0.15106464
0.13852533
0.1267294
0.11915593
0.11187291
0.10720838
0.10339377
0.10024828
0.098197342
0.096579993
0.095522754
0.094655894
4531686.1
732192.13
224791.92
95361.333
48526.034
27641.394
16977.617
10998.743
7411.5931
5147.0551
3660.1447
2653.04
1953.6888
1458.0926
1100.9844
840.08924
647.2746
503.37347
395.0504
312.84784
249.93809
201.31081
163.23834
132.92421
108.27534
87.757683
70.303897
55.245461
42.244054
31.203597
22.156965
15.139594
10.075957
6.7181542
4.659431
3.4490414
2.7074036
2.1955205
1.8006234
1.4800425
1.2172752
1.0007446
0.8216835
0.67710338
0.56225251
0.46926471
0.39440777
0.335667
0.28707425
0.24693974
0.21472822
0.18743358