/*--------------------------------*- C++ -*----------------------------------*\
  =========                 |
  \\      /  F ield         | OpenFOAM: The Open Source CFD Toolbox
   \\    /   O peration     | Website:  https://openfoam.org
    \\  /    A nd           | Version:  13
     \\/     M anipulation  |
\*---------------------------------------------------------------------------*/
FoamFile
{
    format      ascii;
    class       volScalarField;
    location    "38.503526";
    object      k;
}
// * * * * * * * * * * * * * * * * * * * * * * * * * * * * * * * * * * * * * //

dimensions      [0 2 -2 0 0 0 0];

internalField   nonuniform List<scalar> 
17140
(
5.2066481e-12
1.6361094e-10
1.3378976e-09
5.7537621e-09
1.7705889e-08
4.467982e-08
9.9078099e-08
2.0080166e-07
3.8106395e-07
6.8798424e-07
1.1947422e-06
2.0114059e-06
3.3020102e-06
5.3091045e-06
8.3888869e-06
1.3061256e-05
2.0080758e-05
3.0536571e-05
4.5992419e-05
6.8680627e-05
0.00010176813
0.00014971526
0.00021874883
0.00031746455
0.00045755298
0.00065459096
0.00092873146
0.0013049178
0.0018119065
0.0024789361
0.0033286265
0.0043656296
0.0055641523
0.0068634169
0.0081805351
0.0094394258
0.010594245
0.011632807
0.012566274
0.013417202
0.014211831
0.014977023
0.015739597
0.016527
0.017367683
0.018289681
0.019321301
0.020493581
0.021839133
0.02339267
0.025191282
0.027271838
0.02966629
0.032395582
0.035490206
0.038989371
0.042949261
0.047449453
0.052713028
0.058667656
0.061665344
0.055724464
0.027288185
0.012373817
0.015741798
5.1990703e-12
1.6337283e-10
1.3359533e-09
5.7454164e-09
1.7680229e-08
4.4615009e-08
9.8933993e-08
2.0050835e-07
3.8050411e-07
6.8696628e-07
1.1929597e-06
2.0083768e-06
3.2969856e-06
5.3009338e-06
8.3758175e-06
1.3040638e-05
2.0048609e-05
3.0486939e-05
4.591645e-05
6.8565206e-05
0.00010159391
0.00014945386
0.00021835878
0.00031688572
0.00045669897
0.00065333933
0.00092691206
0.0013023015
0.0018081996
0.0024737929
0.0033217062
0.0043566985
0.0055531584
0.0068503735
0.0081656948
0.0094229133
0.010575831
0.011612174
0.012543148
0.013391241
0.014182804
0.014944727
0.015703705
0.016486829
0.017321858
0.018235891
0.019256011
0.020411743
0.021733302
0.023252152
0.025000631
0.027009259
0.029300446
0.031887066
0.034795115
0.038071677
0.041827054
0.046374417
0.052134906
0.060158971
0.06801353
0.068573525
0.044264181
0.021163666
0.021731938
5.1548841e-12
1.6198433e-10
1.3245984e-09
5.6965725e-09
1.7529838e-08
4.4235144e-08
9.809052e-08
1.98796e-07
3.7724801e-07
6.8107394e-07
1.1827004e-06
1.9910549e-06
3.2684598e-06
5.254914e-06
8.3028404e-06
1.2926584e-05
1.9872565e-05
3.0218139e-05
4.5509915e-05
6.7955601e-05
0.00010068696
0.00014811454
0.00021639537
0.00031402891
0.00045257575
0.00064744271
0.0009185712
0.0012906631
0.0017922431
0.0024524159
0.0032939259
0.0043219755
0.0055117255
0.0068032889
0.008114454
0.0093687203
0.010519171
0.011552922
0.012480897
0.01332561
0.014113432
0.01487122
0.01562551
0.016403005
0.017230729
0.0181348
0.019141025
0.020276987
0.021570485
0.02304959
0.024741792
0.026670456
0.028847392
0.03127484
0.033965345
0.036954048
0.040362126
0.044552324
0.050441731
0.05992657
0.071802189
0.080734981
0.06347963
0.035873943
0.033145267
5.0718385e-12
1.5937473e-10
1.3032583e-09
5.6047857e-09
1.7247302e-08
4.3521825e-08
9.6507621e-08
1.955851e-07
3.7114819e-07
6.7004767e-07
1.1635259e-06
1.9587245e-06
3.2152968e-06
5.1692841e-06
8.1672814e-06
1.2715105e-05
1.954677e-05
2.9721689e-05
4.4760685e-05
6.6834657e-05
9.9023242e-05
0.00014566389
0.00021281244
0.00030883066
0.00044509621
0.00063678154
0.00090354419
0.0012697744
0.0017637176
0.002414355
0.0032446596
0.0042606262
0.0054387938
0.0067207917
0.0080252224
0.0092751975
0.010422652
0.011453626
0.012378447
0.013219444
0.014002954
0.014755783
0.015504298
0.016274794
0.017093542
0.017985637
0.018975511
0.020088775
0.021350702
0.022785919
0.024417043
0.026259773
0.028314865
0.030571278
0.033017555
0.035653522
0.038558763
0.042063303
0.047203882
0.057050086
0.072177123
0.088982066
0.082120598
0.053726726
0.043883137
4.9495934e-12
1.5553336e-10
1.2718456e-09
5.4696821e-09
1.6831474e-08
4.2472175e-08
9.4178978e-08
1.9086299e-07
3.6218096e-07
6.5384539e-07
1.1353648e-06
1.9112683e-06
3.1373095e-06
5.0437534e-06
7.9686996e-06
1.2405547e-05
1.9070271e-05
2.8996231e-05
4.366686e-05
6.519976e-05
9.6599211e-05
0.00014209717
0.00020760368
0.00030128242
0.00043424843
0.00062133817
0.00088180293
0.0012395873
0.0017225371
0.0023594541
0.0031736309
0.0041721861
0.005333639
0.0066018515
0.0078967162
0.0091409275
0.010284836
0.011312888
0.012234443
0.01307144
0.013850108
0.014597183
0.015338859
0.016101024
0.016909184
0.017787402
0.018758719
0.019846755
0.02107429
0.022462653
0.024029846
0.025784038
0.027715889
0.029798837
0.031987581
0.034226731
0.03649987
0.038923434
0.041990791
0.049934453
0.066719995
0.0914435
0.097047665
0.074267144
0.057794276
4.7889168e-12
1.5048434e-10
1.2305578e-09
5.2921101e-09
1.6284966e-08
4.1092795e-08
9.1119265e-08
1.8465951e-07
3.5040316e-07
6.3257025e-07
1.098397e-06
1.848991e-06
3.035001e-06
4.8791365e-06
7.7083905e-06
1.1999941e-05
1.8446213e-05
2.804658e-05
4.2235731e-05
6.3061844e-05
9.3431105e-05
0.00013743823
0.00020080368
0.00029143369
0.00042010189
0.00060120777
0.00085347323
0.0012002597
0.0016688839
0.002287894
0.0030809634
0.0040566299
0.0051959752
0.0064458418
0.0077279834
0.0089647428
0.010104472
0.011129468
0.012047694
0.012880463
0.013653802
0.014394353
0.01512814
0.015880657
0.016676661
0.017539201
0.018489967
0.019550669
0.020741773
0.022081751
0.023584724
0.025252672
0.027069161
0.028990832
0.03093243
0.032777404
0.034379689
0.035379843
0.034583993
0.036921046
0.051881505
0.085978081
0.10330217
0.092638141
0.075418929
4.5916612e-12
1.4428589e-10
1.1798708e-09
5.0741172e-09
1.561408e-08
3.93996e-08
8.7363809e-08
1.7704634e-07
3.3595103e-07
6.0646856e-07
1.0530509e-06
1.7726152e-06
2.9095602e-06
4.6773482e-06
7.389386e-06
1.1503016e-05
1.7681876e-05
2.6883815e-05
4.048399e-05
6.0445808e-05
8.9555711e-05
0.0001317409
0.0001924904
0.00027939598
0.00040281389
0.00057660823
0.0008188499
0.0011521776
0.0016032401
0.0022002355
0.0029672383
0.0039144466
0.0050260427
0.006252617
0.0075184619
0.0087457641
0.0098805236
0.010902298
0.011817167
0.012645535
0.013413099
0.014146374
0.014871218
0.015612757
0.016395038
0.017240151
0.018168535
0.019200183
0.020353618
0.021645251
0.023086707
0.024677052
0.026397572
0.028189213
0.029925051
0.031446194
0.032400639
0.031910524
0.025568942
0.018634405
0.026346551
0.064420538
0.099949593
0.10186701
0.091010818
4.3607811e-12
1.3703084e-10
1.1205438e-09
4.8189683e-09
1.4828868e-08
3.741796e-08
8.2968889e-08
1.6813759e-07
3.1904127e-07
5.7593187e-07
1.0000073e-06
1.6832876e-06
2.7628712e-06
4.4414208e-06
7.0164807e-06
1.092224e-05
1.6788748e-05
2.5525403e-05
3.8437917e-05
5.739082e-05
8.5030868e-05
0.0001250898
0.00018278642
0.00026534498
0.00038263302
0.00054788583
0.00077840562
0.0010959691
0.0015264093
0.0020974523
0.0028335436
0.0037467068
0.0048246929
0.006022603
0.007268058
0.0084834558
0.009612193
0.01063049
0.011541983
0.012365813
0.013127189
0.013852443
0.014567262
0.015296428
0.01606336
0.016889265
0.017793498
0.018794628
0.019909817
0.021154562
0.022540132
0.024068227
0.025724152
0.027445375
0.029037055
0.030323595
0.030780916
0.028591302
0.017146148
0.0071746293
0.0086410084
0.026191504
0.077792024
0.097683851
0.093941026
4.1003102e-12
1.2884593e-10
1.0536127e-09
4.5311191e-09
1.3943043e-08
3.5182492e-08
7.8011281e-08
1.5808893e-07
2.9996935e-07
5.4149384e-07
9.4019307e-07
1.58257e-06
2.5974984e-06
4.1754788e-06
6.5961933e-06
1.0267765e-05
1.5782428e-05
2.3995051e-05
3.6133174e-05
5.3950019e-05
7.9935047e-05
0.00011759977
0.00017185827
0.00024951969
0.00035989825
0.00051551456
0.00073279134
0.001032507
0.0014395243
0.0019809485
0.0026815075
0.0035551212
0.0045934733
0.0057569014
0.0069772488
0.0081777025
0.0092989663
0.010313345
0.011221396
0.012040565
0.012795347
0.013511809
0.014215456
0.014930747
0.01568054
0.016485295
0.017363481
0.018332629
0.019409266
0.020609274
0.021946559
0.023433553
0.025064101
0.026772849
0.028314268
0.029474537
0.029273445
0.024901523
0.01082147
0.0036645517
0.0029318169
0.0089427701
0.034262828
0.073972716
0.077577992
3.8152774e-12
1.1988921e-10
9.8037048e-10
4.21613e-09
1.2973717e-08
3.2736373e-08
7.2586749e-08
1.4709445e-07
2.791037e-07
5.0381974e-07
8.747638e-07
1.4724076e-06
2.4166362e-06
3.8846585e-06
6.136639e-06
9.5522215e-06
1.468233e-05
2.2322254e-05
3.3614125e-05
5.0189514e-05
7.4365893e-05
0.00010941379
0.00015991343
0.00023221833
0.00033503356
0.0004800893
0.00068282811
0.00096290048
0.0013440412
0.0018525596
0.0025133147
0.0033420831
0.0043347074
0.0054574028
0.0066472071
0.0078289134
0.0089406739
0.0099503702
0.010854783
0.011669127
0.012416882
0.013123718
0.013814921
0.014514636
0.015245227
0.016026533
0.016876369
0.017811634
0.018848994
0.020005777
0.021303656
0.022776085
0.024414665
0.02615811
0.027736297
0.028670992
0.027271426
0.01947179
0.0063425929
0.0021362386
0.0011054099
0.0025525269
0.0096997732
0.031391605
0.039121489
3.5115679e-12
1.103456e-10
9.0232926e-10
3.8805042e-09
1.1940899e-08
3.0130101e-08
6.6807275e-08
1.3538111e-07
2.5687501e-07
4.6368713e-07
8.0506972e-07
1.3550738e-06
2.2240158e-06
3.5749579e-06
5.6472931e-06
8.7903576e-06
1.3511112e-05
2.0541438e-05
3.093255e-05
4.6186474e-05
6.8437429e-05
0.00010069893
0.00014719462
0.00021379028
0.00030853678
0.00044231091
0.00062948805
0.00088847236
0.0012417137
0.0017145307
0.0023316987
0.0031106908
0.004051565
0.0051269119
0.0062799589
0.0074381702
0.0085375938
0.0095413277
0.010441642
0.011250869
0.011991073
0.012687328
0.013364609
0.014046732
0.014755615
0.015510559
0.016328926
0.01722733
0.018223302
0.019336067
0.020605598
0.022065005
0.023735396
0.025539166
0.027146738
0.027358475
0.023841
0.011478804
0.0033983884
0.0011345839
0.00049921259
0.00080284685
0.0025396131
0.0079777921
0.010171334
3.1957155e-12
1.0042042e-10
8.2116776e-10
3.531461e-09
1.0866806e-08
2.7419734e-08
6.0797155e-08
1.2320081e-07
2.3376123e-07
4.2195881e-07
7.3260892e-07
1.23309e-06
2.0237757e-06
3.2530292e-06
5.1386627e-06
7.9985238e-06
1.2293896e-05
1.8690772e-05
2.8145866e-05
4.2026499e-05
6.2276199e-05
9.1640745e-05
0.00013397173
0.0001946248
0.00028096403
0.00040296527
0.00057386701
0.000810725
0.0011345561
0.0015694796
0.002139917
0.0028647518
0.0037481139
0.004769261
0.0058785557
0.0070074152
0.0080906039
0.0090863233
0.0099816142
0.010785169
0.011517106
0.012201603
0.012863179
0.013525233
0.014209229
0.01493393
0.015716337
0.016572976
0.017522445
0.018588228
0.019823011
0.021269219
0.02299153
0.024774137
0.025961848
0.024863499
0.017369834
0.005356189
0.00162572
0.00058472378
0.00028457813
0.0003256987
0.00066447466
0.0015014069
0.0019580748
2.8746321e-12
9.0330869e-11
7.3866226e-10
3.1766395e-09
9.7749452e-09
2.4664583e-08
5.4687893e-08
1.1082e-07
2.1026792e-07
3.7954728e-07
6.5896555e-07
1.1091223e-06
1.8202911e-06
2.925904e-06
4.6218525e-06
7.1940001e-06
1.105723e-05
1.6810591e-05
2.531476e-05
3.7800087e-05
5.6016052e-05
8.2435669e-05
0.00012053082
0.00017513515
0.00025290721
0.00036289185
0.00051714164
0.00073128342
0.0010247695
0.0014203107
0.0019416632
0.002608719
0.0034293174
0.0043894033
0.0054472626
0.0065396951
0.0076014127
0.0085859695
0.009474571
0.010271421
0.010994015
0.011665218
0.012308837
0.01294769
0.013602634
0.014291773
0.015031573
0.015838193
0.016730836
0.017739391
0.018916461
0.020347721
0.022054827
0.023479029
0.023183595
0.019415219
0.0074942206
0.0022601224
0.00074105819
0.00032234379
0.00020119063
0.0001905091
0.00023774799
0.00032416987
0.00036118459
2.5552588e-12
8.0295047e-11
6.565961e-10
2.8237087e-09
8.6889114e-09
2.192418e-08
4.8611468e-08
9.8506081e-08
1.8690232e-07
3.3736791e-07
5.8572837e-07
9.8584394e-07
1.6179474e-06
2.6006284e-06
4.1079874e-06
6.3940923e-06
9.8276933e-06
1.4941271e-05
2.2499962e-05
3.3597786e-05
4.9790911e-05
7.3280269e-05
0.00010715825
0.00015573537
0.00022496017
0.00032293464
0.00046049864
0.00065179413
0.00091459946
0.0012700167
0.0017408008
0.0023473639
0.0031007161
0.0039932414
0.0049916292
0.0060394192
0.0070728719
0.0080416504
0.0089207767
0.0097090998
0.010420672
0.011076457
0.01169916
0.012310718
0.012931004
0.013577156
0.014264314
0.015007614
0.015827299
0.016744221
0.017839983
0.019237514
0.020575416
0.020508881
0.017874281
0.0084572276
0.0026926103
0.00087543212
0.00035036691
0.00020462382
0.00016332083
0.00014903513
0.0001507822
0.00015672446
0.00014968324
2.2443273e-12
7.0524497e-11
5.7669921e-10
2.480108e-09
7.6315969e-09
1.9256282e-08
4.2695921e-08
8.6518476e-08
1.6415656e-07
2.963088e-07
5.1443891e-07
8.6584879e-07
1.4210006e-06
2.2840409e-06
3.6078663e-06
5.615603e-06
8.6311035e-06
1.3122046e-05
1.9760527e-05
2.9507728e-05
4.3731287e-05
6.4366439e-05
9.4134278e-05
0.00013683199
0.00019770853
0.00028393107
0.00040512546
0.00057392405
0.00080635654
0.0011217469
0.0015415225
0.0020860766
0.0027688724
0.0035880848
0.0045188513
0.0055127492
0.0065094203
0.0074559265
0.0083211865
0.0090979265
0.0097958105
0.010433119
0.011030867
0.011609598
0.012187519
0.012780037
0.013399116
0.014058071
0.014759986
0.015550079
0.01655325
0.017576083
0.017483832
0.015208472
0.0077739037
0.0027139751
0.00091183296
0.00035960645
0.00020206115
0.00015929211
0.00014423856
0.00013472919
0.00012632045
0.00012096375
0.00011225006
1.9480136e-12
6.1213299e-11
5.0055883e-10
2.1526639e-09
6.6240072e-09
1.6713884e-08
3.7058744e-08
7.5095221e-08
1.4248216e-07
2.5718481e-07
4.4651158e-07
7.5151685e-07
1.2333556e-06
1.9824169e-06
3.1313996e-06
4.8739554e-06
7.4911624e-06
1.1388948e-05
1.7150721e-05
2.5610961e-05
3.7957339e-05
5.5871128e-05
8.1717852e-05
0.00011880177
0.00017169727
0.0002466647
0.00035214129
0.00049925947
0.00070226724
0.00097858544
0.0013480192
0.0018303866
0.0024407528
0.0031821359
0.0040377049
0.0049678592
0.0059175251
0.0068330367
0.0076778748
0.0084381372
0.009118107
0.0097323978
0.010299466
0.010837594
0.01136229
0.011885339
0.012412286
0.012945125
0.013479213
0.014118936
0.014713013
0.014431895
0.012201349
0.0061748025
0.0024384952
0.00088472013
0.0003557287
0.0001966902
0.00015407305
0.0001401758
0.00013075478
0.00012503024
0.00011765901
0.0001098777
0.00010172323
1.6716189e-12
5.2528033e-11
4.29537e-10
1.847233e-09
5.6841607e-09
1.4342444e-08
3.1800707e-08
6.4440464e-08
1.2226638e-07
2.2069469e-07
3.8315903e-07
6.4488833e-07
1.0583595e-06
1.7011345e-06
2.6870798e-06
4.1823648e-06
6.4281797e-06
9.7728564e-06
1.4717058e-05
2.1976987e-05
3.2572175e-05
4.7946337e-05
7.0131789e-05
0.00010196962
0.00014739792
0.00021181659
0.00030252506
0.00042919985
0.00060431895
0.00084332903
0.001164173
0.0015855662
0.0021232712
0.0027839871
0.0035580157
0.0044146718
0.0053058686
0.0061793717
0.0069945533
0.0077308642
0.0083863197
0.0089707014
0.0094986654
0.0099847363
0.010440236
0.01086951
0.011267374
0.011607667
0.011951633
0.012137465
0.011583453
0.0093126613
0.0045110733
0.0019236206
0.00078111235
0.00034033556
0.00019169797
0.00014804525
0.00013640668
0.00012875833
0.00012023444
0.00011422669
0.00010943988
0.00010425573
9.750056e-05
1.419285e-12
4.4598835e-11
3.6469766e-10
1.5683904e-09
4.826134e-09
1.2177472e-08
2.7000513e-08
5.4713614e-08
1.0381149e-07
1.8738374e-07
3.2532738e-07
5.4755454e-07
8.9862199e-07
1.4443851e-06
2.2815236e-06
3.5511237e-06
5.4579675e-06
8.2978064e-06
1.2495737e-05
1.8659893e-05
2.7656061e-05
4.0710476e-05
5.9549882e-05
8.6589525e-05
0.00012518025
0.00017992343
0.00025705367
0.00036486711
0.00051412769
0.00071829738
0.00099329426
0.0013562869
0.0018228729
0.0024021475
0.0030901882
0.0038646875
0.00468548
0.0055039054
0.0062771325
0.0069785927
0.0075994385
0.0081433211
0.008619348
0.0090359211
0.0093971809
0.0096941334
0.0099018617
0.010004391
0.0099097773
0.0091175153
0.0066004429
0.0031730913
0.0014114034
0.00062498669
0.00030353313
0.00018400258
0.00014353442
0.00013226987
0.00012540866
0.00011867966
0.00011345244
0.00010916945
0.00010365956
9.874756e-05
9.2900756e-05
1.193802e-12
3.7513372e-11
3.0675767e-10
1.3192193e-09
4.0594122e-09
1.0242891e-08
2.2711183e-08
4.6022053e-08
8.7321103e-08
1.576192e-07
2.736537e-07
4.6058679e-07
7.5589979e-07
1.2149902e-06
1.9191841e-06
2.9871599e-06
4.5911714e-06
6.9799852e-06
1.0511154e-05
1.5696176e-05
2.3263254e-05
3.4243795e-05
5.0090355e-05
7.2835154e-05
0.00010529897
0.00015135864
0.00021627504
0.00030706701
0.0004328822
0.00060525013
0.00083799195
0.0011464024
0.0015451627
0.0020444782
0.0026445627
0.0033302127
0.004069217
0.0048181029
0.0055339614
0.006185454
0.0067567067
0.0072438458
0.0076479059
0.0079682131
0.008194637
0.008298497
0.0082431725
0.0079737505
0.0070184219
0.0044614605
0.0021604198
0.0010035476
0.00047634633
0.00025675838
0.00017109065
0.00013969947
0.00012869611
0.00012299294
0.0001171517
0.00011305287
0.00010847262
0.00010424773
9.9831631e-05
9.5965281e-05
9.0635625e-05
9.9644231e-13
3.1311648e-11
2.560444e-10
1.1011269e-09
3.3883246e-09
8.5496223e-09
1.8956913e-08
3.8414764e-08
7.288806e-08
1.3156845e-07
2.2842822e-07
3.8447291e-07
6.3099242e-07
1.0142333e-06
1.6020869e-06
2.4936242e-06
3.8326345e-06
5.8267643e-06
8.7744412e-06
1.3102537e-05
1.9418698e-05
2.8583457e-05
4.1808537e-05
6.0789006e-05
8.787755e-05
0.0001263081
0.00018047127
0.00025623178
0.00036125197
0.0005052357
0.00069992217
0.00095853343
0.0012942406
0.0017171913
0.0022300026
0.002822757
0.0034702479
0.0041348207
0.0047752596
0.0053570083
0.0058573955
0.0062635538
0.0065654044
0.0067486481
0.0067786028
0.006639031
0.0062167311
0.0051909693
0.0029357943
0.0014550149
0.00070275015
0.00035982953
0.00021377431
0.00015645724
0.0001351228
0.00012674954
0.00012234947
0.00011715422
0.00011298032
0.00010850388
0.00010394809
9.9970588e-05
9.5799014e-05
9.3073781e-05
8.867548e-05
8.2684506e-13
2.5982323e-11
2.1246508e-10
9.1371444e-10
2.8116429e-09
7.0945611e-09
1.5730807e-08
3.187774e-08
6.0485703e-08
1.0918322e-07
1.8956679e-07
3.1907073e-07
5.2366563e-07
8.4173644e-07
1.3296329e-06
2.0695815e-06
3.1809177e-06
4.8359583e-06
7.2823217e-06
1.0874133e-05
1.6115348e-05
2.3719402e-05
3.4690426e-05
5.0432294e-05
7.2892218e-05
0.00010474481
0.00014961869
0.00021235823
0.00029929258
0.00041844631
0.00057956077
0.00079369969
0.0010721018
0.0014238893
0.0018524423
0.0023510435
0.0028997176
0.003466088
0.0040115079
0.0044995183
0.0049010111
0.0051926488
0.0053515287
0.005342003
0.0051552922
0.0046692748
0.0035549362
0.0019651773
0.00097246376
0.00049361585
0.00027434983
0.00018089472
0.00014321163
0.00013036323
0.00012523464
0.00012230205
0.00011721946
0.0001127925
0.00010833725
0.00010429544
0.00010064652
9.7510505e-05
9.3872044e-05
9.1201881e-05
8.7368567e-05
6.830113e-13
2.146257e-11
1.7550581e-10
7.5477149e-10
2.3225644e-09
5.8605389e-09
1.2994787e-08
2.6333792e-08
4.996751e-08
9.0198884e-08
1.5660973e-07
2.6360601e-07
4.3264782e-07
6.9545404e-07
1.0985883e-06
1.7099949e-06
2.6282741e-06
3.9957837e-06
6.0170484e-06
8.9844731e-06
1.3313995e-05
1.9594073e-05
2.8652235e-05
4.1644135e-05
6.0170337e-05
8.6425202e-05
0.00012337895
0.000174986
0.00024639651
0.00034411778
0.00047602234
0.00065102489
0.00087816385
0.0011647765
0.0015135919
0.0019190445
0.0023641955
0.0028204868
0.003251705
0.0036202732
0.0038912968
0.004031551
0.0040068926
0.0038024615
0.0033164438
0.0023108188
0.0012513962
0.00065185956
0.00034933741
0.00021434785
0.00015622978
0.00013335104
0.00012537105
0.00012373191
0.0001221714
0.00011798647
0.00011335368
0.00010893483
0.00010515535
0.00010188041
9.8397413e-05
9.5284786e-05
9.2026622e-05
8.988219e-05
8.6372186e-05
5.6140737e-13
1.7641353e-11
1.4425864e-10
6.2039331e-10
1.9090731e-09
4.8172327e-09
1.0681608e-08
2.1646624e-08
4.1074808e-08
7.4148366e-08
1.2874578e-07
2.1671267e-07
3.5569575e-07
5.7177806e-07
9.032495e-07
1.405979e-06
2.1610342e-06
3.2854371e-06
4.9472603e-06
7.3866793e-06
1.0945098e-05
1.6105045e-05
2.3544137e-05
3.420687e-05
4.9397988e-05
7.0900169e-05
0.00010111554
0.00014322349
0.00020133333
0.00028058587
0.00038711787
0.00052774667
0.00070916656
0.00093641635
0.0012104752
0.0015252186
0.0018647244
0.0022026499
0.0025047992
0.0027334198
0.0028505157
0.0028219238
0.0026298448
0.0021756317
0.0014071187
0.0007782657
0.00042469674
0.00025050296
0.00017063862
0.00013846289
0.00012518143
0.00012226903
0.00012241106
0.00012188814
0.00011952159
0.00011419203
0.00010949831
0.00010594107
0.00010264705
9.9179353e-05
9.5900896e-05
9.3018552e-05
9.0001747e-05
8.8189138e-05
8.5320037e-05
4.5732634e-13
1.437077e-11
1.1751419e-10
5.0537893e-10
1.5551639e-09
3.9242541e-09
8.7017047e-09
1.7634706e-08
3.3463076e-08
6.0409579e-08
1.0489443e-07
1.7657115e-07
2.8982127e-07
4.6590182e-07
7.3601693e-07
1.1456922e-06
1.7609744e-06
2.6771723e-06
4.0311042e-06
6.0181365e-06
8.9156709e-06
1.311516e-05
1.9165108e-05
2.78277e-05
4.0151421e-05
5.7560647e-05
8.1959916e-05
0.00011584374
0.00016239045
0.00022549756
0.00030968408
0.0004197417
0.00055997268
0.00073284624
0.00093698725
0.0011647319
0.001400099
0.0016183826
0.0017880475
0.0018740853
0.0018459357
0.0016871569
0.0013194564
0.00083284201
0.0004734473
0.0002771192
0.00017909116
0.00013899464
0.00012322093
0.00011898691
0.00011986797
0.0001220328
0.00012239736
0.00012067356
0.00011531526
0.00011026333
0.0001069086
0.00010349265
0.00010003113
9.6887738e-05
9.4027257e-05
9.1480266e-05
8.8880705e-05
8.7073859e-05
8.4598007e-05
3.6570588e-13
1.1491742e-11
9.3971579e-11
4.0413351e-10
1.2436194e-09
3.1381545e-09
6.9587246e-09
1.4102744e-08
2.6761654e-08
4.8313205e-08
8.3893067e-08
1.4122346e-07
2.3180866e-07
3.7265188e-07
5.8870988e-07
9.1638542e-07
1.4084708e-06
2.1411044e-06
3.2234919e-06
4.8113757e-06
7.1255012e-06
1.0476587e-05
1.5298479e-05
2.2191112e-05
3.197425e-05
4.5751335e-05
6.4979175e-05
9.1532531e-05
0.00012774129
0.00017636009
0.00024040516
0.00032276226
0.00042545388
0.00054847372
0.00068815651
0.00083549005
0.00097492038
0.0010845836
0.0011380945
0.0011122358
0.00098830723
0.00073427573
0.0004610298
0.00028224319
0.00018002129
0.00013217299
0.00011262275
0.00011050763
0.00011283941
0.00011837575
0.00012341172
0.00012345004
0.00012183937
0.00011659307
0.00011107134
0.00010779584
0.00010430426
0.00010091514
9.7904014e-05
9.5135114e-05
9.2479287e-05
9.0081479e-05
8.7749972e-05
8.6177286e-05
8.3917992e-05
2.8251177e-13
8.8774958e-12
7.2594107e-11
3.1219852e-10
9.6071897e-10
2.4243093e-09
5.3758827e-09
1.0895104e-08
2.0675165e-08
3.7325876e-08
6.4815253e-08
1.0910947e-07
1.7909572e-07
2.8790674e-07
4.5481228e-07
7.0790647e-07
1.0879033e-06
1.6534609e-06
2.4885887e-06
3.7128471e-06
5.4952051e-06
8.072543e-06
1.1773774e-05
1.7050255e-05
2.451226e-05
3.4969355e-05
4.9468808e-05
6.9319809e-05
9.6081281e-05
0.00013147697
0.00017718567
0.00023443739
0.00030337463
0.00038208487
0.0004655669
0.00054479702
0.0006064472
0.00063365113
0.00061145291
0.00052812559
0.00038295938
0.00024941945
0.00016390019
0.00011844747
9.852811e-05
9.4036051e-05
9.8477541e-05
0.0001078496
0.00012115692
0.00012461972
0.00012471639
0.00012318135
0.00011802248
0.00011204071
0.00010880356
0.00010530348
0.00010198688
9.896368e-05
9.6116254e-05
9.3374375e-05
9.088688e-05
8.8612604e-05
8.6503177e-05
8.4960348e-05
8.3148847e-05
2.0623359e-13
6.4805707e-12
5.2993672e-11
2.2790499e-10
7.0132718e-10
1.7697608e-09
3.9244506e-09
7.9535783e-09
1.509318e-08
2.7248303e-08
4.7315083e-08
7.9647213e-08
1.3072802e-07
2.1013374e-07
3.3190667e-07
5.1650083e-07
7.9352006e-07
1.2055393e-06
1.8133828e-06
2.7033203e-06
3.9967063e-06
5.862592e-06
8.5336811e-06
1.2325536e-05
1.7657906e-05
2.507506e-05
3.5258591e-05
4.9020761e-05
6.7258936e-05
9.0842592e-05
0.0001203951
0.00015595523
0.00019646377
0.00023920409
0.00027927297
0.00030936874
0.00032006484
0.00030407861
0.00025427799
0.00018565339
0.00013101851
9.5751843e-05
7.9705004e-05
7.4726349e-05
7.8417552e-05
8.8576868e-05
0.00010882385
0.00012287455
0.0001264566
0.00012633015
0.00012482054
0.00011968525
0.00011316277
0.00010988629
0.00010629598
0.00010300667
9.9937863e-05
9.6997802e-05
9.4292299e-05
9.1838817e-05
8.9606091e-05
8.7606546e-05
8.5713931e-05
8.4315029e-05
8.268127e-05
1.3865078e-13
4.356884e-12
3.5627559e-11
1.5321978e-10
4.7149861e-10
1.1897954e-09
2.6383524e-09
5.3469932e-09
1.0146494e-08
1.8317053e-08
3.180433e-08
5.3531982e-08
8.7851224e-08
1.4118373e-07
2.2293527e-07
3.4678477e-07
5.3248783e-07
8.0837352e-07
1.2147552e-06
1.808508e-06
2.6690672e-06
3.9060227e-06
5.6682592e-06
8.1540741e-06
1.1620725e-05
1.639015e-05
2.2844936e-05
3.1404911e-05
4.2470173e-05
5.6313324e-05
7.2909698e-05
9.1692832e-05
0.00011127537
0.00012921361
0.00014190532
0.00014476071
0.00013553561
0.00011262601
8.7022029e-05
6.7954803e-05
5.7712949e-05
5.4368171e-05
5.8391179e-05
6.6341894e-05
8.4461202e-05
0.00011144865
0.0001242355
0.00012813603
0.00012800754
0.0001265197
0.00012141459
0.00011448532
0.00011093535
0.0001073207
0.00010409879
0.00010105578
9.8055244e-05
9.5322318e-05
9.2862726e-05
9.0581922e-05
8.8507788e-05
8.6594052e-05
8.4874622e-05
8.3528354e-05
8.2085513e-05
8.3626018e-14
2.6278149e-12
2.1488364e-11
9.2412154e-11
2.8437395e-10
7.175859e-10
1.5911904e-09
3.2246301e-09
6.118678e-09
1.1044732e-08
1.9174574e-08
3.2267728e-08
5.2940267e-08
8.5047881e-08
1.3422765e-07
2.0865749e-07
3.2010937e-07
4.8538971e-07
7.282742e-07
1.0820433e-06
1.5926904e-06
2.3227736e-06
3.3556536e-06
4.7994309e-06
6.7891394e-06
9.4845851e-06
1.3059543e-05
1.7676248e-05
2.3438023e-05
3.0313257e-05
3.8031986e-05
4.5969356e-05
5.3052535e-05
5.773934e-05
5.8146283e-05
5.4281288e-05
4.7322895e-05
4.0854859e-05
3.6215435e-05
3.5870753e-05
3.9409177e-05
4.5632125e-05
5.8816414e-05
8.5534342e-05
0.00011209487
0.00012491066
0.00012970679
0.00012975873
0.00012833223
0.00012337347
0.00011600884
0.00011217005
0.00010839009
0.00010532243
0.00010219042
9.9128431e-05
9.6313763e-05
9.3798776e-05
9.148447e-05
8.9322552e-05
8.7375401e-05
8.5589691e-05
8.3976456e-05
8.2762175e-05
8.1553245e-05
4.4233566e-14
1.3899678e-12
1.1366084e-11
4.8879991e-11
1.5041198e-10
3.7953474e-10
8.4154377e-10
1.7052972e-09
3.2353992e-09
5.8392173e-09
1.0135065e-08
1.7050372e-08
2.7961999e-08
4.4895165e-08
7.0802848e-08
1.099538e-07
1.6846377e-07
2.5500934e-07
3.8176323e-07
5.6557649e-07
8.2939397e-07
1.2038036e-06
1.7284553e-06
2.4528026e-06
3.4351715e-06
4.7385659e-06
6.4209535e-06
8.5173083e-06
1.10116e-05
1.3799128e-05
1.6646813e-05
1.916578e-05
2.0819135e-05
2.1225986e-05
2.0851442e-05
2.0255202e-05
2.002809e-05
2.1195775e-05
2.3715894e-05
2.9769784e-05
3.9804541e-05
5.8439434e-05
8.669451e-05
0.00011126392
0.00012448103
0.00013086548
0.00013152432
0.00013020264
0.00012552219
0.00011771375
0.00011359838
0.00010957799
0.00010645315
0.00010334854
0.00010023585
9.7459086e-05
9.4852414e-05
9.2452914e-05
9.0249613e-05
8.8256777e-05
8.648353e-05
8.4880888e-05
8.3466603e-05
8.2314009e-05
8.1174602e-05
2.0338603e-14
6.3910642e-13
5.2260764e-12
2.2474382e-11
6.9155169e-11
1.7449009e-10
3.8686643e-10
7.8385066e-10
1.4869223e-09
2.6829553e-09
4.6552817e-09
7.8282518e-09
1.2830601e-08
2.0584681e-08
3.2430657e-08
5.0296864e-08
7.6929148e-08
1.1619189e-07
1.7344932e-07
2.560235e-07
3.7369858e-07
5.3918942e-07
7.6840504e-07
1.080202e-06
1.4951418e-06
2.0325741e-06
2.7053417e-06
3.5116417e-06
4.4248392e-06
5.3841581e-06
6.2927205e-06
7.0560619e-06
7.736426e-06
8.5448509e-06
9.677543e-06
1.1267311e-05
1.3532946e-05
1.8240129e-05
2.6200358e-05
3.942417e-05
5.9211461e-05
8.4519135e-05
0.00010752465
0.00012319696
0.00013192259
0.00013324578
0.00013207536
0.00012789578
0.00011961409
0.00011520638
0.00011092523
0.00010761985
0.00010448256
0.00010153089
9.8656165e-05
9.5950046e-05
9.3390023e-05
9.1174298e-05
8.9169892e-05
8.7329698e-05
8.5661466e-05
8.4091766e-05
8.2700801e-05
8.1621406e-05
8.0682027e-05
8.5014266e-15
2.6714255e-13
2.1844476e-12
9.3938634e-12
2.890443e-11
7.2926263e-11
1.6167193e-10
3.2752926e-10
6.2119214e-10
1.1205808e-09
1.9437073e-09
3.2670656e-09
5.3516625e-09
8.579454e-09
1.3503656e-08
2.0917044e-08
3.1942632e-08
4.8150514e-08
7.1702118e-08
1.055172e-07
1.5344728e-07
2.204194e-07
3.1248498e-07
4.3667293e-07
6.0052022e-07
8.1118572e-07
1.0742279e-06
1.3925924e-06
1.7673591e-06
2.2046861e-06
2.7276607e-06
3.3694394e-06
4.2302946e-06
5.6110675e-06
7.726931e-06
1.1023418e-05
1.6783074e-05
2.598042e-05
3.948916e-05
5.7961517e-05
8.0754995e-05
0.00010377551
0.00012328919
0.00013321946
0.00013501104
0.00013398626
0.00013032041
0.00012176342
0.00011700022
0.00011242508
0.00010890184
0.00010564212
0.00010277854
9.9923908e-05
9.7037656e-05
9.4500503e-05
9.2204169e-05
9.0135814e-05
8.8174837e-05
8.6392634e-05
8.4807908e-05
8.339509e-05
8.2178742e-05
8.1229323e-05
8.0369554e-05
4.0454845e-15
1.2712229e-13
1.0394882e-12
4.4701274e-12
1.3754202e-11
3.4701482e-11
7.6929041e-11
1.558466e-10
2.9557424e-10
5.3318999e-10
9.2486194e-10
1.5546277e-09
2.5468546e-09
4.083754e-09
6.4297278e-09
9.9647733e-09
1.5229603e-08
2.2985441e-08
3.4291455e-08
5.0602336e-08
7.3887561e-08
1.0677319e-07
1.5270905e-07
2.1617582e-07
3.0298267e-07
4.2079521e-07
5.8022588e-07
7.9718275e-07
1.0977699e-06
1.5268393e-06
2.1550408e-06
3.1035244e-06
4.5909925e-06
6.9907925e-06
1.0825341e-05
1.6901166e-05
2.5955888e-05
3.8686696e-05
5.5951028e-05
7.7787359e-05
0.00010155282
0.00012331906
0.00013447003
0.00013684334
0.00013595859
0.00013271835
0.00012427981
0.00011899472
0.00011406325
0.00011032367
0.00010689779
0.00010398571
0.00010116732
9.8335301e-05
9.5681846e-05
9.331477e-05
9.1027818e-05
8.904314e-05
8.7244708e-05
8.5649299e-05
8.4215455e-05
8.2881693e-05
8.1692205e-05
8.0741033e-05
7.9959907e-05
3.3295949e-15
1.0462702e-13
8.5555448e-13
3.6792653e-12
1.1321376e-11
2.8565946e-11
6.3335707e-11
1.2833454e-10
2.434686e-10
4.3938637e-10
7.6262029e-10
1.283011e-09
2.1043684e-09
3.3797024e-09
5.332875e-09
8.2892433e-09
1.2718863e-08
1.9297253e-08
2.8990853e-08
4.317771e-08
6.38197e-08
9.371338e-08
1.368675e-07
1.9909865e-07
2.8902743e-07
4.1961632e-07
6.1080234e-07
8.9414786e-07
1.3206204e-06
1.9732087e-06
2.9862791e-06
4.5734806e-06
7.0626724e-06
1.0941902e-05
1.6861218e-05
2.5534903e-05
3.772164e-05
5.4334726e-05
7.5733846e-05
9.9764275e-05
0.00012213988
0.00013542414
0.00013870302