/*--------------------------------*- C++ -*----------------------------------*\
  =========                 |
  \\      /  F ield         | OpenFOAM: The Open Source CFD Toolbox
   \\    /   O peration     | Website:  https://openfoam.org
    \\  /    A nd           | Version:  13
     \\/     M anipulation  |
\*---------------------------------------------------------------------------*/
FoamFile
{
    format      ascii;
    class       volVectorField;
    location    "38.503526";
    object      UMean;
}
// * * * * * * * * * * * * * * * * * * * * * * * * * * * * * * * * * * * * * //

dimensions      [0 1 -1 0 0 0 0];

internalField   nonuniform List<vector> 
17140
(
(-1.8054107e-06 8.3853028e-05 -8.1526274e-23)
(-2.0525898e-05 0.00025847496 -6.4437242e-24)
(-6.0646505e-05 0.00044984063 4.2606034e-22)
(-0.00013037559 0.00065908255 -4.6866409e-22)
(-0.00023732852 0.00088739128 5.4827899e-23)
(-0.00039185398 0.0011358777 -1.7953424e-22)
(-0.00060670421 0.001405536 -3.0252248e-22)
(-0.00089730713 0.0016971823 1.480367e-22)
(-0.0012822773 0.0020113808 4.8501389e-22)
(-0.0017839169 0.002348353 1.1917403e-21)
(-0.0024287336 0.0027078714 -1.7720213e-21)
(-0.0032479489 0.0030891391 1.5839748e-21)
(-0.0042779718 0.0034906571 2.4300157e-22)
(-0.0055607836 0.0039100828 -1.3834462e-21)
(-0.0071441713 0.0043440935 1.5435785e-22)
(-0.00908173 0.0047882615 -1.2319324e-21)
(-0.011432546 0.0052369684 4.6549936e-23)
(-0.014260476 0.005683376 -1.0093992e-23)
(-0.017632942 0.0061194874 -7.4865581e-22)
(-0.021619221 0.0065363286 9.8329545e-22)
(-0.026288271 0.0069242762 -4.7850593e-22)
(-0.031706262 0.0072735477 9.3327107e-23)
(-0.037934068 0.0075748417 6.9213388e-22)
(-0.045025329 0.0078201074 -6.9749791e-22)
(-0.053026208 0.0080034014 -1.1243344e-21)
(-0.06197513 0.0081218152 9.1735198e-22)
(-0.07190159 0.0081762858 4.5493542e-21)
(-0.082833498 0.0081715479 5.3760313e-22)
(-0.094797553 0.0081157679 -4.816455e-21)
(-0.10782285 0.0080188522 -1.1332441e-21)
(-0.12193625 0.0078874954 -4.0981481e-21)
(-0.13715476 0.0077237745 5.4690732e-21)
(-0.1534935 0.0075272427 -1.4337812e-21)
(-0.17095809 0.0072967151 -6.9626011e-22)
(-0.18954373 0.0070304732 -6.8648939e-21)
(-0.20923087 0.006725635 3.0528998e-21)
(-0.22997893 0.006377989 -4.604604e-21)
(-0.25171735 0.0059821999 -3.1235621e-21)
(-0.27433502 0.0055322802 -1.4273204e-21)
(-0.29766847 0.005023106 4.3419457e-21)
(-0.32149087 0.0044517912 8.1434528e-21)
(-0.34550191 0.0038188595 7.3376573e-21)
(-0.3693159 0.0031265997 3.1786028e-21)
(-0.39245622 0.0023765195 -1.5172298e-20)
(-0.41435561 0.0015678658 -1.0910738e-20)
(-0.43435402 0.00069999398 2.6401118e-21)
(-0.45177476 -0.00023131891 -1.7617009e-20)
(-0.4659708 -0.0012363475 -5.8732734e-21)
(-0.47618914 -0.0023217896 5.8859477e-21)
(-0.48189395 -0.0034715058 1.4201915e-20)
(-0.48258305 -0.0046648267 -8.6577791e-21)
(-0.47786357 -0.0058929832 -5.4348462e-21)
(-0.46728183 -0.0071746275 1.4126849e-20)
(-0.45051201 -0.0085129339 6.6922105e-21)
(-0.42697337 -0.0098546827 4.8139609e-21)
(-0.39634836 -0.011102945 -3.792223e-21)
(-0.35795825 -0.012082639 1.0523158e-20)
(-0.31148542 -0.01244687 8.9417547e-21)
(-0.25550649 -0.011663642 2.3013276e-21)
(-0.19047466 -0.0091194363 -6.0040664e-21)
(-0.11369289 -0.0043884706 -4.8433578e-21)
(-0.028210279 0.0020921996 -1.8367197e-20)
(0.072467243 0.0077668278 -2.7675257e-21)
(0.17140704 0.0086000618 2.3641264e-20)
(0.28083109 0.0037481604 -1.872315e-20)
(-1.6280488e-05 0.00038085631 2.3111068e-23)
(-6.4858072e-05 0.001173459 -2.2302269e-21)
(-0.00013724685 0.0020412818 1.9852903e-21)
(-0.0002417301 0.0029892567 -5.4167098e-22)
(-0.00038594864 0.0040222318 -1.1193646e-21)
(-0.00058022833 0.0051446078 2.1403339e-21)
(-0.00083723135 0.006360133 -2.2337678e-21)
(-0.0011722278 0.0076716087 1.9683983e-22)
(-0.0016035706 0.0090805206 -6.1544935e-22)
(-0.0021531887 0.01058661 -1.0252592e-23)
(-0.0028470822 0.012187375 -2.0638256e-21)
(-0.0037158116 0.013877513 3.2904217e-21)
(-0.0047949558 0.015648313 2.7269177e-22)
(-0.0061254845 0.017487042 -2.7037255e-21)
(-0.0077539874 0.019376364 8.3537921e-22)
(-0.0097326853 0.021293879 5.3358214e-22)
(-0.012119138 0.023211887 -3.4043059e-21)
(-0.014975564 0.025097511 1.1179601e-20)
(-0.018367705 0.026913345 -7.0605181e-21)
(-0.0223632 0.028618782 8.5340734e-21)
(-0.027029519 0.030172161 -1.2739171e-20)
(-0.032431601 0.031533735 3.1581965e-21)
(-0.038629454 0.032669338 1.3180235e-21)
(-0.045676255 0.033554322 -4.3482562e-21)
(-0.053618064 0.034177123 1.58483e-20)
(-0.062493834 0.034541708 2.3793925e-21)
(-0.072333458 0.034667579 -1.2576598e-20)
(-0.083165299 0.034584754 1.4260364e-20)
(-0.095016589 0.034327915 -2.0128552e-21)
(-0.10791605 0.03392818 -1.9693529e-20)
(-0.12189003 0.033409517 2.0863537e-21)
(-0.13695453 0.032787396 1.599767e-20)
(-0.15312353 0.032071138 3.7879066e-22)
(-0.17040093 0.03126678 -1.2186678e-20)
(-0.1887796 0.030376811 1.374842e-20)
(-0.20823704 0.029398297 -6.2266074e-21)
(-0.22872903 0.028321716 7.436369e-21)
(-0.25018053 0.027131269 2.3647445e-20)
(-0.27247511 0.025806293 5.2745673e-21)
(-0.29544337 0.024323999 2.065914e-20)
(-0.31885162 0.02266265 -2.6481897e-20)
(-0.34239098 0.020803145 -2.4115797e-20)
(-0.36566514 0.018728717 -4.0298272e-21)
(-0.38818203 0.01642408 3.2465165e-20)
(-0.40935151 0.013878749 -1.4990676e-20)
(-0.42848964 0.011098113 -5.0932074e-21)
(-0.44487318 0.0081057025 2.7495404e-21)
(-0.45781373 0.0049251138 8.3244034e-21)
(-0.4666388 0.0015932752 -4.0184867e-21)
(-0.47073914 -0.0018207151 7.1580177e-21)
(-0.46961386 -0.0052713261 4.2784152e-20)
(-0.46285849 -0.0087386626 2.0442786e-21)
(-0.4500679 -0.012227867 -9.1784034e-21)
(-0.43090216 -0.015754635 2.0464799e-20)
(-0.40488569 -0.01929401 -1.7616953e-20)
(-0.37170549 -0.022773668 5.0619056e-20)
(-0.33064535 -0.026062205 1.4633002e-20)
(-0.28145696 -0.028869748 -4.2249699e-20)
(-0.22273867 -0.030665042 7.2581756e-21)
(-0.15495896 -0.030849823 8.558762e-21)
(-0.075602409 -0.028843142 1.7702336e-21)
(0.01194032 -0.025301399 -2.3930862e-20)
(0.1146419 -0.021434881 4.8011433e-20)
(0.21587075 -0.021180489 1.4567712e-20)
(0.327961 -0.02500337 2.4901246e-20)
(-4.7021487e-05 0.00067169346 1.273066e-21)
(-0.00015881029 0.0020696686 -6.7097885e-22)
(-0.00029954931 0.0036004073 -1.7848117e-22)
(-0.00047747675 0.0052726871 1.6940055e-22)
(-0.00070033061 0.007095071 -8.2109071e-22)
(-0.00097833461 0.0090753588 -6.0910313e-23)
(-0.0013239197 0.011220198 -7.8135886e-22)
(-0.001751959 0.013534554 -8.4279656e-22)
(-0.0022801788 0.016021095 6.9045438e-21)
(-0.0029296478 0.018679423 -6.1778181e-21)
(-0.0037252008 0.021505189 2.9643275e-21)
(-0.0046959019 0.024489103 4.3558628e-21)
(-0.0058754637 0.02761586 -8.6730393e-21)
(-0.0073025986 0.030863034 -1.0772934e-21)
(-0.0090212408 0.034200046 4.1877969e-21)
(-0.011080581 0.037587319 2.8965196e-21)
(-0.013534827 0.040975843 -3.3842879e-21)
(-0.016442629 0.044307362 1.2352484e-20)
(-0.019866082 0.047515514 -7.3755926e-21)
(-0.023869299 0.050528192 3.6818307e-21)
(-0.028516569 0.053271386 -1.2570802e-20)
(-0.033870232 0.055674561 -3.3100567e-21)
(-0.039988497 0.057677317 7.0005198e-21)
(-0.04692362 0.059236573 -1.0670581e-20)
(-0.054721496 0.060333036 -4.2435358e-21)
(-0.063422131 0.060975409 5.2089182e-21)
(-0.073056291 0.061200165 2.9892789e-20)
(-0.083653495 0.061062379 1.3666295e-20)
(-0.095241487 0.060622989 -6.9896886e-21)
(-0.10784821 0.059935101 7.4725653e-21)
(-0.12149952 0.059040742 -4.8387167e-21)
(-0.13620913 0.057969449 -2.7378897e-20)
(-0.15198841 0.05674068 9.2862991e-21)
(-0.1688376 0.055367747 2.7982269e-20)
(-0.18674459 0.053857331 -9.5608618e-21)
(-0.2056804 0.052206567 -1.3403409e-20)
(-0.22559265 0.050400781 2.3385077e-20)
(-0.24639627 0.048413689 7.1196254e-21)
(-0.26796261 0.046209892 -1.286896e-20)
(-0.29010776 0.043748697 -5.2009881e-21)
(-0.31258056 0.040988623 2.4792096e-20)
(-0.33505022 0.037889686 -7.1247037e-21)
(-0.35709251 0.034413953 -1.0181082e-20)
(-0.37818063 0.030527156 -2.6782524e-20)
(-0.39768089 0.026207619 5.0618264e-20)
(-0.4148666 0.021468144 -3.233473e-20)
(-0.42899367 0.01637142 -7.9510016e-21)
(-0.43933349 0.010991819 -3.1556523e-20)
(-0.44520494 0.0053981421 -3.7512641e-20)
(-0.44602798 -0.00028707326 -1.8791503e-21)
(-0.44135455 -0.0059649305 7.8658822e-21)
(-0.4308369 -0.011601378 -5.8468699e-20)
(-0.41413222 -0.017219044 -2.5017274e-20)
(-0.39092486 -0.02285356 -2.5894764e-20)
(-0.36079839 -0.028501185 -8.5501962e-21)
(-0.32346618 -0.03412189 -6.7507902e-20)
(-0.2782558 -0.039618804 2.7106701e-20)
(-0.22498783 -0.044763196 -8.5064927e-21)
(-0.16210186 -0.049012681 -7.1136308e-20)
(-0.090280859 -0.051780157 -2.8921457e-20)
(-0.0069803302 -0.052250088 3.5510518e-20)
(0.084051502 -0.051431155 1.2525771e-19)
(0.18966131 -0.049112339 -4.1268285e-20)
(0.29222871 -0.049277854 -6.7460653e-20)
(0.40525337 -0.051544121 -2.9559977e-20)
(-9.3088024e-05 0.00094661055 -4.2413771e-21)
(-0.00029956883 0.0029172864 4.8029477e-21)
(-0.0005427077 0.0050757304 -1.7374325e-21)
(-0.00083064216 0.0074345714 1.8904077e-22)
(-0.001171239 0.010006114 -3.738319e-21)
(-0.001574588 0.012801649 3.8723341e-21)
(-0.002052762 0.015830924 -5.8796448e-21)
(-0.0026200079 0.019101415 2.7719716e-21)
(-0.0032931296 0.02261744 1.0554102e-20)
(-0.0040918692 0.02637909 -2.545016e-21)
(-0.0050393103 0.030380981 -9.7157251e-21)
(-0.0061622461 0.034610857 2.977808e-21)
(-0.0074915628 0.039048056 2.0094178e-22)
(-0.0090625483 0.043661909 -7.8618822e-21)
(-0.010915105 0.048410218 2.4754141e-20)
(-0.01309381 0.053237984 -1.5310626e-20)
(-0.015647759 0.058076647 -1.4681711e-22)
(-0.01863013 0.062844213 8.6251073e-21)
(-0.022097406 0.067446678 -2.2150253e-20)
(-0.026108235 0.07178119 1.0591681e-20)
(-0.030721929 0.075741357 1.6017793e-20)
(-0.035996706 0.079224829 6.5745004e-21)
(-0.041987845 0.082142832 -3.311768e-20)
(-0.048746024 0.084430705 -1.7587717e-20)
(-0.056316751 0.086057544 1.1615704e-20)
(-0.064741263 0.087032666 -6.8607433e-21)
(-0.074051972 0.087406204 2.6280686e-20)
(-0.084280065 0.087257532 -7.67041e-21)
(-0.09545354 0.086672909 2.1067674e-20)
(-0.10759979 0.08572895 -1.2144136e-20)
(-0.12074411 0.084486427 7.5885547e-21)
(-0.13489678 0.082989829 -2.8416051e-20)
(-0.15006522 0.081269397 4.171565e-21)
(-0.16624423 0.07934581 -2.2133001e-20)
(-0.18341449 0.077229992 2.1533431e-20)
(-0.20153763 0.074919246 6.860594e-21)
(-0.22054923 0.07239384 -8.8018884e-20)
(-0.24034938 0.069617073 -2.3071872e-20)
(-0.26079159 0.066538556 1.9351013e-20)
(-0.28167081 0.063099381 -1.9099601e-20)
(-0.30271077 0.059237479 4.8519099e-21)
(-0.32354984 0.054890657 3.0825993e-20)
(-0.34372648 0.049998432 -1.4583424e-21)
(-0.36267013 0.04450752 -1.012068e-20)
(-0.37969935 0.038388559 5.032188e-21)
(-0.39405685 0.031670936 -2.2001997e-21)
(-0.40499787 0.024453986 -6.8302736e-21)
(-0.41177574 0.016865728 1.0690969e-19)
(-0.41374688 0.0090395487 -1.1818076e-20)
(-0.41040851 0.0011586908 1.0885e-20)
(-0.40140269 -0.0066402658 -1.0186741e-19)
(-0.38645608 -0.014314358 5.5881952e-20)
(-0.36527885 -0.021904541 4.5880251e-20)
(-0.33759066 -0.029472691 4.4084213e-20)
(-0.30300925 -0.037042118 4.2864543e-20)
(-0.26129963 -0.044616648 6.8253914e-20)
(-0.21181166 -0.052136052 -1.3829263e-19)
(-0.15430387 -0.059482481 8.6717172e-20)
(-0.087169925 -0.06606781 1.3491706e-19)
(-0.011191101 -0.071294873 -1.0109962e-19)
(0.076351297 -0.074103607 -3.3311283e-20)
(0.17109953 -0.075743062 -3.0167779e-20)
(0.27879794 -0.074477835 1.5575848e-19)
(0.38114664 -0.07470106 1.1649523e-19)
(0.49192834 -0.07490356 -5.2979024e-21)
(-0.00015245514 0.0011958811 2.9660613e-21)
(-0.00048100532 0.0036865098 -6.9887948e-21)
(-0.00085617412 0.0064156684 5.7008107e-21)
(-0.0012859797 0.0093997842 -2.1558514e-21)
(-0.0017784832 0.012654909 -7.7937757e-22)
(-0.0023436024 0.016195957 6.7146067e-21)
(-0.0029929633 0.020036032 -1.7039322e-21)
(-0.0037400372 0.02418554 -3.6230128e-21)
(-0.0046004496 0.028651076 -2.7886418e-22)
(-0.0055922727 0.033434101 -2.3732401e-21)
(-0.0067363369 0.038529375 3.333757e-21)
(-0.0080565333 0.043923175 -2.3271311e-21)
(-0.0095801121 0.049591314 -8.6143654e-21)
(-0.011337937 0.05549707 -2.5027669e-22)
(-0.013364674 0.06158912 6.675547e-21)
(-0.015698879 0.06779977 4.7676717e-21)
(-0.018382924 0.07404375 -4.1414123e-21)
(-0.021462733 0.080218056 4.0561745e-22)
(-0.024987272 0.086203368 8.2825682e-21)
(-0.029007768 0.091867693 1.0230945e-20)
(-0.033576655 0.097072726 -1.1867475e-20)
(-0.038746304 0.10168329 -1.2150664e-20)
(-0.044567645 0.10557956 1.6654775e-20)
(-0.051088826 0.10867091 -2.0984886e-20)
(-0.058354498 0.11090921 -3.6998729e-20)
(-0.066406595 0.11229819 8.8918704e-20)
(-0.075280791 0.11289602 -4.9841869e-20)
(-0.085009501 0.11280338 7.4984932e-20)
(-0.095620596 0.11213154 -9.5221195e-20)
(-0.1071426 0.11098326 1.0784268e-19)
(-0.11959915 0.1094379 -1.130669e-19)
(-0.132997 0.10755604 1.9362892e-20)
(-0.14733815 0.10537996 6.7354737e-20)
(-0.16261079 0.10293808 -3.8447744e-20)
(-0.17878672 0.10024575 1.2177965e-20)
(-0.19581588 0.097300419 3.6511177e-21)
(-0.21361899 0.094077398 4.4517702e-20)
(-0.23207803 0.090529725 1.4502143e-20)
(-0.2510252 0.086592177 1.4560987e-20)
(-0.27023077 0.08218734 1.466508e-20)
(-0.28938931 0.077231656 -7.4851509e-20)
(-0.30810444 0.071639236 3.2812553e-20)
(-0.32587505 0.065326308 4.9945004e-21)
(-0.34208813 0.058221925 -5.9400548e-20)
(-0.35602595 0.050295895 -2.9681488e-20)
(-0.3669283 0.041605895 1.4614254e-20)
(-0.37407462 0.032300747 5.1911478e-20)
(-0.37676292 0.022557185 -2.2579119e-20)
(-0.37441844 0.012583246 6.4608743e-20)
(-0.36662852 0.0026256323 3.4807398e-20)
(-0.35310526 -0.0071445484 4.7927957e-20)
(-0.33362688 -0.016692577 1.2772475e-19)
(-0.30791869 -0.026092203 -9.9099383e-20)
(-0.27569933 -0.035435391 3.203593e-20)
(-0.23659936 -0.044764366 -5.6365459e-20)
(-0.19041617 -0.054118981 -5.4096138e-20)
(-0.13649607 -0.06350872 -2.1303529e-20)
(-0.074553849 -0.072919617 -2.0067431e-19)
(-0.0028119693 -0.081693438 -5.5484255e-20)
(0.077709975 -0.089281426 1.2997163e-19)
(0.1699698 -0.094191069 5.0346649e-20)
(0.26816663 -0.097803369 -3.9188414e-20)
(0.37671072 -0.097034205 -8.310819e-20)
(0.47746157 -0.096618193 -1.3054348e-19)
(0.58270428 -0.094246626 1.0456343e-20)
(-0.00022200972 0.0014101796 8.9623438e-21)
(-0.00069365051 0.0043487335 2.2367278e-21)
(-0.0012236538 0.0075706553 -1.8132864e-21)
(-0.001819926 0.011096055 -6.6980429e-21)
(-0.0024907833 0.014944677 3.6728127e-21)
(-0.0032459777 0.019135153 -5.2930014e-21)
(-0.0040966548 0.023684217 2.2936453e-21)
(-0.005055428 0.028605687 5.4719763e-22)
(-0.0061365934 0.033909199 -3.1050803e-21)
(-0.0073563226 0.039598665 -6.7111386e-21)
(-0.008732871 0.045670446 -3.3646765e-22)
(-0.010286782 0.052111241 1.1124644e-20)
(-0.012041083 0.058895709 -1.5472475e-20)
(-0.01402147 0.065983911 2.5157892e-20)
(-0.016256445 0.073318731 -6.6292724e-21)
(-0.018777408 0.080823478 1.4216208e-20)
(-0.021618665 0.088400114 -1.739403e-20)
(-0.02481733 0.095928538 1.1447075e-20)
(-0.028413101 0.10326766 -1.8398798e-21)
(-0.032447886 0.11025905 -7.5852759e-21)
(-0.036965266 0.1167338 1.8781793e-20)
(-0.042009825 0.12252334 -2.7066466e-20)
(-0.047626374 0.12747393 3.0076301e-20)
(-0.053859112 0.13146373 5.2535396e-21)
(-0.060750935 0.13442006 -5.3029899e-20)
(-0.068343623 0.13633274 5.4788296e-20)
(-0.076676822 0.13725929 -3.6437973e-20)
(-0.085783775 0.13731511 4.1681051e-20)
(-0.095693919 0.13663848 3.9367674e-21)
(-0.10643694 0.1353593 2.4769715e-21)
(-0.11803328 0.13357599 -1.7526957e-20)
(-0.13048824 0.13136682 1.1131152e-21)
(-0.14379645 0.12878789 -6.7898471e-20)
(-0.15793899 0.1258762 1.8726481e-20)
(-0.17287744 0.12265172 5.6361559e-20)
(-0.18854867 0.11911224 -2.6655595e-20)
(-0.20485707 0.11522853 2.2192139e-20)
(-0.22166506 0.11094395 -2.2338032e-20)
(-0.23878218 0.10617882 -1.2534602e-19)
(-0.25595267 0.10083705 6.9588851e-20)
(-0.27284101 0.094812692 1.6984436e-20)
(-0.28901685 0.087995551 -9.6145502e-20)
(-0.30394411 0.080279349 5.8006553e-21)
(-0.31697914 0.071579616 1.1813758e-20)
(-0.32739328 0.061874955 1.2458465e-19)
(-0.33446783 0.051262944 2.8521508e-20)
(-0.33752577 0.039947475 -4.4200793e-20)
(-0.33595837 0.028150824 -4.4653226e-20)
(-0.32925913 0.016155177 -6.2658695e-20)
(-0.31706509 0.0042609286 -7.6433553e-20)
(-0.29910885 -0.0073337715 -4.6273184e-20)
(-0.2751866 -0.018606919 -7.2243187e-20)
(-0.24500949 -0.029669154 2.4794733e-20)
(-0.20827941 -0.040637589 -1.5318577e-19)
(-0.16461272 -0.051564991 -1.0260647e-20)
(-0.11380722 -0.062533198 -9.0347772e-21)
(-0.055144523 -0.073614704 -4.8520809e-21)
(0.011751864 -0.084947685 2.1561673e-19)
(0.088843805 -0.095724055 8.6551373e-20)
(0.17465493 -0.10548415 -1.3654808e-19)
(0.27174184 -0.11213228 -2.0242648e-19)
(0.37271515 -0.11700366 -9.316834e-20)
(0.48041419 -0.11607718 -3.1288712e-20)
(0.57750844 -0.11432317 1.8555505e-19)
(0.67416541 -0.10869537 -4.7803514e-20)
(-0.00029760106 0.0015812019 -1.6768392e-21)
(-0.00092502567 0.0048783809 -3.7542492e-21)
(-0.0016235703 0.0084962792 9.0676895e-21)
(-0.0024012525 0.012458447 -3.3794696e-22)
(-0.0032666393 0.016788203 -4.4241589e-21)
(-0.0042293652 0.02150793 -1.9524179e-21)
(-0.0053001218 0.026638214 -1.4440023e-21)
(-0.0064906665 0.032196772 2.8519476e-21)
(-0.0078139344 0.038197068 -1.4802639e-20)
(-0.0092841238 0.044646646 1.1209419e-20)
(-0.010916788 0.051545104 -5.4339764e-22)
(-0.012728919 0.058881729 -6.8444656e-21)
(-0.014739029 0.066632781 2.5766885e-20)
(-0.01696723 0.074758501 -2.5872369e-20)
(-0.019435297 0.083199989 3.481182e-21)
(-0.022166732 0.091876169 2.1745495e-20)
(-0.025186815 0.10068124 -2.0707728e-20)
(-0.028522648 0.10948318 7.3505134e-21)
(-0.03220319 0.11812407 -1.4504438e-20)
(-0.036259293 0.12642313 1.896294e-20)
(-0.040723721 0.13418351 3.6325892e-20)
(-0.045631151 0.14120369 -3.6752542e-20)
(-0.051018126 0.14729352 -5.501477e-20)
(-0.056922905 0.15229437 1.0854275e-19)
(-0.063385103 0.15610036 -8.895901e-20)
(-0.07044541 0.15867666 5.2700477e-20)
(-0.078145699 0.16006878 -1.3884865e-20)
(-0.086522522 0.16039709 3.3351127e-20)
(-0.095607814 0.15982598 -3.483937e-20)
(-0.10542929 0.15851217 -4.7577207e-20)
(-0.11600714 0.15657786 3.2207008e-20)
(-0.12734634 0.15411942 5.3866983e-20)
(-0.13943271 0.15120855 -4.8640751e-21)
(-0.15223989 0.14789262 -2.0611406e-21)
(-0.16571865 0.14419703 -3.603064e-20)
(-0.17979224 0.14012064 1.574632e-20)
(-0.19434843 0.1356305 5.8194229e-20)
(-0.20922999 0.13066109 2.9368777e-20)
(-0.22422384 0.12511872 -4.5328498e-20)
(-0.23904859 0.1188886 3.6065626e-20)
(-0.25334031 0.11184228 -3.049316e-20)
(-0.26663931 0.10384603 1.0373763e-20)
(-0.27838486 0.09477405 3.8704866e-20)
(-0.28792293 0.08453607 -9.2028852e-20)
(-0.29454878 0.073131908 -5.4369532e-20)
(-0.2976219 0.06070483 -3.4934826e-20)
(-0.2965409 0.047506659 1.0825437e-19)
(-0.29078669 0.033800652 6.9407881e-20)
(-0.2798798 0.019917233 8.0507042e-20)
(-0.26343608 0.0062086328 1.3909274e-19)
(-0.24118213 -0.0070904893 -4.7600558e-20)
(-0.212916 -0.019967074 1.0019049e-20)
(-0.17831802 -0.032571894 7.9575127e-20)
(-0.13707119 -0.045048509 2.3474529e-19)
(-0.08875218 -0.057451113 1.5636618e-19)
(-0.033133683 -0.069909771 6.2486895e-20)
(0.030740051 -0.082554488 1.8582866e-19)
(0.10335931 -0.095675017 -1.2852066e-19)
(0.18662416 -0.10823688 1.3551379e-20)
(0.27836859 -0.11974851 2.200113e-19)
(0.37977784 -0.1275502 1.5404103e-19)
(0.48261794 -0.13278058 7.3535555e-21)
(0.58731702 -0.13103419 -2.6098579e-19)
(0.67791523 -0.12726193 2.7818311e-20)
(0.76301407 -0.11797626 -4.1080465e-20)
(-0.00037430769 0.0017021726 -6.5537663e-21)
(-0.0011601008 0.0052544883 3.1011469e-21)
(-0.0020300059 0.0091559825 -4.1921635e-21)
(-0.0029923724 0.013433283 -2.3846672e-21)
(-0.0040560208 0.018113058 6.6627502e-21)
(-0.0052305465 0.023221362 6.2283239e-21)
(-0.0065262678 0.028782765 -6.4030925e-21)
(-0.0079541746 0.034819271 7.7171624e-22)
(-0.0095259343 0.041348911 1.792153e-22)
(-0.011253867 0.048384009 1.2787704e-20)
(-0.013150912 0.055929067 -1.4102736e-21)
(-0.015230584 0.063978224 -2.6032014e-20)
(-0.017506914 0.0725123 2.0944765e-20)
(-0.019994407 0.081495443 -7.287379e-22)
(-0.022707994 0.090871502 -1.4277824e-20)
(-0.025663019 0.10056032 -1.2433129e-21)
(-0.028875283 0.11045434 3.2023337e-21)
(-0.032361162 0.12041603 1.4650254e-20)
(-0.036137842 0.13027706 -2.7296963e-20)
(-0.040223707 0.13984018 4.8912319e-20)
(-0.044638897 0.14888508 -1.0783685e-20)
(-0.049405989 0.15717936 8.0867029e-21)
(-0.054550791 0.1644954 -6.8317939e-21)
(-0.060103055 0.17063258 2.7558399e-22)
(-0.066096816 0.1754426 -4.236921e-20)
(-0.072570169 0.17885332 -4.3245008e-20)
(-0.079564551 0.1808843 8.7516838e-20)
(-0.087121974 0.1816469 1.485571e-20)
(-0.095276461 0.1813203 -5.2870161e-20)
(-0.10405311 0.18009489 -1.9144618e-20)
(-0.11347414 0.17812276 -4.3891352e-20)
(-0.12354379 0.1755153 5.0437849e-20)
(-0.13424191 0.17236291 2.2361153e-20)
(-0.14553257 0.1687266 -5.2727198e-20)
(-0.1573559 0.16463855 2.2479702e-20)
(-0.16962187 0.16010014 1.0572292e-20)
(-0.1822021 0.155076 -3.2114987e-20)
(-0.19492034 0.14949286 -8.4461298e-20)
(-0.20754171 0.1432438 -2.572695e-20)
(-0.21976063 0.13619587 1.7322905e-20)
(-0.2311879 0.12819923 4.1136853e-20)
(-0.24134178 0.11909936 4.237979e-20)
(-0.24965044 0.10875687 4.6673421e-20)
(-0.25547216 0.097085611 9.7263243e-20)
(-0.25816055 0.08411811 -2.6220351e-21)
(-0.25716665 0.070045874 4.0370062e-20)
(-0.25198008 0.055148039 -2.1529472e-19)
(-0.24212273 0.039706572 -5.8947978e-20)
(-0.22707854 0.024076839 -6.6707335e-20)
(-0.20643561 0.0086710381 -1.8318259e-19)
(-0.17993954 -0.0062221001 2.1273821e-19)
(-0.14738077 -0.020598518 -4.736814e-20)
(-0.108395 -0.034646899 -1.5259675e-19)
(-0.062618775 -0.048531373 -1.8889491e-19)
(-0.009547652 -0.062307214 -2.4343819e-20)
(0.051185769 -0.07617576 6.1937847e-20)
(0.12083385 -0.090308219 1.0171378e-19)
(0.1999184 -0.10508299 -4.3766637e-20)
(0.28993229 -0.11913519 8.0945895e-20)
(0.38794514 -0.13176602 -6.9320612e-20)
(0.49314719 -0.13998159 -2.4054116e-20)
(0.59622503 -0.1445752 -7.297855e-20)
(0.69504427 -0.14114957 3.2552348e-19)
(0.77565113 -0.13491447 1.0953643e-20)
(0.84590676 -0.1217817 1.3473978e-19)
(-0.0004467194 0.0017684095 6.0919289e-21)
(-0.0013821915 0.0054624924 1.1395264e-21)
(-0.0024142183 0.0095241661 -1.2531482e-21)
(-0.0035515258 0.013982671 -6.1641916e-21)
(-0.0048032475 0.01886765 7.4004742e-21)
(-0.0061790292 0.024208596 -6.2924866e-21)
(-0.0076889382 0.030034026 -3.0117801e-21)
(-0.0093433605 0.036370454 1.6200028e-22)
(-0.011152903 0.043241027 2.5544438e-21)
(-0.013128262 0.050663835 1.4569255e-20)
(-0.015280067 0.058649785 -2.4552806e-20)
(-0.0176187 0.067200021 2.963354e-20)
(-0.020154098 0.076302833 -8.7511404e-21)
(-0.022895549 0.08593006 -1.1954281e-20)
(-0.02585151 0.096033048 1.8482842e-20)
(-0.029029466 0.10653831 -3.6785083e-20)
(-0.032435892 0.11734324 4.5092996e-20)
(-0.036076352 0.12831233 7.1572314e-22)
(-0.039955833 0.13927481 2.6603617e-20)
(-0.04407937 0.15002477 -1.0752122e-19)
(-0.048453026 0.16032523 2.6567005e-20)
(-0.053085237 0.16991761 1.1228666e-19)
(-0.057988455 0.17853806 -5.4347587e-20)
(-0.063180847 0.18594066 -6.6386007e-20)
(-0.068687686 0.19192607 1.7118376e-20)
(-0.074541809 0.19637116 9.1594035e-20)
(-0.080782644 0.19925246 -1.4207548e-19)
(-0.087453412 0.20065426 1.609408e-19)
(-0.094594426 0.20075232 -1.2928293e-19)
(-0.10223244 0.19976632 2.5240572e-20)
(-0.11038306 0.19789189 -4.3982612e-20)
(-0.11905277 0.19526424 -6.3599945e-20)
(-0.1282215 0.19198335 2.5587064e-20)
(-0.13784243 0.18812812 6.7686409e-21)
(-0.14784611 0.18374329 9.6981959e-20)
(-0.15812883 0.17883514 -1.9181777e-20)
(-0.16854674 0.17336742 4.943467e-20)
(-0.17890535 0.1672604 -4.2105314e-20)
(-0.18894895 0.16039512 2.5310458e-20)
(-0.19834934 0.15262189 1.6448281e-20)
(-0.20669579 0.14377216 1.4093935e-20)
(-0.21349212 0.1336756 1.4004876e-20)
(-0.21816852 0.12218755 -8.4995814e-20)
(-0.22011351 0.10923704 -6.6319299e-20)
(-0.21876009 0.094896666 1.8636929e-20)
(-0.21363325 0.079401974 -1.1597187e-20)
(-0.2042952 0.063031303 4.8192637e-20)
(-0.19024718 0.046056514 -9.4284833e-20)
(-0.17094386 0.028851429 -1.0854399e-19)
(-0.14603337 0.011900023 -3.118826e-20)
(-0.11530908 -0.0044583267 -8.1817486e-20)
(-0.078517334 -0.020226907 2.6137929e-21)
(-0.035197469 -0.035629792 3.9643094e-20)
(0.015110947 -0.050857098 1.9314348e-19)
(0.073080331 -0.065962815 -9.7429657e-20)
(0.13933368 -0.081223356 3.9769304e-20)
(0.21530362 -0.09680832 -1.186823e-19)
(0.30156354 -0.11302973 2.0325904e-19)
(0.3990153 -0.12816928 -1.1907564e-19)
(0.50346221 -0.14111151 4.2179923e-20)
(0.61145577 -0.14861957 -4.858427e-23)
(0.71202549 -0.15141256 3.4760259e-20)
(0.80115341 -0.14562454 1.3241551e-19)
(0.86761493 -0.13683927 -2.5314716e-19)
(0.91963283 -0.1204806 2.636115e-19)
(-0.0005092601 0.0017778375 -1.3473734e-20)
(-0.0015742097 0.0054957516 -6.4449055e-21)
(-0.0027466564 0.0095888644 1.0126101e-20)
(-0.0040357166 0.014088423 -2.6678976e-22)
(-0.0054508764 0.019026503 -9.176353e-21)
(-0.0070019204 0.024435613 -4.8054809e-21)
(-0.008698811 0.030347954 1.0149965e-20)
(-0.010551543 0.036794502 -1.670163e-21)
(-0.012569955 0.043803784 2.3627197e-20)
(-0.014763507 0.0514003 -4.6228357e-21)
(-0.017141004 0.059602517 -1.1868779e-22)
(-0.019710294 0.068420368 1.7177259e-20)
(-0.022477917 0.077852176 -5.5436121e-20)
(-0.025448745 0.087880954 2.6051439e-20)
(-0.028625625 0.09847012 4.7151083e-20)
(-0.032009067 0.10955864 -5.0861177e-20)
(-0.035597039 0.12105591 6.3454808e-21)
(-0.03938495 0.13283673 -3.6674882e-20)
(-0.04336593 0.14473717 -2.7761937e-20)
(-0.047531523 0.15655248 8.9206521e-20)
(-0.051872907 0.1680385 -6.8560988e-20)
(-0.056382763 0.17891848 9.2530598e-20)
(-0.061057671 0.18889725 -1.1173435e-20)
(-0.065900908 0.19768371 4.6830889e-20)
(-0.070925059 0.20502126 -1.046007e-19)
(-0.076153735 0.21072272 2.5416161e-20)
(-0.081621335 0.21470248 6.5721983e-20)
(-0.087369979 0.21699565 -1.6257078e-19)
(-0.0934428 0.2177528 7.2218123e-20)
(-0.099874096 0.21720187 7.9177275e-20)
(-0.10667814 0.21558111 -6.6710546e-20)
(-0.11385176 0.21307495 -8.9840478e-21)
(-0.12137865 0.20980624 4.6248907e-20)
(-0.12920958 0.20586099 -2.5991703e-20)
(-0.13726158 0.20129488 4.0400449e-20)
(-0.14542096 0.19612533 -1.4397363e-19)
(-0.15352919 0.19031944 7.6445669e-20)
(-0.16137332 0.18379359 4.6434336e-20)
(-0.16867681 0.17641886 9.5952441e-20)
(-0.17509015 0.16803129 1.2647468e-20)
(-0.18018471 0.15844766 -1.038709e-19)
(-0.18345644 0.14748834 4.184495e-20)
(-0.18434711 0.13501257 6.1621383e-20)
(-0.18228493 0.12097453 9.6880506e-21)
(-0.17677797 0.10548673 -5.8852048e-20)
(-0.16739595 0.088815583 -5.1263949e-20)
(-0.15373308 0.071219285 1.5422694e-19)
(-0.1352623 0.052948549 8.0844627e-20)
(-0.11152321 0.03440175 1.7392595e-19)
(-0.082300935 0.016124367 6.0682097e-20)
(-0.047407347 -0.001521268 2.3434826e-20)
(-0.0064752361 -0.018563681 1.7307465e-19)
(0.041119753 -0.035252879 6.8193814e-20)
(0.096028368 -0.051789283 -2.3033267e-19)
(0.1591963 -0.068213369 1.8621918e-19)
(0.23146138 -0.084840413 -1.7290656e-19)
(0.31457315 -0.10177117 8.4007915e-20)
(0.40937722 -0.11909148 -4.1166418e-19)
(0.51520869 -0.13465384 -2.0917081e-19)
(0.62563451 -0.14694675 8.6221175e-20)
(0.73380927 -0.15269485 1.370983e-19)
(0.82741226 -0.15266165 2.3213885e-19)
(0.90199084 -0.14404579 4.1622237e-20)
(0.94959859 -0.13307657 3.2676317e-20)
(0.98032973 -0.1146166 -3.5228451e-19)
(-0.00055671688 0.0017314319 -2.4213085e-22)
(-0.0017201411 0.0053569299 1.1931033e-20)
(-0.0029995675 0.0093541569 -1.4076528e-20)
(-0.0044044721 0.013755623 -6.7809475e-21)
(-0.0059446959 0.018595124 1.3597755e-20)
(-0.0076302288 0.023907539 4.4110451e-21)
(-0.0094710653 0.029728212 -2.1432619e-20)
(-0.011477037 0.036092212 2.3117406e-20)
(-0.013657551 0.043033294 4.8906719e-21)
(-0.016021293 0.050582541 1.9523122e-20)
(-0.018575859 0.058766584 -5.2061981e-20)
(-0.021327336 0.067605301 -6.3877029e-22)
(-0.024279823 0.077108931 4.7298283e-20)
(-0.02743491 0.087274462 -5.1161135e-20)
(-0.030791132 0.098081294 3.6964634e-20)
(-0.03434345 0.10948609 1.3857379e-20)
(-0.038082818 0.12141703 -2.9329516e-20)
(-0.041995935 0.13376764 2.6873626e-20)
(-0.046065311 0.14639093 3.6396659e-20)
(-0.050269812 0.15909477 -7.9006575e-22)
(-0.054585912 0.17164006 -5.9805775e-20)
(-0.058989729 0.18374378 3.7836125e-20)
(-0.063460038 0.19508926 -2.1595866e-20)
(-0.067981976 0.20534572 -1.0712554e-19)
(-0.072551063 0.21419812 -3.6671673e-20)
(-0.07717658 0.22138529 1.0217482e-19)
(-0.081882925 0.22674056 -1.0444206e-20)
(-0.086707549 0.23022396 1.207564e-19)
(-0.09169423 0.23193277 -7.3117245e-20)
(-0.09688173 0.2320768 3.9391166e-20)
(-0.10229092 0.23091784 -5.8339022e-20)
(-0.10791952 0.22869654 -1.4474532e-20)
(-0.11373861 0.22558335 7.441463e-20)
(-0.1196931 0.22168514 -7.8254166e-20)
(-0.12570041 0.21707166 -1.1646357e-19)
(-0.1316361 0.21176901 1.2177198e-20)
(-0.13732622 0.20574776 1.3027884e-19)
(-0.14254071 0.19892275 -1.6911314e-19)
(-0.14698268 0.19115862 3.7062083e-20)
(-0.150283 0.18228171 -7.9789666e-20)
(-0.15199874 0.17209973 1.2337699e-20)
(-0.15162375 0.1604308 -1.2577876e-19)
(-0.14861662 0.14714567 -6.0363367e-20)
(-0.14244889 0.13222677 -7.4419914e-20)
(-0.13267216 0.11582525 2.9844377e-19)
(-0.11888946 0.098220755 9.6412215e-20)
(-0.10070452 0.079652161 -1.2772373e-19)
(-0.077636645 0.060358308 1.0311821e-19)
(-0.049416144 0.040762501 8.5567951e-20)
(-0.015945487 0.021426108 -9.6095155e-20)
(0.023021329 0.0026860495 -5.0053268e-20)
(0.068042791 -0.015528598 -1.1707776e-19)
(0.11999748 -0.033456754 -5.6834447e-20)
(0.17984522 -0.051280251 1.9476865e-19)
(0.24879983 -0.069002834 1.1019415e-19)
(0.32813809 -0.086939669 1.7807916e-20)
(0.42043486 -0.10502359 -6.7566138e-22)
(0.52583534 -0.12286198 1.0169335e-19)
(0.64035788 -0.13789883 -1.4996369e-19)
(0.75418291 -0.14824892 -1.9682987e-19)
(0.85692307 -0.15113609 -5.5789776e-20)
(0.93640745 -0.14798013 -4.2955919e-19)
(0.98945252 -0.13697159 -3.4605433e-19)
(1.0136891 -0.12482791 -8.8859518e-20)
(1.0223273 -0.10651981 -4.7902709e-20)
(-0.00058479839 0.0016334781 8.1698965e-21)
(-0.0018067558 0.0050588377 4.9909348e-21)