/*--------------------------------*- C++ -*----------------------------------*\
  =========                 |
  \\      /  F ield         | OpenFOAM: The Open Source CFD Toolbox
   \\    /   O peration     | Website:  https://openfoam.org
    \\  /    A nd           | Version:  13
     \\/     M anipulation  |
\*---------------------------------------------------------------------------*/
FoamFile
{
    format      ascii;
    class       volScalarField;
    location    "23.303854";
    object      pPrime2Mean;
}
// * * * * * * * * * * * * * * * * * * * * * * * * * * * * * * * * * * * * * //

dimensions      [0 4 -4 0 0 0 0];

internalField   nonuniform List<scalar> 
17140
(
13362.276
13362.276
13362.277
13362.276
13362.276
13362.274
13362.272
13362.269
13362.266
13362.26
13362.253
13362.244
13362.233
13362.219
13362.2
13362.177
13362.148
13362.112
13362.066
13362.008
13361.936
13361.845
13361.731
13361.588
13361.407
13361.18
13360.893
13360.53
13360.074
13359.498
13358.773
13357.862
13356.72
13355.295
13353.52
13351.318
13348.598
13345.252
13341.154
13336.161
13330.107
13322.806
13314.047
13303.594
13291.182
13276.519
13259.284
13239.125
13215.658
13188.466
13157.096
13121.058
13079.823
13032.819
12979.432
12919.001
12850.811
12774.092
12688.007
12591.661
12484.068
12364.19
12230.84
12082.814
11918.723
13362.606
13362.606
13362.606
13362.606
13362.605
13362.603
13362.601
13362.598
13362.594
13362.589
13362.582
13362.573
13362.562
13362.548
13362.529
13362.506
13362.477
13362.44
13362.394
13362.337
13362.265
13362.174
13362.06
13361.917
13361.736
13361.51
13361.223
13360.862
13360.406
13359.831
13359.108
13358.199
13357.059
13355.636
13353.862
13351.662
13348.944
13345.599
13341.504
13336.513
13330.462
13323.165
13314.41
13303.961
13291.555
13276.9
13259.673
13239.524
13216.069
13188.89
13157.535
13121.514
13080.297
13033.315
12979.953
12919.55
12851.392
12774.71
12688.664
12592.364
12484.821
12364.999
12231.712
12083.757
11919.734
13363.42
13363.42
13363.42
13363.42
13363.419
13363.418
13363.416
13363.412
13363.409
13363.403
13363.396
13363.388
13363.376
13363.362
13363.344
13363.321
13363.292
13363.255
13363.209
13363.152
13363.08
13362.99
13362.877
13362.735
13362.556
13362.33
13362.045
13361.686
13361.232
13360.66
13359.94
13359.034
13357.898
13356.478
13354.708
13352.512
13349.797
13346.456
13342.365
13337.379
13331.335
13324.046
13315.302
13304.866
13292.475
13277.837
13260.632
13240.507
13217.079
13189.931
13158.612
13122.633
13081.464
13034.536
12981.235
12920.902
12852.823
12776.228
12690.282
12594.091
12486.671
12366.985
12233.85
12086.063
11922.208
13364.745
13364.746
13364.746
13364.746
13364.744
13364.743
13364.741
13364.738
13364.734
13364.729
13364.722
13364.713
13364.702
13364.688
13364.67
13364.647
13364.618
13364.582
13364.537
13364.48
13364.41
13364.32
13364.208
13364.067
13363.89
13363.666
13363.384
13363.027
13362.577
13362.009
13361.293
13360.391
13359.26
13357.845
13356.081
13353.89
13351.18
13347.845
13343.761
13338.785
13332.752
13325.477
13316.748
13306.333
13293.966
13279.357
13262.186
13242.1
13218.718
13191.621
13160.361
13124.448
13083.356
13036.517
12983.317
12923.097
12855.145
12778.694
12692.908
12596.896
12489.674
12370.209
12237.317
12089.805
11926.221
13366.609
13366.609
13366.609
13366.609
13366.608
13366.606
13366.604
13366.602
13366.597
13366.592
13366.585
13366.577
13366.565
13366.551
13366.533
13366.511
13366.483
13366.447
13366.403
13366.347
13366.276
13366.188
13366.077
13365.938
13365.763
13365.542
13365.262
13364.909
13364.463
13363.9
13363.189
13362.293
13361.169
13359.76
13358.002
13355.818
13353.116
13349.79
13345.717
13340.754
13334.736
13327.48
13318.776
13308.389
13296.056
13281.487
13264.363
13244.333
13221.013
13193.988
13162.81
13126.992
13086.009
13039.294
12986.235
12926.174
12858.401
12782.152
12696.591
12600.829
12493.885
12374.727
12242.178
12095.052
11931.851
13369.032
13369.032
13369.032
13369.032
13369.031
13369.029
13369.027
13369.024
13369.021
13369.015
13369.008
13369
13368.989
13368.975
13368.957
13368.935
13368.907
13368.871
13368.828
13368.773
13368.703
13368.616
13368.508
13368.37
13368.197
13367.979
13367.703
13367.354
13366.913
13366.355
13365.651
13364.763
13363.646
13362.245
13360.496
13358.321
13355.629
13352.316
13348.256
13343.31
13337.314
13330.084
13321.41
13311.059
13298.77
13284.255
13267.192
13247.232
13223.993
13197.063
13165.992
13130.297
13089.456
13042.902
12990.026
12930.173
12862.634
12786.645
12701.377
12605.941
12499.358
12380.602
12248.5
12101.876
11939.177
13372.039
13372.039
13372.039
13372.038
13372.037
13372.036
13372.034
13372.031
13372.027
13372.021
13372.014
13372.006
13371.995
13371.981
13371.964
13371.942
13371.914
13371.88
13371.836
13371.782
13371.714
13371.629
13371.521
13371.386
13371.216
13371.001
13370.729
13370.386
13369.951
13369.4
13368.703
13367.823
13366.715
13365.324
13363.585
13361.421
13358.743
13355.445
13351.404
13346.48
13340.51
13333.311
13324.675
13314.371
13302.137
13287.686
13270.699
13250.827
13227.689
13200.874
13169.937
13134.397
13093.732
13047.378
12994.73
12935.134
12867.884
12792.221
12707.316
12612.284
12506.151
12387.893
12256.348
12110.351
11948.283
13375.655
13375.655
13375.654
13375.654
13375.653
13375.651
13375.649
13375.646
13375.642
13375.636
13375.63
13375.621
13375.61
13375.596
13375.579
13375.558
13375.531
13375.497
13375.454
13375.401
13375.335
13375.251
13375.146
13375.013
13374.847
13374.636
13374.369
13374.031
13373.603
13373.059
13372.371
13371.5
13370.402
13369.022
13367.295
13365.146
13362.484
13359.204
13355.185
13350.288
13344.35
13337.189
13328.6
13318.35
13306.182
13291.809
13274.912
13255.145
13232.129
13205.455
13174.68
13139.325
13098.872
13052.761
13000.386
12941.1
12874.198
12798.926
12714.457
12619.912
12514.321
12396.665
12265.791
12120.55
11959.248
13379.91
13379.91
13379.909
13379.909
13379.908
13379.906
13379.903
13379.901
13379.896
13379.891
13379.884
13379.876
13379.865
13379.852
13379.835
13379.814
13379.787
13379.754
13379.713
13379.66
13379.595
13379.514
13379.411
13379.282
13379.118
13378.912
13378.65
13378.318
13377.897
13377.361
13376.682
13375.821
13374.734
13373.366
13371.654
13369.52
13366.876
13363.619
13359.626
13354.76
13348.859
13341.744
13333.208
13323.023
13310.933
13296.65
13279.86
13260.217
13237.345
13210.836
13180.253
13145.118
13104.915
13059.088
13007.036
12948.113
12881.621
12806.808
12722.853
12628.881
12523.928
12406.981
12276.897
12132.551
11972.161
13384.837
13384.837
13384.837
13384.836
13384.835
13384.833
13384.831
13384.827
13384.823
13384.818
13384.811
13384.803
13384.792
13384.779
13384.762
13384.742
13384.716
13384.684
13384.643
13384.592
13384.529
13384.449
13384.349
13384.222
13384.063
13383.861
13383.604
13383.278
13382.863
13382.336
13381.665
13380.814
13379.739
13378.384
13376.686
13374.571
13371.948
13368.715
13364.753
13359.922
13354.065
13347.001
13338.528
13328.418
13316.416
13302.238
13285.571
13266.071
13243.366
13217.05
13186.688
13151.807
13111.895
13066.397
13014.718
12956.217
12890.199
12815.917
12732.555
12639.246
12535.032
12418.907
12289.742
12146.437
11987.108
13390.47
13390.47
13390.469
13390.469
13390.467
13390.465
13390.463
13390.46
13390.456
13390.45
13390.444
13390.436
13390.425
13390.412
13390.396
13390.375
13390.35
13390.318
13390.279
13390.229
13390.167
13390.09
13389.992
13389.868
13389.712
13389.514
13389.262
13388.941
13388.532
13388.012
13387.35
13386.509
13385.444
13384.103
13382.422
13380.325
13377.726
13374.521
13370.592
13365.802
13359.993
13352.988
13344.586
13334.561
13322.66
13308.601
13292.073
13272.736
13250.221
13224.127
13194.019
13159.429
13119.849
13074.728
13023.476
12965.455
12899.978
12826.303
12743.621
12651.07
12547.7
12432.516
12304.403
12162.287
12004.178
13396.84
13396.84
13396.84
13396.839
13396.837
13396.835
13396.833
13396.83
13396.825
13396.82
13396.814
13396.805
13396.795
13396.782
13396.766
13396.746
13396.722
13396.691
13396.652
13396.603
13396.543
13396.466
13396.37
13396.249
13396.095
13395.9
13395.652
13395.336
13394.933
13394.418
13393.763
13392.931
13391.878
13390.551
13388.887
13386.811
13384.237
13381.063
13377.17
13372.425
13366.67
13359.732
13351.41
13341.48
13329.691
13315.766
13299.395
13280.243
13257.943
13232.098
13202.279
13168.02
13128.815
13084.122
13033.352
12975.876
12911.011
12838.022
12756.106
12664.411
12561.996
12447.875
12320.955
12180.189
12023.463
13403.974
13403.974
13403.974
13403.973
13403.971
13403.969
13403.967
13403.963
13403.959
13403.954
13403.948
13403.939
13403.929
13403.917
13403.901
13403.881
13403.857
13403.826
13403.788
13403.741
13403.681
13403.606
13403.511
13403.391
13403.24
13403.047
13402.802
13402.49
13402.09
13401.581
13400.934
13400.11
13399.069
13397.755
13396.109
13394.055
13391.508
13388.367
13384.515
13379.819
13374.125
13367.26
13359.026
13349.202
13337.54
13323.763
13307.567
13288.622
13266.564
13241
13211.505
13177.616
13138.834
13094.619
13044.391
12987.525
12923.346
12851.124
12770.067
12679.331
12577.988
12465.063
12339.479
12200.227
12045.052
13411.896
13411.896
13411.895
13411.894
13411.893
13411.891
13411.888
13411.885
13411.881
13411.876
13411.87
13411.861
13411.851
13411.839
13411.823
13411.804
13411.779
13411.749
13411.712
13411.665
13411.606
13411.532
13411.438
13411.319
13411.169
13410.979
13410.736
13410.426
13410.03
13409.527
13408.885
13408.071
13407.041
13405.742
13404.114
13402.084
13399.566
13396.46
13392.653
13388.011
13382.385
13375.601
13367.465
13357.758
13346.235
13332.623
13316.623
13297.907
13276.118
13250.868
13221.733
13188.258
13149.946
13106.264
13056.638
13000.451
12937.034
12865.666
12785.565
12695.896
12595.746
12484.151
12360.057
12222.488
12069.036
13420.628
13420.628
13420.627
13420.626
13420.625
13420.623
13420.62
13420.617
13420.613
13420.608
13420.601
13420.593
13420.584
13420.571
13420.555
13420.536
13420.512
13420.483
13420.446
13420.399
13420.34
13420.267
13420.174
13420.056
13419.907
13419.718
13419.477
13419.17
13418.778
13418.279
13417.644
13416.839
13415.82
13414.538
13412.93
13410.925
13408.438
13405.371
13401.612
13397.031
13391.478
13384.783
13376.755
13367.177
13355.807
13342.378
13326.595
13308.134
13286.643
13261.739
13233.004
13199.985
13162.193
13119.101
13070.141
13014.704
12952.128
12881.704
12802.659
12714.172
12615.342
12505.218
12382.766
12247.054
12095.502
13430.195
13430.195
13430.194
13430.193
13430.192
13430.19
13430.188
13430.184
13430.18
13430.175
13430.169
13430.161
13430.151
13430.139
13430.124
13430.105
13430.081
13430.051
13430.014
13429.968
13429.91
13429.837
13429.745
13429.628
13429.48
13429.292
13429.052
13428.748
13428.36
13427.866
13427.238
13426.442
13425.437
13424.17
13422.584
13420.606
13418.153
13415.128
13411.422
13406.906
13401.433
13394.836
13386.927
13377.491
13366.291
13353.063
13337.518
13319.338
13298.177
13273.654
13245.358
13212.84
13175.619
13133.175
13084.946
13030.332
12968.682
12899.296
12821.413
12734.226
12636.846
12528.337
12407.686
12274.011
12124.54
13440.628
13440.628
13440.627
13440.627
13440.625
13440.623
13440.621
13440.618
13440.614
13440.609
13440.602
13440.594
13440.584
13440.572
13440.557
13440.538
13440.515
13440.485
13440.448
13440.403
13440.345
13440.272
13440.18
13440.064
13439.917
13439.73
13439.492
13439.19
13438.805
13438.316
13437.696
13436.91
13435.918
13434.67
13433.106
13431.155
13428.739
13425.761
13422.112
13417.667
13412.282
13405.792
13398.012
13388.732
13377.718
13364.712
13349.429
13331.558
13310.756
13286.65
13258.834
13226.865
13190.269
13148.532
13101.104
13047.39
12986.753
12918.501
12841.89
12756.125
12660.33
12553.582
12434.894
12303.439
12156.234
13451.96
13451.96
13451.959
13451.959
13451.957
13451.955
13451.953
13451.95
13451.946
13451.941
13451.935
13451.927
13451.917
13451.905
13451.89
13451.871
13451.847
13451.818
13451.781
13451.735
13451.677
13451.604
13451.513
13451.397
13451.25
13451.064
13450.828
13450.528
13450.147
13449.663
13449.05
13448.274
13447.296
13446.065
13444.524
13442.605
13440.228
13437.299
13433.712
13429.345
13424.055
13417.682
13410.043
13400.933
13390.123
13377.359
13362.363
13344.829
13324.42
13300.768
13273.474
13242.103
13206.186
13165.22
13118.662
13065.928
13006.391
12939.378
12864.154
12779.933
12685.86
12581.024
12464.465
12335.42
12190.67
13464.225
13464.225
13464.225
13464.223
13464.222
13464.22
13464.218
13464.215
13464.211
13464.206
13464.2
13464.192
13464.182
13464.17
13464.155
13464.135
13464.112
13464.082
13464.045
13463.999
13463.941
13463.868
13463.776
13463.66
13463.513
13463.328
13463.093
13462.795
13462.417
13461.938
13461.332
13460.566
13459.602
13458.39
13456.874
13454.987
13452.651
13449.776
13446.256
13441.972
13436.786
13430.539
13423.053
13414.128
13403.54
13391.04
13376.357
13359.188
13339.205
13316.046
13289.318
13258.596
13223.416
13183.285
13137.669
13085.997
13027.657
12961.988
12888.262
12805.717
12713.503
12610.732
12496.475
12370.031
12227.931
13477.45
13477.45
13477.449
13477.449
13477.447
13477.445
13477.443
13477.44
13477.436
13477.431
13477.425
13477.417
13477.407
13477.394
13477.379
13477.36
13477.336
13477.306
13477.268
13477.221
13477.163
13477.09
13476.997
13476.881
13476.735
13476.55
13476.316
13476.02
13475.646
13475.172
13474.573
13473.818
13472.867
13471.675
13470.185
13468.332
13466.04
13463.222
13459.775
13455.581
13450.506
13444.396
13437.076
13428.352
13418.004
13405.791
13391.446
13374.673
13355.15
13332.524
13306.409
13276.386
13242.002
13202.77
13158.172
13107.65
13050.605
12986.384
12914.28
12833.534
12743.323
12642.775
12530.995
12407.352
12268.097
13491.655
13491.655
13491.654
13491.653
13491.652
13491.65
13491.648
13491.645
13491.641
13491.636
13491.63
13491.622
13491.612
13491.599
13491.584
13491.564
13491.54
13491.51
13491.472
13491.425
13491.366
13491.292
13491.2
13491.084
13490.938
13490.754
13490.522
13490.229
13489.859
13489.392
13488.801
13488.058
13487.123
13485.951
13484.489
13482.673
13480.429
13477.672
13474.302
13470.205
13465.249
13459.285
13452.145
13443.637
13433.55
13421.646
13407.665
13391.319
13372.293
13350.241
13324.785
13295.513
13261.982
13223.719
13180.219
13130.938
13075.285
13012.625
12942.258
12863.447
12775.383
12677.221
12568.096
12447.456
12311.246
13506.851
13506.851
13506.851
13506.85
13506.849
13506.847
13506.845
13506.842
13506.838
13506.833
13506.827
13506.818
13506.809
13506.796
13506.781
13506.761
13506.737
13506.707
13506.669
13506.623
13506.564
13506.491
13506.4
13506.285
13506.141
13505.959
13505.731
13505.442
13505.078
13504.619
13504.039
13503.31
13502.393
13501.246
13499.815
13498.04
13495.848
13493.157
13489.87
13485.876
13481.049
13475.243
13468.295
13460.02
13450.211
13438.64
13425.051
13409.164
13390.671
13369.234
13344.482
13316.014
13283.398
13246.177
13203.857
13155.909
13101.75
13040.761
12972.254
12895.512
12809.747
12714.134
12607.847
12490.415
12357.45
13523.048
13523.048
13523.048
13523.047
13523.046
13523.044
13523.042
13523.039
13523.035
13523.031
13523.025
13523.017
13523.007
13522.995
13522.98
13522.962
13522.938
13522.909
13522.872
13522.827
13522.77
13522.699
13522.61
13522.497
13522.357
13522.18
13521.957
13521.675
13521.32
13520.872
13520.306
13519.594
13518.701
13517.582
13516.188
13514.459
13512.325
13509.707
13506.509
13502.627
13497.937
13492.3
13485.559
13477.533
13468.025
13456.809
13443.639
13428.243
13410.319
13389.536
13365.534
13337.923
13306.289
13270.185
13229.134
13182.608
13130.05
13070.842
13004.321
12929.787
12846.473
12753.578
12650.315
12536.301
12406.779
13540.258
13540.258
13540.258
13540.257
13540.256
13540.255
13540.253
13540.25
13540.247
13540.242
13540.236
13540.229
13540.221
13540.209
13540.195
13540.178
13540.155
13540.128
13540.094
13540.05
13539.996
13539.929
13539.843
13539.736
13539.601
13539.431
13539.216
13538.944
13538.6
13538.166
13537.619
13536.929
13536.063
13534.979
13533.628
13531.952
13529.884
13527.346
13524.248
13520.487
13515.945
13510.49
13503.97
13496.211
13487.022
13476.186
13463.463
13448.588
13431.264
13411.175
13387.971
13361.278
13330.693
13295.787
13256.085
13211.084
13160.226
13102.917
13038.511
12966.328
12885.623
12795.615
12695.562
12585.18
12459.301
13558.502
13558.502
13558.502
13558.501
13558.501
13558.499
13558.498
13558.495
13558.492
13558.488
13558.484
13558.477
13558.469
13558.459
13558.446
13558.43
13558.41
13558.384
13558.353
13558.313
13558.263
13558.199
13558.12
13558.019
13557.891
13557.73
13557.525
13557.265
13556.936
13556.52
13555.994
13555.33
13554.496
13553.452
13552.15
13550.535
13548.541
13546.093
13543.105
13539.477
13535.097
13529.838
13523.554
13516.08
13507.231
13496.797
13484.545
13470.217
13453.531
13434.178
13411.825
13386.113
13356.65
13323.016
13284.754
13241.369
13192.321
13137.032
13074.874
13005.188
12927.25
12840.304
12743.649
12637.117
12515.076
13577.811
13577.811
13577.81
13577.81
13577.809
13577.808
13577.806
13577.804
13577.802
13577.798
13577.794
13577.789
13577.781
13577.772
13577.761
13577.747
13577.729
13577.706
13577.677
13577.641
13577.595
13577.537
13577.463
13577.369
13577.25
13577.098
13576.904
13576.658
13576.345
13575.949
13575.446
13574.812
13574.015
13573.016
13571.769
13570.222
13568.311
13565.963
13563.095
13559.612
13555.408
13550.36
13544.33
13537.16
13528.67
13518.659
13506.903
13493.155
13477.143
13458.574
13437.131
13412.459
13384.188
13351.906
13315.172
13273.504
13226.377
13173.232
13113.459
13046.418
12971.411
12887.701
12794.634
12692.173
12574.165
13598.215
13598.215
13598.215
13598.214
13598.214
13598.213
13598.212
13598.21
13598.208
13598.204
13598.201
13598.196
13598.189
13598.181
13598.171
13598.158
13598.142
13598.122
13598.095
13598.062
13598.02
13597.967
13597.898
13597.811
13597.7
13597.557
13597.375
13597.143
13596.847
13596.471
13595.994
13595.392
13594.634
13593.684
13592.498
13591.024
13589.203
13586.964
13584.228
13580.903
13576.889
13572.068
13566.308
13559.458
13551.347
13541.783
13530.553
13517.418
13502.124
13484.391
13463.907
13440.341
13413.332
13382.486
13347.371
13307.522
13262.433
13211.559
13154.31
13090.069
13018.157
12937.862
12848.573
12750.408
12636.632
13619.74
13619.74
13619.74
13619.74
13619.739
13619.739
13619.738
13619.736
13619.734
13619.731
13619.728
13619.723
13619.717
13619.71
13619.7
13619.689
13619.674
13619.654
13619.63
13619.599
13619.56
13619.51
13619.446
13619.364
13619.259
13619.125
13618.953
13618.734
13618.455
13618.1
13617.651
13617.082
13616.367
13615.469
13614.348
13612.954
13611.229
13609.107
13606.511
13603.356
13599.543
13594.963
13589.49
13582.981
13575.273
13566.183
13555.509
13543.026
13528.494
13511.641
13492.175
13469.781
13444.109
13414.78
13381.379
13343.457
13300.523
13252.053
13197.473
13136.188
13067.541
12990.839
12905.52
12811.877
12702.539
13642.398
13642.398
13642.398
13642.398
13642.397
13642.396
13642.395
13642.394
13642.392
13642.389
13642.386
13642.381
13642.375
13642.368
13642.359
13642.348
13642.333
13642.315
13642.292
13642.262
13642.224
13642.176
13642.115
13642.038
13641.938
13641.811
13641.649
13641.443
13641.181
13640.848
13640.426
13639.893
13639.222
13638.381
13637.328
13636.017
13634.394
13632.396
13629.948
13626.972
13623.374
13619.05
13613.882
13607.734
13600.453
13591.866
13581.781
13569.989
13556.261
13540.34
13521.953
13500.795
13476.535
13448.81
13417.221
13381.335
13340.681
13294.751
13242.99
13184.822
13119.611
13046.687
12965.531
12876.636
12771.956
13666.182
13666.182
13666.182
13666.182
13666.181
13666.18
13666.179
13666.178
13666.175
13666.173
13666.169
13666.165
13666.159
13666.152
13666.143
13666.131
13666.117
13666.099
13666.076
13666.047
13666.011
13665.964
13665.906
13665.832
13665.737
13665.617
13665.465
13665.272
13665.027
13664.716
13664.324
13663.828
13663.204
13662.421
13661.439
13660.217
13658.7
13656.83
13654.54
13651.752
13648.381
13644.329
13639.484
13633.719
13626.891
13618.835
13609.375
13598.313
13585.434
13570.499
13553.249
13533.397
13510.627
13484.594
13454.918
13421.183
13382.935
13339.687
13290.9
13236.016
13174.421
13105.459
13028.668
12944.757
12844.955
13691.077
13691.077
13691.077
13691.076
13691.076
13691.075
13691.074
13691.072
13691.07
13691.068
13691.064
13691.06
13691.054
13691.047
13691.038
13691.026
13691.012
13690.994
13690.972
13690.944
13690.909
13690.865
13690.809
13690.739
13690.65
13690.538
13690.396
13690.217
13689.99
13689.704
13689.342
13688.886
13688.311
13687.588
13686.681
13685.55
13684.144
13682.409
13680.283
13677.694
13674.562
13670.797
13666.294
13660.935
13654.585
13647.091
13638.291
13628
13616.016
13602.121
13586.069
13567.593
13546.394
13522.145
13494.486
13463.02
13427.312
13386.892
13341.242
13289.817
13232.021
13167.214
13094.997
13016.327
12921.617
13717.066
13717.066
13717.066
13717.065
13717.065
13717.064
13717.063
13717.061
13717.059
13717.056
13717.053
13717.049
13717.043
13717.036
13717.028
13717.017
13717.004
13716.987
13716.966
13716.94
13716.907
13716.866
13716.814
13716.749
13716.667
13716.564
13716.434
13716.271
13716.064
13715.804
13715.476
13715.061
13714.538
13713.878
13713.049
13712.012
13710.722
13709.128
13707.173
13704.792
13701.913
13698.45
13694.308
13689.376
13683.529
13676.629
13668.524
13659.043
13648.004
13635.203
13620.414
13603.385
13583.839
13561.47
13535.935
13506.86
13473.83
13436.394
13394.05
13346.271
13292.472
13232.02
13164.569
13091.357
13002.141
13744.132
13744.132
13744.132
13744.132
13744.131
13744.131
13744.13
13744.128
13744.126
13744.124
13744.121
13744.117
13744.112
13744.106
13744.098
13744.089
13744.077
13744.062
13744.043
13744.02
13743.991
13743.954
13743.908
13743.85
13743.777
13743.685
13743.57
13743.424
13743.241
13743.009
13742.716
13742.345
13741.875
13741.28
13740.531
13739.592
13738.422
13736.975
13735.2
13733.038
13730.423
13727.278
13723.515
13719.031
13713.714
13707.438
13700.061
13691.434
13681.387
13669.737
13656.275
13640.769
13622.962
13602.568
13579.268
13552.712
13522.504
13488.214
13449.359
13405.424
13355.839
13299.948
13237.414
13170.041
13086.583
13772.268
13772.268
13772.267
13772.267
13772.267
13772.266
13772.265
13772.264
13772.263
13772.261
13772.258
13772.255
13772.251
13772.246
13772.24
13772.232
13772.222
13772.21
13772.194
13772.174
13772.15
13772.119
13772.08
13772.031
13771.969
13771.89
13771.791
13771.666
13771.507
13771.305
13771.049
13770.723
13770.308
13769.78
13769.113
13768.274
13767.228
13765.935
13764.348
13762.415
13760.077
13757.265
13753.898
13749.884
13745.121
13739.497
13732.887
13725.155
13716.152
13705.709
13693.639
13679.731
13663.75
13645.431
13624.482
13600.576
13573.342
13542.371
13507.197
13467.324
13422.177
13371.041
13313.66
13252.464
13175.033
13801.461
13801.461
13801.461
13801.461
13801.46
13801.46
13801.459
13801.458
13801.457
13801.456
13801.454
13801.452
13801.449
13801.445
13801.441
13801.435
13801.427
13801.418
13801.406
13801.391
13801.373
13801.349
13801.318
13801.279
13801.229
13801.165
13801.083
13800.979
13800.846
13800.675
13800.455
13800.174
13799.813
13799.353
13798.769
13798.035
13797.119
13795.986
13794.595
13792.902
13790.853
13788.387
13785.432
13781.908
13777.725
13772.785
13766.976
13760.183
13752.273
13743.096
13732.485
13720.252
13706.184
13690.044
13671.564
13650.446
13626.345
13598.876
13567.595
13532.012
13491.542
13445.467
13393.391
13338.717
13267.769
13831.703
13831.703
13831.703
13831.703
13831.703
13831.703
13831.702
13831.702
13831.701
13831.7
13831.699
13831.697
13831.696
13831.693
13831.69
13831.687
13831.682
13831.676
13831.668
13831.658
13831.645
13831.628
13831.606
13831.576
13831.538
13831.488
13831.423
13831.339
13831.229
13831.088
13830.904
13830.667
13830.361
13829.969
13829.472
13828.845
13828.064
13827.097
13825.912
13824.468
13822.72
13820.613
13818.087
13815.074
13811.495
13807.267
13802.298
13796.487
13789.719
13781.866
13772.781
13762.3
13750.236
13736.378
13720.49
13702.302
13681.502
13657.731
13630.564
13599.519
13564.05
13523.323
13476.799
13428.955
13365.076
13862.973
13862.973
13862.973
13862.973
13862.973
13862.972
13862.972
13862.972
13862.972
13862.971
13862.971
13862.97
13862.969
13862.968
13862.966
13862.965
13862.962
13862.959
13862.954
13862.949
13862.941
13862.929
13862.914
13862.893
13862.865
13862.828
13862.778
13862.712
13862.624
13862.51
13862.36
13862.166
13861.915
13861.593
13861.184
13860.669
13860.027
13859.234
13858.26
13857.074
13855.636
13853.902
13851.823
13849.339
13846.389
13842.905
13838.811
13834.024
13828.449
13821.978
13814.486
13805.835
13795.865
13784.397
13771.225
13756.114
13738.786
13718.911
13696.105
13669.909
13639.765
13604.792
13564.233
13523.499
13467.182
13895.238
13895.238
13895.238
13895.238
13895.238
13895.237
13895.237
13895.237
13895.237
13895.237
13895.236
13895.236
13895.236
13895.236
13895.235
13895.234
13895.233
13895.231
13895.229
13895.225
13895.22
13895.213
13895.203
13895.188
13895.167
13895.139
13895.101
13895.05
13894.982
13894.893
13894.776
13894.624
13894.428
13894.176
13893.857
13893.457
13892.958
13892.343
13891.588
13890.667
13889.55
13888.202
13886.584
13884.65
13882.355
13879.645
13876.464
13872.744
13868.411
13863.379
13857.548
13850.804
13843.02
13834.048
13823.718
13811.827
13798.147
13782.393
13764.218
13743.192
13718.788
13690.093
13656.192
13622.846
13574.082
13928.439
13928.439
13928.439
13928.439
13928.439
13928.438
13928.438
13928.438
13928.438
13928.437
13928.437
13928.437
13928.437
13928.436
13928.436
13928.435
13928.434
13928.433
13928.432
13928.429
13928.426
13928.42
13928.412
13928.401
13928.386
13928.365
13928.336
13928.298
13928.247
13928.181
13928.097
13927.987
13927.846
13927.667
13927.44
13927.157
13926.805
13926.372
13925.841
13925.193
13924.406
13923.456
13922.315
13920.952
13919.336
13917.431
13915.198
13912.587
13909.544
13906.006
13901.899
13897.137
13891.628
13885.259
13877.898
13869.386
13859.537
13848.12
13834.857
13819.384
13801.219
13779.47
13753.214
13727.116
13686.481
13962.507
13962.507
13962.507
13962.506
13962.506
13962.506
13962.506
13962.505
13962.505
13962.504
13962.504
13962.503
13962.502
13962.502
13962.501
13962.5
13962.499
13962.497
13962.495
13962.492
13962.488
13962.483
13962.476
13962.467
13962.454
13962.437
13962.416
13962.389
13962.354
13962.311
13962.257
13962.19
13962.107
13962
13961.867
13961.703
13961.501
13961.253
13960.951
13960.584
13960.137
13959.598
13958.949
13958.177
13957.266
13956.195
13954.944
13953.481
13951.775
13949.787
13947.47
13944.769
13941.626
13937.968
13933.705
13928.722
13922.893
13916.041
13907.966
13898.408
13886.993
13873.017
13855.698
13837.96
13807.394
13998.892
13998.892
13998.892
13998.891
13998.89
13998.89
13998.889
13998.889
13998.888
13998.887
13998.886
13998.885
13998.883
13998.881
13998.88
13998.878
13998.875
13998.872
13998.868
13998.864
13998.859
13998.852
13998.844
13998.834
13998.823
13998.809
13998.793
13998.776
13998.756
13998.735
13998.712
13998.688
13998.661
13998.632
13998.601
13998.566
13998.527
13998.483
13998.432
13998.37
13998.295
13998.203
13998.095
13997.97
13997.828
13997.666
13997.481
13997.265
13997.009
13996.699
13996.322
13995.859
13995.287
13994.578
13993.687
13992.557
13991.114
13989.266
13986.89
13983.851
13979.941
13974.771
13968.349
13962.478
13951.251
14037.17
14037.17
14037.169
14037.169
14037.168
14037.167
14037.166
14037.165
14037.164
14037.163
14037.161
14037.16
14037.158
14037.155
14037.152
14037.149
14037.145
14037.141
14037.136
14037.129
14037.122
14037.114
14037.105
14037.096
14037.085
14037.075
14037.066
14037.059
14037.057
14037.06
14037.072
14037.095
14037.132
14037.187
14037.262
14037.366
14037.504
14037.679
14037.896
14038.16
14038.481
14038.869
14039.338
14039.904
14040.582
14041.389
14042.341
14043.453
14044.74
14046.222
14047.916
14049.843
14052.02
14054.462
14057.18
14060.176
14063.442
14066.971
14070.737
14074.738
14078.954
14083.339
14088.307
14094.718
14099.545
14075.373
14075.372
14075.372
14075.371
14075.37
14075.369
14075.369
14075.367
14075.366
14075.365
14075.363
14075.361
14075.359
14075.357
14075.354
14075.351
14075.347
14075.342
14075.337
14075.332
14075.326
14075.319
14075.313
14075.306
14075.301
14075.298
14075.299
14075.306
14075.323
14075.354
14075.402
14075.472
14075.571
14075.705
14075.885
14076.122
14076.425
14076.808
14077.285
14077.872
14078.587
14079.453
14080.5
14081.756
14083.256
14085.032
14087.122
14089.564
14092.401
14095.681
14099.46
14103.793
14108.74
14114.362
14120.72
14127.881
14135.909
14144.878
14154.869
14165.996
14178.39
14192.254
14208.067
14226.35
14246.772
14113.336
14113.336
14113.335
14113.334
14113.334
14113.333
14113.332
14113.331
14113.33
14113.329
14113.327
14113.326
14113.324
14113.322
14113.32
14113.318
14113.315
14113.312
14113.309
14113.306
14113.302
14113.299
14113.296
14113.295
14113.296
14113.302
14113.315
14113.338
14113.375
14113.432
14113.514
14113.63
14113.789
14114.003
14114.285
14114.651
14115.119
14115.708
14116.442
14117.346
14118.45
14119.792
14121.412
14123.356
14125.673
14128.413
14131.636
14135.403
14139.785
14144.863
14150.724
14157.464
14165.183
14173.988
14183.994
14195.328
14208.127
14222.549
14238.769
14257.014
14277.541
14300.723
14327.122
14357.41
14392.531
14150.881
14150.88
14150.879
14150.879
14150.878
14150.877
14150.877
14150.876
14150.875
14150.874
14150.874
14150.873
14150.872
14150.871
14150.87
14150.87
14150.869
14150.868
14150.868
14150.868
14150.869
14150.871
14150.875
14150.881
14150.891
14150.909
14150.935
14150.976
14151.035
14151.121
14151.241
14151.406
14151.628
14151.923
14152.306
14152.802
14153.433
14154.227
14155.215
14156.434
14157.926
14159.739
14161.928
14164.553
14167.678
14171.373
14175.718
14180.8
14186.718
14193.583
14201.516
14210.65
14221.126
14233.098
14246.735
14262.224
14279.773
14299.617
14322.024
14347.325
14375.902
14408.272
14445.124
14487.346
14536.24
14187.862
14187.861
14187.86
14187.86
14187.86
14187.859
14187.858
14187.858
14187.858
14187.858
14187.858
14187.858
14187.858
14187.858
14187.86
14187.86
14187.862
14187.865
14187.868
14187.872
14187.878
14187.885
14187.896
14187.911
14187.932
14187.962
14188.005
14188.065
14188.15
14188.268
14188.429
14188.646
14188.933
14189.309
14189.797
14190.422
14191.217
14192.214
14193.455
14194.986
14196.861
14199.14