/*--------------------------------*- C++ -*----------------------------------*\
  =========                 |
  \\      /  F ield         | OpenFOAM: The Open Source CFD Toolbox
   \\    /   O peration     | Website:  https://openfoam.org
    \\  /    A nd           | Version:  13
     \\/     M anipulation  |
\*---------------------------------------------------------------------------*/
FoamFile
{
    format      ascii;
    class       volScalarField;
    location    "24.700614";
    object      pMean;
}
// * * * * * * * * * * * * * * * * * * * * * * * * * * * * * * * * * * * * * //

dimensions      [0 2 -2 0 0 0 0];

internalField   nonuniform List<scalar> 
17140
(
1.8113962
1.8112755
1.8111297
1.810981
1.81082
1.8106443
1.8104537
1.8102477
1.8100258
1.8097876
1.8095328
1.8092612
1.8089723
1.8086656
1.8083401
1.8079937
1.8076227
1.8072211
1.8067794
1.8062833
1.8057117
1.8050351
1.8042132
1.8031914
1.801897
1.8002408
1.7981336
1.7954978
1.7922597
1.7883357
1.7836115
1.7779499
1.7712015
1.7631991
1.75376
1.7426906
1.7297944
1.7148878
1.6978212
1.6785088
1.6569673
1.6333592
1.6080506
1.5816654
1.5551084
1.5296202
1.5066656
1.4875443
1.4735708
1.4658875
1.4653151
1.4724163
1.4875871
1.5108143
1.5416976
1.5792062
1.6220365
1.6677303
1.7152312
1.7603993
1.8038963
1.8372932
1.8682137
1.8796027
1.8965313
1.8095598
1.8094416
1.8092989
1.8091532
1.8089955
1.8088234
1.8086367
1.8084348
1.8082174
1.8079839
1.8077342
1.8074679
1.8071848
1.8068844
1.8065656
1.8062264
1.8058634
1.8054706
1.8050386
1.8045533
1.803994
1.8033313
1.8025251
1.8015214
1.8002478
1.7986149
1.7965331
1.7939246
1.7907153
1.7868201
1.7821238
1.7764889
1.7697656
1.7617861
1.7523672
1.7413141
1.7284296
1.7135288
1.6964611
1.6771394
1.6555787
1.6319407
1.6065907
1.5801527
1.5535417
1.5279959
1.5049594
1.4857985
1.4718098
1.4640978
1.463499
1.470581
1.4857168
1.508903
1.5397514
1.5771943
1.6199492
1.6655712
1.7129908
1.7580587
1.8013994
1.8345918
1.8652287
1.8762796
1.8934956
1.8052202
1.8051081
1.8049728
1.8048344
1.8046845
1.8045207
1.804343
1.8041508
1.8039437
1.8037214
1.8034834
1.8032298
1.8029602
1.8026742
1.8023709
1.8020486
1.8017039
1.8013314
1.8009219
1.8004617
1.7999307
1.7993001
1.7985303
1.7975682
1.7963426
1.7947638
1.7927405
1.7901932
1.7870468
1.7832153
1.7785829
1.7730104
1.7663471
1.7584235
1.7490543
1.7380424
1.7251881
1.7103036
1.6932349
1.6738917
1.6522859
1.6285772
1.603132
1.5765783
1.5498491
1.5241996
1.5010433
1.4817763
1.4677203
1.4599645
1.4593156
1.4663211
1.4813558
1.5044258
1.5351522
1.5724396
1.6150135
1.6604199
1.7076323
1.7524812
1.7956122
1.8286468
1.8591786
1.8702302
1.888046
1.7984597
1.798357
1.7982335
1.7981065
1.7979687
1.7978182
1.7976547
1.7974777
1.7972869
1.7970818
1.7968625
1.7966285
1.7963801
1.7961166
1.7958376
1.7955415
1.7952253
1.794884
1.7945092
1.7940877
1.7936001
1.7930187
1.7923048
1.7914065
1.7902541
1.7887585
1.7868256
1.7843724
1.7813221
1.7775885
1.7730554
1.7675811
1.761013
1.7531791
1.743891
1.7329479
1.720146
1.705293
1.68823
1.6688613
1.647194
1.6233864
1.5978068
1.571092
1.5442006
1.5184055
1.4950953
1.4757071
1.4615684
1.4537554
1.4530464
1.4599562
1.4748466
1.4977313
1.5282376
1.5652323
1.6074566
1.6524602
1.6992913
1.7438246
1.7867623
1.8197618
1.8503979
1.8618667
1.8805349
1.7894952
1.7894053
1.7892976
1.7891858
1.7890644
1.7889316
1.7887871
1.7886306
1.7884616
1.78828
1.7880855
1.7878781
1.7876579
1.7874246
1.7871779
1.7869165
1.786638
1.7863379
1.7860084
1.7856374
1.7852065
1.7846889
1.7840476
1.7832319
1.7821746
1.7807882
1.7789753
1.776646
1.773722
1.770118
1.765717
1.760375
1.7539362
1.7462257
1.7370508
1.7262063
1.713483
1.698683
1.6816409
1.6622543
1.6405244
1.6166082
1.5908784
1.5639862
1.5369235
1.5109669
1.4875017
1.4680066
1.4538073
1.4459657
1.4452132
1.4520288
1.4667621
1.4894282
1.5196546
1.5562839
1.5980653
1.6425543
1.6889079
1.7330603
1.7757828
1.8088137
1.8397067
1.8519253
1.8716273
1.7786822
1.7786078
1.7785194
1.7784264
1.7783251
1.778214
1.778093
1.7779617
1.7778197
1.7776668
1.7775029
1.7773281
1.7771425
1.7769462
1.7767388
1.7765195
1.7762865
1.7760357
1.7757602
1.7754489
1.7750847
1.7746422
1.7740859
1.7733671
1.7724211
1.7711639
1.7694945
1.7673153
1.7645441
1.7610958
1.7568544
1.7516751
1.7453969
1.7378416
1.7288121
1.7180977
1.7054834
1.6907646
1.6737682
1.654384
1.6326076
1.6085951
1.5827249
1.5556683
1.5284531
1.5023468
1.4787638
1.4592039
1.4449867
1.4371596
1.4364056
1.4431609
1.4577589
1.4802037
1.5101149
1.5463048
1.5875641
1.6314757
1.6772873
1.721028
1.7635352
1.7967187
1.8280174
1.841295
1.8621834
1.7665014
1.7664448
1.7663777
1.7663063
1.7662281
1.7661423
1.7660485
1.7659463
1.7658355
1.7657158
1.7655874
1.7654503
1.7653047
1.7651507
1.7649884
1.764817
1.7646352
1.7644396
1.7642241
1.7639787
1.7636874
1.7633267
1.7628626
1.762249
1.7614237
1.7603065
1.7587969
1.7567891
1.7541912
1.7509169
1.7468559
1.7418635
1.7357722
1.7284003
1.7195462
1.7089941
1.6965225
1.6819196
1.6650039
1.6456574
1.6238699
1.5997975
1.5738269
1.5466522
1.519329
1.4931229
1.4694814
1.4499019
1.4357106
1.4279377
1.427222
1.4339583
1.4484628
1.4707301
1.5003702
1.536146
1.5768742
1.6202291
1.6655346
1.7089317
1.7512325
1.7846144
1.8163959
1.8308315
1.8527602
1.7535339
1.7534966
1.753452
1.7534043
1.7533517
1.7532936
1.7532296
1.7531595
1.7530831
1.7530002
1.7529109
1.7528154
1.7527137
1.7526062
1.7524929
1.7523735
1.7522466
1.7521096
1.7519572
1.7517802
1.751564
1.7512866
1.7509163
1.750409
1.7497059
1.7487303
1.7473864
1.7455622
1.7431509
1.7400623
1.736194
1.7314029
1.7255181
1.7183529
1.7097015
1.699343
1.68705
1.6726032
1.6558133
1.6365546
1.614812
1.5907422
1.5647419
1.5375287
1.5101675
1.4839363
1.4602993
1.4407355
1.4265929
1.4188951
1.418247
1.4249957
1.4394465
1.4615897
1.4910224
1.5264847
1.5667555
1.6096098
1.6544695
1.6975199
1.7395997
1.7732644
1.8056394
1.8215615
1.8446198
1.740424
1.7404067
1.7403857
1.7403627
1.7403369
1.7403078
1.7402753
1.740239
1.7401989
1.7401549
1.740107
1.7400553
1.74
1.7399414
1.7398795
1.7398139
1.7397438
1.7396665
1.7395774
1.739468
1.7393251
1.7391282
1.7388473
1.7384411
1.7378536
1.7370122
1.7358257
1.7341848
1.7319705
1.7290742
1.7253979
1.7208134
1.7151469
1.7082043
1.699778
1.6896427
1.6775656
1.663321
1.6467126
1.6276084
1.6059895
1.5820136
1.5560867
1.528946
1.5016466
1.4754854
1.4519205
1.4324068
1.4183282
1.4107102
1.4101263
1.4168976
1.4313394
1.4534235
1.482715
1.5179203
1.5577971
1.6002327
1.6447355
1.6876843
1.7298866
1.7641083
1.7972114
1.8143232
1.8378937
1.7278346
1.7278372
1.7278397
1.7278414
1.7278424
1.7278425
1.7278415
1.7278394
1.727836
1.7278314
1.7278254
1.7278183
1.7278101
1.727801
1.7277909
1.7277794
1.7277656
1.7277469
1.727719
1.727674
1.7275995
1.7274762
1.7272762
1.7269602
1.7264754
1.7257531
1.7247068
1.7232317
1.7212086
1.7185134
1.7150297
1.7106401
1.7051912
1.6984852
1.6903042
1.6804203
1.6685982
1.6546079
1.6382488
1.6193844
1.597993
1.5742335
1.5485182
1.5215926
1.4944966
1.4685338
1.4451331
1.4257365
1.4117512
1.4042078
1.4036902
1.4105277
1.4250094
1.4470754
1.4762772
1.5112928
1.5509108
1.5931698
1.6376142
1.6805833
1.7227935
1.7574155
1.7908229
1.8087442
1.8325662
1.7163888
1.7164101
1.7164348
1.71646
1.7164864
1.7165143
1.7165437
1.7165743
1.7166064
1.7166398
1.7166746
1.7167108
1.7167485
1.7167876
1.716828
1.716869
1.7169094
1.7169466
1.7169763
1.7169908
1.7169782
1.7169203
1.7167905
1.7165516
1.7161535
1.7155311
1.7146025
1.7132679
1.7114114
1.7089066
1.7056248
1.7014344
1.6961895
1.689713
1.6817912
1.672189
1.6606675
1.6469954
1.6309695
1.6124517
1.5914195
1.568033
1.5427089
1.5161785
1.4894737
1.4638843
1.4407944
1.4216305
1.4077973
1.4003573
1.3999164
1.4067646
1.4212234
1.4432446
1.4723521
1.5072149
1.5466417
1.5887496
1.6330441
1.6759416
1.7181609
1.7530605
1.7867508
1.8053385
1.828886
1.7066174
1.7066554
1.7066996
1.7067456
1.7067948
1.7068478
1.7069044
1.7069648
1.7070292
1.7070975
1.7071698
1.7072461
1.7073264
1.7074106
1.7074981
1.7075882
1.7076793
1.7077686
1.7078514
1.7079201
1.7079629
1.7079623
1.7078926
1.7077184
1.7073917
1.7068505
1.7060171
1.704797
1.7030789
1.7007379
1.6976424
1.6936545
1.6886266
1.6823863
1.6747319
1.6654367
1.6542641
1.6409826
1.6253897
1.6073476
1.5868345
1.5640101
1.5392885
1.5133765
1.4872886
1.4622773
1.4396834
1.4209033
1.4073311
1.3999962
1.3994752
1.4061897
1.4204978
1.4423657
1.4712755
1.5058808
1.5450646
1.5870231
1.6312449
1.6742975
1.7166874
1.7517936
1.7850637
1.803647
1.8262377
1.6989007
1.6989521
1.6990121
1.6990752
1.6991431
1.6992167
1.699296
1.6993814
1.6994731
1.6995711
1.6996756
1.6997868
1.6999044
1.7000283
1.7001579
1.7002922
1.7004292
1.7005659
1.7006974
1.7008159
1.7009096
1.7009611
1.7009457
1.7008289
1.7005647
1.7000935
1.6993408
1.6982168
1.6966162
1.6944179
1.6914896
1.6876935
1.682885
1.6768984
1.6695424
1.6605965
1.6498314
1.637022
1.6219747
1.6045542
1.5847401
1.5626871
1.538795
1.5137485
1.4885231
1.464302
1.442385
1.4241538
1.4108618
1.4035169
1.4027998
1.4092826
1.4233382
1.4449342
1.4735098
1.5077728
1.5467779
1.5887491
1.6330718
1.6761253
1.7181326
1.7525106
1.7850825
1.8029336
1.8244301
1.6934339
1.6934947
1.693566
1.6936411
1.6937225
1.6938111
1.6939072
1.6940112
1.6941235
1.6942443
1.6943739
1.6945124
1.69466
1.6948162
1.6949806
1.6951521
1.6953286
1.6955069
1.6956821
1.6958462
1.6959876
1.6960894
1.6961273
1.696068
1.6958667
1.6954657
1.694793
1.6937619
1.6922723
1.690211
1.6874571
1.6838414
1.6792623
1.6735507
1.6665235
1.6579727
1.647693
1.6354625
1.6210918
1.6044539
1.5855304
1.5644669
1.5416398
1.5176973
1.4935516
1.4703088
1.4492417
1.4315803
1.4185135
1.4110852
1.4101293
1.4162669
1.4299615
1.4511463
1.4792418
1.5131357
1.5519375
1.5938525
1.6380141
1.6805795
1.7216252
1.7551101
1.7860875
1.8029672
1.8231715
1.6901978
1.6902633
1.6903407
1.6904224
1.6905112
1.6906084
1.6907143
1.6908295
1.6909544
1.6910896
1.6912355
1.6913924
1.6915605
1.6917398
1.6919297
1.6921294
1.6923371
1.6925497
1.6927624
1.6929679
1.6931549
1.6933073
1.693402
1.6934072
1.6932799
1.6929643
1.6923908
1.6914753
1.6901202
1.6882134
1.6856383
1.682304
1.677993
1.6725278
1.6658808
1.6578071
1.648088
1.6365318
1.6229703
1.6072804
1.5894392
1.5695772
1.5480364
1.5254009
1.5025029
1.480406
1.4602069
1.4430722
1.4301921
1.4226358
1.4213476
1.4270794
1.4403003
1.4609174
1.4884411
1.5219196
1.5604739
1.6021104
1.6456675
1.6872129
1.7268432
1.758458
1.7875314
1.8033329
1.8223092
1.6889915
1.6890573
1.6891356
1.6892182
1.6893083
1.6894073
1.6895157
1.6896341
1.6897632
1.6899037
1.6900562
1.6902212
1.6903992
1.6905905
1.6907949
1.6910119
1.6912401
1.6914771
1.6917189
1.691959
1.6921876
1.6923901
1.6925456
1.6926247
1.6925873
1.6923804
1.691937
1.6911745
1.6899969
1.6882965
1.6859584
1.6828654
1.6788462
1.6738676
1.6676536
1.6600473
1.6509966
1.6402643
1.6276726
1.6131027
1.59653
1.5780623
1.5579872
1.5368128
1.5153126
1.4943693
1.47501
1.4583707
1.4455951
1.4378635
1.436215
1.4414724
1.4541079
1.4740598
1.5009643
1.5339791
1.5720179
1.6129468
1.6554895
1.6953783
1.7327262
1.7621574
1.7894068
1.8039829
1.821931
1.6894367
1.689499
1.6895736
1.6896519
1.6897377
1.6898324
1.6899364
1.6900505
1.6901756
1.6903125
1.690462
1.6906249
1.6908019
1.6909936
1.6912003
1.6914221
1.6916583
1.6919074
1.6921664
1.6924306
1.6926921
1.6929388
1.6931531
1.6933095
1.6933727
1.6932948
1.6930128
1.6924485
1.6915086
1.6900858
1.6880649
1.6853203
1.6817562
1.6772191
1.6715349
1.6647176
1.6564538
1.6466197
1.6351261
1.6218349
1.606699
1.5897826
1.5713086
1.5517265
1.5316291
1.5118191
1.4932736
1.4770245
1.4643057
1.4563639
1.4543293
1.4590523
1.4710004
1.4902534
1.5164559
1.5488436
1.58604
1.626079
1.6667603
1.7041866
1.7390293
1.7661084
1.7915395
1.8050171
1.8220787
1.6910961
1.6911516
1.6912185
1.6912885
1.6913654
1.6914505
1.6915445
1.6916481
1.6917623
1.6918879
1.6920259
1.6921773
1.6923431
1.6925242
1.6927214
1.6929353
1.6931661
1.6934133
1.6936755
1.6939496
1.6942306
1.6945098
1.6947738
1.695003
1.6951687
1.695231
1.6951361
1.6948138
1.6941766
1.6931208
1.6915314
1.6892827
1.6862601
1.6823379
1.6774246
1.671336
1.6639974
1.6553449
1.6451161
1.6332495
1.6196898
1.6044455
1.5876868
1.5697064
1.5509994
1.5323031
1.5144495
1.4985328
1.4858283
1.4776534
1.475194
1.4792859
1.4905275
1.508966
1.5344337
1.565988
1.6024549
1.6405161
1.6786167
1.7134121
1.7453287
1.7703331
1.7940919
1.8065265
1.8227888
1.6934906
1.6935372
1.6935939
1.6936528
1.6937178
1.69379
1.6938701
1.6939589
1.6940572
1.6941659
1.6942861
1.694419
1.6945655
1.694727
1.6949045
1.6950992
1.6953121
1.6955435
1.6957935
1.696061
1.6963435
1.696636
1.6969303
1.697213
1.6974638
1.6976536
1.6977405
1.6976678
1.6973618
1.6967301
1.6956642
1.6940422
1.6917406
1.688627
1.6846018
1.6795521
1.6734006
1.6659618
1.6571854
1.6469417
1.6350952
1.621637
1.6066175
1.5902335
1.5728996
1.5551884
1.5379561
1.5222893
1.5095363
1.5010871
1.4981123
1.5014848
1.5119004
1.5295976
1.5543998
1.5853088
1.6200422
1.6553804
1.6909404
1.7223163
1.7518733
1.7748682
1.7970891
1.8085221
1.8240733
1.6962164
1.6962533
1.6962985
1.6963453
1.6963971
1.696455
1.6965194
1.6965912
1.696671
1.6967598
1.6968587
1.6969686
1.6970909
1.6972267
1.6973775
1.6975446
1.6977295
1.6979335
1.6981576
1.6984024
1.6986675
1.6989515
1.6992505
1.6995576
1.6998612
1.7001432
1.7003766
1.7005225
1.7005274
1.7003202
1.699812
1.6988956
1.6974528
1.6953555
1.6924869
1.6887146
1.6839224
1.6780287
1.6709111
1.6624047
1.6523991
1.6407757
1.6275051
1.612699
1.5966041
1.5797692
1.5630339
1.5475498
1.53468
1.5258485
1.5222126
1.5248341
1.5346704
1.5519181
1.5762149
1.6057411
1.6377939
1.6706978
1.7025792
1.7313982
1.7586019
1.7797579
1.8005656
1.8110364
1.8259486
1.6989518
1.6989794
1.6990127
1.6990479
1.6990869
1.6991306
1.6991794
1.6992341
1.6992952
1.6993636
1.6994401
1.6995258
1.6996219
1.6997295
1.6998501
1.6999852
1.7001363
1.7003053
1.7004938
1.7007033
1.7009354
1.7011908
1.7014691
1.7017686
1.7020856
1.7024125
1.702736
1.7030357
1.7032811
1.7034296
1.7034226
1.7031833
1.7026169
1.7016105
1.7000412
1.6977743
1.6946753
1.6905906
1.6853573
1.6788295
1.6707992
1.66108
1.6495651
1.6362165
1.6212387
1.6051341
1.5887734
1.5733555
1.560261
1.5509278
1.546729
1.5489846
1.5586708
1.5757108
1.5990849
1.6262553
1.6559717
1.6852674
1.7143419
1.7405173
1.7656005
1.7850434
1.8045363
1.8140831
1.8284248
1.7015105
1.7015297
1.7015526
1.7015772
1.7016046
1.7016354
1.70167
1.7017089
1.7017526
1.7018021
1.7018579
1.7019209
1.7019918
1.7020717
1.7021617
1.7022631
1.7023777
1.7025075
1.7026545
1.7028207
1.7030084
1.70322
1.7034576
1.7037235
1.7040187
1.7043437
1.7046967
1.705073
1.7054644
1.7058564
1.7062251
1.7065338
1.7067298
1.7067373
1.7064544
1.7057489
1.7044594
1.7023919
1.6993208
1.6949847
1.6891003
1.6813892
1.6715937
1.6596292
1.6456552
1.6301518
1.6140484
1.5985576
1.5850443
1.5753972
1.571149
1.5736952
1.583732
1.6003074
1.6219901
1.6465435
1.6734188
1.6995598
1.7258876
1.7497671
1.7728968
1.7907363
1.8090131
1.8176757
1.8315095
1.7038138
1.7038255
1.7038396
1.7038549
1.7038721
1.7038914
1.7039132
1.7039384
1.7039674
1.7039994
1.704034
1.704072
1.7041156
1.7041672
1.7042288
1.7043011
1.7043838
1.7044776
1.7045838
1.7047041
1.7048419
1.7050011
1.7051856
1.7054001
1.7056496
1.7059391
1.7062751
1.7066656
1.707118
1.7076395
1.7082374
1.7089156
1.7096663
1.7104664
1.7112613
1.7119517
1.712379
1.7123081
1.7114339
1.7093852
1.7057391
1.7000661
1.69202
1.6814287
1.6683922
1.6533803
1.6373481
1.6215615
1.6080783
1.598915
1.5954841
1.5989996
1.6090924
1.6246414
1.6438522
1.6664387
1.6897418
1.7134387
1.7374192
1.7591707
1.7805018
1.7968463
1.8139993
1.8218191
1.8351994
1.7058788
1.7058837
1.7058896
1.705896
1.7059031
1.7059113
1.7059212
1.7059331
1.7059471
1.7059633
1.7059819
1.7060038
1.7060291
1.7060585
1.7060922
1.70613
1.7061737
1.7062272
1.7062922
1.7063678
1.7064557
1.7065615
1.7066925
1.7068548
1.7070521
1.7072907
1.7075833
1.7079458
1.7083968
1.7089585
1.7096571
1.7105318
1.7116169
1.7129276
1.7144641
1.7161809
1.7179487
1.7195384
1.7205958
1.7206345
1.7191024
1.715422
1.7090968
1.6998359
1.6876351
1.6729966
1.6572061
1.6419868
1.6298077
1.6219938
1.6200915
1.624184
1.6339374
1.6474967
1.6651112
1.6845095
1.7057145
1.7271196
1.7489165
1.7687368
1.7884221
1.8033761
1.8194959
1.8265143
1.8394924
1.7077085
1.7077063
1.7077037
1.7077011
1.7076984
1.7076956
1.707693
1.7076911
1.7076906
1.7076919
1.7076935
1.7076935
1.7076922
1.7076913
1.7076929
1.7076997
1.7077146
1.7077398
1.707776
1.7078199
1.7078703
1.7079331
1.7080157
1.7081245
1.7082669
1.7084529
1.7086966
1.7090189
1.709446
1.7100084
1.7107443
1.7117013
1.7129345
1.714495
1.7164267
1.7187295
1.7213167
1.7239897
1.726407
1.7280512
1.7282653
1.726316
1.7215612
1.7134713
1.7021639
1.6885034
1.6741282
1.6608509
1.6505542
1.6448142
1.6439691
1.6481081
1.6569056
1.6693639
1.6846448
1.7021517
1.7211895
1.7405346
1.7604186
1.778479
1.79666
1.8103274
1.825499
1.831759
1.8443879
1.7092493
1.7092397
1.7092284
1.7092166
1.7092037
1.7091896
1.7091746
1.709159
1.7091429
1.7091263
1.7091087
1.7090901
1.7090712
1.7090537
1.7090387
1.7090264
1.7090161
1.7090069
1.7090015
1.7090047
1.7090203
1.7090526
1.7091042
1.7091785
1.7092854
1.7094389
1.7096525
1.709944
1.71034
1.7108731
1.7115854
1.7125302
1.7137694
1.7153762
1.7174204
1.7199365
1.7228819
1.7261037
1.7293049
1.7319677
1.7333761
1.7326781
1.7290775
1.7222889
1.7126521
1.7010604
1.6890251
1.6782335
1.6705066
1.666328
1.6658875
1.6704613
1.6782504
1.6896485
1.7033059
1.7189776
1.7362338
1.7537847
1.7719388
1.788403
1.8052168
1.817698
1.8320026
1.8375513
1.8498826
1.7102097
1.7101941
1.7101757
1.7101563
1.7101353
1.7101125
1.7100878
1.7100612
1.7100326
1.710002
1.7099696
1.7099357
1.7099007
1.7098652
1.7098299
1.7097962
1.7097654
1.7097389
1.7097182
1.7097041
1.7096996
1.7097079
1.7097328
1.7097784
1.709854
1.709977
1.7101645
1.7104309
1.7107953
1.7112922
1.7119718
1.7128845
1.7140841
1.7156536
1.7176579
1.7201294
1.7230848
1.7264339
1.7298876
1.7329608
1.7349562
1.735188
1.7330071
1.7280884
1.7206414
1.7116705
1.7024317
1.6944366
1.6889058
1.6855956
1.6865351
1.6909462
1.6985366
1.7085632
1.7209985
1.7352343
1.7509229
1.7668699
1.7834916
1.7985165
1.8140913
1.8254837
1.8389977
1.8438803
1.8559686
1.7103301
1.7103117
1.7102901
1.7102674
1.7102427
1.7102159
1.710187
1.7101558
1.7101223
1.7100867
1.710049
1.7100093
1.7099682
1.7099259
1.7098831
1.7098407
1.7097997
1.7097616
1.7097284
1.7097024
1.7096865
1.7096859
1.7097083
1.7097581
1.7098363
1.709949
1.7101136
1.7103526
1.7106816
1.7111237
1.7117334
1.7125656
1.7136555
1.7150519
1.7168421
1.7191186
1.7218969
1.7251215
1.7285785
1.7318718
1.734491
1.7357535
1.7350399
1.7320521
1.7270317
1.7208355
1.7143517
1.7090629
1.7051094
1.7037577
1.7058081
1.7101064
1.7170892
1.7264836
1.7379537
1.7509368
1.7652846
1.7798334
1.7950952
1.8088257
1.8232805
1.8336806
1.8464784
1.8507542
1.8626412
1.7093095
1.7092934
1.7092745
1.7092545
1.7092329
1.7092094
1.709184
1.7091566
1.7091272
1.709096
1.7090629
1.7090282
1.7089923
1.7089554
1.7089183
1.7088816
1.7088465
1.7088142
1.7087865
1.7087655
1.7087535
1.7087541
1.7087718
1.7088123
1.7088831
1.7089925
1.7091492
1.7093693
1.7096772
1.7100912
1.7106381
1.7113646
1.7123258
1.7135977
1.7152594
1.7173703
1.7199678
1.7230569
1.7265278
1.7300813
1.7332551
1.735466
1.7361882
1.7351221
1.7325148
1.7288566
1.7251574
1.7222229
1.7203381
1.720742
1.7231641
1.7277924
1.7347084
1.74355
1.7542175
1.7661788
1.7793796
1.7927016
1.8067636
1.8193352
1.8327841
1.8422834
1.8544353
1.8581585
1.8698737
1.7073688
1.7073581
1.7073455
1.7073322
1.7073179
1.7073023
1.7072855
1.7072676
1.7072484
1.7072282
1.707207
1.7071851
1.7071626
1.7071402
1.7071183
1.7070977
1.7070794
1.7070647
1.7070553
1.7070531
1.7070608
1.7070817
1.7071199
1.7071801
1.7072676
1.7073905
1.70756
1.7077858
1.7080775
1.7084647
1.7090013
1.7097302
1.7106683
1.7118704
1.7134445
1.7154845
1.7180414
1.7211354
1.7247006
1.7285176
1.7322188
1.7353348
1.7373569
1.7380947
1.7375844
1.7363928
1.7353866
1.7343941
1.734471
1.7361223
1.7394584
1.7445
1.7513598
1.7598528
1.7699129
1.7810239
1.7932493
1.8055059
1.8185138
1.8300538
1.8426017
1.8512871
1.8628569
1.8660806
1.8776657
1.7047093
1.7047044
1.7046988
1.7046929
1.7046866
1.7046799
1.7046729
1.7046656
1.7046582
1.7046508
1.7046436
1.7046369
1.704631
1.7046266
1.7046244
1.704625
1.7046296
1.7046396
1.704657
1.7046842
1.7047243
1.7047807
1.7048571
1.7049564
1.7050816
1.7052431
1.7054548
1.7057425
1.7061317
1.7066179
1.707213
1.7079761
1.7089698
1.7102556
1.7119069
1.7140068
1.7166293
1.7198217
1.7235511
1.7276811
1.731912
1.7358352
1.7390637
1.7413407
1.7427687
1.7440409
1.7448425
1.7457807
1.7477309
1.7506441
1.7547918
1.7602923
1.7672703
1.7755451
1.7851294
1.7955449
1.8069461
1.8182772
1.8303648
1.8409821
1.8527276
1.8606786
1.8717394
1.8744901
1.8860457
1.7015839
1.7015834
1.701583
1.7015827
1.7015826
1.7015829
1.7015837
1.7015851
1.7015873
1.7015907
1.7015956
1.7016024
1.7016116
1.7016242
1.7016409
1.701663
1.7016919
1.7017296
1.7017784
1.7018412
1.7019216
1.7020226
1.7021482
1.7023037
1.7025029
1.7027676
1.7030996
1.7034933
1.703973
1.7045721
1.7053171
1.7062455
1.7074037
1.7088464
1.7106523
1.7129172
1.7157253
1.719142
1.7231739
1.7277148
1.7325107
1.7372465
1.7415305
1.7451614
1.7485444
1.7514456
1.7539974
1.7569927
1.7603574
1.7644146
1.7694111
1.7754215
1.7825736
1.7907311
1.799962
1.8098097
1.8205162
1.8310462
1.8423303
1.8521255
1.8631661
1.8704475
1.8810748
1.8833761
1.894957
1.6979116
1.6979139
1.697917
1.6979206
1.6979249
1.6979301
1.6979366
1.6979445
1.6979542
1.6979662
1.6979809
1.6979991
1.6980217
1.6980496
1.6980841
1.698127
1.6981803
1.6982463
1.6983282
1.6984297
1.6985548
1.6987097
1.6989025
1.6991418
1.6994363
1.6997941
1.7002277
1.700754
1.701392
1.7021652
1.7031019
1.7042346
1.7056068
1.7072915
1.7093733
1.7119415
1.7150989
1.7189289
1.7234398
1.7285291
1.7339766
1.739522
1.7447114
1.7497801
1.7545899
1.7590249
1.7634516
1.7678679
1.772558
1.7777101
1.7835081
1.7900312
1.7974146
1.8055325
1.8145013
1.8238867
1.8340082
1.8438446
1.8544291
1.8634939
1.8739191
1.8805841
1.8908557
1.8927308
1.9043792
1.6934268
1.693432
1.6934384
1.6934458
1.6934544
1.6934646
1.6934767
1.6934912
1.6935086
1.6935295
1.6935546
1.6935849
1.6936216
1.693666
1.69372
1.6937855
1.6938654
1.6939627
1.6940813
1.6942259
1.694402
1.6946176
1.6948796
1.6951963
1.6955798
1.6960431
1.6966019
1.6972748
1.6980817
1.6990443
1.7001919
1.7015728
1.7032481
1.705285
1.7077759
1.7108306
1.7145547
1.7190176
1.724187
1.729967
1.7361754
1.74239
1.7487025
1.7550699
1.7612313
1.7671505
1.7729183
1.7786777
1.7845609
1.7906991
1.7972568
1.8042876
1.8119258
1.820055
1.8288332
1.8378409
1.8474685
1.8567035
1.8666773
1.8750951
1.8849785
1.8910989
1.9010591
1.9025496
1.9142994
1.6877248
1.6877343
1.6877459
1.6877588
1.6877737
1.6877912
1.6878116
1.6878354
1.6878635
1.6878965
1.6879356
1.687982
1.688037
1.6881026
1.6881809
1.6882746
1.6883867
1.6885213
1.688683
1.6888772
1.6891105
1.6893908
1.6897275
1.6901316
1.6906172
1.6911994
1.6918929
1.692718
1.6937024
1.6948819
1.6962997
1.6980097
1.7000825
1.7026102
1.7057002
1.7094622
1.713981
1.7192774
1.7252864
1.7319174
1.7388369
1.7460214
1.7535991
1.7611082
1.7684491
1.775593
1.7826226
1.7895644
1.7965129
1.8035548
1.8108159
1.8183291
1.8262299
1.8344026
1.8430405
1.8517357
1.8609427
1.8696537
1.8790923
1.8869343
1.8963461
1.9019691
1.9116754
1.9128113
1.9246843
1.6804439
1.6804599
1.6804793
1.6805007
1.6805251
1.6805532
1.6805855
1.6806228
1.680666
1.6807162
1.6807746
1.6808427
1.6809225
1.681016
1.6811259
1.6812553
1.6814081
1.6815887
1.6818026
1.6820555
1.6823555
1.682713
1.6831378
1.6836411
1.6842368
1.6849444
1.6857895
1.6867999
1.6880107
1.689468
1.6912319
1.6933799
1.6960067
1.6992216
1.703135
1.7078348
1.7133568
1.7196659
1.7266914
1.7342006
1.7420997
1.7506044
1.7592068
1.767755
1.7761856
1.7844952
1.7926513
1.8006594
1.8085699
1.8164263
1.8243288
1.8322895
1.840443
1.8486726
1.857202
1.8656317
1.8744742
1.8827237
1.8916888
1.899026
1.9080063
1.9132032
1.9226734
1.923508
1.9354905
1.6713082
1.6713332
1.6713633
1.6713962
1.6714334
1.6714757
1.671524
1.6715791
1.6716422
1.6717147
1.671798
1.671894
1.6720051
1.6721337
1.6722826
1.6724538
1.6726534
1.6728901
1.6731674
1.6734894
1.6738651
1.6743064
1.6748274
1.675443
1.6761713
1.6770365
1.678069
1.6793089
1.6808084
1.6826354
1.6848755
1.6876323
1.6910219
1.6951605
1.7001371
1.7059933
1.7127087
1.7202144
1.7283368
1.7369149
1.7462172
1.7557973
1.7653875
1.7749835
1.7845256
1.7939163
1.8031127
1.8120887
1.8208631
1.8294493
1.8379265
1.8462889
1.8546715
1.8629557
1.8713911
1.8795854
1.8881031
1.8959436
1.9044857
1.9113712
1.9199684
1.9247946
1.9340442
1.9345914
1.9467488
1.6600538
1.6600899
1.6601335
1.6601807
1.6602338
1.6602942
1.6603624
1.6604396
1.6605269
1.6606248
1.660734
1.6608596
1.6610098
1.6611838
1.6613782
1.6615988
1.6618543
1.6621507
1.6624952
1.6628959
1.6633619
1.663905
1.6645413
1.6652911
1.6661803
1.6672426
1.6685229
1.6700801
1.6719908
1.6743515
1.6772771
1.6808939
1.6853255
1.6906669
1.6969553
1.7041858
1.7122702
1.7210647
1.7303944
1.7404618
1.7509593
1.761534
1.7722356
1.7829551
1.7935636
1.8039771
1.8141328
1.8239837
1.833528
1.8427569
1.8517342
1.8604413
1.8690146
1.8773354
1.8856754
1.8936514
1.9018694
1.9093361
1.9174917
1.923979
1.9322293
1.9367588
1.9457731
1.9462615
1.9582703
1.6467047
1.6467548
1.6468124
1.6468708
1.6469352
1.6470146
1.6471128
1.6472217
1.6473351
1.6474598
1.6476028
1.6477666
1.6479538
1.6481679
1.6484125
1.6486923
1.6490132
1.6493815
1.6498035
1.6502902
1.6508558
1.6515171
1.6522958
1.6532205
1.6543292
1.6556726
1.6573173
1.6593493
1.6618755
1.6650211
1.668922
1.6737056
1.6794728
1.6862635
1.6940691
1.7028291
1.7123308
1.7224535
1.7333527
1.7447699
1.7563578
1.7681362
1.7800033
1.7918077
1.8034462
1.8148198
1.8258536
1.8364872
1.8467052
1.8564849
1.8658801
1.8748652
1.8835774
1.8919017
1.9001286
1.9078847
1.9158121
1.9229306
1.93072
1.9368466
1.9447615
1.9490445
1.9578079
1.9581084
1.9700171
1.6313497
1.6314169
1.6314855
1.6315544
1.6316356
1.63173
1.6318382
1.6319618
1.6321038
1.6322679
1.6324584
1.6326779
1.6329235
1.6331921
1.6334882
1.6338224
1.6342036
1.6346396
1.6351405
1.6357196
1.636394
1.637186
1.6381256
1.6392531
1.6406225
1.6423054
1.644395
1.6470084
1.6502848
1.6543779
1.6594393
1.665588
1.6728978
1.681368
1.6909142
1.7013377
1.7125318
1.7244931
1.7370127
1.7497247
1.7626521
1.7757015
1.7887251
1.8016087
1.8142385
1.8265103
1.8383433
1.8496702
1.8604685
1.8707079
1.8804377
1.8896281
1.8984206
1.906707
1.9147928
1.9223198
1.9299537
1.936737
1.9441752
1.9499825
1.9575773
1.9617569
1.9702654
1.9711134
1.9835665
1.6138512
1.6139296
1.6140239
1.6141256
1.6142377
1.6143624
1.6145015
1.6146565
1.6148295
1.6150227
1.6152389
1.615481
1.6157529
1.6160589
1.6164047
1.616797
1.6172445
1.6177582
1.6183523
1.6190457
1.6198636
1.6208396
1.6220188
1.6234617
1.6252473
1.6274777
1.6302797
1.633803
1.638212
1.6436707
1.6503137
1.6582212
1.667415
1.6777748
1.6891842
1.7014921
1.7146355
1.7283504
1.7422661
1.7564266
1.7707368
1.7850447
1.7992338
1.8131786
1.8267601
1.8398718
1.8524297
1.8643645
1.8756501
1.886256
1.8962259
1.9055369
1.9143319
1.9225168
1.9304083
1.9376684
1.9449793
1.9514147
1.9584851
1.9639796
1.9712246
1.9753575
1.9833576
1.9855221
1.9948705
1.5959723
1.5960646
1.5961775
1.5962941
1.5964227
1.596566
1.5967252
1.5969022
1.5970991
1.5973187
1.597564
1.5978386
1.5981472
1.5984955
1.5988907
1.5993421
1.5998619
1.6004663
1.6011766
1.6020218
1.6030404
1.604284
1.6058209
1.60774
1.6101542
1.6132017
1.6170438
1.621855
1.6278068
1.6350418
1.6436424
1.653634
1.6648974
1.6772903
1.6907606
1.7049458
1.7197011
1.7347555
1.7501309
1.7657039
1.7813117
1.7968236
1.812103
1.8270157
1.8414394
1.8552657
1.8684114
1.8808096
1.8924352
1.903261
1.9133329
1.9226374
1.9313205
1.9393112
1.9469242
1.9538647
1.9607944
1.9668676
1.9735274
1.9787289
1.985599
1.9896532
1.9973219
1.9997555
2.0086171
1.5799219
1.5800241
1.5801488
1.5802774
1.5804187
1.5805758
1.58075
1.5809432
1.581158
1.5813972
1.5816646
1.5819647
1.5823032
1.5826878
1.5831283
1.5836376
1.5842331
1.5849383
1.5857843
1.586813
1.5880804
1.5896596
1.5916457
1.5941582
1.597343
1.6013695
1.6064227
1.6126864
1.6203188
1.6294222
1.6400272
1.652061
1.6653634
1.6799233
1.695079
1.710805
1.7270372
1.7436398
1.7604573
1.7773317
1.7941271
1.8106979
1.8269031
1.8426073
1.8576881
1.872041
1.885587
1.8982651
1.9100536
1.9209341
1.9309549
1.94012
1.948576
1.9562822
1.9635409
1.9701138
1.9766185
1.9823216
1.9885405
1.993487
1.9999235
2.0040288
2.0111816
2.0144523
2.0222729
1.5685903
1.5686972
1.5688274
1.5689616
1.5691088
1.569272
1.5694529
1.5696535
1.5698767
1.5701259
1.5704056
1.5707216
1.5710813
1.5714949
1.5719757
1.5725417
1.5732173
1.5740347
1.5750377
1.5762838
1.5778486
1.5798291
1.5823474
1.5855519
1.5896157
1.5947293
1.6010856
1.6088576
1.61817
1.629072
1.6415221
1.6553804
1.6705673
1.6865015
1.7030168
1.7203375
1.7380354
1.7559547
1.7739653
1.7919195
1.8096689
1.8270644
1.8439607
1.8602225
1.8757302
1.8903848
1.9041133
1.9168626
1.9286166
1.9393685
1.949171
1.9580502
1.9661518
1.9734696
1.980287
1.9864314
1.9924555
1.9977648
2.0035107
2.0081985
2.0141902
2.018301
2.0250113
2.0286009
2.0360139
1.5635927
1.5636995
1.563829
1.5639625
1.5641089
1.5642712
1.564451
1.5646509
1.5648741
1.5651247
1.5654083
1.5657322
1.5661062
1.5665437
1.5670623
1.5676864
1.5684481
1.5693909
1.5705719
1.5720656
1.573968
1.576399
1.5795052
1.583458
1.5884484
1.5946741
1.6023202
1.6115324
1.6223885
1.6348776
1.6488938
1.6642862
1.6806976
1.6978584
1.7159511
1.7344444
1.7532245
1.7721462
1.791054
1.8097936
1.8282084
1.846143
1.8634507
1.8799982
1.8956709
1.9103769
1.9240494
1.9366445
1.9481537
1.9585818
1.9679935
1.976435
1.9840522
1.9908747
1.9971607
2.0028075
2.0082953
2.0131766
2.0184205
2.0228405
2.0283832
2.0325145
2.0388006
2.0428948
2.0499184
1.5670502
1.5671517
1.5672734
1.5674004
1.5675396
1.567694
1.5678655
1.568057
1.568272
1.5685158
1.5687951
1.5691191
1.5695003
1.5699556
1.5705078
1.5711879
1.5720369
1.5731092
1.5744758
1.5762276
1.5784792
1.5813703
1.5850663
1.5897534
1.5956296
1.6028878
1.6116919
1.6221505
1.6342918
1.6480503
1.6632734
1.6797421
1.6971936
1.7155281
1.7343955
1.7536538
1.773133
1.7926707