/*--------------------------------*- C++ -*----------------------------------*\
  =========                 |
  \\      /  F ield         | OpenFOAM: The Open Source CFD Toolbox
   \\    /   O peration     | Website:  https://openfoam.org
    \\  /    A nd           | Version:  13
     \\/     M anipulation  |
\*---------------------------------------------------------------------------*/
FoamFile
{
    format      ascii;
    class       volScalarField;
    location    "0.04";
    object      p;
}
// * * * * * * * * * * * * * * * * * * * * * * * * * * * * * * * * * * * * * //

dimensions      [1 -1 -2 0 0 0 0];

internalField   nonuniform List<scalar> 
1000
(
13878.3
13877
13873.7
13869.6
13865.5
13862.4
13860.3
13858.4
13856.6
13854.5
13852.2
13849.5
13846.7
13844
13841.3
13838.7
13836.4
13834.1
13831.9
13829.8
13827.6
13825.4
13823.2
13820.8
13818.3
13815.8
13813.2
13810.5
13807.9
13805.2
13802.6
13799.9
13797.3
13794.6
13792
13789.3
13786.7
13784
13781.3
13778.5
13775.6
13772.8
13770
13767.2
13764.6
13762
13759.7
13757.6
13755.3
13753.7
13751.2
13750
13747.3
13745.9
13745.9
13741.4
13740.5
13741.6
13736.8
13728.6
13726
13723.7
13725.3
13730.9
13720.1
13715.1
13722.8
13719.8
13709.1
13713.9
13718.4
13702.3
13700.7
13718.1
13701.9
13679.6
13703.7
13715.8
13673.5
13670.9
13712.3
13699.2
13657
13678.5
13713.4
13675.1
13649.3
13691.6
13701.1
13648.7
13656
13701.2
13669.9
13634.9
13676.4
13693.3
13638
13637.4
13690.3
13669.7
13619.8
13651.1
13690.5
13641.3
13613.4
13665
13678.2
13616.9
13617.3
13674
13653.2
13600.1
13631.9
13673
13621.6
13593.5
13647.8
13659.6
13595.2
13597
13656.7
13634.7
13577.7
13608.9
13656.1
13605.9
13568.6
13621.3
13647.2
13581
13565.2
13629.3
13632.4
13562.2
13566.4
13632.8
13614.7
13548.7
13569.6
13632.4
13597.8
13538.6
13571.9
13629.3
13584.1
13531
13572.1
13625.5
13573.9
13524.3
13570.2
13621.2
13566
13518.3
13566.8
13616.9
13559.5
13512.5
13562.7
13612.7
13554.2
13506.8
13557.1
13608.6
13551.2
13501.1
13548
13604.4
13552.7
13495.8
13532.3
13598.5
13561.9
13493.1
13508.4
13587
13577.8
13495.8
13482.9
13562.1
13590.7
13512.9
13473.2
13510.2
13583.5
13555
13479.4
13464.7
13542.5
13582.5
13510.6
13464.1
13471.2
13560.6
13566.8
13480.2
13451.6
13488.4
13567.6
13538.9
13464.4
13442.8
13495.9
13566.8
13522
13458.4
13437.7
13484.4
13563
13527.3
13455.6
13434.3
13479.1
13560.6
13528.4
13451.4
13430.2
13495.4
13562.6
13509.9
13443
13433
13526.5
13561
13476.9
13432.4
13460.3
13552.7
13538.3
13448.2
13427
13510.2
13562.9
13490.4
13432.6
13452.2
13550.2
13544.9
13450.2
13426.6
13511.4
13564.5
13490.3
13431.2
13459.1
13555.3
13540.3
13446.5
13429.2
13524.8
13566
13479.8
13429.3
13474.6
13564.2
13530.9
13443.4
13433.8
13537.4
13568.7
13475.3
13430.9
13479.5
13570.9
13535
13448.1
13433.8
13536.3
13577.5
13487.6
13438.2
13466.1
13572.1
13557.7
13461
13434.7
13516.7
13587.8
13520.1
13452
13447.4
13560.8
13587.1
13488
13446.6
13481.9
13589.1
13567.6
13471.7
13445.6
13529.6
13603.9
13535.1
13465.3
13458
13574
13605.5
13505.9
13462
13490.7
13605
13590
13491
13462.1
13534.5
13623.7
13566.3
13490.2
13469.9
13574
13634.4
13549.8
13495.3
13482.3
13599.9
13640.1
13545.5
13504
13487.6
13601.9
13650.1
13558.7
13517.9
13493.8
13581.6
13661
13592
13540.6
13517.1
13539.2
13651.3
13626.1
13588.9
13620.6
13589.4
13564.9
13671.5
13674.6
13583.5
13552.3
13597.3
13717.4
13688.3
13588.8
13628.6
13718.7
13658.6
13603.3
13697
13731.7
13637.4
13630.9
13745.7
13735.2
13635.9
13671.4
13773.1
13717
13653.5
13738.3
13760.6
13681.2
13718.2
13781.6
13711.7
13698.3
13798.3
13785.2
13703.2
13674.8
13779.7
13853.7
13776.1
13734.7
13710.8
13745.2
13875.3
13847
13764.6
13742.3
13743.2
13885.9
13900
13803.1
13775.3
13757.5
13889
13942.1
13848.4
13806.5
13782.5
13898.6
13975.2
13891.2
13839.4
13812.5
13905.2
14006.5
13938.8
13871.9
13844.1
13920.6
14037
13981.5
13904.8
13877.4
13938.8
14066.7
14023.5
13938.9
13911.2
13958.7
14096.6
14065.4
13972.6
13944.9
13982.4
14125.8
14103.6
14007.6
13979.2
14003.1
14153.8
14145.6
14043.3
14014.2
14026.7
14180.9
14184.8
14080
14050.1
14049.8
14205.1
14225.6
14119.8
14086.6
14073.8
14223.2
14267.4
14162.2
14120.9
14101.6
14244.4
14302.9
14203.5
14159.2
14134
14261
14343.8
14255.7
14197.6
14171.4
14297.3
14371.8
14289
14256.3
14233.7
14261.5
14417.1
14413.7
14293.9
14259.6
14386.1
14466.6
14378.4
14323.9
14424.6
14459.8
14376.4
14390.4
14514.8
14484.6
14383.1
14437.6
14571.1
14524.9
14417
14470.8
14600.8
14554
14453.4
14523.2
14638.9
14575.2
14482.9
14567.4
14682.6
14614.7
14516.6
14583.8
14719.7
14671
14561.3
14623
14748.1
14688.5
14601.1
14696.7
14777.3
14688.1
14645.4
14776.9
14803.1
14692.8
14701.5
14844.5
14821.1
14710.4
14768.9
14887.6
14829.1
14746.2
14728.5
14894.7
14966.5
14855.5
14773.3
14854.7
14995.2
14947.2
14827.9
14870.8
15023.5
14995.5
14873.4
14906.3
15061.7
15041
14915.5
14932.2
15098.5
15099.1
14966.4
14949.7
15119.7
15160.9
15031.5
14980.4
15127.5
15209
15101
15020.9
15135.3
15251.1
15169
15065.8
15141.4
15288.4
15240.4
15116
15146.2
15318.1
15311.7
15173.4
15160.7
15336.5
15373.7
15238.1
15190.9
15348.7
15422
15301.2
15235.1
15375.5
15459.5
15354.8
15271.3
15368.7
15508.1
15438
15341
15311.3
15467.7
15574
15475.4
15376.4
15395.4
15587.7
15609.6
15463.4
15413.6
15569
15667.3
15560.5
15464.3
15565
15706.6
15637.9
15517.2
15584.7
15744.4
15697.2
15567.5
15621.1
15785
15743
15613.5
15671.8
15828.7
15775.5
15655.1
15737.8
15873.3
15794.2
15696.7
15817.6
15913
15803.5
15746.1
15900.6
15942.6
15813.5
15810.7
15975.5
15959.2
15831.8
15892.1
16035.9
15965.4
15862.3
15979.4
16082.5
15972.2
15904.6
16059.4
16121
15986.9
15952.6
16127.5
16156.1
16011
16001.8
16185
16193.8
16044.5
16045.8
16233.6
16239.1
16085.1
16079
16271.7
16293.2
16136.9
16104.7
16295.9
16353.4
16203.5
16133.7
16291.5
16407.5
16295.1
16181.7
16260.4
16442.6
16403.3
16247.2
16240.5
16448.1
16493.2
16334.7
16265.3
16415.9
16548.2
16447.8
16322.6
16369.1
16572.3
16565.4
16399.8
16361.7
16553.7
16645.4
16508.4
16409.5
16492.8
16682.7
16644.1
16485.2
16463.5
16671.8
16744
16594.2
16505.7
16617.1
16791.8
16732.1
16581.2
16582.9
16802.7
16842.6
16678
16610.1
16772.8
16906.5
16803.3
16677.2
16728.6
16941.5
16934.8
16762.6
16732.6
16944.5
17014.9
16856.3
16791.3
16973.3
17041.5
16911.6
16841.5
16883.6
17106.7
17092.8
16949.4
16904.2
16959.5
17185.8
17174.2
17010
16957.6
17093.1
17271.9
17213.3
17046.8
17060
17283.9
17286.5
17133.2
17166.9
17298.4
17257.7
17193.4
17268
17307
17237.4
17299
17416.9
17345.4
17281
17451.1
17513
17369.7
17343.5
17543.4
17548.6
17433.1
17399.3
17381.7
17615
17682.6
17537.4
17472.3
17469.9
17718
17768.7
17607.1
17537.2
17593.9
17834.5
17829.2
17657.5
17602.3
17777.8
17940.2
17844.3
17700.6
17719.3
17968.2
18003.6
17827
17756.6
17946
18091.5
17980
17841.8
17917.6
18144.8
18123.5
17944.1
17927.9
18171.7
18233.9
18064.2
17981.9
18170.5
18316.7
18201.7
18064.6
18160.1
18378.6
18336.5
18159
18178.3
18424.5
18437.4
18252.2
18253.1
18472
18470.9
18327.8
18271.9
18397.3
18606.3
18531.5
18400.6
18354
18492.5
18703.7
18629.5
18479.5
18435.9
18643.6
18798.9
18677.9
18543.5
18549.2
18818.7
18873.8
18688.3
18599.7
18749.2
18954
18882
18704.2
18707
18974.3
19028.1
18837.3
18751.1
18944.7
19110.6
18994.6
18837.3
18906.7
19158.2
19143.7
18942
18911
19168.4
19253.2
19070.4
18965.8
19139.1
19326
19222.6
19051.4
19099.1
19364.4
19368.9
19159.5
19106.5
19350.4
19471.1
19304.8
19173.7
19288.5
19526.6
19474
19273.9
19251.4
19521.4
19605.9
19413.2
19303.9
19435.7
19669.6
19610.2
19403.4
19391.8
19664.3
19723
19519.4
19425.9
19532.3
19792.6
19743.2
19523.1
19577
19793
19729.7
19606.8
19565.7
19574.5
19868
19932.9
19708.9
19599.5
19758.9
19969.3
19845.5
19693.5
19830.6
19942.6
19813.4
19784.8
19953.8
19919
19784.1
19939.4
20081.3
19904.7
19808.2
20037.7
20101.5
19913
19919
20078.1
20007
19925.8
20082.2
20095.1
19939.4
20044.7
20229.9
20089.1
19930
20094.6
20298.4
20154.5
19963.6
20080.5
20318
20213.8
20007.9
20118.5
20340.2
20217
20037.9
20189.7
20371.3
20205.3
20057.7
20251.4
20406.4
20203.4
20084.5
20306.2
20396.1
20200.9
20122.5
20062
20243.3
20464
20317
20151.4
20091.6
20162.5
20463.1
20424.1
20184.6
20119.3
20120.8
20435.2
20490.2
20229.9
20133.7
20117.4
20424.2
20509
20251
20140.6
20118.8
20424.5
20519
20259.2
20138.2
20122.5
20431.2
20516.8
20248.8
20129.6
20128.1
20445.7
20509.5
20227.6
20115.6
20142.2
20461.6
20487.9
20197.3
20094.9
20174
20484.2
20446.3
20150.5
20070.9
20240.7
20490.1
20355.8
20118
20050.8
20304.8
20493
20269.5
20040.7
20069.5
20430.6
20434.7
20091.4
20075.2
20324
)
;

boundaryField
{
    sides
    {
        type            zeroGradient;
    }
    empty
    {
        type            empty;
    }
}


// ************************************************************************* //
