/*--------------------------------*- C++ -*----------------------------------*\
  =========                 |
  \\      /  F ield         | OpenFOAM: The Open Source CFD Toolbox
   \\    /   O peration     | Website:  https://openfoam.org
    \\  /    A nd           | Version:  13
     \\/     M anipulation  |
\*---------------------------------------------------------------------------*/
FoamFile
{
    format      ascii;
    class       surfaceScalarField;
    location    "0.04";
    object      phi;
}
// * * * * * * * * * * * * * * * * * * * * * * * * * * * * * * * * * * * * * //

dimensions      [1 0 -1 0 0 0 0];

internalField   nonuniform List<scalar> 
999
(
30.8721
31.1319
31.3915
31.6508
31.9098
32.1687
32.4274
32.6858
32.9442
33.2023
33.4602
33.7178
33.9753
34.2326
34.4897
34.7467
35.0035
35.2601
35.5166
35.7729
36.0292
36.2853
36.5414
36.7974
37.0535
37.3098
37.5661
37.8225
38.0791
38.3357
38.5924
38.8492
39.106
39.3628
39.6198
39.877
40.1343
40.3917
40.6491
40.9062
41.1624
41.4176
41.672
41.9231
42.1783
42.4226
42.6836
42.9217
43.1846
43.4283
43.6815
43.9475
44.1709
44.4758
44.7003
44.9021
45.249
45.5407
45.5652
45.7851
46.0522
46.3184
46.8709
47.1109
47.0264
47.4467
47.9862
47.8616
48.1074
48.7688
48.8076
48.6829
49.454
50.0282
49.1408
49.5608
51.0304
50.5514
49.7575
51.1634
52.2901
50.8351
50.7434
52.8248
53.106
51.5151
52.2591
54.1274
53.1887
52.3534
54.3525
55.1208
53.2683
53.8077
55.942
55.1723
54.0125
55.8905
57.1843
55.1469
55.0723
57.6718
57.7965
55.8272
56.7028
58.9409
57.8895
56.664
58.7014
60.0987
57.8924
57.766
60.5099
60.609
58.5117
59.4818
61.8082
60.5687
59.2961
61.5129
62.9772
60.5639
60.3292
63.2846
63.6111
61.1573
61.8024
64.5715
63.8365
61.9547
63.5128
65.7823
63.9868
62.7458
65.2347
66.918
64.3155
63.6504
66.7629
67.8882
64.9465
64.6621
68.052
68.785
65.769
65.7092
69.1998
69.691
66.6693
66.7369
70.2825
70.6474
67.6078
67.7375
71.3331
71.6216
68.5528
68.7155
72.3658
72.6284
69.5096
69.6492
73.3724
73.7156
70.4826
70.4853
74.3142
74.9229
71.5109
71.2104
75.089
76.2185
72.7353
71.9921
75.3689
77.3028
74.5324
73.1303
74.7169
77.9452
77.2507
74.3978
74.0371
78.2157
79.6011
76.0919
75.1976
76.2988
80.0746
79.9145
76.6007
75.9761
79.1269
81.6445
79.5283
77.5469
77.0754
81.5367
83.0145
79.3775
78.544
78.3595
83.0974
84.0621
80.247
79.6977
79.319
84.1638
85.4538
81.5854
80.8706
80.4336
85.335
86.7573
82.8134
81.9213
81.99
86.9482
87.7611
83.5348
82.7695
84.6323
88.5434
87.7616
84.3039
83.5828
88.2022
90.2443
86.6355
85.0376
85.875
90.5917
90.68
86.4575
85.6228
89.9996
92.4123
89.1262
87.1023
87.9729
92.7951
92.8498
88.4906
87.6659
92.5074
94.6725
90.7888
89.0104
90.6359
95.1077
94.432
90.3924
89.7525
95.215
96.841
92.229
90.8641
93.2252
97.3881
96.0388
92.3594
91.7124
97.4142
99.0074
94.2247
92.9143
94.7558
99.4616
98.5635
94.4702
93.5009
98.7656
101.193
97.0298
95.1675
95.3843
101.312
101.813
96.7731
95.738
98.739
102.948
101.029
97.4974
96.5168
102.28
104.534
99.9168
98.2104
98.3893
104.605
105.131
99.8712
98.7961
101.601
106.208
104.412
100.575
99.4546
105.158
107.776
103.272
101.33
100.911
107.607
108.572
103.145
102.068
103.042
109.151
108.696
103.918
102.884
105.108
110.417
108.909
104.979
103.996
105.718
111.49
110.287
106.216
105.359
105.251
112.147
112.208
107.608
106.974
105.593
111.126
112.972
109.797
110.568
111.448
108.152
111.11
115.189
111.441
109.125
107.876
114.809
117.031
111.481
109.755
115.709
116.33
111.165
112.304
117.573
115.157
111.328
115.499
119.023
114.231
111.889
118.138
119.298
113.755
114.632
119.382
116.436
114.339
119.464
118.615
114.671
118.26
121.285
116.955
114.872
115.055
122.376
121.69
117.29
116.552
114.898
121.794
124.237
118.958
117.636
116.105
120.503
125.184
121.604
118.79
117.498
119.298
125.971
124.29
119.859
118.666
119.117
126.816
126.168
120.952
119.845
119.192
127.532
127.933
122.037
120.895
119.744
128.179
129.217
123.152
121.913
120.432
128.697
130.376
124.318
122.901
121.228
129.113
131.45
125.547
123.835
122.053
129.555
132.39
126.722
124.774
122.957
129.673
133.254
128.154
125.701
123.882
129.766
134.067
129.524
126.64
124.912
129.49
134.773
131.113
127.584
126.006
128.955
135.509
133.006
128.461
126.967
128.83
136.212
134.342
129.43
128.047
128.502
136.925
136.15
130.317
128.9
129.314
137.493
136.163
131.889
131.147
128.909
136.223
139.881
134.559
130.87
131.394
139.598
138.819
132.607
133.743
139.095
136.51
132.537
138.606
141.24
134.914
132.398
140.814
142.761
135.466
133.144
141.395
143.123
136.059
134.249
142.709
143.584
136.263
134.914
143.879
144.689
137.021
135.062
144.141
145.953
138.383
136.172
144.704
145.826
138.652
138.117
146.001
144.774
138.707
141.354
147.18
143.263
138.668
144.982
148.512
141.888
139.267
147.558
148.449
141.803
139.695
142.419
150.579
149.551
141.726
140.102
149.999
151.817
143.873
140.989
149.523
152.452
145.302
141.888
149.965
153.306
146.432
142.63
149.837
154.247
148.479
143.815
148.128
154.837
151.624
145.185
146.469
155.345
154.286
146.393
145.78
155.821
156.272
147.746
145.737
155.784
157.84
149.616
146.374
154.684
158.804
152.381
147.743
152.667
159.313
155.526
149.131
151.099
159.817
157.92
150.318
151.27
160.289
159.167
151.357
149.77
160.557
161.573
153.529
151.422
152.169
162.674
162.586
153.796
151.193
158.96
164.472
159.69
153.534
154.518
164.602
164.107
155.197
153.691
164.67
165.993
156.899
154.302
164.636
167.059
158.445
155.238
165.048
167.86
159.44
156.251
166.153
168.438
159.819
157.521
167.785
168.531
159.84
159.522
169.236
167.793
160.105
162.76
170.387
166.221
160.305
166.87
171.557
164.31
160.829
170.569
171.955
163.236
162.597
172.673
171.448
163.253
165.261
173.989
170.622
163.556
168.064
175.232
170.012
163.891
170.306
176.418
169.982
164.414
171.604
177.465
170.83
165.149
171.793
178.351
172.686
166.203
170.46
179.059
175.663
167.533
168.059
179.528
179.368
169.194
166.705
178.585
181.764
172.404
168.029
174.272
182.051
177.854
170.016
169.854
182.094
182.645
172.074
168.978
179.651
184.384
176.674
171.125
173.748
184.391
182.847
173.132
170.651
183.083
186.369
176.844
172.446
176.885
186.428
183.781
174.631
172.689
185.779
188.072
177.728
173.714
180.969
188.625
183.829
175.967
175.952
188.619
189.005
178.214
174.974
186.312
191.156
183.127
177.141
181.521
191.356
187.942
178.89
181.407
191.068
187.81
180.646
177.514
188.466
193.523
185.534
181.525
178.452
190.427
195.387
187.004
181.977
180.321
194.494
196.824
185.817
181.225
190.039
196.498
188.979
184.119
192.047
193.314
187.399
187.226
192.138
189.559
186.1
194.908
194.754
187.18
189.692
198.749
194.691
186.774
192.889
199.435
193.174
189.63
186.835
191.499
201.856
197.942
190.576
187.479
194.505
203.686
198.737
191.182
187.801
200.294
205.501
197.19
191.312
190.641
205.251
206.139
194.442
190.502
200.076
207.521
201.732
193.379
193.603
207.599
207.788
195.894
192.324
205.754
210.017
200.472
194.356
200.926
210.385
206.17
196.571
196.674
210.795
210.884
198.847
195.544
209.786
213.204
202.486
196.925
207.043
214.002
206.107
198.796
207.261
213.285
205.941
200.883
198.148
213.534
215.398
204.772
201.828
199.359
215.292
217.412
205.948
202.364
202.651
217.794
217.852
205.73
201.94
210.665
219.941
214.986
205.355
203.197
219.274
221.633
209.271
204.372
213.075
222.32
217.109
207.205
206.999
222.407
223.081
209.949
205.924
219.946
225.282
215.287
208.3
214.027
225.545
221.966
210.706
209.487
225.602
227.038
213.659
209.199
222.154
228.748
219.84
211.982
215.146
228.937
227.209
214.518
211.418
227.599
231.428
219.173
213.49
219.951
231.744
227.86
216.514
213.733
230.604
234.252
221.327
215.577
223.692
234.303
228.455
218.797
215.551
232.282
237.261
224.157
218.372
231.124
234.411
224.621
222.193
218.528
228.765
239.343
233.986
222.381
220.434
237.82
239.298
225.611
225.062
237.001
234.55
226.521
232.801
237.975
228.537
227.341
241.778
239.576
227.046
231.053
243.448
237.041
229.562
237.906
240.538
231.649
234.812
242.775
234.942
230.656
245.531
246.44
232.218
230.743
248.332
250.035
234.063
230.843
248.167
251.9
236.501
232.968
249.528
252.205
237.181
235.631
252.212
252.199
237.567
238.131
254.807
252.834
238.557
241.68
255.757
250.756
241.809
239.339
237.943
257.603
259.331
244.346
241.851
238.174
255.298
263.248
249.673
244.26
240.665
251.735
264.713
256.809
246.34
242.836
251.877
266.546
260.523
248.303
244.822
253.08
268.531
263.334
250.108
246.555
255.955
270.895
264.762
251.816
248.15
259.43
273.401
265.635
253.472
249.581
264.228
276.171
265.299
254.963
251.342
270.032
279.086
263.813
256.224
254.187
276.152
281.368
261.547
256.799
261.151
280.675
278.589
261.111
258.048
269.136
282.568
277.833
263.568
255.157
)
;

boundaryField
{
    sides
    {
        type            calculated;
        value           nonuniform List<scalar> 2(272.624 -30.6122);
    }
    empty
    {
        type            empty;
    }
}


// ************************************************************************* //
