/*--------------------------------*- C++ -*----------------------------------*\
  =========                 |
  \\      /  F ield         | OpenFOAM: The Open Source CFD Toolbox
   \\    /   O peration     | Website:  https://openfoam.org
    \\  /    A nd           | Version:  13
     \\/     M anipulation  |
\*---------------------------------------------------------------------------*/
FoamFile
{
    format      ascii;
    class       volScalarField;
    location    "0.04";
    object      rho;
}
// * * * * * * * * * * * * * * * * * * * * * * * * * * * * * * * * * * * * * //

dimensions      [1 -3 0 0 0 0 0];

internalField   nonuniform List<scalar> 
1000
(
0.2444
0.244381
0.244333
0.244273
0.244215
0.244169
0.244137
0.244108
0.244079
0.244047
0.244011
0.243971
0.24393
0.243889
0.243848
0.24381
0.243774
0.243739
0.243705
0.243672
0.243639
0.243605
0.24357
0.243533
0.243495
0.243457
0.243417
0.243377
0.243337
0.243296
0.243256
0.243215
0.243175
0.243135
0.243094
0.243054
0.243013
0.242973
0.242931
0.242889
0.242846
0.242803
0.24276
0.242718
0.242678
0.242638
0.242602
0.242569
0.242533
0.242506
0.242465
0.242442
0.2424
0.242376
0.242367
0.242302
0.242283
0.242288
0.242218
0.242108
0.242066
0.242029
0.242042
0.242101
0.241956
0.241887
0.241974
0.241925
0.241783
0.241835
0.24188
0.241668
0.241641
0.241848
0.24163
0.241345
0.241641
0.241775
0.241234
0.2412
0.241707
0.241523
0.240991
0.241259
0.24168
0.241185
0.240861
0.241388
0.241488
0.240826
0.240921
0.241476
0.24107
0.240635
0.241158
0.241355
0.240658
0.24066
0.241319
0.241047
0.240429
0.24083
0.241313
0.24069
0.24035
0.241002
0.241155
0.240387
0.240404
0.241111
0.240837
0.24018
0.24059
0.241094
0.240442
0.240101
0.240786
0.240921
0.240114
0.240149
0.240894
0.240604
0.239898
0.240301
0.240881
0.240242
0.239786
0.240453
0.240763
0.239929
0.239744
0.240549
0.240572
0.239695
0.23976
0.240589
0.240346
0.239525
0.239801
0.240579
0.240131
0.239399
0.239831
0.24054
0.239959
0.239304
0.239834
0.24049
0.239832
0.239222
0.23981
0.240437
0.239732
0.239146
0.239768
0.240383
0.239652
0.239075
0.239718
0.240331
0.239584
0.239003
0.239648
0.24028
0.239547
0.238931
0.239534
0.240228
0.239565
0.238863
0.239337
0.240155
0.239679
0.238826
0.239034
0.240013
0.23988
0.238857
0.238706
0.239705
0.240049
0.239066
0.238578
0.239059
0.239966
0.23959
0.238653
0.238475
0.239461
0.239948
0.239034
0.238461
0.238566
0.239684
0.239744
0.238659
0.238305
0.238787
0.239767
0.239387
0.238465
0.238196
0.238882
0.239755
0.239176
0.238391
0.238132
0.238739
0.239709
0.239242
0.238355
0.238087
0.238672
0.239679
0.239255
0.238301
0.238038
0.238876
0.239701
0.239021
0.238195
0.238079
0.239259
0.239673
0.238608
0.23806
0.238431
0.239579
0.239376
0.238255
0.237998
0.239056
0.239698
0.238772
0.23806
0.238327
0.239546
0.239458
0.238276
0.23799
0.23907
0.239716
0.238769
0.238041
0.238413
0.239608
0.239396
0.23823
0.238025
0.239235
0.239732
0.238639
0.238018
0.23861
0.239717
0.239276
0.238192
0.238085
0.23939
0.239763
0.238583
0.238038
0.238672
0.239801
0.239326
0.238252
0.238085
0.239381
0.239876
0.238737
0.23813
0.238505
0.23982
0.239616
0.238414
0.238092
0.239143
0.240012
0.239143
0.238306
0.238264
0.239688
0.239993
0.238747
0.238236
0.238707
0.240035
0.239738
0.238548
0.238229
0.239305
0.240212
0.239328
0.23847
0.238395
0.239854
0.240222
0.238967
0.238429
0.238816
0.240234
0.240018
0.23879
0.238433
0.239368
0.240463
0.239719
0.238784
0.238538
0.239861
0.240592
0.239515
0.238848
0.238698
0.240181
0.240659
0.239465
0.238957
0.238762
0.240209
0.240785
0.239631
0.239132
0.238834
0.239962
0.240927
0.240045
0.239417
0.239121
0.239425
0.240815
0.24048
0.240029
0.240428
0.240019
0.239738
0.241075
0.241083
0.23995
0.239564
0.24016
0.241641
0.241247
0.240021
0.240548
0.241652
0.240878
0.240212
0.2414
0.241803
0.240621
0.24057
0.242001
0.241836
0.240608
0.241085
0.242333
0.241605
0.240839
0.241913
0.242161
0.241172
0.241664
0.242431
0.241546
0.241411
0.242656
0.242464
0.241451
0.241107
0.242443
0.243334
0.242353
0.24185
0.24155
0.242014
0.243615
0.243233
0.242223
0.241945
0.241982
0.243758
0.243902
0.2427
0.24236
0.242152
0.243808
0.244437
0.243261
0.242753
0.242463
0.243935
0.244856
0.243794
0.243166
0.242836
0.244024
0.245251
0.244385
0.243573
0.24323
0.244218
0.245633
0.244917
0.243985
0.243645
0.244447
0.246006
0.24544
0.24441
0.244065
0.244694
0.24638
0.245961
0.244829
0.244486
0.244989
0.246746
0.246439
0.245268
0.244918
0.245248
0.247102
0.246968
0.245713
0.245354
0.245543
0.247442
0.247457
0.246167
0.245802
0.245827
0.247749
0.247968
0.246662
0.24626
0.246122
0.247981
0.248491
0.247183
0.246686
0.246464
0.248249
0.248936
0.247696
0.247163
0.246862
0.24846
0.249445
0.248336
0.247637
0.247323
0.248905
0.249786
0.248753
0.248362
0.248079
0.248464
0.250363
0.250287
0.248821
0.248415
0.250002
0.250958
0.249852
0.249212
0.250469
0.250871
0.24984
0.250053
0.251567
0.251162
0.249933
0.250646
0.252258
0.251655
0.250354
0.251057
0.252625
0.252017
0.250807
0.251704
0.253092
0.252279
0.251174
0.25225
0.253629
0.252764
0.251589
0.252455
0.254088
0.253456
0.252137
0.252934
0.254436
0.253674
0.252634
0.253836
0.254788
0.253677
0.253191
0.254812
0.255093
0.253746
0.253897
0.255631
0.255306
0.253973
0.254731
0.25615
0.255406
0.254415
0.25422
0.256266
0.257106
0.255726
0.25475
0.255789
0.257466
0.256842
0.255412
0.255981
0.257815
0.257433
0.255968
0.256412
0.258281
0.25799
0.256478
0.256726
0.258733
0.258701
0.257097
0.25693
0.259001
0.259464
0.257883
0.257292
0.259105
0.260056
0.25872
0.257778
0.259206
0.260571
0.259541
0.258319
0.259283
0.261029
0.260407
0.258923
0.259335
0.261395
0.261276
0.259614
0.259498
0.261627
0.262037
0.260389
0.259853
0.261784
0.262628
0.261146
0.260384
0.262109
0.263085
0.261794
0.260814
0.262038
0.263678
0.262797
0.261653
0.261308
0.263231
0.26447
0.263247
0.262081
0.262351
0.264657
0.264878
0.263117
0.262547
0.26445
0.265591
0.264274
0.263149
0.264408
0.26607
0.265204
0.263782
0.264645
0.266529
0.265918
0.264387
0.265082
0.267017
0.266469
0.264942
0.265692
0.267538
0.266859
0.265445
0.266483
0.26807
0.267085
0.265952
0.267437
0.268536
0.2672
0.266556
0.268423
0.268878
0.267328
0.267345
0.269304
0.269062
0.267557
0.26833
0.270013
0.269129
0.267933
0.269372
0.270559
0.269214
0.268447
0.270319
0.271007
0.269395
0.269034
0.271125
0.271417
0.269687
0.269629
0.271804
0.27186
0.270091
0.270157
0.272381
0.272397
0.270573
0.270549
0.272834
0.273044
0.271187
0.270847
0.273132
0.273768
0.271972
0.271179
0.273093
0.274421
0.273047
0.271737
0.272729
0.274851
0.274336
0.272508
0.27247
0.274933
0.275422
0.273533
0.272741
0.274572
0.27609
0.274859
0.273408
0.274014
0.27639
0.27626
0.274315
0.273896
0.276195
0.277232
0.275582
0.274444
0.275486
0.277687
0.277182
0.27533
0.27511
0.277584
0.278389
0.276597
0.275584
0.276957
0.27897
0.278218
0.276468
0.276535
0.279119
0.279542
0.277594
0.276827
0.27879
0.280314
0.279058
0.277608
0.27827
0.280741
0.280612
0.278601
0.27829
0.280797
0.281573
0.279692
0.278976
0.281138
0.28189
0.280351
0.279547
0.280098
0.282686
0.282473
0.280811
0.280286
0.280996
0.283612
0.283426
0.281522
0.280923
0.282571
0.284612
0.283875
0.28196
0.282168
0.284769
0.284745
0.282971
0.283416
0.284927
0.284422
0.283695
0.284585
0.285012
0.284198
0.28497
0.286309
0.285446
0.284738
0.286745
0.287414
0.285732
0.285486
0.287809
0.287821
0.28649
0.2861
0.28593
0.28866
0.28939
0.287692
0.286955
0.286972
0.289853
0.290389
0.288507
0.287715
0.288438
0.291192
0.291079
0.289107
0.28849
0.290579
0.292402
0.291244
0.28962
0.289892
0.292753
0.293112
0.291067
0.29029
0.292527
0.294152
0.292818
0.291262
0.292206
0.29478
0.294483
0.292434
0.292299
0.295112
0.295776
0.293805
0.292898
0.29512
0.296745
0.295377
0.29384
0.295007
0.297469
0.29693
0.294919
0.295205
0.298012
0.298103
0.295986
0.296061
0.298556
0.298494
0.296867
0.296238
0.297746
0.300082
0.29918
0.297715
0.297185
0.298844
0.3012
0.300299
0.298622
0.298141
0.300568
0.302281
0.300855
0.299358
0.299477
0.302543
0.303118
0.300991
0.300013
0.301787
0.304061
0.303184
0.301197
0.301285
0.304319
0.304878
0.302695
0.301756
0.304015
0.30584
0.304471
0.302724
0.303585
0.306396
0.306172
0.303901
0.303602
0.306535
0.30744
0.305341
0.304199
0.306229
0.308285
0.307057
0.305161
0.305771
0.30874
0.308731
0.306374
0.305821
0.308613
0.309916
0.307999
0.306559
0.307934
0.310564
0.309911
0.307688
0.307484
0.310543
0.311438
0.30924
0.308046
0.309608
0.312188
0.311456
0.309163
0.309089
0.312158
0.312756
0.310455
0.309429
0.310708
0.313581
0.312956
0.310522
0.311201
0.313588
0.312825
0.311477
0.311012
0.311173
0.314459
0.315128
0.312598
0.311409
0.313274
0.315566
0.314122
0.31247
0.314059
0.315259
0.313788
0.313526
0.315419
0.314971
0.313495
0.315297
0.31682
0.314806
0.313792
0.316393
0.317032
0.314922
0.315055
0.316811
0.31597
0.315107
0.316883
0.316965
0.315236
0.316491
0.318506
0.316875
0.315153
0.317067
0.319272
0.317602
0.315528
0.316913
0.319507
0.318275
0.316029
0.317343
0.319757
0.318317
0.316376
0.318142
0.3201
0.318197
0.316612
0.318835
0.320487
0.318182
0.316928
0.319439
0.320366
0.318183
0.317328
0.316666
0.318769
0.321151
0.319454
0.317663
0.316992
0.317868
0.321171
0.320654
0.318026
0.317307
0.317388
0.320884
0.321414
0.31852
0.317474
0.317341
0.320771
0.321635
0.318749
0.317554
0.317357
0.32078
0.321753
0.318837
0.317528
0.317403
0.320856
0.321728
0.318728
0.317437
0.317478
0.321012
0.321637
0.318494
0.317279
0.31765
0.321184
0.32139
0.318169
0.317054
0.318024
0.321426
0.320913
0.317663
0.316793
0.318781
0.321482
0.319898
0.317313
0.316601
0.319486
0.321496
0.318946
0.316469
0.31684
0.320865
0.320832
0.317
0.31682
0.319703
)
;

boundaryField
{
    sides
    {
        type            calculated;
        value           nonuniform List<scalar> 2(0.319703 0.2444);
    }
    empty
    {
        type            empty;
    }
}


// ************************************************************************* //
