/*--------------------------------*- C++ -*----------------------------------*\
  =========                 |
  \\      /  F ield         | OpenFOAM: The Open Source CFD Toolbox
   \\    /   O peration     | Website:  https://openfoam.org
    \\  /    A nd           | Version:  13
     \\/     M anipulation  |
\*---------------------------------------------------------------------------*/
FoamFile
{
    format      ascii;
    class       volScalarField;
    location    "0.04";
    object      rho_0;
}
// * * * * * * * * * * * * * * * * * * * * * * * * * * * * * * * * * * * * * //

dimensions      [1 -3 0 0 0 0 0];

internalField   nonuniform List<scalar> 
1000
(
0.244407
0.244388
0.244339
0.244279
0.244221
0.244176
0.244144
0.244114
0.244085
0.244054
0.244017
0.243977
0.243936
0.243895
0.243855
0.243816
0.24378
0.243745
0.243712
0.243678
0.243645
0.243611
0.243576
0.24354
0.243502
0.243463
0.243424
0.243384
0.243343
0.243303
0.243262
0.243222
0.243181
0.243141
0.243101
0.24306
0.24302
0.242979
0.242938
0.242896
0.242853
0.24281
0.242767
0.242724
0.242684
0.242644
0.242609
0.242575
0.242539
0.242512
0.242472
0.242449
0.242406
0.242383
0.242373
0.242308
0.242291
0.242295
0.242219
0.242114
0.242073
0.242036
0.242056
0.242107
0.241954
0.241898
0.241987
0.241922
0.24179
0.241852
0.241881
0.241665
0.241661
0.241861
0.241608
0.241357
0.241677
0.241761
0.241216
0.241237
0.241733
0.241486
0.24099
0.241311
0.241685
0.241146
0.240882
0.241433
0.241462
0.240807
0.240973
0.241493
0.241024
0.240651
0.24121
0.241333
0.240632
0.24071
0.241348
0.240995
0.24043
0.240895
0.241313
0.240642
0.240375
0.241056
0.241126
0.240359
0.240458
0.241143
0.240781
0.24018
0.240658
0.241093
0.240391
0.240129
0.240843
0.240886
0.240085
0.240208
0.240927
0.240543
0.239895
0.240375
0.240886
0.240182
0.239805
0.24052
0.240741
0.239885
0.239787
0.240603
0.240523
0.239667
0.239825
0.240627
0.240279
0.239511
0.23988
0.240604
0.240058
0.239395
0.239916
0.240554
0.239885
0.239306
0.23992
0.240499
0.239758
0.239227
0.239897
0.240442
0.239659
0.239153
0.239856
0.240386
0.239578
0.239082
0.239807
0.240333
0.239509
0.23901
0.239739
0.240285
0.239469
0.238934
0.239628
0.240239
0.239482
0.238859
0.239434
0.24018
0.239591
0.23881
0.239121
0.240058
0.239807
0.238825
0.238751
0.239782
0.240026
0.238998
0.238571
0.239164
0.239997
0.239501
0.238632
0.238509
0.239552
0.239939
0.238955
0.238446
0.238649
0.239743
0.239685
0.238614
0.238296
0.238899
0.2398
0.239295
0.238446
0.238195
0.238999
0.239775
0.239081
0.238378
0.238126
0.238859
0.239737
0.239145
0.238339
0.23808
0.238794
0.239711
0.239155
0.23828
0.238045
0.238997
0.239717
0.238917
0.238176
0.238133
0.239352
0.239646
0.238526
0.238044
0.23855
0.239625
0.239282
0.238218
0.238026
0.23917
0.239694
0.238671
0.23804
0.238441
0.239602
0.23937
0.23823
0.238019
0.239185
0.239711
0.238664
0.238023
0.238538
0.239657
0.239295
0.238189
0.238075
0.239341
0.239707
0.238543
0.238006
0.238747
0.239753
0.239159
0.23816
0.238153
0.239488
0.239721
0.238497
0.238026
0.238815
0.239835
0.239206
0.238221
0.23814
0.239492
0.239845
0.238641
0.238107
0.23864
0.239875
0.239507
0.238371
0.238106
0.239287
0.240018
0.239021
0.23828
0.238349
0.239787
0.239936
0.238665
0.238214
0.238854
0.240085
0.239618
0.238509
0.238241
0.239456
0.240218
0.2392
0.238443
0.238476
0.239962
0.240168
0.238878
0.238403
0.238964
0.240292
0.2399
0.238745
0.238429
0.239533
0.24048
0.239586
0.238757
0.238573
0.240006
0.240572
0.239402
0.238821
0.238766
0.240306
0.240612
0.239374
0.238932
0.238817
0.240346
0.240746
0.239537
0.23911
0.23884
0.240129
0.240921
0.239935
0.239401
0.239088
0.23957
0.240852
0.240402
0.240051
0.240445
0.239939
0.239822
0.241168
0.240982
0.239897
0.239537
0.240337
0.241688
0.241105
0.239986
0.240697
0.241658
0.240753
0.240251
0.241525
0.241733
0.240532
0.240685
0.242079
0.24171
0.240558
0.241244
0.242352
0.24147
0.240871
0.242024
0.24208
0.241129
0.24179
0.242401
0.241453
0.241511
0.242722
0.242352
0.241402
0.241123
0.242618
0.243308
0.242249
0.241831
0.241511
0.242192
0.243667
0.243099
0.242192
0.241906
0.242105
0.243864
0.243804
0.242637
0.242327
0.242212
0.243965
0.244385
0.243158
0.242722
0.242487
0.244119
0.24483
0.24367
0.243137
0.24283
0.244227
0.245252
0.244242
0.243544
0.243209
0.244427
0.24565
0.244768
0.243954
0.243614
0.244654
0.246039
0.245289
0.244376
0.244027
0.244896
0.246428
0.245812
0.244789
0.244444
0.245184
0.246807
0.246294
0.245223
0.244874
0.245427
0.24718
0.246833
0.245658
0.245309
0.245703
0.247538
0.247335
0.246102
0.245758
0.245957
0.247868
0.247865
0.246582
0.246219
0.246213
0.248132
0.248416
0.247078
0.246648
0.246528
0.248422
0.248878
0.247581
0.247127
0.246888
0.24866
0.249415
0.248198
0.247601
0.247348
0.249098
0.249743
0.248653
0.248343
0.248026
0.248657
0.250443
0.250143
0.248736
0.248444
0.250196
0.250927
0.249704
0.249252
0.250593
0.250797
0.249749
0.250214
0.251621
0.251001
0.249881
0.250859
0.252295
0.251472
0.250306
0.251265
0.252657
0.25184
0.250773
0.251913
0.253102
0.252099
0.251152
0.25247
0.253638
0.252576
0.25155
0.252682
0.254122
0.253266
0.252092
0.253148
0.254452
0.253498
0.252634
0.254025
0.254746
0.253532
0.253273
0.254945
0.254984
0.253642
0.254067
0.255704
0.255135
0.253921
0.254938
0.256161
0.255243
0.254362
0.254308
0.256455
0.257066
0.25554
0.254719
0.256035
0.257501
0.256642
0.25535
0.256201
0.257876
0.257249
0.255893
0.256623
0.258352
0.25781
0.256393
0.25692
0.25883
0.258544
0.256989
0.257058
0.259154
0.259367
0.257732
0.257343
0.259314
0.260016
0.258532
0.257778
0.259448
0.260571
0.259333
0.25828
0.259534
0.261069
0.260199
0.25885
0.259555
0.261485
0.261104
0.259507
0.259642
0.261778
0.261926
0.26024
0.259923
0.261987
0.262565
0.260967
0.260426
0.262322
0.263043
0.261608
0.260786
0.262303
0.263691
0.2626
0.261601
0.261348
0.263479
0.264454
0.263035
0.262018
0.262563
0.26478
0.264742
0.262975
0.262592
0.264687
0.265564
0.26406
0.263125
0.264677
0.26609
0.264979
0.263729
0.264906
0.266575
0.2657
0.264319
0.265333
0.267072
0.266255
0.264876
0.265943
0.26758
0.266643
0.265403
0.266737
0.268074
0.266873
0.265961
0.267669
0.268485
0.267018
0.266642
0.268598
0.268758
0.267193
0.267527
0.269403
0.268873
0.267487
0.268575
0.270032
0.268915
0.267935
0.269613
0.270512
0.269019
0.268518
0.270522
0.270906
0.26923
0.269169
0.271287
0.27127
0.269547
0.26981
0.271939
0.271684
0.269964
0.270357
0.27251
0.272216
0.270444
0.270737
0.272981
0.272884
0.271037
0.270978
0.273328
0.273663
0.271782
0.271213
0.273364
0.274401
0.272802
0.271686
0.273029
0.274917
0.274094
0.272406
0.272652
0.275109
0.275296
0.273351
0.272758
0.274865
0.276088
0.274602
0.273338
0.274294
0.276493
0.276052
0.274187
0.273988
0.276443
0.277174
0.275352
0.274393
0.275799
0.277754
0.276936
0.275227
0.275249
0.277803
0.278302
0.276383
0.275551
0.27728
0.279013
0.277957
0.276374
0.276742
0.279291
0.279401
0.277411
0.276849
0.279091
0.280308
0.278795
0.277536
0.278567
0.280846
0.280395
0.278463
0.278429
0.281022
0.281466
0.27948
0.279064
0.281361
0.281791
0.280184
0.279473
0.280388
0.282793
0.282262
0.28072
0.280216
0.281309
0.283719
0.283202
0.281407
0.280901
0.282917
0.284657
0.283595
0.281854
0.282411
0.284909
0.284542
0.282867
0.283619
0.284945
0.284277
0.283702
0.284699
0.284938
0.284127
0.285188
0.286291
0.285262
0.284825
0.286953
0.287293
0.285547
0.285664
0.287951
0.287654
0.28641
0.286028
0.286078
0.288895
0.289273
0.287522
0.286876
0.287178
0.290059
0.290244
0.288333
0.287637
0.288765
0.291304
0.290855
0.288972
0.288498
0.290929
0.292408
0.290957
0.289527
0.290157
0.292918
0.292945
0.290873
0.290323
0.292858
0.294139
0.292529
0.291185
0.29255
0.294869
0.29423
0.292293
0.292495
0.295325
0.295647
0.29358
0.292928
0.295454
0.296729
0.295085
0.293772
0.295366
0.297538
0.296653
0.294793
0.295483
0.298164
0.297885
0.29582
0.296297
0.298684
0.298297
0.296751
0.296186
0.298127
0.30011
0.298918
0.297643
0.297142
0.299236
0.301235
0.300014
0.298535
0.298178
0.300926
0.302263
0.300562
0.299265
0.299727
0.30275
0.302969
0.300767
0.29998
0.30218
0.304103
0.302873
0.301082
0.301535
0.304525
0.304722
0.302465
0.301779
0.304381
0.305838
0.30415
0.302636
0.303948
0.30651
0.305904
0.30374
0.303781
0.306797
0.307324
0.305077
0.304194
0.306617
0.308302
0.306727
0.305061
0.306115
0.308883
0.308486
0.306193
0.305936
0.308932
0.309848
0.307698
0.306499
0.308339
0.310641
0.309596
0.307555
0.307683
0.31081
0.311313
0.308975
0.307996
0.310027
0.31226
0.311124
0.30903
0.309328
0.312396
0.312583
0.310233
0.309363
0.311132
0.313684
0.312617
0.3104
0.311531
0.313646
0.312584
0.311419
0.310921
0.311464
0.314697
0.314962
0.31233
0.311384
0.313698
0.315578
0.31379
0.312479
0.314342
0.315179
0.313602
0.313704
0.315523
0.314731
0.313496
0.315642
0.316738
0.31451
0.313927
0.316676
0.316848
0.314758
0.315277
0.316851
0.315756
0.315209
0.317061
0.316754
0.315161
0.316858
0.3185
0.316531
0.315145
0.317494
0.319287
0.317213
0.31547
0.317345
0.319572
0.317892
0.315966
0.317756
0.319794
0.317951
0.316366
0.318543
0.320069
0.317848
0.316658
0.319232
0.320405
0.317847
0.31704
0.319765
0.320213
0.31798
0.317263
0.31666
0.319246
0.321166
0.319094
0.317601
0.316912
0.318316
0.32134
0.3203
0.317906
0.317218
0.317706
0.321177
0.321179
0.318286
0.317385
0.317611
0.321105
0.321446
0.318472
0.317465
0.317608
0.321133
0.321582
0.318536
0.317438
0.317683
0.321197
0.321534
0.318435
0.317346
0.317803
0.321329
0.321401
0.318221
0.317187
0.318052
0.321451
0.321079
0.317939
0.316978
0.31851
0.321621
0.320507
0.317494
0.316773
0.31932
0.321581
0.319408
0.317199
0.316754
0.319945
0.321403
0.318534
0.316402
0.317158
0.32116
0.320669
0.316681
0.316639
0.320121
)
;

boundaryField
{
    sides
    {
        type            calculated;
        value           nonuniform List<scalar> 2(0.320121 0.244407);
    }
    empty
    {
        type            empty;
    }
}


// ************************************************************************* //
