/*--------------------------------*- C++ -*----------------------------------*\
  =========                 |
  \\      /  F ield         | OpenFOAM: The Open Source CFD Toolbox
   \\    /   O peration     | Website:  https://openfoam.org
    \\  /    A nd           | Version:  13
     \\/     M anipulation  |
\*---------------------------------------------------------------------------*/
FoamFile
{
    format      ascii;
    class       volScalarField;
    location    "32.401934";
    object      k;
}
// * * * * * * * * * * * * * * * * * * * * * * * * * * * * * * * * * * * * * //

dimensions      [0 2 -2 0 0 0 0];

internalField   nonuniform List<scalar> 
17140
(
9.9762397e-12
3.13488e-10
2.5634852e-09
1.102445e-08
3.3924666e-08
8.5604586e-08
1.8982162e-07
3.8469094e-07
7.2998316e-07
1.3178212e-06
2.2882658e-06
3.8519023e-06
6.3224148e-06
1.0163332e-05
1.6054778e-05
2.4988255e-05
3.840039e-05
5.8360194e-05
8.7828668e-05
0.00013101398
0.00019384857
0.0002846129
0.00041471763
0.00059961697
0.00085973605
0.0012211101
0.0017150973
0.0023760124
0.003235016
0.0043088635
0.0055849173
0.0070102995
0.0084981543
0.0099549338
0.011311263
0.012535239
0.013625606
0.014598041
0.015474741
0.016279026
0.01703332
0.017758925
0.018476349
0.019205913
0.019968334
0.020784171
0.021673165
0.022655791
0.023754105
0.024991706
0.02639529
0.027995093
0.029826347
0.031924836
0.034326534
0.037074064
0.040224773
0.043811552
0.047906589
0.052409797
0.056401913
0.058167082
0.057538563
0.054574898
0.054556693
9.943955e-12
3.1247351e-10
2.5551953e-09
1.0988839e-08
3.3815207e-08
8.5328616e-08
1.8921002e-07
3.834519e-07
7.2763223e-07
1.3135768e-06
2.2808937e-06
3.8394876e-06
6.3020267e-06
1.0130537e-05
1.6002934e-05
2.4907498e-05
3.8276181e-05
5.8171262e-05
8.7544106e-05
0.00013058922
0.00019321986
0.00028368993
0.00041337402
0.0005976787
0.00085696879
0.0012172086
0.0017096833
0.002368655
0.0032252917
0.0042964714
0.0055698292
0.0069928585
0.0084789563
0.0099344914
0.011289902
0.012513007
0.013602343
0.01457358
0.015448941
0.016251729
0.0170044
0.017728239
0.018443667
0.019170818
0.019930118
0.020741644
0.021624513
0.022598534
0.023684847
0.024905994
0.026287405
0.027858589
0.029654982
0.031715838
0.034089375
0.036848048
0.040111427
0.044036793
0.048853821
0.054520137
0.060442877
0.064074933
0.064842432
0.061272047
0.059654201
9.8433751e-12
3.0931292e-10
2.5293493e-09
1.0877676e-08
3.3473057e-08
8.4464917e-08
1.8729384e-07
3.7956602e-07
7.2025268e-07
1.3002427e-06
2.2577175e-06
3.8004325e-06
6.2378497e-06
1.0027251e-05
1.5839582e-05
2.4652958e-05
3.7884607e-05
5.7575627e-05
8.6647162e-05
0.000129251
0.0001912407
0.00028078802
0.00040915684
0.00059160899
0.00084832877
0.0012050723
0.0016929187
0.0023459937
0.0031955205
0.0042587815
0.0055242541
0.0069405291
0.008421822
0.0098745508
0.011228538
0.012450812
0.013539349
0.014509554
0.015383606
0.016184861
0.016935807
0.017657715
0.018370921
0.019095387
0.019851257
0.020658145
0.021534572
0.022499683
0.023573798
0.024778697
0.026139141
0.027684724
0.029452274
0.031486006
0.033848196
0.03664215
0.04004847
0.044335446
0.049860737
0.056818339
0.064646605
0.070840338
0.073652733
0.069921329
0.065938401
9.6707998e-12
3.0388998e-10
2.4850035e-09
1.0686952e-08
3.2886082e-08
8.2983437e-08
1.8400777e-07
3.7290397e-07
7.0760517e-07
1.2773987e-06
2.2180286e-06
3.7335823e-06
6.1280536e-06
9.8506392e-06
1.556042e-05
2.4218217e-05
3.721623e-05
5.6559589e-05
8.5118166e-05
0.00012697134
0.0001878716
0.00027585178
0.00040198874
0.00058130019
0.00083366632
0.0011844932
0.0016645135
0.0023076241
0.0031451388
0.0041950146
0.0054471415
0.0068519731
0.0083251682
0.0097733346
0.011125314
0.012346818
0.013434846
0.014404318
0.015277265
0.016077059
0.016826229
0.017546057
0.018256814
0.018978315
0.019730414
0.020532289
0.021401905
0.022357823
0.023419686
0.024608768
0.025949696
0.027472894
0.029217466
0.031233577
0.033597649
0.036440893
0.039995722
0.044619152
0.050785372
0.058857035
0.068387875
0.077406108
0.083038378
0.08034981
0.074878689
9.4258362e-12
2.9619237e-10
2.4220572e-09
1.0416237e-08
3.2052962e-08
8.0880862e-08
1.7934454e-07
3.6345114e-07
6.8966235e-07
1.2449962e-06
2.1617444e-06
3.6388011e-06
5.9724215e-06
9.6003653e-06
1.5164935e-05
2.3602512e-05
3.6269936e-05
5.5121546e-05
8.2954843e-05
0.00012374704
0.00018310803
0.00026887472
0.0003918602
0.00056673765
0.00081295767
0.0011554304
0.0016243947
0.0022534128
0.0030739051
0.0041047496
0.0053378068
0.0067261801
0.0081876634
0.0096292671
0.01097853
0.012199299
0.01328714
0.014256214
0.015128286
0.015926704
0.016674046
0.017391622
0.018099669
0.018817895
0.019565866
0.020362313
0.021224758
0.022171241
0.023220888
0.024394758
0.025717872
0.027222222
0.028949906
0.030957782
0.0333347
0.036233106
0.039920298
0.04479879
0.051351177
0.059911799
0.070254562
0.081442034
0.091073268
0.090884748
0.085668913
9.1100716e-12
2.8626995e-10
2.3409181e-09
1.0067283e-08
3.0979087e-08
7.8170801e-08
1.7333436e-07
3.5126884e-07
6.6654073e-07
1.2032458e-06
2.0892313e-06
3.5167071e-06
5.7719701e-06
9.2780663e-06
1.4655719e-05
2.2809879e-05
3.5051926e-05
5.3270911e-05
8.0171307e-05
0.00011959899
0.00017698059
0.00025990095
0.00037883366
0.00054800782
0.00078631878
0.0011180326
0.0015727394
0.0021835451
0.0029819641
0.0039880026
0.0051960147
0.0065625509
0.0080083075
0.0094410192
0.010786664
0.012006666
0.013094643
0.014063682
0.01493513
0.015732262
0.016477706
0.017192821
0.017897835
0.018612369
0.019355756
0.020146301
0.021001133
0.021937897
0.022975387
0.024134796
0.025442151
0.026931824
0.028649845
0.030660496
0.033061978
0.036019155
0.039810523
0.044823054
0.051428644
0.059843373
0.069987266
0.081862676
0.094305719
0.097706414
0.094490772
8.7270273e-12
2.7423339e-10
2.2424913e-09
9.643983e-09
2.9676437e-08
7.488349e-08
1.6604429e-07
3.3649307e-07
6.3849854e-07
1.152614e-06
2.0012998e-06
3.3686651e-06
5.5289406e-06
8.8873457e-06
1.4038462e-05
2.1849171e-05
3.3575787e-05
5.1028279e-05
7.6798423e-05
0.00011457296
0.00016955629
0.00024902747
0.00036304758
0.00052530492
0.00075401618
0.0010726545
0.0015100002
0.0020985628
0.0028699004
0.0038452972
0.0050220659
0.0063609897
0.0077865171
0.0092075704
0.01054841
0.011767483
0.012855893
0.013825271
0.014696359
0.015492287
0.016235722
0.016948093
0.017649647
0.01835994
0.019098106
0.019882111
0.020728728
0.021655352
0.022680693
0.023826538
0.025120705
0.02660101
0.028319149
0.030347418
0.032790245
0.035816404
0.039688697
0.044705037
0.050866252
0.057690077
0.065003013
0.075614617
0.090323164
0.097407766
0.095147242
8.2821869e-12
2.6025497e-10
2.1281853e-09
9.1523945e-09
2.8163658e-08
7.1065994e-08
1.5757872e-07
3.1933539e-07
6.0593733e-07
1.093826e-06
1.8992093e-06
3.1967957e-06
5.2468138e-06
8.4337985e-06
1.3322e-05
2.0734127e-05
3.18626e-05
4.8425608e-05
7.2884108e-05
0.00010874001
0.00016093945
0.00023640563
0.00034471873
0.00049893482
0.0007164733
0.0010198682
0.0014369233
0.001999392
0.0027387815
0.0036777285
0.0048168827
0.0061220058
0.0075222247
0.0089282877
0.010262729
0.011480497
0.01256956
0.013539641
0.014410628
0.015205408
0.015946662
0.016655898
0.017353409
0.018058717
0.018790785
0.01956733
0.020404855
0.021320664
0.022333721
0.023467031
0.024751274
0.026229292
0.027961506
0.030027986
0.032538093
0.035657928
0.03959963
0.044439596
0.049285805
0.052192877
0.052278631
0.057702696
0.07196447
0.083284965
0.081901017
7.7829554e-12
2.4456737e-10
1.9999023e-09
8.6006977e-09
2.6465929e-08
6.6781847e-08
1.4807853e-07
3.0008138e-07
5.6939908e-07
1.0278602e-06
1.7846591e-06
3.0039593e-06
4.9302845e-06
7.9249695e-06
1.2518244e-05
1.948327e-05
2.9940789e-05
4.5506005e-05
6.8493015e-05
0.00010219612
0.00015127106
0.00022224036
0.00032414147
0.00046931447
0.00067427079
0.00096046437
0.0013545543
0.0018873582
0.0025901879
0.0034870169
0.0045820931
0.0058468241
0.0072159976
0.0086030275
0.0099289197
0.011144677
0.012234465
0.013205558
0.014076677
0.014870317
0.015609126
0.016314686
0.017007363
0.017706674
0.018431439
0.019199201
0.020026339
0.020930248
0.021930597
0.023052469
0.024330808
0.025816107
0.027581359
0.029713724
0.032326795
0.035578527
0.039567059
0.043837966
0.045759363
0.041930152
0.030904751
0.02721366
0.033634593
0.048241828
0.048707138
7.2385268e-12
2.2745953e-10
1.8600059e-09
7.9990584e-09
2.4614527e-08
6.2109982e-08
1.3771877e-07
2.790858e-07
5.29557e-07
9.5593204e-07
1.6597596e-06
2.7937083e-06
4.5851823e-06
7.3702271e-06
1.1641986e-05
1.8119603e-05
2.7845655e-05
4.2323011e-05
6.3705491e-05
9.5060641e-05
0.00014072665
0.00020678715
0.00030168358
0.00043696655
0.00062814001
0.00089544634
0.0012642333
0.001764187
0.0024262278
0.0032755481
0.0043201078
0.0055375025
0.0068691798
0.0082322691
0.0095467155
0.010759269
0.011849598
0.012821897
0.013693311
0.014485742
0.015221716
0.015922866
0.016609644
0.017301592
0.018017412
0.018774536
0.019589385
0.020479683
0.02146638
0.022577768
0.023854593
0.025359706
0.027181463
0.029410408
0.032167743
0.035574552
0.039441797
0.041952923
0.039045287
0.02636932
0.011186778
0.0080678813
0.009621271
0.013534807
0.013814455
6.6596487e-12
2.0926918e-10
1.7112576e-09
7.3593521e-09
2.2645997e-08
5.7142611e-08
1.2670393e-07
2.5676304e-07
4.8719743e-07
8.7946101e-07
1.5269753e-06
2.5701907e-06
4.2183144e-06
6.7805101e-06
1.0710496e-05
1.6669985e-05
2.561843e-05
3.8939183e-05
5.8615448e-05
8.7473166e-05
0.00012951174
0.00019034565
0.00027777735
0.00040250737
0.0005789472
0.00082601009
0.0011675731
0.0016319843
0.0022495281
0.0030463899
0.0040341826
0.0051970517
0.0064840562
0.0078172875
0.0091164268
0.010323887
0.011414166
0.012387649
0.013259394
0.014050419
0.014782999
0.015478763
0.016158234
0.016840993
0.017545656
0.018289584
0.019089398
0.019963442
0.020934655
0.022035801
0.023315759
0.024853997
0.026759526
0.029110831
0.032034736
0.035505774
0.038411832
0.037157703
0.027945408
0.010220645
0.0037360232
0.0023346433
0.0025754929
0.0033454279
0.0033866351
6.0582973e-12
1.9037263e-10
1.5567343e-09
6.6948119e-09
2.0601059e-08
5.1982485e-08
1.1526183e-07
2.3357481e-07
4.4319644e-07
8.0002852e-07
1.3890519e-06
2.3380277e-06
3.8372639e-06
6.1680043e-06
9.7430161e-06
1.5164344e-05
2.3305056e-05
3.542425e-05
5.3327617e-05
7.9589492e-05
0.00011785595
0.00017325111
0.00025290751
0.00036663012
0.000527671
0.00075351532
0.0010664241
0.0014931977
0.0020632014
0.0028032813
0.0037284547
0.0048295424
0.0060640334
0.0073603686
0.0086391369
0.0098386541
0.010927673
0.011901958
0.01277384
0.013563069
0.014291464
0.014980555
0.015650886
0.016322054
0.017012613
0.017739866
0.018520753
0.019374547
0.020327042
0.021416683
0.022705758
0.024289729
0.02628287
0.028777237
0.031800058
0.034728179
0.034413961
0.02849018
0.011424014
0.0037328986
0.0012976629
0.00074160526
0.00072907006
0.00080840781
0.00079039417
5.447193e-12
1.7116962e-10
1.3997053e-09
6.0194971e-09
1.8522977e-08
4.6738771e-08
1.0363452e-07
2.1001159e-07
3.9848466e-07
7.193144e-07
1.2489058e-06
2.1021275e-06
3.4500854e-06
5.5456536e-06
8.7599837e-06
1.3634472e-05
2.0954358e-05
3.1852337e-05
4.79534e-05
7.1575474e-05
0.000106004
0.00015586149
0.00022759284
0.00033007919
0.00047536728
0.0006794388
0.0009628146
0.001350547
0.0018707725
0.0025505747
0.003407932
0.004440182
0.0056138223
0.0068650704
0.0081169718
0.0093044239
0.010390063
0.011364193
0.012235646
0.013022385
0.013745483
0.014426212
0.015085039
0.015741494
0.016414061
0.017119945
0.01787645
0.018704041
0.019632196
0.020707598
0.022011922
0.023648121
0.025721324
0.028292185
0.030943845
0.031022236
0.026793897
0.012097193
0.0039407272
0.0013101095
0.00050048721
0.00030228298
0.00026774563
0.00026388001
0.00023462894
4.8393292e-12
1.5206842e-10
1.2435086e-09
5.3477626e-09
1.645592e-08
4.152292e-08
9.2069108e-08
1.8657413e-07
3.5401219e-07
6.3903356e-07
1.1095143e-06
1.8675007e-06
3.065001e-06
4.9266718e-06
7.7822664e-06
1.2112838e-05
1.8616206e-05
2.829919e-05
4.2606701e-05
6.3600844e-05
9.4206678e-05
0.00013854424
0.00020236722
0.00029362339
0.00042313193
0.00060532383
0.00085888513
0.0012069408
0.0016760842
0.0022931437
0.0030784344
0.0040353366
0.0051395855
0.0063364981
0.0075534378
0.0087230911
0.0098019629
0.010774107
0.011643966
0.012427054
0.01314328
0.013813419
0.014457691
0.015095413
0.015744859
0.016423059
0.017147572
0.017940017
0.018834315
0.019893428
0.021210766
0.022878581
0.024960757
0.027197519
0.027257354
0.023797467
0.011516624
0.0038943287
0.0013035628
0.00049145398
0.00024458129
0.00017722156
0.00015744575
0.00014835663
0.00013087108
4.2472438e-12
1.3346304e-10
1.0913665e-09
4.6934658e-09
1.444253e-08
3.6442523e-08
8.0804153e-08
1.637458e-07
3.1069609e-07
5.6084123e-07
9.7375087e-07
1.6389835e-06
2.6899471e-06
4.3238135e-06
6.8300079e-06
1.0630787e-05
1.633876e-05
2.4837995e-05
3.7397641e-05
5.5829848e-05
8.2706963e-05
0.00012165606
0.00017775035
0.00025801383
0.00037204116
0.00053269693
0.00075677394
0.0010653257
0.0014831055
0.0020361604
0.0027463755
0.0036223841
0.0046489758
0.0057815624
0.0069538278
0.0080980242
0.0091650379
0.010132088
0.01099827
0.011775823
0.012482929
0.013139497
0.013765239
0.014379011
0.014998521
0.015640467
0.016322315
0.017065681
0.017915119
0.018952669
0.020256346
0.021864692
0.02355745
0.023384368
0.020073818
0.0097781872
0.0036045101
0.0012596851
0.00048112627
0.00023818333
0.00016346162
0.00013978007
0.00012747217
0.00011743138
0.00010767146
3.6824356e-12
1.1571482e-10
9.4623404e-10
4.0693168e-09
1.252192e-08
3.1596265e-08
7.0058451e-08
1.4196995e-07
2.6937751e-07
4.8625564e-07
8.4425126e-07
1.4210118e-06
2.3322032e-06
3.7487793e-06
5.9216897e-06
9.2170833e-06
1.4166231e-05
2.1535959e-05
3.2427425e-05
4.8413593e-05
7.1728745e-05
0.00010552634
0.00015422352
0.00022394906
0.00032310178
0.00046299788
0.00065852096
0.00092855754
0.0012957683
0.0017849048
0.0024185741
0.0032096188
0.0041511607
0.005209211
0.006325662
0.0074346021
0.0084825105
0.0094395703
0.010298616
0.01106765
0.011762381
0.012401316
0.013003225
0.013586069
0.014166431
0.014760074
0.015383886
0.016058116
0.016854273
0.017838913
0.019026403
0.02014395
0.019577362
0.016196155
0.0075890695
0.0030045987
0.0011374958
0.00045867604
0.00023165373
0.00016027778
0.00013711684
0.00012746585
0.00011868579
0.00010961
0.00010124321
3.1549905e-12
9.9140688e-11
8.1070268e-10
3.4864582e-09
1.0728372e-08
2.7070648e-08
6.0023789e-08
1.2163519e-07
2.3079371e-07
4.1660746e-07
7.2332555e-07
1.2174734e-06
1.99815e-06
3.2118252e-06
5.0735145e-06
7.8969541e-06
1.2137407e-05
1.8452092e-05
2.7784994e-05
4.1485059e-05
6.1469441e-05
9.0446305e-05
0.00013221388
0.00019205231
0.00027721839
0.0003975328
0.00056600088
0.00079930677
0.0011178354
0.0015445872
0.0021020334
0.0028059705
0.003656618
0.0046303572
0.0056789232
0.0067407561
0.0077597993
0.0086996082
0.0095460731
0.010301937
0.010979505
0.011595121
0.012165916
0.012708115
0.01323637
0.013763672
0.014304102
0.014887653
0.015605053
0.016418783
0.017011773
0.016030243
0.012264412
0.0055129366
0.002308463
0.00094278208
0.00041323658
0.00022132193
0.00015621946
0.00013543764
0.00012679562
0.00012159293
0.00011440525
0.00010652863
9.8966789e-05
2.6729555e-12
8.3993489e-11
6.8683954e-10
2.9537797e-09
9.0892409e-09
2.2934683e-08
5.0853155e-08
1.0305147e-07
1.9553267e-07
3.5295778e-07
6.1281557e-07
1.0314678e-06
1.6928732e-06
2.7211253e-06
4.2983946e-06
6.6905005e-06
1.0283199e-05
1.5633427e-05
2.354127e-05
3.5150363e-05
5.2086785e-05
7.664908e-05
0.00011206434
0.00016282591
0.00023512433
0.00033736904
0.00048076251
0.00067981268
0.00095252537
0.0013197827
0.0018031173
0.0024199634
0.0031761243
0.0040574677
0.005026207
0.0060274903
0.0070052354
0.0079175889
0.0087432808
0.0094788493
0.010132109
0.010716186
0.011245463
0.011732974
0.012189696
0.012622035
0.013035346
0.013500825
0.01403135
0.014129794
0.012842703
0.0085173332
0.0039006056
0.0016828362
0.00073584283
0.00035273334
0.00020559023
0.00015167296
0.00013278591
0.00012581793
0.00012084997
0.00011521546
0.00010859371
0.00010264505
9.6649649e-05
2.2422029e-12
7.0457738e-11
5.7615346e-10
2.4777705e-09
7.6244923e-09
1.9238742e-08
4.2658215e-08
8.6445018e-08
1.6402354e-07
2.9608107e-07
5.1406567e-07
8.6525719e-07
1.4200856e-06
2.2826483e-06
3.6057617e-06
5.612415e-06
8.6262179e-06
1.3114409e-05
1.9748282e-05
2.9487545e-05
4.3697155e-05
6.4307457e-05
9.4030644e-05
0.00013664764
0.00019737734
0.00028333054
0.00040402522
0.00057188389
0.00080252465
0.0011144724
0.0015276611
0.0020599042
0.0027208075
0.0035041075
0.0043822726
0.0053088802
0.0062305169
0.0071018862
0.0078950353
0.0085996393
0.0092178412
0.0097581155
0.010230245
0.010641998
0.010996123
0.011285541
0.011520373
0.011747918
0.011553178
0.0099653393
0.0056316816
0.0026566693
0.0011972305
0.00055652747
0.00029285423
0.00018774858
0.00014648619
0.00013063702
0.00012429188
0.00011948625
0.00011319407
0.00010840676
0.00010404138
9.964807e-05
9.5082279e-05
1.8658619e-12
5.8631802e-11
4.7944929e-10
2.0618913e-09
6.3447746e-09
1.6009692e-08
3.5498536e-08
7.1936524e-08
1.3649526e-07
2.463905e-07
4.277931e-07
7.2004896e-07
1.1817691e-06
1.8995814e-06
3.0006556e-06
4.6705553e-06
7.178574e-06
1.0913527e-05
1.6434043e-05
2.4538806e-05
3.636388e-05
5.3516272e-05
7.8254803e-05
0.00011373062
0.00016429867
0.00023590484
0.0003365354
0.00047667451
0.00066963438
0.00093148127
0.0012800722
0.0017325137
0.0023004326
0.0029833708
0.003762788
0.004601317
0.0054505141
0.0062640713
0.0070085867
0.0076666968
0.0082336848
0.0087114159
0.0091022123
0.009405037
0.009605949
0.0096853354
0.0096350622
0.0091599437
0.0073831737
0.0038025942
0.0017773725
0.00083520958
0.00041872308
0.00024290893
0.00017133664
0.00014173399
0.00012903306
0.00012340115
0.00011826732
0.00011278803
0.0001085974
0.00010506886
0.00010166823
9.8172394e-05
9.3975818e-05
1.5442666e-12
4.8526179e-11
3.968128e-10
1.7065111e-09
5.2512233e-09
1.3250396e-08
2.9380452e-08
5.9538806e-08
1.129721e-07
2.0392983e-07
3.5407376e-07
5.9597076e-07
9.7813343e-07
1.5722631e-06
2.4836153e-06
3.8657715e-06
5.9416026e-06
9.0328777e-06
1.3601867e-05
2.0309433e-05
3.0095534e-05
4.4289714e-05
6.4760827e-05
9.4116438e-05
0.00013596184
0.00019522413
0.0002785336
0.00039462491
0.00055466106
0.00077227644
0.0010629729
0.0014423184
0.0019223625
0.002506217
0.0031822648
0.0039215215
0.0046817763
0.0054179835
0.0060930404
0.0066828808
0.0071747209
0.0075610634
0.0078334576
0.0079741129
0.007944206
0.0077420259
0.0070452027
0.0049938163
0.0025205139
0.0012089961
0.00058712856
0.00031831587
0.00020515231
0.000158066
0.00013796404
0.00012829787
0.00012321657
0.000117979
0.00011291373
0.00010956278
0.00010589286
0.00010240213
9.8793385e-05
9.5949981e-05
9.2540587e-05
1.2750028e-12
4.0064981e-11
3.2762316e-10
1.4089596e-09
4.3356196e-09
1.0940111e-08
2.4257964e-08
4.915862e-08
9.3277099e-08
1.6837951e-07
2.9235264e-07
4.9208822e-07
8.0764487e-07
1.2982283e-06
2.0507481e-06
3.1920103e-06
4.9060152e-06
7.4583815e-06
1.1230647e-05
1.6768136e-05
2.4846252e-05
3.6561377e-05
5.3453964e-05
7.7672349e-05
0.00011218554
0.00016104981
0.00022972416
0.00032540702
0.00045732228
0.00063680242
0.00087689236
0.0011910486
0.0015904401
0.0020796287
0.0026514121
0.0032833648
0.0039393722
0.0045770671
0.0051573312
0.0056499656
0.0060328575
0.0062860437
0.0063847104
0.0062985583
0.0059796266
0.005170386
0.0031870728
0.0016334216
0.00081486728
0.00042357662
0.00024981591
0.0001779637
0.00014834348
0.00013502494
0.00012829268
0.00012378641
0.00011840883
0.00011370128
0.00011024953
0.00010636062
0.0001024522
9.9460606e-05
9.6553325e-05
9.4356258e-05
9.1614706e-05
1.05296e-12
3.3087628e-11
2.7056729e-10
1.1635899e-09
3.5805872e-09
9.0349886e-09
2.0033838e-08
4.0598911e-08
7.7036309e-08
1.3906443e-07
2.4145747e-07
4.0642792e-07
6.6706421e-07
1.0722697e-06
1.6938284e-06
2.6364699e-06
4.0521426e-06
6.160155e-06
9.2754377e-06
1.3847938e-05
2.0517087e-05
3.0186339e-05
4.4123829e-05
6.4095879e-05
9.2539706e-05
0.00013277878
0.00018927624
0.00026790417
0.00037617177
0.00052329477
0.00071989317
0.00097698681
0.0013038871
0.0017047476
0.0021742323
0.002693967
0.0032325349
0.0037504474
0.0042076296
0.0045681829
0.0047997366
0.0048678802
0.0047520826
0.0043780928
0.0035094782
0.002011113
0.0010433136
0.00054750253
0.00031014463
0.00020399592
0.00015881808
0.00014138259
0.00013323998
0.00012890019
0.00012498928
0.00011927211
0.00011458439
0.00011088852
0.00010684132
0.00010329687
0.00010033998
9.7881199e-05
9.5161971e-05
9.3332168e-05
9.0851126e-05
8.7044532e-13
2.7352389e-11
2.2366868e-10
9.6190193e-10
2.9599697e-09
7.4690283e-09
1.6561723e-08
3.3563084e-08
6.368691e-08
1.1496852e-07
1.9962385e-07
3.3601952e-07
5.5151536e-07
8.865476e-07
1.4004687e-06
2.1798629e-06
3.3503307e-06
5.0931024e-06
7.6683178e-06
1.1447413e-05
1.6957776e-05
2.4943626e-05
3.6447797e-05
5.291945e-05
7.6352048e-05
0.00010945306
0.00015583965
0.00022023961
0.00030864863
0.00042834677
0.00058760464
0.00079482051
0.0010567759
0.0013758124
0.001746231
0.0021511559
0.0025619389
0.0029414204
0.0032491166
0.0034447157
0.0034869626
0.0033562064
0.0029882324
0.0021649644
0.0012193805
0.00066214864
0.00036931373
0.0002330596
0.0001713411
0.00014574339
0.00013556466
0.00013206407
0.00012951987
0.00012661318
0.00012039595
0.00011555785
0.00011172619
0.00010769847
0.00010439247
0.00010151142
9.8656756e-05
9.6051818e-05
9.3471752e-05
9.1791278e-05
8.9809442e-05
7.175289e-13
2.2547234e-11
1.8437565e-10
7.9292176e-10
2.4399971e-09
6.157014e-09
1.3652654e-08
2.7668168e-08
5.2502134e-08
9.4779636e-08
1.6457299e-07
2.7702624e-07
4.5469879e-07
7.3093104e-07
1.1546562e-06
1.7972475e-06
2.7622119e-06
4.1988361e-06
6.3212669e-06
9.4349721e-06
1.3973064e-05
2.0545509e-05
3.0004652e-05
4.3530411e-05
6.2737432e-05
8.9803229e-05
0.0001276093
0.00017987345
0.00025122729
0.00034715394
0.00047364555
0.00063637947
0.00083918538
0.0010816868
0.0013563918
0.0016462469
0.0019241883
0.0021554851
0.0023010854
0.0023195849
0.0021944121
0.0018518731
0.0012357728
0.00071748603
0.00041022564
0.00025421025
0.00017827809
0.00014864092
0.00013514861
0.00013160236
0.00013121349
0.00013037699
0.00012811029
0.00012203956
0.00011672328
0.00011274655
0.00010874986
0.00010550997
0.00010242364
9.9336951e-05
9.6552221e-05
9.4319287e-05
9.2180819e-05
9.0896751e-05
8.9286386e-05
5.8326161e-13
1.8328095e-11
1.4987457e-10
6.4454883e-10
1.9834317e-09
5.0049761e-09
1.1098244e-08
2.2491796e-08
4.2680376e-08
7.7050326e-08
1.3379079e-07
2.2521432e-07
3.6966159e-07
5.9423547e-07
9.3870716e-07
1.4610685e-06
2.2453796e-06
3.41279e-06
5.1368949e-06
7.6649254e-06
1.1346631e-05
1.6673008e-05
2.4327113e-05
3.5248719e-05
5.0712966e-05
7.2419496e-05
0.00010258122
0.00014398887
0.00020000612
0.00027441871
0.00037102143
0.00049280118
0.00064058147
0.00081109788
0.00099488317
0.0011748172
0.0013262321
0.0014187527
0.0014170334
0.0013108713
0.0010385935
0.0006756074
0.00040762248
0.00025508772
0.00017430584
0.00014260434
0.00012823503
0.00012742242
0.00012868131
0.00013131779
0.00013142889
0.00012971477
0.00012411259
0.00011787141
0.00011371602
0.00010987903
0.00010662678
0.0001033175
0.00010021448
9.7577925e-05
9.5353041e-05
9.3337426e-05
9.129709e-05
8.9864863e-05
8.8452163e-05
4.583322e-13
1.4402381e-11
1.1777283e-10
5.0649335e-10
1.5586078e-09
3.9330032e-09
8.721274e-09
1.767476e-08
3.3539854e-08
6.0549415e-08
1.0513859e-07
1.7698186e-07
2.904879e-07
4.6694348e-07
7.3757236e-07
1.147875e-06
1.7637453e-06
2.6800271e-06
4.0323682e-06
6.0134479e-06
8.8948395e-06
1.3055845e-05
1.9020407e-05
2.7502349e-05
3.9457166e-05
5.613452e-05
7.9118305e-05
0.00011032922
0.00015194719
0.00020618877
0.00027485545
0.00035856862
0.00045567636
0.00056089056
0.00066413546
0.00075006416
0.00079863169
0.00078777691
0.00070581649
0.00052841276
0.00034827376
0.00022831662
0.00015695373
0.00012563333
0.00011169094
0.00011466898
0.00011908035
0.00012767756
0.00013360875
0.00013336242
0.00013166029
0.00012597749
0.00011878614
0.0001148132
0.00011116946
0.0001078564
0.00010433654
0.00010127081
9.8693887e-05
9.6277333e-05
9.3968863e-05
9.1885419e-05
8.9988585e-05
8.8912455e-05
8.7896342e-05
3.3869543e-13
1.0642979e-11
8.7030969e-11
3.7428489e-10
1.1517689e-09
2.9063809e-09
6.444766e-09
1.3061052e-08
2.4784518e-08
4.4742438e-08
7.7688337e-08
1.3076669e-07
2.1461391e-07
3.4493482e-07
5.4474659e-07
8.4755166e-07
1.3017894e-06
1.9770221e-06
2.9724275e-06
4.4282724e-06
6.5410858e-06
9.5831282e-06
1.3926294e-05
2.0069488e-05
2.8666293e-05
4.054579e-05
5.6712942e-05
7.8305506e-05
0.00010647282
0.00014213013
0.00018554165
0.00023573935
0.00028977165
0.0003420361
0.00038389403
0.00040377099
0.00039069732
0.00033582505
0.00024934639
0.00017579114
0.00012557237
0.00010105211
8.9638341e-05
9.2670303e-05
0.00010000779
0.00011537489
0.00013201646
0.00013548251
0.00013535721
0.00013359514
0.00012769933
0.00012020133
0.00011628355
0.0001126346
0.00010901501
0.00010543546
0.00010238217
9.9732631e-05
9.7107188e-05
9.4695374e-05
9.2655713e-05
9.0920419e-05
8.9359476e-05
8.8346781e-05
8.7363724e-05
2.280067e-13
7.164754e-12
5.8588317e-11
2.5196353e-10
7.753498e-10
1.9564996e-09
4.3383657e-09
8.7919293e-09
1.6682712e-08
3.011455e-08
5.2284116e-08
8.799339e-08
1.4438598e-07
2.3199845e-07
3.6625088e-07
5.6954318e-07
8.741742e-07
1.3263562e-06
1.9916459e-06
2.9621318e-06
4.3656552e-06
6.3771089e-06
9.2313089e-06
1.3235824e-05
1.878017e-05
2.6334585e-05
3.6426954e-05
4.9580702e-05
6.6191433e-05
8.632329e-05
0.0001094198
0.00013393446
0.0001570277
0.00017438506
0.0001804938
0.00017088549
0.00014386411
0.00011184354
8.6586953e-05
7.251266e-05
6.5449318e-05
6.851686e-05
7.5494301e-05
9.1348581e-05
0.00011989426
0.00013406018
0.00013797021
0.0001375938
0.00013575629
0.00012966425
0.0001218156
0.00011768159
0.00011374157
0.00011009471
0.00010661871
0.00010366771
0.00010078587
9.8039664e-05
9.5673011e-05
9.3644576e-05
9.1817731e-05
9.0075122e-05
8.8437849e-05
8.747937e-05
8.6767573e-05
1.354607e-13
4.2566366e-12
3.4807634e-11
1.4969146e-10
4.6062727e-10
1.1623041e-09
2.577197e-09
5.2224931e-09
9.9087745e-09
1.7884306e-08
3.1044516e-08
5.223407e-08
8.5679478e-08
1.3760399e-07
2.1709412e-07
3.3730802e-07
5.1713901e-07
7.8346675e-07
1.1741349e-06
1.7417639e-06
2.5584051e-06
3.7207975e-06
5.3555065e-06
7.6223601e-06
1.0713211e-05
1.4841046e-05
2.021202e-05
2.6971422e-05
3.5115066e-05
4.4363323e-05
5.4016396e-05
6.2826282e-05
6.8960106e-05
7.0021296e-05
6.5725167e-05
5.7621768e-05
4.9803019e-05
4.3903282e-05
4.243625e-05
4.6556212e-05
5.2284293e-05
6.5493192e-05
9.2921671e-05
0.00012294569
0.00013610054
0.0001401196
0.00013976744
0.00013792651
0.00013180722
0.00012358444
0.0001192236
0.00011498045
0.00011144057
0.00010815892
0.00010499235
0.00010189982
9.9028193e-05
9.6726016e-05
9.4561531e-05
9.2524505e-05
9.0635883e-05
8.9018285e-05
8.7731641e-05
8.7036452e-05
8.6359144e-05
6.9169726e-14
2.1735454e-12
1.7773529e-11
7.6434425e-11
2.3519539e-10
5.9344197e-10
1.3157534e-09
2.6659889e-09
5.0574774e-09
9.1262629e-09
1.5837161e-08
2.6636152e-08
4.3667552e-08
7.0080666e-08
1.1045805e-07
1.7140541e-07
2.6235004e-07
3.9659567e-07
5.9267034e-07
8.7596409e-07
1.2805631e-06
1.851008e-06
2.6433878e-06
3.7246727e-06
5.1684718e-06
7.0446377e-06
9.3993412e-06
1.2223188e-05
1.5407722e-05
1.8697404e-05
2.1655987e-05
2.367086e-05
2.4266081e-05
2.3931847e-05
2.3358276e-05
2.3064956e-05
2.4461813e-05
2.7623918e-05
3.3901098e-05
4.4896032e-05
6.4366659e-05
9.5863569e-05
0.00012288723
0.00013673811
0.00014211447
0.00014200275
0.00014019618
0.00013417128
0.0001255608
0.00012091325
0.00011640369
0.00011279336
0.00010949947
0.00010619347
0.00010296376
0.0001002268
9.7797203e-05
9.5493838e-05
9.3321009e-05
9.1470227e-05
8.9909647e-05
8.8496115e-05
8.7191505e-05
8.6409974e-05
8.5811852e-05
3.008333e-14
9.4531741e-13
7.7299761e-12
3.3241684e-11
1.0228316e-10
2.5806171e-10
5.7210322e-10
1.159023e-09
2.1982338e-09
3.965544e-09
6.8787479e-09
1.156282e-08
1.8942226e-08
3.0370121e-08
4.7806653e-08
7.4060593e-08
1.1310897e-07
1.7050585e-07
2.5387966e-07
3.7349139e-07
5.4277318e-07
7.786738e-07
1.1014925e-06
1.5336872e-06
2.0968996e-06
2.8064438e-06
3.662674e-06
4.6399706e-06
5.6767744e-06
6.6742654e-06
7.5341762e-06
8.3344676e-06
9.3125778e-06
1.0677525e-05
1.2579307e-05
1.5297873e-05
2.0826891e-05
2.9790749e-05
4.4681466e-05
6.6414796e-05
9.5273456e-05
0.00012057834
0.00013604459
0.00014367099
0.0001442519
0.00014253485
0.00013676195
0.00012770603
0.00012280095
0.00011796333
0.00011422049
0.00011077279
0.00010753795
0.00010441403
0.00010157677
9.897219e-05
9.639608e-05
9.4277147e-05
9.2388604e-05
9.0726083e-05
8.9084941e-05
8.7594793e-05
8.6465014e-05
8.5934111e-05
8.540517e-05
1.1853835e-14
3.7248574e-13
3.0458296e-12
1.3097844e-11
4.0299709e-11
1.016696e-10
2.2537037e-10
4.5650949e-10
8.6564843e-10
1.5611603e-09
2.7070055e-09
4.5480496e-09
7.4457207e-09
1.1927578e-08
1.8755102e-08
2.9014486e-08
4.4234892e-08
6.6536573e-08
9.8806044e-08
1.4488484e-07
2.0973996e-07
2.9955665e-07
4.2165983e-07
5.8415132e-07
7.9518294e-07
1.0619852e-06
1.3902804e-06
1.7851907e-06
2.2536216e-06
2.8195466e-06
3.5492222e-06
4.5825326e-06
6.2252214e-06
8.7575953e-06
1.2688048e-05
1.9545114e-05
3.0236271e-05
4.57141e-05
6.6289154e-05
9.1946018e-05
0.00011687172
0.00013618184
0.00014536725
0.0001464817
0.0001449178
0.00013955031
0.00013005884
0.00012485012
0.00011970926
0.00011572834
0.00011212927
0.00010890188
0.00010588071
0.00010287104
9.9997287e-05
9.7474426e-05
9.5290707e-05
9.3373846e-05
9.1458477e-05
8.9758026e-05
8.829603e-05
8.7124772e-05
8.6095589e-05
8.5498858e-05
8.491151e-05
5.7042342e-15
1.7924552e-13
1.4656996e-12
6.3029102e-12
1.9393106e-11
4.8926555e-11
1.0845878e-10
2.1970595e-10
4.1665097e-10
7.5151711e-10
1.3033848e-09
2.1905158e-09
3.5878222e-09
5.7513851e-09
9.0524825e-09
1.4024209e-08
2.142439e-08
3.2319053e-08
4.8191111e-08
7.1079422e-08
1.0375486e-07
1.4994549e-07
2.1463576e-07
3.0449859e-07
4.2866333e-07
6.0023468e-07
8.393673e-07
1.1788348e-06
1.6740865e-06
2.4139575e-06
3.5516124e-06
5.3675952e-06
8.280599e-06
1.2903338e-05
2.0157898e-05
3.0730009e-05
4.5353337e-05
6.4754547e-05
8.9091411e-05
0.00011495754
0.00013740331
0.00014721127
0.00014874454
0.00014734909
0.00014258376
0.00013259077
0.00012710773
0.00012161669
0.0001174057
0.00011357259
0.00011031217
0.00010725254
0.00010425762