/*--------------------------------*- C++ -*----------------------------------*\
  =========                 |
  \\      /  F ield         | OpenFOAM: The Open Source CFD Toolbox
   \\    /   O peration     | Website:  https://openfoam.org
    \\  /    A nd           | Version:  13
     \\/     M anipulation  |
\*---------------------------------------------------------------------------*/
FoamFile
{
    format      ascii;
    class       volScalarField;
    location    "32.401934";
    object      nut;
}
// * * * * * * * * * * * * * * * * * * * * * * * * * * * * * * * * * * * * * //

dimensions      [0 2 -1 0 0 0 0];

internalField   nonuniform List<scalar> 
17140
(
2.6700886e-18
5.1929678e-16
1.3831611e-14
1.4022155e-13
8.4798271e-13
3.7567691e-12
1.3564468e-11
4.2442345e-11
1.1956139e-10
3.1098675e-10
7.6006235e-10
1.7675771e-09
3.9480518e-09
8.5299245e-09
1.7924981e-08
3.6797127e-08
7.4050078e-08
1.4649447e-07
2.855649e-07
5.4954278e-07
1.0456602e-06
1.9698269e-06
3.6775697e-06
6.809764e-06
1.2513363e-05
2.282366e-05
4.131221e-05
7.4145515e-05
0.00013170422
0.00023076509
0.00039673041
0.00066436907
0.0010746331
0.0016660881
0.0024632134
0.0034673938
0.0046548602
0.0059810568
0.0073882329
0.0088134852
0.010196066
0.011483712
0.012637631
0.013627467
0.014439907
0.015120407
0.015691592
0.016160601
0.016559273
0.016915256
0.01724959
0.017575768
0.017902433
0.018241649
0.018620049
0.019062589
0.019577953
0.02018857
0.0209824
0.022097925
0.023248301
0.023637397
0.022831299
0.020621491
0.020059211
2.6614296e-18
5.176123e-16
1.3786755e-14
1.3976705e-13
8.4523552e-13
3.7446002e-12
1.3520521e-11
4.2304762e-11
1.1917345e-10
3.0997634e-10
7.5758848e-10
1.7618109e-09
3.9351358e-09
8.5019195e-09
1.7865867e-08
3.6675091e-08
7.3802748e-08
1.4600077e-07
2.8459156e-07
5.476428e-07
1.04198e-06
1.96274e-06
3.6639797e-06
6.7837808e-06
1.24638e-05
2.2729349e-05
4.1133423e-05
7.3808838e-05
0.00013107772
0.00022962261
0.00039471247
0.00066096739
0.0010692366
0.0016581013
0.0024522333
0.0034532959
0.0046377506
0.0059611613
0.0073657218
0.0087883031
0.01016788
0.011451892
0.01260125
0.013584705
0.014388253
0.015060221
0.015618053
0.016070019
0.016446652
0.016773719
0.017069672
0.017344904
0.01760488
0.017862062
0.018149056
0.018492563
0.018910349
0.019458956
0.02028677
0.021642813
0.023466012
0.024788227
0.025397226
0.024084047
0.023563145
2.6344925e-18
5.1237329e-16
1.3647207e-14
1.3835221e-13
8.3667731e-13
3.7066701e-12
1.3383491e-11
4.1875693e-11
1.1796368e-10
3.0682625e-10
7.4987978e-10
1.743857e-09
3.8949634e-09
8.4149443e-09
1.768264e-08
3.6297822e-08
7.3040755e-08
1.4448653e-07
2.8162347e-07
5.4189193e-07
1.0309451e-06
1.9417378e-06
3.6242789e-06
6.7091686e-06
1.2324302e-05
2.2469878e-05
4.0653669e-05
7.2928989e-05
0.00012948391
0.00022679074
0.00038982748
0.00065289041
0.0010565997
0.0016395654
0.0024268173
0.003420583
0.0045978627
0.0059145516
0.0073129104
0.0087296439
0.010103372
0.011381076
0.012523213
0.013497324
0.014287995
0.014947677
0.015486932
0.015915495
0.016262357
0.016551233
0.016797789
0.017009057
0.017187622
0.01734885
0.017531731
0.017758955
0.01805201
0.018495431
0.019279591
0.020788716
0.023060503
0.02525481
0.027095551
0.026961666
0.026373613
2.5882861e-18
5.0338669e-16
1.3407841e-14
1.3592543e-13
8.2199947e-13
3.6416286e-12
1.314857e-11
4.1140322e-11
1.1589101e-10
3.0143163e-10
7.3668495e-10
1.7131433e-09
3.826286e-09
8.2663681e-09
1.736992e-08
3.5654606e-08
7.1743248e-08
1.4191202e-07
2.7658636e-07
5.3215387e-07
1.0123099e-06
1.9063852e-06
3.5577106e-06
6.5846337e-06
1.2092697e-05
2.2041653e-05
3.9867089e-05
7.1496456e-05
0.00012690719
0.00022224321
0.00038202902
0.00064005413
0.0010365711
0.0016102116
0.0023865291
0.003368612
0.0045343236
0.0058401499
0.0072285631
0.0086361196
0.010001001
0.011269551
0.012401508
0.013363142
0.014138207
0.014781572
0.015296802
0.015695672
0.016005319
0.016247158
0.016433899
0.016569079
0.016653462
0.016709579
0.01678078
0.016877311
0.017019523
0.017310756
0.017972513
0.019473086
0.021945361
0.024864716
0.027778488
0.028830284
0.028629096
2.5227053e-18
4.9063209e-16
1.3068116e-14
1.3248125e-13
8.0116914e-13
3.5493309e-12
1.2815238e-11
4.0097043e-11
1.1295099e-10
2.9378106e-10
7.1797666e-10
1.6696078e-09
3.7289693e-09
8.0559117e-09
1.6927147e-08
3.4744357e-08
6.9908196e-08
1.3827359e-07
2.69474e-07
5.184187e-07
9.8606018e-07
1.8566669e-06
3.4642707e-06
6.4102235e-06
1.1769187e-05
2.1445284e-05
3.8775222e-05
6.951472e-05
0.00012335461
0.00021599237
0.00037133447
0.00062247321
0.0010091394
0.0015699572
0.0023311557
0.0032969839
0.00444651
0.0057370925
0.00711158
0.008506416
0.0098592608
0.011115612
0.012233989
0.013178348
0.013939118
0.014559911
0.015045419
0.015408235
0.015673245
0.015859409
0.015976433
0.01602459
0.016005614
0.01595467
0.015911463
0.01586554
0.01583311
0.015923084
0.016355137
0.017591408
0.019885297
0.023166377
0.02714726
0.029310494
0.029627931
2.4381759e-18
4.7419228e-16
1.2630235e-14
1.28042e-13
7.743212e-13
3.4303748e-12
1.2385658e-11
3.8752635e-11
1.0916275e-10
2.8392442e-10
6.9387723e-10
1.613536e-09
3.603654e-09
7.7849674e-09
1.6357268e-08
3.357318e-08
6.7548028e-08
1.3359617e-07
2.6033582e-07
5.0078358e-07
9.5238568e-07
1.792951e-06
3.3446721e-06
6.1873136e-06
1.135642e-05
2.0685831e-05
3.7387667e-05
6.7001692e-05
0.00011885864
0.00020809429
0.00035783334
0.00060027442
0.00097445392
0.0015189308
0.0022607359
0.0032055711
0.0043340672
0.0056047642
0.0069610803
0.0083394063
0.0096768222
0.010917847
0.012019767
0.012944712
0.013684462
0.014279863
0.014730238
0.015050559
0.01526348
0.015385504
0.015423465
0.015375262
0.015249337
0.015096878
0.014939474
0.014742885
0.014517976
0.014365169
0.014485711
0.015300779
0.017163287
0.020321102
0.024731669
0.027895451
0.029009252
2.3356409e-18
4.5425066e-16
1.2099084e-14
1.226572e-13
7.4175526e-13
3.2860881e-12
1.1864626e-11
3.7122115e-11
1.0456864e-10
2.7197199e-10
6.6465646e-10
1.5455564e-09
3.451747e-09
7.456583e-09
1.5666711e-08
3.2154325e-08
6.468955e-08
1.2793316e-07
2.4927685e-07
4.7945286e-07
9.1168059e-07
1.7159929e-06
3.2003534e-06
5.9186308e-06
1.0859539e-05
1.977295e-05
3.5722392e-05
6.3990361e-05
0.00011347847
0.00019865127
0.00034169222
0.00057370603
0.00093284222
0.0014574994
0.0021755975
0.0030945651
0.0041969641
0.0054428555
0.0067764552
0.0081341885
0.0094525136
0.010674838
0.011757081
0.012659278
0.013373314
0.013938793
0.014348407
0.014619581
0.014772811
0.014822282
0.014772315
0.014620687
0.014392186
0.014148809
0.013878684
0.013529067
0.013106488
0.012693156
0.012446973
0.012626924
0.013643657
0.016188691
0.020736298
0.024411997
0.026063362
2.2165684e-18
4.3109271e-16
1.1482266e-14
1.1640394e-13
7.0393757e-13
3.1185369e-12
1.1259605e-11
3.5228835e-11
9.9234472e-11
2.5809507e-10
6.307334e-10
1.4666446e-09
3.2754302e-09
7.0754804e-09
1.4865419e-08
3.0508264e-08
6.137411e-08
1.2136675e-07
2.3645826e-07
4.5473907e-07
8.6454532e-07
1.6269371e-06
3.0334824e-06
5.6082587e-06
1.0286196e-05
1.8720888e-05
3.3805728e-05
6.0528793e-05
0.00010730013
0.0001878123
0.00032315632
0.00054314249
0.00088482081
0.0013862903
0.0020763936
0.0029645267
0.0040355539
0.0052514281
0.0065574298
0.0078901394
0.009185365
0.010385241
0.011444027
0.012319505
0.013004352
0.013533746
0.013896636
0.014111609
0.014197178
0.014165477
0.014018993
0.01376078
0.013443267
0.013119548
0.012738866
0.012242068
0.011633438
0.010964579
0.010304748
0.0097120708
0.0094238177
0.010934682
0.014948276
0.018837706
0.020583715
2.0829411e-18
4.0510391e-16
1.0790044e-14
1.0938628e-13
6.6149763e-13
2.9305105e-12
1.0580664e-11
3.3104318e-11
9.3249073e-11
2.4252478e-10
5.9267324e-10
1.3781158e-09
3.0776438e-09
6.6480194e-09
1.3966777e-08
2.8662528e-08
5.7657257e-08
1.140072e-07
2.2209593e-07
4.2706002e-07
8.1178062e-07
1.5273057e-06
2.8469322e-06
5.2615876e-06
9.6464452e-06
1.7548293e-05
3.1671981e-05
5.6679408e-05
0.00010043517
0.00017577114
0.00030254731
0.00050908374
0.00083110013
0.001306207
0.0019641354
0.0028164374
0.0038506411
0.00503099
0.0063041406
0.0076069883
0.0088746885
0.010047936
0.011078856
0.011923181
0.012575487
0.013061377
0.013371045
0.013522062
0.013531286
0.013409146
0.013157807
0.012797387
0.012410276
0.012011589
0.011523093
0.010893205
0.010124741
0.0092144621
0.0081089122
0.0068754599
0.0052107601
0.0049910226
0.0068371975
0.010572597
0.012054512
1.9372193e-18
3.7676297e-16
1.0035173e-14
1.0173352e-13
6.1521736e-13
2.7254729e-12
9.840316e-12
3.0787713e-11
8.672275e-11
2.2554813e-10
5.5117763e-10
1.2816026e-09
2.8620362e-09
6.1820892e-09
1.2987381e-08
2.6651232e-08
5.3607774e-08
1.0599093e-07
2.0645664e-07
3.9693128e-07
7.5437277e-07
1.4189692e-06
2.6442244e-06
4.8852041e-06
8.9525341e-06
1.627779e-05
2.9362647e-05
5.2517517e-05
9.3018122e-05
0.00016276202
0.00028025719
0.00047214829
0.000772581
0.0012184365
0.0018402186
0.0026517498
0.0036435535
0.0047825827
0.0060172272
0.0072849056
0.0085201637
0.0096622002
0.010659988
0.011468531
0.012083124
0.012518255
0.012766969
0.012845146
0.012768127
0.012545066
0.012182301
0.011736129
0.01129486
0.010818224
0.010224982
0.0094791344
0.0085713316
0.0073821835
0.0060456566
0.0041397191
0.0019015298
0.0017235771
0.0024861335
0.0036664484
0.0044031113
1.7822799e-18
3.4662935e-16
9.2325549e-15
9.3596737e-14
5.6601023e-13
2.5074715e-12
9.053174e-12
2.8324752e-11
7.9784335e-11
2.0750023e-10
5.0706576e-10
1.1790104e-09
2.6328654e-09
5.6868932e-09
1.1946584e-08
2.4514147e-08
4.9305789e-08
9.7476718e-08
1.8985062e-07
3.649516e-07
6.9346543e-07
1.3040927e-06
2.4294259e-06
4.4866957e-06
8.2185281e-06
1.4935291e-05
2.6925114e-05
4.8128953e-05
8.5202244e-05
0.0001490526
0.00025673744
0.00043305915
0.00071034074
0.0011244444
0.0017064379
0.0024724299
0.0034162153
0.0045078783
0.0056979407
0.0069245979
0.0081218474
0.00922726
0.010186359
0.010953565
0.011523734
0.011900072
0.012078667
0.012073484
0.011898521
0.011562631
0.011090283
0.010583985
0.010089387
0.009523945
0.0088273704
0.0079735981
0.0068804014
0.0055061122
0.004120116
0.0016282088
0.00081341355
0.00089444097
0.0015437696
0.0021846883
0.0029063153
1.6213286e-18
3.1532648e-16
8.3987926e-15
8.5144241e-14
5.1489419e-13
2.2810157e-12
8.2355198e-12
2.5766377e-11
7.2577342e-11
1.887544e-10
4.6125008e-10
1.0724615e-09
2.3948719e-09
5.1726761e-09
1.0865924e-08
2.2295502e-08
4.4840383e-08
8.8640975e-08
1.7262221e-07
3.3178481e-07
6.3032481e-07
1.185069e-06
2.2070217e-06
4.074409e-06
7.4598576e-06
1.3549136e-05
2.4411063e-05
4.360713e-05
7.7154267e-05
0.00013493483
0.00023248421
0.00039262235
0.00064560751
0.0010259528
0.0015649838
0.0022809875
0.0031712162
0.0042092846
0.0053482752
0.0065274588
0.0076803733
0.0087428329
0.0096569418
0.010376215
0.010893482
0.011201614
0.011299075
0.011197824
0.010910895
0.010451804
0.0098918834
0.0093422418
0.0087749346
0.008108617
0.0073066416
0.0063070493
0.0049727494
0.0039346246
0.0016807783
0.00071761156
0.00052845265
0.00056668589
0.00089775693
0.0012182067
0.0016182052
1.4577697e-18
2.8351648e-16
7.5515244e-15
7.6554853e-14
4.6295065e-13
2.0508962e-12
7.4046501e-12
2.3166705e-11
6.5254204e-11
1.6970709e-10
4.1469945e-10
9.6420878e-10
2.153088e-09
4.6503105e-09
9.7682477e-09
2.0042208e-08
4.0305969e-08
7.967054e-08
1.5513578e-07
2.981327e-07
5.6628761e-07
1.0644198e-06
1.9817293e-06
3.657102e-06
6.6926698e-06
1.21489e-05
2.1874285e-05
3.9049083e-05
6.9047354e-05
0.0001207128
0.00020801852
0.00035169707
0.00057972095
0.00092489917
0.0014184148
0.0020804817
0.0029118654
0.0038900499
0.0049711144
0.0060957406
0.0071971224
0.0082091868
0.0090708493
0.0097343761
0.010188028
0.010416701
0.010419712
0.010207022
0.0097924094
0.0092158779
0.0086055541
0.0080019141
0.0073359355
0.006559418
0.0056292788
0.0043789763
0.0034703548
0.001642268
0.00065339141
0.00045824941
0.00036589958
0.00039315362
0.00053712772
0.00069014934
0.00083542006
1.2950811e-18
2.5187569e-16
6.708762e-15
6.801115e-14
4.1128361e-13
1.822004e-12
6.5782226e-12
2.058098e-11
5.7970528e-11
1.5076298e-10
3.6840276e-10
8.5655162e-10
1.9126484e-09
4.1308877e-09
8.6768583e-09
1.7802091e-08
3.5798769e-08
7.0755719e-08
1.3776222e-07
2.6470877e-07
5.0271121e-07
9.4470176e-07
1.7583218e-06
3.2436154e-06
5.9332205e-06
1.0764265e-05
1.9368609e-05
3.4551699e-05
6.1054267e-05
0.00010669061
0.0001838651
0.0003111609
0.00051408042
0.00082337142
0.0012695961
0.001874489
0.0026422143
0.0035543503
0.0045703788
0.0056327448
0.0066744267
0.007627293
0.0084273963
0.0090258585
0.0094023937
0.0095382947
0.0094310018
0.0090889435
0.008537886
0.007885978
0.0072394618
0.0065502795
0.0057714652
0.0048777767
0.0037146797
0.0028889696
0.0014489536
0.00057547695
0.00036867634
0.000305682
0.00029479019
0.00034257395
0.00043345211
0.00052096381
0.00061092632
1.1366179e-18
2.2105669e-16
5.8878888e-15
5.9689367e-14
3.6095886e-13
1.5990601e-12
5.7732818e-12
1.8062524e-11
5.0876491e-11
1.323126e-10
3.2331422e-10
7.5170834e-10
1.6785059e-09
3.6251034e-09
7.6142194e-09
1.5621232e-08
3.1411443e-08
6.2079645e-08
1.2085808e-07
2.3219814e-07
4.4089692e-07
8.2836123e-07
1.5413553e-06
2.8423633e-06
5.196928e-06
9.4232818e-06
1.6944707e-05
3.0205872e-05
5.3336804e-05
9.3153555e-05
0.00016052013
0.00027185702
0.00045006747
0.00072350958
0.0011215956
0.0016670216
0.0023670266
0.0032073361
0.0041511515
0.0051430142
0.0061158191
0.0069991791
0.0077266647
0.0082473283
0.0085311124
0.0085591598
0.008323634
0.0078356029
0.0071781233
0.0064974809
0.0057901603
0.0049952433
0.0041102101
0.0030270519
0.0022785216
0.0011396737
0.00048163487
0.00029406027
0.00025557875
0.00025379824
0.00029255124
0.00035522445
0.0004302446
0.00049219521
0.00058402446
9.8545679e-19
1.9165792e-16
5.1048469e-15
5.1751143e-14
3.1295391e-13
1.3863948e-12
5.0054603e-12
1.5660241e-11
4.410982e-11
1.1471408e-10
2.8030877e-10
6.5171279e-10
1.4552008e-09
3.1427608e-09
6.6009141e-09
1.3541841e-08
2.7228819e-08
5.3809844e-08
1.0474921e-07
2.0122624e-07
3.8203078e-07
7.1762335e-07
1.3349639e-06
2.4609576e-06
4.4976928e-06
8.1511416e-06
1.4647921e-05
2.6092709e-05
4.6039246e-05
8.0356886e-05
0.00013843198
0.00023456405
0.00038899805
0.00062742638
0.00097756385
0.0014623867
0.002091669
0.0028550957
0.0037197321
0.0046324651
0.0055262317
0.0063283803
0.0069696897
0.0073941846
0.007570474
0.0074715859
0.007092095
0.006468222
0.0057753234
0.0050604935
0.0042705984
0.0033833082
0.0023746508
0.0017162195
0.00082083055
0.00036741741
0.00022895748
0.00020891313
0.00021620634
0.00025807528
0.00032216462
0.00039516435
0.00047761189
0.00054539709
0.0006425253
8.4429713e-19
1.6420436e-16
4.373617e-15
4.4338181e-14
2.6812553e-13
1.1878033e-12
4.2884594e-12
1.341699e-11
3.7791221e-11
9.8281255e-11
2.4015308e-10
5.5834688e-10
1.2467106e-09
2.6924454e-09
5.6549652e-09
1.1600867e-08
2.3325123e-08
4.6092837e-08
8.9720445e-08
1.7233922e-07
3.2714738e-07
6.1442626e-07
1.1427415e-06
2.106e-06
3.847536e-06
6.9695599e-06
1.2517204e-05
2.2281685e-05
3.9285042e-05
6.8519632e-05
0.00011798901
0.00019996504
0.00033204301
0.00053704983
0.0008405161
0.0012649508
0.0018218931
0.0025044955
0.0032835554
0.0041083547
0.0049118618
0.0056190336
0.0061569266
0.0064654997
0.0065173763
0.0062715282
0.0057428307
0.005052912
0.0043390866
0.0035904914
0.0027346806
0.001808185
0.0012115963
0.00055526432
0.00026081862
0.00016864855
0.00016511333
0.00018169082
0.00022585341
0.00029006852
0.0003664156
0.0004558959
0.00055392495
0.00062983841
0.00071237151
7.152927e-19
1.3911476e-16
3.7053502e-15
3.7563522e-14
2.2715731e-13
1.0063134e-12
3.6332078e-12
1.1366955e-11
3.2016936e-11
8.326432e-11
2.034582e-10
4.7303036e-10
1.0562027e-09
2.2809915e-09
4.7907085e-09
9.8276711e-09
1.9759274e-08
3.904476e-08
7.5997088e-08
1.4596807e-07
2.7706052e-07
5.2028823e-07
9.674886e-07
1.7826004e-06
3.2556838e-06
5.8950295e-06
1.0581767e-05
1.8824151e-05
3.316402e-05
5.779885e-05
9.9467089e-05
0.00016855035
0.00028009183
0.00045398272
0.00071315811
0.0010788807
0.0015635074
0.0021628394
0.0028508895
0.0035790369
0.0042799982
0.0048760252
0.0052902914
0.0054654025
0.0053709409
0.0049677531
0.0043225371
0.0036551937
0.0029582593
0.0021511579
0.001343244
0.00078418723
0.00036663725
0.00017681329
0.00011926714
0.00012604348
0.00015007793
0.00019660039
0.00025966256
0.00033374803
0.00042264562
0.00051116028
0.00060147639
0.00066632502
0.0007480861
6.0001462e-19
1.1669467e-16
3.108185e-15
3.150968e-14
1.9054813e-13
8.4413479e-13
3.0476812e-12
9.5350786e-12
2.6857198e-11
6.9845829e-11
1.7066992e-10
3.9679894e-10
8.8598768e-10
1.9133832e-09
4.0185978e-09
8.2436612e-09
1.6574213e-08
3.2750208e-08
6.3743163e-08
1.2242621e-07
2.3236118e-07
4.3630963e-07
8.1122945e-07
1.4944385e-06
2.7287486e-06
4.939302e-06
8.8622955e-06
1.5756265e-05
2.7739346e-05
4.830591e-05
8.3067028e-05
0.00014069237
0.00023383933
0.0003794895
0.00059770134
0.00090779182
0.001321881
0.0018372703
0.0024301946
0.0030533467
0.0036385968
0.004105391
0.0043746108
0.0044023148
0.0041441555
0.0036059437
0.0029614418
0.0023364216
0.0016478953
0.00096169562
0.00048243952
0.00023316491
0.00011731163
8.2918004e-05
9.4903148e-05
0.00012308503
0.00017074543
0.00023233117
0.00030237084
0.00032366487
0.00035671392
0.00045394614
0.00063641923
0.00071158557
0.00080299301
4.9929927e-19
9.7106895e-17
2.5864605e-15
2.6220634e-14
1.5856396e-13
7.0244551e-13
2.5361321e-12
7.9346612e-12
2.2349449e-11
5.8123088e-11
1.420258e-10
3.3020429e-10
7.3729548e-10
1.5922716e-09
3.3441867e-09
6.8601915e-09
1.3792668e-08
2.7253832e-08
5.3044908e-08
1.0187762e-07
1.933565e-07
3.6305733e-07
6.7499457e-07
1.2433582e-06
2.2699727e-06
4.1079702e-06
7.3682472e-06
1.3093829e-05
2.3037375e-05
4.0085717e-05
6.8869717e-05
0.00011654943
0.00019361972
0.00031428919
0.0004956038
0.00075434624
0.0011013172
0.0015338939
0.0020290279
0.0025393948
0.0029952633
0.0033140765
0.0034250899
0.0032949867
0.0028915837
0.0023240837
0.0017673774
0.0012009698
0.00065511868
0.00030304331
0.00014537272
7.6385663e-05
5.7771494e-05
7.1928432e-05
0.00010153842
0.00014894884
0.00020829119
0.00026249214
0.00024975348
0.00026299391
0.00030825993
0.00040232835
0.00058858392
0.0007731126
0.00084252005
4.132357e-19
8.0368733e-17
2.1406373e-15
2.1701054e-14
1.3123302e-13
5.8137047e-13
2.0990101e-12
6.5671054e-12
1.8497621e-11
4.8106269e-11
1.1755053e-10
2.7330322e-10
6.1025128e-10
1.3179222e-09
2.7680196e-09
5.6783412e-09
1.1416708e-08
2.2559449e-08
4.3909045e-08
8.4333391e-08
1.6006296e-07
3.0055125e-07
5.5879567e-07
1.0293263e-06
1.8791874e-06
3.4005406e-06
6.0984334e-06
1.0833986e-05
1.9051456e-05
3.3123823e-05
5.6848191e-05
9.6087024e-05
0.00015942813
0.00025852239
0.00040740107
0.00061986363
0.00090433595
0.0012566351
0.00165248
0.0020428813
0.002356538
0.0025135308
0.0024717524
0.0021974079
0.0017428343
0.0012859007
0.0008346892
0.00040745534
0.00018693254
9.2178323e-05
5.0159549e-05
4.0763532e-05
5.5670314e-05
8.4969962e-05
0.00013089008
0.00018756055
0.000222919
0.00020492237
0.00020720354
0.00023013544
0.00027395209
0.00036411138
0.00055481962
0.00079445995
0.00086548589
3.4117784e-19
6.6354454e-17
1.7673645e-15
1.7916962e-14
1.0834978e-13
4.7999891e-13
1.7330262e-12
5.4221166e-12
1.5272703e-11
3.9719865e-11
9.7059412e-11
2.2566585e-10
5.0389375e-10
1.0882548e-09
2.2857155e-09
4.6890919e-09
9.4281167e-09
1.8630842e-08
3.6264499e-08
6.9655483e-08
1.3221457e-07
2.4828139e-07
4.6165644e-07
8.5047e-07
1.5527792e-06
2.8099886e-06
5.0391792e-06
8.9508264e-06
1.5734582e-05
2.7339969e-05
4.6872699e-05
7.9093895e-05
0.00013093089
0.00021173159
0.00033259293
0.00050398596
0.00073094581
0.001005981
0.0013015051
0.0015658717
0.0017294253
0.0017372753
0.0015640004
0.0012347455
0.00088457841
0.0005475069
0.00023936329
0.00011281632
5.7950666e-05
3.3816572e-05
2.9690334e-05
4.427174e-05
7.2399513e-05
0.00011567232
0.00016937889
0.0001951876
0.00017713478
0.00017452927
0.0001849029
0.00020702346
0.00025321446
0.00034905825
0.00053628024
0.00083362702
0.00090149044
2.817576e-19
5.4798007e-17
1.4595561e-15
1.4796527e-14
8.9479848e-14
3.9640628e-13
1.4312312e-12
4.4779497e-12
1.2613434e-11
3.2804518e-11
8.0162933e-11
1.8638613e-10
4.1619856e-10
8.9889402e-10
1.8880753e-09
3.8735461e-09
7.7888287e-09
1.5392607e-08
2.9964029e-08
5.7559878e-08
1.0926921e-07
2.0522227e-07
3.81652e-07
7.0319976e-07
1.2840902e-06
2.3240099e-06
4.1677368e-06
7.4017979e-06
1.3005972e-05
2.2579693e-05
3.8656328e-05
6.5086614e-05
0.00010738838
0.00017277795
0.00026948564
0.00040435281
0.00057804383
0.00077817874
0.00097275826
0.0011099993
0.001137889
0.0010336864
0.00081431186
0.00056798018
0.00033034027
0.00013909134
6.7149118e-05
3.6339009e-05
2.3149742e-05
2.2501506e-05
3.6183227e-05
6.2606779e-05
0.00010298457
0.00015329633
0.00017485699
0.00015898673
0.00015563741
0.00015954818
0.00017101106
0.00019704701
0.00024606879
0.00033493306
0.00050477255
0.00086653829
0.00092131487
2.3291578e-19
4.5298941e-17
1.2065473e-15
1.2231633e-14
7.3969419e-14
3.2769614e-13
1.1831671e-12
3.701883e-12
1.0427634e-11
2.7120463e-11
6.6275074e-11
1.5410115e-10
3.4412124e-10
7.4326117e-10
1.5612714e-09
3.2033087e-09
6.4416767e-09
1.2731581e-08
2.4786849e-08
4.7621195e-08
9.0416155e-08
1.6984319e-07
3.159158e-07
5.821851e-07
1.0632689e-06
1.9244966e-06
3.4509962e-06
6.1267351e-06
1.0756976e-05
1.8647604e-05
3.1845052e-05
5.340704e-05
8.7592511e-05
0.00013970145
0.00021508012
0.00031655306
0.00043965881
0.00056671265
0.00066391225
0.00069158346
0.00063115329
0.00049423756
0.00033582023
0.00018088918
7.7764639e-05
3.9732571e-05
2.2887758e-05
1.6275183e-05
1.7555538e-05
3.0367197e-05
5.435056e-05
9.1978668e-05
0.00013843741
0.00016043144
0.00014757998
0.00014500631
0.00014669343
0.00015269276
0.00016763377
0.00019459678
0.00024019463
0.00032735888
0.00049556859
0.00086484506
0.00093853589
1.9199509e-19
3.7340439e-17
9.9457185e-16
1.0082715e-14
6.0974462e-14
2.7012919e-13
9.7533232e-13
3.0516696e-12
8.596289e-12
2.2358108e-11
5.4639088e-11
1.2705077e-10
2.8372943e-10
6.1285763e-10
1.2874372e-09
2.641683e-09
5.3127616e-09
1.0501437e-08
2.04474e-08
3.9289097e-08
7.4606276e-08
1.4016305e-07
2.6073771e-07
4.8052829e-07
8.7757351e-07
1.5880469e-06
2.8462096e-06
5.047978e-06
8.8473673e-06
1.5292451e-05
2.5993967e-05
4.3281877e-05
7.022254e-05
0.00011022545
0.00016573338
0.00023536679
0.00030992901
0.00036953875
0.00038868007
0.00035434869
0.00027484292
0.00017935295
9.1763507e-05
4.2251308e-05
2.2960676e-05
1.4716597e-05
1.1655324e-05
1.417765e-05
2.5695041e-05
4.7589716e-05
8.213214e-05
0.0001250608
0.00014997843
0.00014126446
0.00013944807
0.00014063494
0.00014410112
0.00015290908
0.00016835749
0.00019447448
0.0002411438
0.00032657426
0.00048090789
0.00080521537
0.00096062962
1.5606564e-19
3.0352656e-17
8.0845116e-16
8.1958933e-15
4.9564355e-14
2.1958234e-13
7.9283843e-13
2.4807193e-12
6.9881318e-12
1.8175949e-11
4.4420106e-11
1.0329272e-10
2.3068282e-10
4.9830021e-10
1.0468393e-09
2.1481198e-09
4.3203826e-09
8.5403017e-09
1.6629559e-08
3.1953883e-08
6.0676343e-08
1.1398354e-07
2.1199809e-07
3.9056686e-07
7.1284962e-07
1.2886847e-06
2.3060166e-06
4.0797948e-06
7.1232976e-06
1.2241343e-05
2.0627092e-05
3.3902327e-05
5.3964167e-05
8.2334297e-05
0.00011860462
0.00015813456
0.00019022032
0.0002007265
0.00018199061
0.00013925657
8.6782075e-05
4.4648183e-05
2.2173302e-05
1.3320774e-05
9.4283707e-06
8.7327061e-06
1.1413456e-05
2.1964687e-05
4.161734e-05
7.3328073e-05
0.0001131916
0.00014282494
0.00013777097
0.00013639395
0.00013755113
0.00014013882
0.00014579793
0.00015538143
0.00017136584
0.00019899616
0.00024410954
0.00032466271
0.00046927266
0.00077314564
0.00096875511
1.226358e-19
2.3851003e-17
6.3527817e-16
6.4403177e-15
3.894775e-14
1.7254941e-13
6.2302436e-13
1.94941e-12
5.4915206e-12
1.4283512e-11
3.4907907e-11
8.1174484e-11
1.8128798e-10
3.9160264e-10
8.2267847e-10
1.6880915e-09
3.3949589e-09
6.7102953e-09
1.3064048e-08
2.5096282e-08
4.7636117e-08
8.9435102e-08
1.6619936e-07
3.0581404e-07
5.5716925e-07
1.0046737e-06
1.7912133e-06
3.1523741e-06
5.4625922e-06
9.2859777e-06
1.5404872e-05
2.475185e-05
3.8095695e-05
5.52948e-05
7.4114944e-05
8.9326883e-05
9.4048909e-05
8.4821767e-05
6.3768178e-05
3.8280045e-05
2.0483558e-05
1.1455473e-05
7.6466716e-06
6.3497917e-06
6.4083433e-06
9.546085e-06
1.8560846e-05
3.693964e-05
6.718923e-05
0.0001045906
0.00013782332
0.00013480875
0.00013358812
0.00013544687
0.00013771765
0.00014190013
0.00014826289
0.00015922947
0.00017665228
0.00020411385
0.00024782041
0.00032659371
0.00046372247
0.00073785164
0.00098475333
9.0623105e-20
1.7624965e-17
4.6944567e-16
4.7591417e-15
2.8780868e-14
1.2750733e-13
4.6039059e-13
1.4405333e-12
4.0579762e-12
1.0554691e-11
2.5794272e-11
5.9979261e-11
1.3394388e-10
2.8930638e-10
6.0768962e-10
1.2466951e-09
2.5065398e-09
4.9523004e-09
9.6360536e-09
1.8496621e-08
3.5071317e-08
6.5747762e-08
1.2193282e-07
2.2373886e-07
4.0608731e-07
7.2844565e-07
1.2895089e-06
2.2472991e-06
3.8417822e-06
6.4077787e-06
1.0345098e-05
1.5983757e-05
2.3257643e-05
3.1185077e-05
3.7498055e-05
3.9240964e-05
3.5121559e-05
2.5842367e-05
1.5769027e-05
9.2008003e-06
5.7884977e-06
4.590877e-06
4.2339235e-06
4.9844194e-06
7.7986375e-06
1.6298102e-05
3.4369493e-05
6.1807847e-05
9.6390643e-05
0.00013363115
0.00013141855
0.00013086921
0.00013319109
0.00013533945
0.0001383353
0.00014325035
0.00015130876
0.00016386639
0.00018169776
0.00020967212
0.0002529268
0.00032866226
0.00045541506
0.00071713935
0.00099196886
6.1005595e-20
1.1864755e-17
3.1602031e-16
3.2037345e-15
1.9374426e-14
8.5833197e-14
3.0991232e-13
9.6966905e-13
2.7314371e-12
7.1039485e-12
1.7359524e-11
4.0360737e-11
9.0115917e-11
1.9459267e-10
4.0860038e-10
8.3785762e-10
1.6834625e-09
3.3231943e-09
6.4585637e-09
1.2377745e-08
2.341963e-08
4.3780133e-08
8.0885604e-08
1.476707e-07
2.6621584e-07
4.7322847e-07
8.2752461e-07
1.4183665e-06
2.3699586e-06
3.8298854e-06
5.9172967e-06
8.5995652e-06
1.1501291e-05
1.3774345e-05
1.432534e-05
1.2759472e-05
9.4244461e-06
6.1781305e-06
4.0565939e-06
3.0539548e-06
2.7659656e-06
3.0252656e-06
3.8166976e-06
6.6756048e-06
1.5380775e-05
3.1476338e-05
5.6984426e-05
8.823347e-05
0.00012205341
0.00012779927
0.00012755111
0.00012988741
0.00013160192
0.00013424268
0.00013838852
0.00014516867
0.00015444918
0.00016782052
0.00018684503
0.00021589899
0.00025809581
0.00033149151
0.00045221398
0.00069989358
0.00099960441
3.6243283e-20
7.0488166e-18
1.8774598e-16
1.9033034e-15
1.1509938e-14
5.0990296e-14
1.840995e-13
5.7598302e-13
1.6223222e-12
4.2187945e-12
1.0307326e-11
2.3958305e-11
5.3474454e-11
1.1541569e-10
2.4219142e-10
4.9620021e-10
9.9584507e-10
1.962822e-09
3.8069848e-09
7.2764833e-09
1.3718907e-08
2.5525934e-08
4.6869268e-08
8.4870951e-08
1.5135438e-07
2.6520586e-07
4.5493593e-07
7.5988186e-07
1.2260999e-06
1.889428e-06
2.7366103e-06
3.6464063e-06
4.3517107e-06
4.503185e-06
4.0508384e-06
3.2037818e-06
2.4015855e-06
1.8361594e-06
1.6338598e-06
1.8210033e-06
2.1551426e-06
3.1314599e-06
6.3647933e-06
1.4366455e-05
2.8941943e-05
5.2494899e-05
8.0869764e-05
0.00011162223
0.00012422257
0.0001236784
0.00012565098
0.00012705286
0.00012961486
0.00013359503
0.0001390653
0.00014657659
0.00015675667
0.00017181989
0.00019193368
0.00022143917
0.00026279854
0.00033459594
0.00044816361
0.00068848239
0.001006594
1.8506404e-20
3.5992346e-18
9.5865339e-17
9.7183331e-16
5.87684e-15
2.6033799e-14
9.3987632e-14
2.9402261e-13
8.2801972e-13
2.1527671e-12
5.2580341e-12
1.2216705e-11
2.7252195e-11
5.8775148e-11
1.2321173e-10
2.5209923e-10
5.0505704e-10
9.9315964e-10
1.9203899e-09
3.6558034e-09
6.8562848e-09
1.2669103e-08
2.3052182e-08
4.124872e-08
7.2417047e-08
1.2429268e-07
2.0744681e-07
3.3409544e-07
5.1355548e-07
7.4220584e-07
9.8884835e-07
1.1856291e-06
1.2575733e-06
1.2116642e-06
1.0985967e-06
9.6903895e-07
9.1387104e-07
9.7247965e-07
1.2187271e-06
1.7224508e-06
2.9178997e-06
6.1532283e-06
1.3126302e-05
2.6464611e-05
4.8297319e-05
7.409597e-05
0.00010212707
0.00011999484
0.00011860935
0.00012040583
0.00012172567
0.00012421521
0.00012783596
0.00013258895
0.00013874045
0.00014756184
0.00015927632
0.00017528768
0.00019609249
0.00022658515
0.00026781447
0.00033814661
0.00044676939
0.00068219947
0.0010088987
8.0486576e-21
1.5653472e-18
4.169247e-17
4.2264649e-16
2.5557037e-15
1.1320713e-14
4.0865878e-14
1.2782136e-13
3.5988816e-13
9.3538492e-13
2.2836705e-12
5.3029266e-12
1.1820319e-11
2.5466917e-11
5.3314437e-11
1.0888958e-10
2.1763724e-10
4.2665167e-10
8.2166645e-10
1.5560012e-09
2.8983401e-09
5.3082144e-09
9.5477249e-09
1.6829852e-08
2.8975961e-08
4.8488985e-08
7.8322084e-08
1.2096247e-07
1.7644533e-07
2.3957865e-07
2.9926225e-07
3.4774113e-07
3.8656685e-07
4.2409478e-07
4.5951612e-07
5.1090697e-07
6.7156866e-07
9.8829739e-07
1.5969929e-06
2.8523428e-06
5.7353456e-06
1.1848716e-05
2.4101136e-05
4.4346204e-05
6.7945849e-05
9.370631e-05
0.00011479117
0.00011261311
0.00011456452
0.00011588106
0.00011817673
0.0001214136
0.00012576324
0.00013141814
0.00013880069
0.00014862169
0.00016090641
0.00017809393
0.00020014611
0.00023163734
0.00027214422
0.00034124542
0.00044518301
0.0006762686
0.0010140519
3.1713753e-21
6.1678509e-19
1.6427681e-17
1.665272e-16
1.0069296e-15
4.459967e-15
1.6098022e-14
5.0344109e-14
1.4171622e-13
3.6822587e-13
8.9863668e-13
2.0856185e-12
4.6456046e-12
9.9997156e-12
2.090897e-11
4.2637947e-11
8.5049217e-11
1.6630017e-10
3.1922069e-10
6.0200896e-10
1.1155184e-09
2.0298031e-09
3.621889e-09
6.3231357e-09
1.0765112e-08
1.7795242e-08
2.8412723e-08
4.3568886e-08
6.3789535e-08
8.9073702e-08
1.195026e-07
1.5656694e-07
2.0821184e-07
2.7859651e-07
3.7850976e-07
5.7931264e-07
9.2761724e-07
1.5313331e-06
2.7007743e-06
5.2154677e-06
1.0669107e-05
2.2196502e-05
4.0757422e-05
6.225818e-05
8.5940142e-05
0.00010947433
0.00010670973
0.00010845369
0.00010959904
0.00011160418
0.00011447335
0.00011853532
0.00012372946
0.00013015342
0.00013814206
0.00014878925
0.00016242655
0.00018081131
0.00020346826
0.00023543666
0.00027599529
0.00034472278
0.00044557144
0.00067567418
0.0010138647
1.5260792e-21
2.9679971e-19
7.9050852e-18
8.0134068e-17
4.8454586e-16
2.146222e-15
7.7469057e-15
2.4228454e-14
6.820727e-14
1.7724668e-13
4.3264085e-13
1.0043754e-12
2.2380794e-12
4.8202457e-12
1.0087169e-11
2.0593839e-11
4.1145631e-11
8.0639578e-11
1.5529315e-10
2.9419319e-10
5.4860635e-10
1.0071483e-09
1.8195704e-09