/*--------------------------------*- C++ -*----------------------------------*\
  =========                 |
  \\      /  F ield         | OpenFOAM: The Open Source CFD Toolbox
   \\    /   O peration     | Website:  https://openfoam.org
    \\  /    A nd           | Version:  13
     \\/     M anipulation  |
\*---------------------------------------------------------------------------*/
FoamFile
{
    format      ascii;
    class       volScalarField;
    location    "33.401138";
    object      p;
}
// * * * * * * * * * * * * * * * * * * * * * * * * * * * * * * * * * * * * * //

dimensions      [0 2 -2 0 0 0 0];

internalField   nonuniform List<scalar> 
17140
(
-0.27200948
-0.27201701
-0.27202595
-0.27203547
-0.27204591
-0.27205742
-0.27207008
-0.27208398
-0.2720992
-0.27211585
-0.27213402
-0.27215378
-0.27217524
-0.27219845
-0.27222348
-0.27225037
-0.27227916
-0.27230986
-0.27234245
-0.27237694
-0.27241334
-0.27245171
-0.27249225
-0.27253536
-0.27258192
-0.27263351
-0.27269294
-0.27276498
-0.27285731
-0.27298159
-0.27315396
-0.27339396
-0.27372046
-0.27414515
-0.27466606
-0.2752652
-0.27591149
-0.27656717
-0.27719453
-0.27776108
-0.27824258
-0.27862463
-0.27890205
-0.27907469
-0.27915369
-0.2791582
-0.27909594
-0.27897569
-0.27880304
-0.27859353
-0.27833222
-0.27806987
-0.27772972
-0.27750412
-0.27707255
-0.27693219
-0.27573966
-0.27485191
-0.26940175
-0.26055052
-0.23651448
-0.20365732
-0.15969803
-0.14267954
-0.11467042
-0.27191218
-0.27191956
-0.27192853
-0.27193777
-0.27194787
-0.27195904
-0.27197133
-0.27198481
-0.27199958
-0.27201574
-0.27203337
-0.27205255
-0.27207337
-0.2720959
-0.27212019
-0.27214629
-0.27217421
-0.27220397
-0.27223556
-0.27226897
-0.27230418
-0.27234127
-0.27238039
-0.27242194
-0.27246674
-0.27251632
-0.2725734
-0.27264261
-0.27273141
-0.27285117
-0.27301763
-0.27324987
-0.27356639
-0.2739787
-0.27448505
-0.27506791
-0.27569688
-0.27633487
-0.27694474
-0.27749442
-0.27796004
-0.27832746
-0.27859184
-0.27875372
-0.27882508
-0.27882611
-0.27876787
-0.2786646
-0.27853018
-0.27839446
-0.27826538
-0.27823194
-0.27827636
-0.2786845
-0.27927267
-0.28071257
-0.28190815
-0.28443372
-0.28334724
-0.27864021
-0.25453009
-0.21483453
-0.15724929
-0.12462301
-0.084754529
-0.27188531
-0.27189236
-0.27190093
-0.27190975
-0.27191942
-0.2719301
-0.27194185
-0.27195474
-0.27196888
-0.27198434
-0.27200121
-0.27201957
-0.2720395
-0.27206106
-0.27208431
-0.27210929
-0.27213601
-0.27216448
-0.27219467
-0.27222658
-0.27226019
-0.27229554
-0.27233277
-0.27237224
-0.27241471
-0.27246165
-0.27251565
-0.27258114
-0.27266532
-0.27277912
-0.27293774
-0.27315966
-0.27346287
-0.27385874
-0.27434585
-0.27490746
-0.27551411
-0.27612968
-0.2767178
-0.27724699
-0.27769379
-0.27804441
-0.27829433
-0.27844484
-0.27850885
-0.27850721
-0.27845457
-0.27837067
-0.27827762
-0.27821937
-0.27822646
-0.27842573
-0.27885801
-0.27990277
-0.28151078
-0.2845395
-0.28813925
-0.29415536
-0.29754201
-0.29723591
-0.27327434
-0.22542344
-0.15332752
-0.10542012
-0.054961331
-0.2719277
-0.27193432
-0.27194236
-0.27195066
-0.27195975
-0.27196979
-0.27198085
-0.27199299
-0.27200629
-0.27202085
-0.27203674
-0.27205404
-0.27207281
-0.27209313
-0.27211504
-0.27213858
-0.27216376
-0.27219057
-0.27221899
-0.272249
-0.27228058
-0.27231373
-0.27234858
-0.27238546
-0.27242506
-0.27246874
-0.27251895
-0.27257989
-0.27265838
-0.27276485
-0.2729138
-0.27312293
-0.27340964
-0.27378511
-0.27424841
-0.27478381
-0.27536314
-0.27595147
-0.27651348
-0.2770184
-0.27744331
-0.27777476
-0.27800855
-0.27814685
-0.27820329
-0.27819918
-0.27815288
-0.27808942
-0.27803882
-0.27805858
-0.27820107
-0.27862958
-0.27944171
-0.28110865
-0.28371156
-0.28831003
-0.29429482
-0.30383625
-0.31185399
-0.31579727
-0.29160991
-0.23440355
-0.14774443
-0.085152599
-0.026246364
-0.27203703
-0.27204313
-0.27205051
-0.27205816
-0.27206655
-0.27207582
-0.27208603
-0.27209724
-0.27210954
-0.272123
-0.27213769
-0.27215369
-0.27217106
-0.27218987
-0.27221015
-0.27223194
-0.27225524
-0.27228004
-0.27230632
-0.27233404
-0.27236316
-0.27239368
-0.2724257
-0.27245948
-0.27249567
-0.27253551
-0.27258127
-0.27263687
-0.27270871
-0.27280657
-0.27294415
-0.27313823
-0.27340545
-0.27375682
-0.27419195
-0.27469635
-0.27524342
-0.27579974
-0.27633122
-0.27680802
-0.27720781
-0.27751755
-0.27773329
-0.27785825
-0.27790628
-0.27789929
-0.27785909
-0.27781565
-0.27780633
-0.27790109
-0.27817275
-0.27881842
-0.27998876
-0.28224261
-0.28578539
-0.29186374
-0.30015076
-0.31314918
-0.32571774
-0.33371846
-0.30840751
-0.24099964
-0.13925991
-0.064407275
0.00049064313
-0.27220904
-0.27221452
-0.27222114
-0.27222805
-0.27223562
-0.27224399
-0.27225321
-0.27226334
-0.27227445
-0.27228662
-0.27229991
-0.2723144
-0.27233014
-0.27234717
-0.27236555
-0.27238529
-0.27240641
-0.27242887
-0.27245266
-0.27247772
-0.27250399
-0.27253148
-0.27256022
-0.27259046
-0.27262275
-0.27265821
-0.27269892
-0.27274847
-0.27281278
-0.27290092
-0.27302564
-0.27320265
-0.27344775
-0.27377166
-0.27417461
-0.27464354
-0.27515365
-0.2756733
-0.27616989
-0.27661467
-0.27698603
-0.27727135
-0.27746691
-0.27757686
-0.27761516
-0.27760437
-0.27756892
-0.2775435
-0.27757183
-0.27773481
-0.27812373
-0.27896526
-0.28045762
-0.28324106
-0.28763257
-0.29510072
-0.30548173
-0.32176161
-0.33848487
-0.34971988
-0.32243689
-0.24382187
-0.12875373
-0.044545833
0.023453278
-0.27243784
-0.27244264
-0.2724484
-0.27245446
-0.2724611
-0.27246845
-0.27247655
-0.27248546
-0.27249524
-0.27250596
-0.27251767
-0.27253044
-0.27254433
-0.27255937
-0.27257559
-0.27259303
-0.27261167
-0.2726315
-0.27265247
-0.27267453
-0.27269761
-0.27272168
-0.27274677
-0.27277306
-0.27280101
-0.27283162
-0.27286674
-0.27290964
-0.27296568
-0.27304315
-0.27315375
-0.27331203
-0.27353277
-0.27382634
-0.2741936
-0.274623
-0.27509178
-0.27557034
-0.2760278
-0.27643669
-0.27677621
-0.27703424
-0.27720732
-0.27730012
-0.27732705
-0.27731076
-0.27727774
-0.27726671
-0.27732657
-0.27754705
-0.27803536
-0.27904104
-0.2808018
-0.2840372
-0.28918385
-0.2977617
-0.31003648
-0.32921802
-0.34949394
-0.3627763
-0.33238065
-0.24327486
-0.11727719
-0.027015639
0.040704977
-0.27271586
-0.27271991
-0.27272473
-0.27272986
-0.2727355
-0.27274173
-0.27274861
-0.27275617
-0.27276449
-0.27277361
-0.27278359
-0.27279448
-0.27280632
-0.27281917
-0.27283303
-0.27284793
-0.27286385
-0.27288078
-0.27289866
-0.27291743
-0.27293701
-0.27295735
-0.27297845
-0.27300042
-0.27302367
-0.27304903
-0.27307814
-0.27311388
-0.27316106
-0.27322713
-0.27332266
-0.27346092
-0.27365556
-0.27391648
-0.27424511
-0.27463148
-0.27505502
-0.27548842
-0.27590271
-0.27627191
-0.2765762
-0.27680396
-0.27695199
-0.27702542
-0.27703879
-0.27701441
-0.27698057
-0.27697867
-0.27706142
-0.27732465
-0.2778882
-0.27901383
-0.28097497
-0.28455213
-0.29029364
-0.29977527
-0.31364016
-0.33499086
-0.35730517
-0.37072519
-0.33646065
-0.24324398
-0.10842299
-0.019510082
0.050107013
-0.27303407
-0.27303733
-0.2730412
-0.27304534
-0.27304989
-0.27305493
-0.27306049
-0.27306662
-0.27307337
-0.27308079
-0.27308891
-0.27309778
-0.27310745
-0.27311794
-0.27312927
-0.27314144
-0.27315446
-0.27316827
-0.27318284
-0.27319808
-0.27321392
-0.27323026
-0.27324709
-0.27326448
-0.27328272
-0.27330252
-0.27332528
-0.2733535
-0.27339139
-0.27344554
-0.27352535
-0.2736427
-0.27381004
-0.27403666
-0.27432442
-0.27466493
-0.27503991
-0.27542449
-0.27579189
-0.27611779
-0.27638347
-0.27657793
-0.2766982
-0.27674988
-0.27674686
-0.27671116
-0.27667228
-0.27667271
-0.27676717
-0.27705447
-0.27766263
-0.27885087
-0.28090171
-0.28472854
-0.29075094
-0.30093667
-0.31606967
-0.3387719
-0.36180792
-0.37301069
-0.33215114
-0.24062681
-0.10552672
-0.029028466
0.042578459
-0.2733824
-0.27338484
-0.27338774
-0.27339085
-0.27339427
-0.27339807
-0.27340227
-0.27340691
-0.27341202
-0.27341766
-0.27342384
-0.27343061
-0.27343799
-0.27344602
-0.27345469
-0.27346402
-0.27347398
-0.27348453
-0.27349562
-0.27350717
-0.27351907
-0.27353123
-0.2735436
-0.27355618
-0.2735692
-0.27358322
-0.27359938
-0.27361983
-0.27364817
-0.2736901
-0.27375383
-0.27384984
-0.27398924
-0.27418055
-0.27442596
-0.27471854
-0.27504231
-0.27537498
-0.27569216
-0.27597138
-0.27619522
-0.27635334
-0.27644306
-0.27647023
-0.27644769
-0.27639692
-0.27634773
-0.27634211
-0.27643454
-0.27672316
-0.2773371
-0.27849951
-0.28060765
-0.284457
-0.29061071
-0.30099707
-0.31699239
-0.34009478
-0.36163797
-0.36823465
-0.32164579
-0.2311086
-0.10705456
-0.040636392
0.024943752
-0.2737499
-0.27375151
-0.27375343
-0.27375549
-0.27375777
-0.27376031
-0.27376312
-0.27376625
-0.2737697
-0.27377352
-0.27377773
-0.27378235
-0.27378741
-0.27379292
-0.27379888
-0.27380529
-0.27381213
-0.27381934
-0.27382687
-0.27383463
-0.2738425
-0.27385037
-0.27385815
-0.27386582
-0.2738735
-0.2738816
-0.27389105
-0.2739036
-0.27392228
-0.27395191
-0.27399949
-0.2740741
-0.27418546
-0.27434117
-0.27454351
-0.27478692
-0.27505757
-0.27533589
-0.27559998
-0.27582947
-0.2760084
-0.27612718
-0.27618349
-0.27618312
-0.27613768
-0.27606757
-0.27600185
-0.27598034
-0.27605471
-0.27631913
-0.27688965
-0.27797308
-0.2800656
-0.28370577
-0.28986026
-0.30009664
-0.31637315
-0.33838692
-0.35701154
-0.35562893
-0.30472273
-0.21831163
-0.11020037
-0.051322036
0.0092231083
-0.27412555
-0.27412634
-0.2741273
-0.27412833
-0.27412948
-0.27413078
-0.27413222
-0.27413385
-0.27413566
-0.27413768
-0.27413993
-0.27414242
-0.27414517
-0.27414817
-0.27415144
-0.27415494
-0.27415865
-0.27416252
-0.27416648
-0.27417042
-0.27417424
-0.27417779
-0.27418096
-0.27418366
-0.27418595
-0.27418809
-0.27419077
-0.27419538
-0.27420439
-0.27422176
-0.27425336
-0.2743069
-0.27439067
-0.27451101
-0.27467032
-0.27486413
-0.27508059
-0.27530281
-0.27551152
-0.27568863
-0.2758198
-0.27589637
-0.27591638
-0.27588522
-0.27581322
-0.27571895
-0.27562953
-0.27558065
-0.27561801
-0.27582678
-0.27628224
-0.27729549
-0.27912408
-0.28253426
-0.28827255
-0.29825159
-0.31388457
-0.33392544
-0.3465408
-0.33740611
-0.28612858
-0.2053975
-0.11233804
-0.060608041
-0.0052612938
-0.27449803
-0.27449805
-0.27449808
-0.27449813
-0.2744982
-0.27449831
-0.27449844
-0.27449863
-0.27449886
-0.27449916
-0.27449953
-0.27449996
-0.27450048
-0.27450107
-0.27450171
-0.27450239
-0.27450307
-0.27450369
-0.27450417
-0.2745044
-0.27450425
-0.27450357
-0.27450221
-0.27450003
-0.274497
-0.27449325
-0.27448924
-0.27448603
-0.27448551
-0.27449088
-0.27450681
-0.27453986
-0.27459691
-0.27468272
-0.27479942
-0.27494416
-0.27510614
-0.27527128
-0.27542291
-0.27554539
-0.27562621
-0.27565779
-0.27563856
-0.27557317
-0.27547056
-0.27534666
-0.27522534
-0.27513534
-0.27511437
-0.27521768
-0.27553952
-0.27632842
-0.27784003
-0.28077259
-0.28581217
-0.29522494
-0.30950196
-0.32611962
-0.33098868
-0.31520459
-0.26393137
-0.19715079
-0.11390424
-0.068433928
-0.017446704
-0.27485779
-0.27485709
-0.27485628
-0.27485543
-0.27485451
-0.27485351
-0.27485244
-0.27485129
-0.27485007
-0.27484876
-0.27484737
-0.2748459
-0.27484433
-0.27484265
-0.27484085
-0.27483887
-0.27483669
-0.27483423
-0.2748314
-0.27482808
-0.27482413
-0.27481938
-0.27481362
-0.27480669
-0.27479844
-0.27478887
-0.27477822
-0.27476718
-0.27475713
-0.27475049
-0.27475024
-0.27476498
-0.2747982
-0.27484811
-0.27492421
-0.27502091
-0.27512862
-0.27523648
-0.27533003
-0.2753962
-0.27542441
-0.27540833
-0.27534676
-0.27524346
-0.27510554
-0.27494558
-0.27478268
-0.27463581
-0.2745248
-0.27447585
-0.27460983
-0.27505137
-0.27617853
-0.27835555
-0.28282359
-0.29121266
-0.30378173
-0.31376216
-0.31224492
-0.29270673
-0.24447472
-0.1863684
-0.11567289
-0.074943149
-0.028393085
-0.2751949
-0.27519357
-0.27519201
-0.27519036
-0.27518856
-0.2751866
-0.27518445
-0.27518212
-0.2751796
-0.27517687
-0.27517392
-0.27517074
-0.2751673
-0.27516359
-0.27515958
-0.27515521
-0.27515043
-0.27514518
-0.27513933
-0.27513277
-0.27512532
-0.27511679
-0.27510695
-0.27509557
-0.2750824
-0.27506731
-0.27505034
-0.27503184
-0.27501273
-0.27499482
-0.27498043
-0.274971
-0.27498496
-0.27500806
-0.27503762
-0.2750882
-0.27514348
-0.27519453
-0.27522947
-0.27523796
-0.27521145
-0.27514498
-0.27503754
-0.274892
-0.2747127
-0.27450885
-0.27429249
-0.27406804
-0.27382025
-0.27357503
-0.27342971
-0.27348646
-0.2739485
-0.27553209
-0.2793234
-0.2865541
-0.29504218
-0.29912234
-0.29290293
-0.26938136
-0.22889137
-0.17775479
-0.11646558
-0.080140804
-0.037541296
-0.27550428
-0.27550244
-0.27550026
-0.27549794
-0.27549541
-0.27549263
-0.27548959
-0.27548628
-0.27548266
-0.27547873
-0.27547446
-0.27546983
-0.27546481
-0.27545937
-0.27545346
-0.27544704
-0.27544003
-0.27543235
-0.27542387
-0.27541446
-0.27540393
-0.27539204
-0.27537853
-0.2753631
-0.27534542
-0.27532522
-0.27530231
-0.27527678
-0.27524907
-0.2752203
-0.2751932
-0.27516547
-0.27514545
-0.27513044
-0.27512514
-0.27513929
-0.27514264
-0.27513982
-0.27511703
-0.27506735
-0.27498435
-0.2748645
-0.27470698
-0.27451333
-0.2742844
-0.27402581
-0.27374306
-0.27340132
-0.27298053
-0.27248256
-0.27199993
-0.27159716
-0.27142878
-0.27270676
-0.2755142
-0.28050312
-0.28399681
-0.28357284
-0.27232044
-0.25235675
-0.21329129
-0.16981212
-0.11687252
-0.08434706
-0.045387014
-0.27577824
-0.27577602
-0.27577338
-0.27577058
-0.27576751
-0.27576413
-0.27576042
-0.27575636
-0.27575193
-0.27574709
-0.27574182
-0.27573609
-0.27572986
-0.27572308
-0.2757157
-0.27570766
-0.27569888
-0.27568925
-0.27567864
-0.27566688
-0.27565375
-0.27563897
-0.27562223
-0.27560313
-0.27558124
-0.27555609
-0.27552726
-0.27549447
-0.27545768
-0.27541729
-0.27537358
-0.27533426
-0.27529179
-0.27525246
-0.27521513
-0.2751769
-0.27513189
-0.27507294
-0.27499187
-0.27488263
-0.2747407
-0.27456346
-0.27434984
-0.27409872
-0.27380825
-0.27348036
-0.27310024
-0.27261481
-0.27196934
-0.27119647
-0.27030311
-0.26942238
-0.26921766
-0.26958518
-0.27073424
-0.27216244
-0.27228678
-0.26805054
-0.2546693
-0.23574965
-0.2012517
-0.16314306
-0.11671934
-0.087502663
-0.051803968
-0.276018
-0.27601555
-0.27601264
-0.27600954
-0.27600614
-0.27600239
-0.27599827
-0.27599375
-0.27598881
-0.2759834
-0.27597749
-0.27597105
-0.27596403
-0.27595637
-0.27594801
-0.27593889
-0.27592889
-0.27591791
-0.27590578
-0.27589232
-0.27587726
-0.2758603
-0.27584103
-0.27581899
-0.2757936
-0.27576425
-0.27573026
-0.27569102
-0.27564608
-0.2755953
-0.27553874
-0.27547913
-0.27540927
-0.27534285
-0.27527859
-0.27519458
-0.27510209
-0.2749893
-0.27485085
-0.27468138
-0.27447774
-0.27423754
-0.27395822
-0.27363525
-0.27326503
-0.27284082
-0.27233222
-0.2716242
-0.27076634
-0.26960565
-0.26847127
-0.26751754
-0.26639285
-0.26525066
-0.26404788
-0.2634089
-0.26027266
-0.25266631
-0.24053257
-0.22145664
-0.19015182
-0.15677321
-0.11610041
-0.089827591
-0.057062203
-0.27622117
-0.27621866
-0.27621568
-0.27621249
-0.276209
-0.27620515
-0.27620091
-0.27619625
-0.27619113
-0.27618553
-0.2761794
-0.2761727
-0.27616537
-0.27615735
-0.27614858
-0.27613896
-0.27612839
-0.27611672
-0.27610378
-0.27608933
-0.27607309
-0.27605467
-0.2760336
-0.2760093
-0.27598103
-0.27594797
-0.27590917
-0.27586365
-0.27581043
-0.27574877
-0.27567815
-0.27559892
-0.27551029
-0.27541221
-0.2753085
-0.27518859
-0.275051
-0.27488744
-0.27469272
-0.27446197
-0.27419224
-0.27388014
-0.27351907
-0.27310294
-0.27262309
-0.2720671
-0.27133478
-0.27049748
-0.26924178
-0.26809523
-0.26676789
-0.26496379
-0.26237436
-0.25977371
-0.25719355
-0.2538148
-0.24817181
-0.24058286
-0.22700993
-0.20872735
-0.18063295
-0.15111105
-0.11509904
-0.091351141
-0.061212136
-0.27639438
-0.27639199
-0.27638915
-0.27638612
-0.27638279
-0.27637911
-0.27637505
-0.27637059
-0.27636568
-0.27636029
-0.27635437
-0.27634789
-0.27634078
-0.27633297
-0.27632439
-0.27631493
-0.27630448
-0.27629287
-0.27627989
-0.27626529
-0.2762487
-0.27622969
-0.27620769
-0.27618198
-0.27615168
-0.2761157
-0.27607282
-0.27602165
-0.27596073
-0.27588869
-0.27580434
-0.27570694
-0.27559588
-0.27547061
-0.27533052
-0.27517071
-0.27498698
-0.27477211
-0.27451989
-0.2742242
-0.2738803
-0.27348156
-0.27301326
-0.2724743
-0.271848
-0.27109558
-0.27020439
-0.26907687
-0.26793249
-0.26653176
-0.26438043
-0.26120045
-0.25755993
-0.25380607
-0.24943982
-0.2440656
-0.23751075
-0.22854587
-0.21511253
-0.19757577
-0.1719842
-0.14569206
-0.11369458
-0.092205521
-0.064403703
-0.27654249
-0.27654042
-0.27653796
-0.27653533
-0.27653244
-0.27652923
-0.27652569
-0.27652178
-0.27651747
-0.27651273
-0.27650752
-0.27650178
-0.27649545
-0.27648847
-0.27648074
-0.27647217
-0.2764626
-0.27645185
-0.27643969
-0.27642581
-0.2764098
-0.27639114
-0.27636914
-0.27634295
-0.27631147
-0.27627337
-0.27622709
-0.2761708
-0.27610252
-0.27602022
-0.27592201
-0.27580632
-0.27567191
-0.27551776
-0.27534255
-0.27514267
-0.27491306
-0.27464621
-0.27433371
-0.27396564
-0.27353449
-0.27302244
-0.27242243
-0.27172357
-0.27091693
-0.27000036
-0.26894162
-0.26788491
-0.26648387
-0.26427083
-0.26090926
-0.25660984
-0.25213466
-0.24676443
-0.24098876
-0.23470637
-0.22728632
-0.21784781
-0.20425046
-0.18745641
-0.16415972
-0.14061993
-0.11198148
-0.09245952
-0.066763579
-0.2766772
-0.27667566
-0.27667382
-0.27667185
-0.27666968
-0.27666727
-0.27666459
-0.27666163
-0.27665835
-0.27665473
-0.27665072
-0.27664627
-0.27664132
-0.27663581
-0.27662963
-0.27662268
-0.27661478
-0.27660573
-0.27659526
-0.27658301
-0.2765685
-0.27655111
-0.27653004
-0.27650425
-0.27647244
-0.27643299
-0.27638397
-0.2763231
-0.27624784
-0.27615551
-0.27604349
-0.27590942
-0.27575141
-0.27556791
-0.27535722
-0.27511612
-0.27483883
-0.27451662
-0.27413697
-0.273684
-0.27314307
-0.27250729
-0.27172463
-0.2708715
-0.26991648
-0.26895935
-0.26794513
-0.26659436
-0.26437681
-0.26104164
-0.25639397
-0.25156988
-0.24567783
-0.23917609
-0.23265714
-0.22588075
-0.21770721
-0.2077051
-0.19428048
-0.17830291
-0.15694733
-0.13572932
-0.10996453
-0.092196419
-0.06837995
-0.27681146
-0.27681067
-0.27680972
-0.27680869
-0.27680754
-0.27680626
-0.27680482
-0.27680321
-0.27680141
-0.27679938
-0.27679709
-0.27679451
-0.27679156
-0.27678818
-0.27678426
-0.27677967
-0.27677424
-0.27676772
-0.2767598
-0.27675006
-0.27673794
-0.27672272
-0.27670343
-0.27667887
-0.27664749
-0.27660736
-0.27655617
-0.27649117
-0.27640927
-0.27630716
-0.27618148
-0.27602918
-0.27584755
-0.27563458
-0.27538816
-0.27510477
-0.27477683
-0.27439327
-0.27393385
-0.27337491
-0.27272016
-0.27189804
-0.27103493
-0.27004959
-0.26915028
-0.26818966
-0.26680759
-0.26472703
-0.26138748
-0.25655704
-0.25163045
-0.24548548
-0.2383827
-0.2315307
-0.22473763
-0.21724853
-0.20852769
-0.19829758
-0.18508105
-0.16986919
-0.15023058
-0.13101597
-0.10769677
-0.091477
-0.069352636
-0.27696569
-0.27696587
-0.27696607
-0.27696627
-0.27696646
-0.27696665
-0.27696682
-0.27696697
-0.27696707
-0.27696712
-0.27696708
-0.27696691
-0.27696656
-0.27696593
-0.27696493
-0.27696341
-0.27696115
-0.27695789
-0.27695325
-0.27694674
-0.2769377
-0.27692528
-0.27690837
-0.27688553
-0.27685497
-0.27681445
-0.27676125
-0.27669218
-0.27660362
-0.27649163
-0.2763522
-0.27618151
-0.27597632
-0.27573364
-0.27545064
-0.27512262
-0.27473776
-0.27428341
-0.2737332
-0.27306067
-0.27227225
-0.27140334
-0.27050152
-0.26959057
-0.26863439
-0.26721376
-0.26515845
-0.26201493
-0.25694869
-0.2519974
-0.24585557
-0.23833065
-0.23119924
-0.22424593
-0.2168216
-0.20888237
-0.19979472
-0.18939673
-0.17648137
-0.1620422
-0.14390215
-0.12641021
-0.10519263
-0.090368973
-0.069751432
-0.27716629
-0.27716765
-0.27716925
-0.27717093
-0.27717275
-0.27717471
-0.27717682
-0.27717909
-0.2771815
-0.27718404
-0.27718668
-0.2771894
-0.27719212
-0.27719477
-0.27719721
-0.27719927
-0.27720071
-0.27720121
-0.27720033
-0.27719748
-0.27719189
-0.27718256
-0.2771682
-0.27714715
-0.27711735
-0.27707625
-0.27702077
-0.27694731
-0.27685178
-0.27672969
-0.27657648
-0.27638967
-0.27615985
-0.275887
-0.2755683
-0.27519519
-0.2747508
-0.27423257
-0.2735736
-0.27282986
-0.27200039
-0.27117988
-0.27032079
-0.26929975
-0.26787746
-0.26575035
-0.26260548
-0.25765202
-0.252587
-0.24653756
-0.2387777
-0.23142757
-0.22429074
-0.21682537
-0.20904281
-0.20074165
-0.19139194
-0.18097222
-0.16840187
-0.15469241
-0.1378751
-0.12188763
-0.10248404
-0.088908152
-0.069657346
-0.27745332
-0.277456
-0.27745916
-0.2774625
-0.27746611
-0.27747004
-0.27747431
-0.27747891
-0.27748385
-0.27748912
-0.2774947
-0.27750054
-0.27750658
-0.27751272
-0.2775188
-0.27752462
-0.27752989
-0.27753421
-0.27753706
-0.27753774
-0.27753535
-0.27752873
-0.27751637
-0.27749642
-0.27746655
-0.27742393
-0.27736521
-0.27728648
-0.27718336
-0.27705102
-0.27688639
-0.27667355
-0.27641878
-0.27612185
-0.27576602
-0.2753506
-0.2748388
-0.274257
-0.27360116
-0.27283866
-0.27204952
-0.27125033
-0.27021307
-0.26876895
-0.26658204
-0.26324257
-0.25852075
-0.25351577
-0.24760882
-0.2394833
-0.23204853
-0.22478646
-0.21720206
-0.20946613
-0.20135955
-0.1927915
-0.18329635
-0.17292321
-0.16072734
-0.14772343
-0.13207931
-0.11741122
-0.099583133
-0.087140563
-0.0691176
-0.27787748
-0.27788148
-0.27788619
-0.27789117
-0.27789657
-0.27790245
-0.27790884
-0.27791573
-0.27792314
-0.27793106
-0.27793947
-0.2779483
-0.27795748
-0.27796689
-0.27797632
-0.27798554
-0.27799417
-0.27800175
-0.27800764
-0.27801102
-0.27801085
-0.27800577
-0.2779941
-0.27797376
-0.27794221
-0.2778964
-0.2778328
-0.27774742
-0.27763617
-0.27748715
-0.27729521
-0.27707734
-0.27680986
-0.27647975
-0.27608832
-0.27562689
-0.27511242
-0.27448655
-0.27384109
-0.27314159
-0.2723276
-0.27132239
-0.26986001
-0.26760051
-0.26420814
-0.25940474
-0.25417193
-0.24837472
-0.24075957
-0.23283189
-0.22559962
-0.21792895
-0.21011734
-0.20211079
-0.19375823
-0.18500949
-0.17544445
-0.16518959
-0.15338794
-0.14105312
-0.12645558
-0.11295723
-0.096508499
-0.085096009
-0.068191296
-0.27850825
-0.27851339
-0.27851943
-0.27852581
-0.27853272
-0.27854025
-0.2785484
-0.2785572
-0.27856663
-0.27857669
-0.27858734
-0.27859851
-0.27861008
-0.27862188
-0.27863369
-0.27864516
-0.27865586
-0.27866521
-0.27867243
-0.27867657
-0.27867638
-0.27867033
-0.2786565
-0.27863259
-0.27859582
-0.27854282
-0.27846994
-0.27837397
-0.27824298
-0.27808276
-0.27789044
-0.27764667
-0.27734651
-0.27699657
-0.27659858
-0.27611903
-0.27557361
-0.2749798
-0.27432516
-0.2735605
-0.27255732
-0.27108692
-0.26879631
-0.26539891
-0.2606283
-0.25536561
-0.24965622
-0.24209258
-0.2338484
-0.22664536
-0.21893686
-0.21104344
-0.20299001
-0.19476293
-0.18622486
-0.17736019
-0.16779428
-0.157705
-0.14630624
-0.13461028
-0.12095422
-0.10850145
-0.093268996
-0.082801037
-0.066912204
-0.27941465
-0.27942051
-0.2794274
-0.27943466
-0.2794425
-0.27945103
-0.27946023
-0.27947013
-0.2794807
-0.27949191
-0.2795037
-0.27951596
-0.27952854
-0.2795412
-0.27955365
-0.27956545
-0.27957606
-0.27958475
-0.27959061
-0.27959247
-0.27958888
-0.27957807
-0.2795579
-0.27952574
-0.27947818
-0.27941093
-0.27933023
-0.2792348
-0.27911852
-0.27893549
-0.27868144
-0.27840778
-0.27810004
-0.27772717
-0.27728842
-0.27679489
-0.27624804
-0.27562646
-0.27488965
-0.2739077
-0.27242077
-0.27012811
-0.26675711
-0.26205374
-0.25676818
-0.25111828
-0.24359722
-0.23570623
-0.22816796
-0.22023937
-0.21222312
-0.20408947
-0.19581653
-0.18740859
-0.17873527
-0.16981288
-0.16029826
-0.15041438
-0.13942393
-0.12833635
-0.11553349
-0.1040243
-0.089874009
-0.080278029
-0.065320946
-0.2806926
-0.28069857
-0.28070555
-0.2807129
-0.2807208
-0.28072935
-0.28073853
-0.28074833
-0.28075871
-0.28076961
-0.28078092
-0.28079249
-0.28080409
-0.28081544
-0.28082612
-0.2808356
-0.28084318
-0.280848
-0.28084894
-0.28084463
-0.28083339
-0.28081318
-0.28078131
-0.28073474
-0.28067651
-0.28060396
-0.28051765
-0.28038809
-0.28018993
-0.27997169
-0.27972756
-0.27942041
-0.27906394
-0.27864797
-0.27818041
-0.27765605
-0.27705721
-0.27633698
-0.27535518
-0.27387037
-0.27158583
-0.26826715
-0.26366059
-0.25837422
-0.25276762
-0.24537291
-0.23743544
-0.22983537
-0.22174054
-0.21361999
-0.20538438
-0.19703584
-0.1885788
-0.18002785
-0.17126516
-0.16233315
-0.15291427
-0.14326581
-0.13268499
-0.1221794
-0.11015703
-0.099507368
-0.086328826
-0.077543545
-0.063441585
-0.28241095
-0.28241642
-0.2824228
-0.28242947
-0.28243658
-0.2824442
-0.28245229
-0.2824608
-0.28246965
-0.28247873
-0.28248787
-0.28249685
-0.28250535
-0.28251296
-0.28251914
-0.28252321
-0.28252428
-0.28252126
-0.28251279
-0.28249719
-0.28247216
-0.28243536
-0.28239038
-0.28233023
-0.28225513
-0.2821529
-0.28198627
-0.28179332
-0.28158561
-0.2813259
-0.28101862
-0.28065713
-0.28024503
-0.27978268
-0.27926199
-0.27867081
-0.27795023
-0.27696105
-0.27546918
-0.27320503
-0.26993793
-0.26545631
-0.26017908
-0.25462306
-0.2473755
-0.23941433
-0.23170222
-0.22361657
-0.21533469
-0.20693592
-0.19843726
-0.18988303
-0.1812618
-0.17260009
-0.16378746
-0.15488771
-0.14560099
-0.1362127
-0.12604223
-0.11609522
-0.10479363
-0.094934674
-0.082637337
-0.074612128
-0.061300408
-0.28466347
-0.28466801
-0.28467327
-0.28467867
-0.28468433
-0.28469026
-0.28469637
-0.28470258
-0.28470873
-0.28471463
-0.28472004
-0.28472459
-0.28472786
-0.28472926
-0.28472806
-0.28472334
-0.28471395
-0.28469846
-0.28467499
-0.2846415
-0.28459838
-0.28454153
-0.28446812
-0.28436969
-0.28422887
-0.28405967
-0.28386569
-0.28363113
-0.28335203
-0.28302224
-0.28264184
-0.28221376
-0.28173511
-0.28120177
-0.28059519
-0.27985173
-0.27883856
-0.27732706
-0.27506429
-0.27186109
-0.26747957
-0.26224058
-0.25672116
-0.24964481
-0.24166654
-0.2338472
-0.22568696
-0.21729217
-0.20871383
-0.20004854
-0.19132842
-0.18259325
-0.17383716
-0.16509813
-0.15627238
-0.14744192
-0.1383193
-0.12921191
-0.11945235
-0.1100446
-0.099415743
-0.090291135
-0.078801444
-0.071494798
-0.058914576
-0.28759316
-0.28759633
-0.28759991
-0.28760342
-0.28760691
-0.28761031
-0.28761349
-0.28761625
-0.28761838
-0.28761957
-0.28761942
-0.28761743
-0.28761297
-0.28760522
-0.2875932
-0.28757565
-0.28755105
-0.28751745
-0.28747272
-0.28741588
-0.28734257
-0.28724574
-0.28711863
-0.28696362
-0.28678113
-0.28656115
-0.28629813
-0.28598682
-0.28562559
-0.28521627
-0.28475706
-0.28424639
-0.28368075
-0.28303616
-0.28224813
-0.28118213
-0.27963842
-0.2773533
-0.27419995
-0.2699668
-0.26474909
-0.25927356
-0.25229109
-0.24427064
-0.23632079
-0.22807583
-0.21953311
-0.21079592
-0.20192316
-0.19299539
-0.18405297
-0.17514977
-0.16628146
-0.15749454
-0.14868912
-0.13996158
-0.13103161
-0.12222372
-0.11287698
-0.103993
-0.093998988
-0.08556299
-0.074822107
-0.068200036
-0.056302897
-0.29143032
-0.29143132
-0.29143224
-0.29143281
-0.29143293
-0.29143243
-0.29143109
-0.29142863
-0.29142468
-0.29141879
-0.29141038
-0.29139874
-0.29138297
-0.29136198
-0.29133441
-0.29129862
-0.29125261
-0.29119403
-0.29112023
-0.29102784
-0.29091028
-0.29076604
-0.29059352
-0.29038508
-0.29013549
-0.28983977
-0.28949492
-0.28910007
-0.28865302
-0.28815248
-0.28759847
-0.28698278
-0.28627755
-0.28541474
-0.28426582
-0.28263665
-0.28030928
-0.27709858
-0.27299092
-0.26772869
-0.26220549
-0.25527974
-0.24725618
-0.23916558
-0.23082808
-0.22212398
-0.21318462
-0.20408776
-0.19490317
-0.18571265
-0.17656348
-0.16751368
-0.15856014
-0.14975639
-0.1410044
-0.13241185
-0.12370167
-0.11521113
-0.10628108
-0.097909498
-0.088521743
-0.080737316
-0.070699117
-0.064735282
-0.053478031
-0.2964939
-0.29649131
-0.29648788
-0.29648367
-0.29647836
-0.29647166
-0.29646324
-0.29645266
-0.29643941
-0.29642282
-0.29640211
-0.29637629
-0.29634417
-0.2963043
-0.29625492
-0.29619393
-0.29611884
-0.29602674
-0.29591424
-0.29577746
-0.29561207
-0.29541342
-0.29517632
-0.29489599
-0.29456848
-0.2941904
-0.2937584
-0.29327023
-0.29272498
-0.29211875
-0.29143878
-0.29065135
-0.28968423
-0.28841031
-0.28664668
-0.28418538
-0.28086046
-0.27658841
-0.27132213
-0.26556279
-0.25876309
-0.25062695
-0.24245861
-0.23401235
-0.2251378
-0.2159676
-0.2065997
-0.19712476
-0.18762176
-0.17817284
-0.16882872
-0.15965207
-0.15063974
-0.14184997
-0.13318416
-0.12475815
-0.11629462
-0.10813963
-0.099632885
-0.091766285
-0.082964507
-0.075801417
-0.066432007
-0.061103158
-0.050454157
-0.30317357
-0.30316542
-0.30315529
-0.30314377
-0.30313025
-0.30311425
-0.30309528
-0.30307276
-0.30304595
-0.30301397
-0.30297575
-0.30293
-0.30287519
-0.30280945
-0.30273062
-0.30263613
-0.30252297
-0.3023877
-0.30222636
-0.30203456
-0.30180772
-0.30154115
-0.3012302
-0.30087012
-0.30045649
-0.29998582
-0.29945516
-0.29886049
-0.29819367
-0.29743579
-0.29654615
-0.29544771
-0.29401426
-0.29207344
-0.28943203
-0.28593487
-0.28149813
-0.27607861
-0.26996975
-0.2631632
-0.254917
-0.24657755
-0.23792462
-0.22874527
-0.21926283
-0.20955737
-0.19972144
-0.18984884
-0.18002037
-0.17031969
-0.16079828
-0.15151994
-0.14247939
-0.13373731
-0.12519234
-0.11696548
-0.10877663
-0.10097685
-0.092903286
-0.085538284
-0.077309991
-0.07074309
-0.062019573
-0.057301447
-0.047252885
-0.31185799
-0.31184189
-0.31182223
-0.31180037
-0.31177531
-0.31174633
-0.31171276
-0.31167381
-0.31162853
-0.31157576
-0.31151415
-0.31144209
-0.31135772
-0.31125874
-0.3111425
-0.31100606
-0.31084602
-0.31065855
-0.31043944
-0.31018419
-0.30988789
-0.30954552
-0.30915223
-0.30870335
-0.30819424
-0.30761957
-0.30697167
-0.3062368
-0.30538856
-0.30437795
-0.30312132
-0.30149194
-0.29932281
-0.29643608
-0.29268115
-0.28798603
-0.2823142
-0.27590049
-0.26880325
-0.26045656
-0.25169905
-0.24270461
-0.23309011
-0.22319108
-0.21306378
-0.20278907
-0.19246514
-0.18218641
-0.17203643
-0.16209869
-0.15242289
-0.14307226
-0.1340377
-0.12537996
-0.11699284
-0.1089996
-0.10111542
-0.093692652
-0.086065837
-0.079203037
-0.071543303
-0.065552711
-0.057463706
-0.053347814
-0.043852049
-0.32297861
-0.32295195
-0.32291971
-0.32288428
-0.32284419
-0.32279842
-0.32274612
-0.32268623
-0.3226175
-0.32253834
-0.32244741
-0.3223462
-0.32222914
-0.32208657
-0.3219223
-0.3217371
-0.32152329
-0.3212765
-0.32099244
-0.3206663
-0.32029297
-0.31986705
-0.31938277
-0.31883345
-0.31821042
-0.31750076
-0.31668326
-0.31572198
-0.31455753
-0.31309774
-0.31121265
-0.30874018
-0.30551099
-0.30138992
-0.2962923
-0.29022783
-0.28335017
-0.27581588
-0.26709445
-0.2579034
-0.24837945
-0.23829117
-0.22788627
-0.21723276
-0.2064212
-0.19555405
-0.18472993
-0.17404737
-0.16358971
-0.15343865
-0.14364023
-0.13425471