/*--------------------------------*- C++ -*----------------------------------*\
  =========                 |
  \\      /  F ield         | OpenFOAM: The Open Source CFD Toolbox
   \\    /   O peration     | Website:  https://openfoam.org
    \\  /    A nd           | Version:  13
     \\/     M anipulation  |
\*---------------------------------------------------------------------------*/
FoamFile
{
    format      ascii;
    class       volScalarField;
    location    "0.003";
    object      p;
}
// * * * * * * * * * * * * * * * * * * * * * * * * * * * * * * * * * * * * * //

dimensions      [1 -1 -2 0 0 0 0];

internalField   nonuniform List<scalar> 
1000
(
100000
100000
100000
100000
100000
100000
100000
100000
100000
100000
100000
100000
100000
100000
100000
100000
100000
100000
100000
100000
100000
100000
100000
100000
100000
100000
100000
100000
100000
100000
100000
100000
100000
100000
100000
100000
100000
100000
100000
100000
100000
100000
100000
100000
100000
100000
100000
100000
100000
100000
100000
100000
100000
100000
100000
100000
100000
100000
100000
100000
100000
100000
100000
100000
100000
100000
100000
100000
100000
100000
100000
100000
100000
100000
100000
100000
100000
100000
100000
100000
100000
100000
100000
100000
100000
100000
100000
100000
100000
100000
100000
100000
100000
100000
100000
100000
100000
100000
100000
100000
100000
100000
100000
100000
100000
100000
100000
100000
100000
100000
100000
100000
100000
100000
100000
100000
100000
100000
100000
100000
100000
100000
100000
100000
100000
100000
100000
100000
100000
100000
100000
100000
100000
100000
100000
100000
100000
100000
100000
100000
100000
100000
100000
100000
100000
100000
100000
100000
100000
100000
100000
100000
100000
100000
100000
100000
100000
100000
100000
100000
100000
100000
100000
100000
100000
100000
100000
100000
100000
100000
100000
100000
100000
100000
100000
100000
100000
100000
100000
100000
100000
100000
100000
100000
100000
100000
100000
100000
100000
100000
100000
100000
100000
100000
100000
100000
100000
100000
100000
100000
100000
100000
100000
100000
100000
100000
100000
100000
100000
100000
100000
100000
100000
100000
100000
100000
100000
100000
100000
100000
100000
100000
100000
100000
100000
100000
100000
100000
100000
100000
100000
100000
100000
100000
100000
100000
100000
100000
100000
100000
100000
100000
100000
100000
100000
100000
100000
100000
100000
100000
100000
100000
100000
100000
100000
100000
100000
100000
100000
100000
100000
100000
100000
100000
100000
100000
100000
100000
100000
100000
100000
100000
100000
100000
100000
100000
100000
100000
100000
100000
100000
100000
100000
100000
100000
100000
100000
100000
100000
100000
100000
100000
100000
100000
100000
100000
100000
100000
100000
100000
100000
100000
100000
100000
100000
100000
100000
100000
100000
100000
100000
100000
100000
100000
100000
100000
100000
100000
100000
100000
100000
100000
100000
100000
100000
100000
100000
100000
100000
100000
100000
100000
100000
100000
100000
100000
100000
100000
100000
100000
100000
100000
100000
100000
100000
100000
100000
100000
100000
100000
100000
99999.9
99999.9
99999.9
99999.8
99999.6
99999.3
99998.9
99998.3
99997.3
99995.7
99993.3
99989.8
99984.4
99976.6
99965.2
99948.8
99925.8
99893.6
99849.5
99789.8
99710.2
99606
99471.7
99301.5
99089.5
98830.4
98519.8
98155
97735
97261.3
96737
96167.2
95557.7
94915.2
94246.1
93556.4
92851.4
92135.3
91411.6
90682.9
89951
89217.4
88483.1
87748.7
87014.7
86281.5
85549.6
84819
84090.1
83363
82638
81915.3
81194.9
80477.1
79762
79049.8
78340.6
77634.5
76931.6
76232.1
75536.1
74843.5
74154.7
73469.5
72788.2
72110.8
71437.3
70767.9
70102.5
69441.3
68784.3
68131.6
67483.3
66839.3
66199.7
65564.6
64934
64307.9
63686.4
63069.6
62457.4
61849.9
61247.2
60649.2
60056
59467.6
58884
58305.3
57731.5
57162.7
56598.7
56039.8
55485.8
54936.9
54393
53854.1
53320.3
52791.7
52268.1
51749.8
51236.6
50728.6
50225.8
49728.3
49236
48749.1
48267.5
47791.3
47320.4
46855
46395.1
45940.6
45491.7
45048.3
44610.5
44178.4
43752
43331.3
42916.4
42507.3
42104.1
41706.9
41315.6
40930.4
40551.3
40178.4
39811.7
39451.3
39097.3
38749.7
38408.7
38074.3
37746.5
37425.5
37111.3
36804
36503.7
36210.4
35924.3
35645.4
35373.9
35109.7
34852.9
34603.6
34361.9
34127.9
33901.5
33682.9
33472
33268.9
33073.6
32886.2
32706.5
32534.7
32370.6
32214.3
32065.6
31924.6
31791
31664.8
31546
31434.2
31329.5
31231.6
31140.3
31055.4
30976.8
30904.2
30837.3
30776
30719.9
30668.8
30622.5
30580.6
30542.9
30509.1
30479
30452.3
30428.7
30407.9
30389.8
30374
30360.4
30348.8
30338.9
30330.5
30323.6
30317.8
30313.1
30309.3
30306.3
30304
30302.3
30301.1
30300.3
30299.8
30299.6
30299.7
30299.9
30300.3
30300.8
30301.4
30302.1
30302.8
30303.5
30304.3
30305.1
30305.8
30306.6
30307.4
30308.2
30308.9
30309.6
30310.4
30311.1
30311.7
30312.4
30313.1
30313.7
30314.3
30314.9
30315.5
30316.1
30316.6
30317.2
30317.7
30318.2
30318.7
30319.2
30319.7
30320.2
30320.7
30321.1
30321.6
30322
30322.5
30322.9
30323.3
30323.8
30324.2
30324.6
30325
30325.4
30325.8
30326.2
30326.6
30327
30327.3
30327.7
30328
30328.4
30328.7
30329.1
30329.4
30329.7
30330
30330.3
30330.7
30331
30331.3
30331.6
30331.9
30332.2
30332.5
30332.8
30333.1
30333.4
30333.6
30333.9
30334.1
30334.3
30334.5
30334.6
30334.6
30334.6
30334.5
30334.2
30333.9
30333.3
30332.6
30331.6
30330.3
30328.7
30326.6
30324
30320.7
30316.7
30311.8
30305.8
30298.5
30289.7
30279
30266
30250.5
30231.7
30209.2
30182.1
30149.7
30110.8
30064.2
30008.5
29941.7
29861.7
29765.8
29650.8
29512.8
29346.8
29146.8
28905.3
28612.8
28257.3
27823.2
27290.3
26631.9
25811.5
24777.4
23453.6
21726.4
19452.7
16587
13567.4
11396.2
10423.6
10112.2
10028.2
10007
10001.7
10000.4
10000.1
10000
10000
10000
10000
10000
10000
10000
10000
10000
10000
10000
10000
10000
10000
10000
10000
10000
10000
10000
10000
10000
10000
10000
10000
10000
10000
10000
10000
10000
10000
10000
10000
10000
10000
10000
10000
10000
10000
10000
10000
10000
10000
10000
10000
10000
10000
10000
10000
10000
10000
10000
10000
10000
10000
10000
10000
10000
10000
10000
10000
10000
10000
10000
10000
10000
10000
10000
10000
10000
10000
10000
10000
10000
10000
10000
10000
10000
10000
10000
10000
10000
10000
10000
10000
10000
10000
10000
10000
10000
10000
10000
10000
10000
10000
10000
10000
10000
10000
10000
10000
10000
10000
10000
10000
10000
10000
10000
10000
10000
10000
10000
10000
10000
10000
10000
10000
10000
10000
10000
10000
10000
10000
10000
10000
10000
10000
10000
10000
10000
10000
10000
10000
10000
10000
10000
10000
10000
10000
10000
10000
10000
10000
10000
10000
10000
10000
10000
10000
10000
10000
10000
10000
10000
10000
10000
10000
10000
10000
10000
10000
10000
10000
10000
10000
10000
10000
10000
10000
10000
10000
10000
10000
10000
10000
10000
10000
10000
10000
10000
10000
10000
10000
10000
10000
10000
10000
10000
10000
10000
10000
10000
10000
10000
10000
10000
10000
10000
10000
10000
10000
10000
10000
10000
10000
10000
10000
10000
10000
10000
10000
10000
10000
10000
10000
10000
10000
10000
10000
10000
10000
10000
10000
10000
10000
10000
10000
10000
10000
10000
10000
10000
10000
10000
10000
10000
10000
10000
10000
10000
10000
10000
10000
10000
10000
10000
10000
10000
10000
10000
10000
10000
10000
10000
10000
10000
10000
10000
10000
10000
10000
10000
10000
10000
10000
10000
10000
10000
10000
10000
10000
10000
10000
10000
10000
10000
10000
10000
10000
10000
10000
10000
10000
10000
10000
10000
10000
10000
10000
10000
10000
10000
10000
10000
10000
10000
10000
10000
10000
10000
10000
10000
10000
10000
10000
10000
10000
10000
10000
10000
10000
10000
10000
10000
10000
10000
10000
10000
10000
10000
10000
)
;

boundaryField
{
    sides
    {
        type            zeroGradient;
    }
    empty
    {
        type            empty;
    }
}


// ************************************************************************* //
