/*--------------------------------*- C++ -*----------------------------------*\
  =========                 |
  \\      /  F ield         | OpenFOAM: The Open Source CFD Toolbox
   \\    /   O peration     | Website:  https://openfoam.org
    \\  /    A nd           | Version:  13
     \\/     M anipulation  |
\*---------------------------------------------------------------------------*/
FoamFile
{
    format      ascii;
    class       surfaceScalarField;
    location    "0.003";
    object      phi;
}
// * * * * * * * * * * * * * * * * * * * * * * * * * * * * * * * * * * * * * //

dimensions      [1 0 -1 0 0 0 0];

internalField   nonuniform List<scalar> 
999
(
-8.7797e-13
-7.86218e-13
-6.25291e-13
-6.46945e-13
-1.05941e-12
-1.60994e-12
-1.34062e-12
-1.6862e-12
-1.52391e-12
-1.36621e-12
-1.5771e-12
-8.56262e-13
-1.20092e-12
-1.12214e-12
-1.17741e-12
-1.14544e-12
-7.54198e-13
-1.06258e-12
-9.01162e-13
-1.23921e-12
-1.70328e-12
-1.81833e-12
-1.55949e-12
-1.68042e-12
-1.21843e-12
-1.18853e-12
-7.45746e-13
-1.24401e-13
-1.67548e-13
-2.23736e-13
-9.44576e-13
-6.48096e-13
-1.22536e-12
-9.76329e-13
-1.16578e-12
-1.54448e-12
-2.26941e-12
-1.57366e-12
-1.72614e-12
-1.20709e-12
-9.70818e-13
-9.50742e-13
-9.38197e-13
-7.40061e-13
-6.14324e-13
-3.03011e-13
2.93739e-13
2.61331e-13
9.16288e-13
2.93739e-13
9.52149e-15
4.55802e-14
8.57854e-14
4.72013e-13
4.06275e-13
8.62386e-13
4.12441e-13
7.24973e-13
5.70425e-13
8.06038e-13
9.44816e-13
1.0585e-12
4.66556e-13
4.31861e-13
3.49218e-13
5.55807e-13
7.73577e-13
6.98022e-13
8.32494e-13
6.1265e-13
1.75959e-13
6.88914e-13
4.31861e-13
8.31129e-13
5.45548e-13
7.47335e-13
5.82971e-13
6.54433e-13
4.69284e-13
2.89646e-13
1.74595e-13
2.66133e-13
1.47644e-13
7.18807e-13
1.09593e-12
5.23399e-13
8.86609e-13
8.26328e-13
1.28882e-12
1.00804e-12
9.19939e-13
8.51914e-13
4.6792e-13
7.74286e-13
7.27915e-13
5.14946e-13
6.57097e-14
3.45125e-13
5.45548e-13
7.74286e-13
5.35838e-13
4.33225e-13
3.35415e-13
-3.69027e-14
1.46066e-13
1.03735e-13
3.35201e-13
-3.27713e-13
-4.25524e-13
-3.4506e-13
2.03824e-14
1.5583e-13
1.2959e-14
4.10154e-13
4.82556e-14
-3.77575e-13
-3.98359e-13
-1.61664e-13
4.06453e-15
-4.66129e-14
-1.2729e-13
-5.54591e-13
-5.07244e-13
-9.45727e-13
-5.32442e-13
-1.01659e-12
-8.00783e-13
-1.6509e-12
-1.5628e-12
-1.54994e-12
-1.10175e-12
-4.39327e-13
-7.32652e-13
-7.73833e-13
-7.77377e-13
-7.58452e-13
-5.1226e-13
-6.8093e-13
-4.55203e-13
-4.28146e-15
-1.98432e-13
-1.08472e-13
-3.32408e-13
4.3459e-13
9.83309e-14
1.65032e-14
4.22151e-13
7.84758e-13
5.79534e-13
6.74402e-13
2.48679e-13
6.36364e-14
2.52985e-13
2.52985e-13
3.53215e-14
3.93622e-13
7.91526e-13
6.99989e-13
6.32071e-13
3.41581e-13
-6.20116e-13
-4.03603e-13
-4.86901e-13
-7.84746e-13
-3.32461e-13
-6.13347e-13
-4.02452e-13
-5.69545e-13
-1.73501e-13
1.18674e-13
2.68313e-13
-1.84575e-13
6.57097e-14
-7.76134e-13
-3.07584e-13
-2.69947e-13
-1.97936e-13
-4.09434e-13
-5.8427e-13
-1.40879e-13
-2.41632e-13
-3.15716e-13
9.08007e-14
-5.41431e-14
1.66958e-13
1.26097e-13
5.68152e-14
-2.44361e-13
4.55271e-14
2.07002e-13
5.42877e-15
5.02508e-13
-2.16206e-13
-5.94903e-13
-5.70322e-14
3.66672e-13
6.4816e-13
6.83457e-13
8.17326e-13
7.54103e-13
1.22342e-12
9.39199e-13
1.0626e-12
8.33858e-13
8.90701e-13
6.43907e-13
3.2636e-13
4.14247e-13
5.5919e-13
5.48116e-13
8.35062e-13
5.90234e-13
5.50631e-13
2.6505e-13
3.04653e-13
7.89293e-13
6.8668e-13
3.11032e-13
7.01192e-13
1.03254e-12
1.00423e-12
1.34802e-12
1.25086e-12
7.36542e-13
9.69586e-13
1.1399e-12
8.9038e-13
1.00063e-12
9.42208e-13
1.31589e-12
1.8067e-12
1.16124e-12
3.28005e-13
-2.41298e-14
3.89864e-13
1.46989e-12
1.25223e-12
1.4658e-12
1.69453e-12
2.00864e-12
2.2568e-12
1.9332e-12
1.9518e-12
2.10645e-12
1.96309e-12
2.65432e-12
2.81847e-12
2.52023e-12
1.92054e-12
2.10782e-12
1.92327e-12
2.02381e-12
2.52635e-12
2.95196e-12
3.55089e-12
3.83451e-12
3.79981e-12
3.25697e-12
3.2556e-12
2.82104e-12
3.44222e-12
3.73615e-12
3.69382e-12
3.37992e-12
3.50195e-12
3.21637e-12
3.03204e-12
3.38827e-12
2.93079e-12
3.18239e-12
3.07214e-12
2.83996e-12
2.74079e-12
2.99669e-12
3.01616e-12
2.91972e-12
2.50299e-12
2.91334e-12
2.44822e-12
2.4545e-12
2.39296e-12
2.69932e-12
2.81438e-12
2.84133e-12
2.48919e-12
3.11741e-12
4.06924e-12
3.51941e-12
3.11856e-12
3.16089e-12
3.76058e-12
3.86456e-12
4.16122e-12
4.35466e-12
5.01119e-12
5.41744e-12
4.84339e-12
4.85583e-12
5.2551e-12
5.99406e-12
6.15488e-12
5.80441e-12
5.18697e-12
4.9992e-12
4.36385e-12
4.49049e-12
4.6281e-12
4.66037e-12
4.78139e-12
4.37053e-12
4.01066e-12
2.97564e-12
3.13509e-12
3.02111e-12
2.83606e-12
3.50094e-12
3.89424e-12
3.76978e-12
3.64022e-12
3.51409e-12
3.67628e-12
4.6988e-12
6.92033e-12
1.19998e-11
2.26383e-11
4.50208e-11
9.13496e-11
1.86674e-10
3.80105e-10
7.7214e-10
1.55832e-09
3.12424e-09
6.22205e-09
1.23073e-08
2.41709e-08
4.71305e-08
9.12303e-08
1.7529e-07
3.34277e-07
6.32626e-07
1.18803e-06
2.21363e-06
4.09189e-06
7.50306e-06
1.36457e-05
2.46116e-05
4.40167e-05
7.805e-05
0.000137197
0.000239043
0.000412765
0.000706252
0.00119724
0.00201047
0.00334379
0.00550719
0.00898039
0.0144962
0.0231594
0.0366124
0.0572622
0.0885842
0.135518
0.204973
0.306442
0.452744
0.660846
0.952758
1.3564
1.90636
2.64436
3.61926
4.88643
6.50615
8.54095
11.0516
14.0918
17.7014
21.8994
26.6825
32.0241
37.8772
44.1791
50.8572
57.8359
65.0426
72.4118
79.8878
87.4255
94.9899
102.555
110.101
117.616
125.088
132.512
139.883
147.196
154.448
161.638
168.763
175.82
182.809
189.726
196.572
203.344
210.041
216.662
223.206
229.672
236.059
242.366
248.592
254.738
260.802
266.783
272.682
278.498
284.23
289.879
295.444
300.925
306.321
311.634
316.862
322.006
327.065
332.04
336.931
341.738
346.461
351.1
355.655
360.127
364.516
368.822
373.046
377.187
381.246
385.223
389.119
392.934
396.669
400.324
403.898
407.394
410.811
414.149
417.41
420.593
423.7
426.73
429.685
432.564
435.369
438.099
440.756
443.34
445.852
448.292
450.661
452.959
455.188
457.348
459.439
461.462
463.419
465.309
467.133
468.893
470.588
472.22
473.789
475.297
476.744
478.13
479.458
480.727
481.938
483.093
484.193
485.237
486.228
487.167
488.053
488.89
489.676
490.415
491.106
491.751
492.352
492.909
493.424
493.898
494.332
494.728
495.087
495.411
495.701
495.958
496.185
496.382
496.551
496.693
496.811
496.905
496.977
497.029
497.063
497.079
497.079
497.065
497.038
497
496.951
496.893
496.827
496.755
496.677
496.594
496.507
496.417
496.326
496.232
496.137
496.042
495.947
495.852
495.758
495.664
495.571
495.478
495.387
495.296
495.206
495.116
495.027
494.938
494.848
494.759
494.668
494.576
494.483
494.388
494.29
494.19
494.087
493.979
493.867
493.75
493.626
493.494
493.354
493.202
493.036
492.854
492.651
492.422
492.161
491.86
491.511
491.101
490.617
490.045
489.365
488.558
487.601
486.469
485.137
483.578
481.762
479.664
477.257
474.517
471.423
467.96
464.117
459.889
455.278
450.296
444.96
439.297
433.339
427.127
420.708
414.133
407.457
400.739
394.036
387.405
380.903
374.58
368.483
362.653
357.125
351.927
347.078
342.593
338.478
334.732
331.351
328.323
325.634
323.264
321.194
319.4
317.859
316.546
315.437
314.508
313.739
313.108
312.595
312.184
311.858
311.603
311.408
311.261
311.154
311.078
311.027
310.995
310.979
310.973
310.975
310.983
310.994
311.007
311.02
311.032
311.042
311.049
311.051
311.048
311.039
311.022
310.996
310.959
310.909
310.844
310.76
310.655
310.524
310.362
310.163
309.921
309.626
309.27
308.84
308.321
307.698
306.948
306.047
304.966
303.667
302.106
300.23
297.972
295.248
291.958
287.971
283.122
277.201
269.932
260.947
249.746
235.623
217.518
193.786
162.053
120.37
72.2716
31.9339
10.5631
2.88932
0.729493
0.180225
0.0443312
0.0108967
0.00267816
0.000658198
0.000161754
3.97491e-05
9.76727e-06
2.39989e-06
5.89634e-07
1.44858e-07
3.55855e-08
8.74115e-09
2.14691e-09
5.27179e-10
1.29302e-10
3.15618e-11
7.57391e-12
1.64822e-12
2.15292e-13
-2.8291e-13
-3.89944e-13
-3.74827e-13
-4.03086e-13
-3.84004e-13
-4.24073e-13
-3.87981e-13
-4.27206e-13
-4.74547e-13
-3.90943e-13
-3.29891e-13
-3.04036e-13
-3.1271e-13
-3.21217e-13
-3.04036e-13
-3.09411e-13
-3.85182e-13
-4.09692e-13
-4.02749e-13
-4.6671e-13
-4.65203e-13
-4.13665e-13
-4.50768e-13
-3.8088e-13
-5.23294e-13
-4.50431e-13
-4.60336e-13
-4.27206e-13
-4.38284e-13
-3.38901e-13
-3.77569e-13
-3.6632e-13
-4.06048e-13
-3.87299e-13
-4.29826e-13
-3.88526e-13
-3.6513e-13
-3.69944e-13
-3.09236e-13
-2.83723e-13
-2.21448e-13
-3.11824e-13
-3.82444e-13
-3.71137e-13
-3.89042e-13
-3.7085e-13
-3.9284e-13
-3.91109e-13
-4.16236e-13
-4.43663e-13
-3.36447e-13
-2.81326e-13
-2.6549e-13
-2.77133e-13
-1.92136e-13
-1.68191e-13
-1.69876e-13
-6.16611e-14
-9.32272e-14
-1.77974e-14
-3.32394e-14
-3.94508e-14
-6.8608e-14
-1.29323e-13
-8.45576e-14
-6.8051e-14
1.18554e-14
4.57545e-15
4.41291e-15
-1.15327e-14
-7.90163e-14
-7.86793e-14
-8.57847e-14
-5.80291e-14
-4.39848e-14
-9.29035e-15
-7.38122e-14
-2.52198e-15
-2.52439e-14
-3.75711e-15
-3.26864e-14
-2.35545e-15
2.55667e-14
1.89648e-14
8.22342e-15
-3.34099e-14
-2.82058e-14
-3.53112e-14
-7.14033e-14
-4.77873e-14
-1.93616e-14
-9.39507e-14
-8.38755e-14
-1.01393e-13
-1.00719e-13
-4.06779e-14
-9.11982e-15
-2.93795e-14
-4.8137e-15
-6.68693e-14
2.92026e-14
1.124e-13
1.07196e-13
1.6889e-14
-1.13661e-14
-2.27857e-14
-2.02143e-14
3.26721e-14
3.75392e-14
1.30584e-13
1.47757e-13
1.59555e-13
1.49995e-13
1.36296e-13
5.25947e-14
1.14809e-13
3.64746e-14
3.47399e-14
-2.83723e-14
-7.47022e-14
-9.42878e-14
-5.83662e-14
-1.84786e-15
7.99638e-14
1.31782e-13
1.94503e-13
2.13752e-13
2.84985e-13
3.06634e-13
3.2275e-13
2.9623e-13
2.964e-13
2.72671e-13
2.8117e-13
3.77347e-13
3.61576e-13
4.13049e-13
4.69555e-13
4.17737e-13
3.40634e-13
3.41857e-13
1.58835e-13
9.14128e-14
-4.74583e-14
-6.65402e-14
-1.3677e-13
-8.62963e-14
-1.01909e-13
-1.55685e-13
-1.39736e-13
-1.40963e-13
-1.51534e-13
-1.01734e-13
-2.32215e-14
-1.10211e-14
3.49104e-14
-7.86793e-14
-7.19069e-14
-1.12143e-13
-1.20146e-13
-1.11976e-13
-2.92664e-14
-6.66988e-14
-2.62965e-14
-4.36438e-14
-2.79665e-16
-1.62292e-14
-3.67089e-14
-2.68041e-14
-2.60846e-14
-7.93614e-14
-9.67086e-14
-1.26013e-14
-1.24267e-14
-6.13321e-14
-2.64671e-14
-8.47695e-14
-6.04794e-14
6.85069e-14
1.57245e-13
2.17217e-13
2.26061e-13
1.42182e-13
7.12942e-14
-2.50574e-14
-1.46571e-14
4.358e-14
2.76345e-14
-2.40128e-14
-2.99445e-14
9.79161e-15
4.49777e-14
1.05453e-13
1.33538e-13
9.09092e-14
8.5705e-14
5.76243e-14
-8.00275e-14
-7.93614e-14
-7.20854e-14
-6.18436e-14
1.53249e-14
7.09491e-14
1.1896e-13
2.08548e-13
1.94e-13
2.49108e-13
3.34211e-13
3.52062e-13
2.84814e-13
2.05086e-13
1.95901e-13
2.97286e-13
2.85147e-13
3.64704e-13
3.8412e-13
3.91054e-13
3.48251e-13
3.55527e-13
2.92082e-13
3.11668e-13
3.18944e-13
3.70583e-13
3.77014e-13
3.48592e-13
3.27276e-13
2.54654e-13
1.19984e-13
1.66252e-13
1.66252e-13
1.2362e-13
1.9781e-13
2.54654e-13
1.82031e-13
1.92606e-13
8.79219e-14
1.18756e-13
5.62013e-14
1.77168e-13
1.38171e-13
1.21718e-13
1.36096e-13
9.53684e-14
8.65242e-14
1.41641e-13
1.0975e-13
1.59488e-13
2.1963e-13
1.94333e-13
1.37319e-13
8.67282e-14
-3.66555e-14
9.44655e-15
-5.00336e-14
-6.01049e-14
-4.41553e-14
-6.15026e-14
-1.19423e-13
-1.65927e-13
-9.44663e-14
-1.3677e-13
-1.34698e-13
-2.26805e-13
-1.31562e-13
-1.67368e-14
-2.47403e-14
-8.33799e-14
-1.31778e-13
-1.58972e-13
-1.54276e-13
-8.85266e-14
-8.61258e-14
-9.11594e-14
-7.15739e-14
-8.57847e-14
-1.72521e-13
-1.55174e-13
-1.18578e-13
-5.38856e-14
-7.39747e-14
-2.66376e-14
-8.45576e-14
-1.91777e-13
-2.40683e-13
-2.08227e-13
-1.71464e-13
-1.55182e-13
-2.02182e-13
-1.0537e-13
-8.87506e-14
-1.66976e-13
-1.82876e-13
-1.81877e-13
-2.06329e-13
-2.40467e-13
-2.35945e-13
-2.33373e-13
-1.84968e-13
-2.00247e-13
-2.33544e-13
-1.80275e-13
-1.19784e-13
-1.57944e-13
-1.6695e-13
)
;

boundaryField
{
    sides
    {
        type            calculated;
        value           nonuniform List<scalar> 2(-2.03727e-13 5.82077e-13);
    }
    empty
    {
        type            empty;
    }
}


// ************************************************************************* //
