/*--------------------------------*- C++ -*----------------------------------*\
  =========                 |
  \\      /  F ield         | OpenFOAM: The Open Source CFD Toolbox
   \\    /   O peration     | Website:  https://openfoam.org
    \\  /    A nd           | Version:  13
     \\/     M anipulation  |
\*---------------------------------------------------------------------------*/
FoamFile
{
    format      ascii;
    class       volScalarField;
    location    "0.003";
    object      rho;
}
// * * * * * * * * * * * * * * * * * * * * * * * * * * * * * * * * * * * * * //

dimensions      [1 -3 0 0 0 0 0];

internalField   nonuniform List<scalar> 
1000
(
0.997575
0.997575
0.997575
0.997575
0.997575
0.997575
0.997575
0.997575
0.997575
0.997575
0.997575
0.997575
0.997575
0.997575
0.997575
0.997575
0.997575
0.997575
0.997575
0.997575
0.997575
0.997575
0.997575
0.997575
0.997575
0.997575
0.997575
0.997575
0.997575
0.997575
0.997575
0.997575
0.997575
0.997575
0.997575
0.997575
0.997575
0.997575
0.997575
0.997575
0.997575
0.997575
0.997575
0.997575
0.997575
0.997575
0.997575
0.997575
0.997575
0.997575
0.997575
0.997575
0.997575
0.997575
0.997575
0.997575
0.997575
0.997575
0.997575
0.997575
0.997575
0.997575
0.997575
0.997575
0.997575
0.997575
0.997575
0.997575
0.997575
0.997575
0.997575
0.997575
0.997575
0.997575
0.997575
0.997575
0.997575
0.997575
0.997575
0.997575
0.997575
0.997575
0.997575
0.997575
0.997575
0.997575
0.997575
0.997575
0.997575
0.997575
0.997575
0.997575
0.997575
0.997575
0.997575
0.997575
0.997575
0.997575
0.997575
0.997575
0.997575
0.997575
0.997575
0.997575
0.997575
0.997575
0.997575
0.997575
0.997575
0.997575
0.997575
0.997575
0.997575
0.997575
0.997575
0.997575
0.997575
0.997575
0.997575
0.997575
0.997575
0.997575
0.997575
0.997575
0.997575
0.997575
0.997575
0.997575
0.997575
0.997575
0.997575
0.997575
0.997575
0.997575
0.997575
0.997575
0.997575
0.997575
0.997575
0.997575
0.997575
0.997575
0.997575
0.997575
0.997575
0.997575
0.997575
0.997575
0.997575
0.997575
0.997575
0.997575
0.997575
0.997575
0.997575
0.997575
0.997575
0.997575
0.997575
0.997575
0.997575
0.997575
0.997575
0.997575
0.997575
0.997575
0.997575
0.997575
0.997575
0.997575
0.997575
0.997575
0.997575
0.997575
0.997575
0.997575
0.997575
0.997575
0.997575
0.997575
0.997575
0.997575
0.997575
0.997575
0.997575
0.997575
0.997575
0.997575
0.997575
0.997575
0.997575
0.997575
0.997575
0.997575
0.997575
0.997575
0.997575
0.997575
0.997575
0.997575
0.997575
0.997575
0.997575
0.997575
0.997575
0.997575
0.997575
0.997575
0.997575
0.997575
0.997575
0.997575
0.997575
0.997575
0.997575
0.997575
0.997575
0.997575
0.997575
0.997575
0.997575
0.997575
0.997575
0.997575
0.997575
0.997575
0.997575
0.997575
0.997575
0.997575
0.997575
0.997575
0.997575
0.997575
0.997575
0.997575
0.997575
0.997575
0.997575
0.997575
0.997575
0.997575
0.997575
0.997575
0.997575
0.997575
0.997575
0.997575
0.997575
0.997575
0.997575
0.997575
0.997575
0.997575
0.997575
0.997575
0.997575
0.997575
0.997575
0.997575
0.997575
0.997575
0.997575
0.997575
0.997575
0.997575
0.997575
0.997575
0.997575
0.997575
0.997575
0.997575
0.997575
0.997575
0.997575
0.997575
0.997575
0.997575
0.997575
0.997575
0.997575
0.997575
0.997575
0.997575
0.997575
0.997575
0.997575
0.997575
0.997575
0.997575
0.997575
0.997575
0.997575
0.997575
0.997575
0.997575
0.997575
0.997575
0.997575
0.997575
0.997575
0.997575
0.997575
0.997575
0.997575
0.997575
0.997575
0.997575
0.997575
0.997575
0.997575
0.997575
0.997575
0.997575
0.997575
0.997575
0.997575
0.997575
0.997575
0.997575
0.997575
0.997575
0.997575
0.997575
0.997575
0.997575
0.997575
0.997575
0.997575
0.997575
0.997575
0.997575
0.997575
0.997575
0.997575
0.997575
0.997575
0.997575
0.997575
0.997575
0.997575
0.997575
0.997575
0.997575
0.997575
0.997575
0.997575
0.997575
0.997574
0.997574
0.997574
0.997574
0.997574
0.997574
0.997573
0.997572
0.99757
0.997567
0.997562
0.997555
0.997544
0.997527
0.997502
0.997464
0.997408
0.997326
0.99721
0.997046
0.996817
0.996502
0.996077
0.995511
0.994768
0.993811
0.992597
0.991085
0.989235
0.987016
0.984407
0.981401
0.978005
0.974242
0.970144
0.965753
0.961115
0.956274
0.951274
0.946151
0.940935
0.935652
0.930319
0.924949
0.919554
0.91414
0.908711
0.903273
0.897826
0.892375
0.88692
0.881463
0.876006
0.870551
0.865098
0.859648
0.854204
0.848766
0.843336
0.837913
0.832501
0.827098
0.821706
0.816327
0.81096
0.805607
0.800269
0.794945
0.789637
0.784346
0.779072
0.773815
0.768576
0.763357
0.758156
0.752976
0.747816
0.742677
0.737559
0.732463
0.727389
0.722339
0.717311
0.712307
0.707327
0.702372
0.697441
0.692536
0.687656
0.682803
0.677976
0.673176
0.668403
0.663658
0.658941
0.654253
0.649593
0.644963
0.640362
0.635791
0.63125
0.626741
0.622263
0.617816
0.613401
0.609019
0.604671
0.600355
0.596074
0.591827
0.587615
0.583438
0.579298
0.575194
0.571127
0.567098
0.563107
0.559156
0.555244
0.551372
0.547541
0.543753
0.540006
0.536303
0.532644
0.52903
0.525462
0.521941
0.518467
0.515041
0.511666
0.50834
0.505067
0.501846
0.498678
0.495565
0.492509
0.489509
0.486567
0.483684
0.480862
0.478102
0.475404
0.47277
0.470201
0.467698
0.465262
0.462894
0.460594
0.458365
0.456207
0.45412
0.452104
0.450162
0.448292
0.446496
0.444773
0.443124
0.441548
0.440045
0.438615
0.437257
0.43597
0.434753
0.433606
0.432526
0.431512
0.430563
0.429677
0.428852
0.428085
0.427374
0.426718
0.426113
0.425557
0.425047
0.424581
0.424155
0.423768
0.423416
0.423097
0.422809
0.422547
0.422311
0.422097
0.421904
0.421728
0.421568
0.421422
0.421288
0.421164
0.421049
0.42094
0.420837
0.420738
0.420641
0.420547
0.420453
0.420358
0.420262
0.420162
0.420059
0.41995
0.419834
0.41971
0.419574
0.419424
0.419256
0.419067
0.41885
0.4186
0.418307
0.417963
0.417557
0.417074
0.4165
0.415817
0.415006
0.414047
0.412917
0.411593
0.410051
0.408268
0.406221
0.403892
0.401261
0.398315
0.395046
0.391449
0.387526
0.383287
0.378747
0.373927
0.368856
0.36357
0.358107
0.352511
0.346829
0.341111
0.335406
0.329762
0.324228
0.318845
0.313656
0.308693
0.303988
0.299563
0.295435
0.291617
0.288113
0.284924
0.282046
0.279468
0.277178
0.27516
0.273398
0.27187
0.270557
0.269438
0.268493
0.267702
0.267047
0.266508
0.266071
0.265719
0.265441
0.265223
0.265056
0.26493
0.264837
0.264772
0.264728
0.2647
0.264685
0.26468
0.264682
0.264689
0.264699
0.264712
0.264725
0.264738
0.264751
0.264763
0.264772
0.26478
0.264784
0.264785
0.264782
0.264775
0.264762
0.264742
0.264714
0.264678
0.264631
0.264571
0.264497
0.264405
0.264292
0.264154
0.263987
0.263785
0.263541
0.263247
0.262894
0.262469
0.261959
0.261347
0.260611
0.259726
0.258661
0.257377
0.255824
0.253942
0.251652
0.248853
0.245414
0.241156
0.235836
0.229107
0.220439
0.209016
0.193745
0.174104
0.152767
0.136457
0.128453
0.125709
0.124951
0.124759
0.124712
0.1247
0.124698
0.124697
0.124697
0.124697
0.124697
0.124697
0.124697
0.124697
0.124697
0.124697
0.124697
0.124697
0.124697
0.124697
0.124697
0.124697
0.124697
0.124697
0.124697
0.124697
0.124697
0.124697
0.124697
0.124697
0.124697
0.124697
0.124697
0.124697
0.124697
0.124697
0.124697
0.124697
0.124697
0.124697
0.124697
0.124697
0.124697
0.124697
0.124697
0.124697
0.124697
0.124697
0.124697
0.124697
0.124697
0.124697
0.124697
0.124697
0.124697
0.124697
0.124697
0.124697
0.124697
0.124697
0.124697
0.124697
0.124697
0.124697
0.124697
0.124697
0.124697
0.124697
0.124697
0.124697
0.124697
0.124697
0.124697
0.124697
0.124697
0.124697
0.124697
0.124697
0.124697
0.124697
0.124697
0.124697
0.124697
0.124697
0.124697
0.124697
0.124697
0.124697
0.124697
0.124697
0.124697
0.124697
0.124697
0.124697
0.124697
0.124697
0.124697
0.124697
0.124697
0.124697
0.124697
0.124697
0.124697
0.124697
0.124697
0.124697
0.124697
0.124697
0.124697
0.124697
0.124697
0.124697
0.124697
0.124697
0.124697
0.124697
0.124697
0.124697
0.124697
0.124697
0.124697
0.124697
0.124697
0.124697
0.124697
0.124697
0.124697
0.124697
0.124697
0.124697
0.124697
0.124697
0.124697
0.124697
0.124697
0.124697
0.124697
0.124697
0.124697
0.124697
0.124697
0.124697
0.124697
0.124697
0.124697
0.124697
0.124697
0.124697
0.124697
0.124697
0.124697
0.124697
0.124697
0.124697
0.124697
0.124697
0.124697
0.124697
0.124697
0.124697
0.124697
0.124697
0.124697
0.124697
0.124697
0.124697
0.124697
0.124697
0.124697
0.124697
0.124697
0.124697
0.124697
0.124697
0.124697
0.124697
0.124697
0.124697
0.124697
0.124697
0.124697
0.124697
0.124697
0.124697
0.124697
0.124697
0.124697
0.124697
0.124697
0.124697
0.124697
0.124697
0.124697
0.124697
0.124697
0.124697
0.124697
0.124697
0.124697
0.124697
0.124697
0.124697
0.124697
0.124697
0.124697
0.124697
0.124697
0.124697
0.124697
0.124697
0.124697
0.124697
0.124697
0.124697
0.124697
0.124697
0.124697
0.124697
0.124697
0.124697
0.124697
0.124697
0.124697
0.124697
0.124697
0.124697
0.124697
0.124697
0.124697
0.124697
0.124697
0.124697
0.124697
0.124697
0.124697
0.124697
0.124697
0.124697
0.124697
0.124697
0.124697
0.124697
0.124697
0.124697
0.124697
0.124697
0.124697
0.124697
0.124697
0.124697
0.124697
0.124697
0.124697
0.124697
0.124697
0.124697
0.124697
0.124697
0.124697
0.124697
0.124697
0.124697
0.124697
0.124697
0.124697
0.124697
0.124697
0.124697
0.124697
0.124697
0.124697
0.124697
0.124697
0.124697
0.124697
0.124697
0.124697
0.124697
0.124697
0.124697
0.124697
0.124697
0.124697
0.124697
0.124697
0.124697
0.124697
0.124697
0.124697
0.124697
0.124697
0.124697
0.124697
0.124697
0.124697
0.124697
0.124697
0.124697
0.124697
0.124697
0.124697
0.124697
0.124697
0.124697
0.124697
0.124697
0.124697
0.124697
0.124697
0.124697
0.124697
0.124697
0.124697
0.124697
0.124697
0.124697
0.124697
0.124697
0.124697
0.124697
0.124697
0.124697
0.124697
0.124697
0.124697
0.124697
0.124697
)
;

boundaryField
{
    sides
    {
        type            calculated;
        value           nonuniform List<scalar> 2(0.124697 0.997575);
    }
    empty
    {
        type            empty;
    }
}


// ************************************************************************* //
