/*--------------------------------*- C++ -*----------------------------------*\
  =========                 |
  \\      /  F ield         | OpenFOAM: The Open Source CFD Toolbox
   \\    /   O peration     | Website:  https://openfoam.org
    \\  /    A nd           | Version:  13
     \\/     M anipulation  |
\*---------------------------------------------------------------------------*/
FoamFile
{
    format      ascii;
    class       volVectorField;
    location    "0.003";
    object      U;
}
// * * * * * * * * * * * * * * * * * * * * * * * * * * * * * * * * * * * * * //

dimensions      [0 1 -1 0 0 0 0];

internalField   nonuniform List<vector> 
1000
(
(-1.45873e-13 0 0)
(-2.47984e-13 0 0)
(-1.6046e-13 0 0)
(-2.04222e-13 0 0)
(-7.29365e-14 0 0)
(-3.64682e-13 0 0)
(-4.52206e-13 0 0)
(-2.62571e-13 0 0)
(-5.25143e-13 0 0)
(-2.04222e-13 0 0)
(-5.10555e-13 0 0)
(-1.75048e-13 0 0)
(-3.50095e-13 0 0)
(-1.75048e-13 0 0)
(-4.23032e-13 0 0)
(-1.02111e-13 0 0)
(-3.7927e-13 0 0)
(-1.45873e-13 0 0)
(-2.62571e-13 0 0)
(-2.47984e-13 0 0)
(-3.50095e-13 0 0)
(-4.08444e-13 0 0)
(-5.10555e-13 0 0)
(-3.7927e-13 0 0)
(-3.20921e-13 0 0)
(-4.08444e-13 0 0)
(-2.04222e-13 0 0)
(-7.29365e-14 0 0)
(1.45873e-14 0 0)
(-1.31286e-13 0 0)
(-2.91746e-14 0 0)
(-3.20921e-13 0 0)
(-5.83492e-14 0 0)
(-4.52206e-13 0 0)
(-1.02111e-13 0 0)
(-4.52206e-13 0 0)
(-3.64682e-13 0 0)
(-5.3973e-13 0 0)
(-3.50095e-13 0 0)
(-3.7927e-13 0 0)
(-2.91746e-13 0 0)
(-1.75048e-13 0 0)
(-2.77159e-13 0 0)
(-1.02111e-13 0 0)
(-2.62571e-13 0 0)
(-7.29365e-14 0 0)
(1.45873e-14 0 0)
(2.91746e-14 0 0)
(2.47984e-13 0 0)
(7.29365e-14 0 0)
(7.29365e-14 0 0)
(-5.83492e-14 0 0)
(2.91746e-14 0 0)
(1.16698e-13 0 0)
(1.45873e-14 0 0)
(3.20921e-13 0 0)
(-1.45873e-14 0 0)
(2.62571e-13 0 0)
(7.29365e-14 0 0)
(2.18809e-13 0 0)
(2.04222e-13 0 0)
(2.18809e-13 0 0)
(1.75048e-13 0 0)
(1.02111e-13 0 0)
(1.16698e-13 0 0)
(1.45873e-14 0 0)
(2.33397e-13 0 0)
(1.6046e-13 0 0)
(2.77159e-13 0 0)
(5.83492e-14 0 0)
(2.18809e-13 0 0)
(-5.83492e-14 0 0)
(2.47984e-13 0 0)
(2.91746e-14 0 0)
(2.62571e-13 0 0)
(1.02111e-13 0 0)
(2.04222e-13 0 0)
(1.02111e-13 0 0)
(2.04222e-13 0 0)
(2.91746e-14 0 0)
(8.75238e-14 0 0)
(4.37619e-14 0 0)
(1.16698e-13 0 0)
(1.45873e-14 0 0)
(2.77159e-13 0 0)
(1.16698e-13 0 0)
(2.62571e-13 0 0)
(1.02111e-13 0 0)
(3.64682e-13 0 0)
(1.75048e-13 0 0)
(3.35508e-13 0 0)
(1.31286e-13 0 0)
(1.75048e-13 0 0)
(1.31286e-13 0 0)
(2.33397e-13 0 0)
(8.75238e-14 0 0)
(1.6046e-13 0 0)
(-5.83492e-14 0 0)
(1.6046e-13 0 0)
(1.02111e-13 0 0)
(2.18809e-13 0 0)
(8.75238e-14 0 0)
(1.02111e-13 0 0)
(4.37619e-14 0 0)
(-5.83492e-14 0 0)
(1.45873e-13 0 0)
(-4.37619e-14 0 0)
(1.31286e-13 0 0)
(-2.77159e-13 0 0)
(1.45873e-14 0 0)
(-1.31286e-13 0 0)
(5.83492e-14 0 0)
(5.83492e-14 0 0)
(-1.45873e-14 0 0)
(1.31286e-13 0 0)
(-4.37619e-14 0 0)
(-1.16698e-13 0 0)
(-8.75238e-14 0 0)
(4.37619e-14 0 0)
(-2.91746e-14 0 0)
(1.45873e-14 0 0)
(-1.31286e-13 0 0)
(-8.75238e-14 0 0)
(-2.04222e-13 0 0)
(-2.04222e-13 0 0)
(-1.6046e-13 0 0)
(-3.06333e-13 0 0)
(-1.89635e-13 0 0)
(-5.83492e-13 0 0)
(-2.62571e-13 0 0)
(-3.93857e-13 0 0)
(-1.31286e-13 0 0)
(-2.04222e-13 0 0)
(-7.29365e-14 0 0)
(-2.62571e-13 0 0)
(-1.89635e-13 0 0)
(-2.18809e-13 0 0)
(-1.45873e-14 0 0)
(-2.77159e-13 0 0)
(1.02111e-13 0 0)
(-1.6046e-13 0 0)
(1.16698e-13 0 0)
(-2.04222e-13 0 0)
(1.02111e-13 0 0)
(8.75238e-14 0 0)
(-7.29365e-14 0 0)
(1.16698e-13 0 0)
(4.37619e-14 0 0)
(2.47984e-13 0 0)
(1.31286e-13 0 0)
(1.6046e-13 0 0)
(1.45873e-14 0 0)
(-1.45873e-14 0 0)
(1.16698e-13 0 0)
(1.83156e-27 0 0)
(5.83492e-14 0 0)
(1.16698e-13 0 0)
(2.33397e-13 0 0)
(1.16698e-13 0 0)
(1.31286e-13 0 0)
(-2.91746e-14 0 0)
(-1.6046e-13 0 0)
(-7.29365e-14 0 0)
(-1.02111e-13 0 0)
(-2.33397e-13 0 0)
(-1.45873e-14 0 0)
(-2.47984e-13 0 0)
(-5.83492e-14 0 0)
(-1.6046e-13 0 0)
(7.29365e-14 0 0)
(4.37619e-14 0 0)
(2.91746e-14 0 0)
(-5.83492e-14 0 0)
(1.45873e-14 0 0)
(-2.04222e-13 0 0)
(-4.37619e-14 0 0)
(-4.37619e-14 0 0)
(-4.37619e-14 0 0)
(-2.04222e-13 0 0)
(-1.16698e-13 0 0)
(4.37619e-14 0 0)
(-2.18809e-13 0 0)
(1.45873e-13 0 0)
(-1.45873e-13 0 0)
(1.45873e-13 0 0)
(-4.37619e-14 0 0)
(1.31286e-13 0 0)
(-1.02111e-13 0 0)
(-4.37619e-14 0 0)
(4.37619e-14 0 0)
(-4.37619e-14 0 0)
(1.6046e-13 0 0)
(2.91746e-14 0 0)
(-1.31286e-13 0 0)
(-1.02111e-13 0 0)
(7.29365e-14 0 0)
(1.02111e-13 0 0)
(1.75048e-13 0 0)
(1.45873e-13 0 0)
(1.89635e-13 0 0)
(2.62571e-13 0 0)
(2.18809e-13 0 0)
(3.35508e-13 0 0)
(1.02111e-13 0 0)
(3.7927e-13 0 0)
(1.84941e-26 0 0)
(2.62571e-13 0 0)
(-8.75238e-14 0 0)
(2.47984e-13 0 0)
(4.37619e-14 0 0)
(2.91746e-13 0 0)
(1.45873e-14 0 0)
(2.77159e-13 0 0)
(2.91746e-14 0 0)
(1.02111e-13 0 0)
(5.83492e-14 0 0)
(3.20921e-13 0 0)
(1.07443e-26 0 0)
(1.89635e-13 0 0)
(2.47984e-13 0 0)
(2.04222e-13 0 0)
(2.77159e-13 0 0)
(3.50095e-13 0 0)
(1.75048e-13 0 0)
(3.20921e-13 0 0)
(2.04222e-13 0 0)
(2.77159e-13 0 0)
(2.47984e-13 0 0)
(1.89635e-13 0 0)
(2.91746e-13 0 0)
(3.35508e-13 0 0)
(4.52206e-13 0 0)
(2.04222e-13 0 0)
(-5.94801e-27 0 0)
(-1.45873e-14 0 0)
(3.20921e-13 0 0)
(2.77159e-13 0 0)
(4.08444e-13 0 0)
(3.7927e-13 0 0)
(3.64682e-13 0 0)
(6.71016e-13 0 0)
(5.54317e-13 0 0)
(5.3973e-13 0 0)
(3.7927e-13 0 0)
(5.83492e-13 0 0)
(4.52206e-13 0 0)
(7.14777e-13 0 0)
(6.27254e-13 0 0)
(7.58539e-13 0 0)
(3.35508e-13 0 0)
(5.10555e-13 0 0)
(4.95968e-13 0 0)
(6.12666e-13 0 0)
(5.98079e-13 0 0)
(8.46063e-13 0 0)
(9.48174e-13 0 0)
(9.62762e-13 0 0)
(8.6065e-13 0 0)
(8.46063e-13 0 0)
(6.56428e-13 0 0)
(7.58539e-13 0 0)
(9.48174e-13 0 0)
(9.62762e-13 0 0)
(8.16889e-13 0 0)
(9.04412e-13 0 0)
(9.19e-13 0 0)
(7.73127e-13 0 0)
(8.02301e-13 0 0)
(6.85603e-13 0 0)
(9.04412e-13 0 0)
(7.43952e-13 0 0)
(8.31476e-13 0 0)
(7.0019e-13 0 0)
(6.12666e-13 0 0)
(8.02301e-13 0 0)
(6.71016e-13 0 0)
(7.58539e-13 0 0)
(6.41841e-13 0 0)
(6.41841e-13 0 0)
(6.12666e-13 0 0)
(5.25143e-13 0 0)
(6.56428e-13 0 0)
(7.58539e-13 0 0)
(7.0019e-13 0 0)
(7.0019e-13 0 0)
(6.41841e-13 0 0)
(9.48174e-13 0 0)
(8.89825e-13 0 0)
(8.75238e-13 0 0)
(6.41841e-13 0 0)
(1.06487e-12 0 0)
(7.29365e-13 0 0)
(1.19616e-12 0 0)
(9.91936e-13 0 0)
(1.09405e-12 0 0)
(1.32744e-12 0 0)
(1.35662e-12 0 0)
(1.07946e-12 0 0)
(1.32744e-12 0 0)
(1.37121e-12 0 0)
(1.50249e-12 0 0)
(1.59002e-12 0 0)
(1.23992e-12 0 0)
(1.40038e-12 0 0)
(1.05029e-12 0 0)
(1.13781e-12 0 0)
(1.22533e-12 0 0)
(1.02111e-12 0 0)
(1.34203e-12 0 0)
(1.05029e-12 0 0)
(1.07946e-12 0 0)
(8.89825e-13 0 0)
(5.68905e-13 0 0)
(9.62762e-13 0 0)
(5.25143e-13 0 0)
(1.0357e-12 0 0)
(6.12666e-13 0 0)
(1.16698e-12 0 0)
(8.31476e-13 0 0)
(9.77349e-13 0 0)
(9.04412e-13 0 0)
(1.0357e-12 0 0)
(1.38579e-12 0 0)
(2.31938e-12 0 0)
(4.28866e-12 0 0)
(8.28558e-12 0 0)
(1.66295e-11 0 0)
(3.37842e-11 0 0)
(6.9173e-11 0 0)
(1.40417e-10 0 0)
(2.84292e-10 0 0)
(5.71734e-10 0 0)
(1.14146e-09 0 0)
(2.2646e-09 0 0)
(4.46098e-09 0 0)
(8.72462e-09 0 0)
(1.69411e-08 0 0)
(3.2653e-08 0 0)
(6.24692e-08 0 0)
(1.18608e-07 0 0)
(2.23476e-07 0 0)
(4.17792e-07 0 0)
(7.74921e-07 0 0)
(1.42584e-06 0 0)
(2.60228e-06 0 0)
(4.71029e-06 0 0)
(8.45476e-06 0 0)
(1.50473e-05 0 0)
(2.65497e-05 0 0)
(4.64353e-05 0 0)
(8.04934e-05 0 0)
(0.000138272 0 0)
(0.000235344 0 0)
(0.000396826 0 0)
(0.000662759 0 0)
(0.00109621 0 0)
(0.00179534 0 0)
(0.00291091 0 0)
(0.00467158 0 0)
(0.00741938 0 0)
(0.0116588 0 0)
(0.0181231 0 0)
(0.0278618 0 0)
(0.0423538 0 0)
(0.0636473 0 0)
(0.0945305 0 0)
(0.138727 0 0)
(0.201115 0 0)
(0.287945 0 0)
(0.407049 0 0)
(0.567996 0 0)
(0.782155 0 0)
(1.06262 0 0)
(1.42393 0 0)
(1.88156 0 0)
(2.45102 0 0)
(3.14673 0 0)
(3.98048 0 0)
(4.95992 0 0)
(6.08776 0 0)
(7.36144 0 0)
(8.77351 0 0)
(10.3124 0 0)
(11.9637 0 0)
(13.7117 0 0)
(15.5408 0 0)
(17.4364 0 0)
(19.3858 0 0)
(21.3786 0 0)
(23.4065 0 0)
(25.4631 0 0)
(27.544 0 0)
(29.6457 0 0)
(31.7658 0 0)
(33.9027 0 0)
(36.0552 0 0)
(38.2222 0 0)
(40.4031 0 0)
(42.5972 0 0)
(44.8038 0 0)
(47.0226 0 0)
(49.2529 0 0)
(51.4944 0 0)
(53.7465 0 0)
(56.0088 0 0)
(58.2809 0 0)
(60.5625 0 0)
(62.8531 0 0)
(65.1524 0 0)
(67.46 0 0)
(69.7756 0 0)
(72.0988 0 0)
(74.4294 0 0)
(76.767 0 0)
(79.1114 0 0)
(81.4622 0 0)
(83.8191 0 0)
(86.182 0 0)
(88.5505 0 0)
(90.9243 0 0)
(93.3032 0 0)
(95.687 0 0)
(98.0753 0 0)
(100.468 0 0)
(102.865 0 0)
(105.265 0 0)
(107.67 0 0)
(110.077 0 0)
(112.488 0 0)
(114.902 0 0)
(117.318 0 0)
(119.737 0 0)
(122.158 0 0)
(124.581 0 0)
(127.005 0 0)
(129.431 0 0)
(131.858 0 0)
(134.287 0 0)
(136.716 0 0)
(139.145 0 0)
(141.574 0 0)
(144.004 0 0)
(146.433 0 0)
(148.862 0 0)
(151.289 0 0)
(153.716 0 0)
(156.141 0 0)
(158.564 0 0)
(160.986 0 0)
(163.404 0 0)
(165.821 0 0)
(168.234 0 0)
(170.643 0 0)
(173.049 0 0)
(175.451 0 0)
(177.848 0 0)
(180.241 0 0)
(182.628 0 0)
(185.009 0 0)
(187.384 0 0)
(189.753 0 0)
(192.114 0 0)
(194.468 0 0)
(196.813 0 0)
(199.15 0 0)
(201.478 0 0)
(203.796 0 0)
(206.103 0 0)
(208.399 0 0)
(210.684 0 0)
(212.956 0 0)
(215.214 0 0)
(217.459 0 0)
(219.69 0 0)
(221.904 0 0)
(224.103 0 0)
(226.284 0 0)
(228.448 0 0)
(230.592 0 0)
(232.717 0 0)
(234.82 0 0)
(236.902 0 0)
(238.96 0 0)
(240.995 0 0)
(243.004 0 0)
(244.987 0 0)
(246.943 0 0)
(248.87 0 0)
(250.767 0 0)
(252.633 0 0)
(254.467 0 0)
(256.267 0 0)
(258.032 0 0)
(259.762 0 0)
(261.454 0 0)
(263.108 0 0)
(264.722 0 0)
(266.295 0 0)
(267.827 0 0)
(269.315 0 0)
(270.759 0 0)
(272.159 0 0)
(273.512 0 0)
(274.819 0 0)
(276.078 0 0)
(277.289 0 0)
(278.451 0 0)
(279.564 0 0)
(280.629 0 0)
(281.643 0 0)
(282.609 0 0)
(283.525 0 0)
(284.392 0 0)
(285.21 0 0)
(285.981 0 0)
(286.704 0 0)
(287.381 0 0)
(288.012 0 0)
(288.6 0 0)
(289.145 0 0)
(289.648 0 0)
(290.111 0 0)
(290.536 0 0)
(290.924 0 0)
(291.278 0 0)
(291.598 0 0)
(291.888 0 0)
(292.148 0 0)
(292.381 0 0)
(292.588 0 0)
(292.772 0 0)
(292.934 0 0)
(293.076 0 0)
(293.2 0 0)
(293.308 0 0)
(293.401 0 0)
(293.48 0 0)
(293.548 0 0)
(293.605 0 0)
(293.653 0 0)
(293.693 0 0)
(293.725 0 0)
(293.751 0 0)
(293.773 0 0)
(293.789 0 0)
(293.803 0 0)
(293.812 0 0)
(293.82 0 0)
(293.825 0 0)
(293.829 0 0)
(293.832 0 0)
(293.835 0 0)
(293.837 0 0)
(293.839 0 0)
(293.842 0 0)
(293.845 0 0)
(293.85 0 0)
(293.857 0 0)
(293.867 0 0)
(293.879 0 0)
(293.895 0 0)
(293.916 0 0)
(293.942 0 0)
(293.974 0 0)
(294.012 0 0)
(294.058 0 0)
(294.112 0 0)
(294.175 0 0)
(294.247 0 0)
(294.329 0 0)
(294.419 0 0)
(294.519 0 0)
(294.628 0 0)
(294.745 0 0)
(294.869 0 0)
(294.998 0 0)
(295.131 0 0)
(295.266 0 0)
(295.4 0 0)
(295.532 0 0)
(295.659 0 0)
(295.778 0 0)
(295.887 0 0)
(295.984 0 0)
(296.065 0 0)
(296.129 0 0)
(296.175 0 0)
(296.2 0 0)
(296.204 0 0)
(296.187 0 0)
(296.149 0 0)
(296.091 0 0)
(296.013 0 0)
(295.919 0 0)
(295.809 0 0)
(295.687 0 0)
(295.555 0 0)
(295.416 0 0)
(295.274 0 0)
(295.131 0 0)
(294.989 0 0)
(294.851 0 0)
(294.719 0 0)
(294.594 0 0)
(294.478 0 0)
(294.372 0 0)
(294.275 0 0)
(294.188 0 0)
(294.112 0 0)
(294.044 0 0)
(293.986 0 0)
(293.936 0 0)
(293.894 0 0)
(293.858 0 0)
(293.829 0 0)
(293.805 0 0)
(293.785 0 0)
(293.769 0 0)
(293.756 0 0)
(293.746 0 0)
(293.738 0 0)
(293.731 0 0)
(293.726 0 0)
(293.721 0 0)
(293.716 0 0)
(293.711 0 0)
(293.706 0 0)
(293.699 0 0)
(293.691 0 0)
(293.681 0 0)
(293.669 0 0)
(293.654 0 0)
(293.635 0 0)
(293.612 0 0)
(293.583 0 0)
(293.547 0 0)
(293.504 0 0)
(293.451 0 0)
(293.387 0 0)
(293.31 0 0)
(293.216 0 0)
(293.103 0 0)
(292.967 0 0)
(292.804 0 0)
(292.608 0 0)
(292.373 0 0)
(292.092 0 0)
(291.755 0 0)
(291.352 0 0)
(290.87 0 0)
(290.294 0 0)
(289.606 0 0)
(288.783 0 0)
(287.799 0 0)
(286.621 0 0)
(285.211 0 0)
(283.519 0 0)
(281.487 0 0)
(279.04 0 0)
(276.088 0 0)
(272.513 0 0)
(268.168 0 0)
(262.861 0 0)
(256.34 0 0)
(248.268 0 0)
(238.177 0 0)
(225.401 0 0)
(208.935 0 0)
(187.202 0 0)
(157.858 0 0)
(118.679 0 0)
(72.4354 0 0)
(32.6628 0 0)
(10.9809 0 0)
(3.07421 0 0)
(0.789851 0 0)
(0.196531 0 0)
(0.0484497 0 0)
(0.0119164 0 0)
(0.00292921 0 0)
(0.000719913 0 0)
(0.000176918 0 0)
(4.34748e-05 0 0)
(1.06825e-05 0 0)
(2.62471e-06 0 0)
(6.44854e-07 0 0)
(1.5842e-07 0 0)
(3.89159e-08 0 0)
(9.55894e-09 0 0)
(2.34743e-09 0 0)
(5.76272e-10 0 0)
(1.41059e-10 0 0)
(3.41781e-11 0 0)
(8.00844e-12 0 0)
(1.41497e-12 0 0)
(-5.83493e-14 0 0)
(-7.87715e-13 0 0)
(-7.00191e-13 0 0)
(-7.00191e-13 0 0)
(-9.04414e-13 0 0)
(-7.43953e-13 0 0)
(-8.02302e-13 0 0)
(-7.87715e-13 0 0)
(-1.09405e-12 0 0)
(-7.43953e-13 0 0)
(-7.14779e-13 0 0)
(-7.00191e-13 0 0)
(-5.9808e-13 0 0)
(-5.39731e-13 0 0)
(-8.1689e-13 0 0)
(-4.3762e-13 0 0)
(-8.75239e-13 0 0)
(-6.41842e-13 0 0)
(-9.91938e-13 0 0)
(-7.29366e-13 0 0)
(-1.0357e-12 0 0)
(-7.43953e-13 0 0)
(-8.89826e-13 0 0)
(-8.1689e-13 0 0)
(-8.60652e-13 0 0)
(-9.91938e-13 0 0)
(-8.89826e-13 0 0)
(-1.00652e-12 0 0)
(-7.5854e-13 0 0)
(-8.1689e-13 0 0)
(-6.41842e-13 0 0)
(-8.02302e-13 0 0)
(-7.73128e-13 0 0)
(-7.73128e-13 0 0)
(-8.46064e-13 0 0)
(-7.43953e-13 0 0)
(-8.46064e-13 0 0)
(-8.02302e-13 0 0)
(-5.10556e-13 0 0)
(-6.85604e-13 0 0)
(-4.23032e-13 0 0)
(-5.54318e-13 0 0)
(-6.71017e-13 0 0)
(-7.43953e-13 0 0)
(-7.29366e-13 0 0)
(-8.75239e-13 0 0)
(-5.54318e-13 0 0)
(-9.33588e-13 0 0)
(-6.71017e-13 0 0)
(-9.19001e-13 0 0)
(-8.02302e-13 0 0)
(-4.66794e-13 0 0)
(-7.43953e-13 0 0)
(-2.33397e-13 0 0)
(-7.73128e-13 0 0)
(-7.29366e-14 0 0)
(-5.68905e-13 0 0)
(4.3762e-14 0 0)
(-3.20921e-13 0 0)
(-1.45873e-14 0 0)
(-1.02111e-13 0 0)
(-1.02111e-13 0 0)
(7.38374e-28 0 0)
(-2.91746e-13 0 0)
(-1.6046e-13 0 0)
(-2.1881e-13 0 0)
(5.83493e-14 0 0)
(-8.75239e-14 0 0)
(1.6046e-13 0 0)
(-1.45873e-13 0 0)
(1.31286e-13 0 0)
(-3.64683e-13 0 0)
(-2.91746e-14 0 0)
(-2.33397e-13 0 0)
(-5.83493e-14 0 0)
(-7.29366e-14 0 0)
(-1.18455e-26 0 0)
(-2.77159e-13 0 0)
(2.47984e-13 0 0)
(-2.91746e-13 0 0)
(2.47984e-13 0 0)
(-3.06334e-13 0 0)
(2.33397e-13 0 0)
(-8.75239e-14 0 0)
(1.31286e-13 0 0)
(-1.16699e-13 0 0)
(-1.45873e-14 0 0)
(-7.29366e-14 0 0)
(-5.83493e-14 0 0)
(-2.1881e-13 0 0)
(7.29366e-14 0 0)
(-1.75048e-13 0 0)
(-2.62572e-13 0 0)
(-1.16699e-13 0 0)
(-3.20921e-13 0 0)
(-3.90375e-27 0 0)
(-1.6046e-13 0 0)
(8.75239e-14 0 0)
(-1.16699e-13 0 0)
(-1.75127e-27 0 0)
(-1.6046e-13 0 0)
(3.06334e-13 0 0)
(8.75239e-14 0 0)
(2.47984e-13 0 0)
(-1.75048e-13 0 0)
(1.31286e-13 0 0)
(-1.6046e-13 0 0)
(5.83493e-14 0 0)
(-1.45873e-14 0 0)
(2.1881e-13 0 0)
(2.77159e-13 0 0)
(3.64683e-13 0 0)
(2.77159e-13 0 0)
(2.62572e-13 0 0)
(1.75048e-13 0 0)
(1.31286e-13 0 0)
(2.33397e-13 0 0)
(-2.91746e-14 0 0)
(1.16699e-13 0 0)
(-2.04222e-13 0 0)
(-1.89635e-13 0 0)
(-1.02111e-13 0 0)
(-4.3762e-14 0 0)
(-1.45873e-14 0 0)
(3.35508e-13 0 0)
(1.31286e-13 0 0)
(6.12667e-13 0 0)
(2.33397e-13 0 0)
(9.19001e-13 0 0)
(2.77159e-13 0 0)
(9.48176e-13 0 0)
(3.64683e-13 0 0)
(7.14779e-13 0 0)
(3.7927e-13 0 0)
(7.43953e-13 0 0)
(7.5854e-13 0 0)
(7.87715e-13 0 0)
(8.75239e-13 0 0)
(1.00652e-12 0 0)
(6.41842e-13 0 0)
(8.89826e-13 0 0)
(3.64683e-13 0 0)
(3.93858e-13 0 0)
(-1.16699e-13 0 0)
(-2.91746e-14 0 0)
(-3.20921e-13 0 0)
(-1.31286e-13 0 0)
(-2.91746e-13 0 0)
(-1.89635e-13 0 0)
(-3.20921e-13 0 0)
(-3.20921e-13 0 0)
(-2.47984e-13 0 0)
(-3.93858e-13 0 0)
(1.16699e-13 0 0)
(-3.06334e-13 0 0)
(3.35508e-13 0 0)
(-2.47984e-13 0 0)
(-9.32956e-27 0 0)
(-2.33397e-13 0 0)
(-2.33397e-13 0 0)
(-2.1881e-13 0 0)
(-1.31286e-13 0 0)
(-1.02111e-13 0 0)
(-5.83493e-14 0 0)
(-8.75239e-14 0 0)
(-4.3762e-14 0 0)
(5.83493e-14 0 0)
(-7.29366e-14 0 0)
(-1.45873e-13 0 0)
(4.3762e-14 0 0)
(-8.75239e-14 0 0)
(-2.04222e-13 0 0)
(-1.02111e-13 0 0)
(2.91746e-14 0 0)
(-8.75239e-14 0 0)
(-7.29366e-14 0 0)
(-2.91746e-14 0 0)
(-2.62572e-13 0 0)
(1.16699e-13 0 0)
(8.75239e-14 0 0)
(5.54318e-13 0 0)
(3.35508e-13 0 0)
(4.52207e-13 0 0)
(1.02111e-13 0 0)
(1.45873e-13 0 0)
(-2.04222e-13 0 0)
(1.16699e-13 0 0)
(1.45873e-14 0 0)
(5.83493e-14 0 0)
(-1.02111e-13 0 0)
(-7.29366e-14 0 0)
(7.29366e-14 0 0)
(1.16699e-13 0 0)
(2.62572e-13 0 0)
(2.1881e-13 0 0)
(1.89635e-13 0 0)
(1.16699e-13 0 0)
(1.45873e-14 0 0)
(-2.33397e-13 0 0)
(-1.16699e-13 0 0)
(-1.45873e-13 0 0)
(-2.91746e-14 0 0)
(1.02111e-13 0 0)
(1.75048e-13 0 0)
(2.77159e-13 0 0)
(4.23032e-13 0 0)
(5.25143e-13 0 0)
(4.52207e-13 0 0)
(8.75239e-13 0 0)
(4.66794e-13 0 0)
(5.9808e-13 0 0)
(3.06334e-13 0 0)
(5.83493e-13 0 0)
(4.66794e-13 0 0)
(7.00191e-13 0 0)
(7.73128e-13 0 0)
(8.02302e-13 0 0)
(7.73128e-13 0 0)
(5.83493e-13 0 0)
(7.5854e-13 0 0)
(4.95969e-13 0 0)
(6.56429e-13 0 0)
(6.56429e-13 0 0)
(7.14779e-13 0 0)
(9.04414e-13 0 0)
(5.25143e-13 0 0)
(6.85604e-13 0 0)
(3.64683e-13 0 0)
(2.1881e-13 0 0)
(3.64683e-13 0 0)
(1.89635e-13 0 0)
(3.64683e-13 0 0)
(4.23032e-13 0 0)
(4.81381e-13 0 0)
(3.06334e-13 0 0)
(3.35508e-13 0 0)
(1.31286e-13 0 0)
(1.6046e-13 0 0)
(1.45873e-13 0 0)
(4.23032e-13 0 0)
(2.1881e-13 0 0)
(2.91746e-13 0 0)
(3.06334e-13 0 0)
(2.91746e-14 0 0)
(3.64683e-13 0 0)
(1.16699e-13 0 0)
(3.93858e-13 0 0)
(2.47984e-13 0 0)
(4.95969e-13 0 0)
(2.77159e-13 0 0)
(2.62572e-13 0 0)
(4.3762e-14 0 0)
(-1.45873e-13 0 0)
(1.16699e-13 0 0)
(-2.62572e-13 0 0)
(-4.3762e-14 0 0)
(-1.45873e-13 0 0)
(-1.16699e-13 0 0)
(-3.06334e-13 0 0)
(-3.06334e-13 0 0)
(-1.89635e-13 0 0)
(-2.1881e-13 0 0)
(-3.06334e-13 0 0)
(-4.95969e-13 0 0)
(5.83493e-14 0 0)
(-1.31286e-13 0 0)
(2.91746e-14 0 0)
(-3.35508e-13 0 0)
(-2.47984e-13 0 0)
(-4.23032e-13 0 0)
(-7.29366e-14 0 0)
(-3.06334e-13 0 0)
(-8.75239e-14 0 0)
(-2.33397e-13 0 0)
(-8.75239e-14 0 0)
(-2.91746e-13 0 0)
(-2.91746e-13 0 0)
(-3.50096e-13 0 0)
(-2.91746e-14 0 0)
(-2.77159e-13 0 0)
(7.29366e-14 0 0)
(-2.1881e-13 0 0)
(-1.31286e-13 0 0)
(-5.83493e-13 0 0)
(-3.35508e-13 0 0)
(-4.66794e-13 0 0)
(-2.77159e-13 0 0)
(-4.3762e-13 0 0)
(-2.33397e-13 0 0)
(-1.75048e-13 0 0)
(-2.62572e-13 0 0)
(-3.50096e-13 0 0)
(-2.62572e-13 0 0)
(-4.81381e-13 0 0)
(-4.08445e-13 0 0)
(-4.66794e-13 0 0)
(-5.10556e-13 0 0)
(-4.52207e-13 0 0)
(-2.77159e-13 0 0)
(-5.9808e-13 0 0)
(-2.47984e-13 0 0)
(-3.64683e-13 0 0)
(-2.62572e-13 0 0)
(-2.77159e-13 0 0)
(-4.08445e-13 0 0)
)
;

boundaryField
{
    sides
    {
        type            zeroGradient;
    }
    empty
    {
        type            empty;
    }
}


// ************************************************************************* //
