/*--------------------------------*- C++ -*----------------------------------*\
  =========                 |
  \\      /  F ield         | OpenFOAM: The Open Source CFD Toolbox
   \\    /   O peration     | Website:  https://openfoam.org
    \\  /    A nd           | Version:  13
     \\/     M anipulation  |
\*---------------------------------------------------------------------------*/
FoamFile
{
    format      ascii;
    class       surfaceScalarField;
    location    "14.002891";
    object      phi;
}
// * * * * * * * * * * * * * * * * * * * * * * * * * * * * * * * * * * * * * //

dimensions      [0 3 -1 0 0 0 0];

internalField   nonuniform List<scalar> 
34068
(
-1.6712702e-07
3.1846729e-08
1.3528029e-07
-7.4126944e-07
1.0950632e-07
4.6463609e-07
-1.8547261e-06
2.1222095e-07
9.0123573e-07
-3.672537e-06
3.456184e-07
1.4721925e-06
-6.3994235e-06
5.1631181e-07
2.2105747e-06
-1.0287866e-05
7.3197672e-07
3.1564654e-06
-1.5647445e-05
1.0014383e-06
4.3581411e-06
-2.2855515e-05
1.3347334e-06
5.8733371e-06
-3.2369191e-05
1.7431378e-06
7.7705382e-06
-4.4738561e-05
2.2391391e-06
1.0130231e-05
-6.0620879e-05
2.836332e-06
1.3045986e-05
-8.0795321e-05
3.5492161e-06
1.6625226e-05
-0.0001061776
4.3928633e-06
2.0989418e-05
-0.00013783351
5.3824372e-06
2.6273475e-05
-0.00017699
6.5325464e-06
3.262394e-05
-0.00022504216
7.856441e-06
4.019572e-05
-0.00028355417
9.3650964e-06
4.9146913e-05
-0.00035425214
1.1066291e-05
5.9631679e-05
-0.00043900716
1.2963875e-05
7.179114e-05
-0.00053980781
1.505755e-05
8.5743105e-05
-0.00065872335
1.7343619e-05
0.00010157192
-0.00079786177
1.981731e-05
0.00011932111
-0.00095933171
2.2477312e-05
0.00013899262
-0.0011452221
2.5333051e-05
0.00016055731
-0.0013576184
2.8414666e-05
0.00018398164
-0.0015986771
3.1785137e-05
0.00020927362
-0.00187078
3.5555037e-05
0.00023654781
-0.0021767464
3.988842e-05
0.00026607795
-0.0025200111
4.498827e-05
0.00029827643
-0.002904472
5.0994205e-05
0.00033346669
-0.0033348133
5.8197141e-05
0.00037214415
-0.0038166312
6.695424e-05
0.00041486372
-0.0043565151
7.7700456e-05
0.00046218339
-0.0049620942
9.0967979e-05
0.00051461115
-0.0056421081
0.0001074318
0.0005725821
-0.0064064533
0.00012795229
0.00063639292
-0.0072661926
0.00015362796
0.00070611129
-0.0082334973
0.00018584641
0.00078145835
-0.0093214931
0.00022633655
0.00086165926
-0.010543966
0.00027721121
0.00094526207
-0.011914943
0.00034091803
0.0010300589
-0.013448177
0.00042020107
0.0011130322
-0.015156518
0.0005181089
0.0011902329
-0.017051041
0.00063770356
0.0012568188
-0.019139448
0.00078171214
0.0013066946
-0.021427043
0.00095332398
0.0013342719
-0.023917087
0.0011557648
0.001334279
-0.026619274
0.0013947114
0.0013074757
-0.029530735
0.0016697667
0.001241694
-0.032641506
0.0019808737
0.0011298969
-0.035934935
0.0023276783
0.00096575142
-0.039377662
0.0027039559
0.00073877078
-0.042921144
0.0031006564
0.00044282533
-0.046505218
0.0035084672
7.5606654e-05
-0.049942712
0.0038565708
-0.00041907691
-0.05297985
0.004084282
-0.0010471434
-0.05526927
0.0041111487
-0.0018217288
-0.056086546
0.003692487
-0.0028752106
-0.054273967
0.0024683448
-0.0042809245
-0.048332805
-0.00012376857
-0.0058173937
-0.037149704
-0.0041407435
-0.0070423571
-0.021119048
-0.0085359837
-0.0074946724
-0.0018676248
-0.012485151
-0.0067662718
0.018901558
-0.015282445
-0.005486738
-0.016868766
0.039884113
-0.0041137886
-1.6829518e-07
2.0014191e-07
-7.4645277e-07
6.8766391e-07
-1.867712e-06
1.3334802e-06
-3.698351e-06
2.1762574e-06
-6.444672e-06
3.2626328e-06
-1.0361167e-05
4.6484716e-06
-1.575997e-05
6.4002418e-06
-2.3021659e-05
8.5964226e-06
-3.2607408e-05
1.1328887e-05
-4.5072396e-05
1.4704127e-05
-6.1080241e-05
1.8844177e-05
-8.1418016e-05
2.3886991e-05
-0.00010701121
2.998606e-05
-0.0001389376
3.7308827e-05
-0.00017843873
4.6033674e-05
-0.0002269273
5.6345013e-05
-0.00028598848
6.8426275e-05
-0.00035737303
8.2450842e-05
-0.00044298054
9.8571385e-05
-0.00054483183
0.00011690884
-0.00066503168
0.00013754347
-0.00080572609
0.00016051172
-0.00096906279
0.00018581401
-0.0011571693
0.00021343955
-0.0013721674
0.00024341275
-0.0016162462
0.00027586401
-0.0018918167
0.00031112553
-0.0022017275
0.00034979915
-0.0025494451
0.0003927059
-0.0029389082
0.00044045731
-0.0033748545
0.00049414348
-0.003862934
0.00055503371
-0.0044098002
0.00062456666
-0.005023158
0.00070432581
-0.0057118286
0.00079610234
-0.0064857915
0.00090191524
-0.0073561848
0.0010240212
-0.0083352357
0.0011648974
-0.0094360722
0.001327173
-0.010672417
0.0015135563
-0.012058131
0.001726632
-0.013606628
0.0019686974
-0.015330201
0.0022416827
-0.017238971
0.0025464727
-0.019339469
0.0028822105
-0.021635229
0.0032490845
-0.024127476
0.0036480111
-0.026822984
0.0040902193
-0.029714603
0.0045613863
-0.032787196
0.0050534662
-0.036016794
0.0055572765
-0.039363806
0.0060509678
-0.042769337
0.006506188
-0.046120218
0.0068593473
-0.049246577
0.0069829304
-0.051900338
0.0067380427
-0.053638569
0.0058493799
-0.053729438
0.0037833556
-0.050973811
-0.00028728164
-0.043835454
-0.0072621257
-0.031191463
-0.016784734
-0.013472096
-0.026255351
0.0075890967
-0.033546344
0.029979446
-0.037672794
-0.03925093
0.05236161
-1.6471045e-07
3.6485236e-07
-7.30653e-07
1.2536065e-06
-1.8284157e-06
2.4312428e-06
-3.6210894e-06
3.9689312e-06
-6.3111518e-06
5.9526952e-06
-1.0148562e-05
8.4858821e-06
-1.5440146e-05
1.1691825e-05
-2.2560369e-05
1.5716646e-05
-3.1963479e-05
2.0731997e-05
-4.4196994e-05
2.6937642e-05
-5.9916276e-05
3.4563459e-05
-7.989985e-05
4.3870565e-05
-0.00010506478
5.5150995e-05
-0.00013648125
6.8725291e-05
-0.00017538486
8.4937284e-05
-0.00022318524
0.0001041454
-0.00028146872
0.00012670975
-0.00035199299
0.00015297511
-0.00043667185
0.00018325025
-0.0005375488
0.00021778579
-0.00065676014
0.00025675481
-0.00079649123
0.00030024281
-0.00095893418
0.00034825696
-0.0011462604
0.0004007658
-0.0013606279
0.00045778018
-0.0016042448
0.00051948092
-0.0018795152
0.00058639599
-0.0021892568
0.00065954069
-0.0025368845
0.00074033366
-0.0029263195
0.00082989227
-0.0033622575
0.00093008146
-0.0038502615
0.0010430377
-0.0043968875
0.0011711926
-0.0050097246
0.0013171629
-0.0056974361
0.0014838139
-0.006469773
0.0016742521
-0.0073375404
0.0018917886
-0.0083125003
0.0021398572
-0.0094071168
0.0024217895
-0.010634143
0.0027405825
-0.012006071
0.0030985604
-0.013534478
0.0034971042
-0.015229171
0.0039363758
-0.017097023
0.0044143246
-0.019141484
0.0049266718
-0.02136118
0.0054687805
-0.023753198
0.0060400287
-0.026316431
0.0066534525
-0.0290344
0.0072793556
-0.031882289
0.007901355
-0.034824467
0.0084994538
-0.037808688
0.0090351891
-0.040754758
0.0094522587
-0.043538508
0.0096430964
-0.045982217
0.0094266402
-0.047805199
0.0085610239
-0.048565473
0.0066096547
-0.047547693
0.0027655754
-0.043558059
-0.0042769164
-0.035004794
-0.01581539
-0.020699625
-0.031089904
-0.0013806214
-0.045574354
0.021115004
-0.05604197
0.044628737
-0.061186526
-0.062321893
0.067699699
-1.5606191e-07
5.2091427e-07
-6.9252095e-07
1.7900655e-06
-1.7335162e-06
3.4722381e-06
-3.43424e-06
5.6696549e-06
-5.9875915e-06
8.5060467e-06
-9.632017e-06
1.2130308e-05
-1.4660666e-05
1.6720474e-05
-2.1431914e-05
2.2487894e-05
-3.0381357e-05
2.9681439e-05
-4.2035181e-05
3.8591466e-05
-5.7024825e-05
4.9553102e-05
-7.6102538e-05
6.2948279e-05
-0.00010015736
7.9205815e-05
-0.00013023057
9.8798499e-05
-0.00016752948
0.0001222362
-0.00021343792
0.00015005384
-0.00026952138
0.00018279321
-0.00033752456
0.0002209783
-0.00041935913
0.00026508481
-0.00051707988
0.00031550655
-0.00063284941
0.00037252433
-0.0007688935
0.0004362869
-0.00092745432
0.00050681778
-0.001110754
0.00058406551
-0.0013209872
0.00066801336
-0.0015603644
0.00075885808
-0.0018312305
0.00085726208
-0.002136287
0.00096459725
-0.0024787942
0.0010828408
-0.0028627842
0.0012138823
-0.0032927246
0.0013600218
-0.0037739122
0.0015242254
-0.0043126158
0.0017098962
-0.0049161104
0.0019206575
-0.0055926578
0.0021603614
-0.0063514692
0.0024330634
-0.0072026238
0.0027429432
-0.0081568882
0.0030941216
-0.0092253995
0.0034903009
-0.010419076
0.0039342594
-0.011747905
0.0044273886
-0.013220203
0.004969402
-0.014841523
0.0055576962
-0.016613277
0.0061860785
-0.018533719
0.0068471144
-0.020596628
0.0075316891
-0.022796565
0.0082399659
-0.025116037
0.0089729241
-0.027529654
0.0096929723
-0.030003142
0.010374843
-0.032490624
0.010986936
-0.034929791
0.011474357
-0.037230474
0.011752941
-0.039260929
0.011673552
-0.040837389
0.0110031
-0.041684779
0.009408414
-0.041389431
0.0063143071
-0.039262413
0.00063855703
-0.034099176
-0.0094401531
-0.024186281
-0.025728285
-0.0083390864
-0.046937098
0.012058877
-0.065972318
0.035062726
-0.079045818
0.058533769
-0.08465757
-0.084738247
0.080950123
-1.4232312e-07
6.6323738e-07
-6.3189349e-07
2.2796359e-06
-1.5825074e-06
4.422852e-06
-3.1366575e-06
7.223805e-06
-5.471779e-06
1.0841168e-05
-8.8076677e-06
1.5466196e-05
-1.3415162e-05
2.1327968e-05
-1.9626267e-05
2.8698998e-05
-2.7845718e-05
3.7900891e-05
-3.8564136e-05
4.9309884e-05
-5.2372543e-05
6.336151e-05
-6.9978187e-05
8.0553923e-05
-9.2221058e-05
0.00010144869
-0.0001200906
0.00012666804
-0.0001547413
0.0001568869
-0.00019750591
0.00019281845
-0.00024990406
0.00023519136
-0.00031364415
0.00028471839
-0.00039061579
0.00034205645
-0.00048287043
0.00040776118
-0.00059258891
0.00048224282
-0.00072203698
0.00056573497
-0.00087351332
0.00065829412
-0.001049301
0.00075985321
-0.0012516399
0.00087035228
-0.0014827431
0.0009899612
-0.0017448675
0.0011193865
-0.0020404725
0.0012602023
-0.002372576
0.0014149443
-0.0027453985
0.0015867047
-0.0031630799
0.0017777033
-0.0036304296
0.001991575
-0.0041532496
0.0022327163
-0.0047383073
0.0025057152
-0.0053932141
0.0028152682
-0.0061263531
0.0031662024
-0.0069467615
0.0035633516
-0.0078637871
0.0040111473
-0.0088866162
0.0045131299
-0.010023625
0.0050712682
-0.011281554
0.0056853174
-0.012664609
0.0063524568
-0.014173233
0.007066321
-0.015803063
0.0078159079
-0.017544783
0.0085888347
-0.019387964
0.0093748703
-0.021325429
0.01017743
-0.023325526
0.010973022
-0.025354541
0.011721988
-0.027370984
0.012391285
-0.029320831
0.012936783
-0.031133449
0.013286974
-0.032710108
0.013329601
-0.033912497
0.01287594
-0.034550323
0.011640926
-0.03435326
0.0092113512
-0.032928239
0.0048892864
-0.029644258
-0.0026454239
-0.023290468
-0.015793944
-0.012009341
-0.037009412
0.0051369563
-0.064083395
0.026011708
-0.086847069
0.048620166
-0.10165428
0.070803869
-0.10684127
-0.10529459
0.091360216
-1.2365074e-07
7.8688812e-07
-5.4944625e-07
2.7054314e-06
-1.3770365e-06
5.2504423e-06
-2.7314999e-06
8.5782684e-06
-4.7690206e-06
1.2878689e-05
-7.6836584e-06
1.8380834e-05
-1.1715389e-05
2.5359699e-05
-1.7159518e-05
3.4143127e-05
-2.4377677e-05
4.511905e-05
-3.3810419e-05
5.8742625e-05
-4.5991473e-05
7.5542564e-05
-6.1563597e-05
9.6126047e-05
-8.1295736e-05
0.00012118082
-0.00010610093
0.00015147323
-0.00013705416
0.00018784013
-0.00017540882
0.00023117311
-0.00022260995
0.0002823925
-0.00028030178
0.00034241022
-0.00035032663
0.00041208131
-0.00043471225
0.0004921468
-0.00053564439
0.00058317496
-0.00065542417
0.00068551475
-0.00079641178
0.00079928173
-0.00096096454
0.00092440597
-0.001151385
0.0010607727
-0.0013699014
0.0012084777
-0.0016187098
0.0013681948
-0.0019001329
0.0015416254
-0.0022169484
0.0017317598
-0.0025727564
0.0019425127
-0.0029715444
0.0021764913
-0.0034177589
0.0024377896
-0.0039165843
0.0027315417
-0.0044740268
0.0030631576
-0.0050968493
0.0034380906
-0.0057924119
0.003861765
-0.006568376
0.0043393158
-0.0074322965
0.0048750678
-0.0083910496
0.005471883
-0.0094501002
0.0061303188
-0.010612624
0.0068478407
-0.011878516
0.0076183492
-0.013243141
0.0084309458
-0.014696983
0.0092697506
-0.016225302
0.010117154
-0.017814562
0.01096413
-0.019446551
0.01180942
-0.021088762
0.012615232
-0.0227021
0.013335326
-0.024237531
0.013926716
-0.025633886
0.014333138
-0.026812703
0.014465791
-0.027665199
0.014182098
-0.028040801
0.013251542
-0.027734787
0.011334913
-0.026470024
0.0079465879
-0.023868763
0.0022880248
-0.019310177
-0.007204009
-0.011585728
-0.023518393
0.0011750629
-0.049770203
0.019232331
-0.082140663
0.039907817
-0.10752256
0.061143498
-0.12288996
0.081005946
-0.12670372
-0.12321868
0.098930037
-1.0052095e-07
8.8740907e-07
-4.4724633e-07
3.0521568e-06
-1.1221839e-06
5.9253799e-06
-2.228648e-06
9.6847325e-06
-3.8961845e-06
1.4546225e-05
-6.2865206e-06
2.077117e-05
-9.600689e-06
2.8673868e-05
-1.4087542e-05
3.8629979e-05
-2.0053825e-05
5.1085334e-05
-2.7875999e-05
6.6564799e-05
-3.8013924e-05
8.5680489e-05
-5.102655e-05
0.00010913867
-6.7589377e-05
0.00013774365
-8.8513702e-05
0.00017239755
-0.00011476676
0.00021409319
-0.00014749198
0.00026389832
-0.00018802753
0.00032292805
-0.00023792102
0.0003923037
-0.00029893676
0.00047309704
-0.00037305224
0.00056626227
-0.00046243915
0.00067256187
-0.00056942537
0.00079250097
-0.00069643727
0.00092629363
-0.00084592568
0.0010738944
-0.0010202877
0.0012351347
-0.0012218087
0.0014099987
-0.0014526555
0.0015990416
-0.00171495
0.0018039199
-0.0020110068
0.0020278167
-0.0023436453
0.0022751512
-0.0027170141
0.00254986
-0.0031349596
0.0028557351
-0.003601839
0.0031984211
-0.004122773
0.0035840916
-0.0047035153
0.0040188329
-0.0053501738
0.0045084236
-0.0060688294
0.0050579713
-0.0068650608
0.0056712992
-0.0077432907
0.0063501129
-0.008706001
0.0070930292
-0.0097528639
0.0078947036
-0.010879795
0.00874528
-0.012078186
0.0096293369
-0.013334103
0.010525667
-0.014629768
0.011412819
-0.015949013
0.012283375
-0.017262225
0.013122631
-0.018535521
0.013888528
-0.019729649
0.014529454
-0.020791251
0.014988318
-0.021650161
0.015192049
-0.022218976
0.015034606
-0.022377661
0.014340782
-0.021960397
0.012834278
-0.020740061
0.010114576
-0.018419208
0.0056257349
-0.014618256
-0.0015129263
-0.0086908538
-0.013131412
0.00067591224
-0.032885159
0.01488354
-0.06397783
0.033449088
-0.10070621
0.053116473
-0.12718994
0.072092331
-0.14186582
0.088953492
-0.14356488
-0.13827806
0.10401287
-7.3690983e-08
9.6110005e-07
-3.2859489e-07
3.3070607e-06
-8.2609292e-07
6.4228779e-06
-1.6439989e-06
1.0502638e-05
-2.880569e-06
1.5782795e-05
-4.659407e-06
2.2550008e-05
-7.1354707e-06
3.1149932e-05
-1.050241e-05
4.1996919e-05
-1.5001412e-05
5.5584336e-05
-2.0931912e-05
7.2495299e-05
-2.8664354e-05
9.3412931e-05
-3.8655259e-05
0.00011912958
-5.1464868e-05
0.00015055326
-6.7777199e-05
0.00018870988
-8.8422559e-05
0.00023473855
-0.00011440157
0.00028987733
-0.00014690966
0.00035543615
-0.00018735994
0.00043275398
-0.00023740089
0.000523138
-0.00029892458
0.00062778596
-0.00037405965
0.00074769694
-0.00046514289
0.0008835842
-0.00057466408
0.0010358148
-0.00070518279
0.0012044131
-0.00085922391
0.0013891758
-0.0010391705
0.0015899453
-0.0012471885
0.0018070596
-0.001485203
0.0020419343
-0.0017550121
0.0022976258
-0.0020587826
0.0025789217
-0.0024000971
0.0028911746
-0.002782676
0.003238314
-0.0032099382
0.0036256834
-0.003685953
0.0040601064
-0.0042152535
0.0045481334
-0.004802542
0.0050957121
-0.0054522336
0.0057076629
-0.0061678803
0.0063869459
-0.0069514753
0.0071337079
-0.0078026799
0.0079442338
-0.0087180351
0.0088100588
-0.0096901099
0.0097173548
-0.010707298
0.010646525
-0.011752822
0.011571191
-0.012808115
0.012468112
-0.013851154
0.013326414
-0.014847648
0.014119126
-0.015759052
0.014799932
-0.016542571
0.015312974
-0.017143061
0.015588808
-0.017482964
0.015531952
-0.017463843
0.015015484
-0.016955596
0.013832536
-0.015775125
0.011653806
-0.013666929
0.0080063801
-0.010303985
0.002262791
-0.0052888551
-0.0065280559
0.0020844641
-0.020504731
0.013225866
-0.044026561
0.02880046
-0.079552424
0.04727341
-0.11917916
0.065118176
-0.14503471
0.081163401
-0.15791104
0.094753655
-0.15715514
-0.1507481
0.10722369
-4.413416e-08
1.0052342e-06
-1.9777259e-07
3.4606991e-06
-4.9938137e-07
6.7244867e-06
-9.9837328e-07
1.100163e-05
-1.7580346e-06
1.6542457e-05
-2.8592206e-06
2.3651194e-05
-4.4050281e-06
3.2695739e-05
-6.5266291e-06
4.411852e-05
-9.3906352e-06
5.8448342e-05
-1.3208252e-05
7.6312915e-05
-1.8246674e-05
9.8451353e-05
-2.4843117e-05
0.00012572602
-3.3421955e-05
0.0001591321
-4.4515181e-05
0.00019980311
-5.8786682e-05
0.00024901005
-7.7059898e-05
0.00030815054
-0.00010034832
0.00037872457
-0.00012988691
0.00046229257
-0.0001671619
0.00056041299
-0.00021393349
0.00067455755
-0.00027224483
0.00080600828
-0.00034440884
0.00095574821
-0.00043296241
0.0011243684
-0.00054058114
0.0013120318
-0.00066995278
0.0015185475
-0.00082362124
0.0017436138
-0.0010038326
0.001987271
-0.0012124338
0.0022505355
-0.0014508727
0.0025360646
-0.0017204429
0.0028484919
-0.0020232305
0.0031939622
-0.0023631412
0.0035782246
-0.002743415
0.0040059572
-0.0031667288
0.0044834201
-0.003636061
0.0050174655
-0.0041546252
0.0056142763
-0.0047251344
0.0062781721
-0.0053491615
0.0070109731
-0.006026427
0.0078109733
-0.006754088
0.0086718948
-0.0075260982
0.009582069
-0.0083325647
0.010523821
-0.0091594631
0.011473424
-0.0099884074
0.012400135
-0.010799604
0.013279308
-0.011565349
0.01409216
-0.012249097
0.014802874
-0.012808838
0.015359672
-0.013195256
0.015699392
-0.013345919
0.015739471
-0.013176383
0.015362415
-0.012580554
0.014419655
-0.011416397
0.012668379
-0.00948021
0.0097176187
-0.0064883129
0.005014483
-0.002084402
-0.0021411199
0.0041441513
-0.012756609
0.013033031
-0.02939361
0.025968131
-0.056961661
0.042532365
-0.096116657
0.060044236
-0.13669103
0.075505368
-0.16049584
0.088152741
-0.17055841
0.098763546
-0.16776594
-0.16125796
0.1092734
-1.3064473e-08
1.0182987e-06
-6.0126862e-08
3.5077615e-06
-1.5533214e-07
6.819692e-06
-3.1785286e-07
1.1164151e-05
-5.7362158e-07
1.6798226e-05
-9.5764352e-07
2.4035216e-05
-1.5171074e-06
3.3255203e-05
-2.3154936e-06
4.4916906e-05
-3.4380796e-06
5.9570928e-05
-4.9991282e-06
7.7873964e-05
-7.1514411e-06
0.00010060367
-1.0098622e-05
0.0001286732
-1.4110996e-05
0.00016314447
-1.9545727e-05
0.00020523784
-2.687187e-05
0.00025633619
-3.6700834e-05
0.00031797951
-4.9822115e-05
0.00039184586
-6.7243644e-05
0.0004797141
-9.0233845e-05
0.00058340319
-0.00012036124
0.00070468494
-0.00015952381
0.00084517085
-0.00020995711
0.0010061815
-0.00027420763
0.0011886189
-0.00035505627
0.0013928805
-0.00045538175
0.001618873
-0.00057796414
0.0018661962
-0.00072525326
0.0021345601
-0.0008991573
0.0024244396
-0.0011009396
0.002737847
-0.0013313503
0.0030789026
-0.0015910732
0.003453685
-0.0018820354
0.0038691868
-0.002207638
0.0043315598
-0.002570383
0.0048461652
-0.0029718076
0.0054188901
-0.0034133794
0.0060558482
-0.003896008
0.0067608007
-0.0044193122
0.0075342773
-0.0049809201
0.0083725813
-0.0055758569
0.0092668316
-0.0061960504
0.010202262
-0.0068298316
0.011157602
-0.0074614075
0.012104999
-0.0080716077
0.013010336
-0.0086375793
0.013845279
-0.0091271263
0.014581707
-0.0095006628
0.01517641
-0.0097127418
0.015571751
-0.0097082431
0.015694893
-0.0094151095
0.015446337
-0.0087408585
0.014688165
-0.0075693556
0.013248152
-0.0057432627
0.010842287
-0.0030379053
0.0070122613
0.00085482911
0.0011217486
0.0062919263
-0.007578217
0.013722273
-0.020186956
0.024199565
-0.039870902
0.038791796
-0.071553892
0.055690342
-0.1130152
0.071186694
-0.15218739
0.083742045
-0.17305119
0.093081921
-0.17989829
0.10146732
-0.17615134
-0.17058986
0.11079922
1.8089521e-08
1.0002092e-06
7.8056938e-08
3.4477941e-06
1.904213e-07
6.7073276e-06
3.6679041e-07
1.0987782e-05
6.194104e-07
1.6545606e-05
9.6035295e-07
2.3694274e-05
1.4001547e-06
3.2815401e-05
1.9456433e-06
4.4371417e-05
2.5966584e-06
5.8919913e-05
3.3411802e-06
7.7129442e-05
4.1483315e-06
9.9796515e-05
4.9584264e-06
0.00012786311
5.6693298e-06
0.00016243357
6.1177994e-06
0.00020478937
6.0550177e-06
0.00025639897
5.1148083e-06
0.00031891972
2.7739149e-06
0.00039418675
-1.695576e-06
0.00048418359
-9.2806433e-06
0.00059098826
-2.1284562e-05
0.00071668886
-3.9379861e-05
0.00086326615
-6.5644638e-05
0.0010324463
-0.0001025658
0.0012255401
-0.00015298713
0.0014433018
-0.0002199808
0.0016858666
-0.00030662932
0.0019528447
-0.00041572598
0.0022436568
-0.0005494489
0.0025581625
-0.00070910682
0.0028975049
-0.0008951075
0.0032649033
-0.0011073334
0.0036659109
-0.0013458123
0.0041076658
-0.0016116645
0.0045974119
-0.001906701
0.0051412017
-0.0022325679
0.005744757
-0.0025895087
0.006412789
-0.002976607
0.0071478989
-0.003391671
0.0079493413
-0.0038305348
0.0088114451
-0.0042864796
0.0097227763
-0.0047497918
0.010665575
-0.0052072734
0.011615084
-0.005641499
0.012539225
-0.0060317517
0.013400588
-0.0063517268
0.014165254
-0.0065656852
0.014795665
-0.0066298302
0.015240555
-0.0064936339
0.015435555
-0.0060951741
0.015296434
-0.0053549517
0.014706115
-0.0041739353
0.013507148
-0.002418272
0.011492489
8.5643604e-05
0.008338371
0.0035819523
0.0035159526
0.0083907781
-0.0036870772
0.014837329
-0.014024768
0.023485337
-0.028834964
0.035605791
-0.051991356
0.051396046
-0.087344147
0.06768089
-0.12930005
0.080462181
-0.16496868
0.089795786
-0.18238479
0.096432039
-0.18653454
0.10337966
-0.18309896
-0.17946113
0.11225093
4.7728875e-08
9.5248029e-07
2.0971002e-07
3.2858129e-06
5.202584e-07
6.3967792e-06
1.0207956e-06
1.0487245e-05
1.760747e-06
1.5805654e-05
2.79827e-06
2.2656751e-05
4.2007634e-06
3.1412908e-05
6.0448394e-06
4.2527341e-05
8.4154997e-06
5.6549253e-05
1.1404051e-05
7.4140891e-05
1.5104104e-05
9.6096462e-05
1.9604927e-05
0.00012336228
2.4980934e-05
0.00015705756
3.1276071e-05
0.00019849423
3.8481486e-05
0.00024919356
4.6504619e-05
0.00031089659
5.5128105e-05
0.00038556326
6.3957033e-05
0.00047535466
7.2354504e-05
0.00058259079
7.9367666e-05
0.0007096757
8.3649919e-05
0.0008589839
8.3391021e-05
0.0010327052
7.6274038e-05
0.001232657
5.9485523e-05
0.0014600903
2.9811549e-05
0.0017155406
-1.6151782e-05
0.001998808
-8.1663463e-05
0.0023091685
-0.00016940238
0.0026459014
-0.00028103375
0.0030091363
-0.00041695707
0.0034008266
-0.00057644181
0.0038253957
-0.0007582597
0.0042894837
-0.00096152243
0.0048006747
-0.0011862399
0.0053659191
-0.0014324672
0.0059909843
-0.0016995074
0.0066798292
-0.0019855019
0.0074338934
-0.0022869187
0.0082507582
-0.0025981789
0.0091227053
-0.0029111817
0.010035779
-0.0032147003
0.010969093
-0.0034937959
0.01189418
-0.0037292948
0.012774724
-0.0038978158
0.013569109
-0.0039692261
0.014236665
-0.0039046366
0.014731076
-0.0036558478
0.014991767
-0.0031662776
0.014945985
-0.0023671267
0.014497283
-0.0011722446
0.013511233
0.00052496613
0.011809937
0.0028756272
0.0091418279
0.0060743938
0.0051396043
0.010385779
-0.00079543224
0.016103327
-0.0094046251
0.023524607
-0.021446048
0.033459461
-0.038769818
0.047117028
-0.065648923
0.063287908
-0.10351503
0.077887086
-0.14389923
0.087612788
-0.17469438
0.093835915
-0.18860792
0.098652138
-0.19135077
0.10493838
-0.1893852
-0.18834019
0.11381744
7.4146498e-08
8.7833379e-07
3.2727197e-07
3.0326875e-06
8.1527563e-07
5.9087756e-06
1.6067853e-06
9.6957351e-06
2.7853288e-06
1.4627111e-05
4.4516708e-06
2.0990409e-05
6.7261622e-06
2.9138416e-05
9.7509814e-06
3.9502522e-05
1.3691944e-05
5.260829e-05
1.8739497e-05
6.9093338e-05
2.5108313e-05
8.9727646e-05
3.3034535e-05
0.00011543606
4.2769691e-05
0.00014732241
5.4569545e-05
0.00018669438
6.8676066e-05
0.00023508704
8.5290113e-05
0.00029428254
0.00010453216
0.00036632122
0.00012638833
0.00045349849
0.00015064008
0.00055833904
0.00017677679
0.00068353899
0.00020389505
0.00083186564
0.00023059349
0.0010060067
0.00025488138
0.0012083692
0.00027413035
0.0014408414
0.00028510924
0.0017045617
0.00028414992
0.0019997673
0.00026748158
0.0023258368
0.00023173387
0.0026816491
0.00017453721
0.0030663329
9.5045292e-05
0.0034803185
-5.8892839e-06
0.0039263302
-0.00012612517
0.0044097196
-0.00026311122
0.0049376607
-0.00041469136
0.0055174993
-0.00057898525
0.0061552782
-0.00075385397
0.0068546979
-0.00093620197
0.0076162415
-0.0011213213
0.0084358775
-0.0013023956
0.0093037795
-0.0014699681
0.010203352
-0.0016113005
0.011110426
-0.0017096835
0.011992563
-0.001744012
0.012809052
-0.0016880753
0.013513173
-0.0015081321
0.014056721
-0.0011613694
0.014384313
-0.00059516476
0.014425562
0.00025368552
0.014097135
0.0014607525
0.013290216
0.0031171302
0.011854855
0.0053418021
0.0095852655
0.008301851
0.006181779
0.012215402
0.0012260535
0.017347555
-0.0059275849
0.023924751
-0.015981821
0.032304162
-0.02982546
0.043595872
-0.050061528
0.058370291
-0.080423342
0.07385012
-0.11899486
0.085779332
-0.15582844
0.092418612
-0.18133366
0.096282863
-0.19247217
0.10018082
-0.19524872
0.10640458
-0.19560896
-0.19742724
0.11549163
9.5668442e-08
7.8266535e-07
4.233015e-07
2.7050544e-06
1.0568235e-06
5.2752535e-06
2.0877406e-06
8.664818e-06
3.6285136e-06
1.3086338e-05
5.8163456e-06
1.8802577e-05
8.8173734e-06
2.6137389e-05
1.2831076e-05
3.548882e-05
1.8094813e-05
4.7344553e-05
2.488804e-05
6.2300111e-05
3.3535764e-05
8.1079922e-05
4.4410423e-05
0.0001045614
5.7931067e-05
0.00013380176
7.4558236e-05
0.00017006721
9.4782426e-05
0.00021486285
0.00011910334
0.00026996162
0.00014799663
0.00033742793
0.00018186398
0.00041963114
0.00022096291
0.00051924011
0.00026531303
0.00063918887
0.00031457838
0.00078260029
0.0003679309
0.00095265421
0.00042390892
0.0011523911
0.00048029803
0.0013844522
0.00053407946
0.0016507803
0.00058150499
0.0019523418
0.00061836508
0.0022889767
0.00064049415
0.0026595201
0.00064449063
0.0030623364
0.00062851011
0.0034962991
0.00059283936
0.003962001
0.00053990913
0.0044626498
0.00047360257
0.0050039673
0.00039824073
0.0055928611
0.000317989
0.0062355299
0.00023695364
0.0069357333
0.00015982426
0.0076933708
9.2633388e-05
0.0085030684
4.3416159e-05
0.0093529967
2.2964636e-05
0.010223803
4.5544745e-05
0.011087845
0.00012960461
0.011908503
0.00029835549
0.012640301
0.0005809513
0.013230577
0.0010146046
0.013623068
0.0016460712
0.013752847
0.0025327436
0.01353889
0.0037451226
0.012884756
0.0053645915
0.011670747
0.0074904159
0.0097290305
0.010258187
0.0068174943
0.013846335
0.0025936315
0.018486012
-0.0034136238
0.024396332
-0.011837905
0.031747924
-0.023333414
0.041122325
-0.039199861
0.053710316
-0.062649518
0.068810302
-0.095523329
0.082479023
-0.13266358
0.091180894
-0.16453031
0.095149917
-0.18530268
0.097674515
-0.19499677
0.10140164
-0.19897585
0.10788005
-0.20208737
-0.20670772
0.11716053
1.1087058e-07
6.7179477e-07
4.9143072e-07
2.3244943e-06
1.2288556e-06
4.5378286e-06
2.4316658e-06
7.4620079e-06
4.2340964e-06
1.1283907e-05
6.8011872e-06
1.6235486e-05
1.0334519e-05
2.2604057e-05
1.5078701e-05
3.0744638e-05
2.1328389e-05
4.1094865e-05
2.9435708e-05
5.4192793e-05
3.9817636e-05
7.0697994e-05
5.296281e-05
9.1416227e-05
6.943657e-05
0.000117328
8.9883103e-05
0.00014962068
0.00011502226
0.0001897237
0.0001456384
0.00023934548
0.00018255727
0.00030050906
0.00022660635
0.00037558205
0.00027855257
0.0004672939
0.00033901205
0.00057872938
0.00040832696
0.00071328538
0.00048640833
0.00087457284
0.00057255221
0.0010662473
0.00066524925
0.0012917552
0.00076202863
0.0015540009
0.0008594023
0.0018549682
0.0009529964
0.0021953826
0.0010379596
0.0025745568
0.0011096957
0.0029906003
0.0011648545
0.0034411402
0.0012023341
0.0039245214
0.0012238722
0.0044411118
0.0012338423
0.0049939971
0.0012383075
0.005588396
0.0012439621
0.0062298753
0.0012574275
0.0069222679
0.00128569
0.0076651083
0.0013365224
0.008452236
0.001419367
0.0092701521
0.0015464789
0.010096691
0.0017337251
0.010900599
0.0020013575
0.01164087
0.0023748721
0.012266787
0.0028863278
0.012719121
0.003576498
0.012932898
0.0044963052
0.012833039
0.0057075619
0.012327633
0.0072860358
0.011306282
0.0093225303
0.0096342524
0.011930319
0.0071212421
0.015254322
0.0034934913
0.019480165
-0.0016322122
0.02481364
-0.0087470982
0.031392941
-0.018417206
0.039447108
-0.031387581
0.049885374
-0.049638127
0.063442511
-0.076206655
0.077818506
-0.10989932
0.088705746
-0.14355082
0.094351076
-0.17017564
0.096516738
-0.18746835
0.098471816
-0.19695185
0.10250295
-0.20300698
0.10931248
-0.20889689
-0.21607354
0.11867829
1.1879755e-07
5.5299721e-07
5.273487e-07
1.9159431e-06
1.3204203e-06
3.744757e-06
2.6165182e-06
6.16591e-06
4.5630131e-06
9.337412e-06
7.3421561e-06
1.3456343e-05
1.1178129e-05
1.8768083e-05
1.6345145e-05
2.5577622e-05
2.3176637e-05
3.4263373e-05
3.2075504e-05
4.5293926e-05
4.3525155e-05
5.9248343e-05
5.8100994e-05
7.6840388e-05
7.648165e-05
9.8947348e-05
9.9458664e-05
0.00012664366
0.00012794305
0.00016123931
0.00016296583
0.0002043227
0.00020566898
0.00025780591
0.00025728131
0.00032396972
0.00031907311
0.0004055021
0.00039228076
0.00050552173
0.00047799348
0.00062757267
0.00057699407
0.00077557225
0.00068955201
0.00095368931
0.00081517725
0.00116613
0.00095236381
0.0014168143
0.0010983815
0.0017089505
0.0012492101
0.002044554
0.0013997408
0.0024240261
0.0015443636
0.0028459775
0.0016779864
0.0033075175
0.001797354
0.0038051537
0.0019022825
0.0043361832
0.001996251
0.0049000287
0.0020859707
0.0054986762
0.0021804224
0.0061354236
0.0022883646
0.0068143257
0.0024210252
0.0075324478
0.002588509
0.0082847522
0.0028021414
0.0090565197
0.0030758269
0.009823006
0.0034272134
0.010549213
0.0038785757
0.011189508
0.0044578552
0.011687507
0.0052000965
0.01197688
0.0061497186
0.011983276
0.0073616436
0.011621114
0.0089022327
0.010787044
0.010852696
0.0093558181
0.013313817
0.0071731318
0.016408107
0.0040269517
0.020287173
-0.00038557451
0.025121472
-0.0064665114
0.031036192
-0.014661818
0.038131384
-0.025512398
0.046901445
-0.040157642
0.058442718
-0.061179401
0.072299367
-0.090063304
0.084744373
-0.12234433
0.09232765
-0.15113409
0.095552122
-0.17340011
0.096879173
-0.1887954
0.099048817
-0.19912149
0.10354085
-0.20749902
0.1105903
-0.21594634
-0.22541716
0.11993392
1.1917898e-07
4.3381824e-07
5.2975722e-07
1.5053649e-06
1.3280533e-06
2.9464609e-06
2.6350046e-06
4.8589587e-06
4.6016912e-06
7.3707254e-06
7.4159486e-06
1.0642086e-05
1.1310202e-05
1.487383e-05
1.6570698e-05
2.0317126e-05
2.3548287e-05
2.7285783e-05
3.2670797e-05
3.6171416e-05
4.4457082e-05
4.7462058e-05
5.9532544e-05
6.1764925e-05
7.8645844e-05
7.9834048e-05
0.00010268599
0.00010260352
0.00013269851
0.00013122679
0.00016989874
0.00016712247
0.00021567874
0.00021202591
0.00027160335
0.00026804511
0.00033938822
0.00033771723
0.00042085117
0.00042405878
0.00051782514
0.0005305987
0.0006320203