/*--------------------------------*- C++ -*----------------------------------*\
  =========                 |
  \\      /  F ield         | OpenFOAM: The Open Source CFD Toolbox
   \\    /   O peration     | Website:  https://openfoam.org
    \\  /    A nd           | Version:  13
     \\/     M anipulation  |
\*---------------------------------------------------------------------------*/
FoamFile
{
    format      ascii;
    class       volSymmTensorField;
    location    "14.002891";
    object      UPrime2Mean;
}
// * * * * * * * * * * * * * * * * * * * * * * * * * * * * * * * * * * * * * //

dimensions      [0 2 -2 0 0 0 0];

internalField   nonuniform List<symmTensor> 
17140
(
(2.2444412e-12 -1.255378e-10 -2.9698162e-27 7.526308e-09 5.1766513e-26 1.5294238e-40)
(2.0684122e-10 -2.9271137e-09 -1.6592771e-27 7.1278965e-08 1.1862231e-26 1.3589122e-42)
(1.7662934e-09 -1.3781981e-08 2.8864898e-25 2.155671e-07 -1.2713947e-24 5.9241021e-39)
(8.1306495e-09 -4.1583957e-08 -6.4126265e-25 4.6250207e-07 1.9761354e-24 7.1596057e-39)
(2.6865229e-08 -9.9229648e-08 1.3169966e-25 8.3860162e-07 -3.0521519e-25 9.7847556e-41)
(7.3022893e-08 -2.0570932e-07 -6.958174e-25 1.3752082e-06 1.2670736e-24 1.0480757e-39)
(1.7443148e-07 -3.8803897e-07 -1.7894637e-24 2.1087555e-06 2.6293619e-24 2.9706618e-39)
(3.7990677e-07 -6.8365767e-07 1.2829555e-24 3.0808059e-06 -1.5483615e-24 7.0804717e-40)
(7.7179712e-07 -1.1433177e-06 5.9877446e-24 4.3376807e-06 -6.0118772e-24 7.5858342e-39)
(1.4846717e-06 -1.8343446e-06 2.0464081e-23 5.9295266e-06 -1.7256627e-23 4.563735e-38)
(2.7325054e-06 -2.8440791e-06 -4.1510469e-23 7.9085989e-06 2.9613195e-23 1.0035237e-37)
(4.8473097e-06 -4.2831832e-06 4.9849183e-23 1.0326537e-05 -3.0253446e-23 7.9701816e-38)
(8.3327125e-06 -6.2882958e-06 1.0153195e-23 1.3230414e-05 -5.2653394e-24 1.8672412e-39)
(1.3936239e-05 -9.0232758e-06 -7.5580613e-23 1.6657425e-05 3.3605027e-23 5.9727686e-38)
(2.2743952e-05 -1.2678078e-05 1.0943298e-23 2.0628222e-05 -4.1825253e-24 7.3627703e-40)
(3.6300317e-05 -1.7464155e-05 -1.1209598e-22 2.5139139e-05 3.6895708e-23 4.6197863e-38)
(5.6754364e-05 -2.3605372e-05 5.3519973e-24 3.0153972e-05 -1.518705e-24 6.3983659e-41)
(8.7030759e-05 -3.1323971e-05 -1.5290066e-24 3.5596497e-05 3.747755e-25 3.20356e-42)
(0.00013102099 -4.0822161e-05 -1.3698399e-22 4.1345459e-05 2.8959164e-23 1.6113559e-38)
(0.0001937889 -5.2261709e-05 2.228535e-22 4.7234161e-05 -4.066319e-23 2.7017031e-38)
(0.00028178667 -6.5746349e-05 -1.3360571e-22 5.3057002e-05 2.1035216e-23 6.2388777e-39)
(0.00040308603 -8.1313854e-05 3.1452958e-23 5.8584684e-05 -4.2694222e-24 2.2581762e-40)
(0.00056765001 -9.8945325e-05 2.83526e-22 6.3588253e-05 -3.3165513e-23 1.2154812e-38)
(0.00078772424 -0.0001185983 -3.4247544e-22 6.7869647e-05 3.4498456e-23 1.1955164e-38)
(0.0010785488 -0.00014026977 -6.5410088e-22 7.1293165e-05 5.6697598e-23 2.9929062e-38)
(0.0014589357 -0.00016405469 6.2455198e-22 7.3811022e-05 -4.6563724e-23 1.9078478e-38)
(0.0019518822 -0.00019007983 3.6119737e-21 7.5474e-05 -2.3163957e-22 4.5429335e-37)
(0.0025892493 -0.00021875644 4.9681127e-22 7.6398473e-05 -2.7409368e-23 6.2287318e-39)
(0.0034110924 -0.00025059989 -5.0471292e-21 7.6718432e-05 2.3938993e-22 4.7501946e-37)
(0.004466171 -0.0002858325 -1.3573966e-21 7.6573513e-05 5.5324403e-23 2.5760482e-38)
(0.0058202359 -0.00032485839 -5.5352251e-21 7.6062609e-05 1.9346191e-22 3.2634955e-37)
(0.0075550181 -0.00036800385 8.279658e-21 7.5247856e-05 -2.4741109e-22 5.6404929e-37)
(0.0097722176 -0.0004152359 -2.4404623e-21 7.4159762e-05 6.2102546e-23 3.8291845e-38)
(0.012597119 -0.00046631927 -1.3124096e-21 7.2796334e-05 2.8266344e-23 8.7623668e-39)
(0.016181569 -0.00052065627 -1.446914e-20 7.1131179e-05 2.6192226e-22 8.5034765e-37)
(0.020706632 -0.00057721709 7.086411e-21 6.9122355e-05 -1.0674994e-22 1.6474964e-37)
(0.026383822 -0.00063442837 -1.1871148e-20 6.6719443e-05 1.4711799e-22 3.7669144e-37)
(0.033454088 -0.00069001162 -8.8865778e-21 6.3872641e-05 8.9129861e-23 1.7376947e-37)
(0.042183225 -0.00074095482 -4.4777758e-21 6.0553231e-05 3.5546567e-23 3.6672362e-38)
(0.052851586 -0.0007831997 1.4840849e-20 5.6767312e-05 -9.0129968e-23 3.3864937e-37)
(0.065737303 -0.00081197803 3.0455192e-20 5.2600796e-05 -1.3438082e-22 1.2102412e-36)
(0.081092762 -0.00082165369 2.9849364e-20 4.8248165e-05 -8.7054024e-23 9.975732e-37)
(0.099115671 -0.00080701132 1.3976349e-20 4.4068315e-05 -2.172556e-23 1.8987344e-37)
(0.11992562 -0.00076411149 -7.2465375e-20 4.0584264e-05 2.2413989e-23 4.4794744e-36)
(0.14356474 -0.00069238086 -5.598952e-20 3.8461357e-05 -4.8002834e-23 2.3794864e-36)
(0.17000033 -0.00059784122 1.4414779e-20 3.8354391e-05 2.8202337e-23 1.4241825e-37)
(0.19920181 -0.00049005778 -1.017816e-19 4.0711579e-05 -3.0507392e-22 6.5079948e-36)
(0.23118694 -0.00037433457 -3.5577805e-20 4.5515805e-05 -1.418487e-22 7.407714e-37)
(0.26578676 -0.00024984942 3.6951182e-20 5.2090006e-05 1.8259483e-22 7.5762564e-37)
(0.30293866 -0.00010895169 9.131741e-20 5.9415599e-05 5.3522669e-22 4.4672875e-36)
(0.34195406 6.316214e-05 -5.6194881e-20 6.6412929e-05 -3.7918568e-22 1.6655539e-36)
(0.38142512 0.00029168377 -3.507912e-20 7.3522638e-05 -2.6707829e-22 6.5224804e-37)
(0.41894507 0.00061490036 8.9408055e-20 8.1111178e-05 7.648665e-22 4.3570472e-36)
(0.45159408 0.0010688554 4.0785013e-20 8.7108659e-05 3.9181419e-22 9.5606526e-37)
(0.47558076 0.0016532281 2.7641957e-20 9.0581477e-05 2.9881106e-22 4.7727249e-37)
(0.48701313 0.0023399728 -2.0355653e-20 9.4422572e-05 -2.4816885e-22 2.8977808e-37)
(0.48223451 0.0030943797 5.027311e-20 9.9746162e-05 6.9420849e-22 2.0761172e-36)
(0.45721519 0.0038602133 3.7666272e-20 0.00010600615 5.9350069e-22 1.4275375e-36)
(0.40981438 0.004501762 8.2188878e-21 0.00011168276 1.486948e-22 8.8431955e-38)
(0.34204082 0.0048419297 -1.7994991e-20 0.00011507552 -3.7399066e-22 5.8124824e-37)
(0.26286335 0.0047336977 -1.1535542e-20 0.0001127149 -2.7508682e-22 3.5316283e-37)
(0.18634176 0.004109064 -3.4084607e-20 0.00010439069 -9.1770551e-22 4.8058015e-36)
(0.12217089 0.0031499597 -3.9016801e-21 8.7213928e-05 -1.1676575e-22 1.0298805e-37)
(0.077924472 0.0021900852 2.533687e-20 6.5110739e-05 8.2297573e-22 7.2734919e-36)
(0.047265923 0.0014346605 -1.4656308e-20 4.6991473e-05 -5.4608626e-22 4.3469661e-36)
(1.3118634e-10 -3.0764697e-09 4.3511783e-27 7.2175135e-08 -8.9291795e-26 1.2385802e-41)
(2.0399912e-09 -3.7225518e-08 -1.5590938e-24 6.823365e-07 2.508661e-23 1.6305855e-37)
(9.0315792e-09 -1.356765e-07 2.7603215e-24 2.0590573e-06 -3.6259869e-23 1.2912473e-37)
(2.7815393e-08 -3.4702749e-07 -1.2813337e-24 4.4011307e-06 1.395504e-23 9.5965476e-39)
(7.0489779e-08 -7.396186e-07 -4.1491159e-24 7.9363795e-06 3.8062798e-23 4.0952492e-38)
(1.5848191e-07 -1.4110049e-06 1.1804849e-23 1.2920549e-05 -9.2288038e-23 1.4952352e-37)
(3.2826102e-07 -2.4965896e-06 -1.7685956e-23 1.9633953e-05 1.1874611e-22 1.6247638e-37)
(6.4000217e-07 -4.18013e-06 2.1795022e-24 2.8375047e-05 -1.2636812e-23 1.2584661e-39)
(1.1905641e-06 -6.7061663e-06 -9.3380695e-24 3.9449589e-05 4.6948252e-23 1.2265931e-38)
(2.132482e-06 -1.0393693e-05 -2.1333897e-25 5.3154472e-05 9.3314293e-25 3.5041599e-42)
(3.7012015e-06 -1.5650148e-05 -5.6129774e-23 6.9755214e-05 2.1410317e-22 1.3670535e-37)
(6.2533352e-06 -2.2984227e-05 1.1760049e-22 8.9456534e-05 -3.9202328e-22 3.4507914e-37)
(1.0319206e-05 -3.3015224e-05 1.2689009e-23 0.00011236631 -3.7025404e-23 2.3531202e-39)
(1.6673248e-05 -4.6475747e-05 -1.6227373e-22 0.00013845448 4.149707e-22 2.2905993e-37)
(2.6425673e-05 -6.420392e-05 6.4097233e-23 0.00016751058 -1.4377333e-22 2.1577323e-38)
(4.1138266e-05 -8.7121215e-05 5.1992807e-23 0.00019910625 -1.0234971e-22 8.6826062e-39)
(6.2965413e-05 -0.00011619285 -4.1853843e-22 0.00023257195 7.2324054e-22 3.4825576e-37)
(9.4819585e-05 -0.00015237096 1.7189164e-21 0.00026699964 -2.6072609e-21 3.6791809e-36)
(0.0001405575 -0.0001965259 -1.3478788e-21 0.00030128426 1.7940515e-21 1.4336135e-36)
(0.00020518239 -0.0002493798 2.0087025e-21 0.00033421353 -2.3449689e-21 2.0420218e-36)
(0.00029506018 -0.00031146618 -3.6647134e-21 0.00036460781 3.7498734e-21 4.4154305e-36)
(0.00041815614 -0.00038314732 1.1012144e-21 0.00039149764 -9.8694379e-22 2.6257146e-37)
(0.00058431499 -0.00046471893 5.5169927e-22 0.00041430729 -4.3277316e-22 4.4050343e-38)
(0.00080566021 -0.00055662417 -2.1749135e-21 0.00043299586 1.492417e-21 4.6468571e-37)
(0.0010973061 -0.00065978259 9.3514277e-21 0.00044810551 -5.611314e-21 5.9322757e-36)
(0.0014780018 -0.00077583337 1.6542363e-21 0.00046068816 -8.679995e-22 1.3034795e-37)
(0.0019705677 -0.0009070702 -1.0074018e-20 0.0004720662 4.6244589e-21 3.4604896e-36)
(0.0026065986 -0.0010569091 1.3170754e-20 0.00048330188 -5.2934119e-21 4.3067683e-36)
(0.0034260083 -0.0012293305 -2.0950868e-21 0.00049521573 7.378112e-22 8.0842958e-38)
(0.0044770746 -0.0014283499 -2.3591333e-20 0.00050873477 7.2838407e-21 7.7005587e-36)
(0.0058248439 -0.0016584859 2.7952364e-21 0.00052413606 -7.5678062e-22 8.26249e-38)
(0.0075501872 -0.0019240329 2.4353431e-20 0.00054134895 -5.7808331e-21 4.8480186e-36)
(0.0097535272 -0.0022287857 6.9599435e-22 0.00056015366 -1.4480946e-22 3.0783843e-39)
(0.012558487 -0.002576051 -2.3143339e-20 0.00058018167 4.2129288e-21 2.7156959e-36)
(0.016114739 -0.0029682246 2.8966581e-20 0.00060093079 -4.6092259e-21 3.4051158e-36)
(0.02060047 -0.0034063181 -1.457094e-20 0.00062176847 2.0238401e-21 6.9626636e-37)
(0.026223531 -0.0038892839 1.9060492e-20 0.00064193081 -2.30668e-21 9.7360885e-37)
(0.033220087 -0.004413047 6.710219e-20 0.00066053323 -7.0638476e-21 9.9420183e-36)
(0.041849744 -0.0049694554 1.6555285e-20 0.00067668146 -1.5123722e-21 5.0345867e-37)
(0.052384773 -0.0055450667 7.0849387e-20 0.0006896672 -5.5952439e-21 7.757493e-36)
(0.065092913 -0.0061204587 -9.8747336e-20 0.00069939061 6.7058329e-21 1.2812376e-35)
(0.080213471 -0.0066705935 -9.8306171e-20 0.0007070104 5.6984816e-21 1.0901298e-35)
(0.097927147 -0.0071676578 -1.8089017e-20 0.00071580575 8.8609597e-22 3.1997139e-37)
(0.11833284 -0.0075872033 1.539754e-19 0.00073176567 -6.2477711e-21 2.0451596e-35)
(0.14144307 -0.0079158009 -7.709096e-20 0.00076315641 2.5373525e-21 4.5626457e-36)
(0.16719418 -0.0081592246 -2.8032045e-20 0.00081861477 7.2185465e-22 5.4509106e-37)
(0.19549563 -0.0083412664 1.5585414e-20 0.00090348786 -2.9463227e-22 1.5528186e-37)
(0.22629196 -0.0084826425 5.0087955e-20 0.0010121529 -6.2935463e-22 1.4956421e-36)
(0.25953583 -0.0085861098 -2.4977291e-20 0.0011217877 1.6473217e-22 3.5368483e-37)
(0.29497428 -0.0085870356 4.5701231e-20 0.0012067053 -4.2743598e-23 1.1467292e-36)
(0.33184528 -0.0083374598 2.7476842e-19 0.0012484789 1.2348421e-21 4.0972937e-35)
(0.36862126 -0.007661841 1.2957817e-20 0.0012439731 1.283832e-22 9.2139418e-38)
(0.40292763 -0.0064216753 -5.7002797e-20 0.0012070323 -8.6935428e-22 1.8417645e-36)
(0.43173157 -0.0045301913 1.2211873e-19 0.0011508932 2.5640029e-21 8.9749853e-36)
(0.45161211 -0.0019765829 -9.8878025e-20 0.0010913819 -2.6968345e-21 6.4396237e-36)
(0.45896315 0.0011814456 2.613641e-19 0.001045886 8.95378e-21 5.1016388e-35)
(0.45006027 0.004884155 6.8064526e-20 0.0010199823 2.8804239e-21 4.0861102e-36)
(0.4215698 0.0089129526 -1.7041314e-19 0.0010215618 -8.8354595e-21 3.1919308e-35)
(0.37185759 0.012652925 2.5107403e-20 0.0010708653 1.5802744e-21 9.0825602e-37)
(0.30357501 0.015086384 2.3891918e-20 0.0011683959 1.807941e-21 1.169991e-36)
(0.22614281 0.015203685 3.8652463e-21 0.0012465096 3.4408622e-22 4.6723844e-38)
(0.15378796 0.013073011 -4.0398374e-20 0.0012149065 -4.1133424e-21 8.2090285e-36)
(0.095387106 0.0095367216 6.0003817e-20 0.0010024296 6.8017743e-21 3.1114782e-35)
(0.056463071 0.0062366893 1.3460744e-20 0.00071970271 1.6663737e-21 2.788446e-36)
(0.030927051 0.0037100796 1.6045472e-20 0.00047028152 2.273275e-21 7.7018523e-36)
(1.0580047e-09 -1.5118e-08 6.5902208e-25 2.1603255e-07 -8.9862507e-24 3.7646437e-38)
(1.1971942e-08 -1.5636955e-07 -1.1114688e-24 2.0429319e-06 1.3835457e-23 1.4895787e-38)
(4.2352594e-08 -5.1084803e-07 -5.2380216e-25 6.1660661e-06 5.9733836e-24 1.0536095e-39)
(1.0700929e-07 -1.1868107e-06 7.6666789e-25 1.318037e-05 -7.9929832e-24 9.4729437e-40)
(2.2884522e-07 -2.3295451e-06 -5.3655701e-24 2.3765148e-05 5.113582e-23 2.2246023e-38)
(4.4381029e-07 -4.1367732e-06 -5.54218e-25 3.8679803e-05 4.8258867e-24 1.2298927e-40)
(8.0735986e-07 -6.8727566e-06 -9.5827108e-24 5.8752871e-05 7.6129951e-23 2.0082919e-38)
(1.4038524e-06 -1.0885164e-05 -1.3715487e-23 8.4861686e-05 9.9230417e-23 2.3314445e-38)
(2.3601489e-06 -1.6624729e-05 1.4686171e-22 0.00011789903 -9.6565408e-22 1.5574453e-36)
(3.8648866e-06 -2.4666531e-05 -1.6998662e-22 0.00015872406 1.013688e-21 1.2415829e-36)
(6.1953869e-06 -3.573138e-05 1.045796e-22 0.00020809467 -5.6444626e-22 2.8432219e-37)
(9.7546264e-06 -5.0704861e-05 1.9567442e-22 0.00026658003 -9.5394743e-22 6.1031725e-37)
(1.5121117e-05 -7.0650416e-05 -4.9270862e-22 0.00033445432 2.1654023e-21 2.399262e-36)
(2.311483e-05 -9.681159e-05 -7.7070334e-23 0.00041157706 3.0475345e-22 3.6740085e-38)
(3.4882256e-05 -0.00013059747 3.7435847e-22 0.00049727114 -1.3292726e-21 5.4720818e-37)
(5.2003279e-05 -0.0001735455 3.2242608e-22 0.0005902182 -1.0260561e-21 2.5819299e-37)
(7.6621552e-05 -0.00022725771 -4.6650246e-22 0.00068839882 1.3278366e-21 3.4638789e-37)
(0.00011159842 -0.00029331092 2.0980289e-21 0.00078911331 -5.3305563e-21 4.5240628e-36)
(0.00016068899 -0.00037315121 -1.533577e-21 0.00088911969 3.4708973e-21 1.5735644e-36)
(0.00022873835 -0.0004679956 9.332425e-22 0.0009849169 -1.8776072e-21 3.8261828e-37)
(0.00032189859 -0.0005787807 -3.851067e-21 0.0010731756 6.8733818e-21 4.3211928e-36)
(0.00044787584 -0.00070621008 -1.2182931e-21 0.0011512738 1.9251176e-21 2.8997578e-37)
(0.00061622888 -0.00085094871 3.0702455e-21 0.0012178395 -4.2874292e-21 1.2505902e-36)
(0.00083878108 -0.0010139963 -5.5410956e-21 0.0012731524 6.8271282e-21 2.8040916e-36)
(0.0011303237 -0.0011972477 -2.5966803e-21 0.001319247 2.8191579e-21 4.3019899e-37)
(0.0015094009 -0.0014039639 3.6822133e-21 0.0013596367 -3.5196508e-21 6.1481934e-37)
(0.0019984035 -0.0016385907 2.4501035e-20 0.0013985668 -2.0611071e-20 1.9644284e-35)
(0.0026281997 -0.0019075086 1.2891845e-20 0.0014394593 -9.5449978e-21 3.9911451e-36)
(0.0034382923 -0.0022181597 -7.4267923e-21 0.0014848093 4.8404414e-21 9.8908333e-37)
(0.0044758252 -0.0025782518 9.1278e-21 0.0015372509 -5.2368922e-21 1.1289995e-36)
(0.00580402 -0.0029962518 -6.5109323e-21 0.0015976176 3.2877205e-21 4.4196989e-37)
(0.0075017166 -0.0034803708 -4.1901289e-20 0.0016656894 1.8614402e-20 1.4208457e-35)
(0.0096662631 -0.0040380951 1.5866787e-20 0.0017407504 -6.1971055e-21 1.6025054e-36)
(0.012417311 -0.0046761395 5.3360492e-20 0.0018215996 -1.8308103e-20 1.4401959e-35)
(0.015899285 -0.0053997512 -1.996778e-20 0.0019066097 6.0117684e-21 1.6217342e-36)
(0.020283473 -0.0062118179 -3.1257571e-20 0.00199368 8.2510469e-21 3.219739e-36)
(0.025768771 -0.0071115639 6.0279831e-20 0.0020801638 -1.3934105e-20 9.8042314e-36)
(0.032579712 -0.0080928291 2.0391692e-20 0.0021629234 -4.1224693e-21 9.2686517e-37)
(0.040960735 -0.0091419267 -3.9993025e-20 0.0022385612 7.0555296e-21 2.9794953e-36)
(0.051164525 -0.010235519 -1.7595393e-20 0.0023041264 2.701375e-21 4.865056e-37)
(0.063433572 -0.011338858 9.2312925e-20 0.0023582889 -1.2282659e-20 1.1401011e-35)
(0.077974592 -0.012406506 -2.8339858e-20 0.0024036353 3.2415428e-21 9.2814105e-37)
(0.094927329 -0.013386987 -4.4246591e-20 0.0024494996 4.3204136e-21 1.9678413e-36)
(0.11434013 -0.014234027 -1.2645388e-19 0.0025142379 1.0392452e-20 1.4164916e-35)
(0.1361632 -0.014921489 2.5524694e-19 0.0026241962 -1.7285698e-20 5.1646221e-35)
(0.16026914 -0.015459242 -1.7393016e-19 0.0028075812 9.4307584e-21 2.176738e-35)
(0.18652237 -0.015898332 -4.5790776e-20 0.0030798246 1.9105351e-21 1.3893482e-36)
(0.21483311 -0.016289686 -1.8704392e-19 0.0034185769 5.5484593e-21 2.1812169e-35)
(0.24509472 -0.016620238 -2.2920652e-19 0.0037518094 4.2359592e-21 3.1337695e-35)
(0.27697512 -0.016756979 -1.1787117e-20 0.00399161 9.9264183e-23 8.0503582e-38)
(0.3096455 -0.016437613 4.9829181e-20 0.0040744109 1.0703032e-22 1.4370604e-36)
(0.34152242 -0.015353099 -3.6151444e-19 0.003994225 -4.5328074e-21 7.7227119e-35)
(0.37026291 -0.013267824 -1.5011982e-19 0.0037995339 -3.4218612e-21 1.3906961e-35)
(0.39301517 -0.010073957 -1.4805494e-19 0.0035519013 -4.984418e-21 1.4521411e-35)
(0.4067345 -0.0057812379 -4.5912566e-20 0.0033044271 -2.0986645e-21 1.5476978e-36)
(0.40827469 -0.00046458709 -3.2849737e-19 0.0030951408 -1.9408832e-20 9.1262229e-35)
(0.39458401 0.0057453716 1.1823864e-19 0.0029452875 8.8444305e-21 1.420222e-35)
(0.3631199 0.012456996 -3.160738e-20 0.0028945652 -2.9626927e-21 1.2981696e-36)
(0.31288834 0.01865287 -2.2213004e-19 0.0030113184 -2.5762699e-20 8.6419012e-35)
(0.24707785 0.022552721 -7.2749597e-20 0.0033124381 -1.0332396e-20 1.3544035e-35)
(0.17537512 0.02240344 6.8451068e-20 0.0035624217 1.1661456e-20 1.911054e-35)
(0.11178876 0.018605833 1.7980613e-19 0.0034487556 3.5768263e-20 2.2560309e-34)
(0.063701611 0.012905957 -4.2302211e-20 0.0028026614 -9.5920235e-21 2.3011124e-35)
(0.033483832 0.0078496834 -4.8841386e-20 0.0019656594 -1.2484498e-20 5.9792376e-35)
(0.015665712 0.0041800904 -1.4150997e-20 0.0012166104 -4.2866835e-21 1.0969822e-35)
(4.0675516e-09 -4.1369254e-08 -4.3575924e-24 4.2075259e-07 4.3296143e-23 4.2220478e-37)
(4.1835701e-08 -4.0810728e-07 1.5068008e-23 3.9812511e-06 -1.4333707e-22 7.7436676e-37)
(1.366278e-07 -1.2815975e-06 -9.2346179e-24 1.2022996e-05 8.4019459e-23 1.0124738e-37)
(3.1829657e-07 -2.860563e-06 1.4841352e-24 2.5714e-05 -1.2878418e-23 1.1966584e-39)
(6.2888229e-07 -5.4002258e-06 -4.0683714e-23 4.6389905e-05 3.3601796e-22 4.6774806e-37)
(1.1286769e-06 -9.2312765e-06 5.625814e-23 7.5546667e-05 -4.4125084e-22 5.0083284e-37)
(1.9035122e-06 -1.4777451e-05 -1.1131815e-22 0.00011482098 8.2677086e-22 1.1526645e-36)
(3.0748649e-06 -2.2575893e-05 6.7164577e-23 0.00016595262 -4.7084887e-22 2.5523347e-37)
(4.8139065e-06 -3.33003e-05 3.2348274e-22 0.00023072206 -2.1332066e-21 3.6905233e-36)
(7.3606619e-06 -4.7785271e-05 -9.7648837e-23 0.00031085763 6.0361177e-22 2.1345631e-37)
(1.1049881e-05 -6.7049963e-05 -4.6382721e-22 0.00040790682 2.6779467e-21 3.0975556e-36)
(1.6345583e-05 -9.2318039e-05 1.757192e-22 0.00052306818 -9.4417322e-22 2.8882821e-37)
(2.3886626e-05 -0.00012502972 1.4517516e-23 0.00065698556 -7.2332348e-23 1.291056e-39)
(3.4545824e-05 -0.00016684015 -7.0066404e-22 0.00080951344 3.225442e-21 1.9791354e-36)
(4.9505453e-05 -0.00021959778 2.6951447e-21 0.00097947398 -1.1421198e-20 1.937408e-35)
(7.0351565e-05 -0.00028529611 -2.0298401e-21 0.0011644424 7.8895718e-21 7.3009964e-36)
(9.9189639e-05 -0.00036599531 -2.3678087e-23 0.0013606134 8.4102391e-23 6.624513e-40)
(0.00013878297 -0.00046371561 1.6785499e-21 0.001562818 -5.4283745e-21 2.2302229e-36)
(0.00019271522 -0.00058031607 -5.192343e-21 0.0017647679 1.5232819e-20 1.4360284e-35)
(0.00026557836 -0.00071738716 2.9759355e-21 0.0019595847 -7.8911631e-21 3.1922637e-36)
(0.00036319152 -0.00087620822 5.3699916e-21 0.002140631 -1.2824505e-20 7.0818505e-36)
(0.00049286147 -0.0010578328 2.6195793e-21 0.0023025705 -5.6150205e-21 1.1575631e-36)
(0.00066370617 -0.0012633629 -1.5531221e-20 0.0024424699 2.9783004e-20 2.8235482e-35)
(0.00088708423 -0.0014944463 -9.6741013e-21 0.0025606563 1.6547605e-20 7.6867355e-36)
(0.0011772796 -0.0017540092 7.4044049e-21 0.0026609975 -1.1268551e-20 3.202011e-36)
(0.001552452 -0.002046994 -5.0840614e-21 0.002750407 6.8695974e-21 1.0874886e-36)
(0.0020344125 -0.0023799846 2.2264185e-20 0.0028375247 -2.6670586e-20 1.5261815e-35)
(0.0026528282 -0.0027622589 -7.4261106e-21 0.0029298846 7.8788867e-21 1.2605914e-36)
(0.0034464542 -0.0032045844 2.3093285e-20 0.0030323998 -2.1684584e-20 9.1851689e-36)
(0.0044608187 -0.003718126 -1.4973768e-20 0.0031503871 1.2434937e-20 2.949637e-36)
(0.0057561427 -0.004314957 1.0574076e-20 0.0032859125 -7.7600386e-21 1.1371775e-36)
(0.0074082195 -0.0050070826 -4.4046627e-20 0.0034387498 2.8542865e-20 1.545163e-35)
(0.0095096974 -0.0058053637 7.1520248e-21 0.0036075238 -4.0887582e-21 3.226613e-37)
(0.012174108 -0.006719582 -4.2498078e-20 0.0037897781 2.1416573e-20 9.1011746e-36)
(0.015537782 -0.0077574351 4.563358e-20 0.0039821048 -2.0251826e-20 8.4748408e-36)
(0.019761453 -0.0089232083 1.6321371e-20 0.0041799863 -6.3742302e-21 8.8203877e-37)
(0.025030223 -0.010215875 -2.2639424e-19 0.0043776603 7.7693102e-20 1.39907e-34)
(0.03155081 -0.011626547 -6.5446233e-20 0.0045681647 1.9715816e-20 9.7057237e-36)
(0.03954469 -0.013135345 5.9799029e-20 0.0047438168 -1.5781112e-20 6.7991685e-36)
(0.0492352 -0.014708128 -6.4437393e-20 0.0048975765 1.4857288e-20 6.6861613e-36)
(0.060827783 -0.016294106 1.8086343e-20 0.0050257054 -3.6283941e-21 4.5029403e-37)
(0.074483194 -0.017826674 1.2275753e-19 0.0051324705 -2.1300381e-20 1.7958197e-35)
(0.090286254 -0.019230805 -6.1374626e-21 0.0052365537 9.1322585e-22 3.9352392e-38)
(0.10822297 -0.020440143 -4.7455327e-20 0.0053760885 5.975985e-21 2.079542e-36)
(0.1281773 -0.021421493 2.4472193e-20 0.0056072033 -2.5393103e-21 5.001484e-37)
(0.14997099 -0.022201148 -1.2962464e-20 0.0059903621 1.1057645e-21 1.2603142e-37)
(0.17344839 -0.022870494 -3.878355e-20 0.0065552393 2.5500638e-21 1.0588676e-36)
(0.19851179 -0.023514907 6.1502225e-19 0.0072474187 -2.943935e-20 2.5277784e-34)
(0.22505017 -0.024109309 -7.0092622e-20 0.0079083172 2.1542182e-21 3.1709371e-36)
(0.25270026 -0.024432793 6.5237927e-20 0.0083464729 -9.9224838e-22 2.7039023e-36)
(0.28054962 -0.024085595 -6.0981894e-19 0.0084317912 -3.7954418e-23 2.3778259e-34)
(0.3069412 -0.022636371 3.2781828e-19 0.0081650336 4.968228e-21 7.0794398e-35)
(0.32959435 -0.019805261 2.6092784e-19 0.0076631246 8.0392426e-21 4.7391298e-35)
(0.34592801 -0.015510448 2.370567e-19 0.0070675679 1.124829e-20 4.2582398e-35)
(0.35338003 -0.0098120926 2.1345397e-19 0.0064901768 1.4052683e-20 3.8862815e-35)
(0.34948191 -0.0028287236 3.0688594e-19 0.0060011009 2.6668409e-20 9.4123524e-35)
(0.33197934 0.005259073 -5.4937792e-19 0.0056377678 -6.141579e-20 3.6991893e-34)
(0.29905611 0.013943524 2.9431923e-19 0.0054805979 4.1803701e-20 1.3800964e-34)
(0.2503195 0.02187147 3.7512649e-19 0.0056721052 6.7253065e-20 3.1356252e-34)
(0.1894777 0.02662505 -2.2221164e-19 0.0062641691 -4.9742268e-20 1.6720111e-34)
(0.12645802 0.025869969 -5.4654256e-20 0.0067518567 -1.4970223e-20 1.6923587e-35)
(0.074364602 0.02054557 -3.5248076e-20 0.0064590632 -1.1508737e-20 1.2835894e-35)
(0.038213229 0.01341362 1.2859243e-19 0.00515558 4.8910268e-20 3.3252355e-34)
(0.017539468 0.0075053164 6.5242273e-20 0.0035215304 2.8648381e-20 1.7945643e-34)
(0.0069434902 0.0035569708 -1.8737368e-21 0.0020857438 -1.0000821e-21 3.4838784e-37)
(1.06662e-08 -8.3678389e-08 5.0769376e-24 6.564755e-07 -3.9276586e-23 2.0933492e-37)
(1.0546524e-07 -8.0972496e-07 -3.5826679e-23 6.2168646e-06 2.7073036e-22 1.6716898e-36)
(3.3255666e-07 -2.499675e-06 4.8459497e-23 1.8789572e-05 -3.5710226e-22 1.1112862e-36)
(7.4606459e-07 -5.4776747e-06 -2.6497901e-23 4.0220563e-05 1.9005188e-22 1.5874657e-37)
(1.4176714e-06 -1.0146428e-05 -1.2997682e-23 7.262855e-05 9.0578526e-23 2.0725403e-38)
(2.4434427e-06 -1.7006964e-05 1.4640727e-22 0.00011839724 -9.8937425e-22 1.5352888e-36)
(3.9517299e-06 -2.6677448e-05 -4.7372448e-23 0.00018015053 3.096773e-22 9.8542316e-38)
(6.1135792e-06 -3.9913795e-05 -1.2631755e-22 0.00026069985 7.9658129e-22 4.4458392e-37)
(9.1566326e-06 -5.7632059e-05 -1.2020165e-23 0.00036295462 7.2902308e-23 2.6194277e-39)
(1.3383333e-05 -8.093063e-05 -1.255123e-22 0.00048978567 7.2974575e-22 1.8922046e-37)
(1.9194669e-05 -0.00011111018 2.1461147e-22 0.00064383225 -1.1920644e-21 3.71469e-37)
(2.712095e-05 -0.00014968818 -1.8127452e-22 0.00082724606 9.5846608e-22 1.7969156e-37)
(3.7861426e-05 -0.00019840388 -8.0902058e-22 0.0010413718 4.0565147e-21 2.4435582e-36)
(5.2334822e-05 -0.00025920842 -2.8410103e-23 0.0012863746 1.3455906e-22 2.066497e-39)
(7.174323e-05 -0.00033423435 9.0111586e-22 0.0015608426 -4.0149459e-21 1.4326908e-36)
(9.7652043e-05 -0.00042573984 7.6879114e-22 0.0018614164 -3.2086706e-21 7.2014644e-37)
(0.0001320888 -0.00053602485 -7.9588989e-22 0.0021825253 3.0979758e-21 5.342179e-37)
(0.00017766476 -0.00066732521 9.1752998e-23 0.0025163412 -3.3157302e-22 4.929208e-39)
(0.00023772255 -0.00082169883 2.2370614e-21 0.0028530739 -7.4708699e-21 2.0371727e-36)
(0.00031651612 -0.001000938 3.2639458e-21 0.0031817217 -1.0025845e-20 3.0272583e-36)
(0.0004194318 -0.0012065599 -4.4491245e-21 0.0034913262 1.2510856e-20 3.9451029e-36)
(0.00055326314 -0.0014399416 -5.3284234e-21 0.003772654 1.3652835e-20 3.9925709e-36)
(0.0007265622 -0.0017026687 8.4983208e-21 0.0040200394 -1.9752154e-20 7.220864e-36)
(0.00095009307 -0.0019971221 -1.2404086e-20 0.0042329369 2.6041537e-20 1.1038467e-35)
(0.0012374935 -0.0023273133 -2.521e-20 0.0044166272 4.7624201e-20 3.3068348e-35)
(0.0016062784 -0.0026998282 6.9251834e-20 0.0045816551 -1.1732405e-19 1.8318743e-34)
(0.0020778257 -0.0031235553 -4.4153585e-20 0.0047420382 6.6902253e-20 5.5368674e-35)
(0.0026800313 -0.0036103069 7.527995e-20 0.0049112981 -1.0180327e-19 1.2125242e-34)
(0.0034503063 -0.0041739655 -1.0757397e-19 0.0050975569 1.2961656e-19 1.8899257e-34)
(0.0044326339 -0.0048289071 1.3662664e-19 0.0053092898 -1.4644573e-19 2.3549004e-34)
(0.0056829647 -0.0055903011 -1.5993328e-19 0.0055513442 1.5227912e-19 2.5221453e-34)
(0.0072732304 -0.0064737888 3.0331589e-20 0.0058238598 -2.5621718e-20 7.1725348e-36)
(0.0092899578 -0.0074930729 1.1761946e-19 0.006124646 -8.8047264e-20 8.6050068e-35)
(0.011838722 -0.0086604713 -7.4186662e-20 0.0064496221 4.9159438e-20 2.759434e-35)
(0.015045354 -0.0099854964 2.5848143e-20 0.0067929216 -1.5145876e-20 2.726064e-36)
(0.019056955 -0.011473163 8.373808e-21 0.0071466553 -4.3342087e-21 2.3507179e-37)
(0.024041007 -0.013121469 1.1431083e-19 0.0075006347 -5.2220267e-20 3.6214695e-35)
(0.030181669 -0.014918024 4.1072415e-20 0.0078423757 -1.6538536e-20 3.9021795e-36)
(0.037671861 -0.016835983 4.5448878e-20 0.0081578983 -1.609498e-20 4.0298631e-36)
(0.046699403 -0.01882989 4.9060158e-20 0.0084340902 -1.5237001e-20 4.0032731e-36)
(0.057426618 -0.020832721 -2.7151985e-19 0.0086632782 7.364656e-20 1.0556181e-34)
(0.06996341 -0.02275755 1.2864471e-19 0.0088516682 -3.0291682e-20 2.0623172e-35)
(0.084338196 -0.0245084 2.2005909e-20 0.0090307028 -4.4727317e-21 5.2855046e-37)
(0.10047978 -0.026005218 -2.6950374e-19 0.0092666969 4.641004e-20 7.1135183e-35)
(0.11822627 -0.02722081 -1.4413801e-19 0.0096588555 2.0736097e-20 1.8416629e-35)
(0.13738987 -0.02821989 7.400521e-20 0.01031314 -8.6737585e-21 4.4756908e-36)
(0.15785327 -0.029153582 2.7826716e-19 0.011272883 -2.5531553e-20 5.9283996e-35)
(0.17957457 -0.030136399 -1.238187e-19 0.01242208 8.4454814e-21 1.122303e-35)
(0.20245458 -0.031096388 3.6595651e-19 0.013473682 -1.6496422e-20 9.5597656e-35)
(0.22605134 -0.031683036 1.98939e-19 0.014092329 -4.7144342e-21 2.8128123e-35)
(0.24929063 -0.031340136 2.711886e-19 0.014074758 -8.7903951e-22 5.3188859e-35)
(0.27039418 -0.029540905 7.0992234e-19 0.013458425 1.2626273e-20 3.8023046e-34)
(0.28714961 -0.026020255 -5.2722164e-19 0.012470675 -2.0685627e-20 2.247198e-34)
(0.29729882 -0.020783831 1.6261488e-19 0.011364458 1.0220169e-20 2.3589041e-35)
(0.29884035 -0.013982738 -2.5895817e-19 0.010323713 -2.2886555e-20 6.8603288e-35)
(0.29003444 -0.0057932027 -2.233088e-19 0.0094519309 -2.6497641e-20 6.091206e-35)
(0.26943446 0.0035651413 -7.7270133e-20 0.0087961065 -1.1992624e-20 9.1684286e-36)
(0.23599883 0.013509863 -6.0306036e-19 0.0084780949 -1.2064116e-19 7.4815268e-34)
(0.18997768 0.022410772 -1.3379312e-19 0.0087334958 -3.4419387e-20 5.3378274e-35)
(0.13574013 0.027341865 2.4138465e-19 0.0096631554 7.9149458e-20 2.7624041e-34)
(0.083496658 0.025730498 6.8682202e-20 0.010400174 2.8123837e-20 3.9247684e-35)
(0.044273261 0.01929429 -3.6997051e-20 0.0097945572 -1.8368125e-20 2.1868252e-35)
(0.020011855 0.011683526 -5.344758e-20 0.0076455558 -3.1327727e-20 9.3489611e-35)
(0.0079381362 0.0059496631 -5.6890015e-20 0.0050637157 -3.8583351e-20 2.2669717e-34)
(0.0027635164 0.0025252569 2.8286956e-21 0.0028833016 2.2989522e-21 1.3185312e-36)
(2.1959947e-08 -1.3950608e-07 2.290915e-23 8.8624897e-07 -1.4417555e-22 1.9434144e-36)
(2.1296217e-07 -1.337628e-06 1.695813e-23 8.4017849e-06 -1.0529318e-22 1.7538606e-37)
(6.5970474e-07 -4.0950723e-06 -2.2492668e-23 2.5420438e-05 1.3756894e-22 1.1501791e-37)
(1.4512239e-06 -8.8913236e-06 -1.1868524e-22 5.4477691e-05 7.142341e-22 1.5686519e-36)
(2.7005847e-06 -1.630898e-05 8.7239251e-23 9.849914e-05 -5.1593427e-22 4.7107325e-37)
(4.551718e-06 -2.7051894e-05 -1.6242608e-22 0.00016079755 9.4266592e-22 9.7637438e-37)
(7.187489e-06 -4.196346e-05 8.8703987e-23 0.00024505041 -5.0430726e-22 1.8290511e-37)
(1.0839701e-05 -6.2044807e-05 2.6201454e-23 0.00035524123 -1.4562268e-22 1.038378e-38)
(1.5801914e-05 -8.8472927e-05 -1.8156702e-22 0.0004955542 9.8419793e-22 3.329914e-37)
(2.2445544e-05 -0.00012261629 -4.7454737e-22 0.00067020618 2.5023871e-21 1.5485118e-36)
(3.1240158e-05 -0.00016604588 -2.8691816e-23 0.00088320296 1.4677502e-22 3.9073827e-39)
(4.2779054e-05 -0.00022053859 1.1258215e-21 0.001138007 -5.5700756e-21 4.1997857e-36)
(5.7811499e-05 -0.00028806927 -1.8595017e-21 0.0014371117 8.8688212e-21 8.0564847e-36)
(7.7283457e-05 -0.00037078751 3.5757448e-21 0.0017815293 -1.6382474e-20 2.1065036e-35)
(0.00010238901 -0.00047097531 -1.1109581e-21 0.0021702222 4.8708577e-21 1.4434986e-36)
(0.00013463559 -0.0005909838 2.8028809e-21 0.0025995369 -1.1712254e-20 6.5410302e-36)
(0.00017592656 -0.00073314982 -4.0205254e-21 0.0030627442 1.5942577e-20 9.6030376e-36)
(0.00022866671 -0.00089970185 3.0955536e-21 0.0035498313 -1.1594381e-20 4.0696942e-36)
(0.00029589685 -0.001092673 -5.7929073e-22 0.0040477258 2.0394755e-21 1.021259e-37)
(0.00038146712 -0.0013138569 -2.7796565e-21 0.0045411409 9.1519123e-21 1.6890157e-36)
(0.00049026148 -0.0015648564 7.979093e-21 0.0050141572 -2.4438972e-20 1.0033717e-35)