/*--------------------------------*- C++ -*----------------------------------*\
  =========                 |
  \\      /  F ield         | OpenFOAM: The Open Source CFD Toolbox
   \\    /   O peration     | Website:  https://openfoam.org
    \\  /    A nd           | Version:  13
     \\/     M anipulation  |
\*---------------------------------------------------------------------------*/
FoamFile
{
    format      ascii;
    class       volScalarField;
    location    "22.401404";
    object      omega;
}
// * * * * * * * * * * * * * * * * * * * * * * * * * * * * * * * * * * * * * //

dimensions      [0 0 -1 0 0 0 0];

internalField   nonuniform List<scalar> 
17140
(
4528389.9
731657.61
224626.28
95289.325
48487.492
27617.334
16960.497
10985.055
7399.49
5135.4579
3648.3647
2640.599
1940.2306
1443.3374
1084.7077
822.11515
627.47958
481.69775
371.51606
287.58156
223.19557
173.49827
134.92461
104.83503
81.261298
62.729827
48.137323
36.661467
27.692465
20.773629
15.544373
11.690885
8.9198463
6.9617801
5.5886681
4.6248491
3.9445894
3.4617756
3.1185242
2.875875
2.7071514
2.5935237
2.5213393
2.4812155
2.4639729
2.4592176
2.4647307
2.4782425
2.4970421
2.5197243
2.5457323
2.5749464
2.6073897
2.6431543
2.6824383
2.7251528
2.7704892
2.816618
2.8616935
2.9042776
2.9444928
2.9894925
3.0597159
3.1631763
3.2391527
4528420.9
731663.22
224628.34
95290.39
48488.135
27617.765
16960.807
10985.29
7399.6756
5135.6104
3648.4938
2640.7115
1940.331
1443.4292
1084.7933
822.19646
627.55817
481.77488
371.59274
287.65865
223.27379
173.57823
135.00674
104.91952
81.348042
62.818196
48.226004
36.748311
27.774539
20.847667
15.607652
11.742122
8.9594811
6.9914774
5.6105207
4.6407998
3.9561584
3.4700859
3.1243834
2.8798647
2.7097018
2.5949686
2.5219377
2.4812707
2.463757
2.4589123
2.4645208
2.4782743
2.4974146
2.5204557
2.5467506
2.5760659
2.6083119
2.6435279
2.6819491
2.7238138
2.7690099
2.8169762
2.8676149
2.9225755
2.9869651
3.0721944
3.1927211
3.3342198
3.4543776
4528451.2
731668.19
224629.89
95291.055
48488.486
27617.977
16960.95
10985.398
7399.7642
5135.6893
3648.5688
2640.7862
1940.408
1443.5101
1084.8794
822.2889
627.65758
481.88181
371.70761
287.78173
223.40521
173.71792
135.15441
105.07451
81.509109
62.983289
48.391949
36.910592
27.927433
20.985056
15.72456
11.836291
9.0318705
7.045324
5.6498301
4.6692478
3.9766712
3.4848199
3.1348818
2.8872364
2.7147706
2.5983818
2.5242466
2.4829836
2.4654274
2.4608233
2.4672066
2.4820602
2.5025914
2.5272597
2.5553192
2.5864135
2.6203418
2.6571848
2.6975606
2.7422367
2.7920661
2.8481657
2.9130812
2.9895271
3.081745
3.1906551
3.3177513
3.4536565
3.567994
4528483
731673.37
224631.5
95291.754
48488.856
27618.205
16961.11
10985.522
7399.8715
5135.7891
3648.6672
2640.8873
1940.5145
1443.624
1085.0023
822.4219
627.80163
482.03761
371.87566
287.96233
223.59844
173.92357
135.37188
105.30265
81.745969
63.225768
48.635388
37.148481
28.151582
21.186691
15.896458
11.975057
9.138742
7.1249183
5.7079849
4.7113897
4.0071401
3.5068311
3.1507469
2.8986215
2.7229147
2.6042606
2.5287294
2.4868326
2.4692048
2.4652559
2.473086
2.489915
2.5129422
2.5405672
2.5719554
2.6066156
2.6442046
2.6848614
2.7296716
2.7802229
2.8384119
2.9060867
2.9852259
3.075942
3.1756214
3.2864667
3.4031381
3.5270571
3.6144531
4528516.9
731678.88
224633.21
95292.489
48489.247
27618.45
16961.287
10985.665
7399.9981
5135.9104
3648.7897
2641.0154
1940.6512
1443.7717
1085.1627
822.59631
627.99118
482.24312
372.09771
288.20125
223.85425
174.19594
135.65994
105.60484
82.059696
63.546981
48.958063
37.46423
28.449814
21.455925
16.127015
12.162061
9.2833844
7.2330121
5.7871711
4.7689101
4.0488507
3.5371013
3.1727298
2.9145935
2.7345666
2.6129185
2.5355861
2.4929414
2.4750398
2.4721603
2.4819928
2.5015236
2.5279512
2.5595983
2.5955048
2.6349756
2.6774183
2.7229476
2.7730416
2.8299109
2.8959168
2.9727514
3.0600301
3.1557782
3.2515419
3.357653
3.4629788
3.5778846
3.6288056
4528552.1
731684.56
224634.96
95293.252
48489.659
27618.712
16961.479
10985.824
7400.1428
5136.0518
3648.9348
2641.1688
1940.8164
1443.9511
1085.3583
822.80977
628.22373
482.49576
372.37114
288.49586
224.17008
174.53255
136.01632
105.97909
82.448703
63.945893
49.35967
37.858454
28.823802
21.795493
16.419787
12.401228
9.469592
7.37292
5.8900946
4.8439347
4.1034458
3.5768943
3.2018034
2.9358992
2.7502903
2.6247606
2.5450022
2.5012109
2.4833201
2.4814464
2.493623
2.5164008
2.5469307
2.5834152
2.6246964
2.6697491
2.7175677
2.7681222
2.8231941
2.8854933
2.9575363
3.0402412
3.1304794
3.2236766
3.3120502
3.4152182
3.5165802
3.6196095
3.6187677
4528588.7
731690.42
224636.76
95294.042
48490.091
27618.99
16961.686
10985.998
7400.3036
5136.2111
3649.0999
2641.3448
1941.0068
1444.1588
1085.5855
823.05827
628.49502
482.79101
372.69122
288.8413
224.54099
174.92853
136.43627
106.42093
82.908983
64.419176
49.83782
38.329989
29.273865
22.207284
16.778031
12.696658
9.7016362
7.5485544
6.0200487
4.939103
4.1729918
3.6278156
3.2392137
2.9635036
2.7708261
2.6403394
2.5573677
2.5119192
2.4938474
2.4929675
2.5076379
2.5339924
2.5690862
2.6109449
2.6581253
2.7091297
2.7623856
2.8176694
2.8770982
2.9440785
3.0214772
3.1086048
3.1986248
3.2850036
3.3675502
3.4737236
3.5826937
3.6582481
3.5912193
4528626.6
731696.49
224638.62
95294.862
48490.542
27619.283
16961.906
10986.184
7400.4782
5136.3854
3649.2818
2641.5395
1941.2182
1444.39
1085.839
823.33612
628.79893
483.12238
373.05112
289.23046
224.95968
175.37648
136.91245
106.92327
83.433907
64.960941
50.387709
38.875509
29.798527
22.691907
17.204331
13.052362
9.9841446
7.7644144
6.180964
5.0576416
4.2600555
3.6918825
3.2865423
2.9986463
2.7971406
2.6603982
2.5732264
2.5254083
2.5066602
2.5066374
2.5237403
2.5537745
2.5936603
2.6411934
2.6945672
2.7516917
2.8103429
2.8701754
2.9339713
3.0067522
3.0905449
3.1814082
3.2681493
3.3490463
3.4325898
3.5521871
3.6716935
3.6892177
3.5194291
4528664.7
731702.75
224640.56
95295.714
48491.008
27619.586
16962.136
10986.381
7400.6631
5136.571
3649.476
2641.7479
1941.4451
1444.6387
1086.1121
823.636
629.12754
483.48137
373.44184
289.65387
225.41634
175.86637
137.43478
107.47616
84.013918
65.562366
51.001662
39.48898
30.393921
23.248063
17.700013
13.471819
10.321835
8.0254839
6.3774167
5.203426
4.3677833
3.771604
3.3457808
3.0429093
2.8304891
2.6859252
2.5933251
2.5421828
2.5220528
2.5225626
2.5418077
2.5754237
2.6201532
2.6735351
2.7333581
2.7968705
2.8611963
2.9261348
2.9960834
3.0775963
3.1690537
3.2631232
3.3473439
3.430328
3.5273595
3.6713975
3.7794972
3.7089539
3.303577
4528704.9
731709.26
224642.58
95296.599
48491.49
27619.902
16962.375
10986.586
7400.8547
5136.7632
3649.6773
2641.9643
1941.6809
1444.8973
1086.3967
823.94894
629.4711
483.85748
373.85215
290.09969
225.89857
176.38537
137.99017
108.0665
84.636187
66.211259
51.668602
40.161027
31.053037
23.871721
18.264329
13.957275
10.719028
8.3369754
6.6145481
5.3810025
4.4999692
3.8700632
3.4194144
3.0982973
2.8724937
2.7182325
2.6187247
2.5630528
2.5406736
2.541121
2.5620725
2.5990493
2.6486265
2.7081086
2.7748962
2.845576
2.9166773
2.9887487
3.0690992
3.1629872
3.2646957
3.3642334
3.4528775
3.5530794
3.6820281
3.8516113
3.8937489
3.672654
2.8081874
4528746.8
731716.02
224644.67
95297.515
48491.99
27620.225
16962.618
10986.793
7401.0485
5136.957
3649.8799
2642.1817
1941.9178
1445.1575
1086.6832
824.26458
629.81831
484.23848
374.26889
290.55388
226.39155
176.918
138.56265
108.67802
85.284465
66.89178
52.373613
40.878318
31.764925
24.555151
18.893397
14.508736
11.178852
8.7038261
6.8978223
5.5955218
4.6610834
3.9909892
3.5105088
3.1673291
2.9252347
2.7590424
2.6509321
2.5892914
2.5635698
2.5632261
2.5853712
2.6255146
2.6801319
2.7463909
2.8213909
2.9010768
2.9816778
3.0657416
3.1630636
3.2758168
3.3948006
3.5076801
3.6169849
3.7573943
3.9359329
4.0794791
3.9559427
3.4595001
1.846194
4528789.6
731722.98
224646.84
95298.463
48492.507
27620.557
16962.865
10987
7401.2397
5137.1468
3650.0773
2642.3929
1942.1477
1445.4099
1086.9613
824.57141
630.15652
484.61055
374.67714
291.0004
226.87818
177.44622
139.13335
109.29126
85.938961
67.5842
53.097547
41.622976
32.51387
25.285849
19.578917
15.122618
11.702045
9.1298185
7.2325028
5.852496
4.8562045
4.1387817
3.6227804
3.2531298
2.9913593
2.810632
2.6919918
2.6227953
2.5924187
2.5905641
2.6134775
2.6568927
2.7173483
2.7920861
2.8780262
2.9704671
3.0662258
3.1718153
3.2970968
3.4424561
3.5927517
3.7354896
3.8956075
4.1031193
4.3089794
4.2339248
3.8569734
2.5515359
1.0399593
4528834.7
731730.27
224649.1
95299.446
48493.038
27620.895
16963.111
10987.203
7401.424
5137.3271
3650.2629
2642.5904
1942.3619
1445.6447
1087.2202
824.85738
630.47244
484.95914
375.061
291.42203
227.33993
177.9502
139.68129
109.88421
86.57687
68.265248
53.817137
42.372409
33.278878
26.045619
20.306849
15.790133
12.285298
9.6161922
7.6226892
6.1572398
5.090754
4.3184254
3.7606096
3.3594987
3.0741862
2.8759674
2.7445948
2.6661985
2.6298945
2.6259499
2.6495696
2.6971462
2.765583
2.8525527
2.9547233
3.066969
3.1892255
3.3342312
3.5085105
3.7108873
3.9166874
4.1239954
4.3740881
4.6458202
4.584872
4.2590228
3.1528048
1.2920211
0.58554162
4528880.1
731737.7
224651.41
95300.452
48493.578
27621.233
16963.352
10987.396
7401.5953
5137.4914
3650.4296
2642.766
1942.5513
1445.8518
1087.4485
825.10991
630.75215
485.2689
375.40366
291.80045
227.75694
178.40856
140.18356
110.43253
87.172581
68.908269
54.505058
43.099187
34.033262
26.809748
21.05606
16.49543
12.919128
10.159603
8.0696941
6.5137761
5.3698549
4.5351632
3.9289097
3.4908937
3.1777536
2.958774
2.8122768
2.7231213
2.6799689
2.6739224
2.6989215
2.7532134
2.8344388
2.9411053
3.0688497
3.2136125
3.3865762
3.6053322
3.8654801
4.163173
4.4789865
4.795515
5.1339287
5.0324132
4.666465
3.5171465
1.5057825
0.67678927
0.36587044
4528926.9
731745.36
224653.79
95301.487
48494.127
27621.569
16963.586
10987.577
7401.7498
5137.6349
3650.5717
2642.9132
1942.7084
1446.0227
1087.6364
825.31793
630.9832
485.5259
375.6896
292.11842
228.11017
178.80038
140.61731
110.91142
87.699362
69.484738
55.131224
43.772077
34.745334
27.547205
21.797826
17.214153
13.585676
10.749558
8.5696413
6.9229581
5.6970571
4.7937189
4.1326969
3.6522292
3.3067741
3.0636178
2.8995836
2.7983889
2.7484228
2.7414466
2.7702037
2.8368952
2.9406379
3.0802305
3.2492278
3.4526525
3.7285638
4.083739
4.48749
4.9629106
5.4620243
5.7793632
5.6121312
5.0680381
3.6329829
1.6162845
0.73975048
0.40834573
0.26780586
4528977.9
731753.56
224656.29
95302.557
48494.684
27621.903
16963.809
10987.742
7401.8845
5137.754
3650.6847
2643.0267
1942.827
1446.1501
1087.7757
825.47207
631.15495
485.71809
375.90522
292.36065
228.38246
179.10645
140.96112
111.2971
88.130961
69.965841
55.664274
44.357327
35.379371
28.221157
22.495768
17.912824
14.25662
11.365393
9.1101656
7.3795526
6.0720973
5.0967429
4.3760948
3.8482927
3.4663556
3.1958938
3.0123883
2.898763
2.8434355
2.8390113
2.8774972
2.9684033
3.1120403
3.30569
3.5463404
3.8727221
4.352752
4.9546463
5.6166083
6.3545171
6.4805822
6.2239307
5.3990514
3.4695207
1.5899971
0.76858578
0.42724783
0.29508235
0.22325521
4529031.7
731762.08
224658.88
95303.661
48495.252
27622.235
16964.022
10987.891
7401.9967
5137.8456
3650.7653
2643.1025
1942.9025
1446.2287
1087.8604
825.56531
631.25929
485.83614
376.03976
292.51476
228.55959
179.31046
141.19635
111.5683
88.443198
70.324222
56.073439
44.820605
35.897508
28.790599
23.106777
18.548198
14.892341
11.973931
9.6671357
7.8684858
6.4874621
5.4421016
4.6603928
4.0824594
3.6612471
3.3615213
3.158016
3.0335172
2.9772872
2.982962
3.0443446
3.1816522
3.3909382
3.6798196
4.0739049
4.6598867
5.5369173
6.5772026
7.3957296
7.2437253
6.7820095
5.5744218
3.0633329
1.47229
0.7519305
0.44353085
0.30417621
0.24506601
0.19953939
4529085.9
731770.76
224661.55
95304.793
48495.827
27622.562
16964.224
10988.022
7402.0864
5137.9096
3650.813
2643.1401
1942.9341
1446.2574
1087.8887
825.59539
631.29324
485.87613
376.08819
292.57438
228.63356
179.40254
141.31093
111.71041
88.61844
70.538757
56.333643
45.132461
36.265579
29.216524
23.587382
19.073665
15.445317
12.530858
10.202394
8.3610104
6.9240762
5.8189112
4.9808445
4.3543577
3.8943357
3.5662447
3.3453843
3.2158241
3.1695727
3.1998745
3.3132667
3.5271131
3.8518368
4.3512988
5.1017405
6.2089571
7.7795058
8.3858536
8.1344209
7.2902723
5.3698767
2.6432599
1.3378708
0.72779498
0.44641604
0.31935567
0.25135805
0.21636162
0.17873462
4529139.6
731779.63
224664.28
95305.944
48496.407
27622.886
16964.415
10988.137
7402.1543
5137.9467
3650.8287
2643.1402
1942.9225
1446.2369
1087.8612
825.56261
631.25675
485.83753
376.04926
292.5372
228.60066
179.377
141.29654
111.71187
88.641646
70.59058
56.421865
45.265403
36.451268
29.46104
23.893322
19.43882
15.860736
12.980314
10.664361
8.8129174
7.3476192
6.203099
5.322459
4.6564698
4.1643645
3.8147109
3.585847
3.4660108
3.4529542
3.5400572
3.7606686
4.1047001
4.6935171
5.712727
7.2123176
9.0081674
9.3112757
8.9240639
7.6718825
4.9405313
2.4420109
1.2605954
0.71370363
0.45522709
0.3281955
0.26493056
0.22168365
0.19340164
0.16382841
4529196.7
731788.89
224667.12
95307.135
48497.001
27623.21
16964.597
10988.237
7402.2025
5137.9589
3650.8145
2643.1052
1942.8702
1446.1696
1087.7805
825.46972
631.15265
485.72326
375.92601
292.40645
228.46435
179.23762
141.15729
111.57679
88.515584
70.479446
56.332636
45.206112
36.430991
29.490191
23.982217
19.594293
16.083748
13.26276
10.991677
9.1664625
7.7081315
6.5550427
5.6567221
4.9710729
4.4640521
4.1106949
3.8968234
3.8210701
3.8829162
4.1091048
4.5265942
5.1874761
6.4483979
8.5861394
10.203708
10.244202
9.674517
7.9843141
4.5503228
2.2848398
1.2151504
0.71305558
0.46813365
0.3427561
0.27468446
0.23141554
0.1961191
0.17498226
0.1503159
4529258.1
731798.65
224670.08
95308.371
48497.61
27623.535
16964.773
10988.325
7402.2329
5137.9485
3650.7728
2643.0377
1942.7802
1446.0589
1087.6501
825.32032
630.98467
485.53706
375.72208
292.18556
228.22768
178.98694
140.89514
111.30663
88.242032
70.208368
56.07127
44.963024
36.215794
29.312749
23.852064
19.520417
16.073793
13.324111
11.124292
9.3613816
7.9483167
6.8248281
5.9444969
5.2722473
4.7830952
4.463409
4.3147481
4.3501643
4.5846911
5.1073456
5.9426358
7.4061827
10.073506
11.389162
11.178803
10.369061
8.1821232
4.3130548
2.207101
1.2050821
0.72735912
0.48893139
0.36093006
0.28959388
0.23832546
0.20310926
0.17623518
0.16027596
0.14016798
4529319.5
731808.57
224673.11
95309.637
48498.23
27623.859
16964.941
10988.4
7402.2451
5137.9154
3650.7037
2642.9378
1942.6525
1445.9049
1087.4705
825.11521
630.75391
485.28043
375.43942
291.87695
227.89358
178.62839
140.51396
110.90561
87.825176
69.781151
55.640816
44.538233
35.807314
28.9327
23.513456
19.236044
15.854327
13.175567
11.049558
9.361008
8.0245946
6.9718091
6.1531312
5.541942
5.12622
4.9123642
4.9302587
5.196996
5.8459276
6.9175974
8.7419357
11.59252
12.538176
12.214064
11.096334
8.3255699
4.2358896
2.2070874
1.2303987
0.75750291
0.51755708
0.38650753
0.3077095
0.24848035
0.20823886
0.18280869
0.16164155
0.14839355
0.13084026
4529381.2
731818.68
224676.22
95310.932
48498.86
27624.184
16965.103
10988.462
7402.2401
5137.8605
3650.6082
2642.807
1942.489
1445.7099
1087.2444
824.85764
630.46431
484.95809
375.08369
291.48737
227.47005
178.17137
140.02466
110.38624
87.279223
69.213658
55.058698
43.950571
35.225616
28.371121
22.989054
18.766979
15.453531
12.851803
10.808519
9.2060604
7.9573293
7.0027228
6.2931355
5.8096819
5.5610251
5.5896112
5.9288392
6.7542748
8.092321
10.258082
12.961103
13.651442
13.218212
11.793288
8.4819184
4.3412313
2.2832584
1.2886152
0.80451562
0.55508611
0.41774612
0.3270634
0.25944457
0.21581258
0.18794228
0.167137
0.1494124
0.13819142
0.12335433
4529447.3
731829.36
224679.47
95312.278
48499.51
27624.514
16965.259
10988.513
7402.219
5137.7849
3650.4878
2642.647
1942.292
1445.4771
1086.9758
824.5529
630.12264
484.5786
374.66552
291.02984
226.97285
177.63469
139.44942
109.77432
86.633718
68.539198
54.361771
43.239867
34.512362
27.6694
22.316208
18.13523
14.880459
12.355973
10.409989
8.9235611
7.8066231
6.99542
6.4636903
6.2163431
6.2972757
6.7696571
7.8186141
9.4569716
11.839546
14.276263
14.73807
14.212276
12.526699
8.7377653
4.5595779
2.4250284
1.3786403
0.86626728
0.60435758
0.45427008
0.3493814
0.27355481
0.22730481
0.19587021
0.17186197
0.15437115
0.13964502
0.13010151
0.11708474
4529517.1
731840.52
224682.88
95313.686
48500.188
27624.856
16965.419
10988.562
7402.192
5137.7004
3650.3561
2642.4735
1942.0796
1445.2269
1086.688
824.22723
629.75838
484.17496
374.22172
290.54529
226.44727
177.0683
138.84308
109.12978
85.953812
67.828113
53.625327
42.48576
33.750293
26.910878
21.57275
17.424292
14.222969
11.782942
9.9531474
8.6166326
7.6916417
7.1172524
6.8944755
7.0683168
7.719297
9.0406198
10.954886
13.430387
15.573018
15.832506
15.223059
13.313248
9.1112638
4.9034811
2.6459124
1.5056875
0.94697723
0.66178198
0.49245691
0.37343837
0.29217233
0.24218605
0.20575247
0.17758669
0.15845905
0.14381349
0.13154492
0.12325503
0.11195542
4529588.1
731851.94
224686.37
95315.146
48500.893
27625.217
16965.594
10988.623
7402.1773
5137.6287
3650.2382
2642.3154
1941.8845
1444.9965
1086.4229
823.92745
629.42368
483.80492
373.81596
290.10359
225.96968
176.5553
138.29571
108.54979
85.343901
67.192129
52.968527
41.81505
33.074388
26.24028
20.920992
16.816536
13.692691
11.364507
9.6918855
8.5621852
7.9010122
7.6818748
7.9555582
8.8136568
10.367329
12.499723
15.008273
16.914461
16.973297
16.265728
14.140303
9.6094068
5.333738
2.9045084
1.6430924
1.0292138
0.71877401
0.53171261
0.40271274
0.31723256
0.26125717
0.2173644
0.18547676
0.16410176
0.148202
0.13553294
0.12512757
0.11758593
0.10763264
4529661.3
731863.81
224690
95316.667
48501.641
27625.612
16965.803
10988.721
7402.2025
5137.602
3650.1711
2642.2147
1941.7543
1444.8391
1086.2398
823.71923
629.19082
483.54768
373.53461
289.79846
225.64134
176.20461
137.924
108.159
84.936793
66.772578
52.541911
41.388745
32.658392
25.847884
20.569716
16.534193
13.518007
11.338733
9.8610923
9.0087795
8.74333
9.0884559
10.078498
11.797852
14.105714
16.565256
18.345629
18.211325
17.375195
14.998692
10.221793
5.8328318
3.1886776
1.790915
1.1221139
0.78701283
0.58206592
0.44203733
0.34853758
0.28256463
0.23079977
0.19555443
0.17203392
0.15354098
0.13958077
0.12844801
0.11926515
0.11263357
0.1042142
4529737.4
731876.11
224693.79
95318.263
48502.446
27626.062
16966.069
10988.883
7402.3005
5137.6579
3650.1977
2642.2199
1941.7431
1444.8148
1086.2046
823.67472
629.13814
483.48774
373.46817
289.72629
225.56424
176.12357
137.84029
108.0744
84.853846
66.694993
52.475162
41.340966
32.641805
25.881307
20.681134
16.753451
13.882244
11.916095
10.752473
10.328825
10.614058
11.61409
13.403878
15.800041
18.281409
19.907624
19.600038
18.583214
15.89677
10.928394
6.385776
3.4995724
1.9582895
1.2348985
0.87236419
0.64503536
0.48928381
0.38310639
0.30555709
0.24741071
0.20922312
0.18194698
0.1601835
0.14416649
0.13218621
0.1224956
0.11486022
0.10891238
0.1011967
4529816
731888.83
224697.71
95319.938
48503.309
27626.568
16966.395
10989.111
7402.4722
5137.7972
3650.3191
2642.3324
1941.8529
1444.9262
1086.321
823.79878
629.27212
483.63366
373.62794
289.90182
225.75756
176.33697
138.07647
108.33674
85.146765
67.024445
52.849367
41.771551
33.145474
26.481707
21.411664
17.660535
15.029571
13.382945
12.638391
12.744721
13.600949
15.342847
17.718047
20.18343
21.650749
21.242814
19.939815
16.841589
11.722069
6.9942903
3.8475719
2.1568649
1.3696918
0.96886526
0.71075485
0.5344986
0.41544473
0.33009073
0.26840757
0.22669051
0.19394662
0.16836921
0.15048271
0.13695695
0.1264399
0.11783376
0.11077632
0.10507486
0.098968307
4529897.8
731902.1
224701.78
95321.69
48504.226
27627.118
16966.766
10989.387
7402.698
5137.9977
3650.5097
2642.5234
1942.0515
1445.1379
1086.5502
824.04946
629.54775
483.93768
373.9638
290.27316
226.16837
176.7917
138.58037
108.89609
85.769366
67.720341
53.631914
42.658927
34.162223
27.660751
22.796862
19.310191
17.019009
15.80514
15.598945
16.225075
17.766191
20.000144
22.382806
23.571108
22.981432
21.413031
17.87398
12.60399
7.655651
4.2316881
2.3800738
1.5187218
1.0713825
0.7822332
0.58934945
0.46086876
0.36818895
0.29943387
0.24836395
0.20770963
0.17827939
0.15831949
0.14271281
0.13060572
0.12106039
0.1133526
0.10740302
0.10261971
0.096946418
4529983.7
731915.9
224706.02
95323.514
48505.18
27627.694
16967.156
10989.681
7402.9416
5138.2175
3650.7221
2642.7394
1942.2792
1445.3837
1086.8197
824.34769
629.87971
484.30848
374.37893
290.73867
226.69111
177.37963
139.24288
109.64456
86.617769
68.686379
54.737816
43.932885
35.640119
29.38816
24.831143
21.722326
19.892765
19.230808
19.563477
20.751712
22.741597
24.890107
25.693182
24.910862
23.020354
19.008301
13.547338
8.3502201
4.6440612
2.629875
1.6853269
1.1865299
0.86607948
0.6560803
0.51234056
0.4055365
0.32586265
0.26635896
0.22212319
0.19076251
0.16842117
0.15004453
0.13599237
0.1252915
0.11691117
0.11023626
0.10458734
0.099892258
0.095323464
4530071.7
731930.11
224710.41
95325.392
48506.158
27628.277
16967.545
10989.967
7403.1734
5138.4223
3650.9172
2642.9367
1942.4876
1445.6107
1087.0719
824.63173
630.20235
484.67707
374.8017
291.22504
227.25204
178.02808
139.99431
110.51764
87.635182
69.875616
56.132535
45.57399
37.577272
31.680942
27.548442
24.938076
23.674412
23.617261
24.331525
25.925488
27.771776
27.966269
26.970275
24.62502
20.187734
14.507572
9.0587855
5.0895131
2.9150489
1.8758488
1.3166137
0.96263292
0.73135484
0.56884658
0.44737371
0.35992054
0.29547435
0.24626069
0.21013678
0.18141395
0.15879598
0.14256148
0.13029404
0.12080386
0.11312429
0.10682482
0.10196481
0.098071508
0.094017199
4530163.2
731944.94
224714.96
95327.335
48507.167
27628.876
16967.941
10990.257
7403.4061
5138.6269
3651.1121
2643.1348
1942.6989
1445.844
1087.3352
824.93333
630.55116
485.08303
375.27621
291.78139
227.90594
178.79823
140.90311
111.59197
88.907328
71.384203
57.92351
47.701338
40.102462
34.669877
31.063454
29.021885
28.324651
28.622776
29.575848
30.730865
30.351807
29.061868
26.200991
21.395245
15.485007
9.7927199
5.5868347
3.2474723
2.0924017
1.4613658
1.069932
0.81534831
0.63213883
0.49689722
0.39996332
0.32732173
0.27014726
0.2265659
0.19265956
0.16793125
0.15038753
0.13654816
0.12548217
0.11685732
0.10987473
0.10462242
0.10001444
0.096250442
0.092758827
4530257.7
731960.22
224719.66
95329.357
48508.227
27629.516
16968.376
10990.586
7403.6819
5138.8802
3651.3627
2643.3973
1942.9848
1446.1635
1087.6985
825.35084
631.03433
485.64483
375.93163
292.54804
228.80472
179.85405
142.14578
113.057
90.636733
73.426937
60.33118
50.53235
43.415167
38.510196
35.444826
33.893773
33.522831
33.824644
33.851635
33.025711
31.141336
27.814762
22.652507
16.479328
10.554247
6.1411451
3.6238599
2.3287183
1.6168673
1.1885018
0.90932141
0.70560912
0.55482587
0.44614445
0.36271043
0.2984301
0.24920203
0.21096038
0.18340191
0.16209952
0.14467915
0.13133984
0.12127325
0.11349133
0.10724049
0.10210381
0.097942955
0.094894715
0.09181327
4530355.2
731976
224724.55
95331.477
48509.361
27630.222
16968.879
10990.99
7404.0422
5139.2299
3651.724
2643.7865
1943.4156
1446.6485
1088.2503
825.98267
631.76091
486.48287
376.90056
293.67074
230.10834
181.37099
143.91469
115.12345
93.048977
76.22713
63.554191
54.227508
47.608792
43.187485
40.51667
39.180227
38.549648
37.566402
35.721817
33.34243
29.474667
23.912961
17.454525
11.340478
6.7564648
4.0458971
2.590869
1.7932626
1.3266928
1.0196466
0.7913334
0.62263
0.49832319
0.40354503
0.33121168
0.27617442
0.23218722
0.19922405
0.17340003
0.15281598
0.13813554
0.12677068
0.11768734
0.11061885
0.10469398
0.10037525
0.096636624
0.093652908
0.090809567
4530457.6
731992.54
224729.67
95333.717
48510.583
27631.01
16969.467
10991.487
7404.5087
5139.7015
3652.2251
2644.336
1944.0298
1447.3427
1089.04
826.88469
632.7939
487.66815
378.26292
295.23939
231.9174
183.4594
146.32482
117.89749
96.228452
79.847534
67.634751
58.738356
52.508578
48.371901
45.695833
43.694782
41.490891
38.889547
35.799176
31.234343
25.209721
18.486029
12.221198
7.4724
4.5353556
2.8946693
1.9990953
1.4843642
1.1413111
0.88534553
0.69693977
0.55740588
0.45025767
0.36989377
0.30721028
0.25743301
0.2181801
0.18733458
0.16418148
0.14715141
0.13369759
0.122864
0.11453879
0.10802174
0.10275014
0.098642247
0.094994917
0.092625302
0.090143458
4530563.2
732009.67
224735.01
95336.077
48511.894
27631.885
16970.147
10992.089
7405.0943
5140.3097
3652.883
2645.065
1944.8488
1448.27
1090.0943
828.08621
634.16494
489.23369
380.05091
297.28051
234.24491
186.10859
149.33151
121.29592
100.04577
84.101107
72.297226
63.719327
57.558806
53.036657
49.340142
45.856526
42.395229
38.399827
33.08852
26.601388
19.636513
13.222053
8.2746142
5.0762693
3.231443
2.2270609
1.6552914
1.2736183
0.9924336
0.7857732
0.62905606
0.50776222
0.41499308
0.34320948
0.28581947
0.24122452
0.20550891
0.17939859
0.15906715
0.14215102
0.12938076
0.11948901
0.11176326
0.10580594
0.10082761
0.097141286
0.094117607
0.091751952
0.089353022
4530672.5
732027.4
224740.54
95338.55
48513.295
27632.846
16970.922
10992.797
7405.8
5141.0553
3653.698
2645.9732
1945.8715
1449.4275
1091.4077
829.57731
635.85729
491.1525
382.22281
299.73279
237.00357
189.19472
152.75577
125.05014
104.09157
88.356642
76.655372
67.917654
61.215929
55.752711
50.951264
46.394899
41.328896
35.219172
28.235724
20.993265
14.379043
9.1862912
5.7019113
3.6369354
2.5037632
1.857843
1.4307358
1.1211596
0.89058463
0.71091408
0.57131481
0.46547919
0.38320852
0.31959034
0.26889627
0.22855206
0.19619796
0.17064525
0.15110504
0.13645441
0.12542736
0.11643603
0.10943438
0.10391692
0.099287956
0.096026778
0.092840234
0.090924617
0.088888502
4530784.7
732045.71
224746.29
95341.143
48514.79
27633.895
16971.786
10993.602
7406.6153
5141.9244
3654.6523
2647.0381
1947.0696
1450.7807
1092.9378
831.30676
637.80911
493.34972
384.68722
302.48256
240.04939
192.53385
156.36354
128.86852
108.01487
92.214008
80.186642
70.869849
63.372669
56.961422
51.019479
44.703646
37.70007
30.149355
22.567635
15.699685
10.227475
6.4380933
4.1241792
2.8257973
2.0815857
1.6014263
1.2609293
1.0039358
0.8016625
0.64557599
0.52651817
0.43325009
0.35962873
0.3017507
0.25419169
0.21656808
0.18647471
0.16488337
0.14766089
0.13357998
0.12262764
0.11385625
0.1072463
0.10205666
0.097937184
0.094705319
0.092239122
0.090356885
0.088260238
4530901
732061.28
224749.38
95341.631
48514.734
27633.783
16971.766
10993.726
7406.9054
5142.3913
3655.3048
2647.8853
1948.1217
1452.0496
1094.4365
833.04929
639.80904
495.61857
387.2317
305.30055
243.12434
195.82751
159.80724
132.3541
111.38759
95.271479
82.689791
72.56542
64.075914
56.343859
48.622689
40.633965
32.447626
24.462382
17.283796
11.485058
7.3461093
4.7271393
3.2125857
2.3436332
1.8022702
1.4269755
1.1409106
0.91433116
0.73825345
0.60033626
0.49085429
0.40537698
0.33796522
0.28484276
0.24159267
0.20750684
0.17999401
0.15838529
0.14151111
0.12870013
0.11916404
0.11145351
0.10544708
0.10069997
0.096660755
0.093952513
0.091271935
0.089626545
0.087916882
4531685.4
732195.36
224794.52
95363.023
48526.88
27641.571
16977.233
10997.857
7410.2293
5145.2203
3657.8353
2650.2489
1950.4114
1454.334
1096.7678
835.46715
642.34241
498.28507
390.03545
308.22831
246.1401
198.86617
162.76852
135.0989
113.74025
97.030868
83.673996
72.540911
62.605178
53.221214
44.051947
35.074914
26.563999
18.990527
12.823499
8.3155907
5.3728772
3.6265121
2.6258131
2.0195569
1.605146
1.287596
1.0353375
0.8367886
0.67882113
0.55395503
0.45745821
0.38141743
0.32024361
0.27153264
0.23076713
0.19835815
0.17223376
0.1538077
0.13886258
0.12661756
0.11721228
0.1094329
0.10373561
0.099123675
0.095665195
0.092828602
0.090806199
0.089160355
0.087573852
4531684.6
732191.68
224791.56
95360.864
48525.424
27640.624
16976.668
10997.595
7410.2262
5145.4488
3658.2804
2650.9029
1951.2713
1455.3992
1098.0379
836.93952
644.00897
500.12868
392.02511
310.31371
248.24586
200.88689
164.56643
136.50793
114.58476
97.085533
82.594448
70.054976
58.719846
48.14516
38.196364
29.020632
20.954205
14.364296
9.4580672
6.1624156
4.1500548
2.9823328
2.2822356
1.8119009
1.4573648
1.1779321
0.95538666
0.77648414
0.63475887
0.5230722
0.43353016
0.36188959
0.30447809
0.2586638
0.22068783
0.19104734
0.16714347
0.14854505
0.13373995
0.12247908
0.11405031
0.10724769
0.10212369
0.09801288
0.094573512
0.092260194
0.090019848
0.088543639
0.087263163
4531684.8
732191.82
224791.69
95361.053
48525.669
27640.93
16977.042
10998.044
7410.7573
5146.0691
3658.9969
2651.7223
1952.1991
1456.4383
1099.1871
838.19142
645.34707
501.52375
393.4312
311.66414
249.45058
201.83368
165.1156
136.47837
113.72391
95.171374
79.538492
65.893427
53.636103
42.484752
32.43859
23.693227
16.505344
11.039533
7.2451493
4.8444353
3.4222677
2.5818384
2.041295
1.6491194
1.3417523
1.0924519
0.88918819
0.72618581
0.59570212
0.4911885
0.4091006
0.34395362
0.29104736
0.24871407
0.21280597
0.1844712
0.16134635
0.14500279
0.13178966
0.12087791
0.1128174
0.10582694
0.10084481
0.096792499
0.093795916
0.091413459
0.089717501
0.08827141
0.087061879
4531684.9
732191.92
224791.78
95361.164
48525.813
27641.112
16977.265
10998.314
7411.0777
5146.4445
3659.431
2652.2175
1952.7554
1457.0521
1099.8494
838.88561
646.04612
502.18763
394.00308
312.06598
249.57764
201.54466
164.24204
134.85567
111.24175
91.775893
75.264089
60.891765
48.187174
36.974256
27.294765
19.294351
13.087685
8.6462576
5.7419443
3.9864925
2.9620269
2.3304232
1.8877975
1.5417593
1.2584193
1.0264788
0.83906177
0.68794116
0.56705518
0.47104478
0.39390277
0.33146141
0.28076886
0.24006512
0.20575112
0.17910473
0.15755609
0.14121
0.12784313
0.11764673
0.11029835
0.10416099
0.099701718
0.095928485
0.093072035
0.090906398
0.08914817
0.08780105
0.086786605
4531686.1
732192.05
224791.82
95361.19
48525.845
27641.155
16977.321
10998.384
7411.1649
5146.5496
3659.5544
2652.3573
1952.9069
1457.206
1099.9902
838.98867
646.07473
502.08881
393.70515
311.4781
248.59294
200.0518
162.13657
132.05389
107.70365
87.531454
70.435624
55.702485
42.946026
32.03223
22.97887
15.837106
10.577236
7.0100151
4.7845076
3.4722783
2.6845319
2.1593432
1.7639027
1.4455954
1.1850646
0.97141758
0.79651982
0.6550422
0.54114694
0.44933169
0.37646039
0.31820314
0.27062164
0.23262031
0.19995844
0.17446131