/*--------------------------------*- C++ -*----------------------------------*\
  =========                 |
  \\      /  F ield         | OpenFOAM: The Open Source CFD Toolbox
   \\    /   O peration     | Website:  https://openfoam.org
    \\  /    A nd           | Version:  13
     \\/     M anipulation  |
\*---------------------------------------------------------------------------*/
FoamFile
{
    format      ascii;
    class       volScalarField;
    location    "22.401404";
    object      p;
}
// * * * * * * * * * * * * * * * * * * * * * * * * * * * * * * * * * * * * * //

dimensions      [0 2 -2 0 0 0 0];

internalField   nonuniform List<scalar> 
17140
(
-0.23802368
-0.2380431
-0.23806661
-0.23809156
-0.23811865
-0.23814848
-0.23818123
-0.23821706
-0.23825617
-0.23829874
-0.23834494
-0.23839492
-0.23844883
-0.23850676
-0.23856881
-0.23863503
-0.23870548
-0.23878021
-0.23885933
-0.23894306
-0.23903187
-0.23912671
-0.23922933
-0.23934282
-0.23947259
-0.23962759
-0.23982229
-0.24007882
-0.24042864
-0.24091161
-0.24156983
-0.2424354
-0.24351622
-0.24478757
-0.24619506
-0.24766706
-0.24913005
-0.25052123
-0.25179625
-0.25293227
-0.2539271
-0.25479553
-0.25556287
-0.25625882
-0.25692048
-0.25757771
-0.25824443
-0.2589336
-0.25965705
-0.26042728
-0.26124245
-0.26213948
-0.26308939
-0.2642407
-0.26545473
-0.26728796
-0.26905317
-0.27247537
-0.27471198
-0.28089264
-0.28242132
-0.29291682
-0.28056126
-0.28008403
-0.2085672
-0.23741828
-0.23743732
-0.23746059
-0.23748508
-0.2375116
-0.23754081
-0.23757288
-0.23760798
-0.2376463
-0.23768802
-0.23773331
-0.23778234
-0.23783522
-0.23789209
-0.23795304
-0.23801812
-0.2380874
-0.23816094
-0.23823884
-0.23832135
-0.23840891
-0.23850246
-0.23860368
-0.23871559
-0.23884343
-0.23899593
-0.23918717
-0.23943878
-0.23978161
-0.24025486
-0.24090022
-0.24174979
-0.24281199
-0.24406298
-0.24544923
-0.2468997
-0.24834096
-0.2497098
-0.25096098
-0.25207036
-0.25303419
-0.25386559
-0.25458736
-0.25522755
-0.25582097
-0.25639535
-0.25696256
-0.2575348
-0.25812226
-0.25873889
-0.25938737
-0.2601148
-0.26091163
-0.26196179
-0.2631843
-0.26523381
-0.26753898
-0.27196338
-0.27574161
-0.28411388
-0.2886274
-0.30289547
-0.29460558
-0.2976693
-0.22600231
-0.23697939
-0.23699796
-0.23702057
-0.2370438
-0.23706921
-0.23709725
-0.23712804
-0.23716173
-0.23719853
-0.23723862
-0.23728216
-0.23732931
-0.23738022
-0.23743499
-0.23749374
-0.23755653
-0.23762343
-0.23769451
-0.23776988
-0.23784978
-0.23793464
-0.23802536
-0.23812356
-0.23823211
-0.23835602
-0.23850365
-0.23868849
-0.23893135
-0.23926202
-0.2397186
-0.24034194
-0.24116408
-0.24219436
-0.24341064
-0.24476125
-0.24617661
-0.24758406
-0.24892032
-0.25013935
-0.25121561
-0.25214342
-0.25293362
-0.25360681
-0.25418843
-0.25471062
-0.25519831
-0.25566191
-0.2561123
-0.25655842
-0.25701556
-0.25749072
-0.25804168
-0.25867773
-0.25961993
-0.26084688
-0.26312086
-0.26598633
-0.27144788
-0.27675257
-0.28737585
-0.2944199
-0.31248703
-0.3087031
-0.3148923
-0.2430305
-0.23670976
-0.23672715
-0.2367483
-0.23677007
-0.23679389
-0.23682018
-0.23684906
-0.23688068
-0.23691523
-0.23695289
-0.23699382
-0.23703819
-0.23708613
-0.23713776
-0.2371932
-0.23725252
-0.23731579
-0.23738309
-0.23745455
-0.23753038
-0.23761103
-0.23769732
-0.23779078
-0.23789412
-0.23801204
-0.23815239
-0.23832791
-0.23855827
-0.23887177
-0.23930494
-0.23989736
-0.2406809
-0.24166614
-0.24283337
-0.24413381
-0.2455003
-0.24686163
-0.24815488
-0.24933334
-0.25036994
-0.25125681
-0.25200212
-0.25262369
-0.25314428
-0.2535925
-0.25399035
-0.25434678
-0.25467112
-0.25497115
-0.25526348
-0.25555928
-0.25592743
-0.25639549
-0.25722306
-0.25845035
-0.26095256
-0.26438466
-0.2708873
-0.27776008
-0.29033764
-0.30001681
-0.32153562
-0.32119292
-0.33030614
-0.25903328
-0.23660584
-0.23662168
-0.23664089
-0.23666075
-0.23668248
-0.23670647
-0.23673283
-0.23676172
-0.23679331
-0.23682777
-0.23686527
-0.23690596
-0.23694998
-0.23699745
-0.23704849
-0.23710319
-0.23716162
-0.23722387
-0.23729007
-0.23736044
-0.2374354
-0.2375157
-0.23760278
-0.23769914
-0.2378091
-0.23793992
-0.23810339
-0.23831775
-0.23860948
-0.23901299
-0.23956623
-0.24030066
-0.24122833
-0.24233269
-0.24356875
-0.24487273
-0.24617563
-0.24741536
-0.24854473
-0.24953507
-0.25037608
-0.2510729
-0.25164008
-0.25209727
-0.25246922
-0.25277482
-0.25302096
-0.25321557
-0.25336523
-0.25348778
-0.25359835
-0.25377704
-0.2540688
-0.25477229
-0.25599047
-0.25872341
-0.26274774
-0.2702656
-0.27854875
-0.29275427
-0.30505886
-0.32934763
-0.33228037
-0.34298735
-0.27225616
-0.2366581
-0.23667205
-0.23668891
-0.23670642
-0.2367256
-0.23674677
-0.23677006
-0.23679561
-0.23682357
-0.23685412
-0.2368874
-0.23692358
-0.23696277
-0.23700513
-0.23705074
-0.23709972
-0.23715216
-0.23720815
-0.23726783
-0.2373314
-0.23739927
-0.23747213
-0.23755129
-0.23763902
-0.23773923
-0.23785849
-0.23800748
-0.23820283
-0.23846878
-0.23883727
-0.23934413
-0.24002015
-0.24087895
-0.2419076
-0.24306582
-0.24429412
-0.24552649
-0.24670222
-0.24777388
-0.24871122
-0.24950134
-0.25014605
-0.25065626
-0.25104788
-0.25134181
-0.25155312
-0.25168645
-0.25174809
-0.25174333
-0.25169114
-0.25161008
-0.2515913
-0.25169569
-0.25226033
-0.25345983
-0.25639536
-0.2609131
-0.26943532
-0.27909566
-0.29475172
-0.30932222
-0.33565948
-0.34119798
-0.35232868
-0.28169811
-0.23685097
-0.23686271
-0.23687686
-0.23689164
-0.23690785
-0.23692576
-0.23694548
-0.23696714
-0.23699089
-0.23701688
-0.23704526
-0.23707616
-0.23710973
-0.23714609
-0.23718536
-0.23722765
-0.23727305
-0.23732167
-0.23737366
-0.23742922
-0.23748872
-0.23755282
-0.23762268
-0.23770031
-0.2377892
-0.23789516
-0.23802767
-0.23820156
-0.23843859
-0.23876781
-0.23922251
-0.23983245
-0.24061272
-0.24155439
-0.24262252
-0.2437628
-0.24491304
-0.24601447
-0.24701981
-0.24789731
-0.24863138
-0.24922028
-0.24967099
-0.24999531
-0.25020961
-0.25032489
-0.2503436
-0.25026953
-0.25010657
-0.24987458
-0.24959486
-0.24936887
-0.24927148
-0.24967766
-0.25079677
-0.25393389
-0.25897565
-0.26816345
-0.27879891
-0.29596306
-0.31241043
-0.34015609
-0.34722285
-0.35767358
-0.28622987
-0.23716326
-0.23717256
-0.23718369
-0.23719545
-0.23720836
-0.23722264
-0.23723839
-0.23725572
-0.23727477
-0.23729567
-0.23731855
-0.23734356
-0.23737082
-0.23740046
-0.23743259
-0.23746733
-0.2375048
-0.2375451
-0.23758839
-0.23763488
-0.23768492
-0.2377391
-0.23779845
-0.23786475
-0.23794101
-0.23803228
-0.2381468
-0.23829745
-0.23850335
-0.23879036
-0.23918882
-0.23972703
-0.24042126
-0.24126665
-0.24223413
-0.2432753
-0.24433258
-0.24534982
-0.24628029
-0.24709102
-0.24776372
-0.24829299
-0.24868166
-0.24893708
-0.24907034
-0.24908846
-0.24899119
-0.24877929
-0.2484549
-0.24803759
-0.24755085
-0.24710509
-0.24678584
-0.24698316
-0.24809455
-0.25149224
-0.25695706
-0.26626533
-0.27716067
-0.29581558
-0.314155
-0.34247513
-0.34981326
-0.35856795
-0.28516942
-0.23756878
-0.23757549
-0.23758344
-0.23759196
-0.23760132
-0.2376117
-0.23762318
-0.23763586
-0.23764986
-0.23766528
-0.23768225
-0.23770089
-0.23772133
-0.23774368
-0.23776807
-0.23779462
-0.23782344
-0.23785467
-0.23788846
-0.23792504
-0.23796472
-0.23800805
-0.23805595
-0.23810993
-0.23817258
-0.23824818
-0.23834369
-0.23847006
-0.23864365
-0.23888694
-0.23922696
-0.23969007
-0.24029328
-0.24103557
-0.24189396
-0.24282655
-0.24378112
-0.24470484
-0.2455521
-0.24628903
-0.24689482
-0.2473604
-0.24768433
-0.24786924
-0.24792044
-0.24784073
-0.24762655
-0.24727507
-0.24678664
-0.24617959
-0.24547737
-0.24479876
-0.24423633
-0.24422783
-0.24548258
-0.24908118
-0.25452603
-0.26367317
-0.27488683
-0.29442228
-0.31432065
-0.34227333
-0.34873867
-0.35367241
-0.27907076
-0.23803829
-0.23804234
-0.23804714
-0.2380523
-0.238058
-0.23806435
-0.23807141
-0.23807926
-0.238088
-0.23809772
-0.23810853
-0.23812053
-0.23813383
-0.23814855
-0.23816482
-0.23818274
-0.23820245
-0.23822408
-0.23824781
-0.23827386
-0.23830254
-0.23833435
-0.23837008
-0.23841104
-0.23845939
-0.23851869
-0.23859467
-0.23869638
-0.23883745
-0.23903687
-0.23931812
-0.23970515
-0.24021507
-0.24085022
-0.24159359
-0.24241016
-0.24325366
-0.24407533
-0.2448313
-0.24548733
-0.24602039
-0.24641784
-0.24667404
-0.24678673
-0.24675508
-0.24657724
-0.24624571
-0.24575319
-0.24509792
-0.24429603
-0.24336901
-0.24244083
-0.24157318
-0.24156665
-0.24288782
-0.24640649
-0.25156692
-0.26032144
-0.27217646
-0.29214512
-0.31265557
-0.33890483
-0.34382748
-0.34121784
-0.26812419
-0.23854034
-0.23854174
-0.2385434
-0.23854522
-0.23854726
-0.23854958
-0.23855222
-0.23855524
-0.23855872
-0.23856272
-0.23856732
-0.23857263
-0.23857872
-0.23858572
-0.23859373
-0.23860287
-0.23861328
-0.2386251
-0.2386385
-0.23865372
-0.23867105
-0.23869096
-0.23871414
-0.2387417
-0.23877542
-0.23881818
-0.2388746
-0.23895193
-0.23906117
-0.23921788
-0.23944184
-0.23975417
-0.24017138
-0.24069836
-0.24132359
-0.24201897
-0.2427447
-0.24345675
-0.24411375
-0.24468169
-0.24513583
-0.24546023
-0.24564521
-0.24568369
-0.24556846
-0.24529241
-0.24484347
-0.24420892
-0.24338412
-0.24238088
-0.24121906
-0.24001016
-0.23888236
-0.23889826
-0.24014025
-0.24325288
-0.24792544
-0.2565452
-0.26861556
-0.28883032
-0.3085993
-0.33258091
-0.33265336
-0.32395657
-0.25474008
-0.23904481
-0.23904368
-0.23904235
-0.23904096
-0.2390395
-0.23903795
-0.23903634
-0.23903472
-0.23903311
-0.23903158
-0.23903018
-0.23902898
-0.23902806
-0.23902751
-0.23902744
-0.23902794
-0.23902917
-0.23903126
-0.23903438
-0.23903878
-0.23904473
-0.23905266
-0.23906317
-0.23907721
-0.23909621
-0.23912245
-0.23915956
-0.23921316
-0.23929182
-0.23940787
-0.23957738
-0.23981838
-0.24014604
-0.24056664
-0.24107349
-0.24164515
-0.24224841
-0.24284456
-0.24339547
-0.24386814
-0.24423678
-0.24448264
-0.24459228
-0.24455393
-0.24435416
-0.24397989
-0.24341349
-0.24263586
-0.24163884
-0.24042584
-0.23901233
-0.23746541
-0.23626463
-0.23607255
-0.23700221
-0.23950654
-0.24378522
-0.2522459
-0.26410216
-0.2838137
-0.30191133
-0.32181705
-0.31593001
-0.30331586
-0.23536987
-0.23952216
-0.23951872
-0.23951466
-0.23951035
-0.23950567
-0.23950058
-0.23949508
-0.23948918
-0.2394829
-0.23947625
-0.23946929
-0.23946204
-0.23945458
-0.23944697
-0.23943929
-0.23943165
-0.23942417
-0.23941698
-0.23941027
-0.23940424
-0.23939918
-0.23939546
-0.23939362
-0.23939442
-0.23939903
-0.23940921
-0.23942769
-0.23945869
-0.23950864
-0.23958681
-0.23970566
-0.23988047
-0.24012443
-0.24044343
-0.24083439
-0.24128219
-0.24176015
-0.24223532
-0.24267359
-0.24304377
-0.24331987
-0.24348104
-0.24351038
-0.24339165
-0.24310589
-0.24263302
-0.24194856
-0.2410254
-0.23985056
-0.23841835
-0.23671547
-0.23483911
-0.23351194
-0.23297929
-0.23331109
-0.23519552
-0.23899942
-0.24691956
-0.2586564
-0.27663628
-0.29205958
-0.3062584
-0.29590015
-0.28059406
-0.2171971
-0.23994966
-0.23994425
-0.23993784
-0.23993102
-0.23992358
-0.23991544
-0.23990657
-0.23989697
-0.23988662
-0.23987552
-0.23986367
-0.23985111
-0.23983785
-0.23982396
-0.23980948
-0.2397945
-0.23977912
-0.23976346
-0.23974768
-0.23973197
-0.23971659
-0.23970186
-0.23968823
-0.23967632
-0.23966702
-0.23966165
-0.23966217
-0.23967157
-0.23969436
-0.23973695
-0.23980781
-0.23992537
-0.24009591
-0.2403154
-0.24059512
-0.24092209
-0.24127473
-0.24162596
-0.24194629
-0.24220721
-0.24238352
-0.24245318
-0.24239644
-0.24219268
-0.2418183
-0.24124488
-0.24044015
-0.23936593
-0.23800291
-0.23632897
-0.23426187
-0.23219425
-0.23041445
-0.22947099
-0.22898528
-0.23016061
-0.23324647
-0.24075132
-0.25101989
-0.26787001
-0.27946275
-0.28750976
-0.2755863
-0.25590741
-0.2028138
-0.2403074
-0.24030043
-0.24029217
-0.24028337
-0.24027374
-0.24026318
-0.24025163
-0.24023906
-0.24022544
-0.24021074
-0.24019494
-0.24017803
-0.24016003
-0.24014093
-0.24012079
-0.24009964
-0.24007757
-0.24005466
-0.24003105
-0.24000688
-0.23998238
-0.2399578
-0.23993349
-0.23990994
-0.23988781
-0.23986801
-0.2398519
-0.23984147
-0.23983977
-0.23985135
-0.23987976
-0.2399303
-0.24003722
-0.24018861
-0.24035485
-0.24056394
-0.240792
-0.24101717
-0.24121494
-0.24136007
-0.24142904
-0.24139957
-0.24124981
-0.24095498
-0.24048749
-0.23980866
-0.23887822
-0.23764239
-0.23607519
-0.23411418
-0.23171874
-0.22927163
-0.2270367
-0.2252907
-0.22399638
-0.22425318
-0.22654071
-0.23340384
-0.24372685
-0.25736685
-0.26379254
-0.2692133
-0.25307156
-0.23735163
-0.18838892
-0.24058842
-0.24058038
-0.24057085
-0.24056068
-0.24054954
-0.24053729
-0.24052386
-0.2405092
-0.24049326
-0.24047599
-0.24045733
-0.24043726
-0.24041575
-0.24039279
-0.24036838
-0.24034253
-0.24031529
-0.2402867
-0.24025685
-0.24022585
-0.24019383
-0.240161
-0.24012759
-0.24009393
-0.24006045
-0.24002774
-0.23999662
-0.23996828
-0.23994451
-0.23992814
-0.2399232
-0.23992987
-0.23994587
-0.24000211
-0.24009393
-0.24019705
-0.24030697
-0.24040806
-0.24048144
-0.24050574
-0.24046035
-0.24032379
-0.24007314
-0.23967976
-0.23911222
-0.23831924
-0.23725315
-0.23583462
-0.23402775
-0.23170591
-0.22902043
-0.2260043
-0.22314658
-0.22033079
-0.21799062
-0.21767932
-0.22049037
-0.2273681
-0.2349901
-0.24464133
-0.24912648
-0.24967299
-0.23520079
-0.21915494
-0.17654193
-0.24078545
-0.24077688
-0.24076671
-0.24075585
-0.24074394
-0.24073081
-0.2407164
-0.24070063
-0.24068344
-0.24066474
-0.24064448
-0.24062259
-0.24059902
-0.24057373
-0.24054668
-0.24051785
-0.24048724
-0.24045485
-0.2404207
-0.24038483
-0.2403473
-0.2403082
-0.24026762
-0.2402257
-0.24018261
-0.24013856
-0.24009385
-0.24004889
-0.24000433
-0.23996123
-0.23992146
-0.23988726
-0.23985687
-0.23984453
-0.23983312
-0.23982079
-0.23982752
-0.23980561
-0.23975373
-0.23965323
-0.23948707
-0.2392354
-0.23887498
-0.23837336
-0.23769464
-0.23677294
-0.23555228
-0.2339134
-0.23180723
-0.22916163
-0.2259605
-0.22234276
-0.21835347
-0.21464169
-0.21246043
-0.21252227
-0.21537938
-0.21950186
-0.22562043
-0.23369719
-0.23443111
-0.23262117
-0.21873039
-0.20405371
-0.16569402
-0.24090793
-0.24089936
-0.24088919
-0.24087831
-0.24086636
-0.24085317
-0.24083867
-0.24082278
-0.2408054
-0.24078646
-0.24076586
-0.24074354
-0.2407194
-0.2406934
-0.24066544
-0.24063549
-0.24060348
-0.24056937
-0.24053311
-0.24049467
-0.24045401
-0.24041108
-0.24036583
-0.24031816
-0.24026797
-0.24021509
-0.24015927
-0.24010022
-0.24003758
-0.23997103
-0.23990041
-0.23982573
-0.23974863
-0.23965983
-0.23958051
-0.23948672
-0.23936151
-0.2392241
-0.23904598
-0.23881792
-0.23852543
-0.23815048
-0.23766969
-0.23704594
-0.23623695
-0.23516588
-0.23375165
-0.23184546
-0.22937371
-0.22636043
-0.22231916
-0.21792157
-0.21375417
-0.21030562
-0.20806106
-0.20806333
-0.20843193
-0.21293135
-0.21805673
-0.22178713
-0.22052474
-0.21853539
-0.20450525
-0.19024064
-0.15610289
-0.24096216
-0.2409541
-0.2409445
-0.24093425
-0.24092299
-0.24091054
-0.24089683
-0.24088178
-0.24086529
-0.24084727
-0.24082763
-0.24080628
-0.24078312
-0.24075806
-0.24073102
-0.24070189
-0.24067059
-0.24063702
-0.24060107
-0.24056262
-0.24052153
-0.2404776
-0.24043061
-0.24038022
-0.240326
-0.24026737
-0.24020351
-0.24013341
-0.24005572
-0.23996885
-0.23987099
-0.23976013
-0.23963485
-0.23949187
-0.2393309
-0.23914569
-0.23892763
-0.23867455
-0.23837407
-0.23801872
-0.2375962
-0.23708944
-0.23647409
-0.23570546
-0.23473473
-0.23346957
-0.2318029
-0.22953194
-0.22668499
-0.22271371
-0.21841868
-0.21433874
-0.21015403
-0.20632538
-0.20410916
-0.20283926
-0.20353698
-0.20764297
-0.20892644
-0.21081605
-0.20897067
-0.20521168
-0.19139118
-0.1780998
-0.14737678
-0.24096745
-0.24096037
-0.24095187
-0.24094287
-0.24093296
-0.24092199
-0.24090989
-0.24089658
-0.24088198
-0.240866
-0.24084853
-0.24082948
-0.24080877
-0.24078627
-0.24076188
-0.2407355
-0.24070698
-0.2406762
-0.24064298
-0.24060712
-0.24056836
-0.24052639
-0.24048077
-0.24043093
-0.24037609
-0.24031521
-0.24024691
-0.24016941
-0.24008039
-0.23997702
-0.23985594
-0.23971338
-0.23954545
-0.23934798
-0.23911698
-0.23884959
-0.2385374
-0.23817661
-0.23775919
-0.23727834
-0.23672223
-0.23607238
-0.23530204
-0.23434845
-0.23316934
-0.23165091
-0.22963381
-0.22699559
-0.22345961
-0.21959579
-0.21553208
-0.21101223
-0.20644398
-0.20298912
-0.20010089
-0.19839333
-0.19970848
-0.20012002
-0.20058833
-0.20123125
-0.19768159
-0.19323951
-0.17975845
-0.16713692
-0.13945641
-0.24093424
-0.24092855
-0.24092171
-0.24091449
-0.24090655
-0.24089774
-0.24088801
-0.2408773
-0.24086553
-0.24085261
-0.24083846
-0.240823
-0.24080613
-0.24078775
-0.24076774
-0.24074598
-0.24072232
-0.24069658
-0.24066855
-0.24063795
-0.24060444
-0.24056754
-0.24052664
-0.2404809
-0.2404292
-0.24037006
-0.2403015
-0.24022095
-0.24012516
-0.24001007
-0.23987085
-0.23970201
-0.23949774
-0.23925223
-0.23896011
-0.23861688
-0.23821689
-0.23775605
-0.23722712
-0.2366225
-0.23592678
-0.2351149
-0.23414914
-0.23296152
-0.23151147
-0.22963263
-0.22723095
-0.22427341
-0.22106857
-0.2173391
-0.21256988
-0.20787019
-0.20347091
-0.19940506
-0.19612524
-0.19521198
-0.19352097
-0.1934864
-0.19266254
-0.19172267
-0.18740242
-0.18219538
-0.16904319
-0.1572272
-0.13214071
-0.24088729
-0.24088345
-0.2408788
-0.24087392
-0.24086855
-0.24086258
-0.24085597
-0.24084868
-0.24084064
-0.24083179
-0.24082208
-0.24081141
-0.24079972
-0.2407869
-0.24077285
-0.24075742
-0.24074047
-0.24072178
-0.2407011
-0.24067808
-0.24065226
-0.24062305
-0.24058963
-0.24055091
-0.24050543
-0.24045127
-0.24038587
-0.24030595
-0.24020732
-0.24008482
-0.23993227
-0.23974261
-0.23950829
-0.23922185
-0.23887638
-0.23846687
-0.23798791
-0.23743531
-0.23679927
-0.23606783
-0.23521365
-0.23420582
-0.23301402
-0.23151028
-0.22974977
-0.22754614
-0.22514864
-0.2224569
-0.21911162
-0.21472364
-0.210046
-0.20493528
-0.20012962
-0.19586565
-0.19295715
-0.1903725
-0.18780626
-0.18676778
-0.18480219
-0.1828888
-0.17769373
-0.1720117
-0.15929956
-0.14819157
-0.12536008
-0.24083602
-0.24083447
-0.24083257
-0.24083058
-0.24082838
-0.24082591
-0.24082315
-0.24082008
-0.24081667
-0.24081287
-0.24080864
-0.24080394
-0.24079868
-0.2407928
-0.24078618
-0.2407787
-0.24077018
-0.24076038
-0.24074901
-0.24073564
-0.24071972
-0.24070052
-0.24067703
-0.24064792
-0.24061143
-0.24056521
-0.24050622
-0.24043055
-0.24033325
-0.24020823
-0.24004824
-0.23984494
-0.23958933
-0.239272
-0.23888454
-0.23842181
-0.2378748
-0.23723809
-0.23649379
-0.2356248
-0.23459731
-0.23336139
-0.23186619
-0.23018371
-0.22819668
-0.22620996
-0.22391872
-0.22081124
-0.21699974
-0.21241766
-0.20691484
-0.20173366
-0.19687104
-0.19242967
-0.18866152
-0.18494178
-0.18216715
-0.18009656
-0.17723945
-0.17435597
-0.16859662
-0.16256545
-0.15027356
-0.13987938
-0.11900207
-0.24082703
-0.24082821
-0.24082964
-0.24083109
-0.24083263
-0.24083429
-0.24083607
-0.24083797
-0.24083998
-0.24084207
-0.24084424
-0.24084644
-0.24084862
-0.24085071
-0.2408526
-0.24085414
-0.24085513
-0.24085529
-0.24085425
-0.24085151
-0.24084641
-0.24083804
-0.24082523
-0.24080641
-0.24077951
-0.24074188
-0.24069006
-0.24061966
-0.24052519
-0.24039992
-0.24023579
-0.24002321
-0.23975234
-0.23941345
-0.23899397
-0.23848955
-0.23788475
-0.23717284
-0.23632354
-0.23531301
-0.23404723
-0.23261881
-0.23104084
-0.22935832
-0.22752657
-0.22542653
-0.22262458
-0.21917084
-0.21472256
-0.20915901
-0.20384542
-0.19858842
-0.19302536
-0.188093
-0.18351135
-0.17984319
-0.17631283
-0.17343062
-0.16980782
-0.16622511
-0.15999612
-0.15374449
-0.14191086
-0.13218872
-0.1130097
-0.24088447
-0.24088863
-0.24089357
-0.24089875
-0.24090437
-0.24091052
-0.24091722
-0.24092448
-0.24093232
-0.24094074
-0.24094975
-0.2409593
-0.24096937
-0.24097986
-0.24099066
-0.24100158
-0.2410124
-0.24102276
-0.24103222
-0.24104018
-0.24104584
-0.24104816
-0.24104577
-0.24103692
-0.24101933
-0.24099013
-0.24094564
-0.24088128
-0.24079142
-0.24066917
-0.2405066
-0.2402952
-0.2400278
-0.23967355
-0.23922909
-0.2387086
-0.23805884
-0.23728312
-0.23630634
-0.23514877
-0.23388303
-0.23241314
-0.23088988
-0.22925849
-0.22716602
-0.22459944
-0.22128453
-0.21693643
-0.21146395
-0.20611654
-0.20066009
-0.19430594
-0.18853711
-0.18330564
-0.17867726
-0.17437559
-0.17034425
-0.16680137
-0.16256042
-0.15838355
-0.1518304
-0.1454643
-0.13407816
-0.12500668
-0.10731172
-0.24112062
-0.24112755
-0.24113575
-0.24114443
-0.24115388
-0.24116423
-0.24117551
-0.24118775
-0.24120098
-0.24121523
-0.24123049
-0.24124674
-0.24126391
-0.24128192
-0.24130061
-0.24131976
-0.24133907
-0.24135814
-0.24137641
-0.24139319
-0.24140755
-0.24141833
-0.24142404
-0.2414228
-0.24141225
-0.24138946
-0.24135083
-0.24129189
-0.24120711
-0.24109038
-0.24093951
-0.24072339
-0.24042488
-0.24006339
-0.23962543
-0.23906932
-0.2383772
-0.23757677
-0.23663294
-0.23547049
-0.23421617
-0.23284493
-0.23122319
-0.22926239
-0.22674927
-0.22346858
-0.21917385
-0.21377895
-0.2084024
-0.20286702
-0.19603416
-0.18968046
-0.1839195
-0.17851582
-0.17340394
-0.16877336
-0.16427715
-0.16018229
-0.15543603
-0.15081788
-0.14403788
-0.13763908
-0.1267056
-0.11825736
-0.10186278
-0.2415756
-0.24158461
-0.24159524
-0.24160651
-0.24161879
-0.24163222
-0.24164685
-0.24166272
-0.24167987
-0.24169831
-0.24171804
-0.24173901
-0.24176117
-0.24178437
-0.24180843
-0.24183307
-0.24185792
-0.2418825
-0.24190615
-0.24192808
-0.24194723
-0.24196232
-0.24197174
-0.24197353
-0.24196527
-0.24194403
-0.24190629
-0.24184773
-0.2417626
-0.24164498
-0.24147249
-0.24126654
-0.24102564
-0.24069992
-0.24028558
-0.23976971
-0.2391107
-0.2382721
-0.23734479
-0.23626849
-0.23497526
-0.23344549
-0.2315414
-0.22908084
-0.22577571
-0.22151156
-0.21615046
-0.2107241
-0.20514992
-0.19807974
-0.19128191
-0.18511455
-0.17908286
-0.17336825
-0.16800505
-0.16300601
-0.15811321
-0.15357642
-0.14843284
-0.14347532
-0.13655886
-0.13019988
-0.11970998
-0.11186218
-0.096614818
-0.24240685
-0.24241644
-0.24242775
-0.24243975
-0.2424528
-0.24246707
-0.24248261
-0.24249944
-0.2425176
-0.24253711
-0.24255794
-0.24258004
-0.24260332
-0.24262761
-0.2426527
-0.24267827
-0.2427039
-0.24272905
-0.24275301
-0.24277491
-0.24279366
-0.24280794
-0.24281613
-0.24281632
-0.24280618
-0.24278288
-0.24274357
-0.24268489
-0.24258693
-0.24246433
-0.24234519
-0.2421695
-0.24189206
-0.24154538
-0.24112922
-0.24062811
-0.24000886
-0.23923322
-0.23829401
-0.23714821
-0.23573171
-0.23392138
-0.23148208
-0.22820958
-0.22396271
-0.21862774
-0.21313088
-0.20751651
-0.20031535
-0.19319622
-0.1866933
-0.18020655
-0.17395598
-0.16803741
-0.16237626
-0.15708036
-0.15185955
-0.146969
-0.14151812
-0.13632328
-0.12934425
-0.12308206
-0.11303052
-0.10576202
-0.091531856
-0.24359832
-0.24360705
-0.24361734
-0.24362824
-0.24364009
-0.24365302
-0.24366706
-0.24368225
-0.24369858
-0.24371607
-0.24373466
-0.24375427
-0.24377479
-0.24379601
-0.24381766
-0.24383939
-0.24386071
-0.24388101
-0.2438995
-0.24391521
-0.24392697
-0.24393333
-0.24393261
-0.24392276
-0.24390098
-0.24386376
-0.24381796
-0.24376808
-0.24370928
-0.24357822
-0.24337088
-0.24316471
-0.24292029
-0.24259228
-0.24217747
-0.24164241
-0.24098267
-0.24017966
-0.23918853
-0.23791776
-0.23621432
-0.23387094
-0.23066242
-0.22649052
-0.22120605
-0.21563567
-0.2099755
-0.20270606
-0.19533716
-0.18856955
-0.18171533
-0.17504877
-0.16860981
-0.1624584
-0.15656159
-0.15100764
-0.14551483
-0.14035077
-0.13467445
-0.12932399
-0.12234582
-0.11622996
-0.10660856
-0.099901088
-0.086578871
-0.24521542
-0.24522224
-0.24523027
-0.24523875
-0.24524792
-0.24525788
-0.24526865
-0.24528021
-0.24529256
-0.24530565
-0.24531939
-0.24533367
-0.24534831
-0.24536306
-0.24537757
-0.24539141
-0.245404
-0.24541462
-0.24542236
-0.2454261
-0.24542454
-0.24541605
-0.24539829
-0.24536843
-0.24533284
-0.2452967
-0.24524865
-0.24514574
-0.24498392
-0.24481891
-0.24463128
-0.24438285
-0.24407604
-0.24369372
-0.2432272
-0.24265441
-0.24194945
-0.2410677
-0.23992233
-0.23835362
-0.23613545
-0.23306852
-0.22899356
-0.22384115
-0.21821855
-0.21252261
-0.20524796
-0.19767993
-0.1906736
-0.1835334
-0.17649852
-0.16964727
-0.16300417
-0.15665772
-0.15054753
-0.14478012
-0.13907326
-0.13370676
-0.12787667
-0.12244479
-0.11552204
-0.1095932
-0.10039568
-0.094233684
-0.081726787
-0.24721309
-0.2472178
-0.2472233
-0.24722904
-0.24723519
-0.24724178
-0.24724878
-0.24725615
-0.24726382
-0.2472717
-0.24727964
-0.24728744
-0.24729483
-0.24730147
-0.24730689
-0.24731051
-0.24731157
-0.24730915
-0.24730211
-0.24728907
-0.24726824
-0.24723724
-0.24719571
-0.24714836
-0.24708678
-0.24698681
-0.24684589
-0.2466871
-0.24650626
-0.2462824
-0.2460114
-0.24568503
-0.24529816
-0.24484081
-0.24429734
-0.24364561
-0.24284141
-0.24179575
-0.24034971
-0.23827865
-0.23535954
-0.23147315
-0.22642433
-0.22086339
-0.21514792
-0.20793346
-0.2002141
-0.19298776
-0.1856018
-0.17825744
-0.17102511
-0.16397662
-0.15715033
-0.15062304
-0.14433471
-0.1383968
-0.13252789
-0.12702279
-0.12110345
-0.11565358
-0.10883366
-0.10312722
-0.094347843
-0.08871887
-0.076948851
-0.24964581
-0.24964886
-0.24965236
-0.2496559
-0.24965955
-0.24966329
-0.24966704
-0.24967069
-0.24967411
-0.2496771
-0.24967942
-0.24968075
-0.24968066
-0.24967863
-0.24967398
-0.24966586
-0.24965323
-0.24963478
-0.24960895
-0.24957374
-0.24952697
-0.24946781
-0.24939194
-0.24929225
-0.24916058
-0.24900143
-0.24881674
-0.24859368
-0.24832648
-0.24800997
-0.24764126
-0.24721818
-0.24673312
-0.24617641
-0.24553025
-0.24475276
-0.24375545
-0.24238656
-0.24042743
-0.23765626
-0.23395579
-0.22917136
-0.22361589
-0.21798965
-0.21081504
-0.20295751
-0.1955166
-0.18791444
-0.18028129
-0.1727135
-0.16526872
-0.15803309
-0.15103294
-0.14434921
-0.13791439
-0.13184764
-0.12586724
-0.12028192
-0.11433163
-0.10892061
-0.10224573
-0.096791845
-0.088427145
-0.083321873
-0.07222168
-0.25265152
-0.25265312
-0.25265484
-0.25265639
-0.25265774
-0.2526588
-0.25265941
-0.2526594
-0.25265852
-0.25265646
-0.25265283
-0.25264714
-0.25263875
-0.25262689
-0.25261058
-0.25258864
-0.2525596
-0.25252168
-0.25247275
-0.25241029
-0.25233142
-0.2522327
-0.25210851
-0.25195605
-0.25177241
-0.25155133
-0.2512873
-0.25097509
-0.25061153
-0.25019536
-0.24972248
-0.24918855
-0.24858847
-0.24790607
-0.2471017
-0.2460926
-0.24473279
-0.24282485
-0.24014093
-0.236576
-0.2320151
-0.22651826
-0.22090589
-0.21378956
-0.20590498
-0.19824242
-0.19046478
-0.18256772
-0.17467585
-0.16686828
-0.15921504
-0.15179752
-0.1446402
-0.13782393
-0.13127638
-0.1251224
-0.11907857
-0.11346697
-0.10753925
-0.10221749
-0.09572578
-0.090551021
-0.082599824
-0.078011195
-0.067527165
-0.25651675
-0.25651619
-0.25651527
-0.25651389
-0.25651188
-0.25650906
-0.25650519
-0.25649997
-0.25649304
-0.25648393
-0.25647208
-0.25645676
-0.25643711
-0.25641205
-0.25638025
-0.25634013
-0.25628975
-0.25622682
-0.2561486
-0.25605192
-0.2559331
-0.25578797
-0.25561187
-0.25539985
-0.25514645
-0.25484635
-0.25449525
-0.25408984
-0.25362604
-0.25310049
-0.25251097
-0.25185132
-0.25110527
-0.25023366
-0.24915677
-0.24773964
-0.24579443
-0.2431233
-0.23957409
-0.23513699
-0.22965015
-0.22391893
-0.21698245
-0.20892847
-0.20121348
-0.19324997
-0.18512561
-0.17692532
-0.16875168
-0.16070046
-0.1528389
-0.1452498
-0.13795368
-0.13103203
-0.12440643
-0.11820676
-0.11214653
-0.10655937
-0.10070412
-0.095517534
-0.089244558
-0.084372272
-0.076836453
-0.072761328
-0.062846696
-0.26152843
-0.26152413
-0.26151869
-0.26151236
-0.26150477
-0.26149559
-0.26148448
-0.261471
-0.26145464
-0.26143474
-0.26141052
-0.26138101
-0.26134504
-0.26130122
-0.26124783
-0.26118286
-0.26110388
-0.26100807
-0.26089211
-0.26075221
-0.26058404
-0.26038276
-0.26014311
-0.25985984
-0.25952789
-0.25914219
-0.25869773
-0.25819025
-0.25761641
-0.25697173
-0.25624766
-0.25542474
-0.25446125
-0.25327799
-0.25174645
-0.24969274
-0.24692913
-0.24331572
-0.23878564
-0.23331987
-0.22739289
-0.22056029
-0.21247001
-0.20456628
-0.19648397
-0.18803592
-0.17950153
-0.17095028
-0.16247725
-0.15417519
-0.14611001
-0.13836344
-0.13095127
-0.12395426
-0.11728751
-0.11108451
-0.10505433
-0.099540151
-0.093804808
-0.088795435
-0.082775045
-0.078225313
-0.071110854
-0.067542909
-0.058169113
-0.26802167
-0.26801158
-0.2679992
-0.26798531
-0.26796926
-0.26795053
-0.26792865
-0.26790301
-0.2678729
-0.26783746
-0.26779563
-0.26774617
-0.26768757
-0.26761806
-0.26753553
-0.26743751
-0.26732108
-0.26718288
-0.26701904
-0.26682522
-0.2665967
-0.26632839
-0.26601494
-0.26565064
-0.26522985
-0.26474735
-0.26419813
-0.2635768
-0.26287605
-0.26208318
-0.26117359
-0.26010051
-0.25878283
-0.2570956
-0.25487628
-0.25195051
-0.24818566
-0.24351552
-0.23791511
-0.23169849
-0.22483118
-0.21670158
-0.20852497
-0.20016872
-0.1913726
-0.18245565
-0.17349594
-0.1645789
-0.15579903
-0.14724816
-0.13899082
-0.13110675
-0.12360595
-0.11656757
-0.1098993
-0.10373686
-0.09778366
-0.092389849
-0.086820353
-0.082027683
-0.076293233
-0.072083525
-0.065400693
-0.062334929
-0.053490677
-0.27629006
-0.27627187
-0.2762498
-0.27622543
-0.27619771
-0.27616589
-0.27612932
-0.27608723
-0.27603866
-0.2759825
-0.27591744
-0.27584192
-0.27575413
-0.27565184
-0.27553255
-0.2753934
-0.27523103
-0.27504168
-0.27482108
-0.27456452
-0.27426682
-0.27392247
-0.27352578
-0.2730709
-0.2725518
-0.27196202
-0.27129378
-0.27053609
-0.26967098
-0.26866717
-0.26747108
-0.26599665
-0.26411973
-0.26168258
-0.25852422
-0.25451322
-0.24959339
-0.24374645
-0.23722416
-0.23006304
-0.22177998
-0.21319624
-0.20445303
-0.1952502
-0.18590147
-0.1764699
-0.16705331
-0.15775426
-0.1486632
-0.13987161
-0.13144002
-0.12344446
-0.11588795
-0.10884665
-0.10221996
-0.096144017
-0.090315583
-0.085089069
-0.07973074
-0.075192228
-0.069777513
-0.065922391
-0.059687563
-0.057121174
-0.048753035
-0.28666067
-0.28663197
-0.28659734
-0.28655944
-0.28651678
-0.28646832
-0.28641322
-0.28635044
-0.28627869
-0.28619659
-0.28610399
-0.28600058
-0.28587898
-0.28573332
-0.28556767
-0.2853807
-0.28516544
-0.28491762
-0.28463277
-0.28430582
-0.28393125
-0.28350308
-0.28301484
-0.28245931
-0.28182794
-0.28110962
-0.28028832
-0.27933913
-0.27822221
-0.276875
-0.27520445
-0.2730837
-0.27036014
-0.26687724
-0.26252007
-0.2572137
-0.25098984
-0.24401914
-0.23642811
-0.22777331
-0.21874767
-0.2094854
-0.19979317
-0.18992181
-0.17994006
-0.16995375
-0.1600693
-0.15038637
-0.1409946
-0.13198238
-0.12340474
-0.11533267
-0.10776111
-0.10076161
-0.094224412