/*--------------------------------*- C++ -*----------------------------------*\
  =========                 |
  \\      /  F ield         | OpenFOAM: The Open Source CFD Toolbox
   \\    /   O peration     | Website:  https://openfoam.org
    \\  /    A nd           | Version:  13
     \\/     M anipulation  |
\*---------------------------------------------------------------------------*/
FoamFile
{
    format      ascii;
    class       volVectorField;
    location    "31.897967";
    object      wallShearStress;
}
// * * * * * * * * * * * * * * * * * * * * * * * * * * * * * * * * * * * * * //

dimensions      [0 2 -2 0 0 0 0];

internalField   uniform (0 0 0);

boundaryField
{
    inlet
    {
        type            calculated;
        value           uniform (0 0 0);
    }
    outlet
    {
        type            calculated;
        value           uniform (0 0 0);
    }
    cylinder
    {
        type            calculated;
        value           nonuniform List<vector> 
132
(
(1.3765613e-05 -0.00071314489 -2.5954124e-22)
(4.5987761e-05 -0.0010309596 7.4038179e-23)
(9.6797355e-05 -0.0013489494 4.0931301e-21)
(0.00016589424 -0.0016616979 -1.3748422e-20)
(0.00025279663 -0.0019634543 9.7122228e-21)
(0.00035635752 -0.0022481661 2.9695087e-20)
(0.0004747239 -0.0025097061 -5.6294883e-21)
(0.00060529582 -0.0027421044 -2.2313991e-20)
(0.00074477974 -0.0029397997 2.1043205e-20)
(0.00088936497 -0.0030978843 -4.7208764e-20)
(0.0010346895 -0.0032124017 -8.5962149e-22)
(0.0011760947 -0.0032806589 2.936974e-20)
(0.0013088688 -0.003301475 4.7938249e-20)
(0.0014285409 -0.0032753917 -3.8975073e-20)
(0.0015312689 -0.0032049169 4.1080552e-20)
(0.0016141289 -0.0030944083 6.6190031e-20)
(0.0016755809 -0.0029501941 -4.3419436e-20)
(0.001715775 -0.0027803192 6.9725038e-20)
(0.0017369485 -0.0025943405 9.2286251e-20)
(0.0017438005 -0.002403096 -5.9923095e-20)
(0.0017436356 -0.0022180472 -7.6446987e-20)
(0.0017466777 -0.0020509564 2.6921096e-23)
(0.0017662361 -0.0019133244 1.1108419e-20)
(0.0018180693 -0.0018150692 -1.3310312e-20)
(0.001919576 -0.0017634207 -2.2660824e-20)
(0.0020861682 -0.0017597978 4.8501639e-21)
(0.0023283605 -0.0017987168 -4.3824154e-20)
(0.00264397 -0.0018641543 1.1717727e-20)
(0.0030181388 -0.0019336122 9.2082902e-21)
(0.0034208404 -0.0019802797 -6.3470102e-20)
(0.0038074777 -0.0019772022 8.2892502e-20)
(0.0041389644 -0.0019101475 2.5110462e-21)
(0.00437585 -0.0017732032 1.8119421e-20)
(0.0044469165 -0.0015574302 -2.1496043e-20)
(0.0042464655 -0.0012583824 6.8387755e-20)
(0.0036236407 -0.00088257364 -4.3304576e-21)
(0.0024032971 -0.0004635333 1.7484647e-20)
(0.00036591389 -6.6075123e-05 -2.401749e-21)
(-0.0026713262 0.00019365068 3.4439067e-21)
(-0.0068689066 0.00015124177 -2.1445752e-21)
(-0.012596328 -0.00041902081 3.9925194e-21)
(-0.019750115 -0.0018347399 -1.2258821e-22)
(-0.027700018 -0.0042607182 4.4712178e-20)
(-0.035994098 -0.0077741618 -1.7135062e-20)
(-0.044054758 -0.012330174 1.5382805e-20)
(-0.051440099 -0.017801046 -9.838786e-20)
(-0.057695639 -0.02394733 -1.5810983e-20)
(-0.062557499 -0.03050327 1.3849147e-19)
(-0.065838134 -0.037170245 -1.1796022e-19)
(-0.067484495 -0.043661834 -2.2525559e-21)
(-0.067500924 -0.049689509 3.599647e-20)
(-0.06601835 -0.055031606 -3.2957397e-20)
(-0.063134045 -0.059432336 -6.53134e-21)
(-0.059069322 -0.062741498 -4.2584793e-21)
(-0.054064747 -0.064851929 -7.1295053e-21)
(-0.048300492 -0.065608037 -1.9155755e-21)
(-0.042055152 -0.064996545 5.5457359e-22)
(-0.03556085 -0.062984644 4.6770028e-20)
(-0.029062221 -0.059601425 -7.2600076e-20)
(-0.022789133 -0.054906292 -7.8133136e-20)
(-0.016956217 -0.048993657 -3.1886198e-20)
(-0.011757891 -0.041990093 -7.3374817e-20)
(-0.0073636488 -0.034049943 1.6417445e-20)
(-0.0039120219 -0.025351192 2.394314e-20)
(-0.0015164338 -0.016108356 -3.728643e-20)
(-0.00023693985 -0.0064895251 -4.9901239e-21)
(-1.540599e-06 -0.00039753466 -1.1913306e-21)
(1.6418431e-07 -8.3177621e-05 -7.0782736e-23)
(1.9405527e-05 0.00022726926 -4.0511421e-21)
(5.4974437e-05 0.00052907119 1.3538183e-20)
(0.00010685984 0.00081702513 -9.5213832e-21)
(0.00017345584 0.0010860558 -2.8983714e-20)
(0.00025285755 0.0013313999 5.470809e-21)
(0.00034267219 0.0015487389 2.1593015e-20)
(0.00044007161 0.0017344005 -2.0279239e-20)
(0.00054190947 0.0018855697 4.5314194e-20)
(0.00064481981 0.0020004403 8.2203716e-22)
(0.0007455018 0.0020784169 -2.7984046e-20)
(0.00084084956 0.0021200865 -4.5524676e-20)
(0.00092821879 0.0021275304 3.6899585e-20)
(0.0010055528 0.002103961 -3.8785589e-20)
(0.0010718682 0.0020542114 -6.2338462e-20)
(0.0011271546 0.0019838921 4.0805669e-20)
(0.0011730388 0.0019000605 -6.5407797e-20)
(0.0012126966 0.0018103999 -8.6442127e-20)
(0.0012511345 0.0017231004 5.6060382e-20)
(0.0012958484 0.0016471958 7.1453396e-20)
(0.0013561696 0.0015910302 6.3999178e-20)
(0.0014441262 0.0015628823 5.2589028e-20)
(0.0015727915 0.0015686619 1.2424976e-20)
(0.0017552345 0.0016110148 2.115353e-20)
(0.0020017348 0.0016873905 -4.5283093e-21)
(0.0023136271 0.0017865213 4.0928745e-20)
(0.002681058 0.0018899005 -1.0947771e-20)
(0.0030801577 0.0019733304 -8.6072106e-21)
(0.0034778274 0.0020134595 5.9352087e-20)
(0.0038476753 0.0019982954 -7.7543231e-20)
(0.0041577327 0.001919056 -2.3365561e-21)
(0.0043627102 0.0017681921 3.8612604e-20)
(0.004388741 0.0015374929 2.0156726e-20)
(0.0041222455 0.0012222666 -6.4219972e-20)
(0.0034017268 0.00082974365 4.0740595e-21)
(0.0020484314 0.00039775935 1.2022563e-20)
(-0.00015799974 -2.9615945e-06 2.270049e-21)
(-0.003403543 -0.00025296704 -3.262857e-21)
(-0.0078129971 -0.00017618042 2.0366032e-21)
(-0.013754258 0.00045524535 -3.7985683e-21)
(-0.021090186 0.0019573329 3.0784525e-20)
(-0.029135695 0.004479619 -4.256649e-20)
(-0.037439058 0.0080843526 1.6288411e-20)
(-0.045429606 0.012713345 -1.4582154e-20)
(-0.052652938 0.018219064 9.286823e-20)
(-0.05868785 0.024356872 1.4840159e-20)
(-0.063294274 0.030860196 -1.2900725e-19)
(-0.066292705 0.037424569 1.0879732e-19)
(-0.067665322 0.043776486 2.0498498e-21)
(-0.067403477 0.049615394 -3.2126825e-20)
(-0.065690651 0.054756055 2.8570642e-20)
(-0.062574776 0.058903022 -4.3236667e-20)
(-0.058316803 0.06193952 3.1058886e-21)
(-0.053188496 0.063797815 -3.8939621e-21)
(-0.047313745 0.064264179 5.6484982e-21)
(-0.04100882 0.063375391 -7.4829533e-22)
(-0.034493466 0.061089245 -5.5270065e-20)
(-0.028013539 0.057444739 8.11156e-20)
(-0.021796659 0.052507316 8.457273e-20)
(-0.016053779 0.046375539 3.3800142e-20)
(-0.010975937 0.039182114 7.6603319e-20)
(-0.0067275845 0.031083866 -1.6935978e-20)
(-0.0034422689 0.022264469 4.8497152e-20)
(-0.0012274896 0.012929019 3.7744904e-20)
(-0.00014263413 0.0032915763 5.0131847e-21)
)
;
    }
    frontAndBack
    {
        type            empty;
    }
}


// ************************************************************************* //
