/*--------------------------------*- C++ -*----------------------------------*\
  =========                 |
  \\      /  F ield         | OpenFOAM: The Open Source CFD Toolbox
   \\    /   O peration     | Website:  https://openfoam.org
    \\  /    A nd           | Version:  13
     \\/     M anipulation  |
\*---------------------------------------------------------------------------*/
FoamFile
{
    format      ascii;
    class       volScalarField;
    location    "45.803496";
    object      omega;
}
// * * * * * * * * * * * * * * * * * * * * * * * * * * * * * * * * * * * * * //

dimensions      [0 0 -1 0 0 0 0];

internalField   nonuniform List<scalar> 
17140
(
3736295.3
603677.93
185335.27
78621.661
40006.333
22786.777
13994.058
9063.8766
6105.5434
4237.5881
3010.6754
2179.252
1601.4613
1191.5593
895.74115
679.16683
518.66813
398.48357
307.6781
238.53499
185.52729
144.64481
112.94464
88.245599
68.917242
53.732218
41.761856
32.301769
24.818435
18.910125
14.276516
10.691672
7.9769816
5.9762062
4.5410694
3.5326434
2.8317126
2.3457973
2.0088272
1.7759857
1.6176458
1.514361
1.4556349
1.4315299
1.4307719
1.4540451
1.4985396
1.5621583
1.6436782
1.7426688
1.8592711
1.993069
2.1403268
2.2946262
2.4536813
2.6148847
2.770653
2.9140789
3.0636419
3.2948775
3.7403795
3.8430329
3.3345605
3.2587895
3.1490263
3736320.9
603682.56
185336.97
78622.537
40006.859
22787.128
13994.307
9064.0631
6105.6885
4237.7045
3010.7712
2179.3326
1601.5304
1191.6196
895.7947
679.21519
518.71253
398.52505
307.71756
238.57324
185.5651
144.68294
112.98382
88.286539
68.960595
53.778507
41.811371
32.35441
24.873532
18.966277
14.331561
10.742946
8.0219482
6.0132284
4.5698951
3.5542142
2.8472973
2.3566971
2.0161403
1.7805448
1.6200395
1.5149892
1.4547028
1.4294621
1.4276765
1.4498138
1.4931814
1.5555836
1.6356641
1.7328033
1.8468667
1.9771104
2.119504
2.2671011
2.4174899
2.5684695
2.7154558
2.8576861
3.0309438
3.3339384
3.999676
3.9073228
3.2255258
3.1546217
3.1677607
3736345.9
603686.66
185338.24
78623.081
40007.141
22787.293
13994.413
9064.1372
6105.7441
4237.7493
3010.8099
2179.3679
1601.5643
1191.6533
895.82912
679.25103
518.75034
398.56526
307.76056
238.61937
185.61472
144.73638
113.04143
88.348643
69.027447
53.850211
41.887748
32.434819
24.956643
19.049881
14.412532
10.817595
8.0868746
6.0664182
4.6111886
3.5848417
2.8693022
2.3721098
2.026639
1.7873758
1.6240813
1.5168494
1.4547206
1.4281983
1.425361
1.4464191
1.4888296
1.5503117
1.6294121
1.7253925
1.8379677
1.966229
2.1059208
2.2500234
2.3966941
2.5449724
2.6941777
2.8493707
3.0467065
3.4872978
4.1122741
3.9445271
3.1541554
2.9382333
3.1297587
3736372.1
603690.93
185339.57
78623.649
40007.435
22787.466
13994.526
9064.2174
6105.8058
4237.8005
3010.8553
2179.4107
1601.6064
1191.6963
895.8739
679.29846
518.80105
398.61979
307.81937
238.6829
185.68337
144.81051
113.12139
88.434691
69.119734
53.948668
41.991943
32.543743
25.06846
19.161691
14.520314
10.916631
8.172824
6.1366317
4.6654178
3.6249718
2.8981436
2.3924161
2.0406431
1.7967339
1.6299695
1.5200909
1.4558046
1.4278312
1.4238893
1.4438985
1.4854968
1.5463202
1.6248453
1.7202735
1.8322786
1.9599299
2.0987758
2.2429661
2.3911043
2.5437072
2.7013981
2.8736537
3.1114765
3.772583
4.1728967
3.9748287
3.0953335
2.5788754
2.9752975
3736400.1
603695.47
185340.97
78624.245
40007.742
22787.648
13994.646
9064.3041
6105.874
4237.8585
3010.9081
2179.4615
1601.6575
1191.7492
895.92976
679.35816
518.86533
398.68927
307.89459
238.76434
185.77145
144.90563
113.22387
88.544757
69.237446
54.073808
42.123845
32.681049
25.208817
19.30148
14.65465
11.039866
8.2797536
6.2240729
4.7331714
3.6753098
2.9344873
2.4181608
2.0585847
1.8089647
1.6379856
1.524947
1.458149
1.4285203
1.4233969
1.442399
1.4833301
1.5437515
1.6220912
1.7175365
1.8298301
1.9580988
2.0980839
2.2451259
2.3978714
2.5590133
2.735519
2.9431272
3.2414098
3.9989578
4.2427806
4.0095769
3.027053
2.1580408
2.6803483
3736429.1
603700.15
185342.41
78624.86
40008.063
22787.839
13994.773
9064.3968
6105.9482
4237.9226
3010.9676
2179.5197
1601.7168
1191.8111
895.99566
679.42902
518.94197
398.77238
307.98478
238.86213
185.87732
145.01997
113.34696
88.676781
69.378357
54.223242
42.280933
32.844166
25.375276
19.467234
14.814203
11.186761
8.4078974
6.3295523
4.8154321
3.7367858
2.9791231
2.4499911
2.0809886
1.8244983
1.6484912
1.531731
1.4620289
1.4305022
1.4241159
1.4421876
1.4826269
1.5429438
1.6215358
1.7175956
1.8309649
1.9607686
2.1036875
2.2564251
2.41915
2.5992746
2.8087007
3.0439713
3.400525
4.1670783
4.345606
4.045766
2.8615179
1.7368825
2.1940288
3736459.3
603704.98
185343.88
78625.496
40008.396
22788.038
13994.906
9064.4951
6106.0277
4237.9923
3011.033
2179.5844
1601.7831
1191.881
896.07041
679.50973
519.02953
398.86757
308.08826
238.97449
185.99906
145.15151
113.4886
88.82866
69.540391
54.394988
42.461407
33.031573
25.566665
19.658162
14.998603
11.357409
8.5577865
6.4539131
4.9131992
3.8103963
3.0329447
2.488664
2.1084841
1.8438631
1.6619432
1.5408556
1.4678312
1.4341383
1.4263894
1.4436372
1.4838368
1.5444323
1.6238008
1.7211856
1.8366532
1.9696938
2.1185851
2.2815161
2.4611533
2.6697629
2.9133439
3.1554762
3.5749506
4.3669816
4.4952742
4.0676418
2.5441672
1.3162189
1.5204714
3736490.6
603709.99
185345.41
78626.155
40008.743
22788.246
13995.046
9064.5987
6106.112
4238.0669
3011.1035
2179.6545
1601.8555
1191.9575
896.1525
679.5986
519.12618
398.97284
308.20289
239.09913
186.13426
145.29772
113.64615
88.997707
69.720832
54.58635
42.662645
33.240793
25.780757
19.872421
15.206539
11.551143
8.7294287
6.5977293
5.0273958
3.8971793
3.0969419
2.5350497
2.1418144
1.8676983
1.6789104
1.5528554
1.4760906
1.43997
1.430902
1.4474475
1.4877412
1.5492169
1.6303014
1.7304121
1.8499952
1.9891395
2.1478152
2.3258184
2.52966
2.7759667
3.0470514
3.2926832
3.8177864
4.6613616
4.6287936
3.9311206
2.1062829
0.9892598
0.97030035
3736522
603715.14
185347
78626.839
40009.099
22788.461
13995.191
9064.7068
6106.2003
4238.1452
3011.1778
2179.7287
1601.9323
1192.0389
896.24008
679.6936
519.22967
399.08575
308.32602
239.2332
186.27988
145.45541
113.81627
89.180457
69.916143
54.79377
42.881141
33.468467
26.014463
20.107342
15.435934
11.766639
8.9223259
6.7612569
5.1588077
3.9981707
3.1721804
2.5901282
2.1818428
1.8967654
1.7000893
1.568412
1.487529
1.4486584
1.4383877
1.4546862
1.4957674
1.5592154
1.6436389
1.7488366
1.8758582
2.025736
2.1998608
2.4016134
2.6436724
2.9387887
3.2299624
3.5244374
4.2712115
5.0482759
4.7567565
3.452757
1.6314029
0.77463133
0.6686946
3736555.2
603720.51
185348.66
78627.549
40009.469
22788.683
13995.341
9064.8187
6106.2917
4238.2262
3011.2547
2179.8056
1602.0119
1192.1234
896.33105
679.79241
519.33744
399.20348
308.4546
239.37341
186.43241
145.62083
113.99503
89.372813
70.122107
55.01297
43.112634
33.71045
26.263882
20.359439
15.683912
12.001829
9.1353533
6.9443003
5.3079683
4.1143254
3.2597593
2.654974
2.2295533
1.9319574
1.726314
1.5883628
1.5031258
1.4610632
1.4499638
1.4667533
1.5098674
1.577168
1.667731
1.7821448
1.922573
2.0911107
2.2921494
2.5357322
2.8408192
3.199937
3.5306768
3.9750968
5.0775014
5.4517367
4.8179956
2.6580206
1.1211574
0.59379544
0.4394031
3736589.7
603726.08
185350.37
78628.285
40009.854
22788.914
13995.496
9064.9337
6106.3852
4238.3089
3011.3329
2179.8835
1602.0925
1192.2088
896.4231
679.89244
519.44666
399.32294
308.58525
239.5161
186.5879
145.78977
114.17797
89.570111
70.333889
55.239
43.352135
33.961817
26.524287
20.624356
15.946703
12.253768
9.3665925
7.1460313
5.4749947
4.2463968
3.3607384
2.7307214
2.286043
1.974306
1.7585649
1.6136499
1.523814
1.4787178
1.4672556
1.4857152
1.5328264
1.6071036
1.7086709
1.8398492
2.0049493
2.2067074
2.4570764
2.7770608
3.1848905
3.6391921
4.1074099
4.9649633
5.9994125
5.6426407
4.149017
1.754937
0.7585326
0.46421411
0.32311652
3736625.1
603731.81
185352.15
78629.046
40010.251
22789.151
13995.654
9065.0507
6106.4798
4238.3918
3011.4108
2179.9608
1602.1722
1192.2932
896.51381
679.991
519.55431
399.4408
308.71432
239.65731
186.74207
145.95767
114.36022
89.76721
70.546113
55.466306
43.593982
34.216894
26.790125
20.896834
16.219568
12.518505
9.6131494
7.3647749
5.6593778
4.3947655
3.4760243
2.8185049
2.3525041
2.0250008
1.7980326
1.6454893
1.5508957
1.503562
1.4925877
1.514706
1.5691368
1.6557807
1.7771
1.938928
2.147883
2.4086278
2.7516846
3.2058395
3.7819231
4.4692661
5.3479769
6.5345213
6.4535566
5.4928864
2.6381583
1.0467955
0.52834997
0.37283604
0.26677773
3736662.3
603737.81
185354
78629.835
40010.662
22789.396
13995.817
9065.1694
6106.5745
4238.4739
3011.4871
2180.0358
1602.249
1192.3741
896.60068
680.08527
519.65729
399.55363
308.83805
239.7929
186.89045
146.11966
114.53659
89.95858
70.752951
55.688804
43.831898
34.469301
27.055034
21.170693
16.496738
12.79097
9.8709781
7.5977777
5.8597284
4.5592124
3.6062028
2.919359
2.430186
2.085406
1.8462001
1.6855729
1.5864926
1.5380312
1.5293351
1.5585114
1.6259221
1.7343883
1.8914276
2.1078059
2.3885706
2.758999
3.2710505
3.9697843
4.9264408
6.205873
7.3284393
7.2803223
6.4107966
3.592448
1.4076206
0.6571138
0.39902465
0.3020703
0.23549685
3736699.8
603743.93
185355.88
78630.646
40011.084
22789.646
13995.982
9065.2883
6106.6681
4238.5537
3011.5602
2180.1068
1602.321
1192.4494
896.68119
680.17247
519.75247
399.65795
308.9526
239.91869
187.02843
146.27077
114.70168
90.13845
70.948263
55.900015
44.059118
34.71206
27.311925
21.438886
16.771416
13.064912
10.13474
7.8409839
6.0734975
4.7386361
3.7513075
3.034065
2.5203208
2.1570579
1.9048999
1.7361368
1.6334404
1.5857508
1.5826515
1.6247063
1.7149266
1.8621799
2.0836049
2.3874162
2.7909183
3.3712437
4.2113174
5.4483071
7.2807212
8.2877782
8.1061048
7.1965846
4.3146567
1.7718116
0.81686479
0.46537542
0.33580642
0.26769425
0.2119264
3736738.4
603750.24
185357.83
78631.486
40011.519
22789.902
13996.149
9065.407
6106.7597
4238.6302
3011.6288
2180.1721
1602.3863
1192.517
896.75295
680.24988
519.8368
399.75037
309.05418
240.03047
187.15143
146.40596
114.85004
90.300909
71.125699
56.093174
44.268493
34.93769
27.55307
21.693562
17.035815
13.332884
10.39771
8.0888465
6.2966968
4.9307316
3.9105251
3.1629353
2.6240102
2.2416597
1.9764253
1.800235
1.6959131
1.6521005
1.6607999
1.725855
1.8564357
2.0737933
2.4008974
2.8437353
3.4934694
4.5044585
6.0348592
8.353741
9.2229958
8.9325139
7.8083903
4.6794494
2.0240888
0.95911968
0.53812342
0.37311681
0.28061144
0.23701919
0.18529504
3736780.4
603757
185359.89
78632.36
40011.968
22790.165
13996.318
9065.525
6106.8486
4238.7023
3011.6915
2180.2302
1602.4431
1192.5749
896.81367
680.31489
519.90737
399.82762
309.13917
240.12423
187.25497
146.52032
114.97627
90.440089
71.278902
56.261431
44.452695
35.138415
27.770298
21.926242
17.281298
13.586332
10.651795
8.3342257
6.5236661
5.1316665
4.0818579
3.3055458
2.7420832
2.3410956
2.0637286
1.882177
1.7800385
1.7461071
1.7775834
1.8840883
2.087935
2.4302968
2.9174609
3.6389642
4.8265591
6.7312922
9.3793606
10.133564
9.7385989
8.3203777
4.765123
2.1619293
1.0590836
0.60467577
0.40932784
0.3163362
0.25255894
0.20539399
0.1643922
3736824.8
603764.02
185362.03
78633.268
40012.434
22790.435
13996.489
9065.6417
6106.9339
4238.769
3011.7473
2180.2798
1602.4899
1192.6212
896.8612
680.36508
519.96141
399.88659
309.20407
240.19606
187.33473
146.60906
115.0751
90.5502
71.401545
56.397909
44.604293
35.306259
27.955112
22.127962
17.498534
13.815744
10.887627
8.5684153
6.7469843
5.3358442
4.2618094
3.4604672
2.8749811
2.4575507
2.1708227
1.9885603
1.8955853
1.8834283
1.9577008
2.1412136
2.4835675
3.0292947
3.8234939
5.1772584
7.4671726
10.310544
10.995881
10.505047
8.813026
4.8186949
2.2604289
1.14141
0.65861902
0.44478581
0.33988346
0.27270216
0.2234068
0.18771085
0.14962484
3736869.6
603771.19
185364.23
78634.205
40012.912
22790.709
13996.66
9065.7559
6107.0147
4238.8293
3011.7948
2180.3195
1602.5251
1192.6541
896.89354
680.39819
519.99639
399.92443
309.24569
240.24238
187.38672
146.66774
115.1416
90.625771
71.487599
56.495998
44.716069
35.43338
28.099047
22.289656
17.677912
14.011088
11.094982
8.7813985
6.9574701
5.5357859
4.4452247
3.6251494
3.0228432
2.5940151
2.3041424
2.1301284
2.0595753
2.0925335
2.248396
2.5821388
3.1813523
4.0830021
5.5925516
8.2321137
11.217589
11.81954
11.251696
9.3334971
4.9493751
2.3728299
1.2257066
0.71476476
0.48078289
0.36679424
0.29280077
0.23921582
0.19382517
0.16462851
0.13595929
3736913.9
603778.51
185366.49
78635.162
40013.4
22790.988
13996.831
9065.8672
6107.0901
4238.8822
3011.833
2180.3481
1602.5472
1192.672
896.90882
680.41206
520.00984
399.93831
309.26082
240.25956
187.40681
146.69172
115.17059
90.661096
71.530801
56.548862
44.780564
35.51166
28.193318
22.401875
17.809335
14.161667
11.262764
8.9621929
7.1448445
5.7226817
4.625671
3.796294
3.1861353
2.7554712
2.4746124
2.3256959
2.3052093
2.4274614
2.7483223
3.382543
4.4123783
6.1120809
9.0577624
12.123195
12.640682
12.012397
9.9147599
5.1948351
2.5226018
1.3215526
0.77876203
0.52210954
0.39405242
0.30983072
0.25263482
0.21252359
0.17897103
0.1504892
0.12303168
3736961
603786.16
185368.84
78636.156
40013.904
22791.273
13997.003
9065.9756
6107.1598
4238.9271
3011.8612
2180.3646
1602.5551
1192.6735
896.90542
680.40486
519.99969
399.92593
309.24686
240.24469
187.39174
146.67726
115.15773
90.651036
71.525036
56.549272
44.789565
35.532115
28.228405
22.454848
17.88294
14.257347
11.380585
9.1001221
7.2989566
5.8875943
4.7966665
3.9713106
3.3677023
2.9522297
2.7030043
2.6134211
2.696182
3.0027404
3.6656314
4.8192013
6.7160028
9.9558648
13.030876
13.475453
12.800782
10.563664
5.5547516
2.7182779
1.4361022
0.85195358
0.57229897
0.42634837
0.32798831
0.26559561
0.22305884
0.18807769
0.15801845
0.13755808
0.1164512
3737011.6
603794.22
185371.3
78637.189
40014.425
22791.563
13997.176
9066.0807
6107.2234
4238.9633
3011.8784
2180.3678
1602.5475
1192.6572
896.88177
680.37484
519.96401
399.88517
309.20155
240.19536
187.33902
146.62192
115.10073
90.593612
71.468743
56.496038
44.741696
35.492358
28.199987
22.441479
17.888939
14.28761
11.438412
9.1858706
7.4111537
6.0236925
4.9546364
4.1520648
3.5779349
3.2077699
3.0337904
3.0711012
3.366418
4.064378
5.3474048
7.4243511
10.90842
13.949776
14.336817
13.626711
11.281885
6.0286726
2.9636605
1.5737278
0.9371357
0.63087438
0.46434556
0.35195366
0.28278219
0.23290619
0.19596377
0.16848667
0.14355332
0.12399533
0.10601176
3737062.3
603802.41
185373.81
78638.252
40014.959
22791.858
13997.348
9066.1815
6107.2798
4238.9899
3011.8836
2180.3567
1602.5233
1192.6218
896.83643
680.32042
519.90109
399.81417
309.12287
240.10941
187.24634
146.52321
114.99694
90.486027
71.359056
56.386434
44.634915
35.391745
28.109488
22.365548
17.832281
14.254802
11.434453
9.2168189
7.479864
6.1317509
5.1053199
4.3532238
3.8465151
3.5766661
3.5634165
3.8549603
4.6050768
6.0337558
8.2715263
11.922609
14.918505
15.244947
14.505179
12.071502
6.6077099
3.261374
1.7374099
1.0367152
0.69895263
0.50814325
0.38172715
0.30324245
0.24636918
0.20554028
0.17556839
0.15195855
0.13253389
0.11736138
0.10112719
3737113.2
603810.77
185376.39
78639.342
40015.504
22792.158
13997.518
9066.2778
6107.3287
4239.0064
3011.8763
2180.3307
1602.4817
1192.5665
896.76858
680.24076
519.81008
399.71213
309.01007
239.9862
187.11317
146.38077
114.84622
90.328405
71.196412
56.221248
44.470368
35.231795
27.95891
22.229903
17.717788
14.168118
11.382434
9.2060088
7.5186611
6.2297519
5.2760895
4.6191175
4.2469252
4.1819401
4.480863
5.301085
6.8896005
9.2875369
12.991784
15.950135
16.213863
15.446196
12.931559
7.2714211
3.6098575
1.9304668
1.1529578
0.77742993
0.55823466
0.41644633
0.32810381
0.26351337
0.21792406
0.18505071
0.16013835
0.13926624
0.1209015
0.10788651
0.095905517
3737167.7
603819.6
185379.09
78640.473
40016.068
22792.464
13997.69
9066.3703
6107.3708
4239.0134
3011.8571
2180.2904
1602.4235
1192.4922
896.67943
680.13734
519.69277
399.58119
308.86574
239.8288
186.94319
146.19895
114.65368
90.126699
70.987711
56.008431
44.257164
35.022904
27.760104
22.048081
17.560959
14.045334
11.303712
9.182365
7.563973
6.3667012
5.5368646
5.0542294
4.9405044
5.2582951
6.164777
7.9110031
10.486998
14.154781
17.055118
17.256138
16.458242
13.860115
8.0054178
4.0198127
2.1552542
1.2906331
0.86674938
0.61475071
0.4563799
0.35731392
0.28475623
0.23340529
0.19647004
0.16731332
0.14509652
0.1280292
0.11360116
0.10218239
0.091205818
3737225.4
603828.81
185381.91
78641.653
40016.652
22792.78
13997.863
9066.4608
6107.4079
4239.0131
3011.8284
2180.2388
1602.3522
1192.4031
896.57365
680.01555
519.55538
399.42851
308.69808
239.64659
186.74706
145.98984
114.43295
89.89627
70.750182
55.767244
44.016779
34.788981
27.539687
21.849777
17.395094
13.92412
11.241432
9.1979392
7.6900448
6.6455714
6.0334541
5.8680111
6.2117844
7.2168041
9.1115681
11.855224
15.483565
18.247757
18.391637
17.554947
14.856958
8.7972125
4.4861601
2.4210663
1.4474108
0.96296844
0.67646473
0.50228832
0.3913887
0.3099316
0.2525078
0.20999614
0.17692836
0.15300986
0.13453764
0.11912859
0.10687667
0.09775347
0.088755453
3737283.9
603838.24
185384.8
78642.871
40017.255
22793.105
13998.042
9066.5535
6107.4453
4239.0116
3011.7977
2180.1844
1602.2774
1192.31
896.46355
679.88925
519.41345
399.27142
308.52635
239.46088
186.5483
145.77932
114.21246
89.668222
70.517786
55.534696
43.789484
34.573818
27.345346
21.687162
17.277639
13.869008
11.276049
9.3643972
8.0403756
7.2594064
7.0234081
7.3858748
8.4814791
10.516026
13.397275
16.976197
19.574184
19.629466
18.74036
15.916445
9.6323206
5.0074793
2.7172491
1.6129347
1.0623652
0.74742076
0.55744723
0.43180289
0.33890896
0.27469444
0.22631562
0.18927136
0.1626218
0.14155649
0.12549095
0.11256171
0.10122824
0.092881373
0.085446417
3737344.3
603848.03
185387.8
78644.134
40017.883
22793.444
13998.231
9066.6548
6107.4904
4239.018
3011.7751
2180.1388
1602.2125
1192.2283
896.36649
679.77799
519.28889
399.13442
308.37784
239.30199
186.38048
145.60446
114.033
89.487374
70.339674
55.364612
43.634126
34.441488
27.247039
21.638469
17.302059
14.001961
11.564083
9.8690554
8.8526226
8.5031644
8.8547965
10.009576
12.156523
15.162649
18.622965
21.087751
20.977382
20.007114
17.018726
10.505049
5.5881971
3.0498587
1.7952547
1.1792318
0.8359184
0.62447636
0.47678892
0.37094158
0.29948173
0.24569343
0.20447256
0.17401845
0.15015361
0.13192351
0.11705415
0.1057628
0.097302586
0.090530289
0.083998731
3737407.1
603858.18
185390.92
78645.445
40018.538
22793.805
13998.438
9066.7732
6107.5532
4239.0434
3011.7737
2180.1172
1602.1748
1192.1773
896.30436
679.70633
519.20916
399.04804
308.28637
239.20721
186.28452
145.50996
113.94328
89.406645
70.273449
55.320256
43.621836
34.47601
27.348634
21.834273
17.628572
14.509477
12.322967
10.977131
10.442277
10.729263
11.8813
14.090674
17.167777
20.539326
22.812722
22.506395
21.362749
18.095822
11.43528
6.2413515
3.4183197
1.9944353
1.3088157
0.93458906
0.69367735
0.52391831
0.40634991
0.32884005
0.26861901
0.22281537
0.18758308
0.16019078
0.13933638
0.12339068
0.11193859
0.1017647
0.093151534
0.087139315
0.081853095
3737471.9
603868.67
185394.15
78646.811
40019.229
22794.194
13998.671
9066.9182
6107.6447
4239.1007
3011.8083
2180.1362
1602.1832
1192.1786
896.3012
679.70113
519.20415
399.04551
308.28885
239.21765
186.30647
145.5478
114.00257
89.494494
70.399091
55.495785
43.863187
34.804327
27.793081
22.435782
18.443739
15.613929
13.819023
13.002074
13.150079
14.208254
16.404907
19.477231
22.743723
24.765048
24.333179
22.877282
19.162166
12.42157
6.9508722
3.8041643
2.2019273
1.4527676
1.04384
0.77208999
0.58043611
0.452368
0.36376291
0.29502936
0.24295473
0.20336097
0.17218067
0.14879515
0.13111702
0.11740261
0.10547431
0.096836438
0.090725924
0.085541745
0.080850853
3737539.4
603879.61
185397.5
78648.238
40019.958
22794.613
13998.933
9067.0932
6107.7692
4239.195
3011.8849
2180.2031
1602.2462
1192.2421
896.36903
679.7767
519.29094
399.14723
308.40965
239.36238
186.48091
145.75902
114.25932
89.807847
70.783226
55.969248
44.450695
35.539333
28.720795
23.616249
19.95668
17.564513
16.34081
16.253071
17.133189
19.195715
22.160038
25.299807
26.93044
26.319086
24.523128
20.267421
13.448851
7.7071525
4.2060535
2.4403118
1.6223927
1.1708371
0.85975114
0.6470558
0.50329216
0.40095263
0.32176899
0.26578933
0.22185683
0.18735199
0.16038242
0.14000506
0.12361703
0.11078492
0.10189275
0.09448472
0.087849871
0.083196335
0.07942577
3737610.3
603891
185400.99
78649.728
40020.725
22795.061
13999.223
9067.2969
6107.9249
4239.3246
3012.0017
2180.3162
1602.3624
1192.367
896.50745
679.93357
519.47133
399.35676
308.65473
239.65056
186.82128
146.1627
114.74014
90.383334
71.475898
56.808575
45.475035
36.798459
30.279028
25.556468
22.383287
20.603596
20.131858
20.772285
22.546816
25.285351
28.206917
29.316159
28.482052
26.31447
21.435205
14.492458
8.474171
4.6246582
2.700411
1.8055134
1.2996737
0.95285145
0.71949224
0.56128727
0.44234762
0.35536174
0.29322789
0.2446223
0.20450944
0.17396582
0.14976562
0.131229
0.1173148
0.10705937
0.097731267
0.090788858
0.085971163
0.082199016
0.078845959
3737682.9
603902.71
185404.61
78651.275
40021.528
22795.537
13999.537
9067.5265
6108.1092
4239.4865
3012.1559
2180.4731
1602.5298
1192.5519
896.71652
680.1735
519.74947
399.68139
309.03556
240.09912
187.35158
146.79199
115.4899
91.280765
72.555257
58.113171
47.059717
38.732105
32.646953
28.461211
25.940447
24.926957
25.216869
26.503012
28.859197
31.46179
31.881362
30.780832
28.078143
22.597236
15.513507
9.228064
5.0712292
2.9874132
2.0070997
1.444781
1.0631991
0.81067416
0.6291332
0.49341009
0.39416992
0.32450739
0.26749125
0.2238563
0.18919771
0.16229675
0.14078669
0.12522928
0.1122437
0.10189443
0.094735275
0.08910212
0.084287153
0.080812873
0.077920983
3737758.4
603914.96
185408.37
78652.886
40022.371
22796.046
13999.884
9067.7896
6108.3308
4239.6912
3012.3599
2180.6882
1602.7658
1192.8176
897.02066
680.52547
520.15967
400.16186
309.60048
240.76553
188.14027
147.72841
116.60555
92.614516
74.1554
60.039066
49.383639
41.539934
36.035732
32.530306
30.771239
30.546753
31.292224
32.771424
34.790707
34.559398
33.13768
29.779294
23.808474
16.555411
10.003881
5.5717989
3.3191774
2.2346555
1.6043105
1.1869577
0.90715522
0.70109485
0.54611549
0.43833495
0.35707542
0.2944662
0.24615948
0.20891901
0.17698167
0.15275392
0.13375124
0.11890326
0.1074856
0.099522416
0.092215133
0.086810637
0.082665396
0.079649585
0.077248393
3737836.4
603927.56
185412.25
78654.568
40023.268
22796.604
14000.282
9068.11
6108.6178
4239.9715
3012.6517
2181.0054
1603.1202
1193.2206
897.48385
681.06154
520.78301
400.88921
310.45171
241.76452
189.31592
149.11596
118.24793
94.563675
76.473431
62.798534
52.666292
45.430678
40.608902
37.824
36.749299
36.959123
37.940597
38.430424
37.600104
35.530301
31.44074
25.033099
17.556727
10.754485
6.0938992
3.6762946
2.4723938
1.7719727
1.3210476
1.0156065
0.78426258
0.61470865
0.49209074
0.39952521
0.32598657
0.27351913
0.2293926
0.19419896
0.16567191
0.14431157
0.12662366
0.1142529
0.10403058
0.095785106
0.089688543
0.085267868
0.081605992
0.079091259
0.076876191
3737916.9
603940.6
185416.3
78656.344
40024.242
22797.237
14000.759
9068.5193
6109.0069
4240.3698
3013.0799
2181.48
1603.656
1193.832
898.18621
681.87176
521.72046
401.97658
311.71603
243.23828
191.03837
151.13459
120.61987
97.354166
79.74475
66.604459
57.076345
50.490078
46.309788
44.056059
43.270092
43.117241
42.399685
40.604199
37.88958
33.105976
26.245624
18.496501
11.513594
6.6892899
4.1001308
2.7509637
1.9689678
1.479499
1.1410858
0.8822678
0.69151465
0.55166402
0.44201056
0.36176498
0.30044594
0.25282951
0.21301264
0.18289056
0.15676143
0.13721221
0.12183674
0.10986107
0.10023038
0.093637927
0.088025543
0.083948697
0.080549221
0.078229925
0.076217075
3738001.3
603954.27
185420.56
78658.237
40025.308
22797.961
14001.335
9069.0411
6109.5259
4240.9185
3013.6819
2182.155
1604.4222
1194.7077
899.19127
683.02832
523.05409
403.51741
313.5
245.30868
193.44607
153.93698
123.87645
101.11989
84.064588
71.508105
62.553144
56.493352
52.713758
50.461629
48.749939
46.59466
43.869516
40.304023
34.732354
27.394524
19.414303
12.340852
7.3839223
4.5795706
3.0461296
2.1719022
1.6424742
1.2721908
0.98754552
0.77767609
0.61852353
0.49661327
0.40534261
0.33704865
0.27973818
0.23764833
0.20133858
0.17238834
0.14834452
0.13106425
0.11626291
0.10633418
0.097914457
0.091538276
0.086294746
0.082527271
0.079562365
0.077660342
0.075885958
3738088.5
603968.44
185425.01
78660.247
40026.472
22798.787
14002.026
9069.6951
6110.1977
4241.6441
3014.4881
2183.0647
1605.4574
1195.891
900.54699
684.58394
524.84096
405.57144
315.86183
248.02272
196.56017
157.5007
127.93813
105.72184
89.236745
77.217885
68.665442
62.692071
58.383649
54.761885
51.193169
47.48719
42.837065
36.43973
28.643881
20.483757
13.326993
8.1923306
5.1096073
3.3684057
2.4051393
1.8363237
1.4315076
1.1179958
0.88270206
0.70094872
0.56080351
0.4566068
0.37377925
0.31071674
0.26091416
0.22272778
0.18876223
0.16367328
0.1417762
0.12579077
0.11288432
0.10305461
0.094907823
0.089423855
0.084822566
0.081840039
0.079023553
0.077260361
0.075526934
3738178.6
603983.11
185429.63
78662.372
40027.739
22799.72
14002.837
9070.4857
6111.0269
4242.551
3015.5028
2184.2132
1606.7648
1197.3829
902.25068
686.529
527.05965
408.09848
318.7335
251.27489
200.2236
161.59354
132.45481
110.6182
94.413861
82.520646
73.740196
67.021603
61.467538
56.489624
51.547846
45.662042
38.396233
30.120945
21.74881
14.445323
9.0671414
5.6811622
3.7368941
2.6811192
2.0551411
1.6024299
1.2554219
0.99341181
0.7889874
0.63248052
0.51289529
0.41971986
0.34732605
0.2933155
0.24654972
0.21145624
0.18023353
0.15597762
0.13531118
0.12107461
0.10860565
0.10028437
0.093158973
0.088065037
0.083693953
0.08070002
0.078145241
0.076694083
0.075178716
3738271.2
603998.29
185434.45
78664.614
40029.107
22800.755
14003.758
9071.4008
6111.9977
4243.6189
3016.6999
2185.5677
1608.3035
1199.1329
904.24035
688.78781
529.61774
410.98514
321.97392
254.88508
204.20231
165.9106
137.03537
115.32291
99.014754
86.689386
77.158852
69.417831
62.672867
56.135843
48.875296
40.681
31.880467
23.243144
15.734682
10.079065
6.3824876
4.2135505
3.0198414
2.2998875
1.7908732
1.4149401
1.1292439
0.90111956
0.72333894
0.58488949
0.47564531
0.39275905
0.32627627
0.27459109
0.2321623
0.20023906
0.17053692
0.14936135
0.13056239
0.11724607
0.106011
0.098162035
0.09129354
0.086601716
0.082603316
0.080050292
0.077800503
0.076462841
0.075020456
3738367.1
604011.2
185437.09
78665.136
40029.215
22800.857
14003.98
9071.7906
6112.5776
4244.404
3017.7039
2186.8053
1609.7907
1200.8877
906.2818
691.13491
532.28721
413.98778
325.30943
258.53444
208.11789
170.00438
141.16695
119.29088
102.55739
89.502539
78.945253
69.923139
61.399906
52.643667
43.456657
34.07183
25.096476
17.308026
11.313977
7.2523239
4.7865237
3.3916933
2.5566879
1.9988471
1.5986057
1.2839056
1.0255121
0.82159108
0.66216722
0.53801046
0.44198675
0.36667931
0.30652289
0.261561
0.22184575
0.19185238
0.16417062
0.14354654
0.12546782
0.11364633
0.10280255
0.095612527
0.089349027
0.085354561
0.081818184
0.079431979
0.077296441
0.076018247
0.074734933
3739014.3
604121.89
185474.41
78682.899
40039.384
22807.467
14008.716
9075.4697
6115.642
4247.116
3020.2312
2189.2626
1612.261
1203.4331
908.94974
693.95985
535.29002
417.17259
328.65823
261.99969
211.61397
173.39972
144.28008
121.89485
104.40178
90.340743
78.419365
67.544729
57.064113
46.706357
36.584666
27.144571
18.991037
12.621743
8.1802178
5.3977478
3.7916172
2.8486724
2.2447865
1.8088292
1.4546701
1.1646609
0.9375958
0.75795667
0.61651959
0.50503467
0.41570308
0.34684024
0.2910066
0.24727475
0.21013432
0.18278558
0.15633412
0.138359
0.12175133
0.11049125
0.10073557
0.094314295
0.088390221
0.084445882
0.080753378
0.078725941
0.076798659
0.075708652
0.074622114
3739013.7
604118.91
185472.04
78681.208
40038.3
22806.833
14008.431
9075.4734
6115.9012
4247.6132
3020.9589
2190.2194
1613.4487
1204.854
910.60324
695.83882
537.37556
419.42778
331.0209
264.37487
213.86789
175.3578
145.73617
122.61551
104.07764
88.566003
74.947896
62.457241
50.699237
39.648148
29.588532
20.965897
14.16511
9.3091075
6.1679344
4.3061589
3.2124695
2.5234037
2.0286621
1.6349615
1.3209061
1.0714462
0.86729387
0.70252231
0.572369
0.46962076
0.38930635
0.32621556
0.27481955
0.23647655
0.20191783
0.17611205
0.15119645
0.1335611
0.11773544
0.10776624
0.098075668
0.091997368
0.086601537
0.083211241
0.080310558
0.078383127
0.076564499
0.0754855
0.07451676
3739013.8
604119.06
185472.2
78681.424
40038.582
22807.188
14008.866
9075.9971
6116.5231
4248.3427
3021.8049
2191.1895
1614.5478
1206.0821
911.95266
697.2902
538.89325
420.95451
332.47267
265.63798
214.80088
175.77704
145.39862
121.22626
101.40661
84.551542
69.688709
56.242361
44.009341
33.09408
23.779038
16.34267
10.882553
7.2158421
4.969298
3.641175
2.8306521
2.2775844
1.8550295
1.5158128
1.2338062
0.99810712
0.80873226
0.65874513
0.54057265
0.44658021
0.37077251
0.31179575
0.26340882
0.22584422
0.192767
0.16903045
0.14522424
0.12973219
0.11459902
0.10509736
0.096589824
0.091116663
0.085912216
0.082688892
0.079551933
0.077746784
0.076162545
0.075215543
0.074390295
3739014
604119.15
185472.28
78681.532
40038.723
22807.368
14009.092
9076.274
6116.8569
4248.7388
3022.2674
2191.72
1615.1436
1206.7341
912.64191
697.985
539.54474
421.49173
332.79708
265.61604
214.25202
174.50347
143.22098
118.02942
97.155944
79.330963
63.730409
49.927033
37.819646
27.51957
19.198324
12.932934
8.58816
5.8356511
4.1963014
3.2248397
2.5931326
2.1219055
1.7378396
1.4147871
1.1486807
0.93541025
0.76240545
0.62214359
0.51063974
0.42171986
0.3515576
0.29660913
0.25123278
0.21763641
0.18668134
0.16420996
0.14123883
0.12611104
0.1119837
0.10335086
0.094471922
0.089404652
0.084567781
0.081710123
0.079066841
0.077511828
0.076012523
0.075105468
0.074309895
3739014.9
604119.24
185472.29
78681.53
40038.723
22807.374
14009.107
9076.3014
6116.8995
4248.7982
3022.3432
2191.8081
1615.2345
1206.8101
912.67393
697.92822
539.33446
421.04078
331.99543
264.33654
212.36716
171.89385
139.79933
113.76987
92.125087
73.710396
57.81796
44.105631
32.492109
23.023541
15.73038
10.509402
7.0726953
4.9729379
3.7328385
2.9596961
2.4131898
1.9828329
1.628086
1.3349962
1.0915907
0.88849242
0.72321904
0.59154275