/*--------------------------------*- C++ -*----------------------------------*\
  =========                 |
  \\      /  F ield         | OpenFOAM: The Open Source CFD Toolbox
   \\    /   O peration     | Website:  https://openfoam.org
    \\  /    A nd           | Version:  13
     \\/     M anipulation  |
\*---------------------------------------------------------------------------*/
FoamFile
{
    format      ascii;
    class       surfaceScalarField;
    location    "45.803496";
    object      phi;
}
// * * * * * * * * * * * * * * * * * * * * * * * * * * * * * * * * * * * * * //

dimensions      [0 3 -1 0 0 0 0];

internalField   nonuniform List<scalar> 
34068
(
-1.1354018e-08
-2.7516228e-08
3.8870246e-08
-5.053138e-08
-9.3686683e-08
1.3286405e-07
-1.2683118e-07
-1.8129429e-07
2.575941e-07
-2.519896e-07
-2.9718571e-07
4.2234414e-07
-4.4074802e-07
-4.5032415e-07
6.3908257e-07
-7.1156467e-07
-6.5232862e-07
9.2314528e-07
-1.0874438e-06
-9.1818587e-07
1.294065e-06
-1.5969519e-06
-1.2670496e-06
1.7765578e-06
-2.2754303e-06
-1.7231997e-06
2.401678e-06
-3.1664353e-06
-2.3171366e-06
3.2081417e-06
-4.3234423e-06
-3.0867975e-06
4.2438045e-06
-5.8118388e-06
-4.078862e-06
5.5672586e-06
-7.7112362e-06
-5.3500743e-06
7.2494717e-06
-1.0118125e-05
-6.9684738e-06
9.3753622e-06
-1.3148865e-05
-9.0143615e-06
1.2045101e-05
-1.6943021e-05
-1.1580756e-05
1.5374912e-05
-2.1666968e-05
-1.4773004e-05
1.9496952e-05
-2.75177e-05
-1.8707105e-05
2.4557837e-05
-3.4726655e-05
-2.3506196e-05
3.071515e-05
-4.356334e-05
-2.9294596e-05
3.8131282e-05
-5.4338372e-05
-3.6188735e-05
4.6963766e-05
-6.7405406e-05
-4.4284436e-05
5.735147e-05
-8.3161294e-05
-5.3640267e-05
6.9396156e-05
-0.00010204348
-6.4257337e-05
8.3139526e-05
-0.00012452352
-7.6056879e-05
9.8536917e-05
-0.00015109526
-8.8858734e-05
0.00011543047
-0.00018225638
-0.0001023662
0.00013352732
-0.00021848243
-0.00011616614
0.00015239219
-0.00026019474
-0.00012975676
0.00017146907
-0.00030772813
-0.00014261683
0.00019015022
-0.00036131211
-0.00015432073
0.00020790471
-0.00042108504
-0.00016467196
0.0002244449
-0.00048715356
-0.00017377889
0.00023984741
-0.00055968175
-0.00018199129
0.00025451947
-0.00063897089
-0.00018971498
0.00026900412
-0.00072550233
-0.00019723291
0.00028376435
-0.00081995099
-0.00020462523
0.00029907388
-0.00092319342
-0.00021176324
0.00031500567
-0.0010363337
-0.00021829542
0.0003314357
-0.0011607606
-0.00022356825
0.0003479952
-0.0012982459
-0.00022643948
0.00036392478
-0.0014510953
-0.00022493247
0.00037778187
-0.0016223802
-0.00021562279
0.0003869077
-0.0018162329
-0.00019267254
0.00038652518
-0.0020381804
-0.00014647372
0.00036842122
-0.0022956127
-6.1633765e-05
0.00031906604
-0.0025983772
8.6547369e-05
0.00021621713
-0.0029592345
0.00033690771
2.3949653e-05
-0.0033941815
0.00075034006
-0.00031539313
-0.0039222295
0.0014224178
-0.00089436975
-0.0045638309
0.002503124
-0.0018615226
-0.0053366574
0.0042281363
-0.0034553098
-0.0062478393
0.006959707
-0.0060485252
-0.0072783291
0.011224667
-0.010194177
-0.0083544345
0.017647329
-0.016571224
-0.0093245434
0.026772993
-0.025802884
-0.0099756063
0.038385682
-0.037734619
-0.0100887
0.05076156
-0.050648466
-0.0096644841
0.060417951
-0.060842167
-0.0077506475
0.055647067
-0.057560903
0.00059987783
0.010531713
-0.018882239
0.015461934
-0.076895025
0.062032968
0.028648663
-0.1471869
0.13400017
0.034886699
-0.17499062
0.16875258
-0.17019429
0.039414548
0.16566644
-1.1356788e-08
-1.6159439e-08
-5.0534358e-08
-5.4509112e-08
-1.2681998e-07
-1.0500867e-07
-2.5194413e-07
-1.7206156e-07
-4.4065513e-07
-2.6161314e-07
-7.1145029e-07
-3.8153346e-07
-1.0874219e-06
-5.4221424e-07
-1.5972455e-06
-7.5722608e-07
-2.2764322e-06
-1.0440129e-06
-3.1687957e-06
-1.4247732e-06
-4.3281779e-06
-1.9274153e-06
-5.8204806e-06
-2.5865593e-06
-7.7260167e-06
-3.4445381e-06
-1.0142214e-05
-4.5522767e-06
-1.3186666e-05
-5.9699092e-06
-1.7000526e-05
-7.7668964e-06
-2.1752185e-05
-1.0021345e-05
-2.7641155e-05
-1.2818136e-05
-3.4901962e-05
-1.6245388e-05
-4.3807848e-05
-2.0388711e-05
-5.4673852e-05
-2.532273e-05
-6.7858818e-05
-3.1099471e-05
-8.376554e-05
-3.7733545e-05
-0.0001028382
-4.518468e-05
-0.00012555583
-5.3339246e-05
-0.00015242052
-6.1994049e-05
-0.00018393882
-7.0847902e-05
-0.00022059572
-7.9509242e-05
-0.00026282231
-8.7530168e-05
-0.00031096292
-9.4476219e-05
-0.00036525446
-0.0001000292
-0.00042583827
-0.00010408815
-0.00049281713
-0.00010680003
-0.00056634462
-0.0001084638
-0.00064670476
-0.00010935484
-0.00073435658
-0.00010958109
-0.00082995272
-0.00010902909
-0.0009343392
-0.00010737676
-0.0010485786
-0.00010405598
-0.0011739987
-9.8148144e-05
-0.0013122763
-8.8161956e-05
-0.0014655657
-7.1642998e-05
-0.0016366942
-4.4494338e-05
-0.0018294112
4.4426399e-08
-0.0020486447
7.275982e-05
-0.0023008686
0.00019059014
-0.0025944586
0.0003801374
-0.0029399861
0.00068243517
-0.0033500836
0.0011604376
-0.0038386983
0.0019110325
-0.0044187413
0.0030831671
-0.0050973675
0.0049067625
-0.0058694228
0.0077317623
-0.0067040091
0.012059253
-0.007506176
0.018449496
-0.0080936119
0.027360429
-0.0082496186
0.038541689
-0.0077551852
0.050267127
-0.0064491472
0.059111913
-0.0025637463
0.051761666
0.008073802
-0.00010583509
0.022944385
-0.091765608
0.035474868
-0.15971738
0.040567001
-0.18008275
-0.17089769
0.041270397
-1.1193428e-08
-4.9660105e-09
-4.9807327e-08
-1.5895212e-08
-1.2499831e-07
-2.9817684e-08
-2.4834534e-07
-4.8714527e-08
-4.3442851e-07
-7.552997e-08
-7.0151124e-07
-1.1445072e-07
-1.0724199e-06
-1.7130556e-07
-1.5755708e-06
-2.540752e-07
-2.2461922e-06
-3.7339145e-07
-3.127795e-06
-5.431704e-07
-4.2739157e-06
-7.8129457e-07
-5.7501595e-06
-1.1103156e-06
-7.6365771e-06
-1.5581205e-06
-1.0030392e-05
-2.1584619e-06
-1.3049091e-05
-2.9512097e-06
-1.6833864e-05
-3.9821242e-06
-2.1553334e-05
-5.3018748e-06
-2.7407502e-05
-6.9639671e-06
-3.4631731e-05
-9.02116e-06
-4.3500511e-05
-1.1519931e-05
-5.4330668e-05
-1.4492574e-05
-6.7483455e-05
-1.7946684e-05
-8.3364866e-05
-2.1852135e-05
-0.00010242321
-2.6126333e-05
-0.00012514282
-3.0619643e-05
-0.00015203241
-3.5104451e-05
-0.00018360686
-3.9273451e-05
-0.00022036115
-4.2754953e-05
-0.00026273747
-4.5153854e-05
-0.00031109615
-4.6117532e-05
-0.00036568494
-4.5440414e-05
-0.00042665123
-4.3121867e-05
-0.00049409156
-3.9359697e-05
-0.00056814525
-3.4410111e-05
-0.00064906672
-2.8433373e-05
-0.00073726931
-2.1378492e-05
-0.00083337102
-1.2927382e-05
-0.0009381595
-2.5882779e-06
-0.0010526258
1.0410314e-05
-0.0011779973
2.7223402e-05
-0.0013158044
4.9645125e-05
-0.0014679815
8.0534083e-05
-0.0016370155
0.00012453968
-0.0018261322
0.00018916107
-0.0020394781
0.00028610578
-0.0022823335
0.00043344552
-0.0025612891
0.00065909301
-0.0028842211
0.0010053672
-0.0032597608
0.0015359772
-0.003695965
0.0023472367
-0.0041971083
0.0035843104
-0.004759223
0.0054688773
-0.0053650499
0.0083375891
-0.0059636504
0.012657854
-0.0064245412
0.018910387
-0.0065193217
0.027455209
-0.0059736297
0.037995997
-0.0044982869
0.048791784
-0.0017165015
0.056330127
0.0048753046
0.04516986
0.017473084
-0.012703614
0.03182879
-0.10612131
0.043291941
-0.17118053
0.047415073
-0.18420588
-0.16843284
0.044950228
-1.0865891e-08
5.8998804e-09
-4.8347838e-08
2.1586736e-08
-1.2134409e-07
4.3178563e-08
-2.4111619e-07
7.1057573e-08
-4.2186417e-07
1.0521801e-07
-6.8139758e-07
1.4508269e-07
-1.0419764e-06
1.8927322e-07
-1.5313587e-06
2.3530719e-07
-2.1840106e-06
2.7926038e-07
-3.0425642e-06
3.1538326e-07
-4.1595512e-06
3.3569237e-07
-5.5994397e-06
3.2957296e-07
-7.44101e-06
2.8344986e-07
-9.7800878e-06
1.8061589e-07
-1.2732646e-05
1.3484572e-09
-1.6438255e-05
-2.7651522e-07
-2.1063896e-05
-6.7623391e-07
-2.6807897e-05
-1.2199663e-06
-3.3904018e-05
-1.9250391e-06
-4.2625349e-05
-2.798599e-06
-5.3287611e-05
-3.8303125e-06
-6.6251468e-05
-4.9828263e-06
-8.1923089e-05
-6.1805141e-06
-0.00010075206
-7.2973611e-06
-0.00012322553
-8.1461754e-06
-0.00014985719
-8.4727865e-06
-0.00018116964
-7.9609995e-06
-0.00021766962
-6.2549758e-06
-0.00025979247
-3.0309989e-06
-0.00030795534
2.0453325e-06
-0.00036239946
9.0037081e-06
-0.00042328408
1.7762754e-05
-0.00049070698
2.8063202e-05
-0.00056477689
3.96598e-05
-0.00064570737
5.2497101e-05
-0.00073387487
6.6789016e-05
-0.00082980627
8.3004017e-05
-0.00093421841
0.00010182386
-0.0010480029
0.00012419482
-0.0011722502
0.00015147071
-0.0013082922
0.00018568708
-0.0014577723
0.00023001423
-0.0016227432
0.00028951051
-0.0018057849
0.00037220277
-0.0020100842
0.00049040511
-0.0022394907
0.00066285203
-0.0024984834
0.00091808573
-0.0027918068
0.0012986905
-0.0031234965
0.001867667
-0.0034949022
0.0027186424
-0.0039005692
0.0039899774
-0.0043235915
0.0058918995
-0.004731009
0.0087450066
-0.005036256
0.012963101
-0.0050629768
0.018937108
-0.0045385319
0.026930764
-0.0030942997
0.036551764
-0.00028383314
0.045981318
0.0046794254
0.051366869
0.014085313
0.035763972
0.027971909
-0.02659021
0.041813862
-0.11996327
0.051795806
-0.18116248
0.054857898
-0.18726798
-0.16420233
0.050627381
-1.0389511e-08
1.6289391e-08
-4.6220084e-08
5.741731e-08
-1.15994e-07
1.1295248e-07
-2.304865e-07
1.8555006e-07
-4.0329829e-07
2.7802981e-07
-6.5153105e-07
3.9331544e-07
-9.9659831e-07
5.3434048e-07
-1.4652239e-06
7.0393278e-07
-2.0906391e-06
9.0467554e-07
-2.9140176e-06
1.1387618e-06
-3.9861804e-06
1.4078552e-06
-5.3696074e-06
1.713e-06
-7.140786e-06
2.0546284e-06
-9.3929239e-06
2.4327538e-06
-1.2239037e-05
2.847462e-06
-1.5815419e-05
3.2998668e-06
-2.0285382e-05
3.7937285e-06
-2.5843345e-05
4.3379969e-06
-3.2718937e-05
4.950553e-06
-4.1180963e-05
5.6634267e-06
-5.1540949e-05
6.5296736e-06
-6.415565e-05
7.6318748e-06
-7.9427952e-05
9.0917879e-06
-9.7805248e-05
1.1079935e-05
-0.00011977419
1.3822767e-05
-0.00014585046
1.7603479e-05
-0.00017656219
2.2750738e-05
-0.00021242543
2.9608263e-05
-0.00025393599
3.8479562e-05
-0.00030144631
4.955565e-05
-0.0003552687
6.2826098e-05
-0.00041557622
7.8070272e-05
-0.00048246161
9.4948597e-05
-0.00055600828
0.00011320646
-0.00063637617
0.00013286499
-0.00072386236
0.00015427521
-0.00081891774
0.00017805939
-0.00092215188
0.000205058
-0.001034325
0.00023636797
-0.0011563513
0.000273497
-0.0012893162
0.00031865198
-0.0014345082
0.0003752062
-0.0015934597
0.00044846208
-0.0017679877
0.00054673073
-0.00196016
0.00068257738
-0.0021721858
0.00087487784
-0.0024061409
0.0011520408
-0.0026632447
0.0015557944
-0.0029423918
0.002146814
-0.0032373697
0.0030136203
-0.0035321242
0.0042847319
-0.0037945753
0.0061543506
-0.0039654463
0.0089158775
-0.003915582
0.012913236
-0.0034219028
0.018443428
-0.0021397368
0.025648598
0.00041368799
0.03399834
0.0048278507
0.041567155
0.012266175
0.043928545
0.024209798
0.023820349
0.039072928
-0.04145334
0.052447362
-0.1333377
0.060429084
-0.1891442
0.062324656
-0.18916355
-0.15943737
0.057559696
-9.7604232e-09
2.6049814e-08
-4.3419005e-08
9.1075891e-08
-1.0896811e-07
1.7850159e-07
-2.1654976e-07
2.9313171e-07
-3.7898274e-07
4.4046278e-07
-6.1240811e-07
6.2674082e-07
-9.3707775e-07
8.5901012e-07
-1.3783112e-06
1.1451662e-06
-1.9676533e-06
1.4940177e-06
-2.7442634e-06
1.9153718e-06
-3.7565717e-06
2.4201635e-06
-5.0642407e-06
3.020669e-06
-6.7404628e-06
3.7308505e-06
-8.874623e-06
4.566914e-06
-1.1575343e-05
5.5481815e-06
-1.4973903e-05
6.6984275e-06
-1.9228018e-05
8.0478434e-06
-2.4525875e-05
9.6358536e-06
-3.1090318e-05
1.1514996e-05
-3.918295e-05
1.3756059e-05
-4.9107832e-05
1.6454556e-05
-6.1214323e-05
1.9738365e-05
-7.5898419e-05
2.3775885e-05
-9.3601787e-05
2.8783303e-05
-0.0001148074
3.502838e-05
-0.00014003052
4.2826599e-05
-0.0001698036
5.252382e-05
-0.00020465393
6.445859e-05
-0.00024507389
7.8899526e-05
-0.00029148091
9.5962666e-05
-0.00034419205
0.00011553724
-0.00040340359
0.00013728182
-0.00046920998
0.00016075498
-0.00054166511
0.00018566159
-0.00062086579
0.00021206568
-0.00070701944
0.00024042886
-0.00080047233
0.00027151228
-0.000901706
0.00030629168
-0.0010113207
0.00034598269
-0.0011300193
0.00039219562
-0.001258596
0.00044722861
-0.0013979258
0.00051453605
-0.0015489443
0.0005994806
-0.001712601
0.00071038735
-0.001889707
0.00085968336
-0.0020806519
0.0010658228
-0.0022848618
0.0013562507
-0.0024996927
0.0017706253
-0.0027184041
0.0023655255
-0.0029264097
0.0032216258
-0.0030958582
0.0044541804
-0.0031771948
0.0062356873
-0.0030770652
0.0088157479
-0.002618879
0.01245505
-0.0015274297
0.017351979
0.0006397886
0.02348138
0.0044827258
0.030155402
0.010651881
0.035398
0.020295502
0.034284923
0.034299969
0.0098158822
0.050269621
-0.057422991
0.06314729
-0.14621537
0.068808063
-0.19480497
0.069435205
-0.18979069
-0.15528019
0.065278029
-8.990627e-09
3.5040441e-08
-3.9993842e-08
1.220791e-07
-1.00378e-07
2.3888574e-07
-1.9950861e-07
3.9226232e-07
-3.4924429e-07
5.9019846e-07
-5.6454641e-07
8.4204293e-07
-8.6422471e-07
1.1586884e-06
-1.2718464e-06
1.552788e-06
-1.8168382e-06
2.0390094e-06
-2.5358135e-06
2.6343471e-06
-3.4741612e-06
3.3585112e-06
-4.6879335e-06
4.2344412e-06
-6.2460621e-06
5.2889791e-06
-8.2329448e-06
6.5537967e-06
-1.0751411e-05
8.0666474e-06
-1.3926078e-05
9.8730943e-06
-1.7907074e-05
1.202884e-05
-2.2874064e-05
1.4602844e-05
-2.9040457e-05
1.7681388e-05
-3.665761e-05
2.1373213e-05
-4.6018732e-05
2.5815678e-05
-5.7462049e-05
3.1181682e-05
-7.1372683e-05
3.7686519e-05
-8.8182445e-05
4.5593065e-05
-0.00010836655
5.5212489e-05
-0.00013243608
6.6896125e-05
-0.00016092466
8.1012397e-05
-0.00019436811
9.790204e-05
-0.00023327599
0.0001178074
-0.00027809629
0.00014078297
-0.00032917867
0.00016661962
-0.00038674772
0.00019485087
-0.00045090485
0.00022491211
-0.00052167387
0.00025643061
-0.00059908071
0.00028947251
-0.00068322917
0.00032457733
-0.00077433835
0.00036262145
-0.00087273856
0.00040469189
-0.00097884331
0.00045208744
-0.0010931122
0.00050646453
-0.0012160082
0.00057012457
-0.0013479424
0.00064647028
-0.0014891881
0.00074072625
-0.0016397407
0.00086093996
-0.0017990406
0.0010189833
-0.0019655127
0.0012322948
-0.0021357396
0.0015264777
-0.0023029501
0.0019378357
-0.002454363
0.0025169384
-0.0025663378
0.0033336006
-0.0025977438
0.0044855864
-0.0024784922
0.0061164356
-0.0020788211
0.0084160768
-0.0011734836
0.011549713
0.00058117125
0.015597324
0.0037377136
0.020324838
0.0089627743
0.024930342
0.016790348
0.027570427
0.028171367
0.022903904
0.044037636
-0.0060503866
0.061297872
-0.074683228
0.073251127
-0.15816863
0.076416466
-0.19797031
0.075722267
-0.18909649
-0.15265738
0.07309946
-8.0980684e-09
4.3138509e-08
-3.6021631e-08
1.5000267e-07
-9.0414474e-08
2.9327858e-07
-1.7973812e-07
4.8158596e-07
-3.1473064e-07
7.2519099e-07
-5.0897137e-07
1.0362837e-06
-7.7957495e-07
1.429292e-06
-1.148041e-06
1.921254e-06
-1.6412856e-06
2.532254e-06
-2.2928914e-06
3.2859529e-06
-3.1446083e-06
4.210228e-06
-4.2481414e-06
5.3379743e-06
-5.6672684e-06
6.708106e-06
-7.48031e-06
8.3668383e-06
-9.7829908e-06
1.0369328e-05
-1.2691688e-05
1.2781792e-05
-1.6347069e-05
1.568422e-05
-2.0918057e-05
1.9173832e-05
-2.6606044e-05
2.3369375e-05
-3.3649159e-05
2.8416327e-05
-4.2326359e-05
3.4492878e-05
-5.2960957e-05
4.181628e-05
-6.5923067e-05
5.064863e-05
-8.1630265e-05
6.1300263e-05
-0.00010054557
7.4127797e-05
-0.0001231716
8.9522154e-05
-0.0001500395
0.0001078803
-0.00018169117
0.00012955371
-0.00021865344
0.00015476967
-0.00026140372
0.00018353325
-0.00031032984
0.00021554574
-0.00036569238
0.0002502134
-0.00042760761
0.00028682735
-0.00049607316
0.00032489616
-0.00057103962
0.00036443897
-0.00065249392
0.00040603163
-0.00074050838
0.00045063591
-0.00083523917
0.00049942268
-0.00093688788
0.00055373615
-0.0010456423
0.00061521896
-0.0011616002
0.00068608244
-0.0012846665
0.00076953664
-0.0014143998
0.00087045949
-0.0015497741
0.00099631434
-0.0016887735
0.0011579826
-0.0018277484
0.0013712697
-0.0019602968
0.0016590261
-0.0020753397
0.0020528787
-0.0021537774
0.0025953762
-0.0021624649
0.0033422881
-0.0020459447
0.0043690662
-0.0017121902
0.0057826811
-0.00099092583
0.0076948124
0.00039606772
0.010162719
0.0028753672
0.013118025
0.0070829283
0.016117277
0.01362262
0.01839065
0.022795829
0.018397217
0.035697165
0.010002568
0.053643269
-0.023996491
0.072060722
-0.093100681
0.082201454
-0.16830936
0.082846722
-0.19861558
0.080890897
-0.18714067
-0.15204
0.080273508
-7.1041569e-09
5.0242666e-08
-3.1598696e-08
1.7449721e-07
-7.9319762e-08
3.4099965e-07
-1.5771946e-07
5.5998566e-07
-2.7628088e-07
8.437524e-07
-4.4703163e-07
1.2070344e-06
-6.8517835e-07
1.6674387e-06
-1.0098838e-06
2.2459594e-06
-1.4452185e-06
2.9675886e-06
-2.0213154e-06
3.8620498e-06
-2.7757641e-06
4.9646767e-06
-3.7552817e-06
6.3174919e-06
-5.0176985e-06
7.9705228e-06
-6.6342881e-06
9.9834279e-06
-8.6924847e-06
1.2427525e-05
-1.1298993e-05
1.53883e-05
-1.4583293e-05
1.8968521e-05
-1.8701511e-05
2.3292049e-05
-2.3840576e-05
2.8508441e-05
-3.0222537e-05
3.4798288e-05
-3.8108796e-05
4.2379137e-05
-4.7803989e-05
5.1511474e-05
-5.9659006e-05
6.2503647e-05
-7.4072581e-05
7.5713838e-05
-9.1490635e-05
9.1545851e-05
-0.00011240234
0.00011043386
-0.0001373316
0.00013280955
-0.00016682232
0.00015904444
-0.00020141579
0.00018936314
-0.00024161827
0.00022373573
-0.00028785866
0.00026178613
-0.00034044065
0.0003027954
-0.00039950518
0.00034589187
-0.00046503147
0.00039042245
-0.00053689476
0.00043630227
-0.00061495492
0.00048409178
-0.00069911957
0.00053480056
-0.00078934912
0.00058965223
-0.00088560991
0.00064999694
-0.000987793
0.00071740205
-0.0010956032
0.0007938926
-0.0012084064
0.0008823399
-0.0013250063
0.0009870594
-0.0014433048
0.0011146128
-0.001559772
0.0012744498
-0.0016686081
0.0014801058
-0.001760326
0.0017507441
-0.0018194123
0.0021119649
-0.001820269
0.0025962329
-0.0017201208
0.0032421398
-0.0014485628
0.0040975083
-0.00088904102
0.0052231593
0.00017733411
0.0066284373
0.0020912231
0.0082488301
0.0053528319
0.009856416
0.010574332
0.010895777
0.018147106
0.010817876
0.028394323
0.0081500001
0.043211923
-0.004815032
0.063631076
-0.044415643
0.082350623
-0.11182023
0.089449267
-0.175408
0.087880082
-0.19704639
0.085228999
-0.18448958
-0.15353414
0.086723145
-6.0360218e-09
5.6278687e-08
-2.6845637e-08
1.9530682e-07
-6.7395938e-08
3.8154995e-07
-1.3405064e-07
6.2664036e-07
-2.3493731e-07
9.4463906e-07
-3.8040336e-07
1.3525005e-06
-5.8358297e-07
1.8706183e-06
-8.6109446e-07
2.5234709e-06
-1.2338997e-06
3.3403939e-06
-1.7283496e-06
4.3564997e-06
-2.3774586e-06
5.6137857e-06
-3.2224324e-06
7.1624657e-06
-4.3145006e-06
9.062591e-06
-5.7170826e-06
1.138601e-05
-7.5083232e-06
1.4218765e-05
-9.7840237e-06
1.7664e-05
-1.2660972e-05
2.1845469e-05
-1.6280672e-05
2.6911749e-05
-2.0813393e-05
3.3041162e-05
-2.6462465e-05
4.0447359e-05
-3.3468634e-05
4.9385306e-05
-4.2114214e-05
6.0157054e-05
-5.2726681e-05
7.3116113e-05
-6.5681173e-05
8.866833e-05
-8.1401249e-05
0.00010726593
-0.00010035695
0.00012938957
-0.00012305906
0.00015551165
-0.00015004779
0.00018603317
-0.00018187402
0.00022118937
-0.0002190699
0.00026093161
-0.00026210596
0.00030482219
-0.00031133466
0.0003520241
-0.00036693236
0.00040148957
-0.00042887157
0.00045236166
-0.00049695747
0.00050438816
-0.00057091704
0.00055805136
-0.000650478
0.00061436152
-0.00073538482
0.00067455904
-0.0008253472
0.00073995933
-0.00091993772
0.00081199257
-0.0010184459
0.00089240078
-0.0011196746
0.00098356861
-0.0012216438
0.0010890286
-0.0013211456
0.0012141146
-0.0014130958
0.0013664
-0.001489484
0.0015564941
-0.0015376477
0.0017989078
-0.0015374856
0.0021118028
-0.0014566695
0.0025154168
-0.001242625
0.0030280954
-0.00080842752
0.0036633107
-4.5651258e-06
0.0044192969
0.0014461915
0.0051776807
0.0039450161
0.0057500056
0.0079943419
0.0058070902
0.014010756
0.0048793625
0.022363602
0.0024650304
0.034053192
-0.0035395901
0.051742988
-0.022504828
0.074418845
-0.0670915
0.091376746
-0.12877813
0.094738604
-0.17876986
0.091486979
-0.19379477
0.089210254
-0.18221286
-0.15691795
0.092594064
-4.9256834e-09
6.120437e-08
-2.1904472e-08
2.1228561e-07
-5.4998863e-08
4.1464434e-07
-1.0943739e-07
6.8107889e-07
-1.9193076e-07
1.0271324e-06
-3.1106656e-07
1.4716363e-06
-4.7780198e-07
2.0373537e-06
-7.0607649e-07
2.7517454e-06
-1.0135675e-06
3.6478849e-06
-1.4226199e-06
4.7655521e-06
-1.9613796e-06
6.1525454e-06
-2.6651713e-06
7.8662574e-06
-3.5781496e-06
9.9755693e-06
-4.7552764e-06
1.2563137e-05
-6.2646411e-06
1.572813e-05
-8.1901764e-06
1.9589535e-05
-1.0634778e-05
2.4290071e-05
-1.3723818e-05
3.000079e-05
-1.7609048e-05
3.6926392e-05
-2.2472798e-05
4.5311109e-05
-2.853237e-05
5.5444877e-05
-3.6044394e-05
6.7669079e-05
-4.5308913e-05
8.2380633e-05
-5.6672744e-05
0.00010003216
-7.0531575e-05
0.00012112476
-8.7330084e-05
0.00014618808
-0.00010755898
0.00017574055
-0.00013174752
0.00021022171
-0.00016044897
0.00024989082
-0.00019421543
0.00029469807
-0.00023355635
0.00034416311
-0.00027887602
0.00039734377
-0.00033039651
0.00045301006
-0.00038809839
0.00051006354
-0.00045172788
0.00056801766
-0.00052087922
0.0006272027
-0.00059508862
0.00068857093
-0.00067386657
0.00075333699
-0.0007566463
0.00082273906
-0.00084266263
0.00089800891
-0.0009307708
0.00098050894
-0.0010191913
0.0010719891
-0.0011051384
0.0011749757
-0.0011842691
0.0012932453
-0.0012498989
0.0014320298
-0.0012917297
0.0015983248
-0.0012937692
0.0018009473
-0.0012310059
0.0020490395
-0.001063704
0.0023481148
-0.00072815443
0.0026925459
-0.00011678781
0.0030519441
0.00096900081
0.0033335083
0.002861822
0.0032848595
0.0059706617
0.0026411658
0.010669066
0.001108686
0.01733835
-0.0017899219
0.026841353
-0.0070379725
0.041206279
-0.017904516
0.062501641
-0.04380019
0.085344616
-0.089934475
0.097638934
-0.14107245
0.097699359
-0.17883028
0.094033922
-0.19012933
0.093020525
-0.18119946
-0.16184215
0.097944728
-3.8087386e-09
6.5013109e-08
-1.6933862e-08
2.2541073e-07
-4.2526201e-08
4.4023668e-07
-8.466872e-08
7.2322141e-07
-1.4863821e-07
1.0911019e-06
-2.4123821e-07
1.5642363e-06
-3.7121381e-07
2.1673293e-06
-5.497737e-07
2.9303053e-06
-7.9123874e-07
3.8893499e-06
-1.1138442e-06
5.0881576e-06
-1.5407292e-06
6.5794304e-06
-2.10114e-06
8.4266682e-06
-2.8318943e-06
1.0706324e-05
-3.7791379e-06
1.351038e-05
-5.0004326e-06
1.6949425e-05
-6.5672166e-06
2.1156319e-05
-8.5676559e-06
2.629051e-05
-1.1109912e-05
3.2543046e-05
-1.4325812e-05
4.0142292e-05
-1.8374883e-05
4.936018e-05
-2.3448674e-05
6.0518668e-05
-2.9775235e-05
7.399564e-05
-3.762354e-05
9.0228938e-05
-4.7307578e-05
0.0001097162
-5.918969e-05
0.00013300687
-7.3682582e-05
0.00016068097
-9.1249167e-05
0.00019330714
-0.00011239884
0.00023137138
-0.00013767777
0.00027516975
-0.0001676488
0.0003246691
-0.00020285341
0.00037936771
-0.00024374653
0.00043823689
-0.00029060391
0.00049986744
-0.00034343033
0.00056288996
-0.00040192981
0.00062651713
-0.00046557074
0.00069084363
-0.00053369173
0.00075669191
-0.00060555367
0.00082519893
-0.00068029463
0.00089748002
-0.000756793
0.00097450728
-0.00083345121
0.0010571672
-0.00090788686
0.0011464247
-0.00097648357
0.0012435725
-0.0010337279
0.0013504896
-0.0010712609
0.0014695628
-0.0010763551
0.001603419
-0.0010293289
0.0017539211
-0.00089951747
0.0019192281
-0.0006381149
0.0020867122
-0.00016594794
0.0022203789
0.00065324322
0.002232753
0.0020805938
0.0019061578
0.0044570894
0.00090836382
0.0081212714
-0.0010230162
0.013476094
-0.0042461363
0.021408178
-0.0097220063
0.033486263
-0.019116057
0.051807222
-0.036225476
0.07511978
-0.067112747
0.093794085
-0.10860878
0.10049941
-0.14777777
0.098982269
-0.17731314
0.095951536
-0.1870986
0.096614156
-0.18186208
-0.16810868
0.10288068
-2.724129e-09
6.7737238e-08
-1.2106434e-08
2.3479304e-07
-3.0410782e-08
4.5854103e-07
-6.0602472e-08
7.534131e-07
-1.065585e-07
1.1370579e-06
-1.7333367e-07
1.6310114e-06
-2.6750107e-07
2.2614967e-06
-3.9757991e-07
3.0603841e-06
-5.7457508e-07
4.0663451e-06
-8.1265021e-07
5.3262327e-06
-1.1299605e-06
6.8967407e-06
-1.5496853e-06
8.8463929e-06
-2.1012814e-06
1.125792e-05
-2.8220105e-06
1.4231109e-05
-3.7587688e-06
1.7886183e-05
-4.9702605e-06
2.2367811e-05
-6.5295503e-06
2.78498e-05
-8.5270265e-06
3.4540522e-05
-1.1073764e-05
4.268903e-05
-1.4305311e-05
5.2591727e-05
-1.8385836e-05
6.4599192e-05
-2.3512568e-05
7.9122373e-05
-2.9920426e-05
9.6636795e-05
-3.7886602e-05
0.00011768237
-4.7734932e-05
0.0001428552
-5.9839553e-05
0.00017278559
-7.4627296e-05
0.00020809488
-9.2577632e-05
0.00024932171
-0.00011421785
0.00029680997
-0.00014010883
0.00035056008
-0.00017081241
0.0004100713
-0.00020682742
0.0004742519
-0.00024848648
0.0005415265
-0.00029583344
0.00061023693
-0.00034855035
0.00067923404
-0.0004059945
0.00074828777
-0.00046730749
0.0008180049
-0.00053148834
0.00088937978
-0.0005973611
0.00096335278
-0.00066342681
0.001040573
-0.00072761182
0.0011213522
-0.00078690069
0.0012057136
-0.00083680085
0.0012934726
-0.00087054684
0.0013842356
-0.00087793352
0.0014769495
-0.00084344198
0.0015689275
-0.00074305399
0.0016535331
-0.00053884968
0.0017150238
-0.00016913534
0.0017169979
0.00046854061
0.001582703
0.001553643
0.0011476506
0.0033868428
7.2957962e-05
0.0062911126
-0.0019959061
0.010727491
-0.0054593948
0.017632192
-0.011150838
0.028434006
-0.02052382
0.044502459
-0.03518451
0.065565527
-0.057288543
0.086095041
-0.087642261
0.098006647
-0.12052039
0.10117641
-0.15094753
0.099502202
-0.17563894
0.097842047
-0.18543845
0.099988971
-0.184009
-0.17541831
0.1072986
-1.7119471e-09
6.9449185e-08
-7.6009303e-09
2.4068202e-07
-1.9101117e-08
4.7004121e-07
-3.8130481e-08
7.7244246e-07
-6.724975e-08
1.1661772e-06
-1.0986813e-07
1.6736298e-06
-1.7050583e-07
2.3221344e-06
-2.5513503e-07
3.1450133e-06
-3.7160759e-07
4.1828177e-06
-5.302009e-07
5.4848261e-06
-7.4429974e-07
7.1108395e-06
-1.0312453e-06
9.1333385e-06
-1.4133829e-06
1.1640057e-05
-1.919346e-06
1.4737073e-05
-2.5856131e-06
1.855245e-05
-3.4583773e-06
2.3240575e-05
-4.59576e-06
2.8987183e-05
-6.0704193e-06
3.6015181e-05
-7.9725567e-06
4.4591167e-05
-1.0413351e-05
5.5032521e-05
-1.3528812e-05
6.7714654e-05
-1.7484034e-05
8.3077594e-05
-2.2477787e-05
0.00010163055
-2.8747405e-05
0.00012395199
-3.6573778e-05
0.00015068157
-4.6286339e-05
0.00018249815
-5.8267575e-05
0.00022007612
-7.2956221e-05
0.00026401036
-9.0847146e-05
0.00031470089
-0.00011248325
0.00037219618
-0.00013842993
0.00043601798
-0.00016921592
0.00050503789
-0.00020522663
0.00057753721
-0.00024655517
0.00065156547
-0.00029288329
0.00072556217
-0.00034347642
0.0007988809
-0.00039728958
0.00087181806
-0.00045305111
0.00094514131
-0.00050924976
0.0010195514
-0.00056398136
0.0010953046
-0.00061465914
0.0011720299
-0.00065757923
0.0012486337
-0.0006872783
0.0013231717
-0.00069555962
0.001392517
-0.00067002637
0.0014514162
-0.00059164016
0.0014905412
-0.00043045288
0.0014923458
-0.00013789092
0.0014224618
0.0003679125
0.0012111945
0.0012250103
0.00072560515
0.0026685821
-0.00029592115
0.0050417363
-0.0023001963
0.0088772124
-0.0058313821
0.015190333
-0.011772515
0.025347565
-0.02130807
0.040107911
-0.035284167
0.058733659
-0.053810257
0.077850303
-0.076405188
0.091988143
-0.1017801
0.098747145
-0.12727939
0.10049265
-0.15269303
0.099407444
-0.17455374
0.099536838
-0.18556784
0.10303598
-0.18750815
-0.18343959
0.11105726
-8.1400738e-10
7.0263193e-08
-3.6026109e-09
2.4347062e-07
-9.0612209e-09
4.7549983e-07
-1.8173217e-08
7.8155446e-07
-3.2322735e-08
1.1803267e-06
-5.3439835e-08
1.6947469e-06
-8.4198445e-08
2.352893e-06
-1.2826709e-07
3.189082e-06
-1.9063874e-07
4.2451893e-06
-2.780513e-07
5.5722386e-06
-3.9952372e-07
7.2323119e-06
-5.6702643e-07
9.3008412e-06
-7.9633276e-07
1.1869364e-05
-1.1080529e-06
1.5048793e-05
-1.5289191e-06
1.8973316e-05
-2.0933331e-06
2.3804989e-05
-2.8452379e-06
2.9739087e-05
-3.84031e-06
3.7010253e-05
-5.1485746e-06
4.5899432e-05
-6.8573921e-06
5.6741339e-05
-9.0749011e-06
6.9932163e-05
-1.1933905e-05
8.5936599e-05
-1.5596214e-05
0.00010529286
-2.0257462e-05
0.00012861324
-2.61524e-05
0.00015657651
-3.3560622e-05
0.00018990637
-4.2812589e-05
0.00022932809
-5.4295416e-05
0.00027549319
-6.845679e-05
0.00032886227
-8.5802878e-05
0.00038954227
-0.00010688083
0.00045709593
-0.00013222789
0.00053038495
-0.00016227322
0.00060758254
-0.00019715848
0.00068645072
-0.0002365696
0.00076497329
-0.00027971933
0.00084203064
-0.00032538788
0.00091748661
-0.00037202821
0.00099178164
-0.00041776639
0.0010652896
-0.00046025056
0.0011377888
-0.00049631525
0.0012080946
-0.00052145959
0.001273778
-0.00052905363
0.0013307657
-0.00050910413
0.0013725675
-0.0004463105
0.0013886226
-0.00031660663
0.0013608374
-8.074187e-05
0.001256481
0.00032835056
0.0010133694
0.0010252207
0.0005143243
0.0022044159
-0.00045359001
0.004212946
-0.0023044512
0.0076609109
-0.0057481612
0.013631934
-0.011802405
0.02339582
-0.021536401
0.037295725
-0.035207975
0.054014724
-0.052003166
0.070906326
-0.070701859
0.084583668
-0.090082529
0.092880325
-0.11007676
0.097159295
-0.13155836
0.099108979
-0.15464272
0.099608579
-0.17505334
0.10116693
-0.18712619
0.10564672
-0.19198794
-0.1919604
0.11416754
-7.1375898e-11
7.0334569e-08
-2.9632328e-10
2.4369557e-07
-7.5775287e-10
4.7596126e-07
-1.6614364e-09
7.8245814e-07
-3.4066756e-09
1.182072e-06
-6.6853343e-09
1.6980256e-06
-1.2613304e-08
2.358821e-06
-2.2909714e-08
3.1993784e-06
-4.0134877e-08
4.2624145e-06
-6.7997931e-08
5.6001017e-06
-1.1175966e-07
7.2760737e-06
-1.787459e-07
9.3678275e-06
-2.7899459e-07
1.1969612e-05
-4.260771e-07
1.5195875e-05
-6.3810039e-07
1.9185339e-05
-9.3895003e-07
2.4105839e-05
-1.3597857e-06
3.0159923e-05
-1.9408519e-06
3.759132e-05
-2.7335924e-06
4.6692172e-05
-3.8031723e-06
5.7810919e-05
-5.2313709e-06
7.1360362e-05
-7.1199463e-06
8.7825174e-05
-9.5944781e-06
0.00010776739
-1.2808802e-05
0.00013182756
-1.6950097e-05
0.00016071781
-2.2244794e-05
0.00019520107
-2.8965363e-05
0.00023604865
-3.7437764e-05
0.00028396559
-4.8048468e-05
0.00033947297
-6.1247515e-05
0.00040274131
-7.7538531e-05
0.00047338695
-9.7434301e-05
0.00055028072
-0.00012136144
0.00063150969
-0.00014954108
0.00071463036
-0.00018163322
0.00079706543
-0.00021684588
0.0008772433
-0.00025380507
0.00095444579
-0.0002906799
0.0010286565
-0.00032518802
0.0010997977
-0.00035446104
0.0011670618
-0.00037463431
0.0012282679
-0.00038019835
0.0012793421
-0.00036296384
0.0013135312
-0.00031039765
0.0013200013
-0.00020277881
0.0012810037
-7.7270287e-06
0.0011657856
0.00033090682