/*--------------------------------*- C++ -*----------------------------------*\
  =========                 |
  \\      /  F ield         | OpenFOAM: The Open Source CFD Toolbox
   \\    /   O peration     | Website:  https://openfoam.org
    \\  /    A nd           | Version:  13
     \\/     M anipulation  |
\*---------------------------------------------------------------------------*/
FoamFile
{
    format      ascii;
    class       volVectorField;
    location    "45.803496";
    object      UMean;
}
// * * * * * * * * * * * * * * * * * * * * * * * * * * * * * * * * * * * * * //

dimensions      [0 1 -1 0 0 0 0];

internalField   nonuniform List<vector> 
17140
(
(-1.6276461e-06 6.9507819e-05 -7.5038952e-23)
(-2.0458637e-05 0.00021404051 -5.4342575e-24)
(-6.1221981e-05 0.00037210137 3.5943843e-22)
(-0.00013233448 0.00054441765 -3.9544923e-22)
(-0.00024151563 0.00073174368 4.6272413e-23)
(-0.00039923938 0.00093471627 -1.5154724e-22)
(-0.00061836628 0.0011538191 -2.5543426e-22)
(-0.00091437864 0.0013893238 1.2506698e-22)
(-0.001305851 0.0016412226 4.098984e-22)
(-0.0018148929 0.0019091482 1.0077068e-21)
(-0.0024675832 0.0021922839 -1.499483e-21)
(-0.0032943632 0.0024892679 1.3414653e-21)
(-0.0043303607 0.0027980967 2.0595465e-22)
(-0.0056155807 0.0031160339 -1.1742433e-21)
(-0.0071949004 0.0034395418 1.3117708e-22)
(-0.0091177922 0.0037642451 -1.0485796e-21)
(-0.011437704 0.0040849556 3.9732535e-23)
(-0.014211039 0.0043957732 -8.565842e-24)
(-0.017495716 0.0046902886 -6.4034706e-22)
(-0.02134937 0.0049618963 8.4261539e-22)
(-0.025827342 0.0052042124 -4.1041476e-22)
(-0.030980682 0.0054115631 8.0341728e-23)
(-0.03685489 0.0055794775 5.9496171e-22)
(-0.043490692 0.0057051148 -5.9930282e-22)
(-0.050922324 0.0057876184 -9.6541338e-22)
(-0.05917709 0.0058281307 7.8741857e-22)
(-0.068280934 0.0058289269 3.8951087e-21)
(-0.078267306 0.0057932583 4.5841234e-22)
(-0.089166421 0.005725887 -4.1038396e-21)
(-0.10099811 0.0056303553 -9.6189451e-22)
(-0.11378164 0.0055083045 -3.4700189e-21)
(-0.12752938 0.0053608403 4.6218799e-21)
(-0.14224614 0.0051894673 -1.2083546e-21)
(-0.15792885 0.0049960147 -5.8621033e-22)
(-0.17456448 0.004781882 -5.7625084e-21)
(-0.19212568 0.0045475266 2.5590521e-21)
(-0.21056434 0.0042924286 -3.8487208e-21)
(-0.22980331 0.0040153955 -2.6041455e-21)
(-0.24972686 0.0037150967 -1.1865746e-21)
(-0.27017126 0.0033910049 3.6023056e-21)
(-0.29091661 0.0030439 6.7375523e-21)
(-0.31167876 0.0026758793 6.0552148e-21)
(-0.33210161 0.0022893909 2.6166852e-21)
(-0.35175866 0.0018854973 -1.2453926e-20)
(-0.37014721 0.0014647677 -8.9350841e-21)
(-0.38671876 0.0010316228 2.1577165e-21)
(-0.40096077 0.00058697279 -1.4366371e-20)
(-0.41226576 0.00013477464 -4.7828701e-21)
(-0.420051 -0.00031362096 4.7894153e-21)
(-0.42388538 -0.0007401409 1.1554596e-20)
(-0.42341607 -0.0011264022 -7.0483462e-21)
(-0.41833893 -0.0014692817 -4.4317249e-21)
(-0.40836971 -0.0018060245 1.1531912e-20)
(-0.39328401 -0.0021787781 5.4734672e-21)
(-0.37268156 -0.0026418411 3.9453923e-21)
(-0.34636801 -0.0033275464 -3.1101397e-21)
(-0.31362027 -0.0044271587 8.6478233e-21)
(-0.27401373 -0.0061663219 7.3492055e-21)
(-0.22570523 -0.0087522247 1.8917101e-21)
(-0.16822646 -0.012299614 -4.9304789e-21)
(-0.096642423 -0.015512339 -3.9874183e-21)
(-0.015150082 -0.015228458 -1.5152554e-20)
(0.080824004 -0.010377854 -2.2908711e-21)
(0.17437069 -0.0033970882 1.9588187e-20)
(0.28158188 0.0029323806 -1.5565927e-20)
(-1.610415e-05 0.00037593997 2.1261075e-23)
(-6.4716698e-05 0.0011569 -1.8803333e-21)
(-0.00013763653 0.0020101324 1.6740066e-21)
(-0.00024329172 0.0029397742 -4.568428e-22)
(-0.00038941997 0.0039497025 -9.44195e-22)
(-0.00058644088 0.0050431447 1.8057926e-21)
(-0.00084708873 0.0062224309 -1.8852692e-21)
(-0.0011866462 0.00748867 1.6619339e-22)
(-0.0016233852 0.008841349 -5.1986492e-22)
(-0.0021789927 0.010277872 -8.6379106e-24)
(-0.0028789906 0.011793051 -1.7455255e-21)
(-0.0037531136 0.013378563 2.7854666e-21)
(-0.0048356207 0.015022399 2.3107077e-22)
(-0.0061654819 0.016708362 -2.2938105e-21)
(-0.0077863801 0.018415689 7.097735e-22)
(-0.0097464552 0.020118904 4.5401517e-22)
(-0.012097723 0.021788034 -2.9011197e-21)
(-0.014895111 0.023389328 9.5442233e-21)
(-0.018195103 0.024886648 -6.0381762e-21)
(-0.02205403 0.0262436 7.3091496e-21)
(-0.026526162 0.027426423 -1.0925976e-20)
(-0.031661805 0.028407417 2.7116598e-21)
(-0.037506066 0.029168466 1.1326173e-21)
(-0.044099554 0.029703937 -3.7333872e-21)
(-0.05147716 0.030022213 1.3602777e-20)
(-0.059666615 0.030143977 2.0361479e-21)
(-0.068693902 0.03009429 -1.0759619e-20)
(-0.078593074 0.029897179 1.2165415e-20)
(-0.089394423 0.029572479 -1.7168678e-21)
(-0.10111743 0.029136304 -1.6707166e-20)
(-0.11378084 0.028600371 1.7672352e-21)
(-0.12739644 0.027974514 1.3495227e-20)
(-0.14196824 0.027268598 3.1532064e-22)
(-0.1574919 0.026491573 -1.0236449e-20)
(-0.17395269 0.025648822 1.1526801e-20)
(-0.19132108 0.024740125 -5.2076292e-21)
(-0.2095461 0.02375928 6.2112859e-21)
(-0.22854708 0.022695037 1.9693313e-20)
(-0.24820408 0.021532752 4.3787361e-21)
(-0.26834832 0.02025685 1.7111665e-20)
(-0.28875362 0.018852814 -2.1885511e-20)
(-0.30912786 0.017308049 -1.98713e-20)
(-0.32910415 0.015611634 -3.308981e-21)
(-0.34823892 0.013755697 2.6623223e-20)
(-0.36600843 0.011742591 -1.2260989e-20)
(-0.38185148 0.0095939504 -4.1571619e-21)
(-0.3951878 0.0073293508 2.2409557e-21)
(-0.40542879 0.0049650833 6.772734e-21)
(-0.41201069 0.0025628242 -3.2675728e-21)
(-0.41445614 0.00019093316 5.8191549e-21)
(-0.41239593 -0.0021101476 3.479523e-20)
(-0.40555051 -0.0043255847 1.6636085e-21)
(-0.39365301 -0.0064761111 -7.4884372e-21)
(-0.37649589 -0.0086195181 1.673038e-20)
(-0.35373806 -0.010848731 -1.4427564e-20)
(-0.32515665 -0.013337456 4.1518092e-20)
(-0.29002263 -0.016358099 1.2005029e-20)
(-0.247947 -0.020258276 -3.4690246e-20)
(-0.19699661 -0.025372312 5.9544417e-21)
(-0.13649489 -0.032092308 7.0294031e-21)
(-0.061642217 -0.038579949 1.4567632e-21)
(0.021632397 -0.041308985 -1.9735651e-20)
(0.1189154 -0.038023536 3.9759886e-20)
(0.21297581 -0.031982663 1.2106852e-20)
(0.3208764 -0.025593331 2.0706827e-20)
(-4.7374972e-05 0.00067638645 1.1706624e-21)
(-0.00016016495 0.0020816033 -5.6485102e-22)
(-0.00030235233 0.0036170214 -1.5026319e-22)
(-0.0004822694 0.005290257 1.4265639e-22)
(-0.00070769109 0.007108402 -6.9153183e-22)
(-0.00098887751 0.0090774198 -5.1280657e-23)
(-0.0013382469 0.011201684 -6.5840853e-22)
(-0.0017706006 0.013483374 -7.1043748e-22)
(-0.0023034795 0.01592178 5.823858e-21)
(-0.0029575858 0.018512474 -5.2140968e-21)
(-0.0037571626 0.021246386 2.5038125e-21)
(-0.0047303287 0.024108805 3.682263e-21)
(-0.0059093669 0.027078363 -7.339957e-21)
(-0.0073309108 0.030126105 -9.1270552e-22)
(-0.0090359599 0.033214762 3.5535775e-21)
(-0.011069673 0.036298438 2.4616361e-21)
(-0.013480875 0.039322932 -2.8812106e-21)
(-0.016321226 0.042226991 1.0534448e-20)
(-0.01964404 0.044944764 -6.3018211e-21)
(-0.023502783 0.047409665 3.1500878e-21)
(-0.027949387 0.049559656 -1.0771537e-20)
(-0.03303255 0.051343619 -2.8385541e-21)
(-0.038796537 0.052728012 6.0073094e-21)
(-0.045281708 0.053702461 -9.1526024e-21)
(-0.052524319 0.054282715 -3.6327775e-21)
(-0.060552829 0.054507878 4.463294e-21)
(-0.069393795 0.054426451 2.5528409e-20)
(-0.079081994 0.054083804 1.1631606e-20)
(-0.089647432 0.05351482 -5.94432e-21)
(-0.10110953 0.052748757 6.318449e-21)
(-0.11348541 0.051807963 -4.0937841e-21)
(-0.12678561 0.050711116 -2.3052837e-20)
(-0.14101205 0.049476402 7.8027059e-21)
(-0.1561575 0.048119863 2.345252e-20)
(-0.17220314 0.046651008 -8.0101821e-21)
(-0.18911409 0.045069053 -1.119324e-20)
(-0.2068326 0.04336204 1.9482273e-20)
(-0.22526939 0.041508546 5.9121026e-21)
(-0.24429407 0.039480444 -1.0671577e-20)
(-0.26372542 0.037246626 -4.3034858e-21)
(-0.28332179 0.034776391 2.0448722e-20)
(-0.30277126 0.032040904 -5.8690099e-21)
(-0.32168172 0.029013727 -8.3599614e-21)
(-0.33957649 0.025676387 -2.1925897e-20)
(-0.35589771 0.022032649 4.135029e-20)
(-0.37005323 0.018121603 -2.6353995e-20)
(-0.38142553 0.013994546 -6.4670711e-21)
(-0.38940554 0.0096961548 -2.5636463e-20)
(-0.39344133 0.0053241862 -3.0461084e-20)
(-0.39309126 0.0010017168 -1.527598e-21)
(-0.38802757 -0.0031838763 6.397323e-21)
(-0.3780199 -0.0072079974 -4.7540837e-20)
(-0.36283751 -0.01110665 -2.0384455e-20)
(-0.34229468 -0.014956179 -2.1147788e-20)
(-0.31605529 -0.018877237 -6.9911464e-21)
(-0.28390679 -0.023094923 -5.5337234e-20)
(-0.24508777 -0.027955524 2.2209403e-20)
(-0.19919362 -0.033942776 -6.9521222e-21)
(-0.14399052 -0.041555121 -5.8282005e-20)
(-0.078569245 -0.051402836 -2.3690993e-20)
(0.0010825925 -0.0608187 2.9174953e-20)
(0.087696863 -0.066095961 1.0330418e-19)
(0.18698806 -0.064001413 -3.4175349e-20)
(0.28135566 -0.058671233 -5.5980597e-20)
(0.38857197 -0.051769657 -2.4625229e-20)
(-9.4503702e-05 0.00096078271 -3.8954579e-21)
(-0.00030399857 0.002957446 4.0330314e-21)
(-0.00055056881 0.0051398541 -1.4591231e-21)
(-0.00084236801 0.0075191631 1.5879933e-22)
(-0.0011872319 0.010105778 -3.1406184e-21)
(-0.0015951856 0.012908574 3.2542405e-21)
(-0.0020781757 0.015934262 -4.9426186e-21)
(-0.0026502408 0.019186551 2.3314539e-21)
(-0.0033278408 0.022665152 8.8807855e-21)
(-0.0041301819 0.02636459 -2.143135e-21)
(-0.0050795659 0.030272873 -8.187093e-21)
(-0.006201651 0.034370066 2.5118233e-21)
(-0.0075257194 0.038626809 1.698536e-22)
(-0.0090848433 0.043002911 -6.6473586e-21)
(-0.010915921 0.047446223 2.0962031e-20)
(-0.013059539 0.051892045 -1.2987274e-20)
(-0.015559607 0.056263415 -1.2477648e-22)
(-0.01846272 0.060472694 7.3432727e-21)
(-0.021817238 0.064424871 -1.8892702e-20)
(-0.025672102 0.068022929 9.0497697e-21)
(-0.030075486 0.071175346 1.3704516e-20)
(-0.035073419 0.073805351 5.6276986e-21)
(-0.040708693 0.07586083 -2.8372594e-20)
(-0.047021149 0.077322975 -1.5058919e-20)
(-0.054048652 0.078211149 9.9480373e-21)
(-0.061821046 0.078580313 -5.8567118e-21)
(-0.070366311 0.078503068 2.2406451e-20)
(-0.07971934 0.078046582 -6.5183615e-21)
(-0.089909928 0.077261299 1.785505e-20)
(-0.10095804 0.076190344 -1.0262947e-20)
(-0.112878 0.074867364 6.3868876e-21)
(-0.12567848 0.073320044 -2.3868693e-20)
(-0.13935827 0.071574752 3.4997785e-21)
(-0.15390579 0.069654489 -1.850775e-20)
(-0.16929622 0.067572823 1.7977685e-20)
(-0.18548662 0.065328534 5.7042586e-21)
(-0.202409 0.062904084 -7.3188243e-20)
(-0.21996147 0.060267665 -1.913142e-20)
(-0.23799834 0.057377377 1.6017694e-20)
(-0.25632015 0.054186156 -1.5771151e-20)
(-0.27466334 0.050646037 3.9912623e-21)
(-0.29268908 0.04671042 2.5327642e-20)
(-0.30997274 0.042336424 -1.1976148e-21)
(-0.32599888 0.03749594 -8.2685868e-21)
(-0.34018112 0.032199238 4.1029431e-21)
(-0.35191767 0.026506528 -1.7817291e-21)
(-0.36056814 0.020496095 -5.5418293e-21)
(-0.36553161 0.014259467 8.6724694e-20)
(-0.36630147 0.0079553551 -9.5686038e-21)
(-0.36250321 0.0017541532 8.8231809e-21)
(-0.35386664 -0.0042241265 -8.2648003e-20)
(-0.34020479 -0.0099473885 4.5423727e-20)
(-0.32130867 -0.01546648 3.7353432e-20)
(-0.29698965 -0.02088556 3.5975082e-20)
(-0.26690303 -0.026360164 3.5052828e-20)
(-0.23083108 -0.032176086 5.5891713e-20)
(-0.18793864 -0.038761601 -1.1329156e-19)
(-0.13761226 -0.046785791 7.1009848e-20)
(-0.077329922 -0.056919803 1.1043253e-19)
(-0.0058588742 -0.06975565 -8.2677436e-20)
(0.079171744 -0.081670516 -2.7353938e-20)
(0.16952808 -0.089013448 -2.4867211e-20)
(0.27044964 -0.087561557 1.2924569e-19)
(0.36426645 -0.082460569 9.6861792e-20)
(0.46850419 -0.074534446 -4.4623247e-21)
(-0.00015543424 0.001219064 2.7195671e-21)
(-0.00048999505 0.0037536571 -5.8479134e-21)
(-0.00087160644 0.0065254744 4.7709244e-21)
(-0.0013081971 0.0095492443 -1.8045451e-21)
(-0.0018077145 0.012838788 -6.5250696e-22)
(-0.0023798948 0.016406155 5.6233487e-21)
(-0.0030361004 0.020260811 -1.427701e-21)
(-0.0037894198 0.0244086 -3.0368182e-21)
(-0.0046549379 0.028850476 -2.3394228e-22)
(-0.0056499773 0.033581029 -1.9918879e-21)
(-0.0067943432 0.038586787 2.8002303e-21)
(-0.0081105466 0.04384435 -1.9568402e-21)
(-0.0096239999 0.049318436 -7.251692e-21)
(-0.011363155 0.054959985 -2.1097809e-22)
(-0.013359559 0.060704532 5.6370993e-21)
(-0.015647781 0.066471207 4.0330669e-21)
(-0.018265203 0.072162772 -3.5097877e-21)
(-0.021251617 0.077667262 3.4512218e-22)
(-0.02464863 0.082861795 7.0489052e-21)
(-0.028498891 0.087619075 8.720946e-21)
(-0.032845199 0.091816801 -1.0131363e-20)
(-0.037729569 0.09534963 -1.0384527e-20)
(-0.043192402 0.098142432 1.4241949e-20)
(-0.049272533 0.10016243 -1.7939441e-20)
(-0.056008947 0.10142679 -3.1591546e-20)
(-0.063434214 0.10200183 7.583233e-20)
(-0.071578351 0.10198425 -4.2408982e-20)
(-0.080474858 0.10146308 6.3602505e-20)
(-0.09015471 0.1005062 -8.0537912e-20)
(-0.10063901 0.099171182 9.0901357e-20)
(-0.11193826 0.097503744 -9.5008735e-20)
(-0.12405873 0.095540946 1.6239787e-20)
(-0.13699524 0.093317226 5.6319144e-20)
(-0.15073084 0.09086235 -3.2089434e-20)
(-0.1652333 0.088193947 1.0148868e-20)
(-0.18044989 0.085310478 3.0426276e-21)
(-0.1963 0.082188915 3.6936721e-20)
(-0.21266634 0.078787117 1.199573e-20)
(-0.22938525 0.075049267 1.2008417e-20)
(-0.24623623 0.070911804 1.2084284e-20)
(-0.26293094 0.066308541 -6.1538092e-20)
(-0.27910175 0.061173868 2.6911677e-20)
(-0.2942916 0.055448483 4.0760169e-21)
(-0.3079538 0.04909896 -4.8474032e-20)
(-0.31949504 0.042150719 -2.4162882e-20)
(-0.32831806 0.034692341 1.1884639e-20)
(-0.33380577 0.026827853 4.2094584e-20)
(-0.33540065 0.018705552 -1.8310957e-20)
(-0.33265018 0.010541314 5.2271682e-20)
(-0.32521714 0.0025570537 2.8172927e-20)
(-0.31286412 -0.0051001541 3.8861949e-20)
(-0.29542414 -0.012403995 1.0362554e-19)
(-0.27267066 -0.019431288 -8.0588415e-20)
(-0.24438423 -0.026313732 2.6056398e-20)
(-0.21018853 -0.033234176 -4.6034364e-20)
(-0.16981814 -0.040539406 -4.4223991e-20)
(-0.12228931 -0.048776923 -1.7375192e-20)
(-0.066789975 -0.058817137 -1.6404965e-19)
(-0.00021415115 -0.071477453 -4.5370449e-20)
(0.078167536 -0.087070066 1.0629274e-19)
(0.16924684 -0.10087776 4.1340774e-20)
(0.26340894 -0.10953521 -3.2352919e-20)
(0.36525943 -0.10810968 -6.8948137e-20)
(0.45765318 -0.10257673 -1.0864221e-19)
(0.55671822 -0.09286851 8.7508745e-21)
(-0.00022697055 0.0014415346 8.2003363e-21)
(-0.00070847181 0.0044405534 1.8633228e-21)
(-0.0012488286 0.0077225412 -1.5110462e-21)
(-0.0018557538 0.011305786 -5.5822811e-21)
(-0.0025373617 0.015207604 3.061704e-21)
(-0.003303098 0.019443476 -4.41383e-21)
(-0.0041636919 0.024026088 1.9134648e-21)
(-0.0051311907 0.028964146 4.5671822e-22)
(-0.006219136 0.034260899 -2.5933313e-21)
(-0.0074427056 0.039912408 -5.6093935e-21)
(-0.0088188628 0.045905529 -2.8126552e-22)
(-0.010366487 0.05221566 9.3173377e-21)
(-0.012106495 0.058804327 -1.2975547e-20)
(-0.014061922 0.065616754 2.113134e-20)
(-0.016257977 0.07257967 -5.5780078e-21)
(-0.018722031 0.079599725 1.198456e-20)
(-0.021483545 0.086563032 -1.4695591e-20)
(-0.024573917 0.093336491 9.6927083e-21)
(-0.028026258 0.099771649 -1.5615628e-21)
(-0.03187509 0.10571183 -6.4505493e-21)
(-0.036156004 0.11100296 1.5996874e-20)
(-0.040905314 0.11550789 -2.3080741e-20)
(-0.046159706 0.119123 2.5659696e-20)
(-0.051956206 0.12179428 4.4736105e-21)
(-0.058333366 0.1235288 -4.5192417e-20)
(-0.065328659 0.1243967 4.6612237e-20)
(-0.072973543 0.12451425 -3.0934836e-20)
(-0.081298762 0.12399641 3.5271641e-20)
(-0.090339758 0.12293216 3.3049497e-21)
(-0.10011792 0.12139175 2.0683613e-21)
(-0.11063994 0.11943396 -1.4700001e-20)
(-0.121909 0.1171064 9.1986023e-22)
(-0.1339156 0.11445165 -5.6635898e-20)
(-0.14663687 0.11150617 1.5603625e-20)
(-0.16003242 0.10829172 4.6831083e-20)
(-0.17403864 0.10480659 -2.2115712e-20)
(-0.18856119 0.10102256 1.8384049e-20)
(-0.20346648 0.096887628 -1.8452018e-20)
(-0.21857193 0.092332144 -1.0334403e-19)
(-0.23363555 0.087275753 5.7247908e-20)
(-0.24834473 0.081633373 1.3933014e-20)
(-0.26230558 0.07532032 -7.8686066e-20)
(-0.27503548 0.068263105 4.7575863e-21)
(-0.28597419 0.060429833 9.6360965e-21)
(-0.29455133 0.051869818 1.0123079e-19)
(-0.30019267 0.042702319 2.3131974e-20)
(-0.30234253 0.033058748 -3.5776737e-20)
(-0.30049394 0.023139593 -3.6106724e-20)
(-0.29421263 0.013208146 -5.0634361e-20)
(-0.28314715 0.003534017 -6.1778887e-20)
(-0.26705993 -0.0057039039 -3.7450258e-20)
(-0.24578651 -0.01448726 -5.8566707e-20)
(-0.21906355 -0.022922481 2.0189583e-20)
(-0.18663215 -0.031168937 -1.2468055e-19)
(-0.14804013 -0.039433385 -8.3340273e-21)
(-0.10293328 -0.048144523 -7.3734766e-21)
(-0.050049427 -0.057959436 -3.9112681e-21)
(0.011690554 -0.070030893 1.7608633e-19)
(0.085975459 -0.085091154 7.0617004e-20)
(0.1720259 -0.10304539 -1.1153896e-19)
(0.26933217 -0.11802445 -1.6623545e-19)
(0.36715966 -0.12708575 -7.6969085e-20)
(0.46874698 -0.12497628 -2.5981171e-20)
(0.55825417 -0.11823846 1.5475872e-19)
(0.64990002 -0.10599626 -4.0069317e-20)
(-0.00030481772 0.0016195008 -1.5305523e-21)
(-0.0009465985 0.0049913803 -3.1117111e-21)
(-0.0016600623 0.0086846655 7.5171574e-21)
(-0.0024530163 0.012721067 -2.8032638e-22)
(-0.0033337149 0.017121432 -3.6696588e-21)
(-0.0043113728 0.021904894 -1.6199533e-21)
(-0.0053961209 0.027087825 -1.1986405e-21)
(-0.0065989759 0.032682559 2.3687284e-21)
(-0.0079319114 0.038695776 -1.2302841e-20)
(-0.0094078927 0.045126588 9.3245914e-21)
(-0.011040913 0.051964267 -4.5229876e-22)
(-0.012846013 0.059185665 -5.7062334e-21)
(-0.014839299 0.066752369 2.1512818e-20)
(-0.017037949 0.074607745 -2.1637167e-20)
(-0.019460224 0.082674094 2.9175225e-21)
(-0.02212548 0.090850343 1.8259883e-20)
(-0.025054208 0.099010798 -1.7429497e-20)
(-0.028268102 0.10700575 6.2035403e-21)
(-0.031790198 0.11466482 -1.2267766e-20)
(-0.035645064 0.12180407 1.6073476e-20)
(-0.039859092 0.1282375 3.0847458e-20)
(-0.044460833 0.13379319 -3.1252808e-20)
(-0.049481335 0.13833298 -4.6804516e-20)
(-0.054954374 0.14177284 9.2341809e-20)
(-0.060916981 0.14409933 -7.5618964e-20)
(-0.067409843 0.14537542 4.4725634e-20)
(-0.074467743 0.14572809 -1.1763051e-20)
(-0.082121336 0.14530424 2.8154734e-20)
(-0.090406792 0.14421772 -2.9341693e-20)
(-0.099347395 0.1425498 -3.9906032e-20)
(-0.10894878 0.14037338 2.6941187e-20)
(-0.11920886 0.13774849 4.4904061e-20)
(-0.13011424 0.13472642 -4.0556186e-21)
(-0.14163585 0.13135043 -1.7166537e-21)
(-0.1537248 0.12764651 -2.987058e-20)
(-0.16630646 0.12361335 1.3028149e-20)
(-0.17927285 0.11921826 4.8062156e-20)
(-0.19247414 0.1143999 2.4191936e-20)
(-0.20570947 0.10907513 -3.7281123e-20)
(-0.21871668 0.10314686 2.9616961e-20)
(-0.23116161 0.096511212 -2.4961945e-20)
(-0.24263003 0.089065736 8.5002168e-21)
(-0.25262552 0.08072795 3.1554826e-20)
(-0.26059799 0.071477282 -7.4813446e-20)
(-0.26602428 0.061392573 -4.4120765e-20)
(-0.26838355 0.050619688 -2.8259214e-20)
(-0.26718699 0.039315449 8.7427877e-20)
(-0.26195005 0.027705335 5.597613e-20)
(-0.25218882 0.016087333 6.4912673e-20)
(-0.237505 0.0047909636 1.1218017e-19)
(-0.21766386 -0.0059554987 -3.8453254e-20)
(-0.19249216 -0.016140978 8.0631189e-21)
(-0.16167923 -0.025909265 6.4511049e-20)
(-0.12490776 -0.035450823 1.9078034e-19)
(-0.081617179 -0.04499909 1.2736437e-19)
(-0.03126577 -0.055081212 5.0959467e-20)
(0.027806466 -0.066467412 1.5159474e-19)
(0.097033569 -0.080588329 -1.0479341e-19)
(0.18011313 -0.097811404 1.1005281e-20)
(0.27447437 -0.11744453 1.7966464e-19)
(0.37775415 -0.13277737 1.2644886e-19)
(0.4786793 -0.14115193 6.0388082e-21)
(0.57827134 -0.13757035 -2.1745475e-19)
(0.66254536 -0.12899706 2.3344474e-20)
(0.74418778 -0.11356977 -3.456269e-20)
(-0.00038390073 0.001745776 -5.9662163e-21)
(-0.0011887871 0.005383944 2.5559511e-21)
(-0.0020785227 0.0093731732 -3.455882e-21)
(-0.0030611923 0.013738366 -1.9663264e-21)
(-0.0041452347 0.018503833 5.4957309e-21)
(-0.0053397339 0.023692485 5.1394073e-21)
(-0.0066543305 0.029324767 -5.2863087e-21)
(-0.0080991316 0.035417351 6.3736679e-22)
(-0.0096846712 0.041981468 1.4817716e-22)
(-0.011421834 0.049020891 1.0581298e-20)
(-0.013321769 0.056529504 -1.1684858e-21)
(-0.015395782 0.064488477 -2.1593168e-20)
(-0.017655227 0.072863062 1.7400536e-20)
(-0.020111402 0.081599132 -6.0648257e-22)
(-0.022775476 0.090619672 -1.1908233e-20)
(-0.025658466 0.099821605 -1.0397585e-21)
(-0.028771325 0.10907352 2.6844628e-21)
(-0.032125166 0.11821512 1.2313899e-20)
(-0.035731687 0.12705944 -2.3000997e-20)
(-0.039603846 0.13539913 4.1312321e-20)
(-0.043756776 0.14301769 -9.1282303e-21)
(-0.048208905 0.14970656 6.8528583e-21)
(-0.052983131 0.15528723 -5.7999478e-21)
(-0.058107777 0.15963591 2.2836851e-22)
(-0.06361702 0.16270576 -3.5912598e-20)
(-0.069550892 0.16453918 -3.6596899e-20)
(-0.075951223 0.16526121 7.3902303e-20)
(-0.08285072 0.1650441 1.2502221e-20)
(-0.090279378 0.1640394 -4.4399543e-20)
(-0.098266972 0.16234491 -1.6022422e-20)
(-0.10682135 0.16004176 -3.6577637e-20)
(-0.11593393 0.15720485 4.194864e-20)
(-0.12558702 0.15389642 1.8548936e-20)
(-0.13574525 0.15016668 -4.3673077e-20)
(-0.1463518 0.14604645 1.8594093e-20)
(-0.15732154 0.14153583 8.6890302e-21)
(-0.16853339 0.13659867 -2.6493443e-20)
(-0.17982224 0.13116524 -6.9484927e-20)
(-0.19097025 0.12513966 -2.1102823e-20)
(-0.201697 0.11840864 1.4195917e-20)
(-0.21165061 0.11085072 3.3631265e-20)
(-0.22040363 0.10234899 3.4551167e-20)
(-0.22745877 0.092818927 3.7956764e-20)
(-0.23229994 0.082261348 7.892771e-20)
(-0.23446135 0.070791134 -2.1357273e-21)
(-0.23349276 0.058568812 3.2626386e-20)
(-0.22894333 0.045757001 -1.7356739e-19)
(-0.22029306 0.032574375 -4.7493239e-20)
(-0.2069752 0.019351269 -5.3675294e-20)
(-0.18859612 0.0065016445 -1.4748118e-19)
(-0.16495063 -0.0056851056 1.714601e-19)
(-0.13583224 -0.017213316 -3.8254451e-20)
(-0.10085633 -0.028262929 -1.2351959e-19)
(-0.059592594 -0.039057471 -1.5334629e-19)
(-0.011299471 -0.049866784 -1.9851492e-20)
(0.044888252 -0.061341543 5.0386211e-20)
(0.11103163 -0.074353164 8.278293e-20)
(0.18887993 -0.090483624 -3.5602255e-20)
(0.28151715 -0.10951353 6.5941036e-20)
(0.38473335 -0.1299417 -5.6622405e-20)
(0.49362792 -0.14461725 -1.9815688e-20)
(0.5961205 -0.15116974 -6.0585052e-20)
(0.69111365 -0.14520223 2.7124936e-19)
(0.7668501 -0.1342893 9.2859925e-21)
(0.83520323 -0.11542399 1.1300417e-19)
(-0.00045855259 0.0018152495 5.5306841e-21)
(-0.0014176374 0.0056023561 9.3366467e-22)
(-0.0024742479 0.0097601595 -1.0270263e-21)
(-0.0036368159 0.014316406 -5.0532945e-21)
(-0.0049140557 0.019298646 6.0688983e-21)
(-0.0063150491 0.024733539 -5.1625847e-21)
(-0.0078491169 0.03064582 -2.4722186e-21)
(-0.0095256742 0.037057045 1.3305926e-22)
(-0.011354086 0.043983953 2.1000098e-21)
(-0.013343483 0.051436448 1.1989255e-20)
(-0.015502548 0.059415122 -2.0229324e-20)
(-0.017839276 0.067908297 2.4450643e-20)
(-0.020360718 0.07688857 -7.2330611e-21)
(-0.023072737 0.086308936 -9.8999352e-21)
(-0.025979798 0.09609864 1.534196e-20)
(-0.029084847 0.1061591 -3.0611669e-20)
(-0.032389344 0.1163604 3.7627635e-20)
(-0.035893544 0.12653923 5.9862304e-22)
(-0.039597088 0.13649937 2.2327075e-20)
(-0.043500047 0.14601618 -9.0479153e-20)
(-0.047604401 0.1548466 2.2407281e-20)
(-0.051915963 0.16274576 9.4854112e-20)
(-0.056446508 0.1694905 -4.5958188e-20)
(-0.061215763 0.17490772 -5.6135819e-20)
(-0.066252588 0.17890296 1.4470125e-20)
(-0.071594631 0.1814811 7.7266411e-20)
(-0.077285594 0.1827483 -1.1961078e-19)
(-0.083366764 0.18288435 1.3513895e-19)
(-0.089865366 0.18208203 -1.0826232e-19)
(-0.096806592 0.18048131 2.106783e-20)
(-0.1042064 0.17816904 -3.6567447e-20)
(-0.11205452 0.17522534 -5.2722101e-20)
(-0.1203279 0.17172715 2.1201479e-20)
(-0.12898543 0.16773603 5.6137919e-21)
(-0.1379622 0.16328888 7.9993319e-20)
(-0.14716313 0.1583881 -1.5827042e-20)
(-0.15645496 0.1529953 4.0650018e-20)
(-0.16565832 0.14703357 -3.4523699e-20)
(-0.1745394 0.14039538 2.0772134e-20)
(-0.18280114 0.13295248 1.3437677e-20)
(-0.1900771 0.12456839 1.1472079e-20)
(-0.19593268 0.11511675 1.1395973e-20)
(-0.19988091 0.10451973 -6.897738e-20)
(-0.20145524 0.092809427 -5.3657538e-20)
(-0.20023814 0.080136481 1.5036973e-20)
(-0.19583564 0.06666014 -9.3296061e-21)
(-0.18778825 0.05251958 3.8819731e-20)
(-0.1755041 0.037907466 -7.5725547e-20)
(-0.15841594 0.023201747 -8.7088528e-20)
(-0.13622663 0.0089099831 -2.5039479e-20)
(-0.1087571 -0.0046350798 -6.5865779e-20)
(-0.075710224 -0.017452119 2.1202224e-21)
(-0.036554232 -0.029761749 3.2078119e-20)
(0.0093294741 -0.041824551 1.5648536e-19)
(0.062994298 -0.053948848 -7.9076884e-20)
(0.12566331 -0.066901778 3.2257848e-20)
(0.19978568 -0.081615127 -9.6611482e-20)
(0.28748485 -0.099600036 1.6540341e-19)
(0.39089986 -0.11988616 -9.6960493e-20)
(0.50345662 -0.13997088 3.4544048e-20)
(0.61672829 -0.15268035 -3.3093055e-23)
(0.71766398 -0.15622579 2.877551e-20)
(0.803847 -0.14719105 1.1052606e-19)
(0.86673223 -0.13385008 -2.1167184e-19)
(0.91778157 -0.11211153 2.212821e-19)
(-0.00052289813 0.0018254606 -1.2200055e-20)
(-0.001615164 0.0056387464 -5.2500319e-21)
(-0.0028161625 0.009831462 8.2508315e-21)
(-0.0041347172 0.014433687 -2.1745151e-22)
(-0.0055798974 0.019475805 -7.4822692e-21)
(-0.0071609216 0.024987973 -3.9201738e-21)
(-0.0088869965 0.030999186 8.2850991e-21)
(-0.010767133 0.037536143 -1.3642401e-21)
(-0.012809907 0.04462173 1.9317019e-20)
(-0.015023181 0.05227312 -3.7836769e-21)
(-0.017413773 0.060499364 -9.7097849e-23)
(-0.019987082 0.069298449 1.409883e-20)
(-0.02274668 0.078653742 -4.5586114e-20)
(-0.025693903 0.088529842 2.1468229e-20)
(-0.028827459 0.098867918 3.8951526e-20)
(-0.032143135 0.10958077 -4.2130729e-20)
(-0.035633678 0.12054805 5.2696519e-21)
(-0.039288966 0.13161244 -3.0562582e-20)
(-0.043096627 0.14257784 -2.3206887e-20)
(-0.047043223 0.1532113 7.4776272e-20)
(-0.051116161 0.16325035 -5.7612506e-20)
(-0.055306299 0.17241774 7.7891892e-20)
(-0.059611107 0.1804445 -9.4182691e-21)
(-0.064037881 0.18710071 3.9463476e-20)
(-0.068606228 0.19222996 -8.8095216e-20)
(-0.073348629 0.19577965 2.1372091e-20)
(-0.078307629 0.19781501 5.5135165e-20)
(-0.083528331 0.19850301 -1.3606966e-19)
(-0.089047914 0.19805969 6.0311723e-20)
(-0.094885128 0.19667788 6.5886078e-20)
(-0.1010502 0.19448345 -5.5345231e-20)
(-0.1075434 0.19156505 -7.4215585e-21)
(-0.11433717 0.1879999 3.8169731e-20)
(-0.12138361 0.18385829 -2.1421683e-20)
(-0.12861256 0.17918851 3.3231648e-20)
(-0.1359202 0.17399861 -1.1828288e-19)
(-0.14316117 0.16825034 6.269248e-20)
(-0.15014174 0.16186157 3.8006266e-20)
(-0.15661203 0.15471452 7.8361579e-20)
(-0.1622591 0.14666809 1.0257501e-20)
(-0.16670393 0.1375743 -8.4550085e-20)
(-0.1695089 0.12730396 3.3972034e-20)
(-0.17020471 0.11579548 4.9930388e-20)
(-0.16837036 0.10311402 7.8591615e-21)
(-0.16362027 0.08943769 -4.7394748e-20)
(-0.15558018 0.074916266 -4.118595e-20)
(-0.14374986 0.059643623 1.2374056e-19)
(-0.12752401 0.043797085 6.4793282e-20)
(-0.10647801 0.027806764 1.3932575e-19)
(-0.080445371 0.012248646 4.8606805e-20)
(-0.049201266 -0.0025300041 1.877495e-20)
(-0.01228116 -0.016587795 1.391901e-19)
(0.031086866 -0.030170399 5.5125577e-20)
(0.08183024 -0.043563449 -1.8628191e-19)
(0.14138653 -0.057092262 1.5094477e-19)
(0.2113467 -0.071611803 -1.4041698e-19)
(0.29492508 -0.088029725 6.8253525e-20)
(0.39479857 -0.10749243 -3.3488728e-19)
(0.51074569 -0.128056 -1.7054169e-19)
(0.63209072 -0.14638908 7.0753267e-20)
(0.74625776 -0.15578465 1.1314225e-19)
(0.83976934 -0.15543842 1.9262094e-19)
(0.91086245 -0.14333705 3.4784677e-20)
(0.95522578 -0.12811985 2.7305799e-20)
(0.98397956 -0.10496435 -2.9571873e-19)
(-0.00057138478 0.0017770768 -2.1872489e-22)
(-0.0017643189 0.0054947637 9.6666252e-21)
(-0.0030747374 0.0095892854 -1.1408088e-20)
(-0.0045118576 0.014092374 -5.4974663e-21)
(-0.0060851479 0.019036627 1.1028515e-20)
(-0.0078040823 0.024455183 3.5795017e-21)
(-0.0096779597 0.030380941 -1.7403318e-20)
(-0.011715698 0.03684561 1.8786146e-20)
(-0.013925523 0.043878408 3.9782409e-21)
(-0.016314615 0.051504372 1.5899429e-20)
(-0.018888678 0.059742169 -4.2457498e-20)
(-0.021651451 0.068601318 -5.2240809e-22)
(-0.024604156 0.078078727 3.871477e-20)
(-0.027744905 0.088154479 -4.1972852e-20)
(-0.031068113 0.098786869 3.0405987e-20)
(-0.034563961 0.1099068 1.1432122e-20)
(-0.038218027 0.12141182 -2.4271734e-20)
(-0.042011202 0.13316053 2.2313212e-20)
(-0.045920098 0.1449682 3.0314991e-20)
(-0.049918163 0.1566054 -6.5947925e-22)
(-0.053977684 0.16780156 -5.0085181e-20)
(-0.058072859 0.17825591 3.1740911e-20)
(-0.062183811 0.18765792 -1.8134037e-20)
(-0.066301146 0.19571788 -8.9974064e-20)
(-0.070430126 0.20220553 -3.0760628e-20)
(-0.074593037 0.20698992 8.5616699e-20)
(-0.078827779 0.21006825 -8.7296538e-21)
(-0.083180737 0.2115671 1.0071344e-19)
(-0.08769455 0.21170199 -6.0859113e-20)
(-0.092395936 0.21070529 3.2671254e-20)
(-0.097294817 0.20876311 -4.8256769e-20)
(-0.10238023 0.20599604 -1.1932926e-20)
(-0.10762406 0.20249144 6.1243609e-20)
(-0.11298292 0.19832716 -6.4305815e-20)
(-0.11838023 0.19355819 -9.5487931e-20)
(-0.12370362 0.18819759 1.0059447e-20)
(-0.12879656 0.18220878 1.0657292e-19)
(-0.13345097 0.17550637 -1.3812432e-19)
(-0.13740054 0.167966 3.0240537e-20)
(-0.14031645 0.15943688 -6.4932098e-20)
(-0.14180894 0.14976385 1.0003783e-20)
(-0.14143996 0.13882041 -1.0189889e-19)
(-0.13876293 0.12656429 -4.8794642e-20)
(-0.13338021 0.11309832 -5.9934861e-20)
(-0.12492579 0.098618208 2.3978064e-19)
(-0.11301763 0.083256008 7.7275361e-20)
(-0.097129559 0.067070479 -1.022203e-19)
(-0.076775932 0.050236875 8.2362985e-20)
(-0.051745294 0.03322818 6.8318484e-20)
(-0.021929294 0.016626179 -7.6741151e-20)
(0.013032528 0.00073312865 -4.0048024e-20)
(0.053854383 -0.014541525 -9.3996186e-20)
(0.10166805 -0.029434438 -4.5810114e-20)
(0.15780945 -0.044236435 1.5717015e-19)
(0.22411394 -0.059251264 8.9115136e-20)
(0.3031358 -0.075375328 1.441604e-20)
(0.39947413 -0.093343419 -5.4555788e-22)
(0.5150442 -0.11350069 8.2596816e-20)
(0.64422384 -0.13288271 -1.2261176e-19)
(0.77033448 -0.14768618 -1.6150452e-19)
(0.87734466 -0.15268937 -4.5968595e-20)
(0.95369552 -0.14861865 -3.5644928e-19)
(1.0006971 -0.13456063 -2.887367e-19)
(1.0199172 -0.11896935 -7.4293807e-20)
(1.0247674 -0.097107382 -4.0144504e-20)
(-0.0005993871 0.001674267 7.3648779e-21)