/*--------------------------------*- C++ -*----------------------------------*\
  =========                 |
  \\      /  F ield         | OpenFOAM: The Open Source CFD Toolbox
   \\    /   O peration     | Website:  https://openfoam.org
    \\  /    A nd           | Version:  13
     \\/     M anipulation  |
\*---------------------------------------------------------------------------*/
FoamFile
{
    format      ascii;
    class       volScalarField;
    location    "0.0015";
    object      CrankNicolson:ddt0(rho);
}
// * * * * * * * * * * * * * * * * * * * * * * * * * * * * * * * * * * * * * //

dimensions      [1 -3 -1 0 0 0 0];

internalField   nonuniform List<scalar> 
1000
(
-5.02204e-11
-4.1655e-12
-3.92935e-11
-1.11964e-11
-2.61011e-11
1.5102e-11
8.19656e-12
-1.62635e-14
-4.1796e-12
7.80031e-21
-1.33221e-11
-8.4636e-17
-3.45579e-14
6.38935e-13
-2.1085e-11
-1.18852e-11
8.32667e-12
6.16587e-12
-1.65863e-11
-2.04101e-12
-6.69235e-12
-1.46375e-13
1.64258e-11
-5.20417e-12
6.32734e-14
-8.3958e-12
5.89375e-14
6.02063e-12
-6.45813e-12
4.2284e-13
7.71521e-11
4.72355e-11
6.19594e-12
1.60045e-11
4.39101e-11
7.81019e-12
5.02418e-12
-3.01143e-11
-8.73804e-12
2.19197e-11
2.18392e-11
6.09519e-12
1.37728e-12
-6.02653e-11
-1.13839e-11
-7.12668e-12
8.39239e-12
9.77713e-12
-2.55006e-11
-2.67853e-11
-1.33182e-12
-3.27932e-11
3.28616e-19
2.19899e-11
-1.82408e-12
1.008e-11
-1.25102e-11
3.48689e-11
2.32283e-11
-7.62527e-15
-4.19963e-12
2.1761e-12
-2.06403e-12
-4.13731e-11
-3.3272e-11
-4.61375e-15
-9.75802e-12
-5.30056e-13
9.64598e-13
-3.51264e-12
-6.71846e-11
-5.43796e-11
6.64017e-13
-2.45916e-11
2.60209e-13
-9.50117e-13
4.57104e-13
5.27578e-11
4.03578e-14
-6.69183e-15
-8.28532e-12
-2.13371e-11
-6.24436e-12
2.88514e-11
4.75745e-12
4.02003e-13
-2.83881e-11
-4.26091e-12
2.09918e-11
8.32706e-12
-4.96995e-11
4.23332e-12
2.86287e-11
-1.14514e-11
1.8685e-12
-3.07539e-14
-2.81688e-11
-2.63366e-12
1.66851e-11
3.6841e-11
1.4308e-11
-1.66857e-11
-4.55433e-11
8.84902e-12
-1.87309e-11
-2.5366e-16
-6.50066e-14
1.91895e-12
3.10476e-11
8.45674e-12
-4.31915e-11
-1.60334e-12
1.66098e-11
2.43946e-14
2.04841e-14
2.17621e-11
-1.685e-11
3.46247e-11
1.99385e-11
1.37911e-11
6.24505e-12
4.37393e-14
2.75821e-11
-1.78649e-11
-5.19984e-12
1.97414e-11
-8.57315e-12
1.50923e-11
-2.5556e-11
1.92647e-13
3.22215e-13
3.33121e-11
1.66572e-11
-3.85961e-11
2.84356e-11
-1.77457e-11
1.30383e-13
2.50478e-11
4.42689e-11
1.00615e-13
-1.0757e-11
-4.65651e-14
-1.14998e-11
-6.5033e-13
5.00908e-12
1.12779e-11
8.21232e-12
-6.50547e-12
7.02902e-22
-4.21822e-14
-8.08388e-15
-2.56367e-11
1.0409e-12
1.26039e-13
4.68784e-12
5.82867e-11
1.2489e-11
-2.46164e-11
-4.2206e-12
4.89151e-11
-1.90706e-12
1.19449e-13
2.31265e-11
-1.61795e-12
1.66534e-11
3.5721e-16
1.26928e-11
-1.66544e-11
4.98929e-11
-1.66229e-11
-6.21145e-12
3.33067e-11
-8.33386e-12
1.7716e-11
-4.17954e-12
-8.13136e-15
3.47274e-12
-9.09383e-12
1.0142e-11
-3.76139e-11
-4.16524e-11
4.48451e-12
-2.59313e-13
1.76881e-11
-3.77707e-12
-1.82553e-12
-2.63623e-11
-1.26643e-11
1.62503e-13
3.34043e-11
-1.85317e-11
1.81455e-11
-2.61124e-12
5.12286e-13
-2.08148e-12
-1.26528e-16
1.60832e-11
-2.15558e-14
-3.26198e-13
-1.19045e-11
6.50519e-13
-1.55214e-11
2.04341e-14
-3.25254e-14
-1.69225e-13
5.10659e-12
3.90516e-13
7.79711e-12
-1.2893e-11
4.14502e-12
-1.70686e-11
-4.10642e-12
-2.21796e-14
1.71036e-11
1.24615e-12
-5.18726e-12
1.30816e-11
-1.74606e-11
2.11416e-13
-2.49789e-11
-3.20166e-12
1.91233e-11
1.67849e-11
8.32746e-12
-2.263e-11
-2.92734e-13
2.9144e-11
-3.52542e-16
-1.66056e-11
2.34787e-11
1.47031e-11
-1.76349e-15
-4.81538e-12
1.24952e-11
-1.25254e-11
3.25436e-11
-4.5016e-11
8.81472e-12
4.29341e-11
-2.35458e-12
-5.0823e-14
8.259e-12
1.35473e-11
1.04185e-12
1.02458e-12
7.50336e-12
-8.34294e-12
5.4513e-13
2.4455e-11
-1.2426e-11
-9.21301e-12
-1.29393e-11
-2.61085e-11
2.52396e-11
4.15982e-12
-1.82148e-11
-4.36843e-11
-6.68778e-11
-2.03292e-15
-6.10277e-12
6.62382e-11
-6.80937e-13
-6.72054e-11
-3.02543e-12
1.21026e-11
8.2086e-12
5.15533e-12
4.9404e-12
-4.3827e-11
-5.56928e-11
2.24644e-13
1.6632e-11
1.07641e-12
4.00433e-19
-5.12314e-16
5.89495e-19
-1.84762e-12
1.24901e-11
3.3245e-11
-1.75549e-11
-1.57739e-12
-2.207e-12
-3.88232e-12
-5.53586e-12
4.03626e-12
6.17154e-13
-1.67333e-11
-9.2372e-12
6.79543e-11
1.40511e-11
4.35865e-11
2.77968e-12
8.1315e-12
1.01889e-11
3.07543e-12
-7.1326e-13
5.47986e-12
-2.28374e-11
3.33494e-11
-2.66372e-11
3.26074e-12
3.73888e-11
6.42146e-11
-1.04111e-11
2.45669e-11
8.32871e-12
2.93002e-12
1.01222e-12
8.32668e-12
-1.17142e-12
4.29343e-11
5.21575e-13
-1.86266e-11
3.393e-11
2.10596e-11
-1.50742e-11
4.89198e-11
5.76169e-12
3.4342e-11
1.06508e-11
5.8197e-11
-6.07642e-12
2.41342e-12
5.03173e-11
-8.26202e-12
1.01533e-11
-2.25384e-12
1.2364e-11
-6.20169e-12
2.51586e-11
-8.84709e-12
-1.61292e-11
-1.17072e-11
-9.62802e-13
-3.11763e-11
4.70319e-11
2.91126e-11
-5.49716e-12
-1.65432e-11
-1.04185e-12
1.16027e-12
-3.2117e-12
-5.68139e-12
-1.24899e-11
-1.33354e-11
1.5504e-12
-7.16849e-13
7.80743e-12
1.66527e-11
-7.8021e-12
-1.03759e-11
-6.40317e-14
-2.01611e-11
2.50738e-11
-1.93511e-13
-5.28533e-13
1.88003e-11
-3.17753e-12
6.19405e-15
4.03421e-12
-8.26163e-12
-1.72819e-11
-1.4376e-11
7.46696e-13
4.90624e-16
1.01768e-15
9.32701e-14
1.04325e-12
1.19454e-11
1.70083e-11
-2.54085e-14
-2.09768e-12
4.29319e-12
6.67737e-12
-3.06406e-11
-1.55597e-11
-2.32955e-12
-3.97608e-11
-9.5165e-13
1.67093e-11
6.22023e-14
1.7205e-11
2.67204e-11
-2.58792e-12
-4.8286e-11
3.10047e-12
-3.63921e-12
1.86584e-12
-3.84224e-12
2.14759e-11
1.63271e-11
1.4422e-12
-1.90862e-12
-1.69952e-12
8.58788e-12
-1.03129e-11
-1.52262e-11
-3.765e-12
3.20464e-11
2.6178e-12
-1.0327e-12
1.94839e-18
-2.44571e-14
9.24152e-12
-4.00075e-11
-1.52172e-10
-5.17174e-10
-1.53494e-09
-4.43217e-09
-1.2935e-08
-3.73196e-08
-1.06153e-07
-2.97211e-07
-8.19564e-07
-2.22507e-06
-5.94519e-06
-1.56265e-05
-4.03853e-05
-0.000102574
-0.000255905
-0.000626761
-0.00150607
-0.00354833
-0.00819092
-0.0185114
-0.0409238
-0.0884189
-0.18651
-0.383671
-0.76871
-1.49796
-2.83453
-5.19909
-9.22519
-15.8004
-26.0598
-41.2856
-62.6709
-90.9417
-125.908
-166.11
-208.758
-250.107
-286.22
-314.529
-334.912
-348.554
-356.903
-361.235
-362.552
-361.609
-358.961
-355.016
-350.072
-344.351
-338.016
-331.19
-323.965
-316.415
-308.594
-300.55
-292.319
-283.936
-275.427
-266.82
-258.138
-249.403
-240.636
-231.857
-223.084
-214.334
-205.623
-196.966
-188.377
-179.867
-171.447
-163.128
-154.917
-146.823
-138.852
-131.009
-123.301
-115.73
-108.301
-101.017
-93.8808
-86.8942
-80.06
-73.3804
-66.8578
-60.4946
-54.2939
-48.2596
-42.3965
-36.7115
-31.2135
-25.9148
-20.8318
-15.9865
-11.4093
-7.14125
-3.23788
0.22657
3.15442
5.42036
6.8702
7.32719
6.61358
4.5986
1.28215
-3.08867
-7.91529
-12.2225
-14.8518
-14.5888
-10.7183
-3.62726
5.11978
13.3837
19.2724
21.658
20.1202
14.737
6.3908
-3.29012
-12.1344
-17.8418
-18.6629
-13.7192
-3.85247
7.97653
17.7049
21.9859
19.9453
14.0666
11.7833
25.3903
69.4748
154.545
277.391
415.247
534.039
605.108
616.947
574.532
491.395
383.583
267.261
157.887
68.4705
6.99021
-25.5311
-34.6456
-29.5058
-18.9613
-8.95943
-2.11566
1.30637
2.22229
1.8134
0.918434
0.0842971
-0.166828
-0.0606598
-0.531299
-0.580804
1.25483
0.653388
-3.78701
1.21929
10.7943
-8.88894
-19.9684
46.2412
33.8661
-143.729
30.1047
441.875
-322.25
-1027.24
2279.15
4088.15
1899.77
455.77
77.2771
12.4342
2.04991
0.338933
0.0560268
0.00925952
0.0015302
0.000252866
4.17851e-05
6.90468e-06
1.14093e-06
1.88525e-07
3.11516e-08
5.14547e-09
8.52004e-10
1.3513e-10
1.81817e-11
4.80497e-12
8.10743e-13
-4.24821e-12
1.92355e-13
3.95643e-12
-4.65182e-13
2.80245e-12
1.48718e-12
1.81233e-12
6.34103e-13
-3.40833e-13
-4.71677e-12
-4.16662e-12
9.32925e-16
-3.1225e-12
2.79193e-18
-5.20268e-12
3.77302e-12
-2.16298e-12
5.76031e-12
4.15675e-12
3.44777e-12
-5.03519e-13
-2.09741e-12
3.23771e-14
2.62182e-13
6.47571e-13
-1.26041e-13
1.13277e-14
2.00848e-12
4.39102e-12
-6.42457e-13
-3.38424e-12
-5.20409e-13
1.04692e-12
-3.4127e-13
4.52104e-12
-1.46625e-13
-3.2688e-12
-1.98968e-13
4.21008e-12
3.05751e-12
1.81466e-12
1.26219e-13
2.06342e-12
7.277e-12
-4.33511e-13
2.66701e-12
1.95727e-12
-1.43273e-12
2.04914e-12
1.30108e-13
2.08061e-12
-1.64405e-12
-5.64156e-13
-1.03619e-13
5.17807e-13
-8.52419e-13
2.8049e-12
-2.63487e-15
6.50191e-14
-1.82759e-12
-3.21335e-12
-1.08251e-12
1.886e-12
2.73218e-12
3.27038e-13
1.30142e-12
3.46403e-12
4.21209e-12
3.87376e-12
2.89462e-12
-3.156e-14
-2.02865e-12
2.62222e-13
-1.55512e-12
-1.22633e-12
-7.96997e-13
-5.63624e-13
-2.03278e-12
-4.13545e-12
-1.43592e-14
-3.73541e-13
-1.07775e-12
-7.84559e-13
2.34657e-12
3.29564e-12
3.44548e-12
-5.93295e-13
-5.12166e-12
1.65985e-12
-3.63912e-12
-1.58526e-12
-2.06006e-12
2.39856e-17
3.55953e-12
3.52139e-12
-1.42302e-14
1.98514e-12
2.84738e-16
3.28439e-14
-1.0614e-12
-3.8982e-12
-2.61734e-12
4.15927e-12
-2.42321e-12
-1.36965e-13
7.26159e-12
1.44026e-12
-2.08673e-12
1.50529e-13
2.94259e-13
4.89925e-12
-1.43952e-12
2.08175e-12
8.4574e-13
-3.90334e-12
4.16131e-12
5.75972e-13
3.25236e-12
5.20361e-12
-3.12196e-12
-6.38901e-12
-2.99698e-12
4.25378e-12
1.43826e-12
6.24514e-12
4.29331e-12
-7.03707e-12
-1.01521e-13
-3.32484e-13
-5.33722e-12
5.26162e-14
-6.99115e-12
3.90112e-12
-1.79091e-15
1.59474e-12
6.50529e-13
-2.60207e-13
3.24758e-13
-1.46368e-13
-4.16842e-12
-1.17691e-12
-2.0816e-12
-2.05276e-13
-5.81836e-13
2.89245e-12
1.24388e-12
-9.77274e-13
-2.10301e-12
-1.1012e-13
5.10431e-12
2.11405e-13
1.69775e-12
7.02785e-12
-3.85278e-13
-1.89033e-13
-4.16127e-12
3.12148e-12
2.60228e-12
9.49028e-12
4.87851e-14
4.72036e-12
-3.46462e-12
-7.48154e-13
2.37321e-12
-1.18288e-12
-4.14236e-12
-5.12676e-12
-2.19551e-13
-2.30528e-12
-2.73187e-12
-2.53404e-13
1.05579e-12
2.76658e-13
1.55286e-12
3.93121e-12
-3.90332e-12
-1.91707e-12
-5.59022e-12
1.16975e-12
1.65078e-12
3.67144e-12
3.60636e-14
-8.75904e-12
-1.05574e-12
5.13702e-12
-1.00249e-13
-2.13071e-12
2.08546e-12
4.82341e-12
1.12163e-16
-2.20294e-12
2.08291e-12
2.13046e-12
2.70455e-14
-1.06536e-12
4.1289e-12
-9.90633e-14
-1.31058e-13
-2.35046e-12
4.1635e-12
-3.87972e-12
3.53982e-12
-3.39897e-12
8.00931e-12
8.26181e-12
-3.64232e-12
2.17238e-12
-8.16744e-13
-4.16335e-12
-8.66289e-13
4.96276e-12
-3.24941e-14
3.93156e-12
1.49239e-12
-3.55736e-13
5.48877e-14
-6.25261e-13
1.33793e-13
-2.56139e-12
-2.86738e-12
8.37834e-15
-3.12639e-12
5.22112e-13
2.22213e-12
-1.03804e-12
7.88515e-13
-5.28556e-13
2.23058e-12
4.09245e-12
2.23325e-12
-4.17809e-12
2.10807e-12
3.37401e-12
-9.33984e-13
8.3921e-12
1.84153e-12
-9.14728e-13
5.15399e-13
-2.082e-12
6.34695e-16
-5.07292e-12
3.02467e-12
2.07964e-12
-5.89773e-13
2.43748e-13
-1.64516e-12
-2.59295e-13
4.1662e-12
4.19767e-12
3.05732e-12
5.20594e-12
3.64066e-12
-1.5776e-14
8.2482e-13
-1.9457e-12
-3.70406e-13
4.7075e-12
6.57219e-14
4.80971e-12
6.23656e-12
1.72866e-12
4.08134e-12
2.60901e-13
-4.16385e-12
-8.46248e-13
-2.19557e-12
-5.91941e-13
6.75847e-14
1.01632e-13
1.33459e-13
1.37383e-13
1.17399e-15
1.98223e-12
-1.05129e-12
2.29706e-12
2.13045e-12
1.67665e-12
1.41421e-12
1.05644e-12
5.28718e-14
1.95245e-12
-1.37218e-14
-8.15184e-13
1.3181e-12
4.17996e-12
3.11442e-12
7.76465e-13
8.32715e-12
-2.8642e-12
4.16232e-12
-5.65397e-13
1.83772e-12
3.46471e-12
3.25968e-12
-2.07354e-12
1.94606e-12
6.51981e-14
-4.14585e-13
-1.93863e-13
2.0526e-14
-1.76883e-12
-2.08777e-12
1.25086e-13
6.75535e-13
-5.43311e-13
-2.07959e-12
-3.77671e-14
-1.38316e-13
1.40878e-12
-2.20821e-13
-1.0665e-12
4.35856e-12
-5.20571e-13
4.68361e-12
2.26354e-12
6.81167e-12
2.19564e-12
2.94099e-12
3.26651e-12
2.27149e-12
2.46343e-12
2.00851e-14
-1.73496e-12
2.89943e-13
-1.57606e-12
5.11472e-12
-1.41061e-14
2.45355e-12
-3.77302e-12
3.96818e-12
-1.36622e-12
8.15463e-13
3.28149e-13
1.63329e-12
-1.81922e-12
-1.48243e-12
-4.13103e-12
3.17137e-13
3.14385e-12
4.8992e-12
-1.17241e-12
-1.78483e-12
3.25367e-12
6.13134e-12
-2.43625e-12
5.33841e-13
-8.8355e-13
1.97742e-13
-3.10416e-12
-3.59342e-12
7.45531e-13
2.07765e-12
1.73003e-12
-4.55435e-13
9.99286e-13
-1.13641e-12
-1.65156e-13
6.5378e-12
1.08434e-11
5.32189e-12
4.92087e-12
-7.03965e-12
1.46517e-12
5.17164e-12
2.92434e-12
6.49846e-14
-1.02267e-12
2.32002e-12
-2.02131e-12
-6.22587e-13
4.24498e-12
5.00809e-12
-1.5556e-12
2.76465e-12
3.55479e-12
4.82804e-15
3.24641e-13
-2.44058e-12
-1.49639e-12
1.2301e-13
6.56302e-12
2.08163e-12
-1.35901e-18
2.8625e-12
-6.15062e-19
2.39718e-12
3.73757e-12
4.9233e-12
8.13025e-13
4.21619e-12
-6.83012e-13
-4.5189e-12
8.93497e-14
-6.64868e-15
-4.45693e-12
4.22044e-12
-8.13648e-13
)
;

boundaryField
{
    sides
    {
        type            calculated;
        value           nonuniform List<scalar> 2(-8.13648e-13 -5.02204e-11);
    }
    empty
    {
        type            empty;
    }
}


// ************************************************************************* //
