/*--------------------------------*- C++ -*----------------------------------*\
  =========                 |
  \\      /  F ield         | OpenFOAM: The Open Source CFD Toolbox
   \\    /   O peration     | Website:  https://openfoam.org
    \\  /    A nd           | Version:  13
     \\/     M anipulation  |
\*---------------------------------------------------------------------------*/
FoamFile
{
    format      ascii;
    class       volScalarField;
    location    "0.0015";
    object      CrankNicolson:ddt0(rho,K);
}
// * * * * * * * * * * * * * * * * * * * * * * * * * * * * * * * * * * * * * //

dimensions      [1 -1 -3 0 0 0 0];

internalField   nonuniform List<scalar> 
1000
(
2.79072e-21
1.11115e-21
1.41035e-21
9.01716e-22
2.09087e-23
3.31647e-21
3.06502e-21
2.88348e-22
1.57628e-21
-4.33832e-22
-7.83695e-29
2.4836e-22
-3.92751e-22
-3.26478e-22
-2.3045e-24
1.43119e-21
1.16122e-21
-2.52943e-24
-5.27024e-22
-6.8949e-23
2.98825e-22
-7.16608e-22
-1.02792e-22
5.49029e-22
-6.31608e-22
9.71709e-27
5.83019e-22
-1.48629e-23
-6.89153e-22
-1.51968e-21
2.21307e-24
-9.28598e-22
-4.67637e-22
-1.41246e-23
1.41839e-21
9.00763e-22
5.09838e-24
5.6553e-23
-1.19633e-21
-3.55948e-22
3.45381e-24
4.84697e-22
-1.13477e-21
-2.72346e-22
5.10809e-22
-4.52471e-23
-9.65601e-22
-9.054e-24
-2.09304e-22
-5.5546e-22
-8.11899e-24
-4.40002e-25
-1.59931e-22
-1.0685e-21
-8.1571e-22
4.89662e-22
2.11571e-22
4.25296e-22
7.92728e-22
-5.63234e-22
1.76877e-22
7.69059e-22
-3.4844e-24
-1.32577e-21
-6.76872e-22
5.61726e-24
-9.36505e-22
-1.49599e-21
2.3954e-21
2.09764e-21
1.81739e-22
1.33423e-22
-5.83822e-23
-7.3559e-22
5.99202e-22
3.22558e-21
1.12467e-21
7.66948e-22
1.18049e-21
-9.71779e-24
1.74004e-22
-3.57733e-24
3.36189e-21
3.4952e-21
1.48834e-22
1.12776e-22
3.07694e-22
2.40804e-21
4.01152e-22
-8.63304e-22
1.03792e-21
1.17747e-22
-1.18444e-21
3.67978e-22
2.97473e-22
-5.92287e-22
-7.51665e-22
1.08377e-21
1.07417e-21
-2.76287e-22
-5.16355e-22
-7.02326e-22
3.07015e-23
-4.11659e-23
-3.96023e-22
7.29274e-23
1.159e-22
-1.04668e-22
1.7654e-24
-5.7326e-22
2.86182e-22
1.36154e-21
-1.28729e-22
-2.05175e-22
3.30479e-22
-3.90678e-22
3.50042e-22
1.51178e-22
-3.78328e-24
-2.71272e-22
-2.8209e-24
4.22214e-22
8.38266e-24
-2.41219e-22
4.76452e-22
-3.96856e-22
1.10663e-22
7.7937e-22
-7.42663e-22
1.53324e-22
3.78826e-22
8.91788e-22
1.56302e-23
-5.38122e-22
3.41107e-23
7.76853e-24
5.14598e-22
3.95154e-22
2.18949e-22
2.73965e-23
2.74782e-22
-2.94674e-22
8.95653e-23
-9.02432e-22
-2.81938e-21
-4.33761e-22
-1.36204e-24
-2.57021e-22
-6.18614e-25
4.68684e-22
1.27361e-21
-6.87471e-22
2.65547e-22
-1.64989e-25
-3.96357e-22
-1.54336e-22
-8.96881e-24
-5.63699e-22
-5.73443e-22
-3.26476e-23
-7.35946e-22
5.98432e-24
3.73304e-22
4.24506e-22
-1.64874e-22
1.05235e-24
-6.30407e-23
3.66723e-24
4.64957e-22
-4.14332e-22
2.18644e-24
2.0967e-22
1.02221e-21
1.29834e-21
4.37507e-24
-3.24899e-22
3.94e-25
2.48902e-22
-4.34939e-22
-1.97625e-21
-4.35044e-24
2.57377e-22
7.36361e-22
9.80585e-23
-1.36266e-22
-1.79934e-23
2.10091e-22
7.26655e-23
-4.35715e-22
-3.4792e-22
2.96119e-22
1.81482e-22
-4.31252e-22
9.3429e-22
2.4798e-22
-4.55695e-22
-2.2297e-22
-3.74676e-22
1.92726e-24
1.18381e-21
-1.78576e-24
-5.25596e-22
6.12228e-22
5.16824e-24
-2.55758e-24
5.55967e-22
-1.5294e-22
2.65507e-22
4.94447e-22
-1.8483e-22
-6.55258e-22
1.16019e-22
-2.94282e-22
1.85309e-22
1.14509e-24
-5.352e-22
-4.15112e-22
-7.80474e-23
-1.22577e-22
4.12648e-22
-8.72053e-22
-5.00719e-23
1.07583e-21
-9.25145e-25
-2.19522e-22
2.2373e-23
-2.67318e-24
-7.60624e-23
1.57975e-22
-6.33061e-23
-2.19814e-24
2.83222e-22
-1.0364e-23
-3.32466e-24
5.54874e-24
-5.41793e-22
3.44049e-22
-5.11113e-22
3.85325e-23
4.14892e-22
-3.63459e-22
-1.00513e-22
-4.80999e-22
2.88028e-22
3.04849e-22
5.43572e-22
7.00822e-22
-1.12256e-22
1.40255e-21
1.40515e-21
4.99732e-22
1.91648e-22
-1.04563e-21
-8.89235e-22
1.35158e-23
-5.18249e-22
2.22611e-22
6.90165e-22
-1.32432e-21
-8.97394e-22
-8.15637e-23
-2.43665e-23
5.1958e-24
-5.89547e-23
8.34071e-23
7.8773e-22
1.47628e-22
9.3254e-23
-2.95812e-23
5.27979e-24
-4.70039e-22
5.52039e-22
1.13453e-22
2.40465e-25
-1.05768e-28
-9.57922e-23
9.59533e-23
2.96672e-24
1.08544e-21
1.26192e-21
-1.1936e-21
7.56991e-22
1.48275e-22
-8.26291e-22
-5.11427e-22
7.55404e-22
1.56107e-21
3.12507e-21
-2.15992e-21
-9.64533e-22
-1.1319e-24
-3.08758e-24
6.14153e-22
1.19153e-22
-3.69725e-23
4.29809e-24
2.86281e-22
1.29608e-21
1.55472e-21
1.26696e-21
6.49523e-22
1.05971e-21
-2.39373e-23
5.3443e-22
-1.6179e-23
-2.71134e-22
-2.81024e-24
7.79759e-25
4.9664e-22
1.47641e-21
7.03528e-22
3.23689e-21
2.58818e-21
1.74607e-21
5.55319e-24
-1.8475e-21
-2.46707e-21
-3.34364e-21
-5.58541e-21
-3.63152e-21
-4.39955e-22
2.82358e-22
9.28774e-22
1.66712e-21
1.34119e-22
-7.47262e-25
5.826e-22
-6.11511e-22
-4.51499e-22
9.95874e-23
9.35081e-22
1.47117e-24
-2.8915e-22
-5.67289e-22
-3.0096e-21
-1.29997e-21
-5.90309e-22
-2.30359e-25
2.46364e-22
-3.84744e-22
8.57337e-22
7.4014e-22
-2.21432e-22
-2.39825e-22
5.06197e-22
-1.65257e-24
-2.01721e-22
1.65241e-21
2.11312e-21
3.12045e-22
8.7752e-22
-5.17412e-22
-1.62115e-22
1.75114e-22
-2.55761e-22
-9.84468e-24
3.584e-21
5.53232e-22
3.30887e-22
8.54258e-22
3.74774e-22
1.93726e-21
2.34657e-21
-6.98684e-22
-2.86447e-22
-1.82455e-26
-3.21612e-22
5.01012e-23
3.79727e-22
-4.24211e-22
8.92201e-25
-9.121e-24
-4.98447e-24
-1.01653e-21
9.98956e-22
-3.05334e-22
1.01165e-23
2.11917e-22
2.69595e-21
2.29783e-21
-2.33395e-22
-1.69758e-22
1.55571e-21
2.21839e-21
-8.98867e-22
-1.48169e-21
8.28367e-24
2.52668e-21
3.42974e-21
-1.97832e-21
-2.79349e-21
1.38996e-21
1.69938e-21
7.60267e-22
-7.46441e-24
1.55461e-22
-8.09495e-22
-5.24535e-22
-5.4526e-24
2.16053e-21
1.00737e-21
6.19988e-23
-5.12002e-23
1.28811e-21
6.76715e-21
8.35271e-20
8.13225e-19
7.34037e-18
6.54419e-17
5.60581e-16
4.72634e-15
3.87102e-14
3.08049e-13
2.37867e-12
1.78161e-11
1.29315e-10
9.08883e-10
6.18013e-09
4.06178e-08
2.57773e-07
1.57798e-06
9.30726e-06
5.28289e-05
0.000288194
0.00150886
0.00757007
0.0363336
0.166525
0.727334
3.02065
11.8987
44.3338
155.765
514.319
1590.07
4584.64
12277.8
30416.5
69451.5
145735
280544
495351
803577
1.20272e+06
1.67456e+06
2.19441e+06
2.73954e+06
3.29204e+06
3.83888e+06
4.3708e+06
4.88138e+06
5.36616e+06
5.82202e+06
6.24682e+06
6.63902e+06
6.99756e+06
7.32171e+06
7.61102e+06
7.86524e+06
8.08434e+06
8.26846e+06
8.41794e+06
8.53326e+06
8.6151e+06
8.66431e+06
8.68187e+06
8.66891e+06
8.6267e+06
8.55659e+06
8.46004e+06
8.33856e+06
8.19373e+06
8.02715e+06
7.84045e+06
7.63524e+06
7.41314e+06
7.17572e+06
6.92457e+06
6.66122e+06
6.38715e+06
6.10382e+06
5.81262e+06
5.51491e+06
5.21199e+06
4.90513e+06
4.59555e+06
4.28443e+06
3.9729e+06
3.66204e+06
3.35291e+06
3.04653e+06
2.74392e+06
2.44608e+06
2.15401e+06
1.86873e+06
1.59127e+06
1.32274e+06
1.06436e+06
817534
583884
365377
164468
-15671.5
-170844
-295422
-381874
-420362
-398839
-304489
-127928
129038
442001
758475
992845
1.04853e+06
861815
444122
-112094
-669848
-1.10081e+06
-1.31489e+06
-1.26193e+06
-940210
-393253
287402
962790
1.46942e+06
1.64416e+06
1.39243e+06
760753
-58288.3
-806147
-1.26176e+06
-1.27403e+06
-770611
303933
2.03818e+06
4.51486e+06
7.75496e+06
1.17501e+07
1.6409e+07
2.1345e+07
2.5581e+07
2.76867e+07
2.66338e+07
2.26279e+07
1.69961e+07
1.12557e+07
6.35171e+06
2.59042e+06
-17357.8
-1.50717e+06
-1.97454e+06
-1.67608e+06
-1.01119e+06
-368536
27123.5
153743
120802
52883.6
3819.84
-23391
-11525.4
11536.8
-42668.9
-55886.8
150586
111294
-384078
127711
1.27536e+06
-738896
-2.14441e+06
5.16908e+06
4.71756e+06
-1.47591e+07
2.78617e+06
5.06712e+07
-2.60497e+07
-9.54591e+07
2.89879e+08
3.53666e+08
5.73148e+07
2.47408e+06
73914.8
2044.73
55.3549
1.50925
0.041211
0.00112546
3.07346e-05
8.39274e-07
2.29171e-08
6.25748e-10
1.70854e-11
4.66475e-13
1.2732e-14
3.47657e-16
9.51769e-18
2.50161e-19
8.62067e-21
-2.1916e-23
6.75108e-25
3.5333e-25
1.29714e-22
1.21276e-22
1.94048e-23
-3.04905e-23
-2.76238e-23
3.04863e-22
4.73974e-22
2.8916e-22
8.86615e-23
3.87266e-25
7.29712e-23
5.97003e-24
9.88394e-23
-5.5825e-24
-6.14435e-23
2.52125e-23
-5.42113e-23
1.19049e-22
1.22969e-22
3.72252e-23
-1.6398e-26
2.39542e-23
7.42535e-23
-7.82349e-23
-5.24698e-23
2.79557e-25
5.66445e-23
-1.76209e-22
-8.03778e-23
2.30044e-22
3.31178e-25
7.81746e-23
1.63439e-22
1.64849e-22
4.38289e-23
3.70059e-24
-1.80215e-23
-1.22171e-22
-3.6892e-24
-1.22238e-22
9.52166e-23
-1.38832e-22
2.2204e-23
5.8132e-23
-8.86312e-23
-1.31034e-24
1.88241e-23
-1.22634e-22
-1.97101e-23
9.18603e-23
-6.71358e-23
3.41836e-23
-1.46997e-23
-3.5916e-23
1.06243e-26
3.02474e-26
8.6092e-26
-4.45691e-25
-2.16889e-23
-3.24349e-25
4.51685e-23
7.97642e-25
-9.02135e-25
2.75738e-23
-1.03304e-22
2.25326e-23
-1.14433e-23
1.74297e-22
1.9767e-23
-2.7557e-22
-4.75551e-22
-5.10102e-22
-9.44492e-23
2.02238e-22
3.59797e-22
3.37469e-22
3.28291e-22
1.05918e-22
2.12705e-22
3.68204e-23
-1.7196e-23
-3.99229e-24
-2.77469e-22
-3.96684e-22
-4.36536e-22
-2.59993e-22
-1.18522e-22
2.48665e-22
2.54809e-22
1.62666e-22
4.11334e-25
2.69168e-25
5.65225e-23
-1.19152e-22
-1.6901e-22
-3.3148e-22
6.5354e-22
4.84098e-22
1.67594e-22
2.2836e-25
-4.99413e-22
-9.99846e-23
5.67483e-22
1.39038e-22
6.30593e-25
8.49461e-22
1.70528e-21
1.91884e-22
-8.95722e-22
-5.86091e-22
-1.55753e-22
8.2288e-22
5.12152e-22
1.01295e-21
2.90019e-22
1.42985e-22
-1.02246e-22
-1.65941e-22
8.90974e-23
6.38142e-25
2.60827e-23
1.09617e-23
-1.37962e-22
3.59471e-25
6.06141e-22
5.99062e-22
1.53827e-22
1.47007e-24
8.12847e-25
1.49276e-22
-6.89816e-23
-1.77093e-22
3.26839e-23
-6.3361e-23
1.4897e-22
7.03241e-23
-1.23117e-22
9.25072e-23
1.3786e-22
-8.36729e-23
-1.63306e-22
6.28858e-22
6.58242e-22
1.05396e-22
5.00809e-25
6.63734e-23
4.71931e-23
-6.25907e-23
-2.30344e-25
-1.73762e-22
-6.93455e-23
-6.87656e-23
-3.16963e-23
2.12423e-24
1.63962e-24
-3.35794e-23
2.18674e-23
4.51253e-23
2.68167e-22
3.2634e-22
-8.2941e-23
-1.12223e-22
-1.58474e-22
4.55751e-25
1.4878e-22
-2.19723e-22
-8.01326e-25
1.35973e-24
-1.34842e-22
-7.68543e-22
-2.93565e-22
-3.48415e-23
-8.41125e-23
5.9493e-23
-2.08313e-23
6.51847e-23
2.56134e-22
1.96229e-22
-2.50428e-22
-3.61655e-22
-9.25943e-23
7.32113e-23
1.13001e-25
-1.9914e-24
1.69114e-22
1.21771e-22
1.09799e-22
-2.04217e-22
-7.29976e-23
-5.67914e-23
-8.818e-23
-4.62011e-23
1.84391e-23
-1.00307e-22
3.15341e-23
-2.61104e-25
6.50146e-25
5.19731e-23
2.21537e-22
2.73077e-22
4.07401e-25
3.2768e-25
-1.33592e-22
9.3833e-23
-4.08334e-25
4.07639e-22
1.48635e-22
-2.02026e-22
-1.4083e-22
1.54674e-22
-2.83135e-25
4.38195e-24
5.77406e-23
1.8524e-22
2.50936e-23
2.94629e-25
1.17031e-25
1.992e-24
-2.07778e-22
-1.40638e-24
-2.73356e-22
-7.0625e-23
1.91794e-22
-1.21444e-22
-2.90235e-22
-2.00513e-22
-2.35299e-22
-1.04745e-22
1.10979e-22
2.75262e-22
3.99539e-22
4.12015e-22
3.44354e-22
-1.73391e-22
4.90439e-23
9.08685e-23
1.1601e-22
-6.46633e-23
2.51351e-22
1.12027e-22
-3.41605e-22
-9.53373e-23
-5.39202e-25
9.38709e-25
8.57372e-23
1.01064e-22
-5.66666e-23
-7.99165e-23
5.74238e-24
-5.66964e-24
4.42856e-23
-3.21231e-23
6.65764e-23
3.07826e-22
1.12435e-22
-5.38808e-23
-3.55304e-23
-7.7975e-26
2.49718e-22
-1.23482e-22
-6.48745e-22
1.62751e-22
-1.54686e-22
-3.83609e-22
-1.685e-22
-4.31884e-23
-1.06437e-22
-6.76974e-23
3.31731e-23
-1.63828e-22
-1.12138e-22
7.11474e-26
1.16742e-22
4.46758e-22
-7.11428e-23
2.04398e-25
-2.2727e-22
-1.93793e-22
-1.27914e-25
-3.11246e-26
-3.90046e-23
3.75437e-23
-1.27459e-23
-3.56726e-23
-1.23647e-22
4.47636e-25
1.68226e-24
2.12091e-22
-3.08551e-23
-2.63328e-22
4.02687e-22
5.06724e-22
-1.0268e-24
3.54142e-25
5.06364e-25
4.96206e-25
-3.39464e-22
-1.46266e-22
4.38327e-22
1.32014e-22
6.33884e-28
2.84175e-22
5.28599e-23
-4.3238e-23
-5.5803e-23
-2.52216e-23
-2.15956e-23
7.79506e-23
-8.06298e-23
-5.06679e-23
7.07163e-24
-2.87269e-23
-2.51146e-22
6.37252e-23
6.81035e-23
-6.30252e-23
8.80447e-23
-3.87405e-25
-2.92286e-22
-4.92112e-22
-1.10857e-21
-4.5116e-22
3.73782e-22
2.60273e-23
-4.87049e-23
-3.36701e-23
1.43251e-22
-8.21432e-23
1.2861e-22
1.90465e-22
-5.5592e-23
1.88577e-25
8.53936e-23
6.10899e-23
-3.02675e-25
1.10291e-22
-7.79004e-23
-1.93586e-22
-5.79961e-23
-3.23333e-22
-8.35054e-23
-1.77291e-22
-1.32904e-22
3.27189e-23
-1.24982e-24
7.99244e-23
-1.56344e-22
-9.67425e-23
-1.01148e-22
-1.30263e-23
-8.80111e-24
-2.81928e-24
-1.62863e-22
-2.0038e-22
-2.33458e-25
1.09944e-22
6.58834e-23
-7.01913e-23
1.53993e-24
1.19522e-22
1.45673e-22
2.06777e-22
3.86128e-23
7.86842e-25
6.26328e-24
-4.39269e-24
-1.26089e-23
-3.04782e-23
1.54955e-22
2.16366e-24
-1.65701e-22
-2.451e-24
5.85036e-22
5.73473e-23
1.69184e-22
-6.63546e-23
-5.90223e-22
2.1411e-24
2.26881e-22
7.7638e-23
1.59769e-22
7.04262e-23
4.36705e-23
-1.05309e-22
-1.06393e-22
-6.57278e-23
-1.37533e-22
-6.49554e-25
5.80398e-23
1.95237e-24
-8.82529e-24
2.08026e-23
3.57497e-23
-2.48638e-25
2.74806e-22
1.1018e-22
)
;

boundaryField
{
    sides
    {
        type            calculated;
        value           nonuniform List<scalar> 2(1.1018e-22 2.79072e-21);
    }
    empty
    {
        type            empty;
    }
}


// ************************************************************************* //
