/*--------------------------------*- C++ -*----------------------------------*\
  =========                 |
  \\      /  F ield         | OpenFOAM: The Open Source CFD Toolbox
   \\    /   O peration     | Website:  https://openfoam.org
    \\  /    A nd           | Version:  13
     \\/     M anipulation  |
\*---------------------------------------------------------------------------*/
FoamFile
{
    format      ascii;
    class       volScalarField;
    location    "0.0015";
    object      CrankNicolson:ddt0(rho,e);
}
// * * * * * * * * * * * * * * * * * * * * * * * * * * * * * * * * * * * * * //

dimensions      [1 -1 -3 0 0 0 0];

internalField   nonuniform List<scalar> 
1000
(
2.98322e-06
-1.37757e-06
3.77844e-06
1.43264e-06
1.05638e-06
-9.80338e-07
-1.00293e-06
1.09142e-06
-1.59939e-07
-2.34729e-15
1.30966e-06
2.15152e-11
-6.87453e-08
-9.23142e-08
5.12903e-06
2.19845e-06
-1.62822e-06
-3.67077e-06
9.93324e-07
1.38872e-07
1.61684e-06
1.73178e-08
-2.52599e-06
-1.0445e-07
2.36061e-08
8.90659e-07
-1.34546e-08
1.25147e-06
-2.52598e-06
1.27909e-08
-1.17803e-07
2.99983e-07
4.74798e-07
2.13503e-06
-1.9803e-06
-2.62591e-06
-3.27661e-06
-1.49417e-06
-3.01729e-07
-2.35964e-06
-2.17728e-06
-1.41634e-06
1.14529e-07
2.18052e-06
-1.59506e-07
-9.59188e-08
8.10604e-07
-1.23191e-06
2.26762e-06
1.19398e-06
3.45639e-06
-3.24347e-07
-1.71125e-08
-1.18014e-06
1.49236e-07
-1.22414e-06
8.52967e-07
-8.336e-08
-8.57718e-07
-2.76541e-10
-2.75338e-07
-3.44017e-07
1.69479e-06
2.57501e-06
4.06091e-07
-1.19128e-07
6.9093e-07
2.59403e-06
-7.26394e-07
-5.58494e-07
6.5109e-07
3.28081e-06
2.8015e-07
1.35573e-06
-1.13196e-06
-4.10784e-07
2.27294e-06
-7.60272e-07
-6.82923e-07
3.00106e-06
9.48383e-07
2.62803e-06
2.67211e-07
-1.34258e-06
-1.88063e-06
1.25435e-06
-1.38328e-06
4.62671e-07
2.7513e-07
-4.25291e-07
2.57132e-07
1.7611e-06
-1.94364e-06
-8.86651e-07
2.34287e-07
-2.88807e-07
5.67069e-07
-3.19608e-07
-3.7907e-06
4.48747e-07
2.45414e-06
-1.89714e-06
6.39946e-07
4.12429e-07
1.38103e-06
-2.38128e-09
1.28114e-08
5.91065e-07
9.93312e-07
-2.11191e-06
3.02185e-06
-1.15709e-07
-1.75411e-06
-2.49967e-08
8.4048e-11
-1.77387e-06
-8.08218e-07
-7.01878e-07
-3.33095e-07
-1.53471e-06
-1.98237e-07
5.44304e-07
-2.22063e-06
-3.32869e-06
5.63122e-07
-4.14595e-07
1.71672e-07
-3.8401e-06
2.12852e-06
2.62119e-07
-4.39373e-07
6.91186e-07
-1.32441e-06
1.35255e-06
-9.07544e-07
2.87304e-07
1.09391e-06
-1.93888e-06
-1.56398e-06
1.79795e-06
2.60957e-06
1.61824e-06
1.72579e-08
-9.53136e-08
-1.35669e-06
-1.90517e-06
2.4568e-06
1.28759e-06
2.87853e-08
1.49466e-09
7.70355e-09
-2.43135e-07
5.73237e-07
2.14082e-06
-5.11294e-07
-1.09194e-06
6.84025e-07
-2.96522e-08
-6.15318e-07
-2.91549e-06
-2.66153e-07
1.97467e-07
-1.51903e-06
4.84809e-08
-3.4106e-06
1.22782e-06
1.35087e-06
-5.41805e-07
-2.18152e-06
3.24984e-06
2.24234e-06
-3.81988e-06
1.23497e-06
-1.60258e-06
1.35659e-06
-2.25286e-06
-2.24371e-07
1.1942e-06
5.69269e-07
3.97687e-07
3.16838e-06
-3.57271e-06
6.64933e-07
3.82662e-07
5.06708e-07
3.27088e-07
9.09138e-07
-8.97509e-08
-1.55709e-06
-1.69038e-06
2.79357e-06
1.84995e-06
8.53034e-07
3.17546e-07
-3.15498e-07
-3.41344e-08
4.72649e-07
1.41865e-09
-5.24045e-07
-9.20873e-07
4.26229e-09
1.42505e-06
1.5305e-06
1.4963e-08
-8.44998e-07
2.77757e-06
-1.91085e-06
-1.15587e-06
-7.07426e-07
-2.10058e-06
1.24109e-06
-1.94915e-06
-5.44116e-07
1.55682e-07
7.21952e-07
2.29516e-07
-1.76119e-07
1.11035e-06
1.98524e-07
-4.08964e-07
1.08737e-06
-1.48314e-06
1.32796e-06
1.36261e-07
9.04337e-07
-4.85112e-08
5.79739e-07
-3.35555e-11
-1.09304e-06
4.7472e-07
6.89451e-07
-5.09639e-08
2.54005e-07
-8.33356e-07
4.0641e-07
2.38726e-07
1.04931e-06
-1.05076e-06
-2.73947e-06
4.70993e-06
2.18039e-06
1.42214e-08
2.38517e-06
2.05836e-07
-9.66127e-07
-1.43658e-06
-8.11351e-07
3.58284e-06
2.23463e-07
-3.54579e-06
-1.42722e-06
-1.60674e-06
3.82263e-06
-2.36846e-06
-7.07883e-07
-2.93797e-06
6.33844e-07
4.73163e-07
-2.19191e-06
6.22785e-07
-3.27511e-06
-1.13001e-07
3.73125e-06
1.61049e-06
1.59387e-06
3.37591e-07
9.59184e-08
-3.69648e-09
7.65778e-07
1.33574e-06
-1.22491e-06
3.40431e-06
3.35656e-06
3.27986e-12
-3.39646e-11
5.11591e-08
-1.24294e-06
-1.29496e-06
1.63638e-06
9.41301e-07
-4.15001e-06
-2.54648e-06
-1.43044e-07
-1.31483e-06
-2.51541e-06
1.08462e-06
-1.42943e-06
9.80591e-07
-1.09375e-06
3.6869e-06
4.25642e-07
1.24843e-06
3.71314e-07
-1.04563e-06
-2.07374e-06
1.85296e-07
-2.97516e-07
1.46415e-06
-6.97185e-07
2.35363e-06
-2.92406e-06
8.06791e-07
3.85916e-06
2.81835e-06
-1.17285e-06
-3.01391e-06
-1.1838e-06
6.97636e-08
-4.2798e-06
6.82666e-08
-1.94564e-06
-2.71862e-06
9.89936e-07
-2.10295e-06
-2.64955e-06
-2.30597e-07
-1.81567e-06
-9.161e-07
-3.23967e-06
-4.06818e-06
1.07776e-06
-2.27005e-07
2.34751e-08
-4.32401e-07
8.30448e-07
1.28477e-06
3.06672e-06
2.52749e-06
6.68928e-07
-1.48028e-06
-4.68559e-07
-1.56065e-06
-2.39598e-06
1.35177e-06
2.38754e-06
-2.64536e-06
2.31821e-07
-3.72426e-07
1.30692e-06
-4.17307e-06
6.13788e-07
1.85366e-06
-2.48883e-06
1.43277e-06
5.08298e-07
-4.14308e-07
-1.92517e-06
-3.71832e-06
-2.69312e-07
8.07916e-07
1.46777e-07
2.27595e-06
-1.43145e-07
-6.28194e-07
-2.0288e-08
9.72219e-07
-5.24181e-07
-1.27885e-06
1.50779e-07
-2.58426e-06
-1.45702e-06
-1.45994e-06
-3.36666e-07
1.27784e-06
4.34849e-07
1.08485e-06
-1.10027e-06
-3.1948e-07
2.89273e-07
1.06135e-06
-5.42899e-07
1.64635e-06
-2.42357e-06
2.77068e-06
-3.59647e-08
-4.62413e-07
4.25197e-07
1.1036e-07
-1.1806e-06
1.06176e-06
2.0963e-06
2.29963e-06
-8.54497e-07
-3.27857e-06
-1.12759e-06
-2.22978e-06
-3.06431e-07
-1.40504e-06
9.19225e-07
-4.16851e-06
-2.5442e-06
1.16779e-06
1.32276e-07
1.27793e-06
8.95683e-07
3.5083e-06
8.8645e-07
1.27054e-06
-1.21316e-06
-2.10413e-07
-2.48052e-07
6.00256e-09
-1.36031e-07
5.74036e-07
-3.72176e-06
-9.01299e-06
-2.48642e-05
-7.59311e-05
-0.000219795
-0.000640882
-0.00185653
-0.00528496
-0.0148022
-0.0408511
-0.110989
-0.296772
-0.780601
-2.01881
-5.13112
-12.81
-31.3952
-75.4904
-177.972
-411.088
-929.629
-2056.41
-4445.64
-9382.96
-19312.2
-38713.2
-75474.2
-142871
-262119
-465108
-796317
-1.31207e+06
-2.07459e+06
-3.13849e+06
-4.52956e+06
-6.22033e+06
-8.11254e+06
-1.00393e+07
-1.17934e+07
-1.31773e+07
-1.40865e+07
-1.45453e+07
-1.46367e+07
-1.44503e+07
-1.40627e+07
-1.35332e+07
-1.29058e+07
-1.2213e+07
-1.14783e+07
-1.07191e+07
-9.94821e+06
-9.17526e+06
-8.40749e+06
-7.65047e+06
-6.90859e+06
-6.18533e+06
-5.48352e+06
-4.8055e+06
-4.15321e+06
-3.52825e+06
-2.93196e+06
-2.36544e+06
-1.82957e+06
-1.32502e+06
-852282
-411659
-3292.93
372830
716863
1.02909e+06
1.3099e+06
1.5598e+06
1.77936e+06
1.96925e+06
2.13019e+06
2.26296e+06
2.36838e+06
2.44731e+06
2.50064e+06
2.52928e+06
2.53417e+06
2.51626e+06
2.47652e+06
2.41595e+06
2.33555e+06
2.23636e+06
2.11945e+06
1.98592e+06
1.83696e+06
1.67383e+06
1.49791e+06
1.31077e+06
1.11421e+06
910336
701701
491445
283514
82901.8
-104064
-269441
-403486
-494759
-530840
-500095
-395007
-217096
17064.8
272604
495227
630715
618083
413962
29074.7
-459138
-935318
-1.29161e+06
-1.46444e+06
-1.4295e+06
-1.18014e+06
-760119
-259762
197515
475373
473906
115866
-581851
-1.42535e+06
-2.07994e+06
-2.25096e+06
-1.9741e+06
-1.89801e+06
-3.67052e+06
-1.00592e+07
-2.44604e+07
-4.93863e+07
-8.40589e+07
-1.22933e+08
-1.57393e+08
-1.79518e+08
-1.84982e+08
-1.73596e+08
-1.4853e+08
-1.15144e+08
-7.94822e+07
-4.6769e+07
-2.05472e+07
-2.52736e+06
7.27906e+06
1.03217e+07
8.98595e+06
5.78445e+06
2.61957e+06
454828
-568791
-769682
-567758
-287849
-96065.6
6363.66
66251.6
36407.7
-35804.7
98161.1
200536
-261090
-250465
1.05649e+06
179311
-2.72908e+06
2.04092e+06
7.26102e+06
-9.58369e+06
-1.17407e+07
4.03924e+07
1.89576e+07
-1.1025e+08
1.47294e+08
3.19523e+08
4.56733e+07
-1.17637e+07
-2.03675e+06
-278706
-46116.5
-7702.97
-1277.71
-211.343
-34.9322
-5.77281
-0.953948
-0.157634
-0.026048
-0.00430374
-0.000711196
-0.000117823
-1.93538e-05
-2.82966e-06
1.34247e-07
-2.2434e-07
1.0635e-07
6.76487e-07
4.09699e-09
-1.0494e-06
-4.97764e-08
-1.83279e-07
6.05826e-07
2.65468e-07
3.06385e-07
3.30431e-07
6.12497e-07
2.72495e-07
2.73091e-07
4.77452e-07
-2.7284e-07
1.22836e-06
-5.28911e-07
-1.43885e-07
-4.86475e-07
2.52231e-07
-4.54535e-07
-2.10665e-08
2.13245e-09
-6.94005e-09
-1.12572e-07
-2.22102e-07
9.35606e-08
2.98867e-09
-5.5847e-07
-2.96307e-07
-1.0397e-07
3.41364e-07
1.70515e-08
-5.78338e-07
1.93728e-07
1.0869e-07
-2.49385e-08
-2.29057e-07
-7.93219e-07
-3.79596e-07
8.10058e-08
-5.83519e-07
-4.52318e-08
1.12917e-09
-1.14207e-06
1.51096e-07
-2.63718e-07
-1.44711e-07
7.95425e-11
-3.27742e-07
3.62377e-07
-1.12727e-10
3.40927e-07
1.27875e-08
-1.03843e-08
-9.02312e-08
5.57365e-07
-4.21565e-07
-4.07672e-09
1.29259e-08
5.18719e-07
1.71363e-07
-1.6615e-07
-3.73927e-07
-5.48893e-07
-3.18083e-07
-1.8718e-07
-9.31589e-07
-2.64865e-07
4.0396e-08
-4.0358e-08
2.0007e-07
3.9784e-07
1.68466e-08
8.66959e-08
3.20369e-07
5.27308e-07
1.06327e-08
6.39998e-07
6.97517e-07
3.64744e-08
4.34938e-07
-1.32607e-07
-1.81677e-08
3.87363e-07
-3.55965e-08
-2.45694e-07
5.41061e-08
1.38167e-07
-8.31052e-07
2.21345e-07
3.15777e-09
-1.07875e-07
7.79394e-08
-6.19495e-07
-4.04677e-07
-6.72977e-09
2.7217e-07
-1.70538e-10
-5.57949e-08
3.44399e-07
4.94896e-07
6.116e-07
-4.95595e-07
5.89539e-08
8.91695e-07
-1.76451e-07
4.47955e-07
5.24747e-07
5.63731e-09
2.29486e-08
-1.58835e-07
3.92582e-07
-3.2036e-07
-1.33003e-08
1.02582e-06
-3.03722e-07
-4.64014e-08
-1.53469e-07
-6.98635e-07
-9.61129e-08
-1.52591e-08
8.36927e-07
8.43204e-08
6.93645e-07
2.55786e-07
-1.57865e-07
1.54653e-06
-2.68269e-07
-3.80066e-07
2.15561e-08
-2.25706e-07
5.2118e-07
-9.12606e-07
-1.86376e-07
2.24939e-08
3.15563e-07
-1.49221e-08
4.30639e-07
-2.82368e-08
2.9478e-07
3.0043e-07
2.93749e-07
6.20478e-07
-2.09011e-07
-9.76698e-08
6.33899e-08
7.44031e-08
1.21287e-07
8.18013e-08
-7.58813e-07
2.31478e-08
-5.44007e-07
-7.15335e-07
1.32833e-07
2.16084e-08
8.86674e-07
-6.83357e-08
2.43005e-07
-5.62645e-07
2.7235e-07
-5.84638e-07
-6.02116e-07
1.46945e-07
-6.78522e-07
-9.52353e-08
6.74636e-08
4.76419e-07
-2.47317e-07
9.04144e-08
4.96019e-07
-1.22022e-07
-2.17405e-07
2.51675e-07
3.07354e-07
-2.02072e-07
1.16386e-06
-4.09165e-07
1.04968e-06
-8.32882e-08
1.02642e-07
-3.9148e-07
-3.38445e-07
6.10504e-07
-2.62143e-07
-8.14435e-07
5.32442e-07
4.18415e-07
-5.01405e-07
-6.0854e-07
9.56605e-09
-4.40788e-09
3.90998e-07
-4.62846e-07
-3.31607e-07
3.32571e-07
-2.61935e-07
-5.41665e-08
2.55005e-08
2.22218e-08
-9.2491e-07
7.54337e-07
-4.17006e-07
-7.24162e-08
1.82352e-08
-1.0273e-06
-1.67341e-07
-3.45126e-07
1.46244e-07
4.73772e-07
4.80853e-07
-7.97729e-07
7.14019e-08
1.12369e-07
1.1882e-07
4.19381e-07
9.77885e-08
-1.12562e-07
-3.66501e-07
3.67426e-07
4.01671e-08
-2.69174e-07
-9.45678e-08
2.49146e-07
-6.31121e-07
4.10571e-07
-2.63789e-08
-1.93583e-07
-1.17472e-07
-5.7515e-08
5.11412e-08
1.22723e-06
-2.93502e-07
4.42678e-08
3.44575e-07
-8.82286e-07
-1.03836e-07
-4.34922e-08
1.47641e-07
-4.07472e-07
-2.91447e-10
9.75636e-07
4.75249e-07
-4.76588e-07
7.69557e-08
3.79033e-08
6.44787e-07
-6.5263e-09
-3.40989e-07
7.86428e-08
-4.07445e-07
-7.52723e-07
1.80382e-07
-2.04382e-07
2.11432e-07
-2.78643e-07
4.17738e-07
-1.44967e-07
-3.7574e-09
-3.66796e-07
5.13278e-08
-2.16219e-07
2.70698e-07
2.23946e-09
8.44069e-07
2.72686e-07
4.15668e-07
1.83469e-07
2.1969e-07
5.53203e-08
-2.65141e-07
4.23507e-07
-6.63704e-08
4.41102e-07
-1.0252e-07
-3.88336e-07
2.58056e-07
1.26839e-07
-2.64004e-07
1.72966e-07
-4.92065e-10
-7.58827e-07
-2.91634e-07
6.5675e-07
-3.7063e-07
3.61241e-07
-3.10871e-07
8.63204e-08
-8.19247e-07
-1.79963e-08
-1.95641e-07
9.13083e-07
-2.24903e-07
-1.58716e-07
5.25315e-07
4.48827e-07
-2.65346e-08
5.26558e-09
-7.0217e-08
2.2958e-07
-3.55847e-07
-2.84254e-07
-1.02051e-07
-8.37416e-09
6.51843e-08
7.2717e-08
-1.19152e-07
-2.45201e-09
9.05761e-09
-8.65976e-08
1.9601e-08
1.72079e-07
-5.96311e-07
9.29595e-07
-5.30015e-07
8.17582e-08
-3.64505e-07
-1.1922e-07
1.05399e-07
-4.03704e-07
8.87021e-09
1.17861e-07
1.939e-08
-4.28256e-07
-2.07911e-07
6.53307e-07
-6.0032e-07
2.77996e-08
-3.39735e-07
5.15853e-07
-2.17426e-07
1.79623e-07
8.32881e-08
3.9679e-07
3.1826e-07
-3.66997e-07
-7.40544e-07
1.38407e-07
1.75504e-08
1.1281e-07
-6.29053e-07
3.29567e-08
9.3305e-08
-3.05084e-08
2.68054e-07
7.95849e-07
2.68823e-07
-4.78041e-08
-3.53787e-07
1.26617e-06
3.38788e-07
-2.63895e-08
2.35945e-07
6.54961e-08
6.03255e-07
-3.53124e-07
2.86681e-08
1.77584e-07
-5.98047e-07
-4.39182e-07
-5.57514e-07
-5.09896e-07
4.64156e-07
1.18938e-07
-1.11259e-06
-3.1839e-08
-3.63318e-08
4.55225e-07
-1.53368e-07
-1.43702e-07
3.15101e-07
-2.56313e-08
-2.24673e-07
4.22517e-07
-7.49379e-09
5.17697e-08
-2.56063e-07
-2.23804e-07
2.72915e-07
5.22373e-08
-3.65644e-07
-4.04618e-07
1.36456e-07
2.72849e-07
-1.8726e-07
2.06788e-08
-8.30304e-07
-5.24401e-07
-3.3229e-07
-8.09702e-08
-3.06858e-07
-5.67192e-07
5.80556e-07
-2.80368e-08
2.46109e-07
-7.14802e-08
-5.26556e-07
1.02928e-07
)
;

boundaryField
{
    sides
    {
        type            calculated;
        value           nonuniform List<scalar> 2(1.02928e-07 2.98322e-06);
    }
    empty
    {
        type            empty;
    }
}


// ************************************************************************* //
