/*--------------------------------*- C++ -*----------------------------------*\
  =========                 |
  \\      /  F ield         | OpenFOAM: The Open Source CFD Toolbox
   \\    /   O peration     | Website:  https://openfoam.org
    \\  /    A nd           | Version:  13
     \\/     M anipulation  |
\*---------------------------------------------------------------------------*/
FoamFile
{
    format      ascii;
    class       volScalarField;
    location    "0.0015";
    object      mag(U);
}
// * * * * * * * * * * * * * * * * * * * * * * * * * * * * * * * * * * * * * //

dimensions      [0 1 -1 0 0 0 0];

internalField   nonuniform List<scalar> 
1000
(
9.96799e-13
7.82852e-13
9.82211e-13
6.27254e-13
9.04412e-13
5.54317e-13
6.07804e-13
2.23672e-13
5.64042e-13
1.26423e-13
4.86243e-15
1.7991e-13
2.52846e-13
2.09085e-13
3.4037e-13
3.06333e-13
2.96608e-13
4.86243e-14
8.26613e-14
5.34868e-14
1.36148e-13
1.94497e-14
3.88995e-14
2.23672e-13
1.84772e-13
8.26613e-14
4.18169e-13
8.75238e-14
1.89635e-13
2.72296e-13
1.70185e-13
6.32116e-14
1.06974e-13
2.28534e-13
3.54958e-13
3.5982e-13
4.86243e-14
5.34868e-14
1.26423e-13
1.45873e-14
2.91746e-14
1.70185e-13
4.86243e-14
1.65323e-13
1.50735e-13
1.94497e-14
6.32116e-14
1.06974e-13
4.86243e-14
4.86243e-14
2.47984e-13
1.50735e-13
2.43122e-14
1.89635e-13
8.75238e-14
3.5982e-13
6.8074e-14
1.7991e-13
2.86883e-13
3.64682e-13
1.26423e-13
3.11196e-13
3.84132e-13
4.18169e-13
4.47344e-13
4.03582e-13
2.86883e-13
4.76518e-13
5.98079e-13
5.0083e-13
1.11836e-13
8.75238e-14
3.4037e-14
2.13947e-13
4.23032e-13
4.95968e-13
4.03582e-13
3.01471e-13
3.01471e-13
5.83492e-14
9.23862e-14
1.94497e-13
4.76518e-13
4.27894e-13
1.31286e-13
1.21561e-13
2.18809e-13
4.37619e-13
1.55598e-13
2.43122e-14
2.91746e-13
7.29365e-14
1.55598e-13
1.21561e-13
1.11836e-13
1.55598e-13
2.38259e-13
3.06333e-13
2.33397e-13
1.7991e-13
1.41011e-13
9.23862e-14
3.4037e-14
9.72486e-15
1.06974e-13
8.26613e-14
1.06974e-13
7.77989e-14
2.82021e-13
3.64682e-13
2.13947e-13
3.11196e-13
7.77989e-14
1.21561e-13
2.43122e-13
2.43122e-13
1.36148e-13
9.23862e-14
5.83492e-14
1.45873e-14
1.31286e-13
1.7991e-13
2.52846e-13
3.88995e-14
1.70185e-13
1.11836e-13
7.29365e-14
1.89635e-13
2.13947e-13
1.16698e-13
2.47984e-13
3.30645e-13
3.4037e-14
7.29365e-14
3.88995e-14
5.83492e-14
1.7991e-13
1.26423e-13
1.06974e-13
3.88995e-14
1.31286e-13
2.43122e-14
7.29365e-14
1.45873e-14
2.13947e-13
2.72296e-13
5.15418e-13
6.32116e-14
2.91746e-14
1.94497e-13
3.35508e-13
4.57069e-13
1.89635e-13
2.67434e-13
1.06974e-13
1.45873e-14
2.43122e-14
7.29365e-14
1.36148e-13
3.4037e-14
1.94497e-13
1.26423e-13
2.62571e-13
3.11196e-13
3.4037e-14
2.91746e-14
1.94497e-14
3.88995e-14
1.75048e-13
1.45873e-14
2.13947e-13
1.16698e-13
2.82021e-13
3.35508e-13
4.08444e-13
1.9936e-13
1.94497e-14
1.75048e-13
8.26613e-14
1.84772e-13
1.26423e-13
1.21561e-13
2.67434e-13
5.34868e-14
3.4037e-14
9.72486e-15
1.45873e-13
6.8074e-14
1.11836e-13
7.77989e-14
1.11836e-13
9.72486e-14
2.62571e-13
2.28534e-13
1.84772e-13
5.83492e-14
1.45873e-13
2.38259e-13
3.54958e-13
3.11196e-13
1.75048e-13
4.86243e-14
2.28534e-13
2.04222e-13
6.8074e-14
2.18809e-13
8.75238e-14
1.94497e-13
3.54958e-13
3.88995e-14
9.72486e-14
6.8074e-14
1.7991e-13
1.41011e-13
7.77989e-14
1.36148e-13
1.06974e-13
1.45873e-14
6.32116e-14
1.36148e-13
1.6046e-13
9.72486e-15
2.86883e-13
1.06974e-13
4.37619e-14
1.55598e-13
9.18234e-28
1.94497e-14
9.23862e-14
1.94497e-14
1.70185e-13
1.11836e-13
9.72486e-15
9.72486e-14
6.32116e-14
5.83492e-14
2.57709e-13
3.88995e-14
5.34868e-14
1.89635e-13
2.23672e-13
5.83492e-14
6.8074e-14
1.11836e-13
1.02111e-13
2.04222e-13
1.9936e-13
5.34868e-14
2.23672e-13
2.57709e-13
2.09085e-13
1.45873e-13
8.26613e-14
1.6046e-13
2.52846e-13
1.21561e-13
1.45873e-13
1.89635e-13
4.08444e-13
2.57709e-13
3.88995e-14
4.37619e-14
9.72486e-15
6.32116e-14
7.77989e-14
2.33397e-13
8.26613e-14
4.86243e-14
4.86243e-15
6.8074e-14
3.01471e-13
2.13947e-13
8.75238e-14
1.45873e-14
7.29365e-14
4.86243e-14
8.26613e-14
1.16698e-13
2.47984e-13
3.16058e-13
1.26423e-13
1.7991e-13
1.26423e-13
2.47984e-13
3.25783e-13
5.3973e-13
5.73767e-13
7.29365e-13
4.27894e-13
1.7991e-13
1.94497e-14
1.02111e-13
1.89635e-13
9.72486e-14
4.37619e-14
3.4037e-14
2.13947e-13
3.4037e-13
2.82021e-13
3.50095e-13
4.37619e-13
3.74407e-13
1.94497e-14
1.89635e-13
5.49455e-13
1.45873e-13
1.55598e-13
2.47984e-13
1.89635e-13
5.15418e-13
2.82021e-13
6.36979e-13
4.95968e-13
4.27894e-13
4.03582e-13
3.7927e-13
3.54958e-13
2.91746e-13
4.23032e-13
5.3973e-13
3.06333e-13
2.13947e-13
3.16058e-13
3.45233e-13
1.02111e-13
1.94497e-14
2.33397e-13
5.83492e-14
1.45873e-14
7.29365e-14
2.43122e-13
7.29365e-14
1.45873e-14
1.55598e-13
1.21561e-13
7.77989e-14
1.75048e-13
2.43122e-13
1.70185e-13
9.72486e-14
3.20921e-13
1.9936e-13
1.16698e-13
1.45873e-13
1.9936e-13
2.43122e-14
5.83492e-14
3.50095e-13
3.54958e-13
2.43122e-13
2.09085e-13
2.43122e-14
9.72486e-14
1.26423e-13
2.43122e-14
1.21561e-13
4.32756e-13
1.55598e-13
1.26423e-13
2.13947e-13
1.55598e-13
3.11196e-13
4.57069e-13
4.57069e-13
1.7991e-13
1.7991e-13
1.94497e-13
4.37619e-14
1.45873e-13
3.88995e-14
1.94497e-13
4.18169e-13
3.20921e-13
3.01471e-13
3.50095e-13
1.55598e-13
1.6046e-13
1.70185e-13
4.23032e-13
4.57069e-13
1.41011e-13
9.72486e-15
2.47984e-13
2.91746e-13
8.26613e-14
2.62571e-13
4.61931e-13
5.0083e-13
6.46703e-13
4.03582e-13
5.88354e-13
5.0083e-13
6.17529e-13
5.34868e-13
1.31286e-13
8.26613e-14
3.88995e-14
1.70185e-13
2.47984e-13
3.20921e-13
2.52846e-13
6.32116e-14
1.94497e-14
5.2028e-13
7.3909e-13
2.38745e-12
7.41521e-12
2.22797e-11
6.63819e-11
1.93914e-10
5.62063e-10
1.60565e-09
4.52212e-09
1.25477e-08
3.42957e-08
9.22956e-08
2.44469e-07
6.37058e-07
1.63252e-06
4.11202e-06
1.01754e-05
2.47241e-05
5.89539e-05
0.000137867
0.000315995
0.000709353
0.00155838
0.00334774
0.00702582
0.0143906
0.0287357
0.0558736
0.10565
0.194002
0.345442
0.595552
0.992649
1.59739
2.47905
3.70766
5.34279
7.42121
9.94723
12.8904
16.1956
19.8008
23.6493
27.6951
31.902
36.2426
40.6961
45.2465
49.8813
54.5909
59.3676
64.2048
69.0974
74.0406
79.0306
84.0636
89.1363
94.2457
99.389
104.563
109.766
114.995
120.248
125.522
130.816
136.127
141.454
146.794
152.147
157.51
162.882
168.262
173.648
179.038
184.431
189.826
195.22
200.614
206.004
211.389
216.767
222.136
227.492
232.835
238.158
243.46
248.734
253.976
259.178
264.331
269.424
274.445
279.377
284.198
288.883
293.396
297.695
301.725
305.415
308.677
311.401
313.452
314.672
314.888
313.928
311.658
308.04
303.202
297.495
291.512
286.046
281.947
279.883
280.12
282.444
286.248
290.721
295.025
298.411
300.336
300.544
299.122
296.49
293.328
290.439
288.547
288.063
288.955
290.786
292.887
294.565
295.328
295.04
293.972
292.72
291.959
292.079
292.906
293.778
294.003
293.407
292.454
291.79
291.682
291.906
292.115
292.188
292.236
292.38
292.61
292.812
292.896
292.865
292.789
292.736
292.727
292.743
292.76
292.766
292.763
292.757
292.759
292.767
292.753
292.734
292.767
292.756
292.6
292.629
292.87
292.334
291.602
293.027
293.06
286.962
287.941
296.734
260.77
148.515
43.4132
8.173
1.39531
0.229921
0.0379349
0.00626778
0.00103579
0.000171171
2.82865e-05
4.67429e-06
7.72401e-07
1.27633e-07
2.10898e-08
3.48452e-09
5.758e-10
9.52211e-11
1.55695e-11
2.72783e-12
3.11196e-13
9.72488e-14
1.31286e-13
2.1881e-13
2.1881e-13
1.26423e-13
9.72488e-15
4.86244e-14
4.76519e-13
5.25143e-13
3.40371e-13
1.94498e-13
9.0663e-28
2.28535e-13
4.86244e-14
3.01471e-13
2.91746e-14
3.16059e-13
9.23863e-14
9.72488e-15
3.64683e-13
3.50096e-13
2.13947e-13
1.06974e-13
1.02111e-13
1.65323e-13
7.7799e-14
1.11836e-13
3.45233e-13
1.84773e-13
4.47344e-13
4.23032e-13
4.81381e-13
2.91746e-13
2.52847e-13
3.64683e-13
4.86244e-13
2.23672e-13
3.06334e-13
1.94498e-14
1.41011e-13
1.57457e-27
4.86244e-15
2.33397e-13
3.35508e-13
9.72488e-14
1.70185e-13
2.13947e-13
4.79627e-27
9.72488e-14
1.65323e-13
1.02111e-13
2.91746e-13
1.94498e-14
2.09085e-13
6.32117e-14
1.70185e-13
1.02111e-13
1.41011e-13
1.31286e-13
1.31286e-13
4.86244e-15
4.13307e-13
2.33397e-13
3.20921e-13
1.45873e-14
9.23863e-14
1.26423e-13
1.55598e-13
9.72488e-15
3.01471e-13
1.02111e-13
4.52207e-13
4.3762e-13
2.82021e-13
2.1881e-13
3.54958e-13
5.64043e-13
5.15419e-13
6.41842e-13
2.23672e-13
4.57069e-13
1.36148e-13
5.34868e-14
4.86244e-15
3.35508e-13
3.54958e-13
5.20281e-13
4.13307e-13
6.22392e-13
5.00831e-13
4.32757e-13
2.62572e-13
3.54958e-13
2.77159e-13
3.16059e-13
2.96609e-13
4.42482e-13
5.5918e-13
9.48176e-13
5.34868e-13
5.05694e-13
5.88355e-13
6.32117e-13
5.34868e-13
8.36339e-13
8.12027e-13
8.50927e-13
1.21561e-12
1.42469e-12
1.08432e-12
9.23863e-13
1.02111e-12
8.26615e-13
1.1913e-12
7.68265e-13
1.04542e-12
5.83493e-13
8.07165e-13
5.54318e-13
8.75239e-13
4.52207e-13
3.88995e-13
1.16699e-13
5.83493e-14
1.50736e-13
6.41842e-13
8.65514e-13
1.14267e-12
8.60652e-13
8.26615e-13
4.95969e-13
4.32757e-13
3.7927e-13
2.96609e-13
1.02111e-13
1.36148e-13
3.25783e-13
3.84133e-13
6.61292e-13
5.05694e-13
7.82853e-13
4.57069e-13
8.94689e-13
7.5854e-13
9.7735e-13
5.9808e-13
7.39091e-13
3.7927e-13
1.26423e-13
3.25783e-13
5.83493e-14
4.32757e-13
1.75048e-13
3.5982e-13
1.45873e-13
8.26615e-14
2.47984e-13
4.3762e-14
1.50736e-13
1.41011e-13
3.64683e-13
4.27895e-13
4.1817e-13
9.23863e-14
4.03582e-13
2.3826e-13
2.23672e-13
1.50736e-13
2.91746e-14
2.13947e-13
6.80741e-14
2.62572e-13
2.33397e-13
5.34868e-14
1.11836e-13
1.70185e-13
1.26423e-13
3.69545e-13
5.00831e-13
5.5918e-13
4.13307e-13
4.42482e-13
5.44593e-13
4.23032e-13
8.65514e-13
6.02942e-13
3.84133e-13
2.77159e-13
5.88355e-13
3.30646e-13
4.23032e-13
2.96609e-13
1.9936e-13
1.11836e-13
9.23863e-14
2.33397e-13
1.11836e-13
2.1881e-13
3.93858e-13
3.01471e-13
6.46704e-13
7.7799e-13
8.89826e-13
9.48176e-13
6.85604e-13
5.73768e-13
3.64683e-13
5.30006e-13
3.16059e-13
5.20281e-13
3.50096e-13
4.57069e-13
5.10556e-13
5.7863e-13
1.55598e-13
3.88995e-13
1.6046e-13
1.55598e-13
2.62572e-13
9.72488e-14
5.34868e-13
4.32757e-13
4.52207e-13
3.69545e-13
5.5918e-13
3.01471e-13
2.3826e-13
2.09085e-13
2.43122e-13
2.52847e-13
3.40371e-13
5.44593e-13
7.68265e-13
6.3698e-13
6.85604e-13
4.47344e-13
2.96609e-13
5.15419e-13
3.54958e-13
3.50096e-13
7.19641e-13
6.12667e-13
5.68905e-13
5.15419e-13
4.81381e-13
6.27255e-13
4.91106e-13
5.5918e-13
3.11196e-13
1.84773e-13
1.6046e-13
3.40371e-14
2.72297e-13
1.41011e-13
2.13947e-13
4.91106e-13
3.50096e-13
1.11836e-13
1.84773e-13
3.16059e-13
4.95969e-13
6.51567e-13
6.3698e-13
8.55789e-13
8.36339e-13
3.45233e-13
4.1817e-13
2.3826e-13
2.67434e-13
3.64683e-13
1.89635e-13
4.3762e-13
2.72297e-13
5.44593e-13
2.1881e-13
4.76519e-13
2.43122e-14
2.28535e-13
3.54958e-13
5.00831e-13
5.83493e-13
4.91106e-13
6.80741e-14
1.36148e-13
3.88995e-14
1.9936e-13
3.01471e-13
3.9872e-13
2.47984e-13
6.1753e-13
1.7991e-13
6.90466e-13
6.12667e-13
9.7735e-13
1.20102e-12
1.05515e-12
9.62763e-13
9.23863e-13
8.99551e-13
7.9744e-13
8.36339e-13
7.29366e-13
5.54318e-13
4.61932e-13
3.16059e-13
2.1881e-13
2.96609e-13
1.21561e-13
1.06974e-13
1.94498e-13
4.32757e-13
2.62572e-13
6.32117e-14
3.88995e-14
8.75239e-14
1.70185e-13
2.23672e-13
1.45873e-13
5.05694e-13
7.19641e-13
7.7799e-13
8.36339e-13
8.99551e-13
5.64043e-13
5.88355e-13
1.26423e-13
1.06974e-13
1.55598e-13
3.01471e-13
4.52207e-13
4.08445e-13
3.16059e-13
2.96609e-13
4.08445e-13
4.66794e-13
3.20921e-13
2.91746e-14
2.3826e-13
4.08445e-13
1.94498e-13
3.01471e-13
4.03582e-13
1.89635e-13
4.08445e-13
4.86244e-14
1.02111e-13
2.57709e-13
1.70185e-13
8.75239e-14
1.94498e-14
1.45873e-14
1.45873e-14
4.86244e-15
4.86244e-15
9.72488e-14
2.1881e-13
1.45873e-13
3.06334e-13
1.7991e-13
3.5982e-13
6.61292e-13
6.46704e-13
8.02302e-13
6.1753e-13
2.28535e-13
1.65323e-13
4.3762e-14
9.72488e-15
3.88995e-14
6.80741e-14
2.62572e-13
2.82021e-13
2.43122e-13
4.3762e-14
6.22392e-13
1.94498e-13
3.69545e-13
7.29366e-14
3.45233e-13
6.80741e-14
6.3698e-13
4.27895e-13
4.71657e-13
2.47984e-13
2.57709e-13
1.55598e-13
2.47984e-13
3.20921e-13
1.9936e-13
6.80741e-14
1.50736e-13
4.86244e-15
2.43122e-14
7.7799e-14
2.04222e-13
4.08445e-13
5.39731e-13
2.62572e-13
)
;

boundaryField
{
    sides
    {
        type            calculated;
        value           nonuniform List<scalar> 2(2.62572e-13 9.96799e-13);
    }
    empty
    {
        type            empty;
    }
}


// ************************************************************************* //
