/*--------------------------------*- C++ -*----------------------------------*\
  =========                 |
  \\      /  F ield         | OpenFOAM: The Open Source CFD Toolbox
   \\    /   O peration     | Website:  https://openfoam.org
    \\  /    A nd           | Version:  13
     \\/     M anipulation  |
\*---------------------------------------------------------------------------*/
FoamFile
{
    format      ascii;
    class       surfaceScalarField;
    location    "0.0015";
    object      phi;
}
// * * * * * * * * * * * * * * * * * * * * * * * * * * * * * * * * * * * * * //

dimensions      [1 0 -1 0 0 0 0];

internalField   nonuniform List<scalar> 
999
(
-3.97817e-12
-3.13413e-12
-3.3401e-12
-3.24619e-12
-2.6141e-12
-2.87226e-12
-1.45347e-12
-1.66869e-12
-1.48913e-12
-2.19508e-13
-4.46074e-13
-9.41161e-13
-1.19621e-12
-1.00713e-12
-1.51092e-12
-1.3261e-12
-8.02317e-13
-1.95286e-13
-2.06632e-13
-7.72119e-13
-1.68934e-13
-7.94698e-14
-5.96945e-13
-1.19682e-13
5.23634e-13
1.18772e-12
1.14495e-12
5.82606e-13
1.12145e-12
7.04017e-13
3.08841e-13
-8.45409e-14
-6.8581e-13
-1.16112e-12
-1.52601e-12
-1.01054e-12
-6.85094e-14
8.8064e-15
1.7328e-13
1.7328e-13
2.9213e-13
5.77149e-13
6.46832e-13
-2.46117e-13
-1.78141e-13
-5.50341e-14
1.16604e-13
-5.99539e-15
-6.76154e-14
-6.97156e-13
-8.02144e-13
-4.93192e-13
4.32843e-13
3.07606e-13
6.91435e-13
1.17586e-12
-2.93663e-13
-1.13842e-12
-1.16222e-12
-8.78428e-13
-1.03587e-12
-1.3513e-12
-1.83231e-12
-1.56998e-12
-1.95572e-12
-1.19092e-12
-1.34209e-12
-2.29478e-12
-2.15615e-12
-1.35983e-12
-3.71872e-13
-2.10041e-13
7.81627e-13
9.10624e-13
1.96643e-12
2.09632e-12
1.3687e-12
1.20972e-12
1.03399e-12
-3.22834e-13
-3.9925e-13
-1.30917e-12
-2.07649e-12
-1.4611e-12
1.46929e-13
6.79287e-13
1.5359e-12
1.12209e-12
2.68202e-13
6.90201e-13
7.99324e-13
4.43589e-13
6.9719e-15
-2.05783e-14
1.86127e-14
-9.05684e-13
-9.77532e-13
-1.389e-12
-8.786e-13
-4.0927e-13
-7.98623e-13
-1.048e-13
-3.02428e-13
-1.02218e-13
-4.44239e-13
-5.60802e-13
-2.69293e-13
-9.30947e-13
-1.35335e-12
-9.7333e-13
-1.18386e-12
-9.92501e-13
-3.01168e-13
-1.05847e-12
-9.76658e-13
-1.66592e-13
1.61806e-13
-4.83339e-13
-5.9597e-14
-3.14643e-13
-5.2281e-13
-1.09764e-12
-6.22783e-13
3.17027e-13
1.14023e-13
-2.11556e-13
-7.26835e-13
3.26625e-14
7.07492e-13
8.69257e-13
1.19213e-12
8.5815e-13
1.63574e-13
-4.59081e-14
1.66608e-13
2.70183e-13
8.39364e-13
3.80654e-13
3.55832e-13
2.97007e-13
3.42651e-13
5.88199e-14
-2.00362e-13
3.03551e-13
9.10496e-13
1.9693e-12
9.00624e-13
2.03046e-13
4.50586e-13
1.19426e-12
1.53136e-12
1.24183e-12
1.19648e-12
6.46086e-13
1.99504e-13
-1.62684e-13
-2.11527e-14
-6.74216e-15
2.65473e-13
-1.94026e-13
-7.20504e-13
-1.04227e-12
-1.20896e-12
-8.84998e-13
7.5817e-14
-3.75714e-13
2.52892e-13
2.00103e-13
5.444e-13
-2.27013e-13
-1.09419e-12
-5.35686e-13
-1.56916e-12
-1.51292e-12
-9.95296e-13
-5.47326e-13
-2.76224e-13
-7.9406e-13
-3.58077e-13
-1.17167e-13
-9.01503e-14
4.27985e-13
5.80477e-13
-1.32869e-14
3.48829e-14
4.46171e-13
2.9626e-13
5.87408e-13
2.70783e-13
4.37111e-13
4.02655e-13
-3.63026e-13
-7.33741e-13
-1.24977e-12
-2.69507e-13
-4.92318e-13
-7.61652e-13
-1.2429e-12
-1.23576e-12
-1.2318e-12
-2.41235e-13
-6.88391e-13
-1.14704e-12
-4.05434e-13
-7.9097e-13
-4.2398e-13
-7.25215e-13
-8.85212e-13
-1.00619e-12
-1.70916e-13
-3.37097e-13
8.23617e-14
9.28468e-13
5.12526e-13
4.05384e-13
5.77749e-13
1.56497e-13
2.29996e-13
2.90803e-13
8.20009e-14
-3.09933e-13
-8.64378e-13
-6.36644e-13
-1.21003e-13
1.57243e-13
2.11358e-13
3.68647e-14
-1.77847e-13
-5.15452e-13
-1.98827e-13
-9.53096e-13
-1.13859e-13
-1.41409e-13
-3.85561e-13
-3.69505e-13
-2.84817e-13
-7.65427e-13
6.14477e-14
3.41102e-13
8.20009e-14
-8.48774e-13
-2.21215e-13
-3.14496e-13
-5.26412e-13
1.43768e-13
8.78769e-13
7.46444e-13
-4.3526e-13
-1.24373e-12
-7.10799e-13
-9.18874e-13
-2.93535e-13
-3.80124e-13
-9.45292e-13
-1.11171e-12
9.18736e-14
7.77231e-13
1.12904e-12
1.37445e-12
6.28047e-13
2.2558e-13
1.004e-13
-1.27335e-13
-1.66353e-13
-9.37278e-13
-4.88501e-13
-4.01912e-13
-4.86366e-14
2.72765e-13
8.02394e-13
9.63504e-13
8.80004e-13
1.00253e-13
-1.30063e-13
2.27898e-14
-2.55391e-13
-2.31235e-13
-7.41952e-13
-1.40387e-12
-1.05576e-12
2.43472e-13
5.23634e-13
8.21326e-13
1.03706e-12
1.79208e-12
2.17195e-12
2.97976e-12
2.39041e-12
1.05039e-12
2.05901e-13
7.99324e-15
-6.41354e-13
-5.00142e-13
-4.29757e-13
1.02814e-13
5.2803e-13
1.04493e-12
1.30234e-12
1.58289e-12
1.27334e-12
1.84598e-12
9.06774e-13
-4.24727e-13
-1.58618e-12
-1.41965e-12
-6.27584e-13
2.25761e-13
8.23907e-13
1.36299e-12
1.75675e-12
1.89135e-12
2.34204e-12
1.76272e-12
1.71262e-12
1.36007e-12
1.72571e-12
1.20194e-12
1.50783e-12
1.5612e-12
2.07426e-12
1.02215e-12
1.31108e-12
1.42476e-12
9.11337e-13
2.91697e-13
3.30355e-13
6.35306e-13
3.93336e-13
-5.65944e-13
-4.79749e-13
-8.65918e-13
-8.76686e-14
4.63868e-13
4.37972e-13
7.29413e-14
-1.7778e-13
-7.6498e-13
-1.07032e-12
-4.79023e-13
4.48572e-13
3.05353e-13
-2.93302e-13
7.73428e-13
5.09231e-13
6.10009e-13
-6.13651e-14
7.23876e-13
1.75888e-12
1.12706e-12
7.38246e-13
4.82087e-13
-1.64204e-13
-6.47584e-13
-3.78283e-13
-2.48359e-13
-1.3096e-12
-1.42145e-12
-5.61529e-13
-6.99704e-13
-2.84356e-13
1.13798e-12
1.80314e-12
1.56211e-12
9.90769e-13
1.0525e-12
5.7957e-13
3.97185e-13
1.72393e-13
2.31365e-13
-6.00794e-13
-1.12025e-12
-1.69079e-12
-9.97291e-13
-1.47161e-12
-6.08385e-13
8.91665e-13
6.70803e-13
1.4745e-12
1.9179e-12
1.12722e-12
3.03538e-13
-4.21471e-13
-1.41887e-12
-2.92441e-13
4.14329e-13
1.72629e-12
1.88788e-12
2.81432e-12
1.81116e-12
1.81299e-12
1.9491e-12
2.53194e-12
2.29109e-12
1.48375e-12
3.3305e-13
1.38117e-13
-2.53849e-13
-8.48968e-13
-1.06305e-12
-1.47161e-12
-5.30015e-13
-1.97506e-13
1.26123e-12
1.88333e-12
5.12776e-12
1.62767e-11
4.94711e-11
1.47798e-10
4.35308e-10
1.26981e-09
3.65572e-09
1.03778e-08
2.9031e-08
8.00113e-08
2.17171e-07
5.80294e-07
1.52584e-06
3.9464e-06
1.00352e-05
2.50769e-05
6.1549e-05
0.000148297
0.000350549
0.000812455
0.00184497
0.00410201
0.00892231
0.0189694
0.0393832
0.0797622
0.157404
0.302289
0.564185
1.02182
1.7931
3.04381
4.99034
7.89086
12.0199
17.6262
24.8793
33.8221
44.3422
56.1835
69.0262
82.5718
96.5754
110.847
125.245
139.66
154.014
168.243
182.302
196.155
209.774
223.135
236.222
249.018
261.513
273.696
285.559
297.094
308.297
319.162
329.686
339.867
349.702
359.19
368.331
377.125
385.574
393.68
401.443
408.868
415.957
422.715
429.144
435.25
441.037
446.51
451.674
456.534
461.096
465.365
469.348
473.049
476.475
479.632
482.525
485.162
487.548
489.689
491.593
493.266
494.714
495.946
496.969
497.791
498.422
498.873
499.155
499.283
499.275
499.15
498.936
498.665
498.374
498.111
497.927
497.872
497.989
498.297
498.776
499.361
499.939
500.37
500.524
500.334
499.816
499.061
498.206
497.404
496.809
496.538
496.648
497.112
497.811
498.557
499.123
499.312
499.034
498.357
497.486
496.674
496.109
495.726
495.013
492.894
487.812
478.177
463.111
443.01
419.488
394.808
371.201
350.46
333.776
321.699
314.136
310.427
309.522
310.25
311.593
312.87
313.767
314.243
314.4
314.378
314.291
314.21
314.161
314.148
314.157
314.162
314.169
314.199
314.194
314.125
314.182
314.32
314.036
313.792
314.649
314.526
311.842
313.656
319.364
308.724
297.036
334.241
334.385
181.508
52.0898
10.0043
1.60668
0.263121
0.0434862
0.00718931
0.00118826
0.000196375
3.24519e-05
5.36267e-06
8.8616e-07
1.46431e-07
2.41963e-08
3.99804e-09
6.6058e-10
1.09172e-10
1.80268e-11
2.97335e-12
4.84234e-13
7.2719e-14
3.95022e-14
1.01079e-13
1.28045e-13
3.20818e-14
-5.84035e-14
2.39469e-14
-1.01482e-13
-2.6234e-13
-2.30042e-13
-1.67399e-13
-3.37074e-14
3.63262e-14
9.83613e-14
7.78291e-14
7.91825e-14
8.73774e-14
5.06078e-14
-3.20015e-14
-9.60905e-14
-1.98481e-13
-1.24561e-13
-3.93727e-14
4.42202e-14
7.58071e-14
2.19623e-14
-4.80424e-14
-1.17827e-13
-1.4457e-13
-1.59989e-13
-1.74441e-13
-2.6539e-13
-2.11281e-13
-1.16621e-13
-1.59692e-13
-2.43619e-13
-1.58416e-13
-1.53184e-13
-7.03819e-14
3.59896e-14
1.66425e-14
1.69014e-14
7.82364e-14
1.29251e-13
7.52995e-14
9.87623e-14
-1.02536e-14
-5.24143e-14
-2.39794e-14
-1.53359e-16
3.04676e-14
5.72039e-14
5.87103e-14
8.11115e-14
3.67845e-14
1.06153e-13
4.08357e-14
9.84785e-14
4.10793e-14
4.13699e-15
-2.90448e-14
9.14349e-14
1.97724e-13
1.43858e-13
5.83908e-14
4.19189e-14
-9.68633e-16
-8.77738e-14
-3.89806e-14
-8.44245e-14
-1.32359e-13
-1.51031e-13
-2.15284e-13
-1.70873e-13
-9.59513e-14
-1.4823e-13
-2.26821e-13
-3.10534e-13
-2.6539e-13
-2.347e-13
-2.02291e-13
-1.18789e-13
-4.90122e-14
-2.99393e-14
-6.77413e-14
-1.45518e-13
-2.47983e-13
-1.97022e-13
-2.91612e-13
-2.50506e-13
-2.61068e-13
-1.81635e-13
-1.80769e-13
-1.2441e-13
-1.73309e-13
-1.32723e-13
-1.98975e-13
-2.37721e-13
-3.49347e-13
-4.22797e-13
-2.541e-13
-2.86234e-13
-3.15697e-13
-2.35176e-13
-3.86729e-13
-4.4841e-13
-3.81715e-13
-5.07371e-13
-7.1207e-13
-6.98097e-13
-4.14593e-13
-5.22805e-13
-4.30439e-13
-5.35779e-13
-4.83211e-13
-4.74935e-13
-3.97986e-13
-3.58205e-13
-3.42856e-13
-3.25398e-13
-3.57142e-13
-2.39792e-13
-1.06267e-13
-3.29936e-14
-1.20093e-14
-1.96251e-13
-3.88319e-13
-5.55014e-13
-4.80948e-13
-4.35249e-13
-2.61046e-13
-2.73441e-13
-2.14882e-13
-1.53738e-13
-6.09011e-14
9.36017e-14
-9.08026e-14
-1.68011e-13
-2.43804e-13
-2.90128e-13
-3.47347e-13
-3.14678e-13
-3.03736e-13
-3.77108e-13
-5.20058e-13
-3.47454e-13
-3.50701e-13
-2.93428e-13
-8.65588e-14
-3.57091e-14
-1.44789e-13
-1.17519e-13
-1.41374e-13
-1.10183e-13
-1.40089e-13
-3.08363e-14
1.05146e-13
8.01086e-14
-2.66678e-14
-6.92733e-14
-1.38198e-13
-2.21314e-13
-2.30161e-13
-8.87865e-14
-1.19345e-13
-1.53047e-13
-7.67249e-14
-5.03402e-14
7.38938e-14
-9.38415e-14
-8.67843e-14
-4.09633e-14
-1.07782e-13
-8.92125e-14
-5.96524e-14
1.28462e-14
1.03623e-13
9.12359e-14
2.6745e-13
2.98065e-13
2.18115e-13
2.18044e-13
2.29659e-13
2.4562e-13
3.48711e-13
3.56029e-13
2.86232e-13
1.60758e-13
2.51977e-13
2.07116e-13
1.7791e-13
1.87368e-13
1.38698e-13
6.20703e-14
4.27386e-14
1.27366e-13
9.69595e-17
5.11606e-14
1.71925e-13
1.55057e-13
2.40419e-13
3.84486e-13
3.99467e-13
4.57144e-13
4.23571e-13
3.11376e-13
2.093e-13
2.54355e-13
2.37558e-13
2.27302e-13
1.55677e-13
2.60406e-13
2.18177e-13
2.71668e-13
2.06673e-13
1.49998e-13
1.22471e-13
1.11259e-13
7.59045e-14
1.18364e-13
1.39486e-13
2.52512e-13
2.44429e-13
1.53333e-13
2.69151e-13
2.49133e-13
1.44895e-13
8.27351e-14
1.36558e-13
9.78722e-14
1.8386e-13
1.98987e-13
3.53393e-13
3.52095e-13
3.56268e-13
2.72646e-13
1.75655e-13
2.06048e-13
2.33541e-13
1.73569e-13
2.51387e-13
3.49845e-13
3.20187e-13
2.40215e-13
2.77825e-13
2.46342e-13
3.14136e-13
2.30661e-13
2.30536e-13
1.25133e-13
2.25882e-15
-3.52875e-14
-1.10312e-13
-7.53114e-14
-1.005e-13
-1.70021e-13
-2.59021e-13
-9.05239e-14
-9.35628e-14
-1.08176e-13
-1.79377e-13
-3.75256e-13
-2.54504e-13
-3.54568e-13
-5.04337e-13
-2.60448e-13
-1.70518e-13
-1.95228e-13
-1.25081e-13
-1.34442e-13
-1.58402e-13
-1.83174e-13
-1.58942e-13
-1.86191e-13
-1.62474e-13
-2.01965e-13
-1.35424e-13
-5.86116e-14
-1.37936e-13
-1.94466e-13
-2.9469e-13
-3.16999e-13
-1.15008e-13
-3.48632e-14
-5.84915e-14
-7.74778e-14
-1.04177e-13
-1.7816e-13
-1.44222e-13
-2.43101e-13
-2.07325e-13
-1.74385e-13
-3.10408e-13
-4.40556e-13
-5.37118e-13
-6.05673e-13
-4.76575e-13
-4.57708e-13
-4.98641e-13
-3.48974e-13
-4.64716e-13
-3.94446e-13
-2.98814e-13
-2.51672e-13
-2.32828e-13
-1.10981e-13
-1.37272e-13
-8.59651e-14
-8.84634e-14
4.2052e-14
1.34423e-13
1.68554e-13
6.50117e-14
3.80997e-15
4.6566e-14
-2.69821e-14
-1.29957e-13
-6.78741e-14
-2.14001e-13
-3.31609e-13
-3.6268e-13
-3.86029e-13
-4.5665e-13
-3.53355e-13
-2.80019e-13
-2.17904e-13
-7.51301e-14
-3.25995e-14
-1.5775e-13
-2.13935e-13
-1.76666e-13
-2.27481e-13
-1.5973e-13
-1.45498e-13
-2.63598e-13
-1.94376e-13
-1.08451e-13
6.52157e-14
1.90394e-13
1.45803e-13
1.02829e-13
1.87116e-13
1.19738e-13
1.98584e-13
8.63993e-14
-2.6942e-14
-8.26554e-14
-3.55403e-14
3.31086e-14
-3.63556e-14
3.18503e-14
-2.11968e-14
-1.60759e-14
1.86411e-14
5.60811e-15
7.04923e-14
1.03396e-13
1.2812e-13
1.30569e-13
-4.24871e-14
-2.753e-13
-3.27002e-13
-3.997e-13
-3.12201e-13
-2.44673e-13
-7.0811e-14
-6.30891e-14
3.1434e-14
-4.95166e-14
2.43993e-14
9.08688e-14
1.36076e-13
1.33674e-13
5.08365e-14
2.32534e-13
1.87647e-13
1.31658e-13
1.52802e-13
5.28925e-14
1.0508e-13
2.39516e-13
2.42186e-13
2.15874e-13
1.94137e-13
1.40083e-13
1.17816e-13
7.07484e-14
1.69099e-13
1.54083e-13
2.40538e-14
-8.19607e-14
-2.47003e-14
-4.02238e-15
-4.1286e-14
5.06682e-14
1.33165e-13
2.48128e-13
2.50573e-13
)
;

boundaryField
{
    sides
    {
        type            calculated;
        value           nonuniform List<scalar> 2(1.16415e-13 3.89991e-12);
    }
    empty
    {
        type            empty;
    }
}


// ************************************************************************* //
