/*--------------------------------*- C++ -*----------------------------------*\
  =========                 |
  \\      /  F ield         | OpenFOAM: The Open Source CFD Toolbox
   \\    /   O peration     | Website:  https://openfoam.org
    \\  /    A nd           | Version:  13
     \\/     M anipulation  |
\*---------------------------------------------------------------------------*/
FoamFile
{
    format      ascii;
    class       surfaceScalarField;
    location    "0.0015";
    object      phi_0;
}
// * * * * * * * * * * * * * * * * * * * * * * * * * * * * * * * * * * * * * //

dimensions      [1 0 -1 0 0 0 0];

internalField   nonuniform List<scalar> 
999
(
-3.7522e-12
-3.21174e-12
-3.1187e-12
-3.37446e-12
-2.45248e-12
-2.58489e-12
-1.11403e-12
-1.53403e-12
-1.48913e-12
-1.89829e-13
-4.59549e-13
-9.41161e-13
-1.23958e-12
-1.10734e-12
-1.35092e-12
-1.17339e-12
-7.1396e-13
-2.98439e-13
-1.10983e-13
-4.68542e-13
-1.25566e-13
-3.00873e-13
-5.67052e-13
-5.99539e-15
6.11991e-13
1.13087e-12
1.14495e-12
6.18683e-13
1.36959e-12
1.04324e-12
1.36477e-13
-4.71912e-13
-6.90373e-13
-1.03101e-12
-1.49449e-12
-8.6696e-13
-1.11877e-13
2.22705e-13
5.21632e-13
2.12085e-13
1.91918e-13
2.19671e-13
3.05772e-13
-8.01502e-14
-1.60103e-13
-1.28295e-13
-8.93748e-15
-4.48005e-14
-1.27401e-13
-6.62914e-13
-1.07127e-12
-3.19719e-13
5.12287e-13
5.3498e-13
7.27512e-13
1.12358e-12
-2.89313e-13
-1.06516e-12
-1.11886e-12
-1.04734e-12
-7.7566e-13
-1.26456e-12
-1.93982e-12
-1.72997e-12
-1.92127e-12
-1.17744e-12
-1.51557e-12
-2.23794e-12
-1.9692e-12
-1.43287e-12
-2.05692e-13
-1.17121e-13
8.17704e-13
9.85505e-13
1.766e-12
1.88971e-12
1.40567e-12
8.64095e-13
9.20303e-13
-2.36098e-13
-2.25778e-13
-1.22243e-12
-1.63368e-12
-1.11254e-12
2.17248e-13
4.28418e-13
1.55667e-12
9.65033e-13
-3.53749e-14
3.37286e-13
8.42692e-13
4.55444e-13
8.64166e-14
2.27898e-14
-1.50297e-13
-1.07003e-12
-7.38304e-13
-1.21987e-12
-6.22955e-13
-4.27309e-13
-9.72095e-13
-1.43605e-13
-2.27546e-13
-1.41237e-13
-3.2761e-13
-3.05156e-13
-1.52878e-13
-8.23444e-13
-1.5791e-12
-9.7333e-13
-1.06267e-12
-8.19029e-13
-2.14432e-13
-1.05847e-12
-9.24164e-13
-3.65394e-13
2.9626e-13
-4.92251e-13
-8.94898e-14
-3.32681e-13
-5.36285e-13
-9.99046e-13
-8.48535e-13
2.16815e-13
-1.77026e-14
-2.43069e-13
-5.2347e-13
1.64388e-13
8.21179e-13
7.5557e-13
1.26518e-12
5.87408e-13
2.50311e-13
2.24834e-13
1.45841e-13
3.00076e-13
6.20903e-13
2.71316e-13
2.19544e-13
1.21914e-13
1.72121e-13
-1.58021e-13
8.38552e-14
5.62439e-13
1.25318e-12
2.06039e-12
9.14099e-13
1.91191e-13
4.38732e-13
1.10752e-12
1.3743e-12
1.41236e-12
1.1604e-12
6.84891e-13
4.20694e-13
-1.41704e-13
-1.65898e-14
2.47715e-14
5.34381e-13
-6.11289e-13
-7.63872e-13
-1.01237e-12
-1.13569e-12
-8.89561e-13
2.33229e-14
-2.11367e-13
1.61806e-13
3.34557e-13
2.60183e-13
-4.70804e-13
-8.72996e-13
-4.14707e-13
-1.30895e-12
-1.45607e-12
-1.12084e-12
-5.77219e-13
-1.4177e-13
-8.32865e-13
-8.12312e-13
5.33629e-14
-6.7549e-14
6.19282e-13
6.14719e-13
-1.32869e-14
1.09765e-13
3.63997e-13
3.53103e-13
5.87408e-13
2.4089e-13
3.59287e-13
3.62016e-13
-6.50186e-13
-6.76898e-13
-1.06282e-12
-3.56243e-13
-4.53512e-13
-9.09795e-13
-1.28627e-12
-1.10565e-12
-1.26604e-12
-3.48952e-13
-7.54361e-13
-1.15595e-12
-2.91747e-13
-6.95322e-13
-4.50931e-13
-7.25215e-13
-9.2858e-13
-9.62822e-13
-2.62215e-13
-4.50784e-13
1.82573e-13
9.14993e-13
4.42207e-13
5.19071e-13
8.07851e-13
2.47582e-13
2.43472e-13
2.04067e-13
-3.91911e-14
-3.23408e-13
-6.90906e-13
-6.32081e-13
-2.98825e-13
2.14087e-13
2.50163e-13
-2.15405e-15
-3.07951e-13
-2.64369e-13
-2.12303e-13
-8.6636e-13
-1.09296e-13
-1.57827e-13
-4.58822e-13
-3.69505e-13
-6.95896e-13
-3.96095e-13
1.70572e-13
3.23063e-13
-1.18422e-13
-8.92142e-13
-1.5708e-13
-4.02853e-13
-4.44026e-13
2.1865e-13
7.08239e-13
7.74503e-13
-1.67761e-13
-9.05698e-13
-5.23851e-13
-9.53116e-13
-3.92126e-13
-4.19143e-13
-1.15028e-12
-1.23269e-12
-1.18783e-13
4.72247e-13
1.29957e-12
1.44933e-12
8.71625e-13
1.11894e-13
1.004e-13
-1.22772e-13
-1.27548e-13
-8.37067e-13
-3.58397e-13
-2.2844e-13
-8.74417e-14
1.77116e-13
8.77276e-13
1.1548e-12
5.95787e-13
4.34094e-14
-1.30063e-13
6.61579e-14
-1.55179e-13
-1.60916e-13
-5.41742e-13
-1.31714e-12
-1.07653e-12
2.3689e-14
3.32337e-13
7.5557e-13
1.25714e-12
1.73524e-12
2.13314e-12
2.72249e-12
2.57258e-12
1.25516e-12
3.61122e-13
-2.05905e-13
-4.97774e-13
-2.83302e-13
-2.24771e-13
1.73133e-13
5.2803e-13
9.05913e-13
1.08845e-12
1.11923e-12
1.20303e-12
1.94892e-12
9.16794e-13
-5.51889e-13
-1.49509e-12
-1.64083e-12
-6.48351e-13
2.34887e-13
7.85102e-13
1.34657e-12
1.69534e-12
1.65669e-12
2.06674e-12
1.76706e-12
1.5583e-12
1.42582e-12
1.88712e-12
1.44279e-12
1.81738e-12
1.93671e-12
2.49131e-12
8.38143e-13
1.26609e-12
1.43935e-12
6.28228e-13
5.0848e-14
2.16668e-13
3.92836e-13
-1.89895e-13
-4.19636e-13
-4.58983e-13
-8.2255e-13
-1.31037e-13
4.50393e-13
6.38395e-13
6.98219e-13
5.23217e-14
-9.86383e-13
-9.23803e-13
-6.86737e-13
4.35096e-13
3.18828e-13
-1.83964e-13
8.87115e-13
4.70426e-13
6.23484e-13
-4.52172e-15
6.38975e-13
1.58835e-12
9.70002e-13
6.24559e-13
2.93518e-13
-3.72133e-13
-6.04216e-13
-4.65019e-13
-1.79875e-13
-1.16764e-12
-1.14755e-12
-2.04051e-13
-5.17106e-13
-1.40777e-13
7.4008e-13
1.46208e-12
1.50527e-12
1.04761e-12
1.0525e-12
6.45326e-13
4.49466e-13
1.15549e-13
1.68338e-13
-8.01217e-13
-1.15906e-12
-1.63394e-12
-9.97291e-13
-1.67476e-12
-4.85573e-13
9.75459e-13
4.97544e-13
1.33548e-12
1.82498e-12
8.9985e-13
5.08311e-13
-1.83864e-13
-1.04476e-12
-6.02907e-14
8.30272e-13
1.79661e-12
1.79223e-12
2.42098e-12
1.92485e-12
1.997e-12
2.04931e-12
2.28653e-12
2.26849e-12
1.44039e-12
3.19575e-13
-8.3286e-14
-3.9308e-13
-9.14937e-13
-1.01968e-12
-1.20228e-12
-3.29592e-13
-1.97506e-13
1.1521e-12
1.42313e-12
3.03859e-12
9.73386e-12
2.97861e-11
9.01768e-11
2.67061e-10
7.84857e-10
2.27862e-09
6.52531e-09
1.84129e-08
5.11945e-08
1.40196e-07
3.78003e-07
1.00306e-06
2.61847e-06
6.72144e-06
1.69577e-05
4.20281e-05
0.000102271
0.000244204
0.000571841
0.0013123
0.00294925
0.006486
0.0139464
0.0292932
0.0600417
0.11996
0.233341
0.441305
0.810312
1.44233
2.48472
4.13614
6.64298
10.2806
15.317
21.9614
30.3117
40.316
51.7648
64.346
77.7425
91.6847
105.961
120.41
134.912
149.377
163.735
177.936
191.939
205.713
219.233
232.481
245.44
258.096
270.44
282.462
294.155
305.512
316.529
327.202
337.527
347.504
357.129
366.403
375.327
383.9
392.125
400.004
407.539
414.733
421.591
428.116
434.313
440.186
445.74
450.98
455.912
460.542
464.874
468.914
472.67
476.145
479.348
482.283
484.957
487.377
489.549
491.479
493.175
494.644
495.892
496.929
497.762
498.401
498.858
499.144
499.273
499.264
499.138
498.921
498.646
498.353
498.089
497.905
497.853
497.977
498.293
498.782
499.376
499.96
500.389
500.534
500.329
499.794
499.023
498.156
497.352
496.762
496.507
496.638
497.124
497.837
498.584
499.132
499.287
498.968
498.259
497.38
496.582
496.019
495.548
494.532
491.753
485.572
474.476
457.866
436.505
412.3
387.622
364.641
344.985
329.642
318.952
312.636
309.897
309.618
310.639
312.025
313.205
313.963
314.322
314.406
314.354
314.265
314.193
314.156
314.153
314.159
314.162
314.183
314.206
314.156
314.13
314.281
314.233
313.801
314.156
314.955
313.105
311.751
317.5
316.296
298.621
311.511
352.6
261.434
97.9083
21.9175
3.68669
0.595607
0.0982384
0.0162421
0.00268478
0.000443705
7.33247e-05
1.21169e-05
2.00226e-06
3.30858e-07
5.46707e-08
9.03358e-09
1.49256e-09
2.46577e-10
4.07385e-11
6.71199e-12
1.11482e-12
2.01456e-13
-3.45618e-15
3.59494e-14
8.33154e-14
9.43299e-14
6.42867e-15
-2.70182e-14
4.10239e-14
-7.64176e-14
-2.36736e-13
-1.78e-13
-1.35447e-13
-2.45907e-14
4.92391e-14
7.14103e-14
7.85157e-14
6.54855e-14
9.57807e-14
4.98237e-14
2.05497e-15
-6.82579e-14
-1.95615e-13
-1.18656e-13
-3.66041e-14
4.34361e-14
5.44908e-14
6.69709e-15
-8.60194e-14
-1.14275e-13
-1.33815e-13
-1.57636e-13
-2.04285e-13
-2.60269e-13
-1.8526e-13
-1.20957e-13
-1.30388e-13
-2.20637e-13
-1.61185e-13
-1.5213e-13
-7.70443e-14
7.65401e-14
3.49199e-14
-2.48985e-14
3.48197e-14
1.3714e-13
9.84275e-14
6.24511e-14
-3.47062e-14
-5.24143e-14
-6.63218e-15
4.60319e-14
3.8871e-14
4.86278e-14
4.14606e-14
4.75689e-14
3.95531e-14
1.18109e-13
4.13496e-14
9.41417e-14
4.81847e-14
4.13699e-15
-1.16976e-14
7.28164e-14
2.15488e-13
1.35969e-13
5.48381e-14
2.54533e-14
-3.36786e-14
-1.04705e-13
-2.13898e-14
-6.36973e-14
-1.07539e-13
-1.71147e-13
-2.44858e-13
-2.11105e-13
-1.47209e-13
-1.35219e-13
-1.90559e-13
-2.83729e-13
-2.52893e-13
-2.14044e-13
-1.61275e-13
-9.65908e-14
-2.65441e-14
-8.62303e-15
-9.02095e-14
-1.56987e-13
-2.85349e-13
-2.30148e-13
-3.19347e-13
-2.38523e-13
-2.45533e-13
-1.31431e-13
-1.42792e-13
-1.47662e-13
-1.60299e-13
-1.4164e-13
-2.11742e-13
-2.47595e-13
-3.64098e-13
-3.78374e-13
-2.28079e-13
-2.79275e-13
-3.1952e-13
-2.69627e-13
-3.72151e-13
-4.20037e-13
-3.60744e-13
-5.08501e-13
-6.84897e-13
-6.46569e-13
-4.43237e-13
-5.34003e-13
-4.70157e-13
-5.07136e-13
-4.62312e-13
-4.36688e-13
-3.50037e-13
-3.57421e-13
-3.3879e-13
-3.27409e-13
-3.84877e-13
-2.40133e-13
-8.92878e-14
-2.15513e-14
-1.76707e-14
-2.05908e-13
-3.9099e-13
-5.20222e-13
-4.85701e-13
-4.21454e-13
-2.88608e-13
-2.36762e-13
-2.30462e-13
-1.32692e-13
-9.50817e-14
8.72804e-14
-4.94457e-14
-1.77885e-13
-2.33563e-13
-2.98802e-13
-3.3e-13
-3.28203e-13
-3.04006e-13
-3.65838e-13
-4.90998e-13
-3.26824e-13
-3.4531e-13
-2.99333e-13
-8.2222e-14
-2.60079e-14
-1.52165e-13
-1.26192e-13
-1.54925e-13
-1.12708e-13
-1.68094e-13
-2.64995e-14
9.24058e-14
1.16491e-13
-1.96376e-14
-4.70046e-14
-1.28913e-13
-1.71798e-13
-2.26338e-13
-1.12823e-13
-1.28018e-13
-1.53047e-13
-8.28735e-14
-1.16014e-14
1.17213e-13
-8.31834e-14
-9.54579e-14
-1.14959e-13
-1.54189e-13
-1.18786e-13
-7.41336e-14
-4.40357e-15
8.25765e-14
9.02082e-14
2.54294e-13
3.01715e-13
2.03904e-13
2.46196e-13
2.50364e-13
2.17814e-13
3.6111e-13
3.90329e-13
2.57811e-13
1.29567e-13
2.41049e-13
2.28773e-13
1.82247e-13
1.87368e-13
1.5923e-13
7.6795e-14
3.56331e-14
1.14453e-13
2.98166e-14
4.76079e-14
1.79031e-13
1.51504e-13
2.30962e-13
3.49646e-13
4.03804e-13
4.41635e-13
4.82837e-13
3.03655e-13
1.70122e-13
2.35981e-13
2.11391e-13
2.13876e-13
1.94243e-13
2.58152e-13
2.03182e-13
2.85192e-13
1.82588e-13
1.1447e-13
1.19702e-13
9.93028e-14
8.02413e-14
1.13514e-13
1.34024e-13
2.82405e-13
2.39308e-13
1.91629e-13
2.51387e-13
2.46364e-13
1.72803e-13
1.05792e-13
1.76422e-13
1.19702e-13
1.78739e-13
1.82792e-13
3.26539e-13
3.5322e-13
3.01507e-13
2.89551e-13
1.65781e-13
1.98942e-13
2.22882e-13
1.60315e-13
2.71406e-13
3.15886e-13
3.51475e-13
2.47321e-13
2.74272e-13
2.49895e-13
3.12568e-13
2.21987e-13
2.33131e-13
1.40739e-13
7.20696e-15
-2.9139e-14
-9.24512e-14
-9.54273e-14
-9.18263e-14
-1.54242e-13
-2.34299e-13
-8.05524e-14
-1.17231e-13
-9.92593e-14
-1.63527e-13
-3.78171e-13
-2.86088e-13
-3.76154e-13
-5.17321e-13
-2.72258e-13
-2.12832e-13
-1.90107e-13
-1.42942e-13
-1.40617e-13
-1.48944e-13
-1.8266e-13
-1.82097e-13
-1.77691e-13
-1.70779e-13
-1.58597e-13
-8.33821e-14
-3.6684e-14
-1.56754e-13
-2.19189e-13
-3.11254e-13
-3.18027e-13
-1.16576e-13
-3.79021e-14
-4.31288e-14
-4.53083e-14
-1.41126e-13
-1.72011e-13
-1.29399e-13
-2.54813e-13
-1.82115e-13
-1.97296e-13
-3.15701e-13
-3.93024e-13
-5.33468e-13
-6.25005e-13
-4.76575e-13
-4.66382e-13
-4.95331e-13
-3.64607e-13
-4.56042e-13
-3.7864e-13
-3.0168e-13
-2.29718e-13
-2.11658e-13
-1.11765e-13
-1.50282e-13
-9.03019e-14
-1.01474e-13
1.99516e-14
1.3087e-13
1.84333e-13
8.27753e-14
1.86322e-14
8.49593e-14
1.18275e-14
-9.09261e-14
-4.94992e-14
-2.14174e-13
-3.24676e-13
-3.84364e-13
-3.89852e-13
-5.13272e-13
-4.00103e-13
-2.60687e-13
-1.98988e-13
-5.75393e-14
-4.73508e-14
-1.36483e-13
-2.18001e-13
-1.57507e-13
-2.09009e-13
-1.47407e-13
-1.33715e-13
-2.7112e-13
-1.94376e-13
-1.13816e-13
5.45575e-14
1.86841e-13
1.80643e-13
1.18338e-13
1.89885e-13
1.52669e-13
2.07772e-13
1.60904e-13
-4.05751e-15
-6.09714e-14
-3.58106e-14
9.12492e-16
-5.97806e-14
-3.00655e-14
-3.42073e-14
-3.29093e-14
7.7127e-15
2.31989e-14
1.06019e-13
1.17607e-13
1.10356e-13
1.31694e-13
-4.62393e-14
-2.95588e-13
-3.25974e-13
-4.12954e-13
-2.86964e-13
-2.18652e-13
-9.14407e-14
-6.30891e-14
2.07758e-14
-5.41237e-14
-1.00249e-14
5.32596e-14
1.34507e-13
1.42591e-13
3.96645e-14
2.08963e-13
1.76032e-13
1.00468e-13
1.4621e-13
9.44707e-14
1.17208e-13
1.93331e-13
2.68353e-13
2.03989e-13
1.65715e-13
1.26657e-13
1.17816e-13
8.36614e-14
1.9605e-13
1.69419e-13
4.6668e-14
-4.16315e-14
-3.44016e-14
2.43993e-14
-2.44526e-14
7e-14
1.21993e-13
2.55747e-13
2.19112e-13
)
;

boundaryField
{
    sides
    {
        type            calculated;
        value           nonuniform List<scalar> 2(9.45874e-14 3.7835e-12);
    }
    empty
    {
        type            empty;
    }
}


// ************************************************************************* //
