/*--------------------------------*- C++ -*----------------------------------*\
  =========                 |
  \\      /  F ield         | OpenFOAM: The Open Source CFD Toolbox
   \\    /   O peration     | Website:  https://openfoam.org
    \\  /    A nd           | Version:  13
     \\/     M anipulation  |
\*---------------------------------------------------------------------------*/
FoamFile
{
    format      ascii;
    class       volScalarField;
    location    "20.397652";
    object      p;
}
// * * * * * * * * * * * * * * * * * * * * * * * * * * * * * * * * * * * * * //

dimensions      [0 2 -2 0 0 0 0];

internalField   nonuniform List<scalar> 
17140
(
-0.23460705
-0.23463292
-0.23466389
-0.23469634
-0.2347318
-0.23477079
-0.23481348
-0.23486004
-0.23491069
-0.23496561
-0.23502495
-0.23508886
-0.23515744
-0.23523076
-0.23530891
-0.23539197
-0.2354801
-0.23557362
-0.23567318
-0.23578006
-0.23589661
-0.23602704
-0.23617868
-0.2363639
-0.23660278
-0.2369262
-0.23737796
-0.23801292
-0.23888819
-0.24004737
-0.24150411
-0.24323373
-0.24517747
-0.24725565
-0.24938315
-0.25148239
-0.25349252
-0.2553751
-0.25711636
-0.25872642
-0.2602362
-0.26169051
-0.26314172
-0.26464956
-0.26627507
-0.26806504
-0.27006261
-0.27231765
-0.27488489
-0.27782917
-0.28121818
-0.28515163
-0.28969163
-0.29500945
-0.30105791
-0.30817647
-0.3156518
-0.32403561
-0.33018457
-0.33682163
-0.33344047
-0.32904662
-0.29001479
-0.2455209
-0.12947055
-0.23481852
-0.23484368
-0.23487426
-0.23490568
-0.23493998
-0.23497775
-0.2350191
-0.23506423
-0.23511331
-0.23516654
-0.23522407
-0.23528603
-0.23535251
-0.2354236
-0.23549935
-0.23557985
-0.23566523
-0.23575579
-0.23585217
-0.23595556
-0.23606825
-0.23619434
-0.23634095
-0.23652017
-0.2367516
-0.23706547
-0.23750473
-0.23812336
-0.23897786
-0.24011186
-0.24153982
-0.24323861
-0.24515127
-0.24719986
-0.24930066
-0.25137712
-0.25336903
-0.25523824
-0.25697103
-0.25857746
-0.26008836
-0.26154867
-0.26301118
-0.2645368
-0.26618805
-0.26801413
-0.27006254
-0.27238809
-0.27505197
-0.27812756
-0.28169329
-0.28586184
-0.29070928
-0.29642399
-0.30296964
-0.31068526
-0.31884942
-0.32794992
-0.33489668
-0.3424195
-0.34038137
-0.33517355
-0.29456634
-0.24969557
-0.12966222
-0.23529297
-0.23531674
-0.2353456
-0.23537532
-0.23540779
-0.23544354
-0.2354827
-0.23552545
-0.23557196
-0.23562242
-0.23567697
-0.23573574
-0.23579881
-0.23586626
-0.23593813
-0.2360145
-0.23609549
-0.23618136
-0.23627269
-0.23637063
-0.23647733
-0.2365967
-0.23673556
-0.23690546
-0.23712525
-0.23742401
-0.23784322
-0.23843528
-0.23925555
-0.24034759
-0.24172723
-0.24337387
-0.2452336
-0.24723138
-0.24928585
-0.25132212
-0.25328095
-0.25512454
-0.25683902
-0.25843394
-0.25993955
-0.26140016
-0.26286844
-0.26440641
-0.26607684
-0.26793113
-0.27002181
-0.27240825
-0.27515819
-0.27835378
-0.28208427
-0.2864758
-0.29161849
-0.2977209
-0.30475786
-0.31308103
-0.32195588
-0.33179136
-0.33951627
-0.34785632
-0.34626743
-0.34232407
-0.30280581
-0.25786437
-0.13515879
-0.23601883
-0.23604068
-0.23606713
-0.23609449
-0.2361244
-0.23615734
-0.23619345
-0.23623288
-0.23627582
-0.23632242
-0.23637283
-0.23642715
-0.23648549
-0.23654788
-0.23661439
-0.23668506
-0.23676
-0.23683945
-0.23692391
-0.23701446
-0.23711309
-0.23722345
-0.23735194
-0.23750942
-0.23771365
-0.2379921
-0.23838417
-0.23894002
-0.23971329
-0.24074731
-0.24205969
-0.2436333
-0.24541847
-0.24734429
-0.24933273
-0.25131125
-0.25322197
-0.25502749
-0.25671356
-0.25828884
-0.25978242
-0.26123736
-0.26270552
-0.26424984
-0.26593195
-0.26780593
-0.26992886
-0.27236455
-0.27518733
-0.27848783
-0.28236591
-0.28696107
-0.29237702
-0.29884418
-0.30634781
-0.31526285
-0.32483971
-0.33539398
-0.34390979
-0.35322801
-0.35279801
-0.34952651
-0.31082031
-0.26763418
-0.14463275
-0.23697436
-0.23699376
-0.23701715
-0.23704151
-0.23706816
-0.23709753
-0.23712974
-0.23716495
-0.23720333
-0.23724501
-0.23729014
-0.23733881
-0.23739112
-0.2374471
-0.2375068
-0.23757026
-0.23763756
-0.23770892
-0.23778479
-0.23786612
-0.23795474
-0.23805399
-0.23816975
-0.23831204
-0.23849723
-0.23875082
-0.23910954
-0.23962064
-0.24033547
-0.24129688
-0.24252449
-0.24400544
-0.24569548
-0.24752893
-0.24943214
-0.25133565
-0.25318333
-0.25493829
-0.25658576
-0.25813308
-0.25960762
-0.26105063
-0.26251274
-0.26405642
-0.26574194
-0.26762621
-0.26976978
-0.27224106
-0.27512048
-0.27850681
-0.28251007
-0.28728257
-0.29294086
-0.2997385
-0.30767161
-0.31714658
-0.32739006
-0.33860785
-0.3478495
-0.35802658
-0.35829499
-0.35637888
-0.31910922
-0.27731544
-0.15541642
-0.23812609
-0.23814255
-0.2381623
-0.23818306
-0.23820579
-0.23823087
-0.23825841
-0.23828855
-0.23832144
-0.23835722
-0.238396
-0.23843789
-0.23848295
-0.23853123
-0.23858278
-0.23863761
-0.2386958
-0.23875754
-0.23882322
-0.23889368
-0.23897058
-0.23905689
-0.23915792
-0.23928271
-0.23944605
-0.23967111
-0.23999148
-0.24045089
-0.24109781
-0.2419742
-0.2431018
-0.24447259
-0.24604869
-0.2477708
-0.24957058
-0.25138244
-0.25315246
-0.25484447
-0.25644304
-0.25795389
-0.25940215
-0.26082663
-0.2622763
-0.26381159
-0.26549185
-0.26737573
-0.26952691
-0.27201803
-0.27493504
-0.27838436
-0.28248534
-0.28740223
-0.29326389
-0.30034824
-0.30866166
-0.31865123
-0.32951608
-0.34129543
-0.3512025
-0.36218615
-0.36343915
-0.36215559
-0.32616383
-0.28601256
-0.16593398
-0.23943006
-0.23944316
-0.23945876
-0.23947538
-0.23949363
-0.23951378
-0.23953595
-0.23956027
-0.23958686
-0.23961584
-0.23964733
-0.2396814
-0.23971813
-0.23975756
-0.23979973
-0.23984466
-0.23989243
-0.23994318
-0.23999728
-0.24005546
-0.24011918
-0.24019106
-0.24027579
-0.24038134
-0.2405208
-0.24071474
-0.24099324
-0.241396
-0.241968
-0.24274985
-0.24376519
-0.2450112
-0.2464571
-0.24805092
-0.24973065
-0.25143527
-0.25311365
-0.25473053
-0.25626987
-0.25773551
-0.25914985
-0.26054889
-0.26197894
-0.26349767
-0.26516343
-0.2670356
-0.26918022
-0.27167363
-0.27460691
-0.27809314
-0.28226009
-0.28728273
-0.29330223
-0.30062087
-0.30926188
-0.31971384
-0.3311087
-0.34335026
-0.35377668
-0.36537972
-0.36740968
-0.36642551
-0.33138173
-0.29231924
-0.17428807
-0.24083244
-0.24084189
-0.24085313
-0.24086519
-0.24087846
-0.24089317
-0.24090941
-0.24092727
-0.24094688
-0.24096833
-0.24099171
-0.24101712
-0.2410446
-0.2410742
-0.24110597
-0.24113994
-0.24117617
-0.24121481
-0.24125618
-0.24130094
-0.24135035
-0.2414067
-0.24147404
-0.24155926
-0.24167368
-0.24183513
-0.24206993
-0.24241334
-0.24290632
-0.24358751
-0.24448204
-0.24559226
-0.24689497
-0.24834631
-0.24989143
-0.2514747
-0.25304832
-0.25457832
-0.25604811
-0.25745954
-0.25883193
-0.26019812
-0.26160106
-0.26309479
-0.26473611
-0.26658489
-0.26870803
-0.27118479
-0.27411111
-0.27760575
-0.28180336
-0.28688807
-0.29301327
-0.30050988
-0.30938518
-0.32021718
-0.3319772
-0.3445577
-0.35544179
-0.36741361
-0.36988748
-0.36851573
-0.33396753
-0.29462809
-0.18083242
-0.24227308
-0.24227865
-0.24228531
-0.24229249
-0.24230046
-0.24230935
-0.24231923
-0.24233019
-0.24234232
-0.24235569
-0.24237038
-0.24238647
-0.242404
-0.24242304
-0.24244362
-0.2424658
-0.24248964
-0.2425153
-0.24254309
-0.24257358
-0.24260789
-0.24264798
-0.24269732
-0.24276173
-0.24285078
-0.24297955
-0.24317049
-0.24345417
-0.24386709
-0.24444522
-0.24521455
-0.2461822
-0.24733263
-0.24863062
-0.2500292
-0.25147888
-0.25293578
-0.25436766
-0.25575763
-0.25710555
-0.25842752
-0.25975285
-0.26112078
-0.26258056
-0.26418726
-0.26600055
-0.26808734
-0.27052896
-0.27342407
-0.27689624
-0.28108675
-0.28618676
-0.29236441
-0.29993768
-0.30905188
-0.32016267
-0.33187195
-0.34457967
-0.35577409
-0.36799665
-0.37040125
-0.3677774
-0.33359379
-0.29121364
-0.1829241
-0.24368721
-0.24368879
-0.24369073
-0.2436929
-0.24369539
-0.24369828
-0.24370159
-0.24370541
-0.24370978
-0.24371476
-0.24372042
-0.24372681
-0.24373399
-0.243742
-0.24375092
-0.24376078
-0.24377171
-0.24378384
-0.2437975
-0.24381323
-0.24383201
-0.24385554
-0.24388674
-0.24393047
-0.24399463
-0.24409166
-0.24424021
-0.24446607
-0.24480092
-0.24527746
-0.24592165
-0.24674458
-0.24773803
-0.24887559
-0.25011869
-0.25142465
-0.25275417
-0.25407728
-0.25537715
-0.25665184
-0.25791422
-0.25918994
-0.26051425
-0.26193092
-0.2634927
-0.26525828
-0.26729338
-0.26968114
-0.27252244
-0.27594203
-0.28008513
-0.28514607
-0.29129117
-0.29898289
-0.30830407
-0.31938877
-0.33060632
-0.34335407
-0.35493613
-0.36682244
-0.36841676
-0.3639689
-0.32809047
-0.28344324
-0.18166117
-0.24501098
-0.24500861
-0.24500587
-0.24500307
-0.24500012
-0.24499702
-0.24499379
-0.24499046
-0.24498707
-0.24498364
-0.24498022
-0.24497686
-0.24497359
-0.24497048
-0.24496758
-0.24496499
-0.24496281
-0.24496124
-0.24496059
-0.2449614
-0.24496454
-0.24497152
-0.24498478
-0.24500832
-0.24504855
-0.24511549
-0.24522421
-0.24539584
-0.2456571
-0.24603691
-0.24656016
-0.2472408
-0.24807723
-0.24905153
-0.25013371
-0.25128837
-0.25248143
-0.25368578
-0.25488518
-0.25607632
-0.25726905
-0.25848539
-0.25975649
-0.26112057
-0.26262712
-0.26433305
-0.26630127
-0.26861585
-0.2713806
-0.27471777
-0.27877728
-0.28375996
-0.28986733
-0.29767029
-0.30697678
-0.31762024
-0.32842447
-0.34086721
-0.35258533
-0.36344648
-0.36335183
-0.35625548
-0.31678484
-0.27236745
-0.17577082
-0.24618323
-0.24617712
-0.24616994
-0.24616239
-0.24615425
-0.24614544
-0.24613595
-0.24612577
-0.24611491
-0.24610338
-0.2460912
-0.24607838
-0.24606497
-0.24605101
-0.24603659
-0.24602178
-0.24600675
-0.24599171
-0.24597699
-0.24596312
-0.24595094
-0.24594177
-0.24593771
-0.24594204
-0.24595991
-0.2459992
-0.24607175
-0.24619437
-0.24638881
-0.24667989
-0.24709057
-0.24763613
-0.24831988
-0.24913185
-0.25005059
-0.2510485
-0.25209723
-0.25317319
-0.25426139
-0.25535771
-0.25646949
-0.25761524
-0.25882219
-0.26012354
-0.26156458
-0.26319933
-0.26508738
-0.26730919
-0.26997524
-0.27320148
-0.27713851
-0.28194973
-0.28810841
-0.29585816
-0.3048538
-0.31472672
-0.32532463
-0.33718703
-0.34832913
-0.35736383
-0.35477745
-0.34281053
-0.30268307
-0.25671281
-0.16938317
-0.24715383
-0.24714436
-0.2471332
-0.24712139
-0.24710857
-0.24709459
-0.24707942
-0.24706301
-0.24704534
-0.24702639
-0.24700613
-0.24698457
-0.24696174
-0.24693766
-0.24691241
-0.24688608
-0.24685884
-0.24683092
-0.24680268
-0.24677465
-0.24674764
-0.24672284
-0.24670208
-0.24668808
-0.24668494
-0.24669879
-0.24673869
-0.2468175
-0.24695211
-0.2471643
-0.24747357
-0.24789068
-0.24843122
-0.24908757
-0.24984519
-0.25068448
-0.25158317
-0.25252193
-0.25348787
-0.25447693
-0.25549483
-0.25655699
-0.257687
-0.25891418
-0.26027836
-0.26183023
-0.26362188
-0.2657377
-0.26827909
-0.27135475
-0.27510796
-0.27979806
-0.28587669
-0.29336773
-0.30160655
-0.31092541
-0.32086074
-0.33210684
-0.34178078
-0.34808259
-0.341657
-0.32628128
-0.28591992
-0.23999855
-0.16348698
-0.24788342
-0.24787114
-0.24785665
-0.24784126
-0.2478245
-0.24780616
-0.24778616
-0.24776445
-0.24774095
-0.2477156
-0.24768837
-0.24765921
-0.24762813
-0.24759513
-0.24756027
-0.24752364
-0.24748539
-0.24744577
-0.24740512
-0.24736398
-0.24732311
-0.24728362
-0.2472471
-0.24721586
-0.24719318
-0.24718384
-0.24719466
-0.24723533
-0.24731886
-0.24745891
-0.24768335
-0.24800438
-0.24840419
-0.24890842
-0.24950522
-0.25018375
-0.25092673
-0.25171915
-0.25255076
-0.25341842
-0.25432718
-0.25529027
-0.25632821
-0.25746713
-0.25874211
-0.26019821
-0.26188018
-0.2638716
-0.26626841
-0.26915917
-0.27266709
-0.27729862
-0.28307453
-0.28994929
-0.29748479
-0.30600631
-0.31507876
-0.32490372
-0.33239877
-0.33535169
-0.32519754
-0.30707827
-0.26632125
-0.22709158
-0.1566858
-0.24835828
-0.24834391
-0.2483269
-0.24830881
-0.24828906
-0.24826738
-0.24824368
-0.24821786
-0.24818982
-0.24815946
-0.2481267
-0.24809148
-0.24805374
-0.24801348
-0.2479707
-0.24792548
-0.24787793
-0.24782828
-0.24777684
-0.2477241
-0.24767078
-0.24761786
-0.24756676
-0.24751941
-0.24747849
-0.24744771
-0.24743216
-0.24743878
-0.24747711
-0.24756475
-0.24768972
-0.24787691
-0.24817879
-0.24856145
-0.24900876
-0.24953168
-0.25011726
-0.25075564
-0.25144048
-0.25217095
-0.25295286
-0.25379862
-0.25472673
-0.25576075
-0.25693132
-0.25827684
-0.25983402
-0.26168212
-0.26390692
-0.26654099
-0.26988447
-0.2741988
-0.27950459
-0.2855989
-0.29227361
-0.29984071
-0.30745744
-0.31584273
-0.32108112
-0.31975509
-0.30641823
-0.28717824
-0.24889067
-0.21304604
-0.15161247
-0.24857149
-0.24855585
-0.24853732
-0.24851758
-0.24849598
-0.24847221
-0.24844616
-0.24841771
-0.24838671
-0.24835303
-0.24831656
-0.24827719
-0.24823482
-0.2481894
-0.24814088
-0.24808929
-0.24803469
-0.24797723
-0.24791716
-0.24785488
-0.24779098
-0.2477263
-0.247662
-0.24759965
-0.24754138
-0.24748998
-0.24744914
-0.2474238
-0.24742021
-0.24744592
-0.24752036
-0.24765891
-0.24783969
-0.24804627
-0.24835039
-0.24872705
-0.24915505
-0.24963182
-0.25015662
-0.25073229
-0.25136711
-0.25207429
-0.25287177
-0.25378099
-0.25482924
-0.25604459
-0.2574574
-0.2591393
-0.26114862
-0.26351044
-0.26663707
-0.27041363
-0.27503079
-0.28020021
-0.28558675
-0.29209676
-0.29891458
-0.30551765
-0.30645501
-0.30208162
-0.28765812
-0.26781602
-0.23379156
-0.20127483
-0.14624786
-0.24855366
-0.24853763
-0.2485186
-0.24849829
-0.24847602
-0.24845148
-0.24842452
-0.24839499
-0.24836273
-0.24832758
-0.24828937
-0.24824797
-0.24820323
-0.24815504
-0.24810331
-0.24804799
-0.24798906
-0.24792658
-0.24786071
-0.24779172
-0.24772003
-0.24764629
-0.24757138
-0.24749655
-0.24742339
-0.24735401
-0.24729107
-0.24723799
-0.24719919
-0.2471801
-0.24719134
-0.24721851
-0.2473019
-0.24746277
-0.24760753
-0.24779982
-0.2480643
-0.24836638
-0.24871389
-0.24911403
-0.24957837
-0.25012227
-0.25076453
-0.2515251
-0.25242796
-0.25348715
-0.25472721
-0.25620153
-0.25791215
-0.26002197
-0.26264124
-0.26592964
-0.26946184
-0.27321688
-0.27815857
-0.28411159
-0.28918787
-0.29220529
-0.29069224
-0.28501579
-0.26856897
-0.25182762
-0.21956198
-0.19024617
-0.14135771
-0.24833209
-0.24831651
-0.24829788
-0.24827812
-0.24825643
-0.24823245
-0.24820606
-0.24817707
-0.24814532
-0.24811061
-0.24807275
-0.24803156
-0.24798687
-0.24793849
-0.24788629
-0.24783011
-0.24776987
-0.24770551
-0.24763702
-0.24756452
-0.24748819
-0.24740841
-0.2473257
-0.24724081
-0.24715474
-0.24706877
-0.24698447
-0.24690373
-0.24682892
-0.24676288
-0.24671031
-0.24667338
-0.24665142
-0.24667898
-0.24673449
-0.24678437
-0.24686277
-0.24698212
-0.24713648
-0.24734025
-0.24760958
-0.24796325
-0.24842245
-0.24900621
-0.24973228
-0.25059947
-0.2516278
-0.25285437
-0.25423841
-0.2560017
-0.25794596
-0.2601043
-0.26265564
-0.26647321
-0.2708131
-0.27500326
-0.27765389
-0.27841532
-0.27573862
-0.26752847
-0.25371024
-0.23651027
-0.20700353
-0.18052471
-0.13652543
-0.24796292
-0.24794854
-0.24793126
-0.24791302
-0.24789297
-0.24787076
-0.24784626
-0.24781928
-0.24778964
-0.24775714
-0.24772156
-0.24768271
-0.24764036
-0.24759431
-0.24754434
-0.24749023
-0.24743181
-0.2473689
-0.24730135
-0.24722906
-0.247152
-0.2470702
-0.24698379
-0.246893
-0.24679815
-0.24669964
-0.24659795
-0.24649353
-0.24638687
-0.24627855
-0.24616953
-0.24606121
-0.2459539
-0.24585079
-0.24576512
-0.24567437
-0.24558733
-0.24551465
-0.24546366
-0.24545265
-0.24550368
-0.24563974
-0.24588587
-0.24625922
-0.24676473
-0.24739269
-0.24815654
-0.24904425
-0.25016154
-0.25115279
-0.25215839
-0.25405356
-0.25675482
-0.2596447
-0.26241205
-0.2651369
-0.26587798
-0.26545319
-0.26086442
-0.25332713
-0.23890718
-0.22283183
-0.19542897
-0.1714159
-0.13185293
-0.24749569
-0.24748314
-0.24746795
-0.24745203
-0.24743448
-0.24741501
-0.24739348
-0.24736971
-0.24734353
-0.24731472
-0.24728309
-0.2472484
-0.24721043
-0.24716894
-0.24712366
-0.24707435
-0.24702073
-0.24696253
-0.24689946
-0.24683125
-0.24675761
-0.24667826
-0.2465929
-0.24650119
-0.24640273
-0.246297
-0.24618323
-0.24606036
-0.24592694
-0.24578114
-0.24562097
-0.24544454
-0.24525069
-0.24503898
-0.244809
-0.2445621
-0.24429785
-0.24402525
-0.24375718
-0.24351524
-0.24332701
-0.24321813
-0.2432179
-0.24333644
-0.24355832
-0.24388528
-0.24427982
-0.24478303
-0.24500676
-0.24535505
-0.24692375
-0.24884122
-0.25037513
-0.25225982
-0.2540253
-0.25496852
-0.25458055
-0.2529022
-0.24739253
-0.23943081
-0.22571291
-0.21018403
-0.18484984
-0.1631185
-0.12729132
-0.24698188
-0.24697158
-0.24695903
-0.24694595
-0.24693153
-0.24691549
-0.24689771
-0.24687803
-0.2468563
-0.24683232
-0.2468059
-0.24677682
-0.24674484
-0.24670974
-0.24667123
-0.24662903
-0.24658282
-0.24653225
-0.24647695
-0.24641649
-0.24635037
-0.24627802
-0.24619873
-0.24611164
-0.24601562
-0.24590916
-0.24579025
-0.24565619
-0.2455034
-0.24532741
-0.24512293
-0.24488431
-0.24460775
-0.2442891
-0.24392599
-0.24351903
-0.24307149
-0.24259328
-0.24210035
-0.24161659
-0.2411728
-0.24079186
-0.24050621
-0.24029618
-0.24015127
-0.24006888
-0.23999036
-0.2395222
-0.2397202
-0.24085453
-0.24192107
-0.24280206
-0.24414396
-0.2448492
-0.24518938
-0.24526136
-0.24379208
-0.24060051
-0.23487967
-0.22681644
-0.21324096
-0.1985332
-0.17506445
-0.1553328
-0.12280357
-0.24646418
-0.24645641
-0.2464469
-0.24643704
-0.24642615
-0.246414
-0.24640051
-0.24638555
-0.24636898
-0.24635063
-0.24633035
-0.24630794
-0.2462832
-0.24625589
-0.24622577
-0.24619255
-0.2461559
-0.24611544
-0.24607074
-0.24602126
-0.24596636
-0.24590525
-0.24583688
-0.24575993
-0.2456726
-0.24557253
-0.24545649
-0.24532022
-0.24515809
-0.24496304
-0.24472678
-0.24443687
-0.24408457
-0.24366868
-0.24317887
-0.24261774
-0.24199023
-0.24130839
-0.24059
-0.23985911
-0.23914334
-0.23844998
-0.23780432
-0.23717955
-0.23655164
-0.23589013
-0.23500371
-0.2351657
-0.23601789
-0.2362107
-0.23678568
-0.23745603
-0.23722325
-0.23708562
-0.23690255
-0.23565737
-0.23281722
-0.22944331
-0.22308367
-0.21478504
-0.20169141
-0.1877331
-0.16597002
-0.14807311
-0.11839497
-0.24596577
-0.24596078
-0.24595467
-0.24594832
-0.24594128
-0.24593341
-0.24592465
-0.24591491
-0.24590407
-0.24589203
-0.24587866
-0.24586381
-0.24584731
-0.24582899
-0.24580861
-0.24578592
-0.24576061
-0.2457323
-0.24570053
-0.24566471
-0.24562411
-0.24557774
-0.24552431
-0.24546211
-0.24538881
-0.24530126
-0.24519521
-0.24506496
-0.24490307
-0.24470082
-0.24444007
-0.24411357
-0.24371855
-0.24322772
-0.24263061
-0.24193457
-0.24114344
-0.24027173
-0.23933499
-0.23835248
-0.23734012
-0.23627513
-0.23519682
-0.23403668
-0.23278392
-0.2318111
-0.23168554
-0.23210898
-0.23191758
-0.23210755
-0.23187252
-0.23091212
-0.23046246
-0.2298854
-0.22829145
-0.22586697
-0.22286525
-0.21859948
-0.21186189
-0.20355001
-0.19083114
-0.17764619
-0.15744312
-0.14118761
-0.11402264
-0.24551134
-0.24550949
-0.2455072
-0.2455048
-0.24550211
-0.24549906
-0.24549561
-0.24549173
-0.24548734
-0.24548239
-0.24547678
-0.24547042
-0.24546319
-0.24545495
-0.24544549
-0.24543461
-0.24542201
-0.24540733
-0.24539007
-0.24536963
-0.24534516
-0.24531555
-0.24527932
-0.24523445
-0.2451782
-0.24510687
-0.24501546
-0.24489727
-0.24474352
-0.24454296
-0.24428115
-0.24394128
-0.24351014
-0.24296644
-0.24229855
-0.24150477
-0.24058418
-0.23954707
-0.23840303
-0.23716289
-0.23580718
-0.23425017
-0.23270616
-0.23119198
-0.23017084
-0.22963556
-0.22924161
-0.22890941
-0.22855373
-0.22750181
-0.22574069
-0.22511013
-0.22410189
-0.2220494
-0.21947487
-0.21685097
-0.21298913
-0.20825195
-0.20122667
-0.19288931
-0.18062841
-0.16819468
-0.14940943
-0.13464656
-0.10968859
-0.24511581
-0.24511757
-0.24511969
-0.24512183
-0.2451241
-0.24512655
-0.24512916
-0.24513193
-0.24513483
-0.24513783
-0.24514091
-0.24514398
-0.24514698
-0.24514998
-0.24515262
-0.24515452
-0.24515559
-0.24515545
-0.24515358
-0.2451493
-0.2451417
-0.24512955
-0.24511124
-0.24508454
-0.2450465
-0.24499313
-0.24491913
-0.24481749
-0.24467908
-0.24449047
-0.24423531
-0.24389646
-0.2434557
-0.24289485
-0.24219535
-0.24135147
-0.24035374
-0.2391938
-0.23784113
-0.23630372
-0.2345684
-0.23278268
-0.23117277
-0.22998751
-0.22906709
-0.22795925
-0.22717352
-0.22610711
-0.22446956
-0.22236149
-0.2216742
-0.21936314
-0.21689251
-0.21408221
-0.21124017
-0.20781986
-0.20348451
-0.19829896
-0.19105967
-0.18279847
-0.17097921
-0.15927567
-0.14178654
-0.12837435
-0.1053711
-0.24485292
-0.24485867
-0.24486562
-0.24487273
-0.24488045
-0.24488888
-0.24489805
-0.24490796
-0.24491864
-0.24493009
-0.24494225
-0.24495512
-0.24496932
-0.24498409
-0.24499788
-0.24501176
-0.24502619
-0.24503995
-0.24505245
-0.24506293
-0.24507037
-0.2450734
-0.24507026
-0.2450586
-0.24503529
-0.24499627
-0.24493602
-0.24484778
-0.24472323
-0.24454736
-0.24430466
-0.24398974
-0.24358337
-0.24302468
-0.24230922
-0.24146615
-0.24041598
-0.23912721
-0.23762176
-0.23601825
-0.23430367
-0.23269712
-0.23120733
-0.22974532
-0.22826705
-0.22672106
-0.22489553
-0.22261223
-0.22019304
-0.21853239
-0.21597547
-0.21312674
-0.20963903
-0.20651283
-0.20293659
-0.19903523
-0.19422205
-0.18870123
-0.18133669
-0.17317992
-0.16181863
-0.15082149
-0.13451516
-0.12233519
-0.10106862
-0.24480543
-0.24481478
-0.2448259
-0.24483756
-0.24485023
-0.24486408
-0.24487915
-0.24489547
-0.24491309
-0.244932
-0.24495222
-0.2449737
-0.24499634
-0.24501986
-0.24504418
-0.24506921
-0.24509435
-0.24511909
-0.24514274
-0.2451644
-0.24518293
-0.24519686
-0.24520435
-0.245203
-0.24518982
-0.24516052
-0.24510898
-0.24503916
-0.24495425
-0.24482154
-0.24460907
-0.24429962
-0.2438681
-0.24333675
-0.24270594
-0.24187975
-0.24090756
-0.23971392
-0.23826451
-0.23675183
-0.23518401
-0.2335078
-0.23168464
-0.2297819
-0.22758904
-0.22492556
-0.22201402
-0.21917737
-0.21665916
-0.21331738
-0.20935608
-0.20613204
-0.20251363
-0.19878766
-0.19475803
-0.19038257
-0.18519757
-0.17942032
-0.17198586
-0.16398391
-0.15307666
-0.14275849
-0.12753681
-0.11648236
-0.096767121
-0.24517677
-0.24518806
-0.24520138
-0.24521549
-0.24523083
-0.2452476
-0.24526585
-0.24528561
-0.24530694
-0.24532986
-0.24535435
-0.24538036
-0.2454078
-0.2454365
-0.24546624
-0.24549669
-0.24552742
-0.24555788
-0.24558735
-0.24561492
-0.24563948
-0.24565967
-0.24567376
-0.24567969
-0.24567518
-0.24565693
-0.24561607
-0.24554452
-0.24545201
-0.24531095
-0.24509727
-0.2448636
-0.24457205
-0.2441453
-0.24358597
-0.2428397
-0.24194331
-0.24090521
-0.23965591
-0.2381639
-0.23648056
-0.23452872
-0.2322202
-0.22948509
-0.22618404
-0.22254111
-0.21933587
-0.21602113
-0.21165824
-0.20705489
-0.2033432
-0.19950059
-0.1953203
-0.19113042
-0.18663603
-0.18187081
-0.17637631
-0.1704115
-0.16296527
-0.15514785
-0.14469453
-0.13502966
-0.12080433
-0.11078411
-0.092461224
-0.24602325
-0.24603427
-0.24604726
-0.24606103
-0.246076
-0.24609236
-0.24611015
-0.24612943
-0.24615021
-0.24617253
-0.24619636
-0.24622164
-0.24624827
-0.24627608
-0.24630482
-0.24633417
-0.24636369
-0.24639281
-0.24642083
-0.24644689
-0.24646993
-0.24648871
-0.24650172
-0.24650719
-0.24650296
-0.24648657
-0.24645443
-0.24640244
-0.24631874
-0.24623448
-0.24613238
-0.2459143
-0.24559779
-0.24523577
-0.24476619
-0.24413921
-0.24334283
-0.24234904
-0.24109649
-0.2395565
-0.23763146
-0.23516141
-0.23205058
-0.2283632
-0.22396524
-0.22009125
-0.21592819
-0.21112332
-0.20583924
-0.2016013
-0.19714346
-0.1926663
-0.18808522
-0.18344871
-0.17856331
-0.17346556
-0.16772675
-0.16163622
-0.15422275
-0.14662046
-0.13661703
-0.12757958
-0.1142741
-0.10520813
-0.088140324
-0.24738283
-0.2473916
-0.24740194
-0.2474129
-0.24742479
-0.24743778
-0.24745189
-0.24746715
-0.24748357
-0.24750115
-0.24751985
-0.2475396
-0.24756027
-0.24758168
-0.24760356
-0.24762558
-0.24764727
-0.24766806
-0.24768724
-0.24770393
-0.24771711
-0.24772558
-0.24772789
-0.24772185
-0.24770508
-0.24768815
-0.24766397
-0.24764116
-0.24759043
-0.24744064
-0.24726644
-0.24710038
-0.24684933
-0.24650099
-0.24604009
-0.24543002
-0.24464665
-0.24364788
-0.24233489
-0.24055318
-0.23812019
-0.23491366
-0.2309359
-0.22618943
-0.22177846
-0.21713536
-0.21132911
-0.20561482
-0.20078969
-0.19572058
-0.19072251
-0.18579178
-0.18077814
-0.17574779
-0.17051749
-0.1651448
-0.15921772
-0.15305464
-0.14571564
-0.13835205
-0.12879503
-0.12036149
-0.10790889
-0.099728449
-0.083797923
-0.24916519
-0.24917101
-0.24917785
-0.24918506
-0.24919286
-0.24920133
-0.24921047
-0.24922028
-0.24923073
-0.24924178
-0.24925336
-0.24926535
-0.24927756
-0.24928976
-0.24930162
-0.24931273
-0.24932253
-0.24933035
-0.24933535
-0.24933654
-0.24933273
-0.24932214
-0.24930263
-0.24927979
-0.24925652
-0.24922856
-0.24915919
-0.24902864
-0.24890333
-0.24877368
-0.24858693
-0.24834732
-0.24803665
-0.24764582
-0.24715314
-0.24652675
-0.24571628
-0.24461725
-0.24304882
-0.24078967
-0.23768487
-0.233682
-0.228789
-0.22396325
-0.21900487
-0.2126079
-0.20662767
-0.20098208
-0.19525919
-0.18968404
-0.18421204
-0.17879956
-0.17338733
-0.16800217
-0.16247516
-0.15687917
-0.15081609
-0.14462911
-0.13740045
-0.1302972
-0.12118317
-0.11333202
-0.10167476
-0.094321319
-0.079425175
-0.25130099
-0.25130463
-0.25130887
-0.25131326
-0.25131791
-0.25132285
-0.25132803
-0.2513334
-0.25133887
-0.25134433
-0.25134961
-0.25135449
-0.25135868
-0.2513618
-0.25136334
-0.25136267
-0.25135901
-0.25135137
-0.25133857
-0.25131916
-0.25129107
-0.25125246
-0.25120803
-0.25115234
-0.25106513
-0.25094105
-0.2508009
-0.25064361
-0.25045064
-0.25021897
-0.24993884
-0.24960993
-0.2492253
-0.24876914
-0.24821951
-0.24752391
-0.24657487
-0.24519034
-0.24313365
-0.24021382
-0.2363524
-0.23149748
-0.22650095
-0.22128754
-0.21463291
-0.20802807
-0.20190644
-0.19559286
-0.1894511
-0.18341505
-0.17747502
-0.17165205
-0.16587937
-0.160185
-0.15440901
-0.14864005
-0.14248956
-0.13632259
-0.12923763
-0.12241369
-0.11374056
-0.10645292
-0.095542092
-0.088966418
-0.075015327
-0.25384608
-0.25384866
-0.25385158
-0.25385447
-0.25385738
-0.25386025
-0.25386298
-0.25386545
-0.25386749
-0.25386885
-0.25386926
-0.25386831
-0.25386553
-0.25386029
-0.2538518
-0.25383909
-0.25382096
-0.25379593
-0.25376221
-0.25371769
-0.25366002
-0.25358654
-0.2534939
-0.2533719
-0.25322254
-0.25304903
-0.25284039
-0.25259195
-0.25229987
-0.25196464
-0.25158724
-0.25116261
-0.25068367
-0.25013357
-0.24946432
-0.24857259
-0.24728283
-0.24536542
-0.24261809
-0.23894047
-0.23425583
-0.2292032
-0.22385717
-0.21703145
-0.21008235
-0.20350501
-0.19674427
-0.19002064
-0.18339399
-0.17689199
-0.17053261
-0.16432897
-0.15823065
-0.15226973
-0.14629094
-0.14039669
-0.13420492
-0.1280992
-0.12118898
-0.11466219
-0.10642948
-0.099689037
-0.089483991
-0.083644684
-0.070563276
-0.25707428
-0.25707583
-0.25707745
-0.25707884
-0.25707994
-0.25708064
-0.25708077
-0.25708008
-0.2570783
-0.25707505
-0.25706986
-0.25706214
-0.25705117
-0.25703599
-0.25701549
-0.25698828
-0.25695265
-0.25690658
-0.25684763
-0.25677298
-0.25667934
-0.25656291
-0.25641968
-0.25624523
-0.25603545
-0.25578533
-0.2554907
-0.25515007
-0.25476368
-0.25432965
-0.25384654
-0.25331176
-0.25270904
-0.25199301
-0.25106713
-0.24976933
-0.24788651
-0.24522363
-0.24167046
-0.23714072
-0.23207626
-0.22667096
-0.2197974
-0.21260902
-0.20568135
-0.1984776
-0.19125861
-0.18407687
-0.1770007
-0.17008056
-0.16333252
-0.15678924
-0.1504072
-0.1442248
-0.13808998
-0.13211771
-0.12592942
-0.11992414
-0.11321869
-0.10700622
-0.099215839
-0.093008853
-0.083476837
-0.078341161
-0.066062664
-0.2613451
-0.26134425
-0.26134295
-0.26134109
-0.26133847
-0.26133486
-0.26132998
-0.26132349
-0.26131496
-0.26130383
-0.26128945
-0.26127097
-0.26124738
-0.26121742
-0.26117959
-0.26113206
-0.26107263
-0.26099871
-0.26090729
-0.26079487
-0.26065751
-0.26049084
-0.2602901
-0.26005023
-0.25976675
-0.25943631
-0.25905608
-0.25862332
-0.25813659
-0.25759516
-0.25699339
-0.25631269
-0.25550656
-0.25448232
-0.25309105
-0.25113985
-0.24844783
-0.24490963
-0.24043622
-0.23532305
-0.22983376
-0.22296617
-0.21558915
-0.20835675
-0.20079196
-0.19311624
-0.185422
-0.17778044
-0.17026827
-0.16294678
-0.15584386
-0.14899986
-0.14237597
-0.13601768
-0.12977415
-0.12377077
-0.11763015
-0.11176358
-0.10529275
-0.099411657
-0.092068154
-0.086382409
-0.077499113
-0.073035911
-0.061510893
-0.26701744
-0.26701216
-0.26700551
-0.26699779
-0.26698856
-0.26697744
-0.26696402
-0.26694781
-0.26692818
-0.26690439
-0.26687552
-0.26684045
-0.26679786
-0.26674611
-0.26668329
-0.26660711
-0.26651487
-0.26640346
-0.26626927
-0.26610822
-0.26591578
-0.26568725
-0.26541798
-0.26510346
-0.26473913
-0.26432087
-0.26384568
-0.26331099
-0.26271246
-0.26203999
-0.26126932
-0.26034936
-0.25918751
-0.2576434
-0.25554244
-0.25271815
-0.24907451
-0.24453178
-0.23926968
-0.23362429
-0.22671917
-0.21916425
-0.21159974
-0.20368494
-0.1955757
-0.18737726
-0.1791798
-0.17107577
-0.16314124
-0.15544653
-0.1480235
-0.14091977
-0.13409923
-0.12761299
-0.12130964
-0.11532295
-0.10927468
-0.10358504
-0.097379258
-0.09184712
-0.084958278
-0.079782925
-0.071532188
-0.06771225
-0.056915405
-0.2744549
-0.27444286
-0.27442808
-0.27441154
-0.27439243
-0.27437017
-0.27434419
-0.27431381
-0.27427818
-0.27423633
-0.27418705
-0.27412892
-0.27406023
-0.273979
-0.27388286
-0.27376907
-0.27363444
-0.27347539
-0.27328798
-0.27306785
-0.27281039
-0.2725107
-0.27216375
-0.27176481
-0.27130949
-0.27079342
-0.27021135
-0.26955493
-0.26880807
-0.26793913
-0.26688986
-0.26556454
-0.26382587
-0.2615117
-0.25846818
-0.25460216
-0.24986015
-0.24433989
-0.23839791
-0.2313256
-0.22350342
-0.2155447
-0.20723619
-0.19867045
-0.1899571
-0.18119357
-0.17248117
-0.16391468
-0.15557348
-0.14753256
-0.13982665
-0.13250721
-0.12553814
-0.11897436
-0.11266226
-0.10674141
-0.10083115
-0.095357224
-0.089448217
-0.084283498
-0.077861005
-0.073186544
-0.065561812
-0.062367613
-0.052228146
-0.28406034
-0.28403899
-0.2840131
-0.28398455
-0.28395212
-0.28391495
-0.28387227
-0.28382316
-0.28376653
-0.28370112
-0.28362543
-0.2835377
-0.28343589
-0.28331767
-0.28318036
-0.28302086
-0.28283566
-0.28262084
-0.28237204
-0.28208464
-0.28175373
-0.28137423
-0.2809409
-0.2804481
-0.27988928
-0.27925554
-0.27853288
-0.27769733
-0.2767076
-0.27549591
-0.27396049
-0.27196472
-0.26935316
-0.26598615
-0.26176665
-0.25666315
-0.25075661
-0.24438933
-0.23700688
-0.22878542
-0.22034911
-0.21156869
-0.20248142
-0.19320397
-0.18383467
-0.1744803
-0.1652431
-0.15622164
-0.1474964
-0.13914404
-0.13119879
-0.12371319
-0.11664901
-0.11006257
-0.10379631
-0.097992983
-0.092268543