/*--------------------------------*- C++ -*----------------------------------*\
  =========                 |
  \\      /  F ield         | OpenFOAM: The Open Source CFD Toolbox
   \\    /   O peration     | Website:  https://openfoam.org
    \\  /    A nd           | Version:  13
     \\/     M anipulation  |
\*---------------------------------------------------------------------------*/
FoamFile
{
    format      ascii;
    class       volVectorField;
    location    "20.397652";
    object      wallShearStress;
}
// * * * * * * * * * * * * * * * * * * * * * * * * * * * * * * * * * * * * * //

dimensions      [0 2 -2 0 0 0 0];

internalField   uniform (0 0 0);

boundaryField
{
    inlet
    {
        type            calculated;
        value           uniform (0 0 0);
    }
    outlet
    {
        type            calculated;
        value           uniform (0 0 0);
    }
    cylinder
    {
        type            calculated;
        value           nonuniform List<vector> 
132
(
(3.350816e-05 -0.0015966022 -2.2056254e-22)
(0.00011549172 -0.0025509903 6.2809476e-23)
(0.00025038877 -0.003476672 3.4705067e-21)
(0.00043445407 -0.0043491236 -1.1657475e-20)
(0.00066190545 -0.0051435812 8.2410702e-21)
(0.00092408143 -0.0058356279 2.5229417e-20)
(0.0012095145 -0.0064023722 -4.7909642e-21)
(0.0015039641 -0.0068237301 -1.9026385e-20)
(0.0017915497 -0.0070835589 1.7976992e-20)
(0.0020550106 -0.0071711785 -4.0398061e-20)
(0.0022767267 -0.0070824371 -7.3655355e-22)
(0.0024401686 -0.006821165 2.5181754e-20)
(0.0025313204 -0.0063996621 4.1100653e-20)
(0.0025410328 -0.0058407865 -3.3386925e-20)
(0.00246484 -0.0051731753 3.5131575e-20)
(0.0023063197 -0.00443503 5.6465189e-20)
(0.0020756929 -0.0036673389 -3.6925667e-20)
(0.0017898376 -0.0029114565 5.9082934e-20)
(0.0014718286 -0.0022078552 7.7897688e-20)
(0.0011456784 -0.0015866622 -5.0379569e-20)
(0.00083702779 -0.0010709054 -6.4022742e-20)
(0.00056779647 -0.00067119999 2.247457e-23)
(0.00036135252 -0.00039431095 9.2370452e-21)
(0.00024144605 -0.0002421019 -1.1032254e-20)
(0.00024717352 -0.00022613774 -1.8724297e-20)
(0.00041831456 -0.00034995595 3.996121e-21)
(0.00079464265 -0.00060924246 -3.6014977e-20)
(0.0013498305 -0.00094666587 9.6132021e-21)
(0.001987836 -0.0012694574 7.5474746e-21)
(0.0025926519 -0.0014983971 -5.2004852e-20)
(0.0030618395 -0.0015889741 6.7888556e-20)
(0.0033885914 -0.0015634158 2.0541758e-21)
(0.0036357248 -0.0014724864 1.4790573e-20)
(0.0038472183 -0.0013456726 -1.7495868e-20)
(0.0039666553 -0.0011725519 5.5487534e-20)
(0.0038575198 -0.00093470879 -3.5028919e-21)
(0.0033551366 -0.00063701639 1.4107757e-20)
(0.0022598304 -0.00031452933 -1.9350646e-21)
(0.00036207088 -4.5016718e-05 2.7759962e-21)
(-0.0025807907 4.5767522e-05 -1.7333659e-21)
(-0.0069253073 -0.00023530405 3.2461766e-21)
(-0.012720459 -0.001189011 -1.0063884e-22)
(-0.019550518 -0.0030145056 3.7142859e-20)
(-0.026993546 -0.0058373444 -1.4416278e-20)
(-0.034485997 -0.0096586007 1.310419e-20)
(-0.04157195 -0.014391928 -8.4772937e-20)
(-0.047745634 -0.01982404 -1.375182e-20)
(-0.052701494 -0.025703493 1.2132381e-19)
(-0.056229223 -0.031750645 -1.0378245e-19)
(-0.058241222 -0.037686134 -1.983843e-21)
(-0.058732254 -0.043238589 3.1586516e-20)
(-0.057810553 -0.048193192 -2.861258e-20)
(-0.055572389 -0.052316959 -5.5306182e-21)
(-0.052200359 -0.055447906 -3.3837118e-21)
(-0.047930288 -0.057495617 -4.2489151e-21)
(-0.042938924 -0.058327068 -4.1406685e-21)
(-0.037468975 -0.057910094 6.5819278e-22)
(-0.031742475 -0.056222914 5.0889761e-20)
(-0.025982729 -0.053287023 -7.6381609e-20)
(-0.020402118 -0.049156122 -8.0788666e-20)
(-0.015198533 -0.043915732 -3.2633046e-20)
(-0.010550834 -0.037680078 -7.4600139e-20)
(-0.0066151916 -0.030589659 1.6617567e-20)
(-0.0035193708 -0.022805891 2.4159976e-20)
(-0.0013672085 -0.014523949 -3.7541721e-20)
(-0.00021487921 -0.0058952089 -5.0165798e-21)
(3.3749749e-06 -0.00062804009 -1.0148481e-21)
(2.6190412e-05 0.00034953449 -6.0498745e-23)
(0.00010219802 0.0013226078 -3.4770161e-21)
(0.00023188796 0.0022672782 1.1678901e-20)
(0.00041080269 0.00315813 -8.2627067e-21)
(0.0006323122 0.0039697643 -2.5320394e-20)
(0.00088679833 0.0046773377 4.8140311e-21)
(0.0011617759 0.005257949 1.9145609e-20)
(0.0014421102 0.0056919054 -1.8120827e-20)
(0.0017113477 0.0059641891 4.0802497e-20)
(0.0019518314 0.0060656614 7.4557048e-22)
(0.0021463927 0.0059950812 -2.5555069e-20)
(0.0022795031 0.0057590726 -4.1823037e-20)
(0.0023395852 0.005374481 3.4071446e-20)
(0.0023199772 0.0048664087 -3.5958817e-20)
(0.0022197445 0.004266215 -5.797005e-20)
(0.0020472809 0.0036150865 3.8023047e-20)
(0.0018161605 0.0029527143 -6.1016965e-20)
(0.0015470212 0.0023193318 -8.0669658e-20)
(0.0012634208 0.0017483519 5.2306864e-20)
(0.0009902226 0.001265427 6.6627856e-20)
(0.00075019207 0.00088511266 5.9623847e-20)
(0.00056965389 0.00061966143 4.8937531e-20)
(0.00047458366 0.00047462549 1.1546988e-20)
(0.00050878387 0.00046637307 1.9627979e-20)
(0.00070266117 0.00058982715 -4.1951109e-21)
(0.0010824475 0.00083205637 3.7857873e-20)
(0.0016035846 0.0011266571 -1.0116734e-20)
(0.0021616601 0.0013820754 -7.9486464e-21)
(0.0026661435 0.0015420072 5.4789587e-20)
(0.0030474462 0.0015821215 -7.152888e-20)
(0.0033290933 0.0015361747 -2.1519616e-21)
(0.00356007 0.0014419753 3.5473049e-20)
(0.0037396679 0.0013084416 1.8459506e-20)
(0.0037771385 0.0011173402 -5.8600707e-20)
(0.0035272645 0.00085608355 3.7031974e-21)
(0.0028212291 0.00053812956 1.0886471e-20)
(0.0014523732 0.00020765507 2.0487207e-21)
(-0.0007794512 -4.3810441e-05 -2.9387551e-21)
(-0.0040990807 -8.3418355e-05 1.8331588e-21)
(-0.0088488894 0.00029976071 -3.424763e-21)
(-0.015010379 0.0013988705 2.7873497e-20)
(-0.022072071 0.0033993801 -3.8769593e-20)
(-0.029603332 0.0063979958 1.49386e-20)
(-0.037049987 0.010373136 -1.3467397e-20)
(-0.043922789 0.015202826 8.6329615e-20)
(-0.049791059 0.02066955 1.3874232e-20)
(-0.0543855 0.026521028 -1.2115022e-19)
(-0.057512306 0.032471584 1.024958e-19)
(-0.059133906 0.038260334 1.9339506e-21)
(-0.059241199 0.043609975 -3.0293343e-20)
(-0.057984526 0.04833502 2.6823474e-20)
(-0.055433829 0.052183164 -4.0157719e-20)
(-0.051803681 0.055023335 2.7830072e-21)
(-0.04733865 0.056782431 -2.5048098e-21)
(-0.042185624 0.057299978 6.383915e-21)
(-0.036611744 0.056580949 -7.8053039e-22)
(-0.030827634 0.054597552 -5.6474405e-20)
(-0.025056286 0.051380991 8.2156418e-20)
(-0.019506624 0.046990904 8.5268208e-20)
(-0.014371972 0.041517142 3.3991788e-20)
(-0.009826894 0.035079866 7.6928929e-20)
(-0.006021766 0.027821881 -1.6996231e-20)
(-0.0030787963 0.019910315 4.8661052e-20)
(-0.0010952748 0.011531284 3.788141e-20)
(-0.00012603708 0.0028824596 5.034501e-21)
)
;
    }
    frontAndBack
    {
        type            empty;
    }
}


// ************************************************************************* //
