/*--------------------------------*- C++ -*----------------------------------*\
  =========                 |
  \\      /  F ield         | OpenFOAM: The Open Source CFD Toolbox
   \\    /   O peration     | Website:  https://openfoam.org
    \\  /    A nd           | Version:  13
     \\/     M anipulation  |
\*---------------------------------------------------------------------------*/
FoamFile
{
    format      ascii;
    class       volScalarField;
    location    "35.003073";
    object      omega;
}
// * * * * * * * * * * * * * * * * * * * * * * * * * * * * * * * * * * * * * //

dimensions      [0 0 -1 0 0 0 0];

internalField   nonuniform List<scalar> 
17140
(
3736295.3
603677.93
185335.26
78621.655
40006.325
22786.767
13994.045
9063.8617
6105.5259
4237.5677
3010.652
2179.2253
1601.4311
1191.5253
895.70306
679.1244
518.62103
398.43143
307.6205
238.47143
185.45722
144.5676
112.85962
88.152127
68.814903
53.621119
41.643138
32.1783
24.695582
18.796177
14.181968
10.626597
7.9468856
5.9789982
4.5679291
3.5721432
2.8736005
2.3826645
2.0358645
1.7900712
1.6164968
1.4959557
1.4155204
1.3678403
1.3466459
1.3422694
1.3542598
1.3808816
1.4199559
1.4701056
1.5307293
1.6019062
1.6839676
1.7760829
1.8757118
1.9810299
2.0907917
2.2000283
2.3017387
2.3913038
2.4856123
2.6384474
2.8985831
3.1261735
3.0877315
3736320.9
603682.55
185336.96
78622.53
40006.849
22787.114
13994.29
9064.0431
6105.6649
4237.677
3010.7396
2179.2966
1601.4897
1191.5739
895.74362
679.15837
518.64956
398.45548
307.64086
238.48881
185.47228
144.58097
112.87191
88.163948
68.826836
53.633695
41.65678
32.193252
24.711812
18.813302
14.199237
10.643017
7.9615165
5.9912566
4.5777035
3.5796739
2.8792764
2.3868674
2.0389167
1.7922127
1.617902
1.4967317
1.4157359
1.3675239
1.3459214
1.3411669
1.3527015
1.3788306
1.4173191
1.4666964
1.5262244
1.5957911
1.6754807
1.7642218
1.8592619
1.9582946
2.0600623
2.1615591
2.2608182
2.3623083
2.4965484
2.7454043
3.1787373
3.4577445
3.3620293
3736345.9
603686.66
185338.24
78623.072
40007.129
22787.276
13994.392
9064.1121
6105.7145
4237.7149
3010.7703
2179.3229
1601.5134
1191.5962
895.76529
679.18008
518.67177
398.47853
307.66503
238.51435
185.49939
144.60987
112.90281
88.197055
68.862309
53.671615
41.697071
32.235564
24.755391
18.856883
14.241076
10.681164
7.9943382
6.0179479
4.598434
3.5952906
2.8908723
2.395449
2.045258
1.7968871
1.621319
1.4992005
1.4174873
1.3687179
1.3467672
1.3418067
1.3532271
1.3793457
1.4179031
1.467391
1.5270182
1.5965971
1.6760968
1.7643194
1.858349
1.9558766
2.0565155
2.1600825
2.2673995
2.388979
2.5782989
2.9754411
3.5584455
3.7480895
3.4750849
3736372.1
603690.93
185339.56
78623.639
40007.42
22787.446
13994.502
9064.1876
6105.7706
4237.7596
3010.8083
2179.3572
1601.546
1191.6284
895.79817
679.2143
518.70788
398.51698
307.70619
238.55852
185.54686
144.66085
112.95749
88.255565
68.924677
53.737708
41.766488
32.307491
24.828434
18.928946
14.309422
10.742831
8.0469205
6.0603702
4.6311557
3.6198132
2.9089888
2.408795
2.0551396
1.8042751
1.62692
1.5035298
1.420936
1.3715892
1.3493455
1.3443762
1.3560622
1.3826935
1.4220158
1.4725319
1.5334644
1.6046387
1.6860041
1.7762253
1.8721944
1.9719031
2.0763533
2.1889676
2.3165819
2.4796984
2.7555548
3.3035603
3.9070264
3.8590674
3.4340855
3736400.1
603695.47
185340.96
78624.233
40007.725
22787.625
13994.618
9064.2702
6105.834
4237.8119
3010.8547
2179.4007
1601.5887
1191.6719
895.84351
679.26231
518.75921
398.57215
307.76563
238.6226
185.61587
144.73502
113.03698
88.340413
69.014783
53.832728
41.86571
32.409661
24.931548
19.030109
14.404934
10.828737
8.1200297
6.1192789
4.6765252
3.6537283
2.9340045
2.4272397
2.0688614
1.8146442
1.6349336
1.5099254
1.4262847
1.3763509
1.3538397
1.3491086
1.3614944
1.3892338
1.4301367
1.4827848
1.5465161
1.6213178
1.7072626
1.8028303
1.9045917
2.0113049
2.127146
2.2620713
2.4258001
2.6412295
3.0010146
3.6860008
4.0895344
3.887079
2.9679715
3736429.1
603700.15
185342.4
78624.847
40008.044
22787.814
13994.742
9064.3596
6105.9042
4237.8716
3010.9089
2179.4529
1601.6412
1191.7263
895.90091
679.3237
518.82532
398.64358
307.84287
238.70606
185.70585
144.83175
113.14057
88.450841
69.131809
53.955815
41.993871
32.541251
25.06403
19.159876
14.527407
10.939003
8.2140744
6.195266
4.7352087
3.6977079
2.9665193
2.4512837
2.0868307
1.8283296
1.6456475
1.5186476
1.4337936
1.3833316
1.3604603
1.356341
1.3699451
1.3995083
1.4429701
1.4990751
1.5674007
1.648272
1.7420158
1.8467529
1.9586812
2.0783171
2.2182306
2.390442
2.5930357
2.853702
3.3079614
4.0485782
4.1820071
3.7916096
2.2765018
3736459.3
603704.98
185343.88
78625.482
40008.377
22788.012
13994.874
9064.4557
6105.9811
4237.9381
3010.9707
2179.5134
1601.7029
1191.7909
895.96971
679.39773
518.90542
398.73042
307.93702
238.80796
185.81586
144.9501
113.26735
88.585957
69.274926
54.106235
42.150366
32.701834
25.225683
19.318337
14.677259
11.074371
8.3300431
6.2894288
4.8082656
3.7526748
3.0072946
2.4815409
2.1095459
1.8457461
1.6594198
1.5300163
1.4437373
1.3927254
1.3698505
1.3665776
1.3820107
1.4142843
1.4615383
1.5227954
1.5980486
1.6881963
1.7938548
1.9123233
2.0397342
2.1819937
2.3615206
2.5771969
2.8120349
3.1180024
3.6936132
4.3476243
4.2518386
3.6465957
1.8398922
3736490.6
603709.98
185345.4
78626.141
40008.722
22788.219
13995.012
9064.5582
6106.0641
4238.0112
3011.0394
2179.5815
1601.773
1191.8647
896.04885
679.48325
518.99824
398.83131
308.04662
238.92679
185.9443
145.08842
113.41564
88.744091
69.442501
54.282432
42.333775
32.890195
25.415577
19.504939
14.854388
11.235219
8.4687281
6.4028142
4.896806
3.8196571
3.0572107
2.5187397
2.1376089
1.8674026
1.6766992
1.5444485
1.4565265
1.4049892
1.3825209
1.3804866
1.3985433
1.4346966
1.487402
1.556145
1.6416274
1.7456667
1.8689113
2.0071972
2.1583238
2.3405993
2.5713173
2.8282366
3.0905841
3.4709816
4.185291
4.6213203
4.3066105
3.0738694
1.4399323
3736522
603715.14
185347
78626.825
40009.079
22788.434
13995.157
9064.6665
6106.1527
4238.0898
3011.1141
2179.6562
1601.8502
1191.9466
896.13691
679.5787
519.10209
398.94442
308.16971
239.06043
186.08896
145.2444
113.58306
88.922833
69.632134
54.482074
42.541898
33.104349
25.632052
19.718464
15.058135
11.421506
8.630668
6.5363746
5.0019662
3.899778
3.1172698
2.5637326
2.1717394
1.8939207
1.6980473
1.562488
1.4727433
1.4208022
1.3991252
1.3989916
1.4207637
1.4624174
1.522926
1.6025564
1.7032283
1.8280454
1.9765132
2.1434333
2.3334454
2.5764422
2.8649388
3.1637771
3.483067
4.0027971
4.7764991
4.8161976
4.2109404
2.2620995
1.0204146
3736555.2
603720.5
185348.65
78627.535
40009.45
22788.658
13995.309
9064.7802
6106.2462
4238.1733
3011.1937
2179.7361
1601.9333
1192.035
896.2321
679.68209
519.2148
399.06739
308.30373
239.20618
186.24697
145.41503
113.76649
89.118998
69.840617
54.701993
42.771689
33.341475
25.872634
19.956932
15.287164
11.632651
8.8160291
6.6908719
5.124846
3.9942252
3.1885876
2.617502
2.2127887
1.9260524
1.7241599
1.5848251
1.4931602
1.4410854
1.4205065
1.4234281
1.45044
1.4999351
1.5717337
1.6674519
1.7910737
1.9466028
2.1301526
2.3403487
2.595604
2.9171397
3.2786977
3.662534
4.1095488
4.8061408
5.3099571
4.9380409
3.484975
1.5305721
0.68513755
3736589.7
603726.07
185350.37
78628.273
40009.836
22788.891
13995.467
9064.8984
6106.3436
4238.2604
3011.2771
2179.8199
1602.0205
1192.1278
896.33231
679.79109
519.33378
399.19739
308.44564
239.36076
186.41483
145.59664
113.9621
89.328618
70.063917
54.938156
43.019205
33.597832
26.133929
20.217473
15.539313
11.867356
9.0244338
6.8667304
5.2664039
4.1041897
3.2723671
2.6811568
2.2617511
1.964701
1.7558915
1.6123054
1.5187603
1.4669328
1.4481244
1.4556314
1.490162
1.5510133
1.6394856
1.7595808
1.918273
2.1172414
2.3505856
2.6304436
2.9865959
3.4229861
3.9271216
4.4841382
5.101967
5.7569128
5.562606
4.6926391
2.1999692
0.88550301
0.45084658
3736625.1
603731.8
185352.14
78629.035
40010.236
22789.131
13995.629
9065.0202
6106.4437
4238.3498
3011.3625
2179.9057
1602.1098
1192.2229
896.43503
679.90292
519.45601
399.33111
308.59184
239.52029
186.5884
145.78481
114.16526
89.5469
70.297117
55.185598
43.279524
33.868666
26.411506
20.496168
15.811403
12.123397
9.2547368
7.0638298
5.4272946
4.2307604
3.369844
2.7559152
2.3197712
2.0109496
1.7943093
1.6460476
1.5508164
1.4998897
1.4839883
1.4982975
1.5438137
1.6214828
1.7352816
1.8933134
2.103987
2.3628052
2.6761499
3.0773661
3.6011734
4.2454101
5.0295395
5.8205819
6.401594
6.2145557
5.4374002
2.9620497
1.1596654
0.55040129
0.32572833
3736662.3
603737.8
185353.99
78629.826
40010.649
22789.38
13995.797
9065.145
6106.5457
4238.4403
3011.4485
2179.9917
1602.1991
1192.3179
896.53759
680.01461
519.57816
399.46491
308.73834
239.68043
186.76301
145.97458
114.3707
89.768308
70.534477
55.438446
43.546739
34.148161
26.699803
20.787925
16.099063
12.397393
9.5047618
7.2812405
5.607642
4.3747604
3.4821891
2.8430606
2.388142
2.066092
1.8407584
1.6875414
1.591036
1.5421141
1.530989
1.5554746
1.6173876
1.7206709
1.8742689
2.0910904
2.3735536
2.7252589
3.1858572
3.813798
4.6412459
5.6313585
6.8113106
7.2157152
6.9634224
6.0680879
3.4708209
1.4298708
0.65280215
0.37748007
0.2579987
3736699.8
603743.93
185355.88
78630.64
40011.076
22789.635
13995.967
9065.2711
6106.6479
4238.5302
3011.5331
2180.0759
1602.2861
1192.4101
896.63697
680.12277
519.6965
399.59468
308.88065
239.83632
186.93341
146.16029
114.57241
89.986509
70.769381
55.689869
43.813895
34.42936
26.992029
21.08633
16.396532
12.68456
9.7710017
7.5168975
5.8067342
4.5365061
3.6103484
2.943858
2.4682832
2.131664
1.8969415
1.7387741
1.6418375
1.5966669
1.5934618
1.6334351
1.7204655
1.8640984
2.0816508
2.3821711
2.7702755
3.2946296
4.0417873
5.0897366
6.3890449
7.7600353
8.0025377
7.6557307
6.4888834
3.617986
1.5803842
0.75326225
0.42052417
0.29414256
0.22151731
3736738.4
603750.24
185357.83
78631.483
40011.515
22789.896
13996.141
9065.398
6106.7491
4238.6179
3011.6147
2180.1561
1602.3683
1192.4968
896.73017
680.22406
519.8073
399.71626
309.0142
239.98292
187.09409
146.336
114.76399
90.194657
70.994586
55.932283
44.073148
34.704273
27.280204
21.383626
16.696562
12.978515
10.048333
7.7672449
6.0226497
4.7154796
3.7548042
3.0594138
2.5616919
2.2094777
1.965044
1.802504
1.7068631
1.6678967
1.6782408
1.7423143
1.8690614
2.078534
2.3925649
2.8110459
3.3925973
4.259089
5.55024
7.2758533
8.6416969
8.7652318
8.2691431
6.7344461
3.4092874
1.5999276
0.80299277
0.46753324
0.31432375
0.2495604
0.19264019
3736780.4
603757
185359.89
78632.36
40011.968
22790.165
13996.317
9065.5248
6106.8484
4238.7022
3011.6915
2180.2303
1602.4434
1192.5753
896.81401
680.3149
519.90655
399.82522
309.13406
240.11484
187.23916
146.49529
114.93851
90.38532
71.20217
56.157314
44.315736
34.963842
27.555108
21.670629
16.990279
13.271074
10.329723
8.0268501
6.2518213
4.9099111
3.9152429
3.190464
2.6698606
2.3016678
2.0478991
1.8825885
1.7912512
1.7632794
1.7963558
1.8993448
2.0914105
2.4083848
2.8560515
3.4837581
4.4561154
5.9769347
8.1502725
9.4662768
9.4611074
8.7800733
6.7437191
3.2394837
1.5822576
0.83183851
0.49621392
0.34264144
0.26187018
0.21458145
0.1713467
3736824.8
603764.02
185362.03
78633.272
40012.439
22790.441
13996.496
9065.6506
6106.9445
4238.7814
3011.7617
2180.2966
1602.5091
1192.643
896.88557
680.39197
519.99053
399.91737
309.23558
240.22689
187.3629
146.63187
115.08908
90.551011
71.384051
56.356304
44.532461
35.198399
27.806704
21.937085
17.267451
13.552378
10.606184
8.2881855
6.4886657
5.1163374
4.0901537
3.3371026
2.7941866
2.4108196
2.1493921
1.9847901
1.9030294
1.8954172
1.9669299
2.135761
2.4404666
2.9195345
3.588513
4.6482622
6.3848067
8.9653683
10.226201
10.127295
9.2642241
6.7276959
3.2153466
1.5911381
0.86000613
0.5247395
0.36501714
0.2836741
0.22869032
0.18943866
0.15349109
3736869.6
603771.2
185364.24
78634.213
40012.922
22790.721
13996.675
9065.774
6107.036
4238.8543
3011.8238
2180.353
1602.5633
1192.6974
896.94211
680.4522
520.05576
399.98881
309.31439
240.3142
187.45988
146.73973
115.20907
90.684463
71.532298
56.520651
44.714061
35.398051
28.024532
22.172081
17.516888
13.811251
10.867002
8.5416624
6.7253783
5.3292371
4.2764435
3.4985203
2.9359592
2.5403462
2.2755258
2.118191
2.0557388
2.0864009
2.2253432
2.5121544
3.0137868
3.7429004
4.8753175
6.8078749
9.7786674
10.991419
10.800119
9.788231
6.8610686
3.2566803
1.628704
0.89669194
0.55750071
0.39029816
0.3024282
0.24450609
0.19760254
0.17085326
0.14154578
3736913.9
603778.52
185366.5
78635.173
40013.414
22791.006
13996.853
9065.8939
6107.1216
4238.9191
3011.8759
2180.3974
1602.6035
1192.7358
896.98058
680.49212
520.09836
400.03519
309.36563
240.37137
187.52412
146.81226
115.29124
90.777722
71.638235
56.640936
44.850363
35.551876
28.196951
22.363317
17.725774
14.03464
11.099392
8.7752718
6.9516297
5.5407349
4.469173
3.6728985
3.0965778
2.695182
2.4356425
2.2978698
2.2753675
2.3765204
2.6419247
3.151611
3.9641716
5.1945936
7.2954314
10.61832
11.805622
11.524442
10.376427
7.1339717
3.3809711
1.7014232
0.94798285
0.59744431
0.42098275
0.32502673
0.25635311
0.20959318
0.17716061
0.1530488
0.12880341
3736961
603786.16
185368.85
78636.17
40013.923
22791.296
13997.032
9066.0103
6107.2008
4238.975
3011.9168
2180.4285
1602.6281
1192.7562
896.99852
680.5089
520.11508
400.05281
309.38507
240.39362
187.55023
146.84342
115.32882
90.82332
71.693671
56.708225
44.931647
35.649363
28.312689
22.498828
17.881532
14.209456
11.289904
8.9759751
7.1555592
5.7412479
4.6620484
3.8580418
3.2787039
2.8839507
2.6462723
2.5533683
2.6092939
2.8475614
3.3627148
4.2617481
5.6302602
7.9263567
11.49944
12.655656
12.327041
11.043581
7.5104942
3.5717758
1.808253
1.0154123
0.64565725
0.45869479
0.35074589
0.27169236
0.21966674
0.18599182
0.1592875
0.14053674
0.12022308
3737011.6
603794.23
185371.31
78637.206
40014.447
22791.591
13997.21
9066.1222
6107.2724
4239.0207
3011.9449
2180.4443
1602.6349
1192.7562
896.99329
680.49959
520.1026
400.03797
309.36862
240.37635
187.53302
146.82732
115.31506
90.813419
71.689488
56.712073
44.94635
35.678084
28.358763
22.565392
17.970791
14.322099
11.425026
9.1306656
7.3252771
5.9212127
4.849335
4.0537342
3.4896687
3.124512
2.9410358
2.9431488
3.1531268
3.6755236
4.6641325
6.1971186
8.7005254
12.413473
13.549732
13.177433
11.773752
7.9878537
3.8199339
1.9461829
1.0999409
0.70274215
0.50233039
0.37935573
0.29052298
0.2336384
0.19505923
0.16788285
0.14521221
0.12980368
0.11337879
3737062.3
603802.42
185373.82
78638.27
40014.983
22791.89
13997.386
9066.2284
6107.3354
4239.055
3011.9591
2180.4435
1602.6224
1192.7341
896.96301
680.46212
520.05869
399.98826
309.31373
240.31694
187.4699
146.76149
115.24779
90.746293
71.624459
56.651478
44.892911
35.634972
28.329579
22.554175
17.982233
14.360952
11.494068
9.2294176
7.4522798
6.0750327
5.0305584
4.2677175
3.7498366
3.4568216
3.391627
3.5790624
4.1200268
5.201996
6.914217
9.6232445
13.393721
14.4966
14.08161
12.5666
8.5592473
4.1238052
2.1141947
1.2024879
0.77060442
0.55197209
0.41195044
0.31344622
0.25109518
0.20712671
0.17558751
0.15169484
0.13388684
0.12111734
0.10652939
3737113.2
603810.78
185376.4
78639.359
40015.529
22792.191
13997.56
9066.3287
6107.3892
4239.0773
3011.9585
2180.4252
1602.5895
1192.6887
896.90633
680.395
519.98172
399.9019
309.21845
240.2133
187.3586
146.6435
115.12442
90.619242
71.495938
56.524251
44.770344
35.521046
28.228841
22.471591
17.922832
14.32972
11.496548
9.2724493
7.5388128
6.2093621
5.2206001
4.5289417
4.1114209
3.9716344
4.1403189
4.7158847
5.9146798
7.8141929
10.692207
14.449158
15.508031
15.047511
13.418329
9.2078254
4.4824017
2.3137572
1.3227447
0.85229427
0.6089542
0.448709
0.34081961
0.2718943
0.22182425
0.18504278
0.15893619
0.14061919
0.12467494
0.11305505
0.10175531
3737167.7
603819.6
185379.1
78640.491
40016.095
22792.499
13997.734
9066.4237
6107.4342
4239.0877
3011.9431
2180.3893
1602.5362
1192.62
896.82333
680.29842
519.87201
399.77942
309.08356
240.06647
187.20051
146.47513
114.94714
90.434964
71.307158
56.334181
44.582988
35.341257
28.062327
22.324857
17.803039
14.244502
11.453836
9.2801952
7.6090408
6.3572011
5.4684831
4.9137033
4.696264
4.8543374
5.4839827
6.8174652
8.9216874
11.907679
15.583936
16.5928
16.082081
14.327676
9.9110049
4.8956566
2.5484689
1.4622432
0.9463039
0.67083796
0.48891061
0.37216363
0.29631429
0.23890696
0.19726193
0.16809806
0.14701412
0.130277
0.11731524
0.10857168
0.098051709
3737225.4
603828.82
185381.92
78641.671
40016.679
22792.815
13997.908
9066.5146
6107.4717
4239.0877
3011.9149
2180.3381
1602.4652
1192.5311
896.7176
680.17655
519.73439
399.62637
308.91541
239.88372
187.0039
146.26576
114.7266
90.205426
71.071541
56.096266
44.347551
35.114187
27.850724
22.137089
17.648767
14.134691
11.400916
9.2983522
7.7227499
6.5994914
5.8884665
5.5893688
5.7443844
6.4452762
7.9334916
10.244092
13.277632
16.810089
17.759272
17.192596
15.297096
10.652482
5.3717773
2.8254107
1.6264897
1.0532071
0.73883849
0.53565244
0.40968986
0.32485705
0.25925796
0.21241409
0.17946056
0.15466795
0.13643259
0.12265833
0.11158734
0.10285664
0.094123142
3737283.9
603838.25
185384.81
78642.889
40017.281
22793.138
13998.084
9066.6045
6107.5057
4239.0823
3011.8794
2180.2781
1602.384
1192.4306
896.59902
680.04056
519.58149
399.45695
308.72994
239.68284
186.78857
146.03735
114.48705
89.957358
70.818445
55.842662
44.099181
34.878211
27.635939
21.954184
17.510674
14.056604
11.403596
9.4170035
7.9998788
7.0974977
6.7018431
6.8529124
7.6278321
9.2725686
11.78029
14.834324
18.154255
19.018141
18.387951
16.330179
11.427874
5.9366898
3.1702691
1.8238844
1.1692737
0.81269743
0.5894718
0.45281594
0.35599396
0.28208638
0.23035367
0.19278774
0.16432348
0.14356578
0.12810732
0.11599584
0.10612839
0.099183935
0.091903009
3737344.3
603848.04
185387.81
78644.149
40017.905
22793.474
13998.268
9066.6998
6107.5436
4239.0801
3011.8468
2180.2209
1602.3058
1192.3336
896.4845
679.90951
519.43463
399.29495
308.5536
239.49317
186.58695
145.82565
114.26779
89.733875
70.595082
55.62501
43.894348
34.695131
27.48564
21.850146
17.472385
14.113935
11.598882
9.802581
8.65105
8.1229037
8.2472573
9.075994
10.848378
13.533648
16.626787
19.657694
20.38093
19.676958
17.431576
12.229006
6.5681191
3.5376999
2.0117914
1.2756886
0.88916393
0.65350573
0.50200398
0.39069422
0.30842719
0.25198969
0.20892983
0.1761754
0.15244881
0.13453953
0.1211042
0.11056695
0.10255469
0.096322463
0.089641928
3737407.1
603858.19
185390.93
78645.457
40018.556
22793.829
13998.468
9066.8088
6107.5952
4239.0923
3011.8301
2180.1815
1602.2477
1192.2593
896.39595
679.80805
519.32146
399.17129
308.42081
239.3529
186.44128
145.67724
114.12001
89.591024
70.462516
55.509728
43.805627
34.645571
27.493066
21.940815
17.680408
14.484745
12.193089
10.7058
9.9819247
10.038865
10.866722
12.711526
15.487936
18.706512
21.387759
21.855413
21.06321
18.601066
13.055295
7.2473121
3.9262065
2.2162891
1.4107028
0.99910497
0.73870398
0.56023862
0.42857926
0.33886348
0.27658923
0.22753372
0.1900122
0.16296438
0.14237953
0.12705972
0.11540181
0.10616352
0.098828188
0.092978051
0.087606009
3737471.9
603868.67
185394.15
78646.819
40019.241
22794.209
13998.69
9066.941
6107.6717
4239.1319
3011.8442
2180.177
1602.2291
1192.2299
896.35824
679.76405
519.27309
399.1205
308.36976
239.30414
186.3979
145.64311
114.10012
89.591933
70.493128
55.581684
43.934271
34.85131
27.803233
22.391867
18.323259
15.387081
13.447437
12.43622
12.349191
13.115345
14.941128
17.736443
20.963315
23.429389
23.495558
22.538344
19.822127
13.916826
7.9700755
4.346282
2.4484819
1.5686411
1.115691
0.8165689
0.60913803
0.46629638
0.3722113
0.30480325
0.24860979
0.20680356
0.17570535
0.15206327
0.13433758
0.12082087
0.1103726
0.1022939
0.096004422
0.091313888
0.086547551
3737539.4
603879.61
185397.5
78648.242
40019.964
22794.62
13998.942
9067.1046
6107.7824
4239.21
3011.9018
2180.2219
1602.2669
1192.2646
896.39315
679.80227
519.31762
399.17457
308.43702
239.38886
186.50526
145.77951
114.27357
89.812544
70.773802
55.939361
44.391547
35.438749
28.562242
23.37739
19.607985
17.06764
15.647772
15.306843
15.940602
17.640041
20.345787
23.526441
25.66831
25.378537
24.151296
20.982122
14.828889
8.7409718
4.7999281
2.7045607
1.7390831
1.2360948
0.90137196
0.67642655
0.52508657
0.42063374
0.33838183
0.2737115
0.22628218
0.1910287
0.16328806
0.1429636
0.12723238
0.11546057
0.1063866
0.099226335
0.093728958
0.089200674
0.085072042
3737610.3
603891
185400.99
78649.73
40020.727
22795.064
13999.225
9067.3001
6107.9283
4239.328
3012.0049
2180.3191
1602.3645
1192.3679
896.50668
679.93046
519.46504
399.34621
308.63858
239.62706
186.78817
146.11701
114.67797
90.299458
71.363347
56.658076
45.274148
36.530463
29.921792
25.081065
21.752968
19.773769
19.05309
19.459568
20.902393
23.394714
26.365514
28.1176
27.579764
25.94208
22.144825
15.802833
9.5520181
5.2737799
2.9789433
1.9229963
1.3689732
1.0027554
0.75849407
0.58799072
0.46191844
0.36566648
0.29702029
0.24815109
0.20811305
0.17690967
0.15312174
0.13526349
0.12156738
0.1110895
0.10282272
0.096567933
0.091486114
0.087599322
0.084263096
3737682.9
603902.71
185404.61
78651.274
40021.527
22795.536
13999.535
9067.5239
6108.1055
4239.4814
3012.1489
2180.4636
1602.5174
1192.5356
896.69539
680.14634
519.71477
399.63729
308.9797
240.02854
187.26253
146.67964
115.34808
91.101611
72.328434
57.82512
46.692837
38.263672
32.048148
27.69669
24.969527
23.708435
23.784022
24.808244
26.952021
29.520325
30.728564
29.911741
27.854915
23.367387
16.823106
10.371326
5.7588003
3.2784618
2.1297375
1.5199087
1.1178676
0.84740547
0.65261555
0.50896676
0.4056562
0.33445506
0.27814421
0.2309375
0.19321721
0.16599539
0.14464179
0.12892479
0.11644076
0.10717789
0.099899462
0.094198034
0.089876372
0.086527192
0.083410873
3737758.4
603914.96
185408.37
78652.883
40022.368
22796.041
13999.877
9067.7804
6108.3189
4239.6761
3012.3408
2180.6643
1602.736
1192.7806
896.97499
680.46912
520.09028
400.07649
309.49549
240.63637
187.98113
147.53217
116.36306
92.314161
73.782412
59.574708
48.80444
40.817231
35.136075
31.417843
29.413789
28.928419
29.52279
31.023715
33.059863
33.460538
32.378368
29.785729
24.663591
17.854272
11.164258
6.2587472
3.6067808
2.3593839
1.6847792
1.2415172
0.94325407
0.72696741
0.56884734
0.45553823
0.37183243
0.30369932
0.24929455
0.21010925
0.17947228
0.15597247
0.13726158
0.12329883
0.11230818
0.10402072
0.097293882
0.092454257
0.088440771
0.085188457
0.082587076
3737836.4
603927.56
185412.25
78654.562
40023.258
22796.591
14000.264
9068.088
6108.5904
4239.938
3012.6108
2180.9559
1603.0605
1193.1487
897.39753
680.95792
520.65864
400.73982
310.27204
241.54803
189.05444
148.79931
117.86335
94.095312
75.901801
62.100152
51.813288
44.392936
39.357012
36.335893
35.019332
35.084294
35.872901
36.903813
36.317292
34.833514
31.543829
25.887554
18.809302
11.903295
6.7866216
3.9843105
2.6225108
1.866446
1.3792715
1.0529273
0.81530491
0.63914257
0.50887331
0.41009665
0.33368965
0.27822917
0.23592607
0.20043551
0.17033109
0.14851624
0.1312851
0.11875316
0.10859526
0.10114556
0.095199436
0.090660569
0.086952565
0.084466557
0.08216813
3737916.9
603940.59
185416.29
78656.329
40024.221
22797.21
14000.725
9068.4773
6108.9557
4240.3081
3013.0061
2181.3921
1603.5517
1193.7085
898.04025
681.69933
521.51667
401.73544
311.43011
242.89838
190.63304
150.64959
120.03755
96.655595
78.91078
65.611856
55.899665
49.107801
44.712257
42.260553
41.306784
41.24449
40.897015
39.556128
37.238951
33.279373
27.141511
19.766858
12.678209
7.4106738
4.4404843
2.9181003
2.0596366
1.5274426
1.1753437
0.91305828
0.71624971
0.56802229
0.45645776
0.37339265
0.31163671
0.26088077
0.21705341
0.18442025
0.1590321
0.14077961
0.12566942
0.11452029
0.10547114
0.098805913
0.093231501
0.089352605
0.086151128
0.08366277
0.081455707
3738001.3
603954.25
185420.54
78658.211
40025.273
22797.916
14001.279
9068.9731
6109.4438
4240.8204
3013.5655
2182.0175
1604.2605
1194.518
898.96894
682.76791
522.74892
403.1593
313.07886
244.81206
192.85961
153.24405
123.05896
100.1578
82.939453
70.203441
61.062002
54.815118
50.858867
48.584068
47.11804
45.32951
42.872304
39.82414
35.051535
28.367612
20.689075
13.468721
8.0885935
4.9212207
3.2125646
2.2571196
1.6920732
1.3154805
1.0261264
0.80518557
0.63967946
0.5136741
0.41884189
0.3458243
0.2864435
0.24028127
0.2056364
0.17746997
0.1535989
0.13595079
0.12149003
0.11122664
0.10272712
0.096634762
0.091739183
0.088098526
0.084923495
0.082890584
0.081077125
3738088.5
603968.41
185424.98
78660.208
40026.42
22798.721
14001.945
9069.5955
6110.0781
4241.5018
3014.3201
2182.8674
1605.2267
1195.6218
900.2334
684.21894
524.41615
405.07688
315.28588
247.35211
195.77949
156.59335
126.88746
104.51297
87.8589
75.67415
66.978799
60.931617
56.698076
53.31659
50.038953
46.621943
42.580882
36.883311
29.631741
21.696939
14.389549
8.8851114
5.4824494
3.567933
2.5102173
1.8986124
1.4794869
1.1525908
0.90586934
0.72023219
0.57857758
0.46868804
0.38460248
0.31933408
0.26962466
0.22945904
0.19367277
0.16585523
0.14466039
0.1295945
0.11699959
0.10796093
0.10036722
0.094956057
0.090188126
0.087009381
0.084380163
0.082518977
0.080666721
3738178.6
603983.08
185429.59
78662.318
40027.668
22799.63
14002.726
9070.3512
6110.866
4242.3603
3015.2784
2183.9509
1606.4593
1197.0283
901.84
686.05405
526.51095
407.46521
318.00362
250.43559
199.26226
160.49944
131.22196
109.24936
92.925648
80.953936
72.167224
65.541148
60.177337
55.40638
50.801178
45.527494
38.8851
31.080724
22.900598
15.474821
9.7845352
6.1005348
3.9597147
2.7830487
2.105756
1.6387796
1.2832372
1.0185851
0.81499705
0.65439287
0.52993934
0.43292636
0.35907634
0.30122539
0.25309403
0.21364445
0.18372522
0.16067874
0.1408769
0.12653472
0.11414793
0.10558862
0.098289987
0.093210821
0.089119008
0.086257469
0.08347502
0.081856165
0.080246851
3738271.2
603998.25
185434.4
78664.547
40029.019
22800.643
14003.62
9071.234
6111.7984
4243.3833
3016.4233
2185.245
1607.9287
1198.6992
903.73979
688.21161
528.95611
410.22753
321.10982
253.90499
203.09958
164.68411
135.6932
113.88666
97.523754
85.203148
75.755154
68.192058
61.691542
55.579282
48.895894
41.250159
32.849336
24.367687
16.748552
10.811291
6.8213117
4.4390025
3.1185649
2.3547616
1.8366266
1.4538371
1.1634048
0.92994326
0.74374314
0.59993207
0.48954451
0.40270127
0.33577825
0.28180906
0.2395444
0.20596144
0.17609325
0.15223707
0.13407679
0.12137249
0.11040956
0.10297938
0.096475921
0.092029315
0.087937333
0.085225109
0.083027729
0.081573039
0.08003997
3738367.1
604011.15
185437.03
78665.056
40029.11
22800.724
14003.817
9071.5938
6112.3431
4244.1274
3017.3802
2186.4286
1609.3548
1200.3853
905.70496
690.47516
531.53591
413.13683
324.35242
257.46844
206.94589
168.73835
139.83129
117.92526
101.21751
88.257467
77.853946
69.107165
61.039326
52.78908
44.065139
35.008529
26.156336
18.2729
12.034829
7.7035825
5.0317808
3.5120188
2.6276927
2.0479466
1.6316594
1.3092247
1.0461277
0.83969228
0.68085954
0.55574412
0.45691841
0.3781401
0.31753298
0.26898002
0.22845554
0.19422694
0.16771754
0.14814109
0.13128345
0.11923067
0.10853999
0.10131438
0.09491963
0.090630221
0.087073571
0.084772665
0.082461829
0.081021993
0.079701381
3739014.3
604121.84
185474.35
78682.812
40039.27
22807.323
14008.54
9075.2567
6115.3883
4246.8171
3019.882
2188.8571
1611.793
1202.8958
908.33583
693.26246
534.5031
416.29211
327.6838
260.93669
210.47612
172.21167
143.07942
120.7327
103.33538
89.459171
77.85747
67.379371
57.319631
47.343048
37.49112
28.15149
19.921586
13.34572
8.6591579
5.6745649
3.9310258
2.9197134
2.2828244
1.8343475
1.4814397
1.1928464
0.96497037
0.78341359
0.63599465
0.51897226
0.42803615
0.3558668
0.30023645
0.25394046
0.21706255
0.18804957
0.16241768
0.14169102
0.12583768
0.11502234
0.10529404
0.099059491
0.093401893
0.089730863
0.086176697
0.083902516
0.081927626
0.080777808
0.079564538
3739013.7
604118.86
185471.98
78681.122
40038.187
22806.691
14008.256
9075.2617
6115.6486
4247.3151
3020.6101
2189.8141
1612.981
1204.3179
909.99304
695.15004
536.60585
418.57846
330.09869
263.39402
212.85205
174.34115
144.76071
121.75166
103.41871
88.193125
74.912661
62.775512
51.335653
40.509586
30.535616
21.847292
14.868611
9.7892061
6.4535388
4.4491257
3.280831
2.5614597
2.0607604
1.6678968
1.3496293
1.0942479
0.88569095
0.71809302
0.58735869
0.4847743
0.40321
0.33710052
0.28585668
0.2437916
0.20885469
0.17879898
0.1551316
0.13825956
0.12361318
0.11330509
0.10393063
0.097835121
0.09219429
0.088524272
0.085442982
0.083535307
0.08164137
0.08040908
0.07938305
3739013.8
604119.01
185472.14
78681.344
40038.476
22807.054
14008.701
9075.7971
6116.284
4248.0598
3021.4734
2190.8042
1614.1037
1205.5746
911.37844
696.64794
538.18499
420.18715
331.65964
264.80049
213.96887
175.00001
144.74394
120.75519
101.1768
84.605079
70.038628
56.859988
44.819446
33.984024
24.624102
17.040114
11.383327
7.5362076
5.1436107
3.7302704
2.8797737
2.3115663
1.8816545
1.5372551
1.2549909
1.020875
0.83219296
0.68189588
0.55964791
0.46102961
0.38329549
0.320993
0.27318134
0.2325214
0.19983447
0.17405007
0.15150597
0.13342481
0.11933754
0.11000597
0.10131947
0.095976692
0.090946793
0.087889078
0.084836297
0.082868777
0.081158572
0.08014341
0.079238607
3739014
604119.11
185472.23
78681.465
40038.635
22807.256
14008.952
9076.1034
6116.6514
4248.494
3021.979
2191.3835
1614.7551
1206.2904
912.14174
697.42965
538.93993
420.84965
332.13797
264.97056
213.66317
174.01667
142.886
117.89396
97.256034
79.679778
64.308189
50.676657
38.652291
28.332089
19.898521
13.460317
8.9385052
6.0348821
4.2950245
3.2709027
2.6189098
2.1430293
1.7608927
1.4414944
1.1750614
0.95801155
0.78134718
0.63835868
0.52515387
0.43613991
0.36538206
0.30750912
0.26274679
0.22516558
0.19417051
0.16742733
0.14597649
0.13097175
0.11779853
0.10881175
0.10035954
0.095141986
0.090125683
0.086948294
0.084178048
0.082614381
0.080975747
0.079939147
0.079086973
3739014.9
604119.21
185472.25
78681.479
40038.655
22807.286
14008.996
9076.1636
6116.7316
4248.5961
3022.103
2191.5262
1614.9082
1206.4382
912.2579
697.47339
538.851
420.54472
331.5101
263.89286
212.00273
171.65029
139.71726
113.88157
92.445658
74.229493
58.495155
44.8727
33.264082
23.717265
16.284758
10.900364
7.3110392
5.099169
3.7953515
2.9953499
2.4410426
2.0091746
1.6529293
1.3571724
1.1127453
0.91029587
0.74584539
0.61424398
0.50715994
0.42035649
0.35148919
0.29573874