/*--------------------------------*- C++ -*----------------------------------*\
  =========                 |
  \\      /  F ield         | OpenFOAM: The Open Source CFD Toolbox
   \\    /   O peration     | Website:  https://openfoam.org
    \\  /    A nd           | Version:  13
     \\/     M anipulation  |
\*---------------------------------------------------------------------------*/
FoamFile
{
    format      ascii;
    class       volScalarField;
    location    "0.1";
    object      rho;
}
// * * * * * * * * * * * * * * * * * * * * * * * * * * * * * * * * * * * * * //

dimensions      [1 -3 0 0 0 0 0];

internalField   nonuniform List<scalar> 
1000
(
0.149398
0.149396
0.149389
0.149378
0.149366
0.149354
0.149344
0.149336
0.149328
0.14932
0.149311
0.149303
0.149293
0.149284
0.149275
0.149266
0.149257
0.149248
0.149239
0.14923
0.149221
0.149212
0.149203
0.149194
0.149185
0.149176
0.149167
0.149158
0.149149
0.14914
0.149131
0.149121
0.149112
0.149103
0.149094
0.149085
0.149076
0.149067
0.149058
0.149049
0.14904
0.149031
0.149022
0.149014
0.149005
0.148997
0.148988
0.14898
0.148972
0.148964
0.148955
0.148947
0.148939
0.14893
0.148922
0.148914
0.148905
0.148897
0.148889
0.148881
0.148873
0.148864
0.148856
0.148849
0.14884
0.148832
0.148825
0.148818
0.148807
0.148799
0.148792
0.148786
0.148768
0.148761
0.148764
0.148762
0.148737
0.148734
0.148744
0.148728
0.148709
0.148716
0.14872
0.148687
0.148679
0.148698
0.14869
0.148645
0.148639
0.148674
0.14867
0.148606
0.148594
0.148641
0.148654
0.148574
0.148544
0.148593
0.148635
0.148558
0.1485
0.148532
0.148596
0.148563
0.148493
0.148506
0.148567
0.148535
0.148455
0.148484
0.148562
0.148486
0.148386
0.148458
0.148561
0.148439
0.148309
0.148414
0.148555
0.148411
0.148234
0.148334
0.148532
0.148432
0.148186
0.148219
0.148473
0.148479
0.14818
0.148103
0.148346
0.148495
0.148278
0.148048
0.148102
0.148403
0.148445
0.148123
0.147982
0.148153
0.148402
0.148341
0.14801
0.147956
0.148228
0.14836
0.148114
0.147911
0.148042
0.148294
0.148211
0.147897
0.147885
0.14818
0.148255
0.147949
0.147803
0.148002
0.148205
0.148036
0.147777
0.147853
0.148126
0.14808
0.147763
0.147739
0.14803
0.1481
0.147784
0.147649
0.147878
0.148081
0.147891
0.147607
0.147647
0.147977
0.148035
0.147683
0.147512
0.147633
0.14796
0.148002
0.147632
0.147456
0.147543
0.147888
0.147941
0.14758
0.147398
0.147452
0.147814
0.147909
0.147603
0.147357
0.147397
0.147745
0.147813
0.147474
0.147306
0.1475
0.147745
0.147605
0.147295
0.14733
0.147642
0.147656
0.147306
0.147218
0.147503
0.147653
0.147375
0.147151
0.147297
0.147588
0.147511
0.147143
0.147092
0.147418
0.147566
0.14728
0.147024
0.147103
0.147452
0.14749
0.147103
0.14694
0.14712
0.147427
0.147386
0.14698
0.146871
0.147132
0.147383
0.147253
0.146876
0.146821
0.147154
0.14733
0.147082
0.146779
0.146803
0.14717
0.14726
0.1469
0.146688
0.146812
0.147156
0.147162
0.146751
0.14661
0.146834
0.147116
0.147019
0.146623
0.14656
0.146888
0.147064
0.146798
0.14651
0.146582
0.146934
0.146956
0.146558
0.146425
0.146688
0.146925
0.146735
0.146392
0.146407
0.146773
0.146857
0.146481
0.146284
0.146464
0.146781
0.14672
0.146301
0.146203
0.146504
0.146743
0.146571
0.146189
0.146129
0.146475
0.146685
0.146482
0.146111
0.146041
0.146365
0.146609
0.146482
0.146062
0.145964
0.14622
0.146521
0.146459
0.146018
0.145901
0.146153
0.14645
0.146363
0.145934
0.145843
0.146156
0.146396
0.146209
0.145831
0.145805
0.146185
0.146338
0.146019
0.145735
0.145803
0.146194
0.146258
0.145844
0.145648
0.14581
0.146169
0.146164
0.145717
0.145569
0.145777
0.146116
0.146092
0.145637
0.145495
0.145668
0.146037
0.146065
0.145618
0.145435
0.145506
0.145922
0.146025
0.145651
0.145382
0.145394
0.145809
0.145951
0.145628
0.145319
0.145332
0.145743
0.145875
0.145524
0.145242
0.145304
0.14571
0.14579
0.145376
0.145158
0.145309
0.145681
0.14568
0.145223
0.145077
0.145328
0.14564
0.145546
0.145096
0.145004
0.145332
0.145586
0.145405
0.144994
0.144955
0.145328
0.145502
0.145553
0.145112
0.144873
0.14479
0.145026
0.145369
0.145462
0.145202
0.144807
0.144712
0.14487
0.145272
0.145363
0.144992
0.14469
0.144627
0.144983
0.145244
0.145159
0.144679
0.144554
0.144706
0.145109
0.145174
0.144736
0.1445
0.144491
0.144918
0.145098
0.144865
0.144456
0.14437
0.144664
0.144978
0.144935
0.144443
0.144299
0.14446
0.144859
0.144901
0.144434
0.144229
0.144319
0.144746
0.144831
0.144401
0.144152
0.144203
0.144637
0.144752
0.144359
0.144073
0.144089
0.144523
0.144669
0.144321
0.143993
0.143981
0.144405
0.14458
0.144275
0.143912
0.143885
0.144297
0.144489
0.144206
0.143826
0.143792
0.144199
0.144399
0.144127
0.143738
0.143692
0.144089
0.144307
0.144074
0.143655
0.14358
0.143926
0.144203
0.144084
0.143595
0.143482
0.143697
0.144069
0.144089
0.143596
0.1434
0.14348
0.143925
0.144024
0.143609
0.143332
0.143325
0.143755
0.143929
0.143618
0.143249
0.143199
0.143593
0.143828
0.143607
0.143159
0.143088
0.14343
0.143704
0.14359
0.143112
0.142974
0.143201
0.1436
0.143592
0.143064
0.142919
0.142954
0.143372
0.143546
0.143232
0.142813
0.142761
0.143101
0.143377
0.143392
0.142885
0.142667
0.142697
0.143161
0.143278
0.143193
0.142708
0.142527
0.142604
0.14308
0.143183
0.142948
0.142533
0.14241
0.142622
0.142999
0.14307
0.14261
0.142324
0.142334
0.142791
0.142949
0.142699
0.142284
0.1422
0.142526
0.1428
0.142743
0.142252
0.142077
0.142268
0.142692
0.142711
0.142191
0.142017
0.142077
0.142517
0.14262
0.142215
0.14193
0.141881
0.142293
0.14252
0.142326
0.141822
0.141743
0.142012
0.142336
0.142379
0.14188
0.141665
0.141682
0.142114
0.142283
0.142071
0.141597
0.141498
0.141747
0.142107
0.142173
0.141716
0.141432
0.141431
0.141855
0.142024
0.141965
0.141418
0.141275
0.141487
0.141813
0.141912
0.141745
0.141256
0.141219
0.141546
0.141655
0.141704
0.141723
0.141223
0.141061
0.141316
0.14149
0.141556
0.141597
0.141137
0.140917
0.140988
0.141336
0.141505
0.141483
0.140916
0.140772
0.140779
0.141181
0.141378
0.14132
0.140746
0.140602
0.140652
0.141103
0.141222
0.141063
0.140579
0.140434
0.140592
0.141015
0.141112
0.140729
0.140357
0.140299
0.140648
0.140918
0.140889
0.140352
0.140184
0.140262
0.140704
0.140826
0.14044
0.140083
0.140038
0.140433
0.140666
0.140497
0.140001
0.139893
0.140153
0.140497
0.140475
0.139944
0.139765
0.139906
0.140332
0.140388
0.139891
0.139654
0.139693
0.140131
0.140267
0.139881
0.139529
0.1395
0.13991
0.140119
0.139898
0.139422
0.13934
0.139655
0.139941
0.139938
0.139398
0.139207
0.139272
0.139704
0.139829
0.13962
0.139136
0.139026
0.139228
0.139604
0.139682
0.139237
0.138927
0.138879
0.139266
0.139508
0.139393
0.13885
0.138737
0.13889
0.139285
0.139363
0.13889
0.138614
0.138612
0.139044
0.139218
0.138941
0.138516
0.138425
0.138741
0.139051
0.138976
0.138427
0.138292
0.138445
0.138852
0.138918
0.138437
0.138181
0.13821
0.13863
0.138786
0.1385
0.138068
0.138071
0.13845
0.138591
0.138637
0.13814
0.137892
0.138
0.138332
0.138429
0.13848
0.138
0.137724
0.137707
0.138099
0.138271
0.138321
0.137833
0.137558
0.137511
0.137893
0.138113
0.13813
0.137595
0.137386
0.137376
0.137801
0.137986
0.137848
0.137321
0.137199
0.137345
0.137762
0.137849
0.137426
0.137107
0.13705
0.137426
0.137668
0.137588
0.137056
0.136908
0.137029
0.137456
0.137555
0.13716
0.136819
0.136758
0.137127
0.13738
0.137326
0.136776
0.136626
0.136738
0.137157
0.137269
0.136961
0.136541
0.136467
0.136785
0.137065
0.137111
0.136611
0.136364
0.136351
0.136775
0.136959
0.136882
0.13634
0.1362
0.136284
0.136724
0.136851
0.136567
0.136135
0.136044
0.136297
0.136658
0.136705
0.13621
0.13597
0.135937
0.136362
0.13658
0.136431
0.135925
0.135809
0.135955
0.136387
0.136475
0.136043
0.135743
0.135686
0.136074
0.136335
0.136248
0.135719
0.135585
0.135703
0.136143
0.136251
0.135863
0.135518
0.135463
0.135845
0.136097
0.13608
0.135542
0.135368
0.135379
0.135831
0.136
0.13585
0.13534
0.135222
0.13533
0.13578
0.135893
0.13553
0.135165
0.135087
0.135404
0.135728
0.135704
0.135171
0.135004
0.135055
0.135517
0.135654
0.135295
0.134933
0.134866
0.13523
0.135516
0.13541
0.134892
0.134766
0.134921
0.135353
0.135419
0.134943
0.134694
0.134689
0.135142
0.135326
0.135021
0.134623
0.134594
0.135024
0.13522
0.134901
0.134529
0.13456
0.135007
0.135122
0.134688
0.134422
0.134562
0.134987
0.135008
0.13451
0.134338
0.134606
0.134938
0.134801
0.134346
0.134322
0.134727
0.134855
0.134459
0.134237
0.13448
0.134775
0.134578
0.134207
0.134286
0.134663
0.134638
0.134207
0.134153
0.134526
0.134641
0.134248
0.134065
0.134356
0.134608
0.134341
0.13401
0.134144
0.134535
0.134486
0.134013
0.133882
0.134156
0.13453
0.134573
0.13409
0.133861
0.133862
0.134341
0.134519
0.134196
0.133833
0.13383
0.134299
0.13447
0.13412
0.133784
0.133821
0.134299
0.134428
0.134024
0.133738
0.133818
0.134296
0.134387
0.133945
0.133698
0.133819
0.134286
0.134346
0.13388
0.133663
0.133836
0.134278
0.134295
0.133809
0.133628
0.133821
0.134259
0.134274
0.13379
0.13361
0.133685
0.13418
0.134297
0.133896
0.133606
0.133633
0.134124
0.134271
0.133901
0.133589
0.133628
0.134116
0.134249
0.133857
0.133564
0.133622
0.134114
0.134231
0.133822
0.133549
0.133655
0.134121
0.134181
0.13374
0.13354
0.133496
0.133943
0.1342
0.134149
0.133646
0.133497
0.133665
0.134132
0.134167
0.133692
0.133509
0.133777
0.13414
0.134039
0.133596
0.133549
0.133976
0.134144
0.133789
0.13352
0.133746
0.134125
0.134005
0.13356
0.133555
0.134019
0.134137
0.133736
0.133506
0.133529
0.134016
0.13418
0.133838
0.133504
0.133448
0.133811
0.134132
0.134123
0.133646
0.133459
0.133542
0.134059
0.134161
0.133755
0.133506
0.133613
0.134008
0.134096
0.133716
0.133459
0.133728
0.134156
0.133984
0.133466
0.13355
0.134083
)
;

boundaryField
{
    sides
    {
        type            calculated;
        value           nonuniform List<scalar> 2(0.134083 0.149398);
    }
    empty
    {
        type            empty;
    }
}


// ************************************************************************* //
