/*--------------------------------*- C++ -*----------------------------------*\
  =========                 |
  \\      /  F ield         | OpenFOAM: The Open Source CFD Toolbox
   \\    /   O peration     | Website:  https://openfoam.org
    \\  /    A nd           | Version:  13
     \\/     M anipulation  |
\*---------------------------------------------------------------------------*/
FoamFile
{
    format      ascii;
    class       volVectorField;
    location    "4.403143";
    object      wallShearStress;
}
// * * * * * * * * * * * * * * * * * * * * * * * * * * * * * * * * * * * * * //

dimensions      [0 2 -2 0 0 0 0];

internalField   uniform (0 0 0);

boundaryField
{
    inlet
    {
        type            calculated;
        value           uniform (0 0 0);
    }
    outlet
    {
        type            calculated;
        value           uniform (0 0 0);
    }
    cylinder
    {
        type            calculated;
        value           nonuniform List<vector> 
132
(
(0.00012780474 -0.0017841587 -1.4943416e-22)
(0.0005415966 -0.010717876 4.3433739e-23)
(0.0014370716 -0.019408082 2.5463351e-21)
(0.0027756516 -0.027504727 -9.2808763e-21)
(0.0044797213 -0.034662447 7.2362136e-21)
(0.0064334865 -0.040556997 2.460064e-20)
(0.0084856891 -0.044914335 -5.1828022e-21)
(0.010467258 -0.047530004 -2.267142e-20)
(0.012197083 -0.048291218 2.3336229e-20)
(0.013501415 -0.047198012 -5.6361682e-20)
(0.014234766 -0.044375124 -1.088009e-21)
(0.01430136 -0.04007491 3.8839125e-20)
(0.013673462 -0.034664631 6.523688e-20)
(0.012405052 -0.028602902 -5.3844976e-20)
(0.010628058 -0.022383157 5.6948967e-20)
(0.0085381364 -0.016480124 9.1230427e-20)
(0.0063557824 -0.011276456 -5.9123427e-20)
(0.0042881016 -0.0070108874 9.3454315e-20)
(0.0024950346 -0.0037701402 1.2160457e-19)
(0.0010621583 -0.001493266 -7.7669979e-20)
(-8.5157967e-06 -1.0819077e-05 -9.7633751e-20)
(-0.00075070158 0.00086884099 3.4003932e-23)
(-0.001221036 0.0013178182 1.384425e-20)
(-0.0013046228 0.0013050627 -1.6412044e-20)
(-0.0010059605 0.00093502876 -2.7658924e-20)
(4.2407613e-05 -1.7130005e-05 5.8652591e-21)
(0.0016228638 -0.0012356005 -5.2720329e-20)
(0.0032718704 -0.0022940692 1.4078663e-20)
(0.0045682703 -0.0029221052 1.1091018e-20)
(0.0052545413 -0.0030429674 -7.670961e-20)
(0.0055571243 -0.0028886953 1.004391e-19)
(0.0057134486 -0.0026392643 3.0476148e-21)
(0.0057967483 -0.0023508197 2.2026329e-20)
(0.0056800298 -0.0019911401 -2.619088e-20)
(0.0051509238 -0.0015289273 8.3589362e-20)
(0.003983986 -0.0009743735 -5.3149077e-21)
(0.0019609478 -0.00038658363 2.156385e-20)
(-0.0011681205 0.00013227065 -2.977962e-21)
(-0.0056000925 0.00042373009 4.2918085e-21)
(-0.011371746 0.00026432024 -2.6848317e-21)
(-0.018890945 -0.00061985868 5.0146103e-21)
(-0.0278416 -0.0025787458 -1.5411014e-22)
(-0.037312116 -0.0057312311 5.6149326e-20)
(-0.046801314 -0.010100196 -2.1455714e-20)
(-0.055643886 -0.015566183 1.918247e-20)
(-0.063401251 -0.021932805 -1.2213892e-19)
(-0.06967632 -0.028911046 -1.9544425e-20)
(-0.07426445 -0.036203015 1.70617e-19)
(-0.077036195 -0.043484312 -1.4506312e-19)
(-0.078009906 -0.050464276 -2.7715877e-21)
(-0.077223012 -0.056839498 4.4474939e-20)
(-0.074877166 -0.062410117 -4.1147988e-20)
(-0.071070985 -0.06689834 -8.3340131e-21)
(-0.066060191 -0.070162065 -5.7223481e-21)
(-0.060133762 -0.072127514 -1.1429355e-20)
(-0.053462924 -0.072616462 8.4963652e-22)
(-0.046354668 -0.071638078 4.5977534e-22)
(-0.039050402 -0.069162263 4.4768803e-20)
(-0.031807121 -0.065228069 -7.2831794e-20)
(-0.024864362 -0.059903793 -8.0139567e-20)
(-0.018445094 -0.053293411 -3.3104959e-20)
(-0.012750828 -0.045533777 -7.6722307e-20)
(-0.0079567218 -0.036789431 1.7238143e-20)
(-0.0042056713 -0.02724952 2.5196851e-20)
(-0.0016145827 -0.017139017 -3.9272973e-20)
(-0.00024522057 -0.0066385153 -5.2545357e-21)
(0.00019971172 0.0071415646 -6.9506343e-22)
(0.00075144288 0.015897673 -4.3324249e-23)
(0.0017654062 0.024229081 -2.6727897e-21)
(0.0031884273 0.031794751 9.8382344e-21)
(0.0049296481 0.038266853 -7.7066905e-21)
(0.0068623194 0.043349936 -2.6195028e-20)
(0.0088306706 0.04680868 5.4978153e-21)
(0.010665742 0.048484217 2.3901908e-20)
(0.012193096 0.048317819 -2.4419104e-20)
(0.013253496 0.046366029 5.8502652e-20)
(0.01372347 0.042809935 1.1203688e-21)
(0.013534652 0.037950239 -3.9681565e-20)
(0.012690607 0.032192449 -6.6188328e-20)
(0.011272942 0.026008215 5.4306981e-20)
(0.0094347052 0.019880553 -5.7165211e-20)
(0.0073767693 0.014246971 -9.1269805e-20)
(0.0053070558 0.0094226306 5.9028849e-20)
(0.0034109132 0.0055825113 -9.3218886e-20)
(0.0018152689 0.0027498724 -1.2129864e-19)
(0.00057014048 0.00081465838 7.7518596e-20)
(-0.00033537038 -0.00040872517 9.7507877e-20)
(-0.00095265631 -0.001108597 8.6324617e-20)
(-0.0012974801 -0.0014030684 7.018565e-20)
(-0.0012437932 -0.0012476752 1.6409131e-20)
(-0.00068472058 -0.00064335651 2.7673598e-20)
(0.00054149891 0.0004370673 -5.8745519e-21)
(0.0021822809 0.0016684421 5.28979e-20)
(0.0037292495 0.0026191201 -1.4149346e-20)
(0.0048137736 0.0030818862 -1.1158826e-20)
(0.005334747 0.0030907477 7.7203105e-20)
(0.0055644386 0.002892886 -1.0109513e-19)
(0.0057059815 0.0026360159 -3.0515781e-21)
(0.005751205 0.002332885 5.0520779e-20)
(0.005535815 0.0019416348 2.6440266e-20)
(0.0048480396 0.0014407857 -8.4512981e-20)
(0.0034593571 0.00084930348 5.3823922e-21)
(0.001158134 0.00023751165 1.595108e-20)
(-0.0023012422 -0.00028276832 3.024777e-21)
(-0.0070967524 -0.000542995 -4.3629187e-21)
(-0.013220424 -0.00031371338 2.7297742e-21)
(-0.0210695 0.00068750558 -5.0942084e-21)
(-0.030265156 0.0028000635 4.1203408e-20)
(-0.039837338 0.0061159361 -5.6749236e-20)
(-0.049285176 0.010633194 2.160169e-20)
(-0.057990424 0.016220171 -1.9230139e-20)
(-0.065512143 0.022660633 1.2182245e-19)
(-0.071484735 0.029658304 1.9389405e-20)
(-0.075742027 0.036920297 -1.6823037e-19)
(-0.078163032 0.044117489 1.4205182e-19)
(-0.07879989 0.050972518 2.6917587e-21)
(-0.077683877 0.057175982 -4.2739632e-20)
(-0.075055062 0.062555758 3.8986518e-20)
(-0.070985336 0.066814838 -6.2174248e-20)
(-0.065744515 0.069823956 5.0728448e-21)
(-0.059646966 0.0715406 -1.2279501e-20)
(-0.052835276 0.071760596 1.4387737e-21)
(-0.045632833 0.070518771 -5.8201738e-22)
(-0.038274894 0.067784362 -5.0266447e-20)
(-0.031017618 0.063603682 7.8451721e-20)
(-0.024097975 0.058050651 8.4459535e-20)
(-0.01773535 0.051233718 3.4406073e-20)
(-0.012127545 0.04329501 7.8940114e-20)
(-0.0074448002 0.034401704 -1.7597253e-20)
(-0.003825064 0.024748003 5.0676931e-20)
(-0.0013794434 0.014551203 3.959356e-20)
(-0.00016833138 0.0040318727 5.2717162e-21)
)
;
    }
    frontAndBack
    {
        type            empty;
    }
}


// ************************************************************************* //
