/*--------------------------------*- C++ -*----------------------------------*\
  =========                 |
  \\      /  F ield         | OpenFOAM: The Open Source CFD Toolbox
   \\    /   O peration     | Website:  https://openfoam.org
    \\  /    A nd           | Version:  13
     \\/     M anipulation  |
\*---------------------------------------------------------------------------*/
FoamFile
{
    format      ascii;
    class       volVectorField;
    location    "45.402862";
    object      U;
}
// * * * * * * * * * * * * * * * * * * * * * * * * * * * * * * * * * * * * * //

dimensions      [0 1 -1 0 0 0 0];

internalField   nonuniform List<vector> 
17140
(
(-1.7980946e-07 8.4359111e-06 2.99271e-23)
(-2.1200382e-06 3.0020041e-05 3.3148491e-24)
(-6.2595531e-06 5.5569835e-05 -2.1872243e-22)
(-1.3420958e-05 8.1960939e-05 2.4035104e-22)
(-2.43678e-05 0.00010558477 -2.8084047e-23)
(-4.0167212e-05 0.00012233749 9.1860163e-23)
(-6.2166545e-05 0.00012761822 1.5454102e-22)
(-9.204092e-05 0.00011635428 -7.5362866e-23)
(-0.00013187188 8.3050815e-05 -2.4641945e-22)
(-0.00018423633 2.1878082e-05 -6.0356924e-22)
(-0.00025231064 -7.3196514e-05 8.9338805e-22)
(-0.00033999114 -0.00020821997 -7.9448728e-22)
(-0.0004520341 -0.00038899838 -1.213567e-22)
(-0.0005942145 -0.00062076344 6.8369687e-22)
(-0.00077350373 -0.00090775066 -7.5666898e-23)
(-0.00099826402 -0.0012526831 5.9620176e-22)
(-0.0012784553 -0.0016561594 -2.2054748e-23)
(-0.0016258464 -0.002115956 4.9125978e-24)
(-0.0020542192 -0.0026262618 3.45196e-22)
(-0.0025795467 -0.0031768921 -4.4286807e-22)
(-0.0032201222 -0.0037525495 2.1065396e-22)
(-0.0039966036 -0.0043322342 -3.9481579e-23)
(-0.0049319294 -0.0048889461 -2.8738275e-22)
(-0.0060510522 -0.0053898549 2.8053923e-22)
(-0.0073804205 -0.0057971468 4.3815319e-22)
(-0.0089471339 -0.0060697641 -3.4443184e-22)
(-0.01077769 -0.0061662325 -1.6519663e-21)
(-0.012896248 -0.0060486914 -1.9033148e-22)
(-0.015322366 -0.0056880962 1.6311541e-21)
(-0.018068179 -0.0050702701 3.7195325e-22)
(-0.021135867 -0.0042019723 1.2924779e-21)
(-0.024515705 -0.0031146339 -1.6507951e-21)
(-0.028185275 -0.001862595 4.1463063e-22)
(-0.032112684 -0.00051221893 1.8914543e-22)
(-0.036262683 0.00087626292 1.7932475e-21)
(-0.040603044 0.0022650462 -7.4862574e-22)
(-0.045109017 0.0036439952 1.0703284e-21)
(-0.049764011 0.0050257769 6.9080777e-22)
(-0.054558059 0.0064399866 3.0497626e-22)
(-0.05948694 0.0079307125 -8.946371e-22)
(-0.064554054 0.0095596374 -1.6522781e-21)
(-0.069772522 0.011413128 -1.4811286e-21)
(-0.075170728 0.013613162 -6.446417e-22)
(-0.080801486 0.016329838 3.1464273e-21)
(-0.086737354 0.019788433 2.3154895e-21)
(-0.09307914 0.024284597 -5.7590891e-22)
(-0.099957117 0.030212759 3.9321118e-21)
(-0.10751552 0.03808618 1.3471415e-21)
(-0.11590318 0.04857368 -1.3814024e-21)
(-0.12521368 0.062540772 -3.3873212e-21)
(-0.13544824 0.081139511 2.0901238e-21)
(-0.14646659 0.1057662 1.3138023e-21)
(-0.15793335 0.13772435 -3.4211316e-21)
(-0.16859776 0.17741318 -1.6091468e-21)
(-0.17674125 0.22353903 -1.1538668e-21)
(-0.17994369 0.27034467 9.0793825e-22)
(-0.17809007 0.30451353 -2.5733111e-21)
(-0.16892475 0.31286409 -2.298069e-21)
(-0.15367479 0.24749435 -6.6950636e-22)
(-0.093516327 0.030416895 1.9978297e-21)
(0.087841358 -0.29945543 1.1743578e-21)
(0.25193387 -0.51917872 2.6580583e-21)
(0.34348412 -0.57273824 2.1832488e-22)
(0.32867296 -0.5204278 -1.3532269e-21)
(0.34141394 -0.28751844 1.3770061e-21)
(-1.6177102e-06 3.7845359e-05 -8.4868119e-24)
(-6.6116797e-06 0.0001210787 1.1431597e-21)
(-1.4090517e-05 0.00021472992 -1.0169661e-21)
(-2.4779602e-05 0.00031631787 2.7711502e-22)
(-3.933912e-05 0.00042292691 5.7220145e-22)
(-5.8709324e-05 0.00053118641 -1.0927247e-21)
(-8.4088691e-05 0.00063726633 1.1381666e-21)
(-0.0001169811 0.00073689607 -1.0007736e-22)
(-0.00015927323 0.00082540403 3.120827e-22)
(-0.00021332378 0.00089779097 5.2800408e-24)
(-0.00028206807 0.00094884361 1.0385594e-21)
(-0.00036914096 0.00097329854 -1.6462982e-21)
(-0.0004790203 0.00096606659 -1.3563488e-22)
(-0.00061719141 0.00092252698 1.3336057e-21)
(-0.00079033259 0.00083890079 -4.0762397e-22)
(-0.0010065199 0.00071270877 -2.5724321e-22)
(-0.0012754469 0.0005433132 1.621566e-21)
(-0.0016086515 0.00033253496 -5.2367437e-21)
(-0.0020197385 8.5324793e-05 3.2443839e-21)
(-0.0025245777 -0.00018955484 -3.8388117e-21)
(-0.0031414527 -0.00047890478 5.590121e-21)
(-0.0038911227 -0.00076462146 -1.3474251e-21)
(-0.0047967529 -0.0010235226 -5.4586486e-22)
(-0.0058836514 -0.0012276394 1.7491837e-21)
(-0.0071787426 -0.0013451735 -6.1653393e-21)
(-0.0087096946 -0.0013423232 -9.0041088e-22)
(-0.01050361 -0.0011861455 4.5711994e-21)
(-0.012585206 -0.00084851865 -5.0154604e-21)
(-0.014974468 -0.00031106846 6.7246175e-22)
(-0.017683987 0.0004294596 6.4572143e-21)
(-0.020715808 0.0013565402 -6.5564903e-22)
(-0.024059021 0.0024324932 -4.8695676e-21)
(-0.027689917 0.0036031408 -1.1861974e-22)
(-0.031574832 0.0048105159 3.3796738e-21)
(-0.035676132 0.006010083 -3.6090723e-21)
(-0.039959119 0.0071824132 1.5501421e-21)
(-0.044396395 0.0083333949 -1.7358403e-21)
(-0.048968501 0.009487568 -5.2890382e-21)
(-0.053662268 0.010682658 -1.141325e-21)
(-0.05846974 0.011969155 -4.3271749e-21)
(-0.06338947 0.013414542 5.449962e-21)
(-0.068427684 0.015111416 4.9566588e-21)
(-0.073602778 0.017189383 8.4920588e-22)
(-0.078953406 0.019826443 -6.7906774e-21)
(-0.084532401 0.023254294 3.2059265e-21)
(-0.090412927 0.02777379 1.1216191e-21)
(-0.096688116 0.033780824 -6.4557308e-22)
(-0.10345224 0.041782325 -1.923812e-21)
(-0.11079276 0.052427672 9.5532537e-22)
(-0.1187211 0.066542895 -1.6683416e-21)
(-0.1271531 0.085242645 -1.0293675e-20)
(-0.13594957 0.10986406 -5.1857645e-22)
(-0.14468764 0.14149188 2.2648648e-21)
(-0.15179471 0.18032584 -4.9021882e-21)
(-0.15547196 0.22499713 4.2529058e-21)
(-0.15288402 0.27002194 -1.2249549e-20)
(-0.14342504 0.30233261 -3.732998e-21)
(-0.12463206 0.3086213 1.144054e-20)
(-0.093977018 0.23433174 -2.2936178e-21)
(0.0088963116 -0.0061022554 -2.7535761e-21)
(0.19242967 -0.34742908 -4.6558271e-22)
(0.3405301 -0.55347925 4.153546e-21)
(0.42008197 -0.57914626 -3.7859472e-21)
(0.38035138 -0.51369079 -4.576305e-22)
(0.33719577 -0.30634046 -1.7243202e-21)
(-4.6275034e-06 6.6188144e-05 -4.657732e-22)
(-1.5973358e-05 0.00020882392 3.4415823e-22)
(-3.0401619e-05 0.00036809994 9.150656e-23)
(-4.8574752e-05 0.00054218031 -8.6727202e-23)
(-7.1076411e-05 0.00072884625 4.2008841e-22)
(-9.8745417e-05 0.00092546742 3.1241344e-23)
(-0.00013265589 0.0011289956 3.9861815e-22)
(-0.00017416299 0.001335978 4.2911792e-22)
(-0.00022497793 0.0015425867 -3.5026472e-21)
(-0.00028725535 0.00174468 3.1228636e-21)
(-0.00036369702 0.001937897 -1.4917599e-21)
(-0.00045767448 0.002117799 -2.1809805e-21)
(-0.00057337328 0.0022800622 4.3129046e-21)
(-0.00071595979 0.0024207342 5.3222173e-22)
(-0.00089177071 0.002536558 -2.0451283e-21)
(-0.0011085239 0.0026253715 -1.3984724e-21)
(-0.0013755468 0.0026865793 1.6112812e-21)
(-0.0017040141 0.0027216875 -5.7865591e-21)
(-0.0021071834 0.0027348799 3.3877286e-21)
(-0.0026006087 0.0027335937 -1.6570187e-21)
(-0.0032023051 0.0027290271 5.5158804e-21)
(-0.0039328256 0.002736484 1.4156882e-21)
(-0.0048152031 0.0027754203 -2.9032137e-21)
(-0.0058746925 0.0028690279 4.2953033e-21)
(-0.0071382391 0.0030431647 1.6601683e-21)
(-0.0086335863 0.0033244396 -1.9549292e-21)
(-0.010387933 0.0037373102 -1.0903989e-20)
(-0.012426068 0.0043001726 -4.8410726e-21)
(-0.014767955 0.0050206832 2.3670169e-21)
(-0.017425894 0.0058910287 -2.4894576e-21)
(-0.020401544 0.0068847238 1.5176198e-21)
(-0.02368359 0.0079571922 8.4079552e-21)
(-0.027247455 0.0090533386 -2.7258457e-21)
(-0.03105817 0.010122527 -7.8868173e-21)
(-0.035076337 0.01113487 2.5277475e-21)
(-0.039265099 0.012088917 3.3853344e-21)
(-0.043594571 0.013007092 -5.5982635e-21)
(-0.048042314 0.013926372 -1.626426e-21)
(-0.052591583 0.014892982 2.8242471e-21)
(-0.057229965 0.015963383 1.1173436e-21)
(-0.061950053 0.017210142 -5.2144823e-21)
(-0.066750076 0.018730972 1.4415078e-21)
(-0.071636928 0.020661484 2.1310171e-21)
(-0.076632971 0.023185607 5.7329793e-21)
(-0.081768709 0.026539217 -1.1003478e-20)
(-0.087086296 0.031025464 7.1695932e-21)
(-0.092637139 0.037038377 1.7961172e-21)
(-0.098459848 0.04507548 7.3311064e-21)
(-0.10457415 0.055762677 8.8840091e-21)
(-0.11089423 0.069884177 4.725643e-22)
(-0.11723914 0.088552644 -1.7633616e-21)
(-0.12352969 0.11298542 1.4148498e-20)
(-0.1288198 0.14407516 6.1088853e-21)
(-0.13139066 0.18180739 6.3657671e-21)
(-0.1293473 0.22468629 2.0715116e-21)
(-0.11932557 0.26754016 1.6693056e-20)
(-0.09868711 0.29760154 -7.1408784e-21)
(-0.06447742 0.30119295 2.9084478e-21)
(-0.0078350611 0.21465139 2.4534396e-20)
(0.13533606 -0.042375074 1.0985516e-20)
(0.31506206 -0.38657244 -1.0864401e-20)
(0.44212962 -0.5797273 -2.1169393e-20)
(0.50379812 -0.57929872 3.2457214e-21)
(0.44301775 -0.49442795 3.0056724e-21)
(0.35556581 -0.31039996 1.2419926e-21)
(-9.1343699e-06 9.2963869e-05 1.5539624e-21)
(-2.9937184e-05 0.00029171047 -2.4721011e-21)
(-5.4733551e-05 0.00051298582 8.9360757e-22)
(-8.4138681e-05 0.00075559269 -9.7111942e-23)
(-0.00011868905 0.0010180044 1.9190298e-21)
(-0.00015914991 0.0012983295 -1.9844422e-21)
(-0.00020649812 0.0015943044 3.0083657e-21)
(-0.00026196565 0.0019033009 -1.4141366e-21)
(-0.00032711119 0.0022223482 -5.37151e-21)
(-0.00040390427 0.0025481812 1.2898933e-21)
(-0.00049482609 0.0028773189 4.9054038e-21)
(-0.00060298957 0.003206183 -1.4945271e-21)
(-0.0007322818 0.0035312619 -9.9577468e-23)
(-0.00088752971 0.003849329 3.8905356e-21)
(-0.0010746898 0.0041577207 -1.2125494e-20)
(-0.0013010609 0.0044546779 7.4100766e-21)
(-0.0015755156 0.0047397485 7.0432264e-23)
(-0.0019087442 0.0050142412 -4.0491942e-21)
(-0.0023134979 0.0052817066 1.0201785e-20)
(-0.0028048117 0.0055484058 -4.7703077e-21)
(-0.0034001801 0.0058237009 -7.0427699e-21)
(-0.0041196458 0.0061202735 -2.8186386e-21)
(-0.0049857509 0.006454042 1.376974e-20)
(-0.0060232845 0.0068436189 7.1014281e-21)
(-0.0072587511 0.0073091243 -4.5274213e-21)
(-0.008719469 0.0078701795 2.6046469e-21)
(-0.010432212 0.008542957 -9.6198248e-21)
(-0.012421318 0.0093363121 2.7247174e-21)
(-0.014706253 0.010247321 -7.2457844e-21)
(-0.017298733 0.011257108 4.0295594e-21)
(-0.020199769 0.012328743 -2.4480302e-21)
(-0.02339745 0.013409958 8.8309125e-21)
(-0.02686664 0.014443476 -1.2352703e-21)
(-0.030571725 0.01538424 6.3281955e-21)
(-0.034472355 0.016215597 -5.8478658e-21)
(-0.038530104 0.016953458 -1.8019068e-21)
(-0.042712773 0.017636966 2.1533862e-20)
(-0.046994828 0.018316073 5.4132666e-21)
(-0.051355582 0.019045832 -4.3349106e-21)
(-0.055777541 0.019888634 4.1549355e-21)
(-0.060246437 0.020921488 -1.0292591e-21)
(-0.064751437 0.022246067 -6.5810289e-21)
(-0.069286607 0.024002151 3.1732833e-22)
(-0.073856161 0.026377495 2.2101858e-21)
(-0.078465928 0.029609763 -1.064443e-21)
(-0.083124215 0.034001401 4.8943869e-22)
(-0.087836605 0.03994105 1.5553029e-21)
(-0.092580787 0.047913701 -2.5194383e-20)
(-0.097301973 0.058515554 2.7877477e-21)
(-0.10178871 0.072491191 -2.639234e-21)
(-0.10580423 0.090961229 2.4835099e-20)
(-0.10910764 0.11498449 -1.3825054e-20)
(-0.11019954 0.14521498 -1.1317127e-20)
(-0.10729919 0.18153225 -1.0870195e-20)
(-0.09804359 0.22232863 -1.0614e-20)
(-0.07839335 0.26232363 -1.7323266e-20)
(-0.044288166 0.28946018 3.6872324e-20)
(0.010385836 0.28841109 -2.5551033e-20)
(0.1044284 0.18977322 -4.7528529e-20)
(0.27200212 -0.077991729 4.1110926e-20)
(0.44909465 -0.41562501 1.0460643e-20)
(0.55378338 -0.59426113 4.5368877e-21)
(0.58803688 -0.57104497 -1.1164226e-20)
(0.51094817 -0.46528322 -3.9957889e-21)
(0.39782964 -0.30023116 -2.1579556e-22)
(-1.4995065e-05 0.00011769392 -1.0902963e-21)
(-4.8077939e-05 0.00036825858 3.6192421e-21)
(-8.6344602e-05 0.00064680531 -2.9499241e-21)
(-0.00013038849 0.0009527599 1.114492e-21)
(-0.00018072772 0.0012852735 4.0251434e-22)
(-0.00023808275 0.0016431828 -3.4621268e-21)
(-0.0003033618 0.0020250013 8.7635836e-22)
(-0.00037770177 0.0024289236 1.8597842e-21)
(-0.00046253508 0.0028528394 1.4259948e-22)
(-0.00055966942 0.0032943714 1.2102867e-21)
(-0.00067138388 0.003750939 -1.6926499e-21)
(-0.00080054446 0.0042198554 1.1747917e-21)
(-0.00095074198 0.004698465 4.3208274e-21)
(-0.0011264537 0.0051843257 1.2576025e-22)
(-0.0013332297 0.005675443 -3.2854733e-21)
(-0.0015779024 0.006170556 -2.3190382e-21)
(-0.0018688179 0.0066694733 1.9870753e-21)
(-0.0022160789 0.0071734469 -1.8985543e-22)
(-0.0026317906 0.0076855614 -3.830661e-21)
(-0.0031302871 0.0082110973 -4.6325043e-21)
(-0.0037283132 0.0087578054 5.2402889e-21)
(-0.004445119 0.0093359998 5.2233813e-21)
(-0.0053024179 0.0099583464 -6.9530249e-21)
(-0.0063241407 0.010639191 8.5001768e-21)
(-0.0075359054 0.011393256 1.453958e-20)
(-0.0089641155 0.012233532 -3.3811467e-20)
(-0.010634596 0.01316827 1.8357478e-20)
(-0.012570701 0.014197129 -2.6801228e-20)
(-0.014790876 0.015306873 3.2983862e-20)
(-0.017305816 0.016467654 -3.6224446e-20)
(-0.020115591 0.017631864 3.6781492e-20)
(-0.023207549 0.018738627 -6.0547838e-21)
(-0.026556128 0.019726711 -2.0404937e-20)
(-0.03012554 0.020554295 1.1144118e-20)
(-0.033875155 0.021215833 -3.3494436e-21)
(-0.037765631 0.021743598 -9.484666e-22)
(-0.041762839 0.022193596 -1.1171749e-20)
(-0.045838206 0.022629407 -3.5238004e-21)
(-0.049966836 0.023115405 -3.3766387e-21)
(-0.054125634 0.023719902 -3.2983196e-21)
(-0.058292745 0.024523761 1.6441762e-20)
(-0.062447299 0.025631434 -7.143587e-21)
(-0.066569405 0.027184988 -1.1277044e-21)
(-0.070643555 0.029373751 1.3142757e-20)
(-0.074648935 0.032434694 6.7286457e-21)
(-0.078557631 0.036666412 -3.3969605e-21)
(-0.082325569 0.042448323 -1.2213685e-20)
(-0.085865087 0.050249179 5.4749231e-21)
(-0.089037137 0.060626712 -1.5692227e-20)
(-0.09147921 0.074302531 -8.5114001e-21)
(-0.092976278 0.092347914 -1.1869912e-20)
(-0.092657939 0.11565954 -3.1706971e-20)
(-0.089007041 0.14466552 2.4767837e-20)
(-0.079712003 0.17916997 -7.91169e-21)
(-0.061851904 0.21740405 1.4126176e-20)
(-0.030527767 0.25397293 1.382697e-20)
(0.020136794 0.27677834 5.9989639e-21)
(0.098021665 0.26848885 6.1551781e-20)
(0.22959163 0.16106481 2.0066791e-20)
(0.41098529 -0.10956769 -5.158727e-20)
(0.58808383 -0.4349635 -1.6319644e-20)
(0.66988049 -0.59794302 5.9060312e-21)
(0.66777765 -0.55474852 5.0774416e-21)
(0.5790336 -0.430435 3.8336804e-21)
(0.45467166 -0.27819008 -1.9903452e-22)
(-2.2020998e-05 0.00013993931 -3.3107847e-21)
(-6.9814264e-05 0.00043711081 -1.1683878e-21)
(-0.00012422431 0.00076718832 9.4575242e-22)
(-0.00018584799 0.0011301962 3.4914913e-21)
(-0.00025521377 0.0015259398 -1.912418e-21)
(-0.0003330265 0.0019539628 2.751498e-21)
(-0.00042015579 0.0024135389 -1.1899929e-21)
(-0.00051767347 0.0029036722 -2.8329955e-22)
(-0.00062691525 0.0034231066 1.6022639e-21)
(-0.0007495546 0.0039703543 3.450453e-21)
(-0.00088769291 0.0045437459 1.732423e-22)
(-0.0010439686 0.0051415101 -5.659909e-21)
(-0.0012216881 0.0057618849 7.8192744e-21)
(-0.0014249808 0.0064032691 -1.260431e-20)
(-0.0016589781 0.0070644137 3.2870248e-21)
(-0.0019300168 0.0077446569 -6.9671504e-21)
(-0.0022458638 0.0084441969 8.3979966e-21)
(-0.002615955 0.0091643898 -5.4355718e-21)
(-0.0030516363 0.0099080508 8.545013e-22)
(-0.0035663888 0.010679715 3.4514214e-21)
(-0.0041760094 0.011485802 -8.3436307e-21)
(-0.0048987072 0.01233458 1.169809e-20)
(-0.0057550637 0.013235836 -1.2632035e-20)
(-0.00676779 0.014200069 -2.1528144e-21)
(-0.0079612002 0.015237064 2.0951579e-20)
(-0.009360313 0.016353687 -2.0990031e-20)
(-0.010989493 0.017550794 1.3522868e-20)
(-0.012870567 0.018819366 -1.502974e-20)
(-0.015020422 0.020136302 -1.4134202e-21)
(-0.017448221 0.021461023 -8.7710211e-22)
(-0.020152668 0.022735067 5.7474409e-21)
(-0.023120099 0.023888023 -3.8119527e-22)
(-0.026324501 0.02485274 2.0902571e-20)
(-0.029730206 0.025587804 -5.5012225e-21)
(-0.033296889 0.02609598 -1.5943165e-20)
(-0.036984963 0.026424273 7.174067e-21)
(-0.040758884 0.026645442 -5.6713592e-21)
(-0.044587251 0.026837418 5.461657e-21)
(-0.048440859 0.027074573 2.9617803e-20)
(-0.05229065 0.027431269 -1.5948837e-20)
(-0.056106622 0.02799169 -3.8578204e-21)
(-0.059857054 0.028861891 2.1549294e-20)
(-0.06350721 0.030184305 -1.2493187e-21)
(-0.06702052 0.032147448 -2.6513913e-21)
(-0.070348022 0.034985026 -2.8671309e-20)
(-0.073423723 0.038988355 -6.7186326e-21)
(-0.076150362 0.04452338 1.0589792e-20)
(-0.078371588 0.052037406 1.0907811e-20)
(-0.079845124 0.062041547 1.5503743e-20)
(-0.080070605 0.075238331 1.8975903e-20)
(-0.078770549 0.092592314 1.1517313e-20)
(-0.074422342 0.11484702 1.8469887e-20)
(-0.065533525 0.14222801 -6.3464853e-21)
(-0.049060403 0.17439472 3.885889e-20)
(-0.021491118 0.20943055 2.518574e-21)
(0.023412718 0.24170239 2.4060393e-21)
(0.093087935 0.25941281 1.3731814e-21)
(0.19428437 0.2425755 -6.6918705e-20)
(0.35126134 0.12883343 -3.2652212e-20)
(0.54620425 -0.1381546 5.4971431e-20)
(0.72555787 -0.44595494 6.5213388e-20)
(0.78301535 -0.58718474 1.6903146e-20)
(0.74111305 -0.53070537 2.0505402e-21)
(0.64308747 -0.3924789 -3.6476882e-21)
(0.51854649 -0.24705544 -4.832156e-22)
(-2.9979277e-05 0.00015932014 6.2335266e-22)
(-9.4428103e-05 0.00049709196 1.9808229e-21)
(-0.0001671241 0.00087208178 -4.7803076e-21)
(-0.00024869183 0.0012848796 1.7765786e-22)
(-0.00033969781 0.0017359113 2.3266587e-21)
(-0.00044086029 0.0022253969 1.0252543e-21)
(-0.00055304067 0.002753342 7.5682878e-22)
(-0.00067727737 0.0033195371 -1.4908726e-21)
(-0.00081484141 0.0039235625 7.7147674e-21)
(-0.00096730383 0.0045648098 -5.8183949e-21)
(-0.0011366186 0.0052425217 2.8128513e-22)
(-0.0013252238 0.0059558553 3.5165289e-21)
(-0.0015361638 0.0067039723 -1.3142504e-20)
(-0.0017732348 0.0074861608 1.3083128e-20)
(-0.002041154 0.0083019904 -1.7402586e-21)
(-0.0023457529 0.0091514995 -1.0748442e-20)
(-0.0026941914 0.01003541 1.0085228e-20)
(-0.0030951863 0.010955354 -3.5159578e-21)
(-0.0035592438 0.011914095 6.8077097e-21)
(-0.0040988759 0.012915689 -8.7017125e-21)
(-0.0047287741 0.013965543 -1.6262299e-20)
(-0.0054659009 0.015070267 1.6006174e-20)
(-0.0063294471 0.016237209 2.3291327e-20)
(-0.0073405878 0.017473534 -4.4577464e-20)
(-0.0085219569 0.018784674 3.5427343e-20)
(-0.0098967529 0.020172003 -2.0358216e-20)
(-0.01148739 0.021629669 5.1936756e-21)
(-0.013313638 0.023140669 -1.2147966e-20)
(-0.01539026 0.024672675 1.2290966e-20)
(-0.017724328 0.026174813 1.6364238e-20)
(-0.020312645 0.027577751 -1.0729559e-20)
(-0.0231401 0.028800692 -1.7479888e-20)
(-0.026179975 0.029768497 1.5040617e-21)
(-0.029396782 0.030436931 6.1763643e-22)
(-0.032750921 0.030813589 1.0424351e-20)
(-0.036203218 0.030957882 -4.3388784e-21)
(-0.039717358 0.030958822 -1.5391788e-20)
(-0.043259513 0.030909398 -7.5010387e-21)
(-0.046796261 0.030894836 1.1027468e-20)
(-0.050292399 0.030995854 -8.4622947e-21)
(-0.053709411 0.031299534 7.09124e-21)
(-0.057004118 0.031912376 -2.3510304e-21)
(-0.060126345 0.032975199 -8.9278994e-21)
(-0.063017314 0.034673303 2.1359633e-20)
(-0.065599024 0.037234335 1.2854275e-20)
(-0.067765771 0.040938802 8.3554935e-21)
(-0.069364665 0.046134383 -2.6477611e-20)
(-0.070168717 0.053238525 -1.7224036e-20)
(-0.069809518 0.062712183 -2.022682e-20)
(-0.067692511 0.075229537 -3.5169476e-20)
(-0.063277255 0.091601407 1.1992483e-20)
(-0.054694461 0.11241344 -2.6206985e-21)
(-0.040151539 0.13771524 -2.0474693e-20)
(-0.015939873 0.16695767 -6.0153494e-20)
(0.022196057 0.19795416 -4.0187299e-20)
(0.082133 0.22497327 -1.641991e-20)
(0.17119542 0.23709509 -5.223427e-20)
(0.2921242 0.21279949 3.981809e-20)
(0.46330963 0.094045179 -4.914007e-21)
(0.67736408 -0.165053 -8.7834053e-20)
(0.85789441 -0.44933222 -4.9968271e-20)
(0.88514731 -0.56527125 -1.5468712e-21)
(0.80563809 -0.4987634 1.4960634e-20)
(0.69792244 -0.35457633 -1.201048e-22)
(0.5849067 -0.21136352 -1.4593416e-21)
(-3.8601053e-05 0.00017553147 2.4540481e-21)
(-0.00012109041 0.00054725797 -1.6552159e-21)
(-0.00021360193 0.00095983483 2.2356182e-21)
(-0.00031681063 0.0014143765 1.2704595e-21)
(-0.00043134697 0.0019118874 -3.5445186e-21)
(-0.00055797061 0.0024532231 -3.3081156e-21)
(-0.00069756499 0.0030390831 3.3935074e-21)
(-0.00085116743 0.0036700095 -4.0823267e-22)
(-0.0010200184 0.0043463896 -9.4540419e-23)
(-0.0012056216 0.005068473 -6.7126595e-21)
(-0.0014098195 0.0058364025 7.3544553e-22)
(-0.0016348846 0.0066502647 1.3516833e-20)
(-0.0018836322 0.0075101625 -1.0797399e-20)
(-0.0021595537 0.0084163117 3.7148303e-22)
(-0.0024669742 0.0093691639 7.2189054e-21)
(-0.0028112317 0.010369552 6.2027955e-22)
(-0.0031988769 0.011418852 -1.5746102e-21)
(-0.003637888 0.012519148 -7.0791679e-21)
(-0.0041378873 0.013673374 1.2930478e-20)
(-0.004710344 0.014885393 -2.2656868e-20)
(-0.0053687339 0.016159948 4.8660257e-21)
(-0.0061286199 0.017502411 -3.5593945e-21)
(-0.0070075982 0.018918197 2.9085038e-21)
(-0.0080250479 0.020411723 -1.2341503e-22)
(-0.0092016016 0.021984738 1.7032347e-20)
(-0.010558252 0.023633888 1.6869111e-20)
(-0.012115015 0.025347439 -3.3145047e-20)
(-0.013889088 0.027101275 -5.4835596e-21)
(-0.015892549 0.028854674 1.8915677e-20)
(-0.018129769 0.03054713 6.6650985e-21)
(-0.020595023 0.032098658 1.4934618e-20)
(-0.023271141 0.033417422 -1.6600498e-20)
(-0.0261302 0.034418293 -7.1513418e-21)
(-0.029136643 0.035050742 1.6253658e-20)
(-0.032251766 0.035323071 -6.6651464e-21)
(-0.035437391 0.035303953 -3.0912203e-21)
(-0.038657166 0.035097579 8.6311434e-21)
(-0.041875451 0.034812586 2.1938851e-20)
(-0.045054925 0.034546059 6.4826557e-21)
(-0.048154276 0.034385616 -4.1677045e-21)
(-0.051126312 0.034420953 -9.8138318e-21)
(-0.053916015 0.034757944 -1.0052711e-20)
(-0.056457444 0.035533816 -1.1069766e-20)
(-0.058668893 0.036928019 -2.3255572e-20)
(-0.060442764 0.039159494 7.077507e-22)
(-0.061632697 0.042494104 -9.9092935e-21)
(-0.062028847 0.047256459 5.4003028e-20)
(-0.061333601 0.053822384 1.504179e-20)
(-0.059037151 0.062605236 1.7169264e-20)
(-0.054488009 0.074210274 4.7338927e-20)
(-0.046759897 0.089301293 -5.5461714e-20)
(-0.033770105 0.10827962 1.2387094e-20)
(-0.01323682 0.13100328 3.9806126e-20)
(0.019172416 0.15666254 4.9097427e-20)
(0.068655313 0.18273325 6.4433377e-21)
(0.14438576 0.20365956 -1.6105365e-20)
(0.25019502 0.21036466 -2.8313569e-20)
(0.38423067 0.18024944 1.3139528e-20)
(0.56857049 0.056445508 -2.8446863e-20)
(0.80866554 -0.19103446 2.7740425e-20)
(0.98194944 -0.4442203 6.2535916e-21)
(0.97018643 -0.53236139 9.5062802e-21)
(0.85904367 -0.46038346 -1.9527627e-20)
(0.74148648 -0.31954593 3.0528443e-22)
(0.65186855 -0.17597183 1.9230787e-21)
(-4.7593238e-05 0.00018836012 -2.2987384e-21)
(-0.00014889725 0.0005869479 -6.1571943e-22)
(-0.00026208504 0.0010292895 6.7639497e-22)
(-0.00038790271 0.0015169754 3.3237002e-21)
(-0.00052706815 0.0020515386 -3.9847661e-21)
(-0.00068040873 0.0026344208 3.3822498e-21)
(-0.00084885922 0.0032669672 1.6156037e-21)
(-0.0010334882 0.0039504263 -8.652604e-23)
(-0.0012355407 0.0046859518 -1.3618252e-21)
(-0.0014564917 0.0054746166 -7.7368419e-21)
(-0.0016981119 0.0063174385 1.297367e-20)
(-0.0019625508 0.0072154207 -1.5563269e-20)
(-0.002252437 0.0081696099 4.5614037e-21)
(-0.0025709996 0.0091811733 6.1763539e-21)
(-0.0029222105 0.010251493 -9.4466113e-21)
(-0.0033109484 0.011382277 1.8560741e-20)
(-0.0037431808 0.012575674 -2.2411563e-20)
(-0.00422616 0.013834385 -3.5151864e-22)
(-0.0047686203 0.015161738 -1.2733022e-20)
(-0.0053809606 0.016561682 5.0287149e-20)
(-0.0060753841 0.018038659 -1.2111779e-20)
(-0.006865959 0.019597241 -4.9838926e-20)
(-0.0077685481 0.021241447 2.3423589e-20)
(-0.0088005419 0.022973585 2.7784127e-20)
(-0.0099803185 0.024792465 -6.9434892e-21)
(-0.011326345 0.02669086 -3.6132414e-20)
(-0.012855842 0.028652107 5.442685e-20)
(-0.014582968 0.030646003 -5.9993901e-20)
(-0.016516562 0.03262447 4.6921358e-20)
(-0.01865766 0.034518272 -8.9134078e-21)
(-0.020997299 0.036237287 1.5187989e-20)
(-0.023515474 0.037678306 2.1409095e-20)
(-0.026182283 0.038744464 -8.2710949e-21)
(-0.028961508 0.039375436 -2.082413e-21)
(-0.03181518 0.039575605 -2.9479521e-20)
(-0.034706508 0.039418862 5.5443494e-21)
(-0.037599888 0.039022737 -1.3817465e-20)
(-0.040458701 0.038511806 1.1360803e-20)
(-0.043242303 0.037996126 -6.4617009e-21)
(-0.045903554 0.037571008 -4.1478862e-21)
(-0.048386644 0.037328695 -3.4903215e-21)
(-0.050624587 0.03737349 -3.4101486e-21)
(-0.052535376 0.03783711 2.0823017e-20)
(-0.054014436 0.038890402 1.6444593e-20)
(-0.054924009 0.040740969 -4.5543407e-21)
(-0.055076837 0.043636226 2.9484441e-21)
(-0.054206318 0.047873357 -1.2453254e-20)
(-0.051942733 0.053774327 2.4534934e-20)
(-0.047637468 0.061709818 2.8396047e-20)
(-0.040585756 0.072168279 8.1074601e-21)
(-0.029404474 0.085653581 2.1940156e-20)
(-0.01184368 0.10239542 -7.1483271e-22)
(0.015037879 0.12201862 -1.0751606e-20)
(0.056187518 0.14342066 -5.0383247e-20)
(0.11780985 0.16366803 2.5394448e-20)
(0.20858537 0.17857591 -1.0050924e-20)
(0.32533058 0.18024947 3.3385631e-20)
(0.46848702 0.14442797 -6.4687702e-20)
(0.67667496 0.015434231 4.4204796e-20)
(0.94428244 -0.21441373 -1.4275974e-20)
(1.0895361 -0.42896772 1.5203658e-22)
(1.0334813 -0.4904522 -5.7689152e-21)
(0.90059103 -0.41719577 -7.03261e-21)
(0.77808433 -0.28844033 3.4066962e-21)
(0.71280542 -0.14675567 5.6020971e-21)
(-5.6653001e-05 0.00019769859 5.1230662e-21)
(-0.00017691448 0.00061582726 3.5244127e-21)
(-0.00031094765 0.0010798565 -5.5321867e-21)
(-0.00045958768 0.0015917991 1.4560346e-22)
(-0.00062366035 0.002153659 5.0002573e-21)
(-0.0008040847 0.0027674071 2.6139847e-21)
(-0.0010018745 0.0034349778 -5.5083528e-21)
(-0.001218161 0.0041582704 9.0414116e-22)
(-0.0014542297 0.0049391529 -1.2744917e-20)
(-0.0017115663 0.0057794745 2.4831232e-21)
(-0.0019919145 0.0066810883 6.3601448e-23)
(-0.0022973484 0.0076458854 -9.1243048e-21)
(-0.0026303621 0.0086758422 2.9222526e-20)
(-0.0029939764 0.0097730812 -1.3607402e-20)
(-0.0033918664 0.010939945 -2.436046e-20)
(-0.0038285068 0.012179074 2.5935862e-20)
(-0.0043093348 0.013493491 -3.1893308e-21)
(-0.0048409234 0.014886657 1.8093374e-20)
(-0.0054311554 0.016362492 1.3420087e-20)
(-0.0060893798 0.017925304 -4.2142507e-20)
(-0.0068265256 0.019579576 3.1580205e-20)
(-0.0076551361 0.021329522 -4.1478578e-20)
(-0.0085892711 0.023178306 4.8616413e-21)
(-0.0096442165 0.025126781 -1.9811495e-20)
(-0.010835922 0.027171608 4.2935619e-20)
(-0.012180087 0.029302597 -1.0137731e-20)
(-0.013690817 0.031499208 -2.5507362e-20)
(-0.015378817 0.033726311 6.1406797e-20)
(-0.017249173 0.03592969 -2.6559734e-20)
(-0.019298956 0.038032541 -2.8459609e-20)
(-0.02151519 0.039935453 2.3361734e-20)
(-0.023874121 0.04152395 3.0887999e-21)
(-0.026342843 0.042688138 -1.5396264e-20)
(-0.028883494 0.043354656 8.366312e-21)
(-0.031458268 0.043519051 -1.2626217e-20)
(-0.034031837 0.043255478 4.3202698e-20)
(-0.036570056 0.042692008 -2.2057338e-20)
(-0.039036394 0.041968946 -1.2948748e-20)
(-0.041387747 0.041210402 -2.5858005e-20)
(-0.043571693 0.040520447 -3.4333878e-21)
(-0.045524094 0.039994047 2.6499043e-20)
(-0.047166045 0.039733157 -1.0480476e-20)
(-0.048399265 0.039862275 -1.5426055e-20)
(-0.049096625 0.040540905 -2.38152e-21)
(-0.049089957 0.041962429 1.515981e-20)
(-0.048150385 0.044352574 1.3329451e-20)
(-0.045956237 0.047976753 -4.079923e-20)
(-0.04205867 0.053095308 -2.1682012e-20)
(-0.035693479 0.060022514 -4.7013489e-20)
(-0.026034267 0.069115567 -1.6493182e-20)
(-0.011278541 0.080674294 -6.3930212e-21)
(0.011132544 0.094761632 -4.6800617e-20)
(0.044910981 0.11075498 -1.8214109e-20)
(0.095688645 0.12729492 6.0965131e-20)
(0.17008602 0.14144958 -4.8501014e-20)
(0.27198847 0.15031531 4.5709653e-20)
(0.39432659 0.1477769 -2.2902313e-20)
(0.55257287 0.10451393 1.2714167e-19)
(0.80399526 -0.027480369 7.0727936e-20)
(1.0813634 -0.23173461 -2.5684675e-20)
(1.1702237 -0.40680833 -3.2807857e-20)
(1.072431 -0.44179124 -3.1158418e-20)
(0.93071984 -0.37254006 -1.8150099e-21)
(0.81306128 -0.26007508 -6.4354528e-22)
(0.75989526 -0.12788765 -7.637606e-21)
(-6.5484107e-05 0.0002035533 9.2698609e-23)
(-0.00020422803 0.00063391303 -6.5980771e-21)
(-0.00035859834 0.0011115592 7.7769555e-21)
(-0.00052953435 0.0016388679 3.7416387e-21)
(-0.0007179869 0.0022182528 -7.4921215e-21)
(-0.00092498793 0.0028521504 -2.4258421e-21)
(-0.0011516556 0.0035430201 1.1760034e-20)
(-0.0013992142 0.0042933483 -1.264878e-20)
(-0.0016690247 0.0051056547 -2.6665718e-21)
(-0.0019626246 0.0059825057 -1.0599301e-20)
(-0.002281777 0.0069265362 2.811911e-20)
(-0.0026285343 0.0079404799 3.4202162e-22)
(-0.0030053148 0.0090272097 -2.5187475e-20)
(-0.0034149967 0.010189787 2.6991779e-20)
(-0.0038610288 0.011431518 -1.9284334e-20)
(-0.0043475574 0.012756011 -7.1340349e-21)
(-0.0048795672 0.014167228 1.4866111e-20)
(-0.0054630304 0.015669503 -1.3375971e-20)
(-0.0061050532 0.017267517 -1.7750881e-20)
(-0.0068140026 0.018966167 3.756292e-22)
(-0.007599588 0.020770293 2.7787135e-20)
(-0.0084728609 0.022684157 -1.7114718e-20)
(-0.0094460832 0.024710583 9.4963748e-21)
(-0.010532401 0.026849616 4.5738018e-20)
(-0.011745247 0.029096547 1.5232724e-20)
(-0.013097402 0.031439164 -4.1204839e-20)
(-0.014599621 0.033854149 4.1046664e-21)
(-0.016258824 0.036302697 -4.6238344e-20)
(-0.018075887 0.038725828 2.7292093e-20)
(-0.020043307 0.041040568 -1.4400505e-20)
(-0.022143303 0.043139429 2.0808522e-20)
(-0.024347348 0.044897284 5.0608882e-21)
(-0.026618292 0.046190564 -2.5318984e-20)
(-0.028915262 0.046930188 2.5827629e-20)
(-0.031199614 0.047098022 3.7430296e-20)
(-0.03343708 0.046762734 -3.5480421e-21)
(-0.03559544 0.046059126 -3.8828903e-20)
(-0.037639509 0.045142222 4.8563126e-20)
(-0.03952487 0.044150971 -1.0211224e-20)
(-0.041194653 0.043199526 2.151294e-20)
(-0.042576887 0.042386019 -3.3132784e-21)
(-0.043580909 0.041809517 3.2846063e-20)
(-0.044092023 0.041585814 1.5682156e-20)
(-0.043960577 0.041860594 1.9547726e-20)
(-0.042987633 0.042809834 -7.9204574e-20)
(-0.040901129 0.044634803 -2.6020298e-20)
(-0.03732493 0.047564824 3.4848811e-20)
(-0.031720028 0.05179668 -2.8272345e-20)
(-0.0232266 0.057566117 -2.3556181e-20)
(-0.010807772 0.065076841 2.659363e-20)