/*--------------------------------*- C++ -*----------------------------------*\
  =========                 |
  \\      /  F ield         | OpenFOAM: The Open Source CFD Toolbox
   \\    /   O peration     | Website:  https://openfoam.org
    \\  /    A nd           | Version:  13
     \\/     M anipulation  |
\*---------------------------------------------------------------------------*/
FoamFile
{
    format      ascii;
    class       volScalarField;
    location    "3600";
    object      epsilon;
}
// * * * * * * * * * * * * * * * * * * * * * * * * * * * * * * * * * * * * * //

dimensions      [0 2 -3 0 0 0 0];

internalField   nonuniform List<scalar> 
800
(
18.1711
18.1713
18.1714
18.1714
18.1716
18.1715
18.1716
18.1717
18.1717
18.1717
18.1715
18.1713
18.1711
18.1712
18.171
18.1708
18.1708
18.1708
18.1709
18.171
7.04472
7.04484
7.04483
7.04509
7.04509
7.04529
7.04555
7.04564
7.04549
7.04537
7.04523
7.04493
7.0449
7.04488
7.04508
7.04523
7.04529
7.04504
7.04541
7.04515
3.91627
3.91632
3.91634
3.91644
3.91648
3.91636
3.91627
3.91629
3.9163
3.91632
3.91638
3.91649
3.91644
3.9164
3.91643
3.91642
3.91639
3.91645
3.91662
3.9166
2.60975
2.60978
2.60979
2.60974
2.60978
2.60973
2.60974
2.60974
2.60971
2.60975
2.60984
2.60987
2.60987
2.60989
2.60991
2.60988
2.60985
2.60993
2.60994
2.61004
1.91959
1.91963
1.91964
1.91963
1.91966
1.91967
1.91971
1.91969
1.91964
1.91967
1.9197
1.9197
1.91973
1.91971
1.91974
1.91978
1.91982
1.91986
1.91983
1.91983
1.50135
1.50137
1.50144
1.50148
1.5015
1.50152
1.50153
1.50153
1.50155
1.50155
1.50155
1.50159
1.50161
1.50162
1.50163
1.50166
1.50167
1.50164
1.50163
1.50157
1.22482
1.22481
1.22486
1.22488
1.22489
1.22492
1.22492
1.22494
1.22499
1.22501
1.22501
1.22501
1.22503
1.22505
1.22506
1.22504
1.22504
1.22502
1.225
1.22498
1.03078
1.03077
1.03077
1.03077
1.03077
1.03079
1.0308
1.03082
1.03085
1.03087
1.0309
1.0309
1.0309
1.03091
1.03091
1.0309
1.0309
1.0309
1.0309
1.0309
0.888778
0.8888
0.8888
0.888818
0.888826
0.888839
0.888856
0.888862
0.888877
0.888882
0.888894
0.888899
0.888901
0.888902
0.888904
0.888898
0.888871
0.888871
0.888869
0.888862
0.781833
0.781858
0.781865
0.781878
0.781894
0.781902
0.781914
0.781923
0.781926
0.781934
0.781938
0.781938
0.781942
0.781925
0.781918
0.781914
0.781914
0.781908
0.781901
0.781901
0.699651
0.699656
0.699662
0.699665
0.699675
0.699689
0.699704
0.699716
0.699716
0.699723
0.699721
0.699721
0.69971
0.699709
0.699702
0.699703
0.69971
0.699708
0.699718
0.699712
0.635675
0.635679
0.635685
0.635689
0.635703
0.635713
0.635721
0.635721
0.635726
0.635726
0.635726
0.635723
0.635717
0.635721
0.635718
0.635723
0.635719
0.635729
0.635738
0.63573
0.585662
0.585665
0.58567
0.585678
0.585683
0.585689
0.585691
0.585694
0.585696
0.585696
0.585696
0.585698
0.585702
0.585704
0.585704
0.585709
0.58571
0.585717
0.585715
0.585709
0.546771
0.546769
0.546775
0.54678
0.546775
0.546779
0.546779
0.546786
0.546788
0.54679
0.546791
0.546795
0.5468
0.546807
0.546815
0.54682
0.546823
0.546821
0.546818
0.546813
0.517086
0.517084
0.517087
0.517088
0.517088
0.517089
0.517087
0.517084
0.517087
0.517093
0.517098
0.517101
0.517103
0.51711
0.517117
0.517118
0.517123
0.517124
0.517125
0.517124
0.49535
0.495353
0.495348
0.495346
0.495348
0.495348
0.495349
0.495348
0.495347
0.495347
0.495347
0.495353
0.495355
0.495359
0.495361
0.495361
0.495367
0.49537
0.495373
0.495369
0.480804
0.480808
0.480808
0.480807
0.480808
0.480803
0.480805
0.480808
0.480807
0.480805
0.480804
0.480803
0.480804
0.480805
0.480805
0.480807
0.480813
0.480815
0.480818
0.480817
0.473155
0.473161
0.473166
0.473169
0.473172
0.473172
0.473171
0.47317
0.47317
0.47317
0.473169
0.473166
0.473163
0.473162
0.473161
0.473162
0.473159
0.473163
0.473165
0.473169
0.472589
0.472591
0.472592
0.472592
0.472592
0.472594
0.472591
0.472591
0.472591
0.472591
0.472592
0.472593
0.472594
0.472592
0.472594
0.472595
0.472589
0.472591
0.472591
0.472592
0.479777
0.479774
0.479771
0.479768
0.479766
0.479764
0.479764
0.479761
0.479762
0.479762
0.479766
0.479767
0.47977
0.479771
0.479771
0.479772
0.479773
0.479776
0.479775
0.479777
0.495601
0.495597
0.495596
0.495597
0.495594
0.495595
0.495598
0.495596
0.495592
0.495592
0.495588
0.495588
0.495584
0.495587
0.495586
0.495589
0.495591
0.495594
0.495595
0.495598
0.519836
0.519838
0.51984
0.519842
0.519843
0.519842
0.519838
0.519842
0.519841
0.51984
0.519834
0.519829
0.519826
0.519823
0.519825
0.519825
0.519827
0.519823
0.519822
0.519823
0.551843
0.551848
0.551852
0.551854
0.551858
0.551858
0.551861
0.551864
0.551865
0.551866
0.551868
0.551862
0.551864
0.551857
0.551855
0.55185
0.551848
0.55184
0.551836
0.551834
0.59199
0.591988
0.591988
0.591989
0.591989
0.591996
0.592004
0.592007
0.592011
0.592014
0.592019
0.592019
0.592017
0.592015
0.592
0.591991
0.591979
0.591974
0.591972
0.59197
0.641065
0.641062
0.641061
0.64106
0.641058
0.641061
0.641059
0.641059
0.641061
0.641065
0.641061
0.641065
0.641057
0.64106
0.641055
0.641051
0.641044
0.641036
0.641034
0.641036
0.700291
0.700281
0.700281
0.70028
0.700278
0.700271
0.700264
0.700257
0.700255
0.700245
0.700245
0.700245
0.700246
0.700243
0.700253
0.700254
0.700259
0.700256
0.700255
0.700252
0.771441
0.771432
0.771421
0.771417
0.771412
0.771407
0.771401
0.771394
0.771395
0.771388
0.771384
0.771382
0.771389
0.771388
0.771384
0.771377
0.771378
0.771385
0.771386
0.771391
0.85705
0.857046
0.857045
0.857036
0.85703
0.857023
0.857018
0.857012
0.857006
0.857007
0.857014
0.857014
0.857017
0.857023
0.857019
0.857016
0.857008
0.857004
0.856997
0.857006
0.960743
0.960737
0.96074
0.960732
0.960722
0.960709
0.960697
0.960689
0.960681
0.960677
0.960691
0.960687
0.96068
0.960685
0.960691
0.960703
0.960699
0.960691
0.96068
0.960684
1.08759
1.0876
1.08758
1.08756
1.08754
1.08753
1.08752
1.08752
1.08752
1.08752
1.08751
1.0875
1.0875
1.08749
1.08749
1.0875
1.08751
1.08752
1.08753
1.08753
1.24497
1.24495
1.24491
1.24489
1.24487
1.24487
1.24487
1.24489
1.24488
1.24489
1.24487
1.24486
1.24486
1.24484
1.24485
1.24485
1.24487
1.24488
1.24489
1.24489
1.44401
1.44399
1.44396
1.44395
1.44394
1.44393
1.44395
1.44392
1.44392
1.44392
1.44392
1.44391
1.44391
1.44392
1.4439
1.44388
1.44387
1.44386
1.44386
1.44387
1.70212
1.70214
1.70217
1.70216
1.70217
1.70216
1.70217
1.70214
1.70211
1.70208
1.70208
1.70204
1.70204
1.70204
1.702
1.70198
1.70195
1.70193
1.70192
1.70194
2.04828
2.04829
2.04834
2.04836
2.04837
2.04835
2.04831
2.04831
2.04824
2.04821
2.04818
2.04816
2.04812
2.04805
2.048
2.04797
2.04796
2.04796
2.04797
2.04798
2.53373
2.53372
2.53376
2.53378
2.53376
2.53373
2.5337
2.53367
2.53362
2.53359
2.53352
2.53351
2.53343
2.5334
2.53337
2.53335
2.53335
2.53335
2.53335
2.53337
3.25834
3.25832
3.25824
3.25825
3.25825
3.25828
3.25822
3.25814
3.25813
3.25806
3.25797
3.2579
3.25791
3.25798
3.25801
3.25806
3.25802
3.25799
3.25795
3.25794
4.44227
4.44229
4.44222
4.44214
4.44223
4.44224
4.44225
4.44224
4.44222
4.44208
4.44213
4.44213
4.44218
4.44217
4.44216
4.44213
4.44209
4.44202
4.44197
4.44192
6.66793
6.66774
6.6678
6.66771
6.66772
6.6678
6.66811
6.66817
6.66823
6.66818
6.66829
6.66838
6.66826
6.6682
6.66805
6.6679
6.66784
6.66774
6.66758
6.66758
11.9753
11.9749
11.9744
11.9744
11.9742
11.9742
11.9741
11.974
11.9743
11.9747
11.9747
11.9749
11.975
11.975
11.975
11.975
11.9751
11.975
11.9749
11.9747
30.6319
30.6317
30.6314
30.6312
30.6311
30.631
30.631
30.6309
30.6309
30.631
30.6311
30.6314
30.6314
30.6316
30.6316
30.6317
30.6317
30.6319
30.6319
30.632
)
;

boundaryField
{
    movingWall
    {
        type            epsilonWallFunction;
        value           nonuniform List<scalar> 
20
(
30.6319
30.6317
30.6314
30.6312
30.6311
30.631
30.631
30.6309
30.6309
30.631
30.6311
30.6314
30.6314
30.6316
30.6316
30.6317
30.6317
30.6319
30.6319
30.632
)
;
    }
    bottomWall
    {
        type            epsilonWallFunction;
        value           nonuniform List<scalar> 
20
(
18.1711
18.1713
18.1714
18.1714
18.1716
18.1715
18.1716
18.1717
18.1717
18.1717
18.1715
18.1713
18.1711
18.1712
18.171
18.1708
18.1708
18.1708
18.1709
18.171
)
;
    }
    cyc_half0
    {
        type            cyclic;
    }
    cyc_half1
    {
        type            cyclic;
    }
    frontAndBack
    {
        type            empty;
    }
}


// ************************************************************************* //
