/*--------------------------------*- C++ -*----------------------------------*\
  =========                 |
  \\      /  F ield         | OpenFOAM: The Open Source CFD Toolbox
   \\    /   O peration     | Website:  https://openfoam.org
    \\  /    A nd           | Version:  13
     \\/     M anipulation  |
\*---------------------------------------------------------------------------*/
FoamFile
{
    format      ascii;
    class       volScalarField;
    location    "3600";
    object      nut;
}
// * * * * * * * * * * * * * * * * * * * * * * * * * * * * * * * * * * * * * //

dimensions      [0 2 -1 0 0 0 0];

internalField   nonuniform List<scalar> 
800
(
4.81827e-05
4.81827e-05
4.81829e-05
4.81832e-05
4.81831e-05
4.81833e-05
4.81829e-05
4.81823e-05
4.81823e-05
4.81823e-05
4.81822e-05
4.81819e-05
4.8182e-05
4.81817e-05
4.81814e-05
4.81816e-05
4.81819e-05
4.81822e-05
4.81815e-05
4.81818e-05
0.000138886
0.000138886
0.000138884
0.000138883
0.000138881
0.000138879
0.000138876
0.000138874
0.000138872
0.000138868
0.000138866
0.000138864
0.000138865
0.000138863
0.000138863
0.000138866
0.000138868
0.000138867
0.000138869
0.000138869
0.000239997
0.000239997
0.000239995
0.000239991
0.000239988
0.000239981
0.000239972
0.000239968
0.000239965
0.000239961
0.000239959
0.000239962
0.000239962
0.00023996
0.00023996
0.00023996
0.000239959
0.000239959
0.000239963
0.000239965
0.00035506
0.000355058
0.000355055
0.000355045
0.000355043
0.000355036
0.000355031
0.000355026
0.000355021
0.000355017
0.000355015
0.000355015
0.000355016
0.000355015
0.000355015
0.000355014
0.000355013
0.000355016
0.000355014
0.000355019
0.000482061
0.000482051
0.000482042
0.000482035
0.000482033
0.000482029
0.000482026
0.00048202
0.000482012
0.00048201
0.000482008
0.000482006
0.00048201
0.000482007
0.000482009
0.000482012
0.000482014
0.000482015
0.00048201
0.000482007
0.00061974
0.000619724
0.000619719
0.000619714
0.000619707
0.000619701
0.000619694
0.000619686
0.000619686
0.000619684
0.00061968
0.000619683
0.000619684
0.000619685
0.000619687
0.000619689
0.00061969
0.000619684
0.000619678
0.000619669
0.000767015
0.000767002
0.000766997
0.000766988
0.000766977
0.00076697
0.00076696
0.000766954
0.000766957
0.000766958
0.000766955
0.000766952
0.000766953
0.000766955
0.000766956
0.000766951
0.00076695
0.000766943
0.000766935
0.000766933
0.000922704
0.000922691
0.000922681
0.000922674
0.000922662
0.000922657
0.00092265
0.000922644
0.000922643
0.000922643
0.000922644
0.000922638
0.000922635
0.000922635
0.000922634
0.000922628
0.000922619
0.000922616
0.000922609
0.000922611
0.00108536
0.00108536
0.00108535
0.00108534
0.00108534
0.00108533
0.00108532
0.00108532
0.00108532
0.00108531
0.00108531
0.00108531
0.0010853
0.0010853
0.00108529
0.00108529
0.00108527
0.00108527
0.00108526
0.00108526
0.00125325
0.00125325
0.00125324
0.00125323
0.00125322
0.00125321
0.0012532
0.0012532
0.0012532
0.00125319
0.00125319
0.00125318
0.00125318
0.00125317
0.00125316
0.00125316
0.00125315
0.00125314
0.00125313
0.00125314
0.0014242
0.00142418
0.00142417
0.00142415
0.00142414
0.00142413
0.00142413
0.00142413
0.00142412
0.00142412
0.00142411
0.00142411
0.0014241
0.00142409
0.00142408
0.00142408
0.00142407
0.00142406
0.00142406
0.00142407
0.00159558
0.00159556
0.00159555
0.00159553
0.00159552
0.00159551
0.00159551
0.0015955
0.00159549
0.00159548
0.00159547
0.00159546
0.00159546
0.00159545
0.00159544
0.00159544
0.00159543
0.00159543
0.00159544
0.00159545
0.00176434
0.00176432
0.00176431
0.0017643
0.00176429
0.00176428
0.00176427
0.00176426
0.00176425
0.00176424
0.00176423
0.00176422
0.00176421
0.00176421
0.0017642
0.0017642
0.0017642
0.0017642
0.0017642
0.00176421
0.00192694
0.00192692
0.00192692
0.00192691
0.0019269
0.00192689
0.00192688
0.00192687
0.00192686
0.00192684
0.00192683
0.00192682
0.00192681
0.00192681
0.00192681
0.00192681
0.00192681
0.0019268
0.0019268
0.00192681
0.00207933
0.00207932
0.00207931
0.00207931
0.0020793
0.00207929
0.00207928
0.00207926
0.00207925
0.00207924
0.00207923
0.00207922
0.00207921
0.00207921
0.0020792
0.0020792
0.00207919
0.00207919
0.00207919
0.0020792
0.00221695
0.00221696
0.00221696
0.00221695
0.00221695
0.00221695
0.00221694
0.00221693
0.00221691
0.0022169
0.00221689
0.00221688
0.00221687
0.00221686
0.00221685
0.00221684
0.00221684
0.00221684
0.00221684
0.00221685
0.00233487
0.00233488
0.00233488
0.00233488
0.00233488
0.00233487
0.00233487
0.00233486
0.00233485
0.00233484
0.00233483
0.00233482
0.00233481
0.0023348
0.00233479
0.00233479
0.00233479
0.00233478
0.00233478
0.00233479
0.00242772
0.00242772
0.00242772
0.00242772
0.00242772
0.00242772
0.00242771
0.00242771
0.0024277
0.0024277
0.00242769
0.00242768
0.00242767
0.00242767
0.00242766
0.00242766
0.00242765
0.00242765
0.00242765
0.00242766
0.00248986
0.00248986
0.00248986
0.00248986
0.00248986
0.00248987
0.00248986
0.00248986
0.00248986
0.00248985
0.00248985
0.00248985
0.00248985
0.00248984
0.00248984
0.00248983
0.00248982
0.00248982
0.00248982
0.00248982
0.00251555
0.00251556
0.00251556
0.00251556
0.00251556
0.00251557
0.00251557
0.00251557
0.00251557
0.00251557
0.00251558
0.00251558
0.00251558
0.00251557
0.00251557
0.00251556
0.00251556
0.00251556
0.00251555
0.00251556
0.00249951
0.00249951
0.00249951
0.00249952
0.00249952
0.00249953
0.00249954
0.00249954
0.00249953
0.00249954
0.00249954
0.00249954
0.00249953
0.00249954
0.00249953
0.00249954
0.00249954
0.00249954
0.00249954
0.00249954
0.00244433
0.00244433
0.00244433
0.00244433
0.00244434
0.00244434
0.00244434
0.00244435
0.00244435
0.00244436
0.00244436
0.00244436
0.00244436
0.00244436
0.00244437
0.00244438
0.00244438
0.00244438
0.00244439
0.00244438
0.00235898
0.00235898
0.00235897
0.00235897
0.00235898
0.00235898
0.00235898
0.00235899
0.002359
0.00235901
0.00235901
0.00235902
0.00235903
0.00235903
0.00235904
0.00235904
0.00235905
0.00235904
0.00235905
0.00235904
0.00225066
0.00225066
0.00225066
0.00225066
0.00225066
0.00225067
0.00225068
0.00225069
0.00225069
0.0022507
0.00225071
0.00225072
0.00225072
0.00225073
0.00225073
0.00225073
0.00225073
0.00225074
0.00225074
0.00225073
0.00212539
0.0021254
0.0021254
0.00212541
0.00212541
0.00212542
0.00212542
0.00212543
0.00212543
0.00212544
0.00212544
0.00212545
0.00212544
0.00212545
0.00212546
0.00212546
0.00212547
0.00212547
0.00212548
0.00212548
0.00198808
0.00198809
0.0019881
0.00198811
0.00198811
0.00198811
0.00198811
0.00198811
0.00198811
0.00198811
0.00198811
0.00198812
0.00198813
0.00198813
0.00198815
0.00198816
0.00198817
0.00198817
0.00198818
0.00198817
0.00184267
0.00184268
0.00184268
0.00184268
0.00184269
0.00184269
0.00184269
0.00184269
0.00184269
0.00184269
0.00184269
0.0018427
0.00184271
0.00184272
0.00184273
0.00184274
0.00184275
0.00184276
0.00184277
0.00184277
0.00169232
0.00169232
0.00169233
0.00169233
0.00169233
0.00169233
0.00169233
0.00169233
0.00169233
0.00169233
0.00169234
0.00169235
0.00169236
0.00169238
0.00169238
0.00169239
0.0016924
0.00169241
0.00169241
0.00169241
0.00153952
0.00153953
0.00153954
0.00153955
0.00153955
0.00153954
0.00153955
0.00153955
0.00153955
0.00153956
0.00153957
0.00153958
0.00153958
0.00153959
0.0015396
0.00153961
0.00153962
0.00153962
0.00153962
0.00153962
0.00138626
0.00138628
0.00138628
0.00138628
0.00138628
0.00138628
0.00138628
0.00138629
0.0013863
0.00138631
0.00138631
0.00138632
0.00138632
0.00138632
0.00138633
0.00138634
0.00138635
0.00138636
0.00138636
0.00138636
0.00123404
0.00123403
0.00123403
0.00123403
0.00123403
0.00123404
0.00123405
0.00123406
0.00123407
0.00123408
0.00123408
0.00123408
0.00123409
0.00123409
0.0012341
0.0012341
0.00123411
0.00123412
0.00123412
0.00123412
0.00108396
0.00108396
0.00108396
0.00108396
0.00108397
0.00108398
0.00108399
0.001084
0.00108401
0.00108402
0.00108402
0.00108403
0.00108403
0.00108404
0.00108404
0.00108404
0.00108404
0.00108404
0.00108405
0.00108405
0.000936944
0.000936958
0.00093697
0.00093698
0.000936991
0.000937001
0.000937013
0.000937016
0.000937022
0.000937023
0.000937031
0.000937029
0.000937035
0.000937039
0.000937039
0.00093704
0.000937039
0.00093704
0.000937042
0.000937043
0.000793743
0.000793761
0.000793777
0.000793789
0.0007938
0.000793804
0.000793808
0.000793815
0.000793814
0.000793817
0.000793819
0.000793819
0.000793818
0.000793813
0.000793814
0.000793817
0.000793821
0.000793827
0.000793832
0.000793834
0.000654979
0.000654989
0.000655004
0.000655012
0.000655017
0.00065502
0.000655023
0.000655027
0.000655027
0.000655029
0.000655027
0.000655028
0.000655022
0.00065502
0.000655022
0.000655023
0.000655028
0.000655034
0.000655041
0.000655047
0.000521264
0.000521273
0.00052128
0.000521288
0.000521292
0.000521295
0.000521293
0.000521294
0.000521296
0.000521295
0.000521293
0.000521292
0.000521296
0.0005213
0.000521303
0.000521307
0.000521306
0.000521309
0.000521315
0.00052132
0.000393433
0.000393438
0.00039344
0.000393444
0.00039345
0.000393451
0.000393449
0.000393448
0.000393446
0.000393444
0.000393446
0.000393446
0.000393451
0.000393454
0.000393456
0.000393459
0.00039346
0.000393462
0.000393466
0.000393468
0.000272811
0.000272812
0.000272817
0.000272818
0.000272821
0.000272823
0.000272827
0.000272828
0.000272827
0.000272826
0.000272828
0.000272828
0.000272826
0.000272826
0.000272825
0.000272826
0.000272826
0.000272826
0.000272828
0.000272831
0.000162104
0.000162104
0.000162104
0.000162106
0.000162105
0.000162106
0.000162107
0.000162109
0.000162113
0.000162116
0.000162117
0.000162118
0.000162119
0.000162119
0.000162119
0.000162119
0.000162118
0.000162118
0.000162117
0.000162117
5.72772e-05
5.72773e-05
5.72777e-05
5.72776e-05
5.72772e-05
5.72773e-05
5.72774e-05
5.72776e-05
5.72773e-05
5.72774e-05
5.72771e-05
5.72769e-05
5.72769e-05
5.72769e-05
5.7277e-05
5.7277e-05
5.72771e-05
5.7277e-05
5.7277e-05
5.7277e-05
)
;

boundaryField
{
    movingWall
    {
        type            nutkWallFunction;
        Cmu             0.09;
        kappa           0.41;
        E               9.8;
        value           nonuniform List<scalar> 
20
(
6.81492e-06
6.81492e-06
6.81491e-06
6.81489e-06
6.81488e-06
6.81487e-06
6.81487e-06
6.81488e-06
6.81487e-06
6.81488e-06
6.81488e-06
6.81488e-06
6.81489e-06
6.81489e-06
6.8149e-06
6.8149e-06
6.81491e-06
6.81491e-06
6.81492e-06
6.81492e-06
)
;
    }
    bottomWall
    {
        type            nutkWallFunction;
        Cmu             0.09;
        kappa           0.41;
        E               9.8;
        value           nonuniform List<scalar> 
20
(
5.63097e-06
5.63098e-06
5.63099e-06
5.63101e-06
5.63102e-06
5.63102e-06
5.63101e-06
5.63101e-06
5.63101e-06
5.631e-06
5.63098e-06
5.63096e-06
5.63094e-06
5.63094e-06
5.63091e-06
5.6309e-06
5.63091e-06
5.63092e-06
5.63091e-06
5.63093e-06
)
;
    }
    cyc_half0
    {
        type            cyclic;
    }
    cyc_half1
    {
        type            cyclic;
    }
    frontAndBack
    {
        type            empty;
    }
}


// ************************************************************************* //
