/*--------------------------------*- C++ -*----------------------------------*\
  =========                 |
  \\      /  F ield         | OpenFOAM: The Open Source CFD Toolbox
   \\    /   O peration     | Website:  https://openfoam.org
    \\  /    A nd           | Version:  13
     \\/     M anipulation  |
\*---------------------------------------------------------------------------*/
FoamFile
{
    format      ascii;
    class       volScalarField;
    location    "3600";
    object      p;
}
// * * * * * * * * * * * * * * * * * * * * * * * * * * * * * * * * * * * * * //

dimensions      [0 2 -2 0 0 0 0];

internalField   nonuniform List<scalar> 
800
(
4.19216e-06
4.13729e-05
3.48514e-05
-9.03801e-07
4.22636e-06
1.79576e-05
1.0271e-05
1.21143e-05
5.33526e-05
0.000116497
0.000143877
6.2444e-05
-1.30073e-05
1.84435e-05
6.64877e-05
2.06113e-05
2.60607e-05
5.47623e-05
1.13894e-05
-1.93727e-05
2.0006e-05
3.7341e-05
3.50501e-05
2.10554e-06
2.17588e-06
1.15843e-05
8.34677e-06
8.1624e-06
5.30246e-05
0.000111797
0.000147309
7.30691e-05
-8.26787e-06
1.69662e-05
4.98932e-05
1.82733e-05
3.30468e-05
5.75482e-05
7.57011e-06
-1.32856e-05
2.28128e-05
4.57764e-05
2.97285e-05
-1.21659e-07
4.13436e-06
1.1348e-05
-2.80558e-06
5.56739e-06
5.3478e-05
0.000104164
0.000147337
9.19465e-05
1.56916e-07
1.63594e-05
3.54362e-05
2.12784e-05
4.28724e-05
4.62401e-05
6.62529e-06
-6.22618e-06
2.34802e-05
4.68988e-05
2.21087e-05
-1.89561e-06
8.24573e-06
8.51807e-06
-1.81855e-05
5.33638e-06
5.78431e-05
8.85806e-05
0.000127155
9.93159e-05
4.96974e-06
1.18146e-05
4.19877e-05
3.10245e-05
5.61937e-05
3.60473e-05
8.4317e-06
2.75391e-06
4.10705e-05
5.1303e-05
2.25898e-05
-8.10952e-06
2.65056e-06
-3.06127e-06
-2.46105e-05
6.81197e-06
5.81683e-05
7.86336e-05
0.00012085
8.94865e-05
1.15202e-05
1.06317e-05
4.07445e-05
4.09271e-05
5.27551e-05
3.8556e-05
-6.49363e-06
3.43646e-06
5.66547e-05
4.59939e-05
-4.94897e-06
-1.13268e-05
5.36249e-06
1.87703e-05
-1.61557e-05
6.52457e-06
4.30503e-05
6.79624e-05
0.000108598
6.10496e-05
1.58656e-05
3.47431e-05
3.52462e-05
3.93698e-05
5.47476e-05
4.52519e-05
-8.55209e-06
3.86356e-06
6.72933e-05
2.56201e-05
-1.85243e-05
-1.23203e-05
7.78995e-06
3.96139e-05
-2.53489e-06
1.51596e-06
3.40275e-05
6.63483e-05
9.56373e-05
4.03444e-05
3.00717e-05
5.64438e-05
5.2807e-05
4.12539e-05
5.4139e-05
5.262e-05
-4.53775e-06
5.66927e-06
8.20936e-05
1.15267e-05
-2.29991e-05
-4.76873e-06
-1.03493e-06
4.23095e-05
1.25726e-05
-6.04513e-06
3.447e-05
6.22585e-05
0.000107482
4.99967e-05
3.54865e-05
7.61015e-05
7.57589e-05
4.33582e-05
3.66848e-05
3.75019e-05
-1.42586e-05
1.12885e-05
7.87312e-05
2.62869e-05
-2.48227e-05
-2.42768e-06
8.96976e-06
2.54294e-05
4.95013e-05
4.36017e-06
3.64442e-05
7.08992e-05
0.000102011
8.03404e-05
3.90746e-05
7.49998e-05
9.36962e-05
7.12198e-05
2.31915e-05
7.17381e-06
-1.84407e-05
1.57307e-05
4.77284e-05
1.78476e-05
-1.18844e-05
-1.56912e-06
2.75145e-05
3.18904e-05
6.39681e-05
1.36497e-05
3.23725e-05
7.60224e-05
8.24388e-05
6.01142e-05
6.54158e-05
8.72916e-05
0.000101828
0.000111052
1.41477e-05
-3.17897e-06
-3.25441e-05
2.12278e-06
2.25263e-05
1.3735e-05
2.42364e-05
1.51203e-06
1.12008e-05
1.36905e-05
2.88845e-05
3.2222e-05
1.93389e-05
5.62045e-05
0.00010009
5.59278e-05
8.37604e-05
0.000122691
9.82707e-05
8.12197e-05
1.4943e-05
7.36204e-06
-5.97666e-05
-1.33547e-05
2.06708e-05
2.02778e-05
5.43749e-05
1.1389e-05
-4.63675e-05
-2.86163e-05
2.06892e-05
5.60379e-05
4.32332e-06
3.44404e-05
0.000114139
7.18398e-05
7.65458e-05
9.62694e-05
9.5827e-05
0.000121332
1.34901e-05
-4.30921e-05
-4.58741e-05
-1.42613e-05
2.97355e-05
1.94503e-05
6.18508e-05
-5.01868e-06
-6.00482e-05
-4.09007e-05
2.59029e-05
7.04714e-05
7.90125e-06
1.516e-05
0.00010123
9.71105e-05
7.19204e-05
0.000114544
0.000108603
0.000105282
-4.19888e-05
-7.58279e-05
-3.69646e-05
-3.80015e-06
3.5944e-05
1.39817e-05
2.93535e-05
1.67796e-05
-7.52727e-05
-5.41719e-05
4.68632e-06
5.45334e-05
4.10269e-05
1.34792e-05
8.49204e-05
7.90307e-05
9.22133e-05
0.000140205
0.000120547
7.72465e-05
-6.82271e-05
-7.11027e-05
-2.32546e-05
1.26825e-05
7.41508e-05
-1.95765e-06
2.9159e-06
5.39729e-05
-6.4894e-05
-5.84956e-05
-8.27857e-07
6.06806e-06
1.88946e-06
3.61753e-05
0.000129709
9.15265e-05
9.4096e-05
9.66923e-05
0.000117161
9.23272e-05
-5.43213e-05
-9.41764e-05
-4.46416e-05
2.909e-05
4.06705e-05
-2.87863e-05
-1.73177e-06
2.35259e-05
-6.73036e-05
-5.21215e-05
1.8577e-05
6.69303e-06
-1.96179e-05
4.55847e-05
0.000104191
0.000107595
0.000136218
0.000113536
0.000125339
9.75466e-05
-5.74016e-05
-9.74651e-05
-2.77543e-05
2.80045e-05
-2.82436e-06
-1.83791e-05
-2.83856e-05
6.1086e-06
-6.55558e-05
-6.88832e-05
-1.22929e-05
-1.60965e-05
7.75738e-06
8.40014e-05
0.000109937
8.56087e-05
0.000109755
0.000137104
0.000173616
2.97052e-05
-8.11268e-05
-9.49606e-05
-3.08939e-06
4.41436e-05
-1.36794e-05
-5.93718e-05
-5.69952e-05
1.10322e-05
-1.85155e-05
-3.78534e-05
-2.06784e-05
-3.88212e-05
-1.26033e-05
8.29551e-05
0.000137013
0.000140414
0.000117739
0.00014525
0.000206809
1.08778e-05
-7.9003e-05
-7.566e-05
-1.31086e-05
4.59412e-05
-5.18403e-07
-6.43751e-05
-0.000116007
-5.55618e-05
-2.73943e-05
1.43159e-05
-4.67227e-07
-3.18173e-05
-2.0987e-05
6.63807e-05
0.000137547
0.000119865
0.000143146
0.000154565
0.000161592
8.66668e-05
-8.19959e-05
-5.57209e-05
-2.62123e-05
1.6488e-05
1.24489e-05
-9.3363e-05
-0.000131808
-5.56049e-05
-1.35899e-05
5.45355e-05
-1.3891e-05
-3.17962e-05
-1.54049e-05
-6.17755e-06
6.06946e-05
0.000128063
0.000206291
0.000152132
0.000135447
0.000165212
-5.46758e-05
-5.45311e-05
-3.75218e-05
8.9346e-06
4.71715e-05
-0.000112579
-0.000185471
-0.000125106
-2.41696e-05
-3.67432e-05
3.97852e-07
-2.38215e-06
5.05977e-06
4.29019e-05
2.67816e-05
0.000112846
0.000194736
0.000170061
9.89163e-05
8.78519e-05
-2.86679e-05
-7.35315e-06
1.84396e-05
4.20216e-05
5.41845e-05
-0.00011615
-0.000191624
-9.45694e-05
4.56315e-05
-3.39985e-05
-4.41705e-05
4.56984e-06
1.75122e-05
5.22107e-05
5.21682e-05
0.000101469
0.000152881
0.000103273
5.39314e-05
4.41404e-05
2.47989e-05
3.46816e-05
6.93408e-05
8.44001e-05
5.14769e-05
-7.67135e-05
-0.000114904
-9.4014e-05
1.09004e-05
8.19402e-06
-3.39337e-05
2.31161e-05
1.58804e-05
5.32991e-05
9.77067e-05
7.51008e-05
0.00010086
4.5486e-05
3.25852e-05
2.11183e-05
3.70695e-05
5.07387e-05
4.964e-05
9.39783e-05
6.05228e-05
-4.52457e-05
-9.47793e-05
-6.08339e-05
1.51712e-06
-4.62388e-05
-1.72567e-05
7.03874e-05
2.81537e-05
1.3331e-05
5.80086e-05
6.14281e-05
6.28975e-05
5.13715e-05
3.59434e-05
1.8351e-05
-2.53981e-06
1.54994e-05
4.35046e-05
0.000130395
7.92417e-05
-1.89925e-06
-2.36919e-05
-7.04129e-05
-6.10322e-05
-4.8169e-05
3.46765e-05
0.000103455
2.72542e-05
3.2623e-05
5.88693e-05
2.51737e-05
4.03421e-05
3.98421e-05
5.72074e-05
3.23573e-05
-2.9127e-05
-1.40009e-05
4.66533e-05
8.95242e-05
0.000101846
2.83587e-05
-4.58848e-05
-9.68909e-05
-5.68333e-05
-1.70406e-05
3.1359e-05
8.46905e-05
4.87628e-05
4.93271e-05
1.1349e-05
1.56176e-05
6.4644e-05
3.02494e-06
-2.16621e-06
1.35717e-05
-2.91398e-05
1.02843e-05
7.79347e-05
0.000105309
0.000139803
5.85684e-05
-9.1249e-05
-0.000111998
-4.78677e-05
-3.23398e-06
2.95379e-05
7.24255e-05
9.60581e-05
6.79399e-05
-3.3664e-05
-1.45947e-05
4.06653e-05
-2.87521e-05
-2.38982e-05
-1.44011e-05
-2.74232e-05
2.39553e-05
9.55111e-05
0.000114984
0.000195877
9.3103e-05
-9.59368e-05
-9.84732e-05
-4.72056e-05
-5.62069e-06
3.24405e-05
4.8154e-05
7.78548e-05
4.30221e-05
-5.54596e-05
-3.01216e-05
-3.55866e-06
-4.87542e-05
-5.42505e-06
2.3395e-05
-1.25142e-05
1.67231e-05
7.90059e-05
0.000133485
0.000211391
6.08643e-05
-7.55527e-05
-6.16053e-05
-5.32667e-05
-2.71158e-05
1.333e-05
1.58268e-05
6.04941e-05
-1.51868e-05
-5.30618e-05
-2.90608e-05
-4.92108e-05
-7.88173e-05
-2.4685e-05
5.38819e-05
4.95038e-05
4.02409e-05
6.68671e-05
0.000142348
0.000204052
7.74397e-05
-4.09143e-05
-4.4246e-05
-3.1472e-05
-1.52303e-05
-1.18132e-05
-3.21349e-05
-1.80246e-05
-7.23769e-05
-5.7122e-05
-3.55535e-05
-7.59302e-05
-8.28402e-05
-3.59353e-05
4.3188e-05
8.14814e-05
6.595e-05
6.45722e-05
0.000148873
0.000205548
0.000111631
-8.28014e-07
-2.62535e-05
-6.0585e-05
-2.26773e-05
-4.50699e-05
-7.37025e-05
-3.27558e-05
-4.32642e-05
-7.12116e-05
-8.8005e-05
-7.70974e-05
-7.53405e-05
-3.16808e-05
2.14056e-05
6.2286e-05
8.55327e-05
7.11405e-05
0.000158247
0.00021018
0.000175175
3.27806e-06
-8.44136e-05
-6.34842e-05
-2.18419e-05
-9.21602e-05
-8.25781e-05
-7.01949e-05
-4.56014e-05
-3.78341e-05
-0.000100723
-9.55405e-05
-9.3978e-05
-1.70367e-05
4.20173e-06
6.30982e-05
9.76641e-05
7.77365e-05
0.000154104
0.000199929
0.000164097
5.26367e-05
-7.13179e-05
-3.51305e-05
-4.79172e-05
-0.000104921
-9.12145e-05
-6.78336e-05
-6.56607e-05
-5.63269e-05
-7.99104e-05
-0.000127921
-9.12644e-05
-2.06389e-05
1.95697e-06
4.91637e-05
8.90527e-05
9.02967e-05
0.000160407
0.000206785
0.000112538
5.9091e-05
-1.9221e-05
-2.60965e-05
-7.19691e-05
-0.000104957
-9.86998e-05
-6.87216e-05
-6.97109e-05
-6.01377e-05
-6.16075e-05
-0.000115268
-0.00010103
-4.93778e-05
2.74738e-06
5.5407e-05
9.21468e-05
8.59968e-05
0.000160157
0.000181596
0.000104556
4.17371e-05
-1.97232e-06
-1.19536e-05
-3.04328e-05
-0.000110885
-0.000106608
-6.80843e-05
-7.77099e-05
-5.93093e-05
-4.89599e-05
-9.49487e-05
-0.000107789
-3.92522e-05
-2.5423e-06
3.59616e-05
7.59553e-05
9.66841e-05
0.000151372
0.000182231
0.000106532
2.65134e-05
1.39278e-05
4.84954e-06
-7.12989e-05
-0.000123187
-9.65854e-05
-7.51268e-05
-7.79695e-05
-4.16516e-05
-3.59256e-05
-0.000109377
-0.000130105
-3.87254e-05
2.66923e-05
3.62862e-05
7.55105e-05
9.49237e-05
0.000144668
0.000169068
0.000129906
3.05981e-05
1.42083e-05
2.00546e-05
-6.15915e-05
-0.0001179
-0.000119962
-7.71881e-05
-8.13987e-05
-8.4301e-05
-6.55206e-05
-0.000103174
-0.000128535
-4.18079e-05
2.73702e-05
3.50332e-05
8.74897e-05
0.000103462
0.000138648
0.000164745
0.000122298
4.6137e-05
1.21466e-05
1.94359e-05
-5.14967e-05
-0.000122963
-0.000115782
-7.44092e-05
-0.000112016
-0.000101454
-7.0889e-05
-0.000128987
-0.000123592
-3.22275e-05
2.77302e-05
3.4494e-05
0.000100179
0.000104331
0.000148752
0.000154244
0.000128107
5.73285e-05
1.73715e-05
1.74212e-05
-6.24023e-05
-0.000111498
-9.92462e-05
-0.000105537
-0.000118679
-8.85363e-05
-7.57846e-05
-0.00012421
-0.00011665
-2.64478e-05
1.21324e-05
3.55075e-05
9.02293e-05
0.000106536
0.000147246
0.000149847
0.000140411
7.86864e-05
1.96434e-05
1.34926e-05
-4.93282e-05
-9.89066e-05
-9.76698e-05
-0.000116612
-0.000116243
-9.75863e-05
-7.67844e-05
-0.000115665
-0.000120362
-2.31336e-05
4.75526e-06
4.01597e-05
9.30334e-05
9.89093e-05
0.000146226
)
;

boundaryField
{
    movingWall
    {
        type            zeroGradient;
    }
    bottomWall
    {
        type            zeroGradient;
    }
    cyc_half0
    {
        type            cyclic;
    }
    cyc_half1
    {
        type            cyclic;
    }
    frontAndBack
    {
        type            empty;
    }
}


// ************************************************************************* //
