/*--------------------------------*- C++ -*----------------------------------*\
  =========                 |
  \\      /  F ield         | OpenFOAM: The Open Source CFD Toolbox
   \\    /   O peration     | Website:  https://openfoam.org
    \\  /    A nd           | Version:  13
     \\/     M anipulation  |
\*---------------------------------------------------------------------------*/
FoamFile
{
    format      ascii;
    class       surfaceScalarField;
    location    "3600";
    object      phi;
}
// * * * * * * * * * * * * * * * * * * * * * * * * * * * * * * * * * * * * * //

dimensions      [0 3 -1 0 0 0 0];

internalField   nonuniform List<scalar> 
1540
(
3.62641e-05
-7.22179e-10
3.62648e-05
-7.04359e-10
3.62651e-05
-3.05707e-10
3.62649e-05
2.46707e-10
3.62649e-05
-7.85777e-11
3.62645e-05
4.336e-10
3.62638e-05
6.49872e-10
3.62637e-05
1.48772e-10
3.62641e-05
-4.11108e-10
3.62639e-05
2.00589e-10
3.62637e-05
1.78178e-10
3.62637e-05
2.37273e-11
3.62637e-05
-1.74856e-11
3.62633e-05
3.99429e-10
3.6263e-05
3.1553e-10
3.62633e-05
-2.96699e-10
3.6264e-05
-6.98409e-10
3.6264e-05
4.29149e-11
3.62637e-05
2.81916e-10
-3.97983e-10
4.4741e-05
-6.0097e-10
4.47415e-05
-1.15857e-09
4.47415e-05
-3.41331e-10
4.47413e-05
4.29531e-10
4.47417e-05
-4.9923e-10
4.47428e-05
-5.86191e-10
4.47427e-05
6.64714e-10
4.47423e-05
5.78421e-10
4.47417e-05
2.1766e-10
4.47412e-05
6.58777e-10
4.47408e-05
5.85052e-10
4.47408e-05
-1.69483e-11
4.47413e-05
-4.52237e-10
4.47415e-05
1.95429e-10
4.47417e-05
1.58246e-10
4.47417e-05
-3.84118e-10
4.47416e-05
-5.70316e-10
4.47411e-05
5.34138e-10
4.47413e-05
7.26139e-11
-2.39143e-10
5.09302e-05
-1.05575e-09
5.09302e-05
-1.15616e-09
5.09305e-05
-6.77679e-10
5.09307e-05
2.92686e-10
5.09309e-05
-7.44211e-10
5.09312e-05
-9.05889e-10
5.0931e-05
8.34232e-10
5.09308e-05
7.85537e-10
5.09308e-05
2.62127e-10
5.09303e-05
1.12809e-09
5.09292e-05
1.70579e-09
5.09292e-05
-8.20343e-11
5.09296e-05
-7.87827e-10
5.09297e-05
5.98962e-11
5.093e-05
-1.23105e-10
5.09302e-05
-5.47584e-10
5.09298e-05
-2.35766e-10
5.093e-05
4.0563e-10
5.09296e-05
4.10524e-10
-3.66242e-10
5.64937e-05
-9.00811e-10
5.64932e-05
-6.6305e-10
5.64938e-05
-1.23917e-09
5.6494e-05
8.0335e-11
5.64937e-05
-4.72289e-10
5.64929e-05
-1.0237e-10
5.64931e-05
5.68747e-10
5.64937e-05
2.26e-10
5.64935e-05
4.86778e-10
5.64931e-05
1.46283e-09
5.64943e-05
5.82779e-10
5.64939e-05
2.74157e-10
5.64936e-05
-5.21e-10
5.64937e-05
-2.88432e-11
5.64937e-05
-4.2016e-11
5.64931e-05
1.18245e-11
5.64927e-05
1.94233e-10
5.64935e-05
-4.68716e-10
5.64939e-05
2.33915e-11
-3.12382e-10
6.18874e-05
-8.92706e-10
6.1887e-05
-2.45053e-10
6.18859e-05
-1.88422e-10
6.18862e-05
-2.33323e-10
6.18867e-05
-9.47122e-10
6.18868e-05
-1.44816e-10
6.18869e-05
4.56775e-10
6.18864e-05
7.20658e-10
6.18863e-05
5.09532e-10
6.18869e-05
9.48116e-10
6.18867e-05
7.85045e-10
6.18862e-05
7.1008e-10
6.18866e-05
-9.04139e-10
6.18867e-05
-9.94392e-11
6.18863e-05
3.00667e-10
6.18858e-05
5.98011e-10
6.18858e-05
1.75042e-10
6.1886e-05
-6.53178e-10
6.18868e-05
-8.10625e-10
-9.63373e-10
6.73118e-05
-8.39205e-10
6.73112e-05
3.8618e-10
6.73107e-05
2.60098e-10
6.73113e-05
-8.44123e-10
6.73112e-05
-7.69813e-10
6.7311e-05
-7.13882e-12
6.73111e-05
3.58786e-10
6.73102e-05
1.61268e-09
6.73098e-05
9.42628e-10
6.73109e-05
-1.26118e-10
6.73117e-05
-9.32491e-11
6.73115e-05
9.20438e-10
6.73105e-05
1.56321e-10
6.73103e-05
1.05586e-10
6.73113e-05
-7.54846e-10
6.7312e-05
-5.16476e-11
6.73122e-05
-6.52e-11
6.73123e-05
-7.76639e-10
6.73121e-05
-5.51964e-10
-7.88764e-10
7.28784e-05
-8.93089e-10
7.28794e-05
-6.51045e-10
7.28801e-05
-4.1508e-10
7.28802e-05
-9.84761e-10
7.28798e-05
-3.46821e-10
7.28795e-05
2.65372e-10
7.28795e-05
3.9596e-10
7.28796e-05
1.48415e-09
7.28795e-05
1.02822e-09
7.28792e-05
2.04867e-10
7.28794e-05
-2.5061e-10
7.28799e-05
3.54357e-10
7.28802e-05
-9.50917e-11
7.28802e-05
6.73491e-11
7.28804e-05
-9.79079e-10
7.28808e-05
-4.67026e-10
7.28799e-05
8.6459e-10
7.28796e-05
-4.29272e-10
7.28791e-05
-6.84338e-11
-5.96922e-11
7.86647e-05
-2.23748e-10
7.86652e-05
-1.1859e-09
7.86655e-05
-7.44465e-10
7.86655e-05
-9.53145e-10
7.86653e-05
-1.50732e-10
7.86644e-05
1.12023e-09
7.86646e-05
2.09443e-10
7.86656e-05
4.86317e-10
7.86659e-05
6.92403e-10
7.86657e-05
4.22168e-10
7.86653e-05
1.90265e-10
7.86658e-05
-1.18122e-10
7.86657e-05
-3.66595e-11
7.86657e-05
1.09999e-10
7.86658e-05
-1.08743e-09
7.86661e-05
-8.61353e-10
7.86663e-05
7.03214e-10
7.86651e-05
7.30534e-10
7.86654e-05
-2.84732e-10
-3.68404e-11
8.47252e-05
6.98136e-10
8.47248e-05
-8.08245e-10
8.47256e-05
-1.50131e-09
8.47252e-05
-5.81489e-10
8.47249e-05
1.91886e-10
8.47252e-05
8.54818e-10
8.4725e-05
3.74041e-10
8.47256e-05
-1.0888e-10
8.4726e-05
2.47385e-10
8.47261e-05
3.78594e-10
8.47258e-05
4.79661e-10
8.47252e-05
4.90619e-10
8.47259e-05
-7.49801e-10
8.47265e-05
-5.48936e-10
8.47261e-05
-6.30101e-10
8.47258e-05
-6.2254e-10
8.47264e-05
1.6431e-10
8.47263e-05
7.72828e-10
8.47264e-05
-3.83365e-10
2.27511e-10
9.11068e-05
-3.86471e-10
9.11077e-05
-1.7272e-09
9.11078e-05
-1.61241e-09
9.11081e-05
-8.89148e-10
9.11079e-05
4.18966e-10
9.11073e-05
1.49126e-09
9.11069e-05
7.59285e-10
9.11074e-05
-6.8008e-10
9.11074e-05
2.51093e-10
9.11072e-05
5.62943e-10
9.11076e-05
1.44009e-10
9.11079e-05
1.94068e-10
9.11079e-05
-7.53344e-10
9.11077e-05
-3.55573e-10
9.11076e-05
-5.58555e-10
9.11059e-05
1.04306e-09
9.11059e-05
2.3507e-10
9.1106e-05
6.01266e-10
9.11057e-05
-7.38949e-11
2.42234e-10
9.78549e-05
-6.50509e-10
9.78546e-05
-1.4399e-09
9.78547e-05
-1.63285e-09
9.78548e-05
-1.01304e-09
9.78541e-05
1.11769e-09
9.7854e-05
1.55762e-09
9.78542e-05
5.61391e-10
9.78542e-05
-7.01904e-10
9.78548e-05
-3.18696e-10
9.78552e-05
2.10783e-10
9.78546e-05
6.9047e-10
9.78548e-05
-2.75907e-11
9.78545e-05
-4.4069e-10
9.78541e-05
3.23113e-11
9.78541e-05
-5.54006e-10
9.78548e-05
3.53944e-10
9.78545e-05
5.23534e-10
9.78534e-05
1.67296e-09
9.78536e-05
-2.12527e-10
-8.49838e-10
0.00010501
-1.38235e-09
0.00010501
-1.31529e-09
0.000105009
-1.0047e-09
0.000105009
-3.16032e-10
0.000105009
5.8376e-10
0.00010501
4.19473e-10
0.000105011
-4.33714e-10
0.000105011
-5.31933e-10
0.000105011
-1.13807e-11
0.000105011
2.50928e-10
0.000105011
3.42866e-10
0.000105011
5.2179e-10
0.00010501
1.55327e-11
0.00010501
-1.16831e-10
0.000105009
4.403e-10
0.000105009
1.04536e-09
0.000105008
1.19949e-09
0.000105009
8.91793e-10
0.000105009
-5.67824e-10
-1.17373e-09
0.000112616
-1.26703e-09
0.000112616
-7.56091e-10
0.000112615
-3.42971e-10
0.000112616
-1.38258e-09
0.000112617
-2.47429e-10
0.000112617
2.93356e-10
0.000112617
2.26664e-11
0.000112616
-3.27346e-10
0.000112617
-3.65274e-10
0.000112617
7.75508e-11
0.000112616
1.19073e-09
0.000112615
1.19086e-09
0.000112615
3.45804e-10
0.000112615
4.62498e-10
0.000112614
8.29596e-10
0.000112614
8.24312e-10
0.000112615
3.10393e-10
0.000112616
8.08254e-11
0.000112616
-9.28699e-10
-1.15112e-09
0.000120719
-2.04368e-09
0.000120719
-4.85702e-10
0.000120718
4.80717e-10
0.000120718
-1.28937e-09
0.000120719
-1.27581e-09
0.00012072
-8.13149e-10
0.000120721
-6.46961e-10
0.000120721
1.24218e-10
0.00012072
4.28249e-10
0.000120719
6.24145e-10
0.00012072
7.37984e-10
0.00012072
7.74712e-10
0.000120719
1.2256e-09
0.000120718
1.35998e-09
0.000120718
1.15929e-09
0.000120718
8.94015e-10
0.000120719
-4.96718e-10
0.000120719
-5.05441e-10
0.000120719
-2.08064e-10
-1.17201e-09
0.000129368
-4.70391e-10
0.000129369
-7.93515e-10
0.000129369
-2.30921e-10
0.000129369
-9.8988e-10
0.000129369
-1.4492e-09
0.00012937
-1.5109e-09
0.000129371
-1.22674e-09
0.000129371
4.19775e-11
0.00012937
6.9393e-10
0.00012937
8.75921e-10
0.000129369
1.63738e-09
0.000129369
9.83038e-10
0.00012937
4.24329e-10
0.000129371
5.29228e-10
0.000129372
-1.27889e-10
0.000129372
5.34802e-10
0.000129371
9.16925e-10
0.00012937
6.13884e-11
0.00012937
-3.05488e-10
-6.91979e-10
0.000138621
1.21384e-09
0.000138621
-1.14301e-09
0.000138622
-1.47853e-09
0.000138622
-1.01392e-09
0.000138622
-1.66272e-09
0.000138622
-1.23164e-09
0.000138621
3.96182e-12
0.000138621
-4.89202e-11
0.000138622
-4.15513e-10
0.000138623
-1.46128e-11
0.000138624
1.04253e-09
0.000138623
1.17706e-09
0.000138623
6.07885e-10
0.000138624
1.09209e-10
0.000138623
4.21911e-11
0.000138622
1.591e-09
0.000138623
4.54967e-10
0.000138623
-1.33257e-10
0.000138623
-3.74755e-10
2.10846e-10
0.000148542
7.35851e-10
0.00014854
7.37553e-10
0.000148539
-4.11201e-10
0.000148539
-8.96959e-10
0.000148539
-2.61521e-09
0.00014854
-2.10451e-09
0.000148541
-2.00395e-10
0.00014854
5.6906e-10
0.000148539
6.44873e-10
0.000148538
7.80275e-10
0.000148539
4.66745e-10
0.00014854
-4.71955e-10
0.000148541
4.24871e-11
0.000148541
3.20217e-10
0.00014854
3.71589e-10
0.000148542
2.54332e-10
0.000148542
5.2009e-10
0.000148541
2.5369e-10
0.000148541
1.72132e-10
-1.55777e-10
0.000159195
-2.74887e-10
0.000159195
6.30702e-10
0.000159195
-8.15334e-11
0.000159195
-4.93226e-10
0.000159193
-1.18525e-09
0.000159193
-1.44294e-09
0.000159193
-1.01767e-09
0.000159194
4.73714e-10
0.000159194
5.98951e-10
0.000159194
1.52311e-10
0.000159194
5.89053e-10
0.000159194
-1.91008e-10
0.000159193
3.01801e-10
0.000159193
7.1683e-10
0.000159193
5.57199e-10
0.000159195
-1.40919e-09
0.000159195
1.88739e-10
0.000159195
5.92658e-10
0.000159194
3.58347e-10
3.89109e-11
0.000170667
3.19907e-11
0.000170668
-2.00709e-10
0.000170668
-2.78968e-10
0.000170668
-5.12778e-10
0.000170668
-1.19291e-09
0.000170668
-1.47264e-09
0.000170667
-1.48796e-10
0.000170667
7.05742e-10
0.000170667
9.28637e-10
0.000170665
1.48668e-09
0.000170665
1.27977e-09
0.000170665
-1.97253e-10
0.000170665
2.34796e-10
0.000170665
6.11595e-10
0.000170665
7.96112e-10
0.000170664
-1.35914e-09
0.000170665
-4.79784e-10
0.000170666
-5.76043e-10
0.000170667
-5.02588e-10
8.91516e-11
0.000183061
-1.31278e-09
0.00018306
1.27454e-10
0.00018306
3.73679e-10
0.000183059
2.50172e-10
0.000183057
5.42988e-10
0.000183054
1.26709e-09
0.000183055
-3.4979e-10
0.000183056
-8.80175e-10
0.000183057
2.62579e-10
0.000183058
5.58302e-10
0.000183058
6.00912e-10
0.000183058
6.59719e-10
0.000183057
8.70922e-10
0.000183058
-3.68843e-10
0.000183058
3.6634e-10
0.000183057
4.13931e-10
0.000183056
-4.13618e-11
0.000183057
-1.848e-09
0.000183058
-6.06897e-10
-1.48168e-09
0.000185461
-7.32081e-11
0.000185461
2.7639e-10
0.000185461
4.9216e-10
0.000185461
1.11629e-10
0.000185461
4.88332e-10
0.000185461
1.18089e-09
0.00018546
1.10815e-09
0.000185459
-2.35052e-10
0.00018546
-4.91938e-10
0.00018546
3.20934e-11
0.000185461
-1.34995e-10
0.000185462
-5.5683e-11
0.000185462
5.70018e-10
0.00018546
1.77585e-09
0.00018546
6.3157e-10
0.00018546
-5.04445e-11
0.000185461
-9.63963e-10
0.000185462
-2.42358e-09
0.000185462
-9.90216e-10
-1.73379e-09
0.000177233
9.52284e-10
0.000177234
-1.36004e-10
0.000177235
-2.16895e-10
0.000177234
7.4338e-10
0.000177233
9.87993e-10
0.000177235
7.93508e-11
0.000177235
1.14428e-09
0.000177233
1.27882e-09
0.000177233
-3.82973e-10
0.000177234
-9.61486e-10
0.000177234
-6.48758e-10
0.000177234
6.85298e-10
0.000177235
-5.81324e-10
0.000177236
6.10925e-10
0.000177235
1.31541e-09
0.000177235
2.12727e-10
0.000177236
-1.53405e-09
0.000177235
-2.3719e-09
0.000177235
-5.47641e-10
-1.10037e-09
0.000169318
7.11494e-10
0.000169319
-6.58438e-10
0.000169319
-5.65852e-11
0.000169319
6.6665e-10
0.000169318
1.64354e-09
0.000169316
2.27362e-09
0.000169316
1.02414e-09
0.000169318
-5.96443e-10
0.000169318
-2.69298e-10
0.000169316
1.07173e-09
0.000169315
2.24012e-10
0.000169315
4.92893e-11
0.000169314
4.57736e-10
0.000169316
-1.3731e-09
0.000169318
-5.26996e-10
0.000169319
-8.64747e-10
0.000169319
-1.26982e-09
0.000169317
-6.84011e-10
0.000169317
-7.2084e-10
-1.55762e-09
0.000161723
-7.68288e-11
0.000161724
-1.24399e-09
0.000161724
-2.89961e-10
0.000161724
6.71479e-10
0.000161723
2.42931e-09
0.000161724
2.16594e-09
0.000161724
3.22544e-10
0.000161723
3.5213e-10
0.000161723
1.81654e-10
0.000161724
7.54184e-11
0.000161723
7.98854e-10
0.000161723
6.13425e-11
0.000161724
-2.10977e-11
0.000161724
-1.3715e-09
0.000161725
-1.52079e-09
0.000161725
-1.08565e-09
0.000161725
-1.07953e-09
0.000161724
-8.56691e-11
0.000161724
-3.78414e-10
-3.72574e-10
0.000154462
-5.94211e-10
0.000154461
-5.65965e-10
0.00015446
4.91798e-10
0.00015446
1.32706e-09
0.000154461
1.15955e-09
0.000154463
4.89949e-10
0.000154463
1.97453e-10
0.000154463
-8.51002e-11
0.000154463
7.6847e-11
0.000154463
2.6921e-10
0.000154463
8.60859e-10
0.000154463
4.54252e-10
0.000154463
-2.97754e-10
0.000154461
9.09122e-10
0.00015446
-6.09123e-10
0.000154459
-8.22318e-10
0.00015446
-1.2169e-09
0.00015446
-9.10317e-10
0.000154461
-7.14118e-10
-9.07525e-10
0.000147533
-1.2839e-09
0.000147534
-1.46906e-09
0.000147534
4.19991e-10
0.000147534
1.09881e-09
0.000147535
6.4938e-10
0.000147535
1.36222e-10
0.000147535
2.69645e-10
0.000147534
9.3319e-10
0.000147534
1.33932e-10
0.000147534
1.33557e-10
0.000147533
1.40913e-09
0.000147533
9.73258e-10
0.000147533
-5.85928e-10
0.000147534
-1.14751e-10
0.000147534
-3.18336e-10
0.000147533
-3.14069e-10
0.000147532
6.84675e-11
0.000147532
-7.20562e-10
0.000147533
-1.5665e-09
-3.75337e-10
0.000140938
-1.63455e-09
0.000140938
-1.38686e-09
0.000140938
-2.75172e-10
0.000140939
4.92972e-10
0.000140939
1.82411e-10
0.000140939
2.44036e-10
0.000140939
8.44408e-10
0.000140938
1.24523e-09
0.000140937
1.22501e-09
0.000140937
3.64176e-10
0.000140938
6.76761e-10
0.000140937
1.40357e-09
0.000140936
5.39784e-10
0.000140937
-7.90541e-10
0.000140938
-1.65201e-09
0.000140938
-2.64876e-10
0.000140938
8.77136e-11
0.000140938
-7.2788e-10
0.000140937
-6.81111e-10
-4.3627e-10
0.000134672
-1.48273e-09
0.000134671
-4.08894e-11
0.000134671
-1.81804e-10
0.000134672
-4.84419e-10
0.000134672
-3.41955e-10
0.000134672
-5.76862e-11
0.000134672
9.82131e-10
0.000134672
1.41474e-09
0.000134673
7.57491e-10
0.000134671
1.90419e-09
0.000134671
8.71741e-10
0.000134672
-2.33669e-12
0.000134673
1.39777e-10
0.000134671
5.82035e-10
0.000134669
4.32939e-10
0.000134669
-5.25899e-10
0.000134671
-1.26194e-09
0.000134672
-1.42453e-09
0.000134672
-9.72941e-10
-8.76371e-10
0.000128729
-4.44107e-10
0.00012873
-2.30535e-10
0.00012873
-7.79658e-10
0.00012873
-5.96113e-10
0.00012873
-5.99801e-10
0.000128731
-2.954e-10
0.00012873
1.19584e-09
0.000128729
2.53506e-09
0.000128729
1.32424e-09
0.00012873
6.09776e-10
0.000128731
1.74943e-10
0.000128731
-6.3731e-10
0.000128732
-4.78126e-10
0.000128732
7.21138e-10
0.000128732
6.51841e-10
0.000128731
9.63984e-11
0.000128731
-6.78429e-10
0.00012873
-1.20193e-09
0.00012873
-9.05831e-10
-1.02456e-09
0.00012311
1.93859e-10
0.000123111
-1.17478e-09
0.000123112
-1.19133e-09
0.000123112
-5.74887e-10
0.000123111
1.24864e-10
0.00012311
6.95426e-10
0.00012311
1.51315e-09
0.00012311
2.53671e-09
0.00012311
1.18312e-09
0.000123111
-6.36508e-10
0.000123112
-8.0067e-10
0.000123112
-9.54927e-11
0.000123112
-9.93279e-10
0.000123113
-1.3021e-10
0.000123113
6.89768e-10
0.000123113
2.79212e-10
0.000123112
4.33842e-10
0.00012311
-4.30421e-12
0.000123111
-1.043e-09
-1.54986e-09
0.000117814
-4.64986e-10
0.000117815
-2.29135e-09
0.000117814
-9.99282e-11
0.000117814
-2.31924e-10
0.000117813
2.98954e-10
0.000117813
9.08797e-10
0.000117814
1.10357e-09
0.000117814
1.95908e-09
0.000117814
9.97808e-10
0.000117814
-7.1727e-10
0.000117815
-8.6908e-10
0.000117815
-1.86041e-10
0.000117814
-6.2236e-10
0.000117814
-1.52977e-10
0.000117815
-1.05583e-10
0.000117815
-7.68845e-12
0.000117815
3.60868e-10
0.000117815
1.35473e-10
0.000117815
-3.04526e-10
-2.06326e-10
0.000112838
7.79197e-10
0.000112836
1.17875e-10
0.000112836
1.47742e-10
0.000112836
-4.32541e-10
0.000112836
2.418e-10
0.000112836
6.05039e-10
0.000112838
-1.96732e-10
0.000112839
7.06962e-10
0.000112839
7.11682e-10
0.000112838
2.12276e-11
0.000112838
-6.10668e-10
0.000112838
-4.11651e-10
0.000112838
1.3508e-10
0.000112838
-9.81665e-10
0.00011284
-1.33759e-09
0.00011284
-3.47051e-10
0.00011284
1.37752e-10
0.00011284
2.69993e-11
0.00011284
2.05407e-11
2.25129e-10
0.000108192
1.17173e-09
0.000108191
1.42347e-09
0.00010819
1.3018e-09
0.000108189
-3.3532e-11
0.00010819
-1.00562e-10
0.00010819
1.49462e-10
0.00010819
-9.71962e-11
0.000108191
-5.22513e-10
0.000108192
-2.81368e-10
0.000108192
-2.06862e-10
0.000108193
-9.84934e-10
0.000108193
-6.11135e-10
0.000108193
-4.64524e-11
0.000108193
-7.95543e-10
0.000108192
-4.19033e-10
0.000108192
-3.49715e-10
0.000108193
-4.14843e-10
0.000108193
-7.23618e-11
0.000108193
1.5255e-10
3.79127e-10
0.000103885
1.72017e-09
0.000103885
1.44545e-09
0.000103884
1.88446e-09
0.000103884
9.86794e-11
0.000103884
-2.79647e-10
0.000103886
-1.30794e-09
0.000103886
-4.99711e-10
0.000103886
-5.37207e-10
0.000103886
-5.33526e-10
0.000103887
-3.21678e-10
0.000103886
-1.88467e-10
0.000103886
-5.01461e-10
0.000103887
-1.11207e-09
0.000103887
-6.96112e-10
0.000103887
-2.54843e-10
0.000103886
-2.50746e-10
0.000103886
-2.16156e-10
0.000103886
-4.73362e-11
0.000103886
1.17963e-10
1.20674e-09
9.9948e-05
8.54754e-10
9.99483e-05
1.10516e-09
9.99485e-05
1.65704e-09
9.99481e-05
5.23095e-10
9.99478e-05
1.03747e-11
9.99468e-05
-2.79915e-10
9.99473e-05
-1.0531e-09
9.99474e-05
-6.057e-10
9.99476e-05
-6.98517e-10
9.99484e-05
-1.13995e-09
9.99486e-05
-3.86441e-10
9.99484e-05
-2.83764e-10
9.99471e-05
2.18456e-10
9.99462e-05
2.32481e-10
9.9946e-05
-5.3949e-11
9.99463e-05
-5.40958e-10
9.99472e-05
-1.04447e-09
9.99475e-05
-3.97927e-10
9.99471e-05
4.96362e-10
1.17243e-09
9.64264e-05
1.39426e-09
9.64267e-05
7.62482e-10
9.64277e-05
6.89688e-10
9.64268e-05
1.37472e-09
9.64259e-05
8.70948e-10
9.64269e-05
-1.25173e-09
9.64272e-05
-1.38828e-09
9.6427e-05
-3.12509e-10
9.64271e-05
-8.71882e-10
9.64266e-05
-5.86193e-10
9.64259e-05
3.0352e-10
9.64253e-05
3.50253e-10
9.64252e-05
3.6148e-10
9.64257e-05
-2.77504e-10
9.64259e-05
-2.33338e-10
9.64261e-05
-7.38942e-10
9.64262e-05
-1.15297e-09
9.64263e-05
-4.531e-10
9.64267e-05
1.22143e-10
8.57614e-10
9.34215e-05
3.97941e-10
9.34213e-05
9.89107e-10
9.34214e-05
5.5095e-10
9.34219e-05
8.27545e-10
9.34221e-05
6.85512e-10
9.3421e-05
-1.54465e-10
9.34203e-05
-6.52317e-10
9.34208e-05
-8.00926e-10
9.3421e-05
-1.08823e-09
9.34204e-05
4.1184e-11
9.34193e-05
1.43703e-09
9.342e-05
-3.52846e-10
9.34206e-05
-2.88779e-10
9.34207e-05
-3.29301e-10
9.34209e-05
-4.27816e-10
9.34205e-05
-3.42551e-10
9.34201e-05
-7.53579e-10
9.34203e-05
-5.58071e-10
9.34199e-05
4.61994e-10
2.18118e-10
9.11357e-05
1.31736e-10
9.11363e-05
3.84891e-10
9.11357e-05
1.15805e-09
9.11362e-05
3.26199e-10
9.11365e-05
3.21796e-10
9.11365e-05
-1.28679e-10
9.11367e-05
-8.2593e-10
9.11361e-05
-1.83824e-10
9.11353e-05
-2.89321e-10
9.11353e-05
1.48566e-12
9.1136e-05
8.10424e-10
9.11359e-05
-2.50522e-10
9.11359e-05
-2.7302e-10
9.11359e-05
-3.14125e-10
9.11358e-05
-3.48154e-10
9.11357e-05
-2.25251e-10
9.11355e-05
-5.32323e-10
9.11355e-05
-5.65653e-10
9.11358e-05
1.91614e-10
5.45084e-10
9.00733e-05
7.61117e-11
9.00739e-05
-1.93142e-10
9.00748e-05
2.24849e-10
9.00747e-05
4.05536e-10
9.00753e-05
-2.58436e-10
9.00759e-05
-6.82559e-10
9.00754e-05
-3.91634e-10
9.00748e-05
4.07558e-10
9.00742e-05
3.72632e-10
9.00742e-05
-1.74702e-11
9.00747e-05
3.46191e-10
9.00744e-05
4.45299e-11
9.00742e-05
-3.65651e-11
9.0074e-05
-5.86608e-11
9.00737e-05
-4.73622e-12
9.00735e-05
-1.04455e-11
9.00731e-05
-1.33165e-10
9.00725e-05
7.93487e-13
9.00727e-05
2.16453e-11
-1.29821e-10
9.21938e-05
9.21935e-05
9.21938e-05
9.21942e-05
9.21939e-05
9.21932e-05
9.21928e-05
9.21932e-05
9.21936e-05
9.21936e-05
9.2194e-05
9.2194e-05
9.2194e-05
9.2194e-05
9.2194e-05
9.21939e-05
9.21938e-05
9.21938e-05
9.21938e-05
)
;

boundaryField
{
    movingWall
    {
        type            calculated;
        value           uniform 0;
    }
    bottomWall
    {
        type            calculated;
        value           uniform 0;
    }
    cyc_half0
    {
        type            cyclic;
        value           nonuniform List<scalar> 
40
(
-0.000185462
-0.000183059
-0.000170667
-0.000159194
-0.000148541
-0.000138622
-0.00012937
-0.000120719
-0.000112616
-0.000105009
-9.78547e-05
-9.11057e-05
-8.47262e-05
-7.86653e-05
-7.28783e-05
-6.73119e-05
-6.18874e-05
-5.64939e-05
-5.09297e-05
-4.47412e-05
-3.62641e-05
-0.000177234
-0.000169318
-0.000161723
-0.000154461
-0.000147532
-0.000140937
-0.000134672
-0.00012873
-0.000123111
-0.000117813
-0.00011284
-0.000108192
-0.000103885
-9.99472e-05
-9.6427e-05
-9.34205e-05
-9.11355e-05
-9.00733e-05
-9.21937e-05
)
;
    }
    cyc_half1
    {
        type            cyclic;
        value           nonuniform List<scalar> 
40
(
0.000185462
0.000183059
0.000170667
0.000159194
0.000148541
0.000138622
0.00012937
0.000120719
0.000112616
0.000105009
9.78547e-05
9.11057e-05
8.47262e-05
7.86653e-05
7.28783e-05
6.73119e-05
6.18874e-05
5.64939e-05
5.09297e-05
4.47412e-05
3.62641e-05
0.000177234
0.000169318
0.000161723
0.000154461
0.000147532
0.000140937
0.000134672
0.00012873
0.000123111
0.000117813
0.00011284
0.000108192
0.000103885
9.99472e-05
9.6427e-05
9.34205e-05
9.11355e-05
9.00733e-05
9.21937e-05
)
;
    }
    frontAndBack
    {
        type            empty;
    }
}


// ************************************************************************* //
