/*--------------------------------*- C++ -*----------------------------------*\
  =========                 |
  \\      /  F ield         | OpenFOAM: The Open Source CFD Toolbox
   \\    /   O peration     | Website:  https://openfoam.org
    \\  /    A nd           | Version:  13
     \\/     M anipulation  |
\*---------------------------------------------------------------------------*/
FoamFile
{
    format      ascii;
    class       volVectorField;
    location    "3600";
    object      wallShearStress;
}
// * * * * * * * * * * * * * * * * * * * * * * * * * * * * * * * * * * * * * //

dimensions      [0 2 -2 0 0 0 0];

internalField   uniform (0 0 0);

boundaryField
{
    movingWall
    {
        type            calculated;
        value           nonuniform List<vector> 
20
(
(0.041311 3.2804e-09 0)
(0.0413107 1.6808e-07 0)
(0.0413118 -1.10098e-07 0)
(0.0413103 -1.81562e-07 0)
(0.0413102 8.13194e-08 0)
(0.0413112 1.44946e-08 0)
(0.0413114 -3.86163e-08 0)
(0.0413118 -1.34089e-07 0)
(0.0413105 -1.55666e-07 0)
(0.0413113 2.95444e-09 0)
(0.0413105 -5.68138e-08 0)
(0.0413106 -4.76352e-08 0)
(0.0413105 -2.43181e-08 0)
(0.0413106 1.25447e-08 0)
(0.0413107 -9.68339e-09 0)
(0.0413107 1.12125e-08 0)
(0.0413107 7.74849e-08 0)
(0.0413109 4.08935e-08 0)
(0.0413109 6.9878e-08 0)
(0.041311 6.97273e-08 0)
)
;
    }
    bottomWall
    {
        type            calculated;
        value           nonuniform List<vector> 
20
(
(-0.0291446 1.47781e-07 0)
(-0.0291451 2.33075e-07 0)
(-0.0291453 9.61267e-08 0)
(-0.0291455 -5.71651e-08 0)
(-0.0291455 3.83561e-08 0)
(-0.0291455 -3.93632e-08 0)
(-0.0291448 -2.65217e-08 0)
(-0.0291443 1.01836e-07 0)
(-0.0291447 1.60103e-07 0)
(-0.0291449 3.37479e-09 0)
(-0.0291444 -6.14156e-08 0)
(-0.0291441 -4.47845e-09 0)
(-0.0291442 4.28781e-08 0)
(-0.0291445 -7.31163e-08 0)
(-0.0291433 -1.5038e-07 0)
(-0.0291435 8.28093e-08 0)
(-0.0291442 9.28931e-08 0)
(-0.0291448 -1.29392e-07 0)
(-0.0291434 -6.31917e-08 0)
(-0.0291445 1.11382e-07 0)
)
;
    }
    cyc_half0
    {
        type            cyclic;
    }
    cyc_half1
    {
        type            cyclic;
    }
    frontAndBack
    {
        type            empty;
    }
}


// ************************************************************************* //
