/*--------------------------------*- C++ -*----------------------------------*\
  =========                 |
  \\      /  F ield         | OpenFOAM: The Open Source CFD Toolbox
   \\    /   O peration     | Website:  https://openfoam.org
    \\  /    A nd           | Version:  13
     \\/     M anipulation  |
\*---------------------------------------------------------------------------*/
FoamFile
{
    format      ascii;
    class       volScalarField;
    location    "1.100633";
    object      nut;
}
// * * * * * * * * * * * * * * * * * * * * * * * * * * * * * * * * * * * * * //

dimensions      [0 2 -1 0 0 0 0];

internalField   nonuniform List<scalar> 
17140
(
6.8032932e-20
1.3231668e-17
3.5245645e-16
3.5741222e-15
2.1627671e-14
9.5912931e-14
3.4680555e-13
1.0871478e-12
3.0695963e-12
8.0065481e-12
1.9633816e-11
4.5842061e-11
1.0288016e-10
2.2354367e-10
4.7298064e-10
9.7899875e-10
1.9899187e-09
3.9847159e-09
7.8824325e-09
1.5440096e-08
3.0008045e-08
5.7958326e-08
1.1135621e-07
2.1281899e-07
4.0378803e-07
7.5652612e-07
1.3846411e-06
2.4316998e-06
3.7843426e-06
4.8583518e-06
6.1836736e-06
7.8974622e-06
1.0281907e-05
1.3949509e-05
1.7846486e-05
2.0168046e-05
2.2488625e-05
2.4736134e-05
2.6900836e-05
2.8796185e-05
2.4512054e-05
2.101265e-05
2.0037305e-05
2.1518981e-05
2.5302864e-05
3.1035967e-05
3.8245019e-05
4.5989708e-05
5.3215072e-05
5.8885315e-05
6.227329e-05
6.328673e-05
6.2824363e-05
6.2553613e-05
6.4605969e-05
7.1553312e-05
8.5697138e-05
0.0001085408
0.00014212429
0.00019037919
0.00026211532
0.00037854428
0.00059322705
0.00099608619
0.0010028578
6.7508594e-20
1.3129681e-17
3.4974024e-16
3.5465916e-15
2.1461216e-14
9.5175534e-14
3.4414268e-13
1.0788129e-12
3.0461007e-12
7.9453681e-12
1.9484039e-11
4.5492858e-11
1.0209723e-10
2.2184277e-10
4.693781e-10
9.7152178e-10
1.9746465e-09
3.9539022e-09
7.8208266e-09
1.5317724e-08
2.9766042e-08
5.748117e-08
1.1041778e-07
2.1097995e-07
4.0020985e-07
7.4966903e-07
1.3718875e-06
2.4091991e-06
3.7766901e-06
4.8464976e-06
6.1645466e-06
7.8655612e-06
1.0224474e-05
1.3829531e-05
1.7624296e-05
1.9893204e-05
2.2160732e-05
2.4383367e-05
2.6509989e-05
2.8388467e-05
2.4090791e-05
2.0727357e-05
1.9815044e-05
2.1274057e-05
2.4932652e-05
3.0438072e-05
3.7301661e-05
4.4598196e-05
5.1482475e-05
5.6968196e-05
6.0415532e-05
6.1706673e-05
6.1650912e-05
6.1818112e-05
6.4260477e-05
7.1480827e-05
8.5736089e-05
0.00010853274
0.00014191322
0.00018979505
0.00026093915
0.00037653816
0.00058994947
0.00099605622
0.0010028812
6.635729e-20
1.2905762e-17
3.437755e-16
3.4861029e-15
2.1095152e-14
9.3551869e-14
3.3827028e-13
1.0603975e-12
2.9940766e-12
7.8095681e-12
1.9150664e-11
4.4713271e-11
1.0034382e-10
2.1802117e-10
4.6125791e-10
9.5461716e-10
1.9400219e-09
3.8838748e-09
7.6805458e-09
1.5038659e-08
2.9213595e-08
5.6391336e-08
1.0827432e-07
2.0678137e-07
3.9204889e-07
7.3405309e-07
1.3428973e-06
2.3581478e-06
3.7585887e-06
4.8182325e-06
6.1183885e-06
7.7868485e-06
1.0080445e-05
1.3535876e-05
1.7104703e-05
1.9258826e-05
2.1414331e-05
2.3538048e-05
2.5580186e-05
2.7415023e-05
2.3146013e-05
2.0106401e-05
1.9362178e-05
2.0831056e-05
2.4316076e-05
2.9411073e-05
3.5677192e-05
4.2205647e-05
4.8435413e-05
5.3545954e-05
5.7049133e-05
5.8801343e-05
5.9467358e-05
6.0441345e-05
6.3620716e-05
7.1364701e-05
8.5844689e-05
0.00010858074
0.00014163052
0.00018891131
0.00025912816
0.00037341849
0.00058484504
0.00099599582
0.0010029518
6.4582356e-20
1.2560555e-17
3.3457991e-16
3.3928488e-15
2.0530791e-14
9.1048595e-14
3.2921615e-13
1.032003e-12
2.9138556e-12
7.6001487e-12
1.8636518e-11
4.3510847e-11
9.7639146e-11
2.1212581e-10
4.4873075e-10
9.2853805e-10
1.886609e-09
3.7758642e-09
7.4642305e-09
1.4608496e-08
2.8362454e-08
5.4713286e-08
1.049763e-07
2.0032624e-07
3.795112e-07
7.1007688e-07
1.2983972e-06
2.2797306e-06
3.7298817e-06
4.7735089e-06
6.0446389e-06
7.6596936e-06
9.8455114e-06
1.3054157e-05
1.6328504e-05
1.8309782e-05
2.0287102e-05
2.224292e-05
2.413256e-05
2.5872673e-05
2.1782725e-05
1.9235109e-05
1.8792749e-05
2.0377743e-05
2.3757513e-05
2.8539497e-05
3.4234379e-05
4.0001618e-05
4.5498657e-05
5.0147781e-05
5.3614947e-05
5.5766916e-05
5.7147588e-05
5.8975064e-05
6.2967657e-05
7.1307068e-05
8.6057984e-05
0.00010876195
0.00014150095
0.00018820612
0.00025754029
0.0003706367
0.00058038645
0.00099601044
0.0010030102
6.2232926e-20
1.2103615e-17
3.2240806e-16
3.269412e-15
1.9783762e-14
8.7735017e-14
3.1723093e-13
9.9441521e-13
2.8076584e-12
7.3229095e-12
1.7955854e-11
4.191898e-11
9.4058548e-11
2.0432162e-10
4.3214915e-10
8.9402416e-10
1.8159388e-09
3.6330076e-09
7.178267e-09
1.4040187e-08
2.7238852e-08
5.2500163e-08
1.0063146e-07
1.9183275e-07
3.6303651e-07
6.7861403e-07
1.2400709e-06
2.1770245e-06
3.5870726e-06
4.7126835e-06
5.9427617e-06
7.4828261e-06
9.5205384e-06
1.2403264e-05
1.5349515e-05
1.7114677e-05
1.8858676e-05
2.0580676e-05
2.2255489e-05
2.3837385e-05
2.0129522e-05
1.8202582e-05
1.8198795e-05
2.0027982e-05
2.3403898e-05
2.7946081e-05
3.3236419e-05
3.8366004e-05
4.3170621e-05
4.7334057e-05
5.0661798e-05
5.3072074e-05
5.5040857e-05
5.7644878e-05
6.2424586e-05
7.1371508e-05
8.6428952e-05
0.000109155
0.00014164897
0.00018786962
0.00025645515
0.00036854704
0.00057687605
0.00099314662
0.0010030708
5.9375439e-20
1.1547864e-17
3.0760411e-16
3.1192816e-15
1.887517e-14
8.3704723e-14
3.0265299e-13
9.4869492e-13
2.6784804e-12
6.9856687e-12
1.7127866e-11
3.9982583e-11
8.9703156e-11
1.9482948e-10
4.119841e-10
8.5206099e-10
1.7300438e-09
3.4594541e-09
6.8310649e-09
1.3350704e-08
2.5876958e-08
4.982069e-08
9.5377908e-08
1.8157781e-07
3.4317618e-07
6.4074527e-07
1.1699737e-06
2.053763e-06
3.3864133e-06
4.6381309e-06
5.815747e-06
7.2617023e-06
9.1196585e-06
1.163017e-05
1.4227707e-05
1.5748458e-05
1.7223286e-05
1.866623e-05
2.007785e-05
2.1127626e-05
1.8314167e-05
1.7097015e-05
1.7643756e-05
1.9818551e-05
2.3269176e-05
2.7609776e-05
3.2546467e-05
3.7167352e-05
4.1341425e-05
4.5040143e-05
4.8178718e-05
5.0744295e-05
5.3192148e-05
5.649912e-05
6.2038334e-05
7.1606662e-05
8.7015193e-05
0.00010982718
0.00014214951
0.00018798381
0.0002559748
0.00036734091
0.00057476064
0.00098953433
0.0010031249
5.6082652e-20
1.0907453e-17
2.9054503e-16
2.9462801e-15
1.7828147e-14
7.9060287e-14
2.8585324e-13
8.9600508e-13
2.5296069e-12
6.5970019e-12
1.6173613e-11
3.7750931e-11
8.4683952e-11
1.8389183e-10
3.8875243e-10
8.0372965e-10
1.6311531e-09
3.2597502e-09
6.4318298e-09
1.2558593e-08
2.4314028e-08
4.6749556e-08
8.9365023e-08
1.6985892e-07
3.2051737e-07
5.976071e-07
1.0902261e-06
1.9136695e-06
3.1586062e-06
4.5540522e-06
5.670247e-06
7.0086706e-06
8.669957e-06
1.0802511e-05
1.3021155e-05
1.4284076e-05
1.5473393e-05
1.6614713e-05
1.7732578e-05
1.8301273e-05
1.6467295e-05
1.6015897e-05
1.7183064e-05
1.9764583e-05
2.3337755e-05
2.7472374e-05
3.2019667e-05
3.6201563e-05
3.9814955e-05
4.3099769e-05
4.6058112e-05
4.8736727e-05
5.1597886e-05
5.5559081e-05
6.1843695e-05
7.205305e-05
8.7856162e-05
0.00011080953
0.00014302923
0.00018856655
0.00025609816
0.00036695847
0.00057368686
0.00098584281
0.0010031973
5.2426766e-20
1.0196423e-17
2.7160476e-16
2.7542001e-15
1.6665647e-14
7.390353e-14
2.6719996e-13
8.3750065e-13
2.3643017e-12
6.1654328e-12
1.5114035e-11
3.527306e-11
7.9111433e-11
1.7175017e-10
3.6296934e-10
7.5010859e-10
1.5214915e-09
3.0384372e-09
5.9897603e-09
1.1682394e-08
2.2587294e-08
4.3361321e-08
8.2741654e-08
1.5697164e-07
2.9564056e-07
5.5031594e-07
1.0028908e-06
1.7602874e-06
2.9090038e-06
4.4247561e-06
5.5143428e-06
6.7387495e-06
8.2021568e-06
9.981069e-06
1.1776862e-05
1.2782715e-05
1.3687756e-05
1.4524164e-05
1.5338582e-05
1.5695994e-05
1.4727127e-05
1.506303e-05
1.6864232e-05
1.9868487e-05
2.3580876e-05
2.7481193e-05
3.1492444e-05
3.5318572e-05
3.8448482e-05
4.1379624e-05
4.4201743e-05
4.7002602e-05
5.0255798e-05
5.4847577e-05
6.1873801e-05
7.2745136e-05
8.8981377e-05
0.00011212152
0.00014430717
0.0001896394
0.00025685889
0.00036744085
0.00057371133
0.00098351995
0.0010032494
4.8476398e-20
9.4281157e-18
2.5113864e-16
2.5466451e-15
1.5409483e-14
6.8331228e-14
2.4704327e-13
7.7428009e-13
2.1856697e-12
5.6990738e-12
1.3969074e-11
3.2595677e-11
7.3090901e-11
1.5863476e-10
3.3512632e-10
6.9222709e-10
1.4031836e-09
2.7998542e-09
5.5136505e-09
1.0739835e-08
2.0732358e-08
3.9727257e-08
7.564991e-08
1.4319751e-07
2.6909734e-07
4.9993044e-07
9.0992987e-07
1.5970675e-06
2.6433048e-06
4.0319995e-06
5.3585683e-06
6.4674154e-06
7.7390812e-06
9.2019038e-06
1.0527618e-05
1.1292514e-05
1.1932165e-05
1.2475954e-05
1.3006101e-05
1.3402615e-05
1.3221228e-05
1.4307317e-05
1.669061e-05
2.0068552e-05
2.3882499e-05
2.7441049e-05
3.091731e-05
3.4391245e-05
3.7133822e-05
3.9784272e-05
4.2533547e-05
4.5504958e-05
4.9172961e-05
5.4396012e-05
6.21633e-05
7.3710928e-05
9.0413873e-05
0.00011378236
0.00014600278
0.00019121862
0.00025826428
0.00036868044
0.00057444005
0.00098179737
0.0010032998
4.429976e-20
8.6158028e-18
2.2950031e-16
2.327202e-15
1.4081364e-14
6.2439699e-14
2.2573172e-13
7.0743729e-13
1.9968042e-12
5.2060091e-12
1.2758606e-11
2.9765363e-11
6.6727418e-11
1.4477545e-10
3.0571412e-10
6.3111334e-10
1.2783527e-09
2.5483379e-09
5.0122918e-09
9.7486417e-09
1.8784828e-08
3.5918643e-08
6.8231893e-08
1.2881796e-07
2.4143849e-07
4.4750559e-07
8.1329057e-07
1.427407e-06
2.3670611e-06
3.6240865e-06
5.0529164e-06
6.2035476e-06
7.2989692e-06
8.4848167e-06
9.3053438e-06
9.8646476e-06
1.0255429e-05
1.053985e-05
1.0825708e-05
1.1258768e-05
1.2002615e-05
1.3722476e-05
1.6580977e-05
2.0228685e-05
2.4039275e-05
2.710244e-05
3.0214034e-05
3.328331e-05
3.5774265e-05
3.824578e-05
4.100502e-05
4.4222317e-05
4.8363448e-05
5.4239398e-05
6.2745552e-05
7.4971224e-05
9.2169437e-05
0.00011581074
0.00014813734
0.00019332399
0.00026031772
0.0003706773
0.00057640999
0.00098410802
0.0010032341
3.9969161e-20
7.7735463e-18
2.0706436e-16
2.0996699e-15
1.270429e-14
5.6331032e-14
2.0363493e-13
6.3813279e-13
1.8009892e-12
4.694828e-12
1.1503769e-11
2.6831705e-11
6.0132941e-11
1.3041742e-10
2.7525685e-10
5.6786657e-10
1.1492707e-09
2.2885349e-09
4.4951138e-09
8.7278511e-09
1.6782993e-08
3.2012259e-08
6.0640963e-08
1.141373e-07
2.1326024e-07
3.9418222e-07
7.1506437e-07
1.2548787e-06
2.0857795e-06
3.2082545e-06
4.4939558e-06
5.7327123e-06
6.7755434e-06
7.5698378e-06
8.1499883e-06
8.5170892e-06
8.6999854e-06
8.7697149e-06
8.8552008e-06
9.117423e-06
9.8834579e-06
1.1490691e-05
1.4321567e-05
1.8653916e-05
2.3669699e-05
2.660746e-05
2.9239969e-05
3.190896e-05
3.4326647e-05
3.6736077e-05
3.96074e-05
4.316025e-05
4.7848366e-05
5.44092e-05
6.3647782e-05
7.6540955e-05
9.4255322e-05
0.0001182184
0.00015072058
0.00019596177
0.00026297607
0.00037344512
0.00057990424
0.00099008811
0.0010031983
3.5560085e-20
6.9160266e-18
1.8422182e-16
1.8680152e-15
1.1302278e-14
5.0111838e-14
1.8113893e-13
5.6757903e-13
1.6016563e-12
4.1745091e-12
1.0226666e-11
2.3846549e-11
5.3424518e-11
1.1581692e-10
2.4430191e-10
5.0363365e-10
1.0183047e-09
2.0252755e-09
3.9718942e-09
7.697146e-09
1.4766325e-08
2.8087028e-08
5.3034415e-08
9.9467314e-08
1.8517437e-07
3.411369e-07
6.1742963e-07
1.0832493e-06
1.8052825e-06
2.792237e-06
3.9354212e-06
5.0405797e-06
5.9509848e-06
6.6219344e-06
7.0661056e-06
7.2758489e-06
7.2937225e-06
7.198052e-06
7.122694e-06
7.2340083e-06
7.8370357e-06
9.283024e-06
1.208088e-05
1.6657817e-05
2.305284e-05
2.5981453e-05
2.7997229e-05
3.0340578e-05
3.2802442e-05
3.5285712e-05
3.8381441e-05
4.2359177e-05
4.765942e-05
5.4930557e-05
6.4887055e-05
7.8429246e-05
9.6669364e-05
0.00012100531
0.00015374265
0.00019912464
0.00026620912
0.00037709598
0.0005853435
0.00099803
0.0010032615
3.1156819e-20
6.0596376e-18
1.6140946e-16
1.6366686e-15
9.9021539e-15
4.3901204e-14
1.5867491e-13
4.9713015e-13
1.4026378e-12
3.6550765e-12
8.9519633e-12
2.0867736e-11
4.673264e-11
1.0125933e-10
2.1345795e-10
4.3968704e-10
8.8807345e-10
1.7638845e-09
3.4533651e-09
6.678022e-09
1.2777696e-08
2.4228185e-08
4.5581157e-08
8.5141014e-08
1.5783069e-07
2.8961185e-07
5.2266877e-07
9.1641502e-07
1.531442e-06
2.3835765e-06
3.3862736e-06
4.3635397e-06
5.16271e-06
5.7353777e-06
6.0685353e-06
6.1601109e-06
6.0501789e-06
5.8419182e-06
5.6572788e-06
5.6601456e-06
6.1159441e-06
7.4008036e-06
1.0161908e-05
1.5043501e-05
2.182965e-05
2.4980817e-05
2.6601582e-05
2.8742504e-05
3.1309214e-05
3.3981445e-05
3.7404721e-05
4.1879389e-05
4.782962e-05
5.5814817e-05
6.6464196e-05
8.0633373e-05
9.9399306e-05
0.00012415545
0.00015717526
0.00020278374
0.00026998318
0.00038149943
0.0005922621
0.00099836571
0.0010033861
2.6854598e-20
5.2228995e-18
1.3912057e-16
1.4106327e-15
8.5342036e-15
3.7833545e-14
1.3672944e-13
4.283136e-13
1.2082542e-12
3.1478237e-12
7.7074248e-12
1.7960287e-11
4.0203755e-11
8.7064217e-11
1.8340463e-10
3.7744227e-10
7.6147607e-10
1.510222e-09
2.9512529e-09
5.6937751e-09
1.0863161e-08
2.0526497e-08
3.8459678e-08
7.1508371e-08
1.3191114e-07
2.4091579e-07
4.3320712e-07
7.5855542e-07
1.2706783e-06
1.9908114e-06
2.8559494e-06
3.7147821e-06
4.4192435e-06
4.9118602e-06
5.1631386e-06
5.1674725e-06
4.9885335e-06
4.7176339e-06
4.4755854e-06
4.4304789e-06
4.7812327e-06
5.9255666e-06
8.6658237e-06
1.3799975e-05
2.1070845e-05
2.3767617e-05
2.5216608e-05
2.7267394e-05
2.9989141e-05
3.2938787e-05
3.6761979e-05
4.1771703e-05
4.8372637e-05
5.7047598e-05
6.8356779e-05
8.3131541e-05
0.00010242341
0.00012763558
0.00016098482
0.00020689513
0.00027426482
0.00038654225
0.00060024339
0.00099859646
0.00100352
2.2754558e-20
4.4254835e-18
1.1787915e-16
1.1952217e-15
7.2305968e-15
3.2051615e-14
1.1581915e-13
3.6275072e-13
1.0230894e-12
2.6647251e-12
6.5224642e-12
1.5193002e-11
3.3992549e-11
7.3568323e-11
1.5485571e-10
3.1837928e-10
6.415254e-10
1.2703295e-09
2.4775234e-09
4.7678685e-09
9.0683515e-09
1.7070094e-08
3.1839033e-08
5.8891124e-08
1.0802137e-07
1.9617179e-07
3.5109057e-07
6.1338795e-07
1.0293046e-06
1.6235645e-06
2.3553867e-06
3.1027442e-06
3.7259996e-06
4.1535278e-06
4.3470105e-06
4.3084571e-06
4.1022821e-06
3.8128143e-06
3.5683871e-06
3.5134785e-06
3.8090713e-06
4.863441e-06
7.7144596e-06
1.3004957e-05
2.0921304e-05
2.2616152e-05
2.3910531e-05
2.602559e-05
2.8978662e-05
3.2256416e-05
3.6512459e-05
4.2055603e-05
4.9270762e-05
5.8586316e-05
7.0518877e-05
8.5884216e-05
0.00010571004
0.00013140233
0.00016513788
0.00021139416
0.00027901726
0.00039212269
0.00060869014
0.00099882422
0.0010036238
1.8953429e-20
3.6862051e-18
9.8186582e-17
9.9552265e-16
6.0221306e-15
2.6692071e-14
9.6438557e-14
3.0199318e-13
8.5152959e-13
2.2172362e-12
5.4252102e-12
1.2631637e-11
2.8246749e-11
6.1092839e-11
1.2849079e-10
2.6390359e-10
5.3107317e-10
1.0499011e-09
2.0433977e-09
3.9221848e-09
7.4356149e-09
1.3940524e-08
2.5875971e-08
4.7590917e-08
8.6744012e-08
1.5650729e-07
2.7847049e-07
4.8469257e-07
8.1367399e-07
1.2912739e-06
1.8953667e-06
2.5348862e-06
3.0865811e-06
3.4609125e-06
3.6207299e-06
3.5715207e-06
3.3635291e-06
3.0946556e-06
2.8857037e-06
2.8481612e-06
3.1213351e-06
4.2079895e-06
7.2138551e-06
1.2787704e-05
2.0738503e-05
2.1616029e-05
2.2774848e-05
2.5090058e-05
2.8335474e-05
3.1975626e-05
3.6669171e-05
4.271359e-05
5.0479572e-05
6.0370855e-05
7.2890754e-05
8.8841548e-05
0.00010921774
0.00013541426
0.00016959091
0.00021622869
0.00028421809
0.00039825812
0.00061775938
0.00099913389
0.0010036077
1.553387e-20
3.0211399e-18
8.0471021e-17
8.1587653e-16
4.93507e-15
2.1871378e-14
7.9008685e-14
2.473603e-13
6.9729778e-13
1.815058e-12
4.4394127e-12
1.033151e-11
2.3090036e-11
4.9905029e-11
1.0487092e-10
2.1516375e-10
4.3241923e-10
8.5345189e-10
1.657584e-09
3.1732552e-09
5.9958966e-09
1.1195024e-08
2.0675301e-08
3.7798232e-08
6.8424054e-08
1.2255194e-07
2.1653768e-07
3.7493867e-07
6.2860963e-07
1.0023071e-06
1.4878078e-06
2.0214628e-06
2.4999839e-06
2.8314198e-06
2.9809717e-06
2.9350474e-06
2.7463616e-06
2.5227442e-06
2.3668824e-06
2.3665696e-06
2.6787507e-06
3.8665545e-06
6.9674304e-06
1.3007562e-05
2.0202451e-05
2.0645367e-05
2.1864654e-05
2.4512119e-05
2.8082745e-05
3.2085508e-05
3.7200508e-05
4.3697482e-05
5.1940004e-05
6.2337652e-05
7.5411279e-05
9.1949495e-05
0.000112899
0.00013963077
0.00017428925
0.00022136761
0.0002898058
0.00040487745
0.00062735076
0.00099953143
0.0010034954
1.2552204e-20
2.4412399e-18
6.5024142e-17
6.5924084e-16
3.9873083e-15
1.7668858e-14
6.3816164e-14
1.9974975e-13
5.6292468e-13
1.4647766e-12
3.5811696e-12
8.3300189e-12
1.8605731e-11
4.0184028e-11
8.4369371e-11
1.7291585e-10
3.4705472e-10
6.8384692e-10
1.3254428e-09
2.5308337e-09
4.7664214e-09
8.863035e-09
1.6285618e-08
2.959057e-08
5.3182418e-08
9.4498779e-08
1.6563899e-07
2.8488712e-07
4.7599672e-07
7.6053907e-07
1.1392639e-06
1.5711706e-06
1.9755502e-06
2.2666537e-06
2.4129966e-06
2.3823439e-06
2.2261341e-06
2.0571913e-06
1.9663795e-06
2.0092982e-06
2.4083582e-06
3.71683e-06
7.0107138e-06
1.3779044e-05
1.9302955e-05
1.9750038e-05
2.126963e-05
2.4336223e-05
2.8204645e-05
3.2538985e-05
3.8045443e-05
4.4940691e-05
5.3590117e-05
6.4430313e-05
7.8026253e-05
9.5152807e-05
0.00011670319
0.00014400004
0.00017918683
0.0002267671
0.00029569502
0.00041182615
0.00063774193
0.00099999455
0.0010033005
1.0033851e-20
1.9514486e-18
5.197762e-17
5.2695036e-16
3.1869145e-15
1.4120234e-14
5.0989849e-14
1.5956399e-13
4.4954115e-13
1.1693217e-12
2.8575961e-12
6.643558e-12
1.4829939e-11
3.2006225e-11
6.7141773e-11
1.374651e-10
2.755538e-10
5.4211351e-10
1.0486939e-09
1.9975194e-09
3.7504181e-09
6.9466552e-09
1.2701986e-08
2.2940158e-08
4.0931936e-08
7.2128822e-08
1.2531164e-07
2.1373615e-07
3.5498021e-07
5.6645832e-07
8.5320205e-07
1.1909703e-06
1.5210587e-06
1.7699383e-06
1.9098927e-06
1.8980625e-06
1.7840132e-06
1.6724651e-06
1.6475459e-06
1.7760677e-06
2.2920845e-06
3.6922538e-06
7.4348883e-06
1.5455692e-05
1.8711582e-05
1.9131293e-05
2.1097509e-05
2.4612916e-05
2.8606175e-05
3.3278301e-05
3.9131627e-05
4.6371805e-05
5.5373254e-05
6.6604751e-05
8.0691834e-05
9.8398497e-05
0.00012057479
0.00014846042
0.00018424087
0.00023235654
0.00030172007
0.0004188812
0.00064889334
0.0010005217
0.0010030322
7.9675255e-21
1.5495732e-18
4.1273053e-17
4.1841149e-16
2.5302815e-15
1.1209403e-14
4.0470928e-14
1.266162e-13
3.5661042e-13
9.2726209e-13
2.265085e-12
5.2634092e-12
1.1742239e-11
2.5324821e-11
5.3082402e-11
1.0857457e-10
2.1738697e-10
4.2706781e-10
8.2468445e-10
1.56736e-09
2.9345438e-09
5.4160979e-09
9.8584674e-09
1.770307e-08
3.1365394e-08
5.4809535e-08
9.4330468e-08
1.5935187e-07
2.6245929e-07
4.1679049e-07
6.2828952e-07
8.8348425e-07
1.1421155e-06
1.3460813e-06
1.4718975e-06
1.4768776e-06
1.405403e-06
1.356408e-06
1.4192552e-06
1.6547814e-06
2.2530768e-06
4.0278683e-06
8.7081962e-06
1.7901427e-05
1.8196791e-05
1.8900608e-05
2.141322e-05
2.5240472e-05
2.9272962e-05
3.4245935e-05
4.0387264e-05
4.7926894e-05
5.7243855e-05
6.8831001e-05
8.3376154e-05
0.00010164141
0.00012445395
0.00015294984
0.00018940239
0.00023805046
0.00030768901
0.00042585208
0.00066034661
0.0010011214
0.0010026863
6.3173766e-21
1.2286405e-18
3.2724641e-17
3.3173869e-16
2.0059812e-15
8.8855489e-15
3.2074957e-14
1.003253e-13
2.8248149e-13
7.3425796e-13
1.792893e-12
4.164198e-12
9.2848785e-12
2.0012158e-11
4.1915436e-11
8.565858e-11
1.7132659e-10
3.3615948e-10
6.4814485e-10
1.2294843e-09
2.2963414e-09
4.2248756e-09
7.6588376e-09
1.3681291e-08
2.4080034e-08
4.173834e-08
7.1152505e-08
1.1894891e-07
1.9391818e-07
3.0541606e-07
4.5848424e-07
6.455701e-07
8.3991332e-07
9.9879582e-07
1.1046512e-06
1.121243e-06
1.0905604e-06
1.1265788e-06
1.2837018e-06
1.5874284e-06
2.4511834e-06
4.7684261e-06
1.0549144e-05
1.9126889e-05
1.7881027e-05
1.918117e-05
2.2168947e-05
2.6072132e-05
3.0196705e-05
3.5379119e-05
4.1752356e-05
4.9557566e-05
5.916924e-05
7.109117e-05
8.6060697e-05
0.00010484944
0.00012828669
0.00015741331
0.00019461854
0.00024375149
0.00031341004
0.00043252649
0.00067027444
0.0010016275
0.0010023318
5.0298238e-21
9.7822808e-19
2.6054695e-17
2.6411474e-16
1.5969501e-15
7.072885e-15
2.5527337e-14
7.9828143e-14
2.2470903e-13
5.83905e-13
1.4252388e-12
3.3088649e-12
7.3741165e-12
1.5884785e-11
3.324888e-11
6.7895912e-11
1.3567832e-10
2.6593263e-10
5.1208772e-10
9.6986983e-10
1.8078753e-09
3.3177036e-09
5.9939828e-09
1.0658551e-08
1.864687e-08
3.207504e-08
5.4171351e-08
8.9585103e-08
1.4435573e-07
2.2482939e-07
3.3450573e-07
4.686101e-07
6.09169e-07
7.2817111e-07
8.0504454e-07
8.3696426e-07
8.6976858e-07
9.9282433e-07
1.2033961e-06
1.6632228e-06
2.8627407e-06
5.958109e-06
1.3374008e-05
1.8721093e-05
1.8044655e-05
1.9941749e-05
2.3278363e-05
2.7018523e-05
3.1277343e-05
3.6619366e-05
4.318467e-05
5.1232318e-05
6.1127229e-05
7.337544e-05
8.8737704e-05
0.00010800892
0.00013203379
0.00016181608
0.00019982955
0.00024938197
0.00031884947
0.00043884515
0.00067562406
0.001001931
0.0010019487
4.0414457e-21
7.8600146e-19
2.0934635e-17
2.1220675e-16
1.2830089e-15
5.6818395e-15
2.0503771e-14
6.4106485e-14
1.8041221e-13
4.6867136e-13
1.1436028e-12
2.6540382e-12
5.912291e-12
1.2729729e-11
2.6630369e-11
5.4346413e-11
1.085229e-10
2.1252526e-10
4.0882439e-10
7.7331414e-10
1.4391767e-09
2.6355856e-09
4.7485168e-09
8.4127498e-09
1.4644225e-08
2.5016381e-08
4.1875408e-08
6.8500816e-08
1.0900092e-07
1.6750063e-07
2.4603124e-07
3.4107435e-07
4.4037365e-07
5.290438e-07
5.849671e-07
6.4785205e-07
7.47862e-07
9.1326897e-07
1.2314673e-06
1.932366e-06
3.6114785e-06
7.9500374e-06
1.7445837e-05
1.8597331e-05
1.8763086e-05
2.1100612e-05
2.4559214e-05
2.8063053e-05
3.2473218e-05
3.7934872e-05
4.4661199e-05
5.2933636e-05
6.3103207e-05
7.5677055e-05
9.1405923e-05
0.0001111231
0.00013567614
0.00016615061
0.00020496691
0.00025495703
0.00032423316
0.00044489079
0.00067495583
0.001002035
0.001001411
3.2898253e-21
6.3982167e-19
1.704111e-17
1.727352e-16
1.0443046e-15
4.624312e-15
1.668542e-14
5.2159715e-14
1.4676203e-13
3.8116697e-13
9.2983342e-13
2.1572643e-12
4.8039683e-12
1.0339311e-11
2.1619969e-11
4.4098891e-11
8.8008538e-11
1.7223413e-10
3.3105073e-10
6.2557974e-10
1.1627633e-09
2.1258247e-09
3.8213677e-09
6.7488848e-09
1.1697096e-08
1.9864939e-08
3.2985361e-08
5.3398971e-08
8.3898529e-08
1.2709487e-07
1.840134e-07
2.520805e-07
3.2352585e-07
3.9416283e-07
4.5524959e-07
5.4907251e-07
6.8587372e-07
9.3549561e-07
1.3937078e-06
2.423866e-06
4.8914524e-06
1.1013094e-05
2.2227125e-05
1.8930979e-05
1.9877522e-05
2.2533403e-05
2.5781517e-05
2.9292487e-05
3.3753628e-05
3.9303392e-05
4.6170346e-05
5.4651765e-05
6.5085971e-05
7.7987954e-05
9.4064571e-05
0.00011420263
0.00013921726
0.00017042391
0.00020998109
0.00026060242
0.00032992919
0.00045077315
0.00067097705
0.0010021889
0.0010006863
2.722993e-21
5.2958092e-19
1.4104857e-17
1.429691e-16
8.6430616e-16
3.8269561e-15
1.3806897e-14
4.3155239e-14
1.2140547e-13
3.1524839e-13
7.6885133e-13
1.7833071e-12
3.9700282e-12
8.5416068e-12
1.7854169e-11
3.6402278e-11
7.2613595e-11
1.4202816e-10
2.7281703e-10
5.1513742e-10
9.5654859e-10
1.7465521e-09
3.1340055e-09
5.521058e-09
9.535055e-09
1.6113029e-08
2.6577777e-08
4.2644198e-08
6.6268027e-08
9.9177793e-08
1.4203592e-07
1.9355145e-07
2.507603e-07
3.1750651e-07
3.9588292e-07
5.094688e-07
7.1110289e-07
1.0589699e-06
1.7474395e-06
3.2655768e-06
6.9816715e-06
1.5508574e-05
2.1498941e-05
1.9795435e-05
2.1313654e-05
2.4127236e-05
2.6979685e-05
3.0571175e-05
3.5091021e-05
4.0715463e-05
4.7705274e-05
5.6379369e-05
6.7065417e-05
8.029696e-05
9.670758e-05
0.00011725547
0.0001426722
0.00017464937
0.00021485795
0.00026644265
0.00033594532
0.00045616461
0.00066526669
0.001002294
0.00099980639
2.3047752e-21
4.4824353e-19
1.1938449e-17
1.2100762e-16
7.3150851e-16
3.2387302e-15
1.1683554e-14
3.6513901e-14
1.0270631e-13
2.6664556e-13
6.5018163e-13
1.5077083e-12
3.3556076e-12
7.2175639e-12
1.5081713e-11
3.0738687e-11
6.12922e-11
1.1983269e-10
2.300728e-10
4.3419171e-10
8.0572463e-10
1.4699794e-09
2.6348921e-09
4.6348364e-09
7.9875783e-09
1.3457626e-08
2.2103465e-08
3.5273882e-08
5.449122e-08
8.1173024e-08
1.162656e-07
1.6008842e-07
2.1514014e-07
2.8165972e-07
3.8353069e-07
5.4898374e-07
8.2557051e-07
1.3214817e-06
2.3541595e-06
4.6958621e-06
1.0351543e-05
2.1651755e-05
2.1421871e-05
2.1047884e-05
2.2947673e-05
2.5544218e-05
2.83209e-05
3.1927431e-05
3.6465356e-05
4.2154402e-05
4.9255888e-05
5.8107986e-05
6.9031339e-05
8.2589725e-05
9.9322798e-05
0.00012027704
0.00014605838
0.00017883755
0.00021962472
0.00027244872
0.00034167787
0.00046024157
0.00065548077
0.001002096
0.00099909128
2.0198801e-21
3.9283539e-19
1.0462661e-17
1.0604725e-16
6.4104691e-16
2.838044e-15
1.0237247e-14
3.1990455e-14
8.9971239e-14
2.335479e-13
5.6938025e-13
1.3200874e-12
2.9374237e-12
6.3166946e-12
1.3196225e-11
2.6889557e-11
5.3605276e-11
1.0478369e-10
2.0115079e-10
3.7958601e-10
7.044256e-10
1.285404e-09
2.3048269e-09
4.0561982e-09
6.9942723e-09
1.1791332e-08
1.9386001e-08
3.1000315e-08
4.8094781e-08
7.2234221e-08
1.0515208e-07
1.4909245e-07
2.1069764e-07
2.9488095e-07
4.3175599e-07
6.5661172e-07
1.0335546e-06
1.7835341e-06
3.3684296e-06
7.098822e-06
1.5403941e-05
2.6320701e-05
2.2043604e-05
2.260263e-05
2.471845e-05
2.6862063e-05
2.9658896e-05
3.3282509e-05
3.7852542e-05
4.3605468e-05
5.0809912e-05
5.9827634e-05
7.0972789e-05
8.4851023e-05
0.0001018926
0.00012325183
0.00014938639
0.00018299786
0.00022434793
0.00027848667
0.00034666684
0.00046289178
0.00064014214
0.001001687
0.00099891735
1.8865676e-21
3.6690803e-19
9.7720978e-18
9.90472e-17
5.9872418e-16
2.6506177e-15
9.5609125e-15
2.9876018e-14
8.4021629e-14
2.1809664e-13
5.3169648e-13
1.2327029e-12
2.7430091e-12
5.8989209e-12
1.2324827e-11
2.5119002e-11
5.009228e-11
9.7967487e-11
1.8821147e-10
3.5556575e-10
6.6088306e-10
1.2085171e-09
2.1730442e-09
3.838001e-09
6.6476382e-09
1.1268247e-08
1.864854e-08
3.0065219e-08
4.7173308e-08
7.2257369e-08
1.0820182e-07
1.5953756e-07
2.3452275e-07
3.4708958e-07
5.3144101e-07
8.3060806e-07
1.397283e-06
2.538764e-06
5.0924139e-06
1.0953451e-05
2.2201132e-05
2.4881535e-05
2.3168512e-05
2.4324651e-05
2.6176315e-05
2.8232835e-05
3.1036533e-05
3.46426e-05
3.9234838e-05
4.5050595e-05
5.2352348e-05
6.1526479e-05
7.2877973e-05
8.7066554e-05
0.00010439698
0.00012616212
0.00015265529
0.00018714952
0.00022911753
0.0002845646
0.0003513456
0.00046552937
0.00061787551
0.0010009517
0.00099994667
1.9197216e-21
3.7335605e-19
9.9438465e-18
1.0078861e-16
6.0925944e-16
2.6973243e-15
9.7297364e-15
3.0405068e-14
8.551516e-14
2.2199282e-13
5.4125731e-13
1.2550608e-12
2.7933303e-12
6.0087893e-12
1.2559048e-11
2.5609284e-11
5.1104991e-11
1.0004083e-10
1.9243513e-10
3.6415376e-10
6.7834877e-10
1.2440712e-09
2.245436e-09
3.9851539e-09
6.9455899e-09
1.1868557e-08
1.9855118e-08
3.2512381e-08
5.2042174e-08
8.1306826e-08
1.2441175e-07
1.8828192e-07
2.8433815e-07
4.37971e-07
6.8311449e-07
1.1261893e-06
1.982606e-06
3.8204909e-06
7.9722483e-06
1.6635893e-05
3.0080427e-05
2.4963126e-05
2.461128e-05
2.605138e-05
2.7446811e-05
2.952743e-05
3.2325361e-05
3.5954241e-05
4.0584824e-05
4.6466971e-05
5.3864481e-05
6.3189519e-05
7.4734199e-05
8.9222374e-05
0.00010681727
0.0001289944
0.00015585646
0.0001913239
0.00023405796
0.00029095015
0.00035785448
0.00047188971
0.00060443444
0.0010003618
0.0010022355
2.1384428e-21
4.1589415e-19
1.1076845e-17
1.1227439e-16
6.7871715e-16
3.0050294e-15
1.0840725e-14
3.388121e-14
9.530762e-14
2.4746509e-13
6.0352159e-13
1.399903e-12
3.1170163e-12
6.7087208e-12
1.4031858e-11
2.8638774e-11
5.7219172e-11
1.1218573e-10
2.1623926e-10
4.1028824e-10
7.6690236e-10
1.4125798e-09
2.5634292e-09
4.581194e-09
8.0548316e-09
1.3913058e-08
2.3546283e-08
3.8910355e-08
6.2735399e-08
9.8861454e-08
1.5295501e-07
2.3511811e-07
3.6491996e-07
5.7208627e-07
9.2720783e-07
1.5927273e-06
2.9648263e-06
5.9852386e-06
1.2464854e-05
2.3972015e-05
2.8182273e-05
2.5616876e-05
2.617524e-05
2.7250887e-05
2.8691536e-05
3.0778695e-05
3.3558202e-05
3.720032e-05
4.1874254e-05
4.7829773e-05
5.5326091e-05
6.4799591e-05
7.6528578e-05
9.1302325e-05
0.0001091381
0.00013173468
0.00015898844
0.00019554222
0.00023928804
0.00029809805
0.00036740984
0.00048419581
0.00060443316
0.00099931299
0.0010067284
2.6098969e-21
5.0758545e-19
1.3519042e-17
1.3703217e-16
8.2843302e-16
3.6682721e-15
1.3235311e-14
4.1373095e-14
1.1641055e-13
3.0235002e-13
7.3765096e-13
1.7118117e-12
3.8136851e-12
8.2139899e-12
1.719557e-11
3.5135235e-11
7.0298143e-11
1.3807397e-10
2.6673074e-10
5.0749041e-10
9.5190755e-10
1.7609309e-09
3.21189e-09
5.7693083e-09
1.0183273e-08
1.7619896e-08
2.9806079e-08
4.9219692e-08
7.9362813e-08
1.2526971e-07
1.9557995e-07
3.0759241e-07
4.8290901e-07
7.7494618e-07
1.3071153e-06
2.3648805e-06
4.6161596e-06
9.4632345e-06
1.8744618e-05
3.1921474e-05
2.7460088e-05
2.6647381e-05
2.7467072e-05
2.8265218e-05
2.9744287e-05
3.1840633e-05
3.4660899e-05
3.8351391e-05
4.3081559e-05
4.9117151e-05
5.6716737e-05
6.6338196e-05
7.8246715e-05
9.3285802e-05
0.00011134551
0.00013435957
0.00016206849
0.00019974094
0.00024491814
0.00030515191
0.00038084718
0.00054286956
0.00063594692
0.00099821969
0.0010055679
3.4082036e-21
6.6284496e-19
1.7654378e-17
1.789543e-16
1.0819469e-15
4.7913478e-15
1.7290108e-14
5.4059221e-14
1.5214403e-13
3.9528337e-13
9.6474924e-13
2.2398503e-12
4.9928558e-12
1.0760951e-11
2.2545912e-11
4.6113114e-11
9.2373028e-11
1.8169151e-10
3.5159108e-10
6.7024922e-10
1.259485e-09
2.3325354e-09
4.2535756e-09
7.6257027e-09
1.3415104e-08
2.3109692e-08
3.890682e-08
6.3943923e-08
1.0284317e-07
1.6333015e-07
2.5915253e-07
4.087629e-07
6.5369217e-07
1.0883664e-06
1.9223069e-06
3.6378007e-06
7.2871728e-06
1.4581685e-05
2.6280895e-05
2.9832732e-05
2.7392093e-05
2.7659854e-05
2.8095914e-05
2.9098597e-05
3.0630204e-05
3.276332e-05
3.5625971e-05
3.9375194e-05
4.4177345e-05
5.0305049e-05
5.8015746e-05
6.7786114e-05
7.9871642e-05
9.514766e-05
0.00011342395
0.00013683916
0.00016511762
0.00020382178
0.00025114376
0.00031188876
0.0004012776
0.0005088989
0.0007417097
0.00092096426
0.0010032137
4.6208592e-21
8.9868944e-19
2.3936101e-17
2.4263565e-16
1.4670461e-15
6.4973595e-15
2.3449582e-14
7.3330187e-14
2.0642475e-13
5.3644946e-13
1.3096937e-12
3.0418202e-12
6.7834457e-12
1.4627493e-11
3.0664744e-11
6.2759528e-11
1.2580424e-10
2.4760111e-10
4.7929823e-10
9.1351826e-10
1.7149875e-09
3.1704947e-09
5.7657672e-09
1.0296274e-08
1.8014918e-08
3.082779e-08
5.1554392e-08
8.4433493e-08
1.3623929e-07
2.1803946e-07
3.4593045e-07
5.5326206e-07
9.1321302e-07
1.5824857e-06