/*--------------------------------*- C++ -*----------------------------------*\
  =========                 |
  \\      /  F ield         | OpenFOAM: The Open Source CFD Toolbox
   \\    /   O peration     | Website:  https://openfoam.org
    \\  /    A nd           | Version:  13
     \\/     M anipulation  |
\*---------------------------------------------------------------------------*/
FoamFile
{
    format      ascii;
    class       surfaceScalarField;
    location    "1.100633";
    object      phi;
}
// * * * * * * * * * * * * * * * * * * * * * * * * * * * * * * * * * * * * * //

dimensions      [0 3 -1 0 0 0 0];

internalField   nonuniform List<scalar> 
34068
(
-1.3266885e-07
9.8634737e-08
3.4034117e-08
-5.8603674e-07
3.3707387e-07
1.1629402e-07
-1.4632368e-06
6.5220522e-07
2.2499487e-07
-2.8954884e-06
1.0649065e-06
3.6734505e-07
-5.0490877e-06
1.6012559e-06
5.5234339e-07
-8.1338193e-06
2.2935841e-06
7.9114749e-07
-1.2413027e-05
3.1817088e-06
1.0974988e-06
-1.8215499e-05
4.3142827e-06
1.4881896e-06
-2.5949278e-05
5.7502235e-06
1.983555e-06
-3.6117384e-05
7.5601424e-06
2.6079644e-06
-4.9335279e-05
9.8276295e-06
3.3902648e-06
-6.6349607e-05
1.2650219e-05
4.3641094e-06
-8.8057416e-05
1.6139737e-05
5.5680718e-06
-0.00011552453
2.0421684e-05
7.0454273e-06
-0.00015000113
2.5633178e-05
8.8434236e-06
-0.00019293194
3.1918931e-05
1.1011883e-05
-0.00024595757
3.9424719e-05
1.360091e-05
-0.00031090303
4.8287872e-05
1.6657583e-05
-0.00038974911
5.8624581e-05
2.0221505e-05
-0.00048458283
7.0514339e-05
2.4319376e-05
-0.00059752424
8.3982536e-05
2.8958877e-05
-0.00073063009
9.8983252e-05
3.4122593e-05
-0.00088577811
0.00011538507
3.976296e-05
-0.0010645406
0.00013296319
4.579932e-05
-0.0012680585
0.00015140001
5.2117876e-05
-0.0014969262
0.00017029338
5.8574319e-05
-0.0017510902
0.00018916683
6.4997209e-05
-0.0020297495
0.00020747084
7.1188435e-05
-0.0023312257
0.00022456044
7.6915708e-05
-0.0026527541
0.00023963598
8.1892496e-05
-0.0029901586
0.00025165552
8.5748932e-05
-0.003337395
0.00025923633
8.8000102e-05
-0.0036859772
0.00026056307
8.8019056e-05
-0.0040241976
0.00025323997
8.4980488e-05
-0.0043356514
0.00023378391
7.7669874e-05
-0.0045991287
0.00019858904
6.4888247e-05
-0.0047910851
0.00014590879
4.6047591e-05
-0.0048754239
6.6431514e-05
1.7907262e-05
-0.0048115589
-4.3395603e-05
-2.046932e-05
-0.0045563791
-0.00018519711
-6.9982704e-05
-0.004061795
-0.00036294974
-0.00013163434
-0.0032812883
-0.00057541942
-0.00020508735
-0.0021752928
-0.00081736151
-0.00028863394
-0.00071756288
-0.0010788861
-0.00037884382
0.0011022667
-0.0013488404
-0.00047098917
0.0032735985
-0.0016098254
-0.00056150635
0.005773355
-0.0018533703
-0.00064638616
0.0085715944
-0.0020739837
-0.00072425584
0.011639782
-0.002272462
-0.00079572605
0.014956832
-0.0024542336
-0.00086281598
0.018511529
-0.002626673
-0.00092802357
0.022301724
-0.0027967575
-0.00099343764
0.026332113
-0.0029700284
-0.001060361
0.030612348
-0.0031507672
-0.0011294673
0.0351569
-0.0033431662
-0.0012013861
0.039986686
-0.0035524463
-0.0012773398
0.045131769
-0.0037855741
-0.0013595088
0.050633404
-0.0040507075
-0.0014509277
0.056544928
-0.0043565969
-0.0015549266
0.0629317
-0.0047118893
-0.0016748828
0.069870166
-0.0051247184
-0.0018137481
0.077447509
-0.0056030085
-0.0019743338
0.085755995
-0.0061507049
-0.0021577817
0.094909294
-0.0067854554
-0.0023678436
-0.0074860065
0.10499383
-0.0025985316
-1.3369526e-07
2.3233e-07
-5.9056352e-07
7.9394213e-07
-1.4745234e-06
1.5361651e-06
-2.9178509e-06
2.508234e-06
-5.0882001e-06
3.7716051e-06
-8.1970967e-06
5.4024808e-06
-1.251011e-05
7.4947223e-06
-1.8358862e-05
1.0163034e-05
-2.6154991e-05
1.3546352e-05
-3.6406065e-05
1.7811217e-05
-4.9733275e-05
2.315484e-05
-6.6890438e-05
2.9807381e-05
-8.8783551e-05
3.803285e-05
-0.00011648951
4.8127641e-05
-0.00015127212
6.0415786e-05
-0.00019459271
7.5239521e-05
-0.00024811191
9.2943922e-05
-0.00031367856
0.00011385452
-0.0003933014
0.00013824742
-0.00048909948
0.00016631242
-0.00060322869
0.00019811175
-0.00073778447
0.00023353903
-0.00089468448
0.00027228508
-0.0010755396
0.00031381835
-0.0012815247
0.00035738512
-0.0015132593
0.00040202794
-0.0017707017
0.00044660921
-0.0020530451
0.00048981428
-0.0023585846
0.00053009988
-0.0026845048
0.00056555619
-0.0030265461
0.00059369684
-0.0033785319
0.00061122214
-0.0037317483
0.00061377943
-0.0040741493
0.00059564098
-0.0043896061
0.00054924076
-0.0046569673
0.00046595017
-0.0048478117
0.00033675324
-0.0049281249
0.00014674471
-0.0048586657
-0.00011285485
-0.0045922349
-0.00045162785
-0.0040801881
-0.00087499659
-0.0032754042
-0.0013802032
-0.0021382365
-0.0019545293
-0.00064141006
-0.0025757125
0.0012186952
-0.0032089457
0.0034337156
-0.0038248458
0.0059774024
-0.0043970571
0.0088183865
-0.0049149678
0.011927974
-0.0053820496
0.01528601
-0.0058122698
0.018882983
-0.0062236461
0.022718755
-0.0066325294
0.026799951
-0.0070512236
0.031137817
-0.0074886338
0.035748033
-0.0079533817
0.040652303
-0.0084567166
0.045881198
-0.0090144689
0.051476231
-0.0096457413
0.057491156
-0.010371522
0.063991711
-0.011212444
0.071055195
-0.012188203
0.078769138
-0.013316951
0.087227003
-0.014608571
0.096543945
-0.016102397
-0.01774935
0.10680729
-1.3278571e-07
3.6511571e-07
-5.8661401e-07
1.2477704e-06
-1.4648045e-06
2.4143556e-06
-2.8989047e-06
3.9423342e-06
-5.0556877e-06
5.9283881e-06
-8.1456344e-06
8.4924275e-06
-1.2433088e-05
1.1782176e-05
-1.8248284e-05
1.597823e-05
-2.6001321e-05
2.1299389e-05
-3.6198155e-05
2.8008052e-05
-4.9458389e-05
3.6415073e-05
-6.653449e-05
4.6883482e-05
-8.8331606e-05
5.9829966e-05
-0.00011592676
7.5722798e-05
-0.00015058544
9.5074466e-05
-0.00019377303
0.0001184271
-0.0002471576
0.00014632849
-0.00031260007
0.000179297
-0.00039212721
0.00021777456
-0.00048788328
0.00026206849
-0.00060205747
0.00031228594
-0.00073678662
0.00036826818
-0.00089403678
0.00042953523
-0.0010754711
0.00049525265
-0.0012823156
0.0005642296
-0.0015152332
0.00063494561
-0.0017742108
0.00070558673
-0.0020584472
0.00077405067
-0.0023662154
0.00083786815
-0.0026946486
0.00089398933
-0.0030393963
0.0009384446
-0.0033941337
0.00096595956
-0.0037498895
0.00096953517
-0.0040942548
0.00094000626
-0.0044107048
0.00086569076
-0.0046772635
0.0007325089
-0.0048642702
0.00052375995
-0.0049374893
0.00021996381
-0.004854889
-0.00019545516
-0.0045684645
-0.00073805232
-0.0040278867
-0.0014155745
-0.0031851645
-0.0022229254
-0.0020010839
-0.0031386099
-0.00045266152
-0.0041241349
0.0014643744
-0.0051259816
0.0037322538
-0.0060927253
0.0063217731
-0.0069865764
0.0091993394
-0.0077925341
0.012336438
-0.0085191478
0.015715424
-0.0091912563
0.019330795
-0.0098390169
0.023186906
-0.01048864
0.027294521
-0.011158839
0.031668176
-0.011862289
0.036325863
-0.012611068
0.041290589
-0.013421443
0.04659335
-0.014317229
0.052275313
-0.015327705
0.058389799
-0.016486008
0.065002016
-0.017824661
0.072189275
-0.019375461
0.080038535
-0.021166211
0.088643889
-0.023213924
0.098120733
-0.025579241
-0.028186462
0.10855785
-1.298944e-07
4.9501011e-07
-5.7396442e-07
1.6918404e-06
-1.433474e-06
3.2738652e-06
-2.8373918e-06
5.346252e-06
-4.9492863e-06
8.0402826e-06
-7.9756817e-06
1.1518823e-05
-1.2176107e-05
1.5982601e-05
-1.7874969e-05
2.1677092e-05
-2.5475452e-05
2.8899873e-05
-3.54754e-05
3.8007999e-05
-4.8485122e-05
4.9424796e-05
-6.5246694e-05
6.3645054e-05
-8.6654066e-05
8.1237339e-05
-0.00011377272
0.00010284146
-0.00014785711
0.00012915885
-0.00019036326
0.00016093325
-0.00024295324
0.00019891847
-0.00030748739
0.00024383116
-0.00038599978
0.00029628695
-0.00048065233
0.00035672103
-0.00059366449
0.0004252981
-0.00072721714
0.00050182084
-0.0008833333
0.00058565138
-0.0010637429
0.00067566221
-0.0012697419
0.00077022861
-0.0015020577
0.00086726149
-0.0017607254
0.00096425434
-0.0020449659
0.0010582912
-0.0023530412
0.0011459434
-0.0026820365
0.0012229846
-0.0030275119
0.00128392
-0.0033829978
0.0013214455
-0.0037393053
0.0013258427
-0.0040836883
0.0012843892
-0.0043988912
0.0011808937
-0.0046618518
0.00099546943
-0.0048427216
0.00070462981
-0.0049052112
0.00028245339
-0.0048045801
-0.0002960863
-0.004491024
-0.0010516084
-0.0039121335
-0.001994465
-0.0030187265
-0.0031163323
-0.0017725716
-0.0043847648
-0.00015378286
-0.0057429236
0.0018330299
-0.0071127944
0.0041645721
-0.0084242675
0.0068048495
-0.0096268538
0.0097169921
-0.010704677
0.012872985
-0.011675141
0.016258917
-0.012577188
0.019875002
-0.013455102
0.023731923
-0.014345562
0.027846271
-0.015273187
0.032237198
-0.016253216
0.036925869
-0.017299739
0.041936981
-0.018432555
0.0473019
-0.019682149
0.05306111
-0.021086914
0.059266988
-0.022691887
0.065983755
-0.024541427
0.073288225
-0.026679931
0.081266581
-0.029144567
0.090013241
-0.031960584
0.099644434
-0.035210435
-0.038791584
0.11024956
-1.2502015e-07
6.2003026e-07
-5.5261219e-07
2.1194325e-06
-1.380515e-06
4.1017679e-06
-2.733254e-06
6.6989911e-06
-4.7688331e-06
1.0075862e-05
-7.6868724e-06
1.4436862e-05
-1.173838e-05
2.0034108e-05
-1.7237393e-05
2.7176105e-05
-2.4574565e-05
3.6237045e-05
-3.423287e-05
4.7666303e-05
-4.6805199e-05
6.1997125e-05
-6.3013697e-05
7.9853551e-05
-8.3730006e-05
0.00010195365
-0.00010999554
0.00012910699
-0.00014303987
0.00016220318
-0.00018429492
0.00020218831
-0.00023540175
0.00025002529
-0.0002982057
0.00030663511
-0.00037473557
0.00037281682
-0.00046716175
0.00044914722
-0.00057772954
0.00053586589
-0.0007086656
0.00063275689
-0.00086205883
0.00073904461
-0.0010397219
0.0008533253
-0.0012430431
0.00097354982
-0.0014728403
0.0010970587
-0.0017292241
0.0012206381
-0.0020114644
0.0013405315
-0.0023178361
0.0014523151
-0.0026453983
0.0015505469
-0.0029896442
0.001628166
-0.0033439805
0.0016757818
-0.0036990167
0.0016808789
-0.0040416616
0.001627034
-0.004354033
0.0014932651
-0.0046122016
0.0012536381
-0.0047851101
0.00087753832
-0.0048339356
0.00033127889
-0.0047115572
-0.00041846476
-0.0043649774
-0.0013981882
-0.0037388462
-0.0026205961
-0.0027823626
-0.004072816
-0.0014589336
-0.0057081939
0.0002454998
-0.007447357
0.0023180067
-0.0091853013
0.004724228
-0.010830489
0.0074205348
-0.012323161
0.010366464
-0.013650605
0.013535228
-0.014843905
0.016917823
-0.015959783
0.020521276
-0.017058555
0.024363533
-0.018187819
0.028467962
-0.019377616
0.032859328
-0.020644582
0.037562781
-0.022003192
0.042605186
-0.02347496
0.048018482
-0.025095445
0.053842543
-0.026910975
0.060128727
-0.028978071
0.066940051
-0.031352751
0.074352446
-0.034092326
0.082451082
-0.037243203
0.091330269
-0.040839771
0.10110659
-0.044986757
-0.049554626
0.11186963
-1.1817007e-07
7.3820033e-07
-5.2258936e-07
2.5238518e-06
-1.306014e-06
4.8851926e-06
-2.586655e-06
7.979632e-06
-4.514583e-06
1.200379e-05
-7.2795042e-06
1.7201783e-05
-1.1120161e-05
2.3874764e-05
-1.6335506e-05
3.2391451e-05
-2.329791e-05
4.3199449e-05
-3.2468391e-05
5.6836784e-05
-4.441391e-05
7.3942645e-05
-5.9826501e-05
9.5266143e-05
-7.9543694e-05
0.00012167084
-0.00010456922
0.00015413252
-0.00013609259
0.00019372655
-0.00017550519
0.00024160091
-0.00022440995
0.00029893005
-0.0002846205
0.00036684565
-0.00035814516
0.00044634148
-0.00044715085
0.0005381529
-0.00055390172
0.00064261676
-0.00068067007
0.00075952524
-0.00082961882
0.00088799336
-0.0010026602
0.0010263666
-0.0012012996
0.0011721893
-0.0014264768
0.0013222359
-0.0016784133
0.0014725746
-0.0019564639
0.0016185821
-0.0022589523
0.0017548035
-0.0025829485
0.001874543
-0.0029239199
0.0019691374
-0.0032751941
0.002027056
-0.0036272212
0.002032906
-0.0039665958
0.0019664086
-0.0042748504
0.0018015197
-0.0045270888
0.0015058765
-0.0046906342
0.0010410837
-0.0047239128
0.00036455743
-0.0045765925
-0.00056578499
-0.0041914669
-0.0017833139
-0.003509197
-0.003302866
-0.0024769392
-0.0051050738
-0.0010603724
-0.0071247606
0.00074591908
-0.0092536485
0.0029169518
-0.011356334
0.0054064948
-0.013320032
0.0081615355
-0.015078201
0.01113836
-0.01662743
0.014312963
-0.018018508
0.017682916
-0.019329736
0.021262957
-0.020638596
0.025078356
-0.022003218
0.02915915
-0.023458409
0.033536026
-0.025021458
0.038238797
-0.026705964
0.043297168
-0.028533331
0.048744168
-0.030542445
0.054619459
-0.032786266
0.060973541
-0.035332153
0.067868115
-0.038247324
0.075377926
-0.041602137
0.083586912
-0.045452189
0.092589332
-0.049842191
0.1025026
-0.054900021
-0.060467735
0.1134157
-1.0934082e-07
8.4754115e-07
-4.8387231e-07
2.8983833e-06
-1.2098893e-06
5.6112096e-06
-2.3974048e-06
9.1671476e-06
-4.1861414e-06
1.3792526e-05
-6.7528419e-06
1.9768484e-05
-1.0320105e-05
2.7442028e-05
-1.5166986e-05
3.7238331e-05
-2.1641533e-05
4.9673996e-05
-3.0175419e-05
6.537067e-05
-4.1300676e-05
8.5067902e-05
-5.5668478e-05
0.00010963394
-7.4069414e-05
0.00014007178
-9.7454768e-05
0.00017751788
-0.00012695721
0.00022322899
-0.00016390914
0.00027855284
-0.0002098558
0.00034487671
-0.00026655932
0.00042354917
-0.00033598892
0.00051577109
-0.0004202922
0.00062245618
-0.00052174157
0.00074406613
-0.00064265131
0.00088043498
-0.00078526385
0.0010306059
-0.00095160697
0.0011927098
-0.0011433295
0.0013639118
-0.0013615283
0.0015404347
-0.0016065765
0.0017176228
-0.001877958
0.0018899636
-0.0021740893
0.0020509347
-0.0024920936
0.0021925473
-0.0028274608
0.0023045046
-0.0031734945
0.0023730897
-0.0035205367
0.0023799482
-0.0038549223
0.0023007942
-0.004157612
0.0021042094
-0.004402638
0.0017509025
-0.0045554157
0.0011938615
-0.0045713462
0.00038048792
-0.0043957356
-0.00074139557
-0.003966129
-0.0022129205
-0.0032180871
-0.004050908
-0.002096345
-0.0062268159
-0.00057097127
-0.0086501344
0.0013515323
-0.011176152
0.0036319599
-0.013636762
0.0062095736
-0.015897645
0.0090216313
-0.017890259
0.012022431
-0.01962823
0.015193072
-0.021189149
0.018539961
-0.022676625
0.02208669
-0.024185325
0.025865526
-0.025782055
0.029912053
-0.027504936
0.034262119
-0.029371523
0.038950373
-0.031394218
0.044010126
-0.033593084
0.049476301
-0.03600862
0.055388931
-0.038698896
0.061797914
-0.041741137
0.068763592
-0.045213002
0.07635929
-0.049197835
0.084667407
-0.053760307
0.093782211
-0.058956995
0.10382172
-0.064939527
-0.071518555
0.11487254
-9.8492392e-08
9.4603354e-07
-4.3629552e-07
3.2361864e-06
-1.0917501e-06
6.2666641e-06
-2.1647412e-06
1.0240139e-05
-3.7821791e-06
1.5409964e-05
-6.104682e-06
2.2090987e-05
-9.3347121e-06
3.0672058e-05
-1.3726395e-05
4.1630014e-05
-1.9597177e-05
5.5544779e-05
-2.7341604e-05
7.3115096e-05
-3.7447248e-05
9.5173547e-05
-5.0512804e-05
0.0001226995
-6.7268208e-05
0.00015682718
-8.8596064e-05
0.00019884573
-0.00011555365
0.00025018658
-0.00014939355
0.00031239274
-0.00019158064
0.00038706381
-0.00024380198
0.00047577051
-0.00030796472
0.00057993383
-0.00038617634
0.0007006678
-0.00048070112
0.00083859091
-0.00059388655
0.00099362041
-0.00072805552
0.0011647749
-0.00088536385
0.0013500181
-0.0010676291
0.0015461771
-0.0012761414
0.001748947
-0.0015114707
0.0019529522
-0.0017732788
0.0021517717
-0.0020601255
0.0023377814
-0.0023692352
0.002501657
-0.002696161
0.0026314304
-0.0030342182
0.002711147
-0.0033736922
0.0027194222
-0.0037007468
0.0026278488
-0.0039957698
0.0023992324
-0.004231652
0.0019867847
-0.0043716665
0.001333876
-0.0043676587
0.00037648013
-0.0041596734
-0.00094938082
-0.0036787452
-0.0026938487
-0.0028542936
-0.0048753596
-0.0016288664
-0.007452243
1.9982596e-05
-0.010298983
0.0020705006
-0.01322667
0.0044665657
-0.016032827
0.0071313811
-0.018562461
0.0099932407
-0.020752119
0.013006703
-0.022641692
0.016160668
-0.024343114
0.019472583
-0.02598854
0.022976024
-0.027688766
0.026710013
-0.029516044
0.030714234
-0.031509157
0.035028059
-0.033685348
0.039690286
-0.036056446
0.044738325
-0.038641123
0.050209955
-0.04148025
0.056146308
-0.044635249
0.062597019
-0.048191847
0.069621105
-0.052237088
0.077290423
-0.056867152
0.085685771
-0.062155655
0.094902141
-0.068173365
0.10505801
-0.0750954
-0.082696363
0.11623582
-8.5585528e-08
1.0316191e-06
-3.7968482e-07
3.5302857e-06
-9.5114845e-07
6.8381278e-06
-1.8877618e-06
1.1176752e-05
-3.3010728e-06
1.6823275e-05
-5.3323217e-06
2.4122236e-05
-8.1597102e-06
3.3499447e-05
-1.2007177e-05
4.5477481e-05
-1.7155004e-05
6.0692605e-05
-2.3952403e-05
7.9912496e-05
-3.283235e-05
0.00010405349
-4.4328744e-05
0.0001341959
-5.909594e-05
0.00017159438
-7.7930193e-05
0.00021767998
-0.0001017927
0.00027404908
-0.00013183267
0.00034243272
-0.00016940867
0.0004246398
-0.00021610466
0.00052246651
-0.00027373709
0.00063756625
-0.00034434614
0.00077127685
-0.00043016453
0.0009244093
-0.00053355629
0.0010970122
-0.00065691805
0.0012881366
-0.00080253999
0.00149564
-0.00097242863
0.0017160657
-0.0011681016
0.00194462
-0.0013903704
0.0021752209
-0.0016391244
0.0024005257
-0.0019131145
0.0026117715
-0.0022097037
0.0027982462
-0.0025245296
0.0029462563
-0.0028510027
0.0030376201
-0.003179422
0.0030478414
-0.0034957255
0.0029441524
-0.0037797945
0.0026833013
-0.004003327
0.0022103172
-0.0041272429
0.0014577918
-0.0040993383
0.00034857554
-0.0038535886
-0.0011951306
-0.0033134077
-0.0032340296
-0.0024013904
-0.0057873769
-0.0010585804
-0.0087950529
0.00072591679
-0.012083481
0.00291077
-0.015411523
0.0054215909
-0.018543648
0.0081652882
-0.021306158
0.011063387
-0.023650218
0.014074136
-0.025652441
0.017197076
-0.027466053
0.020462036
-0.0292535
0.023912755
-0.031139485
0.027594599
-0.033197887
0.031550292
-0.03546485
0.03582104
-0.037956096
0.040448406
-0.040683812
0.045473699
-0.043666416
0.050938325
-0.046944875
0.056885363
-0.050582288
0.063364678
-0.054671162
0.0704341
-0.05930651
0.078164077
-0.06459713
0.086633978
-0.070625556
0.095939868
-0.077479254
0.10619902
-0.085354554
-0.093986038
0.1174887
-7.0608793e-08
1.1022279e-06
-3.1399553e-07
3.7736724e-06
-7.8797378e-07
7.312106e-06
-1.566222e-06
1.1955e-05
-2.7423518e-06
1.7999405e-05
-4.4349209e-06
2.5814805e-05
-6.7936283e-06
3.5858154e-05
-1.0006864e-05
4.8690716e-05
-1.4310954e-05
6.4996695e-05
-2.000126e-05
8.5602802e-05
-2.7445603e-05
0.00011149784
-3.7100019e-05
0.00014385031
-4.952731e-05
0.00018402167
-6.5418246e-05
0.00023357092
-8.5615222e-05
0.00029424605
-0.00011113766
0.00036795515
-0.00014320751
0.00045670966
-0.00018327266
0.00056253165
-0.00023302343
0.00068731703
-0.00029439703
0.00083265044
-0.00036956139
0.00099957366
-0.00046086925
0.00118832
-0.00057077281
0.0013980402
-0.00070169157
0.0016265588
-0.00085583217
0.0018702063
-0.0010349672
0.002123755
-0.001240191
0.0023804447
-0.0014716731
0.0026320079
-0.0017284174
0.0028685158
-0.0020079951
0.003077824
-0.0023061535
0.0032444147
-0.0026162609
0.0033477275
-0.0029286491
0.0033602297
-0.003229241
0.0032447442
-0.0034973137
0.0029513741
-0.0037033433
0.0024163468
-0.0038057219
0.0015601704
-0.0037478578
0.00029071151
-0.003457193
-0.0014857953
-0.0028489908
-0.0038422318
-0.0018385442
-0.0067978236
-0.00036540827
-0.010268189
0.0015602556
-0.014009144
0.0038779791
-0.017729247
0.0064934068
-0.021159075
0.0092987381
-0.024111489
0.012212539
-0.026564019
0.015201399
-0.0286413
0.018278487
-0.030543141
0.021486202
-0.032461216
0.024876884
-0.034530167
0.028500858
-0.036821862
0.032403177
-0.039367169
0.036625957
-0.042178877
0.041212141
-0.045269996
0.046206029
-0.048660304
0.051652836
-0.052391683
0.057598367
-0.056527818
0.064093415
-0.06116621
0.071194947
-0.066408042
0.078972281
-0.072374464
0.08750375
-0.079157025
0.096886328
-0.086861832
0.10723446
-0.095702691
-0.1053731
0.11862152
-5.367498e-08
1.1559028e-06
-2.3967625e-07
3.9596737e-06
-6.0327782e-07
7.6757076e-06
-1.2021068e-06
1.2553829e-05
-2.1093254e-06
1.8906624e-05
-3.4175789e-06
2.7123058e-05
-5.2439073e-06
3.7684482e-05
-7.7358644e-06
5.1182673e-05
-1.1079071e-05
6.8339902e-05
-1.5506563e-05
9.0030294e-05
-2.1310267e-05
0.00011730154
-2.8855086e-05
0.00015139513
-3.8595846e-05
0.00019376243
-5.1097748e-05
0.00024607282
-6.7060106e-05
0.00031020841
-8.7343643e-05
0.00038823869
-0.00011300029
0.0004823663
-0.00014530337
0.00059483473
-0.00018577502
0.00072778868
-0.00023620476
0.00088308018
-0.00029865105
0.00106202
-0.00037541421
0.0012650832
-0.00046896894
0.0014915949
-0.00058184401
0.0017394339
-0.00071644252
0.0020048048
-0.00087480709
0.0022821195
-0.0010583442
0.0025639819
-0.0012675378
0.0028412014
-0.0015016709
0.0031026489
-0.0017585463
0.0033346993
-0.0020340618
0.0035199302
-0.0023216607
0.0036353264
-0.0026116601
0.0036502291
-0.0028893408
0.0035224248
-0.003133956
0.0031959893
-0.0033146483
0.0025970392
-0.0033871585
0.0016326806
-0.0032903888
0.00019394181
-0.002945332
-0.0018308521
-0.0022595524
-0.0045280114
-0.0011415888
-0.0079157872
0.00046501497
-0.011874793
0.0025354285
-0.016079558
0.0049755448
-0.020169363
0.0076747905
-0.023858321
0.010514921
-0.02695162
0.013416965
-0.029466062
0.016361351
-0.031585687
0.019377759
-0.033559549
0.022520326
-0.035603783
0.025846799
-0.03785664
0.029409619
-0.040384682
0.033255167
-0.043212716
0.037426391
-0.046350101
0.041966955
-0.04981056
0.04692302
-0.053616369
0.052343084
-0.057811746
0.058276077
-0.062460812
0.064774463
-0.067664596
0.071894925
-0.073528503
0.079706088
-0.080185627
0.088285253
-0.087736189
0.097729037
-0.096305617
0.10814879
-0.10612245
-0.11683852
0.11961422
-3.4999787e-08
1.1909026e-06
-1.5767591e-07
4.0823498e-06
-3.9939635e-07
7.917428e-06
-7.9997246e-07
1.2954405e-05
-1.4098071e-06
1.9516458e-05
-2.2926646e-06
2.8005916e-05
-3.5291034e-06
3.8920921e-05
-5.2209004e-06
5.287447e-05
-7.4966654e-06
7.0615667e-05
-1.0519011e-05
9.305264e-05
-1.449377e-05
0.0001212763
-1.9681676e-05
0.00015658304
-2.6413317e-05
0.00020049407
-3.5107931e-05
0.00025476744
-4.6296696e-05
0.00032139718
-6.0651081e-05
0.00040259307
-7.9015982e-05
0.0005007312
-0.0001024468
0.00061826555
-0.00013224756
0.00075758944
-0.00017000469
0.00092083731
-0.00021760805
0.0011096233
-0.00027724678
0.0013247219
-0.00035136403
0.0015657122
-0.00044255462
0.0018306244
-0.00055339312
0.0021156433
-0.00068619367
0.0024149201
-0.000842686
0.0027204742
-0.0010236682
0.0030221836
-0.0012286712
0.0033076518
-0.001455657
0.0035616852
-0.0017007036
0.0037649768
-0.0019576014
0.0038922242
-0.0022168118
0.0039094395
-0.0024630268
0.0037686398
-0.0026744757
0.0034074382
-0.002819036
0.0027415995
-0.002850031
0.0016636755
-0.0027019848
4.5895678e-05
-0.0022901064
-0.0022427306
-0.0015156042
-0.0053025136
-0.00028282153
-0.0091485698
0.0014578005
-0.013615415
0.003664728
-0.018286485
0.0062052327
-0.022709868
0.0089563196
-0.026609408
0.011795106
-0.029790407
0.01465202
-0.032322976
0.01752708
-0.034460747
0.020468335
-0.036500804
0.023539786
-0.038675233
0.026800604
-0.041117458
0.030301567
-0.043885645
0.034088617
-0.046999766
0.03820565
-0.050467134
0.042697263
-0.054302173
0.047610751
-0.058529857
0.052996953
-0.063197948
0.058907777
-0.068371636
0.065397863
-0.074154683
0.07252439
-0.08065503
0.08035584
-0.088017077
0.088968076
-0.096348426
0.098456289
-0.10579383
0.10893127
-0.11659743
-0.12836461
0.12045736
-1.5124565e-08
1.2060272e-06
-7.031616e-08
4.1375414e-06
-1.82008e-07
8.0291199e-06
-3.7083002e-07
1.3143227e-05
-6.6268598e-07
1.9808314e-05
-1.0901317e-06
2.8433361e-05
-1.6942421e-06
3.9525032e-05
-2.5270878e-06
5.3707316e-05
-3.6551447e-06
7.1743724e-05
-5.1639614e-06
9.4561457e-05
-7.164551e-06
0.00012327689
-9.8023031e-06
0.00015922079
-1.3269018e-05
0.00020396078
-1.7819322e-05
0.00025931774
-2.3792418e-05
0.00032737027
-3.1640324e-05
0.00041044098
-4.1963363e-05
0.00051105424
-5.5552949e-05
0.00063185514
-7.3439541e-05
0.00077547604
-9.694197e-05
0.00094433974
-0.00012770934
0.0011403907
-0.00016774256
0.0013647551
-0.0002193773
0.0016173469
-0.00028520551
0.0018964527
-0.00036791285
0.0021983507
-0.00047004362
0.0025170508
-0.00059378194
0.0028442125
-0.00074025119
0.0031686529
-0.00090939919
0.0034767998
-0.0010995021
0.0037517881
-0.0013059595
0.0039714342
-0.0015224983
0.004108763
-0.0017391388
0.00412608
-0.0019413751
0.0039708761
-0.002106414
0.0035724771
-0.0022006615
0.002835847
-0.0021748832
0.0016378972
-0.0019599603
-0.00016902725
-0.001465812
-0.0027368788
-0.00058934609
-0.0061789796
0.00076110815
-0.010499024
0.0026282896
-0.015482596
0.0049571258
-0.020615322
0.0075646949
-0.025317437
0.01032543
-0.029370143
0.013119223
-0.0325842
0.015893919
-0.035097671
0.018674678
-0.037241506
0.021527596
-0.039353722
0.024523156
-0.041670793
0.027718126
-0.044312428
0.031158171
-0.047325691
0.034886532
-0.050728126
0.038947625
-0.054528227
0.043387509
-0.058742057
0.048254557
-0.063396905
0.053601116
-0.068544507
0.05948147
-0.07425199
0.065952551
-0.080625764
0.073072728
-0.087775206
0.080910793
-0.095855142
0.089540731
-0.10497836
0.099055763
-0.11530886
0.10956882
-0.12711049
-0.13993264
0.12113686
5.2056455e-09
1.2008216e-06
1.9218619e-08
4.1235284e-06
4.1099082e-08
8.0072394e-06
7.0096499e-08
1.311423e-05
1.0576162e-07
1.9772649e-05
1.4796785e-07
2.8391155e-05
1.9682959e-07
3.947617e-05
2.5224452e-07
5.3651901e-05
3.1299978e-07
7.1682968e-05
3.7491074e-07
9.4499546e-05
4.2760126e-07
0.0001232242
4.4914583e-07
0.00015919924
3.976166e-07
0.00020401231
1.9818031e-07
0.00025951718
-2.7575896e-07
0.00032784421
-1.2291554e-06
0.00041139437
-2.9811738e-06
0.00051280626
-6.0117224e-06
0.00063488568
-1.1017902e-05
0.00078048222
-1.8977696e-05
0.00095229953
-3.1213647e-05
0.0011526266
-4.944347e-05
0.001382985
-7.5797983e-05
0.0016437014
-0.00011278323
0.0019334379
-0.00016316165
0.0022487291
-0.00022968206
0.0025835713
-0.00031518119
0.0029297116
-0.00041998377
0.0032734555
-0.00054466247
0.0036014785
-0.00068712142
0.003894247
-0.00084414147
0.0041284543
-0.0010098439
0.0042744654
-0.0011730866
0.0042893227
-0.0013182204
0.0041160098
-0.0014218281
0.0036760849
-0.00144912
0.0028631389
-0.0013488994
0.0015376766
-0.0010488569
-0.00046906976
-0.00045497656
-0.0033307592
0.00053713163
-0.0071710877
0.0020111513
-0.011973044
0.0039918483
-0.017463293
0.006414286
-0.023037759
0.0090406381
-0.027943789
0.011762199
-0.032091704
0.014464098
-0.035286099
0.017119718
-0.037753292
0.019784004
-0.039905792
0.022538062
-0.04210778
0.025453791
-0.044586521
0.028582433
-0.04744107
0.031962613
-0.050705871
0.035632947
-0.054398461
0.039637178
-0.058532459
0.044022914
-0.063127793
0.048839947
-0.068213937
0.054141749
-0.073846309
0.059984286
-0.080094528
0.066426542
-0.08706802
0.07352844
-0.094877104
0.081359416
-0.10368612
0.089991679
-0.11361063
0.099516901
-0.12483408
0.11005107
-0.13764466
-0.1515244
0.12164283
2.4969964e-08
1.1758516e-06
1.0634561e-07
4.0421528e-06
2.5843958e-07
7.8551454e-06
5.0014041e-07
1.2872529e-05
8.5616491e-07
1.9416625e-05
1.3585821e-06
2.7888738e-05
2.0484231e-06
3.8786329e-05
2.9774785e-06
5.2722846e-05
4.20992e-06
7.0450527e-05
5.8235453e-06
9.2885921e-05
7.9100943e-06
0.00012113765
1.0573996e-05
0.00015653534
1.3928153e-05
0.00020065816
1.8085849e-05
0.00025535948
2.3146268e-05
0.00032278379
2.9171818e-05
0.00040536882
3.615433e-05
0.00050582375
4.3968606e-05
0.00062707141
5.2310946e-05
0.00077213988
6.0625273e-05
0.0009439852
6.8021329e-05
0.0011452306
7.3197613e-05
0.0013778087
7.4390303e-05
0.0016425087
6.9381556e-05
0.0019384467
5.5607218e-05
0.0022625034
3.0351168e-05
0.0026088273
-8.8573198e-06
0.0029689201
-6.5215973e-05
0.0033298141
-0.00013713102
0.0036733936
-0.00022410401
0.00398122
-0.00032322475
0.004227575
-0.00042643173
0.0043776724
-0.00052286716
0.0043857582
-0.00059615381
0.0041892964
-0.00062191733
0.0037018484
-0.00056418845
0.00280541
-0.00037040045
0.0013438886
3.414344e-05
-0.00087361364
0.00074566082
-0.0040422766
0.0018674546
-0.0082928815
0.003472674
-0.013578263
0.0055564059
-0.019547025
0.0080256811
-0.025507034
0.010611236
-0.030529344
0.013243061
-0.034723529
0.015803742
-0.037846779
0.01830728
-0.04025683
0.020838393
-0.042436905
0.023486732
-0.04475612
0.026319477
-0.047419266
0.029380168
-0.050501761
0.032700317
-0.05402602
0.036313133
-0.058011277
0.040260116
-0.062479441
0.044589636
-0.067457313
0.049353093
-0.072977395
0.054605124
-0.079098339
0.060402923
-0.085892327
0.066807107
-0.093472204
0.073879119
-0.10194911
0.081689234
-0.11149623
0.090308158
-0.12222955
0.099826857
-0.13435278
0.11036217
-0.14817997
-0.16311563
0.1219534
4.284095e-08
1.1330106e-06
1.8546472e-07
3.899529e-06
4.5637601e-07
7.5842341e-06
8.9268518e-07
1.243622e-05
1.5425203e-06
1.8766789e-05
2.4678616e-06
2.6963397e-05
3.7479426e-06
3.7506248e-05
5.4830859e-06
5.0987702e-05
7.7988927e-06
6.813472e-05
1.0850607e-05
8.9834207e-05
1.4827098e-05
0.00011716116
1.9953852e-05
0.00015140859
2.6493922e-05
0.00019411809
3.4745078e-05
0.00024710832
4.5031474e-05
0.0003124974
5.7686711e-05
0.00039271359
7.3025522e-05
0.00049048494
9.1300282e-05
0.00060879665
0.00011264045
0.00075079971
0.00013697284
0.00091965282
0.00016392693
0.0011182765
0.00019273406
0.0013490015
0.00022214072
0.0016131021
0.0002503668
0.0019102206
0.00027516809
0.0022377021
0.00029411278
0.0025898826
0.00030555652
0.0029574764
0.00030615703
0.0033292136
0.00029513653
0.0036844141
0.00027208023
0.0040042763
0.00024238928
0.004257266
0.00021358335
0.0044064783
0.00019725279
0.0044020887
0.00021080786
0.0041757414
0.00027972952
0.0036329268
0.00044113407
0.0026440054
0.00074863754
0.0010363852
0.0012772426
-0.0014022187
0.0021225592
-0.0048875932
0.0033865734
-0.0095568957
0.0051256889
-0.015317379
0.0072953628
-0.021716699
0.009768433
-0.027980105
0.012269388
-0.033030299
0.014746658
-0.037200799
0.01711002
-0.040210141
0.019435355
-0.042582166
0.021823965
-0.044825515
0.024363605
-0.04729576
0.027110985
-0.050166647
0.030100872
-0.053491648
0.033358985
-0.057284132
0.036913696
-0.061565987
0.040802994
-0.066368739
0.0450745
-0.071728819
0.049780817
-0.077683712
0.054977869
-0.084295391
0.060723977
-0.091638435
0.067081011
-0.099829239
0.074111654
-0.10897976
0.08188703
-0.11927161
0.090476606
-0.13081913
0.099971648
-0.14384782
0.11048716
-0.15869548
-0.17467871
0.12205024
5.8181568e-08
1.0748291e-06
2.5347778e-07
3.7042328e-06
6.2679413e-07
7.2109178e-06
1.2312207e-06
1.1831793e-05
2.1353856e-06
1.7862624e-05
3.4275615e-06
2.5671221e-05
5.2205598e-06
3.5713249e-05
7.6574916e-06
4.8550771e-05
1.0918403e-05
6.4873809e-05
1.52275e-05
8.5525109e-05
2.0860823e-05
0.00011152784
2.8153586e-05
0.00014411582
3.7506392e-05
0.00018476528
4.9388704e-05
0.00023522601