/*--------------------------------*- C++ -*----------------------------------*\
  =========                 |
  \\      /  F ield         | OpenFOAM: The Open Source CFD Toolbox
   \\    /   O peration     | Website:  https://openfoam.org
    \\  /    A nd           | Version:  13
     \\/     M anipulation  |
\*---------------------------------------------------------------------------*/
FoamFile
{
    format      ascii;
    class       volScalarField;
    location    "2.702327";
    object      nut;
}
// * * * * * * * * * * * * * * * * * * * * * * * * * * * * * * * * * * * * * //

dimensions      [0 2 -1 0 0 0 0];

internalField   nonuniform List<scalar> 
17140
(
3.0313328e-18
5.8955661e-16
1.5703402e-14
1.5921264e-13
9.6302875e-13
4.2678828e-12
1.5417227e-11
4.8268911e-11
1.3607708e-10
3.5426375e-10
8.6675317e-10
2.0182009e-09
4.5143726e-09
9.7699049e-09
2.0570918e-08
4.2325383e-08
8.5404157e-08
1.6949735e-07
3.3168455e-07
6.4133498e-07
1.2275069e-06
2.3288265e-06
4.3815772e-06
8.1619688e-06
1.4957886e-05
2.6549654e-05
4.3819282e-05
4.9975911e-05
5.4947324e-05
5.8818046e-05
6.1922544e-05
6.4674938e-05
6.7370929e-05
7.0157565e-05
7.3113884e-05
7.633668e-05
7.9989307e-05
8.4357141e-05
8.9933557e-05
9.7593348e-05
0.00010926024
0.00013082682
0.00018000646
0.00020984275
0.0002176176
0.00022850118
0.00024141899
0.00025638737
0.00027166987
0.00028134901
0.00029194359
0.00028624928
0.00026731021
0.00023669224
0.00020355211
0.00017550874
0.0001564283
0.00014812619
0.00015136098
0.00016790049
0.00020056528
0.00025610409
0.00034556657
0.00047857964
0.00065397272
2.9878059e-18
5.8109073e-16
1.5477923e-14
1.5692705e-13
9.492086e-13
4.2066598e-12
1.5196159e-11
4.757706e-11
1.3412729e-10
3.491885e-10
8.5433464e-10
1.9892701e-09
4.4495892e-09
9.6294391e-09
2.0274303e-08
4.1712524e-08
8.4160401e-08
1.6701018e-07
3.2677059e-07
6.3172165e-07
1.2088551e-06
2.2929192e-06
4.313121e-06
8.0336726e-06
1.472594e-05
2.6161358e-05
4.3738808e-05
5.0168495e-05
5.5195775e-05
5.9096948e-05
6.2192364e-05
6.4903886e-05
6.7527982e-05
7.0203225e-05
7.2994641e-05
7.5995682e-05
7.9348844e-05
8.3281993e-05
8.8224456e-05
9.4939276e-05
0.00010510528
0.00012400508
0.00016732352
0.0001885622
0.00018967973
0.00019160092
0.00019451189
0.00019781103
0.00020414805
0.00021055884
0.00021473207
0.00021700371
0.00021217763
0.00019871166
0.00018005307
0.00016202956
0.00014910832
0.00014419725
0.00014913638
0.00016672269
0.00020060736
0.0002577842
0.00034905328
0.00048299858
0.00065778273
2.8857989e-18
5.6125156e-16
1.4949485e-14
1.5156927e-13
9.1679975e-13
4.0630214e-12
1.4677206e-11
4.5951906e-11
1.2954393e-10
3.3724875e-10
8.2509493e-10
1.9210919e-09
4.2967814e-09
9.2978102e-09
1.957337e-08
4.0262944e-08
8.1215866e-08
1.6111638e-07
3.1511433e-07
6.0889255e-07
1.164502e-06
2.2073812e-06
4.1496203e-06
7.7259541e-06
1.4165416e-05
2.5209387e-05
4.233085e-05
5.0579744e-05
5.5726032e-05
5.9681088e-05
6.2761433e-05
6.5375039e-05
6.7822081e-05
7.0204676e-05
7.2533417e-05
7.4961613e-05
7.7544941e-05
8.0332199e-05
8.3608414e-05
8.7880952e-05
9.43844e-05
0.00010739766
0.00013908792
0.00014230468
0.00013407878
0.000125712
0.00011831711
0.00011238649
0.00010930964
0.00010963553
0.00011630457
0.00012788807
0.00014144781
0.00014921483
0.00014858086
0.00014175415
0.00013589804
0.00013534217
0.00014315523
0.00016330274
0.00020002067
0.00026063695
0.00035551939
0.00049145119
0.0006652729
2.7267147e-18
5.3031161e-16
1.4125366e-14
1.4321358e-13
8.6625667e-13
3.83901e-12
1.386787e-11
4.3417383e-11
1.2239597e-10
3.1862856e-10
7.7949712e-10
1.8147792e-09
4.05853e-09
8.7808367e-09
1.8480958e-08
3.8004508e-08
7.6630296e-08
1.5194292e-07
2.969841e-07
5.7341193e-07
1.0956285e-06
2.0746625e-06
3.8960601e-06
7.2485007e-06
1.329324e-05
2.3716774e-05
4.0088053e-05
5.124683e-05
5.6593321e-05
6.0641244e-05
6.3637348e-05
6.5998185e-05
6.801576e-05
6.9893509e-05
7.1587156e-05
7.3023449e-05
7.4251977e-05
7.5256239e-05
7.6129675e-05
7.7164728e-05
7.9258156e-05
8.5681771e-05
0.0001046911
9.4008956e-05
8.1006201e-05
6.7943969e-05
5.732097e-05
4.9364152e-05
4.5242829e-05
4.4217694e-05
4.9996024e-05
6.6488752e-05
8.7662846e-05
0.00010595594
0.00012070202
0.00012279217
0.00012121604
0.00012399798
0.00013507251
0.00015850286
0.00019895816
0.00026399663
0.000363455
0.00050212029
0.00067517877
2.5167116e-18
4.8946863e-16
1.3037473e-14
1.3218353e-13
7.9953683e-13
3.5433041e-12
1.2799526e-11
4.0071843e-11
1.1296119e-10
2.9405316e-10
7.1932309e-10
1.6745061e-09
3.7442506e-09
8.0991298e-09
1.7041128e-08
3.502967e-08
7.0594952e-08
1.3988129e-07
2.7317497e-07
5.2688578e-07
1.0054642e-06
1.901221e-06
3.5651987e-06
6.6257875e-06
1.2153186e-05
2.1750191e-05
3.7080503e-05
5.226057e-05
5.7912207e-05
6.2026853e-05
6.4867378e-05
6.6892452e-05
6.8526949e-05
6.9756709e-05
7.0515176e-05
7.0738756e-05
7.0382737e-05
6.9392793e-05
6.7778123e-05
6.5727593e-05
6.39537e-05
6.4855845e-05
7.2961424e-05
5.6752116e-05
4.3911589e-05
3.2465089e-05
2.4651848e-05
2.0079068e-05
1.8144302e-05
1.78089e-05
2.1511838e-05
3.1967663e-05
5.9411712e-05
8.3241217e-05
0.00010185891
0.00011592836
0.00011611358
0.00011900078
0.00013095117
0.00015645189
0.0002001896
0.00026967519
0.00037391033
0.00051550315
0.00068763192
2.2657946e-18
4.4066845e-16
1.1737633e-14
1.1900461e-13
7.1981906e-13
3.1899958e-12
1.1523106e-11
3.6074896e-11
1.016902e-10
2.6469816e-10
6.4745809e-10
1.5070209e-09
3.3691331e-09
7.2858469e-09
1.5324498e-08
3.1485916e-08
6.3413121e-08
1.2554768e-07
2.4492745e-07
4.7179368e-07
8.9893533e-07
1.6967748e-06
3.1759724e-06
5.89372e-06
1.0809126e-05
1.9407245e-05
3.3408102e-05
5.3231765e-05
5.9764232e-05
6.4004817e-05
6.6724221e-05
6.8469694e-05
6.9623013e-05
7.0039801e-05
6.9733202e-05
6.8617192e-05
6.6608837e-05
6.3661331e-05
5.9799535e-05
5.5229337e-05
5.0612798e-05
4.7736529e-05
4.667996e-05
3.2719804e-05
2.2793106e-05
1.5250896e-05
1.1311696e-05
9.5035e-06
8.924342e-06
9.1385922e-06
1.1274922e-05
1.7105843e-05
3.7437079e-05
6.970548e-05
9.199377e-05
0.00011340997
0.00012194516
0.00012381778
0.00013493136
0.00016093053
0.00020679492
0.00028007515
0.00038863798
0.0005326421
0.00070304609
1.9852987e-18
3.8611557e-16
1.0284565e-14
1.0427214e-13
6.307044e-13
2.7950447e-12
1.0096274e-11
3.1607129e-11
8.9092381e-11
2.3189097e-10
5.6715475e-10
1.3199149e-09
2.9502161e-09
6.3780412e-09
1.3409604e-08
2.7536263e-08
5.5417474e-08
1.0961165e-07
2.1357376e-07
4.1076081e-07
7.8116836e-07
1.4712329e-06
2.7472378e-06
5.0871095e-06
9.3210959e-06
1.6775292e-05
2.9143064e-05
4.7353773e-05
6.2295944e-05
6.6871418e-05
6.9573303e-05
7.1081859e-05
7.1631861e-05
7.1151963e-05
6.9689644e-05
6.7172891e-05
6.3537122e-05
5.8792537e-05
5.3055756e-05
4.6619109e-05
4.0165665e-05
3.5093316e-05
2.9574409e-05
1.8832317e-05
1.2151824e-05
8.4109561e-06
6.7480742e-06
6.1403014e-06
6.0690827e-06
6.4744393e-06
7.9180465e-06
1.182224e-05
2.5883903e-05
5.7736307e-05
8.5634612e-05
0.00011040551
0.00012965105
0.00013429837
0.00014575565
0.00017227304
0.00021976165
0.00029627888
0.00040848112
0.00055394376
0.00072135801
1.68895e-18
3.2847952e-16
8.7493723e-15
8.8707053e-14
5.3655396e-13
2.3777811e-12
8.5888754e-12
2.688731e-11
7.5784895e-11
1.9723997e-10
4.8235433e-10
1.1223864e-09
2.5081424e-09
5.4205957e-09
1.1391556e-08
2.3378097e-08
4.7010855e-08
9.2884513e-08
1.8073135e-07
3.4698743e-07
6.5846214e-07
1.2369492e-06
2.3031512e-06
4.2529254e-06
7.7790075e-06
1.4019203e-05
2.4557236e-05
4.0706352e-05
6.1417176e-05
7.1019847e-05
7.3878856e-05
7.5154923e-05
7.5047915e-05
7.3582118e-05
7.0872041e-05
6.690355e-05
6.1678431e-05
5.5302486e-05
4.8015062e-05
4.0220395e-05
3.2628153e-05
2.6368195e-05
1.9066869e-05
1.1557573e-05
7.6301262e-06
5.8399231e-06
5.2322106e-06
5.1709844e-06
5.3833059e-06
5.7308759e-06
6.820586e-06
9.9298939e-06
2.0967374e-05
5.1599496e-05
8.4009347e-05
0.00011182669
0.00013756569
0.00014674725
0.00016042933
0.00018869229
0.00023833202
0.00031810188
0.00043339739
0.00057919525
0.00074218333
1.3915941e-18
2.7064745e-16
7.2089548e-15
7.308905e-14
4.4208423e-13
1.9591094e-12
7.0764366e-12
2.2151962e-11
6.2434788e-11
1.6248273e-10
3.9731166e-10
9.2435441e-10
2.0651377e-09
4.4617289e-09
9.372229e-09
1.9222025e-08
3.8620944e-08
7.6222254e-08
1.4809352e-07
2.8379268e-07
5.3727729e-07
1.006434e-06
1.8678403e-06
3.4374968e-06
6.270991e-06
1.1301901e-05
1.9925649e-05
3.3642914e-05
5.2530651e-05
7.2727009e-05
8.0267685e-05
8.1341007e-05
8.0531755e-05
7.7954333e-05
7.3849211e-05
6.8314638e-05
6.1464897e-05
5.3531622e-05
4.4876575e-05
3.5990725e-05
2.7581092e-05
2.0604108e-05
1.3162388e-05
8.113321e-06
5.7173014e-06
4.8379419e-06
4.6708166e-06
5.0883796e-06
5.4029883e-06
5.6423693e-06
6.5007184e-06
9.2371105e-06
1.8989585e-05
4.9025684e-05
8.460075e-05
0.00011633843
0.00014707386
0.00016047547
0.00017713686
0.00020845175
0.00026130916
0.00034479516
0.00046280911
0.00060776514
0.00076483566
1.1075403e-18
2.1540246e-16
5.7374398e-15
5.8169601e-14
3.518406e-13
1.5591745e-12
5.6317365e-12
1.762896e-11
4.9684489e-11
1.2929177e-10
3.1611847e-10
7.3534549e-10
1.6425084e-09
3.5475446e-09
7.4486864e-09
1.5267765e-08
3.0650868e-08
6.0425585e-08
1.1722949e-07
2.2421803e-07
4.2345666e-07
7.9083729e-07
1.4624975e-06
2.6810869e-06
4.8738391e-06
8.7703143e-06
1.5521633e-05
2.6599308e-05
4.287254e-05
6.247412e-05
7.9793802e-05
9.0617152e-05
8.9030583e-05
8.5050146e-05
7.922616e-05
7.187663e-05
6.3249819e-05
5.3693032e-05
4.3669614e-05
3.3742604e-05
2.4655259e-05
1.7210493e-05
1.0241716e-05
6.4791121e-06
4.9027053e-06
4.4197985e-06
4.5578978e-06
5.351159e-06
5.8204091e-06
5.8471768e-06
6.4815117e-06
9.0714876e-06
1.8598444e-05
4.9705746e-05
8.761712e-05
0.0001230319
0.00015714531
0.00017394256
0.00019473404
0.00023043171
0.00028775074
0.00037555237
0.00049590715
0.00063876297
0.00078855173
8.4910693e-19
1.6514035e-16
4.3986522e-15
4.4595926e-14
2.6973789e-13
1.1953245e-12
4.3174303e-12
1.3514412e-11
3.8086619e-11
9.9104801e-11
2.4228877e-10
5.6352951e-10
1.2584897e-09
2.7173893e-09
5.703444e-09
1.1684223e-08
2.3439248e-08
4.6161272e-08
8.9431957e-08
1.7073654e-07
3.2167914e-07
5.9893669e-07
1.1035207e-06
2.0144494e-06
3.6463542e-06
6.5415737e-06
1.1589151e-05
2.0068064e-05
3.323494e-05
5.0825604e-05
6.9079298e-05
8.2534295e-05
8.9094467e-05
8.9880587e-05
8.6570922e-05
7.8070964e-05
6.7270824e-05
5.5822065e-05
4.4281777e-05
3.3233093e-05
2.3269236e-05
1.5121929e-05
8.8808389e-06
5.8024845e-06
4.5591988e-06
4.2226277e-06
4.7060666e-06
6.0049013e-06
6.6246206e-06
6.5366847e-06
6.9618653e-06
9.3339704e-06
1.9343679e-05
5.3066957e-05
9.3797919e-05
0.00013280448
0.00016804569
0.00018727611
0.00021294398
0.00025417224
0.0003170584
0.00040966306
0.000531773
0.0006712955
0.00081256436
6.25359e-19
1.2162417e-16
3.2395539e-15
3.2844178e-14
1.9865613e-13
8.8032066e-13
3.1796016e-12
9.9525195e-12
2.8047342e-11
7.2977728e-11
1.7840026e-10
4.1488883e-10
9.2639947e-10
1.9998924e-09
4.1962283e-09
8.5927776e-09
1.7227065e-08
3.389777e-08
6.5594122e-08
1.2502118e-07
2.3502752e-07
4.3633349e-07
8.009946e-07
1.4558025e-06
2.6225313e-06
4.6845995e-06
8.2854798e-06
1.4424853e-05
2.4366596e-05
3.8857186e-05
5.6308623e-05
7.2018719e-05
8.150561e-05
8.4451004e-05
8.2207243e-05
7.6524865e-05
6.8319697e-05
5.8155739e-05
4.6295385e-05
3.3959315e-05
2.3581367e-05
1.5122559e-05
9.0534174e-06
5.9914704e-06
4.7370155e-06
4.520516e-06
5.2593151e-06
7.0234021e-06
7.58815e-06
7.1523823e-06
7.4318453e-06
1.0009347e-05
2.2534488e-05
5.9215999e-05
0.00010213129
0.00014418288
0.00017824844
0.00020090992
0.00023205187
0.00027966896
0.00034884089
0.00044645598
0.0005695343
0.00070449677
0.00083632861
4.4130896e-19
8.5828787e-17
2.2861107e-15
2.3177585e-14
1.4018725e-13
6.2121586e-13
2.2437122e-12
7.0229142e-12
1.9790749e-11
5.1492301e-11
1.2587011e-10
2.9270182e-10
6.5350136e-10
1.4105609e-09
2.9590712e-09
6.0576205e-09
1.2139301e-08
2.3871573e-08
4.6150597e-08
8.7846236e-08
1.6483499e-07
3.0523812e-07
5.5844429e-07
1.0106445e-06
1.8114928e-06
3.2190554e-06
5.6712317e-06
9.8802228e-06
1.6883551e-05
2.7789332e-05
4.2697552e-05
5.8997721e-05
7.1800976e-05
7.768142e-05
7.7998355e-05
7.3547984e-05
6.6192495e-05
5.6842553e-05
4.6229118e-05
3.5255161e-05
2.4611612e-05
1.6026292e-05
1.002641e-05
6.8074687e-06
5.3594599e-06
5.5043059e-06
6.6030606e-06
8.7236905e-06
8.7340372e-06
7.5612025e-06
7.814185e-06
1.0899515e-05
2.8423113e-05
6.8051889e-05
0.00011288263
0.00015677569
0.00018758629
0.00021477687
0.00025222478
0.00030688653
0.00038271058
0.00048526093
0.00060836975
0.00073761179
0.00085926956
2.9774343e-19
5.7907136e-17
1.5423939e-15
1.563738e-14
9.4580351e-14
4.1911198e-13
1.5137285e-12
4.7379387e-12
1.3351294e-11
3.4736827e-11
8.490917e-11
1.9744158e-10
4.4079532e-10
9.5137909e-10
1.9956215e-09
4.0847697e-09
8.1840758e-09
1.6088376e-08
3.1086599e-08
5.9121158e-08
1.1078624e-07
2.0474109e-07
3.7351325e-07
6.7336144e-07
1.2010534e-06
2.1222578e-06
3.7183179e-06
6.4570317e-06
1.1074101e-05
1.8570551e-05
2.9821807e-05
4.4364572e-05
5.902932e-05
6.8829608e-05
7.2399673e-05
7.0734288e-05
6.4986595e-05
5.6759511e-05
4.7084944e-05
3.6848897e-05
2.6067308e-05
1.8118136e-05
1.240684e-05
8.8182452e-06
7.1959328e-06
7.7083802e-06
9.5455628e-06
1.1078381e-05
9.623361e-06
7.6017071e-06
8.3121514e-06
1.2816377e-05
3.6736119e-05
7.9720926e-05
0.00012529707
0.00016833838
0.00019650132
0.00022951802
0.00027375951
0.00033573737
0.00041828294
0.00052540552
0.00064752227
0.00076988299
0.00088097184
1.9177371e-19
3.7297408e-17
9.9343811e-16
1.0071805e-14
6.0917314e-14
2.6993862e-13
9.7493708e-13
3.0514799e-12
8.5987657e-12
2.237147e-11
5.4682924e-11
1.2715434e-10
2.8387648e-10
6.1270588e-10
1.2852554e-09
2.6308537e-09
5.271265e-09
1.0362312e-08
2.0020416e-08
3.8063617e-08
7.1279635e-08
1.3156904e-07
2.3953831e-07
4.305086e-07
7.6458648e-07
1.3435747e-06
2.3391425e-06
4.0380666e-06
6.9072765e-06
1.1657935e-05
1.9200599e-05
3.0189509e-05
4.382743e-05
5.6809048e-05
6.4316806e-05
6.6548255e-05
6.3717897e-05
5.7502558e-05
4.9266569e-05
3.8159856e-05
2.8061022e-05
2.0879902e-05
1.6826002e-05
1.2980495e-05
1.1364671e-05
1.2150685e-05
1.4078023e-05
1.2965528e-05
8.9616986e-06
7.5100306e-06
8.8704972e-06
1.6780057e-05
4.8537986e-05
9.3501337e-05
0.00013864143
0.00017596612
0.00020667898
0.00024523118
0.00029666312
0.00036617002
0.00045527735
0.0005662759
0.0006862396
0.00080075534
0.00090105747
1.1785673e-19
2.2921542e-17
6.1052744e-16
6.189701e-15
3.743687e-14
1.6588943e-13
5.9913409e-13
1.8752149e-12
5.2840874e-12
1.3747494e-11
3.360315e-11
7.8138678e-11
1.7445472e-10
3.7656606e-10
7.9002022e-10
1.6174663e-09
3.2417358e-09
6.3749432e-09
1.2321587e-08
2.3434634e-08
4.3891873e-08
8.0995215e-08
1.4731918e-07
2.642529e-07
4.6779526e-07
8.181374e-07
1.4155007e-06
2.4260336e-06
4.1222319e-06
6.9381824e-06
1.1516353e-05
1.8643945e-05
2.8819168e-05
4.1233525e-05
5.2618162e-05
5.882777e-05
6.0495942e-05
5.7115782e-05
4.8901222e-05
3.8751869e-05
3.0082943e-05
2.3968619e-05
2.1874312e-05
1.9192325e-05
1.7672835e-05
1.8525905e-05
1.7592976e-05
1.2827301e-05
7.7654994e-06
7.6170299e-06
1.0003115e-05
2.5428853e-05
6.3097875e-05
0.00010896743
0.00015177196
0.0001820027
0.00021814608
0.00024232753
0.00027727397
0.00032649212
0.00039549639
0.00049977667
0.00065163116
0.00082974494
0.00091928801
6.9167723e-20
1.3452189e-17
3.583056e-16
3.6325868e-15
2.1970601e-14
9.7354409e-14
3.516044e-13
1.10046e-12
3.1008944e-12
8.0674654e-12
1.9719509e-11
4.585589e-11
1.023862e-10
2.2103163e-10
4.6381134e-10
9.4989556e-10
1.9046547e-09
3.7478767e-09
7.2498013e-09
1.3802101e-08
2.5879276e-08
4.7808161e-08
8.702453e-08
1.5608448e-07
2.7588241e-07
4.8081188e-07
8.2740826e-07
1.4078865e-06
2.3720849e-06
3.9603384e-06
6.5459976e-06
1.0666391e-05
1.6962369e-05
2.5844367e-05
3.6767825e-05
4.6877852e-05
5.2609901e-05
5.2953405e-05
4.5549046e-05
3.8063423e-05
3.1387382e-05
2.6716393e-05
2.6206554e-05
2.574674e-05
2.4661246e-05
2.2790243e-05
1.7550132e-05
9.460887e-06
6.9696934e-06
7.7958323e-06
1.3362461e-05
3.8139897e-05
8.078551e-05
0.00012451524
0.00014204932
0.00015131814
0.00016912526
0.0001947013
0.00022979761
0.00027713961
0.00034508004
0.00044786812
0.0006006672
0.00084383629
0.00093543091
3.8865885e-20
7.5588887e-18
2.0133427e-16
2.0411636e-15
1.2345234e-14
5.4702436e-14
1.9755936e-13
6.1831418e-13
1.7422654e-12
4.5327299e-12
1.1079514e-11
2.5765183e-11
5.7532336e-11
1.242186e-10
2.6072204e-10
5.3416561e-10
1.0716664e-09
2.1104408e-09
4.0867642e-09
7.791081e-09
1.4633018e-08
2.708421e-08
4.9401321e-08
8.8780937e-08
1.5717103e-07
2.7406206e-07
4.7063546e-07
7.964725e-07
1.3304205e-06
2.1983476e-06
3.5961184e-06
5.818032e-06
9.2729676e-06
1.4436277e-05
2.1632285e-05
3.0604938e-05
3.9510674e-05
4.3064903e-05
3.9993499e-05
3.5123941e-05
3.0479965e-05
2.7623853e-05
2.8570036e-05
2.9985452e-05
2.689479e-05
2.1882014e-05
1.21593e-05
6.9248296e-06
6.7156721e-06
8.7519351e-06
2.2396224e-05
5.5700532e-05
9.8830658e-05
0.00010569193
0.00010629468
0.00011974823
0.00013833294
0.00016281662
0.00019648796
0.00024239269
0.00030975845
0.00041016124
0.00056111127
0.00080520019
0.00094920425
2.1016796e-20
4.0874788e-18
1.0887147e-16
1.1037523e-15
6.6755616e-15
2.9579255e-14
1.0682386e-13
3.3432484e-13
9.4202514e-13
2.4507495e-12
5.9904055e-12
1.3930793e-11
3.1108555e-11
6.7175139e-11
1.4102544e-10
2.8903926e-10
5.8021683e-10
1.1435961e-09
2.2171762e-09
4.2337364e-09
7.968411e-09
1.4786712e-08
2.7050834e-08
4.8767682e-08
8.6596854e-08
1.5138693e-07
2.6048479e-07
4.4118085e-07
7.3552167e-07
1.206894e-06
1.950674e-06
3.1143641e-06
4.907878e-06
7.6073778e-06
1.1513139e-05
1.682259e-05
2.336082e-05
3.021693e-05
3.0881131e-05
2.9388117e-05
2.7231659e-05
2.6044346e-05
2.9053597e-05
2.7707134e-05
2.2797201e-05
1.3263476e-05
6.7506966e-06
5.8090123e-06
6.79606e-06
1.3040313e-05
3.6580769e-05
7.3957096e-05
8.1291797e-05
7.7537414e-05
8.5402072e-05
9.9521389e-05
0.00011750772
0.00014173813
0.00017422907
0.00021908047
0.0002860073
0.00038361673
0.00053139775
0.000774587
0.00096011066
1.1044649e-20
2.1480318e-18
5.7213444e-17
5.8003266e-16
3.5080189e-15
1.5543583e-14
5.6133074e-14
1.7567232e-13
4.9497111e-13
1.2876544e-12
3.1473339e-12
7.3190768e-12
1.6344382e-11
3.5296329e-11
7.4112069e-11
1.519416e-10
3.0515678e-10
6.0191776e-10
1.1683093e-09
2.2345166e-09
4.2149227e-09
7.8439918e-09
1.4400701e-08
2.6067645e-08
4.6484959e-08
8.1567808e-08
1.4075999e-07
2.3887364e-07
3.988056e-07
6.5537096e-07
1.0594227e-06
1.6804266e-06
2.6147967e-06
3.9915707e-06
5.9714862e-06
8.6997105e-06
1.2223287e-05
1.6356483e-05
1.970915e-05
2.0478885e-05
2.0884305e-05
2.3201835e-05
2.2415687e-05
1.8676617e-05
1.1126613e-05
6.1201636e-06
5.0154693e-06
5.5899095e-06
8.7477429e-06
2.521386e-05
5.6396953e-05
6.7467636e-05
6.1290435e-05
6.5955266e-05
7.5112952e-05
8.8483213e-05
0.00010508688
0.00012842168
0.0001600151
0.0002046142
0.00027115056
0.00036610611
0.00051070329
0.00075285853
0.00096824518
5.7627697e-21
1.1207791e-18
2.9852203e-17
3.0264056e-16
1.8303269e-15
8.1097119e-15
2.928576e-14
9.1647524e-14
2.582107e-13
6.7169049e-13
1.6416823e-12
3.8175378e-12
8.5248341e-12
1.8410049e-11
3.8659093e-11
7.9272601e-11
1.5926625e-10
3.1433752e-10
6.1069409e-10
1.1696637e-09
2.2107986e-09
4.125894e-09
7.6029258e-09
1.3826947e-08
2.4792469e-08
4.3773931e-08
7.5984595e-08
1.2949878e-07
2.1648944e-07
3.5514267e-07
5.7264876e-07
9.0807849e-07
1.4151262e-06
2.1545495e-06
3.1905331e-06
4.57867e-06
6.3547744e-06
8.4603739e-06
1.0672224e-05
1.2631308e-05
1.3435342e-05
1.3278751e-05
1.1613387e-05
7.6370086e-06
5.0137917e-06
4.2279036e-06
4.6551908e-06
6.565469e-06
1.7918193e-05
4.1741769e-05
6.9656602e-05
5.3485849e-05
5.3037844e-05
5.8336451e-05
6.7791138e-05
8.0921625e-05
9.7607573e-05
0.00012107559
0.00015235414
0.00019719872
0.00026300476
0.00035598434
0.00049812608
0.00073845078
0.00097506317
3.1267925e-21
6.0811779e-19
1.6197323e-17
1.6420665e-16
9.9308081e-16
4.3999636e-15
1.5888538e-14
4.9719757e-14
1.4007538e-13
3.64365e-13
8.9051056e-13
2.0707211e-12
4.6240533e-12
9.986363e-12
2.0972289e-11
4.3012827e-11
8.6444378e-11
1.7069914e-10
3.3189727e-10
6.3645373e-10
1.2051315e-09
2.2548793e-09
4.1700646e-09
7.6204004e-09
1.3749311e-08
2.4460763e-08
4.2827892e-08
7.3616109e-08
1.2392224e-07
2.0383639e-07
3.2739673e-07
5.1394359e-07
7.9003199e-07
1.1932029e-06
1.76298e-06
2.5328711e-06
3.4902705e-06
4.584764e-06
5.6925155e-06
6.6032786e-06
6.8696122e-06
6.31835e-06
4.779447e-06
3.6374895e-06
3.4280445e-06
3.8762449e-06
5.4640831e-06
1.3187642e-05
3.082795e-05
5.8943619e-05
4.7623799e-05
4.4517429e-05
4.7997346e-05
5.5173652e-05
6.5077597e-05
7.8205598e-05
9.4865489e-05
0.0001183689
0.00014964231
0.00019498752
0.00025973362
0.00035178401
0.00049233012
0.00072808999
0.00098169352
1.9128001e-21
3.7201316e-19
9.9086434e-18
1.0045266e-16
6.0750872e-16
2.6916094e-15
9.719432e-15
3.0414474e-14
8.5685921e-14
2.2288685e-13
5.4474522e-13
1.2667532e-12
2.8289342e-12
6.1102128e-12
1.2834282e-11
2.6329532e-11
5.2937591e-11
1.046e-10
2.0356389e-10
3.9085191e-10
7.4134553e-10
1.3903075e-09
2.579132e-09
4.732386e-09
8.5833607e-09
1.5368366e-08
2.7104083e-08
4.6946675e-08
7.9589527e-08
1.3162004e-07
2.1180742e-07
3.3127254e-07
5.0333431e-07
7.4355427e-07
1.0698846e-06
1.4979471e-06
2.0343906e-06
2.6359721e-06
3.203228e-06
3.4729077e-06
3.3184336e-06
2.8593518e-06
2.5501647e-06
2.5972624e-06
3.2274969e-06
4.8799125e-06
1.0273166e-05
2.3560146e-05
4.7813771e-05
4.6869742e-05
4.137499e-05
4.3244166e-05
4.7926219e-05
5.5154369e-05
6.4910464e-05
7.8050243e-05
9.5153137e-05
0.00011900386
0.0001505744
0.00019634493
0.00025999587
0.00035193583
0.00049207464
0.00072021607
0.0009896561
1.415702e-21
2.7533481e-19
7.3336368e-18
7.4348395e-17
4.4964539e-16
1.9922376e-15
7.1942879e-15
2.2514076e-14
6.3434086e-14
1.6502649e-13
4.0340376e-13
9.383021e-13
2.0960953e-12
4.5292119e-12
9.5184229e-12
1.953983e-11
3.931819e-11
7.7766719e-11
1.5153059e-10
2.9140566e-10
5.5386177e-10
1.0414498e-09
1.9384309e-09
3.5715854e-09
6.5106113e-09
1.1725159e-08
2.0811057e-08
3.6272298e-08
6.1794762e-08
1.0238523e-07
1.6425715e-07
2.5446748e-07
3.8043704e-07
5.4933e-07
7.6649871e-07
1.0306125e-06
1.3244462e-06
1.6014269e-06
1.7694397e-06
1.7671771e-06
1.793396e-06
1.7201993e-06
2.0115118e-06
2.8037827e-06
4.3570681e-06
8.3499622e-06
1.8700423e-05
3.9627026e-05
4.7695066e-05
4.1307308e-05
4.2298055e-05
4.5273632e-05
5.0598785e-05
5.7902608e-05
6.7597377e-05
8.0632478e-05
9.7898622e-05
0.00012193858
0.0001539098
0.00019989262
0.00026292891
0.00035479847
0.00049726333
0.00072186745
0.00099664793
1.2254765e-21
2.3833897e-19
6.3482886e-18
6.4360093e-17
3.892503e-16
1.7247318e-15
6.2287434e-15
1.9494514e-14
5.4934352e-14
1.4294209e-13
3.4950982e-13
8.132234e-13
1.8174774e-12
3.9293838e-12
8.2637194e-12
1.6979278e-11
3.4203909e-11
6.7744725e-11
1.3222573e-10
2.5480149e-10
4.8547434e-10
9.1553103e-10
1.7100224e-09
3.1637785e-09
5.7948275e-09
1.0491494e-08
1.8722984e-08
3.2789222e-08
5.6005142e-08
9.2608556e-08
1.4716348e-07
2.2348133e-07
3.235511e-07
4.4662367e-07
5.8786041e-07
7.3699041e-07
8.7353866e-07
9.7633023e-07
1.0398456e-06
1.1363073e-06
1.2839642e-06
1.6820003e-06
2.4365442e-06
3.7775084e-06
7.0134218e-06
1.5381014e-05
3.2777139e-05
5.1545294e-05
4.4423356e-05
4.4001842e-05
4.5360373e-05
4.8344445e-05
5.3510213e-05
6.0898221e-05
7.0825535e-05
8.4129896e-05
0.0001018138
0.00012618646
0.00015866788
0.00020472697
0.00026789124
0.00035926898
0.0005088191
0.00074085955
0.00099680756
1.0961523e-21
2.1318733e-19
5.6783868e-18
5.7569157e-17
3.4818586e-16
1.5428293e-15
5.572079e-15
1.7440449e-14
4.9150437e-14
1.279068e-13
3.127935e-13
7.2793205e-13
1.6272494e-12
3.5191628e-12
7.4037282e-12
1.5219106e-11
3.0674705e-11
6.0793693e-11
1.1874787e-10
2.2902887e-10
4.3680348e-10
8.2466585e-10
1.5422208e-09
2.8572524e-09
5.2413458e-09
9.5054736e-09
1.6988005e-08
2.9764528e-08
5.07388e-08
8.3329804e-08
1.3045761e-07
1.9293887e-07
2.6796403e-07
3.5065015e-07
4.3784494e-07
5.2410232e-07
6.0698981e-07
6.7490461e-07
8.3333895e-07
1.0112792e-06
1.3943562e-06
2.0580043e-06
3.1929347e-06
6.0154954e-06
1.2937694e-05
2.7324303e-05
5.061691e-05
5.0183948e-05
4.7996813e-05
4.7994594e-05
4.879915e-05
5.2132689e-05
5.7433815e-05
6.4833396e-05
7.4833148e-05
8.8334674e-05
0.00010639337
0.00013113693
0.00016416736
0.00021037582
0.0002741173
0.00036545948
0.00052489757
0.000786604
0.00099817615
9.1875553e-22
1.7868593e-19
4.7594138e-18
4.8252186e-17
2.9183367e-16
1.2931156e-15
4.6701337e-15
1.4617024e-14
4.1192057e-14
1.0719105e-13
2.6211581e-13
6.0993836e-13
1.3633076e-12
2.9478372e-12
6.2002895e-12
1.2741252e-11
2.566952e-11
5.0845138e-11
9.9241405e-11
1.9122172e-10
3.6424674e-10
6.8660937e-10
1.2815418e-09
2.3685716e-09
4.3318898e-09
7.8263346e-09
1.3922553e-08
2.4254933e-08
4.104524e-08
6.6762153e-08
1.0327925e-07
1.505115e-07
2.056385e-07
2.676958e-07
3.3427019e-07
4.0829221e-07
4.6061568e-07
5.8589622e-07
8.0432416e-07
1.1439642e-06
1.7260971e-06
2.7314457e-06
5.2121721e-06
1.1012186e-05
2.2833425e-05
4.358179e-05
6.0628645e-05
5.4385919e-05
5.2417924e-05
5.1209153e-05
5.2751163e-05
5.6075313e-05
6.1398999e-05
6.8928817e-05
7.906645e-05
9.2799497e-05
0.00011126613
0.00013643304
0.00017003073
0.00021658156
0.00028081202
0.00037360543
0.00054017811
0.0008575976
0.00099893415
7.1136706e-22
1.3835141e-19
3.6850547e-18
3.73594e-17
2.2594543e-16
1.0011095e-15
3.6152514e-15
1.1314089e-14
3.187931e-14
8.2940715e-14
2.0276351e-13
4.7166768e-13
1.0537912e-12
2.2772983e-12
4.7864609e-12
9.8268181e-12
1.9774552e-11
3.9110156e-11
7.6193148e-11
1.4646668e-10
2.7818406e-10
5.2251342e-10
9.7107411e-10
1.7856507e-09
3.2467003e-09
5.8277036e-09
1.0296563e-08
1.782296e-08
3.0016998e-08
4.8746022e-08
7.5550913e-08
1.1086589e-07
1.544374e-07
2.0666229e-07
2.7311614e-07
3.4890277e-07
4.4140107e-07
6.4072478e-07
9.3984499e-07
1.462047e-06
2.3585302e-06
4.5114867e-06
9.3314816e-06
1.9278335e-05
3.7709501e-05
6.2317846e-05
6.21951e-05
5.8144967e-05
5.5401473e-05
5.5255649e-05
5.6708891e-05
5.9994779e-05
6.5302313e-05
7.2886924e-05
8.3246777e-05
9.7336396e-05
0.00011625276
0.00014187681
0.00017605451
0.00022306839
0.00028750406
0.00038235964
0.00055065558
0.00093786569
0.00099893328
5.4995993e-22
1.0695968e-19
2.8488946e-18
2.8881587e-17
1.7466376e-16
7.7383036e-16
2.7941667e-15
8.7430992e-15
2.4630086e-14
6.4063568e-14
1.5656305e-13
3.640447e-13
8.1291832e-13
1.7556193e-12
3.6870152e-12
7.5620702e-12
1.5198563e-11
3.0014815e-11
5.8367991e-11
1.1195749e-10
2.1209346e-10
3.971796e-10
7.3561484e-10
1.3475343e-09
2.4402183e-09
4.3626924e-09
7.6821878e-09
1.3273419e-08
2.2383197e-08
3.6579668e-08
5.7548818e-08
8.6971688e-08
1.2702852e-07
1.8310169e-07
2.6141463e-07
3.6015034e-07
5.2359157e-07
7.9302369e-07
1.2595053e-06
2.0587543e-06
3.9063719e-06
7.9361198e-06
1.6463599e-05
3.2834503e-05
5.5217848e-05
7.4330871e-05
6.674726e-05
6.1647918e-05
5.9241351e-05
5.8795865e-05
6.0175748e-05
6.3626234e-05
6.9176497e-05
7.6929437e-05
8.7483999e-05
0.00010190989
0.00012125138
0.00014736405
0.00018209784
0.00022958321
0.00029393141
0.00039024495
0.00055361683
0.00099046592
0.0010017234
4.972134e-22
9.6701089e-20
2.5756397e-18
2.6110911e-17
1.5790217e-16
6.9952988e-16
2.52568e-15
7.902183e-15
2.2258355e-14
5.7885929e-14
1.4144074e-13
3.2881467e-13
7.34077e-13
1.5849285e-12
3.3275542e-12
6.8225847e-12
1.3707506e-11
2.7060395e-11
5.2604092e-11
1.0087007e-10
1.91047e-10
3.5774457e-10
6.627043e-10
1.2146657e-09
2.2020884e-09
3.944614e-09
6.9682395e-09
1.2102162e-08
2.0579422e-08
3.4136248e-08
5.5133274e-08
8.6424088e-08
1.3197678e-07
2.0088584e-07
2.9827531e-07
4.3827486e-07
6.8742691e-07
1.0991723e-06
1.818555e-06
3.3997107e-06
6.8009978e-06
1.4159082e-05
2.8593024e-05
4.8812302e-05
7.2497815e-05
7.4975432e-05
6.7807438e-05
6.3484475e-05
6.1707925e-05
6.1700148e-05
6.3506928e-05
6.7183159e-05
7.2831469e-05
8.0762909e-05
9.1628349e-05
0.00010645019
0.00012620855
0.00015283263
0.00018805293
0.00023599768
0.00030007448
0.00039708284
0.00055063955
0.00099111593
0.0010104684
5.6297516e-22
1.0949081e-19
2.9162875e-18
2.9564035e-17
1.787816e-16
7.9200935e-16
2.859488e-15
8.9462353e-15
2.5198107e-14
6.5528331e-14
1.601081e-13
3.7220012e-13
8.3092275e-13
1.7940483e-12
3.7668034e-12
7.724075e-12
1.5521846e-11
3.0652006e-11
5.9614999e-11
1.1439425e-10
2.1687531e-10
4.0665311e-10
7.5463863e-10
1.3866545e-09
2.5228713e-09
4.5417253e-09
8.0776496e-09
1.4157581e-08
2.4367207e-08
4.0930091e-08
6.672091e-08
1.0557498e-07
1.6383376e-07
2.5157351e-07
3.8112345e-07
6.0884792e-07
9.7562899e-07
1.6271973e-06
2.9957387e-06
5.9038039e-06
1.2242594e-05
2.4775763e-05
4.2976414e-05
6.4796724e-05
7.9278485e-05
7.2776592e-05
6.7764069e-05
6.5239957e-05
6.4086347e-05
6.4417866e-05
6.6418836e-05
7.0319959e-05
7.6190834e-05
8.4370448e-05
9.5594468e-05
0.00011084741
0.00013104806
0.00015820304
0.00019387096
0.00024231063
0.0003061952
0.00040288363
0.00054902301
0.00094900142
0.0010141674
7.6776805e-22
1.4932017e-19
3.9771407e-18
4.0318438e-17
2.4381568e-16
1.0801089e-15
3.8996384e-15
1.2200471e-14
3.4364283e-14
8.9366833e-14
2.1836132e-13
5.0765025e-13
1.1334155e-12
2.4475024e-12
5.1398373e-12
1.0542547e-11
2.1193867e-11
4.1876635e-11
8.1515747e-11
1.5661676e-10
2.9745056e-10
5.5906759e-10
1.0406499e-09
1.918517e-09
3.5009918e-09
6.3143649e-09
1.1225704e-08
1.9587638e-08
3.3380445e-08
5.5383569e-08
8.9371594e-08
1.4067332e-07
2.1830483e-07
3.4220643e-07
5.4469957e-07
8.7828848e-07
1.471656e-06
2.6659624e-06
5.1794409e-06
1.0613056e-05
2.1373888e-05
3.7861607e-05
5.8068718e-05
8.0315529e-05
7.5738006e-05
7.0897615e-05
6.82086e-05
6.6299793e-05
6.5565639e-05
6.6376846e-05
6.8880809e-05
7.3176819e-05
7.9357296e-05
8.7852672e-05
9.9446807e-05
0.00011510926
0.00013574669
0.00016343143
0.00019956671
0.0002485687
0.00031227913
0.00040819425
0.00054960368
0.00089273968
0.00099241156
1.1475769e-21
2.2318773e-19
5.9446109e-18
6.0263968e-17
3.6443369e-16
1.6144669e-15
5.8289877e-15
1.8237113e-14
5.1369122e-14
1.335958e-13
3.2645384e-13
7.5901545e-13
1.6948377e-12
3.6604217e-12
7.6885725e-12
1.5774394e-11
3.1723169e-11
6.2709306e-11
1.2211963e-10
2.3469289e-10
4.4570134e-10
8.3710428e-10
1.5553434e-09
2.8575903e-09
5.1847278e-09
9.2705084e-09
1.6282725e-08
2.7994506e-08
4.697528e-08
7.6859753e-08
1.2281704e-07
1.934819e-07