/*--------------------------------*- C++ -*----------------------------------*\
  =========                 |
  \\      /  F ield         | OpenFOAM: The Open Source CFD Toolbox
   \\    /   O peration     | Website:  https://openfoam.org
    \\  /    A nd           | Version:  13
     \\/     M anipulation  |
\*---------------------------------------------------------------------------*/
FoamFile
{
    format      ascii;
    class       volSymmTensorField;
    location    "2.702327";
    object      UPrime2Mean;
}
// * * * * * * * * * * * * * * * * * * * * * * * * * * * * * * * * * * * * * //

dimensions      [0 2 -2 0 0 0 0];

internalField   nonuniform List<symmTensor> 
17140
(
(2.488528e-12 -1.0211175e-10 -1.4056506e-26 4.4757569e-09 2.2028587e-25 7.9087056e-40)
(3.67834e-10 -3.934742e-09 -6.8444819e-27 4.2305176e-08 4.8853784e-26 7.0297064e-42)
(3.2660572e-09 -2.0405845e-08 1.1408137e-24 1.2788868e-07 -5.1403386e-24 3.0645588e-38)
(1.5258222e-08 -6.4577699e-08 -2.4703134e-24 2.7397779e-07 7.9187317e-24 3.703684e-38)
(5.0853489e-08 -1.5854867e-07 4.9951941e-25 4.9539129e-07 -1.2192215e-24 5.0616732e-40)
(1.391647e-07 -3.3520432e-07 -2.6131113e-24 8.0908435e-07 5.0656669e-24 5.4217046e-39)
(3.3453142e-07 -6.4183162e-07 -6.6818217e-24 1.2340089e-06 1.0548078e-23 1.536722e-38)
(7.3331405e-07 -1.1447119e-06 4.7782693e-24 1.7908818e-06 -6.2445353e-24 3.6627139e-39)
(1.5000613e-06 -1.9348177e-06 2.2297132e-23 2.5016456e-06 -2.4408333e-23 3.9241213e-38)
(2.9073779e-06 -3.1345211e-06 7.6340478e-23 3.3886291e-06 -7.0618018e-23 2.3607902e-37)
(5.395417e-06 -4.9051251e-06 -1.5538236e-22 4.4732883e-06 1.222753e-22 5.1911324e-37)
(9.6589045e-06 -7.4548489e-06 1.8748776e-22 5.7744914e-06 -1.2615802e-22 4.1228694e-37)
(1.6771956e-05 -1.1046593e-05 3.8412219e-23 7.3062896e-06 -2.2191194e-23 9.6589038e-39)
(2.836306e-05 -1.6004356e-05 -2.8792046e-22 9.0752825e-06 1.4325742e-22 3.0895744e-37)
(4.6854729e-05 -2.2716803e-05 4.2007229e-23 1.107772e-05 -1.8043079e-23 3.8085402e-39)
(7.5783578e-05 -3.163616e-05 -4.3387647e-22 1.3296611e-05 1.6113504e-22 2.3896401e-37)
(0.00012021609 -4.3270394e-05 2.0900469e-23 1.5699305e-05 -6.7182556e-24 3.3095751e-40)
(0.00018727318 -5.8167426e-05 -6.0196131e-24 1.8236346e-05 1.6759366e-24 1.6570004e-41)
(0.00028677065 -7.6891263e-05 -5.4466057e-22 2.0842416e-05 1.313099e-22 8.3343767e-38)
(0.00043197997 -9.9992608e-05 8.9417724e-22 2.3439892e-05 -1.8662918e-22 1.3973538e-37)
(0.00064050933 -0.00012798037 -5.4078342e-22 2.5945682e-05 9.7646113e-23 3.2267113e-38)
(0.00093531139 -0.00016130389 1.284042e-22 2.8280853e-05 -2.0035986e-23 1.167874e-39)
(0.0013458583 -0.00020035931 1.1661795e-21 3.0381774e-05 -1.5705292e-22 6.2858924e-38)
(0.0019095518 -0.00024552851 -1.4182641e-21 3.221012e-05 1.6458671e-22 6.1823576e-38)
(0.0026735791 -0.00029725234 -2.7247093e-21 3.3758092e-05 2.7198885e-22 1.5476425e-37)
(0.0036974349 -0.00035612315 2.6141654e-21 3.5047465e-05 -2.2404482e-22 9.8650722e-38)
(0.0050554896 -0.00042291602 1.5170221e-20 3.6119119e-05 -1.1140943e-21 2.3489358e-36)
(0.0068426445 -0.00049860898 2.0905668e-21 3.7013894e-05 -1.3127309e-22 3.2204172e-38)
(0.0091793344 -0.00058423825 -2.1254766e-20 3.7757882e-05 1.1380566e-21 2.455871e-36)
(0.012215395 -0.00068063705 -5.7097816e-21 3.8354171e-05 2.5978276e-22 1.3317679e-37)
(0.016138025 -0.00078817929 -2.3224162e-20 3.8774865e-05 8.9317196e-22 1.6871018e-36)
(0.02117547 -0.00090643974 3.4594008e-20 3.8967529e-05 -1.1166894e-21 2.9158234e-36)
(0.027600822 -0.0010339022 -1.0134757e-20 3.8864851e-05 2.7202269e-22 1.9794143e-37)
(0.035731711 -0.0011677021 -5.4088456e-21 3.8399001e-05 1.1917073e-22 4.5294143e-38)
(0.045926229 -0.0013032099 -5.9043302e-20 3.750152e-05 1.0497922e-21 4.3954715e-36)
(0.058572142 -0.0014337301 2.8582718e-20 3.6114911e-05 -4.0018214e-22 8.5158084e-37)
(0.074064909 -0.0015499785 -4.7206795e-20 3.4194193e-05 5.0219919e-22 1.9470546e-36)
(0.092769994 -0.001639339 -3.4757096e-20 3.1707214e-05 2.6503523e-22 8.9816934e-37)
(0.11496186 -0.0016853169 -1.7175737e-20 2.865947e-05 8.4218226e-23 1.8954642e-37)
(0.14072856 -0.0016660045 5.5672007e-20 2.5086511e-05 -1.3414164e-22 1.7503382e-36)
(0.16983288 -0.0015542865 1.1128853e-19 2.113652e-05 -1.020208e-23 6.2551318e-36)
(0.20152142 -0.0013173575 1.0580114e-19 1.7101171e-05 2.2334899e-22 5.155879e-36)
(0.23430063 -0.00092225297 4.7806682e-20 1.3583171e-05 2.0351906e-22 9.8133227e-37)
(0.26574308 -0.00034648308 -2.3751689e-19 1.1618748e-05 -1.5184078e-21 2.3150933e-35)
(0.29230741 0.00040570792 -1.744751e-19 1.2650857e-05 -1.4944127e-21 1.2297461e-35)
(0.3097855 0.0013206918 4.2292426e-20 1.7876956e-05 4.588133e-22 7.3601886e-37)
(0.31339539 0.0023199743 -2.7773287e-19 2.8318881e-05 -3.6851956e-21 3.3632634e-35)
(0.30019424 0.0032149399 -8.8995121e-20 4.369543e-05 -1.4025266e-21 3.8281336e-36)
(0.26992818 0.003829501 8.3434495e-20 6.1265523e-05 1.5250582e-21 3.9151433e-36)
(0.22550307 0.0040357196 1.8308216e-19 7.6379958e-05 3.8021532e-21 2.3084915e-35)
(0.17345093 0.0037654885 -9.851633e-20 8.3568533e-05 -2.2741236e-21 8.606712e-36)
(0.12256831 0.0030824727 -5.3154923e-20 7.8212336e-05 -1.3272821e-21 3.3704566e-36)
(0.080416689 0.0022182044 1.1671436e-19 6.1895323e-05 3.0639089e-21 2.2514849e-35)
(0.050587442 0.0014240343 4.6154822e-20 4.1015733e-05 1.2386436e-21 4.9404739e-36)
(0.031960833 0.00085718468 2.7598997e-20 2.3733094e-05 7.4507266e-22 2.4663556e-36)
(0.020963475 0.00051459604 -1.8317771e-20 1.3073432e-05 -4.9812652e-22 1.4974763e-36)
(0.014384029 0.00032315481 4.1981084e-20 7.5820914e-06 1.1705768e-21 1.0729096e-35)
(0.010133257 0.00021533551 2.9790131e-20 4.9031501e-06 8.7435807e-22 7.3775091e-36)
(0.0071398424 0.00014879045 6.2938357e-21 3.4368282e-06 1.9989646e-22 4.5703052e-37)
(0.0049332245 0.0001023821 -1.3501015e-20 2.4680935e-06 -4.745764e-22 3.0040334e-36)
(0.0033430108 6.6664496e-05 -8.6313379e-21 1.6814835e-06 -3.4298032e-22 1.8252726e-36)
(0.0022994418 4.0663716e-05 -2.5547537e-20 1.0591933e-06 -1.1701636e-21 2.4838402e-35)
(0.0016797287 2.2780511e-05 -2.9164515e-21 5.7856774e-07 -1.5944219e-22 5.3228676e-37)
(0.0013802349 1.2833823e-05 1.7984391e-20 3.0363202e-07 1.2493823e-21 3.7592423e-35)
(0.0012220837 6.4216341e-06 -8.93698e-21 1.4950156e-07 -9.7530269e-22 2.2466841e-35)
(2.272439e-10 -5.3013382e-09 1.7996697e-26 1.2378147e-07 -3.5655616e-25 6.4047389e-41)
(3.6533634e-09 -6.5367204e-08 -6.152258e-24 1.1702606e-06 9.6090955e-23 8.4350844e-37)
(1.650367e-08 -2.4161554e-07 1.0620555e-23 3.5393183e-06 -1.354091e-22 6.6796668e-37)
(5.1601099e-08 -6.2557827e-07 -4.8528228e-24 7.5884017e-06 5.1396859e-23 4.9643207e-38)
(1.3233541e-07 -1.3478652e-06 -1.5565212e-23 1.3736097e-05 1.3929552e-22 2.1184802e-37)
(3.0057527e-07 -2.5977548e-06 4.4047072e-23 2.246429e-05 -3.3734424e-22 7.7348642e-37)
(6.2838539e-07 -4.6423632e-06 -6.5829014e-23 3.4317138e-05 4.3501056e-22 8.4048953e-37)
(1.2361096e-06 -7.8509509e-06 8.1103956e-24 4.989599e-05 -4.6501013e-23 6.5100186e-39)
(2.3200011e-06 -1.2725168e-05 -3.4802148e-23 6.9847255e-05 1.7383127e-22 6.3451154e-38)
(4.1935696e-06 -1.9934792e-05 -7.9719094e-25 9.4841653e-05 3.4798022e-24 1.8126737e-41)
(7.3483971e-06 -3.0358266e-05 -2.1071637e-22 0.00012554234 8.0572534e-22 7.0716359e-37)
(1.254207e-05 -4.5126354e-05 4.4385468e-22 0.0001625601 -1.4896454e-21 1.7850484e-36)
(2.092301e-05 -6.5665717e-05 4.8193344e-23 0.00020639459 -1.4217806e-22 1.2172269e-38)
(3.4204255e-05 -9.373723e-05 -6.2070537e-22 0.00025736234 1.611429e-21 1.1848733e-36)
(5.4900026e-05 -0.00013146159 2.4708661e-22 0.00031551516 -5.6489743e-22 1.11613e-37)
(8.6640573e-05 -0.00018132353 2.0208972e-22 0.00038055682 -4.0702615e-22 4.4911809e-38)
(0.00013458006 -0.00024614459 -1.6409067e-21 0.00045177107 2.9116407e-21 1.8013598e-36)
(0.00020591128 -0.00032901807 6.7992205e-21 0.00052797937 -1.0625954e-20 1.9030213e-35)
(0.00031049558 -0.00043320443 -5.3793756e-21 0.00060755108 7.400292e-21 7.415035e-36)
(0.00046161379 -0.00056200073 8.0874829e-21 0.00068848914 -9.7854151e-21 1.0561563e-35)
(0.00067684162 -0.00071861386 -1.4880944e-20 0.00076860454 1.581947e-20 2.2836301e-35)
(0.00097906106 -0.00090609062 4.5076197e-21 0.00084577883 -4.2051404e-21 1.3579484e-36)
(0.0013976411 -0.001127368 2.2750324e-21 0.00091827951 -1.8600458e-21 2.2780665e-37)
(0.0019698647 -0.0013854984 -9.0269026e-21 0.00098506105 6.4594051e-21 2.4030113e-36)
(0.0027427938 -0.0016840767 3.9030609e-20 0.0010459655 -2.4412221e-20 3.0675856e-35)
(0.0037758072 -0.0020277791 6.9341233e-21 0.0011017272 -3.7863251e-21 6.7399531e-37)
(0.0051430867 -0.0024226123 -4.2370497e-20 0.0011537435 2.017794e-20 1.7892442e-35)
(0.0069392427 -0.0028762527 5.5496805e-20 0.001203559 -2.3028556e-20 2.2267037e-35)
(0.0092842352 -0.0033973302 -8.8341271e-21 0.0012523148 3.19103e-21 4.1796101e-37)
(0.01232697 -0.0039942479 -9.9325195e-20 0.0013005178 3.1191374e-20 3.981024e-35)
(0.016253254 -0.0046741778 1.1738982e-20 0.0013477571 -3.1985077e-21 4.2713827e-37)
(0.021289325 -0.0054413236 1.0180337e-19 0.0013927293 -2.4003226e-20 2.5061408e-35)
(0.027705509 -0.006295587 2.8868206e-21 0.0014334468 -5.8709192e-22 1.5912498e-38)
(0.035815969 -0.0072310234 -9.5404158e-20 0.0014674394 1.6652633e-20 1.4037776e-35)
(0.045974696 -0.0082339678 1.1825113e-19 0.0014918048 -1.7623194e-20 1.7601088e-35)
(0.058564589 -0.0092806931 -5.8778462e-20 0.0015032199 7.4293732e-21 3.5989324e-36)
(0.073975931 -0.01033405 7.5834431e-20 0.0014978322 -8.0592492e-21 5.0324225e-36)
(0.092568609 -0.011338572 2.6255091e-19 0.0014710806 -2.3201653e-20 5.1387636e-35)
(0.1146112 -0.012214322 6.3522279e-20 0.0014177206 -4.5941617e-21 2.6021918e-36)
(0.14018526 -0.012849169 2.6583592e-19 0.0013320921 -1.5354981e-20 4.0095069e-35)
(0.1690456 -0.013092059 -3.6102024e-19 0.0012092379 1.6008075e-20 6.6220677e-35)
(0.20042766 -0.012750757 -3.4856914e-19 0.0010471955 1.1061761e-20 5.6342221e-35)
(0.23281896 -0.011603216 -6.1827899e-20 0.00085099898 1.2124928e-21 1.6536862e-36)
(0.26375256 -0.0094382736 5.0519241e-19 0.00063856968 -3.8292746e-21 1.0569875e-34)
(0.28964191 -0.0061285245 -2.4032944e-19 0.00044507275 -1.080455e-21 2.3580151e-35)
(0.30618375 -0.0017150469 -8.2209904e-20 0.00031854121 -1.3891753e-21 2.8169987e-36)
(0.30903321 0.0033807313 4.2564126e-20 0.00031640045 1.2606867e-21 8.0248288e-37)
(0.29511036 0.0083766287 1.2535611e-19 0.00046939555 5.3110515e-21 7.7291163e-36)
(0.26412436 0.012391757 -5.6403871e-20 0.00075039731 -3.1010089e-21 1.8277162e-36)
(0.21925554 0.014585957 9.1620577e-20 0.0010695377 6.1291893e-21 5.9257672e-36)
(0.1671674 0.014475092 4.815071e-19 0.0012957988 3.7208051e-20 2.1172633e-34)
(0.11673359 0.012227669 1.9650002e-20 0.0012989288 1.6652108e-21 4.7612652e-37)
(0.075467027 0.0088596257 -7.4416138e-20 0.0010621503 -6.5620233e-21 9.5172298e-36)
(0.046745955 0.0056061215 1.3848041e-19 0.00070059833 1.2080048e-20 4.6378279e-35)
(0.029184905 0.0032684348 -9.9237697e-20 0.00038741534 -8.2713922e-21 3.3277324e-35)
(0.019070782 0.0018890142 2.3820288e-19 0.00019844792 1.882614e-20 2.6363761e-34)
(0.013148328 0.0011535812 5.7864599e-20 0.00010873737 4.432666e-21 2.1116292e-35)
(0.0093663322 0.00076526923 -1.3887392e-19 7.0268573e-05 -1.073305e-20 1.6495876e-34)
(0.0067019264 0.00054036483 1.9962713e-20 5.1518258e-05 1.6222394e-21 4.6939409e-36)
(0.0047148854 0.00038633114 1.9028019e-20 3.9641804e-05 1.6716641e-21 6.0468152e-36)
(0.0032560013 0.0002616189 3.1300072e-21 2.9216259e-05 3.0348977e-22 2.4148644e-37)
(0.0022765532 0.00016285567 -3.3390415e-20 1.975318e-05 -3.6150987e-21 4.2427572e-35)
(0.0016800016 8.925052e-05 5.0790259e-20 1.1293305e-05 6.3577483e-21 1.6081435e-34)
(0.0013843923 4.5768374e-05 1.1192743e-20 5.9056894e-06 1.7282777e-21 1.4411805e-35)
(0.0012229755 1.9056388e-05 1.2190073e-20 2.7850765e-06 2.9193938e-21 3.9806187e-35)
(1.9516055e-09 -2.7860191e-08 2.6585987e-24 3.9776144e-07 -3.5762803e-23 1.9467102e-37)
(2.2250064e-08 -2.8928182e-07 -4.3006454e-24 3.76145e-06 5.2767333e-23 7.7056488e-38)
(7.9351251e-08 -9.5019025e-07 -1.979693e-24 1.1379461e-05 2.219539e-23 5.450357e-39)
(2.0221903e-07 -2.2214459e-06 2.8600513e-24 2.4406994e-05 -2.9275174e-23 4.900379e-39)
(4.3625591e-07 -4.3907776e-06 -1.9887089e-23 4.4199517e-05 1.8602845e-22 1.1507906e-37)
(8.5366374e-07 -7.856556e-06 -2.0495393e-24 7.2320925e-05 1.7530109e-23 6.3622394e-40)
(1.567312e-06 -1.3161153e-05 -3.5459057e-23 0.00011054247 2.7712378e-22 1.0388881e-37)
(2.7512815e-06 -2.1032703e-05 -5.0873987e-23 0.00016082868 3.6279315e-22 1.2060508e-37)
(4.6711881e-06 -3.2436518e-05 5.4683097e-22 0.0002253015 -3.552176e-21 8.0565982e-36)
(7.7281222e-06 -4.8635303e-05 -6.3605774e-22 0.00030617701 3.7569056e-21 6.4226245e-36)
(1.2521568e-05 -7.1257043e-05 3.9361302e-22 0.00040566671 -2.1101122e-21 1.4707709e-36)
(1.9938332e-05 -0.00010236769 7.4137182e-22 0.00052583724 -3.6007119e-21 3.1570885e-36)
(3.1276475e-05 -0.0001445434 -1.8804775e-21 0.00066842435 8.2594227e-21 1.2410948e-35)
(4.8415275e-05 -0.00020093408 -2.9646456e-22 0.00083460267 1.1754111e-21 1.9004771e-37)
(7.4044105e-05 -0.00027530624 1.4521014e-21 0.0010247214 -5.1872129e-21 2.8305413e-36)
(0.00011196458 -0.00037205086 1.2615214e-21 0.0012380296 -4.0523916e-21 1.3355325e-36)
(0.00016748099 -0.00049614133 -1.8414808e-21 0.0014724311 5.308681e-21 1.7916965e-36)
(0.00024789256 -0.0006530293 8.3560358e-21 0.0017243277 -2.1572751e-20 2.3400252e-35)
(0.0003630999 -0.00084847884 -6.1623009e-21 0.0019886241 1.4215907e-20 8.1388851e-36)
(0.00052633426 -0.0010883581 3.7823327e-21 0.0022589698 -7.7789642e-21 1.9789396e-36)
(0.00075501983 -0.0013784402 -1.5736965e-20 0.0025282934 2.8786417e-20 2.2348848e-35)
(0.0010717862 -0.0017242987 -5.0166039e-21 0.0027896271 8.1422324e-21 1.4996702e-36)
(0.0015056665 -0.0021314056 1.2730732e-20 0.003037129 -1.8290302e-20 6.4674063e-36)
(0.0020935518 -0.0026055262 -2.3115747e-20 0.0032670965 2.9329503e-20 1.4500621e-35)
(0.0028820682 -0.0031534503 -1.0886788e-20 0.0034786734 1.2172322e-20 2.2245475e-36)
(0.003930121 -0.0037839437 1.5502267e-20 0.0036739567 -1.5243111e-20 3.1790627e-36)
(0.0053113617 -0.004508211 1.0342381e-19 0.0038573615 -8.9275008e-20 1.0156997e-34)
(0.0071194423 -0.0053405066 5.4492817e-20 0.0040340718 -4.1226461e-20 2.0635029e-35)
(0.0094728684 -0.0062967809 -3.1399644e-20 0.0042079273 2.0787154e-20 5.1135496e-36)
(0.012518393 -0.0073928047 3.8519166e-20 0.0043809185 -2.2273274e-20 5.83663e-36)
(0.016438358 -0.0086423078 -2.7407546e-20 0.0045520947 1.3809876e-20 2.2848036e-36)
(0.0214543 -0.010053993 -1.7551281e-19 0.0047175381 7.684725e-20 7.3449047e-35)
(0.027830082 -0.011629133 6.604849e-20 0.0048709948 -2.5043827e-20 8.2837433e-36)
(0.035871832 -0.013358816 2.2032892e-19 0.0050043944 -7.2058357e-20 7.4445243e-35)
(0.045923811 -0.015220698 -8.1663094e-20 0.0051081109 2.2923555e-20 8.38278e-36)
(0.05835758 -0.017174604 -1.2629127e-19 0.0051708249 3.0256577e-20 1.6642508e-35)
(0.073551037 -0.019156188 2.40133e-19 0.0051789809 -4.8742139e-20 5.0676193e-35)
(0.091851178 -0.021068067 7.9886296e-20 0.0051162472 -1.3607745e-20 4.7906977e-36)
(0.11351377 -0.022767721 -1.5372997e-19 0.0049631339 2.16709e-20 1.5399964e-35)
(0.1386085 -0.024053157 -6.6148656e-20 0.0046979659 7.5601636e-21 2.5145395e-36)
(0.16687916 -0.024648496 3.3812799e-19 0.0042999521 -3.0324905e-20 5.8925918e-35)
(0.19754933 -0.024199422 -1.0084969e-19 0.0037574041 6.695893e-21 4.7971019e-36)
(0.22908833 -0.022292766 -1.5185577e-19 0.0030816558 6.6848198e-21 1.0170476e-35)
(0.25899905 -0.018529896 -4.1603423e-19 0.0023277512 9.1013635e-21 7.3207301e-35)
(0.28369755 -0.012666387 7.9903212e-19 0.0016115098 4.1969716e-22 2.6691431e-34)
(0.29884111 -0.0048091469 -5.1266347e-19 0.0011040146 -1.2026988e-20 1.1249403e-34)
(0.30017601 0.0043253545 -1.253595e-19 0.00099735217 -5.8867769e-21 7.1798914e-36)
(0.28480365 0.013361652 -4.699784e-19 0.0014061395 -3.3255169e-20 1.127199e-34)
(0.25266951 0.020635796 -5.1943238e-19 0.0022584159 -4.8957069e-20 1.6194157e-34)
(0.20734161 0.024636641 -2.3592253e-20 0.0032707177 -2.7467176e-21 4.1599335e-37)
(0.15562379 0.024506999 8.7444576e-20 0.0040122992 1.1871355e-20 7.4258941e-36)
(0.10641736 0.020572956 -5.4939006e-19 0.0040478827 -8.2123835e-20 3.9906526e-34)
(0.066998061 0.014684495 -1.9675848e-19 0.0033041929 -3.0556659e-20 7.1863291e-35)
(0.040277214 0.0090646693 -1.6898626e-19 0.0021502543 -2.5750585e-20 7.5039166e-35)
(0.024501585 0.0051121245 -4.6634807e-20 0.0011516928 -6.6908755e-21 7.9978121e-36)
(0.015814623 0.0028610315 -3.0584035e-19 0.00056093971 -4.0812021e-20 4.7161567e-34)
(0.01094909 0.0017152005 1.039739e-19 0.00029395507 1.3199652e-20 7.3394263e-35)
(0.0079355283 0.0011376197 -2.7153116e-20 0.00018794119 -3.4315305e-21 6.7089431e-36)
(0.0058321056 0.00081561461 -1.9007296e-19 0.00013965367 -2.5074991e-20 4.4662301e-34)
(0.0042414234 0.00059867273 -6.3657843e-20 0.00011011213 -9.0391744e-21 6.9998681e-35)
(0.0030382645 0.00041871912 6.2668481e-20 8.3769286e-05 9.7889033e-21 9.8769809e-35)
(0.0021971989 0.00026944456 1.7430254e-19 5.8783405e-05 3.0248777e-20 1.1660066e-33)
(0.0016609501 0.00015177244 -4.368654e-20 3.4872404e-05 -8.7128641e-21 1.1893116e-34)
(0.0013829496 7.8826946e-05 -5.2148561e-20 1.8851035e-05 -1.2696208e-20 3.0903105e-34)
(0.0012262411 3.2825092e-05 -1.4848704e-20 9.0184086e-06 -5.4947452e-21 5.6696246e-35)
(7.7311698e-09 -7.8596837e-08 -1.750965e-23 7.9905498e-07 1.7278124e-22 2.1832346e-36)
(7.9823347e-08 -7.7680216e-07 5.8090033e-23 7.5596826e-06 -5.4814033e-22 4.0058279e-36)
(2.6215919e-07 -2.4491326e-06 -3.4748042e-23 2.2881155e-05 3.1290781e-22 5.2375584e-37)
(6.1490571e-07 -5.4946613e-06 5.5115847e-24 4.9102031e-05 -4.7257325e-23 6.1903433e-39)
(1.2242286e-06 -1.0436223e-05 -1.5018624e-22 8.8973257e-05 1.2243595e-21 2.419668e-36)
(2.2157683e-06 -1.7965338e-05 2.0743743e-22 0.00014567721 -1.6052242e-21 2.5908108e-36)
(3.7713719e-06 -2.8987482e-05 -4.1120716e-22 0.00022283155 3.0133768e-21 5.9627237e-36)
(6.152763e-06 -4.4677395e-05 2.4905716e-22 0.00032446675 -1.7234724e-21 1.3203165e-36)
(9.7351226e-06 -6.6545937e-05 1.2058147e-21 0.00045496245 -7.8552406e-21 1.9090911e-35)
(1.5053954e-05 -9.6517136e-05 -3.6630612e-22 0.00061892943 2.2392317e-21 1.1041947e-36)
(2.2870019e-05 -0.00013701382 -1.7524375e-21 0.00082102185 1.0019584e-20 1.6023344e-35)
(3.4258524e-05 -0.00019104806 6.691451e-22 0.0010656653 -3.5664703e-21 1.4940686e-36)
(5.0730513e-05 -0.00026231009 5.5754976e-23 0.0013566914 -2.7609369e-22 6.6784007e-39)
(7.4396024e-05 -0.00035524514 -2.714436e-21 0.0016968777 1.244642e-20 1.0237591e-35)
(0.00010818091 -0.0004751051 1.0536684e-20 0.0020874111 -4.4583096e-20 1.0021613e-34)
(0.00015610986 -0.00062795618 -8.0094908e-21 0.0025273152 3.1164675e-20 3.7765196e-35)
(0.00022367125 -0.00082062745 -9.4299072e-23 0.0030129186 3.3621925e-22 3.4265319e-39)
(0.0003182778 -0.0010605849 6.7467764e-21 0.0035374769 -2.1963472e-20 1.1535583e-35)
(0.00044983902 -0.0013557329 -2.1057358e-20 0.004091098 6.2360471e-20 7.4274982e-35)
(0.00063145871 -0.0017141659 1.2172386e-20 0.004661131 -3.2671545e-20 1.6510669e-35)
(0.00088027835 -0.0021439393 2.2141014e-20 0.0052331466 -5.3660836e-20 3.6626629e-35)
(0.0012184878 -0.002652962 1.0879711e-20 0.0057925407 -2.3720593e-20 5.9865565e-36)
(0.0016745444 -0.0032491498 -6.4928404e-20 0.0063266025 1.2688151e-19 1.4601866e-34)
(0.0022846632 -0.0039409619 -4.0667764e-20 0.0068266676 7.0978604e-20 3.9749722e-35)
(0.00309471 -0.0047383711 3.1270709e-20 0.007289751 -4.8580664e-20 1.6557455e-35)
(0.0041627195 -0.0056541448 -2.1541184e-20 0.0077190315 2.9694607e-20 5.6230563e-36)
(0.0055614592 -0.0067045734 9.4546004e-20 0.0081228217 -1.1531782e-19 7.8910104e-35)
(0.0073829066 -0.0079100535 -3.1561422e-20 0.0085116525 3.3971749e-20 6.5174767e-36)
(0.0097431063 -0.0092934104 9.8096963e-20 0.0088937215 -9.2947514e-20 4.7486764e-35)
(0.012785534 -0.010877456 -6.3484479e-20 0.0092737897 5.2812542e-20 1.5248821e-35)
(0.016687074 -0.012681991 4.4671453e-20 0.0096507203 -3.2532594e-20 5.8786686e-36)
(0.021662024 -0.014719944 -1.851743e-19 0.010017162 1.176779e-19 7.9875082e-35)
(0.02796442 -0.016993809 2.98758e-20 0.010360728 -1.6508326e-20 1.667912e-36)
(0.035888025 -0.019491842 -1.7602778e-19 0.010664958 8.423991e-20 4.7044783e-35)
(0.045762167 -0.022183561 1.8712929e-19 0.010909922 -7.7198426e-20 4.3806315e-35)
(0.057941279 -0.025013396 6.6098316e-20 0.011071738 -2.3382319e-20 4.5591189e-36)
(0.072784495 -0.027891677 -9.0441196e-19 0.011121473 2.7236828e-19 7.2315151e-34)
(0.090619935 -0.030681747 -2.5714949e-19 0.0110237 6.5346593e-20 5.0166065e-35)
(0.11168609 -0.033182339 2.3057366e-19 0.010735556 -4.8798894e-20 3.5142529e-35)
(0.13603902 -0.035105803 -2.4307247e-19 0.010208122 4.2028037e-20 3.4557956e-35)
(0.16341351 -0.03605623 6.6517797e-20 0.0093928284 -9.1148333e-21 2.3273487e-36)
(0.19302663 -0.035519644 4.3831041e-19 0.008257977 -4.5139373e-20 9.2815405e-35)
(0.22333507 -0.032890631 -2.1159753e-20 0.0068195222 1.4792666e-21 2.0338505e-37)
(0.25179989 -0.027574496 -1.5700469e-19 0.0051856926 5.8554544e-21 1.0747469e-35)
(0.27477698 -0.01919864 7.7395315e-20 0.0035988498 -3.040335e-22 2.5849442e-36)
(0.28788171 -0.0079485992 -3.8296648e-20 0.0024378523 -1.1420783e-21 6.5128968e-37)
(0.28696006 0.0050908862 -1.0698716e-19 0.0021251088 -6.9907279e-21 5.472042e-36)
(0.26950618 0.017926463 1.5561823e-18 0.0029070245 1.57498e-19 1.3062959e-33)
(0.23608398 0.028148582 -1.6019613e-19 0.0046380826 -2.1900501e-20 1.6386413e-35)
(0.19076344 0.03364 1.3199949e-19 0.006725531 2.2507218e-20 1.3972509e-35)
(0.14041344 0.033285409 -1.0774831e-18 0.0082650267 -2.1547766e-19 1.2287304e-33)
(0.093699795 0.027642958 5.0080825e-19 0.008338064 1.1056863e-19 3.6582432e-34)
(0.057300946 0.019409798 3.445517e-19 0.0067840969 7.8958392e-20 2.4489068e-34)
(0.033344444 0.011696852 2.7390979e-19 0.0043729159 6.1236439e-20 2.2004358e-34)
(0.01969559 0.0063789081 2.2113381e-19 0.0022833275 4.6013465e-20 2.0082627e-34)
(0.012506383 0.003440047 2.9454082e-19 0.0010574441 5.6116661e-20 4.8640115e-34)
(0.0086651556 0.0020069025 -5.052369e-19 0.0005218275 -9.0140716e-20 1.9116685e-33)
(0.0063755664 0.0013190313 2.6811815e-19 0.00032422462 4.7079472e-20 7.1322586e-34)
(0.004812107 0.00095288306 3.49246e-19 0.00024145329 6.3659038e-20 1.6205206e-33)
(0.0036282421 0.00071435869 -2.1749299e-19 0.00019341103 -4.2588659e-20 8.6413067e-34)
(0.002714701 0.00051540322 -5.7800254e-20 0.00015097435 -1.2447367e-20 8.7466729e-35)
(0.0020511077 0.00034424024 -4.1034848e-20 0.00010984762 -9.8168845e-21 6.6341363e-35)
(0.0016066299 0.00020120792 1.650609e-19 6.7764611e-05 4.5277605e-20 1.7186132e-33)
(0.0013644107 0.00010770442 9.0574401e-20 3.8158209e-05 3.0099662e-20 9.2750062e-34)
(0.0012228019 4.6088157e-05 -2.6705399e-21 1.8860778e-05 -1.3327827e-21 1.8005802e-36)
(2.0813315e-08 -1.6323786e-07 2.0469405e-23 1.2802795e-06 -1.5771585e-22 1.0824772e-36)
(2.0638593e-07 -1.5815599e-06 -1.3860673e-22 1.211984e-05 1.0419713e-21 8.6477088e-36)
(6.5400188e-07 -4.8996549e-06 1.8286029e-22 3.6708145e-05 -1.3381275e-21 5.7487154e-36)
(1.4764227e-06 -1.0788136e-05 -9.8632764e-23 7.8831528e-05 7.0142836e-22 8.2119944e-37)
(2.826106e-06 -2.0099512e-05 -4.8086267e-23 0.00014295864 3.318609e-22 1.0721277e-37)
(4.911736e-06 -3.392051e-05 5.4112516e-22 0.00023427707 -3.6182822e-21 7.9420525e-36)
(8.0180535e-06 -5.3626629e-05 -1.7549121e-22 0.00035871224 1.1344947e-21 5.0975838e-37)
(1.2532634e-05 -8.0946404e-05 -4.7001946e-22 0.00052290449 2.9302487e-21 2.2998205e-36)
(1.8982442e-05 -0.00011803704 -4.4994698e-23 0.00073412556 2.6975462e-22 1.3550177e-38)
(2.8082925e-05 -0.00016756919 -4.73174e-22 0.0010001102 2.7197846e-21 9.7882376e-37)
(4.0803785e-05 -0.00023281878 8.1558361e-22 0.001328779 -4.4802273e-21 1.9215708e-36)
(5.845668e-05 -0.00031776168 -6.9493215e-22 0.0017278257 3.6360956e-21 9.2951911e-37)
(8.2811569e-05 -0.00042716412 -3.1302602e-21 0.0022041516 1.554572e-20 1.2640068e-35)
(0.00011624999 -0.00056665835 -1.1097762e-22 0.0027631381 5.2121198e-22 1.0689466e-38)
(0.00016196549 -0.00074278985 3.555149e-21 0.0034077757 -1.5729424e-20 7.4108614e-36)
(0.00022422339 -0.00096301971 3.0632621e-21 0.004137706 -1.2716917e-20 3.7250318e-36)
(0.00030869397 -0.0012356649 -3.2024787e-21 0.0049482841 1.242262e-20 2.7632432e-36)
(0.00042287645 -0.0015697683 3.7280176e-22 0.0058298362 -1.3453747e-21 2.5495777e-38)
(0.00057663072 -0.0019748962 9.1718582e-21 0.0067673494 -3.0655673e-20 1.0536747e-35)
(0.00078283958 -0.0024608979 1.3497778e-20 0.0077408667 -4.1589721e-20 1.5657206e-35)
(0.0010582281 -0.003037695 -1.8545746e-20 0.0087268384 5.2430005e-20 2.0403623e-35)
(0.001424368 -0.0037152094 -2.2369682e-20 0.0097005393 5.7747041e-20 2.0648269e-35)
(0.0019089181 -0.0045035903 3.5898771e-20 0.010639391 -8.4219561e-20 3.7342253e-35)
(0.002547148 -0.0054138645 -5.2666938e-20 0.011526643 1.1176422e-19 5.7081968e-35)
(0.003383848 -0.0064590751 -1.0746722e-19 0.012354464 2.0535812e-19 1.7099383e-34)
(0.0044757956 -0.0076557805 2.9604593e-19 0.013125329 -5.0723459e-19 9.4719928e-34)
(0.0058944331 -0.0090250737 -1.890431e-19 0.013850904 2.8926649e-19 2.862779e-34)
(0.007729378 -0.010592825 3.223738e-19 0.014547838 -4.3892391e-19 6.2689233e-34)
(0.010093344 -0.01238815 -4.6014842e-19 0.015230299 5.5553399e-19 9.7707451e-34)
(0.013125426 -0.014440419 5.8292919e-19 0.015907406 -6.2188436e-19 1.2174113e-33)
(0.016995134 -0.016774746 -6.7966334e-19 0.01657884 6.3843782e-19 1.3038243e-33)
(0.021907031 -0.019407849 1.2821514e-19 0.017233855 -1.0565805e-19 3.7077372e-35)
(0.028102069 -0.022343186 4.9367095e-19 0.017852811 -3.5553795e-19 4.4480996e-34)
(0.035857565 -0.025566368 -3.087136e-19 0.018408799 1.9349979e-19 1.4263738e-34)
(0.045482959 -0.029039492 1.0646637e-19 0.018868592 -5.7808229e-20 1.4090993e-35)
(0.057309912 -0.032693294 3.4080784e-20 0.01919192 -1.5942416e-20 1.2150643e-36)
(0.071672838 -0.03641571 4.5850093e-19 0.019329446 -1.8359024e-19 1.8718616e-34)
(0.088874917 -0.040035179 1.6201299e-19 0.019219883 -5.5039364e-20 2.0169102e-35)
(0.10913163 -0.043297412 1.7595647e-19 0.018787743 -5.0077679e-20 2.0828834e-35)
(0.13247939 -0.045835722 1.8591872e-19 0.017944724 -4.3499293e-20 2.0691138e-35)
(0.15863499 -0.047139294 -1.0039554e-18 0.016599161 1.8752045e-19 5.4559605e-34)
(0.18678964 -0.046535294 4.622419e-19 0.014683625 -6.5571979e-20 1.065894e-34)
(0.21534658 -0.04321927 7.6280794e-20 0.012209246 -7.4998318e-21 2.7316362e-36)
(0.2416627 -0.036392584 -8.9921136e-19 0.0093495511 4.8700427e-20 3.676444e-34)
(0.26197867 -0.025568536 -4.5771891e-19 0.0065254148 4.2737204e-21 9.517913e-35)
(0.2718936 -0.011053782 2.2122894e-19 0.0044157076 8.2328588e-21 2.3130286e-35)
(0.26755746 0.005619518 7.7364698e-19 0.0037733656 6.5922545e-20 3.063728e-34)
(0.24728975 0.021761193 -3.1470579e-19 0.0050234841 -4.2325777e-20 5.7997632e-35)
(0.21272781 0.034294045 8.3900852e-19 0.0078925996 1.5400512e-19 4.9401583e-34)
(0.16850016 0.04074236 4.0388814e-19 0.011358376 9.3139397e-20 1.4535309e-34)
(0.12117812 0.039925147 4.8016592e-19 0.013901212 1.3049812e-19 2.7485006e-34)
(0.078746031 0.032718202 1.0892072e-18 0.013974346 3.2748764e-19 1.9648015e-33)
(0.046852647 0.022610322 -7.0208586e-19 0.011324736 -2.1860447e-19 1.1612177e-33)
(0.026573604 0.013370108 1.9084963e-19 0.0072553117 5.75992e-20 1.2189385e-34)
(0.015407181 0.0071191259 -2.7571633e-19 0.0037277829 -7.6546114e-20 3.5450975e-34)
(0.0097097374 0.003730033 -2.2329842e-19 0.0016617898 -5.5949401e-20 3.1477058e-34)
(0.0067470169 0.0021152822 -7.5330479e-20 0.00077180313 -1.742771e-20 4.737998e-35)
(0.005021592 0.0013655773 -5.941998e-19 0.00045924356 -1.33889e-19 3.8663967e-33)
(0.0038697208 0.00098327969 -1.3795331e-19 0.00033876484 -3.2103095e-20 2.7586341e-34)
(0.0030102353 0.00074485346 2.6949455e-19 0.00027309752 6.728533e-20 1.4276694e-33)
(0.0023506834 0.00054993487 8.5512268e-20 0.00021683107 2.349733e-20 2.0284377e-34)
(0.0018620548 0.00037988753 -5.243891e-20 0.00016277704 -1.602698e-20 1.1302384e-34)
(0.0015223657 0.00023075728 -8.6238894e-20 0.00010424844 -3.0256472e-20 4.8319246e-34)
(0.0013288924 0.00012820354 -1.0149168e-19 6.1386696e-05 -4.2818966e-20 1.171657e-33)
(0.0012139186 5.7006482e-05 5.2884819e-21 3.1484782e-05 3.268891e-21 6.814659e-36)
(4.4119542e-08 -2.8021368e-07 9.306335e-23 1.7797116e-06 -5.8413505e-22 1.004945e-35)
(4.2886343e-07 -2.6890094e-06 6.6123906e-23 1.6860456e-05 -4.0902387e-22 9.0727764e-37)
(1.3346638e-06 -8.2591878e-06 -8.5504508e-23 5.1110655e-05 5.2019322e-22 5.9499069e-37)
(2.9537089e-06 -1.8013776e-05 -4.4484995e-22 0.00010986485 2.6590829e-21 8.1146668e-36)
(5.5360452e-06 -3.3227412e-05 3.2491362e-22 0.00019944459 -1.9062381e-21 2.4368669e-36)
(9.4083306e-06 -5.5482324e-05 -6.0433835e-22 0.00032722119 3.4757483e-21 5.0507845e-36)
(1.4996588e-05 -8.673024e-05 3.3084049e-22 0.00050166448 -1.8622742e-21 9.461657e-37)
(2.2855437e-05 -0.0001293616 9.8183777e-23 0.0007323357 -5.3985404e-22 5.3714982e-38)
(3.370655e-05 -0.00018628421 -6.8469624e-22 0.0010298055 3.6693435e-21 1.7225478e-36)
(4.8488414e-05 -0.00026100767 -1.8031065e-21 0.0014054591 9.3953014e-21 8.0103352e-36)
(6.8420888e-05 -0.00035773125 -1.0994373e-22 0.001871156 5.5553981e-22 2.021246e-38)
(9.5088855e-05 -0.00048143004 4.3545009e-21 0.002438704 -2.127637e-20 2.1724887e-35)
(0.00013055058 -0.0006379326 -7.2633099e-21 0.0031191132 3.4211913e-20 4.167466e-35)
(0.00017747793 -0.00083398036 1.4110452e-20 0.0039216105 -6.3860544e-20 1.0896421e-34)
(0.00023933735 -0.0010772567 -4.4299093e-21 0.0048524209 1.9195207e-20 7.4667607e-36)
(0.0003206237 -0.0013763736 1.1293559e-20 0.0059133717 -4.6674359e-20 3.3834119e-35)
(0.00042715972 -0.0017408013 -1.6367246e-20 0.0071004462 6.4253173e-20 4.9671678e-35)
(0.0005664814 -0.0021807399 1.2727707e-20 0.0084025088 -4.7253952e-20 2.1049982e-35)
(0.0007483284 -0.002706935 -2.4044868e-21 0.0098005202 8.4033301e-21 5.2821902e-37)
(0.00098526981 -0.0033304782 -1.1639142e-20 0.011267651 3.8102296e-20 8.7356973e-36)
(0.0012934986 -0.0040626594 3.3676931e-20 0.012770707 -1.0273554e-19 5.1893091e-35)