/*--------------------------------*- C++ -*----------------------------------*\
  =========                 |
  \\      /  F ield         | OpenFOAM: The Open Source CFD Toolbox
   \\    /   O peration     | Website:  https://openfoam.org
    \\  /    A nd           | Version:  13
     \\/     M anipulation  |
\*---------------------------------------------------------------------------*/
FoamFile
{
    format      ascii;
    class       volScalarField;
    location    "35.403307";
    object      p;
}
// * * * * * * * * * * * * * * * * * * * * * * * * * * * * * * * * * * * * * //

dimensions      [0 2 -2 0 0 0 0];

internalField   nonuniform List<scalar> 
17140
(
-0.28785205
-0.28786012
-0.28786968
-0.28787989
-0.28789108
-0.28790345
-0.28791706
-0.28793202
-0.28794843
-0.2879664
-0.28798603
-0.28800743
-0.28803069
-0.2880559
-0.28808314
-0.28811245
-0.28814387
-0.2881774
-0.28821302
-0.28825069
-0.28829034
-0.28833191
-0.28837537
-0.28842083
-0.2884686
-0.2885194
-0.28857465
-0.28863695
-0.28871069
-0.28880304
-0.28892501
-0.28909224
-0.28932446
-0.28964226
-0.2900603
-0.2905794
-0.2911818
-0.29183339
-0.29249164
-0.29311494
-0.29366983
-0.29413535
-0.29450307
-0.29477273
-0.29496046
-0.29509153
-0.29517909
-0.29523698
-0.29527287
-0.29529512
-0.29526645
-0.29516804
-0.29480863
-0.29411643
-0.29234283
-0.28948989
-0.28361669
-0.27591221
-0.26182386
-0.24902934
-0.23724665
-0.2473623
-0.24161243
-0.18036443
-0.092689426
-0.28731156
-0.28731979
-0.28732957
-0.28733978
-0.28735084
-0.28736318
-0.28737687
-0.28739194
-0.28740844
-0.28742647
-0.28744619
-0.28746769
-0.28749108
-0.28751642
-0.28754381
-0.28757331
-0.28760493
-0.2876387
-0.28767459
-0.28771256
-0.28775254
-0.28779446
-0.2878383
-0.28788413
-0.28793224
-0.28798331
-0.2880387
-0.2881009
-0.28817419
-0.28826557
-0.28838584
-0.28855044
-0.2887789
-0.28909162
-0.28950306
-0.29001368
-0.29060513
-0.2912424
-0.29188166
-0.2924796
-0.29300058
-0.29342087
-0.29372856
-0.29391882
-0.29400147
-0.29399438
-0.29389978
-0.29371658
-0.29343242
-0.29302874
-0.29243214
-0.29157984
-0.29022661
-0.28825596
-0.28488727
-0.28031168
-0.27300817
-0.26535503
-0.25406233
-0.24798068
-0.24761744
-0.27472071
-0.27137729
-0.21115289
-0.10364207
-0.28683596
-0.28684397
-0.28685351
-0.28686415
-0.28687526
-0.28688661
-0.28690021
-0.28691568
-0.28693201
-0.28694987
-0.28696944
-0.28699078
-0.287014
-0.28703918
-0.28706641
-0.28709574
-0.28712721
-0.28716083
-0.28719659
-0.28723443
-0.28727429
-0.28731611
-0.28735984
-0.28740554
-0.28745346
-0.28750423
-0.28755914
-0.28762055
-0.28769256
-0.28778194
-0.28789919
-0.28805937
-0.28828163
-0.28858604
-0.28898684
-0.2894843
-0.29005984
-0.29067791
-0.29129369
-0.29186236
-0.29234622
-0.29271877
-0.29296457
-0.29307429
-0.29305148
-0.29290623
-0.2926302
-0.29220785
-0.29160718
-0.29078395
-0.28963053
-0.28804367
-0.28573024
-0.28253196
-0.2776405
-0.27144992
-0.26285552
-0.25539377
-0.24700854
-0.24740038
-0.2575587
-0.30016173
-0.30989646
-0.23621407
-0.11036335
-0.28643215
-0.28644003
-0.28644936
-0.28645931
-0.28647023
-0.28648228
-0.28649552
-0.28651006
-0.28652603
-0.2865436
-0.28656282
-0.28658373
-0.2866065
-0.2866312
-0.28665792
-0.28668673
-0.28671766
-0.28675073
-0.28678591
-0.28682317
-0.28686244
-0.28690364
-0.28694673
-0.28699174
-0.2870389
-0.28708877
-0.28714253
-0.28720241
-0.28727229
-0.28735864
-0.28747152
-0.28762548
-0.28783911
-0.28813199
-0.28851811
-0.28899775
-0.2895524
-0.2901464
-0.29073428
-0.29126998
-0.29171382
-0.29203662
-0.29221944
-0.29224853
-0.29212134
-0.29183975
-0.29138535
-0.29072875
-0.28981894
-0.28858739
-0.28689429
-0.28459938
-0.2813678
-0.27700197
-0.27066632
-0.26290019
-0.25326436
-0.24595557
-0.23964075
-0.24628075
-0.26729306
-0.32143452
-0.34022484
-0.25352346
-0.11248482
-0.2861054
-0.286113
-0.28612201
-0.28613161
-0.28614214
-0.28615377
-0.28616657
-0.28618064
-0.28619609
-0.28621302
-0.28623155
-0.28625178
-0.2862738
-0.28629772
-0.28632362
-0.28635155
-0.28638157
-0.28641368
-0.28644787
-0.2864841
-0.28652231
-0.28656242
-0.28660436
-0.28664816
-0.28669399
-0.28674236
-0.28679434
-0.28685199
-0.28691894
-0.28700126
-0.28710851
-0.28725454
-0.28745722
-0.28773548
-0.28810301
-0.28856026
-0.28908915
-0.28965429
-0.29021
-0.29070923
-0.29111056
-0.29138222
-0.29150177
-0.29145121
-0.29122219
-0.29080802
-0.2901808
-0.28929802
-0.28809036
-0.28646651
-0.28425631
-0.28128565
-0.27718427
-0.27171113
-0.26393867
-0.25502514
-0.24465463
-0.23715605
-0.23167653
-0.24330483
-0.2746391
-0.33749568
-0.35915538
-0.26394713
-0.109996
-0.28585983
-0.28586706
-0.28587562
-0.28588475
-0.28589476
-0.28590581
-0.28591798
-0.28593137
-0.28594607
-0.28596219
-0.28597983
-0.28599911
-0.28602012
-0.28604296
-0.2860677
-0.28609441
-0.28612314
-0.2861539
-0.28618668
-0.28622144
-0.28625812
-0.28629664
-0.28633693
-0.28637897
-0.28642292
-0.2864692
-0.28651878
-0.28657351
-0.28663674
-0.28671411
-0.28681453
-0.28695106
-0.28714064
-0.28740139
-0.28774668
-0.28817724
-0.28867574
-0.28920751
-0.28972707
-0.29018673
-0.29054355
-0.29076333
-0.29082021
-0.29069224
-0.29036517
-0.2898242
-0.28903224
-0.28793442
-0.28644386
-0.28444814
-0.28174844
-0.27814088
-0.27322963
-0.26671043
-0.25766874
-0.24797294
-0.23684736
-0.22891227
-0.2243031
-0.24016149
-0.2787452
-0.34695552
-0.36534176
-0.26485972
-0.10435372
-0.28569716
-0.28570398
-0.28571225
-0.28572079
-0.28573013
-0.28574046
-0.28575185
-0.28576438
-0.28577815
-0.28579325
-0.2858098
-0.28582789
-0.28584763
-0.2858691
-0.28589238
-0.28591754
-0.28594463
-0.28597366
-0.28600464
-0.28603751
-0.28607222
-0.28610868
-0.28614681
-0.28618659
-0.28622812
-0.28627175
-0.28631832
-0.28636948
-0.28642828
-0.28649984
-0.2865924
-0.28671804
-0.28689262
-0.28713335
-0.28745313
-0.2878531
-0.28831698
-0.28881125
-0.28929107
-0.2897085
-0.29001935
-0.2901872
-0.29018289
-0.28998082
-0.28956096
-0.28890109
-0.28795479
-0.28665596
-0.28490105
-0.28255788
-0.27940066
-0.27520101
-0.26954696
-0.26200902
-0.25219569
-0.24160154
-0.22966425
-0.2211747
-0.21728936
-0.23748322
-0.28057215
-0.34896633
-0.35935505
-0.2604217
-0.093431573
-0.28561849
-0.28562474
-0.28563231
-0.28564015
-0.28564874
-0.28565823
-0.2856687
-0.28568021
-0.28569288
-0.28570679
-0.28572204
-0.28573873
-0.28575695
-0.2857768
-0.28579835
-0.28582166
-0.28584679
-0.28587376
-0.28590255
-0.28593314
-0.28596545
-0.28599941
-0.28603493
-0.28607196
-0.28611056
-0.28615101
-0.28619402
-0.28624105
-0.28629477
-0.2863598
-0.2864436
-0.28655721
-0.28671528
-0.28693388
-0.28722542
-0.28759144
-0.28801699
-0.2884701
-0.28890702
-0.28928
-0.28954392
-0.28966042
-0.28959733
-0.28932547
-0.28881993
-0.28805086
-0.28696321
-0.28548037
-0.28348279
-0.28082008
-0.27724022
-0.27249734
-0.26614849
-0.25768981
-0.24735226
-0.23585771
-0.2229769
-0.21431297
-0.21173589
-0.2338973
-0.28073417
-0.3436856
-0.34399589
-0.2544528
-0.081653649
-0.28562192
-0.28562754
-0.28563431
-0.28564137
-0.28564909
-0.28565764
-0.28566706
-0.28567745
-0.28568887
-0.28570143
-0.28571521
-0.28573031
-0.28574682
-0.28576482
-0.2857844
-0.2858056
-0.28582849
-0.28585308
-0.28587937
-0.28590733
-0.28593689
-0.28596796
-0.28600046
-0.28603432
-0.28606954
-0.28610636
-0.28614534
-0.28618772
-0.28623585
-0.28629378
-0.28636816
-0.28646891
-0.28660934
-0.28680427
-0.28706547
-0.28739489
-0.28777906
-0.28818795
-0.28857938
-0.2889062
-0.28912281
-0.28918924
-0.28907062
-0.28873463
-0.288152
-0.28728519
-0.28607156
-0.28442443
-0.28220893
-0.27925734
-0.27529176
-0.27005688
-0.26305266
-0.25397693
-0.24289093
-0.23073316
-0.21725994
-0.20831289
-0.20750395
-0.23028016
-0.27641602
-0.33055232
-0.32141094
-0.23591472
-0.076986262
-0.285704
-0.28570892
-0.28571483
-0.28572103
-0.28572782
-0.28573534
-0.28574363
-0.28575277
-0.28576284
-0.28577392
-0.2857861
-0.28579947
-0.2858141
-0.28583008
-0.28584749
-0.28586637
-0.28588679
-0.28590876
-0.28593228
-0.28595731
-0.28598381
-0.28601167
-0.28604081
-0.28607113
-0.28610262
-0.28613542
-0.28616998
-0.28620734
-0.28624947
-0.2862999
-0.28636443
-0.28645182
-0.28657395
-0.28674427
-0.28697376
-0.28726474
-0.2876053
-0.28796765
-0.28831164
-0.28859123
-0.28876079
-0.28877914
-0.28860916
-0.28821598
-0.28756602
-0.28661483
-0.28529294
-0.28350364
-0.28109725
-0.27788826
-0.27357218
-0.26788437
-0.26027661
-0.25085785
-0.23903922
-0.22591753
-0.21190532
-0.20266598
-0.20212001
-0.22472636
-0.27023647
-0.31071301
-0.29441426
-0.2105131
-0.075444954
-0.28585941
-0.2858636
-0.2858686
-0.2858739
-0.28587971
-0.28588614
-0.28589323
-0.28590107
-0.28590971
-0.28591923
-0.28592972
-0.28594124
-0.28595388
-0.28596771
-0.28598281
-0.28599922
-0.286017
-0.28603616
-0.2860567
-0.2860786
-0.2861018
-0.2861262
-0.28615171
-0.28617822
-0.28620568
-0.28623416
-0.28626402
-0.28629606
-0.28633194
-0.28637464
-0.28642911
-0.28650296
-0.28660658
-0.28675197
-0.28694918
-0.28720077
-0.28749639
-0.28781072
-0.28810605
-0.288338
-0.28846139
-0.28843435
-0.288218
-0.28777571
-0.28706939
-0.28604894
-0.28463849
-0.28273116
-0.28016238
-0.27672604
-0.27208727
-0.26595656
-0.25780353
-0.24782982
-0.23535379
-0.22107801
-0.20589175
-0.19627614
-0.19615299
-0.21958435
-0.25865946
-0.28751163
-0.26386049
-0.19031099
-0.073351687
-0.286081
-0.28608445
-0.28608855
-0.28609292
-0.28609772
-0.28610304
-0.28610892
-0.28611541
-0.28612259
-0.28613051
-0.28613926
-0.28614889
-0.28615948
-0.2861711
-0.28618381
-0.28619766
-0.2862127
-0.28622894
-0.28624639
-0.28626502
-0.28628477
-0.28630555
-0.28632725
-0.28634977
-0.28637301
-0.286397
-0.28642196
-0.28644853
-0.28647802
-0.28651291
-0.28655735
-0.28661778
-0.28670313
-0.28682387
-0.286989
-0.28720114
-0.28745146
-0.2877172
-0.28796346
-0.28814798
-0.28822671
-0.28815754
-0.28790057
-0.28741799
-0.28666746
-0.28559441
-0.2841165
-0.28211665
-0.27941464
-0.27577527
-0.27082791
-0.26425109
-0.25556817
-0.24471091
-0.23147556
-0.21597509
-0.1997218
-0.18993458
-0.19063306
-0.21436627
-0.24423584
-0.26125563
-0.23174893
-0.17492017
-0.071335941
-0.28636037
-0.28636311
-0.28636634
-0.2863698
-0.28637361
-0.28637782
-0.28638249
-0.28638766
-0.28639338
-0.28639972
-0.28640673
-0.28641447
-0.28642302
-0.28643242
-0.28644274
-0.28645402
-0.28646631
-0.28647961
-0.28649393
-0.28650924
-0.28652548
-0.28654257
-0.28656039
-0.28657882
-0.28659775
-0.28661714
-0.28663711
-0.28665813
-0.28668122
-0.28670835
-0.28674292
-0.28679029
-0.28685795
-0.28695483
-0.28708877
-0.2872623
-0.2874679
-0.28768542
-0.28788298
-0.28802097
-0.28805703
-0.28794947
-0.28765816
-0.28714449
-0.28636273
-0.28525459
-0.28373096
-0.28166467
-0.27885708
-0.27502864
-0.26978347
-0.26276742
-0.25353264
-0.24194668
-0.22762199
-0.21121402
-0.19478642
-0.18612735
-0.18777415
-0.20708831
-0.22729317
-0.23654473
-0.2045363
-0.15885959
-0.071913447
-0.28668769
-0.28668973
-0.28669215
-0.28669473
-0.28669758
-0.28670074
-0.28670425
-0.28670815
-0.28671247
-0.28671729
-0.28672263
-0.28672856
-0.28673513
-0.2867424
-0.2867504
-0.28675919
-0.28676879
-0.28677922
-0.28679048
-0.28680254
-0.28681533
-0.28682878
-0.28684277
-0.28685715
-0.28687179
-0.2868866
-0.28690162
-0.28691713
-0.2869339
-0.28695345
-0.28697849
-0.28701336
-0.28706419
-0.28713843
-0.28724268
-0.28737916
-0.28754152
-0.287712
-0.28786199
-0.28795487
-0.28795057
-0.28780854
-0.2874893
-0.28695361
-0.28615363
-0.28502773
-0.28347933
-0.28137157
-0.2784763
-0.27446859
-0.26893028
-0.26149626
-0.25167216
-0.23936589
-0.22435614
-0.20778015
-0.1925204
-0.18479199
-0.18520556
-0.20098792
-0.21203489
-0.21065756
-0.18542135
-0.14599135
-0.071576258
-0.2870531
-0.2870545
-0.28705617
-0.28705795
-0.28705992
-0.28706211
-0.28706456
-0.28706728
-0.28707033
-0.28707373
-0.28707754
-0.28708179
-0.28708653
-0.2870918
-0.28709764
-0.28710409
-0.28711118
-0.2871189
-0.28712727
-0.28713623
-0.28714574
-0.2871557
-0.28716599
-0.28717644
-0.2871869
-0.28719723
-0.28720738
-0.28721748
-0.28722803
-0.28724017
-0.28725598
-0.28727886
-0.28731372
-0.28736664
-0.28744296
-0.28754452
-0.28766587
-0.28779135
-0.28789561
-0.28794524
-0.28790301
-0.28773024
-0.28738897
-0.28683941
-0.28603292
-0.28490449
-0.28334891
-0.28121881
-0.27823698
-0.27405483
-0.268251
-0.26033961
-0.25006519
-0.23715749
-0.22235042
-0.20582462
-0.19160752
-0.1837542
-0.18391192
-0.1932726
-0.19702783
-0.19451899
-0.16803929
-0.13541703
-0.071844108
-0.28744532
-0.28744617
-0.28744718
-0.28744827
-0.28744947
-0.28745082
-0.28745234
-0.28745405
-0.28745597
-0.28745814
-0.2874606
-0.28746337
-0.28746649
-0.28747001
-0.28747394
-0.28747831
-0.28748315
-0.28748846
-0.28749421
-0.28750038
-0.2875069
-0.28751367
-0.28752055
-0.28752736
-0.28753391
-0.28754001
-0.28754551
-0.28755041
-0.28755499
-0.28756001
-0.287567
-0.28757858
-0.28759851
-0.28763191
-0.28768239
-0.28775116
-0.28783396
-0.28791666
-0.2879772
-0.28798541
-0.28790723
-0.28770656
-0.28734736
-0.28678998
-0.28598548
-0.28486441
-0.28331297
-0.28115546
-0.27808183
-0.27373282
-0.26759179
-0.25931665
-0.24864989
-0.23556003
-0.22053311
-0.20415479
-0.19068446
-0.18329562
-0.18272136
-0.18594627
-0.18434096
-0.17911078
-0.15460553
-0.12696688
-0.071842486
-0.28785557
-0.28785597
-0.28785646
-0.28785699
-0.28785758
-0.28785825
-0.28785901
-0.28785989
-0.28786091
-0.28786208
-0.28786344
-0.287865
-0.2878668
-0.28786885
-0.2878712
-0.28787384
-0.28787679
-0.28788005
-0.28788358
-0.28788735
-0.28789127
-0.28789524
-0.28789908
-0.2879026
-0.28790557
-0.28790771
-0.28790879
-0.28790866
-0.28790735
-0.28790528
-0.28790347
-0.28790382
-0.28790871
-0.28792284
-0.28794817
-0.28798712
-0.28803471
-0.28807752
-0.28809686
-0.28806537
-0.28795241
-0.28772495
-0.28734881
-0.28678565
-0.28598559
-0.28487252
-0.28331789
-0.28110872
-0.27792173
-0.27335998
-0.26693247
-0.25836205
-0.24714442
-0.23364139
-0.218606
-0.2034235
-0.19047527
-0.18313443
-0.17923298
-0.17807102
-0.17453649
-0.16758637
-0.14361039
-0.11991454
-0.071887969
-0.28827262
-0.28827272
-0.28827284
-0.28827297
-0.28827313
-0.28827332
-0.28827356
-0.28827386
-0.28827424
-0.2882747
-0.28827527
-0.28827596
-0.2882768
-0.2882778
-0.28827897
-0.28828033
-0.28828187
-0.28828358
-0.28828541
-0.2882873
-0.28828917
-0.28829087
-0.2882922
-0.28829294
-0.28829277
-0.28829136
-0.28828835
-0.28828342
-0.28827639
-0.28826736
-0.2882569
-0.2882465
-0.28823614
-0.28823914
-0.2882433
-0.28824801
-0.28826173
-0.28826532
-0.28824431
-0.28817307
-0.28802414
-0.28776737
-0.28737032
-0.28679606
-0.28599218
-0.28487625
-0.28328588
-0.28098785
-0.27765494
-0.27286455
-0.26625204
-0.25705863
-0.24528762
-0.23126293
-0.21651317
-0.20240765
-0.18940968
-0.18209835
-0.17500466
-0.17222645
-0.16550515
-0.15694117
-0.13436715
-0.11397123
-0.071748664
-0.28869221
-0.28869215
-0.28869208
-0.28869202
-0.28869196
-0.28869192
-0.28869189
-0.28869189
-0.28869193
-0.28869202
-0.28869217
-0.28869239
-0.2886927
-0.2886931
-0.28869361
-0.28869421
-0.28869489
-0.28869563
-0.28869636
-0.28869702
-0.28869747
-0.28869755
-0.28869702
-0.28869559
-0.28869288
-0.28868845
-0.28868182
-0.28867249
-0.28866005
-0.28864431
-0.28862547
-0.28860505
-0.28857943
-0.28855197
-0.28853004
-0.28851302
-0.28849859
-0.28846449
-0.28840408
-0.28829165
-0.28810264
-0.28780913
-0.28737975
-0.28677989
-0.28595361
-0.28480326
-0.28313655
-0.28072318
-0.27723351
-0.2722222
-0.26497786
-0.25506834
-0.24253389
-0.22833589
-0.21423871
-0.20012236
-0.18738207
-0.17861346
-0.17110053
-0.16595958
-0.15763328
-0.14835225
-0.1267956
-0.10891127
-0.071515542
-0.2891049
-0.28910487
-0.28910484
-0.28910481
-0.28910479
-0.28910479
-0.2891048
-0.28910484
-0.28910491
-0.28910503
-0.28910519
-0.28910542
-0.2891057
-0.28910605
-0.28910647
-0.28910692
-0.2891074
-0.28910784
-0.28910817
-0.28910829
-0.28910802
-0.28910714
-0.28910535
-0.28910227
-0.28909741
-0.28909016
-0.28907985
-0.28906572
-0.28904704
-0.28902318
-0.28899377
-0.28895741
-0.28892445
-0.28888726
-0.28883983
-0.28878902
-0.28873744
-0.2886661
-0.28856221
-0.28840277
-0.28816369
-0.28781876
-0.28733705
-0.28668574
-0.28581189
-0.28459284
-0.28282173
-0.28031803
-0.27659608
-0.27094818
-0.26280476
-0.25197729
-0.23884217
-0.22520096
-0.21089872
-0.19706832
-0.18465304
-0.17572401
-0.16689704
-0.16033147
-0.15056928
-0.14058881
-0.12019914
-0.1044498
-0.071112874
-0.28951393
-0.28951413
-0.28951437
-0.28951463
-0.28951493
-0.28951527
-0.28951565
-0.2895161
-0.28951661
-0.28951718
-0.28951784
-0.28951857
-0.28951939
-0.28952028
-0.28952124
-0.28952222
-0.2895232
-0.2895241
-0.2895248
-0.28952517
-0.28952498
-0.28952396
-0.28952171
-0.28951775
-0.28951145
-0.28950206
-0.28948868
-0.28947032
-0.28944595
-0.2894146
-0.28937558
-0.28932818
-0.28927474
-0.28920803
-0.28913645
-0.28906426
-0.28897089
-0.28885674
-0.28870225
-0.28848476
-0.28818007
-0.28776271
-0.2872035
-0.28648422
-0.28553726
-0.28423105
-0.28240443
-0.27965268
-0.27532042
-0.26872978
-0.25943287
-0.24767738
-0.23494966
-0.22105023
-0.20677799
-0.19378004
-0.18176234
-0.17198842
-0.16254529
-0.15479665
-0.14415531
-0.13392132
-0.11459393
-0.10051589
-0.070575018
-0.28991828
-0.28991893
-0.2899197
-0.28992053
-0.28992145
-0.28992246
-0.28992359
-0.28992484
-0.28992622
-0.28992774
-0.28992939
-0.28993119
-0.28993313
-0.28993519
-0.28993736
-0.28993958
-0.28994179
-0.28994388
-0.28994571
-0.28994708
-0.2899477
-0.2899472
-0.28994507
-0.28994069
-0.28993324
-0.28992175
-0.28990506
-0.28988183
-0.28985065
-0.28981009
-0.28975889
-0.28969604
-0.2896212
-0.28953379
-0.28943306
-0.28932149
-0.28918837
-0.28902387
-0.28880913
-0.28851812
-0.28812958
-0.28762425
-0.28697412
-0.28619696
-0.28517593
-0.28381885
-0.28172156
-0.278374
-0.27310728
-0.26521211
-0.25475624
-0.24322958
-0.23014267
-0.21602663
-0.20274965
-0.19015432
-0.17817842
-0.16815221
-0.15812245
-0.14954354
-0.13828983
-0.12788014
-0.10958331
-0.096915151
-0.069870956
-0.29032976
-0.29033108
-0.29033266
-0.29033434
-0.29033618
-0.29033821
-0.29034045
-0.2903429
-0.29034557
-0.29034849
-0.29035164
-0.29035504
-0.29035867
-0.2903625
-0.2903665
-0.29037061
-0.29037471
-0.29037867
-0.29038229
-0.2903853
-0.29038731
-0.29038784
-0.29038625
-0.29038172
-0.29037322
-0.29035952
-0.29033914
-0.29031039
-0.29027143
-0.29022036
-0.2901554
-0.29007503
-0.28997797
-0.28986226
-0.28972946
-0.28957518
-0.28939176
-0.28916468
-0.28887503
-0.28849686
-0.28802205
-0.2874237
-0.28673144
-0.28589812
-0.28479759
-0.28317036
-0.28046446
-0.27622277
-0.26956974
-0.26023487
-0.24996284
-0.23794341
-0.22429864
-0.21128275
-0.19841923
-0.18611565
-0.17436197
-0.16400956
-0.1535967
-0.14443254
-0.13283327
-0.12244713
-0.10512284
-0.09360259
-0.069017186
-0.29076632
-0.29076852
-0.29077113
-0.29077391
-0.29077694
-0.29078028
-0.29078394
-0.29078794
-0.29079229
-0.290797
-0.29080208
-0.29080752
-0.2908133
-0.2908194
-0.29082574
-0.29083223
-0.29083873
-0.29084505
-0.29085091
-0.29085595
-0.29085969
-0.29086148
-0.29086052
-0.29085579
-0.29084601
-0.29082965
-0.29080492
-0.29076978
-0.29072197
-0.29065917
-0.29057941
-0.29048332
-0.29035188
-0.29019534
-0.29002885
-0.28982694
-0.28958589
-0.28928828
-0.28892345
-0.28845443
-0.2879023
-0.28726515
-0.28653124
-0.28559284
-0.28422599
-0.28201698
-0.27835355
-0.27282833
-0.26445923
-0.25520579
-0.24436047
-0.2313861
-0.21892722
-0.20629617
-0.19381334
-0.18180927
-0.17016075
-0.15967184
-0.14901231
-0.13947182
-0.12771169
-0.11742325
-0.10101162
-0.090466207
-0.068000424
-0.29125635
-0.29125957
-0.29126337
-0.29126742
-0.29127184
-0.29127668
-0.29128198
-0.29128774
-0.291294
-0.29130075
-0.29130801
-0.29131575
-0.29132395
-0.29133255
-0.29134146
-0.29135053
-0.29135959
-0.29136836
-0.29137647
-0.29138344
-0.29138865
-0.29139128
-0.2913903
-0.29138444
-0.29137213
-0.29135149
-0.29132035
-0.2912762
-0.29121619
-0.29113766
-0.29104346
-0.29090685
-0.29074228
-0.2905718
-0.29035701
-0.29010099
-0.28979715
-0.28942472
-0.28897145
-0.28847357
-0.28786981
-0.28717916
-0.2863402
-0.28512682
-0.28318154
-0.27997281
-0.27493188
-0.26762
-0.25927406
-0.2494531
-0.23733888
-0.22553985
-0.21340833
-0.20115536
-0.18898907
-0.17722273
-0.16573097
-0.15516174
-0.14436535
-0.13460858
-0.12283431
-0.11273577
-0.097185542
-0.087464806
-0.066827486
-0.2918436
-0.29184787
-0.29185291
-0.29185825
-0.29186408
-0.29187046
-0.29187741
-0.29188496
-0.29189313
-0.29190192
-0.29191132
-0.29192131
-0.29193184
-0.29194281
-0.2919541
-0.29196551
-0.29197678
-0.29198754
-0.29199732
-0.29200549
-0.29201123
-0.29201354
-0.29201113
-0.29200244
-0.29198557
-0.29195828
-0.29191799
-0.29186167
-0.2917855
-0.29169177
-0.29156366
-0.29140472
-0.29122585
-0.2910089
-0.29074179
-0.29043256
-0.29005441
-0.28962719
-0.28912718
-0.28856458
-0.28791472
-0.28711867
-0.28599022
-0.28420164
-0.2812775
-0.27673413
-0.27010173
-0.26235441
-0.25367468
-0.24222793
-0.23100294
-0.21969655
-0.20775041
-0.19581984
-0.18393425
-0.17240177
-0.16105289
-0.15048831
-0.13965701
-0.12981678
-0.11814107
-0.10828329
-0.093539797
-0.084536599
-0.065493942
-0.29258575
-0.29259092
-0.29259702
-0.29260348
-0.2926105
-0.29261817
-0.29262651
-0.29263554
-0.29264527
-0.29265569
-0.2926668
-0.29267852
-0.2926908
-0.29270348
-0.29271639
-0.29272927
-0.29274175
-0.29275336
-0.29276349
-0.29277134
-0.29277591
-0.29277595
-0.2927699
-0.29275591
-0.29273176
-0.29269487
-0.29264237
-0.29257056
-0.29246969
-0.29235185
-0.29222022
-0.29203605
-0.29180054
-0.29153551
-0.29121308
-0.29084372
-0.2904301
-0.28993533
-0.28938301
-0.28875026
-0.28797205
-0.28688475
-0.28518085
-0.28244336
-0.27826227
-0.27218611
-0.26498425
-0.25703183
-0.24668295
-0.23560157
-0.22499635
-0.2135847
-0.20195274
-0.19030708
-0.17867749
-0.1673631
-0.15617969
-0.14567724
-0.13488734
-0.12506493
-0.11357129
-0.10400032
-0.090017951
-0.081646588
-0.064001309
-0.29355181
-0.29355757
-0.29356434
-0.2935715
-0.29357926
-0.29358771
-0.29359686
-0.29360673
-0.29361731
-0.29362858
-0.29364049
-0.29365297
-0.29366588
-0.29367903
-0.29369217
-0.29370495
-0.29371689
-0.29372739
-0.29373566
-0.2937407
-0.29374128
-0.29373587
-0.29372264
-0.29369938
-0.29366344
-0.29361165
-0.29354013
-0.2934478
-0.29335051
-0.29321112
-0.2930076
-0.29277041
-0.29250175
-0.29218838
-0.29182859
-0.29139056
-0.29090567
-0.29036173
-0.28971794
-0.28894637
-0.28786564
-0.28621371
-0.28359534
-0.27968335
-0.27406493
-0.26724448
-0.25987615
-0.25018337
-0.2397134
-0.22947403
-0.21859174
-0.20742827
-0.1960332
-0.18461908
-0.17322422
-0.16212326
-0.15111478
-0.14072597
-0.13004527
-0.12032405
-0.10907827
-0.099825417
-0.086560029
-0.078758119
-0.062347812
-0.29481332
-0.29481922
-0.29482616
-0.29483345
-0.29484133
-0.29484986
-0.29485905
-0.29486889
-0.29487935
-0.29489038
-0.29490189
-0.29491375
-0.29492577
-0.29493768
-0.29494913
-0.29495964
-0.29496859
-0.29497521
-0.29497847
-0.29497716
-0.29496972
-0.29495432
-0.29492871
-0.29488985
-0.2948341
-0.29476721
-0.29469572
-0.29459611
-0.29442184
-0.29420827
-0.29398637
-0.29371218
-0.29338849
-0.29300772
-0.2925758
-0.29208455
-0.29151442
-0.29087076
-0.29007451
-0.28899203
-0.2873415
-0.28481963
-0.28108184
-0.27583133
-0.26929129
-0.26236268
-0.25331421
-0.24323749
-0.23346611
-0.22296744
-0.21220781
-0.20117441
-0.18995842
-0.17875711
-0.16758091
-0.15669087
-0.14587491
-0.13564224
-0.1251242
-0.1155688
-0.10461914
-0.095709791
-0.083123906
-0.075845077
-0.060533376
-0.29646002
-0.29646554
-0.29647198
-0.29647873
-0.29648595
-0.29649371
-0.29650197
-0.29651071
-0.29651985
-0.2965293
-0.29653891
-0.29654849
-0.29655775
-0.29656632
-0.29657373
-0.29657934
-0.29658235
-0.29658176
-0.29657631
-0.29656448
-0.29654437
-0.29651332
-0.29646841
-0.29641443
-0.29635098
-0.29626194
-0.2961253
-0.29594527
-0.29574005
-0.29550059
-0.29521247
-0.29487231
-0.29447136
-0.29401529
-0.2935037
-0.29292322
-0.29225184
-0.2914324
-0.29031888
-0.28868719
-0.28618497
-0.28264189
-0.2776239
-0.27133441
-0.2646911
-0.25622208
-0.24647517
-0.23697901
-0.22690299
-0.21645118
-0.2057204
-0.19478815
-0.1837321
-0.17271787
-0.16174765
-0.15106976
-0.14046067
-0.13041997
-0.12011029
-0.11077363
-0.10015832
-0.09161206
-0.079671986
-0.072883382
-0.058555755
-0.29859409
-0.29859871
-0.29860405
-0.29860957
-0.29861539
-0.29862152
-0.29862791
-0.29863446
-0.29864106
-0.29864754
-0.29865367
-0.29865917
-0.29866362
-0.29866653
-0.29866723
-0.2986649
-0.29865851
-0.29864676
-0.29862808
-0.29860044
-0.29856136
-0.29850977
-0.29844595
-0.29836134
-0.29824246
-0.29808529
-0.29789907
-0.29768238
-0.29741934
-0.29710629
-0.29673817
-0.29631327
-0.29583163
-0.29528738
-0.29467444
-0.29397015
-0.29311116
-0.29196584
-0.29030994
-0.28786665
-0.28437022
-0.27978124
-0.27360704
-0.26727559
-0.25915984
-0.24964098
-0.24029604
-0.23051277
-0.22033495
-0.2098373
-0.19911508
-0.18826037
-0.17733398
-0.16649129
-0.15572014
-0.1452583
-0.13487246
-0.12505513
-0.11499163
-0.10591617
-0.095664114
-0.08749714
-0.0761744
-0.069854597
-0.056414179
-0.30132823
-0.30133152
-0.30133524
-0.30133896
-0.30134271
-0.30134645
-0.30135006
-0.30135339
-0.30135623
-0.30135833
-0.30135934
-0.30135882
-0.3013562
-0.30135078
-0.30134166
-0.30132774
-0.30130764
-0.30127967
-0.30124177
-0.30119152
-0.30112715
-0.30104464
-0.30093789
-0.30079762
-0.30062635
-0.30042556
-0.30018275
-0.29989212
-0.29954808
-0.29914756
-0.29869004
-0.29817172
-0.29758804
-0.29693253
-0.29617997
-0.29526674
-0.29406385
-0.29236154
-0.28989548
-0.28642637
-0.28182385
-0.27591293
-0.26955672
-0.26188611
-0.2527376
-0.24348861
-0.23396742
-0.22397648
-0.21365841
-0.2030916
-0.19235917
-0.18155955
-0.17074695
-0.1600651
-0.14948984
-0.13925065
-0.12910411
-0.11953778
-0.10975322
-0.10097442
-0.091109258
-0.08333553
-0.072606046
-0.066742414
-0.054106045
-0.30485332
-0.30485458
-0.30485584
-0.30485682
-0.30485745
-0.3048576
-0.30485707
-0.30485561
-0.30485292
-0.30484859
-0.30484212
-0.30483289
-0.30482011
-0.3048028
-0.30477977
-0.30474954
-0.30471033
-0.30465998
-0.30459593
-0.30451522
-0.30441428
-0.30428767
-0.30413211
-0.30394399
-0.30371689
-0.30344484
-0.30312202
-0.30274421
-0.30230896
-0.30181223
-0.30125055
-0.3006211
-0.29991354
-0.2991001
-0.29811604
-0.2968371
-0.29506763
-0.29256114
-0.28909856
-0.28454279
-0.27878003
-0.27227368
-0.26500771
-0.25584694
-0.24677535
-0.23739585
-0.22756316
-0.21733968
-0.20685021
-0.19618421
-0.18542024
-0.1746594
-0.16394787
-0.15342158
-0.14304382
-0.13303678
-0.12314689
-0.11385723
-0.10438046
-0.095928326
-0.08646959
-0.079101542
-0.068946107
-0.063533313
-0.051632215
-0.30943426
-0.30943228
-0.30942962
-0.30942629
-0.30942206
-0.30941665
-0.30940977
-0.30940106
-0.30939006
-0.3093762
-0.30935877
-0.30933691
-0.30930958
-0.30927547
-0.30923303
-0.30918036
-0.30911521
-0.30903489
-0.30893626
-0.30881565
-0.3086689
-0.30849127
-0.30827764
-0.30802232
-0.30771966
-0.30736466
-0.30695294
-0.30647968
-0.30594078
-0.30533331
-0.30465167
-0.30388272
-0.30299491
-0.30192164
-0.3005418
-0.29867324
-0.29608778
-0.29257987
-0.2880333
-0.28233354
-0.2758038
-0.26862107
-0.25986239
-0.25059898
-0.24133531
-0.23134209
-0.22107865
-0.21055995
-0.19985975
-0.18906878
-0.17825751
-0.16752509
-0.15690967
-0.14653951
-0.13636546
-0.12660321
-0.11698858
-0.10800008
-0.098857705
-0.090758714
-0.081723971
-0.074773278
-0.065177522
-0.060216515
-0.048991595
-0.31536195
-0.31535503
-0.31534642
-0.31533661
-0.31532509
-0.31531143
-0.31529522
-0.31527593
-0.31525292
-0.31522542
-0.31519247
-0.31515295
-0.31510549
-0.31504842
-0.31497979
-0.31489725
-0.31479804
-0.31467894
-0.31453622
-0.31436562
-0.31416233
-0.31392116
-0.31363675
-0.31330368
-0.31291641
-0.31246938
-0.31195763
-0.3113768
-0.31072167
-0.3099837
-0.30914539
-0.30817026
-0.3069882
-0.30548013
-0.30347276
-0.30075826
-0.29713698
-0.29251098
-0.28678181
-0.28011749
-0.27288897
-0.26419188
-0.25490838
-0.24542912
-0.23537465
-0.22498593
-0.21435593
-0.20353664
-0.19261747
-0.1816903
-0.17082491
-0.1601185
-0.14960085
-0.13939344
-0.1294345
-0.11993334
-0.11061475
-0.10195193
-0.093169422
-0.085447629
-0.076853639
-0.070330839
-0.061285868
-0.056779594
-0.046185577
-0.32298814
-0.32297419
-0.32295716
-0.32293821
-0.32291648
-0.32289134
-0.3228622
-0.32282836
-0.32278897
-0.322743
-0.32268925
-0.32262623
-0.3225522
-0.32246515
-0.32236269
-0.32224201
-0.32209985
-0.32193248
-0.32173569
-0.32150485
-0.32123487
-0.32092028
-0.32055527
-0.32013396
-0.31965064
-0.3190996
-0.31847467
-0.31776791
-0.31696662
-0.31604768
-0.31496829
-0.31365348
-0.31198425
-0.30979435
-0.30688917
-0.30308583
-0.2982731
-0.29241064
-0.28551375
-0.27809422
-0.26936165
-0.2598968
-0.25018723
-0.23991995
-0.22932332
-0.21844119
-0.20737775
-0.19622453
-0.18506535
-0.17399274
-0.1630722
-0.15239634
-0.14198559
-0.13195419
-0.12222741
-0.11300781
-0.10400878
-0.095697055
-0.08730001
-0.079978291
-0.071842259
-0.065756722
-0.057259631
-0.053208965
-0.043225602
-0.33262159
-0.3325982
-0.3325699
-0.33253878
-0.33250354
-0.33246326
-0.33241721
-0.33236447
-0.33230394
-0.33223434
-0.33215419
-0.33206182
-0.33195501
-0.33183128
-0.33168793
-0.33152172
-0.33132892
-0.33110539
-0.33084661
-0.3305475
-0.33020259
-0.32980607
-0.3293518
-0.32883335
-0.32824362
-0.32757418
-0.3268135
-0.32594367
-0.32493473
-0.32373626
-0.32226668
-0.32040446
-0.31798695
-0.31482785
-0.31075682
-0.30565962
-0.29950295
-0.29232868
-0.28455197
-0.27560625
-0.2657963
-0.25569546
-0.24511033
-0.23415797
-0.22292774
-0.21151169
-0.20001146
-0.18851898
-0.17712058
-0.16590814
-0.15494256
-0.14431139
-0.13402511
-0.12419022
-0.11471871
-0.10580574
-0.097153056
-0.089219476
-0.081234415
-0.07433523
-0.066676028
-0.061037056
-0.053091951
-0.049511429
-0.040082737
-0.34458048
-0.34454523
-0.34450281
-0.34445647
-0.34440436
-0.34434534
-0.34427852
-0.34420247
-0.34411543
-0.34401881
-0.3439201
-0.34380451
-0.34364819
-0.3434676
-0.34327568
-0.34305917
-0.34281039
-0.34252481
-0.34219775
-0.34182409
-0.34139769
-0.34091182
-0.34035887
-0.33972975
-0.33901276
-0.33819152
-0.33724132
-0.3361236
-0.33477831
-0.3331153
-0.33100787
-0.32829541
-0.32479617
-0.32035138
-0.31484923
-0.30824359
-0.30062308
-0.29231176
-0.28304018
-0.27274745
-0.26214064
-0.25110809
-0.23968384
-0.22797627
-0.2160874
-0.20411656
-0.19216436
-0.18033007
-0.16869958
-0.15736203
-0.14637192
-0.13580987
-0.12567532
-0.11606589