/*--------------------------------*- C++ -*----------------------------------*\
  =========                 |
  \\      /  F ield         | OpenFOAM: The Open Source CFD Toolbox
   \\    /   O peration     | Website:  https://openfoam.org
    \\  /    A nd           | Version:  13
     \\/     M anipulation  |
\*---------------------------------------------------------------------------*/
FoamFile
{
    format      ascii;
    class       volScalarField;
    location    "0.08";
    object      mag(U);
}
// * * * * * * * * * * * * * * * * * * * * * * * * * * * * * * * * * * * * * //

dimensions      [0 1 -1 0 0 0 0];

internalField   nonuniform List<scalar> 
1000
(
27.4235
27.4217
27.4167
27.4082
27.3989
27.3899
27.3817
27.3758
27.3726
27.3708
27.3687
27.3653
27.3606
27.3552
27.3501
27.3452
27.3407
27.3368
27.333
27.3281
27.3219
27.3154
27.3089
27.3017
27.2932
27.2841
27.2748
27.2652
27.2593
27.2615
27.2677
27.26
27.2478
27.2529
27.2587
27.2484
27.2431
27.255
27.2555
27.2458
27.2415
27.2282
27.2151
27.2222
27.2484
27.2554
27.2325
27.2283
27.2526
27.2603
27.2459
27.2546
27.2753
27.2656
27.2547
27.2777
27.2935
27.2823
27.2879
27.3155
27.3124
27.2968
27.319
27.3449
27.3317
27.3248
27.3611
27.3737
27.3463
27.3482
27.3909
27.4082
27.3908
27.4001
27.4368
27.4463
27.4433
27.4728
27.49
27.4817
27.5014
27.5311
27.5299
27.5406
27.575
27.5796
27.5822
27.6196
27.6318
27.62
27.6475
27.6869
27.687
27.6952
27.7442
27.77
27.7761
27.8099
27.8539
27.8518
27.8217
27.8234
27.8496
27.8969
27.9443
27.9353
27.9182
27.9528
28.0019
28.0273
28.0545
28.0868
28.0942
28.1205
28.1564
28.1632
28.1893
28.2273
28.2328
28.2547
28.2978
28.3047
28.3172
28.365
28.3798
28.3805
28.4249
28.4568
28.4519
28.477
28.5283
28.5353
28.5331
28.5818
28.6215
28.6134
28.6235
28.6829
28.7126
28.6967
28.7133
28.7785
28.8096
28.7876
28.7959
28.8609
28.9175
28.9055
28.8937
28.9478
29.0243
29.0353
29.0102
29.0336
29.0897
29.1606
29.205
29.2272
29.2788
29.3145
29.3214
29.3656
29.4149
29.4191
29.4402
29.5036
29.5288
29.5307
29.5814
29.6368
29.6429
29.6599
29.727
29.7653
29.7657
29.8044
29.8732
29.8947
29.8994
29.9571
30.0178
30.026
30.0411
30.1111
30.1607
30.1597
30.1841
30.2613
30.3063
30.2983
30.3195
30.3931
30.4631
30.4766
30.4897
30.5614
30.6255
30.6284
30.6392
30.7111
30.7894
30.8023
30.8011
30.8591
30.9505
30.9924
30.9822
31.0101
31.081
31.1684
31.2197
31.2411
31.3039
31.37
31.387
31.4198
31.5003
31.5434
31.5543
31.6126
31.6897
31.7122
31.729
31.8047
31.8726
31.8849
31.9118
31.9956
32.0553
32.0628
32.0979
32.185
32.2395
32.246
32.2881
32.3767
32.4239
32.4298
32.4801
32.5688
32.6083
32.615
32.6743
32.7619
32.7934
32.8021
32.8694
32.9559
32.9834
32.9962
33.0702
33.1544
33.1779
33.1956
33.2759
33.3579
33.379
33.4017
33.4869
33.5676
33.5875
33.6138
33.7019
33.7837
33.8041
33.831
33.9194
34.0053
34.0291
34.0538
34.1398
34.2305
34.2598
34.2822
34.3652
34.4582
34.4916
34.5145
34.5974
34.6885
34.7226
34.7531
34.8422
34.9209
34.9509
35.0041
35.0972
35.1451
35.1748
35.2592
35.3341
35.3574
35.406
35.504
35.5597
35.5795
35.6486
35.746
35.7895
35.8152
35.8994
35.9889
36.0211
36.057
36.1524
36.23
36.2545
36.3039
36.4049
36.4697
36.4921
36.5567
36.6573
36.7078
36.7325
36.8125
36.9069
36.9438
36.9755
37.068
37.1522
37.179
37.2207
37.3204
37.3944
37.4158
37.4668
37.5696
37.6357
37.6548
37.7132
37.8171
37.8763
37.8942
37.9586
38.0625
38.1167
38.1342
38.2027
38.3064
38.3575
38.375
38.446
38.5498
38.599
38.6167
38.6894
38.7932
38.8417
38.8597
38.9334
39.0378
39.0865
39.1046
39.1784
39.284
39.3347
39.3522
39.4239
39.5318
39.5883
39.6049
39.6705
39.78
39.8489
39.8662
39.9205
40.0278
40.115
40.1381
40.1772
40.2767
40.382
40.4179
40.4427
40.5298
40.6445
40.7019
40.7193
40.7879
40.9018
40.9838
41.0067
41.0538
41.1578
41.2542
41.3017
41.3328
41.4098
41.5128
41.5981
41.6235
41.6636
41.7642
41.8827
41.9189
41.9311
42.0181
42.1442
42.2082
42.2201
42.282
42.3865
42.4821
42.5229
42.5568
42.6286
42.7426
42.8174
42.8427
42.8867
42.992
43.0928
43.138
43.1629
43.2398
43.3496
43.4311
43.4531
43.4977
43.6003
43.7076
43.749
43.7725
43.8564
43.9672
44.0406
44.0617
44.119
44.2271
44.3205
44.3523
44.3909
44.4907
44.5907
44.6425
44.672
44.7511
44.8591
44.9318
44.9577
45.0134
45.1263
45.2153
45.2492
45.2882
45.3878
45.4931
45.5465
45.5728
45.6468
45.7702
45.8421
45.8667
45.9192
46.0277
46.1363
46.1779
46.207
46.2825
46.3968
46.4951
46.5197
46.5623
46.6632
46.7925
46.8361
46.8503
46.9369
47.0654
47.1438
47.1665
47.2243
47.324
47.4299
47.4981
47.5318
47.5901
47.7009
47.8225
47.8621
47.881
47.9739
48.1014
48.1887
48.2035
48.2571
48.353
48.4958
48.5578
48.5668
48.622
48.7183
48.8513
48.9347
48.9079
48.897
49.0063
49.2022
49.2995
49.2203
49.2329
49.4564
49.6406
49.6113
49.5794
49.7398
49.923
49.9526
49.9398
50.0561
50.2219
50.2819
50.2897
50.359
50.5131
50.6132
50.637
50.673
50.7529
50.8739
51.0015
51.0419
51.0561
51.1372
51.2549
51.3857
51.4402
51.458
51.5259
51.6444
51.7761
51.835
51.8535
51.9233
52.044
52.1722
52.2234
52.2454
52.323
52.4497
52.5693
52.6072
52.6352
52.7242
52.8578
52.9629
52.9869
53.0218
53.1209
53.2617
53.3525
53.3579
53.3882
53.4894
53.6465
53.7354
53.6936
53.6786
53.7847
53.9933
54.1116
54.0192
53.9568
54.1304
54.4197
54.5169
54.3942
54.3799
54.626
54.8852
54.869
54.7399
54.8255
55.1039
55.2702
55.1754
55.1078
55.3074
55.5812
55.6119
55.486
55.5411
55.8116
55.9983
55.9162
55.8373
56.0256
56.3059
56.3508
56.2199
56.2552
56.5265
56.746
56.6785
56.5637
56.7095
57.0116
57.1434
57.0192
56.9506
57.163
57.4679
57.5351
57.3889
57.3586
57.6017
57.9028
57.9398
57.7861
57.7704
58.0225
58.326
58.3629
58.207
58.1812
58.4256
58.74
58.8042
58.6512
58.5951
58.8146
59.14
59.2585
59.1203
59.0203
59.1925
59.5197
59.7134
59.6128
59.4704
59.5696
59.8775
60.148
60.1225
59.9593
59.9622
60.2216
60.5458
60.6325
60.483
60.3912
60.5682
60.899
61.1144
61.0346
60.8779
60.9364
61.2256
61.5325
61.5902
61.4358
61.3565
61.552
61.8833
62.106
62.0402
61.8658
61.9128
62.2024
62.5141
62.6337
62.5073
62.3638
62.481
62.7871
63.0666
63.1722
63.0442
62.9039
62.9965
63.3018
63.6177
63.714
63.5733
63.4405
63.5454
63.8564
64.1595
64.2292
64.0774
63.9715
64.1287
64.4657
64.7274
64.7007
64.5388
64.5223
64.7715
65.1222
65.2527
65.1211
65.0106
65.1443
65.4716
65.7431
65.695
65.5298
65.5635
65.8501
66.1873
66.2294
66.0671
66.021
66.2552
66.6099
66.7347
66.6021
66.5113
66.6809
67.0173
67.2274
67.1451
67.0128
67.1082
67.423
67.7212
67.688
67.518
67.559
67.8483
68.1627
68.227
68.0832
68.0133
68.2447
68.6117
68.7587
68.6362
68.5351
68.6593
68.9858
69.282
69.2411
69.0613
69.1013
69.3801
69.7021
69.8279
69.7014
69.5807
69.7404
70.0843
70.377
70.3223
70.1378
70.1807
70.457
70.782
70.936
70.8141
70.6635
70.8167
71.1667
71.4366
71.4599
71.3162
71.2443
71.4846
71.8679
72.0494
71.9678
71.8403
71.8662
72.1661
72.5453
72.6458
72.4785
72.354
72.5232
72.8992
73.1899
73.1595
72.9843
72.9876
73.2204
73.5558
73.7924
73.7068
73.5192
73.6104
73.9184
74.2287
74.3637
74.244
74.1023
74.2386
74.5882
74.9268
74.9248
74.723
74.6808
74.9386
75.3227
75.5153
75.4595
75.3203
75.3064
75.5981
75.9878
76.1245
76.0162
75.8992
75.952
76.2718
76.6478
76.7514
76.5875
76.4349
76.6096
76.9709
77.2612
77.3216
77.1781
77.115
77.2629
77.5748
77.859
77.9629
77.8521
77.7239
77.8623
78.1997
78.4919
78.6116
78.5024
78.3742
78.5158
78.8247
79.0947
79.2449
79.1729
79.026
79.1377
79.4377
79.6847
79.8574
79.9029
79.7832
79.7503
80.0129
80.3285
80.5021
80.5535
80.4358
80.3353
80.5675
80.9347
81.1433
81.2265
81.1241
81.0204
81.1304
81.4615
81.8099
81.9427
81.8119
81.6549
81.802
82.1476
82.4438
82.5971
82.4835
82.323
82.4318
82.7432
83.0764
83.2578
83.1539
83.0028
83.0845
83.355
83.6967
83.8799
83.8301
83.7156
83.7343
83.9621
84.3397
84.5494
84.4783
84.3633
84.3861
84.6173
84.9936
85.2298
85.149
85.0176
85.0411
85.2441
85.62
85.8743
85.806
85.6687
85.6809
85.8752
86.2445
86.5106
86.4666
86.3232
86.3115
86.4879
86.8535
87.1429
87.1272
86.9834
86.9512
87.0917
87.4372
87.7596
87.7757
87.6286
87.5796
87.6793
87.9949
88.3385
88.3896
88.2789
88.2568
88.3065
88.4844
88.8389
89.078
89.0116
88.8852
88.8972
89.1272
89.4959
89.7471
89.7481
89.5924
89.5482
89.7661
90.1
90.3416
90.5082
90.5
90.3664
90.4287
90.6707
90.8448
90.941
91.0834
91.1449
91.0513
91.0215
91.2735
91.6312
91.8468
91.855
91.7101
91.6421
91.7103
91.9637
92.3166
92.5462
92.5253
92.3747
92.3357
92.4107
92.6881
93.0444
93.2496
93.2199
93.0659
93.0198
93.1127
93.4127
93.7533
93.9384
93.9052
93.7362
93.6733
93.8087
94.1355
94.4364
94.5895
94.539
94.405
94.3953
94.4624
94.7197
95.0664
95.1828
95.1365
95.163
95.3035
95.3951
95.4259
95.6074
95.8887
95.89
95.7287
95.7814
96.0406
96.346
96.5046
96.4067
96.2176
96.4187
)
;

boundaryField
{
    sides
    {
        type            calculated;
        value           nonuniform List<scalar> 2(96.4187 27.4235);
    }
    empty
    {
        type            empty;
    }
}


// ************************************************************************* //
