/*--------------------------------*- C++ -*----------------------------------*\
  =========                 |
  \\      /  F ield         | OpenFOAM: The Open Source CFD Toolbox
   \\    /   O peration     | Website:  https://openfoam.org
    \\  /    A nd           | Version:  13
     \\/     M anipulation  |
\*---------------------------------------------------------------------------*/
FoamFile
{
    format      ascii;
    class       surfaceScalarField;
    location    "0.08";
    object      phi;
}
// * * * * * * * * * * * * * * * * * * * * * * * * * * * * * * * * * * * * * //

dimensions      [1 0 -1 0 0 0 0];

internalField   nonuniform List<scalar> 
999
(
18.9932
18.9896
18.9861
18.9826
18.9791
18.9756
18.9721
18.9687
18.9653
18.962
18.9587
18.9557
18.9525
18.9499
18.9476
18.9442
18.942
18.9411
18.9395
18.9365
18.9342
18.9328
18.9301
18.9282
18.9245
18.9257
18.9188
18.9158
18.921
18.9415
18.9557
18.9088
18.9138
18.9473
18.937
18.9029
18.9218
18.9559
18.9108
18.9137
18.9099
18.8667
18.8725
18.9059
18.978
18.9153
18.8795
18.9094
18.9734
18.9163
18.9014
18.9575
18.9727
18.8929
18.9141
18.9835
18.9512
18.9153
18.965
19.0128
18.9135
18.9263
19.0067
19.0072
18.9187
18.9564
19.0573
18.9646
18.9184
18.9661
19.064
18.9865
18.9595
19.0112
19.0754
18.9947
19.0201
19.101
19.0363
19.0252
19.0977
19.0991
19.0456
19.1039
19.1461
19.0646
19.1081
19.1927
19.0903
19.0933
19.1788
19.1918
19.0998
19.15
19.2408
19.1605
19.1791
19.2403
19.3028
19.1632
19.1529
19.1808
19.2175
19.321
19.3617
19.2115
19.2395
19.3083
19.3631
19.3304
19.4006
19.3921
19.3626
19.4432
19.4322
19.3987
19.481
19.4794
19.4298
19.5078
19.5388
19.4574
19.5205
19.5993
19.4895
19.5262
19.6326
19.5676
19.5387
19.6208
19.6822
19.5582
19.598
19.7135
19.6774
19.6011
19.6574
19.7831
19.6816
19.6399
19.7007
19.8392
19.7278
19.6674
19.7133
19.8583
19.8648
19.706
19.7402
19.8583
19.9748
19.7729
19.7793
19.8259
19.8991
20.0108
19.9573
19.9911
20.0987
20.0175
20.0262
20.1367
20.1272
20.0523
20.1268
20.2319
20.1041
20.135
20.2506
20.2572
20.1643
20.2291
20.3565
20.2558
20.2477
20.3402
20.4314
20.2944
20.3375
20.4586
20.4752
20.3694
20.4297
20.5687
20.5062
20.4447
20.5138
20.664
20.5613
20.5076
20.5653
20.6961
20.7343
20.6099
20.6664
20.8103
20.8053
20.6819
20.736
20.869
20.9404
20.7624
20.8054
20.9
21.0631
20.904
20.8769
20.9356
21.0262
21.161
21.069
21.0988
21.229
21.2289
21.1502
21.2342
21.3688
21.2413
21.2657
21.3863
21.4538
21.3159
21.3789
21.525
21.5142
21.4199
21.4933
21.6492
21.5809
21.5262
21.6069
21.7643
21.663
21.6363
21.7259
21.879
21.743
21.747
21.848
21.9885
21.8271
21.8583
21.9732
22.0913
21.9182
21.968
22.0936
22.1903
22.0225
22.0817
22.219
22.2867
22.1318
22.1975
22.3451
22.3851
22.2463
22.3159
22.4714
22.4905
22.3643
22.4356
22.5946
22.611
22.4848
22.5558
22.7116
22.7495
22.6094
22.6786
22.8257
22.8956
22.7398
22.8068
22.9477
23.0343
22.8752
22.9422
23.0856
23.1566
23.0187
23.0945
23.253
23.2344
23.1794
23.2906
23.4157
23.2729
23.3404
23.5036
23.4622
23.3991
23.5009
23.6603
23.5095
23.5382
23.6652
23.7835
23.6201
23.6861
23.8399
23.8833
23.7562
23.8383
24.0109
23.9628
23.9
23.9972
24.1687
24.0432
24.0482
24.1674
24.3094
24.1427
24.1988
24.3456
24.4225
24.2715
24.3495
24.5206
24.5128
24.4113
24.4999
24.6808
24.6005
24.5507
24.6491
24.83
24.7009
24.6896
24.7973
24.9724
24.8107
24.8267
24.9423
25.1096
24.9292
24.9616
25.0829
25.2439
25.0539
25.0953
25.2204
25.3771
25.1817
25.228
25.3554
25.51
25.3116
25.3601
25.4886
25.6437
25.4429
25.4913
25.6184
25.7796
25.5774
25.6203
25.7406
25.9176
25.7235
25.7479
25.8537
26.0495
25.9007
25.8769
25.9642
26.1635
26.1213
26.0106
26.083
26.2614
26.3456
26.1485
26.2116
26.3491
26.5287
26.3167
26.3446
26.4465
26.6532
26.5712
26.4752
26.5742
26.7298
26.8147
26.6242
26.7074
26.7853
26.9835
26.891
26.8371
26.8822
27.0802
27.205
26.9733
27.0069
27.1585
27.369
27.1872
27.1373
27.2614
27.4068
27.4881
27.293
27.3686
27.4603
27.6689
27.5567
27.4835
27.5733
27.7373
27.8406
27.6232
27.6956
27.7897
27.9999
27.8864
27.8235
27.8924
28.0778
28.1763
27.956
28.0263
28.1392
28.3409
28.1758
28.1607
28.2435
28.4501
28.4414
28.288
28.3831
28.5333
28.6457
28.4384
28.5156
28.6145
28.8128
28.6559
28.6367
28.7263
28.935
28.9141
28.7588
28.8576
29.0013
29.145
28.9209
28.9713
29.0894
29.3133
29.1715
29.0871
29.1993
29.3726
29.4829
29.2496
29.3085
29.4077
29.629
29.5507
29.4611
29.5052
29.7126
29.8765
29.6028
29.6339
29.7856
30.0063
29.8818
29.7715
29.8915
30.0144
30.1743
29.986
30.0101
30.0654
30.2953
30.3895
30.148
30.1895
30.3334
30.5676
30.4398
30.3287
30.3936
30.5596
30.8057
30.5425
30.488
30.5756
30.6999
31.0236
30.7562
30.5057
30.523
30.8206
31.3071
30.9311
30.4806
30.7506
31.4242
31.4115
30.7636
30.8842
31.4735
31.5868
31.0791
31.1453
31.5484
31.7522
31.4063
31.4017
31.5556
31.8657
31.8036
31.5832
31.6607
31.7224
32.0029
32.0997
31.7912
31.8398
31.9226
32.1692
32.3264
32.0105
32.0504
32.1246
32.3705
32.5385
32.2292
32.2667
32.345
32.6049
32.7334
32.4309
32.4814
32.5742
32.8594
32.8972
32.6325
32.6944
32.816
33.1086
33.0253
32.8306
32.8943
33.0569
33.3571
33.1488
32.9851
33.0394
33.2376
33.6257
33.3151
32.9763
32.994
33.3284
33.8958
33.5653
32.9076
32.8832
33.7333
34.2146
33.6172
33.0762
33.2889
34.2301
34.4568
33.431
33.2772
33.8623
34.54
34.326
33.5031
33.5569
34.511
34.848
33.9335
33.6674
34.1488
34.9033
34.7841
33.8849
33.9077
34.8668
35.2475
34.3634
34.0252
34.4307
35.2868
35.3202
34.2637
34.1874
35.0494
35.6118
35.1887
34.4115
34.4383
35.4946
35.9069
35.1219
34.5929
34.707
35.7962
36.1553
35.2199
34.7913
34.93
36.0325
36.3886
35.4544
35.0054
35.0934
36.2226
36.6078
35.8243
35.234
35.2294
36.343
36.7885
36.3393
35.4776
35.3915
36.3284
36.9473
36.911
35.7445
35.6309
36.1626
37.0941
37.3611
36.17
35.9007
36.0165
37.1973
37.5712
36.9672
36.1804
36.0889
37.0482
37.6772
37.7819
36.512
36.3662
36.6868
37.7817
38.1266
37.3696
36.6791
36.6033
37.6745
38.195
38.4152
37.0812
36.8856
37.211
38.2672
38.5945
38.4498
37.2496
37.1319
37.7505
38.6014
38.9041
38.6889
37.5262
37.4116
37.8641
38.8774
39.2184
38.9057
37.8027
37.684
38.1558
39.2135
39.5512
38.8934
38.0662
37.935
38.753
39.594
39.8571
38.591
38.2914
38.2874
39.5994
40.0377
39.6418
38.6062
38.4936
39.224
40.145
40.3759
39.0047
38.7956
39.0002
40.2939
40.6863
39.6509
39.0933
39.0519
40.3586
40.8527
40.3502
39.3716
39.2863
40.2635
41.0172
40.9662
39.6844
39.5601
40.1103
41.1927
41.4905
40.0894
39.8274
40.0906
41.3764
41.7296
40.7911
40.1599
40.0538
41.4061
41.9363
41.5689
40.4383
40.3392
41.0664
42.0463
42.3648
40.8968
40.6285
40.842
42.1632
42.5505
42.0079
41.0244
40.8451
41.8039
42.6508
42.9772
41.4545
41.1882
41.3914
42.7224
43.1205
42.7983
41.6154
41.4206
42.2304
43.246
43.5158
42.3799
41.851
41.7015
43.1376
43.6888
43.6395
42.2514
42.0889
42.2595
43.7008
44.144
43.5229
42.4863
42.2722
43.2469
44.1891
44.5469
43.1307
42.6823
42.7415
44.0297
44.5825
44.7347
43.1662
42.9429
43.364
44.6765
45.0291
44.5785
43.4216
43.2124
44.0606
45.0675
45.5409
44.1708
43.6083
43.5185
45.011
45.5687
45.655
44.1999
43.9279
43.9636
45.5288
45.9674
45.7729
44.3532
44.2096
44.581
45.9232
46.3741
45.9412
44.6571
44.4334
45.3589
46.3564
46.694
46.0627
44.9197
44.8586
45.7691
46.6917
46.9998
46.6239
45.3323
45.1713
46.133
46.9686
47.3289
47.1456
45.6899
45.5482
46.4737
47.2751
47.5745
47.7675
46.174
45.9377
46.8037
47.4395
47.6182
48.0383
47.1921
46.3321
46.4833
47.8176
48.0434
48.4061
47.5991
46.692
46.4806
48.0075
48.486
48.8078
48.1479
47.0997
46.8925
47.7257
48.8042
49.2293
48.7805
47.4974
47.2406
47.9601
49.2497
49.5649
49.2519
47.8926
47.6526
47.9782
49.5378
49.9064
49.6936
48.2902
48.086
48.159
49.7581
50.2256
50.0026
48.616
48.5164
48.3205
49.9931
50.5841
50.4259
48.9976
48.8608
48.6889
50.2308
50.9506
50.8975
49.4172
49.2399
49.0543
50.3717
51.301
51.3713
49.7907
49.5834
49.4046
50.6391
51.6513
51.814
50.1975
49.9511
49.7497
50.8342
51.9877
52.2536
50.6769
50.3387
50.1463
50.869
52.3008
52.6447
51.2129
50.7297
50.5516
50.8285
52.5662
52.9064
51.6535
51.2721
51.1778
50.9141
52.0601
53.158
53.0748
51.5365
51.3456
51.1775
52.8331
53.4987
53.8333
52.3846
51.7746
51.6482
53.1648
53.5998
53.8754
54.2121
52.6544
52.2234
52.9566
53.5101
53.4779
53.6279
54.2487
53.3423
52.5676
52.5063
54.3061
54.7425
55.0711
53.7265
53.1133
52.9462
52.8876
54.6759
55.1601
55.4718
53.8909
53.483
53.2999
53.3574
55.2099
55.6056
55.8824
54.2403
53.8444
53.6415
53.9293
55.6864
56.0215
56.3119
54.6725
54.1831
53.9542
54.8584
56.1124
56.4344
56.605
54.9431
54.7258
54.5433
54.4421
56.2927
56.7309
55.9682
55.5395
55.7533
56.148
55.6013
55.3266
56.8898
57.3092
55.6069
55.1787
55.4297
57.156
57.639
57.0624
55.6712
55.0525
)
;

boundaryField
{
    sides
    {
        type            calculated;
        value           nonuniform List<scalar> 2(56.6703 -18.9967);
    }
    empty
    {
        type            empty;
    }
}


// ************************************************************************* //
