/*--------------------------------*- C++ -*----------------------------------*\
  =========                 |
  \\      /  F ield         | OpenFOAM: The Open Source CFD Toolbox
   \\    /   O peration     | Website:  https://openfoam.org
    \\  /    A nd           | Version:  13
     \\/     M anipulation  |
\*---------------------------------------------------------------------------*/
FoamFile
{
    format      ascii;
    class       volScalarField;
    location    "0.08";
    object      rho;
}
// * * * * * * * * * * * * * * * * * * * * * * * * * * * * * * * * * * * * * //

dimensions      [1 -3 0 0 0 0 0];

internalField   nonuniform List<scalar> 
1000
(
0.173179
0.173179
0.17318
0.17318
0.17318
0.17318
0.17318
0.17318
0.173179
0.173178
0.173177
0.173176
0.173175
0.173173
0.173172
0.173169
0.173167
0.173164
0.173162
0.173158
0.173154
0.17315
0.173145
0.173141
0.173134
0.173129
0.173122
0.173111
0.173104
0.173102
0.17311
0.173091
0.173069
0.17307
0.173076
0.173044
0.173031
0.173041
0.173029
0.172999
0.172994
0.17296
0.172936
0.172929
0.172952
0.172948
0.172887
0.172874
0.17289
0.172883
0.172831
0.172827
0.172843
0.172793
0.17276
0.172768
0.172771
0.172713
0.1727
0.172718
0.172677
0.172626
0.172629
0.172645
0.172577
0.172542
0.172564
0.172555
0.172465
0.172445
0.172469
0.172459
0.172381
0.172366
0.172383
0.172349
0.172298
0.172305
0.172293
0.172223
0.172216
0.172223
0.172157
0.172132
0.172143
0.172089
0.172046
0.172058
0.172028
0.17195
0.171944
0.171958
0.171881
0.171841
0.171857
0.171832
0.171765
0.171757
0.171765
0.171714
0.17162
0.171592
0.171572
0.171569
0.171595
0.171506
0.171438
0.171428
0.171439
0.171397
0.171372
0.171369
0.171297
0.17128
0.17128
0.171204
0.171187
0.17119
0.171111
0.171086
0.171096
0.171021
0.17098
0.170992
0.170939
0.17087
0.170873
0.170862
0.170767
0.170746
0.170762
0.170689
0.170623
0.170624
0.170626
0.17052
0.170482
0.170495
0.170477
0.170362
0.170332
0.17035
0.170334
0.170207
0.17017
0.170176
0.1702
0.170081
0.170012
0.170004
0.170045
0.169975
0.16986
0.169835
0.169822
0.169837
0.169815
0.169748
0.16975
0.169725
0.169635
0.169626
0.16963
0.169529
0.16949
0.169504
0.169452
0.169364
0.169357
0.169366
0.169264
0.169216
0.169227
0.169201
0.169095
0.169074
0.169093
0.169022
0.168941
0.168936
0.168947
0.168843
0.168789
0.168795
0.168789
0.168668
0.16863
0.168643
0.168628
0.168496
0.168458
0.168455
0.168473
0.168371
0.168308
0.168308
0.168321
0.168197
0.168139
0.168133
0.16816
0.168057
0.16797
0.167952
0.16798
0.167946
0.167809
0.167775
0.167762
0.167779
0.167748
0.167657
0.167651
0.167658
0.16755
0.167508
0.167524
0.167482
0.167379
0.167367
0.167387
0.167293
0.167223
0.167224
0.167234
0.167115
0.167069
0.167078
0.167073
0.166948
0.166913
0.166928
0.16691
0.166786
0.166758
0.166777
0.166743
0.166623
0.166602
0.166625
0.16657
0.16646
0.166445
0.16647
0.166393
0.166296
0.166285
0.166311
0.16622
0.166134
0.166127
0.166151
0.166046
0.165972
0.16597
0.16599
0.165876
0.165812
0.165813
0.16583
0.16571
0.165652
0.165654
0.165672
0.165551
0.165492
0.165493
0.165514
0.165398
0.165334
0.16533
0.165356
0.165251
0.165177
0.165171
0.165197
0.1651
0.165022
0.165017
0.16504
0.16494
0.164873
0.164877
0.164881
0.164769
0.164736
0.164757
0.164689
0.164603
0.164607
0.164608
0.164483
0.164448
0.164468
0.164424
0.16431
0.164295
0.16432
0.164239
0.164151
0.164148
0.164167
0.164056
0.163996
0.164004
0.164005
0.163878
0.163842
0.16386
0.163831
0.16371
0.16369
0.163715
0.163649
0.163549
0.163541
0.163565
0.163462
0.16339
0.163393
0.163404
0.163278
0.16323
0.163242
0.163235
0.163103
0.163069
0.163087
0.163062
0.162932
0.162906
0.162929
0.162888
0.162763
0.162742
0.162767
0.162714
0.162594
0.162576
0.162603
0.162541
0.162425
0.162408
0.162436
0.162369
0.162255
0.162239
0.162268
0.162198
0.162085
0.16207
0.162099
0.162028
0.161915
0.161899
0.161929
0.161862
0.161745
0.161727
0.161756
0.161703
0.161576
0.161554
0.161578
0.161553
0.161412
0.161382
0.161396
0.161404
0.16126
0.161215
0.161215
0.161243
0.161126
0.16105
0.161036
0.161068
0.161009
0.160888
0.160863
0.16088
0.160886
0.160749
0.160692
0.160689
0.160736
0.16064
0.160518
0.160515
0.160554
0.160528
0.160364
0.160354
0.160356
0.160372
0.160254
0.160197
0.160165
0.160174
0.160167
0.160047
0.159982
0.159979
0.160027
0.159931
0.159814
0.159804
0.159829
0.159821
0.159676
0.159632
0.159628
0.15967
0.15957
0.15946
0.159448
0.159479
0.159464
0.159308
0.15928
0.15928
0.159313
0.1592
0.159111
0.159096
0.15913
0.159098
0.158953
0.158928
0.158939
0.15896
0.158828
0.158759
0.158754
0.1588
0.158713
0.158592
0.158583
0.15862
0.158589
0.158444
0.158417
0.158427
0.158452
0.158322
0.158248
0.158242
0.158288
0.158211
0.158093
0.158072
0.158091
0.158094
0.157965
0.157903
0.157903
0.157946
0.157843
0.157749
0.157734
0.15777
0.157753
0.157581
0.157572
0.157573
0.157595
0.157495
0.157424
0.157388
0.1574
0.15742
0.157294
0.157216
0.157217
0.157275
0.157211
0.157057
0.157059
0.157076
0.157092
0.156958
0.156909
0.156883
0.156906
0.156914
0.156766
0.156721
0.156706
0.156748
0.156722
0.156571
0.156508
0.156502
0.156584
0.15657
0.156302
0.156239
0.156222
0.156385
0.156411
0.156067
0.155966
0.15617
0.156311
0.15606
0.155864
0.155971
0.156136
0.155988
0.155794
0.155839
0.155967
0.155893
0.155731
0.155698
0.155746
0.155795
0.15564
0.155551
0.155544
0.155565
0.155613
0.15548
0.155388
0.155359
0.155368
0.155439
0.155343
0.15521
0.155188
0.155196
0.155265
0.155177
0.155044
0.155022
0.155036
0.155099
0.154992
0.15488
0.154858
0.154886
0.154935
0.154797
0.154711
0.154693
0.154742
0.154765
0.1546
0.154539
0.154526
0.154594
0.154592
0.154398
0.154342
0.154328
0.15443
0.154438
0.154155
0.15406
0.154047
0.154245
0.154296
0.153908
0.153745
0.153834
0.15415
0.154135
0.153697
0.153584
0.153843
0.154058
0.153847
0.153482
0.153482
0.153804
0.153889
0.153492
0.153298
0.153469
0.153738
0.153611
0.153207
0.153176
0.153488
0.153603
0.15323
0.153009
0.15316
0.153448
0.153346
0.15292
0.152865
0.153178
0.153336
0.153003
0.152713
0.152783
0.15313
0.153167
0.152713
0.152538
0.152715
0.153025
0.152973
0.152498
0.152376
0.152614
0.152893
0.152796
0.152325
0.152219
0.152472
0.152748
0.152654
0.152175
0.152062
0.152294
0.15259
0.152545
0.152051
0.151911
0.152081
0.152422
0.152448
0.151966
0.151772
0.151844
0.15223
0.152333
0.151943
0.151643
0.151618
0.151994
0.152181
0.151978
0.15153
0.151442
0.151703
0.151996
0.151993
0.15149
0.151313
0.151387
0.151784
0.151901
0.15157
0.151207
0.151148
0.151487
0.151725
0.151686
0.151164
0.151015
0.151134
0.151518
0.151612
0.151329
0.150938
0.150871
0.151204
0.151406
0.15148
0.151048
0.150758
0.150739
0.151113
0.151287
0.151333
0.150864
0.150595
0.150566
0.150952
0.151121
0.151176
0.150699
0.150453
0.150407
0.150787
0.151006
0.150989
0.150459
0.150295
0.150308
0.150728
0.150895
0.150688
0.150215
0.150125
0.150342
0.15069
0.150742
0.150262
0.150021
0.150035
0.150474
0.150622
0.150342
0.149942
0.149869
0.150199
0.150463
0.150385
0.149882
0.149751
0.149932
0.150301
0.150351
0.149871
0.14963
0.149697
0.15014
0.150263
0.149872
0.149527
0.149518
0.149949
0.150121
0.14988
0.149471
0.149363
0.14968
0.150005
0.149919
0.149373
0.149266
0.149429
0.149802
0.14989
0.149435
0.149137
0.149164
0.149629
0.149763
0.149512
0.149112
0.148983
0.149275
0.149646
0.149623
0.149064
0.148909
0.148953
0.149423
0.149526
0.149262
0.148873
0.148732
0.149014
0.149402
0.149409
0.148879
0.148699
0.148663
0.149077
0.149323
0.149173
0.148604
0.148534
0.14869
0.149061
0.149215
0.148855
0.148422
0.148397
0.148773
0.148992
0.149035
0.148511
0.148353
0.148337
0.148758
0.148938
0.148788
0.148332
0.148139
0.148334
0.148802
0.148851
0.148455
0.148154
0.148035
0.148388
0.148742
0.14872
0.148146
0.147979
0.147996
0.148489
0.148584
0.148491
0.14801
0.147854
0.148016
0.148372
0.148562
0.148273
0.147769
0.147735
0.148067
0.148314
0.148457
0.148048
0.147635
0.147632
0.148075
0.148223
0.148322
0.147834
0.147615
0.14756
0.147955
0.14818
0.148232
0.147744
0.147411
0.147461
0.147919
0.148123
0.14813
0.147584
0.147348
0.147394
0.147854
0.147967
0.148044
0.147584
0.147263
0.147298
0.147723
0.147866
0.147952
0.14765
0.14723
0.14725
0.147601
0.147685
0.147781
0.14775
0.147215
0.147089
0.147406
0.14762
0.147741
0.147688
0.14712
0.147014
0.147164
0.147533
0.147715
0.147656
0.147056
0.146899
0.146963
0.147531
0.147626
0.14763
0.147047
0.146919
0.146831
0.147253
0.147592
0.147585
0.147045
0.146885
0.146752
0.147114
0.147522
0.147532
0.147024
0.146841
0.1467
0.146975
0.147459
0.147501
0.147047
0.146703
0.146686
0.146882
0.147362
0.14745
0.147031
0.146703
0.146635
0.14678
0.147289
0.147383
0.146972
0.1467
0.146598
0.146674
0.147201
0.147342
0.146988
0.146663
0.146546
0.146608
0.147149
0.147311
0.147013
0.146618
0.14652
0.146544
0.147084
0.147272
0.147044
0.146585
0.146486
0.146465
0.146987
0.147222
0.147075
0.146586
0.146472
0.1464
0.14682
0.147157
0.147032
0.1466
0.146526
0.14644
0.146472
0.147003
0.147164
0.146777
0.146444
0.146358
0.146529
0.147037
0.147172
0.147039
0.146504
0.146381
0.146566
0.146977
0.147054
0.147156
0.146973
0.14649
0.146495
0.146818
0.146843
0.146802
0.146957
0.146933
0.146474
0.146347
0.14663
0.147035
0.147158
0.147044
0.146518
0.146421
0.146318
0.146581
0.147052
0.147152
0.146969
0.146497
0.146394
0.146313
0.146656
0.147052
0.147159
0.14695
0.146469
0.146375
0.146309
0.146744
0.147072
0.147176
0.146988
0.146477
0.146369
0.146369
0.146895
0.147086
0.147182
0.146905
0.146507
0.146429
0.146345
0.146631
0.147034
0.147006
0.146711
0.146667
0.146728
0.146713
0.146569
0.146782
0.147048
0.146846
0.146517
0.146313
0.146639
0.147234
0.147107
0.14645
0.146484
0.146924
)
;

boundaryField
{
    sides
    {
        type            calculated;
        value           nonuniform List<scalar> 2(0.146924 0.173179);
    }
    empty
    {
        type            empty;
    }
}


// ************************************************************************* //
