/*--------------------------------*- C++ -*----------------------------------*\
  =========                 |
  \\      /  F ield         | OpenFOAM: The Open Source CFD Toolbox
   \\    /   O peration     | Website:  https://openfoam.org
    \\  /    A nd           | Version:  13
     \\/     M anipulation  |
\*---------------------------------------------------------------------------*/
FoamFile
{
    format      ascii;
    class       volScalarField;
    location    "44.197497";
    object      nut;
}
// * * * * * * * * * * * * * * * * * * * * * * * * * * * * * * * * * * * * * //

dimensions      [0 2 -1 0 0 0 0];

internalField   nonuniform List<scalar> 
17140
(
1.1618358e-18
2.259617e-16
6.0185667e-15
6.1015556e-14
3.6900002e-13
1.6348458e-12
5.903334e-12
1.8472915e-11
5.2044821e-11
1.3539043e-10
3.3095131e-10
7.6978943e-10
1.7197525e-09
3.7164663e-09
7.8119624e-09
1.6041663e-08
3.2293644e-08
6.391414e-08
1.2465262e-07
2.4003125e-07
4.5708035e-07
8.6189973e-07
1.6111805e-06
2.9885053e-06
5.5043625e-06
1.0072664e-05
1.8319532e-05
3.3116131e-05
5.9477022e-05
0.0001060126
0.00018709718
0.00032561637
0.00055525155
0.00091969187
0.0014652744
0.0022263027
0.0032089869
0.0043837913
0.0056901292
0.0070497072
0.0083820185
0.0096176235
0.010690769
0.011573585
0.012327623
0.012940039
0.013427803
0.013825952
0.014163734
0.014458486
0.014713872
0.014923576
0.015075836
0.01512498
0.014966558
0.014480365
0.013619079
0.012573613
0.012267098
0.013912058
0.016874155
0.01586236
0.0046647981
0.0027369405
0.004018253
1.1559303e-18
2.2481296e-16
5.9879721e-15
6.0705373e-14
3.6712285e-13
1.6265157e-12
5.8731781e-12
1.8378227e-11
5.1776898e-11
1.3468983e-10
3.2922833e-10
7.6575365e-10
1.7106637e-09
3.696643e-09
7.7698496e-09
1.5954115e-08
3.211485e-08
6.3554237e-08
1.2393645e-07
2.3861871e-07
4.5431229e-07
8.564983e-07
1.6006645e-06
2.968045e-06
5.4645328e-06
9.9950429e-06
1.816814e-05
3.2821031e-05
5.8903804e-05
0.00010490841
0.00018500375
0.00032175398
0.00054842412
0.00090833163
0.0014477603
0.0022015441
0.0031769999
0.0043457318
0.0056478495
0.0070050872
0.0083363369
0.0095711571
0.010643528
0.011524861
0.012273942
0.012875881
0.013349448
0.01372748
0.01403689
0.01429206
0.014492083
0.014625555
0.014674751
0.014576828
0.014197656
0.013379498
0.012056258
0.010428234
0.0096180822
0.011517088
0.015898338
0.018719986
0.0079559755
0.0034897982
0.004617023
1.1415227e-18
2.2201084e-16
5.9133322e-15
5.9948498e-14
3.6254278e-13
1.6062031e-12
5.7997251e-12
1.8147952e-11
5.1126678e-11
1.3299386e-10
3.2506997e-10
7.5604736e-10
1.6888922e-09
3.6493774e-09
7.6699724e-09
1.5747763e-08
3.1696462e-08
6.2719177e-08
1.2229142e-07
2.3541283e-07
4.4811884e-07
8.4461525e-07
1.5779841e-06
2.9249199e-06
5.3827468e-06
9.8402155e-06
1.7875486e-05
3.2268994e-05
5.7866429e-05
0.0001029732
0.00018144184
0.00031534765
0.00053731686
0.00089006895
0.0014197314
0.0021618206
0.0031251351
0.0042829442
0.0055764913
0.0069277433
0.0082550051
0.0094867643
0.010556636
0.011434791
0.012176856
0.012766034
0.013222739
0.013577628
0.013855237
0.014066807
0.014207341
0.014261928
0.014208036
0.013966531
0.013352464
0.012176271
0.010380335
0.0080738
0.0064833367
0.0081822823
0.013917482
0.019470932
0.013498074
0.0054444516
0.0055928123
1.1182389e-18
2.174824e-16
5.7927112e-15
5.8725475e-14
3.5514375e-13
1.5734021e-12
5.6811817e-12
1.7776595e-11
5.0079036e-11
1.3026419e-10
3.183852e-10
7.4046557e-10
1.6539964e-09
3.5737531e-09
7.5104914e-09
1.5419022e-08
3.1031692e-08
6.1396452e-08
1.1969513e-07
2.3037465e-07
4.3843462e-07
8.2614539e-07
1.5429793e-06
2.8589068e-06
5.2587385e-06
9.6079732e-06
1.7441713e-05
3.1461227e-05
5.6368705e-05
0.00010021632
0.00017643102
0.00030643278
0.00052198556
0.00086497535
0.001381238
0.0021070723
0.0030531353
0.0041949068
0.005475264
0.006816717
0.0081370607
0.0093635665
0.010429389
0.011302793
0.012034961
0.012610333
0.013047767
0.013376641
0.013619353
0.01378434
0.013863271
0.013840075
0.01368888
0.013310984
0.012452114
0.010971513
0.0087149278
0.0057622563
0.0032433149
0.0044743536
0.010453859
0.018749119
0.018635401
0.0092898107
0.0082055174
1.0861624e-18
2.1124394e-16
5.6265441e-15
5.7040734e-14
3.4495267e-13
1.5282327e-12
5.517985e-12
1.7265541e-11
4.8637927e-11
1.2651127e-10
3.0920011e-10
7.190704e-10
1.6061188e-09
3.4700874e-09
7.2920963e-09
1.4969365e-08
3.0123635e-08
5.9592498e-08
1.1616086e-07
2.2353144e-07
4.2531548e-07
8.0120305e-07
1.4958845e-06
2.7704862e-06
5.0934927e-06
9.3003333e-06
1.6870935e-05
3.0406052e-05
5.4427227e-05
9.6670107e-05
0.00017003207
0.00029511736
0.00050260664
0.00083330469
0.0013325815
0.0020375614
0.0029611029
0.0040814511
0.0053436723
0.0066711923
0.0079814142
0.0092002877
0.010260498
0.011127889
0.011848403
0.012407499
0.012823264
0.013123523
0.013328785
0.013445201
0.013462478
0.013366589
0.013130355
0.012616577
0.011573556
0.0098280453
0.0072425906
0.0039634136
0.0017429966
0.0017546057
0.0057403991
0.016866277
0.020354267
0.015102313
0.011538721
1.0456479e-18
2.033644e-16
5.4166676e-15
5.4912885e-14
3.3208209e-13
1.4711941e-12
5.3119409e-12
1.6620454e-11
4.681935e-11
1.2177688e-10
2.9761718e-10
6.9210126e-10
1.545797e-09
3.3395496e-09
7.0172633e-09
1.4403921e-08
2.8982731e-08
5.7328246e-08
1.1173006e-07
2.1496453e-07
4.0891986e-07
7.7009521e-07
1.4372922e-06
2.6608e-06
4.8892082e-06
8.9215256e-06
1.6171282e-05
2.9119043e-05
5.2071634e-05
9.2390204e-05
0.00016234687
0.00028158026
0.00047947366
0.00079549264
0.0012743236
0.0019538879
0.0028495269
0.0039427995
0.0051815659
0.006490611
0.007787122
0.0089956598
0.010048529
0.010908862
0.011615319
0.012155668
0.012547287
0.012816383
0.012981924
0.013048532
0.013006073
0.012846269
0.012538486
0.011919799
0.01074695
0.0088272774
0.0061383557
0.0029608463
0.0012888634
0.00079273804
0.0030575228
0.012629894
0.020328151
0.019770595
0.01609465
9.9729989e-19
1.9396139e-16
5.1662138e-15
5.237369e-14
3.1672415e-13
1.403138e-12
5.0661277e-12
1.5850977e-11
4.4650519e-11
1.1613192e-10
2.8381008e-10
6.5996309e-10
1.4739384e-09
3.1841069e-09
6.6901449e-09
1.373126e-08
2.7626331e-08
5.4638286e-08
1.0647081e-07
2.0480645e-07
3.8950352e-07
7.3331219e-07
1.3681376e-06
2.5316247e-06
4.6492504e-06
8.4779129e-06
1.5354755e-05
2.762277e-05
4.9344103e-05
8.7454547e-05
0.0001535165
0.00026606795
0.00045299331
0.00075215532
0.0012072938
0.0018570116
0.0027193261
0.0037796252
0.004989209
0.0062747422
0.0075534378
0.0087484209
0.0097917164
0.010644268
0.011333363
0.011852296
0.012217018
0.012452164
0.012575638
0.012591708
0.01249404
0.012284166
0.011649484
0.010985877
0.0099825159
0.0080145807
0.0053873302
0.0026568508
0.0011098176
0.00049574022
0.0017978824
0.0066549149
0.018580793
0.021556389
0.020434204
9.4196229e-19
1.8319899e-16
4.8795526e-15
4.9467454e-14
2.9914691e-13
1.3252525e-12
4.7848374e-12
1.4970549e-11
4.2169326e-11
1.0967506e-10
2.6802031e-10
6.2321845e-10
1.3918019e-09
3.0064858e-09
6.3164859e-09
1.2963216e-08
2.6078348e-08
5.1570166e-08
1.0047637e-07
1.9323811e-07
3.6741407e-07
6.915168e-07
1.2896769e-06
2.3853295e-06
4.3780708e-06
7.9778329e-06
1.4436926e-05
2.5946199e-05
4.6298213e-05
8.1961228e-05
0.00014371736
0.00024888811
0.00042367648
0.00070408029
0.0011325872
0.0017482674
0.0025718889
0.0035931188
0.0047673658
0.0060237772
0.007279911
0.0084574121
0.009487726
0.01032988
0.010999405
0.011494036
0.011828541
0.012026313
0.012104903
0.012070444
0.011700253
0.0109221
0.01008252
0.009374395
0.0092668801
0.0073418614
0.0048082829
0.0025550058
0.0010411875
0.00041368271
0.0011863413
0.0039563746
0.01361434
0.020635665
0.022100836
8.8070199e-19
1.7128464e-16
4.5622076e-15
4.6250183e-14
2.7968915e-13
1.239039e-12
4.4734923e-12
1.3996144e-11
3.9423612e-11
1.0253083e-10
2.5055248e-10
5.8257641e-10
1.3009731e-09
2.8101171e-09
5.9035089e-09
1.2114646e-08
2.4368765e-08
4.8183404e-08
9.386326e-08
1.8048493e-07
3.4308336e-07
6.4552946e-07
1.2034579e-06
2.2248186e-06
4.0810931e-06
7.431375e-06
1.3436494e-05
2.4123845e-05
4.2997302e-05
7.6025407e-05
0.00013315557
0.00023040017
0.0003921238
0.00065220858
0.0010515499
0.0016293664
0.0024091053
0.0033850558
0.0045173988
0.0057384483
0.0069665296
0.0081217953
0.0091342431
0.0099616469
0.0106099
0.011076651
0.011376584
0.011532415
0.011562415
0.011295845
0.010445066
0.0095133557
0.0085759883
0.008068152
0.0085542436
0.0066139253
0.0042663638
0.0022866812
0.00082947763
0.00037247016
0.0006887177
0.0026737449
0.0067415462
0.016958702
0.019673768
8.1477522e-19
1.5846276e-16
4.2206915e-15
4.2787899e-14
2.5875013e-13
1.1462663e-12
4.138481e-12
1.2947756e-11
3.6469718e-11
9.4845833e-11
2.3176503e-10
5.3887102e-10
1.2033163e-09
2.5990316e-09
5.4596931e-09
1.1202979e-08
2.2532713e-08
4.4547643e-08
8.6767599e-08
1.6680974e-07
3.1701367e-07
5.9630169e-07
1.1112698e-06
2.0534348e-06
3.7645301e-06
6.8500328e-06
1.2374631e-05
2.2194538e-05
3.9512177e-05
6.9775131e-05
0.00012205959
0.00021100263
0.00035900584
0.00059760745
0.00096574951
0.0015023796
0.0022333828
0.0031578577
0.0042413718
0.0054201569
0.0066138662
0.0077413982
0.0087314892
0.0095392039
0.010161095
0.010594896
0.010854208
0.010961719
0.010938604
0.010128459
0.0091519409
0.0081355183
0.0072878968
0.0072971984
0.0077426357
0.0056095252
0.003683681
0.0016962699
0.00056990739
0.00033250814
0.0003373847
0.0014937207
0.0040113062
0.009798243
0.013687052
7.4558923e-19
1.4500702e-16
3.8622929e-15
3.915449e-14
2.3677665e-13
1.0489141e-12
3.7869517e-12
1.1847753e-11
3.3370656e-11
8.6783971e-11
2.120586e-10
4.9303416e-10
1.1009134e-09
2.3777289e-09
4.9944981e-09
1.0247648e-08
2.0609323e-08
4.074038e-08
7.9340657e-08
1.5250418e-07
2.8976124e-07
5.4488461e-07
1.0150831e-06
1.8748469e-06
3.4351713e-06
6.2463048e-06
1.1274235e-05
2.0200015e-05
3.59185e-05
6.3346535e-05
0.00011067164
0.00019111871
0.0003250397
0.00054143461
0.00087692971
0.0013696977
0.0020476367
0.0029146365
0.0039421515
0.0050711078
0.0062231565
0.0073162546
0.0082777012
0.0090594241
0.009647969
0.010042365
0.010252389
0.010302284
0.0098901037
0.0088986044
0.007851198
0.006845618
0.0063654787
0.0070144745
0.0066244009
0.0043967952
0.0028443936
0.00094466004
0.00039064236
0.00027321614
0.00023261275
0.00074577159
0.0024032515
0.0046712523
0.005802908
6.7463801e-19
1.3120795e-16
3.4947497e-15
3.5428402e-14
2.142431e-13
9.490837e-13
3.4264907e-12
1.0719868e-11
3.0193278e-11
7.8519105e-11
1.9185804e-10
4.4605361e-10
9.9597013e-10
2.150974e-09
4.5179353e-09
9.2691981e-09
1.8639941e-08
3.6843399e-08
7.1741856e-08
1.3787508e-07
2.6191006e-07
4.9237894e-07
9.1695469e-07
1.6928694e-06
3.100043e-06
5.6330538e-06
1.0158716e-05
1.8182649e-05
3.2292481e-05
5.6875652e-05
9.9232043e-05
0.00017116702
0.00029093983
0.00048487118
0.0007869313
0.0012339531
0.0018552426
0.0026592078
0.0036234996
0.0046944766
0.0057965422
0.0068471341
0.0077719052
0.0085186288
0.0090639987
0.0094113016
0.0095595655
0.009539402
0.0086927422
0.0076184986
0.0065510086
0.005790211
0.0059363466
0.0066784853
0.0050390972
0.0031860535
0.0015739523
0.00051127401
0.00028610581
0.00022658023
0.00022973317
0.00043302194
0.0011684562
0.002819996
0.0037383312
6.034382e-19
1.1736055e-16
3.1259202e-15
3.1689303e-14
1.9163127e-13
8.4890933e-13
3.0648022e-12
9.5882016e-12
2.7005453e-11
7.0227706e-11
1.7159449e-10
3.9893165e-10
8.9072425e-10
1.9235989e-09
4.0401525e-09
8.2884494e-09
1.666643e-08
3.2939449e-08
6.413234e-08
1.2323218e-07
2.3404877e-07
4.3989202e-07
8.1894892e-07
1.5113194e-06
2.7661515e-06
5.0230546e-06
9.0512264e-06
1.6184156e-05
2.8708881e-05
5.0495717e-05
8.7976673e-05
0.00015156084
0.00025741761
0.00042910011
0.0006976356
0.0010979368
0.0016599556
0.0023960618
0.003290133
0.0042945646
0.0053373083
0.006335932
0.0072135801
0.0079129446
0.0084031853
0.0086909125
0.0087606931
0.0084798719
0.007402823
0.0062894182
0.0053762445
0.0051831809
0.0059507761
0.0049422119
0.0032652159
0.0019444269
0.00064878042
0.00028182872
0.00021050694
0.00020355325
0.00025145062
0.00033544966
0.00058186971
0.0010524348
0.0014452126
5.3347545e-19
1.0375372e-16
2.7634982e-15
2.801518e-14
1.6941267e-13
7.5047954e-13
2.7094251e-12
8.4763342e-12
2.3873578e-11
6.2082388e-11
1.5168955e-10
3.5264802e-10
7.8736238e-10
1.7003235e-09
3.5710583e-09
7.3257175e-09
1.4729615e-08
2.910916e-08
5.6668971e-08
1.0887665e-07
2.0674879e-07
3.8849671e-07
7.2306097e-07
1.3338753e-06
2.4402242e-06
4.4285197e-06
7.9737829e-06
1.4243975e-05
2.5237928e-05
4.433107e-05
7.7124418e-05
0.00013268295
0.00022513466
0.00037524507
0.00061088144
0.00096448794
0.001465789
0.0021302752
0.002947719
0.0038768889
0.0048499566
0.0057850923
0.0066025777
0.0072395951
0.007659181
0.0078687288
0.0078377437
0.0071567325
0.0060244761
0.0050261741
0.0045891913
0.00504206
0.0042638127
0.0029333312
0.0018852825
0.00069876105
0.00025984301
0.00018372141
0.00017916449
0.00021627888
0.00027488168
0.00032996879
0.00043659993
0.00055441486
0.00068831044
4.6613488e-19
9.0656869e-17
2.4146602e-15
2.4478784e-14
1.4802721e-13
6.5574264e-13
2.3673913e-12
7.4062557e-12
2.0859559e-11
5.4244044e-11
1.3253611e-10
3.0811543e-10
6.8792055e-10
1.4855404e-09
3.119868e-09
6.3998824e-09
1.2867402e-08
2.542731e-08
4.9497021e-08
9.5086884e-08
1.8053719e-07
3.3917985e-07
6.3111969e-07
1.1638938e-06
2.1283663e-06
3.8604561e-06
6.9460625e-06
1.2396996e-05
2.1940996e-05
3.8488883e-05
6.6861247e-05
0.00011485476
0.00019464773
0.00032427544
0.00052833287
0.00083631009
0.0012767955
0.0018673068
0.0026027585
0.0034482156
0.0043404757
0.00519865
0.0059399597
0.0064955703
0.0068266258
0.0069311269
0.0067742416
0.0057256229
0.0046740316
0.0040817362
0.0042591657
0.0034465223
0.0023479863
0.0014917445
0.00062549799
0.00023375387
0.00014424532
0.00014077319
0.00017181225
0.00023167985
0.00029578276
0.00034577779
0.0004004916
0.00049666612
0.00053909408
4.0265479e-19
7.8310864e-17
2.0858225e-15
2.1145167e-14
1.2786826e-13
5.6644066e-13
2.0449877e-12
6.3976247e-12
1.801873e-11
4.6856473e-11
1.1448523e-10
2.6614933e-10
5.9421763e-10
1.2831732e-09
2.6948107e-09
5.5277996e-09
1.1113619e-08
2.1960609e-08
4.2746018e-08
8.2110948e-08
1.5588319e-07
2.928189e-07
5.4474858e-07
1.0043488e-06
1.8359721e-06
3.3285575e-06
5.9853277e-06
1.06737e-05
1.8871508e-05
3.306228e-05
5.7349137e-05
9.8358604e-05
0.00016645004
0.00027704653
0.00045145143
0.0007158519
0.0010968434
0.001612709
0.0022623188
0.0030164132
0.0038163677
0.004582327
0.0052283057
0.0056791569
0.0059000077
0.0058677619
0.0053475891
0.0043057537
0.0036009129
0.0035289319
0.0027024879
0.0017650473
0.0010430623
0.00046146112
0.0001965134
0.00010908991
0.00010762072
0.00014126231
0.0002022779
0.00023272652
0.00023635968
0.00028198426
0.0003248422
0.0004156665
0.00046079306
3.4404232e-19
6.6911567e-17
1.7822012e-15
1.8067191e-14
1.0925537e-13
4.8398881e-13
1.7473213e-12
5.4664096e-12
1.5396038e-11
4.0036454e-11
9.7821962e-11
2.2741162e-10
5.0772944e-10
1.0964037e-09
2.3025568e-09
4.7231223e-09
9.4956466e-09
1.8762986e-08
3.6520527e-08
7.0148739e-08
1.33164e-07
2.5011715e-07
4.6524385e-07
8.5760241e-07
1.5672992e-06
2.8404119e-06
5.1049521e-06
9.0973981e-06
1.6069685e-05
2.812009e-05
4.8705413e-05
8.3395155e-05
0.00014088993
0.0002341797
0.00038136936
0.00060513866
0.00092934925
0.0013717362
0.0019335737
0.0025900237
0.0032863397
0.0039433919
0.0044720402
0.0047921287
0.0048791908
0.0046813471
0.0038843659
0.0031402746
0.0028147338
0.0020758775
0.0012869615
0.00068363749
0.00031024167
0.00014247168
8.2441545e-05
8.6146969e-05
0.00011438577
0.0001701208
0.00018503651
0.00017784261
0.00019430673
0.00022155751
0.00026756013
0.00035280136
0.0004180572
2.9103135e-19
5.660166e-17
1.5075952e-15
1.5283367e-14
9.242137e-14
4.0941807e-13
1.4781118e-12
4.6242379e-12
1.3024197e-11
3.3868964e-11
8.2753656e-11
1.9238357e-10
4.2952853e-10
9.2754307e-10
1.9479473e-09
3.9957501e-09
8.0333114e-09
1.5873441e-08
3.0896032e-08
5.9344224e-08
1.1265051e-07
2.1157769e-07
3.9352803e-07
7.2532453e-07
1.325329e-06
2.4012664e-06
4.3140349e-06
7.6836275e-06
1.3561653e-05
2.3705688e-05
4.1001743e-05
7.0084196e-05
0.000118175
0.00019605567
0.00031882018
0.00050559664
0.00077695806
0.0011488373
0.0016231007
0.0021774433
0.0027595182
0.0032901713
0.0036777597
0.0038468153
0.0037771959
0.0033776711
0.0026914306
0.0021823719
0.0015571774
0.00091263625
0.00043210498
0.00020125716
9.6389351e-05
5.8465155e-05
6.6968398e-05
9.2478747e-05
0.00014070047
0.0001628331
0.00014425229
0.0001509796
0.00017083442
0.00020278349
0.00023777088
0.0003267172
0.00042601935
2.4406067e-19
4.7466476e-17
1.2642778e-15
1.2816739e-14
7.7505553e-14
3.4334498e-13
1.239583e-12
3.8780579e-12
1.0922747e-11
2.8404723e-11
6.9403971e-11
1.6135195e-10
3.6025323e-10
7.7796489e-10
1.6338549e-09
3.3515463e-09
6.7383301e-09
1.3314951e-08
2.5916827e-08
4.9781466e-08
9.4499875e-08
1.7749013e-07
3.3012718e-07
6.0845731e-07
1.111725e-06
2.0140112e-06
3.6174762e-06
6.4404446e-06
1.1360145e-05
1.9838317e-05
3.4266646e-05
5.8468501e-05
9.8375534e-05
0.00016281245
0.00026411945
0.00041796955
0.00064129378
0.00094711844
0.0013359746
0.0017856938
0.0022442207
0.0026317764
0.0028575266
0.0028729983
0.0026402161
0.0021656337
0.0016419239
0.0011276263
0.00062185948
0.0002753197
0.0001287806
6.4026531e-05
4.0760404e-05
5.0247499e-05
7.4537906e-05
0.00011795898
0.00014856024
0.00011711217
0.00011132902
0.00012046216
0.00013791471
0.00017082462
0.00021731853
0.00030596233
0.00043656787
2.0325284e-19
3.9529904e-17
1.0528861e-15
1.0673762e-14
6.4546914e-14
2.8594203e-13
1.0323558e-12
3.2298052e-12
9.0971166e-12
2.3657767e-11
5.7806973e-11
1.3439533e-10
3.0007734e-10
6.4804033e-10
1.3610487e-09
2.7920625e-09
5.6137581e-09
1.1093396e-08
2.1593974e-08
4.148076e-08
7.8748255e-08
1.4791645e-07
2.7514172e-07
5.0714876e-07
9.2666807e-07
1.6787745e-06
3.0151408e-06
5.3670325e-06
9.4630228e-06
1.6513448e-05
2.8488542e-05
4.8518922e-05
8.1429263e-05
0.00013434557
0.00021714493
0.0003422351
0.00052271834
0.00076778764
0.0010747457
0.0014189977
0.0017468427
0.0019792731
0.0020448655
0.001916484
0.0015822626
0.0011740819
0.00078189206
0.00039788777
0.00017404159
8.3108093e-05
4.2755031e-05
2.888503e-05
3.7995825e-05
5.9894904e-05
9.9310275e-05
0.00013945404
0.00010419595
9.4714538e-05
9.8330424e-05
0.00011219838
0.00013269756
0.00016248213
0.0002090535
0.0003150269
0.00049018657
1.6840614e-19
3.275271e-17
8.7237515e-16
8.8438393e-15
5.3481351e-14
2.3692499e-13
8.5540289e-13
2.6762603e-12
7.5382185e-12
1.960441e-11
4.7904618e-11
1.113783e-10
2.4869731e-10
5.3711066e-10
1.1281372e-09
2.314424e-09
4.653766e-09
9.1971348e-09
1.7904517e-08
3.4397289e-08
6.5308839e-08
1.2268941e-07
2.2825057e-07
4.20783e-07
7.6897353e-07
1.3932555e-06
2.5024598e-06
4.4540853e-06
7.850998e-06
1.369177e-05
2.3594811e-05
4.0112972e-05
6.7132133e-05
0.00011029687
0.00017730636
0.00027752411
0.00042012393
0.00060969533
0.00083866769
0.0010781457
0.0012733838
0.0013549642
0.001295113
0.0010799243
0.00078827084
0.00051149375
0.00024172545
0.00010599085
5.2998268e-05
2.8984384e-05
2.1064628e-05
2.9330599e-05
4.8456503e-05
8.3326418e-05
0.00013355418
0.00010092035
8.9715345e-05
8.8596874e-05
9.3477042e-05
0.00010359119
0.00012192851
0.0001538156
0.00020473158
0.00032267581
0.00054620905
1.3899042e-19
2.7031751e-17
7.1999678e-16
7.2991089e-15
4.4140337e-14
1.9554712e-13
7.0602727e-13
2.2089821e-12
6.2222644e-12
1.6182745e-11
3.9545517e-11
9.1948546e-11
2.0532551e-10
4.4347238e-10
9.3153589e-10
1.9112606e-09
3.8434922e-09
7.5966915e-09
1.479081e-08
2.8419662e-08
5.3968534e-08
1.0140482e-07
1.8869233e-07
3.4793364e-07
6.3598076e-07
1.1525081e-06
2.0702668e-06
3.6846468e-06
6.4926568e-06
1.1314321e-05
1.9470265e-05
3.3023106e-05
5.5066653e-05
8.9987063e-05
0.0001434851
0.00022205862
0.00033086387
0.0004693212
0.0006241566
0.00076287524
0.00083643706
0.00081223141
0.00068352162
0.00049461727
0.00030778004
0.0001398489
6.3365393e-05
3.3284218e-05
1.9671915e-05
1.5837367e-05
2.3193709e-05
3.9612087e-05
7.02862e-05
0.00011717315
9.9809807e-05
8.7951143e-05
8.3844673e-05
8.3635863e-05
8.8669915e-05
0.00010121144
0.00012254375
0.00015816571
0.00021540797
0.00034478301
0.00062401407
1.1417052e-19
2.2204611e-17
5.9142514e-16
5.9957164e-15
3.6258662e-14
1.6063338e-13
5.79986e-13
1.8146933e-12
5.1118465e-12
1.3295453e-11
3.2491762e-11
7.5552617e-11
1.6872524e-10
3.6445212e-10
7.6562306e-10
1.5710217e-09
3.1596662e-09
6.2459638e-09
1.2162821e-08
2.3374207e-08
4.4395878e-08
8.3435791e-08
1.5529059e-07
2.864076e-07
5.2362394e-07
9.4902897e-07
1.7047678e-06
3.03344e-06
5.3418203e-06
9.2970627e-06
1.5963065e-05
2.6975245e-05
4.4724653e-05
7.2460002e-05
0.00011409666
0.0001733115
0.00025121511
0.00034212425
0.00042851518
0.00048047987
0.00047286684
0.00040067032
0.00028836172
0.00017265801
7.8972138e-05
3.7364531e-05
2.0750192e-05
1.3573806e-05
1.2027341e-05
1.8819204e-05
3.2955892e-05
6.0640926e-05
0.00010408279
9.9039805e-05
8.9598648e-05
8.4599518e-05
8.3303706e-05
8.5906924e-05
9.2956778e-05
0.00010587006
0.00012619864
0.00016156353
0.00022431481
0.00037082497
0.00069962644
9.2889524e-20
1.8065749e-17
4.811861e-16
4.8781666e-15
2.9500716e-14
1.3069692e-13
4.7191029e-13
1.476594e-12
4.1596336e-12
1.0819404e-11
2.6442347e-11
6.1490285e-11
1.3733184e-10
2.9666755e-10
6.2328601e-10
1.279093e-09
2.5728449e-09
5.0866201e-09
9.9066374e-09
1.9041215e-08
3.6171621e-08
6.7989725e-08
1.26559e-07
2.3343705e-07
4.2678028e-07
7.7338759e-07
1.3886851e-06
2.4689532e-06
4.3412875e-06
7.5367534e-06
1.2888328e-05
2.1642153e-05
3.5538737e-05
5.6757064e-05
8.7511509e-05
0.00012878836
0.00017810085
0.00022644335
0.00025739673
0.00025541919
0.0002172185
0.00015485038
8.9492688e-05
4.2234483e-05
2.1394623e-05
1.3049324e-05
9.3762715e-06
9.4427016e-06
1.5147171e-05
2.7912222e-05
5.2534494e-05
9.2381525e-05
0.00010048792
9.3921148e-05
8.8616301e-05
8.6580611e-05
8.701311e-05
8.9710392e-05
9.6313553e-05
0.00011005606
0.00013285708
0.00017207417
0.00023913848
0.00039426332
0.00075053835
7.4058331e-20
1.4403344e-17
3.8363742e-16
3.8892569e-15
2.3520558e-14
1.0420507e-13
3.7626583e-13
1.177366e-12
3.3168333e-12
8.6276611e-12
2.1086948e-11
4.90396e-11
1.0953196e-10
2.3663066e-10
4.9718885e-10
1.020399e-09
2.0526509e-09
4.058467e-09
7.9046909e-09
1.5193902e-08
2.8863031e-08
5.424873e-08
1.0096467e-07
1.8617072e-07
3.4018298e-07
6.1591915e-07
1.1043995e-06
1.9592931e-06
3.433807e-06
5.9317381e-06
1.0068367e-05
1.6720712e-05
2.7013343e-05
4.2124247e-05
6.2654714e-05
8.7457884e-05
0.00011207352
0.00012823208
0.00012770244
0.00010872852
7.6579792e-05
4.359343e-05
2.1711536e-05
1.1979573e-05
8.0681264e-06
6.7300623e-06
7.2673579e-06
1.2515376e-05
2.3483604e-05
4.6392262e-05
8.2179157e-05
0.00010372251
9.8935604e-05
9.3534557e-05
9.078051e-05
9.0044571e-05
9.0771245e-05
9.4824093e-05
0.0001036015
0.00011873006
0.0001426188
0.00018387578
0.0002560082
0.00042214628
0.00078991801
5.6868271e-20
1.1060111e-17
2.9458959e-16
2.9865145e-15
1.8061329e-14
8.0019859e-14
2.8894364e-13
9.0415214e-13
2.5472238e-12
6.6259977e-12
1.6195236e-11
3.7664792e-11
8.4128511e-11
1.8175406e-10
3.8189159e-10
7.8376562e-10
1.5765813e-09
3.1169532e-09
6.0700723e-09
1.1664912e-08
2.2151551e-08
4.1612793e-08
7.7388523e-08
1.4254131e-07
2.6005015e-07
4.6977756e-07
8.3966917e-07
1.4829033e-06
2.5822063e-06
4.4198832e-06
7.404672e-06
1.2068802e-05
1.8973615e-05
2.8419035e-05
3.9882911e-05
5.128801e-05
5.8805088e-05
5.8564878e-05
4.9777158e-05
3.4578646e-05
1.9920102e-05
1.091358e-05
6.5909579e-06
5.1281706e-06
4.7296679e-06
5.8333623e-06
1.0113445e-05
2.0291918e-05
4.1730489e-05
7.3458613e-05
0.00010745709
0.00010245901
9.7460154e-05
9.4737863e-05
9.3554592e-05
9.3520606e-05
9.5942906e-05
0.000101334
0.00011059251
0.00012682916
0.0001523838
0.00019650322
0.00027134706
0.00044026102
0.00080229438
4.1105113e-20
7.9943874e-18
2.1293302e-16
2.1586929e-15
1.3055037e-14
5.7840215e-14
2.0885745e-13
6.5355676e-13
1.8412515e-12
4.7896022e-12
1.1706685e-11
2.7225438e-11
6.0808807e-11
1.3136477e-10
2.7598717e-10
5.6632368e-10
1.1389148e-09
2.2508988e-09
4.3813553e-09
8.4139743e-09
1.5963042e-08
2.9948654e-08
5.5598061e-08
1.0215935e-07
1.8576865e-07
3.3409929e-07
5.9356249e-07
1.0396711e-06
1.7901052e-06
3.0166976e-06
4.944535e-06
7.8122745e-06
1.175029e-05
1.6538284e-05
2.1299261e-05
2.4431079e-05
2.4287068e-05
2.0691457e-05
1.4344706e-05
8.691199e-06
5.2721199e-06
3.7262114e-06
3.2439709e-06
3.4840125e-06
4.5695877e-06
8.4435912e-06
1.8516791e-05
3.7251598e-05
6.6058757e-05
0.00010105253
0.00010403719
9.9610242e-05
9.7208622e-05
9.6388286e-05
9.6033984e-05
9.7540703e-05
0.00010076125
0.00010717232
0.00011820664
0.00013648566
0.00016408119
0.00021100015
0.00028801897
0.00045798096
0.00080198039
2.7248769e-20
5.299514e-18
1.4115398e-16
1.4310015e-15
8.6541945e-15
3.8342235e-14
1.3845071e-13
4.3323493e-13
1.2205161e-12
3.1747752e-12
7.7592603e-12
1.8043458e-11
4.0294907e-11
8.7031122e-11
1.8279341e-10
3.7494198e-10
7.536228e-10
1.4883215e-09
2.8941035e-09
5.550367e-09
1.0511217e-08
1.9672959e-08
3.6404994e-08
6.660855e-08
1.2043852e-07
2.1497792e-07
3.7809902e-07
6.5335066e-07
1.104469e-06
1.8151717e-06
2.8744852e-06
4.3312091e-06
6.1039084e-06
7.8684153e-06
9.0321528e-06
8.9646068e-06
7.6651629e-06
5.5005968e-06
3.6947216e-06
2.600327e-06
2.1002633e-06
2.1746187e-06
2.5349437e-06
3.7046826e-06
7.6671414e-06
1.6760822e-05
3.3459968e-05
5.9371244e-05
9.1027496e-05
0.00010419127
0.00010009645
9.813675e-05
9.782788e-05
9.7768916e-05
9.8646872e-05
0.00010089975
0.00010546462
0.00011361296
0.00012602549
0.00014572176
0.00017488419
0.00022384726
0.00030212796
0.00047196156
0.00079438953
1.6141676e-20
3.1393332e-18
8.3616676e-17
8.4768971e-16
5.1264768e-15
2.2712385e-14
8.201044e-14
2.5661337e-13
7.228885e-13
1.8801777e-12
4.5945741e-12
1.0682132e-11
2.3848825e-11
5.1490154e-11
1.0808919e-10
2.2155317e-10
4.4489249e-10
8.7750015e-10
1.7034659e-09
3.2596717e-09
6.1550115e-09
1.1475316e-08
2.1127325e-08
3.8397668e-08
6.8819535e-08
1.2142045e-07
2.1029312e-07
3.5603092e-07
5.8563064e-07
9.2774241e-07
1.3981966e-06
1.971507e-06
2.5453843e-06
2.9313235e-06
2.929268e-06
2.5771687e-06
2.0532722e-06
1.5987706e-06
1.3055738e-06
1.2888118e-06
1.4665542e-06
1.9544348e-06
3.2795892e-06
7.0856349e-06
1.4919656e-05
2.986053e-05
5.3402017e-05
8.2041973e-05
0.00010280159
9.9236389e-05
9.7459196e-05
9.78363e-05
9.7898635e-05
9.8818203e-05
0.0001005445
0.00010431458
0.00011020524
0.00011946076
0.00013321658
0.00015493477
0.00018607745
0.00023773147
0.00031626328
0.00048192532
0.0007820461
8.3669401e-21
1.627252e-18
4.3341882e-17
4.3938606e-16
2.6571693e-15
1.1771953e-14
4.2504252e-14
1.3298675e-13
3.7458476e-13
9.7410372e-13
2.3798487e-12
5.5312107e-12
1.234341e-11
2.6633578e-11
5.5864354e-11
1.1438268e-10
2.2935808e-10
4.5152693e-10
8.7435632e-10
1.6676732e-09
3.135529e-09
5.8133026e-09
1.0625241e-08
1.9127963e-08
3.3859357e-08
5.8775205e-08
9.9645092e-08
1.6402749e-07
2.6000089e-07
3.9232165e-07
5.5496837e-07
7.2184358e-07
8.4387656e-07
8.8079899e-07
8.5017208e-07
7.8277593e-07
7.294862e-07
7.3469202e-07
8.1487833e-07
1.0929744e-06
1.679215e-06
3.0765945e-06
6.4243068e-06
1.3171787e-05
2.6505167e-05
4.7931182e-05
7.3951728e-05
0.00010009236
9.7177369e-05
9.5730606e-05
9.6450288e-05
9.6722848e-05
9.7635503e-05
9.9601125e-05
0.00010269674
0.00010744984
0.00011431878
0.00012516105
0.00014063711
0.00016409022
0.00019676387
0.00025008733
0.00032810928
0.00049163395
0.00076974983
3.7787022e-21
7.349032e-19
1.9573995e-17
1.9843106e-16
1.1999641e-15
5.3158732e-15
1.9192144e-14
6.0040991e-14
1.6908896e-13
4.3960817e-13
1.0736562e-12
2.494243e-12
5.5627256e-12
1.1992961e-11
2.5128119e-11
5.1376372e-11
1.0282554e-10
2.0193135e-10
3.8977923e-10
7.4034696e-10
1.3845022e-09
2.5490288e-09
4.6171284e-09
8.2156259e-09
1.4325817e-08
2.4390332e-08
4.0333511e-08
6.4318104e-08
9.7963556e-08
1.4081356e-07
1.8846716e-07
2.3342635e-07
2.7276339e-07
3.0690397e-07
3.4197896e-07
3.7119254e-07
4.4936223e-07
6.1008298e-07
9.4064501e-07
1.5633363e-06
2.8649249e-06
5.6888301e-06
1.1505518e-05
2.3561299e-05
4.2907522e-05
6.6639557e-05
9.4307957e-05
9.4598692e-05
9.3000615e-05
9.38928e-05
9.4206744e-05
9.5355125e-05
9.7335103e-05
0.00010040125
0.00010423253
0.00011015877
0.00011849675
0.00013068142
0.0001473045
0.00017240643
0.00020670028
0.00026188176
0.00033911862
0.00049945924
0.00075622738
1.5809498e-21
3.0747145e-19
8.1893643e-18
8.3017739e-17
5.0200993e-16
2.2237768e-15
8.02785e-15
2.5111081e-14
7.0705357e-14
1.8377804e-13
4.4869076e-13
1.0419042e-12
2.3223302e-12
5.0030427e-12
1.0472327e-11
2.1384596e-11
4.2730793e-11
8.374444e-11
1.6123039e-10
3.0524463e-10
5.685063e-10
1.041401e-09
1.8746322e-09
3.3107315e-09
5.7222053e-09
9.6458704e-09
1.5788709e-08
2.4966852e-08
3.7956063e-08
5.5206796e-08
7.6740615e-08
1.0305189e-07
1.3784992e-07
1.843586e-07
2.4978797e-07
3.4945419e-07
5.4054272e-07
8.7162906e-07
1.4512035e-06
2.5987523e-06
5.0176125e-06
1.0185859e-05
2.1199411e-05
3.856184e-05
6.0254563e-05
8.5585311e-05
9.1189021e-05
8.916149e-05
9.0173881e-05
9.0753999e-05
9.2018722e-05
9.40843e-05
9.6948305e-05
0.00010076544
0.00010574709
0.00011281609
0.00012205469
0.00013552474
0.00015375453
0.00018063721
0.00021621566
0.00027289584
0.00034919421
0.00050652656
0.00074228296
7.9905305e-22
1.5540406e-19
4.1391166e-18
4.1959092e-17
2.5372366e-16
1.1239045e-15
4.0571847e-15
1.2690499e-14
3.5732002e-14
9.2875056e-14
2.2676088e-13
5.2660875e-13
1.1739759e-12
2.5298585e-12
5.2979315e-12
1.0826062e-11
2.1655317e-11
4.2505058e-11
8.2012779e-11
1.5575286e-10
2.9136693e-10
5.3706807e-10
9.7531034e-10
1.7439278e-09
3.0672054e-09
5.2984809e-09
8.9759893e-09
1.4892342e-08
2.4176986e-08
3.8375179e-08
5.950458e-08
9.0521317e-08
1.363606e-07
2.0619012e-07
3.1534232e-07
5.0124708e-07
8.0264704e-07
1.3278178e-06
2.3519334e-06
4.5016817e-06
9.1636415e-06
1.9017358e-05
3.450046e-05
5.4223278e-05
7.7345543e-05
8.6932189e-05
8.4532435e-05
8.5790335e-05
8.6525451e-05
8.7895014e-05
8.9826769e-05
9.267544e-05
9.6326077e-05
0.00010110333
0.00010684678
0.00011488427
0.00012545417
0.00014033594
0.0001596865
0.00018794481
0.00022486378
0.00028263962
0.00035816285
0.00051314028
0.00073112286
7.2107809e-22
1.402395e-19
3.735264e-18
3.7866101e-17
2.289824e-16
1.0143711e-15
3.6621394e-15
1.1456627e-14
3.2265649e-14
8.3895564e-14
2.0494429e-13