/*--------------------------------*- C++ -*----------------------------------*\
  =========                 |
  \\      /  F ield         | OpenFOAM: The Open Source CFD Toolbox
   \\    /   O peration     | Website:  https://openfoam.org
    \\  /    A nd           | Version:  13
     \\/     M anipulation  |
\*---------------------------------------------------------------------------*/
FoamFile
{
    format      ascii;
    class       volScalarField;
    location    "44.197497";
    object      pMean;
}
// * * * * * * * * * * * * * * * * * * * * * * * * * * * * * * * * * * * * * //

dimensions      [0 2 -2 0 0 0 0];

internalField   nonuniform List<scalar> 
17140
(
0.886579
0.88650778
0.88642182
0.8863339
0.88623864
0.88613466
0.88602176
0.88589962
0.88576794
0.88562639
0.88547481
0.88531296
0.88514062
0.88495746
0.88476279
0.88455547
0.88433345
0.88409336
0.88382984
0.88353491
0.88319687
0.88279922
0.88231935
0.88172671
0.88098047
0.88003023
0.87882538
0.87732099
0.87547346
0.87323198
0.87052698
0.8672739
0.86338003
0.85874339
0.8532572
0.84681539
0.83931865
0.83068124
0.82083924
0.80976345
0.79747773
0.78408221
0.7697855
0.75493563
0.74003247
0.72576159
0.71293646
0.70227919
0.69452283
0.69030273
0.69008723
0.6941851
0.70285784
0.71606959
0.73375044
0.75523007
0.78035402
0.80750824
0.83784788
0.86775696
0.90207052
0.93170496
0.96754087
0.98618628
1.0143018
0.88549227
0.88542242
0.88533811
0.88525201
0.88515872
0.88505678
0.88494606
0.8848263
0.88469714
0.88455832
0.88440965
0.88425093
0.88408193
0.88390235
0.88371155
0.8835084
0.88329095
0.88305588
0.88279795
0.88250925
0.88217821
0.88178849
0.88131758
0.88073521
0.88000075
0.87906377
0.87787332
0.8763844
0.87455314
0.87232803
0.869639
0.86640126
0.862522
0.85789892
0.85242482
0.84599301
0.83850354
0.82986984
0.82002727
0.80894568
0.79664804
0.78323371
0.76891076
0.75402704
0.7390879
0.72477733
0.71189664
0.70120468
0.6934238
0.68916743
0.68891192
0.69296826
0.70158583
0.71473824
0.73236827
0.75380684
0.77893852
0.80623778
0.83692925
0.86726394
0.90185368
0.93148452
0.96706695
0.98516226
1.0132822
0.88297217
0.88290579
0.88282575
0.88274383
0.88265499
0.88255784
0.88245232
0.88233814
0.88221496
0.88208251
0.88194063
0.88178915
0.88162792
0.88145666
0.88127481
0.8810814
0.88087453
0.88065108
0.88040605
0.88013176
0.87981693
0.87944551
0.87899541
0.87843674
0.87772952
0.87682322
0.87566597
0.87421185
0.87241639
0.87022776
0.86757548
0.86437405
0.86053019
0.85594073
0.85049732
0.84409173
0.83662229
0.82800047
0.81815954
0.80706726
0.79474452
0.78128958
0.76691091
0.75195832
0.7369469
0.72256983
0.70961102
0.69884499
0.69100726
0.68670167
0.68638663
0.69036089
0.69887462
0.71190764
0.7294109
0.75072398
0.77577684
0.80312934
0.83411675
0.86497366
0.90008097
0.93004915
0.96569195
0.98359845
1.0119381
0.87906436
0.87900343
0.87893017
0.87885471
0.87877282
0.87868331
0.87858601
0.87848058
0.87836673
0.87824428
0.87811309
0.877973
0.87782394
0.87766569
0.87749785
0.87731952
0.87712906
0.87692364
0.87669852
0.87644642
0.87615649
0.87581321
0.87539498
0.87487263
0.87420711
0.87334807
0.8722422
0.87084157
0.86910094
0.86696841
0.8643734
0.86122926
0.85744179
0.85290659
0.8475134
0.84115176
0.83371724
0.82511829
0.81528493
0.8041816
0.79182623
0.77831597
0.76386026
0.74881349
0.73370487
0.7192371
0.7061796
0.69532889
0.68742261
0.68305594
0.68266994
0.68654328
0.6949166
0.70777326
0.72507535
0.74616284
0.77101796
0.79834425
0.82962303
0.86115406
0.89698217
0.92763894
0.96367182
0.98165675
1.0103687
0.8738906
0.87383699
0.87377279
0.87370611
0.87363361
0.87355427
0.87346791
0.87337422
0.87327299
0.87316405
0.87304723
0.87292245
0.87278968
0.87264883
0.87249962
0.87234136
0.87217266
0.87199094
0.87179195
0.87156886
0.87131144
0.87100472
0.87062794
0.87015275
0.86954138
0.86874447
0.86770677
0.86637672
0.86470822
0.86265
0.86013131
0.85706447
0.85335375
0.84889325
0.84357037
0.83727165
0.82988923
0.82132762
0.81151261
0.80040436
0.78801726
0.77444748
0.75990654
0.74475675
0.72954552
0.71497741
0.7018193
0.69088992
0.6829246
0.67850886
0.67805566
0.68182109
0.69003401
0.70268038
0.71972902
0.74052898
0.76514843
0.79247897
0.82414434
0.85653143
0.89329733
0.92482526
0.9613731
0.97960107
1.0086668
0.8676508
0.86760614
0.86755301
0.8674971
0.86743617
0.86736938
0.86729651
0.86721736
0.86713166
0.86703927
0.86694011
0.86683415
0.86672143
0.86660191
0.86647546
0.86634155
0.86619907
0.86604584
0.865878
0.86568932
0.86547021
0.86520658
0.86487848
0.86445868
0.8639108
0.8631874
0.86223141
0.86098691
0.85940578
0.85743697
0.85501069
0.85203899
0.84842368
0.84405723
0.83882447
0.83260863
0.82529771
0.81679165
0.80701115
0.79591143
0.78350323
0.76988192
0.75526207
0.7400168
0.72471333
0.71005082
0.6968118
0.68582551
0.67782256
0.67337846
0.67287745
0.67654591
0.68460214
0.69702699
0.71379202
0.73426701
0.75862708
0.78602009
0.8182696
0.85169909
0.88955141
0.92210979
0.95910108
0.97751571
1.0068872
0.86061592
0.86058147
0.86054061
0.86049712
0.86044957
0.86039728
0.86034008
0.86027771
0.86021002
0.86013686
0.86005819
0.85997403
0.85988442
0.85978944
0.85968905
0.8595829
0.8594701
0.8593488
0.85921564
0.85906497
0.85888795
0.85867132
0.85839621
0.85803661
0.85755771
0.85691425
0.85604931
0.85490258
0.85342059
0.85155196
0.84923028
0.84636805
0.84286391
0.83860873
0.83348478
0.82737183
0.82015358
0.81172484
0.80200072
0.79093127
0.77852347
0.76487232
0.75019674
0.73488226
0.71951141
0.70478202
0.69149429
0.68047503
0.67245706
0.66800449
0.66747433
0.6710642
0.67898394
0.69120909
0.70771658
0.72789801
0.75207533
0.7796954
0.81268542
0.84733523
0.88638556
0.91991374
0.95713315
0.97555868
1.0050478
0.8531139
0.85309053
0.85306269
0.85303287
0.85300004
0.85296372
0.85292372
0.8528799
0.8528321
0.85278019
0.85272416
0.85266403
0.85259991
0.85253187
0.85245994
0.85238391
0.85230303
0.85221578
0.85211919
0.85200818
0.85187458
0.8517061
0.85148498
0.85118652
0.85077762
0.85021519
0.84944488
0.84840307
0.84702804
0.84526653
0.84305677
0.8403128
0.8369318
0.83280208
0.82780371
0.82181314
0.81470977
0.80638315
0.79674283
0.78573365
0.77335927
0.75971458
0.7450238
0.72968519
0.71428616
0.69953151
0.68622982
0.67519641
0.66717518
0.66272514
0.66217994
0.66571026
0.67351782
0.68558413
0.70188814
0.72189304
0.7460587
0.77410957
0.80801708
0.84398456
0.8841369
0.91846178
0.95560923
0.97403818
1.0035096
0.84550883
0.84549704
0.84548279
0.84546726
0.84544989
0.84543035
0.84540856
0.84538432
0.84535752
0.84532811
0.84529606
0.8452614
0.8452242
0.84518456
0.8451425
0.84509784
0.84504997
0.84499751
0.84493779
0.84486616
0.84477517
0.84465334
0.84448404
0.84424395
0.84390167
0.84341632
0.8427363
0.84179942
0.84053749
0.83888713
0.83678937
0.83416717
0.83091659
0.82692224
0.82206334
0.81621335
0.8092477
0.80105107
0.79152781
0.78061822
0.76832305
0.75473727
0.74008995
0.72478994
0.70941904
0.69469232
0.68141436
0.67038608
0.66237035
0.65792605
0.65736574
0.66084841
0.66858351
0.68054923
0.69673791
0.71670344
0.74104929
0.76979131
0.80479681
0.84221076
0.88330906
0.91816233
0.95497342
0.97321138
1.0022387
0.83817611
0.83817585
0.83817518
0.83817398
0.8381721
0.83816948
0.83816599
0.83816154
0.83815604
0.83814947
0.83814178
0.83813302
0.83812323
0.83811243
0.83810059
0.8380875
0.83807252
0.83805434
0.83803044
0.8379965
0.83794552
0.83786678
0.83774458
0.83755699
0.8372743
0.83685779
0.83625857
0.83541715
0.83426533
0.83273125
0.83074622
0.82823965
0.82511964
0.82126933
0.81656212
0.81086985
0.80406538
0.79602976
0.78666345
0.77590308
0.76374694
0.75029014
0.73576481
0.72058398
0.70532098
0.69069458
0.67749231
0.66650729
0.65851514
0.65407594
0.65351006
0.65698205
0.66469849
0.67662808
0.69280288
0.71290509
0.7377363
0.76754579
0.80384667
0.84243041
0.88391361
0.91875474
0.9546871
0.97258291
1.0010712
0.83146944
0.83148007
0.83149227
0.83150467
0.83151759
0.83153115
0.83154526
0.83155988
0.83157499
0.83159059
0.83160665
0.83162316
0.83164014
0.83165753
0.83167522
0.83169285
0.83170972
0.83172439
0.83173441
0.83173553
0.83172107
0.83168085
0.8316
0.83145768
0.83122574
0.83086751
0.8303367
0.82957674
0.82852142
0.82709795
0.82523108
0.82284289
0.81984623
0.81613636
0.81158946
0.80607281
0.79945642
0.79161909
0.78245849
0.77190888
0.75996723
0.74672854
0.73242688
0.71746707
0.70241809
0.6879907
0.67494733
0.66407231
0.65614002
0.65172787
0.65117651
0.65463295
0.66232862
0.67426419
0.69053477
0.7109887
0.73665111
0.76765197
0.80497529
0.84407051
0.88523998
0.91946106
0.95451117
0.97245091
0.99988569
0.82569147
0.82571179
0.82573543
0.82576
0.82578622
0.82581437
0.82584443
0.82587643
0.82591042
0.8259464
0.8259844
0.82602441
0.82606637
0.82611017
0.82615557
0.82620211
0.82624885
0.82629429
0.82633575
0.82636902
0.8263875
0.82638138
0.82633629
0.82623237
0.82604272
0.82573246
0.82525767
0.82456481
0.82359038
0.82226277
0.82050554
0.81823769
0.81537175
0.81180636
0.8074248
0.80209861
0.79569825
0.78810108
0.77920354
0.76893873
0.75730271
0.74438957
0.73043137
0.7158188
0.70111141
0.68699908
0.6742204
0.66354313
0.65573708
0.65136692
0.65076196
0.65415695
0.66180438
0.6737737
0.69024641
0.71128666
0.73788827
0.76995979
0.80787077
0.84685842
0.88740228
0.92097831
0.95484185
0.97261403
0.9985743
0.82106078
0.82108898
0.82112196
0.82115656
0.82119377
0.82123407
0.82127751
0.82132421
0.82137426
0.82142776
0.82148474
0.82154525
0.82160923
0.82167649
0.82174676
0.82181939
0.82189338
0.82196696
0.8220374
0.82210035
0.82214922
0.82217434
0.82216181
0.82209232
0.82194004
0.8216715
0.82124467
0.82060871
0.81970369
0.81846031
0.81680212
0.81464885
0.81191509
0.80850408
0.8043052
0.79919338
0.79304249
0.78573209
0.77716198
0.76726513
0.75603716
0.74356849
0.73008236
0.71595712
0.7017306
0.68805442
0.67564507
0.6652631
0.65760339
0.65323059
0.65253897
0.65585247
0.66346311
0.6755323
0.69235662
0.71409193
0.7416612
0.77453374
0.81264814
0.85116684
0.89061358
0.92290065
0.95545929
0.97272603
0.99703692
0.8176926
0.81772643
0.81776611
0.81780797
0.81785323
0.81790252
0.81795596
0.81801376
0.81807611
0.81814317
0.81821508
0.81829193
0.81837368
0.81846024
0.81855124
0.81864605
0.81874357
0.81884203
0.81893859
0.81902886
0.81910637
0.8191616
0.81918103
0.81914597
0.81903138
0.81880474
0.81842551
0.81784478
0.81700561
0.81584331
0.81428843
0.81224321
0.80964693
0.80640211
0.80240328
0.79753155
0.79167393
0.7847107
0.77654242
0.76710511
0.75639419
0.74449391
0.73161385
0.71811168
0.70449041
0.69135929
0.67942137
0.66935421
0.66182761
0.65743777
0.65666894
0.6598902
0.66751057
0.67975682
0.69699396
0.71943856
0.74784298
0.78129355
0.81903827
0.85661393
0.8944288
0.92549625
0.95624562
0.97285734
0.99569036
0.81558171
0.81561856
0.81566202
0.81570797
0.81575789
0.8158125
0.815872
0.81593667
0.8160068
0.81608269
0.81616455
0.81625257
0.81634684
0.81644732
0.81655378
0.81666568
0.81678201
0.8169011
0.81702025
0.81713534
0.81724014
0.81732563
0.81737892
0.81738215
0.81731128
0.81713503
0.81681419
0.81630133
0.81554121
0.81446994
0.81302072
0.81114029
0.80870386
0.80560954
0.80183871
0.79725259
0.7917303
0.78516799
0.7774766
0.76859282
0.75850807
0.74729709
0.73514957
0.72238733
0.70946944
0.69698284
0.68553404
0.67577138
0.66838221
0.66398034
0.66312498
0.66630288
0.67397561
0.68642317
0.70406791
0.72729169
0.75639313
0.78991481
0.82682695
0.86293532
0.89902612
0.92824026
0.95708543
0.97290402
0.9943227
0.81462087
0.8146582
0.81470252
0.81474932
0.81480039
0.81485646
0.81491782
0.81498485
0.81505792
0.81513742
0.81522369
0.81531703
0.81541774
0.81552588
0.81564144
0.81576412
0.81589316
0.81602722
0.81616405
0.81630006
0.81642976
0.81654504
0.81663419
0.81668088
0.81666258
0.81654962
0.81630438
0.8158804
0.81522337
0.81427221
0.81296142
0.81122326
0.80895982
0.80615037
0.80263708
0.79833103
0.79320435
0.78712687
0.78000298
0.77177036
0.76241809
0.75200704
0.74069595
0.72876453
0.71664017
0.70481075
0.69384699
0.68439306
0.67712415
0.67272444
0.67182324
0.67499581
0.68273152
0.69538843
0.71364096
0.73761927
0.76693417
0.79984225
0.83559664
0.86996555
0.90375019
0.93103686
0.95802413
0.97305221
0.99325807
0.81460254
0.8146381
0.81468064
0.81472534
0.81477428
0.81482825
0.81488758
0.81495266
0.81502397
0.815102
0.81518716
0.81527996
0.81538074
0.81548991
0.81560761
0.8157339
0.81586838
0.81601027
0.81615793
0.81630868
0.81645818
0.81659974
0.81672348
0.81681525
0.81685532
0.81681692
0.81666472
0.81635482
0.81583465
0.81504362
0.81391616
0.81238061
0.81038164
0.80783114
0.80462954
0.8007837
0.79611894
0.79056817
0.7840844
0.77659323
0.76807004
0.75855033
0.74815648
0.73713611
0.72581724
0.71464536
0.70417134
0.69500013
0.68785729
0.68347587
0.68257316
0.68573442
0.69355733
0.70667741
0.7255748
0.74984914
0.77885943
0.81097388
0.84494949
0.87711851
0.90859745
0.93388165
0.9591333
0.97336682
0.99249204
0.8152849
0.8153168
0.81535526
0.81539548
0.81543964
0.81548852
0.8155425
0.81560199
0.8156675
0.81573958
0.81581872
0.81590553
0.81600056
0.81610433
0.8162173
0.81633983
0.81647202
0.81661367
0.81676397
0.81692128
0.81708279
0.81724372
0.8173967
0.81753076
0.81763005
0.81767223
0.8176273
0.81745596
0.81710905
0.81652826
0.81564851
0.81439838
0.81271221
0.81051809
0.80776353
0.80434394
0.80021868
0.79535343
0.78960393
0.78293777
0.7753248
0.76676892
0.7573634
0.74726918
0.73676146
0.72625452
0.71623204
0.70733757
0.70032422
0.69598753
0.69505077
0.69824896
0.70641809
0.72010776
0.73927764
0.76346909
0.79205398
0.82262738
0.85441662
0.88435553
0.91335635
0.93687848
0.9605055
0.97398649
0.99215093
0.81640129
0.8164283
0.81646105
0.81649518
0.81653277
0.81657456
0.81662088
0.81667218
0.81672896
0.81679175
0.81686113
0.81693777
0.81702226
0.81711533
0.8172176
0.81732975
0.8174523
0.81758556
0.81772958
0.81788382
0.81804689
0.81821618
0.81838712
0.81855239
0.81870084
0.81881626
0.81887547
0.81884681
0.81868915
0.8183507
0.81777037
0.81687886
0.81560688
0.81387871
0.81163659
0.80881742
0.80537848
0.80121762
0.79630867
0.79058091
0.78395925
0.77643796
0.76804439
0.75888663
0.74919842
0.73930737
0.72972016
0.72106863
0.71416823
0.70981603
0.70893241
0.71238633
0.72104528
0.73502959
0.75426335
0.77834389
0.80572431
0.83428169
0.86396837
0.89130336
0.91823963
0.94006443
0.96221183
0.97493185
0.99222617
0.81772531
0.81774688
0.81777315
0.81780045
0.81783065
0.81786435
0.81790185
0.81794356
0.81798997
0.81804158
0.81809894
0.81816272
0.81823358
0.81831228
0.81839956
0.8184963
0.81860327
0.81872125
0.81885092
0.81899263
0.81914634
0.81931127
0.81948549
0.8196653
0.81984447
0.82001314
0.82015654
0.82025321
0.82027346
0.82017773
0.81991617
0.8194284
0.81864805
0.81750224
0.81592393
0.81383971
0.81118454
0.80791469
0.80396387
0.79924246
0.79368972
0.78723987
0.77987739
0.7716617
0.76273424
0.75341838
0.74419103
0.73574322
0.72888098
0.72462293
0.72396332
0.72785969
0.73691667
0.75106792
0.77048849
0.79369463
0.81924687
0.84597135
0.87300186
0.89828621
0.9232255
0.94349804
0.96427723
0.97625318
0.99276616
0.81907455
0.81909069
0.81911021
0.81913078
0.8191536
0.81917914
0.81920769
0.81923959
0.81927524
0.81931511
0.81935969
0.81940959
0.81946546
0.81952798
0.81959801
0.81967642
0.81976415
0.81986221
0.81997164
0.82009344
0.82022851
0.82037743
0.82054027
0.82071634
0.82090389
0.82109906
0.8212949
0.82148053
0.82163944
0.82174816
0.82177432
0.82167491
0.82139659
0.82087579
0.82004279
0.81882202
0.81713913
0.81491015
0.81204722
0.80847269
0.80407235
0.79874524
0.79242933
0.78509944
0.77687684
0.76803123
0.75908109
0.75076575
0.74405935
0.74005087
0.73985804
0.7443059
0.75364577
0.76823207
0.78719774
0.80887512
0.83280301
0.85709532
0.88201034
0.90525174
0.92838484
0.94720935
0.96672673
0.97796317
0.99376707
0.82033971
0.82035087
0.82036422
0.82037857
0.82039454
0.82041248
0.82043261
0.82045522
0.82048066
0.82050936
0.82054177
0.82057831
0.82061942
0.82066573
0.82071788
0.82077669
0.8208432
0.82091858
0.82100404
0.8211009
0.82121055
0.82133455
0.82147446
0.82163177
0.82180769
0.82200292
0.82221717
0.8224486
0.82269332
0.8229441
0.82318815
0.82340543
0.82356665
0.82362901
0.82353517
0.82321103
0.82256766
0.82149941
0.81988459
0.81758344
0.81444018
0.81029909
0.80501906
0.79852635
0.79091549
0.7824449
0.773742
0.76564364
0.75919076
0.75572703
0.75627418
0.76118939
0.77130291
0.78587614
0.8037023
0.82373739
0.84580051
0.86793837
0.89082293
0.91226655
0.93374586
0.95121477
0.9695669
0.98007954
0.99524395
0.82146856
0.82147521
0.82148317
0.82149181
0.82150152
0.82151246
0.82152484
0.82153908
0.82155548
0.82157366
0.82159328
0.8216149
0.82163978
0.8216692
0.82170439
0.82174577
0.82179326
0.82184732
0.82190879
0.82197886
0.82205964
0.82215355
0.82226315
0.82239159
0.82254218
0.82271857
0.82292521
0.82316752
0.82345079
0.82378018
0.82416078
0.82459562
0.82508095
0.82560391
0.82613384
0.82661573
0.82696296
0.82704794
0.82670634
0.82573782
0.82390233
0.82097178
0.81670211
0.81102493
0.80396185
0.79586991
0.78746031
0.77965337
0.77390335
0.77150546
0.77276792
0.77877312
0.78931205
0.80311008
0.81946581
0.83824852
0.85804207
0.87845567
0.89957804
0.91935854
0.93932243
0.95552718
0.97280452
0.98260347
0.9971865
0.82245857
0.82246088
0.82246371
0.82246676
0.82247014
0.82247412
0.82247903
0.82248496
0.82249202
0.82250028
0.82250992
0.8225213
0.82253468
0.82255036
0.82256849
0.82258916
0.82261335
0.82264336
0.82268037
0.82272406
0.82277564
0.82283866
0.82291762
0.82301654
0.8231383
0.82328724
0.82347158
0.8237015
0.82398871
0.82434706
0.82479262
0.82534864
0.82603637
0.82686327
0.82782984
0.82891284
0.83004277
0.83109604
0.83187876
0.8321311
0.83152724
0.82972743
0.82645241
0.82154692
0.81504838
0.80743164
0.79958914
0.79276025
0.78852403
0.7871052
0.78973361
0.7966241
0.8067534
0.81939194
0.83478845
0.85162011
0.86998836
0.88878818
0.90827824
0.92654542
0.94512115
0.96014793
0.97643692
0.98554051
0.99959778
0.82329377
0.82329151
0.82328889
0.82328618
0.82328331
0.82328029
0.82327723
0.8232744
0.82327228
0.82327106
0.82326987
0.82326769
0.82326471
0.82326192
0.82326058
0.82326231
0.82326873
0.82328133
0.82330068
0.82332515
0.82335451
0.82339249
0.82344377
0.82351267
0.82360428
0.82372519
0.82388459
0.82409565
0.8243747
0.8247403
0.8252149
0.82583211
0.82661916
0.82760202
0.82881242
0.83025018
0.8318712
0.83356525
0.83515624
0.83632711
0.83672354
0.83590825
0.83353985
0.829393
0.82365962
0.81701608
0.81058613
0.80561969
0.80265799
0.80285949
0.80670976
0.81345849
0.8230188
0.83504718
0.84904482
0.86466079
0.88157852
0.89891744
0.91696113
0.93384403
0.95115014
0.96508159
0.98045698
0.98888783
1.0024696
0.82392045
0.82391349
0.82390528
0.82389667
0.8238873
0.82387708
0.82386611
0.82385458
0.82384264
0.82383016
0.82381699
0.82380303
0.8237888
0.82377525
0.82376308
0.82375255
0.82374339
0.8237353
0.82373004
0.82373058
0.82373959
0.82375993
0.82379381
0.82384395
0.82391695
0.82402188
0.82416773
0.82436625
0.82463404
0.82499001
0.82546543
0.8260873
0.82688766
0.82791625
0.82921193
0.83079365
0.83264806
0.83467886
0.83671831
0.8384818
0.8395588
0.83947588
0.83787613
0.83470936
0.83033277
0.82544211
0.82106846
0.81773553
0.81660382
0.81836237
0.8223687
0.82927933
0.83834863
0.84973935
0.86273856
0.8771731
0.89286878
0.90891619
0.92564552
0.94126563
0.95741253
0.97032626
0.98486146
0.99264447
1.0057955
0.82414526
0.82413438
0.82412157
0.82410807
0.82409345
0.82407754
0.82406031
0.82404174
0.8240218
0.82400051
0.82397796
0.8239543
0.82392989
0.8239051
0.82388045
0.8238568
0.82383511
0.82381645
0.82380184
0.82379231
0.82378991
0.82379723
0.82381711
0.82385283
0.8239109
0.82400237
0.82413848
0.824329
0.82458809
0.82493413
0.82539555
0.82600963
0.8268078
0.82783221
0.82912678
0.8307073
0.83257953
0.83470572
0.8369029
0.83890861
0.84036088
0.84092858
0.84036841
0.83866015
0.83606317
0.83333819
0.83082878
0.82935756
0.83019431
0.8324711
0.83712936
0.84406553
0.85302288
0.86360697
0.87583243
0.88931311
0.90391884
0.91879947
0.93435092
0.94882184
0.9639109
0.97588065
0.98964104
0.99680142
1.0095674
0.82378722
0.82377441
0.8237594
0.82374354
0.82372637
0.82370772
0.82368755
0.82366582
0.82364255
0.82361779
0.82359161
0.82356414
0.82353569
0.82350653
0.82347719
0.82344831
0.82342073
0.82339559
0.82337438
0.82335887
0.82335136
0.82335553
0.82337656
0.82341816
0.82348223
0.82357389
0.82370393
0.82388506
0.82412312
0.82444402
0.82488933
0.82548144
0.82623326
0.82717835
0.82836668
0.82985811
0.83165337
0.83372168
0.8359497
0.83813891
0.84006607
0.84145795
0.84211887
0.84201382
0.84142705
0.84059407
0.83985324
0.84063371
0.84249167
0.84572766
0.85116832
0.85806867
0.86668966
0.87687909
0.88847307
0.90110673
0.91476002
0.92860492
0.9430973
0.95652251
0.97064603
0.98174245
0.99479032
1.001362
1.0137782
0.82263951
0.82262786
0.82261416
0.82259972
0.8225841
0.82256715
0.82254882
0.82252914
0.82250809
0.82248572
0.82246217
0.82243756
0.8224122
0.82238641
0.82236074
0.82233583
0.82231257
0.82229203
0.8222757
0.82226536
0.82226309
0.82227171
0.8222949
0.82233727
0.82240441
0.82249925
0.82262569
0.8228011
0.82305622
0.82339174
0.82380964
0.82435157
0.82504845
0.82594553
0.82708912
0.82850785
0.83022555
0.83225395
0.83455492
0.83702127
0.83950285
0.84181093
0.84376403
0.84533076
0.84650493
0.84725005
0.84878834
0.85114245
0.85400734
0.85840425
0.86410885
0.87122758
0.87981272
0.8896482
0.90070233
0.91262227
0.925441
0.93835988
0.9519018
0.96437639
0.97762016
0.98790928
1.0003012
1.0063157
1.0184091
0.82078571
0.82077724
0.82076728
0.82075682
0.82074555
0.82073337
0.82072028
0.82070632
0.82069153
0.820676
0.82065986
0.82064334
0.82062672
0.82061043
0.820595
0.82058114
0.82056978
0.82056215
0.82055972
0.82056437
0.82057843
0.82060494
0.82064726
0.82070726
0.82078858
0.8209002
0.82105834
0.82126994
0.8215305
0.82185975
0.82229666
0.82286564
0.8235785
0.82446394
0.82558337
0.82699395
0.82873167
0.83083348
0.83332241
0.83617851
0.83932428
0.84260087
0.84582478
0.84885495
0.85130512
0.85411618
0.85752428
0.86085048
0.86498797
0.87017003
0.87645239
0.88383712
0.89238723
0.90198181
0.91260547
0.92391089
0.93599905
0.94809371
0.96078275
0.97239419
0.98483554
0.99437866
1.0061653
1.0116537
1.0234566
0.81830065
0.81829585
0.81829027
0.81828449
0.81827838
0.81827191
0.81826513
0.81825813
0.81825104
0.81824402
0.81823726
0.81823111
0.81822593
0.81822229
0.81822084
0.81822244
0.81822812
0.81823932
0.81825784
0.81828599
0.81832638
0.81838144
0.81845436
0.81854939
0.81867319
0.81883533
0.81903947
0.81930026
0.81963864
0.82005404
0.82055548
0.82117653
0.82195219
0.8229188
0.82412046
0.82561293
0.82746517
0.82976258
0.83258308
0.83597354
0.83985891
0.84409465
0.84848481
0.85246833
0.85664691
0.86127985
0.86561654
0.87018569
0.87549013
0.88147253
0.88827505
0.89594669
0.90455697
0.91398143
0.92424813
0.93502828
0.94647679
0.95783493
0.96975908
0.98058191
0.99229154
1.001144
1.0123787
1.017357
1.0289334
0.8152727
0.81527098
0.81526912
0.81526734
0.81526569
0.81526424
0.81526311
0.81526248
0.81526256
0.8152636
0.81526599
0.81527018
0.81527671
0.81528636
0.81530003
0.8153189
0.81534444
0.81537843
0.81542316
0.81548133
0.81555595
0.81565039
0.81576963
0.81591968
0.81610822
0.8163479
0.81664383
0.81699578
0.81741967
0.81793544
0.81855824
0.81931034
0.82021922
0.82131844
0.82266323
0.82433569
0.82644027
0.82910491
0.83244774
0.83650348
0.84118311
0.84638491
0.85150917
0.85682342
0.86261328
0.86814117
0.87358222
0.87945321
0.88567018
0.89238787
0.89972898
0.90771467
0.91641348
0.92572199
0.93569939
0.94602718
0.956913
0.96761157
0.97884664
0.9889482
0.99999322
1.0082004
1.0189354
1.0234177
1.0348054
0.81157852
0.81157936
0.8115806
0.81158225
0.81158449
0.81158748
0.81159147
0.81159671
0.81160351
0.81161235
0.81162371
0.81163829
0.81165691
0.81168057
0.81171059
0.81174853
0.81179631
0.8118563
0.81193135
0.8120249
0.81214099
0.81228552
0.81246415
0.81268309
0.8129505
0.81327339
0.81366132
0.81412542
0.8146775
0.81533202
0.81610608
0.81701905
0.81809958
0.81940107
0.82100014
0.8230026
0.82555229
0.82880285
0.83285178
0.83768845
0.84325442
0.84913885
0.85524097
0.8619414
0.86856971
0.87505529
0.88174971
0.88857446
0.89566089
0.90308834
0.91094122
0.91923968
0.92805565
0.93728852
0.94702577
0.95696026
0.96734767
0.97745197
0.9880638
0.99750413
1.0079444
1.0155436
1.0258303
1.0298298
1.0410581
0.80695228
0.80695615
0.80696106
0.80696678
0.80697363
0.80698193
0.806992
0.80700422
0.8070191
0.80703723
0.80705937
0.80708645
0.80711954
0.80716007
0.80720971
0.80727048
0.80734489
0.80743589
0.80754708
0.80768268
0.80784771
0.80804871
0.80829179
0.80858414
0.80893492
0.80935357
0.80985076
0.81043885
0.81113036
0.81193873
0.81288248
0.81399438
0.81532288
0.8169358
0.81893933
0.82147667
0.82470597
0.82875662
0.83365523
0.83939566
0.84571835
0.85235604
0.85973382
0.8672674
0.87475979
0.88235005
0.88998917
0.89772758
0.90561375
0.91369051
0.92202966
0.93063463
0.93957629
0.94875773
0.95829158
0.96787851
0.97781908
0.98738375
0.99742729
1.0062595
1.0161434
1.0231807
1.0330496
1.0365892
1.0476818
0.80103502
0.80104352
0.801054
0.80106576
0.80107946
0.80109551
0.80111438
0.8011366
0.80116285
0.80119395
0.80123088
0.80127485
0.8013273
0.80138996
0.80146497
0.80155485
0.80166259
0.80179184
0.80194684
0.80213258
0.80235483
0.80262032
0.80293674
0.80331245
0.80375783
0.80428361
0.80490012
0.80562042
0.80646206
0.80744876
0.80861239
0.8099996
0.8116817
0.81376383
0.81638366
0.81969485
0.82382953
0.82884629
0.83473648
0.8413845
0.84844607
0.85629114
0.86458201
0.87290959
0.88139632
0.88990124
0.89844744
0.90701914
0.91563626
0.92431574
0.93310639
0.94199842
0.95106399
0.96020601
0.96955946
0.97883179
0.98836516
0.99743428
1.0069544
1.0152228
1.024594
1.0311011
1.0405871
1.0436839
1.0546549
0.79346647
0.79348177
0.79350041
0.79352101
0.79354455
0.79357172
0.79360305
0.79363932
0.79368139
0.79373033
0.79378737
0.79385405
0.79393217
0.79402388
0.79413169
0.79425859
0.79440818
0.79458467
0.79479299
0.79503837
0.79532752
0.79566879
0.79607014
0.79654034
0.79708968
0.79773145
0.79848254
0.79936191
0.80039481
0.80161735
0.80308255
0.8048676
0.80707932
0.8098532
0.81333762
0.81766114
0.82289154
0.82903009
0.83599813
0.84348785
0.85177422
0.86069653
0.86977853
0.87906154
0.88842131
0.89782296
0.90721331
0.91655614
0.92584676
0.93507576
0.94427719
0.95342921
0.96260482
0.97170667
0.98089022
0.98986862
0.99902238
1.0076293
1.0166609
1.0244074
1.0332904
1.0393112
1.0484249
1.0511103
1.0619461
0.78395409
0.7839786
0.78400829
0.78404075
0.78407747
0.78411934
0.78416716
0.78422182
0.78428446
0.78435639
0.78443915
0.78453453
0.78464477
0.78477246
0.78492028
0.78509068
0.7852889
0.78552185
0.78579328
0.78610754
0.78647221
0.78689658
0.78739115
0.7879671
0.7886376
0.78941984
0.79033596
0.79141638
0.79270387
0.79425919
0.79616717
0.7985406
0.80151734
0.80524508
0.80984929
0.81540032
0.82190691
0.82929558
0.83730714
0.8460707
0.85560763
0.86542247
0.87545706
0.88564822
0.89592621
0.9061935
0.91638464
0.92644556
0.93635186
0.94607667
0.95564261
0.96501855
0.97427996
0.98332962
0.99234168
1.0010348
1.0098249
1.0179954
1.0265642
1.0338189
1.0422403
1.0478092
1.0565563
1.0588359
1.0695836
0.77220966
0.77224579
0.77228925
0.77233653
0.7723897
0.77244999
0.77251824
0.77259563
0.77268351
0.77278145
0.77288716
0.77300991
0.77316376
0.77334169
0.77353653
0.77375705
0.77401147
0.7743052
0.77464428
0.77503553
0.77548676
0.77600759
0.77661036
0.77731045
0.77812746
0.77908775
0.78022748
0.7815971
0.78326662
0.78533065
0.78791065
0.79114907
0.79519564
0.80017372
0.80615191
0.81314427
0.8210679
0.82968878
0.83905762
0.8492521
0.8598197
0.87062734
0.8816714
0.89284442
0.90402985
0.91513546
0.92608377
0.93680672
0.94726802
0.95742858
0.96730404
0.97685754
0.98616855
0.99514188
1.0039687
1.0123753
1.0208069
1.0285542
1.0366758
1.0434675
1.0514447
1.0566099
1.0649771
1.0670148
1.0774444
0.75823973
0.75829033
0.75835047
0.75841341
0.75848032
0.75855761
0.75865207
0.75875946
0.75887464
0.75900214
0.75914722
0.75931219
0.75949938
0.75971136
0.75995163
0.76022761
0.76054991
0.76092087
0.76133847
0.76181304
0.76235994
0.7629927
0.76372866
0.76459118
0.76561187
0.76683401
0.7683169
0.77014051
0.77240924
0.77525207
0.77881593
0.78324811
0.7886738
0.79515341
0.80270948
0.81126233
0.82053453
0.83061431
0.84156361
0.85293325
0.86459732
0.87654365
0.88865513
0.90080294
0.91288295
0.92479328
0.93644785
0.94777089
0.9587192
0.96924731
0.97936785
0.98904251
0.99835512
1.0072158
1.0158311
1.0239363
1.0320023
1.039332
1.04701
1.0533555
1.0608885
1.065676
1.0736373
1.0753232
1.0854423
0.74212145
0.74219221
0.74226274
0.74233164
0.74241324
0.74250909
0.74261972
0.74274716
0.74289414
0.74306349
0.74325649
0.74347311
0.74371379
0.74397994
0.74427622
0.74461036
0.74498954
0.74542061
0.74591239
0.7464763
0.74712677
0.74788282
0.74876998
0.74982304
0.75108985
0.75263572
0.75454846
0.75694235
0.75995852
0.76375874
0.76850862
0.77434959
0.78136729
0.78957105
0.79890282
0.80909283
0.82018548
0.83213621
0.84452524
0.85719922
0.87016891
0.88330968
0.89649854
0.90962496
0.92257765
0.93525093
0.94755538
0.95941217
0.97077584
0.98159922
0.99189584
1.0016287
1.0108884
1.019593
1.0279626
1.0357451
1.0434303
1.0503387
1.0575726
1.0634909
1.070584
1.0750898
1.0826569
1.0845542
1.0949701
0.72368813
0.72376771
0.72386294
0.7239656
0.72407899
0.72420531
0.72434605
0.72450292
0.72467782
0.72487302
0.72509107
0.72533498
0.72560832
0.72591525
0.72626094
0.72665167
0.7270952
0.72760145
0.72818304
0.72885679
0.72964503
0.73057789
0.73169623
0.73305542
0.7347296
0.73681622
0.73943917
0.74274857
0.74691411
0.75210886
0.75848342
0.7661335
0.77506911
0.78522813
0.79643085
0.80860361
0.82167654
0.83518552
0.84897665
0.86308582
0.87737151
0.89170989
0.9059871
0.92008254
0.93387986
0.94727107
0.96016536
0.97248437
0.98418354
0.99521914
1.0056058
1.0153153
1.0244442
1.0329237
1.0409853
1.048394
1.0556528
1.0621077
1.068863
1.0743377
1.0809456
1.0851875
1.0921199
1.0947355
1.102438
0.70471285
0.70480635
0.7049206
0.7050387
0.70516883
0.70531378
0.7054748
0.70565371
0.70585265
0.70607417
0.70632127
0.70659746
0.70690713
0.7072556
0.70764966
0.70809799
0.70861186
0.70920619
0.70990079
0.71072235
0.7117068
0.71290248
0.71437395
0.71620615
0.71850823
0.72141572
0.72508896
0.72970491
0.73544035
0.7424464
0.75081952
0.76056608
0.771614
0.78389702
0.79715066
0.81120673