/*--------------------------------*- C++ -*----------------------------------*\
  =========                 |
  \\      /  F ield         | OpenFOAM: The Open Source CFD Toolbox
   \\    /   O peration     | Website:  https://openfoam.org
    \\  /    A nd           | Version:  13
     \\/     M anipulation  |
\*---------------------------------------------------------------------------*/
FoamFile
{
    format      ascii;
    class       volScalarField;
    location    "39.603521";
    object      nut;
}
// * * * * * * * * * * * * * * * * * * * * * * * * * * * * * * * * * * * * * //

dimensions      [0 2 -1 0 0 0 0];

internalField   nonuniform List<scalar> 
17140
(
1.1293364e-18
2.1964097e-16
5.8502113e-15
5.9308754e-14
3.586774e-13
1.5891079e-12
5.7381572e-12
1.7955957e-11
5.0588077e-11
1.315999e-10
3.2168296e-10
7.4822379e-10
1.6715535e-09
3.6122537e-09
7.5927769e-09
1.5591242e-08
3.1386083e-08
6.2115924e-08
1.2114054e-07
2.3325585e-07
4.4414648e-07
8.3742899e-07
1.565224e-06
2.9027086e-06
5.3448985e-06
9.7771581e-06
1.777281e-05
3.2105349e-05
5.7609889e-05
0.00010257395
0.00018081754
0.00031435855
0.00053573731
0.00088758122
0.0014159859
0.0021566158
0.0031187902
0.0042769374
0.005574277
0.0069352836
0.0082808088
0.0095412637
0.010661568
0.011601724
0.01237584
0.013033832
0.013568919
0.014017556
0.014414774
0.014788155
0.015154723
0.015521444
0.015891585
0.016256739
0.016579523
0.016765138
0.016658195
0.015910267
0.014261193
0.011664663
0.0097223361
0.011552833
0.017335839
0.018904257
0.0079271036
1.1117043e-18
2.162116e-16
5.7588727e-15
5.8382842e-14
3.5307792e-13
1.5642968e-12
5.6485437e-12
1.767543e-11
4.9797327e-11
1.295415e-10
3.1664736e-10
7.3649992e-10
1.6453323e-09
3.5555131e-09
7.4733208e-09
1.5345481e-08
3.0890224e-08
6.113187e-08
1.1921497e-07
2.2953297e-07
4.3702194e-07
8.239124e-07
1.5397671e-06
2.8550549e-06
5.2561437e-06
9.6125499e-06
1.7468648e-05
3.1545385e-05
5.6583658e-05
0.00010070609
0.00017745708
0.0003084317
0.00052561715
0.00087112024
0.0013909106
0.0021213193
0.0030731801
0.0042228138
0.0055150192
0.0068751616
0.0082241488
0.009491727
0.01062243
0.011574292
0.012358511
0.013025981
0.013568643
0.014021744
0.01441942
0.014787959
0.015142504
0.015486102
0.015813634
0.016109983
0.016315004
0.016307698
0.015820593
0.014542343
0.012188068
0.0087411386
0.005815604
0.0078878362
0.015174527
0.020277759
0.012673721
1.0865585e-18
2.1132103e-16
5.628608e-15
5.7062143e-14
3.4508947e-13
1.5288943e-12
5.5206573e-12
1.7275042e-11
4.8668598e-11
1.2660305e-10
3.0945846e-10
7.1976219e-10
1.607897e-09
3.4745079e-09
7.3027905e-09
1.4994681e-08
3.0182548e-08
5.972779e-08
1.1646842e-07
2.2422521e-07
4.268706e-07
8.0466904e-07
1.5035632e-06
2.7873781e-06
5.130322e-06
9.379725e-06
1.7039646e-05
3.0758279e-05
5.5146892e-05
9.8102629e-05
0.00017279483
0.00030024394
0.00051168005
0.00084847181
0.001356328
0.0020723141
0.0030090898
0.004145325
0.0054278412
0.0067831387
0.0081322257
0.0094040732
0.010542472
0.011503545
0.012295358
0.012968309
0.013514559
0.01396747
0.014360459
0.014718228
0.015053372
0.015365032
0.015643974
0.015867644
0.015956042
0.015749158
0.014928633
0.013195579
0.010236371
0.0060973119
0.0029249112
0.0044196835
0.011694602
0.020080839
0.018120582
1.053882e-18
2.0496586e-16
5.4593329e-15
5.5345959e-14
3.3470933e-13
1.4828957e-12
5.35451e-12
1.675493e-11
4.7202575e-11
1.227872e-10
3.0012484e-10
6.9803587e-10
1.5593165e-09
3.3694159e-09
7.0816249e-09
1.4539884e-08
2.926546e-08
5.7909096e-08
1.1291283e-07
2.1735846e-07
4.1374779e-07
7.7981565e-07
1.4568559e-06
2.7001804e-06
4.9684587e-06
9.0807563e-06
1.6489952e-05
2.9752233e-05
5.3315574e-05
9.4794054e-05
0.00016688712
0.00028989416
0.00049408627
0.00081986654
0.0013125172
0.0020098575
0.0029266478
0.0040443645
0.0053123185
0.0066584563
0.0080039901
0.0092770409
0.010420483
0.011388489
0.012185843
0.012860853
0.013407109
0.013854896
0.014236818
0.014575928
0.014882156
0.015152182
0.015377176
0.015468831
0.015358712
0.015134784
0.014088553
0.012000841
0.0086707533
0.0045057231
0.0021482509
0.0023008057
0.0067425633
0.019081881
0.021193605
1.0140458e-18
1.9721824e-16
5.2529703e-15
5.3253799e-14
3.2205554e-13
1.4268245e-12
5.1519945e-12
1.6121028e-11
4.5416007e-11
1.181376e-10
2.8875355e-10
6.7157079e-10
1.5001514e-09
3.2414542e-09
6.8123952e-09
1.3986403e-08
2.8149737e-08
5.5697307e-08
1.085906e-07
2.0901543e-07
3.9781339e-07
7.4965932e-07
1.400232e-06
2.5945795e-06
4.7726775e-06
8.7196716e-06
1.582719e-05
2.8541631e-05
5.1116668e-05
9.0830295e-05
0.00015982431
0.00027753972
0.00047309311
0.00078568729
0.0012599772
0.0019344953
0.00282632
0.0039201743
0.0051683543
0.0065006245
0.007838565
0.0091094047
0.010254924
0.011227436
0.012028574
0.012701621
0.013241991
0.013679111
0.014043662
0.014357473
0.014629592
0.014856
0.01469575
0.014095689
0.013651225
0.013352782
0.013331738
0.011055691
0.0076779204
0.0041559547
0.0020011502
0.0013673285
0.0041796373
0.015676862
0.021960321
9.6763771e-19
1.8819249e-16
5.0125653e-15
5.0816526e-14
3.0731472e-13
1.3615077e-12
4.9160991e-12
1.5382692e-11
4.333528e-11
1.1272298e-10
2.7551277e-10
6.4075877e-10
1.4312785e-09
3.0925219e-09
6.4991051e-09
1.3342489e-08
2.6852053e-08
5.3125587e-08
1.0356682e-07
1.9932237e-07
3.7931008e-07
7.146628e-07
1.3345685e-06
2.4722294e-06
4.5460856e-06
8.3022896e-06
1.5062223e-05
2.7146681e-05
4.8587543e-05
8.6279718e-05
0.00015172912
0.00026339359
0.00044905081
0.00074646501
0.0011994275
0.001847071
0.0027089318
0.0037733836
0.0049962256
0.0063094752
0.0076353099
0.0089000723
0.010044207
0.011017957
0.01181916
0.012488756
0.01301701
0.0134382
0.013780279
0.014063989
0.014297488
0.014351086
0.013552422
0.01274426
0.012072816
0.011558623
0.012220665
0.010386844
0.0071077107
0.0042884734
0.0020631196
0.00095899574
0.0029711677
0.010431362
0.021591231
9.154306e-19
1.7803894e-16
4.7421214e-15
4.8074729e-14
2.9073238e-13
1.2880333e-12
4.6507535e-12
1.4552226e-11
4.0995077e-11
1.0663362e-10
2.6062342e-10
6.0611416e-10
1.3538484e-09
2.9251095e-09
6.146999e-09
1.2618934e-08
2.53942e-08
5.0237222e-08
9.7926274e-08
1.8844348e-07
3.5855268e-07
6.7542489e-07
1.2609965e-06
2.335255e-06
4.2926567e-06
7.8360125e-06
1.4208791e-05
2.5592775e-05
4.5774836e-05
8.1227132e-05
0.00014275309
0.0002477188
0.00042239461
0.00070287007
0.0011318027
0.0017487326
0.0025756952
0.0036050572
0.0047966468
0.0060852293
0.0073938833
0.0086481226
0.0097868091
0.010757936
0.011554876
0.012215045
0.01272901
0.0131291
0.013442749
0.01369026
0.013880078
0.013349714
0.012396584
0.011473509
0.010662952
0.010222392
0.011232737
0.0098332197
0.006734615
0.004334947
0.002011424
0.00082627833
0.0021259891
0.00584071
0.018282265
8.5835835e-19
1.6693917e-16
4.446475e-15
4.5077444e-14
2.7260512e-13
1.2077158e-12
4.360705e-12
1.3644489e-11
3.843728e-11
9.9978528e-11
2.4435208e-10
5.6825752e-10
1.2692488e-09
2.7422189e-09
5.7623956e-09
1.1828737e-08
2.3802398e-08
4.7084242e-08
9.1770791e-08
1.7657565e-07
3.3591811e-07
6.3266099e-07
1.1808645e-06
2.1861823e-06
4.0170992e-06
7.3295792e-06
1.3283044e-05
2.3909627e-05
4.2732885e-05
7.5770959e-05
0.00013307176
0.00023082029
0.00039363252
0.00065569672
0.001058239
0.0016409306
0.0024282282
0.0034167419
0.0045708388
0.0058285802
0.0071143281
0.0083528911
0.0094813418
0.01044547
0.011234119
0.011879078
0.012373444
0.012745934
0.013023776
0.013227211
0.013300552
0.012290927
0.011255863
0.010246937
0.0094180111
0.0093734109
0.010948559
0.0091422789
0.0062955008
0.0040413978
0.0015859525
0.00073803699
0.0013326913
0.0043131904
0.011183028
7.9748716e-19
1.551005e-16
4.1311465e-15
4.188064e-14
2.5327152e-13
1.1220551e-12
4.051371e-12
1.2676436e-11
3.5709669e-11
9.2882041e-11
2.2700282e-10
5.2789645e-10
1.1790614e-09
2.5472707e-09
5.3524916e-09
1.0986693e-08
2.2106479e-08
4.3725801e-08
8.5216012e-08
1.6394225e-07
3.118334e-07
5.8718033e-07
1.0956943e-06
2.0278558e-06
3.7247007e-06
6.7927705e-06
1.2302995e-05
2.2130246e-05
3.9521816e-05
7.0019763e-05
0.0001228784
0.00021303442
0.00036332895
0.00060584069
0.00098004989
0.0015254021
0.0022685622
0.0032105072
0.0043206028
0.0055407899
0.0067971758
0.008014069
0.0091265575
0.010078356
0.010853628
0.011477357
0.011944317
0.012280633
0.012512759
0.01266052
0.012305498
0.011191899
0.010079377
0.0090403494
0.008446311
0.0090634173
0.010609904
0.0080464663
0.005683802
0.0031891636
0.0011233942
0.00064493726
0.00070210022
0.0027050934
0.0061074942
7.3397886e-19
1.4274898e-16
3.8021588e-15
3.8545377e-14
2.331008e-13
1.0326873e-12
3.7286594e-12
1.1666557e-11
3.2864343e-11
8.5479712e-11
2.0890707e-10
4.8580203e-10
1.0850093e-09
2.3439907e-09
4.925123e-09
1.0108904e-08
2.0338887e-08
4.0226195e-08
7.8387537e-08
1.5078563e-07
2.8676127e-07
5.3985841e-07
1.0071295e-06
1.8633404e-06
3.4211426e-06
6.2360642e-06
1.1287872e-05
2.0289741e-05
3.6205352e-05
6.4088254e-05
0.00011237698
0.00019471684
0.00033208499
0.00055427035
0.00089869036
0.0014041387
0.0020991312
0.0029889721
0.0040483903
0.0052237938
0.0064435681
0.0076318133
0.0087214067
0.0096541916
0.010409446
0.011003907
0.011433718
0.011722349
0.011894931
0.01197023
0.011207637
0.010002129
0.0088368622
0.0079422693
0.0079327456
0.0092846862
0.0093283346
0.0066045953
0.0047550736
0.001834734
0.00077726204
0.00051739621
0.00045643367
0.001613683
0.0057732071
6.6905215e-19
1.3012162e-16
3.4658243e-15
3.5135646e-14
2.1247992e-13
9.4132689e-13
3.3987617e-12
1.0634228e-11
2.9955888e-11
7.7913543e-11
1.9041193e-10
4.427817e-10
9.8889671e-10
2.1362781e-09
4.4884882e-09
9.2122112e-09
1.8533543e-08
3.6652593e-08
7.1416477e-08
1.3735855e-07
2.6118372e-07
4.9160583e-07
9.1687666e-07
1.695811e-06
3.1122955e-06
5.6702536e-06
1.0257414e-05
1.8424022e-05
3.2848426e-05
5.8092963e-05
0.00010177439
0.00017622892
0.00030051588
0.00050199192
0.00081571008
0.0012793363
0.0019227372
0.0027553107
0.0037573619
0.0048803105
0.0060553907
0.0072068289
0.0082652353
0.0091705058
0.0098969514
0.010451602
0.010831578
0.011056877
0.0111504
0.011130023
0.009963167
0.0086844817
0.0076091177
0.0072011388
0.0080022516
0.0091152834
0.0073334597
0.0049921265
0.0029742258
0.00098816889
0.00057074619
0.00042129232
0.00037486766
0.00080347549
0.0028409896
6.039361e-19
1.1745741e-16
3.1285084e-15
3.1715981e-14
1.9179919e-13
8.4970284e-13
3.0679204e-12
9.5989792e-12
2.7039329e-11
7.0326665e-11
1.7186725e-10
3.9964909e-10
8.9254103e-10
1.9280601e-09
4.0508406e-09
8.3135619e-09
1.6724558e-08
3.307251e-08
6.4434511e-08
1.2391459e-07
2.3558377e-07
4.4333376e-07
8.2663996e-07
1.5284315e-06
2.8039936e-06
5.1060318e-06
9.231108e-06
1.65684e-05
2.9514645e-05
5.2147664e-05
9.1272298e-05
0.00015792348
0.0002692266
0.0004500101
0.00073269571
0.0011533237
0.0017424856
0.002513223
0.003451421
0.0045139439
0.0056354411
0.0067406387
0.0077578649
0.0086249023
0.009310812
0.0098119294
0.010125515
0.010266353
0.010253467
0.0098985787
0.0085393684
0.0073193938
0.0066525657
0.0070290213
0.0078235756
0.0069022928
0.0049518788
0.0034944592
0.001220637
0.0005545204
0.0004018782
0.00035712575
0.00035762747
0.00051068732
0.0011230468
5.3982119e-19
1.0498793e-16
2.7963796e-15
2.8348916e-14
1.7143677e-13
7.5949054e-13
2.7421845e-12
8.5797374e-12
2.4167973e-11
6.2857718e-11
1.5361183e-10
3.5719202e-10
7.9770173e-10
1.7231375e-09
3.620166e-09
7.4293464e-09
1.494491e-08
2.9551172e-08
5.7568757e-08
1.1069832e-07
2.1042669e-07
3.9591856e-07
7.3805553e-07
1.3642323e-06
2.5018092e-06
4.5535776e-06
8.2274323e-06
1.475622e-05
2.626382e-05
4.6358947e-05
8.1059236e-05
0.00014013072
0.00023878708
0.00039928543
0.00065120348
0.0010284707
0.001561685
0.0022668616
0.0031352025
0.0041292562
0.005187579
0.0062357764
0.0071998232
0.0080152751
0.0086449549
0.0090749638
0.0093011067
0.0093299782
0.009175846
0.0083680432
0.0070246067
0.0061625498
0.0062005499
0.0064620865
0.0056338142
0.0041962556
0.0030523474
0.001324609
0.00050618634
0.00036896002
0.00032971792
0.00033061895
0.00037159534
0.00043806481
0.00064184216
4.7781535e-19
9.2928607e-17
2.4751756e-15
2.5092613e-14
1.5174434e-13
6.7224787e-13
2.427178e-12
7.5940967e-12
2.1391376e-11
5.5635563e-11
1.3596051e-10
3.1614238e-10
7.0601288e-10
1.525039e-09
3.2038761e-09
6.5747689e-09
1.3225173e-08
2.6149004e-08
5.0936864e-08
9.7935844e-08
1.8614196e-07
3.5016767e-07
6.5262734e-07
1.2059911e-06
2.2108325e-06
4.0221512e-06
7.2631172e-06
1.301751e-05
2.3149505e-05
4.0821747e-05
7.1302499e-05
0.00012314373
0.00020970693
0.00035069135
0.00057268931
0.00090708464
0.0013837162
0.0020207043
0.0028139963
0.003731777
0.0047168231
0.0056959155
0.0065926771
0.0073401002
0.0078926133
0.0082309386
0.0083422107
0.0082267907
0.0078964235
0.006702267
0.0056651499
0.0054274499
0.0052636195
0.0043641866
0.0031523908
0.0022820205
0.0010820561
0.00043309975
0.00028780407
0.00026392621
0.00027680807
0.00032931966
0.0004054902
0.00046905595
0.00057287857
4.1890323e-19
8.1470977e-17
2.1699979e-15
2.1998793e-14
1.3303467e-13
5.8936026e-13
2.1279022e-12
6.6577012e-12
1.875359e-11
4.8774738e-11
1.1919309e-10
2.7715048e-10
6.1892598e-10
1.3368982e-09
2.8085486e-09
5.7633172e-09
1.159245e-08
2.291953e-08
4.4642945e-08
8.5826972e-08
1.6310855e-07
3.0679218e-07
5.7167652e-07
1.05614e-06
1.9355032e-06
3.5197903e-06
6.3526019e-06
1.1378017e-05
2.0217294e-05
3.5616314e-05
6.2142708e-05
0.00010720833
0.00018241582
0.00030497927
0.00049845024
0.00079131056
0.0012118787
0.0017793653
0.0024935766
0.0033279041
0.0042293554
0.0051260218
0.0059393839
0.0065978592
0.0070484381
0.0072708076
0.0072347501
0.0069433597
0.0063166949
0.005153627
0.0046870774
0.0042382544
0.0033246732
0.0022550694
0.0015213726
0.00071858327
0.00033766555
0.00022241658
0.00020805516
0.00022978008
0.00028058309
0.00035035637
0.00042074824
0.00051086166
0.00056450931
3.6391737e-19
7.077698e-17
1.8851611e-15
1.9111199e-14
1.155723e-13
5.1199946e-13
1.8485868e-12
5.7837801e-12
1.6291865e-11
4.2372077e-11
1.0354608e-10
2.4076596e-10
5.3766758e-10
1.1613621e-09
2.4397398e-09
5.0063795e-09
1.0069615e-08
1.9907903e-08
3.8774773e-08
7.4540039e-08
1.4164539e-07
2.6638968e-07
4.9631155e-07
9.1671552e-07
1.6795283e-06
3.0531841e-06
5.5078546e-06
9.8589841e-06
1.7504627e-05
3.0808294e-05
5.3694749e-05
9.2526162e-05
0.00015726997
0.0002627782
0.00042957967
0.00068300302
0.0010491826
0.00154733
0.0021799099
0.002924638
0.0037323105
0.0045321235
0.0052431371
0.0057887254
0.0061106396
0.0061891811
0.0059762747
0.0054941407
0.0046193891
0.0040040383
0.0033673248
0.0024899725
0.0015936482
0.00093676273
0.00045278233
0.00022549067
0.00016293944
0.00016315563
0.00018921352
0.00024589826
0.00028020691
0.00029832769
0.00033509777
0.00043535831
0.00049534071
3.1350842e-19
6.0973151e-17
1.6240345e-15
1.6463978e-14
9.9563665e-14
4.410797e-13
1.5925314e-12
4.9826516e-12
1.4035248e-11
3.6503068e-11
8.9203769e-11
2.0741686e-10
4.6319242e-10
1.0004901e-09
2.101768e-09
4.3127996e-09
8.6744143e-09
1.71491e-08
3.3400222e-08
6.4204927e-08
1.219979e-07
2.2941851e-07
4.2737884e-07
7.8926416e-07
1.4457035e-06
2.6273333e-06
4.7377238e-06
8.4758997e-06
1.5038334e-05
2.6443746e-05
4.6037236e-05
7.923157e-05
0.00013450202
0.00022450509
0.000366861
0.0005836344
0.00089819978
0.0013286633
0.0018787341
0.0025291014
0.0032333342
0.003921069
0.0045086545
0.0049148732
0.005086602
0.0049903429
0.0045948239
0.0039732248
0.0033134448
0.002604902
0.0018347371
0.001105125
0.00055933354
0.00027597734
0.00014451263
0.00011096954
0.00012412502
0.00015479027
0.00020992784
0.00025076385
0.00023606199
0.00025751228
0.00030030452
0.00037605428
0.00044655269
2.6812064e-19
5.214585e-17
1.3889174e-15
1.4080438e-14
8.514968e-14
3.7722504e-13
1.3619877e-12
4.2613566e-12
1.2003554e-11
3.1219194e-11
7.6291842e-11
1.77395e-10
3.9615114e-10
8.5568491e-10
1.7975736e-09
3.6885947e-09
7.4189102e-09
1.4666875e-08
2.8565331e-08
5.4909598e-08
1.0433193e-07
1.9618749e-07
3.6544653e-07
6.7481843e-07
1.2358822e-06
2.2455224e-06
4.0479544e-06
7.2386751e-06
1.2835292e-05
2.2551127e-05
3.9218145e-05
6.7406843e-05
0.00011425895
0.00019043562
0.00031082236
0.00049420935
0.00076079649
0.0011265806
0.0015949495
0.0021477691
0.0027397737
0.0033000389
0.003742596
0.003985747
0.00399093
0.0037126475
0.0031808111
0.0025762462
0.0019580169
0.0013130417
0.0007400468
0.00035198097
0.00016898625
9.1490043e-05
7.4923577e-05
9.1306047e-05
0.00012575218
0.00018006247
0.00022289054
0.00019323666
0.00019445377
0.0002220991
0.00026148754
0.00034686697
0.00043012883
2.2796653e-19
4.4336395e-17
1.1809103e-15
1.1971738e-14
7.2397791e-14
3.2073398e-13
1.1580325e-12
3.623258e-12
1.0206239e-11
2.6544994e-11
6.4870102e-11
1.5083903e-10
3.3685219e-10
7.2760988e-10
1.528543e-09
3.1365921e-09
6.308746e-09
1.2472279e-08
2.4291366e-08
4.6694317e-08
8.8722546e-08
1.6683443e-07
3.1076382e-07
5.7382191e-07
1.0508407e-06
1.909079e-06
3.4407486e-06
6.1508195e-06
1.0900778e-05
1.9137754e-05
3.3247039e-05
5.7064233e-05
9.6559588e-05
0.00016061483
0.00026160341
0.00041513454
0.00063795997
0.00094307375
0.0013319295
0.0017854578
0.0022575581
0.0026759498
0.0029545335
0.0030286739
0.0028644115
0.0024543233
0.0019314355
0.0014275483
0.00091407029
0.0004635749
0.00021738883
0.00010721164
5.9298953e-05
5.1451865e-05
6.8346666e-05
0.00010239095
0.00015533013
0.00019880682
0.00016275651
0.00015454008
0.00015921557
0.00018742359
0.00022814282
0.00030223929
0.00041180863
1.9301641e-19
3.7539068e-17
9.9986212e-16
1.0136339e-14
6.1298674e-14
2.7156506e-13
9.8051466e-13
3.067879e-12
8.6419434e-12
2.247688e-11
5.4929624e-11
1.2772777e-10
2.8524721e-10
6.1615773e-10
1.2944436e-09
2.6562968e-09
5.3428826e-09
1.056315e-08
2.057385e-08
3.9549825e-08
7.5150519e-08
1.4131911e-07
2.6324567e-07
4.8609273e-07
8.9018694e-07
1.6171663e-06
2.9143593e-06
5.2088079e-06
9.2280199e-06
1.6191228e-05
2.8099993e-05
4.8156595e-05
8.1314219e-05
0.00013489204
0.00021899051
0.00034618782
0.00052962076
0.000778502
0.0010907732
0.0014442761
0.0017904107
0.0020567989
0.0021666283
0.0020877487
0.0018004089
0.0013939764
0.00099781694
0.00061174227
0.00027795321
0.00013297897
6.7610612e-05
3.9799973e-05
3.6815004e-05
5.2928766e-05
8.5130636e-05
0.00013519655
0.00018495311
0.00014921484
0.00013419716
0.00013241548
0.00014678228
0.00017668334
0.00022200921
0.000301592
0.00041132564
1.6299308e-19
3.1699951e-17
8.443365e-16
8.5596811e-15
5.1764256e-14
2.2932789e-13
8.2802375e-13
2.590802e-12
7.298208e-12
1.8982401e-11
4.6390975e-11
1.0787615e-10
2.4092191e-10
5.2043109e-10
1.093384e-09
2.243812e-09
4.5134439e-09
8.9238235e-09
1.7382052e-08
3.3416506e-08
6.3501278e-08
1.19423e-07
2.2247756e-07
4.1084754e-07
7.5244222e-07
1.3669806e-06
2.4634182e-06
4.4022156e-06
7.7964857e-06
1.3671131e-05
2.3702353e-05
4.0555354e-05
6.8311206e-05
0.00011290349
0.00018237821
0.00028644229
0.00043448869
0.00063125809
0.00086978825
0.0011232786
0.0013410199
0.0014570928
0.0014291146
0.0012423844
0.00095439244
0.00066560537
0.00038448107
0.00016798908
8.1097547e-05
4.2912237e-05
2.715663e-05
2.751083e-05
4.2444022e-05
7.2053534e-05
0.00011859267
0.00017570399
0.00014597248
0.00012714401
0.0001212934
0.0001258513
0.00013762019
0.00016290525
0.00020246613
0.00028486183
0.00042036064
1.3736478e-19
2.6715593e-17
7.1157719e-16
7.2138184e-15
4.36255e-14
1.932734e-13
6.9785428e-13
2.1835585e-12
6.1511651e-12
1.5999438e-11
3.9102224e-11
9.0930553e-11
2.0308568e-10
4.3871986e-10
9.2176563e-10
1.8917382e-09
3.8055094e-09
7.5247096e-09
1.4658114e-08
2.8182585e-08
5.3561099e-08
1.0074096e-07
1.8769714e-07
3.4666036e-07
6.3495229e-07
1.1536023e-06
2.0788398e-06
3.7143116e-06
6.5754039e-06
1.1520601e-05
1.9945931e-05
3.4051241e-05
5.7158778e-05
9.3993779e-05
0.00015069398
0.00023418933
0.00034998204
0.00049778661
0.00066499515
0.00082073054
0.00091771948
0.00091610424
0.00080230274
0.00061367023
0.00041884085
0.00022742712
9.9335463e-05
4.9632077e-05
2.760144e-05
1.9078546e-05
2.1172155e-05
3.506578e-05
6.1393877e-05
0.00010409978
0.00015759075
0.00014497693
0.00012636278
0.00011767763
0.00011554102
0.00011842731
0.00013016462
0.00015814936
0.0002040079
0.00029015034
0.00044107445
1.1535435e-19
2.2434854e-17
5.9755868e-16
6.0579404e-15
3.6635594e-14
1.6230803e-13
5.8605705e-13
1.8337888e-12
5.1659871e-12
1.343737e-11
3.2841798e-11
7.6375421e-11
1.7058625e-10
3.6853252e-10
7.7434772e-10
1.5893041e-09
3.1973713e-09
6.3227846e-09
1.2317974e-08
2.3685827e-08
4.5020151e-08
8.4686604e-08
1.5780308e-07
2.9147628e-07
5.3390393e-07
9.6998785e-07
1.7476648e-06
3.1213341e-06
5.5213479e-06
9.660581e-06
1.668789e-05
2.8387648e-05
4.7392607e-05
7.7305321e-05
0.00012249332
0.00018709975
0.00027263051
0.00037373213
0.00047327536
0.0005414064
0.0005485366
0.00048361508
0.00036840766
0.00024351372
0.00012588968
5.6511498e-05
2.9931647e-05
1.8015362e-05
1.3824427e-05
1.6795353e-05
2.9144596e-05
5.2561441e-05
9.080673e-05
0.00014111973
0.00014348179
0.00012859591
0.00011998302
0.00011514155
0.0001139284
0.00011978301
0.00013458836
0.00016262781
0.00020879532
0.00029970703
0.00046351235
9.6000949e-20
1.8670882e-17
4.9730457e-16
5.0415981e-15
3.0489438e-14
1.3508001e-13
4.877507e-13
1.5262169e-12
4.2996316e-12
1.118421e-11
2.7335888e-11
6.3573685e-11
1.4199979e-10
3.0679049e-10
6.4465452e-10
1.3232e-09
2.662204e-09
5.2648769e-09
1.0257736e-08
1.9725691e-08
3.7495413e-08
7.0535004e-08
1.3143406e-07
2.4275602e-07
4.4458825e-07
8.0744936e-07
1.4539369e-06
2.5941053e-06
4.5812129e-06
7.9949736e-06
1.3755735e-05
2.3258591e-05
3.8480015e-05
6.1936179e-05
9.6258595e-05
0.00014285337
0.00019952971
0.00025729164
0.00029906064
0.00030621198
0.00027126495
0.00020588626
0.00013127003
6.7221029e-05
3.1916062e-05
1.7894161e-05
1.1876926e-05
1.0232065e-05
1.3605792e-05
2.4364713e-05
4.5354645e-05
8.0485707e-05
0.00012838927
0.00014154998
0.00013163552
0.00012453968
0.00011950752
0.00011661436
0.00011807288
0.00012513063
0.00013866459
0.00016587036
0.00021279421
0.0003067972
0.00048731644
7.8324639e-20
1.5233085e-17
4.0573813e-16
4.1133215e-15
2.4875755e-14
1.1021022e-13
3.979552e-13
1.2452586e-12
3.5081887e-12
9.1257128e-12
2.230518e-11
5.1875472e-11
1.1587382e-10
2.5035306e-10
5.2607922e-10
1.079845e-09
2.1726324e-09
4.2967185e-09
8.3713446e-09
1.609745e-08
3.0595865e-08
5.7546216e-08
1.0720116e-07
1.9791122e-07
3.6221303e-07
6.571687e-07
1.1815291e-06
2.1033276e-06
3.7022006e-06
6.4296558e-06
1.0984338e-05
1.838146e-05
2.99579e-05
4.7178623e-05
7.0972356e-05
0.00010044484
0.0001310801
0.00015388397
0.00015859204
0.00014085519
0.00010612945
6.5380754e-05
3.4049235e-05
1.7512477e-05
1.0792271e-05
7.9974832e-06
7.7024969e-06
1.1008163e-05
2.0532075e-05
3.9327437e-05
7.2971285e-05
0.00011706424
0.00013941419
0.00013336871
0.00012770741
0.00012449377
0.00012149464
0.00012080423
0.00012311364
0.00013031368
0.00014529426
0.00017512521
0.00022593664
0.00032664991
0.00051911749
6.1609724e-20
1.198226e-17
3.1915144e-16
3.2355201e-15
1.9567213e-14
8.6691526e-14
3.1303413e-13
9.7953549e-13
2.7596044e-12
7.1784984e-12
1.7545857e-11
4.0806685e-11
9.114906e-11
1.9693053e-10
4.1380726e-10
8.4934808e-10
1.7087327e-09
3.3788496e-09
6.5817835e-09
1.2652694e-08
2.4038751e-08
4.5187002e-08
8.4108297e-08
1.5509825e-07
2.8339758e-07
5.1300907e-07
9.1943288e-07
1.6295468e-06
2.8506308e-06
4.9080859e-06
8.2836365e-06
1.3625104e-05
2.1659907e-05
3.2892343e-05
4.6965392e-05
6.1758296e-05
7.2934573e-05
7.5426287e-05
6.7153797e-05
5.0067989e-05
3.0345224e-05
1.6459914e-05
9.4085421e-06
6.4768252e-06
5.5573681e-06
5.8820245e-06
9.000851e-06
1.7275132e-05
3.5385703e-05
6.5950005e-05
0.00010595408
0.00013560728
0.00013195407
0.00012895929
0.00012779924
0.00012588556
0.0001245057
0.00012520701
0.00012901512
0.00013874892
0.00015526396
0.00018556627
0.00023589791
0.00033891144
0.00054113727
4.5705926e-20
8.8891839e-18
2.367662e-16
2.4003059e-15
1.4516135e-14
6.4312867e-14
2.3222626e-13
7.266694e-13
2.0471911e-12
5.3252097e-12
1.301561e-11
3.0269231e-11
6.7607226e-11
1.4605351e-10
3.0685808e-10
6.2971169e-10
1.2665265e-09
2.503509e-09
4.874214e-09
9.3636368e-09
1.7773218e-08
3.3366843e-08
6.2000156e-08
1.1406464e-07
2.0776769e-07
3.7451595e-07
6.6740082e-07
1.1737578e-06
2.0318263e-06
3.4481636e-06
5.7036057e-06
9.119001e-06
1.3927665e-05
1.999513e-05
2.6417658e-05
3.1314517e-05
3.2425029e-05
2.8902404e-05
2.1324014e-05
1.3189308e-05
7.8059264e-06
4.9831086e-06
4.0227755e-06
3.8257529e-06
4.6060357e-06
7.3717631e-06
1.5232285e-05
3.2101095e-05
5.9749662e-05
9.5785236e-05
0.00013044325
0.00012862364
0.00012742027
0.00012827081
0.00012732846
0.00012674422
0.00012705467
0.00012994127
0.00013588199
0.00014680741
0.00016429479
0.00019659663
0.00025038881
0.00035852375
0.00056957464
3.1187943e-20
6.0656302e-18
1.6155965e-16
1.6378651e-15
9.9051173e-15
4.3883546e-14
1.5845562e-13
4.9581725e-13
1.3967733e-12
3.6331161e-12
8.8791516e-12
2.0647068e-11
4.6108495e-11
9.958753e-11
2.0917097e-10
4.2907279e-10
8.6251868e-10
1.7036814e-09
3.3137748e-09
6.3577328e-09
1.2046985e-08
2.2565145e-08
4.1802701e-08
7.6599324e-08
1.3878684e-07
2.4841641e-07
4.3854958e-07
7.6164532e-07
1.296307e-06
2.1499071e-06
3.446105e-06
5.2767675e-06
7.5953628e-06
1.0063003e-05
1.1961864e-05
1.2404142e-05
1.1106235e-05
8.2926541e-06
5.466064e-06
3.6153463e-06
2.7377166e-06
2.5062795e-06
2.7733817e-06
3.5446945e-06
6.2710783e-06
1.4021287e-05
2.8910695e-05
5.403102e-05
8.6534722e-05
0.00012335787
0.00012430549
0.0001240543
0.00012590076
0.00012633526
0.00012672461
0.00012791307
0.00013021132
0.00013480917
0.0001420894
0.00015514076
0.00017484491
0.00020931149
0.00026353838
0.00037423423
0.00059091211
1.9089583e-20
3.7126611e-18
9.8887343e-17
1.0024955e-15
6.0625843e-15
2.6859006e-14
9.6979638e-14
3.0343924e-13
8.5475761e-13
2.2230509e-12
5.4322052e-12
1.2629118e-11
2.8195052e-11
6.0873916e-11
1.2779252e-10
2.6196206e-10
5.2611639e-10
1.0379582e-09
2.0156975e-09
3.859194e-09
7.2925297e-09
1.3610323e-08
2.5094212e-08
4.5696993e-08
8.212104e-08
1.4541392e-07
2.5308423e-07
4.3131977e-07
7.158308e-07
1.1477081e-06
1.7577362e-06
2.5317129e-06
3.3600103e-06
4.0075083e-06
4.1704984e-06
3.7832665e-06
2.9926608e-06
2.2445958e-06
1.7315941e-06
1.5183535e-06
1.6763224e-06
1.98735e-06
2.8950872e-06
5.8572308e-06
1.2857609e-05
2.6018654e-05
4.8765652e-05
7.8259078e-05
0.00011213007
0.00011966248
0.00011931831
0.00012163526
0.00012286073
0.00012452309
0.00012624257
0.00012891937
0.00013264411
0.00013908352
0.00014852319
0.0001637082
0.00018498063
0.00022169964
0.00027797834
0.00039351394
0.00061375887
1.0253323e-20
1.9941275e-18
5.3113617e-17
5.3844563e-16
3.2561694e-15
1.442523e-14
5.2082075e-14
1.6294555e-13
4.5894516e-13
1.1934187e-12
2.9155251e-12
6.7759995e-12
1.5121115e-11
3.2627842e-11
6.8442315e-11
1.4015553e-10
2.811018e-10
5.5358718e-10
1.0725429e-09
2.047178e-09
3.8530028e-09
7.1535491e-09
1.3099904e-08
2.364405e-08
4.1999645e-08
7.3247665e-08
1.249624e-07
2.074337e-07
3.3248845e-07
5.0912149e-07
7.3399493e-07
9.7760336e-07
1.1752851e-06
1.2505002e-06
1.2034102e-06
1.0865013e-06
9.5040358e-07
8.8044539e-07
9.2788387e-07
1.1197602e-06
1.576437e-06
2.6620601e-06
5.5015611e-06
1.1536159e-05
2.3199951e-05
4.3843762e-05
7.0691504e-05
0.00010173593
0.0001143284
0.00011335387
0.00011596616
0.00011784396
0.00012014128
0.0001227541
0.00012570383
0.00012986929
0.0001353148
0.00014352859
0.00015452529
0.00017167725
0.00019503083
0.00023403452
0.00029112833
0.00040962769
0.00063038588
4.7835829e-21
9.3033836e-19
2.4779379e-17
2.5119907e-16
1.519037e-15
6.7291514e-15
2.4293478e-14
7.5996078e-14
2.1401016e-13
5.5636765e-13
1.3587589e-12
3.1564929e-12
7.0397111e-12
1.517794e-11
3.1804674e-11
6.5038974e-11
1.3020789e-10
2.5581641e-10
4.9409909e-10
9.3931159e-10
1.7586889e-09
3.2432225e-09
5.8873889e-09
1.0506427e-08
1.839096e-08
3.1469735e-08
5.2382476e-08
8.423465e-08
1.296414e-07
1.8864702e-07
2.5573447e-07
3.1836598e-07
3.6582189e-07
3.9873418e-07
4.2775173e-07
4.5764092e-07
4.909524e-07
6.1924457e-07
8.8211616e-07
1.4250934e-06
2.5374921e-06
4.997504e-06
1.014879e-05
2.0632512e-05
3.943686e-05
6.3903108e-05
9.2340231e-05
0.00010900831
0.00010709862
0.00010977879
0.00011190061
0.00011451774
0.00011746723
0.00012113583
0.00012526628
0.00013068693
0.00013747181
0.00014734126
0.00016017336
0.00017951373
0.00020475011
0.00024642706
0.00030461651
0.00042676059
0.00064364415
2.0087873e-21
3.9067961e-19
1.0405575e-17
1.0548336e-16
6.378474e-16
2.8254056e-15
1.0199252e-14
3.1901382e-14
8.9819013e-14
2.3344246e-13
5.6990668e-13
1.3232957e-12
2.9493756e-12
6.3536685e-12
1.3299287e-11
2.7157859e-11
5.4270516e-11
1.0637317e-10
2.0483624e-10
3.8790797e-10
7.2273574e-10
1.3245618e-09
2.3857473e-09
4.216134e-09
7.2915555e-09
1.2295597e-08
2.0117976e-08
3.1746405e-08
4.7992857e-08
6.9122633e-08
9.5078525e-08
1.2534544e-07
1.5825441e-07
2.0101591e-07
2.6096335e-07
3.4780838e-07
5.0972478e-07
8.0952644e-07
1.3388841e-06
2.3513412e-06
4.4547506e-06
8.9402339e-06
1.8594238e-05
3.5551745e-05
5.7741827e-05
8.3717573e-05
0.00010365191
0.00010123029
0.00010346089
0.0001054908
0.00010806772
0.00011115854
0.00011503726
0.00011956528
0.00012461769
0.00013135317
0.00013960746
0.0001510881
0.00016555487
0.00018688644
0.00021401253
0.00025783222
0.00031724609
0.00044335743
0.00065459102
9.2742629e-22
1.8037067e-19
4.8040767e-18
4.8699456e-17
2.9447589e-16
1.3043755e-15
4.7084185e-15
1.4726423e-14
4.1460409e-14
1.0775063e-13
2.6303695e-13
6.1072163e-13
1.3611108e-12
2.9320663e-12
6.1373413e-12
1.25337e-11
2.5051124e-11
4.9119111e-11
9.4645039e-11
1.7942085e-10
3.3485149e-10
6.1530794e-10
1.1128351e-09
1.9791707e-09
3.456621e-09
5.917734e-09
9.9110149e-09
1.620921e-08
2.5867996e-08
4.0343413e-08
6.1411864e-08
9.148009e-08
1.3435479e-07
1.9987235e-07
2.9888963e-07
4.7050303e-07
7.5364555e-07
1.2339521e-06
2.1422323e-06
4.0115322e-06
8.0523349e-06
1.6843542e-05
3.2009586e-05
5.2081233e-05
7.5872037e-05
9.8185743e-05
9.5692321e-05
9.7267429e-05
9.8911271e-05
0.00010130992
0.00010422942
0.00010812302
0.00011264653
0.00011792195
0.00012403975
0.00013187211
0.0001413418
0.00015436384
0.00017040189
0.00019365108
0.00022258653
0.00026882862
0.00032912683
0.00045766037
0.00066002906
7.1989222e-22
1.4000876e-19
3.7291067e-18
3.7803426e-17
2.2860082e-16
1.0126625e-15
3.6558685e-15
1.1436525e-14
3.2207025e-14
8.3735636e-14
2.0452788e-13
4.75248e-13
1.0603251e-12
2.2874731e-12