/*--------------------------------*- C++ -*----------------------------------*\
  =========                 |
  \\      /  F ield         | OpenFOAM: The Open Source CFD Toolbox
   \\    /   O peration     | Website:  https://openfoam.org
    \\  /    A nd           | Version:  13
     \\/     M anipulation  |
\*---------------------------------------------------------------------------*/
FoamFile
{
    format      ascii;
    class       volScalarField;
    location    "39.603521";
    object      pMean;
}
// * * * * * * * * * * * * * * * * * * * * * * * * * * * * * * * * * * * * * //

dimensions      [0 2 -2 0 0 0 0];

internalField   nonuniform List<scalar> 
17140
(
1.0255313
1.0254527
1.0253578
1.0252609
1.0251558
1.0250412
1.0249167
1.0247821
1.024637
1.0244811
1.0243141
1.0241359
1.0239462
1.0237446
1.0235305
1.0233024
1.0230582
1.0227941
1.022504
1.0221791
1.0218063
1.0213672
1.0208366
1.0201803
1.0193528
1.018298
1.0169594
1.0152874
1.0132335
1.0107421
1.0077366
1.0041245
0.99980463
0.99466571
0.98859056
0.98146118
0.97316487
0.96360197
0.95269606
0.94040948
0.92676493
0.91187171
0.89596148
0.87942361
0.86281892
0.84691479
0.83262105
0.82074656
0.81211192
0.8074294
0.80722294
0.8118428
0.82157843
0.83640248
0.85620905
0.88026714
0.90823195
0.9382701
0.97120101
1.0034179
1.0388272
1.0674074
1.100685
1.1162587
1.1432672
1.0243356
1.0242586
1.0241656
1.0240707
1.0239678
1.0238554
1.0237334
1.0236015
1.0234592
1.0233063
1.0231426
1.0229679
1.0227819
1.0225843
1.0223745
1.0221511
1.0219119
1.0216534
1.0213696
1.0210517
1.0206867
1.0202565
1.0197358
1.019091
1.0182767
1.0172367
1.0159142
1.0142595
1.0122239
1.0097508
1.0067632
1.0031684
0.99886495
0.99374134
0.98767989
0.98056195
0.97227411
0.96271581
0.9518098
0.9395174
0.92586033
0.91094705
0.89500863
0.87843429
0.86179094
0.84584422
0.83149038
0.8195792
0.81091918
0.80619767
0.80594674
0.81051739
0.82018253
0.83491878
0.85462776
0.87856025
0.90639845
0.93634944
0.96928268
1.0018095
1.0378186
1.0669137
1.100453
1.1157658
1.1426811
1.0215487
1.0214755
1.0213872
1.0212969
1.021199
1.021092
1.0209757
1.02085
1.0207143
1.0205685
1.0204124
1.0202457
1.0200684
1.0198801
1.0196802
1.0194676
1.0192402
1.0189946
1.0187252
1.0184232
1.0180763
1.0176665
1.017169
1.0165506
1.0157666
1.0147608
1.0134754
1.0118595
1.0098638
1.0074314
1.0044848
1.0009304
0.99666636
0.99158009
0.98555265
0.9784637
0.97019797
0.96065277
0.94974858
0.93744445
0.92375979
0.90880187
0.89280224
0.87615235
0.85942999
0.84341107
0.82897249
0.81698148
0.80826115
0.80348795
0.8031733
0.80765315
0.81719835
0.83178864
0.85132912
0.87505921
0.90267932
0.93243472
0.96528184
0.99810327
1.0348094
1.0647375
1.0987501
1.1141415
1.1412683
1.0172214
1.0171543
1.0170736
1.0169905
1.0169003
1.0168018
1.0166946
1.0165786
1.0164533
1.0163186
1.0161743
1.0160203
1.0158565
1.0156826
1.0154983
1.0153025
1.0150933
1.0148677
1.0146204
1.0143432
1.0140239
1.0136454
1.0131834
1.0126054
1.0118679
1.0109147
1.0096866
1.0081302
1.0061956
1.0038257
1.0009428
0.99745201
0.99325051
0.98822423
0.98225213
0.97521139
0.96698377
0.95746332
0.94656701
0.93425025
0.9205292
0.90550996
0.88942521
0.87267154
0.85584251
0.83972471
0.82517896
0.81309712
0.80430468
0.79946837
0.79907987
0.80345141
0.81284257
0.82723471
0.84653596
0.86996426
0.89723333
0.92666337
0.95938699
0.99254136
1.0300399
1.0610383
1.0958222
1.1115502
1.1391111
1.0114899
1.0114309
1.0113603
1.0112869
1.0112071
1.0111199
1.0110249
1.0109219
1.0108107
1.0106909
1.0105626
1.0104256
1.0102798
1.0101253
1.0099616
1.009788
1.0096031
1.0094038
1.0091855
1.0089405
1.0086573
1.0083194
1.0079035
1.007378
1.0067007
1.0058167
1.0046645
1.0031867
1.0013324
0.99904514
0.99624709
0.99284212
0.98872559
0.98378176
0.97788693
0.97091502
0.96274405
0.95326388
0.94238687
0.93006381
0.91630699
0.90122145
0.88504229
0.868175
0.85123339
0.83500624
0.82035173
0.80818659
0.79933389
0.79444971
0.79399417
0.79825391
0.80747736
0.82164419
0.84065786
0.86372427
0.89059882
0.91965267
0.9522731
0.9858942
1.0243418
1.0564736
1.092119
1.1084364
1.1364347
1.0045769
1.0045279
1.0044695
1.0044081
1.0043412
1.0042679
1.0041879
1.004101
1.004007
1.0039056
1.0037969
1.0036807
1.0035572
1.0034263
1.0032879
1.0031414
1.0029855
1.0028178
1.002634
1.0024272
1.0021867
1.0018966
1.0015348
1.0010709
1.0004642
0.99966202
0.9986007
0.99721813
0.99546104
0.99327318
0.99057779
0.98727833
0.98326735
0.97842721
0.9726313
0.96574991
0.95765665
0.94823643
0.93739617
0.92508129
0.91130013
0.89615691
0.87989025
0.86291769
0.84587521
0.82954565
0.81480485
0.80258146
0.79369355
0.78878632
0.78828763
0.79245325
0.80151963
0.81545465
0.83415428
0.85681851
0.88324565
0.91194439
0.94456416
0.9788243
1.0183169
1.0517248
1.0881858
1.1050849
1.1334652
0.99678448
0.99674675
0.99670202
0.9966544
0.99660234
0.9965451
0.99648248
0.99641423
0.99634018
0.99626015
0.99617414
0.99608216
0.99598428
0.9958806
0.99577106
0.99565529
0.9955323
0.99540003
0.99525473
0.99509008
0.99489622
0.99465834
0.99435539
0.99395835
0.9934284
0.99271509
0.99175507
0.99048127
0.98883443
0.98675789
0.98417862
0.9810005
0.97711241
0.97239483
0.96671827
0.95994924
0.9519567
0.9426201
0.9318404
0.91955744
0.90577551
0.89059849
0.87426998
0.85722144
0.84010591
0.82370486
0.80891413
0.79665986
0.78776296
0.78285625
0.7823376
0.78643339
0.79536854
0.80909895
0.82751849
0.84981136
0.87582123
0.90428988
0.9370942
0.9721916
1.0127573
1.0474168
1.0844603
1.1017937
1.130398
0.98847789
0.98845247
0.98842217
0.98838972
0.98835399
0.98831446
0.98827093
0.98822324
0.98817125
0.98811479
0.98805386
0.98798853
0.9879189
0.98784506
0.98776706
0.98768465
0.98759703
0.98750249
0.9873977
0.98727701
0.98713129
0.98694682
0.98670379
0.98637463
0.98592244
0.9852992
0.9844444
0.98328726
0.98175932
0.97980177
0.97734667
0.97429952
0.97054747
0.96596801
0.96042914
0.95379371
0.94592612
0.93670024
0.9260111
0.91379301
0.90004668
0.88487602
0.86853067
0.85145637
0.83431153
0.81788561
0.80308404
0.79082036
0.7819283
0.77703509
0.77651425
0.78056242
0.7893932
0.80296365
0.821158
0.84317852
0.86889838
0.89732904
0.93056976
0.96662984
1.0082036
1.0438656
1.0811714
1.0989662
1.127654
0.98006261
0.98005002
0.98003481
0.98001821
0.97999961
0.97997869
0.97995534
0.97992936
0.97990063
0.97986911
0.97983477
0.97979764
0.97975783
0.97971544
0.97967052
0.97962285
0.97957178
0.97951574
0.97945177
0.97937468
0.97927616
0.97914338
0.97895778
0.97869336
0.97831512
0.97777747
0.97702298
0.97598246
0.97458019
0.97274603
0.97041508
0.96750269
0.96389462
0.9594641
0.95407808
0.94759616
0.9398785
0.93079387
0.92023186
0.90812197
0.89446189
0.87935576
0.86305875
0.84602851
0.82891718
0.8125258
0.79775558
0.78550418
0.77662693
0.77175106
0.77122831
0.77524048
0.78400615
0.79747426
0.81551899
0.83736438
0.86295284
0.89160568
0.925571
0.96284227
1.0053577
1.0416477
1.0789076
1.0968724
1.1252562
0.9719565
0.97195669
0.97195652
0.97195579
0.97195437
0.97195219
0.97194913
0.97194507
0.97193994
0.97193371
0.97192635
0.97191791
0.97190843
0.97189797
0.97188648
0.97187374
0.97185905
0.97184093
0.97181658
0.97178117
0.97172689
0.97164178
0.97150833
0.97130205
0.97098984
0.97052855
0.96986373
0.96892919
0.96764919
0.96594406
0.96373799
0.9609534
0.95748934
0.95321722
0.94799744
0.94168779
0.93414581
0.92523655
0.91484565
0.90289881
0.88939126
0.87442743
0.85826609
0.84136962
0.82438068
0.80810452
0.79342357
0.78122684
0.77238433
0.7675246
0.76700819
0.77102052
0.77977133
0.79319197
0.81116943
0.83296615
0.85868726
0.88797564
0.92305024
0.96144071
1.0043364
1.0406004
1.0771382
1.0950042
1.1230103
0.964553
0.96456525
0.96457933
0.96459367
0.96460863
0.96462437
0.96464078
0.96465784
0.96467553
0.96469384
0.96471277
0.96473229
0.96475243
0.96477315
0.96479431
0.96481554
0.96483604
0.96485422
0.96486732
0.96487064
0.96485669
0.96481411
0.96472634
0.9645701
0.96431403
0.96391725
0.96332822
0.96248401
0.96131102
0.95972853
0.95765332
0.95499949
0.95167128
0.94755341
0.94250928
0.93639163
0.92905498
0.92036226
0.91019637
0.89848078
0.88520948
0.87048698
0.8545744
0.83792504
0.82117661
0.80512556
0.79062636
0.77855817
0.76979009
0.76496903
0.76447614
0.76847375
0.77719392
0.79059433
0.8085669
0.83047727
0.85661258
0.88678942
0.92288615
0.96198028
1.0046221
1.0401434
1.0758481
1.093868
1.1209417
0.95818846
0.95821143
0.95823816
0.95826596
0.95829563
0.95832752
0.95836158
0.95839786
0.95843642
0.95847728
0.95852045
0.95856595
0.95861371
0.95866362
0.9587154
0.95876855
0.95882203
0.95887417
0.95892196
0.95896072
0.95898309
0.9589781
0.95892974
0.95881584
0.95860643
0.95826263
0.95773553
0.95696555
0.95588211
0.95440573
0.95245179
0.94993084
0.94674668
0.94278753
0.93792445
0.93201516
0.92491477
0.91648494
0.90660763
0.8952054
0.88227156
0.86790982
0.85237924
0.83611743
0.81975148
0.80405454
0.78985436
0.77801182
0.76939019
0.76462019
0.76406671
0.76798549
0.77663087
0.78999863
0.80800997
0.83016994
0.85689168
0.88803664
0.92500969
0.96431317
1.0062655
1.0410034
1.0754624
1.0933275
1.1189734
0.95310535
0.95313702
0.95317407
0.95321293
0.95325475
0.95330004
0.95334888
0.9534014
0.9534577
0.95351789
0.95358203
0.95365017
0.95372223
0.95379803
0.95387725
0.95395919
0.95404271
0.95412587
0.9542056
0.95427706
0.95433287
0.95436227
0.95434974
0.95427375
0.95410549
0.95380767
0.95333346
0.9526263
0.95161955
0.95023625
0.94839171
0.94599716
0.94295852
0.9391689
0.93450625
0.92883199
0.92200497
0.91388979
0.9043725
0.89337598
0.88089338
0.86702459
0.85201902
0.83630052
0.82047189
0.8052634
0.79147774
0.77996826
0.7715119
0.76673598
0.76607384
0.76988074
0.77843617
0.79178261
0.8099078
0.8324258
0.85990093
0.89201498
0.92956375
0.96862779
1.0092745
1.0425908
1.075671
1.0930976
1.1171046
0.94943075
0.94946861
0.94951303
0.94955989
0.94961057
0.94966576
0.94972561
0.94979034
0.94986019
0.94993533
0.95001591
0.95010204
0.95019369
0.95029073
0.9503928
0.95049916
0.9506086
0.95071914
0.95082762
0.95092914
0.95101647
0.951079
0.95110163
0.95106353
0.95093677
0.95068511
0.95026337
0.94961712
0.94868303
0.94738926
0.94565881
0.94338336
0.94049607
0.93688924
0.93244639
0.92703566
0.92053082
0.91279745
0.90372288
0.89323382
0.88132357
0.86808543
0.85375378
0.83872935
0.82357594
0.80897611
0.79571737
0.7845599
0.77624812
0.77144038
0.7706708
0.77433445
0.78280266
0.79616032
0.81442966
0.83739448
0.86560887
0.89855599
0.93611753
0.97430848
1.0131739
1.0451135
1.0763426
1.0930173
1.1155924
0.94715741
0.94719857
0.94724711
0.94729844
0.9473542
0.9474152
0.94748167
0.94755392
0.94763229
0.94771709
0.94780859
0.94790697
0.94801234
0.94812468
0.9482437
0.94836884
0.94849895
0.94863216
0.94876547
0.94889429
0.94901165
0.94910749
0.94916742
0.94917153
0.949093
0.94889696
0.94853972
0.94796848
0.94712176
0.94592857
0.94431477
0.94222164
0.93951063
0.936069
0.93187713
0.92678071
0.92064489
0.91335315
0.90480478
0.89492763
0.88371096
0.87123774
0.85772032
0.84351936
0.82914944
0.81526732
0.80255337
0.79173058
0.78356074
0.77871726
0.77781581
0.78135537
0.78974865
0.80311033
0.82152551
0.84501708
0.87403943
0.90729761
0.94433247
0.98098358
1.0180302
1.047945
1.0771752
1.0930542
1.1142045
0.94616435
0.94620598
0.94625539
0.94630757
0.94636452
0.94642705
0.94649548
0.94657024
0.94665175
0.94674042
0.94683665
0.94694078
0.94705314
0.9471738
0.94730274
0.94743963
0.94758364
0.94773324
0.94788594
0.94803774
0.94818249
0.94831115
0.94841065
0.94846276
0.94844235
0.94831635
0.94804281
0.94756999
0.94683741
0.94577718
0.94431655
0.94238046
0.93986036
0.93673385
0.93282578
0.92803751
0.92233794
0.91558135
0.90766004
0.89850334
0.88809825
0.87651259
0.86392429
0.85064687
0.83715911
0.82400641
0.8118286
0.80133863
0.79328138
0.78840691
0.78739511
0.79083135
0.79914161
0.81247095
0.83119006
0.85535742
0.8846863
0.91765217
0.95359689
0.988544
1.0230911
1.0509463
1.0782371
1.0932495
1.1131916
0.94621889
0.94625848
0.94630584
0.94635562
0.94641011
0.94647021
0.94653628
0.94660876
0.94668818
0.94677509
0.94686995
0.94697332
0.94708559
0.94720721
0.94733834
0.94747904
0.94762888
0.94778696
0.94795147
0.9481194
0.94828591
0.94844353
0.94858121
0.94868318
0.94872742
0.94868404
0.94851367
0.94816737
0.94758658
0.94670389
0.94544643
0.94373465
0.9415074
0.93866701
0.9351031
0.9308239
0.92563448
0.91945965
0.91224615
0.90391016
0.8944237
0.88382657
0.8722561
0.85998981
0.84739474
0.83496904
0.82332577
0.81313025
0.80518275
0.80028244
0.79919869
0.80251038
0.81069384
0.82419712
0.84337457
0.8678352
0.896926
0.92932531
0.96357037
0.99624821
1.0283461
1.0540495
1.0795167
1.0936966
1.1125571
0.94705037
0.94708585
0.94712861
0.94717334
0.94722245
0.94727681
0.94733685
0.94740301
0.94747589
0.94755607
0.94764412
0.94774069
0.94784643
0.94796189
0.9480876
0.94822395
0.94837105
0.94852867
0.9486959
0.94887093
0.94905056
0.94922949
0.94939947
0.94954823
0.94965809
0.9497041
0.94965279
0.94946032
0.94907191
0.94842263
0.94744006
0.94604485
0.94416422
0.94171848
0.93864959
0.93484141
0.93024859
0.9248325
0.91843154
0.9110089
0.90253069
0.89300153
0.88252616
0.8712851
0.859586
0.84788978
0.83673069
0.82681784
0.81897847
0.8140727
0.81286671
0.81603443
0.82431285
0.83813328
0.85751654
0.88182971
0.91074484
0.94157454
0.97368811
1.0040698
1.0335162
1.0573491
1.0811205
1.0944957
1.112395
0.94836081
0.9483908
0.94842719
0.94846509
0.94850685
0.94855327
0.94860474
0.94866174
0.94872482
0.9487946
0.94887171
0.94895689
0.94905081
0.94915426
0.94926796
0.94939263
0.94952887
0.94967702
0.94983712
0.95000854
0.95018975
0.95037778
0.95056754
0.95075081
0.95091513
0.95104237
0.95110665
0.95107262
0.95089438
0.95051424
0.94986415
0.94886708
0.94744591
0.94551685
0.94301581
0.93987268
0.93604004
0.93140339
0.92593304
0.91954945
0.91216864
0.90378441
0.89442767
0.88421976
0.87342082
0.86239312
0.85169843
0.84202503
0.834274
0.8292816
0.82798358
0.8311825
0.83968488
0.85368565
0.87303549
0.8973804
0.92506257
0.95390393
0.98391467
1.0115593
1.0388312
1.0608652
1.0830932
1.0956682
1.1126975
0.9498976
0.94992154
0.9499507
0.949981
0.95001452
0.95005193
0.95009357
0.95013987
0.95019141
0.95024872
0.95031242
0.95038327
0.95046198
0.95054941
0.95064637
0.95075385
0.9508727
0.95100377
0.95114781
0.9513052
0.95147588
0.95165893
0.95185217
0.95205142
0.9522497
0.95243593
0.95259355
0.95269858
0.95271783
0.95260718
0.952311
0.95176221
0.95088674
0.94960366
0.94783901
0.94551086
0.94254666
0.93889719
0.9344879
0.92921797
0.92301935
0.91581842
0.90759818
0.89842586
0.88845776
0.87805211
0.86773492
0.85826607
0.85049674
0.84548422
0.8442134
0.84759111
0.85637538
0.87045305
0.88996678
0.91349794
0.93929787
0.96630337
0.99355667
1.0190817
1.0442523
1.0646519
1.0854605
1.0972504
1.1134988
0.95145776
0.95147568
0.95149734
0.95152018
0.95154551
0.95157387
0.95160557
0.95164099
0.95168059
0.95172487
0.95177439
0.95182982
0.95189189
0.95196135
0.95203915
0.95212626
0.95222372
0.95233264
0.95245417
0.95258938
0.95273927
0.95290444
0.9530849
0.95327984
0.9534872
0.95370261
0.95391818
0.95412166
0.95429453
0.95441053
0.95443347
0.95431544
0.95399711
0.95340774
0.95246986
0.95109935
0.94921329
0.94671742
0.94351284
0.93951175
0.93458616
0.92862296
0.92155411
0.91335291
0.90415244
0.89425996
0.88422897
0.87486001
0.86714467
0.86222127
0.86117218
0.86500439
0.87399643
0.88841943
0.90756655
0.9294498
0.95361514
0.97809111
1.0031723
1.0265688
1.049855
1.0687338
1.0882361
1.0992523
1.114795
0.95292062
0.95293304
0.95294791
0.95296388
0.95298166
0.95300163
0.95302404
0.95304922
0.95307754
0.9531095
0.95314557
0.95318625
0.95323201
0.95328356
0.95334159
0.953407
0.95348097
0.95356475
0.95365969
0.95376723
0.95388887
0.95402631
0.95418119
0.95435512
0.95454931
0.95476442
0.95499997
0.95525373
0.95552118
0.9557941
0.95605807
0.95629068
0.95645927
0.95651624
0.95639788
0.95602164
0.95528799
0.9540784
0.95225588
0.94966285
0.94612528
0.94146949
0.93554008
0.92825958
0.91973281
0.91023904
0.90043479
0.89120145
0.88359151
0.87900711
0.87862483
0.88287854
0.8925399
0.90704504
0.92493987
0.94511973
0.96734769
0.98958029
1.0125641
1.0340968
1.0556636
1.0731249
1.0914258
1.1016859
1.1165944
0.95423004
0.95423751
0.95424647
0.95425619
0.95426712
0.95427942
0.95429333
0.95430933
0.95432774
0.95434816
0.95437017
0.95439442
0.95442231
0.95445525
0.95449462
0.95454085
0.95459386
0.95465412
0.95472255
0.95480043
0.95489006
0.95499406
0.95511521
0.95525688
0.95542265
0.95561638
0.95584285
0.95610784
0.95641704
0.95677592
0.95718996
0.95766234
0.9581888
0.958755
0.95932689
0.95984312
0.96020649
0.96027371
0.95985997
0.95874044
0.95664833
0.95332875
0.9485202
0.94213876
0.9342072
0.92508793
0.91551624
0.90643742
0.89936762
0.89578515
0.89610492
0.90139704
0.91155874
0.92522992
0.94156653
0.96043635
0.98026068
1.0007156
1.0218852
1.0416956
1.0616911
1.0778368
1.0950321
1.1045502
1.1188854
0.95538649
0.95538925
0.95539261
0.95539625
0.95540027
0.95540498
0.95541076
0.95541769
0.95542591
0.9554355
0.95544665
0.95545975
0.95547511
0.95549302
0.95551368
0.95553714
0.95556448
0.95559824
0.9556397
0.95568843
0.95574573
0.95581544
0.95590249
0.95601119
0.95614459
0.95630729
0.9565082
0.95675839
0.95707058
0.9574599
0.95794403
0.95854833
0.95929611
0.96019639
0.96124964
0.96242919
0.96365701
0.96479424
0.96562389
0.96585389
0.96512603
0.96306485
0.95935582
0.95381833
0.94647354
0.93778932
0.92869252
0.92048046
0.91491095
0.91235738
0.91402153
0.92021014
0.93001046
0.94241389
0.95773184
0.97451517
0.99286647
1.0116511
1.0311369
1.0493831
1.0679441
1.0828682
1.0990509
1.1078502
1.1216694
0.95637688
0.95637468
0.95637214
0.95636951
0.95636675
0.95636385
0.95636095
0.95635835
0.95635659
0.95635587
0.95635523
0.95635352
0.95635095
0.9563486
0.95634788
0.95635057
0.95635845
0.95637313
0.9563952
0.95642278
0.95645551
0.95649744
0.95655363
0.95662873
0.95672819
0.95685907
0.95703134
0.95725932
0.95756082
0.95795626
0.95846994
0.95913827
0.95999287
0.96106259
0.96238153
0.96394945
0.96571651
0.96755975
0.96927972
0.97053053
0.97091206
0.96994108
0.96722771
0.96249397
0.95590855
0.94816337
0.94044051
0.93410391
0.92991251
0.92897486
0.93189846
0.93803735
0.94717188
0.95892549
0.97274416
0.98825159
1.0050892
1.0223625
1.0403598
1.0571778
1.0744308
1.0882232
1.103473
1.1115812
1.1249352
0.9571476
0.9571403
0.95713168
0.95712264
0.95711281
0.95710209
0.95709059
0.95707853
0.95706606
0.95705306
0.95703934
0.95702479
0.95700998
0.95699596
0.95698349
0.95697283
0.95696364
0.95695553
0.9569504
0.95695147
0.95696161
0.95698386
0.95702051
0.95707437
0.95715254
0.95726481
0.95742085
0.95763335
0.95792046
0.95830245
0.95881324
0.95948424
0.96035036
0.96146548
0.96287337
0.96459513
0.96661404
0.96882557
0.97104287
0.9729468
0.97408032
0.97390989
0.97200837
0.96827732
0.96306822
0.95709449
0.95145218
0.94690171
0.94457398
0.94524085
0.94841734
0.95471042
0.96331587
0.97439644
0.98715327
1.0014179
1.0169882
1.0329284
1.0495737
1.0650916
1.0811541
1.0938988
1.1082947
1.1157395
1.1286764
0.95749093
0.95747937
0.95746577
0.95745143
0.9574359
0.95741901
0.95740071
0.95738099
0.95735982
0.95733722
0.95731326
0.95728814
0.95726222
0.9572359
0.95720974
0.95718465
0.95716167
0.95714191
0.95712642
0.95711626
0.95711355
0.95712103
0.95714163
0.95717877
0.95723938
0.95733542
0.95747898
0.95768062
0.9579557
0.95832495
0.95881867
0.95947636
0.96033376
0.96143939
0.96284019
0.9645539
0.96658854
0.96889919
0.97128574
0.97345245
0.97498507
0.97549311
0.97466568
0.9724289
0.96904184
0.96526688
0.96166571
0.95904397
0.95874376
0.96005053
0.96393729
0.97026555
0.97875785
0.98896848
1.0009133
1.0141837
1.0286253
1.0433628
1.0587992
1.0731369
1.0881168
1.0998933
1.1135053
1.1203155
1.1328839
0.95721431
0.95720069
0.95718472
0.95716785
0.95714958
0.95712974
0.95710828
0.95708516
0.95706039
0.95703403
0.95700615
0.9569769
0.95694657
0.95691547
0.95688412
0.95685322
0.95682362
0.95679652
0.95677348
0.95675631
0.95674744
0.95675076
0.95677179
0.95681436
0.95688022
0.95697458
0.95710969
0.95730005
0.95755133
0.95788795
0.95835624
0.95898492
0.95978707
0.96079837
0.9620755
0.96368384
0.96562525
0.96786503
0.97027524
0.97262385
0.9746404
0.97598413
0.9763913
0.97578452
0.97444135
0.97273331
0.97098861
0.97068006
0.97155606
0.97393299
0.97867089
0.98495974
0.99309074
1.0028934
1.0141817
1.0265722
1.040032
1.0537052
1.0680574
1.0813244
1.0953196
1.1062041
1.1190989
1.1253122
1.1375502
0.95609738
0.95608505
0.95607058
0.95605531
0.95603879
0.95602086
0.95600146
0.95598062
0.95595833
0.95593461
0.95590962
0.95588348
0.9558565
0.95582901
0.95580156
0.95577482
0.9557497
0.95572728
0.95570909
0.95569695
0.955693
0.95570012
0.95572211
0.95576372
0.9558312
0.95592799
0.95605828
0.95623811
0.9564993
0.95684658
0.95728264
0.95785028
0.95858519
0.95953664
0.96075598
0.96227622
0.96412285
0.96630556
0.96877325
0.97138488
0.97393913
0.97618453
0.97788315
0.97896531
0.97949937
0.97946973
0.98006304
0.98151666
0.9835327
0.98716406
0.9921892
0.99872591
1.0068313
1.0162687
1.0270001
1.0386554
1.0512589
1.0639838
1.0773662
1.0896631
1.1027649
1.1128285
1.1250666
1.1307186
1.1426547
0.95424375
0.95423493
0.95422457
0.95421367
0.95420192
0.95418922
0.95417556
0.95416097
0.95414548
0.95412921
0.95411226
0.95409485
0.95407729
0.95405998
0.95404346
0.95402844
0.95401586
0.95400694
0.95400319
0.95400649
0.95401918
0.95404436
0.95408569
0.95414506
0.95422645
0.95433838
0.95449576
0.95470848
0.95497307
0.95530883
0.95575861
0.95634913
0.95709332
0.95802375
0.95920825
0.96070922
0.96256382
0.96480364
0.96743495
0.9704023
0.97358357
0.9767688
0.97972061
0.98233807
0.98424134
0.98631394
0.98894151
0.99151355
0.99489811
0.99938964
1.005051
1.011886
1.0199666
1.0291644
1.0394587
1.0504859
1.0623442
1.0742289
1.0867446
1.0981643
1.1104549
1.1197637
1.1313994
1.1365247
1.1481937
0.95174805
0.95174322
0.95173761
0.95173179
0.95172563
0.95171909
0.95171223
0.95170514
0.95169794
0.95169078
0.95168387
0.95167752
0.95167211
0.95166821
0.95166644
0.95166767
0.95167292
0.9516836
0.95170153
0.95172904
0.95176891
0.95182341
0.95189585
0.95199029
0.95211249
0.95227339
0.95247756
0.95274041
0.95308418
0.95350762
0.95402035
0.95465982
0.95546486
0.95647552
0.95773979
0.95931626
0.96127223
0.96368382
0.96660831
0.97006158
0.97393842
0.9780391
0.98218385
0.98582057
0.98945344
0.99348281
0.99718923
1.0010789
1.0057371
1.0111018
1.0173332
1.0244908
1.0326528
1.0416887
1.0516261
1.0621218
1.0733323
1.0844701
1.0962125
1.1068341
1.1183887
1.1270024
1.1380932
1.1427098
1.1541821
0.94872484
0.94872327
0.94872159
0.94872
0.94871854
0.9487173
0.94871639
0.94871599
0.9487163
0.94871758
0.94872021
0.94872463
0.94873139
0.94874124
0.94875509
0.94877411
0.94879977
0.94883383
0.9488786
0.9489368
0.94901144
0.94910579
0.94922468
0.94937425
0.94956308
0.9498047
0.95010384
0.95045956
0.95088908
0.95141439
0.95205219
0.95282692
0.95376882
0.95491401
0.95631993
0.95806856
0.96025798
0.9630036
0.96640382
0.97047486
0.97510113
0.98015243
0.98507971
0.99000531
0.99533848
1.0003798
1.0052557
1.0105642
1.0162128
1.022378
1.0292012
1.0367114
1.0449863
1.0539201
1.0635746
1.0736178
1.0842631
1.0947362
1.1057861
1.1156812
1.1265719
1.134539
1.1451416
1.1492656
1.1605821
0.94505894
0.94505995
0.94506141
0.94506328
0.94506575
0.94506899
0.94507325
0.94507877
0.94508586
0.94509501
0.94510667
0.94512157
0.9451405
0.94516448
0.94519479
0.94523302
0.94528107
0.94534132
0.94541664
0.94551047
0.94562673
0.94577162
0.94595111
0.94617139
0.94644088
0.9467667
0.94715892
0.94762953
0.94819134
0.94886004
0.94965439
0.95059545
0.95171343
0.95306342
0.95472112
0.95678694
0.95939541
0.96268808
0.96674851
0.9715572
0.97702518
0.98279352
0.98862782
0.99498551
1.0012557
1.0073119
1.0135462
1.019881
1.0264692
1.0334063
1.0407908
1.0486523
1.0570721
1.0659485
1.0753739
1.0850288
1.0951783
1.1050567
1.1154842
1.1247172
1.1350081
1.1423688
1.1525391
1.1561857
1.1673782
0.94048609
0.94049008
0.94049512
0.94050097
0.94050797
0.94051641
0.94052663
0.94053901
0.94055406
0.94057235
0.94059465
0.94062188
0.94065511
0.94069577
0.94074553
0.9408064
0.9408809
0.94097199
0.94108331
0.94121908
0.94138444
0.94158607
0.94183018
0.94212413
0.9424775
0.94290024
0.94340373
0.94400121
0.94470625
0.94553338
0.94650237
0.94764761
0.94901816
0.95067972
0.95273373
0.95531551
0.95857339
0.96262814
0.96749705
0.9731653
0.9793998
0.98586216
0.99296864
1.0002504
1.0074325
1.0146651
1.0219045
1.0292183
1.0366681
1.0443093
1.0522273
1.0604335
1.0690082
1.0778542
1.0870911
1.0964079
1.1061173
1.1154598
1.1253241
1.133952
1.1436952
1.1504997
1.1602707
1.163466
1.1745603
0.93464141
0.93464993
0.93466043
0.93467221
0.93468591
0.93470197
0.93472083
0.93474303
0.93476924
0.93480028
0.93483714
0.934881
0.93493331
0.93499579
0.93507059
0.93516022
0.93526769
0.93539666
0.93555141
0.93573698
0.93595924
0.93622509
0.93654246
0.93692006
0.93736878
0.93789997
0.93852462
0.93925671
0.94011509
0.94112489
0.94231889
0.94374353
0.9454681
0.94759328
0.95024968
0.95358243
0.95771688
0.96270567
0.96853249
0.97510263
0.98204406
0.9896822
0.99778351
1.0058913
1.0141007
1.022289
1.030488
1.0386891
1.0469226
1.0552158
1.0636289
1.072159
1.0808876
1.0897174
1.0987917
1.1078066
1.1171194
1.1259739
1.1353234
1.1433939
1.152637
1.1589194
1.1683297
1.1710932
1.1821047
0.9271654
0.92718062
0.92719918
0.92721968
0.92724309
0.92727012
0.92730128
0.92733734
0.92737917
0.92742782
0.92748454
0.92755083
0.9276285
0.92771969
0.92782692
0.92795319
0.92810208
0.92827788
0.92848554
0.92873036
0.92901921
0.92936076
0.92976319
0.93023559
0.93078879
0.93143687
0.9321979
0.93309187
0.93414503
0.93539415
0.93689202
0.93871404
0.94096295
0.94376808
0.94727039
0.9515923
0.95679792
0.96288114
0.96978057
0.97717913
0.9853038
0.9940793
1.002995
1.0120625
1.0211737
1.0302981
1.0393843
1.0484023
1.0573554
1.0662421
1.0751063
1.0839317
1.0928003
1.1016143
1.1105387
1.1192753
1.128222
1.1366252
1.1454981
1.1530569
1.1618265
1.1676349
1.1766962
1.1790633
1.1899784
0.91776754
0.91779188
0.91782138
0.9178536
0.91789005
0.91793163
0.9179791
0.91803337
0.91809556
0.91816698
0.91824916
0.91834389
0.91845341
0.91858028
0.91872718
0.9188966
0.91909378
0.91932563
0.91959607
0.91990954
0.92027368
0.92069812
0.92119387
0.92177258
0.92244805
0.92323829
0.92416637
0.92526359
0.92657325
0.92815591
0.93009475
0.93249912
0.9355016
0.93924385
0.94384534
0.94937398
0.95583331
0.9631583
0.97109993
0.97972911
0.98914739
0.99883446
1.0086957
1.0186906
1.0287477
1.038769
1.0486922
1.0584673
1.0680762
1.0774981
1.0867638
1.0958466
1.1048306
1.1136175
1.122392
1.1308612
1.1394605
1.1474412
1.155866
1.1629463
1.1712719
1.1766439
1.1853635
1.1873416
1.1982107
0.90616223
0.90619806
0.90624118
0.90628808
0.90634084
0.90640067
0.90646841
0.90654518
0.90663236
0.90672994
0.90683582
0.90695791
0.90710972
0.90728587
0.90747952
0.90769873
0.90795176
0.90824415
0.90858211
0.90897257
0.90942354
0.90994487
0.91054937
0.91125298
0.91207599
0.91304547
0.91419825
0.91558514
0.91727585
0.91936361
0.92196703
0.92522435
0.92928016
0.93425356
0.94020883
0.94716038
0.95502465
0.96358896
0.97284671
0.9829348
0.9933988
1.0040649
1.0149512
1.0259472
1.0369343
1.0478215
1.0585331
1.0690043
1.0792036
1.0890966
1.0987059
1.1079979
1.1170603
1.1257964
1.1344082
1.1426107
1.1508697
1.1584437
1.1664386
1.1730723
1.1809739
1.1859615
1.1943256
1.1960892
1.2066643
0.89235209
0.89240235
0.89246196
0.89252395
0.89258956
0.89266616
0.89276096
0.89286845
0.89298283
0.8931093
0.89325348
0.89341768
0.89360424
0.89381581
0.89405554
0.89432945
0.89464826
0.89501675
0.89543334
0.8959073
0.89645413
0.89708777
0.89782599
0.89869259
0.89971972
0.90095105
0.90244605
0.90428435
0.90656917
0.90942723
0.91300219
0.91743736
0.92285395
0.92931034
0.93682571
0.94532771
0.95454649
0.96453426
0.97538412
0.98666424
0.99821119
1.0100279
1.0219952
1.0339817
1.0458835
1.0575992
1.0690444
1.0801455
1.0908632
1.1011557
1.1110415
1.1204846
1.1295765
1.1382253
1.146649
1.1545711
1.1624845
1.1696595
1.17723
1.1834367
1.1909156
1.1955484
1.2035331
1.2049675
1.2152747
0.8764147
0.87648452
0.87655424
0.87662251
0.87670338
0.87679832
0.87690784
0.87703391
0.87717928
0.87734712
0.8775393
0.87775568
0.87799599
0.87826119
0.878556
0.87888853
0.8792662
0.87969597
0.88018673
0.88075008
0.88140067
0.88215781
0.88304734
0.88410435
0.8853769
0.88693029
0.88885187
0.8912548
0.89427825
0.89808126
0.90282639
0.9086514
0.9156411
0.92380641
0.93308602
0.94321347
0.95422973
0.96608664
0.97839782
0.99097215
1.0038331
1.016854
1.0299099
1.0428899
1.0556827
1.0681828
1.0803022
1.0919639
1.1031255
1.1137425
1.1238336
1.1333632
1.1424292
1.1509473
1.159149
1.1667707
1.1743245
1.1810989
1.1882463
1.194048
1.2011099
1.2054912
1.213104
1.2148082
1.2254255
0.85817748
0.85825651
0.85835117
0.85845321
0.85856589
0.85869141
0.85883127
0.85898719
0.85916105
0.85935514
0.85957199
0.85981462
0.86008659
0.86039211
0.86073634
0.86112562
0.86156776
0.86207276
0.86265335
0.86332647
0.86411458
0.86504796
0.86616755
0.86752875
0.86920548
0.87129465
0.87391914
0.87722745
0.88138708
0.88656874
0.89292043
0.90053587
0.9094306
0.91953389
0.93066683
0.94276983
0.95575985
0.96920063
0.9829036
0.9969185
1.0111023
1.0253289
1.0394844
1.0534477
1.0671023
1.0803406
1.0930728
1.105222
1.1167462
1.1276037
1.1378131
1.1473475
1.1563098
1.1646289
1.1725476
1.1798196
1.1869705
1.1933147
1.200007
1.2053902
1.2119923
1.2161442
1.2231457
1.2256424
1.2335126
0.83939405
0.83948703
0.83960065
0.83971811
0.83984754
0.83999172
0.8401519
0.8403299
0.84052786
0.84074832
0.84099429
0.84126929
0.84157771
0.84192487
0.84231759
0.84276458
0.84327711
0.84387013
0.8445635
0.8453839
0.84636724
0.8475618
0.84903195
0.85086227
0.85316133
0.85606373
0.85972857
0.86433124
0.87004689
0.87702523
0.88536107
0.89506587
0.90606391
0.91826222
0.93146023
0.94544619
0.95989494
0.97470125
0.98988264
1.005266
1.0207141
1.0360987
1.051288
1.0661525
1.0805715
1.0944362
1.1076586
1.1201653
1.1319184
1.1428824
1.1530817
1.1625003
1.1712476
1.1792725
1.1868204
1.1936788
1.2003613
1.2062415
1.21243
1.2173873
1.2235033
1.2273792
1.2339235
1.2363734
1.2437234
0.82234372
0.82244657
0.82257204
0.82270144
0.82284364
0.82300161
0.82317672
0.82337086
0.82358645
0.82382637
0.82409417
0.82439421
0.82473201
0.82511471
0.82555167
0.82605517
0.82664169
0.82733323
0.82815945
0.82916015