/*--------------------------------*- C++ -*----------------------------------*\
  =========                 |
  \\      /  F ield         | OpenFOAM: The Open Source CFD Toolbox
   \\    /   O peration     | Website:  https://openfoam.org
    \\  /    A nd           | Version:  13
     \\/     M anipulation  |
\*---------------------------------------------------------------------------*/
FoamFile
{
    format      ascii;
    class       volScalarField;
    location    "2.797625";
    object      nut;
}
// * * * * * * * * * * * * * * * * * * * * * * * * * * * * * * * * * * * * * //

dimensions      [0 2 -1 0 0 0 0];

internalField   nonuniform List<scalar> 
17140
(
3.6042247e-18
7.0097669e-16
1.8671137e-14
1.8930028e-13
1.1450014e-12
5.0742042e-12
1.8329293e-11
5.7383347e-11
1.6176205e-10
4.211e-10
1.03018e-09
2.3984557e-09
5.3641693e-09
1.1606948e-08
2.443344e-08
5.0258571e-08
1.0137584e-07
2.0110511e-07
3.933111e-07
7.5993311e-07
1.4531069e-06
2.7533379e-06
5.1713775e-06
9.6101241e-06
1.7551298e-05
3.0997961e-05
5.0903837e-05
5.7782255e-05
6.3191181e-05
6.7231834e-05
7.0313181e-05
7.2915952e-05
7.5377548e-05
7.786673e-05
8.0484301e-05
8.3358531e-05
8.6685505e-05
9.0797522e-05
9.6208885e-05
0.0001037538
0.00011521213
0.00013617679
0.00018329413
0.00021893984
0.0002252896
0.00023495149
0.00024758259
0.00026367543
0.000280235
0.00029171196
0.00029905011
0.00030104951
0.00028572321
0.00025669819
0.00022132903
0.00018887676
0.00016469396
0.00015144182
0.00015005616
0.00016203151
0.00018952941
0.00023802922
0.00031761856
0.00043890711
0.00060739449
3.5524987e-18
6.909161e-16
1.8403185e-14
1.8658417e-13
1.1285782e-12
5.0014509e-12
1.8066596e-11
5.656124e-11
1.5944526e-10
4.1506976e-10
1.0154257e-09
2.3640867e-09
5.2872172e-09
1.1440124e-08
2.4081238e-08
4.9531063e-08
9.9899953e-08
1.9815517e-07
3.874865e-07
7.4854785e-07
1.4310422e-06
2.7109272e-06
5.0907049e-06
9.4594447e-06
1.7280323e-05
3.0548121e-05
5.0723074e-05
5.8019598e-05
6.349925e-05
6.7566442e-05
7.0628835e-05
7.3187705e-05
7.5572101e-05
7.7935469e-05
8.0363715e-05
8.3006065e-05
8.5987202e-05
8.9581623e-05
9.422932e-05
0.00010066945
0.00011049125
0.00012888857
0.00017112181
0.00019705226
0.0001960537
0.00019656571
0.00019831878
0.00020201645
0.00020822474
0.00021343097
0.00021546918
0.00022149905
0.00021975446
0.00020912364
0.00019091715
0.00017087439
0.00015468801
0.00014603949
0.00014704843
0.00016021645
0.00018886194
0.00023896152
0.00032056593
0.00044334601
0.00061183835
3.4313534e-18
6.6735476e-16
1.7775605e-14
1.8022126e-13
1.0900901e-12
4.8308742e-12
1.7450345e-11
5.4631496e-11
1.5400328e-10
4.0089458e-10
9.8071546e-10
2.2831641e-09
5.105877e-09
1.1046658e-08
2.3249837e-08
4.781227e-08
9.6410138e-08
1.91174e-07
3.7369021e-07
7.2155435e-07
1.3786683e-06
2.6101051e-06
4.8984894e-06
9.0990711e-06
1.6627764e-05
2.9450176e-05
4.912314e-05
5.8540819e-05
6.4176168e-05
6.8303411e-05
7.133424e-05
7.3753217e-05
7.5887087e-05
7.7958133e-05
7.998593e-05
8.1984484e-05
8.4059549e-05
8.6366816e-05
8.9174689e-05
9.2942126e-05
9.8866565e-05
0.00011126194
0.00014204906
0.00014817653
0.0001374346
0.0001273193
0.00011854873
0.00011109672
0.00010602164
0.00010403982
0.00010772846
0.00011898925
0.00013507617
0.00014706034
0.00015123335
0.00014627241
0.00013880887
0.00013538534
0.00013957433
0.00015537428
0.00018677832
0.00024030316
0.00032592448
0.0004517216
0.00062042308
3.2425593e-18
6.3063661e-16
1.6797581e-14
1.7030523e-13
1.0301099e-12
4.5650453e-12
1.6489971e-11
5.1624171e-11
1.4552258e-10
3.7880482e-10
9.2662788e-10
2.1570764e-09
4.8233624e-09
1.0433785e-08
2.1955168e-08
4.5136709e-08
9.0980278e-08
1.8031836e-07
3.5225285e-07
6.7964656e-07
1.2974343e-06
2.4538704e-06
4.6008105e-06
8.5407522e-06
1.5613939e-05
2.7731069e-05
4.6576082e-05
5.9392098e-05
6.5270274e-05
6.9419275e-05
7.2298712e-05
7.4434013e-05
7.6261551e-05
7.7773875e-05
7.8982341e-05
7.9883355e-05
8.0474408e-05
8.0802315e-05
8.0994839e-05
8.1322977e-05
8.2677503e-05
8.8288271e-05
0.00010596277
9.7042368e-05
8.2075475e-05
6.7753319e-05
5.647565e-05
4.7315616e-05
4.1633039e-05
3.9955518e-05
4.2633821e-05
5.331762e-05
7.5783292e-05
9.8186294e-05
0.00011589015
0.00012521779
0.00012302397
0.00012288633
0.00013019499
0.00014911458
0.00018406552
0.00024194725
0.00033254646
0.00046220343
0.00063152049
2.9933271e-18
5.8216411e-16
1.5506471e-14
1.5721491e-13
9.5092917e-13
4.2141233e-12
1.5222195e-11
4.7654339e-11
1.3432807e-10
3.4964845e-10
8.5524528e-10
1.9906983e-09
4.4506608e-09
9.6255313e-09
2.0248529e-08
4.1611842e-08
8.3832191e-08
1.6604094e-07
3.240902e-07
6.2466445e-07
1.1910133e-06
2.2494916e-06
4.2118087e-06
7.8109599e-06
1.4284174e-05
2.5453511e-05
4.3128532e-05
6.0622553e-05
6.6826296e-05
7.1024672e-05
7.375213e-05
7.5630663e-05
7.6974695e-05
7.7706038e-05
7.7870102e-05
7.7411573e-05
7.6267406e-05
7.4426873e-05
7.1965787e-05
6.9092831e-05
6.6511527e-05
6.6540039e-05
7.3692789e-05
5.8065666e-05
4.417933e-05
3.2149026e-05
2.4442184e-05
1.9193777e-05
1.6927878e-05
1.6322346e-05
1.8226929e-05
2.45605e-05
4.5007578e-05
7.5134279e-05
9.5546083e-05
0.00011471562
0.0001204541
0.00011965641
0.00012679078
0.00014687501
0.00018443268
0.00024639469
0.00034199128
0.00047560321
0.00064538121
2.6951932e-18
5.2418086e-16
1.3962036e-14
1.4155619e-13
8.5621301e-13
3.794354e-12
1.3705727e-11
4.2905958e-11
1.2093898e-10
3.1477976e-10
7.6989058e-10
1.7917991e-09
4.0052527e-09
8.6600345e-09
1.8211092e-08
3.7407061e-08
7.5313872e-08
1.4904794e-07
2.9062178e-07
5.5944007e-07
1.0650187e-06
2.0080112e-06
3.7529245e-06
6.9501618e-06
1.271001e-05
2.2725971e-05
3.8891468e-05
6.1487212e-05
6.9009764e-05
7.3375356e-05
7.6002215e-05
7.7617635e-05
7.8317703e-05
7.8134589e-05
7.7106938e-05
7.515833e-05
7.2216293e-05
6.8281351e-05
6.346331e-05
5.8015342e-05
5.2591131e-05
4.8905926e-05
4.804801e-05
3.3300755e-05
2.2923588e-05
1.5356309e-05
1.1547485e-05
9.7161351e-06
9.0266187e-06
9.0047368e-06
1.0322094e-05
1.4051455e-05
2.6160848e-05
5.8091874e-05
8.5407882e-05
0.00010787238
0.00012563803
0.00012676732
0.00013284717
0.00015256492
0.00019133294
0.00025643986
0.00035638808
0.00049329563
0.00066263452
2.3616161e-18
4.5930439e-16
1.2233993e-14
1.2403592e-13
7.5023711e-13
3.3246874e-12
1.2009037e-11
3.7593461e-11
1.0596022e-10
2.7577517e-10
6.7442685e-10
1.569396e-09
3.5073807e-09
7.5813271e-09
1.593622e-08
3.2716252e-08
6.5821237e-08
1.3013687e-07
2.5343639e-07
4.8710941e-07
9.2558857e-07
1.7413311e-06
3.2469073e-06
6.0006269e-06
1.0965109e-05
1.9658011e-05
3.3964641e-05
5.4783883e-05
7.2040946e-05
7.6808183e-05
7.9415835e-05
8.0751422e-05
8.0728065e-05
7.952516e-05
7.7201578e-05
7.3702951e-05
6.8997189e-05
6.3152683e-05
5.6376042e-05
4.9026497e-05
4.1787894e-05
3.6013516e-05
3.0475202e-05
1.9247432e-05
1.2488137e-05
8.8427955e-06
7.2638875e-06
6.716236e-06
6.7011261e-06
6.9243443e-06
7.856086e-06
1.0563784e-05
1.8532205e-05
4.5705972e-05
7.8369465e-05
0.00010385477
0.0001293209
0.0001384983
0.00014535817
0.00016546803
0.00020526833
0.00027301518
0.00037660977
0.00051579362
0.00068329213
2.0090116e-18
3.9072732e-16
1.040738e-14
1.0551632e-13
6.3821713e-13
2.8282414e-12
1.0215653e-11
3.1978474e-11
9.0129815e-11
2.3455805e-10
5.7356714e-10
1.334488e-09
2.9817284e-09
6.4430752e-09
1.3537627e-08
2.7775397e-08
5.5835861e-08
1.102775e-07
2.1446688e-07
4.1149532e-07
7.8024222e-07
1.4641818e-06
2.7225021e-06
5.0180409e-06
9.1553477e-06
1.6441362e-05
2.8656747e-05
4.7179872e-05
7.0590265e-05
8.1755377e-05
8.4528187e-05
8.5566954e-05
8.4769553e-05
8.2432846e-05
7.8703151e-05
7.3597859e-05
6.7166881e-05
5.9584152e-05
5.1178341e-05
4.2424466e-05
3.4046363e-05
2.7143156e-05
1.971098e-05
1.2072047e-05
8.1408471e-06
6.4123477e-06
5.8901707e-06
5.9084699e-06
6.2254536e-06
6.44915e-06
7.1207129e-06
9.276182e-06
1.5506378e-05
4.036796e-05
7.6021837e-05
0.0001056404
0.00013519391
0.00015123203
0.00016089143
0.00018302844
0.00022483966
0.00029555482
0.00040244261
0.00054282037
0.00070691835
1.6551788e-18
3.2191122e-16
8.5743962e-15
8.6932182e-14
5.2580778e-13
2.3300781e-12
8.4161212e-12
2.634454e-11
7.4247382e-11
1.9321113e-10
4.7241095e-10
1.0989621e-09
2.4549272e-09
5.3030452e-09
1.1137334e-08
2.2836675e-08
4.5869649e-08
9.0493878e-08
1.7573771e-07
3.3656259e-07
6.3668771e-07
1.1914639e-06
2.2083775e-06
4.0572609e-06
7.3845446e-06
1.3266451e-05
2.328529e-05
3.9075739e-05
6.0539578e-05
8.3041957e-05
9.2064813e-05
9.2825339e-05
9.1193203e-05
8.7563667e-05
8.22493e-05
7.5400966e-05
6.7191352e-05
5.7924895e-05
4.8045838e-05
3.8112805e-05
2.8871095e-05
2.1283479e-05
1.3820977e-05
8.6550782e-06
6.2571116e-06
5.4162656e-06
5.2973288e-06
5.9357938e-06
6.3713042e-06
6.5025347e-06
6.9783063e-06
8.8321602e-06
1.4412949e-05
3.8755253e-05
7.5707267e-05
0.00010986128
0.00014367856
0.0001647143
0.00017785468
0.0002033675
0.00024854355
0.0003230556
0.00043314797
0.00057363041
0.00073270863
1.3172198e-18
2.5618234e-16
6.8236344e-15
6.9181627e-14
4.1844131e-13
1.8542721e-12
6.6974136e-12
2.0963954e-11
5.9080515e-11
1.5373256e-10
3.7584607e-10
8.7419635e-10
1.9524186e-09
4.2162739e-09
8.8511721e-09
1.8138316e-08
3.6403198e-08
7.1739897e-08
1.391166e-07
2.6592697e-07
5.0186055e-07
9.3638675e-07
1.7295765e-06
3.1657115e-06
5.7427701e-06
1.0304575e-05
1.8165584e-05
3.0963008e-05
4.95549e-05
7.1598547e-05
9.0692807e-05
0.00010250333
0.00010108726
9.5809165e-05
8.8519528e-05
7.9628011e-05
6.9456479e-05
5.8416625e-05
4.704068e-05
3.5974102e-05
2.5992293e-05
1.7913706e-05
1.0870751e-05
7.0075227e-06
5.4142833e-06
4.928889e-06
5.1011353e-06
6.2206049e-06
6.9964826e-06
6.9658255e-06
7.1251194e-06
8.7564567e-06
1.4324894e-05
3.9970292e-05
7.8957326e-05
0.00011672416
0.00015418685
0.00017758085
0.00019509975
0.0002253759
0.00027537117
0.00035462945
0.00046782861
0.00060723071
0.00075976546
1.0098422e-18
1.9640121e-16
5.231301e-15
5.3037428e-14
3.207919e-13
1.4215358e-12
5.1343322e-12
1.607083e-11
4.5288884e-11
1.178384e-10
2.8806629e-10
6.6993955e-10
1.4959583e-09
3.2296934e-09
6.777537e-09
1.3881665e-08
2.7839986e-08
5.4809636e-08
1.0614209e-07
2.0252965e-07
3.8132047e-07
7.0937006e-07
1.3055448e-06
2.3798299e-06
4.2996482e-06
7.6942876e-06
1.3585101e-05
2.3415631e-05
3.8540501e-05
5.8492405e-05
7.8853574e-05
9.3576391e-05
0.00010034489
0.00010059017
9.6316437e-05
8.6825088e-05
7.4247616e-05
6.1121753e-05
4.8069756e-05
3.5682608e-05
2.4695211e-05
1.602494e-05
9.5452453e-06
6.3223115e-06
5.0162682e-06
4.6523686e-06
5.1804852e-06
6.8276697e-06
7.907988e-06
7.7569316e-06
7.6894073e-06
9.2032298e-06
1.5145265e-05
4.3345307e-05
8.5546531e-05
0.00012662613
0.00016683939
0.00019021938
0.00021271108
0.0002488088
0.00030481591
0.00038957971
0.00050552648
0.00064263138
0.00078721301
7.438283e-19
1.4466485e-16
3.8532528e-15
3.9065918e-14
2.3628496e-13
1.0470467e-12
3.7816841e-12
1.1836659e-11
3.3355481e-11
8.678418e-11
2.1213632e-10
4.9330337e-10
1.1013755e-09
2.3773239e-09
4.9873816e-09
1.0210861e-08
2.0466063e-08
4.0258851e-08
7.7873176e-08
1.4835262e-07
2.7871654e-07
5.1703841e-07
9.4820172e-07
1.721147e-06
3.0953971e-06
5.5172613e-06
9.7299685e-06
1.6873895e-05
2.8356035e-05
4.4921719e-05
6.4609357e-05
8.2039684e-05
9.2211268e-05
9.4945887e-05
9.1914302e-05
8.5114139e-05
7.5607944e-05
6.4024078e-05
5.0675318e-05
3.7086513e-05
2.5585864e-05
1.6171889e-05
9.7616956e-06
6.5236656e-06
5.1894616e-06
4.9094568e-06
5.6694648e-06
7.826892e-06
8.9632217e-06
8.4415082e-06
8.0352477e-06
9.7736774e-06
1.7713496e-05
4.972016e-05
9.4208204e-05
0.0001381911
0.00017908257
0.00020260765
0.00023109005
0.0002738289
0.00033661587
0.00042726633
0.00054533836
0.00067886999
0.00081440012
5.2508451e-19
1.02122e-16
2.720087e-15
2.7577269e-14
1.6679631e-13
7.3911524e-13
2.6694704e-12
8.3552639e-12
2.354432e-11
6.1255228e-11
1.4972545e-10
3.4814884e-10
7.772228e-10
1.6774194e-09
3.5183972e-09
7.2014e-09
1.4428316e-08
2.8365243e-08
5.4819614e-08
1.0430282e-07
1.9560802e-07
3.6197335e-07
6.6166243e-07
1.196102e-06
2.140826e-06
3.7972057e-06
6.6735128e-06
1.1588971e-05
1.9719232e-05
3.2277915e-05
4.926327e-05
6.7580504e-05
8.1661391e-05
8.786214e-05
8.765561e-05
8.2281325e-05
7.3714725e-05
6.3024999e-05
5.121858e-05
3.8682552e-05
2.6999531e-05
1.7390732e-05
1.0877642e-05
7.4052829e-06
5.8390097e-06
5.912449e-06
7.0709591e-06
9.7944794e-06
1.044203e-05
8.8654656e-06
8.4033305e-06
1.0517541e-05
2.2107398e-05
5.9105129e-05
0.00010581968
0.00015191871
0.00018945921
0.00021583956
0.00025043076
0.0003004597
0.00037046534
0.00046703737
0.00058639965
0.00071509531
0.00084065588
3.5447095e-19
6.8939865e-17
1.8362548e-15
1.8616559e-14
1.1259827e-13
4.9894588e-13
1.8020254e-12
5.6401271e-12
1.5893008e-11
4.1347819e-11
1.0106314e-10
2.3498915e-10
5.2457967e-10
1.1321037e-09
2.3744327e-09
4.8594452e-09
9.7344427e-09
1.9131825e-08
3.6956824e-08
7.0260055e-08
1.3159901e-07
2.4306246e-07
4.4309229e-07
7.9803363e-07
1.4216864e-06
2.5081728e-06
4.3855642e-06
7.595698e-06
1.2982217e-05
2.167332e-05
3.4609672e-05
5.1151606e-05
6.7600816e-05
7.8318476e-05
8.2005503e-05
7.9605401e-05
7.2861366e-05
6.348151e-05
5.2352471e-05
4.0851674e-05
2.9104575e-05
2.0259891e-05
1.3625656e-05
9.658354e-06
7.7984993e-06
8.3005911e-06
1.0370092e-05
1.2779361e-05
1.1772202e-05
8.6915633e-06
8.7144096e-06
1.1721353e-05
2.9909666e-05
7.1514766e-05
0.00011934417
0.00016548479
0.00019809663
0.00022956724
0.00027103993
0.00032873476
0.0004060834
0.00050825419
0.00062790551
0.00075047125
0.00086546952
2.284964e-19
4.4439467e-17
1.1836694e-15
1.2000381e-14
7.2581267e-14
3.216196e-13
1.1615697e-12
3.6355311e-12
1.0244234e-11
2.6651468e-11
6.5141603e-11
1.5146573e-10
3.3813085e-10
7.297503e-10
1.5306355e-09
3.132784e-09
6.2760823e-09
1.2335458e-08
2.3827367e-08
4.5288788e-08
8.4779054e-08
1.5641305e-07
2.8459701e-07
5.1108842e-07
9.0677856e-07
1.5913721e-06
2.7659355e-06
4.7646171e-06
8.1276013e-06
1.3668895e-05
2.2411141e-05
3.5043566e-05
5.0559538e-05
6.5124044e-05
7.334e-05
7.5598876e-05
7.1961229e-05
6.4781924e-05
5.5285226e-05
4.3303641e-05
3.1856258e-05
2.3731019e-05
1.8714216e-05
1.4411995e-05
1.2512401e-05
1.3398675e-05
1.5951859e-05
1.5767128e-05
1.1281464e-05
8.335944e-06
9.0647683e-06
1.4483811e-05
4.1116115e-05
8.7228422e-05
0.00013441573
0.00017612041
0.00020711887
0.00024446324
0.00029296836
0.00035854038
0.00044324614
0.0005503892
0.00066906939
0.00078437091
0.00088840982
1.4055653e-19
2.7336342e-17
7.2811723e-16
7.3818359e-15
4.4646895e-14
1.9783616e-13
7.1450349e-13
2.2362631e-12
6.3013197e-12
1.6393542e-11
4.006959e-11
9.3171754e-11
2.080087e-10
4.4896984e-10
9.4186186e-10
1.9281988e-09
3.8641552e-09
7.5980833e-09
1.4683594e-08
2.7921795e-08
5.2283262e-08
9.6448233e-08
1.7534639e-07
3.1433675e-07
5.560141e-07
9.7141734e-07
1.67845e-06
2.8717734e-06
4.8689478e-06
8.1721962e-06
1.3516946e-05
2.1787403e-05
3.3504562e-05
4.7662663e-05
6.0465693e-05
6.7377468e-05
6.8919242e-05
6.4743699e-05
5.6231111e-05
4.461016e-05
3.4679633e-05
2.7724981e-05
2.5253037e-05
2.1691256e-05
1.998608e-05
2.1205291e-05
2.1013676e-05
1.6497881e-05
9.2937693e-06
8.0365946e-06
9.7290683e-06
2.0587604e-05
5.6442718e-05
0.00010377579
0.00014958721
0.00018304832
0.00021822238
0.00025368027
0.000289465
0.0003392212
0.00040952738
0.00051671178
0.00067658732
0.00081624871
0.00090918952
8.2551814e-20
1.6055212e-17
4.2763816e-16
4.3354888e-15
2.6221788e-14
1.1619121e-13
4.1963169e-13
1.3133594e-12
3.7007586e-12
9.627965e-12
2.3533486e-11
5.4723921e-11
1.2218405e-10
2.6376519e-10
5.5346865e-10
1.133481e-09
2.2726819e-09
4.4718533e-09
8.6497139e-09
1.6465855e-08
3.0870217e-08
5.7018581e-08
1.0376572e-07
1.860463e-07
3.2867327e-07
5.7238949e-07
9.8398129e-07
1.6720567e-06
2.8123554e-06
4.685283e-06
7.7234399e-06
1.2543285e-05
1.9867422e-05
3.0129664e-05
4.2643743e-05
5.415715e-05
6.0640216e-05
6.1921484e-05
5.3240461e-05
4.4598797e-05
3.6834423e-05
3.1448733e-05
3.0966668e-05
2.9768857e-05
2.8641942e-05
2.6933756e-05
2.2138598e-05
1.2248646e-05
7.7764886e-06
8.0584852e-06
1.2027211e-05
3.2896239e-05
7.3775508e-05
0.00012005419
0.00014811851
0.00015678636
0.0001743204
0.00020038729
0.00023627691
0.00028393222
0.00035249589
0.00045685426
0.00061527244
0.00084571108
0.00092751095
4.638233e-20
9.0207355e-18
2.4027119e-16
2.4359133e-15
1.4732734e-14
6.5281591e-14
2.3576635e-13
7.3789365e-13
2.0792156e-12
5.4093638e-12
1.3222356e-11
3.0748511e-11
6.8660477e-11
1.4824736e-10
3.111613e-10
6.3751957e-10
1.2790556e-09
2.5189382e-09
4.8779793e-09
9.2998049e-09
1.7467152e-08
3.2330114e-08
5.8967819e-08
1.0596262e-07
1.8755106e-07
3.2693199e-07
5.6114363e-07
9.4888138e-07
1.5829915e-06
2.6113765e-06
4.262916e-06
6.8795322e-06
1.0932142e-05
1.6960205e-05
2.5315526e-05
3.5674169e-05
4.5921119e-05
5.1216688e-05
4.7388052e-05
4.1630172e-05
3.6297987e-05
3.3056886e-05
3.4375532e-05
3.5443866e-05
3.1963712e-05
2.6841495e-05
1.6068781e-05
8.0905269e-06
7.0569744e-06
8.4948062e-06
1.8245065e-05
4.9365942e-05
9.3781122e-05
0.00011054706
0.00010987608
0.0001218153
0.00014080813
0.00016584959
0.00019943042
0.00024497224
0.00031253742
0.00041387671
0.0005689482
0.0008181367
0.00094301884
2.5027654e-20
4.8675363e-18
1.2964867e-16
1.3143972e-15
7.9495937e-15
3.5224745e-14
1.272137e-13
3.9814463e-13
1.1218714e-12
2.9187028e-12
7.1344413e-12
1.659187e-11
3.705261e-11
8.0015038e-11
1.6799266e-10
3.4433923e-10
6.912979e-10
1.3627074e-09
2.642385e-09
5.0465769e-09
9.5001925e-09
1.7633047e-08
3.2265095e-08
5.8179853e-08
1.0332574e-07
1.8064294e-07
3.1079981e-07
5.2626192e-07
8.7700503e-07
1.437969e-06
2.3214795e-06
3.6994048e-06
5.8165334e-06
8.9923832e-06
1.3570535e-05
1.9773828e-05
2.737013e-05
3.5600894e-05
3.7236689e-05
3.5357188e-05
3.2759138e-05
3.1432317e-05
3.5278858e-05
3.3255649e-05
2.7898715e-05
1.7327941e-05
8.1671498e-06
6.2710187e-06
6.8875296e-06
1.1506067e-05
3.2867011e-05
6.9406707e-05
8.7936343e-05
8.1524141e-05
8.7560956e-05
0.00010130805
0.00011872758
0.00014283684
0.0001748232
0.00021897217
0.00028571117
0.00038400068
0.00053515775
0.00078209238
0.00095533671
1.3071709e-20
2.5422675e-18
6.7714124e-17
6.864924e-16
4.1519278e-15
1.8396978e-14
6.643925e-14
2.0793276e-13
5.8589055e-13
1.5242517e-12
3.7258487e-12
8.6650048e-12
1.9351623e-11
4.1794835e-11
8.776795e-11
1.7996571e-10
3.6150728e-10
7.1323092e-10
1.3847491e-09
2.6493634e-09
4.9994133e-09
9.3081979e-09
1.7097654e-08
3.0966884e-08
5.525286e-08
9.7005171e-08
1.6747573e-07
2.8429842e-07
4.7469961e-07
7.8000027e-07
1.2606595e-06
1.9989015e-06
3.1077228e-06
4.7362339e-06
7.0717307e-06
1.0282791e-05
1.4416166e-05
1.9267703e-05
2.3758493e-05
2.4993566e-05
2.5547651e-05
2.8278764e-05
2.7128355e-05
2.29478e-05
1.4444726e-05
7.4137088e-06
5.4926625e-06
5.8074142e-06
8.1282078e-06
2.1976123e-05
5.105484e-05
7.6421304e-05
6.3782089e-05
6.6826787e-05
7.5798276e-05
8.9106781e-05
0.00010546621
0.00012832438
0.00015894768
0.00020267431
0.00026876201
0.00036452241
0.00051228095
0.00075689844
0.00096491973
6.7340977e-21
1.3096894e-18
3.4883942e-17
3.5365473e-16
2.1388877e-15
9.4771142e-15
3.4224976e-14
1.071095e-13
3.0179142e-13
7.8511354e-13
1.919061e-12
4.462994e-12
9.9673728e-12
2.1528421e-11
4.5215233e-11
9.2736142e-11
1.863647e-10
3.6793946e-10
7.151154e-10
1.3703267e-09
2.5916007e-09
4.8399879e-09
8.9262961e-09
1.6249565e-08
2.9168968e-08
5.1564463e-08
8.9623446e-08
1.5294151e-07
2.559704e-07
4.2023647e-07
6.7785457e-07
1.0751313e-06
1.6753679e-06
2.5516743e-06
3.7780225e-06
5.4200881e-06
7.5127258e-06
9.9913888e-06
1.2606289e-05
1.5012022e-05
1.6018492e-05
1.6017097e-05
1.41891e-05
9.4922911e-06
5.9718435e-06
4.5989451e-06
4.9075027e-06
6.3645946e-06
1.5204617e-05
3.7052522e-05
7.0536396e-05
5.6354704e-05
5.4392893e-05
5.8333756e-05
6.7318403e-05
8.0350111e-05
9.683495e-05
0.00011986442
0.00015016797
0.00019415917
0.00025923309
0.00035333097
0.00049853458
0.00073970147
0.00097347318
3.5763923e-21
6.9555897e-19
1.8526376e-17
1.8781995e-16
1.13591e-15
5.0329438e-15
1.8175067e-14
5.6878159e-14
1.6025376e-13
4.168874e-13
1.0189753e-12
2.3697173e-12
5.292462e-12
1.1431794e-11
2.4012657e-11
4.9260535e-11
9.9030626e-11
1.9562629e-10
3.8054107e-10
7.301549e-10
1.3835414e-09
2.5909686e-09
4.796763e-09
8.7770759e-09
1.5861081e-08
2.8269591e-08
4.9600437e-08
8.5451894e-08
1.4419522e-07
2.377714e-07
3.8271487e-07
6.0175569e-07
9.2582246e-07
1.3988768e-06
2.0676117e-06
2.9721033e-06
4.0989881e-06
5.3867862e-06
6.6854313e-06
7.7926395e-06
8.1370978e-06
7.6633325e-06
5.7203455e-06
4.2126017e-06
3.6612348e-06
4.0164026e-06
5.2754114e-06
1.1297608e-05
2.7831666e-05
5.5239696e-05
5.0165425e-05
4.4543988e-05
4.7654364e-05
5.4852945e-05
6.4634096e-05
7.7490954e-05
9.3735957e-05
0.00011653129
0.00014677131
0.00019129753
0.00025506479
0.00034848225
0.00049193901
0.00072738047
0.00098199337
2.1283274e-21
4.1393034e-19
1.1025137e-17
1.1177239e-16
6.7597898e-16
2.9950574e-15
1.0815617e-14
3.3846415e-14
9.5360474e-14
2.4807026e-13
6.0634555e-13
1.4101373e-12
3.1495057e-12
6.8035523e-12
1.4293014e-11
2.9328202e-11
5.8981899e-11
1.1658085e-10
2.2697345e-10
4.3602626e-10
8.2757299e-10
1.5533006e-09
2.8845017e-09
5.2996409e-09
9.6279643e-09
1.72736e-08
3.0538932e-08
5.3049842e-08
9.0234896e-08
1.497628e-07
2.418906e-07
3.7964774e-07
5.7869251e-07
8.5665996e-07
1.2342122e-06
1.7285392e-06
2.3489818e-06
3.0474255e-06
3.7105586e-06
4.0558819e-06
3.9344877e-06
3.3170656e-06
2.8276458e-06
2.7517414e-06
3.2521706e-06
4.6399735e-06
9.0739075e-06
2.152189e-05
4.5419227e-05
4.8882534e-05
4.2120427e-05
4.4255737e-05
4.8884127e-05
5.5661243e-05
6.4774878e-05
7.72037e-05
9.366176e-05
0.00011673994
0.00014736074
0.00019226977
0.00025484806
0.00034803361
0.00049114663
0.00072024207
0.0009911252
1.5406352e-21
2.9963266e-19
7.980827e-18
8.090998e-17
4.893339e-16
2.1681232e-15
7.8296303e-15
2.4503095e-14
6.9040748e-14
1.7962014e-13
4.3909916e-13
1.0213857e-12
2.2818463e-12
4.9309574e-12
1.0363667e-11
2.1277373e-11
4.282048e-11
8.4708864e-11
1.6509502e-10
3.1758497e-10
6.0385483e-10
1.1360419e-09
2.1159441e-09
3.9022035e-09
7.1218808e-09
1.2846495e-08
2.284895e-08
3.9930809e-08
6.8253274e-08
1.135293e-07
1.8292518e-07
2.8464285e-07
4.2732399e-07
6.1924423e-07
8.667575e-07
1.1695528e-06
1.5083692e-06
1.8294201e-06
2.0316513e-06
2.0067528e-06
1.9828991e-06
1.8975845e-06
2.0597689e-06
2.7472586e-06
4.1381404e-06
7.6175941e-06
1.7214945e-05
3.7674004e-05
5.1183312e-05
4.26661e-05
4.2978524e-05
4.5375465e-05
5.0269806e-05
5.7436268e-05
6.7000462e-05
7.967075e-05
9.6343692e-05
0.00011954976
0.00015059412
0.00019558211
0.00025761193
0.00035026901
0.00049600103
0.00072642467
0.00099652263
1.3227713e-21
2.5726154e-19
6.8523037e-18
6.946999e-17
4.2015647e-16
1.861685e-15
6.7233935e-15
2.1042864e-14
5.9298203e-14
1.5429913e-13
3.7728476e-13
8.7786364e-13
1.9619795e-12
4.2418908e-12
8.9211731e-12
1.8330726e-11
3.692786e-11
7.3143826e-11
1.4277468e-10
2.7515877e-10
5.2434016e-10
9.8904061e-10
1.8479077e-09
3.4204788e-09
6.2693158e-09
1.1362135e-08
2.0306872e-08
3.5638028e-08
6.1045279e-08
1.0131165e-07
1.6168228e-07
2.4664048e-07
3.5861997e-07
4.9693533e-07
6.5623146e-07
8.2475813e-07
9.7808599e-07
1.0900152e-06
1.1552902e-06
1.2057776e-06
1.335723e-06
1.6695054e-06
2.3648758e-06
3.6186966e-06
6.4852408e-06
1.420882e-05
3.0699496e-05
5.5898891e-05
4.5638113e-05
4.4582615e-05
4.5895103e-05
4.8589862e-05
5.3514516e-05
6.0516422e-05
7.0046696e-05
8.2929559e-05
0.00010010065
0.00012372276
0.00015533097
0.00020031989
0.00026250025
0.00035437414
0.0005064331
0.00075136632
0.00099716041
1.1826177e-21
2.3000374e-19
6.1263025e-18
6.2110239e-17
3.7565066e-16
1.6645253e-15
6.0115865e-15
1.8816058e-14
5.3027036e-14
1.3799471e-13
3.3746221e-13
7.8533817e-13
1.7555701e-12
3.796657e-12
7.9874869e-12
1.6418987e-11
3.3092928e-11
6.5586062e-11
1.2810875e-10
2.4708533e-10
4.7125289e-10
8.8975645e-10
1.6641398e-09
3.083788e-09
5.6590151e-09
1.0269325e-08
1.8371648e-08
3.2238355e-08
5.5076342e-08
9.0711223e-08
1.4248006e-07
2.1139318e-07
2.9423946e-07
3.849405e-07
4.7920306e-07
5.6936622e-07
6.5112585e-07
7.2238148e-07
8.5958709e-07
1.0187414e-06
1.3650558e-06
2.0068745e-06
3.0780124e-06
5.5911153e-06
1.1997862e-05
2.546116e-05
4.7818474e-05
5.1541028e-05
4.865142e-05
4.8678666e-05
4.9094244e-05
5.2201757e-05
5.7379603e-05
6.4578966e-05
7.4229308e-05
8.7258273e-05
0.00010474734
0.00012871718
0.00016086103
0.00020599801
0.00026855086
0.00036054784
0.00051924978
0.00079844223
0.0009988182
9.8707274e-22
1.9197272e-19
5.1133151e-18
5.1840084e-17
3.1353298e-16
1.3892605e-15
5.0173412e-15
1.5703652e-14
4.4253947e-14
1.1515777e-13
2.8159406e-13
6.5525582e-13
1.4645775e-12
3.1667529e-12
6.6605939e-12
1.3686772e-11
2.7573478e-11
5.4614054e-11
1.0659204e-10
2.0537206e-10
3.9117195e-10
7.3730455e-10
1.3760566e-09
2.5431115e-09
4.6510921e-09
8.4039149e-09
1.4954348e-08
2.6066685e-08
4.414842e-08
7.1882529e-08
1.11283e-07
1.621238e-07
2.2083347e-07
2.8566524e-07
3.5319483e-07
4.2489668e-07
4.7759149e-07
5.8180022e-07
7.9924442e-07
1.1148183e-06
1.6838888e-06
2.6321876e-06
4.8492606e-06
1.0254497e-05
2.131356e-05
4.1204566e-05
6.197795e-05
5.4903313e-05
5.299501e-05
5.1751266e-05
5.3219074e-05
5.634627e-05
6.1339923e-05
6.8535136e-05
7.8364942e-05
9.1706625e-05
0.00010964658
0.00013406905
0.00016678248
0.00021227807
0.00027501598
0.00036843604
0.00052985821
0.00086275558
0.00099954409
7.5315829e-22
1.4647924e-19
3.9015429e-18
3.9554158e-17
2.3921883e-16
1.0599188e-15
3.8276159e-15
1.1978648e-14
3.3751633e-14
8.7811326e-14
2.146685e-13
4.9935435e-13
1.1156279e-12
2.4108709e-12
5.0670341e-12
1.0402367e-11
2.0931423e-11
4.1394727e-11
8.0634774e-11
1.5498165e-10
2.9429869e-10
5.5264097e-10
1.0267327e-09
1.8872355e-09
3.4297192e-09
6.1526686e-09
1.0863623e-08
1.8790908e-08
3.1622087e-08
5.129923e-08
7.9372113e-08
1.1609616e-07
1.6080128e-07
2.1323159e-07
2.7843269e-07
3.5478048e-07
4.3757737e-07
6.341466e-07
9.14353e-07
1.4218017e-06
2.2710462e-06
4.2140558e-06
8.7384984e-06
1.8042924e-05
3.5738116e-05
6.0654843e-05
6.3462741e-05
5.923997e-05
5.6437572e-05
5.5977173e-05
5.7099479e-05
6.0162123e-05
6.532436e-05
7.263127e-05
8.26327e-05
9.6307308e-05
0.00011468372
0.00013958433
0.00017287562
0.00021881386
0.00028157752
0.0003764284
0.00053624347
0.00092593733
0.0010001113
5.6686504e-22
1.102475e-19
2.9364663e-18
2.9769382e-17
1.8003291e-16
7.9761871e-16
2.8800651e-15
9.0118834e-15
2.5387249e-14
6.6032744e-14
1.6137431e-13
3.7522724e-13
8.3787207e-13
1.8094541e-12
3.799899e-12
7.7930734e-12
1.5661356e-11
3.0924656e-11
6.0126285e-11
1.1530126e-10
2.1835407e-10
4.0871885e-10
7.5653561e-10
1.3847855e-09
2.5051999e-09
4.4733482e-09
7.8651794e-09
1.3565135e-08
2.2826184e-08
3.7226957e-08
5.8425306e-08
8.7977646e-08
1.2786187e-07
1.8296352e-07
2.6003627e-07
3.5590821e-07
5.1653497e-07
7.7040642e-07
1.2221337e-06
1.9800229e-06
3.670814e-06
7.468754e-06
1.5445347e-05
3.121287e-05
5.3697288e-05
7.7794488e-05
6.8507859e-05
6.2953812e-05
6.0048822e-05
5.939918e-05
6.0664647e-05
6.3894923e-05
6.9191482e-05
7.6697252e-05
8.6947463e-05
0.0001009589
0.00011974201
0.00014515299
0.00017898778
0.0002253803
0.00028803801
0.00038369393
0.00053788311
0.00095966642
0.0010051634
4.9645863e-22
9.6554292e-20
2.5717294e-18
2.6071268e-17
1.5766248e-16
6.9846825e-16
2.5218469e-15
7.8901821e-15
2.2224486e-14
5.7797507e-14
1.4122324e-13
3.2830372e-13
7.3291844e-13
1.5823713e-12
3.3220205e-12
6.8107716e-12
1.3682494e-11
2.7007622e-11
5.2492719e-11
1.0063432e-10
1.9054579e-10
3.566745e-10
6.6041485e-10
1.2097801e-09
2.1917567e-09
3.9231369e-09
6.9247304e-09
1.2017112e-08
2.0419584e-08
3.3825959e-08
5.4559709e-08
8.5436951e-08
1.302254e-07
1.979448e-07
2.9370075e-07
4.3062065e-07
6.6621809e-07
1.0652407e-06
1.7457449e-06
3.2177881e-06
6.4223935e-06
1.3305747e-05
2.7154149e-05
4.7256879e-05
7.0866389e-05
7.733793e-05
6.9369362e-05
6.4505526e-05
6.2603315e-05
6.2436536e-05
6.4008929e-05
6.7474287e-05
7.2875346e-05
8.0514126e-05
9.1082417e-05
0.00010552275
0.00012474953
0.00015069959
0.00018502414
0.00023190231
0.00029441579
0.00039031471
0.00053714947
0.00095241882
0.0010124202
5.5186668e-22
1.0733037e-19
2.8587446e-18
2.8980707e-17
1.7525428e-16
7.763846e-16
2.8030826e-15
8.7697867e-15
2.4701177e-14
6.4236164e-14
1.5695097e-13
3.6486025e-13
8.1453302e-13
1.7586453e-12
3.6924148e-12
7.5713565e-12
1.5214417e-11
3.0043395e-11
5.8427258e-11
1.1210472e-10
2.1250927e-10
3.9840789e-10
7.3921134e-10
1.3578107e-09
2.4692157e-09
4.4428444e-09
7.8981626e-09
1.3839239e-08
2.3821217e-08
4.0044921e-08
6.5339034e-08
1.0346533e-07
1.6052707e-07
2.4668951e-07
3.7138423e-07
5.8975458e-07
9.4443927e-07
1.5620686e-06
2.845711e-06
5.5854735e-06
1.1520274e-05
2.3573996e-05
4.1611615e-05
6.3366939e-05
8.2075063e-05
7.4905261e-05
6.9223064e-05
6.6511366e-05
6.5117741e-05
6.5196624e-05
6.6963576e-05
7.0640181e-05
7.6313034e-05
8.4241621e-05
9.5140231e-05
0.00010997676
0.00012964834
0.00015614825
0.00019095872
0.00023839246
0.00030086671
0.00039611618
0.00053851874
0.00091169042
0.001014673
7.4568766e-22
1.4502584e-19
3.8627614e-18
3.9158919e-17
2.3680384e-16
1.0490467e-15
3.7874925e-15
1.1849612e-14
3.3376031e-14
8.6796722e-14
2.1208097e-13
4.9304765e-13
1.1008058e-12
2.3770627e-12
4.9918442e-12
1.02388e-11
2.0582716e-11
4.0667061e-11
7.9155616e-11
1.5206831e-10
2.8878028e-10
5.4270545e-10
1.0100741e-09
1.8622292e-09
3.3990131e-09
6.1331881e-09
1.0912289e-08
1.9063014e-08
3.2533225e-08
5.4050821e-08
8.7308117e-08
1.3741787e-07
2.1309044e-07
3.3245855e-07
5.282802e-07
8.5002892e-07
1.4144337e-06
2.5403997e-06
4.9100061e-06
1.0029226e-05
2.0377561e-05
3.6603828e-05
5.672738e-05
7.9316131e-05
7.8023543e-05
7.2719084e-05
6.9770677e-05
6.7542936e-05
6.6514059e-05
6.7102539e-05
6.9441788e-05
7.3553665e-05
7.9506989e-05
8.7753194e-05
9.9044536e-05
0.00011430034
0.00013442196
0.00016148031
0.0001968149
0.00024487748
0.00030731983
0.00040182915
0.00054158434
0.00086580555
0.0010196304
1.1122488e-21
2.163169e-19
5.7616064e-18
5.8408745e-17
3.5321459e-16
1.5647652e-15
5.6495392e-15
1.7675665e-14
4.9787634e-14
1.2948267e-13
3.1640252e-13
7.356442e-13
1.6426462e-12
3.5476881e-12
7.451746e-12
1.5288425e-11
3.074567e-11
6.0777427e-11
1.1836013e-10
2.2747824e-10
4.3203671e-10
8.115593e-10
1.5082508e-09
2.7721565e-09
5.0327605e-09
9.0061231e-09
1.5834441e-08
2.7255719e-08
4.5789723e-08
7.4989077e-08
1.1992062e-07
1.8870253e-07