/*--------------------------------*- C++ -*----------------------------------*\
  =========                 |
  \\      /  F ield         | OpenFOAM: The Open Source CFD Toolbox
   \\    /   O peration     | Website:  https://openfoam.org
    \\  /    A nd           | Version:  13
     \\/     M anipulation  |
\*---------------------------------------------------------------------------*/
FoamFile
{
    format      ascii;
    class       volScalarField;
    location    "23.797998";
    object      k;
}
// * * * * * * * * * * * * * * * * * * * * * * * * * * * * * * * * * * * * * //

dimensions      [0 2 -2 0 0 0 0];

internalField   nonuniform List<scalar> 
17140
(
2.2972478e-11
7.2187448e-10
5.9029574e-09
2.5385552e-08
7.8112947e-08
1.9709107e-07
4.3698099e-07
8.8544254e-07
1.6798765e-06
3.0319431e-06
5.2632474e-06
8.8569869e-06
1.4532307e-05
2.3350767e-05
3.6867917e-05
5.7347671e-05
8.8063144e-05
0.00013371469
0.00020100333
0.00029940347
0.00044217787
0.00064765979
0.00094077095
0.0013546114
0.0019316821
0.0027237924
0.003788904
0.0051822665
0.0069392426
0.0090508053
0.011442301
0.013975946
0.016489951
0.018853449
0.020996684
0.022905859
0.024601308
0.026117377
0.027491563
0.028759933
0.029956091
0.031111545
0.032256381
0.03341965
0.034629777
0.035914035
0.037296864
0.038799563
0.04044202
0.042240653
0.0442088
0.046356586
0.048689434
0.051204139
0.053888713
0.056722819
0.059676407
0.062688378
0.065633745
0.068189431
0.069735675
0.069888625
0.067843089
0.063294515
0.059047153
2.2796134e-11
7.1633318e-10
5.8576598e-09
2.5190879e-08
7.7514492e-08
1.9558281e-07
4.3364149e-07
8.7868642e-07
1.6670813e-06
3.0088951e-06
5.2233251e-06
8.7899675e-06
1.4422634e-05
2.3175058e-05
3.6591391e-05
5.6919086e-05
8.7407681e-05
0.00013272405
0.0001995222
0.00029721128
0.00043896511
0.00064299817
0.00093407879
0.0013451182
0.0019184033
0.0027055371
0.003764357
0.0051502076
0.0068988132
0.0090018769
0.011385632
0.013913708
0.01642555
0.018789827
0.020935892
0.022849204
0.024549425
0.026070665
0.027450284
0.028724327
0.029926474
0.031088413
0.032240513
0.033412341
0.034633004
0.035930732
0.037331542
0.038858733
0.040533271
0.042374198
0.044396997
0.046613275
0.049027935
0.051633136
0.054405264
0.05730194
0.060254442
0.063149524
0.065826242
0.067855684
0.06883656
0.068597568
0.06725982
0.06524428
0.065089939
2.2423935e-11
7.0463736e-10
5.76202e-09
2.47796e-08
7.6249093e-08
1.9239059e-07
4.265657e-07
8.6435384e-07
1.6399009e-06
2.9598636e-06
5.1382622e-06
8.6469293e-06
1.4188147e-05
2.2798677e-05
3.5997891e-05
5.5997342e-05
8.5994978e-05
0.00013058419
0.0001963153
0.00029245309
0.00043197326
0.00063282428
0.00091942762
0.0013242622
0.0018891142
0.0026650772
0.0037096028
0.0050780036
0.0068069176
0.008890178
0.011257242
0.013774188
0.016281042
0.018645645
0.020795628
0.022714822
0.024421801
0.02595013
0.027336957
0.028618319
0.029828037
0.030998066
0.032159191
0.033341641
0.034575492
0.035890307
0.037313789
0.038871318
0.04058767
0.042485029
0.044583525
0.046899734
0.049443044
0.052208144
0.055170198
0.058280674
0.061455833
0.064553047
0.067370598
0.069582255
0.070877888
0.071333207
0.071607587
0.072824131
0.076299512
2.184328e-11
6.8639112e-10
5.6128153e-09
2.413796e-08
7.4274847e-08
1.8740979e-07
4.1552417e-07
8.4198514e-07
1.5974731e-06
2.8833105e-06
5.0054193e-06
8.4234787e-06
1.3821709e-05
2.2210263e-05
3.5069617e-05
5.4554922e-05
8.3782975e-05
0.00012723141
0.0001912871
0.00028498675
0.00042099284
0.00061683262
0.00089637798
0.0012914227
0.0018429597
0.0026012887
0.0036233214
0.0049645459
0.0066630034
0.0087156163
0.011056124
0.013554607
0.01605263
0.01841665
0.020571454
0.022498259
0.024213939
0.025751208
0.02714691
0.02843708
0.02965572
0.030835123
0.032006581
0.033201097
0.034449872
0.03578401
0.037233298
0.038826077
0.040591007
0.042555758
0.044746883
0.047189093
0.049900965
0.052886557
0.056129928
0.059592019
0.063198757
0.066825413
0.070300981
0.073390203
0.07585822
0.077862738
0.080221935
0.083187125
0.086441957
2.106422e-11
6.619104e-10
5.4126303e-09
2.3277085e-08
7.1626014e-08
1.8072696e-07
4.0070919e-07
8.1197094e-07
1.5405416e-06
2.7805833e-06
4.8271475e-06
8.1235968e-06
1.3329901e-05
2.1420474e-05
3.3823554e-05
5.2618509e-05
8.0813065e-05
0.00012272921
0.00018453387
0.00027495667
0.00040623779
0.00059533585
0.00086537923
0.0012472323
0.001780809
0.0025153152
0.0035068673
0.0048110313
0.0064675933
0.0084775327
0.01078056
0.013252386
0.015736934
0.018098891
0.020259096
0.022195063
0.023921263
0.025469203
0.026875283
0.028175506
0.029404075
0.030593649
0.03177608
0.032983202
0.034247426
0.035601518
0.037077608
0.038707433
0.040524238
0.042561895
0.044855459
0.047440253
0.050347113
0.053594824
0.057183951
0.061095716
0.065279475
0.069647838
0.074084542
0.078473312
0.082466578
0.085993712
0.089327182
0.092305919
0.093264774
2.0098154e-11
6.3155327e-10
5.1643925e-09
2.2209558e-08
6.8341292e-08
1.7243967e-07
3.8233687e-07
7.747486e-07
1.4699347e-06
2.6531744e-06
4.6060313e-06
7.7516209e-06
1.2719814e-05
2.0440664e-05
3.2277545e-05
5.0215703e-05
7.7127345e-05
0.00011714096
0.00017614985
0.00026250116
0.0003879084
0.00056861928
0.00082682948
0.0011922308
0.0017033609
0.0024080031
0.0033611802
0.0046184017
0.0062214539
0.0081762613
0.010430048
0.012865914
0.015331232
0.01768878
0.019854422
0.021800808
0.023539168
0.025099342
0.026517079
0.027828276
0.029067318
0.030267226
0.031460399
0.032679491
0.033958118
0.035330704
0.036831787
0.038496661
0.040363463
0.042472847
0.044868938
0.047598981
0.05070921
0.054234067
0.058195351
0.062598308
0.067416827
0.072601892
0.078078039
0.083803536
0.089150784
0.093685109
0.096922418
0.098560743
0.096235154
1.8961158e-11
5.95825e-10
4.8722338e-09
2.0953147e-08
6.4475346e-08
1.6268582e-07
3.6071283e-07
7.3093714e-07
1.3868262e-06
2.5032006e-06
4.3457415e-06
7.3137195e-06
1.2001552e-05
1.9287028e-05
3.0457082e-05
4.7385991e-05
7.2786111e-05
0.00011055754
0.00016627031
0.00024781909
0.00036629321
0.00053709562
0.00078130943
0.001127219
0.0016116937
0.0022807568
0.0031880052
0.0043886738
0.0059266497
0.007813489
0.010005359
0.012394623
0.014833539
0.017183185
0.019353549
0.021311175
0.023063063
0.024636801
0.026067189
0.027389886
0.028639385
0.029849015
0.031051653
0.032280675
0.03357078
0.034957892
0.036478795
0.038172193
0.04008098
0.042252537
0.044740194
0.047603127
0.050901276
0.054688903
0.059006865
0.063881667
0.069303327
0.075250983
0.081666491
0.0884678
0.094651959
0.099497539
0.10184276
0.10132556
0.095471604
1.767544e-11
5.5542334e-10
4.5418594e-09
1.9532387e-08
6.0103671e-08
1.5165587e-07
3.362593e-07
6.8139181e-07
1.2928381e-06
2.333588e-06
4.0513549e-06
6.8184296e-06
1.1189108e-05
1.7982021e-05
2.839755e-05
4.418428e-05
6.78734e-05
0.00010310597
0.00015508496
0.00023119063
0.00034180112
0.00050135414
0.0007296559
0.0010533647
0.0015074005
0.0021356861
0.0029900204
0.0041250452
0.0055866596
0.0073924823
0.0095088563
0.011839346
0.014242927
0.01657966
0.018752978
0.020722027
0.022488425
0.024076747
0.025520436
0.026854694
0.028113994
0.029331856
0.030541495
0.031776822
0.033073363
0.034468223
0.03600002
0.037710379
0.039646375
0.041861444
0.04441729
0.047383897
0.050834336
0.054837415
0.059455676
0.064727747
0.070643819
0.077199869
0.08430021
0.091687912
0.097981472
0.10244311
0.10333955
0.10044303
0.089096498
1.6268988e-11
5.1122773e-10
4.1804593e-09
1.7978199e-08
5.5321416e-08
1.3958988e-07
3.0950842e-07
6.2719068e-07
1.1900152e-06
2.1480261e-06
3.729273e-06
6.2765171e-06
1.0300133e-05
1.6553975e-05
2.6143621e-05
4.0679923e-05
6.2495428e-05
9.4946937e-05
0.00014283419
0.00021297138
0.00031495235
0.00046214684
0.00067294149
0.00097217331
0.0013925522
0.0019755648
0.0027708081
0.003831907
0.0052064708
0.0069182917
0.0089448174
0.011202719
0.013559926
0.01587676
0.018049812
0.020029552
0.021810877
0.023414394
0.024871619
0.026216981
0.027484722
0.028708373
0.029921272
0.031157577
0.032453262
0.03384611
0.035375923
0.037086423
0.039027852
0.041258466
0.043846749
0.046871412
0.050416704
0.054565025
0.059390884
0.064931762
0.071169036
0.078040899
0.085328765
0.092631708
0.098449024
0.10178661
0.10101588
0.095205397
0.075288411
1.4774627e-11
4.6426977e-10
3.796471e-09
1.6326867e-08
5.0240218e-08
1.267695e-07
2.8108459e-07
5.695988e-07
1.0807572e-06
1.9508445e-06
3.3870095e-06
5.7006207e-06
9.3553518e-06
1.5036165e-05
2.3747774e-05
3.695443e-05
5.6777111e-05
8.626959e-05
0.00012980122
0.00019358096
0.00028636201
0.00042036539
0.00061244286
0.00088544644
0.0012696457
0.0018037733
0.0025348018
0.0035148207
0.0047926246
0.0063979181
0.0083197583
0.010489644
0.012787025
0.015074495
0.017242089
0.019230478
0.021026331
0.022645094
0.024115593
0.025471023
0.0267451
0.027971103
0.0291822
0.030412417
0.031697667
0.033075746
0.034586748
0.036275357
0.038193589
0.040402792
0.042975992
0.045998295
0.049564247
0.053765616
0.058673036
0.064306867
0.070557992
0.077295637
0.0841691
0.090798134
0.095515841
0.09681565
0.093923001
0.083238511
0.050776516
1.3228774e-11
4.1569374e-10
3.3992514e-09
1.461863e-08
4.4983885e-08
1.1350711e-07
2.5168036e-07
5.100193e-07
9.6772554e-07
1.7468463e-06
3.0329002e-06
5.1047633e-06
8.3777636e-06
1.3465524e-05
2.1268282e-05
3.3098352e-05
5.0857299e-05
7.7284337e-05
0.00011630147
0.00017348737
0.00025671759
0.00037700922
0.00054959649
0.00079522193
0.0011415264
0.0016242046
0.0022871847
0.0031804298
0.0043531851
0.0058404047
0.0076427188
0.0097077804
0.011929306
0.014174941
0.016329282
0.018322427
0.020131226
0.021764504
0.023247388
0.02461121
0.025888734
0.027112642
0.028315562
0.029530915
0.030793927
0.032141592
0.033613185
0.035252932
0.037112904
0.039255364
0.041755319
0.044703253
0.048203002
0.052347171
0.05717757
0.062668133
0.068518624
0.074632594
0.080460657
0.085676997
0.088203989
0.086685757
0.079577872
0.059140015
0.021833465
1.1669781e-11
3.6670478e-10
2.9986546e-09
1.2895865e-08
3.9682819e-08
1.001317e-07
2.2202516e-07
4.4993011e-07
8.5372413e-07
1.5410915e-06
2.6757276e-06
4.5037219e-06
7.3916087e-06
1.1880993e-05
1.8766599e-05
2.9207224e-05
4.4882581e-05
6.8213511e-05
0.00010266861
0.00015318655
0.00022674912
0.00033314274
0.00048593852
0.00070369122
0.0010112779
0.0014411231
0.00203372
0.0028362795
0.0038975916
0.0052568026
0.006925447
0.0088680271
0.010995164
0.013183055
0.015313024
0.017304478
0.019122924
0.02076886
0.022262418
0.023632206
0.024909462
0.026125818
0.027312908
0.028502989
0.029729861
0.031028792
0.032436897
0.033996251
0.035756963
0.037779622
0.04013982
0.042936101
0.046277371
0.050233893
0.054778897
0.059783586
0.06475888
0.069572156
0.073453826
0.075907212
0.074684747
0.068597367
0.053323356
0.023415532
0.0074681667
1.0136073e-11
3.1851038e-10
2.6045553e-09
1.1201039e-08
3.4467693e-08
8.697301e-08
1.9285e-07
3.9081243e-07
7.4156309e-07
1.3386519e-06
2.3242963e-06
3.9123126e-06
6.4211971e-06
1.0321632e-05
1.6304396e-05
2.537697e-05
3.9000238e-05
5.9280693e-05
8.9238629e-05
0.00013317863
0.0001971946
0.0002898453
0.00042303327
0.00061309899
0.0008820838
0.0012589802
0.001780516
0.0024905391
0.0034363728
0.0046599589
0.0061824012
0.0079848848
0.0099970742
0.012107676
0.014198115
0.016178016
0.018000361
0.01965546
0.021156834
0.022529229
0.023801584
0.025003893
0.02616625
0.027319116
0.028494004
0.02972343
0.03104078
0.032483926
0.034098745
0.035941925
0.03809389
0.040661708
0.043741122
0.047347885
0.051287842
0.055287624
0.058542814
0.060921953
0.060764479
0.058420995
0.051664094
0.036512422
0.018275408
0.0070642779
0.0023180084
8.6640337e-12
2.7225381e-10
2.2263015e-09
9.5743527e-09
2.9462205e-08
7.4343139e-08
1.6484691e-07
3.3406862e-07
6.3390316e-07
1.1443303e-06
1.9869444e-06
3.3445693e-06
5.48956e-06
8.8244588e-06
1.394014e-05
2.1698579e-05
3.335008e-05
5.069834e-05
7.6331212e-05
0.00011394043
0.00016875932
0.00024815204
0.00036238796
0.00052562165
0.00075705784
0.0010821805
0.0015337153
0.0021516065
0.002980684
0.0040640574
0.0054304518
0.0070765483
0.0089522331
0.010962655
0.012993846
0.014947966
0.016765059
0.018423438
0.019928114
0.021298505
0.022560217
0.023740845
0.024868286
0.025970482
0.027075727
0.028212524
0.029408811
0.030695508
0.032112231
0.033715168
0.035598577
0.037853358
0.040525184
0.043532009
0.046290756
0.048224177
0.047697831
0.045192884
0.038820709
0.028921623
0.018042625
0.01061027
0.0051607175
0.0020763465
0.00075377591
7.2860321e-12
2.2895222e-10
1.8722114e-09
8.051578e-09
2.4776436e-08
6.2519864e-08
1.3863182e-07
2.8094685e-07
5.331128e-07
9.6240227e-07
1.6710964e-06
2.8129904e-06
4.6172141e-06
7.4224607e-06
1.1725958e-05
1.825322e-05
2.8056933e-05
4.2656346e-05
6.4232534e-05
9.5899641e-05
0.00014207769
0.00020899752
0.00030537037
0.00044324804
0.00063907197
0.0009148389
0.0012991549
0.0018276491
0.0025417169
0.0034839311
0.0046882275
0.0061645568
0.0078828366
0.0097678698
0.011715523
0.013624443
0.015422619
0.017074998
0.018576033
0.019938012
0.021181865
0.022331793
0.023412674
0.024449076
0.025465095
0.026483659
0.027525355
0.028609898
0.029774157
0.031089165
0.032644586
0.034454157
0.03642193
0.038141737
0.038145472
0.035713224
0.028863699
0.019168784
0.011987644
0.008153301
0.004960721
0.0028607298
0.0014474589
0.00065369075
0.00029510759
6.0284891e-12
1.894359e-10
1.549075e-09
6.6619191e-09
2.0500258e-08
5.1729967e-08
1.1470762e-07
2.3246633e-07
4.4112618e-07
7.9636006e-07
1.3828172e-06
2.3277881e-06
3.8209287e-06
6.1426102e-06
9.7044927e-06
1.5107348e-05
2.3223086e-05
3.5310532e-05
5.3177844e-05
7.9408697e-05
0.00011767425
0.00017315794
0.00025312339
0.00036765352
0.00053057204
0.00076051103
0.0010819775
0.0015260488
0.0021299334
0.0029340678
0.0039749792
0.0052727921
0.0068156904
0.0085498114
0.010385968
0.012224744
0.013984749
0.01561721
0.017104145
0.01844866
0.01966532
0.020773632
0.021794383
0.022747737
0.023652372
0.024523944
0.025373724
0.026205447
0.027076497
0.028063794
0.029183361
0.030251537
0.030676236
0.029214828
0.024363997
0.015200682
0.0087675882
0.0054504377
0.0033124882
0.0021766498
0.0013473784
0.00080979502
0.00045946077
0.00025940882
0.00016531967
4.9106564e-12
1.5430977e-10
1.2618386e-09
5.4266462e-09
1.6699123e-08
4.2138617e-08
9.344059e-08
1.8936947e-07
3.5935242e-07
6.4874822e-07
1.1265269e-06
1.8964067e-06
3.1129321e-06
5.0045858e-06
7.9068769e-06
1.2309514e-05
1.8923369e-05
2.8775071e-05
4.3339899e-05
6.4727216e-05
9.5937006e-05
0.00014121076
0.0002065039
0.00030010731
0.00043343669
0.0006219778
0.00088630067
0.0012528975
0.0017543039
0.0024274995
0.0033090834
0.0044257754
0.0057807718
0.0073410716
0.0090363296
0.010775231
0.012471655
0.014064403
0.015521905
0.016836036
0.018013008
0.019065971
0.020010184
0.020860021
0.021626984
0.02231784
0.022932043
0.023471022
0.02402136
0.02458425
0.024964683
0.024415724
0.02152572
0.014775218
0.007809124
0.0044341662
0.0024649545
0.0015116229
0.00093888486
0.00062818585
0.0004203323
0.00028713715
0.00020098665
0.00015282146
0.00012880096
3.9437383e-12
1.2392587e-10
1.0133803e-09
4.3581374e-09
1.3411126e-08
3.3841968e-08
7.5044022e-08
1.5208872e-07
2.8861259e-07
5.2105016e-07
9.0480394e-07
1.5231927e-06
2.5003708e-06
4.019902e-06
6.3513564e-06
9.8882392e-06
1.5201856e-05
2.311746e-05
3.4821335e-05
5.2010454e-05
7.7100016e-05
0.00011350834
0.0001660426
0.00024141081
0.0003488816
0.00050109497
0.00071497815
0.0010126128
0.0014216881
0.0019748196
0.002706548
0.0036465812
0.0048087295
0.0061782993
0.0077054111
0.0093123223
0.010914203
0.012440823
0.01384729
0.015112699
0.016232822
0.017212405
0.018059208
0.018779748
0.019375983
0.019843059
0.020163645
0.020386892
0.020538761
0.02035876
0.019146312
0.015463252
0.0082946941
0.0044608428
0.0022876913
0.0012789785
0.00073587142
0.00047497873
0.00032418339
0.0002399499
0.00018812262
0.00015550819
0.00013412089
0.00012361661
0.00011783979
3.1301808e-12
9.8361065e-11
8.0432884e-10
3.459098e-09
1.0644599e-08
2.6861067e-08
5.9564678e-08
1.207191e-07
2.2908759e-07
4.1359377e-07
7.1822051e-07
1.209115e-06
1.9848473e-06
3.1911602e-06
5.0420921e-06
7.8501051e-06
1.2068884e-05
1.8353864e-05
2.764741e-05
4.1297988e-05
6.1225703e-05
9.0150129e-05
0.00013190003
0.00019182723
0.00027734573
0.00039860689
0.00056929063
0.00080742065
0.0011359665
0.0015827359
0.0021786822
0.0029534044
0.0039268659
0.0050982347
0.0064366336
0.0078811758
0.009354486
0.010782499
0.012109213
0.013300552
0.014340078
0.015221809
0.01594334
0.016500144
0.016882129
0.017067172
0.01703237
0.016868106
0.016339194
0.014634652
0.010217945
0.0052041598
0.0025313651
0.0013188704
0.00070992171
0.00042759253
0.00028167135
0.00020956323
0.0001681435
0.00014485186
0.00013056519
0.00012202071
0.00011614167
0.00011482175
0.00011339278
2.4648653e-12
7.7454555e-11
6.3336992e-10
2.7238763e-09
8.3821563e-09
2.115208e-08
4.6905448e-08
9.5064041e-08
1.8040499e-07
3.2570797e-07
5.6561395e-07
9.5222184e-07
1.5631691e-06
2.5132506e-06
3.9710574e-06
6.1827108e-06
9.5055814e-06
1.4455983e-05
2.1776314e-05
3.252904e-05
4.8227362e-05
7.1015324e-05
0.00010391328
0.00015114723
0.00021858102
0.00031426448
0.00044909158
0.00063751549
0.00089816958
0.0012540616
0.0017317215
0.0023583512
0.0031559624
0.0041324215
0.0052719177
0.0065305981
0.0078427742
0.0091362519
0.010347962
0.011431946
0.012358638
0.01310899
0.013667059
0.014013892
0.014122396
0.013960934
0.013529608
0.012681735
0.01069628
0.0063058624
0.0032338766
0.0015875865
0.00079420435
0.00044826775
0.00028243625
0.00020448007
0.00016363707
0.00014151687
0.0001282748
0.00012067878
0.00011564372
0.00011281221
0.0001106773
0.00011112764
0.00011030901
1.9357128e-12
6.082677e-11
4.973996e-10
2.1391244e-09
6.5827312e-09
1.6611402e-08
3.6836678e-08
7.4658336e-08
1.4168251e-07
2.5580101e-07
4.4422248e-07
7.4786842e-07
1.2277205e-06
1.9739465e-06
3.1189685e-06
4.8561026e-06
7.4660373e-06
1.1354284e-05
1.7103891e-05
2.5549231e-05
3.7878599e-05
5.5775679e-05
8.1612493e-05
0.00011870875
0.00017167332
0.00024684033
0.00035279991
0.00050099246
0.00070626835
0.00098718934
0.0013656402
0.0018650519
0.0025063684
0.0033012803
0.0042438296
0.0053041358
0.0064293525
0.0075534951
0.0086111488
0.0095473262
0.01031968
0.010894213
0.011238308
0.011316041
0.011103225
0.010542143
0.0094876775
0.0072659071
0.0040180761
0.0020050405
0.0010058792
0.00052701266
0.00030924939
0.00021468846
0.00016929835
0.00014611215
0.00013231368
0.0001232218
0.00011750007
0.00011404723
0.00011128186
0.00010982946
0.00010829645
0.00010800939
0.00010669346
1.5250172e-12
4.7921299e-11
3.9186759e-10
1.6852738e-09
5.1861103e-09
1.3087116e-08
2.9021568e-08
5.8819612e-08
1.1162567e-07
2.0153686e-07
3.4999137e-07
5.8923234e-07
9.6730875e-07
1.5552652e-06
2.4574359e-06
3.8261251e-06
5.8824547e-06
8.9458394e-06
1.3475454e-05
2.0128239e-05
2.9839488e-05
4.3933846e-05
6.4276548e-05
9.3476462e-05
0.00013515325
0.00019427868
0.00027759339
0.00039407828
0.0005554129
0.00077626474
0.0010741044
0.0014680382
0.0019759756
0.0026095929
0.0033674984
0.004228936
0.0051518739
0.0060781419
0.0069437671
0.0076882901
0.0082583178
0.0086042909
0.0086782904
0.0084585923
0.0078706069
0.0067758557
0.0046269959
0.0024844916
0.0012710874
0.00065220851
0.00036501122
0.0002354606
0.00017874816
0.00015331295
0.00013903697
0.00013026334
0.000124059
0.00011884858
0.00011476877
0.00011205022
0.00010947574
0.0001077417
0.00010548474
0.00010511391
0.00010397913
1.2109506e-12
3.8052239e-11
3.1116517e-10
1.3382043e-09
4.1180745e-09
1.0391953e-08
2.304492e-08
4.6706561e-08
8.8638305e-08
1.6003453e-07
2.7791914e-07
4.6789612e-07
7.6812026e-07
1.2350051e-06
1.9513937e-06
3.0382068e-06
4.6709766e-06
7.1032059e-06
1.0699198e-05
1.5979914e-05
2.368656e-05
3.4867945e-05
5.0999091e-05
7.4139773e-05
0.00010714192
0.00015391268
0.00021973274
0.00031161228
0.00043863175
0.00061214966
0.00084565185
0.0011538682
0.0015506457
0.0020451213
0.0026363175
0.0033076082
0.0040238896
0.0047339029
0.0053771687
0.0058912296
0.0062152061
0.0062899356
0.0060919279
0.0055360263
0.004478055
0.0027892566
0.0015076931
0.00079691928
0.00043635511
0.00026622214
0.00019067922
0.00015837919
0.00014500815
0.00013695332
0.00013185541
0.0001265376
0.00012150138
0.00011677519
0.00011290478
0.00010964931
0.00010684312
0.00010504705
0.00010352228
0.00010309196
0.00010187448
9.6924561e-13
3.0457038e-11
2.4905689e-10
1.0711002e-09
3.2961092e-09
8.317712e-09
1.8445096e-08
3.738371e-08
7.0945455e-08
1.2809002e-07
2.2244275e-07
3.7449578e-07
6.1478535e-07
9.8845797e-07
1.5618049e-06
2.4315726e-06
3.7381677e-06
5.6842926e-06
8.561091e-06
1.2784585e-05
1.8946027e-05
2.7880759e-05
4.0761108e-05
5.9219454e-05
8.5507256e-05
0.00012269327
0.00017489727
0.00024754054
0.00034756568
0.00048352752
0.00066537799
0.00090366279
0.0012077607
0.0015828458
0.002025659
0.0025200885
0.0030345611
0.0035231724
0.0039302768
0.0041959702
0.0042598239
0.004092103
0.003626316
0.0027375531
0.001648289
0.00090437098
0.00049860287
0.0002974407
0.00020360255
0.00016255205
0.00014514748
0.00013909545
0.0001364196
0.00013388807
0.00012955657
0.00012399939
0.00011830323
0.0001135638
0.00010984258
0.00010714656
0.00010507811
0.00010365273
0.00010187677
0.00010113678
9.993929e-05
7.7558536e-13
2.437157e-11
1.9929417e-10
8.5708878e-10
2.6375218e-09
6.6557343e-09
1.4759431e-08
2.9913469e-08
5.676802e-08
1.0249162e-07
1.7798531e-07
2.9964303e-07
4.918922e-07
7.9084346e-07
1.2495106e-06
1.9452421e-06
2.9902478e-06
4.546427e-06
6.8461198e-06
1.0220916e-05
1.5141257e-05
2.2270193e-05
3.253514e-05
4.7221531e-05
6.8091215e-05
9.7525247e-05
0.00013868348
0.00019565922
0.00027358213
0.00037858204
0.0005174687
0.00069691392
0.00092189439
0.0011932259
0.0015043547
0.0018382125
0.0021655733
0.0024462204
0.0026322608
0.0026725764
0.0025395488
0.0021651846
0.001528163
0.00091546978
0.00053098491
0.00031568519
0.00020713365
0.00016166107
0.00014265593
0.00013606689
0.00013598997
0.00013634377
0.00013550036
0.00013255982
0.0001259241
0.00011954952
0.00011483986
0.00011124502
0.00010837832
0.00010591186
0.00010357446
0.0001018275
0.00010018683
9.9453479e-05
9.8351715e-05
6.0917867e-13
1.9142499e-11
1.5653435e-10
6.7319362e-10
2.0716089e-09
5.227612e-09
1.1592328e-08
2.3494138e-08
4.4584726e-08
8.0492974e-08
1.3977777e-07
2.3530909e-07
3.8626016e-07
6.2096749e-07
9.8101728e-07
1.5270548e-06
2.3469968e-06
3.5675666e-06
5.37037e-06
8.0140862e-06
1.1864726e-05
1.743623e-05
2.544378e-05
3.6871704e-05
5.3056252e-05
7.5779674e-05
0.00010736453
0.0001507438
0.00020946047
0.00028751896
0.00038897316
0.00051710926
0.00067309674
0.00085406733
0.0010509431
0.001246719
0.0014160106
0.0015264361
0.0015402402
0.0014418858
0.0011816285
0.00081154423
0.00049916548
0.00030552044
0.00019911187
0.00015097371
0.00012973181
0.0001273471
0.00012938042
0.00013434121
0.00013799798
0.00013730863
0.00013474368
0.00012774888
0.00012109083
0.00011668962
0.00011300163
0.00010954637
0.00010640711
0.00010375385
0.00010181571
0.00010040569
9.8872304e-05
9.8058e-05
9.7031449e-05
4.5745389e-13
1.4374779e-11
1.1754707e-10
5.0552252e-10
1.5556227e-09
3.9254822e-09
8.7046298e-09
1.7641097e-08
3.3476074e-08
6.0434339e-08
1.0493856e-07
1.7664402e-07
2.899298e-07
4.6603707e-07
7.3611901e-07
1.1455665e-06
1.7601028e-06
2.6743059e-06
4.0234093e-06
5.9994496e-06
8.87301e-06
1.3021884e-05
1.8967747e-05
2.742109e-05
3.9332624e-05
5.5945391e-05
7.8834613e-05
0.00010991074
0.00015134432
0.00020535085
0.00027375507
0.00035725805
0.00045438796
0.00056024946
0.00066537594
0.00075515977
0.00081024566
0.00080896107
0.00074025362
0.00058285024
0.00039902874
0.00026382388
0.00017510838
0.00013041246
0.00010970147
0.00010881804
0.00011414215
0.00012484904
0.00013740713
0.00014012538
0.00013944768
0.00013689319
0.00012961433
0.00012278643
0.00011855209
0.00011454912
0.00011058562
0.00010719608
0.00010454102
0.00010260839
0.00010078668
9.9211742e-05
9.7637256e-05
9.679178e-05
9.5809806e-05
3.1882066e-13
1.0018441e-11
8.1923759e-11
3.5231873e-10
1.0841603e-09
2.7357228e-09
6.066168e-09
1.2293316e-08
2.3326536e-08
4.2107844e-08
7.3108299e-08
1.2304627e-07
2.0192106e-07
3.24492e-07
5.1238236e-07
7.9705211e-07
1.2239652e-06
1.8583756e-06
2.7932631e-06
4.1600462e-06
6.1427393e-06
8.9961082e-06
1.3067963e-05
1.8824713e-05
2.6877297e-05
3.8000972e-05
5.3136609e-05
7.3352604e-05
9.9735833e-05
0.0001331704
0.00017396828
0.00022133948
0.00027271158
0.00032312772
0.00036491962
0.00038791266
0.00038086243
0.0003387545
0.00026496534
0.00019122411
0.00013470757
0.00010302753
8.6403859e-05
8.4833016e-05
9.0792256e-05
0.00010498804
0.00012793619
0.00013987448
0.00014246427
0.00014173219
0.00013907007
0.00013142588
0.00012460046
0.00012042321
0.00011611947
0.00011195264
0.00010857915
0.00010585749
0.00010351634
0.00010123118
9.93431e-05
9.789483e-05
9.6487581e-05
9.5661531e-05
9.479472e-05
2.0038703e-13
6.2968448e-12
5.1490969e-11
2.2143814e-10
6.8139863e-10
1.7193535e-09
3.8122883e-09
7.7251999e-09
1.4657141e-08
2.6454914e-08
4.5923646e-08
7.7275418e-08
1.2677334e-07
2.036503e-07
3.2141045e-07
4.9965761e-07
7.6663896e-07
1.1627402e-06
1.7452109e-06
2.5944179e-06
3.8218723e-06
5.5800919e-06
8.0739e-06
1.1571852e-05
1.6414837e-05
2.3016228e-05
3.1844049e-05
4.3370616e-05
5.7971364e-05
7.575431e-05
9.6310508e-05
0.00011841275
0.0001397224
0.00015664943
0.00016441208
0.00015901683
0.00013974616
0.00011281848
8.8277232e-05
7.1430739e-05
6.1132355e-05
6.1247129e-05
6.6125804e-05
7.8632807e-05
0.00010435622
0.00013205931
0.00014222241
0.00014466775
0.00014393628
0.00014128486
0.0001335258
0.00012643737
0.00012226328
0.00011766673
0.00011348913
0.00011010662
0.00010706092
0.00010425119
0.00010175358
9.9909042e-05
9.8373331e-05
9.6953218e-05
9.5519417e-05
9.4720188e-05
9.389663e-05
1.1085611e-13
3.4834732e-12
2.8485118e-11
1.2249906e-10
3.7693698e-10
9.5106851e-10
2.1086347e-09
4.2724942e-09
8.105147e-09
1.4626385e-08
2.5383959e-08
4.2699465e-08
7.0020145e-08
1.1241843e-07
1.7729521e-07
2.7535981e-07
4.2197811e-07
6.3899703e-07
9.5715956e-07
1.4192049e-06
2.0836731e-06
3.0292519e-06
4.3591428e-06
6.2042677e-06
8.7230741e-06
1.2094132e-05
1.6495859e-05
2.2065712e-05
2.8831697e-05
3.6613529e-05
4.490186e-05
5.2747366e-05
5.8706192e-05
6.0963482e-05
5.895548e-05
5.3441808e-05
4.7208897e-05
4.2134724e-05
3.8645151e-05
4.0297938e-05
4.4607508e-05
5.4927782e-05
7.4760737e-05
0.00010715268
0.00013283433
0.00014404123
0.00014679135
0.00014608881
0.00014356194
0.00013588416
0.00012841299
0.00012407093
0.00011936448
0.00011523525
0.00011175503
0.00010832804
0.00010527494
0.00010279041
0.00010087027
9.9041838e-05
9.7310427e-05
9.5864323e-05
9.458072e-05
9.3810498e-05
9.3070415e-05
5.3038408e-14
1.6666432e-12
1.3628393e-11
5.8607082e-11
1.8033023e-10
4.5497043e-10
1.0086265e-09
2.0433865e-09
3.8756747e-09
6.9921679e-09
1.213069e-08
2.0396341e-08
3.3426854e-08
5.362589e-08
8.4488674e-08
1.3105052e-07
2.0049423e-07
3.0295429e-07
4.5254872e-07
6.6864373e-07
9.7729479e-07
1.4126851e-06
2.0181617e-06
2.8461115e-06
3.9554135e-06
5.4045287e-06
7.2378458e-06
9.462945e-06
1.2018169e-05
1.4734874e-05
1.7305748e-05
1.9278181e-05
2.0357969e-05
2.0693604e-05
2.0634158e-05
2.0553119e-05
2.1417312e-05
2.4100484e-05
2.7824596e-05
3.6313126e-05
5.150639e-05
7.6140796e-05
0.00010779629
0.00013232164
0.00014502675
0.00014883003
0.00014820559
0.00014588176
0.00013854089
0.00013054576
0.00012594353
0.00012108889
0.00011706136
0.00011329646
0.00010964882
0.00010655218
0.00010401167
0.00010178227
9.9611021e-05
9.7779697e-05
9.6336473e-05
9.506068e-05
9.3789084e-05
9.3049168e-05
9.237349e-05
2.1966112e-14
6.9024684e-13
5.6441921e-12
2.4271443e-11
7.4677961e-11
1.8839626e-10
4.1760695e-10
8.4589073e-10
1.604019e-09
2.8929217e-09
5.0168031e-09
8.4304717e-09
1.3806331e-08
2.212815e-08
3.4820564e-08
5.3924903e-08
8.2332646e-08
1.2408606e-07
1.8474861e-07
2.7183103e-07
3.9522541e-07
5.6753989e-07
8.0413118e-07
1.1224929e-06
1.5405176e-06
2.0730218e-06
2.7260762e-06
3.4893572e-06
4.3283771e-06
5.1815254e-06
5.9988203e-06
6.8321053e-06
7.7677243e-06
8.9496756e-06
1.0526661e-05
1.2528618e-05
1.6637757e-05
2.3139161e-05
3.459072e-05
5.2283528e-05
7.6792487e-05
0.00010510901
0.00012882119
0.00014472476
0.00015071668
0.00015040061
0.00014829718
0.00014139881
0.00013274589
0.00012788135
0.00012286106
0.00011885301
0.000114964
0.00011119773
0.00010811921
0.0001053039
0.00010271524
0.00010040079
9.860433e-05
9.7078368e-05
9.5570833e-05
9.4179077e-05
9.3004491e-05
9.2351281e-05
9.172203e-05
8.5599187e-15
2.6898008e-13
2.1994488e-12
9.4580023e-12
2.909925e-11
7.3407245e-11
1.6270491e-10
3.295331e-10
6.2478037e-10
1.126584e-09
1.9531366e-09
3.280938e-09
5.3705369e-09
8.6024036e-09
1.352619e-08
2.0927151e-08
3.191359e-08
4.8028349e-08
7.1384672e-08
1.0482091e-07
1.5205805e-07
2.1782759e-07
3.0791694e-07
4.2906443e-07
5.8865218e-07
7.9424903e-07
1.0531118e-06
1.3721645e-06
1.7622372e-06
2.2438713e-06
2.8626929e-06
3.7248642e-06
5.0048692e-06
6.9320057e-06
9.918259e-06
1.4889204e-05
2.2944422e-05
3.522069e-05
5.2404801e-05
7.4919206e-05
0.00010127763
0.0001261422
0.00014588758
0.00015271633
0.00015287495
0.00015088153
0.00014428639
0.00013516801
0.00013003404
0.00012480017
0.0001206789
0.00011668907
0.00011294349
0.00010964062
0.00010657088
0.00010376972
0.00010146776
9.9588561e-05
9.7778647e-05
9.605634e-05
9.46294e-05
9.3469197e-05
9.2367201e-05
9.1695153e-05
9.1109806e-05
4.3707124e-15
1.37342e-13
1.1230539e-12
4.8294439e-12
1.4859462e-11
3.7488672e-11
8.3103927e-11
1.6834656e-10
3.1926249e-10
5.7588973e-10
9.9888605e-10
1.6790294e-09
2.7507283e-09
4.4110718e-09
6.9464399e-09
1.076929e-08
1.6468423e-08
2.4876788e-08
3.7161624e-08
5.494286e-08
8.0447533e-08
1.1671208e-07
1.6785565e-07
2.3947582e-07
3.3928809e-07
4.7828584e-07
6.7271583e-07
9.4802432e-07
1.3440212e-06
1.9253237e-06
2.8013467e-06
4.1663052e-06
6.326052e-06
9.7500563e-06
1.5131025e-05
2.3303027e-05
3.506785e-05
5.1256867e-05
7.2596756e-05
9.8525357e-05
0.00012493292
0.000146658
0.0001546253
0.00015533212
0.00015351582
0.00014739396
0.00013777384
0.00013236101
0.00012682376
0.0001225224
0.00011842335
0.00011472819
0.00011127899
0.00010796379
0.00010517678
0.0001027365
0.00010058067
9.8500754e-05
9.674564e-05
9.5358885e-05
9.4052405e-05
9.277713e-05
9.1692052e-05
9.1141048e-05
9.0592168e-05
4.2829022e-15
1.3458323e-13
1.1005172e-12
4.7327853e-12
1.4563606e-11
3.6748681e-11