/*--------------------------------*- C++ -*----------------------------------*\
  =========                 |
  \\      /  F ield         | OpenFOAM: The Open Source CFD Toolbox
   \\    /   O peration     | Website:  https://openfoam.org
    \\  /    A nd           | Version:  13
     \\/     M anipulation  |
\*---------------------------------------------------------------------------*/
FoamFile
{
    format      ascii;
    class       volScalarField;
    location    "0.09";
    object      p;
}
// * * * * * * * * * * * * * * * * * * * * * * * * * * * * * * * * * * * * * //

dimensions      [1 -1 -2 0 0 0 0];

internalField   nonuniform List<scalar> 
1000
(
7970.08
7969.91
7969.41
7968.68
7967.87
7967.08
7966.37
7965.72
7965.09
7964.46
7963.79
7963.09
7962.37
7961.65
7960.93
7960.22
7959.52
7958.84
7958.18
7957.52
7956.88
7956.26
7955.64
7955.04
7954.46
7953.88
7953.32
7952.76
7952.2
7951.65
7951.09
7950.52
7949.94
7949.35
7948.75
7948.12
7947.47
7946.8
7946.11
7945.38
7944.63
7943.85
7943.04
7942.2
7941.33
7940.43
7939.51
7938.57
7937.61
7936.63
7935.63
7934.62
7933.6
7932.56
7931.51
7930.44
7929.37
7928.3
7927.23
7926.18
7925.13
7924.14
7923.08
7922.04
7921.18
7919.95
7918.62
7918.24
7917.19
7915.33
7915.33
7915.18
7912.49
7912.06
7912.81
7910.16
7908.03
7908.15
7909.67
7906.5
7903.58
7903.68
7905.87
7903.03
7899.13
7898.79
7901.38
7900.37
7894.84
7893.46
7894.94
7897.81
7892.88
7888.65
7890.09
7893.96
7889.41
7883.94
7882.64
7883.47
7887.55
7885.56
7879.86
7879.87
7884
7881.06
7873.76
7874.31
7880.45
7877.21
7867.14
7867.17
7875.57
7874.78
7861.38
7858.89
7868.36
7872.38
7857.8
7850.62
7858.2
7867.73
7857.71
7844.27
7847.41
7860.56
7857.58
7839.91
7838.22
7851.63
7855.26
7838.39
7831.38
7840.33
7849.69
7840.75
7827.52
7827.68
7839.55
7841.59
7826.16
7820.7
7828.94
7836.47
7823.24
7812.37
7818.6
7830.54
7821.85
7804.5
7805.57
7821.43
7822.29
7800.19
7794.01
7808.06
7818.09
7801.7
7786.67
7793
7809.25
7804.7
7783.3
7781.6
7797.62
7801.99
7783.6
7776.03
7784.95
7793.51
7785.51
7774.26
7772.3
7778.71
7783.7
7775.02
7768.17
7769.31
7776.22
7770.99
7759.42
7759.85
7769.45
7767.1
7751.06
7749.09
7760.61
7763.8
7745.51
7738.62
7748.15
7758.02
7744.51
7729.61
7732.87
7748.37
7746.13
7723.28
7718.54
7733.71
7743.14
7724.41
7708.85
7715.08
7733.23
7729.24
7703.9
7700.67
7718.46
7725.98
7705.5
7692.87
7700.77
7715.53
7709.66
7688.88
7686.09
7700.05
7706.97
7691.81
7679.54
7679.43
7690.76
7694.16
7679.47
7672.39
7674.43
7683.78
7678.39
7663.76
7663.87
7673.6
7671.36
7655.96
7654.48
7662.8
7664.34
7651.79
7648.87
7647.12
7649.87
7651.55
7642.55
7638.24
7638.96
7642.86
7635.68
7628.65
7628.76
7633.38
7628.51
7618.77
7618.09
7618.58
7621.63
7615.3
7609.08
7608.35
7610.98
7608.43
7599.98
7598.93
7601.28
7598.82
7590.74
7589.19
7590.54
7589.59
7581.79
7579.17
7579.72
7580.45
7572.69
7568.81
7568.83
7571.05
7563.81
7558.31
7558.08
7561.26
7555.38
7547.51
7547.27
7550.55
7547.05
7537.19
7537.1
7539.35
7538.47
7527.72
7525.94
7525.7
7528.77
7522.32
7515.05
7514.48
7516.39
7514.81
7503.19
7502.76
7502.74
7505.72
7498.7
7491.96
7489.8
7490.44
7492.45
7482.4
7478.79
7477.88
7480.4
7479.52
7467.42
7464.53
7463.99
7466.53
7465.54
7454.77
7453
7450.71
7451.2
7452.62
7442.55
7437.79
7437.44
7439.38
7439.03
7427.39
7425.74
7424.38
7426.6
7424.82
7411.87
7410.96
7409.95
7411.83
7410.5
7400.76
7396.64
7396.14
7398.7
7396.97
7385.22
7384.11
7382.68
7384.41
7383.46
7371.58
7369.26
7368.19
7370.29
7369.56
7357.76
7355.84
7355.12
7357.34
7352.14
7344.13
7342.91
7345.45
7343.2
7332.03
7329.71
7329.55
7332.84
7324.95
7318.53
7316.22
7317.24
7318.65
7307.44
7302.04
7301.61
7304.66
7303.67
7292.21
7288.36
7287.69
7290.6
7290.35
7278.17
7273.47
7272.61
7274.3
7276.23
7265.83
7259.99
7257.94
7255.95
7256.01
7259.08
7250.23
7242.56
7241.26
7241.74
7245.19
7235.75
7228.44
7226.28
7226.31
7230.47
7222.86
7214.47
7212.18
7211.12
7213.52
7211.88
7199.7
7198.02
7196.17
7194.67
7197.81
7194.6
7184.81
7180.73
7180.48
7183.98
7179.8
7169.38
7168.85
7169.92
7170.76
7160.26
7157.22
7155.13
7155.72
7155.24
7144.98
7142.84
7142.21
7145.23
7140.79
7128.64
7127.61
7127.06
7130.86
7124.86
7117.54
7114.98
7114.59
7116.15
7110.25
7101.58
7100.1
7099.31
7102.67
7098.58
7089.77
7085.63
7084.76
7086.11
7086.18
7076.03
7073.51
7070.99
7071.08
7072.9
7061.91
7059.05
7057.61
7060.59
7059.36
7047.81
7043.83
7043.66
7046.62
7044.25
7034.8
7032
7030.88
7032.5
7030.47
7020.25
7018.56
7017.32
7019.76
7019.01
7007.32
7001.82
7002.07
7002.76
7005.64
6995.26
6991.39
6989.21
6988.81
6992.32
6987.05
6977.41
6973.76
6973.93
6975.43
6976.08
6964.55
6962.57
6960.74
6959.6
6962.5
6956.6
6949.23
6948.12
6949.45
6949.74
6938.72
6936.67
6936.22
6939.45
6934.23
6923.68
6924.02
6926.19
6926.04
6916.03
6912.25
6911.98
6915.88
6910.29
6900.57
6900.8
6902.63
6902.65
6891.56
6889.89
6888.74
6889.74
6887.72
6879.35
6875.94
6875.89
6879.62
6873.53
6864.04
6864.61
6866.54
6866.37
6855.55
6854.28
6853.83
6854.71
6849.5
6844.27
6841.98
6842.32
6842.46
6834.91
6830.66
6830.46
6833.38
6826.78
6819.64
6819.48
6822.77
6819.1
6808.95
6808.92
6811.06
6810.44
6799.93
6798.93
6799
6799.83
6792.29
6788.71
6787.22
6788.66
6787.16
6776.36
6775.93
6776.5
6778.99
6771.94
6763.42
6763.67
6765.98
6765.21
6757.59
6752.64
6752.7
6755.57
6749.22
6744.54
6742.06
6743.19
6744.18
6733.61
6731.67
6730.84
6733.98
6730.92
6721.2
6719.76
6720.15
6722.94
6715.43
6710
6709.64
6711.74
6707.95
6702.35
6699.28
6699.53
6701.03
6692.63
6689.12
6689.07
6692.28
6687.11
6679.1
6678.04
6678.9
6679.79
6670.6
6668.4
6668.31
6671.43
6666.99
6656.95
6656.33
6656.75
6659.43
6650.94
6648.12
6646.96
6649.27
6647.58
6635.56
6635.05
6634.87
6638.93
6633.73
6627.4
6624.38
6625.04
6628.4
6620.86
6613.94
6613.45
6614.51
6616.09
6606.99
6605.34
6603.86
6606.12
6605.08
6593.18
6592.16
6592.1
6595.9
6593.47
6585.73
6582.31
6581.43
6582.59
6582.17
6572.09
6571.39
6570.15
6572.84
6572.21
6563.3
6560
6558.92
6560.63
6561.16
6551.15
6549.94
6548.24
6547.72
6550.77
6544.23
6540.88
6538.43
6537.94
6539.89
6534.27
6528.46
6527.86
6528.53
6529.88
6522.94
6519.61
6517.69
6519.28
6520.38
6510.19
6506.37
6505.97
6509.21
6509.37
6502.34
6498.68
6497.93
6499.69
6498.57
6488.63
6488.53
6488.02
6492.33
6489.15
6477.26
6477.24
6477.96
6483.51
6479.17
6470.72
6467.76
6468.62
6473.25
6467.41
6458.86
6459.41
6459.79
6464.66
6460.06
6451.11
6449.45
6450.11
6453.84
6450.05
6440.92
6439.62
6439.8
6444.67
6442.15
6433.86
6433.24
6431.01
6432.09
6435.6
6426.44
6421.77
6419.58
6420.51
6427.82
6423.53
6411.18
6408.83
6407.81
6415.4
6418.68
6405.95
6400.15
6403.12
6410.37
6407.06
6397.37
6395.59
6393.92
6393.11
6398.08
6399.22
6387.6
6383.69
6385.89
6394.38
6391.27
6377.94
6374.77
6372.33
6377.83
6388.14
6376.4
6361.18
6367.61
6384.67
6379.62
6356.42
6351.59
6366.8
6380.7
6369.76
6348.31
6343.32
6351.96
6372.56
6370.07
6343
6335.13
6339.02
6363.88
6367.51
6341.25
6330.39
6344.81
6362.55
6352.62
6327.01
6321.22
6317.35
6338.64
6355.72
6342.85
6316.72
6317.44
6343.23
6349.73
6321.73
6306.52
6305.09
6332.68
6345.27
6326.59
6301.43
6298.72
6324.4
6338.18
6321
6295.69
6297
6323.23
6329.34
6302.01
6288.06
6282.7
6287.55
6317.27
6324.06
6297.29
6279.39
6287.14
6313.08
6313.29
6281.35
6270.71
6283.8
6308.94
6308.43
6275.53
6264.79
6265.04
6294.51
6305.65
6287.21
6261.08
6259.73
6286.71
6298.06
6275.26
6253.24
6252.98
6281.22
6292.4
6271.68
6247.19
6247.36
6275.09
6284.45
6259.28
6239.93
6246.65
6273.2
6275.22
6243.66
6232.15
6248.2
6270.05
6262.98
6231.03
6225.72
6249.02
6264.76
6249.01
6222.06
6220.42
6247.2
6258.89
6236.56
6213.72
6215.57
6244.23
6252.12
6225.24
6206.9
6210.92
6239.05
6245.36
6216.48
6199.44
6205.67
6234.47
6238.63
6207.85
6193.19
6200.36
6228.75
6232.2
6200.74
6187.29
6195.06
6222.73
6225.92
6194.26
6181.37
6190.02
6216.77
6219.86
6188.74
6174.54
6184.51
6212.83
6214.06
6181.13
6169.9
6179.78
6205.93
6208.66
6177.57
6163.23
6172.43
6201.91
6204.23
6172.01
6159.81
6165.69
6193.53
6200.19
6171.96
6153.23
6158.33
6189.65
6195.1
6166.93
6151.26
6150.75
6179.12
6192.4
6174.47
6145.52
6142.12
6161.13
6182.38
6182.93
6151.51
6138.52
6147.45
6175.54
6181.01
6152.38
6135.25
6140.05
6169.52
6178.91
6154.34
6131.18
6129.99
6158.15
6172.27
6165.06
6135.36
6125.16
6140.84
6169.28
6167.83
6133.24
6124.82
6135.19
6160.92
6166.18
6137.44
6119.07
6126.42
6159.9
6164.16
6137.57
6121.83
6116.24
6142.55
6163.19
6156.07
6119.61
6115.01
6125.87
6151.38
6159.54
6133.95
6111.73
6110.25
6133.13
6151.99
6155.56
6125.5
6108.7
6109.32
6141.74
6153.19
6141.76
6112.94
6105.88
6123.69
6146.74
6149.92
6122.03
6104.96
6106.43
6136.42
6152.93
6138.08
6099.49
6107.22
6136.11
)
;

boundaryField
{
    sides
    {
        type            zeroGradient;
    }
    empty
    {
        type            empty;
    }
}


// ************************************************************************* //
