/*--------------------------------*- C++ -*----------------------------------*\
  =========                 |
  \\      /  F ield         | OpenFOAM: The Open Source CFD Toolbox
   \\    /   O peration     | Website:  https://openfoam.org
    \\  /    A nd           | Version:  13
     \\/     M anipulation  |
\*---------------------------------------------------------------------------*/
FoamFile
{
    format      ascii;
    class       surfaceScalarField;
    location    "0.09";
    object      phi;
}
// * * * * * * * * * * * * * * * * * * * * * * * * * * * * * * * * * * * * * //

dimensions      [1 0 -1 0 0 0 0];

internalField   nonuniform List<scalar> 
999
(
18.2716
18.3341
18.3966
18.4592
18.5217
18.5842
18.6465
18.7088
18.7708
18.8326
18.8942
18.9555
19.0165
19.0772
19.1374
19.1973
19.2566
19.3156
19.374
19.432
19.4895
19.5465
19.6031
19.6592
19.7149
19.7703
19.8254
19.8803
19.9349
19.9893
20.0436
20.0979
20.1521
20.2063
20.2606
20.315
20.3695
20.4241
20.4788
20.5338
20.5889
20.6442
20.6997
20.7553
20.8112
20.8672
20.9233
20.9795
21.0359
21.0923
21.1488
21.2055
21.2623
21.3191
21.376
21.4331
21.4899
21.5466
21.6035
21.6595
21.716
21.7721
21.8262
21.8851
21.9437
21.9888
22.0545
22.1314
22.1512
22.2174
22.3148
22.3388
22.3789
22.4778
22.5487
22.5293
22.5981
22.7232
22.8017
22.7488
22.8124
22.9478
23.05
22.9718
23.026
23.1475
23.2956
23.224
23.2352
23.3089
23.5059
23.5752
23.4519
23.5135
23.732
23.8298
23.6732
23.7159
23.7798
23.9782
24.1185
24.0123
24.0403
24.2167
24.3712
24.1985
24.2153
24.4536
24.6404
24.393
24.3717
24.6358
24.9009
24.667
24.5346
24.7387
25.1233
25.0448
24.7045
24.7972
25.3009
25.4241
24.9304
24.9174
25.3978
25.6838
25.2762
25.1174
25.4321
25.858
25.7199
25.3583
25.4759
25.9979
26.1245
25.6602
25.6396
25.9703
26.3202
26.1722
25.8892
26.0131
26.493
26.5364
26.0526
26.0958
26.6526
26.8576
26.2698
26.187
26.6626
27.0751
26.7306
26.3579
26.5567
27.2014
27.259
26.581
26.5707
27.2452
27.5563
26.9911
26.7891
27.1738
27.6629
27.5245
27.0971
27.2136
27.7401
27.8754
27.4582
27.4587
27.5997
27.9707
28.0282
27.7455
27.788
28.0868
28.2893
27.9211
27.8988
28.2308
28.532
28.1561
28.0145
28.2874
28.7223
28.5477
28.1552
28.2733
28.8681
28.9794
28.3277
28.2993
28.8786
29.2515
28.7275
28.4338
28.7021
29.3532
29.3498
28.6239
28.6262
29.3295
29.6809
29.0845
28.7957
29.1075
29.7586
29.7443
29.0351
29.0408
29.7835
30.0883
29.4208
29.2391
29.6099
30.12
30.0692
29.5634
29.5943
29.8594
30.2708
30.2121
29.8498
29.8997
30.2776
30.5093
30.073
30.0352
30.3508
30.6702
30.3088
30.1941
30.4202
30.762
30.686
30.4789
30.5169
30.6617
30.9261
30.8222
30.6876
30.7927
31.0134
31.0618
30.837
30.9238
31.0976
31.2552
31.0047
31.0377
31.1021
31.3146
31.4229
31.1987
31.2676
31.389
31.5694
31.3916
31.417
31.5327
31.7225
31.5271
31.5324
31.6581
31.8746
31.6943
31.6531
31.7854
32.0005
31.8741
31.7804
31.9121
32.1032
32.0556
31.9077
32.0312
32.1803
32.2317
32.0456
32.1512
32.2488
32.3909
32.2232
32.2561
32.3047
32.5045
32.4694
32.3644
32.4326
32.6024
32.6454
32.4345
32.5118
32.6292
32.8516
32.688
32.6377
32.6773
32.8746
32.9614
32.7002
32.7512
32.9
33.129
33.0251
32.8592
32.9209
33.0124
33.2443
33.1404
33.0101
33.0969
33.1811
33.418
33.2355
33.1512
33.2075
33.3409
33.5628
33.4288
33.2808
33.3726
33.4351
33.6654
33.5786
33.4301
33.4757
33.5916
33.8195
33.6717
33.5594
33.6382
33.7499
33.9855
33.732
33.6716
33.7643
33.8537
34.0816
33.9015
33.8208
33.874
33.9794
34.2043
34.0496
33.936
34.0019
34.0898
34.3172
34.1876
34.0699
34.1299
34.2933
34.4732
34.1811
34.2209
34.3342
34.5537
34.3167
34.2689
34.3622
34.5532
34.6485
34.3401
34.3747
34.5151
34.7669
34.6364
34.4428
34.5386
34.629
34.8846
34.6583
34.5446
34.6222
34.7228
34.9803
34.7877
34.6215
34.7019
34.7899
35.051
35.0205
34.7434
34.7856
34.8454
34.9427
35.1499
35.2385
34.9006
34.9619
35.0428
35.2808
35.3133
34.9938
35.0474
35.1503
35.3483
35.4769
35.1129
35.1481
35.2258
35.383
35.6395
35.3307
35.2646
35.3699
35.4207
35.5101
35.7184
35.4232
35.3983
35.5317
35.6386
35.8135
35.5391
35.5531
35.5985
35.8355
35.8859
35.6129
35.6486
35.814
36.0633
35.8131
35.7249
35.7647
35.9281
36.1067
35.8295
35.836
35.9337
36.0803
36.2374
35.8934
35.9053
35.9812
36.1924
36.402
36.0021
36.0461
36.1253
36.248
36.4456
36.1228
36.1247
36.2243
36.3275
36.577
36.343
36.2288
36.2744
36.403
36.6271
36.6342
36.3696
36.3998
36.4961
36.7269
36.5581
36.4387
36.5554
36.6536
36.8921
36.5889
36.5444
36.6134
36.7839
37.0369
36.7026
36.664
36.7173
36.8293
37.0785
36.8721
36.7303
36.8454
36.9203
37.1788
37.1199
36.8661
36.9105
36.9732
37.1438
37.3049
36.9692
36.9774
37.0889
37.1755
37.4393
37.3052
37.1151
37.2017
37.2759
37.4177
37.5407
37.2462
37.2933
37.3782
37.6093
37.5622
37.3851
37.4295
37.5934
37.7116
37.4559
37.5298
37.5952
37.8203
37.6826
37.5526
37.6709
37.8142
37.9153
37.6484
37.7112
37.7599
38.0007
37.9893
37.766
37.804
37.9821
38.2224
37.8901
37.8551
37.9939
38.1408
38.2245
37.9509
38.0341
38.0876
38.3078
38.2911
38.1041
38.1273
38.3215
38.5214
38.1918
38.1965
38.356
38.5883
38.371
38.2698
38.4151
38.5917
38.5742
38.3564
38.4764
38.5803
38.7203
38.5105
38.5473
38.5922
38.8034
38.7446
38.6125
38.6389
38.8506
38.9961
38.6916
38.7051
38.8506
39.0751
38.8727
38.8252
38.8532
39.0721
39.1043
38.8426
38.9645
39.0551
39.293
39.0397
38.9514
39.1001
39.2723
39.4198
39.0913
39.0921
39.2229
39.4649
39.433
39.2234
39.2563
39.4058
39.596
39.3341
39.3352
39.4454
39.6796
39.6107
39.3941
39.48
39.6499
39.8689
39.5352
39.5158
39.6936
39.9273
39.7911
39.6356
39.708
39.8839
39.997
39.7119
39.7727
39.9067
40.1674
39.9951
39.859
39.8839
40.0782
40.224
39.9422
39.9941
40.1102
40.3598
40.2704
40.0613
40.0652
40.2357
40.4633
40.2845
40.2069
40.2859
40.454
40.5529
40.255
40.2625
40.422
40.6358
40.6106
40.3438
40.4437
40.5702
40.8337
40.6665
40.507
40.5143
40.662
40.8999
40.771
40.6225
40.6982
40.8158
41.019
40.7354
40.6998
40.7946
40.9552
41.2217
40.9368
40.8518
40.8862
41.0268
41.2822
41.0181
40.9185
40.99
41.1674
41.4236
41.2118
41.0764
41.1691
41.2453
41.4119
41.4771
41.201
41.2417
41.3264
41.4885
41.6432
41.3238
41.3685
41.3898
41.6254
41.7358
41.4109
41.4127
41.5403
41.7891
41.8135
41.5346
41.617
41.6987
41.9674
41.7152
41.5982
41.6426
41.8652
42.1262
41.8361
41.7733
41.7903
41.9651
42.1627
41.9309
41.8732
41.933
42.1401
42.2395
41.9404
41.9334
42.0737
42.296
42.428
42.0661
42.11
42.1431
42.3662
42.4926
42.1446
42.1353
42.1904
42.4986
42.7445
42.2805
42.2562
42.2847
42.5608
42.7963
42.4386
42.4248
42.4691
42.5402
42.8213
42.8614
42.4625
42.4756
42.5113
42.8272
43.0382
42.5708
42.4883
42.5054
42.6985
43.1392
43.0153
42.6001
42.6556
43.0931
43.2809
42.894
42.8488
42.8925
42.9245
43.0577
43.3838
43.177
42.9047
42.9373
43.3755
43.6167
43.1329
42.9853
42.9857
43.0486
43.6979
43.8117
42.9241
42.8825
43.7839
44.1405
43.246
42.8946
43.0859
44.1118
44.2942
43.2078
43.003
42.9836
44.0814
44.4983
43.6517
43.0849
42.9728
43.9557
44.5989
44.1561
43.2499
43.3478
44.532
44.8021
43.6034
43.3033
43.1773
43.4444
44.7435
44.9633
43.6262
43.3482
44.1723
45.0096
44.6618
43.4924
43.3274
43.9654
45.0878
45.2091
43.7164
43.4861
43.9933
45.1786
45.3324
43.8675
43.6357
44.5111
45.3307
44.9665
43.8675
43.729
43.5762
44.7509
45.5035
45.2995
43.9635
43.8474
45.0887
45.6645
44.8459
43.9713
43.9333
45.3645
45.8321
44.9917
44.1066
43.9298
44.7581
45.7863
45.9325
44.3814
44.1337
44.8117
45.8859
45.866
44.3907
44.1928
44.9685
46.0044
46.0764
44.5378
44.3231
45.124
46.1028
45.9836
44.5756
44.4355
45.6611
46.2865
45.5964
44.6026
44.669
46.0793
46.452
45.1871
44.6465
44.9943
46.297
46.5037
44.977
44.6889
45.3754
46.4601
46.4505
44.9496
44.7553
45.6923
46.593
46.4202
45.0069
44.8259
45.9645
46.7335
46.3726
45.0754
44.9393
46.1531
46.8451
46.4084
45.1774
45.0289
46.3143
46.9654
46.4795
45.2818
45.1221
46.4647
47.0915
46.5367
45.382
45.2311
46.6265
47.2238
46.5594
45.4644
45.3895
46.7579
47.3234
46.6781
45.5996
45.4501
46.9069
47.4718
46.7494
45.6821
45.5994
46.9396
47.5449
47.0463
45.848
45.6353
46.9729
47.6753
47.244
45.9434
45.8105
46.9194
47.7303
47.566
46.1218
45.8764
46.8302
47.8521
47.9018
46.3723
46.1083
46.1118
47.7481
48.1749
47.2139
46.2708
46.1681
47.5909
48.2091
47.6315
46.4159
46.2652
47.497
48.2916
48.019
46.6033
46.4294
46.8016
48.2414
48.6291
47.1625
46.5984
46.6653
48.1836
48.6127
47.8493
46.8269
46.6061
48.1897
48.7568
48.0924
46.9062
46.8101
47.9992
48.7698
48.7452
47.1657
46.874
47.5095
48.8428
49.0763
47.928
47.1923
46.9497
48.6032
49.1624
48.7189
47.4015
47.2442
47.2896
48.9815
49.387
48.6318
47.4819
47.3092
48.0196
49.265
49.5833
47.9883
47.548
47.5571
49.2427
49.679
48.7381
47.7346
47.5888
48.6537
49.6706
49.7917
48.5425
47.689
47.3525
)
;

boundaryField
{
    sides
    {
        type            calculated;
        value           nonuniform List<scalar> 2(48.7593 -18.2091);
    }
    empty
    {
        type            empty;
    }
}


// ************************************************************************* //
