/*--------------------------------*- C++ -*----------------------------------*\
  =========                 |
  \\      /  F ield         | OpenFOAM: The Open Source CFD Toolbox
   \\    /   O peration     | Website:  https://openfoam.org
    \\  /    A nd           | Version:  13
     \\/     M anipulation  |
\*---------------------------------------------------------------------------*/
FoamFile
{
    format      ascii;
    class       volVectorField;
    location    "0.09";
    object      U;
}
// * * * * * * * * * * * * * * * * * * * * * * * * * * * * * * * * * * * * * //

dimensions      [0 1 -1 0 0 0 0];

internalField   nonuniform List<vector> 
1000
(
(27.6765 0 0)
(27.7276 0 0)
(27.8341 0 0)
(27.9683 0 0)
(28.102 0 0)
(28.2205 0 0)
(28.3214 0 0)
(28.4108 0 0)
(28.4964 0 0)
(28.5837 0 0)
(28.6756 0 0)
(28.7717 0 0)
(28.87 0 0)
(28.9684 0 0)
(29.0651 0 0)
(29.1599 0 0)
(29.2529 0 0)
(29.3446 0 0)
(29.4356 0 0)
(29.5262 0 0)
(29.6163 0 0)
(29.706 0 0)
(29.795 0 0)
(29.8832 0 0)
(29.9705 0 0)
(30.057 0 0)
(30.1427 0 0)
(30.2279 0 0)
(30.3125 0 0)
(30.3967 0 0)
(30.4807 0 0)
(30.5645 0 0)
(30.6481 0 0)
(30.7316 0 0)
(30.8152 0 0)
(30.8989 0 0)
(30.9828 0 0)
(31.0669 0 0)
(31.1513 0 0)
(31.2361 0 0)
(31.3213 0 0)
(31.407 0 0)
(31.4931 0 0)
(31.5797 0 0)
(31.6668 0 0)
(31.7543 0 0)
(31.8422 0 0)
(31.9306 0 0)
(32.0192 0 0)
(32.1081 0 0)
(32.1973 0 0)
(32.2866 0 0)
(32.3759 0 0)
(32.4649 0 0)
(32.554 0 0)
(32.6435 0 0)
(32.7339 0 0)
(32.825 0 0)
(32.9158 0 0)
(33.0054 0 0)
(33.093 0 0)
(33.1788 0 0)
(33.2617 0 0)
(33.3416 0 0)
(33.4178 0 0)
(33.4855 0 0)
(33.5491 0 0)
(33.6198 0 0)
(33.6892 0 0)
(33.7615 0 0)
(33.8558 0 0)
(33.9509 0 0)
(34.0317 0 0)
(34.1254 0 0)
(34.2294 0 0)
(34.3104 0 0)
(34.3868 0 0)
(34.491 0 0)
(34.6015 0 0)
(34.6787 0 0)
(34.7467 0 0)
(34.8502 0 0)
(34.9676 0 0)
(35.0471 0 0)
(35.1083 0 0)
(35.2054 0 0)
(35.3298 0 0)
(35.4214 0 0)
(35.4757 0 0)
(35.5523 0 0)
(35.6733 0 0)
(35.7972 0 0)
(35.8619 0 0)
(35.9155 0 0)
(36.0315 0 0)
(36.165 0 0)
(36.2329 0 0)
(36.2735 0 0)
(36.3515 0 0)
(36.4703 0 0)
(36.6096 0 0)
(36.6983 0 0)
(36.751 0 0)
(36.8502 0 0)
(36.9848 0 0)
(37.0623 0 0)
(37.0992 0 0)
(37.2029 0 0)
(37.3554 0 0)
(37.4293 0 0)
(37.4416 0 0)
(37.5365 0 0)
(37.7102 0 0)
(37.803 0 0)
(37.7935 0 0)
(37.854 0 0)
(38.0377 0 0)
(38.1753 0 0)
(38.1613 0 0)
(38.1674 0 0)
(38.3371 0 0)
(38.529 0 0)
(38.5483 0 0)
(38.5109 0 0)
(38.6367 0 0)
(38.8556 0 0)
(38.9319 0 0)
(38.8823 0 0)
(38.9499 0 0)
(39.1671 0 0)
(39.3081 0 0)
(39.277 0 0)
(39.2829 0 0)
(39.4642 0 0)
(39.6626 0 0)
(39.6915 0 0)
(39.6569 0 0)
(39.7525 0 0)
(39.9564 0 0)
(40.0826 0 0)
(40.0633 0 0)
(40.0828 0 0)
(40.2545 0 0)
(40.4227 0 0)
(40.4199 0 0)
(40.3957 0 0)
(40.5485 0 0)
(40.7562 0 0)
(40.7813 0 0)
(40.7133 0 0)
(40.8139 0 0)
(41.0513 0 0)
(41.1564 0 0)
(41.0766 0 0)
(41.0847 0 0)
(41.3051 0 0)
(41.5074 0 0)
(41.4744 0 0)
(41.4048 0 0)
(41.5604 0 0)
(41.8137 0 0)
(41.8727 0 0)
(41.7871 0 0)
(41.8499 0 0)
(42.0869 0 0)
(42.2378 0 0)
(42.1961 0 0)
(42.1903 0 0)
(42.3645 0 0)
(42.5608 0 0)
(42.5995 0 0)
(42.5789 0 0)
(42.6479 0 0)
(42.8086 0 0)
(42.9604 0 0)
(42.9977 0 0)
(43.0157 0 0)
(43.1283 0 0)
(43.2848 0 0)
(43.3419 0 0)
(43.3357 0 0)
(43.4326 0 0)
(43.6124 0 0)
(43.6887 0 0)
(43.6566 0 0)
(43.7191 0 0)
(43.9132 0 0)
(44.0399 0 0)
(44.0005 0 0)
(43.9998 0 0)
(44.1794 0 0)
(44.372 0 0)
(44.3634 0 0)
(44.2986 0 0)
(44.4241 0 0)
(44.6603 0 0)
(44.7326 0 0)
(44.6399 0 0)
(44.6663 0 0)
(44.8947 0 0)
(45.0807 0 0)
(45.0292 0 0)
(44.9558 0 0)
(45.1094 0 0)
(45.3618 0 0)
(45.4259 0 0)
(45.3236 0 0)
(45.3539 0 0)
(45.5918 0 0)
(45.7807 0 0)
(45.7237 0 0)
(45.6529 0 0)
(45.8186 0 0)
(46.0702 0 0)
(46.11 0 0)
(46.0122 0 0)
(46.0698 0 0)
(46.2969 0 0)
(46.4515 0 0)
(46.4254 0 0)
(46.391 0 0)
(46.4749 0 0)
(46.6581 0 0)
(46.7936 0 0)
(46.7846 0 0)
(46.7762 0 0)
(46.8952 0 0)
(47.057 0 0)
(47.1081 0 0)
(47.0809 0 0)
(47.1619 0 0)
(47.3281 0 0)
(47.4015 0 0)
(47.3763 0 0)
(47.4314 0 0)
(47.59 0 0)
(47.7089 0 0)
(47.7126 0 0)
(47.7265 0 0)
(47.8163 0 0)
(47.9467 0 0)
(48.0344 0 0)
(48.055 0 0)
(48.1003 0 0)
(48.2086 0 0)
(48.31 0 0)
(48.3469 0 0)
(48.3781 0 0)
(48.4688 0 0)
(48.5784 0 0)
(48.6321 0 0)
(48.6519 0 0)
(48.706 0 0)
(48.8106 0 0)
(48.9195 0 0)
(48.9658 0 0)
(48.9916 0 0)
(49.0711 0 0)
(49.1752 0 0)
(49.2409 0 0)
(49.2678 0 0)
(49.3369 0 0)
(49.4405 0 0)
(49.5028 0 0)
(49.5251 0 0)
(49.589 0 0)
(49.701 0 0)
(49.7663 0 0)
(49.7864 0 0)
(49.8436 0 0)
(49.9561 0 0)
(50.027 0 0)
(50.0489 0 0)
(50.1003 0 0)
(50.2065 0 0)
(50.2845 0 0)
(50.3121 0 0)
(50.3567 0 0)
(50.4504 0 0)
(50.5354 0 0)
(50.5757 0 0)
(50.6142 0 0)
(50.6921 0 0)
(50.7817 0 0)
(50.8406 0 0)
(50.8705 0 0)
(50.9236 0 0)
(51.0138 0 0)
(51.0992 0 0)
(51.1302 0 0)
(51.1648 0 0)
(51.2604 0 0)
(51.3387 0 0)
(51.3818 0 0)
(51.4008 0 0)
(51.4761 0 0)
(51.5821 0 0)
(51.6555 0 0)
(51.6714 0 0)
(51.7119 0 0)
(51.7989 0 0)
(51.895 0 0)
(51.9317 0 0)
(51.9407 0 0)
(52.0129 0 0)
(52.1366 0 0)
(52.2049 0 0)
(52.2089 0 0)
(52.2381 0 0)
(52.3076 0 0)
(52.4082 0 0)
(52.4933 0 0)
(52.5068 0 0)
(52.5344 0 0)
(52.6262 0 0)
(52.7144 0 0)
(52.7814 0 0)
(52.7861 0 0)
(52.8194 0 0)
(52.8969 0 0)
(53.0132 0 0)
(53.0768 0 0)
(53.0796 0 0)
(53.1142 0 0)
(53.186 0 0)
(53.2772 0 0)
(53.3548 0 0)
(53.3653 0 0)
(53.3811 0 0)
(53.4586 0 0)
(53.5564 0 0)
(53.6471 0 0)
(53.6439 0 0)
(53.6738 0 0)
(53.7546 0 0)
(53.8555 0 0)
(53.907 0 0)
(53.9108 0 0)
(53.949 0 0)
(54.0233 0 0)
(54.1168 0 0)
(54.1843 0 0)
(54.1904 0 0)
(54.2148 0 0)
(54.2921 0 0)
(54.3893 0 0)
(54.4673 0 0)
(54.4653 0 0)
(54.4904 0 0)
(54.5636 0 0)
(54.6557 0 0)
(54.7282 0 0)
(54.7347 0 0)
(54.7587 0 0)
(54.8394 0 0)
(54.9394 0 0)
(54.9798 0 0)
(54.9847 0 0)
(55.0458 0 0)
(55.1393 0 0)
(55.1973 0 0)
(55.1978 0 0)
(55.2354 0 0)
(55.3283 0 0)
(55.4147 0 0)
(55.435 0 0)
(55.4387 0 0)
(55.4982 0 0)
(55.6129 0 0)
(55.6786 0 0)
(55.6787 0 0)
(55.705 0 0)
(55.7779 0 0)
(55.8747 0 0)
(55.9297 0 0)
(55.9308 0 0)
(55.9519 0 0)
(56.029 0 0)
(56.1212 0 0)
(56.1712 0 0)
(56.1645 0 0)
(56.1839 0 0)
(56.2595 0 0)
(56.3661 0 0)
(56.4597 0 0)
(56.4764 0 0)
(56.4711 0 0)
(56.5113 0 0)
(56.58 0 0)
(56.6774 0 0)
(56.7667 0 0)
(56.7822 0 0)
(56.7849 0 0)
(56.8416 0 0)
(56.9367 0 0)
(57.0189 0 0)
(57.0329 0 0)
(57.0361 0 0)
(57.0956 0 0)
(57.1979 0 0)
(57.2807 0 0)
(57.2961 0 0)
(57.3028 0 0)
(57.3492 0 0)
(57.4301 0 0)
(57.5506 0 0)
(57.5932 0 0)
(57.5627 0 0)
(57.592 0 0)
(57.6705 0 0)
(57.7627 0 0)
(57.8424 0 0)
(57.8768 0 0)
(57.8813 0 0)
(57.9271 0 0)
(58.0182 0 0)
(58.0951 0 0)
(58.1396 0 0)
(58.1452 0 0)
(58.1816 0 0)
(58.2672 0 0)
(58.3626 0 0)
(58.3741 0 0)
(58.3749 0 0)
(58.4504 0 0)
(58.5653 0 0)
(58.6212 0 0)
(58.6123 0 0)
(58.6485 0 0)
(58.7149 0 0)
(58.8164 0 0)
(58.8702 0 0)
(58.8681 0 0)
(58.9128 0 0)
(59.0058 0 0)
(59.0812 0 0)
(59.1059 0 0)
(59.1075 0 0)
(59.1473 0 0)
(59.2348 0 0)
(59.361 0 0)
(59.3822 0 0)
(59.3676 0 0)
(59.4226 0 0)
(59.502 0 0)
(59.5915 0 0)
(59.6235 0 0)
(59.6326 0 0)
(59.6721 0 0)
(59.757 0 0)
(59.8634 0 0)
(59.9064 0 0)
(59.8975 0 0)
(59.9227 0 0)
(59.9959 0 0)
(60.1037 0 0)
(60.1843 0 0)
(60.1862 0 0)
(60.2012 0 0)
(60.2619 0 0)
(60.3487 0 0)
(60.4236 0 0)
(60.4299 0 0)
(60.4581 0 0)
(60.5476 0 0)
(60.6356 0 0)
(60.6743 0 0)
(60.6772 0 0)
(60.7099 0 0)
(60.7919 0 0)
(60.9121 0 0)
(60.95 0 0)
(60.9352 0 0)
(60.9746 0 0)
(61.0427 0 0)
(61.1439 0 0)
(61.2111 0 0)
(61.2208 0 0)
(61.2438 0 0)
(61.3238 0 0)
(61.4171 0 0)
(61.479 0 0)
(61.4831 0 0)
(61.4964 0 0)
(61.5541 0 0)
(61.6403 0 0)
(61.7348 0 0)
(61.7721 0 0)
(61.7802 0 0)
(61.8244 0 0)
(61.9137 0 0)
(62.0055 0 0)
(62.0662 0 0)
(62.0601 0 0)
(62.0843 0 0)
(62.1578 0 0)
(62.2471 0 0)
(62.3321 0 0)
(62.3614 0 0)
(62.3783 0 0)
(62.4291 0 0)
(62.5242 0 0)
(62.6063 0 0)
(62.6215 0 0)
(62.6439 0 0)
(62.7219 0 0)
(62.8071 0 0)
(62.8584 0 0)
(62.873 0 0)
(62.9354 0 0)
(63.0218 0 0)
(63.0864 0 0)
(63.1032 0 0)
(63.1351 0 0)
(63.2284 0 0)
(63.3018 0 0)
(63.3465 0 0)
(63.3631 0 0)
(63.4141 0 0)
(63.5015 0 0)
(63.5911 0 0)
(63.6078 0 0)
(63.6176 0 0)
(63.6981 0 0)
(63.8099 0 0)
(63.8532 0 0)
(63.8479 0 0)
(63.9022 0 0)
(63.9949 0 0)
(64.0745 0 0)
(64.1081 0 0)
(64.1307 0 0)
(64.1866 0 0)
(64.2743 0 0)
(64.3589 0 0)
(64.3802 0 0)
(64.3961 0 0)
(64.4768 0 0)
(64.5839 0 0)
(64.6226 0 0)
(64.6247 0 0)
(64.6907 0 0)
(64.7958 0 0)
(64.8538 0 0)
(64.8621 0 0)
(64.9113 0 0)
(65.0039 0 0)
(65.0768 0 0)
(65.1025 0 0)
(65.1365 0 0)
(65.2085 0 0)
(65.2905 0 0)
(65.3423 0 0)
(65.3683 0 0)
(65.4169 0 0)
(65.5012 0 0)
(65.5793 0 0)
(65.6035 0 0)
(65.6277 0 0)
(65.7113 0 0)
(65.815 0 0)
(65.8481 0 0)
(65.8542 0 0)
(65.9245 0 0)
(66.0242 0 0)
(66.0968 0 0)
(66.1061 0 0)
(66.1509 0 0)
(66.2299 0 0)
(66.3167 0 0)
(66.3574 0 0)
(66.3791 0 0)
(66.4566 0 0)
(66.5506 0 0)
(66.599 0 0)
(66.6166 0 0)
(66.6591 0 0)
(66.7581 0 0)
(66.8542 0 0)
(66.877 0 0)
(66.8908 0 0)
(66.9475 0 0)
(67.0524 0 0)
(67.1433 0 0)
(67.1546 0 0)
(67.1803 0 0)
(67.2556 0 0)
(67.3513 0 0)
(67.4109 0 0)
(67.4225 0 0)
(67.4756 0 0)
(67.5778 0 0)
(67.6497 0 0)
(67.6738 0 0)
(67.7023 0 0)
(67.7802 0 0)
(67.8895 0 0)
(67.9265 0 0)
(67.9368 0 0)
(67.997 0 0)
(68.1091 0 0)
(68.1779 0 0)
(68.1919 0 0)
(68.2304 0 0)
(68.3083 0 0)
(68.4025 0 0)
(68.4428 0 0)
(68.4637 0 0)
(68.529 0 0)
(68.6409 0 0)
(68.7078 0 0)
(68.7231 0 0)
(68.7561 0 0)
(68.8305 0 0)
(68.9316 0 0)
(68.9844 0 0)
(68.9993 0 0)
(69.0627 0 0)
(69.1697 0 0)
(69.2389 0 0)
(69.2567 0 0)
(69.2777 0 0)
(69.3408 0 0)
(69.4505 0 0)
(69.5292 0 0)
(69.5399 0 0)
(69.5849 0 0)
(69.6753 0 0)
(69.7551 0 0)
(69.7961 0 0)
(69.8095 0 0)
(69.866 0 0)
(69.9778 0 0)
(70.0499 0 0)
(70.0681 0 0)
(70.0921 0 0)
(70.1625 0 0)
(70.2758 0 0)
(70.3347 0 0)
(70.345 0 0)
(70.372 0 0)
(70.4377 0 0)
(70.5463 0 0)
(70.6351 0 0)
(70.64 0 0)
(70.6713 0 0)
(70.7535 0 0)
(70.835 0 0)
(70.8841 0 0)
(70.8993 0 0)
(70.9428 0 0)
(71.0271 0 0)
(71.1483 0 0)
(71.2014 0 0)
(71.2001 0 0)
(71.2362 0 0)
(71.3075 0 0)
(71.418 0 0)
(71.4778 0 0)
(71.4851 0 0)
(71.5192 0 0)
(71.5996 0 0)
(71.7286 0 0)
(71.7901 0 0)
(71.7817 0 0)
(71.816 0 0)
(71.8858 0 0)
(71.9833 0 0)
(72.0626 0 0)
(72.0793 0 0)
(72.1007 0 0)
(72.156 0 0)
(72.2468 0 0)
(72.3433 0 0)
(72.3772 0 0)
(72.3951 0 0)
(72.4463 0 0)
(72.5235 0 0)
(72.6308 0 0)
(72.655 0 0)
(72.6567 0 0)
(72.7196 0 0)
(72.8194 0 0)
(72.9221 0 0)
(72.9377 0 0)
(72.963 0 0)
(73.0432 0 0)
(73.1343 0 0)
(73.1883 0 0)
(73.2021 0 0)
(73.2292 0 0)
(73.3041 0 0)
(73.4314 0 0)
(73.4875 0 0)
(73.4831 0 0)
(73.5234 0 0)
(73.5945 0 0)
(73.6907 0 0)
(73.7684 0 0)
(73.7775 0 0)
(73.8126 0 0)
(73.8983 0 0)
(73.9753 0 0)
(74.0234 0 0)
(74.0361 0 0)
(74.0807 0 0)
(74.186 0 0)
(74.2788 0 0)
(74.3134 0 0)
(74.3217 0 0)
(74.3698 0 0)
(74.4528 0 0)
(74.541 0 0)
(74.5921 0 0)
(74.5969 0 0)
(74.6344 0 0)
(74.7273 0 0)
(74.853 0 0)
(74.8823 0 0)
(74.8664 0 0)
(74.9045 0 0)
(74.9788 0 0)
(75.1018 0 0)
(75.1495 0 0)
(75.1504 0 0)
(75.1903 0 0)
(75.25 0 0)
(75.3535 0 0)
(75.4512 0 0)
(75.4565 0 0)
(75.4553 0 0)
(75.5042 0 0)
(75.5919 0 0)
(75.7109 0 0)
(75.7611 0 0)
(75.742 0 0)
(75.7467 0 0)
(75.8129 0 0)
(75.9423 0 0)
(76.05 0 0)
(76.0456 0 0)
(76.0457 0 0)
(76.1542 0 0)
(76.2914 0 0)
(76.3421 0 0)
(76.3386 0 0)
(76.3736 0 0)
(76.4357 0 0)
(76.5132 0 0)
(76.627 0 0)
(76.7118 0 0)
(76.7139 0 0)
(76.7286 0 0)
(76.8361 0 0)
(76.984 0 0)
(77.045 0 0)
(77.0217 0 0)
(77.0292 0 0)
(77.0854 0 0)
(77.2191 0 0)
(77.3732 0 0)
(77.3703 0 0)
(77.312 0 0)
(77.4347 0 0)
(77.6517 0 0)
(77.6938 0 0)
(77.5857 0 0)
(77.5811 0 0)
(77.78 0 0)
(77.9987 0 0)
(77.989 0 0)
(77.8659 0 0)
(77.8469 0 0)
(78.0133 0 0)
(78.2652 0 0)
(78.3236 0 0)
(78.19 0 0)
(78.1154 0 0)
(78.2505 0 0)
(78.5207 0 0)
(78.6457 0 0)
(78.5269 0 0)
(78.4515 0 0)
(78.6334 0 0)
(78.869 0 0)
(78.8589 0 0)
(78.705 0 0)
(78.6408 0 0)
(78.7023 0 0)
(78.9467 0 0)
(79.2 0 0)
(79.1653 0 0)
(79.0031 0 0)
(79.0578 0 0)
(79.3205 0 0)
(79.4634 0 0)
(79.3263 0 0)
(79.1771 0 0)
(79.2538 0 0)
(79.534 0 0)
(79.7602 0 0)
(79.673 0 0)
(79.4852 0 0)
(79.5138 0 0)
(79.7779 0 0)
(80.0094 0 0)
(79.9332 0 0)
(79.7546 0 0)
(79.8171 0 0)
(80.083 0 0)
(80.2225 0 0)
(80.0896 0 0)
(79.9482 0 0)
(79.9363 0 0)
(80.0928 0 0)
(80.3994 0 0)
(80.5604 0 0)
(80.4236 0 0)
(80.2719 0 0)
(80.4058 0 0)
(80.6851 0 0)
(80.7599 0 0)
(80.5879 0 0)
(80.489 0 0)
(80.6777 0 0)
(80.9715 0 0)
(81.0337 0 0)
(80.8536 0 0)
(80.7224 0 0)
(80.8263 0 0)
(81.1188 0 0)
(81.3394 0 0)
(81.2453 0 0)
(81.0503 0 0)
(81.0898 0 0)
(81.3599 0 0)
(81.5585 0 0)
(81.4471 0 0)
(81.268 0 0)
(81.3335 0 0)
(81.6138 0 0)
(81.8204 0 0)
(81.7151 0 0)
(81.5267 0 0)
(81.5843 0 0)
(81.8576 0 0)
(82.037 0 0)
(81.9116 0 0)
(81.7512 0 0)
(81.8732 0 0)
(82.1537 0 0)
(82.2439 0 0)
(82.0746 0 0)
(81.9754 0 0)
(82.1702 0 0)
(82.4374 0 0)
(82.4389 0 0)
(82.2502 0 0)
(82.2182 0 0)
(82.4586 0 0)
(82.6989 0 0)
(82.6323 0 0)
(82.4407 0 0)
(82.4747 0 0)
(82.7436 0 0)
(82.9419 0 0)
(82.8322 0 0)
(82.6562 0 0)
(82.734 0 0)
(83.014 0 0)
(83.1838 0 0)
(83.0488 0 0)
(82.8805 0 0)
(82.9924 0 0)
(83.2844 0 0)
(83.4233 0 0)
(83.2721 0 0)
(83.1238 0 0)
(83.2532 0 0)
(83.5428 0 0)
(83.6716 0 0)
(83.5161 0 0)
(83.3703 0 0)
(83.5117 0 0)
(83.8053 0 0)
(83.9274 0 0)
(83.7669 0 0)
(83.6227 0 0)
(83.7715 0 0)
(84.0716 0 0)
(84.1847 0 0)
(84.0192 0 0)
(83.8814 0 0)
(84.0395 0 0)
(84.3446 0 0)
(84.4397 0 0)
(84.2696 0 0)
(84.151 0 0)
(84.3141 0 0)
(84.6052 0 0)
(84.7054 0 0)
(84.5402 0 0)
(84.4077 0 0)
(84.5773 0 0)
(84.8864 0 0)
(84.9731 0 0)
(84.7989 0 0)
(84.6841 0 0)
(84.8425 0 0)
(85.1348 0 0)
(85.2558 0 0)
(85.0977 0 0)
(84.9441 0 0)
(85.0907 0 0)
(85.4042 0 0)
(85.532 0 0)
(85.3781 0 0)
(85.2382 0 0)
(85.3531 0 0)
(85.6406 0 0)
(85.8156 0 0)
(85.6801 0 0)
(85.4946 0 0)
(85.5922 0 0)
(85.896 0 0)
(86.0955 0 0)
(86.0085 0 0)
(85.8292 0 0)
(85.7887 0 0)
(86.0193 0 0)
(86.3394 0 0)
(86.3786 0 0)
(86.1827 0 0)
(86.0745 0 0)
(86.2434 0 0)
(86.5541 0 0)
(86.6527 0 0)
(86.4884 0 0)
(86.3487 0 0)
(86.4815 0 0)
(86.7904 0 0)
(86.9307 0 0)
(86.8014 0 0)
(86.6435 0 0)
(86.6636 0 0)
(86.9276 0 0)
(87.2213 0 0)
(87.1878 0 0)
(86.9719 0 0)
(86.9212 0 0)
(87.127 0 0)
(87.4104 0 0)
(87.4895 0 0)
(87.32 0 0)
(87.1766 0 0)
(87.3522 0 0)
(87.6772 0 0)
(87.7647 0 0)
(87.5907 0 0)
(87.4712 0 0)
(87.5953 0 0)
(87.8787 0 0)
(88.0704 0 0)
(87.9386 0 0)
(87.723 0 0)
(87.7883 0 0)
(88.0744 0 0)
(88.3152 0 0)
(88.32 0 0)
(88.1371 0 0)
(88.0061 0 0)
(88.1932 0 0)
(88.533 0 0)
(88.6348 0 0)
(88.4841 0 0)
(88.3436 0 0)
(88.3277 0 0)
(88.5696 0 0)
(88.8994 0 0)
(88.9454 0 0)
(88.7582 0 0)
(88.6253 0 0)
(88.6942 0 0)
(88.9784 0 0)
(89.2439 0 0)
(89.1864 0 0)
(88.9733 0 0)
(88.9251 0 0)
(89.1545 0 0)
(89.4821 0 0)
(89.5134 0 0)
(89.3248 0 0)
(89.2169 0 0)
(89.3477 0 0)
(89.6645 0 0)
(89.8521 0 0)
(89.8454 0 0)
(89.6808 0 0)
(89.4609 0 0)
(89.6092 0 0)
)
;

boundaryField
{
    sides
    {
        type            zeroGradient;
    }
    empty
    {
        type            empty;
    }
}


// ************************************************************************* //
