/*--------------------------------*- C++ -*----------------------------------*\
  =========                 |
  \\      /  F ield         | OpenFOAM: The Open Source CFD Toolbox
   \\    /   O peration     | Website:  https://openfoam.org
    \\  /    A nd           | Version:  13
     \\/     M anipulation  |
\*---------------------------------------------------------------------------*/
FoamFile
{
    format      ascii;
    class       surfaceScalarField;
    location    "36.996649";
    object      phi;
}
// * * * * * * * * * * * * * * * * * * * * * * * * * * * * * * * * * * * * * //

dimensions      [0 3 -1 0 0 0 0];

internalField   nonuniform List<scalar> 
34068
(
-1.0460436e-08
-1.0537343e-08
2.0997779e-08
-4.6564355e-08
-3.7258708e-08
7.3362628e-08
-1.1689106e-07
-7.342054e-08
1.4374725e-07
-2.322881e-07
-1.2069218e-07
2.3608922e-07
-4.0639096e-07
-1.8080096e-07
3.5490382e-07
-6.5627873e-07
-2.5546982e-07
5.053576e-07
-1.0032626e-06
-3.4632331e-07
6.9330719e-07
-1.4738384e-06
-4.5476344e-07
9.253393e-07
-2.1008308e-06
-5.8181678e-07
1.2088092e-06
-2.9247598e-06
-7.2795215e-07
1.5518812e-06
-3.9954646e-06
-8.9287823e-07
1.963583e-06
-5.3740179e-06
-1.0753385e-06
2.4538918e-06
-7.1349643e-06
-1.2729329e-06
3.0338793e-06
-9.3689135e-06
-1.4820165e-06
3.7159658e-06
-1.2185504e-05
-1.6977494e-06
4.5143399e-06
-1.5716748e-05
-1.9144041e-06
5.4456483e-06
-2.0120732e-05
-2.1260784e-06
6.5300624e-06
-2.5585619e-05
-2.3280039e-06
7.792891e-06
-3.2333839e-05
-2.5186839e-06
9.2669037e-06
-4.0626287e-05
-2.7031314e-06
1.099558e-05
-5.0766245e-05
-2.8974765e-06
1.3037434e-05
-6.3102605e-05
-3.1351739e-06
1.5471534e-05
-7.8031834e-05
-3.4748947e-06
1.8404124e-05
-9.5997874e-05
-4.0099441e-06
2.1975984e-05
-0.00011748898
-4.8786034e-06
2.6369704e-05
-0.00014303018
-6.2742143e-06
3.1815419e-05
-0.00017316999
-8.4530521e-06
3.8592862e-05
-0.00020845977
-1.1737227e-05
4.7027009e-05
-0.00024942515
-1.6509221e-05
5.74746e-05
-0.00029653081
-2.3194713e-05
7.0300368e-05
-0.00035014503
-3.2232215e-05
8.5846435e-05
-0.00041051828
-4.4034062e-05
0.00010440732
-0.00047779611
-5.8955967e-05
0.0001262338
-0.0005520791
-7.7305511e-05
0.00015158849
-0.00063352255
-9.9404462e-05
0.00018084791
-0.00072242391
-0.00012570785
0.00021460921
-0.000819269
-0.00015691823
0.00025376332
-0.00092474289
-0.00019407505
0.00029954893
-0.0010397323
-0.00023865002
0.00035363945
-0.0011653444
-0.00029269683
0.00041830893
-0.0013029575
-0.00035909756
0.0004967106
-0.001454308
-0.00044195689
0.0005933074
-0.0016216252
-0.00054718764
0.00071450485
-0.0018078303
-0.00068340017
0.00086960533
-0.0020167654
-0.00086313152
0.0010720666
-0.0022533678
-0.0011042699
0.0013408724
-0.0025239123
-0.0014321525
0.001702697
-0.0028362491
-0.0018828202
0.002195157
-0.0031998226
-0.0025067926
0.0028703661
-0.0036254449
-0.0033740918
0.0037997142
-0.0041248129
-0.0045801004
0.0050794684
-0.0047099152
-0.0062507041
0.0068358064
-0.005392495
-0.0085387723
0.009221352
-0.0061826489
-0.011597805
0.012387959
-0.0070871914
-0.015502688
0.01640723
-0.0081098622
-0.020084285
0.021106955
-0.0092552452
-0.024572564
0.025717947
-0.010518481
-0.027608424
0.028871659
-0.011783602
-0.024985783
0.026250904
-0.012020299
-0.010664797
0.010901494
-0.0087803451
0.023987947
-0.027227901
-0.0013957805
0.075598524
-0.082983089
0.0062756444
0.12092714
-0.12859856
0.013444998
0.13662659
-0.14379595
0.090602113
0.027750989
-0.1049081
-1.0848569e-08
3.1122642e-10
-4.8295597e-08
1.8832195e-10
-1.2124196e-07
-4.7417373e-10
-2.4093831e-07
-9.9582325e-10
-4.2152311e-07
-2.1615918e-10
-6.8069876e-07
3.7058347e-09
-1.0405464e-06
1.3524316e-08
-1.5285068e-06
3.3197023e-08
-2.1785603e-06
6.8236731e-08
-3.0326341e-06
1.2612164e-07
-4.1422732e-06
2.1676087e-07
-5.5706092e-06
3.5299755e-07
-7.3946609e-06
5.5111885e-07
-9.7079952e-06
8.313179e-07
-1.262377e-05
1.2180254e-06
-1.6278161e-05
1.7399866e-06
-2.0834151e-05
2.4299119e-06
-2.6485627e-05
3.3234724e-06
-3.3461664e-05
4.4573525e-06
-4.2030808e-05
5.8660125e-06
-5.2505076e-05
7.5767921e-06
-6.5243243e-05
9.6029926e-06
-8.0652819e-05
1.1934681e-05
-9.9189937e-05
1.4527174e-05
-0.0001213561
1.7287559e-05
-0.00014769049
2.0060173e-05
-0.00017875636
2.2612818e-05
-0.00021512006
2.4626481e-05
-0.00025732201
2.569273e-05
-0.00030584102
2.5324293e-05
-0.00036105884
2.2985603e-05
-0.00042324026
1.8147362e-05
-0.00049255024
1.0354011e-05
-0.00056910366
-7.5209708e-07
-0.00065309021
-1.5417907e-05
-0.00074485221
-3.3945852e-05
-0.00084493247
-5.6837968e-05
-0.00095408958
-8.4917942e-05
-0.0010733047
-0.00011943493
-0.001203809
-0.00016219245
-0.0013471514
-0.00021575518
-0.0015053024
-0.00028380587
-0.0016808182
-0.00037167189
-0.0018770851
-0.0004871333
-0.0020985993
-0.0006416173
-0.0023512019
-0.00085166728
-0.0026424103
-0.0011409441
-0.0029817614
-0.0015434691
-0.0033809353
-0.0021076187
-0.0038536168
-0.0029014103
-0.0044149652
-0.0040187519
-0.0050805975
-0.0055850718
-0.0058647259
-0.0077546439
-0.0067765249
-0.010686006
-0.0078151715
-0.014464041
-0.0089665793
-0.018932877
-0.010218128
-0.023321015
-0.011522893
-0.026303659
-0.012740676
-0.023768
-0.01295894
-0.010446533
-0.010044571
0.021073578
-0.0029411362
0.068495089
0.0055868735
0.11239913
0.01581852
0.12639495
0.07098686
0.035433773
-1.111457e-08
1.1425797e-08
-4.948849e-08
3.8562243e-08
-1.242515e-07
7.4288835e-08
-2.4691917e-07
1.2167185e-07
-4.3197171e-07
1.8483638e-07
-6.9753461e-07
2.6926874e-07
-1.0662085e-06
3.8219823e-07
-1.5660704e-06
5.3305892e-07
-2.2318742e-06
7.3404056e-07
-3.1064854e-06
1.0007329e-06
-4.2425818e-06
1.3528572e-06
-5.7046573e-06
1.815073e-06
-7.5713626e-06
2.4178242e-06
-9.9382133e-06
3.1981686e-06
-1.2920684e-05
4.2004957e-06
-1.6657695e-05
5.4769982e-06
-2.1315475e-05
7.0876914e-06
-2.7091726e-05
9.0997242e-06
-3.4220003e-05
1.1585629e-05
-4.2974089e-05
1.4620099e-05
-5.3672104e-05
1.8274807e-05
-6.66799e-05
2.2610788e-05
-8.2413169e-05
2.766795e-05
-0.00010133744
3.3451447e-05
-0.00012396495
3.9915068e-05
-0.00015084703
4.6942256e-05
-0.00018256059
5.4326373e-05
-0.00021968711
6.1753001e-05
-0.00026278352
6.8789136e-05
-0.00031234635
7.4887123e-05
-0.00036877565
7.941491e-05
-0.00043235278
8.1724487e-05
-0.00050325369
8.1254924e-05
-0.00058163101
7.7625223e-05
-0.00066769165
7.0642729e-05
-0.00076180436
6.0166865e-05
-0.00086455339
4.5911054e-05
-0.0009767531
2.7281767e-05
-0.0010994585
3.2704884e-06
-0.0012339963
-2.765464e-05
-0.0013820542
-6.7697325e-05
-0.0015457934
-0.00012006662
-0.0017280374
-0.00018942792
-0.0019325609
-0.00028260981
-0.0021644077
-0.00040977053
-0.0024301756
-0.00058589939
-0.0027384309
-0.00083268872
-0.0031001182
-0.0011817818
-0.0035287448
-0.0016789922
-0.0040402503
-0.0023899048
-0.0046522909
-0.0034067114
-0.0053825486
-0.004854814
-0.0062451274
-0.0068920651
-0.007243859
-0.0096872743
-0.0083628177
-0.013345082
-0.009558732
-0.017736963
-0.010787825
-0.022091922
-0.011967918
-0.025123567
-0.012854058
-0.022881859
-0.012652416
-0.010648175
-0.0095403838
0.017961546
-0.0022076166
0.061162322
0.0076473463
0.10254416
0.022276348
0.11176594
0.046284501
0.046978707
-1.1235921e-08
2.2661719e-08
-5.0026339e-08
7.7352661e-08
-1.2560209e-07
1.4986459e-07
-2.4961243e-07
2.456822e-07
-4.366943e-07
3.7191826e-07
-7.0516303e-07
5.3773748e-07
-1.0778493e-06
7.5488448e-07
-1.5831067e-06
1.0383163e-06
-2.2560219e-06
1.4069558e-06
-3.1398575e-06
1.8845685e-06
-4.2877653e-06
2.500765e-06
-5.7648026e-06
3.2921104e-06
-7.6502911e-06
4.3033128e-06
-1.0040544e-05
5.5884219e-06
-1.305199e-05
7.211941e-06
-1.682469e-05
9.2496989e-06
-2.1526251e-05
1.1789252e-05
-2.7356048e-05
1.4929521e-05
-3.4549684e-05
1.8779265e-05
-4.3383472e-05
2.3453886e-05
-5.4178678e-05
2.9070013e-05
-6.7305099e-05
3.5737209e-05
-8.3183382e-05
4.3546233e-05
-0.00010228531
5.2553369e-05
-0.00012513095
6.2760709e-05
-0.00015228147
7.4092782e-05
-0.00018432597
8.6370871e-05
-0.00022186086
9.9287892e-05
-0.000265461
0.00011238928
-0.00031564378
0.00012506989
-0.00037283226
0.00013660339
-0.00043733194
0.00014622417
-0.00050934344
0.00015326642
-0.00058902877
0.00015731056
-0.00067661173
0.00015822569
-0.00077247776
0.00015603289
-0.00087723192
0.00015066521
-0.00099171916
0.00014176901
-0.0011170413
0.00012859262
-0.0012546014
0.00010990549
-0.0014061721
8.3873354e-05
-0.0015740551
4.7816371e-05
-0.0017612676
-2.2154379e-06
-0.0019718766
-7.200074e-05
-0.0022113401
-0.00017030706
-0.002486831
-0.00031040847
-0.0028077235
-0.00051179625
-0.0031860279
-0.00080347738
-0.0036365898
-0.0012284303
-0.0041768917
-0.0018496029
-0.0048260213
-0.0027575818
-0.0056020813
-0.004078754
-0.0065164555
-0.0059776909
-0.0075633682
-0.0086403617
-0.0087051691
-0.012203281
-0.0098617849
-0.016580347
-0.010926566
-0.021027141
-0.011769013
-0.02428112
-0.012075469
-0.022575403
-0.011120089
-0.011603555
-0.007286322
0.014127779
0.00083992846
0.053036071
0.01294695
0.090437143
0.032660673
0.092052221
0.017754035
0.061191139
-1.1189004e-08
3.3850723e-08
-4.9823871e-08
1.1598753e-07
-1.2510177e-07
2.2514249e-07
-2.4862937e-07
3.6920979e-07
-4.3498722e-07
5.5827611e-07
-7.0241702e-07
8.0516728e-07
-1.0736521e-06
1.1261196e-06
-1.5769206e-06
1.5415848e-06
-2.2471457e-06
2.0771808e-06
-3.127383e-06
2.7648058e-06
-4.2705214e-06
3.6439035e-06
-5.7412936e-06
4.7628826e-06
-7.6186209e-06
6.1806401e-06
-9.9983389e-06
7.9681398e-06
-1.2996314e-05
1.0209916e-05
-1.6751976e-05
1.300536e-05
-2.1432236e-05
1.6469512e-05
-2.7235765e-05
2.0733051e-05
-3.4397515e-05
2.5941015e-05
-4.3193315e-05
3.2249687e-05
-5.3944285e-05
3.9820983e-05
-6.7020651e-05
4.8813575e-05
-8.284439e-05
5.9369972e-05
-0.00010188995
7.159893e-05
-0.00012468197
8.5552728e-05
-0.00015178872
0.00010119953
-0.00018380971
0.00011839186
-0.0002213559
0.00013683408
-0.00026502144
0.00015605482
-0.0003153479
0.00017539635
-0.00037278641
0.0001940419
-0.00043767137
0.00021110913
-0.00051022768
0.00022582272
-0.00059063005
0.00023771293
-0.00067910576
0.00024670141
-0.00077603852
0.00025296565
-0.00088203339
0.00025666008
-0.00099794279
0.00025767841
-0.0011248855
0.00025553529
-0.0012642895
0.00024930951
-0.0014179771
0.00023756094
-0.0015883089
0.00021814825
-0.0017784275
0.00018790315
-0.0019925656
0.0001421373
-0.002236431
7.3558388e-05
-0.0025175536
-2.9285846e-05
-0.0028458182
-0.00018353166
-0.0032338849
-0.00041541069
-0.0036973538
-0.0007649614
-0.004254417
-0.0012925397
-0.004924386
-0.0020876128
-0.0057239832
-0.0032791568
-0.0066591492
-0.0050425249
-0.0077104487
-0.0075890622
-0.0088127606
-0.011100969
-0.0098400802
-0.015553027
-0.010596411
-0.02027081
-0.010902424
-0.023975108
-0.010382656
-0.023095171
-0.0083280614
-0.013658149
-0.0032641325
0.0090638503
0.006299828
0.043472111
0.021564254
0.075172716
0.045966087
0.067650388
-0.012977335
0.076697457
-1.0960034e-08
4.4810758e-08
-4.8813849e-08
1.5384134e-07
-1.2258162e-07
2.9891026e-07
-2.4364461e-07
4.9027278e-07
-4.2629819e-07
7.4092969e-07
-6.8842388e-07
1.067293e-06
-1.0523037e-06
1.4899994e-06
-1.5456001e-06
2.0348813e-06
-2.2025356e-06
2.7341163e-06
-3.0652984e-06
3.6275685e-06
-4.185713e-06
4.7643181e-06
-5.627214e-06
6.2043836e-06
-7.4671579e-06
8.020584e-06
-9.799506e-06
1.0300488e-05
-1.2737911e-05
1.3148321e-05
-1.6419218e-05
1.6686668e-05
-2.1007386e-05
2.1057679e-05
-2.6697768e-05
2.6423433e-05
-3.3721697e-05
3.2964944e-05
-4.2351203e-05
4.0879193e-05
-5.2903611e-05
5.0373391e-05
-6.5745664e-05
6.1655628e-05
-8.1296607e-05
7.4920916e-05
-0.00010002949
9.0331813e-05
-0.00012246968
0.00010799292
-0.00014918927
0.00012791912
-0.00018079587
0.00014999846
-0.00021791401
0.00017395222
-0.00026115802
0.00019929883
-0.00031109666
0.00022533499
-0.00036821391
0.00025115916
-0.00043287824
0.00027577346
-0.00050534165
0.00029828613
-0.00058579016
0.00031816144
-0.0006744434
0.00033535465
-0.00077166413
0.00035018638
-0.00087803236
0.00036302831
-0.00099437749
0.00037402354
-0.0011217981
0.00038295592
-0.0012617043
0.00038921565
-0.0014159041
0.00039176079
-0.0015867544
0.00038899855
-0.0017774006
0.00037854938
-0.0019921065
0.00035684311
-0.0022366255
0.00031807742
-0.0025185926
0.00025268124
-0.0028480325
0.00014590825
-0.0032377437
-2.5699432e-05
-0.0037033692
-0.00029933597
-0.0042627906
-0.00073311831
-0.0049340733
-0.0014163301
-0.0057304026
-0.0024828274
-0.0066491974
-0.0041237301
-0.0076533461
-0.0065849135
-0.0086449412
-0.010109374
-0.0094419058
-0.014756063
-0.0097574829
-0.019955232
-0.0093361694
-0.024396421
-0.0077267925
-0.024704548
-0.0042195458
-0.017165396
0.0024988941
0.0023454104
0.014054501
0.031916504
0.032783383
0.056443834
0.060828266
0.039605505
-0.044663267
0.092514198
-1.0540325e-08
5.5351083e-08
-4.6955116e-08
1.9025613e-07
-1.1793287e-07
3.6988802e-07
-2.3443524e-07
6.0677515e-07
-4.1022889e-07
9.1672335e-07
-6.6253292e-07
1.319597e-06
-1.0128015e-06
1.840268e-06
-1.4876689e-06
2.5097488e-06
-2.1200853e-06
3.3665327e-06
-2.9506736e-06
4.4581568e-06
-4.0293446e-06
5.8429891e-06
-5.4172089e-06
7.5922478e-06
-7.1888148e-06
9.7921899e-06
-9.4347682e-06
1.2546441e-05
-1.2264745e-05
1.5978298e-05
-1.5810934e-05
2.0232857e-05
-2.0231909e-05
2.5478655e-05
-2.5716911e-05
3.1908434e-05
-3.2490452e-05
3.9738485e-05
-4.0817158e-05
4.9205899e-05
-5.1006587e-05
6.0562819e-05
-6.3417687e-05
7.4066728e-05
-7.8462433e-05
8.9965662e-05
-9.6607883e-05
0.00010847726
-0.00011837568
0.00012976071
-0.00014433776
0.00015388121
-0.0001751067
0.0001807674
-0.00021131884
0.00021016435
-0.00025360873
0.00024158872
-0.00030257457
0.00027430084
-0.00035873763
0.00030732221
-0.00042250588
0.00033954172
-0.00049416237
0.00036994261
-0.00057390279
0.00039790187
-0.00066192852
0.00042338037
-0.00075856097
0.00044681883
-0.00086432689
0.00046879423
-0.00097999793
0.00048969459
-0.001106611
0.00050956896
-0.0012455061
0.00052811079
-0.0013984096
0.00054466429
-0.0015675816
0.00055817053
-0.0017560496
0.0005670174
-0.0019679353
0.00056872882
-0.0022088097
0.00055895183
-0.0024860835
0.00052995501
-0.0028094665
0.00046929128
-0.0031912667
0.00035610076
-0.0036462576
0.00015565488
-0.0041906778
-0.00018869806
-0.0048393816
-0.00076762628
-0.005599118
-0.001723091
-0.0064548571
-0.003267991
-0.0073467553
-0.0056930154
-0.0081368791
-0.0093192505
-0.0085784191
-0.014314523
-0.0083103412
-0.02022331
-0.006981523
-0.025725239
-0.0040721539
-0.027613917
0.0010960435
-0.022333594
0.0096939732
-0.0062525193
0.023618084
0.017992394
0.045563916
0.034498002
0.076275155
0.0088942661
-0.076404013
0.1080159
-9.9256972e-09
6.5276781e-08
-4.4229928e-08
2.2456036e-07
-1.1111197e-07
4.3677005e-07
-2.209151e-07
7.1657828e-07
-3.8662888e-07
1.0824371e-06
-6.2449897e-07
1.5574671e-06
-9.547663e-07
2.1705353e-06
-1.402561e-06
2.9575435e-06
-1.9989743e-06
3.962946e-06
-2.7823462e-06
5.2415287e-06
-3.7997983e-06
6.8604412e-06
-5.1090498e-06
8.9014994e-06
-6.7805643e-06
1.1463704e-05
-8.9000509e-06
1.4665928e-05
-1.1571379e-05
1.8649626e-05
-1.4919915e-05
2.3581393e-05
-1.9096308e-05
2.9655048e-05
-2.4280725e-05
3.7092852e-05
-3.0687485e-05
4.6145245e-05
-3.8569968e-05
5.7088383e-05
-4.8225675e-05
7.0218526e-05
-6.0001084e-05
8.5842137e-05
-7.42959e-05
0.00010426048
-9.1565984e-05
0.00012574735
-0.00011232412
0.00015051885
-0.00013713728
0.00017869437
-0.00016661887
0.00021024899
-0.00020141416
0.00024495964
-0.00024217681
0.00028235137
-0.00028953556
0.0003216596
-0.00034405247
0.00036183912
-0.00040618031
0.00040166956
-0.00047623777
0.00044000008
-0.00055442998
0.00047609408
-0.00064093027
0.00050988066
-0.00073599771
0.00054188626
-0.00084007494
0.00057287146
-0.00095383702
0.00060345666
-0.0010782114
0.00063394333
-0.0012144084
0.00066430783
-0.0013639937
0.00069424955
-0.0015290236
0.00072320047
-0.0017122663
0.00075026011
-0.0019174998
0.00077396234
-0.0021498268
0.00079127878
-0.0024160405
0.00079616871
-0.0027249811
0.00077823192
-0.0030876354
0.00071875498
-0.0035166687
0.00058468819
-0.0040248388
0.00031947205
-0.0046209109
-0.00017155411
-0.0053009248
-0.0010430772
-0.0060315182
-0.0025373975
-0.0067214922
-0.0050030413
-0.0071805455
-0.0088601973
-0.0070862902
-0.014408778
-0.0060113432
-0.021298257
-0.0035534219
-0.028183161
0.00077884511
-0.031946184
0.0075925557
-0.029147304
0.018141316
-0.016801279
0.034558227
0.0015754824
0.059360604
0.0096956252
0.092237604
-0.023982734
-0.10663328
0.12246687
-9.1188533e-09
7.4395634e-08
-4.0649719e-08
2.5609123e-07
-1.0214616e-07
4.9826649e-07
-2.0313662e-07
8.1756874e-07
-3.5558621e-07
1.2348867e-06
-5.7445904e-07
1.7763399e-06
-8.7840113e-07
2.4744774e-06
-1.2905631e-06
3.3697054e-06
-1.8395945e-06
4.5119775e-06
-2.5608356e-06
5.9627698e-06
-3.4977417e-06
7.7973473e-06
-4.7035803e-06
1.0107338e-05
-6.2434405e-06
1.3003565e-05
-8.1965886e-06
1.6619076e-05
-1.0659233e-05
2.1112271e-05
-1.3747717e-05
2.6669877e-05
-1.7602184e-05
3.3509514e-05
-2.2390701e-05
4.1881369e-05
-2.8313879e-05
5.2068423e-05
-3.5609863e-05
6.4384367e-05
-4.4559577e-05
7.9168239e-05
-5.5492027e-05
9.6774587e-05
-6.8789195e-05
0.00011755765
-8.4889995e-05
0.00014184815
-0.00010429242
0.00016992127
-0.00012755266
0.00020195461
-0.00015527972
0.00023797605
-0.00018812341
0.00027780333
-0.0002267537
0.00032098166
-0.00027182926
0.00036673516
-0.00032395497
0.00041396483
-0.00038363288
0.00046134747
-0.00045122248
0.00050758968
-0.00052693982
0.00055181142
-0.00061092233
0.00059386317
-0.00070334597
0.0006343099
-0.00080453625
0.00067406174
-0.00091502833
0.00071394874
-0.0010355864
0.00075450138
-0.0011672227
0.00079594416
-0.0013112519
0.00083827874
-0.0014694046
0.00088135316
-0.0016440212
0.00092487675
-0.0018382977
0.00096823877
-0.0020565228
0.0010095039
-0.0023043881
0.001044034
-0.0025891402
0.001062984
-0.0029193465
0.0010489613
-0.0033038714
0.00096921305
-0.0037491793
0.00076477994
-0.0042535845
0.00033285109
-0.0047957772
-0.00050088442
-0.0053137388
-0.002019436
-0.005667034
-0.0046497461
-0.0055863522
-0.008940879
-0.0046464918
-0.015348638
-0.0023586991
-0.02358605
0.0016218881
-0.032163748
0.0075752903
-0.037899586
0.016064391
-0.037636404
0.028496872
-0.029233761
0.047110722
-0.017038367
0.074721148
-0.017914801
0.1086143
-0.057875887
-0.13252824
0.13450925
-8.1304609e-09
8.2526095e-08
-3.6261578e-08
2.8422235e-07
-9.1152638e-08
5.5315755e-07
-1.8132992e-07
9.0774601e-07
-3.1749988e-07
1.3710567e-06
-5.1305219e-07
1.9718922e-06
-7.8467204e-07
2.7460972e-06
-1.1530788e-06
3.7381122e-06
-1.6439219e-06
5.0028206e-06
-2.2888536e-06
6.6077014e-06
-3.1268253e-06
8.635319e-06
-4.2056253e-06
1.1186138e-05
-5.5837207e-06
1.438166e-05
-7.3324338e-06
1.8367789e-05
-9.5385075e-06
2.3318344e-05
-1.2307108e-05
2.9438477e-05
-1.5765299e-05
3.6967705e-05
-2.0066049e-05
4.6182119e-05
-2.5392741e-05
5.7395116e-05
-3.1964203e-05
7.0955828e-05
-4.0040148e-05
8.7244185e-05
-4.9926853e-05
0.00010666129
-6.1982767e-05
0.00012961356
-7.6623527e-05
0.00015648891
-9.4325652e-05
0.00018762339
-0.00011562771
0.00022325667
-0.00014112755
0.00026347589
-0.00017147346
0.00030814923
-0.00020734676
0.00035685497
-0.00024943308
0.00040882148
-0.00029837977
0.00046291152
-0.00035474106
0.00051770875
-0.00041892235
0.00057177097
-0.00049115401
0.00062404308
-0.00057153256
0.00067424172
-0.00066013156
0.0007229089
-0.00075712497
0.00077105515
-0.00086286054
0.00081968432
-0.00097787896
0.0008695198
-0.0011029171
0.00092098231
-0.0012389359
0.0009742975
-0.0013871989
0.0010296162
-0.0015494215
0.0010870993
-0.0017279311
0.0011467483
-0.0019257839
0.0012073568
-0.0021469532
0.0012652032
-0.0023961367
0.0013121676
-0.0026779734
0.0013307979
-0.0029950253
0.001286265
-0.0033432848
0.0011130394
-0.0037037475
0.00069331377
-0.0040271338
-0.00017749811
-0.0042028211
-0.0018437487
-0.0040037501
-0.0048488171
-0.0030207774
-0.0099238517
-0.00066894002
-0.017700476
0.0035679866
-0.027822977
0.0097903597
-0.038386121
0.017911197
-0.046020424
0.02827371
-0.047998917
0.042450278
-0.043410329
0.06292906
-0.037517149
0.092470792
-0.047456533
0.12379018
-0.089195275
-0.15061358
0.14187552
-6.9793945e-09
8.9505489e-08
-3.1148985e-08
3.0839194e-07
-7.8340455e-08
6.0034902e-07
-1.5590923e-07
9.8531479e-07
-2.7309107e-07
1.4882385e-06
-4.4143634e-07
2.1402375e-06
-6.753382e-07
2.9799991e-06
-9.9267503e-07
4.055449e-06
-1.4155866e-06
5.4257321e-06
-1.9714137e-06
7.1635285e-06
-2.6938293e-06
9.3577346e-06
-3.6242042e-06
1.2116513e-05
-4.813236e-06
1.5570692e-05
-6.3229105e-06
1.9877464e-05
-8.2288176e-06
2.5224251e-05
-1.0622914e-05
3.1832574e-05
-1.3616775e-05
3.9961566e-05
-1.7345371e-05
4.9910716e-05
-2.1971457e-05
6.2021202e-05
-2.7690552e-05
7.6674923e-05
-3.4736515e-05
9.4290148e-05
-4.3387557e-05
0.00011531233
-5.3972536e-05
0.00014019854
-6.6877057e-05
0.00016939343
-8.254872e-05
0.00020329505
-0.00010150053
0.00024220848
-0.00012431095
0.00028628631
-0.00015161857
0.00033545686
-0.00018410857
0.00038934496
-0.00022248732
0.00044720023
-0.00026744113
0.00050786533
-0.00031957643
0.00056984405
-0.00037934846
0.000631543
-0.00044700688
0.0006917015
-0.00052260575
0.00074984059
-0.00060609993
0.00080640308
-0.00069747723
0.00086243244
-0.0007968469
0.00091905399
-0.00090445908
0.00097713198
-0.0010206886
0.0010372118
-0.0011460259
0.0010996348
-0.0012811046
0.0011646949
-0.0014267804
0.0012327752
-0.0015841628
0.0013041308
-0.0017545642
0.0013777582
-0.0019394352
0.0014500742
-0.0021396298
0.0015123622
-0.0023536958
0.0015448639
-0.0025741552
0.0015067245
-0.0027801247
0.0013190089
-0.002925117
0.00083830606
-0.0029131576
-0.00018945752
-0.0025475763
-0.00220933
-0.0014421717
-0.0059542217
0.0010594631
-0.012425487
0.0057386513
-0.022379664
0.012989837
-0.035074162
0.022423932
-0.047820216
0.033382221
-0.056978713
0.045920128
-0.060536824
0.061696327
-0.059186528
0.083031488
-0.05885231
0.11050357
-0.074928617
0.13397906
-0.11267077
-0.16128066
0.14464615
-5.6947116e-09
9.5200201e-08
-2.5441169e-08
3.281384e-07
-6.4032439e-08
6.3894029e-07
-1.2751374e-07
1.0487961e-06
-2.2347294e-07
1.5841977e-06
-3.6140049e-07
2.278165e-06
-5.5312213e-07
3.1717207e-06
-8.1333042e-07
4.3156573e-06
-1.1602293e-06
5.772631e-06
-1.6163167e-06
7.6196159e-06
-2.2093387e-06
9.9507566e-06
-2.9734398e-06
1.2880614e-05
-3.9505644e-06
1.6547816e-05
-5.1921493e-06
2.1119048e-05
-6.7611638e-06
2.6793266e-05
-8.7345731e-06
3.3805983e-05
-1.1206282e-05
4.2433274e-05
-1.4290653e-05
5.2995087e-05
-1.8126674e-05
6.5857223e-05
-2.2882809e-05
8.1431057e-05
-2.87626e-05
0.00010016994
-3.6010973e-05
0.00012256071
-4.4921081e-05
0.00014910865
-5.5841434e-05
0.00018031378
-6.9182712e-05
0.00021663633
-8.5423381e-05
0.00025844915
-0.00010511273
0.00030597566
-0.00012886923
0.00035921336
-0.00015737135
0.00041784708
-0.00019133637
0.00048116525
-0.00023148149
0.00054801045
-0.00027846121
0.00061682376
-0.00033278182
0.00068586362
-0.00039471734
0.00075363702
-0.00046428145
0.00081940471
-0.0005412984
0.00088342003
-0.00062553685
0.0009466709
-0.00071681352
0.0010103307
-0.00081501427
0.0010753327
-0.0009200543
0.0011422518
-0.0010318213
0.0012114018
-0.0011501307
0.0012830043
-0.0012746949
0.0013573393
-0.0014049726
0.0014344085
-0.0015398927
0.0015126783
-0.0016773078
0.0015874894
-0.0018124218
0.0016474761
-0.0019345182
0.0016669603
-0.0020204226
0.0015926288
-0.002022954
0.0013215403
-0.0018523678
0.00066771988
-0.0013328628
-0.00070896251
-0.00011574623
-0.0034264466
0.0024664094
-0.0085363773
0.0073956073
-0.017354684
0.015417131
-0.030401187
0.026285944
-0.045942976
0.038810608
-0.06034488
0.051915673
-0.070083778
0.065643054
-0.074264206
0.081523278
-0.075066752
0.10072236
-0.078051395
0.12152021
-0.095726465
0.13685823
-0.12800878
-0.16818973
0.14376729
-4.3148489e-09
9.951505e-08
-1.930786e-08
3.4313141e-07
-4.8653411e-08
6.6828585e-07
-9.6983482e-08
1.0971262e-06
-1.7011127e-07
1.6573255e-06
-2.7530325e-07
2.383357e-06
-4.2161485e-07
3.3180323e-06
-6.20298e-07
4.5143404e-06
-8.8530267e-07
6.0376357e-06
-1.2338903e-06
7.9682036e-06
-1.6873828e-06
1.0404249e-05
-2.2720919e-06
1.3465323e-05
-3.0204478e-06
1.7296172e-05
-3.9724005e-06
2.2071001e-05
-5.177136e-06
2.7998001e-05
-6.6951877e-06
3.5324035e-05
-8.6010268e-06
4.4339113e-05
-1.098624e-05
5.5380301e-05
-1.3963366e-05
6.8834349e-05
-1.7670541e-05
8.5138232e-05
-2.2277003e-05
0.0001047764
-2.7989518e-05
0.00012827322
-3.5059691e-05
0.00015617882
-4.3791907e-05
0.000189046
-5.4551608e-05
0.00022739603
-6.7772981e-05
0.00027167052
-8.3964905e-05
0.00032216759
-0.00010371314
0.00037896159
-0.00012767563
0.00044180957
-0.00015656633
0.00051005595
-0.00019112003
0.00058256415
-0.00023202933
0.00065773306
-0.00027984724
0.00073368153
-0.00033487461
0.00080866439
-0.00039708943
0.00088161952
-0.00046617893
0.00095250953
-0.00054166335
0.0010221553
-0.00062301153
0.0010916788
-0.00070966451
0.0011619857
-0.0008009678
0.0012335551
-0.00089605355
0.0013064876
-0.00099369777
0.0013806486
-0.0010921219
0.0014557634
-0.0011885971
0.0015308837
-0.0012788192
0.0016029004
-0.0013555738
0.001664244
-0.0014058122
0.0016977145
-0.0014048305
0.0016659786
-0.0013053494
0.0014931477
-0.0010201451
0.001036336
-0.00039029134
3.786609e-05
0.00089763913
-0.001996893
0.0034627866
-0.005991594
0.0083469131
-0.013420504
0.016560781
-0.025568552
0.028050293
-0.041890699
0.041332032
-0.059224715
0.054505237
-0.073518084
0.06679507
-0.082373611
0.078874796
-0.086343931
0.092272528
-0.088464484
0.10776501
-0.093543881
0.12266881
-0.11063026
0.13439423
-0.1397342
-0.17548614
0.14169064
-2.8895624e-09
1.0240461e-07
-1.2970384e-08
3.5321223e-07
-3.2757466e-08
6.8807293e-07
-6.5418287e-08
1.129787e-06
-1.1492372e-07
1.706831e-06
-1.8623476e-07
2.4546681e-06
-2.8552809e-07
3.4173257e-06
-4.2048138e-07
4.6492937e-06
-6.0061757e-07
6.2177719e-06
-8.3774071e-07
8.2053267e-06
-1.1464755e-06
1.0712984e-05
-1.5449438e-06
1.3863791e-05
-2.0556135e-06
1.7806842e-05
-2.706373e-06
2.2721761e-05
-3.5318883e-06
2.8823517e-05
-4.5753237e-06
3.636747e-05
-5.8905082e-06
4.5654298e-05
-7.5446912e-06
5.7034484e-05
-9.6219803e-06
7.0911638e-05
-1.222763e-05
8.7743882e-05
-1.5493315e-05
0.00010804209
-1.9583502e-05
0.00013236341
-2.4702959e-05
0.00016129828
-3.1105375e-05
0.00019544842
-3.9102689e-05
0.00023539335
-4.9074675e-05
0.00028164251
-6.1477505e-05
0.00033457042
-7.6849527e-05
0.00039433361
-9.5811189e-05
0.00046077124
-0.00011905404
0.0005332988
-0.0001473108
0.00061082091
-0.00018129507
0.00069171733
-0.00022159489
0.00077398135
-0.00026853537
0.00085560487
-0.00032206003
0.00093514419
-0.00038172023
0.0010121697
-0.00044676351
0.0010871986
-0.00051625521
0.0011611705
-0.0005891042
0.0012348347
-0.00066396144
0.0013084124
-0.0007390233
0.0013815494
-0.00081175352
0.0014533788
-0.00087844999
0.0015224598
-0.00093350908
0.0015859428
-0.00096821389
0.0016376052
-0.00096819726
0.0016642274
-0.00090829899
0.0016378162
-0.0007426793
0.001500359
-0.00038768845
0.0011381569
0.00030396126
0.00034468633
0.0016109915
-0.0012691642
0.0040879397
-0.0044738412
0.0087386865
-0.010642341
0.016699082
-0.0213809
0.028134075
-0.037003545
0.041499553
-0.055256178
0.054407276
-0.072132438
0.065405782
-0.08451659
0.074832264
-0.091800093
0.084171772
-0.095683439
0.094958832
-0.099251545
0.1079158
-0.10650085
0.12080893
-0.1235234
0.13192885
-0.15085412
-0.18348108
0.13992379
-1.4756501e-09
1.0388026e-07
-6.6803109e-09
3.5841689e-07
-1.6974308e-08
6.9836693e-07
-3.406577e-08
1.1468784e-06
-6.0090561e-08
1.7328558e-06
-9.7706263e-08
2.4922838e-06
-1.5021871e-07
3.4698381e-06
-2.217305e-07
4.7208055e-06
-3.1733753e-07
6.3133789e-06
-4.4337748e-07
8.3313667e-06
-6.0775355e-07
1.087736e-05
-8.2034931e-07
1.4076387e-05
-1.0935954e-06
1.8080088e-05
-1.4431879e-06
2.3071353e-05
-1.8890683e-06
2.9269397e-05
-2.4567059e-06
3.6935108e-05
-3.1788175e-06
4.637641e-05
-4.0975884e-06
5.7953255e-05
-5.2676507e-06
7.20817e-05
-6.7598663e-06
8.9236097e-05
-8.6662005e-06
0.00010994842
-1.1105817e-05
0.00013480303
-1.4232528e-05
0.00016442499
-1.8243664e-05
0.00019945955
-2.3390184e-05
0.00024053987
-2.9987559e-05
0.00028823988
-3.8426505e-05
0.00034300936
-4.9181875e-05
0.00040508898
-6.2816752e-05
0.00047440611
-7.9976903e-05
0.00055045896
-0.00010136723
0.00063221123
-0.00012770196
0.00071805205
-0.00015958285
0.00080586224
-0.00019732114
0.00089334316
-0.00024085059
0.00097867363
-0.00028957479
0.0010608939
-0.00034245198
0.0011400758
-0.00039809211
0.0012168107
-0.00045477683
0.0012915194
-0.00051031717
0.0013639527
-0.00056175347
0.0014329857
-0.00060488851
0.0014965138
-0.00063352992
0.0015511012
-0.00063825756
0.0015906705
-0.00060423972
0.0016035874
-0.00050682231
0.0015668099
-0.00030277118
0.0014337651
8.5909735e-05
0.001111678
0.00079726802
0.00042679861
0.0020796953
-0.00093774092
0.0044246207
-0.0036140897
0.0087535751
-0.0088027955
0.016227166
-0.018115932
0.02719835
-0.032352083
0.040282877
-0.050088072
0.0529388
-0.067912101
0.06327303
-0.082466668
0.071206816
-0.092450376
0.078152911
-0.098746188
0.085830543
-0.10336107
0.095411767
-0.10883277
0.10713093
-0.11822001
0.11928843
-0.1356809
0.13014582
-0.16171151
-0.19196047
0.1386252
-1.4117012e-10
1.0402143e-07
-7.4166989e-10
3.5901739e-07
-2.0680472e-09
6.9969331e-07
-4.4454221e-09
1.1492558e-06
-8.2659749e-09
1.7366763e-06
-1.4004237e-08
2.498022e-06
-2.2233566e-08
3.4780674e-06
-3.3655717e-08
4.7322277e-06
-4.9147219e-08
6.3288704e-06
-6.982586e-08
8.3520453e-06
-9.7162144e-08
1.0904696e-05
-1.3314763e-07
1.4112373e-05
-1.8054708e-07
1.8127488e-05
-2.4329522e-07
2.3134101e-05
-3.2705816e-07
2.935316e-05
-4.4007704e-07
3.7048127e-05
-5.9435899e-07
4.6530691e-05
-8.0739132e-07
5.8166287e-05
-1.104462e-06
7.2378771e-05
-1.5218937e-06
8.9653529e-05
-2.1112935e-06
0.00011053782
-2.9451425e-06
0.00013563687
-4.1238607e-06
0.00016560371
-5.7845347e-06
0.00020112022
-8.1112164e-06
0.00024286655
-1.1346544e-05
0.00029147521
-1.5803869e-05
0.00034746669
-2.1878344e-05
0.00041116346
-3.0054243e-05
0.00048258201
-4.0903014e-05
0.00056130773
-5.5064867e-05
0.00064637309
-7.3197243e-05
0.00073618443
-9.5943738e-05
0.00082860874
-0.00012349591
0.00092089533
-0.00015584083
0.0010110186
-0.00019219137
0.0010972445
-0.00023121272
0.0011790971
-0.0002709889
0.0012565869
-0.00030907227
0.0013296028
-0.00034225764
0.0013971381
-0.00036614576
0.0014568738
-0.0003744083