/*--------------------------------*- C++ -*----------------------------------*\
  =========                 |
  \\      /  F ield         | OpenFOAM: The Open Source CFD Toolbox
   \\    /   O peration     | Website:  https://openfoam.org
    \\  /    A nd           | Version:  13
     \\/     M anipulation  |
\*---------------------------------------------------------------------------*/
FoamFile
{
    format      ascii;
    class       volSymmTensorField;
    location    "36.996649";
    object      UPrime2Mean;
}
// * * * * * * * * * * * * * * * * * * * * * * * * * * * * * * * * * * * * * //

dimensions      [0 2 -2 0 0 0 0];

internalField   nonuniform List<symmTensor> 
17140
(
(5.8731437e-12 -3.695511e-10 -9.8840158e-28 2.4723182e-08 1.4793621e-26 5.7906394e-41)
(3.9965039e-10 -5.7870186e-09 -4.4221134e-28 2.3615326e-07 3.2174311e-27 5.1447658e-43)
(3.4344525e-09 -2.4098022e-08 7.1773865e-26 7.1877576e-07 -3.3557505e-25 2.242833e-39)
(1.5973431e-08 -6.7652608e-08 -1.5268279e-25 1.5513558e-06 5.1464892e-25 2.7105885e-39)
(5.3221122e-08 -1.5428135e-07 3.0523626e-26 2.8291238e-06 -7.9041007e-26 3.704457e-41)
(1.4564198e-07 -3.099803e-07 -1.5840915e-25 4.6660316e-06 3.2797476e-25 3.9679602e-40)
(3.4995258e-07 -5.7151981e-07 -4.0278203e-25 7.1969856e-06 6.8228517e-25 1.1246775e-39)
(7.6637212e-07 -9.8963463e-07 2.8676805e-25 1.0579816e-05 -4.0342898e-25 2.6806325e-40)
(1.5652802e-06 -1.6328419e-06 1.3348705e-24 1.4996685e-05 -1.5759649e-24 2.8719614e-39)
(3.0274283e-06 -2.5917044e-06 4.5625845e-24 2.0654542e-05 -4.5566444e-24 1.7278097e-38)
(5.6032513e-06 -3.9832569e-06 -9.2762176e-24 2.7784123e-05 7.8850249e-24 3.7992993e-38)
(9.9983984e-06 -5.9550918e-06 1.1189026e-23 3.6636829e-05 -8.133569e-24 3.0174809e-38)
(1.729418e-05 -8.6883173e-06 2.2941898e-24 4.747875e-05 -1.4315343e-24 7.0693115e-40)
(2.9112761e-05 -1.239822e-05 -1.7195197e-23 6.0580981e-05 9.2434275e-24 2.2612743e-38)
(4.783712e-05 -1.7331136e-05 2.5124557e-24 7.6205427e-05 -1.1660235e-24 2.78753e-40)
(7.6894131e-05 -2.3755751e-05 -2.5986675e-23 9.4585403e-05 1.0435785e-23 1.7490461e-38)
(0.00012110448 -3.194715e-05 1.2512e-24 0.00011590071 -4.3558426e-25 2.4224253e-41)
(0.00018709479 -4.2162532e-05 -3.6656974e-25 0.00014024745 1.1041699e-25 1.2128614e-42)
(0.00028375446 -5.4608977e-05 -3.287351e-23 0.00016760372 8.6156621e-24 6.1006356e-39)
(0.00042270458 -6.9406232e-05 5.4117837e-23 0.00019779349 -1.2322942e-23 1.0228768e-38)
(0.00061873293 -8.655087e-05 -3.2867331e-23 0.00023045237 6.5022305e-24 2.3620779e-39)
(0.00089014432 -0.00010589169 7.8093645e-24 0.00026500063 -1.3443086e-24 8.5496677e-41)
(0.0012589905 -0.00012712737 7.1377721e-23 0.00030063118 -1.0660264e-23 4.6019464e-39)
(0.0017512132 -0.00014983591 -8.7248196e-23 0.00033632299 1.1315921e-23 4.5263852e-39)
(0.0023969192 -0.00017353951 -1.6840907e-22 0.00037089529 1.8948814e-23 1.1331622e-38)
(0.003230575 -0.00019777373 1.6224566e-22 0.00040312063 -1.5832899e-23 7.2234751e-39)
(0.0042910113 -0.00022207327 9.4751152e-22 0.00043190489 -8.0091919e-23 1.7200513e-37)
(0.0056242703 -0.00024609015 1.3173128e-22 0.00045648785 -9.6317584e-24 2.3583381e-39)
(0.0072850189 -0.00026960201 -1.3451808e-21 0.00047658066 8.5149184e-23 1.7985457e-37)
(0.0093373903 -0.00029192697 -3.6485571e-22 0.00049237131 1.9963346e-23 9.7536074e-39)
(0.01185819 -0.00031248901 -1.4969534e-21 0.00050433079 7.0764416e-23 1.2356521e-37)
(0.014937462 -0.00033097175 2.2517412e-21 0.000512907 -9.1856579e-23 2.1356587e-37)
(0.018681345 -0.00034654561 -6.6857405e-22 0.00051851168 2.3456856e-23 1.4498431e-38)
(0.023211876 -0.00035821793 -3.6107744e-22 0.0005215735 1.0875368e-23 3.3177031e-39)
(0.028666734 -0.00036471455 -4.0103805e-21 0.00052249617 1.02735e-22 3.2196701e-37)
(0.035197178 -0.00036439011 1.9721723e-21 0.00052157473 -4.2787618e-23 6.2379207e-38)
(0.042963784 -0.00035509296 -3.3258597e-21 0.00051897683 6.0363881e-23 1.4262624e-37)
(0.052128774 -0.00033405887 -2.5032301e-21 0.00051480129 3.7535802e-23 6.5793938e-38)
(0.062843213 -0.00029789145 -1.2685031e-21 0.00050921942 1.5422843e-23 1.3885115e-38)
(0.075227017 -0.0002425665 4.2176464e-21 0.00050270042 -4.0689826e-23 1.282214e-37)
(0.089340731 -0.00016374525 8.6983741e-21 0.00049625294 -6.4104121e-23 4.5822674e-37)
(0.10514974 -5.7245898e-05 8.5638501e-21 0.00049150656 -4.5648388e-23 3.7770422e-37)
(0.12248353 7.9933402e-05 4.026992e-21 0.00049047495 -1.4092906e-23 7.1890279e-38)
(0.14100361 0.00024863695 -2.1028299e-20 0.00049512903 3.8480807e-23 1.6960174e-36)
(0.16019218 0.0004461105 -1.6353882e-20 0.00050714608 5.1709663e-24 9.0091694e-37)
(0.17935481 0.00066360263 4.2392421e-21 0.00052796019 4.5527489e-24 5.3922011e-38)
(0.19773588 0.0008903136 -3.0191715e-20 0.00055930321 -7.1545818e-23 2.4640322e-36)
(0.21462751 0.0011198665 -1.0659771e-20 0.00060412815 -3.8227629e-23 2.804676e-37)
(0.22926472 0.0013481712 1.120001e-20 0.00066725744 5.3094478e-23 2.868489e-37)
(0.2412642 0.0015707984 2.805667e-20 0.00075471082 1.6350449e-22 1.6913876e-36)
(0.25029202 0.0017880557 -1.7539312e-20 0.00087469963 -1.1999373e-22 6.3060831e-37)
(0.25615193 0.0020122267 -1.1154808e-20 0.0010391267 -8.6717648e-23 2.4695438e-37)
(0.25867075 0.0022722713 2.908636e-20 0.0012635534 2.5199316e-22 1.6496782e-36)
(0.25798087 0.0025873135 1.3640237e-20 0.0015669307 1.2904574e-22 3.61992e-37)
(0.25435374 0.0029432625 9.5653385e-21 0.001972688 9.6637356e-23 1.8071064e-37)
(0.24852952 0.0032989256 -7.3595081e-21 0.0025143838 -7.7286175e-23 1.0972025e-37)
(0.24156035 0.0035844998 1.9186487e-20 0.0032379293 2.0053738e-22 7.861094e-37)
(0.23417391 0.0036816652 1.5410561e-20 0.0042312374 1.5207369e-22 5.4053671e-37)
(0.22703153 0.0034400985 3.6707975e-21 0.0056598233 3.1391757e-23 3.3485297e-38)
(0.21991575 0.0027614977 -8.9475347e-21 0.0078364005 -6.0746988e-23 2.2009509e-37)
(0.21196481 0.0018701934 -6.4983477e-21 0.011035271 -3.366291e-23 1.3372912e-37)
(0.20227884 0.001229355 -2.2064607e-20 0.01480015 -1.3227927e-22 1.8197711e-36)
(0.18816089 0.00087237994 -2.9039924e-21 0.017642784 -3.1991521e-23 3.8997227e-38)
(0.17216673 0.00065174999 2.168431e-20 0.018670524 4.3782731e-22 2.7541378e-36)
(0.1479513 0.00070631433 -1.427752e-20 0.019377279 -4.6950373e-22 1.6459728e-36)
(2.5472e-10 -5.9820511e-09 1.1733114e-27 1.4053444e-07 -2.2759545e-26 4.6894539e-42)
(3.9538267e-09 -7.2162734e-08 -3.8669519e-25 1.3319829e-06 5.9307988e-24 6.1733046e-38)
(1.7545045e-08 -2.6228843e-07 6.5635471e-25 4.0258031e-06 -8.2155334e-24 4.8885898e-38)
(5.4285844e-08 -6.6965088e-07 -2.9636917e-25 8.6223603e-06 3.0859768e-24 3.6332001e-39)
(1.3836039e-07 -1.426104e-06 -9.4322174e-25 1.5589454e-05 8.3141421e-24 1.550439e-38)
(3.1299695e-07 -2.7208914e-06 2.6546095e-24 2.546417e-05 -2.0069136e-23 5.6608803e-38)
(6.5246061e-07 -4.8186285e-06 -3.9516127e-24 3.8851306e-05 2.5829204e-23 6.151271e-38)
(1.2804019e-06 -8.0813875e-06 4.8552528e-25 5.6416127e-05 -2.7581304e-24 4.7644889e-40)
(2.3977189e-06 -1.2995661e-05 -2.0796443e-24 7.886939e-05 1.030532e-23 4.6438216e-39)
(4.3238038e-06 -2.020273e-05 -4.7906625e-26 0.00010694176 2.0773715e-25 1.3266535e-42)
(7.5565287e-06 -3.0531162e-05 -1.2570738e-23 0.0001413453 4.7774446e-23 5.1756055e-38)
(1.2857698e-05 -4.5028402e-05 2.6475404e-23 0.0001827194 -8.8380785e-23 1.3064561e-37)
(2.1372166e-05 -6.4986681e-05 2.8764068e-24 0.0002315601 -8.447232e-24 8.908832e-40)
(3.4789843e-05 -9.1956044e-05 -3.7080093e-23 0.00028813319 9.5917883e-23 8.672144e-38)
(5.5559886e-05 -0.00012773479 1.4776725e-23 0.00035237518 -3.370146e-23 8.1691306e-39)
(8.716484e-05 -0.00017432574 1.2108839e-23 0.00042379097 -2.4366307e-23 3.2872245e-39)
(0.00013445803 -0.00023384634 -9.8575305e-23 0.00050136274 1.7508101e-22 1.3184957e-37)
(0.00020405975 -0.00030838366 4.0946813e-22 0.00058349151 -6.42034e-22 1.392942e-36)
(0.00030479602 -0.0003997941 -3.2490743e-22 0.00066799722 4.497107e-22 5.4276988e-37)
(0.00044814941 -0.00050946295 4.9016759e-22 0.00075220321 -5.987197e-22 7.7311837e-37)
(0.00064867945 -0.00063806247 -9.050515e-22 0.00083312281 9.7513796e-22 1.6717102e-36)
(0.00092436622 -0.00078537263 2.7518047e-22 0.00090774548 -2.613839e-22 9.941183e-38)
(0.0012968444 -0.00095024645 1.3939437e-22 0.00097338996 -1.1665185e-22 1.6677957e-38)
(0.0017915583 -0.0011308036 -5.5601583e-22 0.0010280591 4.0959276e-22 1.7593632e-37)
(0.0024380497 -0.0013249116 2.4145172e-21 0.0010707146 -1.5649654e-21 2.246057e-36)
(0.0032702315 -0.0015307955 4.3198216e-22 0.001101412 -2.4611301e-22 4.9352123e-38)
(0.0043262725 -0.0017474381 -2.6484454e-21 0.0011212276 1.3269494e-21 1.3102169e-36)
(0.0056514698 -0.0019751147 3.4921313e-21 0.00113182 -1.5376404e-21 1.6306458e-36)
(0.0072997354 -0.0022152521 -5.5762041e-22 0.0011352022 2.1594808e-22 3.060939e-38)
(0.0093341462 -0.0024692451 -6.3446509e-21 0.0011336513 2.1569257e-21 2.9156461e-36)
(0.011830267 -0.0027388523 7.5488e-22 0.0011289719 -2.2541221e-22 3.1284311e-38)
(0.014876561 -0.0030257692 6.6376494e-21 0.0011220594 -1.7368963e-21 1.8356048e-36)
(0.018577194 -0.0033305272 1.9440023e-22 0.0011131405 -4.432184e-23 1.1655374e-39)
(0.023051706 -0.0036523476 -6.3855432e-21 0.0011020605 1.2788058e-21 1.0282452e-36)
(0.028434634 -0.0039887103 8.0362189e-21 0.0010884377 -1.4041366e-21 1.2892805e-36)
(0.034873255 -0.004334901 -4.0679475e-21 0.0010717261 6.1876686e-22 2.6362698e-37)
(0.04252311 -0.0046833422 5.3385479e-21 0.0010512816 -7.0602899e-22 3.6863752e-37)
(0.051540019 -0.0050226353 1.8913239e-20 0.0010264764 -2.1688351e-21 3.7643294e-36)
(0.062066938 -0.0053364353 4.6967337e-21 0.0009969274 -4.6595297e-22 1.9062262e-37)
(0.074213665 -0.0056023702 2.0180793e-20 0.00096287882 -1.7278643e-21 2.9371832e-36)
(0.088028356 -0.0057916277 -2.8227381e-20 0.00092568477 2.0777205e-21 4.8510815e-36)
(0.10346169 -0.0058700109 -2.8267528e-20 0.00088812979 1.7788075e-21 4.1274774e-36)
(0.12032652 -0.0058013729 -5.2477171e-21 0.00085450202 2.8035363e-22 1.2114722e-37)
(0.13826574 -0.0055536947 4.4704819e-20 0.00083049521 -2.0054784e-21 7.7433906e-36)
(0.15673849 -0.0051075994 -2.2583687e-20 0.00082302065 8.3914857e-22 1.7274975e-36)
(0.17503244 -0.0044681734 -8.2816735e-21 0.00083966186 2.4989775e-22 2.0638005e-37)
(0.19235402 -0.0036697043 4.619812e-21 0.00088743306 -1.0982892e-22 5.8792539e-38)
(0.20796623 -0.0027619214 1.5045059e-20 0.00097035633 -2.6934049e-22 5.6627344e-37)
(0.22124676 -0.0018060634 -7.5900517e-21 0.0010871169 9.5631581e-23 1.3391071e-37)
(0.23173135 -0.00085624765 1.4096406e-20 0.0012350692 -1.086637e-22 4.3416982e-37)
(0.23913109 6.9453727e-05 8.6135344e-20 0.0014152948 -2.8135e-22 1.5513068e-35)
(0.24328246 0.00097031762 4.1391603e-21 0.0016374066 3.688592e-24 3.4885836e-38)
(0.24415251 0.0018400498 -1.8655817e-20 0.0019217588 -8.5826304e-23 6.9733471e-37)
(0.24194196 0.0026532878 4.1157538e-20 0.0022940684 3.3598645e-22 3.3981709e-36)
(0.23719746 0.0033491574 -3.455484e-20 0.002784717 -3.9635733e-22 2.4382444e-36)
(0.23077172 0.0038503076 9.5607013e-20 0.0034296129 1.3773139e-21 1.9316695e-35)
(0.22376867 0.0041068808 2.6384155e-20 0.0042721323 4.4973151e-22 1.5471745e-36)
(0.21706514 0.0040408719 -7.1135714e-20 0.0053915282 -1.3565264e-21 1.2086238e-35)
(0.21125655 0.0036143225 1.1495546e-20 0.0069285735 2.4319531e-22 3.4391432e-37)
(0.20601502 0.0028128493 1.2297859e-20 0.0091340944 2.7793813e-22 4.4302844e-37)
(0.20009093 0.001940168 2.2821677e-21 0.012213195 5.7391252e-23 1.7692552e-38)
(0.19243639 0.0013938112 -2.7735588e-20 0.015745272 -8.6811096e-22 3.1084412e-36)
(0.17981015 0.0011752175 4.8136817e-20 0.018409427 2.0207638e-21 1.1781857e-35)
(0.16540999 0.0011704352 1.2691519e-20 0.019189573 7.3483899e-22 1.0558577e-36)
(0.14182929 0.0010358374 1.7732577e-20 0.019634754 1.4146447e-21 2.9162971e-36)
(2.06028e-09 -2.9437797e-08 1.7034245e-25 4.2062234e-07 -2.2722508e-24 1.425351e-38)
(2.3438937e-08 -3.0548115e-07 -2.666029e-25 3.9837044e-06 3.241559e-24 5.6394538e-39)
(8.3215394e-08 -9.9977544e-07 -1.2073447e-25 1.2032136e-05 1.3392003e-24 3.9889015e-40)
(2.1113864e-07 -2.3278541e-06 1.7261406e-25 2.5751465e-05 -1.7467984e-24 3.5863997e-40)
(4.5367153e-07 -4.581606e-06 -1.1929694e-24 4.6521352e-05 1.1030607e-23 8.4222118e-39)
(8.8445067e-07 -8.1620825e-06 -1.2263679e-25 7.59178e-05 1.0372375e-24 4.6562982e-41)
(1.6181637e-06 -1.3610766e-05 -2.1141465e-24 0.00011570441 1.6344306e-23 7.6032775e-39)
(2.8309158e-06 -2.1647554e-05 -3.0290256e-24 0.00016780558 2.137635e-23 8.826718e-39)
(4.7902185e-06 -3.3216842e-05 3.2522201e-23 0.00023425344 -2.0913181e-22 5.8964048e-37)
(7.8976629e-06 -4.9537812e-05 -3.7817946e-23 0.00031710227 2.2117264e-22 4.7005695e-37)
(1.2749558e-05 -7.2158508e-05 2.34069e-23 0.00041830163 -1.2426943e-22 1.0764303e-37)
(2.0221047e-05 -0.00010300667 4.4121746e-23 0.00053952092 -2.1227136e-22 2.3106343e-37)
(3.1581048e-05 -0.00014443007 -1.1202808e-22 0.00068192213 4.8757271e-22 9.083513e-37)
(4.8645875e-05 -0.0001992139 -1.7696456e-23 0.0008458838 6.956091e-23 1.3909672e-38)
(7.3979401e-05 -0.00027055876 8.680893e-23 0.0010306899 -3.0767842e-22 2.0717164e-37)
(0.0001111463 -0.00036199992 7.5603346e-23 0.0012342143 -2.4123105e-22 9.7751444e-38)
(0.00016502103 -0.00047724797 -1.1065927e-22 0.0014526505 3.1734298e-22 1.3114227e-37)
(0.00024214876 -0.00061993596 5.0373465e-22 0.001680359 -1.2961866e-21 1.7128136e-36)
(0.00035114446 -0.00079327315 -3.7268011e-22 0.0019099209 8.5898261e-22 5.957552e-37)
(0.00050310497 -0.00099963189 2.2967951e-22 0.0021324877 -4.7334957e-22 1.4486083e-37)
(0.0007119988 -0.001240134 -9.5910659e-22 0.0023384881 1.7643266e-21 1.6360304e-36)
(0.0009949962 -0.0015143482 -3.0702074e-22 0.002518684 5.0321306e-22 1.0978729e-37)
(0.0013727134 -0.0018202423 7.8237387e-22 0.0026654582 -1.1406181e-21 4.7348729e-37)
(0.0018693944 -0.0021545353 -1.4274211e-21 0.0027740843 1.8479038e-21 1.0616674e-36)
(0.0025132211 -0.0025135617 -6.7632735e-22 0.0028436441 7.7618411e-22 1.628802e-37)
(0.0033367471 -0.0028944379 9.6573611e-22 0.0028772907 -9.8175656e-22 2.3278269e-37)
(0.0043765603 -0.003295764 6.4862426e-21 0.0028816016 -5.8312754e-21 7.4377556e-36)
(0.0056761648 -0.0037186463 3.4425022e-21 0.0028645867 -2.7344698e-21 1.5111426e-36)
(0.0072875329 -0.004166314 -1.9915466e-21 0.0028340569 1.3976632e-21 3.7449393e-37)
(0.0092711946 -0.0046423286 2.4732497e-21 0.002796997 -1.529944e-21 4.2746984e-37)
(0.011699687 -0.005150815 -1.7655862e-21 0.0027583982 9.6333631e-22 1.6734369e-37)
(0.014657539 -0.0056954648 -1.1472467e-20 0.002720506 5.5022239e-21 5.3797536e-36)
(0.018244033 -0.0062781165 4.3699774e-21 0.0026833797 -1.8407505e-21 6.0675802e-37)
(0.022572565 -0.0068980921 1.4792075e-20 0.0026456743 -5.4625261e-21 5.4530219e-36)
(0.027769969 -0.0075514708 -5.5489971e-21 0.0026052247 1.7950937e-21 6.1404083e-37)
(0.033973862 -0.0082302741 -8.7545392e-21 0.002559425 2.4745352e-21 1.2190904e-36)
(0.041327658 -0.0089212741 1.6979887e-20 0.0025054329 -4.1895927e-21 3.7121668e-36)
(0.049971916 -0.0096042274 5.7867807e-21 0.0024403568 -1.244399e-21 3.5093569e-37)
(0.060030434 -0.010249682 -1.1371597e-20 0.0023615976 2.1297444e-21 1.1281178e-36)
(0.071589246 -0.010816886 -5.0199237e-21 0.002267561 8.1700543e-22 1.8420404e-37)
(0.084667643 -0.011252711 2.6520066e-20 0.002158715 -3.7385618e-21 4.3166956e-36)
(0.099182184 -0.011493353 -8.1479775e-21 0.0020389424 9.904763e-22 3.514173e-37)
(0.11490724 -0.011470334 -1.2818008e-20 0.0019169269 1.3382348e-21 7.4506843e-37)
(0.13144479 -0.011121877 -3.6927526e-20 0.001807369 3.2835403e-21 5.3631135e-36)
(0.14821189 -0.010409494 7.5010475e-20 0.0017311853 -5.6149376e-21 1.9554211e-35)
(0.16446887 -0.0093413722 -5.1564432e-20 0.0017135583 3.2007534e-21 8.2414923e-36)
(0.17943836 -0.0079893917 -1.3746479e-20 0.0017771153 6.949822e-22 5.2602629e-37)
(0.19241332 -0.006461999 -5.6614421e-20 0.00192955 2.2579942e-21 8.2584108e-36)
(0.20283728 -0.0048690289 -7.0264112e-20 0.0021573444 2.1310018e-21 1.1864922e-35)
(0.21035658 -0.0033131343 -3.6738648e-21 0.0024369989 8.1646088e-23 3.0479906e-38)
(0.21483732 -0.0018481276 1.582232e-20 0.0027506093 -2.1767952e-22 5.4409354e-37)
(0.21628188 -0.0004893362 -1.1704993e-19 0.0031027701 7.1575353e-22 2.9239626e-35)
(0.21484633 0.00073928173 -4.9864717e-20 0.0035238788 -3.3586818e-23 5.2654805e-36)
(0.21090346 0.0017705452 -5.0751474e-20 0.0040538526 -3.5861461e-22 5.4981851e-36)
(0.20521031 0.0025028899 -1.6373094e-20 0.0047292763 -2.190569e-22 5.8600444e-37)
(0.1987445 0.0028404717 -1.2304625e-19 0.005579583 -2.3089233e-21 3.4555238e-35)
(0.19269259 0.0027627836 4.7159777e-20 0.0066295544 1.1515662e-21 5.3775489e-36)
(0.18789248 0.002279831 -1.3668562e-20 0.0079250851 -3.9828047e-22 4.9155117e-37)
(0.18464779 0.0015061023 -1.0631089e-19 0.009561559 -3.6673418e-21 3.2722953e-35)
(0.18234932 0.00056566669 -3.9535804e-20 0.011717752 -1.5984045e-21 5.1285686e-36)
(0.17906015 -0.00015818921 4.3290901e-20 0.014527804 2.0702509e-21 7.2364221e-36)
(0.17362098 -0.00036383518 1.3489347e-19 0.017574999 8.0747823e-21 8.5427155e-35)
(0.16231128 -0.00021554414 -3.7868493e-20 0.019746912 -2.9506352e-21 8.7133448e-36)
(0.14984573 0.00034310277 -5.2971242e-20 0.01997986 -5.4684207e-21 2.2640661e-35)
(0.12725573 0.00037882739 -1.8716793e-20 0.019928139 -2.5638986e-21 4.1537184e-36)
(8.061031e-09 -8.1972664e-08 -1.1179047e-24 8.3358313e-07 1.098489e-23 1.5985281e-37)
(8.3260701e-08 -8.1083158e-07 3.5900885e-24 7.8968463e-06 -3.3712438e-23 2.9316991e-37)
(2.7269151e-07 -2.5502851e-06 -2.1107915e-24 2.3856521e-05 1.8894533e-23 3.8331563e-38)
(6.3751346e-07 -5.7046118e-06 3.3124696e-25 5.1071458e-05 -2.8212833e-24 4.5304679e-40)
(1.2648662e-06 -1.0799671e-05 -8.9715532e-24 9.2289641e-05 7.2624288e-23 1.7708627e-37)
(2.281086e-06 -1.8525435e-05 1.2346623e-23 0.00015065498 -9.4860741e-23 1.8961201e-37)
(3.8680176e-06 -2.9777556e-05 -2.442853e-23 0.00022969132 1.7774132e-22 4.363913e-37)
(6.2857627e-06 -4.5706159e-05 1.477683e-23 0.0003332509 -1.0152778e-22 9.662979e-38)
(9.9046816e-06 -6.7772854e-05 7.1526084e-23 0.00046541177 -4.6262494e-22 1.3972096e-36)
(1.5249392e-05 -9.7812497e-05 -2.1726269e-23 0.00063030957 1.3185056e-22 8.0813321e-38)
(2.3058665e-05 -0.00013809569 -1.0402593e-22 0.0008318864 5.9039961e-22 1.1727174e-36)
(3.436632e-05 -0.00019138593 3.9757818e-23 0.00107354 -2.1032747e-22 1.0934889e-37)
(5.060835e-05 -0.00026097931 3.3112362e-24 0.0013576663 -1.6273432e-23 4.8878848e-40)
(7.3762648e-05 -0.00035071202 -1.6189008e-22 0.0016850989 7.3688224e-22 7.4929271e-37)
(0.0001065274 -0.00046491539 6.2991794e-22 0.0020544692 -2.6467434e-21 7.334964e-36)
(0.00015254283 -0.00060829413 -4.801992e-22 0.0024615486 1.8565623e-21 2.7641405e-36)
(0.0002166586 -0.00078570436 -5.6753806e-24 0.0028986679 2.0125854e-23 2.508032e-40)
(0.00030524357 -0.001001814 4.0732111e-22 0.0033543644 -1.3206288e-21 8.4436276e-37)
(0.00042652861 -0.0012606489 -1.2763393e-21 0.003813443 3.7713989e-21 5.4368284e-36)
(0.0005909636 -0.0015650597 7.4081801e-22 0.0042576436 -1.9886304e-21 1.2086026e-36)
(0.0008115646 -0.0019161982 1.353497e-21 0.0046670686 -3.2902556e-21 2.6812291e-36)
(0.0011042251 -0.0023131489 6.6849764e-22 0.0050223796 -1.4670361e-21 4.3826254e-37)
(0.0014879753 -0.0027529048 -4.0061107e-21 0.0053075439 7.9132312e-21 1.0690255e-35)
(0.0019852043 -0.0032308742 -2.5223995e-21 0.0055126326 4.4716096e-21 2.9103002e-36)
(0.0026220008 -0.0037420667 1.9471471e-21 0.0056359193 -3.0901622e-21 1.2123345e-36)
(0.0034287741 -0.004282806 -1.3509109e-21 0.0056845559 1.9139652e-21 4.1174351e-37)
(0.0044397555 -0.0048516411 5.9572281e-21 0.005673333 -7.521664e-21 5.7784566e-36)
(0.0056956687 -0.005450893 -2.0026969e-21 0.0056206116 2.2486604e-21 4.7729012e-37)
(0.0072453367 -0.0060857109 6.2676747e-21 0.005543359 -6.2486148e-21 3.477746e-36)
(0.0091454888 -0.0067620107 -4.087191e-21 0.0054560843 3.6118031e-21 1.1168159e-36)
(0.011463943 -0.0074863163 2.9084631e-21 0.005369142 -2.272807e-21 4.3056791e-37)
(0.014279132 -0.0082642111 -1.2170678e-20 0.0052873026 8.3992506e-21 5.8504533e-36)
(0.017682783 -0.0090987095 1.9841575e-21 0.0052106512 -1.2071437e-21 1.2216976e-37)
(0.021778822 -0.0099890031 -1.1880686e-20 0.0051361143 6.3568471e-21 3.4459803e-36)
(0.026682279 -0.010929488 1.2817711e-20 0.0050587321 -6.0255599e-21 3.208832e-36)
(0.03251611 -0.011908593 4.6269171e-21 0.0049725366 -1.9072712e-21 3.3396385e-37)
(0.039405471 -0.012907096 -6.4229707e-20 0.0048710036 2.3214022e-20 5.2972847e-35)
(0.047468256 -0.013895615 -1.8676859e-20 0.0047473236 5.9076442e-21 3.6748517e-36)
(0.056800324 -0.014831478 1.7124279e-20 0.0045949083 -4.7344946e-21 2.5743478e-36)
(0.067453812 -0.015655763 -1.8537534e-20 0.0044085834 4.4711547e-21 2.5315518e-36)
(0.079408159 -0.016291954 5.2468261e-21 0.0041866821 -1.1004873e-21 1.7049107e-37)
(0.092535203 -0.01664853 3.5662604e-20 0.0039341372 -6.4907825e-21 6.7993843e-36)
(0.10656293 -0.016628115 -1.7838409e-21 0.0036663879 2.8056688e-22 1.489981e-38)
(0.12105025 -0.016144978 -1.3999289e-20 0.0034129244 1.8828265e-21 7.8735158e-37)
(0.13538338 -0.015151445 7.2294217e-21 0.0032183369 -8.1833659e-22 1.8936596e-37)
(0.14883294 -0.013674584 -3.9644556e-21 0.003137584 3.7839077e-22 4.7715699e-38)
(0.16069433 -0.011835008 -1.1789126e-20 0.003218149 9.2220915e-22 4.0089941e-37)
(0.17035777 -0.0098066181 1.8829943e-19 0.0034719498 -1.1830801e-20 9.5705332e-35)
(0.17743661 -0.0077627403 -2.1783208e-20 0.0038626393 1.0504412e-21 1.2005586e-36)
(0.18178426 -0.0058442453 2.0604834e-20 0.0043297534 -7.4197687e-22 1.0237371e-36)
(0.18345739 -0.004114785 -1.9644531e-19 0.0048250981 4.8045035e-21 9.0028311e-35)
(0.18261822 -0.0025906019 1.0806846e-19 0.0053475847 -1.5040376e-21 2.6804091e-35)
(0.17957299 -0.0013129003 8.8517916e-20 0.0059458012 -3.3028717e-22 1.7943348e-35)
(0.1748456 -0.00038444329 8.3229012e-20 0.0066811663 4.7214993e-22 1.6122778e-35)
(0.16931863 6.7725717e-05 7.82187e-20 0.0075976518 1.1438826e-21 1.4714644e-35)
(0.16403513 -4.122611e-05 1.1867839e-19 0.0087091025 2.7534964e-21 3.563858e-35)
(0.16007887 -0.00065927148 -2.274354e-19 0.010004575 -7.2413771e-21 1.4006671e-34)
(0.15803619 -0.0016550659 1.3292614e-19 0.011480538 5.3665283e-21 5.2257047e-35)
(0.1576803 -0.0027298654 1.8930131e-19 0.013170103 9.3288906e-21 1.1873171e-34)
(0.15793199 -0.0036044557 -1.2883477e-19 0.015159033 -7.7469095e-21 6.3312092e-35)
(0.1561046 -0.0038898634 -3.7416396e-20 0.017526857 -2.7430997e-21 6.4083081e-36)
(0.15134001 -0.0034910209 -2.9103019e-20 0.019870599 -2.6821081e-21 4.8604599e-36)
(0.13976319 -0.0028901092 1.2801367e-19 0.021256587 1.5558904e-20 1.2591263e-34)
(0.12739307 -0.0017165903 7.9978598e-20 0.020735143 1.2698377e-20 6.7951969e-35)
(0.10543085 -0.0014661046 -2.7877525e-21 0.020014701 -5.6924577e-22 1.319145e-37)
(2.155537e-08 -1.6907954e-07 1.3077118e-24 1.3262551e-06 -1.0051331e-23 7.9257014e-38)
(2.1387762e-07 -1.6397452e-06 -8.5790901e-24 1.257171e-05 6.4309831e-23 6.3288849e-37)
(6.759677e-07 -5.0681084e-06 1.1118071e-23 3.8000402e-05 -8.1075036e-23 4.207242e-37)
(1.5210892e-06 -1.1126703e-05 -5.9311098e-24 8.140057e-05 4.2014475e-23 6.0100211e-38)
(2.9013509e-06 -2.0663608e-05 -2.8728918e-24 0.00014719774 1.9745004e-23 7.846477e-39)
(5.0234031e-06 -3.475041e-05 3.2210324e-23 0.00024047307 -2.1447654e-22 5.8124863e-37)
(8.1670624e-06 -5.4729986e-05 -1.0423031e-23 0.00036694702 6.7100278e-23 3.7307387e-38)
(1.2709928e-05 -8.2269814e-05 -2.7892355e-23 0.00053290769 1.731657e-22 1.6831622e-37)
(1.916051e-05 -0.00011942137 -2.6680783e-24 0.00074506038 1.5928253e-23 9.9169697e-40)
(2.8201847e-05 -0.00016868103 -2.8074688e-23 0.0010102725 1.6067766e-22 7.1637576e-38)
(4.0748647e-05 -0.00023304748 4.8429827e-23 0.0013351846 -2.6485839e-22 1.4063574e-37)
(5.8021337e-05 -0.00031606681 -4.1312103e-23 0.0017256614 2.1516568e-22 6.8030132e-38)
(8.1641136e-05 -0.00042185327 -1.8644183e-22 0.002186062 9.2156644e-22 9.2511742e-37)
(0.00011375022 -0.00055506848 -6.637067e-24 0.0027183312 3.1025201e-23 7.8236462e-40)
(0.00015716118 -0.00072083761 2.1278045e-22 0.0033209415 -9.3702335e-22 5.4241078e-37)
(0.00021553906 -0.00092457899 1.839563e-22 0.0039877734 -7.60313e-22 2.7264511e-37)
(0.00029361731 -0.0011717233 -1.9306658e-22 0.0047070805 7.4599878e-22 2.0225375e-37)
(0.00039744657 -0.0014673101 2.2500534e-23 0.0054607811 -8.094508e-23 1.8661988e-39)
(0.00053467061 -0.0018154681 5.5752456e-22 0.0062243768 -1.8599255e-21 7.7127549e-37)
(0.0007148198 -0.0022188279 8.2458716e-22 0.0069678556 -2.5401096e-21 1.1461282e-36)
(0.00094960917 -0.002677966 -1.1384765e-21 0.0076578591 3.2246929e-21 1.4936353e-36)
(0.001253229 -0.0031910496 -1.3800132e-21 0.0082612198 3.5790813e-21 1.5116168e-36)
(0.0016426235 -0.0037538936 2.2257409e-21 0.0087495802 -5.263803e-21 2.7338921e-36)
(0.002137768 -0.0043606379 -3.2830932e-21 0.0091043217 7.0519834e-21 4.179306e-36)
(0.0027620492 -0.0050051928 -6.7380635e-21 0.0093205518 1.3095301e-20 1.2520195e-35)
(0.0035429736 -0.0056833805 1.8660427e-20 0.0094087648 -3.2700177e-20 6.9358194e-35)
(0.0045119979 -0.0063942881 -1.1986769e-20 0.0093933362 1.8879146e-20 2.0963775e-35)
(0.0057060844 -0.0071416991 2.0584261e-20 0.0093064197 -2.9053108e-20 4.5909065e-35)
(0.0071696506 -0.0079328301 -2.9594278e-20 0.0091776036 3.7336411e-20 7.1557524e-35)
(0.0089550185 -0.0087765641 3.7808803e-20 0.0090320599 -4.2526419e-20 8.9163086e-35)
(0.011123615 -0.0096816831 -4.4502134e-20 0.008887856 4.4513108e-20 9.5495774e-35)
(0.013746066 -0.010655521 8.4761007e-21 0.0087538728 -7.5231195e-21 2.7157415e-36)
(0.016904268 -0.011702094 3.3077967e-20 0.0086307623 -2.5988595e-20 3.2581167e-35)
(0.020689989 -0.012820183 -2.0966946e-20 0.008513353 1.455768e-20 1.0448057e-35)
(0.0252032 -0.014002162 7.3380445e-21 0.0083929082 -4.4953152e-21 1.0321706e-36)
(0.030548335 -0.015232501 2.3786196e-21 0.0082587313 -1.2845566e-21 8.9005872e-38)
(0.036827878 -0.016485671 3.2779155e-20 0.00809902 -1.5569537e-20 1.3711919e-35)
(0.044132155 -0.017723018 1.1851858e-20 0.0079012833 -4.9479e-21 1.4774685e-36)
(0.052524011 -0.01888893 1.3204156e-20 0.0076530757 -4.835677e-21 1.5258011e-36)
(0.062017178 -0.019907348 1.4266844e-20 0.0073438681 -4.5780629e-21 1.5157389e-36)
(0.07254836 -0.020680532 -7.9328999e-20 0.0069685739 2.2234353e-20 3.9968191e-35)
(0.083945243 -0.021093158 3.7782471e-20 0.0065332956 -9.2169167e-21 7.8083908e-36)
(0.095896454 -0.021025372 6.5610804e-21 0.0060629011 -1.3892681e-21 2.0011699e-37)
(0.10793544 -0.020377629 -8.025752e-20 0.0056081628 1.4579381e-20 2.6933106e-35)
(0.11945457 -0.019109016 -4.3330993e-20 0.0052480585 6.7093121e-21 6.9728394e-36)
(0.12979696 -0.017286701 2.2410826e-20 0.0050796637 -2.9253923e-21 1.6945739e-36)
(0.1383998 -0.015097834 8.5447628e-20 0.0051816453 -9.1997979e-21 2.2445759e-35)
(0.14484944 -0.01277971 -3.8461733e-20 0.0055628611 3.3754823e-21 4.249213e-36)
(0.14897607 -0.010553772 1.1571254e-19 0.0061500286 -7.9007354e-21 3.6194528e-35)
(0.15082975 -0.0085699029 6.4089268e-20 0.0068279611 -3.3038164e-21 1.0649692e-35)
(0.15059323 -0.0068736035 8.92614e-20 0.0075106552 -3.2738531e-21 2.0138142e-35)
(0.14851419 -0.0054671295 2.3994809e-19 0.0081982328 -5.2608242e-21 1.4396161e-34)
(0.14497662 -0.0044084656 -1.8378107e-19 0.0089705786 1.5954244e-21 8.5083434e-35)
(0.14059164 -0.0038359228 5.8910007e-20 0.0099183575 3.0783117e-22 8.9313067e-36)
(0.13629391 -0.0038894178 -9.8265284e-20 0.011089634 -1.5973918e-21 2.5975178e-35)
(0.13308608 -0.0046108141 -8.9857368e-20 0.012471351 -2.5683403e-21 2.3063348e-35)
(0.13178612 -0.0058338431 -3.3470683e-20 0.01400286 -1.3806206e-21 3.4715148e-36)
(0.13253764 -0.007265922 -2.8749146e-19 0.015608274 -1.5040817e-20 2.8328582e-34)
(0.13442379 -0.0084203768 -7.1983884e-20 0.017254443 -4.7206336e-21 2.0211885e-35)
(0.13583899 -0.0089061711 1.5107412e-19 0.018920215 1.2408325e-20 1.0460081e-34)
(0.13357234 -0.0084913333 5.1203176e-20 0.020667096 5.3395121e-21 1.4861539e-35)
(0.12774042 -0.0073797893 -3.3532376e-20 0.022108322 -4.4576473e-21 8.280648e-36)
(0.11467376 -0.0062327215 -5.8526578e-20 0.022507368 -1.0225071e-20 3.5400553e-35)
(0.10109681 -0.0045866119 -7.5593626e-20 0.021089063 -1.7436384e-20 8.583988e-35)
(0.080444474 -0.0041910781 4.4675792e-21 0.019723484 1.3330374e-21 4.992548e-37)
(4.5364351e-08 -2.8814626e-07 5.9601489e-24 1.8302543e-06 -3.7352184e-23 7.3580057e-37)
(4.4129049e-07 -2.7681377e-06 4.1077738e-24 1.7364133e-05 -2.5363402e-23 6.639955e-38)
(1.369632e-06 -8.4819112e-06 -5.2148662e-24 5.2528013e-05 3.1656688e-23 4.3544735e-38)
(3.0210052e-06 -1.8444773e-05 -2.6826343e-23 0.000112619 1.5996903e-22 5.9387744e-37)
(5.6413491e-06 -3.3910316e-05 1.9461529e-23 0.00020385021 -1.1389605e-22 1.7834411e-37)
(9.5490104e-06 -5.6419749e-05 -3.6060941e-23 0.00033339128 2.0689255e-22 3.696467e-37)
(1.5155015e-05 -8.7852393e-05 1.9700944e-23 0.00050936403 -1.1063362e-22 6.9246283e-38)
(2.298829e-05 -0.00013047792 5.8411701e-24 0.00074076563 -3.204365e-23 3.9312103e-39)
(3.3728065e-05 -0.00018701017 -4.0718368e-23 0.0010372875 2.1771851e-22 1.2606777e-37)
(4.8244448e-05 -0.00026065625 -1.0725659e-22 0.0014089922 5.5758874e-22 5.8625411e-37)
(6.7649256e-05 -0.00035515455 -6.5561026e-24 0.0018658051 3.3050863e-23 1.4793034e-39)
(9.3359104e-05 -0.00047479152 2.5955488e-22 0.0024167788 -1.2650247e-21 1.5900082e-36)
(0.00012717312 -0.00062438376 -4.3376949e-22 0.0030690956 2.0377655e-21 3.0501304e-36)
(0.00017136778 -0.00080920857 8.4466358e-22 0.0038267934 -3.8121874e-21 7.9750935e-36)
(0.00022881129 -0.001034863 -2.6596053e-22 0.004689247 1.1491723e-21 5.4650088e-37)
(0.0003030995 -0.0013070305 6.8051285e-22 0.0056494945 -2.8046059e-21 2.4764052e-36)
(0.00039871515 -0.001631139 -9.900598e-22 0.0066926127 3.8765728e-21 3.6356793e-36)
(0.00052121078 -0.0020119051 7.7334674e-22 0.0077944461 -2.8648634e-21 1.5407789e-36)
(0.00067741527 -0.0024527838 -1.4673366e-22 0.0089211399 5.12022e-22 3.8664865e-38)
(0.00087566262 -0.0029553832 -7.1406392e-22 0.010030007 2.3363949e-21 6.3946451e-37)
(0.0011260424 -0.0035189565 2.0773994e-21 0.011072225 -6.3433852e-21 3.7988062e-36)
(0.0014406723 -0.0041401461 -3.4975009e-21 0.011997643 9.9185591e-21 7.6097903e-36)