/*--------------------------------*- C++ -*----------------------------------*\
  =========                 |
  \\      /  F ield         | OpenFOAM: The Open Source CFD Toolbox
   \\    /   O peration     | Website:  https://openfoam.org
    \\  /    A nd           | Version:  13
     \\/     M anipulation  |
\*---------------------------------------------------------------------------*/
FoamFile
{
    format      ascii;
    class       surfaceScalarField;
    location    "44.599728";
    object      phi;
}
// * * * * * * * * * * * * * * * * * * * * * * * * * * * * * * * * * * * * * //

dimensions      [0 3 -1 0 0 0 0];

internalField   nonuniform List<scalar> 
34068
(
-1.0703909e-08
7.6217515e-08
-6.5513606e-08
-4.7643154e-08
2.6390747e-07
-2.2696822e-07
-1.1958826e-07
5.150646e-07
-4.4311948e-07
-2.376093e-07
8.4595126e-07
-7.2793021e-07
-4.1561932e-07
1.276491e-06
-1.098481e-06
-6.7103164e-07
1.8310264e-06
-1.575614e-06
-1.0255586e-06
2.5392042e-06
-2.1846772e-06
-1.5061699e-06
3.4370155e-06
-2.9564042e-06
-2.1462446e-06
4.5680116e-06
-3.9279368e-06
-2.9869462e-06
5.98472e-06
-5.1440184e-06
-4.0788477e-06
7.7502691e-06
-6.6583675e-06
-5.4838462e-06
9.9402543e-06
-8.5352558e-06
-7.2773936e-06
1.264484e-05
-1.0851292e-05
-9.5510617e-06
1.5971103e-05
-1.3697435e-05
-1.2415475e-05
2.0045597e-05
-1.7181184e-05
-1.6003572e-05
2.5017071e-05
-2.1428973e-05
-2.0474202e-05
3.105925e-05
-2.658862e-05
-2.6015939e-05
3.837349e-05
-3.2831753e-05
-3.2851007e-05
4.7190996e-05
-4.0355928e-05
-4.1239058e-05
5.7774188e-05
-4.9386136e-05
-5.1480483e-05
7.0416495e-05
-6.0175071e-05
-6.3918762e-05
8.5439704e-05
-7.3001425e-05
-7.8941108e-05
0.00010318749
-8.816514e-05
-9.6976539e-05
0.0001240137
-0.00010597827
-0.0001184901
0.00014826364
-0.00012675008
-0.00014397179
0.00017624713
-0.00015076545
-0.00017391859
0.00020820372
-0.00017825691
-0.00020880853
0.00024426449
-0.00020937454
-0.00024906733
0.00028442338
-0.00024416458
-0.00029503256
0.00032854384
-0.00028257862
-0.00034692791
0.00037643956
-0.00032454421
-0.00040486783
0.00042805574
-0.00037011582
-0.00046890876
0.00048370994
-0.00041966901
-0.00053913744
0.00054425801
-0.00047402934
-0.00061575612
0.00061107295
-0.00053445427
-0.00069912862
0.00068590262
-0.00060253013
-0.00078978799
0.00077078445
-0.00068012508
-0.00088843153
0.00086811108
-0.00076946754
-0.00099592553
0.00098083343
-0.00087333943
-0.0011133327
0.0011127701
-0.0009953629
-0.0012419697
0.0012690233
-0.0011403863
-0.001383501
0.0014565274
-0.0013149961
-0.0015400833
0.0016848073
-0.001528225
-0.0017145637
0.0019668721
-0.0017923918
-0.0019106927
0.0023198879
-0.0021237589
-0.0021334239
0.0027664856
-0.0025437544
-0.0023893327
0.0033365981
-0.0030806894
-0.0026870771
0.0040686534
-0.0037709089
-0.0030379918
0.0050107349
-0.0046598202
-0.0034570324
0.0062210565
-0.0058020159
-0.0039643233
0.007764639
-0.0072573481
-0.0045875797
0.0097008293
-0.0090775729
-0.0053646305
0.01204505
-0.011267999
-0.0063455262
0.014689286
-0.01370839
-0.0075915923
0.01722984
-0.015983774
-0.0091644205
0.018758843
-0.017186014
-0.011059743
0.017116191
-0.015220868
-0.012928956
0.0081835503
-0.0063143371
-0.01324447
-0.015320023
0.015635537
-0.0099591093
-0.057485405
0.054200044
-0.0040942158
-0.10386223
0.097997335
0.0014583709
-0.1339013
0.12834872
0.0091834596
-0.12878259
0.1210575
0.026579323
-0.05322459
0.035828726
0.073628072
0.050234148
-0.097282897
-1.0298013e-08
8.6515528e-08
-4.5837413e-08
2.9944687e-07
-1.1505993e-07
5.8428711e-07
-2.2862475e-07
9.5951609e-07
-3.9993021e-07
1.4477965e-06
-6.4575001e-07
2.0768462e-06
-9.8700311e-07
2.8804573e-06
-1.4496821e-06
3.8996944e-06
-2.0659704e-06
5.1842999e-06
-2.8755726e-06
6.7943222e-06
-3.9272998e-06
8.8019963e-06
-5.280927e-06
1.1293882e-05
-7.0093787e-06
1.4373291e-05
-9.2012376e-06
1.8162962e-05
-1.1963624e-05
2.2807983e-05
-1.5425432e-05
2.8478879e-05
-1.9740889e-05
3.5374706e-05
-2.509337e-05
4.3725972e-05
-3.1699382e-05
5.3797008e-05
-3.9812423e-05
6.5887229e-05
-4.9726481e-05
8.0330553e-05
-6.1778602e-05
9.7491825e-05
-7.6349941e-05
0.00011775883
-9.3864265e-05
0.00014152802
-0.00011478273
0.00016918211
-0.0001395934
0.0002010578
-0.00016879379
0.00023740411
-0.00020286513
0.00027833583
-0.00024223841
0.00032379667
-0.00028725668
0.00037356211
-0.00033814508
0.00042732796
-0.00039500908
0.00048491975
-0.00045787939
0.00054658024
-0.00052679777
0.0006131764
-0.00060190492
0.0006861801
-0.00068349033
0.00076748804
-0.00077199967
0.00085929378
-0.00086802387
0.00096413528
-0.00097229401
0.0010851036
-0.0010856952
0.0012261713
-0.0012093062
0.0013926343
-0.00134447
0.0015916913
-0.0014929054
0.0018332427
-0.0016568644
0.0021308311
-0.0018393048
0.0025023283
-0.0020441268
0.0029713076
-0.0022765029
0.0035689742
-0.0025432469
0.0043353974
-0.0028533181
0.005320806
-0.003218738
0.0065864764
-0.0036562747
0.0082021757
-0.0041902831
0.010234838
-0.0048560504
0.012710817
-0.0057032968
0.015536533
-0.0067964366
0.018322979
-0.0082171733
0.020179579
-0.0099892315
0.018888249
-0.011697597
0.0098919159
-0.01155824
-0.01545938
-0.0073841112
-0.061659534
-0.0011940555
-0.11005228
0.0033084658
-0.13840383
0.0081789266
-0.13365305
0.02201708
-0.067062743
0.050539423
0.045105728
-9.7317949e-09
9.6247324e-08
-4.3322042e-08
3.3303712e-07
-1.0875651e-07
6.4972158e-07
-2.1612121e-07
1.0668808e-06
-3.7809785e-07
1.6097731e-06
-6.1056899e-07
2.3093173e-06
-9.3334825e-07
3.2032366e-06
-1.3710698e-06
4.337416e-06
-1.9542483e-06
5.7674784e-06
-2.7205582e-06
7.5606321e-06
-3.7163462e-06
9.7977842e-06
-4.9984282e-06
1.2575964e-05
-6.6361847e-06
1.6011048e-05
-8.7140085e-06
2.0240785e-05
-1.1334097e-05
2.5428071e-05
-1.4619621e-05
3.1764404e-05
-1.8718246e-05
3.9473332e-05
-2.3805942e-05
4.8813668e-05
-3.0090973e-05
6.0082038e-05
-3.7817899e-05
7.3614155e-05
-4.7271248e-05
8.9783902e-05
-5.8778435e-05
0.00010899901
-7.2711262e-05
0.00013169165
-8.9485047e-05
0.00015830181
-0.00010955423
0.00018925129
-0.00013340275
0.00022490633
-0.00016152757
0.00026552893
-0.00019441348
0.00031122174
-0.00023249903
0.00036188221
-0.00027613667
0.00041719976
-0.00032555782
0.0004767491
-0.00038086245
0.00054022439
-0.00044205473
0.00060777251
-0.00050912428
0.00068024595
-0.00058213724
0.00075919306
-0.00066129147
0.00084664227
-0.00074692494
0.00094492725
-0.00083949849
0.0010567088
-0.00093957904
0.0011851841
-0.0010478371
0.0013344294
-0.0011650647
0.0015098619
-0.001292217
0.0017188436
-0.0014304824
0.0019715081
-0.0015813877
0.0022817364
-0.001746913
0.0026678536
-0.0019296417
0.0031540363
-0.0021329505
0.003772283
-0.0023612175
0.0045636644
-0.0026201186
0.0055797071
-0.0029173365
0.0068836943
-0.0032641116
0.0085489508
-0.0036780606
0.010648787
-0.0041865802
0.013219337
-0.0048304029
0.016180355
-0.0056610003
0.019153577
-0.0067601798
0.021278759
-0.0081428224
0.020270892
-0.0092812116
0.011030305
-0.0079875608
-0.016753031
-0.0021757362
-0.067471358
0.0045481433
-0.11677616
0.0078927954
-0.14174848
0.010185882
-0.13594614
0.020190829
-0.077067689
0.029429158
0.041301094
-9.0031526e-09
1.0525048e-07
-4.0086672e-08
3.6412064e-07
-1.0065067e-07
7.1028558e-07
-2.0004497e-07
1.1662751e-06
-3.5003103e-07
1.7597592e-06
-5.6534454e-07
2.5246308e-06
-8.6438319e-07
3.5022752e-06
-1.2700316e-06
4.7430644e-06
-1.8106654e-06
6.3081122e-06
-2.5213463e-06
8.271313e-06
-3.4452585e-06
1.0721696e-05
-4.6354036e-06
1.3766109e-05
-6.1566058e-06
1.753225e-05
-8.087843e-06
2.2172023e-05
-1.0524946e-05
2.7865174e-05
-1.3583669e-05
3.4823127e-05
-1.740314e-05
4.3292803e-05
-2.2149634e-05
5.3560162e-05
-2.8020596e-05
6.5953001e-05
-3.5248731e-05
8.084229e-05
-4.4105927e-05
9.8641098e-05
-5.4906553e-05
0.00011979964
-6.8009514e-05
0.00014479461
-8.3818218e-05
0.00017411051
-0.00010277716
0.00020821023
-0.00012536362
0.00024749279
-0.00015207241
0.00029223772
-0.00018339189
0.00034254122
-0.00021977002
0.00039826034
-0.00026157259
0.00045900233
-0.00030904244
0.00052421895
-0.00036227842
0.00059346037
-0.00042125857
0.00066675267
-0.00048591435
0.00074490173
-0.00055622441
0.00082950312
-0.00063227735
0.00092269521
-0.00071428236
0.0010269323
-0.00080254597
0.0011449725
-0.00089744176
0.0012800799
-0.0009993886
0.0014363762
-0.0011088427
0.001619316
-0.0012263048
0.0018363057
-0.0013523413
0.0020975446
-0.0014876227
0.0024170178
-0.0016329641
0.0028131951
-0.0017893619
0.0033104341
-0.0019579945
0.0039409156
-0.0021401925
0.0047458625
-0.0023373948
0.0057769094
-0.0025514543
0.0070977538
-0.0027857295
0.008783226
-0.0030472953
0.010910352
-0.0033493508
0.013521392
-0.0037138844
0.016544889
-0.0041579431
0.019597635
-0.0047254563
0.021846272
-0.0053774717
0.020922907
-0.0053823627
0.011035196
-0.0019950865
-0.020140307
0.0060729096
-0.075539354
0.013443731
-0.12414698
0.015544089
-0.14384884
0.015125975
-0.13552802
0.021396206
-0.08333792
0.011193299
0.039632065
-8.1190487e-09
1.1336953e-07
-3.6158658e-08
3.9216025e-07
-9.0806265e-08
7.6493319e-07
-1.8051611e-07
1.2559849e-06
-3.1592947e-07
1.8951725e-06
-5.1039043e-07
2.7190918e-06
-7.8056977e-07
3.7724546e-06
-1.1472293e-06
5.109724e-06
-1.6361359e-06
6.7970187e-06
-2.2791757e-06
8.9143529e-06
-3.1156753e-06
1.1558196e-05
-4.193992e-06
1.4844425e-05
-5.5733779e-06
1.8911636e-05
-7.3261943e-06
2.3924839e-05
-9.5404671e-06
3.0079447e-05
-1.2322843e-05
3.7605503e-05
-1.5801922e-05
4.6771882e-05
-2.013198e-05
5.7890219e-05
-2.5496991e-05
7.1318012e-05
-3.2114836e-05
8.7460134e-05
-4.0241444e-05
0.00010676771
-5.0174535e-05
0.00012973273
-6.2256338e-05
0.00015687642
-7.6874514e-05
0.00018872869
-9.4460012e-05
0.00022579573
-0.00011548032
0.0002685131
-0.000140426
0.00031718341
-0.00016978833
0.00037190354
-0.00020402604
0.00043249805
-0.00024352191
0.0004984982
-0.00028853562
0.00056923266
-0.00033917042
0.00064409517
-0.00039538034
0.00072296258
-0.00045703412
0.00080655551
-0.00052401087
0.00089647987
-0.00059627193
0.00099495627
-0.00067387629
0.0011045366
-0.00075695162
0.0012280478
-0.00084564914
0.0013687774
-0.00094009975
0.0015308268
-0.0010403762
0.0017195924
-0.0011464602
0.0019423897
-0.0012582069
0.0022092912
-0.0013753047
0.0025341155
-0.0014972221
0.0029351125
-0.001623101
0.0034363131
-0.0017515288
0.0040693434
-0.0018801888
0.0048745225
-0.002005344
0.0059020647
-0.0021215748
0.0072139846
-0.0022221766
0.0088838278
-0.0022998983
0.010988074
-0.0023465153
0.013568009
-0.0023517337
0.016550107
-0.0022788572
0.019524759
-0.0020732269
0.021640642
-0.0015957954
0.020445476
0.00017940169
0.009259999
0.0064450731
-0.026405979
0.016639415
-0.085733696
0.02484162
-0.13234919
0.02616283
-0.14517005
0.023090585
-0.13245578
0.025928928
-0.086176263
-0.003837864
0.040960092
-7.0876466e-09
1.2045717e-07
-3.1574965e-08
4.1664757e-07
-7.9316692e-08
8.1267492e-07
-1.5772017e-07
1.3343884e-06
-2.7611902e-07
2.0135714e-06
-4.4622852e-07
2.8892013e-06
-6.8270542e-07
4.0089315e-06
-1.003824e-06
5.4308426e-06
-1.4323068e-06
7.2255015e-06
-1.9963194e-06
9.4783655e-06
-2.7306748e-06
1.2292551e-05
-3.6782781e-06
1.5792029e-05
-4.8918532e-06
2.0125211e-05
-6.4359787e-06
2.5468965e-05
-8.3894885e-06
3.2032956e-05
-1.0848261e-05
4.0064276e-05
-1.3928429e-05
4.985205e-05
-1.7769992e-05
6.1731783e-05
-2.2540821e-05
7.6088841e-05
-2.8440954e-05
9.3360267e-05
-3.5706972e-05
0.00011403372
-4.4616207e-05
0.00013864196
-5.54902e-05
0.00016775041
-6.8696682e-05
0.00020193517
-8.4648952e-05
0.000241748
-0.00010380098
0.00028766512
-0.00012663621
0.00034001864
-0.00015364731
0.00039891464
-0.00018530433
0.00046415507
-0.00022201012
0.00053520399
-0.00026404677
0.00061126931
-0.00031152845
0.00069157685
-0.00036438956
0.00077582369
-0.00042243388
0.00086459983
-0.00048543018
0.00095947617
-0.00055319493
0.001062721
-0.00062561511
0.0011769568
-0.00070261508
0.0013050478
-0.00078409545
0.0014502578
-0.00086986448
0.0016165958
-0.00095956673
0.0018092947
-0.0010526045
0.0020354275
-0.0011480384
0.0023047251
-0.0012444572
0.0026305343
-0.0013398156
0.0030304709
-0.0014311539
0.0035276513
-0.0015141034
0.0041522929
-0.0015821529
0.004942572
-0.0016255604
0.0059454722
-0.0016305243
0.0072189485
-0.0015790567
0.0088323602
-0.0014477258
0.010856743
-0.0011971032
0.013317387
-0.00076042529
0.016113429
-2.9368027e-05
0.018793702
0.0011817054
0.020429568
0.003174055
0.018453126
0.00758045
0.004853604
0.016621043
-0.035446571
0.028179804
-0.097292457
0.036888791
-0.14105818
0.038525885
-0.14680714
0.033883817
-0.12781371
0.033843398
-0.086135843
-0.016058539
0.046064073
-5.9234695e-09
1.2638064e-07
-2.6400369e-08
4.3712447e-07
-6.6343665e-08
8.5261821e-07
-1.3197729e-07
1.400022e-06
-2.3115463e-07
2.1127487e-06
-3.7375066e-07
3.0317973e-06
-5.7214052e-07
4.2073213e-06
-8.4178787e-07
5.70049e-06
-1.201963e-06
7.5856766e-06
-1.6766174e-06
9.9530199e-06
-2.2954443e-06
1.2911378e-05
-3.0951677e-06
1.6591752e-05
-4.1210765e-06
2.115112e-05
-5.428888e-06
2.6776776e-05
-7.0869402e-06
3.3691009e-05
-9.1787891e-06
4.2156125e-05
-1.180624e-05
5.24795e-05
-1.509283e-05
6.5018373e-05
-1.9187757e-05
8.0183768e-05
-2.427023e-05
9.844274e-05
-3.0554095e-05
0.00012031759
-3.8292447e-05
0.00014638032
-4.7781911e-05
0.00017723987
-5.9365811e-05
0.00021351907
-7.3435145e-05
0.00025581733
-9.0425969e-05
0.00030465595
-0.00011081075
0.00036040343
-0.00013508099
0.00042318488
-0.00016371743
0.00049279151
-0.00019714508
0.00056863165
-0.00023567379
0.00064979802
-0.00027943632
0.00073533938
-0.00032835414
0.0008247415
-0.00038216688
0.00091841258
-0.00044052454
0.0010178338
-0.00050308188
0.0011252784
-0.00056953231
0.0012434072
-0.0006395726
0.001375088
-0.00071282583
0.001523511
-0.00078874579
0.0016925158
-0.00086650842
0.0018870573
-0.0009448827
0.0021138018
-0.0010220609
0.0023819033
-0.001095429
0.0027039024
-0.0011612804
0.0030963223
-0.0012143378
0.0035807086
-0.0012469687
0.0041849239
-0.0012480203
0.0049436236
-0.0012011358
0.0058985877
-0.0010835776
0.0071013902
-0.00086632985
0.0086151125
-0.00050238121
0.010492795
9.1783677e-05
0.012723222
0.001051397
0.015153816
0.0025776678
0.017267431
0.004974231
0.018033005
0.0087939658
0.014633391
0.016034921
-0.0023873508
0.027674856
-0.047086507
0.039948854
-0.10956645
0.048010037
-0.14911936
0.050482331
-0.14927943
0.046589387
-0.12392077
0.044841764
-0.08438822
-0.026268098
0.055051323
-4.6471147e-09
1.3102776e-07
-2.0724941e-08
4.5320229e-07
-5.2111926e-08
8.840052e-07
-1.0373126e-07
1.4516414e-06
-1.8181048e-07
2.1908279e-06
-2.9419953e-07
3.1441864e-06
-4.5076458e-07
4.3638864e-06
-6.6387663e-07
5.913602e-06
-9.4900616e-07
7.8708062e-06
-1.3254617e-06
1.0329475e-05
-1.8172915e-06
1.3403208e-05
-2.4543821e-06
1.7228843e-05
-3.2738109e-06
2.1970549e-05
-4.3214659e-06
2.7824431e-05
-5.6540282e-06
3.5023571e-05
-7.3413204e-06
4.3843417e-05
-9.469116e-06
5.4607296e-05
-1.2142446e-05
6.7691703e-05
-1.5489425e-05
8.3530747e-05
-1.9665579e-05
0.00010261889
-2.4858649e-05
0.00012551066
-3.1293671e-05
0.00015281534
-3.9238007e-05
0.00018518421
-4.9005717e-05
0.00022328678
-6.0960426e-05
0.00026777204
-7.5515012e-05
0.00031921053
-9.3126106e-05
0.00037801452
-0.00011428005
0.00044433882
-0.00013946614
0.0005179776
-0.00016913227
0.00059829777
-0.00020362054
0.00068428629
-0.00024309074
0.00077480959
-0.00028746084
0.0008691116
-0.00033641097
0.00096736271
-0.00038946708
0.0010708899
-0.00044610729
0.0011819186
-0.00050581032
0.0013031103
-0.00056802183
0.0014372996
-0.00063206203
0.0015875512
-0.00069700186
0.0017574556
-0.00076151422
0.0019515697
-0.00082369
0.0021759775
-0.00088079184
0.0024390052
-0.00092891734
0.0027520279
-0.00096257619
0.0031299812
-0.00097400244
0.0035921349
-0.00095206529
0.0041629868
-0.00088062614
0.0048721844
-0.00073653786
0.0057544994
-0.00048849122
0.0068533436
-9.205308e-05
0.0082186743
0.00053564087
0.0098651007
0.0015284307
0.011730432
0.0030984739
0.013583773
0.0055371942
0.014828711
0.009202519
0.01436768
0.015000493
0.0088354169
0.02514316
-0.012530018
0.039077317
-0.061020664
0.051455037
-0.12194418
0.057799105
-0.15546343
0.06028776
-0.15176809
0.059030282
-0.12266329
0.058226755
-0.083584693
-0.035589589
0.067548246
-3.2840907e-09
1.3431185e-07
-1.4662117e-08
4.6458032e-07
-3.6904639e-08
9.0624772e-07
-7.3542859e-08
1.4882796e-06
-1.2906194e-07
2.246347e-06
-2.0914238e-07
3.2242668e-06
-3.209637e-07
4.4757077e-06
-4.7357731e-07
6.0662156e-06
-6.7837848e-07
8.0756073e-06
-9.4968813e-07
1.0600785e-05
-1.305481e-06
1.3759001e-05
-1.7682886e-06
1.769165e-05
-2.366324e-06
2.2568584e-05
-3.1348536e-06
2.8592961e-05
-4.1179129e-06
3.600663e-05
-5.3703897e-06
4.5095894e-05
-6.960568e-06
5.6197474e-05
-8.9731713e-06
6.9704306e-05
-1.1513035e-05
8.6070611e-05
-1.4709375e-05
0.00010581523
-1.8720666e-05
0.00012952195
-2.3740137e-05
0.00015783481
-3.0001489e-05
0.00019144556
-3.778454e-05
0.00023106983
-4.7419888e-05
0.00027740739
-5.929127e-05
0.00033108192
-7.3833402e-05
0.00039255665
-9.1521925e-05
0.00046202734
-0.00011285057
0.00053930624
-0.00013828881
0.00062373602
-0.00016821424
0.00071421172
-0.00020282235
0.0008094177
-0.00024203939
0.00090832864
-0.00028549444
0.0010108178
-0.00033258859
0.0011179841
-0.00038261169
0.0012319417
-0.00043480813
0.0013553067
-0.00048834974
0.0014908412
-0.0005422306
0.0016414321
-0.00059511423
0.0018103392
-0.00064514242
0.0020015979
-0.00068969342
0.0022205285
-0.00072505457
0.0024743663
-0.00074597239
0.0027729457
-0.00074508025
0.003129089
-0.00071199856
0.0035590532
-0.00063193377
0.004082922
-0.00048357015
0.0047238208
-0.00023682489
0.0055077541
0.00014861143
0.0064679073
0.00074179343
0.0076254923
0.0016661188
0.0089407753
0.0031151004
0.01028145
0.0053812188
0.011317655
0.0087875824
0.011422347
0.013750959
0.0094043038
0.021656852
0.00092952349
0.034768025
-0.02564119
0.050527408
-0.076780047
0.061904447
-0.13332121
0.065977583
-0.15953656
0.067340826
-0.15313133
0.069001902
-0.12432437
0.072363911
-0.086946702
-0.046143895
0.082918217
-1.8670561e-09
1.361789e-07
-8.3577647e-09
4.7107103e-07
-2.108806e-08
9.1897801e-07
-4.2137189e-08
1.5093287e-06
-7.4173991e-08
2.2783838e-06
-1.2061623e-07
3.2707091e-06
-1.8583651e-07
4.540928e-06
-2.7541986e-07
6.155799e-06
-3.9649941e-07
8.1966869e-06
-5.581737e-07
1.0762459e-05
-7.7205584e-07
1.3972883e-05
-1.0529514e-06
1.7972546e-05
-1.4197408e-06
2.2935373e-05
-1.8964904e-06
2.906971e-05
-2.5138595e-06
3.6623999e-05
-3.3108761e-06
4.589291e-05
-4.3371493e-06
5.7223747e-05
-5.6556488e-06
7.1022806e-05
-7.3460832e-06
8.7761046e-05
-9.5090377e-06
0.00010797819
-1.2270893e-05
0.00013228381
-1.5789525e-05
0.00016135344
-2.0260719e-05
0.00019591676
-2.5924925e-05
0.00023673404
-3.3073789e-05
0.00028455625
-4.2055129e-05
0.00034006326
-5.3274426e-05
0.00040377595
-6.7189263e-05
0.00047594218
-8.429126e-05
0.00055640824
-0.00010506742
0.00064451218
-0.00012993122
0.00073907552
-0.00015912232
0.00083860879
-0.00019258995
0.00094179626
-0.00022992535
0.0010481532
-0.00027040709
0.0011584658
-0.00031313169
0.0012746663
-0.00035709215
0.0013992672
-0.00040116436
0.0015349134
-0.00044399502
0.0016842628
-0.00048381968
0.0018501639
-0.00051822795
0.0020360062
-0.00054386072
0.0022461613
-0.00055599941
0.002486505
-0.00054800014
0.0027649465
-0.0005105588
0.0030916477
-0.00043059633
0.0034790907
-0.00028953611
0.0039418617
-6.0862834e-05
0.0044951475
0.00029261634
0.005154275
0.0008237869
0.0059367367
0.0016341211
0.0068151582
0.0028921207
0.0076827757
0.0048611662
0.0083124048
0.0078790729
0.0082997479
0.012227956
0.0070734634
0.018536283
0.0030959775
0.028962304
-0.0094964973
0.045042484
-0.041721371
0.061606442
-0.093344005
0.070502316
-0.14221709
0.072200549
-0.1612348
0.072288277
-0.15321906
0.075836276
-0.12787237
0.084464057
-0.095574483
-0.061088215
0.099408377
-4.323024e-10
1.3661121e-07
-1.9714228e-09
4.7261015e-07
-5.0608259e-09
9.2206742e-07
-1.0304646e-08
1.5145725e-06
-1.8525404e-08
2.2866046e-06
-3.0840397e-08
3.2830241e-06
-4.8765267e-08
4.5588528e-06
-7.435661e-08
6.1813903e-06
-1.1040085e-07
8.2327311e-06
-1.6067172e-07
1.081273e-05
-2.3027246e-07
1.4042484e-05
-3.2610357e-07
1.8068377e-05
-4.5747035e-07
2.306674e-05
-6.3691524e-07
2.9249155e-05
-8.8128459e-07
3.6868369e-05
-1.2131608e-06
4.6224787e-05
-1.6627259e-06
5.7673312e-05
-2.2701442e-06
7.1630224e-05
-3.0886379e-06
8.8579539e-05
-4.1883554e-06
0.0001090779
-5.6611933e-06
0.00013375664
-7.6265949e-06
0.00016331884
-1.0238466e-05
0.00019852863
-1.3692943e-05
0.00024018851
-1.8236549e-05
0.00028909986
-2.4173835e-05
0.00034600054
-3.1872515e-05
0.00041147463
-4.1762764e-05
0.00048583243
-5.4324753e-05
0.00056897023
-7.0055285e-05
0.00066024272
-8.9400871e-05
0.0007584211
-0.00011265732
0.00086186524
-0.00013981355
0.00096895249
-0.00017042265
0.0010787623
-0.00020366386
0.001191707
-0.0002384374
0.0013094398
-0.00027347413
0.0014343039
-0.00030733255
0.0015687718
-0.00033829261
0.0017152228
-0.00036414538
0.0018760167
-0.00038191361
0.0020537744
-0.0003874857
0.0022517334
-0.00037511869
0.002474138
-0.00033675226
0.00272658
-0.00026110234
0.0030159978
-0.00013231247
0.0033503009
7.2082979e-05
0.0037374663
0.00038374355
0.004183487
0.00084789191
0.0046901266
0.001537393
0.0052472356
0.0025912697
0.0057612815
0.0042321525
0.006041893
0.0067747166
0.0057698408
0.010519001
0.0045554634
0.015804331
0.0017881329
0.023887759
-0.0049874498
0.037443236
-0.023051974
0.055989222
-0.060267357
0.071425959
-0.10878074
0.076847961
-0.14763909
0.076428184
-0.16081502
0.076045851
-0.15283673
0.080455486
-0.132282
0.091886347
-0.10700534
-0.080876866
0.111675
9.7648659e-10
1.3563472e-07
4.3006393e-09
4.69286e-07
1.0683996e-08
9.1568406e-07
2.0975288e-08
1.5042812e-06
3.6174163e-08
2.2714057e-06
5.7433245e-08
3.261765e-06
8.6057453e-08
4.5302286e-06
1.234805e-07
6.1439673e-06
1.7121757e-07
8.1849941e-06
2.3077907e-07
1.0753169e-05
3.0352119e-07
1.3969742e-05
3.9042243e-07
1.7981476e-05
4.9173097e-07
2.2965432e-05
6.064532e-07
2.9134433e-05
7.3161958e-07
3.6743202e-05
8.6124057e-07
4.6095166e-05
9.8486939e-07
5.7549683e-05
1.0856238e-06
7.152947e-05
1.1375262e-06
8.8527637e-05
1.1020085e-06
0.00010911342
9.2334877e-07
0.0001339353
5.2288588e-07
0.0001637193
-2.0810753e-07
0.00019925962
-1.4169593e-06
0.00024139737
-3.2992504e-06
0.00029098215
-6.1088246e-06
0.00034881012
-1.0166562e-05
0.00041553237
-1.5864621e-05
0.00049153049
-2.366021e-05
0.00057676582
-3.4048372e-05
0.00067063088
-4.7494986e-05
0.00077186772
-6.4326713e-05
0.00087869697
-8.4656088e-05
0.00098928187
-0.00010795793
0.0011020641
-0.00013334778
0.0012170969
-0.00015956016
0.0013356522
-0.00018504714
0.0014597909
-0.00020802059
0.0015917452
-0.00022637691
0.0017335791
-0.00023744931
0.0018870891
-0.00023768426
0.0020540093
-0.00022220843
0.0022362576
-0.0001842415
0.0024361711
-0.00011428183
0.0026566204
9.929777e-07
0.0029007229
0.00018032883
0.003170965
0.00045034295
0.0034674522
0.00084866746
0.0037851624
0.0014302013
0.0041085927
0.0022985007
0.0043789363
0.0036360277
0.0044237545
0.0057129631
0.0039649576
0.0088177469
0.0026650569
0.013265088
0.00010812267
0.019848005
-0.0047947843
0.030683208
-0.015822653
0.047771505
-0.040140272
0.066889931
-0.079385784
0.078633599
-0.12052441
0.080693547
-0.14969904
0.079176834
-0.15929831
0.079282479
-0.15294237
0.084446936
-0.13744646
0.096278141
-0.11883655
-0.10133761
0.11673888
2.3145496e-09
1.3332017e-07
1.0262473e-08
4.6133807e-07
2.5657298e-08
9.0028924e-07
5.0736307e-08
1.4792022e-06
8.8236999e-08
2.233905e-06
1.4148484e-07
3.2085171e-06
2.1448311e-07
4.4572304e-06
3.1200946e-07
6.0464409e-06
4.3970587e-07
8.0572976e-06
6.0415686e-07
1.0588718e-05
8.1294489e-07
1.3760954e-05
1.0746456e-06
1.7719775e-05
1.3987601e-06
2.2641317e-05
1.7955125e-06
2.8737681e-05
2.275475e-06
3.626324e-05
2.8489365e-06
4.5521704e-05
3.5249089e-06
5.6873711e-05
4.3096241e-06
7.0744755e-05
5.2043991e-06
8.7632862e-05
6.2025919e-06
0.00010811523
7.2854678e-06
0.00013285243
8.4166731e-06
0.0001625881
9.5350743e-06
0.00019814122
1.0545832e-05
0.00024038661
1.1309607e-05
0.00029021837
1.1630491e-05
0.00034848923
1.1243859e-05
0.000415919
9.8070316e-06
0.00049296731
6.898579e-06
0.00057967427
2.0367909e-06
0.00067549267
-5.2751187e-06
0.00077917963
-1.5388299e-05
0.00088881015
-2.834193e-05
0.0010022355
-4.3708311e-05
0.0011174305
-6.0738897e-05
0.0012341275
-7.7888603e-05
0.0013528019
-9.3263168e-05
0.0014751654
-0.00010476053
0.0016032426
-0.00010987698
0.0017386956
-0.00010547422
0.0018826863
-8.7412157e-05
0.0020359473
-5.0044703e-05
0.0021988901
1.4467916e-05
0.0023716584
0.00011712053
0.0025539678
0.00027338988
0.0027444536
0.00050515692
0.002939198
0.00084366639
0.0031289427
0.0013340671
0.0032947617
0.002047485
0.0033951748
0.0031302249
0.0032961964
0.0048060047
0.0027479747
0.0073364806
0.0014344816
0.011018018
-0.00101648
0.016527237
-0.0054010969
0.025474871
-0.013742418
0.040066923
-0.030414705
0.059430285
-0.059503634
0.075741173
-0.095696672
0.082686482
-0.12746972
0.082734273
-0.14974683
0.08111761
-0.15768164
0.082204778
-0.15402954
0.088217512
-0.14345919
0.1001415
-0.13076054
-0.1203692
0.11917309
3.5351774e-09
1.2978499e-07
1.5702052e-08
4.491712e-07
3.9322875e-08
8.7666841e-07
7.7906659e-08
1.4406185e-06
1.3578717e-07
2.1760245e-06
2.1828178e-07
3.1260225e-06
3.3187705e-07
4.3436351e-06
4.8442751e-07
5.8938905e-06
6.8538387e-07
7.8563413e-06
9.460254e-07
1.0328076e-05
1.2797008e-06
1.3427278e-05
1.7020564e-06
1.729742e-05
2.2312283e-06
2.2112145e-05
2.8879595e-06
2.8080949e-05
3.6955892e-06
3.545561e-05
4.6798407e-06
4.4537453e-05
5.8683174e-06
5.5685234e-05
7.2895357e-06
6.9323536e-05
8.9713584e-06
8.5951039e-05
1.0938569e-05
0.00010614802
1.3209312e-05
0.00013058169
1.5790069e-05
0.00016000734
1.8668813e-05
0.00019526247
2.1805976e-05
0.00023724944
2.5123138e-05
0.00028690121
2.8489418e-05
0.00034512295
3.1706697e-05
0.00041270172
3.4496085e-05
0.00049017793
3.649124e-05
0.00057767911
3.7251384e-05
0.00067473252
3.6308984e-05
0.00078012203
3.3258162e-05
0.00089186097
2.8046766e-05
0.0010074469
2.0729802e-05
0.0011247475
1.2408897e-05
0.0012424484
4.8481346e-06
0.0013603626
5.8232806e-08
0.0014799553
5.0698657e-07
0.0016027939
9.1430736e-06
0.0017300595
2.9588802e-05
0.0018622406
6.6586224e-05
0.0019989498
0.00012658041
0.0021388959
0.00021853251
0.0022797063
0.0003550615
0.0024174388
0.00055407137
0.0025454437
0.00084104654
0.0026522228
0.0012530101
0.0027169792
0.001846564
0.0027012078
0.0027250141
0.0025167247
0.0040772611
0.0019439494
0.0061345925
0.0006906433
0.0091859575
-0.0016168834
0.013868201
-0.0056987234
0.021577161
-0.013110057
0.034163188
-0.026328445
0.051825507
-0.048077025
0.069777793
-0.077455919
0.080603495
-0.10652237
0.083960758
-0.13082698
0.083519504
-0.14930557
0.082774315
-0.15693645
0.084926629
-0.15618186
0.091606613
-0.15013918
0.10347993
-0.14263385
-0.13807079
0.12118151
4.57945e-09
1.2520554e-07
2.0361871e-08
4.3338878e-07
5.104035e-08
8.4598994e-07
1.0122239e-07
1.3904364e-06
1.7661999e-07
2.1006269e-06
2.8427973e-07
3.0183628e-06
4.3283828e-07
4.1950765e-06
6.3282866e-07
5.6939001e-06
8.9701786e-07
7.5921521e-06
1.240787e-06
9.9843071e-06
1.6825427e-06
1.2985523e-05
2.244162e-06
1.67358e-05
2.951418e-06
2.1404889e-05
3.8344149e-06
2.7197952e-05
4.9279247e-06
3.43621e-05
6.2716075e-06
4.319377e-05
7.9099748e-06
5.4046867e-05
9.8920397e-06
6.7341471e-05
1.2270346e-05
8.3572733e-05
1.5099282e-05
0.00010331908
1.8432264e-05
0.0001272487
2.2317441e-05
0.00015612217
2.6791505e-05
0.00019078841
3.1871067e-05
0.00023216988
3.754123e-05
0.00028123105
4.3741192e-05
0.00033892299
5.0347326e-05
0.00040609559
5.7155621e-05
0.00048336963
6.3868106e-05
0.00057096663
7.0090579e-05
0.00066851005
7.5376512e-05
0.00077483609
7.9335378e-05
0.0008879021
8.1881352e-05
0.0010049009
8.3136714e-05
0.0011234921
8.4146079e-05
0.001241439
8.6456533e-05
0.0013580522
9.2548758e-05
0.0014738631
0.00010530378
0.0015900388
0.00012807813
0.0017072851
0.00016500922
0.0018253095
0.0002214762
0.0019424829
0.00030479383
0.0020555783
0.00042519455
0.0021593056
0.0005972265
0.0022454068
0.00084182983
0.0023008404
0.0011893797
0.002304673
0.0016861753
0.0022201835
0.0024085501
0.001978833
0.0035087475
0.0014165273
0.0051973514
0.00025534552
0.007758057
-0.0018700623
0.011830207
-0.0056890332
0.01871046
-0.012578977
0.029934618
-0.024334215
0.045672801
-0.042066627
0.063037734
-0.065441958
0.076140244
-0.090558429
0.082325434
-0.11270756
0.084251956
-0.1327535
0.083816645
-0.14887026
0.084196984
-0.15731679
0.087374579
-0.15935945
0.094512756
-0.15727735
0.10619348
-0.15431458
-0.15462209
0.12274479
5.4094281e-09
1.1979611e-07
2.4066313e-08
4.1473189e-07
6.0359474e-08
8.0969678e-07
1.1977549e-07
1.3310204e-06
2.0913506e-07
2.0112673e-06
3.3686959e-07
2.8906283e-06
5.1335194e-07
4.0185942e-06
7.5127698e-07
5.455975e-06
1.0660994e-06
7.2773296e-06
1.4765389e-06
9.5738677e-06
2.0051395e-06
1.2456922e-05
2.6788895e-06
1.606205e-05
3.5298931e-06
2.0553886e-05
4.5960503e-06
2.6131795e-05
5.9217519e-06
3.3036399e-05
7.5584882e-06
4.1557034e-05
9.5653289e-06
5.2040026e-05
1.2009101e-05
6.4897699e-05
1.496419e-05
8.0617645e-05
1.8511584e-05
9.9771687e-05
2.2737013e-05
0.00012302327
2.7727629e-05
0.00015113155
3.3566836e-05
0.0001849492
4.0326624e-05
0.00022541009
4.8056873e-05
0.0002735008
5.6771154e-05
0.00033020871
6.6429163e-05
0.00039643758
7.6917178e-05
0.00047288162
8.8030603e-05
0.0005598532
9.9468516e-05
0.00065707214
0.0001108579
0.00076344671
0.00012179034
0.00087696967
0.00013185732
0.00099483394
0.00014138273
0.0011139667
0.00015151806
0.0012313037
0.00016397401
0.0013455962
0.00018123475
0.0014566024
0.00020652825
0.0015647453
0.00024368727
0.0016701261
0.00029741609
0.0017715807
0.00037381872
0.0018660802
0.00048124225
0.0019481548
0.00063151726
0.0020090306
0.00084178528
0.0020351388
0.0011372539
0.0020053718
0.0015561201
0.0018858068
0.0021613494
0.0016149541
0.003067214
0.0010729684
0.0044722454
1.1495943e-05
0.0066669297
-0.0019393388
0.01028921
-0.0054923422
0.016596698
-0.011996522
0.026877046
-0.022859325
0.041066721
-0.03852389
0.056954055
-0.057953961
0.070432917
-0.07892082
0.078349874
-0.098475386
0.082162496
-0.11652019
0.083725478
-0.13431648
0.084077419
-0.1492222
0.08550339
-0.15874276
0.089472067
-0.16332813
0.096904099