/*--------------------------------*- C++ -*----------------------------------*\
  =========                 |
  \\      /  F ield         | OpenFOAM: The Open Source CFD Toolbox
   \\    /   O peration     | Website:  https://openfoam.org
    \\  /    A nd           | Version:  13
     \\/     M anipulation  |
\*---------------------------------------------------------------------------*/
FoamFile
{
    format      ascii;
    class       volVectorField;
    location    "33.903655";
    object      U;
}
// * * * * * * * * * * * * * * * * * * * * * * * * * * * * * * * * * * * * * //

dimensions      [0 1 -1 0 0 0 0];

internalField   nonuniform List<vector> 
17140
(
(-5.6848564e-07 3.6633152e-05 3.0680078e-23)
(-3.4902424e-06 0.00011504582 3.3963385e-24)
(-8.9437289e-06 0.00020253894 -2.2405549e-22)
(-1.7897597e-05 0.00029879361 2.4613089e-22)
(-3.1254327e-05 0.0004033981 -2.8747571e-23)
(-5.0255593e-05 0.00051583621 9.3986005e-23)
(-7.6458871e-05 0.00063548577 1.5801983e-22)
(-0.00011178235 0.00076162539 -7.6997657e-23)
(-0.0001585908 0.00089344653 -2.5153638e-22)
(-0.00021978625 0.0010300755 -6.1540591e-22)
(-0.00029891561 0.0011706065 9.0963172e-22)
(-0.00040029207 0.0013141488 -8.0754531e-22)
(-0.0005291346 0.0014598898 -1.2308273e-22)
(-0.00069172305 0.0016071764 6.9175111e-22)
(-0.00089556797 0.0017556144 -7.6307129e-23)
(-0.0011495909 0.0019051876 5.9927319e-22)
(-0.0014643084 0.0020563908 -2.2052394e-23)
(-0.0018520096 0.0022103717 4.9191447e-24)
(-0.0023269102 0.0023690684 3.4192347e-22)
(-0.0029052611 0.0025353236 -4.3584463e-22)
(-0.00360538 0.0027129468 2.058991e-22)
(-0.0044475648 0.0029066878 -3.8316997e-23)
(-0.0054538344 0.0031220736 -2.7592208e-22)
(-0.0066474333 0.0033650571 2.6728175e-22)
(-0.0080520203 0.0036414263 4.1279476e-22)
(-0.0096904611 0.0039559412 -3.2092135e-22)
(-0.011583153 0.0043112059 -1.5230291e-21)
(-0.013745864 0.0047063814 -1.733872e-22)
(-0.016187204 0.0051360178 1.464467e-21)
(-0.018906141 0.0055895797 3.2929877e-22)
(-0.021890375 0.0060525331 1.1248752e-21)
(-0.025116775 0.0065096623 -1.4102624e-21)
(-0.028554809 0.0069498721 3.4863504e-22)
(-0.032172344 0.0073698816 1.5674475e-22)
(-0.035940872 0.0077744673 1.4612148e-21)
(-0.039837351 0.0081740332 -6.0507007e-22)
(-0.043843358 0.0085815457 8.6673386e-22)
(-0.047943376 0.0090119746 5.615003e-22)
(-0.052123573 0.0094825414 2.4868011e-22)
(-0.056371968 0.010014137 -7.3348214e-22)
(-0.060679564 0.010633347 -1.3613489e-21)
(-0.06504258 0.011374921 -1.2244481e-21)
(-0.069465107 0.012284845 -5.336484e-22)
(-0.073962116 0.013424136 2.6090531e-21)
(-0.0785673 0.014872608 1.9245068e-21)
(-0.08333074 0.01672888 -4.7844922e-22)
(-0.088318906 0.019113977 3.2853697e-21)
(-0.093619836 0.022178371 1.1290244e-21)
(-0.099333012 0.026103223 -1.162882e-21)
(-0.10556685 0.031099196 -2.8721765e-21)
(-0.11240689 0.037402134 1.7830299e-21)
(-0.11993207 0.045253167 1.1319082e-21)
(-0.12812444 0.054839595 -2.9647279e-21)
(-0.13699135 0.066173347 -1.4049721e-21)
(-0.14629492 0.07880218 -1.0032896e-21)
(-0.15600104 0.091354936 7.9178798e-22)
(-0.16538862 0.10093751 -2.1407846e-21)
(-0.17465901 0.10307335 -1.8028413e-21)
(-0.18202773 0.087986995 -4.5322941e-22)
(-0.18646949 0.045257591 1.2093363e-21)
(-0.17746697 -0.036458462 8.728862e-22)
(-0.14563607 -0.15515447 2.9900503e-21)
(-0.074397503 -0.26771846 3.1455759e-22)
(-0.012677732 -0.31467795 -2.0383447e-21)
(0.060800466 -0.25872012 1.0035918e-21)
(-2.9393282e-06 6.9966086e-05 -8.7266953e-24)
(-1.083787e-05 0.00021823425 1.1747585e-21)
(-2.1751182e-05 0.00038283184 -1.0448042e-21)
(-3.6645486e-05 0.00056409996 2.8460553e-22)
(-5.6417214e-05 0.00076232796 5.8743821e-22)
(-8.2294692e-05 0.00097773077 -1.1212629e-21)
(-0.00011581089 0.0012104432 1.1671691e-21)
(-0.00015885111 0.0014605173 -1.0254802e-22)
(-0.00021373451 0.0017279214 3.1949073e-22)
(-0.00028330464 0.002012544 5.4049021e-24)
(-0.00037103427 0.0023142042 1.0605074e-21)
(-0.00048114567 0.0026326688 -1.6782357e-21)
(-0.00061874809 0.0029676782 -1.3795689e-22)
(-0.00078999145 0.0033189812 1.3531974e-21)
(-0.0010022349 0.0036863778 -4.1236331e-22)
(-0.0012642263 0.0040697692 -2.5938453e-22)
(-0.001586286 0.00446921 1.6276244e-21)
(-0.0019804845 0.004884955 -5.2297051e-21)
(-0.0024607977 0.0053174872 3.2212823e-21)
(-0.0030432175 0.00576751 -3.7867022e-21)
(-0.003745786 0.0062358748 5.4729934e-21)
(-0.0045885113 0.006723411 -1.3088715e-21)
(-0.0055931123 0.0072306171 -5.2503807e-22)
(-0.0067825256 0.0077571694 1.6672682e-21)
(-0.0081800971 0.0083012176 -5.8137586e-21)
(-0.0098083761 0.0088584694 -8.404327e-22)
(-0.011687443 0.0094211495 4.2115037e-21)
(-0.013832755 0.0099770851 -4.5647546e-21)
(-0.016252639 0.010509457 6.0410902e-22)
(-0.018945833 0.010998125 5.7116787e-21)
(-0.021899907 0.011423512 -5.6813971e-22)
(-0.025091721 0.011772898 -4.1634165e-21)
(-0.028490825 0.012046305 -1.0139445e-22)
(-0.032065079 0.012257459 2.7957354e-21)
(-0.035785746 0.012428759 -2.9495647e-21)
(-0.039629439 0.012584574 1.2594943e-21)
(-0.043577166 0.012747399 -1.4078093e-21)
(-0.047612524 0.012937969 -4.3022052e-21)
(-0.05172056 0.013177271 -9.3369267e-22)
(-0.055887795 0.013489236 -3.5604384e-21)
(-0.060103198 0.013903598 4.4948421e-21)
(-0.064360182 0.014458845 4.1078869e-21)
(-0.068659032 0.01520544 7.0436243e-22)
(-0.073009547 0.01621002 -5.6498516e-21)
(-0.077438019 0.017558456 2.6923612e-21)
(-0.081984662 0.01935368 9.4432921e-22)
(-0.086703433 0.0217199 -5.2190502e-22)
(-0.091666066 0.024809822 -1.6214611e-21)
(-0.096951613 0.028802885 8.0429644e-22)
(-0.10264375 0.033902845 -1.4571102e-21)
(-0.10879929 0.040333996 -8.9002941e-21)
(-0.1154677 0.048321323 -4.3317354e-22)
(-0.1226027 0.058035422 1.9472455e-21)
(-0.13020347 0.069472937 -4.3287413e-21)
(-0.13805503 0.082169847 3.715171e-21)
(-0.14620481 0.094730826 -1.0613619e-20)
(-0.15400244 0.10425383 -3.0874932e-21)
(-0.16165831 0.10624446 8.7639947e-21)
(-0.16773274 0.090610936 -1.5371546e-21)
(-0.17047014 0.045517934 -1.7099757e-21)
(-0.15761283 -0.04199191 -3.4061362e-22)
(-0.11811295 -0.16983378 4.620465e-21)
(-0.03709845 -0.2866923 -5.8373526e-21)
(0.023127051 -0.33247914 -1.1178879e-21)
(0.084971524 -0.27835042 -1.2736797e-21)
(-7.1555453e-06 0.00010265348 -4.8032059e-22)
(-2.3868312e-05 0.00031942862 3.5472952e-22)
(-4.4457464e-05 0.00055965221 9.4292404e-23)
(-6.9904772e-05 0.00082432163 -8.9336131e-23)
(-0.00010113111 0.0011144249 4.3256766e-22)
(-0.00013937608 0.0014309078 3.2152909e-23)
(-0.00018617313 0.0017746636 4.1000723e-22)
(-0.00024339499 0.0021465221 4.4104157e-22)
(-0.000313332 0.0025472356 -3.5965731e-21)
(-0.00039877901 0.0029774662 3.2029152e-21)
(-0.00050313631 0.0034377736 -1.5278375e-21)
(-0.00063052546 0.0039286037 -2.2299447e-21)
(-0.00078592198 0.0044502781 4.4003816e-21)
(-0.00097530401 0.0050029829 5.4163002e-22)
(-0.0012058155 0.0055867568 -2.0750949e-21)
(-0.0014859401 0.0062014725 -1.413862e-21)
(-0.0018256804 0.0068468094 1.6218905e-21)
(-0.0022367302 0.0075222053 -5.7954913e-21)
(-0.0027326261 0.0082267763 3.3729169e-21)
(-0.0033288556 0.0089591863 -1.6388962e-21)
(-0.0040428902 0.0097174388 5.4141303e-21)
(-0.0048941022 0.010498562 1.3770424e-21)
(-0.0059035136 0.01129815 -2.7999488e-21)
(-0.0070933094 0.012109725 4.1014734e-21)
(-0.0084860411 0.012923913 1.5695679e-21)
(-0.010103438 0.013727461 -1.8276669e-21)
(-0.011964764 0.014502262 -1.0070886e-20)
(-0.014084711 0.015224779 -4.416798e-21)
(-0.016470966 0.015866654 2.1292996e-21)
(-0.019121875 0.016397765 -2.2072625e-21)
(-0.022024998 0.016792835 1.3218866e-21)
(-0.025157645 0.017040782 7.2017658e-21)
(-0.028490156 0.017151927 -2.2978351e-21)
(-0.031991189 0.017156615 -6.5343081e-21)
(-0.035632448 0.017094993 2.0629522e-21)
(-0.039390495 0.017005886 2.7525751e-21)
(-0.043245789 0.016921633 -4.555192e-21)
(-0.047180931 0.016869009 -1.3363873e-21)
(-0.051179543 0.016872834 2.3131195e-21)
(-0.05522621 0.016959987 9.1281624e-22)
(-0.059307286 0.017163114 -4.32193e-21)
(-0.063412629 0.017524085 1.2121595e-21)
(-0.067537677 0.01809742 1.7756202e-21)
(-0.071685698 0.018954752 4.7908244e-21)
(-0.075873834 0.020187289 -9.237611e-21)
(-0.080129734 0.021901691 6.0664266e-21)
(-0.084491291 0.024224754 1.5479072e-21)
(-0.089009246 0.027310556 6.2659034e-21)
(-0.093735339 0.031336136 7.63688e-21)
(-0.098718662 0.036497972 3.9741467e-22)
(-0.10397302 0.043009296 -1.653077e-21)
(-0.10949742 0.051080823 1.2506045e-20)
(-0.11518443 0.060872602 5.3798e-21)
(-0.12097887 0.072379635 5.57283e-21)
(-0.12662252 0.085146936 1.8420655e-21)
(-0.13215129 0.097774968 1.4386943e-20)
(-0.13690131 0.10733535 -5.8944387e-21)
(-0.14073841 0.10941949 1.9930145e-21)
(-0.1424929 0.093415073 1.5717905e-20)
(-0.13929454 0.046086088 6.5886378e-21)
(-0.11740437 -0.047358039 -7.9823665e-21)
(-0.063531622 -0.18482524 -2.4259472e-20)
(0.031799624 -0.30427128 5.0943229e-21)
(0.090871518 -0.34630783 5.6414754e-21)
(0.13900837 -0.29098876 1.0087198e-21)
(-1.3168756e-05 0.00013413962 1.6073979e-21)
(-4.2440266e-05 0.00041691263 -2.5558281e-21)
(-7.681685e-05 0.00073000786 9.2362882e-22)
(-0.0001173173 0.0010750674 -1.0033725e-22)
(-0.00016491675 0.0014537669 1.9820762e-21)
(-0.00022089243 0.0018677739 -2.0486028e-21)
(-0.00028680285 0.0023187334 3.1037438e-21)
(-0.00036453016 0.0028082495 -1.4578376e-21)
(-0.00045635373 0.0033378595 -5.5324175e-21)
(-0.00056503163 0.0039090053 1.3269546e-21)
(-0.00069389551 0.0045230004 5.0394488e-21)
(-0.00084695946 0.0051809917 -1.532723e-21)
(-0.001029045 0.0058839139 -1.018752e-22)
(-0.0012459209 0.006632436 3.971483e-21)
(-0.0015044571 0.0074268947 -1.234028e-20)
(-0.0018127892 0.0082672121 7.5137849e-21)
(-0.0021804866 0.0091527895 7.1019963e-23)
(-0.0026187158 0.010082368 -4.0673919e-21)
(-0.003140383 0.011053841 1.0187837e-20)
(-0.0037602341 0.012064002 -4.7320859e-21)
(-0.0044948832 0.013108206 -6.9328693e-21)
(-0.0053627283 0.014179899 -2.7523057e-21)
(-0.006383703 0.015270016 1.3319111e-20)
(-0.0075788005 0.016366185 6.8020145e-21)
(-0.0089692955 0.01745177 -4.2886591e-21)
(-0.010575588 0.018504805 2.4414378e-21)
(-0.01241561 0.01949705 -8.9113063e-21)
(-0.014502805 0.020393692 2.4937562e-21)
(-0.01684383 0.021154728 -6.5399357e-21)
(-0.019436413 0.021739596 3.5857285e-21)
(-0.02226815 0.022116406 -2.1477958e-21)
(-0.025317188 0.022274378 7.5935032e-21)
(-0.028555339 0.022232779 -1.0433028e-21)
(-0.03195285 0.022037748 5.267809e-21)
(-0.035482548 0.021747162 -4.8050067e-21)
(-0.039121334 0.021414811 -1.4740994e-21)
(-0.042849236 0.021083412 1.754392e-20)
(-0.046647747 0.02078615 4.4237558e-21)
(-0.050498779 0.020551815 -3.5627575e-21)
(-0.054384551 0.02041015 3.4365867e-21)
(-0.058288224 0.020396458 -8.6980063e-22)
(-0.062195341 0.020555578 -5.4846591e-21)
(-0.066095449 0.02094555 2.5902829e-22)
(-0.069983954 0.021642304 1.8663182e-21)
(-0.073866941 0.022741549 -9.1574596e-22)
(-0.077756978 0.024352844 4.545894e-22)
(-0.081672219 0.026604848 1.3663992e-21)
(-0.085637484 0.029651841 -2.1665454e-20)
(-0.089670021 0.033667274 2.4495011e-21)
(-0.093773877 0.038839246 -2.3080039e-21)
(-0.097904403 0.04536927 2.1940005e-20)
(-0.10198691 0.053453518 -1.215229e-20)
(-0.10581529 0.06324517 -1.003475e-20)
(-0.10922738 0.074748825 -9.640005e-21)
(-0.11184798 0.087537102 -9.3507786e-21)
(-0.11358384 0.10023728 -1.4880294e-20)
(-0.11361032 0.10982303 3.028296e-20)
(-0.11122885 0.11210796 -1.9352577e-20)
(-0.10499126 0.095978167 -3.0766175e-20)
(-0.091019713 0.046329791 2.5212838e-20)
(-0.052640679 -0.05340397 7.6494226e-21)
(0.025916462 -0.19994128 4.9257047e-21)
(0.13880403 -0.31899288 -2.13359e-20)
(0.1970913 -0.3521209 -8.6779579e-21)
(0.22540862 -0.29418998 -4.4907623e-22)
(-2.087184e-05 0.00016385887 -1.1312932e-21)
(-6.6226224e-05 0.00050893914 3.7534602e-21)
(-0.00011825989 0.00089085233 -3.058517e-21)
(-0.00017805153 0.0013118652 1.1551415e-21)
(-0.00024665938 0.0017743204 4.1702756e-22)
(-0.00032542454 0.0022805888 -3.5851778e-21)
(-0.00041595552 0.0028330521 9.0692804e-22)
(-0.00052016658 0.003434077 1.9232376e-21)
(-0.00064034529 0.0040859791 1.4730053e-22)
(-0.00077922693 0.0047909811 1.2488944e-21)
(-0.0009400813 0.0055511601 -1.7442978e-21)
(-0.0011268124 0.0063683851 1.2084888e-21)
(-0.0013440725 0.0072442401 4.4358e-21)
(-0.0015973903 0.0081799298 1.2867088e-22)
(-0.0018933116 0.009176164 -3.354013e-21)
(-0.0022395492 0.010233014 -2.3588738e-21)
(-0.0026451367 0.011349731 2.0126227e-21)
(-0.0031205769 0.012524522 -1.9098143e-22)
(-0.0036779694 0.013754259 -3.836945e-21)
(-0.0043310989 0.015034106 -4.6099208e-21)
(-0.005095454 0.016357048 5.1760844e-21)
(-0.0059881378 0.01771328 5.1146764e-21)
(-0.0070276226 0.01908944 -6.744572e-21)
(-0.0082332845 0.020467659 8.1651297e-21)
(-0.0096246498 0.021824456 1.3822545e-20)
(-0.011220283 0.023129563 -3.1778884e-20)
(-0.013036263 0.024344968 1.7049356e-20)
(-0.01508428 0.025424817 -2.4590694e-20)
(-0.017369519 0.026317429 2.9859596e-20)
(-0.019888794 0.026971319 -3.2322675e-20)
(-0.022629672 0.02734683 3.2300266e-20)
(-0.025571395 0.027431698 -5.2244864e-21)
(-0.028687841 0.027252196 -1.7308706e-20)
(-0.031951625 0.026868954 9.3067113e-21)
(-0.035337415 0.026357331 -2.7656176e-21)
(-0.038822926 0.025786608 -7.7010758e-22)
(-0.042387932 0.025210575 -9.1146184e-21)
(-0.046012758 0.02466934 -2.8746562e-21)
(-0.049677349 0.024195873 -2.8006326e-21)
(-0.05336114 0.023822726 -2.7241074e-21)
(-0.057043531 0.023587591 1.3702151e-20)
(-0.060704993 0.023537807 -5.9911e-21)
(-0.06432817 0.023734295 -9.5656508e-22)
(-0.06789937 0.024256435 1.1130895e-20)
(-0.071411421 0.025203604 5.7193463e-21)
(-0.074859462 0.026687121 -2.8671e-21)
(-0.078238337 0.028836547 -1.050963e-20)
(-0.081541712 0.031804866 4.6689582e-21)
(-0.084744901 0.03576018 -1.3719567e-20)
(-0.087795933 0.040880212 -7.5389547e-21)
(-0.090575505 0.047352639 -1.0529905e-20)
(-0.092910385 0.055355925 -2.8388852e-20)
(-0.094454822 0.065036992 2.2106692e-20)
(-0.094886017 0.076419626 -7.2146016e-21)
(-0.093638757 0.089111472 1.2558825e-20)
(-0.090389772 0.1017808 1.2085572e-20)
(-0.083732116 0.11132872 5.0386419e-21)
(-0.072738163 0.11366653 4.6662402e-20)
(-0.0541168 0.097419356 1.3099228e-20)
(-0.023511667 0.045214748 -3.2428888e-20)
(0.04123845 -0.061541319 -1.3264859e-20)
(0.15668609 -0.21492098 7.3582315e-21)
(0.28941854 -0.32816793 1.0481076e-20)
(0.34612044 -0.34829298 9.2535948e-21)
(0.34678866 -0.28391668 3.0015755e-22)
(-3.0096248e-05 0.00019125394 -3.4460653e-21)
(-9.4706171e-05 0.00059378615 -1.2155321e-21)
(-0.00016788317 0.001039182 9.8362809e-22)
(-0.00025078721 0.0015303039 3.6302105e-21)
(-0.00034458726 0.0020701314 -1.9876154e-21)
(-0.00045071382 0.0026617111 2.8582577e-21)
(-0.00057085013 0.0033081363 -1.2353963e-21)
(-0.00070696568 0.0040125158 -2.9387936e-22)
(-0.00086137668 0.0047779293 1.6605696e-21)
(-0.0010368118 0.005607374 3.5718389e-21)
(-0.0012364894 0.0065036957 1.7911291e-22)
(-0.0014642056 0.0074695047 -5.8407888e-21)
(-0.0017244353 0.0085070711 8.0523402e-21)
(-0.0020224454 0.0096181948 -1.2946793e-20)
(-0.0023644183 0.010804045 3.3660841e-21)
(-0.0027575841 0.01206496 -7.1089655e-21)
(-0.0032103548 0.0134002 8.5316089e-21)
(-0.0037324526 0.014807638 -5.4938289e-21)
(-0.0043350183 0.016283374 8.5864829e-22)
(-0.0050306817 0.017821251 3.4441678e-21)
(-0.0058335658 0.01941225 -8.2625692e-21)
(-0.006759189 0.021043739 1.1487541e-20)
(-0.0078242186 0.022698545 -1.2288853e-20)
(-0.0090460168 0.024353842 -2.0757784e-21)
(-0.010441915 0.025979877 1.9974203e-20)
(-0.01202815 0.027538663 -1.9790928e-20)
(-0.01381843 0.028982953 1.2598476e-20)
(-0.01582217 0.030256251 -1.3834808e-20)
(-0.018042596 0.031295293 -1.2928649e-21)
(-0.020475215 0.032037189 -7.891269e-22)
(-0.023107365 0.032433205 5.0678564e-21)
(-0.025919471 0.032467386 -3.3509383e-22)
(-0.028887921 0.032170458 1.7802683e-20)
(-0.031988411 0.031615655 -4.6059743e-21)
(-0.035198199 0.030895259 -1.3203416e-20)
(-0.038496381 0.030094551 5.8875776e-21)
(-0.041862745 0.029279243 -4.6407492e-21)
(-0.045276445 0.028497029 4.5028782e-21)
(-0.048715245 0.027785375 2.4425461e-20)
(-0.052155408 0.02717963 -1.3244e-20)
(-0.055572016 0.026719586 -3.2167972e-21)
(-0.058939733 0.026454582 1.8140594e-20)
(-0.062233317 0.026447722 -1.039789e-21)
(-0.065428725 0.026780828 -2.2340298e-21)
(-0.068503563 0.027555625 -2.4559632e-20)
(-0.071432739 0.028884502 -5.761843e-21)
(-0.074184624 0.03089636 9.1743708e-21)
(-0.076716222 0.033740894 9.4921167e-21)
(-0.0789534 0.037578529 1.3639943e-20)
(-0.08077691 0.042573641 1.6978168e-20)
(-0.081976514 0.048896302 1.0423244e-20)
(-0.082255022 0.056700599 1.6394787e-20)
(-0.081085081 0.066125007 -5.6093425e-21)
(-0.077942062 0.077213571 3.4944033e-20)
(-0.07202459 0.089633145 2.4000198e-21)
(-0.062650647 0.10199902 2.1055593e-21)
(-0.046982262 0.11133465 1.3387287e-21)
(-0.024901648 0.11329573 -5.1432984e-20)
(0.010569472 0.096658149 -2.2225943e-20)
(0.06452048 0.041028211 3.7515451e-20)
(0.16713962 -0.073624212 5.5191625e-20)
(0.32628124 -0.23038428 2.1631089e-20)
(0.47715184 -0.33162129 4.2955945e-21)
(0.53049935 -0.3287645 -1.0375713e-20)
(0.50349939 -0.25525911 -7.1963139e-22)
(-4.0611618e-05 0.00021579713 6.5087352e-22)
(-0.00012717119 0.00066982232 2.0672463e-21)
(-0.00022445415 0.0011721499 -4.987568e-21)
(-0.00033372193 0.0017262003 1.8528467e-22)
(-0.00045627952 0.0023355495 2.4257493e-21)
(-0.000593671 0.0030038826 1.0684152e-21)
(-0.00074767818 0.0037349697 7.8820068e-22)
(-0.00092034887 0.0045326314 -1.5514737e-21)
(-0.0011140492 0.0054006885 8.0208501e-21)
(-0.0013315196 0.0063428982 -6.0421893e-21)
(-0.0015759412 0.0073628735 2.9174775e-22)
(-0.0018510104 0.008463981 3.6403146e-21)
(-0.0021610246 0.0096492123 -1.3576718e-20)
(-0.0025109778 0.010921024 1.3481109e-20)
(-0.0029066645 0.012281139 -1.7874622e-21)
(-0.0033547899 0.013730295 -1.1001308e-20)
(-0.0038630804 0.015267942 1.0277534e-20)
(-0.0044403876 0.016891851 -3.5639674e-21)
(-0.0050967717 0.018597646 6.8611484e-21)
(-0.0058435493 0.020378213 -8.7112756e-21)
(-0.0066932774 0.022222971 -1.6155575e-20)
(-0.0076596415 0.02411698 1.5766574e-20)
(-0.0087572042 0.026039856 2.2733145e-20)
(-0.01000096 0.027964487 -4.307534e-20)
(-0.011405635 0.029855582 3.3873375e-20)
(-0.01298468 0.031668193 -1.9252895e-20)
(-0.014748929 0.033346566 4.8524039e-21)
(-0.016704987 0.034824155 -1.1211606e-20)
(-0.018853589 0.03602636 1.1189729e-20)
(-0.021188445 0.036878504 1.4701048e-20)
(-0.02369629 0.037321372 -9.484265e-21)
(-0.026358606 0.037332775 -1.5223207e-20)
(-0.029154519 0.036944733 1.281363e-21)
(-0.032063402 0.036240524 5.1125346e-22)
(-0.035065865 0.035328349 8.655308e-21)
(-0.038143038 0.034309903 -3.5881378e-21)
(-0.041275106 0.033263797 -1.263687e-20)
(-0.044440138 0.032246154 -6.1611456e-21)
(-0.047613557 0.031299379 9.1357283e-21)
(-0.050768106 0.030461662 -7.053831e-21)
(-0.053874021 0.02977462 5.9528416e-21)
(-0.056899436 0.029289047 -1.9552364e-21)
(-0.059810277 0.029069451 -7.563514e-21)
(-0.062570649 0.029198948 1.8277762e-20)
(-0.065141607 0.029780115 1.0996342e-20)
(-0.067474846 0.030925487 7.2534167e-21)
(-0.069508711 0.03276147 -2.3174948e-20)
(-0.071158287 0.035432067 -1.5216321e-20)
(-0.072292298 0.03908706 -1.8035444e-20)
(-0.072712772 0.043873582 -3.1737013e-20)
(-0.072102656 0.049938721 1.1007454e-20)
(-0.070015481 0.057401937 -2.3548411e-21)
(-0.065707234 0.066389358 -1.8589203e-20)
(-0.058442975 0.076995762 -5.4794005e-20)
(-0.04722816 0.088848004 -3.651906e-20)
(-0.030133773 0.10046025 -1.4742258e-20)
(-0.0034114604 0.10931757 -4.4405476e-20)
(0.032638888 0.1103598 3.157154e-20)
(0.088515319 0.092319653 -4.066446e-21)
(0.17318315 0.0317576 -6.1618278e-20)
(0.3227967 -0.090546562 -4.2282911e-20)
(0.51992547 -0.24625063 -1.6358515e-21)
(0.67327242 -0.33073838 3.574629e-20)
(0.71370242 -0.30298728 -1.5181542e-21)
(0.67965676 -0.2092992 -1.3683235e-21)
(-5.2129486e-05 0.00023700693 2.5704861e-21)
(-0.00016273329 0.00073555797 -1.7328912e-21)
(-0.00028642855 0.001287155 2.3399127e-21)
(-0.00042459658 0.0018957295 1.329296e-21)
(-0.00057870055 0.0025654045 -3.7071808e-21)
(-0.00075042008 0.0033004561 -3.4582036e-21)
(-0.00094165795 0.0041052865 3.5452747e-21)
(-0.0011545627 0.0049843884 -4.2621213e-22)
(-0.0013915721 0.0059422898 -9.8587009e-23)
(-0.0016554591 0.0069834852 -6.9928847e-21)
(-0.0019493855 0.0081123447 7.6499034e-22)
(-0.0022769621 0.009332999 1.4036888e-20)
(-0.0026423182 0.010649192 -1.1189353e-20)
(-0.0030501763 0.012064099 3.8398722e-22)
(-0.0035059351 0.01358009 7.4391964e-21)
(-0.0040157533 0.015198446 6.3671424e-22)
(-0.0045866343 0.016918996 -1.6094941e-21)
(-0.0052265004 0.01873967 -7.1989761e-21)
(-0.0059442479 0.020655945 1.307293e-20)
(-0.0067497652 0.02266016 -2.2752886e-20)
(-0.0076538915 0.024740676 4.8490186e-21)
(-0.0086682853 0.026880846 -3.5171958e-21)
(-0.0098051618 0.029057776 2.8462494e-21)
(-0.01107685 0.031240867 -1.2047338e-22)
(-0.012495118 0.033390171 1.6337274e-20)
(-0.014070214 0.035454712 1.5996734e-20)
(-0.015809622 0.037371161 -3.1077863e-20)
(-0.017716611 0.039063718 -5.0781901e-21)
(-0.019788852 0.040446919 1.7293523e-20)
(-0.022017664 0.041434073 6.0024864e-21)
(-0.024388624 0.041954123 1.3286246e-20)
(-0.026883873 0.041975876 -1.4526997e-20)
(-0.029485229 0.041528923 -6.1554444e-21)
(-0.032176142 0.040703268 1.3746437e-20)
(-0.034941305 0.039621429 -5.5461122e-21)
(-0.03776463 0.038401712 -2.5804922e-21)
(-0.040627213 0.037136696 7.1104057e-21)
(-0.043506234 0.035891969 1.8102435e-20)
(-0.046374696 0.034715479 5.3867331e-21)
(-0.049201516 0.033648391 -3.4935424e-21)
(-0.051951591 0.032733884 -8.2388509e-21)
(-0.054585824 0.032023621 -8.5102027e-21)
(-0.057060343 0.031582633 -9.4417411e-21)
(-0.059326069 0.031494179 -1.9936426e-20)
(-0.061325785 0.031860135 5.8760994e-22)
(-0.062985635 0.032791452 -8.5746631e-21)
(-0.064209939 0.034410393 4.7495278e-20)
(-0.064866515 0.036852342 1.3318556e-20)
(-0.064758869 0.040252861 1.5370694e-20)
(-0.063598357 0.044737316 4.2950919e-20)
(-0.06094538 0.050423228 -5.0518616e-20)
(-0.05617795 0.057383243 1.1317818e-20)
(-0.04830095 0.065747366 3.6529277e-20)
(-0.036467211 0.075614426 4.5148268e-20)
(-0.018906986 0.086502383 5.785413e-21)
(0.0081174666 0.096872152 -1.5004668e-20)
(0.047286041 0.10467718 -2.4990726e-20)
(0.099919268 0.10429735 1.1133081e-20)
(0.17902366 0.083196846 -2.23515e-20)
(0.30189237 0.016050247 1.9814144e-20)
(0.50092051 -0.11158082 6.5461047e-21)
(0.71825414 -0.25948352 1.5353537e-20)
(0.84338809 -0.32452791 -4.4878763e-20)
(0.84770274 -0.28049135 -2.4664135e-22)
(0.81662773 -0.1648857 2.7980216e-21)
(-6.4311665e-05 0.00025447406 -2.4153631e-21)
(-0.00020035102 0.00078972628 -6.4664007e-22)
(-0.00035199469 0.0013819832 7.1016578e-22)
(-0.00052075969 0.0020356319 3.488527e-21)
(-0.00070828553 0.0027552839 -4.1807015e-21)
(-0.00091640644 0.0035457491 3.5467703e-21)
(-0.0011471662 0.0044120073 1.6931811e-21)
(-0.0014028352 0.0053591726 -9.0612257e-23)
(-0.0016859447 0.0063924368 -1.4247576e-21)
(-0.0019993221 0.0075169975 -8.0850831e-21)
(-0.0023461315 0.0087379619 1.3538401e-20)
(-0.0027299192 0.010060223 -1.6212644e-20)
(-0.0031546645 0.011488301 4.7416312e-21)
(-0.003624834 0.013026139 6.4041955e-21)
(-0.0041454396 0.014676852 -9.7648756e-21)
(-0.0047220965 0.0164424 1.9115718e-20)
(-0.0053610764 0.018323194 -2.2981845e-20)
(-0.0060693506 0.020317588 -3.5897739e-22)
(-0.0068546105 0.022421262 -1.2913787e-20)
(-0.0077252525 0.024626454 5.0653618e-20)
(-0.0086903049 0.026921014 -1.2106658e-20)
(-0.0097592694 0.029287251 -4.9400036e-20)
(-0.01094184 0.031700547 2.3000674e-20)
(-0.012247456 0.034127721 2.701321e-20)
(-0.013684641 0.036525186 -6.6787399e-21)
(-0.015260089 0.038837044 -3.4386129e-20)
(-0.016977509 0.040993515 5.1191252e-20)
(-0.018836324 0.042910583 -5.5763288e-20)
(-0.020830544 0.044492643 4.3067348e-20)
(-0.022948409 0.045641025 -8.0726061e-21)
(-0.025173591 0.046271648 1.3558054e-20)
(-0.027488199 0.046341488 1.8813954e-20)
(-0.029876337 0.045873525 -7.1336918e-21)
(-0.032325659 0.044960361 -1.7554742e-21)
(-0.034825565 0.043736446 -2.4698014e-20)
(-0.037363569 0.042336514 4.5726854e-21)
(-0.039922343 0.040868196 -1.1416823e-20)
(-0.04247852 0.03940778 9.4285152e-21)
(-0.0450027 0.038009554 -5.3469796e-21)
(-0.047459731 0.03671791 -3.4780787e-21)
(-0.049808713 0.03557737 -2.9693788e-21)
(-0.052002623 0.034639859 -2.8996519e-21)
(-0.053986849 0.033969984 1.7815059e-20)
(-0.05569786 0.033649867 1.4206979e-20)
(-0.057058144 0.033779047 -3.9901279e-21)
(-0.057966063 0.034464926 2.6215053e-21)
(-0.058287766 0.035823471 -1.0905316e-20)
(-0.057837865 0.037978225 2.2018751e-20)
(-0.056345534 0.041046456 2.5888661e-20)
(-0.053417703 0.045126976 7.5578177e-21)
(-0.048473931 0.050299948 1.9978067e-20)
(-0.040676325 0.056579536 -6.3974667e-22)
(-0.02878698 0.06412971 -9.7434228e-21)
(-0.011730511 0.072927969 -4.7396021e-20)
(0.014188308 0.082279016 2.3962595e-20)
(0.052811945 0.09102 -9.750748e-21)
(0.10521083 0.097254862 2.9284125e-20)
(0.17672596 0.094600125 -5.2397332e-20)
(0.28317798 0.068451239 3.2260325e-20)
(0.4520616 -0.0059780208 -1.2098571e-20)
(0.69404311 -0.13314922 6.1118692e-23)
(0.90260132 -0.26355002 -8.2341864e-21)
(0.97197751 -0.30885237 -1.6234652e-20)
(0.92902732 -0.25882193 1.3426637e-20)
(0.88038326 -0.14295884 1.4554326e-21)
(-7.6776137e-05 0.0002678774 5.3996179e-21)
(-0.0002388631 0.00083132593 3.7128288e-21)
(-0.00041912441 0.0014548837 -5.8263719e-21)
(-0.00061924418 0.0021433245 1.5330382e-22)
(-0.00084104435 0.0029016841 5.2623387e-21)
(-0.0010865302 0.0037352396 2.7496633e-21)
(-0.0013579039 0.0046494845 -5.7904959e-21)
(-0.0016575768 0.0056500934 9.4979607e-22)
(-0.001988195 0.0067428673 -1.337514e-20)
(-0.0023526631 0.0079336615 2.6028499e-21)
(-0.0027541732 0.0092282884 6.662872e-23)
(-0.0031962334 0.010632389 -9.5345728e-21)
(-0.0036827014 0.01215127 3.0471479e-20)
(-0.0042178165 0.013789687 -1.4152696e-20)
(-0.0048062328 0.015551576 -2.525897e-20)
(-0.0054530482 0.017439714 2.6793548e-20)
(-0.0061638262 0.01945528 -3.2813902e-21)
(-0.0069446035 0.021597322 1.8515847e-20)
(-0.0078018733 0.023862077 1.3651957e-20)
(-0.0087425319 0.026242136 -4.258082e-20)
(-0.0097737679 0.028725411 3.1664222e-20)
(-0.010902869 0.031293871 -4.1239328e-20)
(-0.012136915 0.033922016 4.7878764e-21)
(-0.013482315 0.036575073 -1.9322591e-20)
(-0.014944146 0.039206948 4.1433948e-20)
(-0.016525278 0.041758071 -9.6791362e-21)
(-0.018225285 0.044153532 -2.4076567e-20)
(-0.020039275 0.046302381 5.7271563e-20)
(-0.021956997 0.048099895 -2.445939e-20)
(-0.023962854 0.049435808 -2.5874679e-20)
(-0.026037682 0.050212169 2.0939381e-20)
(-0.02816255 0.050371451 2.7390838e-21)
(-0.03032304 0.04992556 -1.3363084e-20)
(-0.032510742 0.048964758 7.1489806e-21)
(-0.034720187 0.047632086 -1.0627144e-20)
(-0.036943346 0.046077925 3.6019043e-20)
(-0.039165287 0.04442594 -1.8318031e-20)
(-0.04136261 0.042764536 -1.07331e-20)
(-0.043503657 0.041155358 -2.1555176e-20)
(-0.045549041 0.03964644 -2.905505e-21)
(-0.047451628 0.038283495 2.2348747e-20)
(-0.049155777 0.037118104 -8.9488612e-21)
(-0.050595162 0.036213468 -1.3230838e-20)
(-0.051690439 0.035649164 -2.0193835e-21)
(-0.052341563 0.035520639 1.325416e-20)
(-0.052416555 0.035929619 1.1785698e-20)
(-0.051738748 0.03698316 -3.6325342e-20)
(-0.050062344 0.038789326 -1.9470277e-20)
(-0.047030523 0.041442589 -4.271191e-20)
(-0.04212758 0.045010425 -1.5129852e-20)
(-0.034604767 0.049524548 -5.9061572e-21)
(-0.023344969 0.054955319 -4.3703745e-20)
(-0.0069399632 0.061430425 -1.710556e-20)
(0.016793246 0.068674339 5.7924947e-20)
(0.053002008 0.076019421 -4.649076e-20)
(0.10335795 0.08275489 4.2951743e-20)
(0.17078832 0.087059421 -2.0894093e-20)
(0.26487552 0.080960436 1.069404e-19)
(0.4076606 0.048395998 5.7116712e-20)
(0.62869616 -0.031838778 -2.3685584e-20)
(0.89314493 -0.14974171 -3.542406e-20)
(1.0521806 -0.25804827 -4.8145809e-20)
(1.0530237 -0.28275093 -3.230464e-21)
(0.97366066 -0.23206025 -2.0811164e-21)
(0.90905508 -0.13186253 -1.0995679e-21)
(-8.9125944e-05 0.00027701361 9.7995895e-23)
(-0.00027703585 0.00085972325 -6.9718065e-21)
(-0.00048567483 0.0015047408 8.2152892e-21)
(-0.00071690958 0.002217154 3.9512577e-21)
(-0.00097275059 0.0030023494 -7.9086053e-21)
(-0.0012553854 0.0038659981 -2.5594178e-21)
(-0.0015671879 0.0048140335 1.2399972e-20)
(-0.0019107272 0.0058526198 -1.3326817e-20)
(-0.0022887836 0.0069881013 -2.8068943e-21)
(-0.0027043628 0.0082269332 -1.1144101e-20)
(-0.0031607116 0.009575587 2.9522517e-20)
(-0.0036613328 0.011040424 3.5838734e-22)
(-0.0042099988 0.012627528 -2.6342864e-20)
(-0.0048107638 0.014342493 2.815802e-20)
(-0.0054679707 0.016190141 -2.0055394e-20)
(-0.0061862515 0.018174173 -7.3922089e-21)
(-0.0069705164 0.020296716 1.5336771e-20)
(-0.0078259238 0.022557756 -1.3728485e-20)
(-0.0087578245 0.024954427 -1.8112427e-20)
(-0.0097716655 0.027480119 3.8028232e-22)
(-0.010872836 0.030123378 2.7944459e-20)
(-0.012066432 0.032866544 -1.706777e-20)
(-0.013356913 0.035684107 9.3853275e-21)
(-0.014747612 0.03854074 4.4739564e-20)
(-0.016240061 0.041389052 1.4750406e-20)
(-0.017833129 0.044167174 -3.9458431e-20)
(-0.019521979 0.046796557 3.8873696e-21)
(-0.021297005 0.04918084 -4.3268439e-20)
(-0.023143121 0.051207532 2.5227293e-20)
(-0.025040089 0.052755584 -1.314412e-20)
(-0.026964839 0.053712831 1.874342e-20)
(-0.028896091 0.054004986 4.4974556e-21)
(-0.030819642 0.053628407 -2.2100997e-20)
(-0.032730256 0.052665371 2.2205211e-20)
(-0.034627655 0.051263073 3.1768126e-20)
(-0.03650907 0.049585908 -2.9410281e-21)
(-0.038362938 0.047774241 -3.2365119e-20)
(-0.040166544 0.045930136 4.0422918e-20)
(-0.041886283 0.044123852 -8.5237257e-21)
(-0.04347844 0.042407671 1.8058913e-20)
(-0.04488923 0.040828457 -2.8036737e-21)
(-0.046053643 0.039436883 2.8001889e-20)
(-0.046892556 0.038293722 1.3473269e-20)
(-0.047309102 0.037474522 1.7013497e-20)
(-0.047178232 0.037068726 -6.9522631e-20)
(-0.046334092 0.037170214 -2.309566e-20)
(-0.044551393 0.037874019 3.113832e-20)
(-0.041513981 0.039268596 -2.5657787e-20)
(-0.036761895 0.041420773 -2.1704008e-20)
(-0.029629192 0.044361345 2.4711767e-20)
(-0.019141531 0.048066613 1.2989284e-20)
(-0.0038747581 0.05247419 3.038878e-20)