/*--------------------------------*- C++ -*----------------------------------*\
  =========                 |
  \\      /  F ield         | OpenFOAM: The Open Source CFD Toolbox
   \\    /   O peration     | Website:  https://openfoam.org
    \\  /    A nd           | Version:  13
     \\/     M anipulation  |
\*---------------------------------------------------------------------------*/
FoamFile
{
    format      ascii;
    class       volVectorField;
    location    "7.798685";
    object      wallShearStress;
}
// * * * * * * * * * * * * * * * * * * * * * * * * * * * * * * * * * * * * * //

dimensions      [0 2 -2 0 0 0 0];

internalField   uniform (0 0 0);

boundaryField
{
    inlet
    {
        type            calculated;
        value           uniform (0 0 0);
    }
    outlet
    {
        type            calculated;
        value           uniform (0 0 0);
    }
    cylinder
    {
        type            calculated;
        value           nonuniform List<vector> 
132
(
(0.00010902603 -0.0018226758 -9.5086686e-23)
(0.00045456469 -0.0090537893 2.7896268e-23)
(0.0011929164 -0.016121743 1.6661421e-21)
(0.0022990502 -0.022776723 -6.2088863e-21)
(0.003719988 -0.028769597 4.9562139e-21)
(0.0053750214 -0.033863527 1.7236701e-20)
(0.0071557755 -0.037848193 -3.7084233e-21)
(0.0089375604 -0.04055253 -1.6531501e-20)
(0.010581572 -0.041860342 1.7307412e-20)
(0.011945262 -0.041721319 -4.2440139e-20)
(0.012895637 -0.040163195 -8.3025494e-22)
(0.013323846 -0.037299265 2.9996726e-20)
(0.013160259 -0.033329481 5.0887715e-20)
(0.012392671 -0.028544115 -4.2326341e-20)
(0.011071007 -0.023291855 4.5000273e-20)
(0.0093173724 -0.017965969 7.2255938e-20)
(0.0073038305 -0.012944762 -4.6806001e-20)
(0.0052285468 -0.0085384304 7.3767022e-20)
(0.0032883514 -0.0049603856 9.5542587e-20)
(0.0016271029 -0.0022773529 -6.0690378e-20)
(0.00033520679 -0.00045289131 -7.5875542e-20)
(-0.00058797879 0.00067441093 2.6285523e-23)
(-0.0011991033 0.0012899033 1.0679579e-20)
(-0.001607972 0.0016008997 -1.2646703e-20)
(-0.0018541299 0.0017036362 -2.1301054e-20)
(-0.0018051474 0.0015297223 4.5081977e-21)
(-0.0011920867 0.0009355381 -4.0265607e-20)
(0.00017384486 -0.00010431227 1.0665461e-20)
(0.0018640096 -0.001179344 8.3491003e-21)
(0.0032773536 -0.0018896916 -5.7606316e-20)
(0.0040433168 -0.0020984117 7.5436307e-20)
(0.0043094107 -0.0019899054 2.2874879e-21)
(0.0044248926 -0.0017933806 1.6482397e-20)
(0.0045795225 -0.0016023231 -1.9499908e-20)
(0.0046954072 -0.0013880977 6.1864155e-20)
(0.0045542931 -0.001103646 -3.9090536e-21)
(0.0039399138 -0.00074821044 1.5766519e-20)
(0.0026224362 -0.00036529386 -2.1671835e-21)
(0.00036944143 -4.83202e-05 3.1173458e-21)
(-0.0030840723 5.5286869e-05 -1.952701e-21)
(-0.0081195515 -0.00027587817 3.6695013e-21)
(-0.014732824 -0.0013762217 -1.1413253e-22)
(-0.022390762 -0.0034512162 4.2223928e-20)
(-0.030604548 -0.006616739 -1.6415716e-20)
(-0.038755913 -0.010852652 1.4934352e-20)
(-0.04629917 -0.016026488 -9.6631722e-20)
(-0.052756315 -0.021902107 -1.5683699e-20)
(-0.057830911 -0.028202539 1.3845376e-19)
(-0.061317046 -0.034620922 -1.1865968e-19)
(-0.063171822 -0.040873983 -2.2760299e-21)
(-0.063400755 -0.046673041 3.6479115e-20)
(-0.06214843 -0.051807031 -3.344246e-20)
(-0.059519816 -0.05603089 -6.6204972e-21)
(-0.055732136 -0.059197351 -4.2906816e-21)
(-0.051029348 -0.061211142 -6.9896899e-21)
(-0.045594605 -0.061932563 -2.3073184e-21)
(-0.039693888 -0.061346992 5.9107366e-22)
(-0.033553921 -0.059429606 4.9205366e-20)
(-0.027408647 -0.056209608 -7.6015526e-20)
(-0.021477881 -0.051746168 -8.1603931e-20)
(-0.015965752 -0.046130517 -3.3248973e-20)
(-0.011056651 -0.039483958 -7.6418104e-20)
(-0.0069108516 -0.031953263 1.7080857e-20)
(-0.0036594489 -0.023707636 2.4886537e-20)
(-0.0014084425 -0.014948019 -3.8717456e-20)
(-0.00021544284 -0.005837954 -5.1761382e-21)
(0.00015709098 0.0054012772 -4.4188353e-22)
(0.00059509417 0.012520053 -2.7777263e-23)
(0.0014136756 0.019360678 -1.7397792e-21)
(0.0025784081 0.025677614 6.5319818e-21)
(0.0040276949 0.031232146 -5.2275544e-21)
(0.0056733006 0.035802248 -1.8149344e-20)
(0.0074022157 0.039198413 3.8865871e-21)
(0.0090885419 0.041274281 1.7213976e-20)
(0.010594862 0.041942869 -1.7888319e-20)
(0.011784817 0.04118609 4.3523284e-20)
(0.012536541 0.039066364 8.4492864e-22)
(0.012756131 0.035728616 -3.0294118e-20)
(0.012396236 0.031410644 -5.1033194e-20)
(0.0114638 0.026418477 4.2186656e-20)
(0.010035739 0.021124858 -4.4614646e-20)
(0.0082472832 0.015910936 -7.1355563e-20)
(0.0062750424 0.011128398 4.6094593e-20)
(0.0043142138 0.0070512848 -7.2549681e-20)
(0.0025376209 0.0038345628 -9.3937175e-20)
(0.0010629581 0.0014985304 5.9712183e-20)
(-4.3776111e-05 -3.3448722e-05 7.4722231e-20)
(-0.0008231514 -0.00095313616 6.5905353e-20)
(-0.0013336619 -0.00143718 5.3449882e-20)
(-0.0016888602 -0.0016829517 1.2493254e-20)
(-0.001831898 -0.0016848083 2.1041665e-20)
(-0.0016780737 -0.0014249821 -4.4545325e-21)
(-0.00078159047 -0.0006209993 3.9768799e-20)
(0.00076336052 0.00052034188 -1.0563366e-20)
(0.0023649227 0.0015025438 -8.2826569e-21)
(0.0035778412 0.0020662717 5.72515e-20)
(0.0041208539 0.0021401961 -7.4973894e-20)
(0.0043137326 0.0019921866 -2.2602243e-21)
(0.0044380875 0.0017985839 3.7280767e-20)
(0.004608641 0.0016126209 1.9408835e-20)
(0.0046743061 0.0013824498 -6.1673945e-20)
(0.0044207277 0.0010723531 3.9046147e-21)
(0.0036356927 0.00069230875 1.1510608e-20)
(0.0020854199 0.00029460457 2.1746892e-21)
(-0.00045740084 -1.5455478e-05 -3.1353409e-21)
(-0.0042415199 -8.3812032e-05 1.967573e-21)
(-0.009640655 0.000327485 -3.7016066e-21)
(-0.016576699 0.0015453497 3.0346438e-20)
(-0.02445657 0.0037666937 -4.2494233e-20)
(-0.032770708 0.0070821113 1.6467058e-20)
(-0.040870638 0.011441932 -1.4915574e-20)
(-0.048266149 0.016705101 9.6011815e-20)
(-0.054488207 0.022617996 1.5486591e-20)
(-0.059270764 0.028901736 -1.3576713e-19)
(-0.062443073 0.035253837 1.1539574e-19)
(-0.06397939 0.041393751 2.1913419e-21)
(-0.063898514 0.0470368 -3.4656795e-20)
(-0.062371844 0.051990667 3.1182491e-20)
(-0.05948292 0.055993361 -4.816045e-20)
(-0.055474244 0.058920777 3.6170503e-21)
(-0.050609651 0.06070487 -6.0193501e-21)
(-0.045036303 0.061171042 4.6726395e-21)
(-0.039042477 0.060336721 -7.1743611e-22)
(-0.03284802 0.058175234 -5.4885903e-20)
(-0.026685818 0.054722274 8.1819428e-20)
(-0.02077361 0.050043108 8.6064016e-20)
(-0.015311756 0.0442325 3.4591883e-20)
(-0.010481259 0.037417108 7.8706729e-20)
(-0.0064376255 0.029745924 -1.7451365e-20)
(-0.0033072647 0.021393009 5.0083888e-20)
(-0.0011907701 0.012552519 3.9048123e-20)
(-0.00014424985 0.0034239509 5.1937005e-21)
)
;
    }
    frontAndBack
    {
        type            empty;
    }
}


// ************************************************************************* //
