/*--------------------------------*- C++ -*----------------------------------*\
  =========                 |
  \\      /  F ield         | OpenFOAM: The Open Source CFD Toolbox
   \\    /   O peration     | Website:  https://openfoam.org
    \\  /    A nd           | Version:  13
     \\/     M anipulation  |
\*---------------------------------------------------------------------------*/
FoamFile
{
    format      ascii;
    class       volScalarField;
    location    "2.397216";
    object      k;
}
// * * * * * * * * * * * * * * * * * * * * * * * * * * * * * * * * * * * * * //

dimensions      [0 2 -2 0 0 0 0];

internalField   nonuniform List<scalar> 
17140
(
6.9784139e-12
2.1928694e-10
1.7932222e-09
7.7125349e-09
2.3737238e-08
5.9913345e-08
1.3289622e-07
2.6942125e-07
5.1141731e-07
9.2346218e-07
1.6035428e-06
2.6984054e-06
4.4251412e-06
7.1009673e-06
1.1183235e-05
1.7321121e-05
2.6418467e-05
3.9702475e-05
5.8783629e-05
8.5675945e-05
0.00012272274
0.00017234552
0.00023651822
0.00031589814
0.00040866049
0.00050930053
0.00060796897
0.0006920339
0.00075841002
0.0008085493
0.00084712511
0.00087914821
0.00090794316
0.00093508543
0.00096143029
0.00098782175
0.0010151924
0.0010445207
0.0010768654
0.0011134965
0.0011561613
0.0012075736
0.001270639
0.0013489115
0.0014744008
0.0016279663
0.0018178719
0.0019927708
0.0021293006
0.0021778277
0.0019971449
0.0016758377
0.0012741066
0.00092162595
0.00066347905
0.00049125908
0.00038026978
0.000306879
0.00025444579
0.0002139584
0.00018053239
0.00015401157
0.00013394186
0.00011999459
0.00011211191
6.8813099e-12
2.162356e-10
1.7682746e-09
7.6052781e-09
2.3407313e-08
5.9081194e-08
1.3105199e-07
2.6568644e-07
5.0433707e-07
9.1069782e-07
1.5814218e-06
2.6612728e-06
4.3644386e-06
7.0039527e-06
1.1031252e-05
1.7087353e-05
2.606518e-05
3.9177977e-05
5.8019529e-05
8.4585946e-05
0.00012120511
0.0001702924
0.00023383524
0.00031253704
0.00040466386
0.00050485349
0.00060343982
0.0006876304
0.00075420373
0.00080445115
0.00084285971
0.0008743358
0.00090229252
0.00092825718
0.00095296185
0.00097707208
0.0010012853
0.0010262619
0.0010526349
0.0010811346
0.0011127896
0.0011490971
0.0011912507
0.0012413824
0.0013267451
0.0014302886
0.001556481
0.0016898894
0.0017891865
0.0018260842
0.0017338104
0.0015137643
0.0012032909
0.00089979598
0.00065931057
0.00048974239
0.00037683052
0.00030163291
0.00024887047
0.00020938447
0.00017755561
0.00015248418
0.00013336458
0.00011985349
0.00011214795
6.654362e-12
2.0910407e-10
1.7099565e-09
7.3544575e-09
2.2635369e-08
5.71329e-08
1.267309e-07
2.5692807e-07
4.8771766e-07
8.8070496e-07
1.5293855e-06
2.5738198e-06
4.2212937e-06
6.7748727e-06
1.0671864e-05
1.6533711e-05
2.5227047e-05
3.7931261e-05
5.6199193e-05
8.1982191e-05
0.00011756775
0.00016535066
0.00022734124
0.00030433872
0.00039480512
0.00049368721
0.00059171777
0.00067618714
0.00074292946
0.00079298258
0.00083068284
0.00086089719
0.00088684881
0.00090989417
0.00093045711
0.00094875453
0.00096494682
0.00097896435
0.00099045514
0.00099906209
0.0010046139
0.0010059946
0.0010043097
0.0010022648
0.0010198062
0.0010469624
0.0010866614
0.0011376305
0.0011924697
0.0012280304
0.0012471478
0.0011822439
0.0010257662
0.00081822701
0.00062370159
0.00047184159
0.00036383375
0.00028973846
0.00023818173
0.0002009799
0.00017202843
0.00014953492
0.00013215109
0.00011949755
0.00011213617
6.2992412e-12
1.979449e-10
1.6187021e-09
6.9619786e-09
2.1427434e-08
5.4084152e-08
1.1996889e-07
2.4322157e-07
4.6170713e-07
8.3375953e-07
1.4479264e-06
2.4368937e-06
3.9971158e-06
6.4159964e-06
1.0108603e-05
1.5665501e-05
2.3911694e-05
3.597269e-05
5.333561e-05
7.7878894e-05
0.00011182211
0.00015752046
0.00021700976
0.0002912259
0.00037892237
0.00047551387
0.0005723535
0.00065735894
0.00072440976
0.00077416241
0.00081063255
0.00083852232
0.00086101645
0.00087926634
0.00089319853
0.00090080446
0.00090354463
0.00090306886
0.00089450972
0.00087717757
0.00085132514
0.00081577741
0.00077024187
0.00072202923
0.00068315754
0.00065023573
0.00063226216
0.00062688734
0.00065614901
0.00072938232
0.00079999831
0.00084353839
0.00081073856
0.00070002512
0.00055664527
0.00043233489
0.00033873779
0.00027212634
0.00022505879
0.00019142987
0.00016574671
0.00014601599
0.00013054449
0.00011892337
0.00011201822
5.8287072e-12
1.8315903e-10
1.4977904e-09
6.4419454e-09
1.9826914e-08
5.0044504e-08
1.1100894e-07
2.2505934e-07
4.2723947e-07
7.7154595e-07
1.3399635e-06
2.2553914e-06
3.6998981e-06
5.9400623e-06
9.3613339e-06
1.4513063e-05
2.216451e-05
3.3368674e-05
4.95236e-05
7.2407673e-05
0.00010414493
0.0001470302
0.00020312304
0.00027353081
0.00035738807
0.00045073351
0.00054576004
0.00063126031
0.00069880224
0.00074839806
0.00078356865
0.00080883496
0.00082734808
0.00083786567
0.00084160516
0.00084088193
0.00083124505
0.00081289971
0.00078380343
0.00074223244
0.00068858775
0.00062303079
0.00054709375
0.00047177637
0.0004044566
0.0003455724
0.00030473469
0.00028918607
0.00029928543
0.00036809955
0.00050647553
0.00061115228
0.00062821291
0.00059472289
0.00049272605
0.00038889966
0.00030928779
0.00025203299
0.00021111852
0.00018177238
0.00015939018
0.00014228816
0.00012866355
0.000118139
0.0001117577
5.2643814e-12
1.6542589e-10
1.3527775e-09
5.8182525e-09
1.790735e-08
4.5199567e-08
1.0026272e-07
2.0327575e-07
3.8589772e-07
6.9692016e-07
1.2104489e-06
2.0376275e-06
3.3432292e-06
5.3687668e-06
8.4639793e-06
1.31284e-05
2.0063669e-05
3.023438e-05
4.4929091e-05
6.5801625e-05
9.4854117e-05
0.00013429837
0.0001862093
0.00025188739
0.00033091775
0.0004200905
0.00051261498
0.00059834167
0.00066651535
0.00071628091
0.00075043348
0.00077294802
0.00078465389
0.00078835026
0.00078633141
0.00077480603
0.00075254084
0.00071843547
0.00067142616
0.00061052752
0.00053694851
0.00045342429
0.00036450573
0.00028410054
0.00021637875
0.00016484604
0.00013617761
0.00012606947
0.00013138492
0.00016945159
0.00027219902
0.00045223796
0.00051863009
0.00051050845
0.00045518253
0.00036039279
0.00028649091
0.00023464832
0.00019835503
0.00017267914
0.00015323158
0.00013850664
0.00012659006
0.00011717002
0.00011136382
4.6318017e-12
1.4554797e-10
1.1902253e-09
5.1191225e-09
1.5755594e-08
3.9768509e-08
8.8216185e-08
1.7885534e-07
3.3954882e-07
6.1324794e-07
1.0652131e-06
1.7933785e-06
2.9430598e-06
4.7275189e-06
7.4561435e-06
1.1571971e-05
1.7699544e-05
2.6701867e-05
3.9740168e-05
5.8320477e-05
8.429463e-05
0.00011976011
0.00016677899
0.00022683062
0.0002999637
0.00038376669
0.00047253229
0.00055725921
0.00062733477
0.00067820403
0.00071203574
0.00073047445
0.00073730276
0.00073729325
0.00072794077
0.00070729294
0.00067414921
0.00062753428
0.00056714672
0.00049348788
0.00040940784
0.00032046462
0.00023406788
0.00016491857
0.00011309331
8.261728e-05
6.7638487e-05
6.2722223e-05
6.8205503e-05
9.0863724e-05
0.00015132372
0.00030897683
0.00043459076
0.00044534736
0.0004227961
0.00034489386
0.00027247591
0.00022234398
0.00018817308
0.00016478891
0.00014756154
0.00013484411
0.00012443448
0.00011608311
0.00011086668
3.9615775e-12
1.2448712e-10
1.0179994e-09
4.378384e-09
1.3475763e-08
3.4014114e-08
7.545216e-08
1.529794e-07
2.9043413e-07
5.2457346e-07
9.1127014e-07
1.5344256e-06
2.5186557e-06
4.0471069e-06
6.3860274e-06
9.9178027e-06
1.5183721e-05
2.2936125e-05
3.4195736e-05
5.0302095e-05
7.2931287e-05
0.00010403431
0.00014562501
0.00019933288
0.00026566666
0.00034305701
0.00042698523
0.0005097832
0.00058182713
0.00063468577
0.00066818238
0.0006844504
0.00068894756
0.00068507912
0.00066987561
0.00064222363
0.00060100347
0.00054574478
0.00047708358
0.00039720422
0.00031087455
0.00022569512
0.00015019375
9.6995223e-05
6.5361412e-05
4.9551194e-05
4.2857466e-05
4.1176022e-05
4.56032e-05
6.108135e-05
0.00010238248
0.00022322341
0.00036336361
0.00039648994
0.00038619395
0.00033204972
0.0002625506
0.00021355622
0.00018032487
0.00015823284
0.00014254776
0.00013143716
0.00012230943
0.00011494736
0.0001103029
3.2860323e-12
1.0325903e-10
8.4440556e-10
3.6317598e-09
1.1177804e-08
2.8213892e-08
6.2586166e-08
1.2689562e-07
2.4092134e-07
4.3516999e-07
7.5603425e-07
1.273229e-06
2.0904097e-06
3.3601566e-06
5.3047868e-06
8.2446281e-06
1.2635202e-05
1.9113733e-05
2.8552626e-05
4.2111623e-05
6.1269318e-05
8.7796924e-05
0.00012361377
0.00017044431
0.00022920676
0.00029914932
0.00037695357
0.00045630721
0.00052861839
0.00058533484
0.00062044096
0.00063671615
0.00064039863
0.00063382012
0.00061479675
0.00058259387
0.00053641299
0.00047634272
0.0004039799
0.00032302756
0.00023982889
0.00016282038
0.00010034069
6.3456335e-05
4.4668891e-05
3.6633769e-05
3.4231254e-05
3.4410718e-05
3.7997588e-05
4.9693531e-05
8.214685e-05
0.00018166079
0.00031676748
0.00036431131
0.00035864023
0.00031678857
0.00025255668
0.00020576128
0.00017368517
0.00015269058
0.00013818491
0.00012836054
0.00012030174
0.00011381962
0.00010969219
2.6366521e-12
8.2853133e-11
6.7753458e-10
2.9140461e-09
8.9688141e-09
2.2638177e-08
5.0217891e-08
1.018198e-07
1.9331838e-07
3.4920466e-07
6.067402e-07
1.0219589e-06
1.6782666e-06
2.6986382e-06
4.2626831e-06
6.6300831e-06
1.0171919e-05
1.5410853e-05
2.3069358e-05
3.4120998e-05
4.9831502e-05
7.1762076e-05
0.00010168641
0.00014135003
0.00019199382
0.00025361168
0.00032406657
0.0003984562
0.00046935619
0.00052845967
0.00056861593
0.00058784451
0.00059209449
0.00058437614
0.00056373349
0.00052968724
0.00048169201
0.00042032782
0.00034799487
0.00026946714
0.00019194149
0.00012367787
7.4010066e-05
4.7872669e-05
3.5903856e-05
3.1843959e-05
3.1428637e-05
3.250237e-05
3.5879201e-05
4.5873506e-05
7.4449848e-05
0.00016134325
0.00028583348
0.0003376823
0.00033521052
0.00029952432
0.00024069408
0.00019732681
0.0001673013
0.00014775916
0.0001343867
0.00012563743
0.00011846654
0.00011272347
0.00010906916
2.0411338e-12
6.4139769e-11
5.2450431e-10
2.25586e-09
6.9430301e-09
1.7524841e-08
3.8875042e-08
7.8822009e-08
1.4965708e-07
2.7034804e-07
4.6976566e-07
7.9135611e-07
1.299859e-06
2.0908836e-06
3.3044083e-06
5.1435228e-06
7.8998843e-06
1.1987181e-05
1.7982913e-05
2.6676151e-05
3.9113238e-05
5.662272e-05
8.0783518e-05
0.00011327765
0.00015555076
0.0002082181
0.00027025075
0.00033819706
0.00040597611
0.00046584511
0.00051062976
0.00053582845
0.00054382963
0.00053820611
0.00051841057
0.00048480703
0.00043756734
0.00037768767
0.00030803923
0.00023388574
0.00016269033
0.0001017886
6.1128155e-05
4.0824019e-05
3.2515213e-05
3.0097973e-05
3.1154081e-05
3.2869651e-05
3.6174522e-05
4.5244145e-05
7.2101442e-05
0.0001534272
0.00026909543
0.00031595999
0.00031373196
0.00027921399
0.00022649386
0.00018776865
0.00016078666
0.00014318668
0.0001310573
0.0001232495
0.00011680428
0.00011169012
0.00010845343
1.5206442e-12
4.7784086e-11
3.907544e-10
1.6806009e-09
5.1724776e-09
1.3055705e-08
2.8961034e-08
5.8720488e-08
1.1149184e-07
2.0141012e-07
3.4999824e-07
5.896653e-07
9.6875282e-07
1.558763e-06
2.4646216e-06
3.8390761e-06
5.9025566e-06
8.9698881e-06
1.3484856e-05
2.0062182e-05
2.9532949e-05
4.2982291e-05
6.1755259e-05
8.738718e-05
0.00012139221
0.00016483453
0.00021764901
0.0002778279
0.00034085972
0.00040003419
0.00044801322
0.00047940324
0.00049329218
0.00049168855
0.00047539317
0.00044549023
0.00040216796
0.00034659572
0.0002817156
0.00021284101
0.00014679017
9.3469204e-05
5.8563059e-05
4.0365398e-05
3.2496158e-05
3.1786107e-05
3.418884e-05
3.7383156e-05
4.1094315e-05
4.9361645e-05
7.3779141e-05
0.00015152148
0.00025764395
0.00029705476
0.00029319876
0.00025694938
0.00021095865
0.00017759926
0.00015426958
0.00013891809
0.00012811273
0.00012114374
0.00011529833
0.00011073962
0.0001078738
1.0877699e-12
3.4181605e-11
2.7951932e-10
1.2021804e-09
3.6999801e-09
9.3388924e-09
2.0715839e-08
4.2002203e-08
7.9748439e-08
1.4406656e-07
2.503581e-07
4.2182632e-07
6.9311044e-07
1.1155141e-06
1.7644774e-06
2.7501613e-06
4.2322539e-06
6.4403039e-06
9.7008697e-06
1.4472182e-05
2.1385171e-05
3.1285381e-05
4.5261765e-05
6.4633596e-05
9.084564e-05
0.00012520086
0.00016836214
0.00021962737
0.00027617874
0.00033278975
0.00038284015
0.00041997877
0.00044080189
0.0004451058
0.00043525294
0.00041057717
0.0003732888
0.0003242098
0.00026599158
0.00020346218
0.00014557196
9.5393842e-05
6.1594383e-05
4.3362285e-05
3.6012315e-05
3.7164389e-05
4.1760048e-05
4.5090587e-05
4.8037898e-05
5.6002285e-05
8.043457e-05
0.00016090474
0.00025190849
0.00027886992
0.0002714286
0.0002334378
0.00019528618
0.00016756937
0.0001480471
0.00013497943
0.0001254686
0.00011926264
0.00011393436
0.00010988731
0.00010731887
7.4587292e-13
2.3437966e-11
1.9166279e-10
8.243129e-10
2.5369736e-09
6.4032952e-09
1.4203652e-08
2.8797689e-08
5.4675924e-08
9.8770746e-08
1.7164246e-07
2.8920608e-07
4.7523498e-07
7.649759e-07
1.2103438e-06
1.8873411e-06
2.9065642e-06
4.427893e-06
6.6806335e-06
9.9903077e-06
1.4812549e-05
2.17724e-05
3.1702412e-05
4.5663401e-05
6.4915778e-05
9.0787626e-05
0.00012436768
0.00016596581
0.00021438489
0.00026628656
0.00031622671
0.00035772496
0.00038580932
0.00039802074
0.00039528559
0.00037982834
0.00034941497
0.00030851367
0.00025848834
0.00020413824
0.00014988558
0.00010408937
7.1533015e-05
5.2448083e-05
4.6669016e-05
4.8791344e-05
5.4180195e-05
5.4598107e-05
5.5351236e-05
6.307544e-05
8.964229e-05
0.0001769544
0.0002472272
0.00026103934
0.00024828846
0.00021047681
0.00018053195
0.0001581846
0.00014231816
0.00013135431
0.00012304509
0.00011760449
0.00011272716
0.00010910828
0.00010680402
4.8985674e-13
1.5393018e-11
1.2587515e-10
5.4136494e-10
1.6661208e-09
4.2051631e-09
9.3274814e-09
1.8910531e-08
3.5902235e-08
6.4853283e-08
1.1269593e-07
1.898788e-07
3.1201476e-07
5.0226649e-07
7.9478882e-07
1.239677e-06
1.9100427e-06
2.9120523e-06
4.3989925e-06
6.5905911e-06
9.7987174e-06
1.4459786e-05
2.1171865e-05
3.0729302e-05
4.4137673e-05
6.257546e-05
8.7247437e-05
0.00011905992
0.00015807271
0.0002028046
0.00024971662
0.00029339935
0.00032804848
0.00034908162
0.00035486144
0.00034885046
0.0003293229
0.00029679338
0.0002565346
0.00021021034
0.00016278983
0.00012153909
9.1530364e-05
7.1486272e-05
6.6316053e-05
6.8660885e-05
6.9338147e-05
6.2608473e-05
6.1787587e-05
7.104984e-05
0.00010500307
0.00019073687
0.00023868938
0.00024243226
0.00022278277
0.0001904575
0.00016745815
0.00014972112
0.00013706166
0.00012813657
0.00012100729
0.00011617511
0.00011164037
0.00010839984
0.00010632879
3.082611e-13
9.6866383e-12
7.9211381e-11
3.4066938e-10
1.0484326e-09
2.6460805e-09
5.8690197e-09
1.189818e-08
2.2587525e-08
4.0798543e-08
7.0889614e-08
1.1942926e-07
1.9623259e-07
3.1586387e-07
4.9981026e-07
7.7962015e-07
1.2014219e-06
1.8324034e-06
2.7700395e-06
4.1550801e-06
6.1894769e-06
9.1603345e-06
1.3470183e-05
1.9671524e-05
2.8498521e-05
4.0878816e-05
5.789247e-05
8.0624908e-05
0.00010984885
0.00014550062
0.00018603971
0.00022800637
0.00026636805
0.00029566838
0.00031202435
0.00031402442
0.00030711422
0.00028722333
0.00025513063
0.00021861505
0.00017954341
0.00014343655
0.00011677423
9.787539e-05
9.3816237e-05
9.2699974e-05
7.8932806e-05
6.5852054e-05
6.6193892e-05
7.9771722e-05
0.00012987665
0.00020058904
0.00022761484
0.0002228673
0.00019713597
0.00017283469
0.00015581154
0.00014294351
0.00013320243
0.00012560859
0.00011927886
0.00011489116
0.00011065451
0.00010774461
0.00010590714
1.8626877e-13
5.8532101e-12
4.7863769e-11
2.0584834e-10
6.3349718e-10
1.5987895e-09
3.5459405e-09
7.1881478e-09
1.3644825e-08
2.4643277e-08
4.2813636e-08
7.2118568e-08
1.1847762e-07
1.9067258e-07
3.0165854e-07
4.7046082e-07
7.2491724e-07
1.1056372e-06
1.6717011e-06
2.5088187e-06
3.7408786e-06
5.5459878e-06
8.1780229e-06
1.1994045e-05
1.7485798e-05
2.5308855e-05
3.6293332e-05
5.140587e-05
7.1614599e-05
9.7599601e-05
0.00012928098
0.00016525101
0.00020243063
0.00023630518
0.00026212493
0.00027629349
0.0002773004
0.00027077544
0.00025145874
0.0002241462
0.00019419856
0.00016560666
0.00014105586
0.00012777509
0.00012215858
0.00010686418
7.8886789e-05
6.8738431e-05
7.2121843e-05
9.2535091e-05
0.00015684265
0.00020387997
0.00021317972
0.00019911674
0.00017566982
0.00016093043
0.00014880152
0.0001383389
0.00013017698
0.00012344404
0.00011775229
0.00011370989
0.00010974161
0.00010714551
0.00010553351
1.0854288e-13
3.4107906e-12
2.7891121e-11
1.1995026e-10
3.6913714e-10
9.3157349e-10
2.066012e-09
4.1877975e-09
7.9486683e-09
1.4353955e-08
2.4933844e-08
4.1992685e-08
6.8970909e-08
1.1096941e-07
1.7550852e-07
2.7362615e-07
4.2146724e-07
6.4258532e-07
9.7127555e-07
1.457395e-06
2.1733026e-06
3.2237512e-06
4.7597228e-06
6.9971388e-06
1.0240731e-05
1.4911463e-05
2.1572048e-05
3.0937271e-05
4.3843999e-05
6.113507e-05
8.3413134e-05
0.00011064272
0.00014168818
0.00017401374
0.00020392469
0.00022752842
0.00024160873
0.00024283249
0.0002380204
0.00022188313
0.00020023975
0.00017918738
0.00015990801
0.00014881934
0.00013423513
0.0001014028
7.4345801e-05
7.1294698e-05
8.1102293e-05
0.00011762382
0.00017446299
0.00019889004
0.00019576244
0.00017865043
0.00016488052
0.00015320232
0.00014325906
0.0001346767
0.00012768604
0.00012153256
0.00011637434
0.00011259274
0.0001088918
0.0001065982
0.00010520835
6.1428663e-14
1.9302979e-12
1.5784589e-11
6.7883371e-11
2.0890036e-10
5.2717055e-10
1.1690738e-09
2.369524e-09
4.4970298e-09
8.1198217e-09
1.4102387e-08
2.374583e-08
3.8991331e-08
6.271446e-08
9.9150389e-08
1.5450809e-07
2.3785805e-07
3.6241716e-07
5.4741162e-07
8.2078221e-07
1.2231125e-06
1.813315e-06
2.6767859e-06
3.9368836e-06
5.7705412e-06
8.4282702e-06
1.2257179e-05
1.7721932e-05
2.5411855e-05
3.6015364e-05
5.0229673e-05
6.8567447e-05
9.1044454e-05
0.00011682054
0.00014398867
0.00016978149
0.00019150648
0.00020467391
0.00020855101
0.00020561722
0.00019484002
0.00017815375
0.00016510846
0.00015064081
0.00011801064
7.8924049e-05
7.0085068e-05
7.4987497e-05
9.4220656e-05
0.00014839523
0.0001810611
0.0001879719
0.00018036418
0.00016757309
0.00015645681
0.0001474846
0.00013919065
0.00013178541
0.00012551229
0.00011978346
0.00011510796
0.0001115097
0.00010810986
0.00010610554
0.00010491237
3.4155167e-14
1.0732709e-12
8.7764056e-12
3.7743497e-11
1.1614698e-10
2.9309176e-10
6.4993663e-10
1.3172201e-09
2.4996603e-09
4.5128126e-09
7.8365256e-09
1.3192559e-08
2.1656896e-08
3.4821858e-08
5.5029699e-08
8.5708995e-08
1.3185921e-07
2.0074962e-07
3.0292984e-07
4.5369472e-07
6.7521375e-07
9.9962951e-07
1.473556e-06
2.164552e-06
3.1702628e-06
4.630893e-06
6.7452884e-06
9.7893315e-06
1.4132192e-05
2.024052e-05
2.8652928e-05
3.9904481e-05
5.4379108e-05
7.2097559e-05
9.2457147e-05
0.00011409247
0.00013523685
0.00015339812
0.00016457547
0.00016861479
0.00016673741
0.00016012454
0.0001465586
0.00011520634
7.7296148e-05
6.736147e-05
7.0861449e-05
8.479017e-05
0.00012784646
0.00016436654
0.00018229832
0.00018021004
0.00017097045
0.00015999204
0.00015094823
0.00014323914
0.00013580578
0.00012930786
0.0001235041
0.00011815744
0.00011393099
0.00011045019
0.00010741329
0.00010563955
0.0001046044
1.9048302e-14
5.985619e-13
4.8945791e-12
2.1049282e-11
6.4773175e-11
1.6344732e-10
3.624318e-10
7.344931e-10
1.3937214e-09
2.5159216e-09
4.3683203e-09
7.3526387e-09
1.2067309e-08
1.9397057e-08
3.0641596e-08
4.7700217e-08
7.3336433e-08
1.1155756e-07
1.6816002e-07
2.5151486e-07
3.7370269e-07
5.5215903e-07
8.1206236e-07
1.1897916e-06
1.7378883e-06
2.5320582e-06
3.6806882e-06
5.3369453e-06
7.7124553e-06
1.1089063e-05
1.5820348e-05
2.2308578e-05
3.093822e-05
4.19535e-05
5.5305329e-05
7.0496496e-05
8.6602068e-05
0.00010218632
0.00011479512
0.00012162543
0.0001208253
0.00011405217
9.1965409e-05
6.815808e-05
6.1768424e-05
6.5683027e-05
7.9038783e-05
0.0001140154
0.00015171258
0.00017071261
0.00017467071
0.00017159915
0.00016221168
0.00015382775
0.0001462601
0.00013968609
0.00013291543
0.00012711156
0.00012158212
0.00011664894
0.00011283068
0.0001094211
0.00010680383
0.0001051528
0.00010428501
1.1072264e-14
3.4792789e-13
2.8450854e-12
1.2235344e-11
3.7650508e-11
9.5005299e-11
2.1066288e-10
4.2691156e-10
8.1004744e-10
1.4622118e-09
2.5386242e-09
4.2725461e-09
7.0112841e-09
1.1267923e-08
1.7795416e-08
2.7692387e-08
4.2554072e-08
6.46875e-08
9.7417694e-08
1.4552414e-07
2.1586373e-07
3.182619e-07
4.6678971e-07
6.8159418e-07
9.9151605e-07
1.4378064e-06
2.0792822e-06
2.9991446e-06
4.3134063e-06
6.1799417e-06
8.8051832e-06
1.2442465e-05
1.7372483e-05
2.3846144e-05
3.1989658e-05
4.1662676e-05
5.2384254e-05
6.3141751e-05
7.2860036e-05
7.6785611e-05
7.4171183e-05
6.3147533e-05
5.3040454e-05
5.3414744e-05
5.9537343e-05
7.6345539e-05
0.00010643916
0.00014000207
0.00016311662
0.00017197917
0.00017122441
0.00016472608
0.00015587389
0.00014910216
0.00014259321
0.00013663667
0.00013030993
0.00012505922
0.00011971739
0.0001152812
0.00011177748
0.0001084596
0.00010623534
0.00010459883
0.00010394782
7.1107453e-15
2.2344374e-13
1.8271562e-12
7.8577814e-12
2.4180193e-11
6.1016066e-11
1.3529899e-10
2.7419368e-10
5.2029022e-10
9.392113e-10
1.6306859e-09
2.7445837e-09
4.5040259e-09
7.2385521e-09
1.1431534e-08
1.7787724e-08
2.7329003e-08
4.152951e-08
6.2506066e-08
9.3285404e-08
1.3818001e-07
2.0331116e-07
2.9733942e-07
4.3248367e-07
6.2594378e-07
9.0187342e-07
1.2940727e-06
1.8495843e-06
2.6333031e-06
3.7329361e-06
5.2650502e-06
7.3757425e-06
1.0234246e-05
1.4009457e-05
1.8817512e-05
2.4634974e-05
3.1154248e-05
3.7579649e-05
4.2501459e-05
4.2470099e-05
3.9370778e-05
3.9398868e-05
4.2693321e-05
5.2794748e-05
7.5980205e-05
0.00010254246
0.00012841984
0.00015675072
0.00016743597
0.00016994057
0.0001673375
0.00015923733
0.00015171608
0.00014541679
0.00013940377
0.00013385576
0.00012792073
0.00012309717
0.00011794347
0.00011407185
0.00011072621
0.00010763182
0.0001056038
0.00010398193
0.00010375237
5.2658897e-15
1.6547238e-13
1.3531199e-12
5.8192739e-12
1.7907853e-11
4.5190888e-11
1.0021514e-10
2.0311332e-10
3.8546047e-10
6.9592495e-10
1.2084986e-09
2.0344183e-09
3.3393465e-09
5.3680129e-09
8.4793824e-09
1.3196589e-08
2.0277453e-08
3.0813486e-08
4.6368029e-08
6.916722e-08
1.0235991e-07
1.5037157e-07
2.1937723e-07
3.179275e-07
4.577693e-07
6.5489922e-07
9.3090592e-07
1.3146696e-06
1.8444901e-06
2.570622e-06
3.5576943e-06
4.8850072e-06
6.6413493e-06
8.9073724e-06
1.1715304e-05
1.4976511e-05
1.8383666e-05
2.1345699e-05
2.3139849e-05
2.5555997e-05
2.8366134e-05
3.5240532e-05
4.9423255e-05
7.4295191e-05
9.7280768e-05
0.00012084192
0.00015066842
0.00016469843
0.00016885498
0.00016799155
0.00016142161
0.00015334802
0.00014746496
0.00014206655
0.00013653077
0.00013124344
0.00012567889
0.0001211965
0.00011631255
0.00011299679
0.00010965406
0.00010699175
0.00010482
0.00010341018
0.0001036451
4.3807427e-15
1.3765826e-13
1.1256847e-12
4.8412642e-12
1.4898796e-11
3.759984e-11
8.3388657e-11
1.6902964e-10
3.2082534e-10
5.7933589e-10
1.0062581e-09
1.6943976e-09
2.7820506e-09
4.4736341e-09
7.0691134e-09
1.1005717e-08
1.6916627e-08
2.5712817e-08
3.8695887e-08
5.7711451e-08
8.5353911e-08
1.2523356e-07
1.8231453e-07
2.6332639e-07
3.7724254e-07
5.3580212e-07
7.5404519e-07
1.0507686e-06
1.4488926e-06
1.9758957e-06
2.6638985e-06
3.5479637e-06
4.6612524e-06
6.0244054e-06
7.6476343e-06
9.4824267e-06
1.1503625e-05
1.3833876e-05
1.7250422e-05
2.2751872e-05
3.1820214e-05
4.7140625e-05
6.7794723e-05
9.0212732e-05
0.00011536549
0.00014385017
0.00016192212
0.00016758646
0.00016778019
0.00016430791
0.00015563359
0.00014950109
0.00014407234
0.0001389955
0.00013380119
0.00012875758
0.00012357193
0.00011938216
0.00011486256
0.00011199383
0.00010861195
0.00010649588
0.0001039802
0.00010291843
0.00010337361
3.7823066e-15
1.1885342e-13
9.7191497e-13
4.1799947e-12
1.286407e-11
3.2466023e-11
7.2006557e-11
1.4596756e-10
2.7707494e-10
5.0038112e-10
8.6921719e-10
1.4638226e-09
2.4037887e-09
3.8658999e-09
6.1095523e-09
9.5126999e-09
1.462223e-08
2.222375e-08
3.3436824e-08
4.9842394e-08
7.3648793e-08
1.0790039e-07
1.5672691e-07
2.2561954e-07
3.2170151e-07
4.5393743e-07
6.3322329e-07
8.7228513e-07
1.1852956e-06
1.5876861e-06
2.0964251e-06
2.7303752e-06
3.5154722e-06
4.4961965e-06
5.7570442e-06
7.4501502e-06
9.8535324e-06
1.3435754e-05
1.9250316e-05
2.8237425e-05
4.2008279e-05
5.975877e-05
8.2242168e-05
0.00011142422
0.00013869737
0.00015998697
0.00016722307
0.00016847203
0.00016613108
0.00015824856
0.00015138633
0.00014601706
0.00014108839
0.00013624892
0.00013124851
0.00012641358
0.00012160212
0.00011769478
0.00011358739
0.00011101424
0.00010770014
0.00010601069
0.00010338299
0.00010230037
0.00010262434
3.1982646e-15
1.0050074e-13
8.2183666e-13
3.5345328e-12
1.0877592e-11
2.74524e-11
6.0886149e-11
1.2342298e-10
2.3427584e-10
4.2307581e-10
7.3489943e-10
1.2375537e-09
2.0320731e-09
3.2677561e-09
5.1635576e-09
8.0382885e-09
1.2352829e-08
1.8768409e-08
2.8225761e-08
4.2050321e-08
6.208797e-08
9.0873155e-08
1.3182529e-07
1.8945906e-07
2.6958052e-07
3.7942916e-07
5.2773788e-07
7.2474778e-07
9.8237923e-07
1.3152122e-06
1.7430725e-06
2.2981052e-06
3.0344825e-06
4.0462979e-06
5.50239e-06
7.675694e-06
1.0942702e-05
1.6242443e-05
2.4294399e-05
3.6687489e-05
5.3317434e-05
7.6175463e-05
0.00010681161
0.0001344696
0.00015732328
0.00016738383
0.00016906586
0.00016746831
0.00016122472
0.00015318938
0.00014756402
0.00014263541
0.00013809004
0.0001335526
0.0001287924
0.00012420797
0.00011977754
0.00011615864
0.00011245013
0.00011006641
0.00010696465
0.00010551145
0.00010294984
0.00010163998
0.00010195393
2.6510102e-15
8.3303986e-14
6.8120755e-13
2.929672e-12
9.0158438e-12
2.2752698e-11
5.0459346e-11
1.0227759e-10
1.9411685e-10
3.5050489e-10
6.0873974e-10
1.0249014e-09
1.6825077e-09
2.7049027e-09
4.2728729e-09
6.6495086e-09
1.0214971e-08
1.5514569e-08
2.3324284e-08
3.4738466e-08
5.1284425e-08
7.5067731e-08
1.0894956e-07
1.5675363e-07
2.2349733e-07
3.1564734e-07
4.414387e-07
6.114179e-07
8.3952483e-07
1.1456587e-06
1.5609009e-06
2.1370562e-06
2.9640712e-06
4.2029766e-06
6.1179499e-06
9.0888784e-06
1.3822703e-05
2.1182633e-05
3.2646607e-05
4.844166e-05
7.0919637e-05
0.00010090865
0.00012928709
0.00015383882
0.00016743651
0.00017023328
0.00016923265
0.00016476628
0.00015517196
0.00014930497
0.00014437579
0.00013991948
0.00013556699
0.00013110029
0.00012650477
0.00012217998
0.00011812336
0.00011477423
0.00011142586
0.00010918893
0.0001063641
0.00010505072
0.00010247129
0.00010138517
0.00010170534
2.2973368e-15
7.2190216e-14
5.9032102e-13
2.538736e-12
7.8124141e-12
1.9714289e-11
4.3716706e-11
8.859956e-11
1.6813059e-10
3.035266e-10
5.2703567e-10
8.8712127e-10
1.4559238e-09
2.3399417e-09
3.6952346e-09
5.7489282e-09
8.8294232e-09
1.3408491e-08
2.0159395e-08
3.0036289e-08
4.438142e-08
6.5068192e-08
9.4690397e-08
1.3681225e-07
1.9630449e-07
2.7981508e-07
3.9649261e-07
5.5922663e-07
7.8695622e-07
1.109157e-06
1.5747522e-06
2.2727117e-06
3.3532878e-06
5.0694372e-06
7.8201113e-06
1.2183501e-05
1.8995961e-05
2.9722541e-05
4.4850728e-05
6.6162556e-05
9.4989375e-05
0.00012402035
0.00015094188
0.00016759549
0.00017171451
0.00017102749
0.0001674
0.00015746119
0.00015132761
0.0001462328
0.00014160018
0.0001373009
0.00013310286
0.00012875558
0.0001243674
0.00012033505
0.00011663963
0.00011352518
0.00011051094
0.00010839323
0.00010583481
0.00010460477
0.00010214648
0.00010126285
0.00010163024
2.305326e-15
7.2441186e-14
5.9237019e-13
2.5475116e-12
7.8391987e-12
1.9781023e-11
4.3862115e-11
8.8887732e-11
1.6866278e-10
3.044574e-10
5.2859558e-10
8.8964979e-10
1.4599231e-09
2.3461751e-09
3.7049273e-09
5.7642074e-09
8.8543032e-09
1.3451085e-08
2.0236812e-08
3.0185273e-08
4.4681015e-08
6.5686993e-08
9.5983117e-08
1.3951247e-07
2.0190593e-07
2.9132002e-07
4.1986488e-07
6.0615456e-07
8.8044019e-07
1.294361e-06
1.9334089e-06
2.9359752e-06
4.5395133e-06
7.1288013e-06
1.1273838e-05
1.7759445e-05
2.7806285e-05
4.2215417e-05
6.2380416e-05
8.9509643e-05
0.0001192193
0.00014753761
0.0001675463
0.00017343354
0.00017304186
0.00017014332
0.00016089632
0.00015400483
0.00014829809
0.00014323663
0.00013875401
0.00013469313
0.00013068751
0.00012651613
0.00012239565
0.00011867909
0.0001153073
0.00011240043
0.00010969411
0.00010766069
0.00010533645
0.00010422422
0.00010202257
0.00010127455
0.00010186881
2.7602723e-15
8.6737096e-14
7.0926912e-13
3.0502117e-12
9.3859466e-12
2.3683406e-11
5.2513463e-11
1.0641577e-10
2.0191333e-10
3.6446362e-10
6.3275578e-10
1.0649368e-09
1.7475929e-09
2.8086579e-09
4.4359066e-09
6.903389e-09
1.0609164e-08
1.6129176e-08
2.4294334e-08
3.6301372e-08
5.387572e-08
7.9520242e-08
1.168849e-07
1.7135335e-07
2.5100002e-07
3.682067e-07
5.4246383e-07
8.0528078e-07
1.2074919e-06
1.8308217e-06
2.811149e-06
4.3718485e-06
6.8707328e-06
1.0834177e-05
1.707264e-05
2.655614e-05
4.0173187e-05
5.9277968e-05
8.4785848e-05
0.00011431264
0.00014382397
0.00016661975
0.00017497959
0.00017534277
0.00017300563
0.00016492105
0.00015663532
0.00015019964
0.00014486226
0.00014038807
0.00013640023
0.00013257491
0.00012861923
0.00012452361
0.00012064043
0.00011721313
0.00011410655
0.00011139812
0.00010894407
0.00010698019
0.00010490435
0.00010390025
0.00010199649
0.00010164452
0.00010296827
3.8521602e-15
1.2104792e-13
9.8983678e-13
4.2567948e-12
1.30988e-11
3.3052117e-11
7.3287412e-11
1.4851547e-10
2.8180137e-10
5.0868978e-10
8.8321817e-10
1.486643e-09
2.4400567e-09
3.9225816e-09
6.197562e-09
9.6502585e-09
1.4842231e-08
2.2591774e-08
3.4090158e-08
5.1074858e-08
7.60891e-08
1.1287308e-07
1.6698606e-07
2.4679786e-07
3.6511127e-07
5.4186093e-07
8.084294e-07
1.2149073e-06
1.842674e-06
2.824372e-06
4.3724215e-06
6.8215853e-06
1.0677903e-05
1.6670796e-05
2.56799e-05
3.8601666e-05
5.6696968e-05
8.0815818e-05
0.0001096787
0.00013957777
0.00016459715
0.00017602775
0.00017771908
0.00017588507
0.00016910972
0.00015928959
0.00015249445
0.00014708819
0.00014244168
0.00013816416
0.00013416775
0.00013038381
0.00012654799
0.00012265212
0.00011905944
0.00011590022
0.00011301731
0.00011050071
0.00010823648
0.00010637364
0.00010456018
0.00010354695
0.00010203476
0.0001019873
0.00010378598
5.7635554e-15
1.8111049e-13
1.4809846e-12
6.3690041e-12
1.9598558e-11
4.945365e-11
1.0965756e-10
2.2222666e-10
4.2168684e-10
7.6125894e-10
1.3218852e-09
2.2253483e-09
3.6532835e-09
5.8746801e-09
9.2856485e-09
1.4466998e-08
2.2268998e-08
3.3933026e-08
5.1273096e-08
7.6946488e-08
1.1486449e-07
1.7082772e-07
2.5352943e-07
3.7615089e-07
5.5894584e-07
8.3355562e-07
1.2502429e-06
1.8894867e-06
2.8799602e-06
4.4261676e-06
6.8420206e-06
1.0600654e-05
1.6373685e-05
2.4968033e-05