/*--------------------------------*- C++ -*----------------------------------*\
  =========                 |
  \\      /  F ield         | OpenFOAM: The Open Source CFD Toolbox
   \\    /   O peration     | Website:  https://openfoam.org
    \\  /    A nd           | Version:  13
     \\/     M anipulation  |
\*---------------------------------------------------------------------------*/
FoamFile
{
    format      ascii;
    class       surfaceScalarField;
    location    "49.797784";
    object      phi;
}
// * * * * * * * * * * * * * * * * * * * * * * * * * * * * * * * * * * * * * //

dimensions      [0 3 -1 0 0 0 0];

internalField   nonuniform List<scalar> 
34068
(
-1.0865815e-08
1.0838089e-07
-9.7515079e-08
-4.8364424e-08
3.7514062e-07
-3.3764201e-07
-1.214008e-07
7.3203037e-07
-6.58994e-07
-2.4121667e-07
1.2022662e-06
-1.0824503e-06
-4.2194351e-07
1.8143411e-06
-1.6336143e-06
-6.8127149e-07
2.6031295e-06
-2.3438015e-06
-1.0412644e-06
3.6111771e-06
-3.2511842e-06
-1.5293368e-06
4.8902176e-06
-4.4021452e-06
-2.1794311e-06
6.5029446e-06
-5.8528502e-06
-3.0334253e-06
8.5250712e-06
-7.671077e-06
-4.1427988e-06
1.1047688e-05
-9.9383146e-06
-5.5705986e-06
1.4179959e-05
-1.2752159e-05
-7.3937384e-06
1.8052138e-05
-1.6228998e-05
-9.7056456e-06
2.2818905e-05
-2.0506998e-05
-1.2619303e-05
2.8662967e-05
-2.5749309e-05
-1.6270641e-05
3.57988e-05
-3.2147462e-05
-2.0822296e-05
4.4476374e-05
-3.992472e-05
-2.6467618e-05
5.4984533e-05
-4.933921e-05
-3.343483e-05
6.7653526e-05
-6.0686313e-05
-4.1991056e-05
8.2856043e-05
-7.4299817e-05
-5.2445896e-05
0.00010100564
-9.0550796e-05
-6.5154039e-05
0.00012255123
-0.00010984308
-8.0516065e-05
0.00014796574
-0.00013260371
-9.897654e-05
0.00017772687
-0.0001592664
-0.00012101793
0.00021228777
-0.00019024638
-0.00014714869
0.00025203637
-0.00022590561
-0.00017788383
0.00029724528
-0.00026651013
-0.00021371654
0.00034802046
-0.00031218776
-0.00025508183
0.0004042708
-0.00036290552
-0.00030231828
0.00046573948
-0.00041850303
-0.00035564276
0.00053215171
-0.00047882722
-0.00041516104
0.00060349957
-0.00054398129
-0.00048092936
0.00068036891
-0.00061460059
-0.00055305071
0.00076410244
-0.00069198109
-0.00063175961
0.00085669573
-0.00077798683
-0.00071746259
0.0009605889
-0.00087488591
-0.00081074288
0.0010785926
-0.00098531235
-0.00091235761
0.0012140254
-0.0011124106
-0.0010232488
0.0013710194
-0.0012601282
-0.0011445801
0.0015549599
-0.0014336286
-0.0012778074
0.0017730679
-0.0016398406
-0.0014247914
0.0020351825
-0.0018881985
-0.0015879617
0.0023547767
-0.0021916065
-0.0017705324
0.0027499451
-0.0025673744
-0.0019767894
0.0032446149
-0.0030383579
-0.0022124727
0.0038705117
-0.0036348284
-0.0024852832
0.0046690017
-0.0043961912
-0.0028055521
0.0056924818
-0.0053722129
-0.0031872854
0.0070056021
-0.0066238687
-0.0036497864
0.0086836584
-0.0082211574
-0.0042200651
0.010802918
-0.010232639
-0.0049354946
0.01340976
-0.01269433
-0.0058465244
0.016449773
-0.015538743
-0.0070165521
0.019625006
-0.018454978
-0.0085170539
0.022124833
-0.020624331
-0.010379565
0.022021187
-0.020158676
-0.012311617
0.015214581
-0.013282528
-0.012619837
-0.0069869414
0.0072951615
-0.0085903253
-0.052089862
0.04806035
-0.0015865978
-0.10427913
0.097275406
0.0037796869
-0.13789008
0.13252379
0.0088073595
-0.14544697
0.1404193
0.021828007
-0.099026744
0.086006096
0.043366571
0.021528375
-0.043066939
0.1423396
0.063082925
-0.16205595
-1.0242124e-08
1.1862302e-07
-4.5591823e-08
4.1049032e-07
-1.1445029e-07
8.0088884e-07
-2.2742721e-07
1.3152431e-06
-3.9786095e-07
1.9847748e-06
-6.4245424e-07
2.8477227e-06
-9.8204349e-07
3.9507663e-06
-1.442528e-06
5.3507021e-06
-2.0559911e-06
7.1164078e-06
-2.8620366e-06
9.3311166e-06
-3.9093875e-06
1.2095039e-05
-5.2577616e-06
1.5528333e-05
-6.9800916e-06
1.9774468e-05
-9.1650776e-06
2.5003891e-05
-1.1920137e-05
3.1418027e-05
-1.537474e-05
3.9253403e-05
-1.9684096e-05
4.878573e-05
-2.5033148e-05
6.0333585e-05
-3.1640783e-05
7.426116e-05
-3.9763971e-05
9.0979231e-05
-4.9701588e-05
0.00011094325
-6.1797338e-05
0.00013464698
-7.6441138e-05
0.00016260954
-9.4067836e-05
0.00019535357
-0.00011515196
0.00023337189
-0.0001401967
0.00027708112
-0.00016971525
0.00032676383
-0.00020420275
0.00038250796
-0.00024409914
0.00044416719
-0.00028974795
0.00051138829
-0.0003413648
0.00058376856
-0.00039903886
0.00066117362
-0.00046278617
0.00074411622
-0.00053264386
0.00083396013
-0.00060875896
0.00093281083
-0.00069143305
0.001043263
-0.00078112432
0.0011682839
-0.00087843552
0.0013113366
-0.00098411021
0.0014766941
-0.0010990501
0.0016698998
-0.0012243595
0.0018983773
-0.0013614219
0.002172245
-0.0015120161
0.0025053709
-0.0016784786
0.0029164075
-0.001863918
0.0034300543
-0.002072485
0.0040790787
-0.0023097503
0.004906267
-0.0025832262
0.0059659577
-0.0029032912
0.0073256671
-0.0032847488
0.009065116
-0.0037492393
0.011267409
-0.0043280451
0.013988565
-0.0050658144
0.017187542
-0.0060199709
0.020579163
-0.0072638374
0.023368699
-0.0088423126
0.023599662
-0.010426303
0.016798572
-0.0099602555
-0.0074529891
-0.0046488774
-0.05740124
0.0028486593
-0.11177667
0.0071605015
-0.14220192
0.009629022
-0.1479155
0.018336349
-0.10773407
0.03811487
0.0017498538
0.12066001
0.05979446
-9.4418755e-09
1.2806489e-07
-4.2037331e-08
4.4308577e-07
-1.0554318e-07
8.6439469e-07
-2.0975803e-07
1.4194579e-06
-3.6700479e-07
2.1420216e-06
-5.9272112e-07
3.0734391e-06
-9.061719e-07
4.2642171e-06
-1.3313213e-06
5.7758515e-06
-1.8978709e-06
7.6829574e-06
-2.6425209e-06
1.0075767e-05
-3.6104617e-06
1.306298e-05
-4.8571593e-06
1.6775031e-05
-6.4504409e-06
2.1367749e-05
-8.4729531e-06
2.7026404e-05
-1.1024978e-05
3.3970051e-05
-1.4227663e-05
4.2456088e-05
-1.8226635e-05
5.2784703e-05
-2.3195971e-05
6.530292e-05
-2.9342398e-05
8.0407587e-05
-3.6909604e-05
9.8546437e-05
-4.6182289e-05
0.00012021594
-5.7489541e-05
0.00014595423
-7.1206836e-05
0.00017632683
-8.7755613e-05
0.00021190235
-0.00010759915
0.00025321543
-0.00013123281
0.00030071477
-0.00015916659
0.0003546976
-0.00019189793
0.00041523931
-0.00022987422
0.00048214347
-0.00027344836
0.00055496243
-0.00032283995
0.00063316015
-0.00037812483
0.00071645851
-0.00043927686
0.00080526825
-0.00050625786
0.00090094112
-0.00057911157
0.0010056645
-0.00065801401
0.0011221654
-0.00074327439
0.0012535443
-0.00083531245
0.0014033746
-0.00093463801
0.0015760196
-0.0010418449
0.0017771067
-0.0011576242
0.0020141566
-0.0012827971
0.0022974179
-0.0014183716
0.0026409455
-0.0015656369
0.0030636728
-0.0017262767
0.0035906942
-0.0019024893
0.0042552913
-0.0020971682
0.0051009459
-0.0023141671
0.0061829566
-0.0025589584
0.0075704583
-0.0028398763
0.0093460339
-0.0031700194
0.011597552
-0.0035692833
0.014387829
-0.0040684333
0.017686692
-0.0046999926
0.021210722
-0.005519804
0.024188511
-0.0065448364
0.024624695
-0.0073617858
0.017615521
-0.0054302373
-0.0093845376
0.0015127196
-0.064344197
0.0093677332
-0.11963168
0.012859905
-0.14569409
0.012812337
-0.14786793
0.017363719
-0.11228545
0.034618288
-0.015504714
0.098074379
0.057203921
-8.4681863e-09
1.3653308e-07
-3.7713507e-08
4.7233109e-07
-9.4709479e-08
9.2139066e-07
-1.8826898e-07
1.5130174e-06
-3.294812e-07
2.2832338e-06
-5.3224416e-07
3.276202e-06
-8.139189e-07
4.5458918e-06
-1.1961134e-06
6.158046e-06
-1.7056438e-06
8.1924877e-06
-2.3756789e-06
1.0745802e-05
-3.2471268e-06
1.3934428e-05
-4.3702776e-06
1.7898181e-05
-5.8067616e-06
2.2804233e-05
-7.6318434e-06
2.8851485e-05
-9.9371026e-06
3.6275311e-05
-1.2833519e-05
4.5352504e-05
-1.6454976e-05
5.6406161e-05
-2.0962167e-05
6.9810111e-05
-2.6546815e-05
8.5992236e-05
-3.343608e-05
0.0001054357
-4.1896924e-05
0.00012867678
-5.2239964e-05
0.00015629727
-6.4822191e-05
0.00018890906
-8.004765e-05
0.00022712781
-9.8364602e-05
0.00027153238
-0.0001202575
0.00032260767
-0.00014623122
0.00038067132
-0.00017678532
0.00044579341
-0.00021237659
0.00051773474
-0.00025337169
0.00059595753
-0.00029999987
0.00067978833
-0.00035232824
0.00076878688
-0.00041028808
0.00086322809
-0.00047375794
0.00096441098
-0.00054266268
0.0010745693
-0.00061703208
0.0011965348
-0.00069700181
0.001333514
-0.0007827803
0.0014891531
-0.0008746089
0.0016678482
-0.00097272885
0.0018752266
-0.001077358
0.0021187857
-0.0011886727
0.0024087327
-0.0013067956
0.0027590684
-0.0014318035
0.0031886807
-0.001563714
0.0037226047
-0.0017024206
0.0043939979
-0.0018476085
0.0052461338
-0.001998663
0.0063340112
-0.0021549688
0.0077267641
-0.0023166574
0.0095077225
-0.0024851792
0.011766074
-0.0026628561
0.014565506
-0.0028542482
0.017878084
-0.0030483782
0.021404852
-0.0032543096
0.024394442
-0.0033931953
0.02476358
-0.0029076991
0.017130025
0.0010507069
-0.013342944
0.0092551566
-0.072548647
0.017470178
-0.1278467
0.020555577
-0.14877949
0.018380503
-0.14569285
0.019438011
-0.11334296
0.033308308
-0.029375012
0.075832146
0.05555054
-7.3329784e-09
1.4386606e-07
-3.2669943e-08
4.9766805e-07
-8.2068682e-08
9.7078939e-07
-1.6319022e-07
1.594139e-06
-2.8568138e-07
2.405725e-06
-4.6164627e-07
3.4521669e-06
-7.0621676e-07
4.7904623e-06
-1.0382569e-06
6.4900862e-06
-1.4812052e-06
8.6354361e-06
-2.0641132e-06
1.132871e-05
-2.8228778e-06
1.4693192e-05
-3.801745e-06
1.8877048e-05
-5.0550792e-06
2.4057567e-05
-6.6494975e-06
3.0445904e-05
-8.6663552e-06
3.8292168e-05
-1.1204667e-05
4.7890815e-05
-1.4384448e-05
5.9585941e-05
-1.8350523e-05
7.3776186e-05
-2.3276738e-05
9.0918451e-05
-2.9370481e-05
0.00011152945
-3.6877304e-05
0.0001361836
-4.6085324e-05
0.00016550529
-5.732877e-05
0.0002001525
-7.0989871e-05
0.00024078891
-8.749765e-05
0.00028804016
-0.00010732188
0.0003424319
-0.00013095964
0.00040430908
-0.0001589116
0.00047374537
-0.00019164524
0.00055046839
-0.0002295449
0.00063385719
-0.00027285566
0.00072309909
-0.00032164199
0.00081757321
-0.00037579458
0.00091738068
-0.00043510273
0.0010237191
-0.00049935789
0.0011388245
-0.00056842289
0.0012655998
-0.00064223549
0.0014073266
-0.00072076496
0.0015676826
-0.00080395093
0.0017510342
-0.00089164004
0.0019629157
-0.00098352109
0.0022106667
-0.00107905
0.0025042616
-0.0011773582
0.0028573766
-0.0012771581
0.0032884806
-0.0013765823
0.0038220288
-0.0014729003
0.004490316
-0.0015621172
0.0053353506
-0.0016384666
0.0064103606
-0.0016944302
0.0077827277
-0.0017212425
0.0095345348
-0.0017065496
0.011751381
-0.0016270073
0.014485964
-0.0014475791
0.017698656
-0.0011044689
0.021061742
-0.00049218046
0.023782154
0.00056702575
0.023704374
0.0029839832
0.014713068
0.0090712761
-0.019430236
0.018000719
-0.081478089
0.026309403
-0.13615539
0.029446415
-0.1519165
0.026075477
-0.14232192
0.024184645
-0.11145213
0.034361368
-0.039551735
0.054855126
0.055338389
-6.0505835e-09
1.4991664e-07
-2.6970515e-08
5.1858799e-07
-6.7781274e-08
1.0116002e-06
-1.348398e-07
1.6611975e-06
-2.3616248e-07
2.5070477e-06
-3.8182041e-07
3.5978248e-06
-5.8442879e-07
4.9930707e-06
-8.5973926e-07
6.7653966e-06
-1.2273763e-06
9.0030731e-06
-1.711723e-06
1.1813056e-05
-2.343004e-06
1.5324473e-05
-3.1586008e-06
1.9692645e-05
-4.2046439e-06
2.510361e-05
-5.5379122e-06
3.1779172e-05
-7.2281146e-06
3.9982371e-05
-9.3605857e-06
5.0023286e-05
-1.2039455e-05
6.226481e-05
-1.5391296e-05
7.7128027e-05
-1.9569284e-05
9.5096438e-05
-2.4757798e-05
0.00011671796
-3.11773e-05
0.00014260311
-3.9089282e-05
0.00017341727
-4.8800714e-05
0.00020986394
-6.0667215e-05
0.00025265541
-7.509377e-05
0.00030246672
-9.2530993e-05
0.00035986912
-0.00011346453
0.00042524261
-0.00013839397
0.00049867481
-0.00016779772
0.00057987214
-0.00020208111
0.00066814058
-0.00024151132
0.00076252929
-0.00028615789
0.00086221979
-0.00033587583
0.00096709862
-0.00039036214
0.0010782054
-0.0004492621
0.0011977244
-0.00051225158
0.0013285893
-0.00057904644
0.0014741215
-0.00064935004
0.0016379862
-0.00072276954
0.0018244537
-0.00079871901
0.0020388652
-0.0008763091
0.0022882568
-0.00095420944
0.002582162
-0.0010304705
0.0029336376
-0.0011023093
0.0033603194
-0.0011657894
0.0038855089
-0.001215299
0.0045398256
-0.0012427935
0.0053628451
-0.001236928
0.0064044951
-0.0011831103
0.00772891
-0.0010631952
0.0094146197
-0.00084501408
0.0115332
-0.00047209168
0.014113042
0.00013646325
0.017090101
0.0011090015
0.020089203
0.0027114485
0.022179707
0.0052866433
0.021129179
0.0098890821
0.010110629
0.017977518
-0.027518672
0.027523366
-0.091023938
0.035269154
-0.14390118
0.038567417
-0.15521476
0.035258188
-0.13901269
0.031270469
-0.10746441
0.038128457
-0.046409723
0.035454784
0.057528799
-4.6427192e-09
1.5455936e-07
-2.0711909e-08
5.3465717e-07
-5.2088501e-08
1.0429767e-06
-1.0369524e-07
1.7128042e-06
-1.817531e-07
2.5851055e-06
-2.9409896e-07
3.7101707e-06
-4.5057515e-07
5.1495469e-06
-6.635138e-07
6.9783353e-06
-9.4833403e-07
9.2878934e-06
-1.3242777e-06
1.2189e-05
-1.8153149e-06
1.5815511e-05
-2.4512624e-06
2.0328593e-05
-3.2691336e-06
2.5921481e-05
-4.3148183e-06
3.2824857e-05
-5.6450966e-06
4.1312649e-05
-7.330082e-06
5.1708272e-05
-9.4561515e-06
6.439088e-05
-1.2129409e-05
7.9801284e-05
-1.5479709e-05
9.8446738e-05
-1.9665296e-05
0.00012090355
-2.487794e-05
0.00014781575
-3.1348327e-05
0.00017988766
-3.9351474e-05
0.00021786708
-4.9211324e-05
0.00026251526
-6.1303395e-05
0.00031455879
-7.6053857e-05
0.00037461959
-9.3932085e-05
0.00044312084
-0.00011543315
0.00052017587
-0.00014104507
0.00060548407
-0.0001711962
0.00069829171
-0.00020618202
0.00079751511
-0.0002460864
0.00090212417
-0.00029073687
0.0010117491
-0.00033973894
0.0011272075
-0.0003925818
0.0012505673
-0.00044873587
0.0013847434
-0.00050767208
0.0015330577
-0.00056880268
0.0016991168
-0.00063137485
0.0018870259
-0.00069433784
0.0021018282
-0.00075618383
0.0023501028
-0.00081474406
0.0026407222
-0.00086691747
0.002985811
-0.00090832691
0.0034017288
-0.0009328306
0.0039100126
-0.0009317574
0.0045387524
-0.0008927702
0.0053238579
-0.00079885462
0.0063105796
-0.00062875813
0.0075588135
-0.00035047885
0.0091363404
9.5510063e-05
0.011087211
0.00079939169
0.01340916
0.0018955289
0.015993964
0.0036035699
0.018381162
0.0063007917
0.019482485
0.01045574
0.016974231
0.017195703
0.0033706658
0.027184312
-0.037507281
0.037467556
-0.10130718
0.044099618
-0.15053324
0.047014176
-0.15812932
0.044683545
-0.13668206
0.040331394
-0.10311226
0.04499552
-0.051073849
0.017353991
0.063096313
-3.136934e-09
1.5769629e-07
-1.4014629e-08
5.4553487e-07
-3.5291075e-08
1.0642532e-06
-7.0350676e-08
1.7478638e-06
-1.2349028e-07
2.6382451e-06
-2.0014819e-07
3.7868286e-06
-3.0719239e-07
5.2565911e-06
-4.5328507e-07
7.1244279e-06
-6.4933096e-07
9.4839392e-06
-9.0904903e-07
1.2448718e-05
-1.2496842e-06
1.6156146e-05
-1.6928941e-06
2.0771803e-05
-2.2658746e-06
2.6494462e-05
-3.0027386e-06
3.3561721e-05
-3.9462635e-06
4.2256174e-05
-5.1500195e-06
5.2912028e-05
-6.6810069e-06
6.5921867e-05
-8.622874e-06
8.1743152e-05
-1.1079785e-05
0.00010090365
-1.4180969e-05
0.00012400473
-1.8086015e-05
0.0001517208
-2.2990765e-05
0.00018479241
-2.9133556e-05
0.00022400987
-3.6801219e-05
0.00027018292
-4.6333959e-05
0.00032409153
-5.8127215e-05
0.00038641284
-7.2628056e-05
0.00045762168
-9.0321783e-05
0.0005378696
-0.0001117029
0.00062686518
-0.00013722304
0.00072381186
-0.00016721128
0.00082750334
-0.0002017765
0.0009366894
-0.00024073052
0.0010507031
-0.0002835926
0.0011700696
-0.00032968983
0.0012966645
-0.00037827171
0.0014333252
-0.00042854273
0.0015833287
-0.00047960105
0.0017501751
-0.00053031021
0.001937735
-0.00057912938
0.0021506473
-0.00062390279
0.0023948762
-0.00066158726
0.0026784066
-0.00068788379
0.0030121076
-0.00069675965
0.0034106047
-0.00067979048
0.0038930434
-0.00062514693
0.0044841088
-0.00051618114
0.0052148922
-0.00033027017
0.0061246686
-3.8384296e-05
0.0072669277
0.00041133255
0.0086866236
0.0011047751
0.010393768
0.0021683986
0.012345536
0.0038029605
0.014359402
0.0063311932
0.01585293
0.010157773
0.015655905
0.0157879
0.011344104
0.024613109
-0.005454543
0.036494078
-0.04938825
0.04731111
-0.11212421
0.052551834
-0.15577396
0.054139561
-0.15971705
0.053143731
-0.13568623
0.050665576
-0.1006341
0.054762682
-0.055170955
-4.932945e-06
0.072121606
-1.5669901e-09
1.5926328e-07
-7.0302034e-09
5.5099808e-07
-1.7769143e-08
1.0749921e-06
-3.5560793e-08
1.7656555e-06
-6.2688667e-08
2.665373e-06
-1.020826e-07
3.8262225e-06
-1.5750161e-07
5.3120101e-06
-2.337627e-07
7.200689e-06
-3.370452e-07
9.5872217e-06
-4.7527724e-07
1.258695e-05
-6.5864169e-07
1.633951e-05
-9.0022918e-07
2.101339e-05
-1.2168901e-06
2.6811123e-05
-1.6303119e-06
3.3975143e-05
-2.1684385e-06
4.2794301e-05
-2.8672661e-06
5.3610855e-05
-3.7731402e-06
6.6827741e-05
-4.9456244e-06
8.2915636e-05
-6.4611363e-06
0.00010241916
-8.417366e-06
0.00012596096
-1.0938587e-05
0.00015424202
-1.4181945e-05
0.00018803577
-1.8344435e-05
0.00022817236
-2.3670312e-05
0.0002755088
-3.0458041e-05
0.00033087926
-3.9065311e-05
0.00039502011
-4.9909441e-05
0.00046846581
-6.3458842e-05
0.000551419
-8.020881e-05
0.00064361515
-0.00010063197
0.00074423502
-0.00012509435
0.00085196571
-0.00015374128
0.00096533633
-0.0001863848
0.0010833466
-0.00022246823
0.001206153
-0.00026115336
0.0013353496
-0.0003014612
0.0014736331
-0.00034231029
0.0016241778
-0.00038246357
0.0017903284
-0.00042038184
0.0019756533
-0.00045401651
0.002184282
-0.00048054669
0.0024214064
-0.00049603682
0.0026938968
-0.00049497018
0.0030110409
-0.00046963641
0.0033852709
-0.00040930956
0.0038327166
-0.00029896693
0.0043737662
-0.00011782075
0.005033746
0.00016235474
0.0058444931
0.00058164014
0.0068476423
0.0012133561
0.0080549076
0.0021680457
0.0094390785
0.0036151277
0.010898454
0.005834089
0.01214044
0.0092184552
0.012468564
0.014105834
0.010768527
0.021115783
0.0043341546
0.032066986
-0.016405746
0.04586131
-0.063182574
0.056520206
-0.12278311
0.060009047
-0.1592628
0.05987997
-0.15958797
0.060052893
-0.13585915
0.061026468
-0.10160768
0.066755878
-0.060900365
-0.017458249
0.084209195
2.7751071e-11
1.5923553e-07
6.7320019e-11
5.5095851e-07
4.225682e-11
1.0750172e-06
-1.8547186e-10
1.7658832e-06
-8.4825793e-10
2.6660358e-06
-2.3193453e-09
3.8276936e-06
-5.1842343e-09
5.314875e-06
-1.0337814e-08
7.2058426e-06
-1.9132384e-08
9.5960163e-06
-3.3574665e-08
1.2601392e-05
-5.662453e-08
1.636256e-05
-9.2585851e-08
2.1049351e-05
-1.4767309e-07
2.686621e-05
-2.307799e-07
3.4058249e-05
-3.545271e-07
4.2918048e-05
-5.3668197e-07
5.379301e-05
-8.0203986e-07
6.7093099e-05
-1.1849464e-06
8.3298542e-05
-1.7325315e-06
0.00010296675
-2.5089029e-06
0.00012673733
-3.6004029e-06
0.00015533352
-5.122033e-06
0.0001895574
-7.2250964e-06
0.00023027543
-1.0105792e-05
0.00027838949
-1.4014229e-05
0.00033478769
-1.9262448e-05
0.00040026833
-2.6229152e-05
0.00047543252
-3.535653e-05
0.00056054638
-4.7131846e-05
0.00065539047
-6.2042554e-05
0.00075914573
-8.049157e-05
0.00087041473
-0.00010267659
0.00098752135
-0.00012843239
0.0011091024
-0.00015712296
0.0012348436
-0.00018776271
0.0013659894
-0.00021914322
0.0015050136
-0.00024987951
0.0016549141
-0.00027838071
0.0018188296
-0.00030269013
0.0019999627
-0.00032024163
0.0022018335
-0.00032754495
0.0024287097
-0.00031977288
0.0026861247
-0.00029019889
0.0029814669
-0.00022945137
0.0033245234
-0.00012451462
0.0037277798
4.280165e-05
0.0042064499
0.00029734063
0.004779207
0.00067294575
0.005468888
0.0012245384
0.0062960496
0.002044604
0.007234842
0.0032718712
0.0082118114
0.0051285588
0.0090417668
0.0079694245
0.0092995746
0.012172889
0.0082650987
0.017985526
0.0049558897
0.026539116
-0.0042194352
0.039917009
-0.029783638
0.055211582
-0.078477148
0.06464166
-0.13221319
0.065933975
-0.16055512
0.064430012
-0.15808401
0.065258403
-0.13668754
0.069818193
-0.10616747
0.079602078
-0.07068425
-0.036620786
0.098764615
1.6020292e-09
1.576335e-07
7.0766596e-09
5.4548388e-07
1.7637464e-08
1.0644564e-06
3.4770467e-08
1.7487502e-06
6.0276944e-08
2.6405293e-06
9.6318909e-08
3.7916517e-06
1.4546169e-07
5.2657322e-06
2.1070482e-07
7.1405995e-06
2.9549874e-07
9.5112224e-06
4.0372726e-07
1.2493164e-05
5.3964355e-07
1.6226644e-05
7.0771833e-07
2.0881277e-05
9.1238934e-07
2.6661539e-05
1.157617e-06
3.3813022e-05
1.4462364e-06
4.2629428e-05
1.77895e-06
5.3460297e-05
2.1528737e-06
6.6719176e-05
2.5595134e-06
8.2891902e-05
2.9819374e-06
0.00010254432
3.3909728e-06
0.0001263283
3.740165e-06
0.00015498432
3.9593695e-06
0.00018933819
3.9466807e-06
0.00023028812
3.5588458e-06
0.00027877733
2.6005152e-06
0.00033574602
8.1326067e-07
0.00040205559
-2.1333188e-06
0.0004783791
-6.6442203e-06
0.00056505728
-1.3187457e-05
0.0006619337
-2.22555e-05
0.00076821378
-3.428032e-05
0.00088243955
-4.9495852e-05
0.0010027369
-6.7843972e-05
0.0011274505
-8.8557366e-05
0.001255557
-0.00011056586
0.0013879979
-0.00013242296
0.0015268707
-0.00015244071
0.0016749318
-0.00016864952
0.0018350384
-0.00017866373
0.0020099769
-0.00017939774
0.0022025675
-0.00016669989
0.0024160119
-0.00013486954
0.0026542944
-7.6001121e-05
0.0029225985
2.0895103e-05
0.0032276272
0.00017109088
0.003577584
0.00039583776
0.003981703
0.00072409268
0.0044509521
0.0011958516
0.004997129
0.0018833874
0.0056085139
0.0028979617
0.0062202677
0.0044144735
0.0066952995
0.006715442
0.0067407984
0.010182215
0.0058328017
0.015087351
0.0033599625
0.021857657
-0.0018144168
0.032564547
-0.014926324
0.048628098
-0.045847189
0.064172923
-0.094021973
0.071053482
-0.13909375
0.070198076
-0.15969971
0.06806029
-0.15594622
0.069398274
-0.13802552
0.076288215
-0.11305741
0.090343592
-0.084739626
-0.059406318
0.11312912
3.1067087e-09
1.5452679e-07
1.3780288e-08
5.348103e-07
3.4473824e-08
1.0437629e-06
6.8232248e-08
1.7149918e-06
1.1881266e-07
2.5899489e-06
1.9081418e-07
3.7196501e-06
2.8983197e-07
5.1667144e-06
4.2261748e-07
7.007814e-06
5.9724938e-07
9.3365905e-06
8.2330392e-07
1.2267109e-05
1.1120034e-06
1.5937944e-05
1.4763366e-06
2.0516943e-05
1.9310946e-06
2.6206781e-05
2.4927913e-06
3.3251325e-05
3.1793996e-06
4.194282e-05
4.0097998e-06
5.2629896e-05
5.0028374e-06
6.5726138e-05
6.1758023e-06
8.1718938e-05
7.5421361e-06
0.00010117799
9.1081425e-06
0.00012476229
1.0868356e-05
0.00015322411
1.2799289e-05
0.00018740726
1.4851286e-05
0.00022823612
1.6938227e-05
0.00027669039
1.8925267e-05
0.00033375898
2.0615276e-05
0.00040036558
2.1735809e-05
0.00047725856
2.1930551e-05
0.00056486254
2.0762963e-05
0.00066310129
1.7746714e-05
0.00077123003
1.2414245e-05
0.00088777202
4.48751e-06
0.0010106636
-5.7982355e-06
0.0011377363
-1.7857775e-05
0.0012676165
-3.0774305e-05
0.0014009144
-4.2696169e-05
0.0015387926
-5.1509226e-05
0.0016837449
-5.491589e-05
0.001838445
-5.0100739e-05
0.0020051618
-3.3465029e-05
0.0021859318
-2.1470393e-07
0.0023827616
5.6195497e-05
0.0025978842
0.00014480875
0.0028339853
0.00027818106
0.0030942549
0.00047376674
0.0033819984
0.00075569048
0.0036997793
0.001157301
0.0040493415
0.0017271524
0.0044272776
0.0025552618
0.0047804045
0.0037779188
0.0049976107
0.0056158739
0.0048573444
0.0083930603
0.003963612
0.012414857
0.0018110047
0.017989487
-0.0022146676
0.026367167
-0.010192097
0.040143049
-0.028702206
0.058180339
-0.063884479
0.071748726
-0.10759036
0.075252048
-0.14259707
0.073023083
-0.15747075
0.071083004
-0.15400614
0.073255503
-0.14019802
0.081171804
-0.12097371
0.09649044
-0.10005826
-0.083652866
0.12073699
4.4939729e-09
1.5003282e-07
1.9964094e-08
5.1934018e-07
5.0010745e-08
1.0137162e-06
9.9125531e-08
1.665877e-06
1.7287634e-07
2.5161981e-06
2.7812756e-07
3.6143989e-06
4.2328867e-07
5.0215533e-06
6.1860167e-07
6.812501e-06
8.7645742e-07
9.0787347e-06
1.2117417e-06
1.1931825e-05
1.6422046e-06
1.5507481e-05
2.1888183e-06
1.997033e-05
2.8761266e-06
2.5519473e-05
3.7325105e-06
3.2394941e-05
4.7903318e-06
4.0884999e-05
6.085859e-06
5.1334369e-05
7.6588525e-06
6.4153144e-05
9.5516255e-06
7.9826165e-05
1.1807417e-05
9.8922197e-05
1.4467717e-05
0.00012210199
1.7568265e-05
0.00015012356
2.1133278e-05
0.00018384225
2.5167498e-05
0.0002242019
2.9645726e-05
0.00027221216
3.4499553e-05
0.00032890516
3.9601807e-05
0.00039526332
4.4750012e-05
0.00047211036
4.9652511e-05
0.00055996004
5.3924901e-05
0.0006588289
5.7110712e-05
0.00076804421
5.8757602e-05
0.00088612513
5.8573365e-05
0.0010108479
5.6609166e-05
0.0011397005
5.3148654e-05
0.001271077
4.9709893e-05
0.0014043532
4.8243189e-05
0.0015402593
5.1015182e-05
0.0016809729
6.077072e-05
0.0018286895
8.0780858e-05
0.0019851516
0.00011514381
0.0021515689
0.00016927401
0.0023286313
0.0002505275
0.0025166307
0.00036905509
0.0027154577
0.00053896213
0.0029243478
0.00077988544
0.0031410751
0.0011188171
0.0033608477
0.0015941127
0.0035740459
0.0022673383
0.003754052
0.0032484431
0.0037992998
0.0047098179
0.0035362358
0.0069138662
0.0026532961
0.01014445
0.00073302838
0.014721346
-0.0027658916
0.021558771
-0.009052092
0.032833141
-0.021466467
0.049809384
-0.045678449
0.067314197
-0.081389292
0.076606365
-0.11688253
0.077267368
-0.14325807
0.074846282
-0.15504966
0.073787322
-0.15294718
0.076928432
-0.14333913
0.085406492
-0.12945177
0.10030845
-0.11496022
-0.10597657
0.12263215
5.7067737e-09
1.4432605e-07
2.5375341e-08
4.9967161e-07
6.3616507e-08
9.7547503e-07
1.2619532e-07
1.6032982e-06
2.2027868e-07
2.4221147e-06
3.5472688e-07
3.4799507e-06
5.4043974e-07
4.8358404e-06
7.9074733e-07
6.5621934e-06
1.1218686e-06
8.7476135e-06
1.5534161e-06
1.1500278e-05
2.1089582e-06
1.4951939e-05
2.8166229e-06
1.9262665e-05
3.7097243e-06
2.4626371e-05
4.8273739e-06
3.1277291e-05
6.2150274e-06
3.9497345e-05
7.9248824e-06
4.9624514e-05
1.0016029e-05
6.2061998e-05
1.2554148e-05
7.7288045e-05
1.5610591e-05
9.5865754e-05
1.9260495e-05
0.00011845209
2.3579583e-05
0.00014580448
2.8639168e-05
0.00017878266
3.4498823e-05
0.00021834224
4.1196134e-05
0.00026551485
4.8733208e-05
0.00032136808
5.7059701e-05
0.00038693683
6.6053454e-05
0.0004631166
7.550153e-05
0.00055051196
8.5088289e-05
0.00064924214
9.4404083e-05
0.00075872842
0.00010300173
0.00087752748
0.00011048864
0.001003361
0.0001167232
0.0011334659
0.00012233521
0.001265465
0.00012888093
0.0013978074
0.00013810621
0.001531034
0.00015271506
0.0016663641
0.00017587161
0.001805533
0.00021127093
0.0019497523
0.00026351852
0.0020993213
0.00033863612
0.0022535137
0.00044477941
0.0024104874
0.00059321774
0.0025670194
0.00079969508
0.0027178705
0.0010862533
0.0028545168
0.001483331
0.0029637699
0.0020353119
0.0030220651
0.0028243819
0.002964982
0.0039892402
0.0026344414
0.0057410028
0.0017844732
0.0083323792
6.1919718e-05
0.01208142
-0.0030160124
0.017830408
-0.0085148801
0.027332941
-0.018554625
0.042175104
-0.03630863
0.060192592
-0.063695937
0.073772276
-0.094968976
0.078777061
-0.12188731
0.078226149
-0.14270716
0.07607666
-0.15290017
0.076235534
-0.15310606
0.080290978
-0.14739458
0.089131415
-0.13829221
0.10350214
-0.12933094
-0.12621619
0.12374176
6.6928581e-09
1.3763319e-07
2.977901e-08
4.7658546e-07
7.4697498e-08
9.3055654e-07
1.4825887e-07
1.5297368e-06
2.5894152e-07
2.3114321e-06
4.1725215e-07
3.3216401e-06
6.3613776e-07
4.6169548e-06
9.3148168e-07
6.2668495e-06
1.3226678e-06
8.3564274e-06
1.8332313e-06
1.0989714e-05
2.4915911e-06
1.4293579e-05
3.3318728e-06
1.8422383e-05
4.394774e-06
2.356347e-05
5.7285105e-06
2.9943555e-05
7.3897323e-06
3.7836123e-05
9.4443964e-06
4.756985e-05
1.1968441e-05
5.9537953e-05
1.5048199e-05
7.4208287e-05
1.8780185e-05
9.2133768e-05
2.327014e-05
0.00011396213
2.8630783e-05
0.00014044383
3.4977846e-05
0.0001724356
4.2423733e-05
0.00021089636
5.1068092e-05
0.00025687049
6.0984595e-05
0.00031145158
7.2203537e-05
0.00037571789
8.4690523e-05
0.00045062962
9.8323319e-05
0.00053687917
0.0001128726
0.00063469286
0.00012799897
0.00074360204
0.00014328667
0.00086223978
0.00015835252
0.0009882951
0.00017305681
0.0011187616
0.00018790815
0.0012506137
0.00020422069
0.0013814949
0.00022422715
0.0015110275
0.00025076821
0.001639823
0.00028734676
0.0017689544
0.00033811376
0.0018989853
0.00040818187
0.0020292532
0.0005041877
0.0021575079
0.00063511698
0.0022795581
0.00081345979
0.0023886766
0.0010568754
0.0024744549
0.0013904029
0.0025209894
0.0018494716
0.0025047012
0.002488945
0.0023825917
0.0034231485
0.0020307784
0.00482903
0.00122856
0.0069273955
-0.00031389227
0.01004163
-0.0030523149
0.01499176
-0.0079661422
0.023341744
-0.016864864
0.036388632
-0.031601513
0.053109444
-0.053029442
0.068366074
-0.078952567
0.076704
-0.1033069
0.079164048
-0.12434736
0.078443931
-0.14198704
0.077298022
-0.15175426
0.078505574
-0.15431361
0.08324588
-0.15213488
0.092239078
-0.14728541
0.10603487
-0.14312674
-0.14479194
0.12461062
7.4023046e-09
1.3023088e-07
3.2954073e-08
4.5103369e-07
8.2700069e-08
8.8081055e-07
1.6421549e-07
1.4482214e-06
2.8694388e-07
2.1887037e-06
4.6259695e-07
3.145987e-06
7.0563491e-07
4.3739169e-06
1.0338275e-06
5.9386568e-06
1.468909e-06
7.9213459e-06
2.0373437e-06
1.0421279e-05
2.7711962e-06
1.3559727e-05
3.7091192e-06
1.748446e-05
4.8974594e-06
2.237513e-05
6.391444e-06
2.844957e-05
8.2564627e-06
3.5971105e-05
1.0569346e-05
4.5256967e-05
1.3419593e-05
5.6687706e-05
1.6910371e-05
7.0717509e-05
2.1159181e-05
8.7884958e-05
2.6297767e-05
0.00010882355
3.247103e-05
0.00013427057
3.9834293e-05
0.00016507233
4.8548331e-05
0.00020218232
5.8771255e-05
0.00024664757
7.0646437e-05
0.0002995764
8.4285601e-05
0.00036207873
9.974688e-05
0.00043516834
0.00011700915
0.00051961689
0.00013594717
0.00061575484
0.00015631873
0.00072323049
0.0001777855
0.00084077301
0.00020001375
0.00096606685
0.00022288146
0.0010958939
0.00024682098
0.0012266741
0.0002729522
0.0013553637
0.00030357553
0.0014804042
0.0003418316
0.0016015669
0.00039158027
0.0017192057
0.00045742523
0.0018331403
0.00054500672
0.0019416717
0.00066162724
0.0020408874
0.00081722867
0.0021239567
0.0010258219
0.0021800833
0.0013075792
0.0021926976
0.0016917212
0.0021368473
0.0022228278
0.0019735947
0.0029795019
0.0016259176
0.0041184973
0.00089178304
0.0058481794
-0.00050112217
0.0084898225
-0.0029555354
0.01286178
-0.0074242723
0.020420598
-0.01552496
0.03218585
-0.028630116
0.04723866
-0.046654323
0.062184418
-0.0679752
0.072471369
-0.089239518
0.077175078
-0.10801061
0.078651074
-0.12582336
0.078215653
-0.14155162
0.078293299
-0.15183191
0.080490276
-0.15651059
0.085745046
-0.15738965
0.094773754
-0.15631411
0.10798496
-0.15633795
-0.1619703
0.12516332
7.7912084e-09
1.2243968e-07
3.4702834e-08
4.2412207e-07
8.7124778e-08
8.283886e-07
1.7306986e-07
1.3622763e-06
3.0253282e-07