/*--------------------------------*- C++ -*----------------------------------*\
  =========                 |
  \\      /  F ield         | OpenFOAM: The Open Source CFD Toolbox
   \\    /   O peration     | Website:  https://openfoam.org
    \\  /    A nd           | Version:  13
     \\/     M anipulation  |
\*---------------------------------------------------------------------------*/
FoamFile
{
    format      ascii;
    class       volScalarField;
    location    "48.998915";
    object      nut;
}
// * * * * * * * * * * * * * * * * * * * * * * * * * * * * * * * * * * * * * //

dimensions      [0 2 -1 0 0 0 0];

internalField   nonuniform List<scalar> 
17140
(
1.4347323e-18
2.7903644e-16
7.4322297e-15
7.5347067e-14
4.5567109e-13
2.0188345e-12
7.2898682e-12
2.2811602e-11
6.4268123e-11
1.6718743e-10
4.0867428e-10
9.5056723e-10
2.1236109e-09
4.5892108e-09
9.6464599e-09
1.980884e-08
3.9877801e-08
7.8925884e-08
1.5393515e-07
2.9643251e-07
5.6452492e-07
1.0646201e-06
1.9904405e-06
3.6927614e-06
6.8034002e-06
1.2454167e-05
2.26597e-05
4.0976015e-05
7.3602057e-05
0.00013112908
0.00023102927
0.00040050128
0.00067805096
0.0011106084
0.0017430186
0.0026014974
0.0036793307
0.0049335024
0.0062931827
0.0076746636
0.0089965713
0.010182897
0.011177009
0.012004792
0.012674725
0.013183299
0.013563044
0.01384489
0.014051722
0.014192567
0.014265766
0.014267405
0.0141593
0.013854669
0.013296432
0.012565374
0.012082325
0.012754119
0.014186819
0.015144044
0.00801197
0.0026599248
0.0021286887
0.0033295223
0.0077695328
1.4407573e-18
2.8020799e-16
7.4634374e-15
7.5663416e-14
4.5758256e-13
2.0272859e-12
7.3202871e-12
2.2906372e-11
6.4533633e-11
1.6787343e-10
4.1033754e-10
9.5439893e-10
2.1320747e-09
4.6072579e-09
9.6837923e-09
1.9884033e-08
4.0025629e-08
7.9209953e-08
1.5446886e-07
2.9741196e-07
5.6627616e-07
1.0676559e-06
1.9954988e-06
3.7007372e-06
6.8149364e-06
1.2468358e-05
2.2670731e-05
4.0965551e-05
7.352303e-05
0.00013087211
0.00023037594
0.00039907171
0.00067528527
0.0011058107
0.0017355196
0.0025908671
0.0036654887
0.0049164643
0.006272627
0.0076494647
0.0089648299
0.010141761
0.011123281
0.011937766
0.012588946
0.013075119
0.013427694
0.013675763
0.013838905
0.013921772
0.013918173
0.013817998
0.013566333
0.013050307
0.012199687
0.011112281
0.010259011
0.010800803
0.013223154
0.016086435
0.012464466
0.0030205241
0.0023931053
0.0037119088
0.0083590155
1.4359436e-18
2.7927174e-16
7.4384943e-15
7.5410301e-14
4.5604804e-13
2.0204589e-12
7.295491e-12
2.2828199e-11
6.4311406e-11
1.6728922e-10
4.0889216e-10
9.5099066e-10
2.1243415e-09
4.5902501e-09
9.6473193e-09
1.9807394e-08
3.9867181e-08
7.8886447e-08
1.5381442e-07
2.9609628e-07
5.6364041e-07
1.0623818e-06
1.9849383e-06
3.6795512e-06
6.7723376e-06
1.2382563e-05
2.2497957e-05
4.0618722e-05
7.2832163e-05
0.00012951547
0.00022777562
0.00039426809
0.00066685949
0.0010919827
0.0017145303
0.002561523
0.0036274614
0.0048701073
0.0062184129
0.0075874142
0.0088940666
0.010060576
0.011029416
0.011829624
0.012461321
0.012924105
0.013247776
0.01345948
0.0135755
0.013596103
0.013511247
0.01330516
0.012903178
0.012146627
0.010957022
0.0094105234
0.0080318179
0.008191731
0.011252068
0.015595357
0.016573192
0.0054650547
0.0031274066
0.0044302848
0.0088320991
1.4186508e-18
2.7590847e-16
7.3489063e-15
7.4501813e-14
4.5055009e-13
1.9960722e-12
7.2072878e-12
2.255161e-11
6.3530154e-11
1.6525067e-10
4.0389144e-10
9.3931144e-10
2.0981264e-09
4.5332893e-09
9.52683e-09
1.9558135e-08
3.9360981e-08
7.7874072e-08
1.5181499e-07
2.9218719e-07
5.560581e-07
1.0477619e-06
1.9568668e-06
3.6257968e-06
6.6695659e-06
1.2186271e-05
2.2123478e-05
3.9905992e-05
7.1482505e-05
0.0001269848
0.00022311316
0.00038592155
0.00065254961
0.0010688516
0.0016797305
0.0025130747
0.0035648149
0.0047940099
0.0061301936
0.0074881377
0.0087838857
0.009938949
0.010895071
0.011680032
0.012291423
0.012729735
0.013023057
0.0131964
0.013262881
0.01321883
0.013052086
0.012743684
0.012174654
0.011171026
0.0096424493
0.0075636974
0.0056287847
0.0050139535
0.0080343056
0.014297254
0.018156841
0.010583246
0.0049300296
0.0056790642
0.0091350532
1.3885526e-18
2.7005474e-16
7.1929856e-15
7.2920878e-14
4.4098574e-13
1.9536715e-12
7.0540469e-12
2.2071542e-11
6.2175759e-11
1.6172152e-10
3.9524809e-10
9.1916203e-10
2.0529943e-09
4.4354608e-09
9.3204637e-09
1.9132581e-08
3.8499982e-08
7.6159675e-08
1.484467e-07
2.856427e-07
5.4345791e-07
1.0236805e-06
1.9111076e-06
3.5392292e-06
6.5063397e-06
1.1879306e-05
2.1547618e-05
3.8829124e-05
6.947916e-05
0.00012329175
0.0002164121
0.000374075
0.00063242278
0.0010364915
0.0016311392
0.0024453847
0.0034771567
0.0046874762
0.0060069851
0.0073504447
0.0086329732
0.009775494
0.010718878
0.011487728
0.012078072
0.012491007
0.012752838
0.012886466
0.012902176
0.012793352
0.012548264
0.012142937
0.011402868
0.01019264
0.0083388422
0.0058283952
0.0032759557
0.0019887728
0.0041548115
0.01158923
0.018109709
0.016174142
0.0084885034
0.0079609075
0.0098395825
1.3457893e-18
2.6173785e-16
6.9714586e-15
7.0674856e-14
4.2739951e-13
1.8934548e-12
6.8364897e-12
2.1390274e-11
6.0254718e-11
1.5671891e-10
3.8300468e-10
8.9064335e-10
1.9891757e-09
4.2972755e-09
9.0293274e-09
1.8533089e-08
3.7289121e-08
7.3753501e-08
1.4373066e-07
2.7650607e-07
5.259284e-07
9.9031848e-07
1.848031e-06
3.4206053e-06
6.2842061e-06
1.1464821e-05
2.0776778e-05
3.7400985e-05
6.6847581e-05
0.00011848537
0.00020776336
0.00035888673
0.00060672865
0.00099524163
0.0015691267
0.0023587358
0.0033645403
0.0045502273
0.0058481483
0.0071733791
0.0084401346
0.0095688084
0.010499314
0.011251219
0.011819752
0.012206465
0.012435889
0.01252901
0.012493859
0.01232251
0.012007376
0.011506067
0.010640129
0.0092543278
0.0071681033
0.0044364179
0.0018148911
0.00088744929
0.0021007252
0.0071508695
0.016809236
0.018763542
0.013936025
0.011062812
0.011545729
1.2909075e-18
2.5106411e-16
6.6871578e-15
6.7792466e-14
4.0996523e-13
1.8161933e-12
6.5574046e-12
2.0516552e-11
5.7791737e-11
1.5030731e-10
3.6731942e-10
8.5412501e-10
1.9075007e-09
4.1205389e-09
8.6572446e-09
1.7767579e-08
3.5744522e-08
7.0687888e-08
1.3773097e-07
2.6490324e-07
5.0371518e-07
9.4815281e-07
1.7685597e-06
3.2717081e-06
6.0066065e-06
1.0949453e-05
1.9823734e-05
3.5646065e-05
6.3634291e-05
0.00011265256
0.00019732442
0.00034062808
0.00057589946
0.00094571655
0.001494443
0.0022538778
0.0032275275
0.0043824728
0.0056534548
0.0069562768
0.0082043301
0.0093174821
0.010234671
0.010968711
0.011514488
0.011874021
0.012070151
0.012122303
0.012037065
0.011807453
0.011432589
0.010856981
0.0099052776
0.0084059372
0.0062310049
0.0035607102
0.0013375856
0.00057296248
0.00099138026
0.0034658508
0.013305968
0.019032982
0.018338237
0.015264858
0.015203156
1.2248603e-18
2.3821884e-16
6.3450179e-15
6.4323751e-14
3.8898567e-13
1.7232293e-12
6.221642e-12
1.9465568e-11
5.4829675e-11
1.425984e-10
3.484658e-10
8.1024464e-10
1.8093976e-09
3.9083476e-09
8.2107501e-09
1.6849537e-08
3.3893489e-08
6.7017271e-08
1.3055476e-07
2.510428e-07
4.772211e-07
8.979562e-07
1.6741689e-06
3.0953432e-06
5.6788637e-06
1.034328e-05
1.8707516e-05
3.3600156e-05
5.9906094e-05
0.00010591625
0.00018531582
0.00031967828
0.00054054537
0.000888808
0.0014082351
0.0021320701
0.0030672572
0.0041849959
0.0054231761
0.006698845
0.0079247304
0.009020122
0.0099230309
0.010638023
0.011159697
0.011490713
0.011652373
0.011663019
0.011528916
0.011247486
0.010827357
0.010211478
0.0092036818
0.0076691233
0.0055374984
0.0030140212
0.0011890809
0.00049815839
0.00050433489
0.0019970708
0.0074695146
0.017409303
0.019920842
0.019099443
0.018507079
1.1489993e-18
2.2346483e-16
5.9520369e-15
6.0339661e-14
3.6489007e-13
1.6164649e-12
5.8360735e-12
1.8258836e-11
5.1429185e-11
1.3375008e-10
3.2683023e-10
7.599021e-10
1.6968798e-09
3.6650603e-09
7.699026e-09
1.5797869e-08
3.1774218e-08
6.2817573e-08
1.2235091e-07
2.3521348e-07
4.4700075e-07
8.4078591e-07
1.5668618e-06
2.8952885e-06
5.3080754e-06
9.6595941e-06
1.745294e-05
3.1309387e-05
5.574814e-05
9.8431694e-05
0.00017201458
0.00029651408
0.00050144126
0.00082567434
0.0013120507
0.0019951136
0.0028855132
0.0039592525
0.0051581962
0.0064012691
0.0076007996
0.0086753984
0.0095622503
0.010256476
0.010752015
0.01105244
0.01117771
0.011145763
0.010964389
0.010641852
0.0098485944
0.008873086
0.0080799928
0.0070240366
0.0049502196
0.0026742435
0.0011134638
0.00042513425
0.00026385385
0.001168123
0.0037663372
0.01269271
0.018524257
0.019773633
0.018875273
1.0650407e-18
2.0713601e-16
5.5171116e-15
5.5930392e-14
3.3822388e-13
1.498317e-12
5.409428e-12
1.6923679e-11
4.7667263e-11
1.2396274e-10
3.0290272e-10
7.0423782e-10
1.5724968e-09
3.3961922e-09
7.133679e-09
1.4636445e-08
2.9434855e-08
5.8184328e-08
1.1330636e-07
2.1777672e-07
4.1374611e-07
7.7795574e-07
1.4491155e-06
2.6761878e-06
4.9029068e-06
8.9144992e-06
1.6089819e-05
2.88287e-05
5.1261025e-05
9.0381094e-05
0.00015774473
0.00027169397
0.00045950346
0.0007577135
0.0012078205
0.0018453629
0.0026847831
0.0037074769
0.0048601492
0.006064359
0.0072324232
0.0082821311
0.0091499682
0.0098207445
0.010287095
0.010553707
0.010639342
0.01056284
0.010316122
0.0093947373
0.0083788746
0.0073817066
0.0070962855
0.0063748629
0.0042809115
0.0023625735
0.00089732118
0.00033484065
0.00017823823
0.00064190345
0.0024610084
0.005892217
0.014249142
0.016476005
0.0152602
9.7500675e-19
1.8962562e-16
5.050716e-15
5.1202124e-14
3.0962917e-13
1.3716304e-12
4.9519777e-12
1.5492237e-11
4.3634463e-11
1.1347192e-10
2.7725908e-10
6.4459118e-10
1.4392414e-09
3.1082114e-09
6.5283096e-09
1.3393207e-08
2.693169e-08
5.3229049e-08
1.036389e-07
1.9915265e-07
3.7825923e-07
7.1098305e-07
1.3237788e-06
2.4433545e-06
4.4732124e-06
8.1261827e-06
1.4651563e-05
2.6219165e-05
4.6555658e-05
8.1963999e-05
0.00014285997
0.00024583001
0.00041574997
0.00068651332
0.0010978098
0.0016857057
0.0024682939
0.0034327861
0.0045315816
0.0056897451
0.006820118
0.007839491
0.008683623
0.0093265103
0.0097593755
0.0099874993
0.010028122
0.0099045367
0.0090668894
0.0080406794
0.0069674379
0.0062356938
0.0065177164
0.0055397865
0.0035021231
0.0018180316
0.00057507515
0.00024841357
0.00016286178
0.00032383617
0.001292817
0.0032341974
0.0070479348
0.0096410919
0.008123247
8.8112491e-19
1.7136685e-16
4.5643872e-15
4.6271817e-14
2.7981327e-13
1.2395383e-12
4.4750342e-12
1.3999903e-11
3.9430467e-11
1.0253689e-10
2.5053283e-10
5.8243524e-10
1.3004031e-09
2.8082248e-09
5.8978511e-09
1.2098811e-08
2.4326416e-08
4.8073804e-08
9.358653e-08
1.7979959e-07
3.4141287e-07
6.4151408e-07
1.193931e-06
2.2025067e-06
4.029543e-06
7.3140013e-06
1.3173499e-05
2.3544916e-05
4.1747778e-05
7.3387564e-05
0.00012772641
0.00021955608
0.00037124006
0.00061376018
0.00098451833
0.0015194891
0.0022400046
0.0031392648
0.004176127
0.0052801252
0.006365377
0.0073476588
0.0081605174
0.0087681349
0.0091623292
0.009344567
0.0093319822
0.0088059752
0.0077677258
0.0066968099
0.0057559798
0.0055139155
0.0060200986
0.004365046
0.0026608196
0.0010457684
0.00033916706
0.00019228462
0.00016565156
0.0002074166
0.00063009721
0.0018892601
0.0038051407
0.0045523317
0.0043245683
7.8573792e-19
1.5281537e-16
4.0702632e-15
4.1262529e-14
2.4952031e-13
1.1053369e-12
3.9904966e-12
1.2483895e-11
3.5160091e-11
9.1430161e-11
2.2338976e-10
5.1931764e-10
1.1594373e-09
2.5036934e-09
5.2579724e-09
1.07854e-08
2.1683671e-08
4.284636e-08
8.3398097e-08
1.6019588e-07
3.0411627e-07
5.7125969e-07
1.0627627e-06
1.9595474e-06
3.5827419e-06
6.4977461e-06
1.1691536e-05
2.0870745e-05
3.6953618e-05
6.485892e-05
0.00011270968
0.00019350702
0.00032705037
0.0005412099
0.00087063029
0.0013504605
0.0020045821
0.0028320234
0.0037986633
0.0048394738
0.0058707063
0.0068070308
0.0075782718
0.0081410734
0.0084878709
0.008613153
0.0085368896
0.0075326908
0.0064533686
0.0054441731
0.004877217
0.0051926088
0.0046768821
0.0030003293
0.001580226
0.00050069125
0.00020943721
0.00015264384
0.00016281241
0.00020417015
0.00037267451
0.00087825766
0.0017926706
0.0023274294
0.0023922005
6.9119347e-19
1.3442772e-16
3.5805031e-15
3.6297506e-14
2.1949547e-13
9.7232674e-13
3.5102779e-12
1.0981473e-11
3.092824e-11
8.0424435e-11
1.9649585e-10
4.5678588e-10
1.0197969e-09
2.2020696e-09
4.6243147e-09
9.4850364e-09
1.9067866e-08
3.7673888e-08
7.3320898e-08
1.4081607e-07
2.6726926e-07
5.0190816e-07
9.3341101e-07
1.7202542e-06
3.1433628e-06
5.6965475e-06
1.0240103e-05
1.8258179e-05
3.2282383e-05
5.6570559e-05
9.8146935e-05
0.00016827168
0.00028420488
0.00047059156
0.00075888649
0.0011826144
0.0017672703
0.0025171594
0.003405402
0.0043732269
0.0053398284
0.0062188878
0.0069358886
0.0074405632
0.0077271468
0.0077788241
0.0072710635
0.0062109689
0.0051728325
0.0044305268
0.0043940115
0.0044132913
0.0030247765
0.0018053714
0.00062830586
0.00022085861
0.00014088438
0.00013800324
0.00017134256
0.00022750292
0.00029813884
0.00044351395
0.00065860008
0.00081070714
0.00093723083
5.9971757e-19
1.1663687e-16
3.1066395e-15
3.1493661e-14
1.9044571e-13
8.4363918e-13
3.0456804e-12
9.5279852e-12
2.6834439e-11
6.9778414e-11
1.7048292e-10
3.9630806e-10
8.8475792e-10
1.9104231e-09
4.0117147e-09
8.2281295e-09
1.6540079e-08
3.2676942e-08
6.3589263e-08
1.2210955e-07
2.317233e-07
4.3505511e-07
8.0883621e-07
1.4900686e-06
2.7213222e-06
4.9283329e-06
8.8513717e-06
1.5764587e-05
2.7835827e-05
4.8702247e-05
8.435461e-05
0.00014440196
0.00024364399
0.00040346848
0.00065183669
0.0010198898
0.0015336028
0.0022015704
0.0030038872
0.0038885327
0.0047783528
0.0055863112
0.006233307
0.0066621549
0.006871223
0.0068274344
0.0059200824
0.0048828224
0.0040555598
0.0037805569
0.003815064
0.0027317924
0.0016052501
0.00067052508
0.0002333015
0.00012110552
0.00011044623
0.00013595763
0.00018791208
0.00024671229
0.00029165112
0.00036212228
0.00043573647
0.00054139931
0.00059829588
5.1328826e-19
9.9827554e-17
2.6589211e-15
2.6954898e-14
1.6299928e-13
7.2205641e-13
2.6067445e-12
8.1548261e-12
2.296705e-11
5.9721704e-11
1.4591149e-10
3.391859e-10
7.5722327e-10
1.6350141e-09
3.4332985e-09
7.0415539e-09
1.4154222e-08
2.796176e-08
5.4409304e-08
1.0447062e-07
1.9822319e-07
3.7209103e-07
6.9160569e-07
1.2736812e-06
2.3251023e-06
4.2082891e-06
7.5522715e-06
1.3437276e-05
2.3696355e-05
4.1396495e-05
7.1578048e-05
0.00012232111
0.00020610853
0.0003411528
0.00055174833
0.00086598427
0.0013091125
0.001892656
0.0026028219
0.0033942985
0.0041939988
0.0049144259
0.0054719122
0.0058032946
0.0059120409
0.0055398872
0.0045498045
0.0036891603
0.0032788474
0.0031441959
0.0022395041
0.0012810899
0.0005655814
0.00021172865
9.5332533e-05
8.5797337e-05
0.00010990346
0.00016144051
0.00019457823
0.00020937916
0.00023555813
0.00027596814
0.00031349281
0.00040581016
0.00045838944
4.3353665e-19
8.4316991e-17
2.2457959e-15
2.2766837e-14
1.3767378e-13
6.0987058e-13
2.2017415e-12
6.8878558e-12
1.9398852e-11
5.0443392e-11
1.2324304e-10
2.8649088e-10
6.3958167e-10
1.3809919e-09
2.8998583e-09
5.9473937e-09
1.1954562e-08
2.3615496e-08
4.5949897e-08
8.8221834e-08
1.6737696e-07
3.1414788e-07
5.8380187e-07
1.0748782e-06
1.9615076e-06
3.5485023e-06
6.3640213e-06
1.1313087e-05
1.9927312e-05
3.4761565e-05
6.0002454e-05
0.00010234961
0.00017216417
0.00028466076
0.00046044988
0.00072408075
0.0010989297
0.0015978239
0.0022116067
0.0029008934
0.0035965198
0.0042105461
0.0046547562
0.0048683923
0.0048468168
0.0041358548
0.0033018318
0.0028389342
0.0025004812
0.0017330776
0.00094054017
0.00041150309
0.00017339771
7.7409351e-05
6.686523e-05
8.52278e-05
0.00012955607
0.00016633849
0.00015651561
0.00016028572
0.00018327843
0.00021933393
0.00024895464
0.00033736056
0.00040489436
3.6166518e-19
7.0338977e-17
1.8734896e-15
1.8992585e-14
1.1485077e-13
5.0877118e-13
1.8367672e-12
5.7461304e-12
1.6183467e-11
4.2082759e-11
1.0281744e-10
2.390119e-10
5.3359123e-10
1.1521448e-09
2.4193293e-09
4.9618743e-09
9.9735947e-09
1.9702055e-08
3.8334682e-08
7.3598904e-08
1.3962777e-07
2.6204789e-07
4.8693037e-07
8.963802e-07
1.6353859e-06
2.9574891e-06
5.3013627e-06
9.4171565e-06
1.6570982e-05
2.8867947e-05
4.9745464e-05
8.4687462e-05
0.00014216478
0.00023465112
0.00037920879
0.00059658097
0.00090729683
0.0013237735
0.0018394798
0.0024193198
0.0029971467
0.0034844685
0.0037891061
0.0038687636
0.0036034553
0.0028722001
0.0024247446
0.0019363957
0.0012897518
0.00064115096
0.0002795444
0.00012494343
6.1080042e-05
5.1314455e-05
6.4928421e-05
0.00010104701
0.0001464257
0.00011717576
0.00011909402
0.00013367806
0.00014744184
0.00018130534
0.00022046548
0.00031268344
0.00043359004
2.9839823e-19
5.8034384e-17
1.5457545e-15
1.5670183e-14
9.4760175e-14
4.1977622e-13
1.5154939e-12
4.741126e-12
1.3353174e-11
3.4723615e-11
8.483909e-11
1.9722308e-10
4.4030766e-10
9.5074538e-10
1.9964657e-09
4.0947025e-09
8.2307208e-09
1.625949e-08
3.1637041e-08
6.0741116e-08
1.1523607e-07
2.1627105e-07
4.0186314e-07
7.3974792e-07
1.3494864e-06
2.4399915e-06
4.3722688e-06
7.7624719e-06
1.3647743e-05
2.3746787e-05
4.0854233e-05
6.9408594e-05
0.00011624039
0.00019139291
0.00030864159
0.00048488074
0.00073708178
0.0010756271
0.0014942515
0.0019597189
0.0024073236
0.0027487553
0.0028950374
0.0028297602
0.002357346
0.0019580312
0.0014417699
0.00092601498
0.00041813366
0.00018160833
8.5038433e-05
4.4293585e-05
3.7699167e-05
5.0769911e-05
8.3511706e-05
0.00012961632
9.2240845e-05
8.9332661e-05
9.7012096e-05
0.00011336505
0.00013547192
0.00016500583
0.00020649438
0.00031795706
0.00046931479
2.4395239e-19
4.7445406e-17
1.2637159e-15
1.281103e-14
7.7470896e-14
3.4319052e-13
1.23902e-12
3.8762697e-12
1.0917595e-11
2.839088e-11
6.9368566e-11
1.612644e-10
3.6004132e-10
7.7745796e-10
1.6326477e-09
3.3486706e-09
6.7314578e-09
1.329846e-08
2.587711e-08
4.9685604e-08
9.4268457e-08
1.7693263e-07
3.2879e-07
6.0527142e-07
1.1042026e-06
1.9964503e-06
3.5770433e-06
6.3488206e-06
1.1156152e-05
1.9392382e-05
3.3311011e-05
5.6468432e-05
9.4306125e-05
0.00015476742
0.00024867942
0.00038922016
0.00058935827
0.00085602986
0.0011807961
0.0015294845
0.0018374096
0.0020194159
0.0020216163
0.0018171563
0.0013789624
0.0010163025
0.00062980083
0.00026083286
0.00011614559
5.630379e-05
3.1270366e-05
2.7577875e-05
4.0792312e-05
6.9984347e-05
0.00011616
8.6574979e-05
7.867567e-05
8.1784818e-05
9.0594154e-05
0.00010235427
0.0001221285
0.00015765489
0.00020688257
0.00035823447
0.00056967274
1.9803929e-19
3.8515951e-17
1.0258793e-15
1.0399977e-14
6.2891295e-14
2.7860788e-13
1.0058774e-12
3.1469637e-12
8.86376e-12
2.305076e-11
5.6323105e-11
1.3094291e-10
2.9235983e-10
6.3134473e-10
1.3258951e-09
2.7196896e-09
5.4675155e-09
1.0802411e-08
2.1022235e-08
4.0368587e-08
7.660126e-08
1.4379397e-07
2.6725142e-07
4.9206473e-07
8.9781392e-07
1.6234681e-06
2.9088318e-06
5.1621086e-06
9.0672651e-06
1.5749239e-05
2.7017532e-05
4.5703002e-05
7.6074844e-05
0.00012428024
0.00019856184
0.00030860164
0.00046311359
0.00066444731
0.00089988132
0.0011323607
0.0012988994
0.0013363749
0.0012228609
0.00094477648
0.00067121249
0.00039453582
0.00016181917
7.2793476e-05
3.7030811e-05
2.2024767e-05
2.0593046e-05
3.259266e-05
5.7651447e-05
9.7644635e-05
8.5042407e-05
7.262789e-05
6.9710396e-05
7.2491121e-05
8.1056756e-05
9.6055712e-05
0.00011743579
0.00015456579
0.00021848458
0.00040107439
0.00076033161
1.5989139e-19
3.1096703e-17
8.2826695e-16
8.3966918e-15
5.0777444e-14
2.2494755e-13
8.1216375e-13
2.5409957e-12
7.1572595e-12
1.8613733e-11
4.5483848e-11
1.0574943e-10
2.3612527e-10
5.0994546e-10
1.0710331e-09
2.1971234e-09
4.4174558e-09
8.7288439e-09
1.6989344e-08
3.2629626e-08
6.1927757e-08
1.1627368e-07
2.161531e-07
3.9807986e-07
7.2650524e-07
1.3139651e-06
2.3545329e-06
4.1781009e-06
7.335949e-06
1.2730684e-05
2.1803704e-05
3.678543e-05
6.0985793e-05
9.9032211e-05
0.00015682724
0.00024079207
0.00035524141
0.00049720484
0.00064880846
0.00077171328
0.00081474788
0.00075836998
0.00060606137
0.0004134971
0.00023082188
9.5696389e-05
4.5192207e-05
2.4131716e-05
1.5716184e-05
1.5725358e-05
2.6283274e-05
4.7397726e-05
8.2734151e-05
8.3534695e-05
7.056304e-05
6.6073766e-05
6.6830695e-05
7.2981961e-05
8.3614646e-05
9.8899826e-05
0.00012314941
0.00016443087
0.00023549099
0.00043650728
0.00087656571
1.2833266e-19
2.4958952e-17
6.6478713e-16
6.7394215e-15
4.07559e-14
1.8055511e-13
6.5190545e-13
2.0396753e-12
5.7454426e-12
1.4942848e-11
3.6516063e-11
8.4905437e-11
1.8959846e-10
4.0950157e-10
8.6016042e-10
1.7647438e-09
3.5485992e-09
7.0130479e-09
1.3652146e-08
2.6225297e-08
4.978379e-08
9.3494927e-08
1.738519e-07
3.202588e-07
5.8461871e-07
1.0575255e-06
1.8950517e-06
3.3619213e-06
5.8987502e-06
1.0222033e-05
1.7463177e-05
2.9341695e-05
4.8336716e-05
7.7750698e-05
0.00012142479
0.00018262104
0.00026129786
0.00034943592
0.00042624641
0.00046008676
0.00043300956
0.00034815612
0.00023379179
0.00012512896
5.393461e-05
2.7000538e-05
1.5755519e-05
1.1264027e-05
1.2357775e-05
2.125743e-05
3.9441751e-05
7.0372497e-05
8.5269326e-05
7.2870868e-05
6.8373322e-05
6.739429e-05
6.999988e-05
7.5525134e-05
8.4950822e-05
0.00010110892
0.00012696961
0.00017421074
0.00025967185
0.0005114555
0.00089458681
1.0192602e-19
1.9823223e-17
5.2799652e-16
5.3527082e-15
3.2370338e-14
1.4340894e-13
5.1780328e-13
1.6201635e-12
4.56397e-12
1.1870746e-11
2.9010678e-11
6.7459449e-11
1.506537e-10
3.2541896e-10
6.8361879e-10
1.4027129e-09
2.8209949e-09
5.5759161e-09
1.0856258e-08
2.0858084e-08
3.9602249e-08
7.4387029e-08
1.3834337e-07
2.5487674e-07
4.6527796e-07
8.4152918e-07
1.5073514e-06
2.671735e-06
4.6801117e-06
8.0877261e-06
1.3754841e-05
2.2948561e-05
3.7401307e-05
5.9205612e-05
9.0307655e-05
0.00013107062
0.00017784934
0.00022010644
0.00024079689
0.00022810207
0.00018396027
0.00012111965
6.4226933e-05
2.9639976e-05
1.5801379e-05
1.0147287e-05
8.2369163e-06
9.7044515e-06
1.7438657e-05
3.298866e-05
6.1172854e-05
8.9501049e-05
7.6539155e-05
7.2210467e-05
6.9729346e-05
7.0420302e-05
7.3096653e-05
7.9407124e-05
9.0981748e-05
0.00010942168
0.00013823986
0.00019031447
0.00028562288
0.0005713854
0.000915718
7.9244555e-20
1.5411992e-17
4.1050282e-16
4.1616067e-15
2.5167521e-14
1.1150106e-13
4.0260671e-13
1.2597726e-12
3.5489237e-12
9.2311499e-12
2.2561227e-11
5.2465963e-11
1.1717835e-10
2.5313115e-10
5.3180656e-10
1.0913058e-09
2.1949148e-09
4.3387731e-09
8.448133e-09
1.6232098e-08
3.0819262e-08
5.788597e-08
1.0763741e-07
1.9824136e-07
3.6168374e-07
6.5354551e-07
1.1688697e-06
2.0669085e-06
3.6075222e-06
6.1998938e-06
1.0456988e-05
1.7231691e-05
2.7576023e-05
4.249314e-05
6.2233867e-05
8.5092526e-05
0.00010598846
0.00011663312
0.00011068407
8.9123713e-05
5.7641178e-05
3.0988846e-05
1.5655695e-05
9.1774669e-06
6.6125582e-06
6.0276212e-06
7.744393e-06
1.4246621e-05
2.7965609e-05
5.4401194e-05
9.1113722e-05
8.0806695e-05
7.6574597e-05
7.3345176e-05
7.3287625e-05
7.4452965e-05
7.8305038e-05
8.5972456e-05
9.8262564e-05
0.00011785682
0.00014896375
0.00020596867
0.00031061279
0.00060923426
0.00093260285
5.9245961e-20
1.1522538e-17
3.069063e-16
3.1113758e-15
1.8816402e-14
8.3364873e-14
3.0102045e-13
9.4193431e-13
2.6536317e-12
6.9026647e-12
1.687102e-11
3.9234998e-11
8.7631273e-11
1.8930831e-10
3.9772636e-10
8.1615876e-10
1.6414574e-09
3.2444614e-09
6.3164233e-09
1.2133295e-08
2.3028291e-08
4.3228094e-08
8.0314504e-08
1.4774095e-07
2.6908126e-07
4.8501631e-07
8.6440379e-07
1.5208718e-06
2.6355557e-06
4.4833823e-06
7.4520893e-06
1.2024406e-05
1.8659121e-05
2.7476619e-05
3.7699653e-05
4.7039392e-05
5.1819466e-05
4.9168832e-05
3.9397807e-05
2.5315928e-05
1.4178608e-05
8.00319e-06
5.2543433e-06
4.4091667e-06
4.4678849e-06
6.1981845e-06
1.1718058e-05
2.4834588e-05
4.8121625e-05
8.0941961e-05
8.413268e-05
8.0730219e-05
7.7304307e-05
7.6711619e-05
7.6943685e-05
7.9210019e-05
8.388036e-05
9.2156003e-05
0.00010574399
0.00012759941
0.0001616925
0.00022285807
0.00033337903
0.00062999263
0.00094224001
4.1586602e-20
8.0880291e-18
2.1542706e-16
2.183975e-15
1.3207919e-14
5.8517456e-14
2.1130226e-13
6.6120322e-13
1.8627752e-12
4.8455129e-12
1.1843047e-11
2.7541547e-11
6.1511557e-11
1.3287285e-10
2.7912607e-10
5.7268143e-10
1.1514723e-09
2.2751052e-09
4.4268697e-09
8.4972525e-09
1.6110575e-08
3.0199298e-08
5.599889e-08
1.0273886e-07
1.8644513e-07
3.3442156e-07
5.920479e-07
1.0322321e-06
1.7665445e-06
2.9533801e-06
4.7902909e-06
7.4647217e-06
1.1024509e-05
1.5146653e-05
1.8897516e-05
2.0799703e-05
1.968898e-05
1.5689656e-05
1.03213e-05
6.3275458e-06
4.0083062e-06
3.108954e-06
2.9016751e-06
3.3940739e-06
4.9790941e-06
1.0163144e-05
2.2245269e-05
4.2800632e-05
7.2212004e-05
8.7548277e-05
8.4741555e-05
8.0931875e-05
7.9697413e-05
7.9338789e-05
8.0599742e-05
8.3568956e-05
8.9155283e-05
9.8954755e-05
0.00011404432
0.0001377456
0.0001741625
0.00023869592
0.00035047775
0.00062822622
0.00095468788
2.6675811e-20
5.1880802e-18
1.3818579e-16
1.4009088e-15
8.4721966e-15
3.7535853e-14
1.3553858e-13
4.2411998e-13
1.1948243e-12
3.1078879e-12
7.5955567e-12
1.7661969e-11
3.9440296e-11
8.517705e-11
1.7887499e-10
3.6683579e-10
7.3714057e-10
1.4552652e-09
2.828501e-09
5.4211562e-09
1.0257942e-08
1.9177589e-08
3.5435961e-08
6.4708826e-08
1.1670083e-07
2.0759362e-07
3.6345995e-07
6.2429172e-07
1.0469514e-06
1.7024485e-06
2.6580047e-06
3.9301393e-06
5.402269e-06
6.7408754e-06
7.420555e-06
7.0343653e-06
5.6835837e-06
3.9967246e-06
2.7552527e-06
2.0828015e-06
1.8426007e-06
2.0354378e-06
2.519481e-06
4.1295319e-06
9.2751376e-06
1.9695144e-05
3.8102744e-05
6.4568178e-05
9.1495306e-05
8.7329156e-05
8.3061047e-05
8.1789808e-05
8.1143788e-05
8.1950621e-05
8.3922946e-05
8.7977143e-05
9.4778104e-05
0.00010554587
0.00012202831
0.00014774404
0.0001863954
0.00025360946
0.00036443563
0.00062030621
0.00096221545
1.5233834e-20
2.9627694e-18
7.8913767e-17
8.0001093e-16
4.8381249e-15
2.1434803e-14
7.7396884e-14
2.4217488e-13
6.8220249e-13
1.7743043e-12
4.3356552e-12
1.0079479e-11
2.2501156e-11
4.8573829e-11
1.0194773e-10
2.0891033e-10
4.1935643e-10
8.2673947e-10
1.6039044e-09
3.0665561e-09
5.7838607e-09
1.0767323e-08
1.9784927e-08
3.5864845e-08
6.4060519e-08
1.1251446e-07
1.9370627e-07
3.2535384e-07
5.2953539e-07
8.2714206e-07
1.2234996e-06
1.6833655e-06
2.1055979e-06
2.3285185e-06
2.2449446e-06
1.929523e-06
1.5448856e-06
1.2322388e-06
1.1006427e-06
1.1915689e-06
1.4169121e-06
2.020862e-06
3.8278699e-06
8.5127922e-06
1.7430844e-05
3.3866294e-05
5.7803772e-05
8.5899737e-05
8.7676647e-05
8.3673843e-05
8.2743951e-05
8.2248183e-05
8.2637118e-05
8.4129027e-05
8.7129242e-05
9.2138088e-05
9.9854738e-05
0.00011206157
0.00012993068
0.00015748474
0.00019794699
0.00026650535
0.00037363631
0.00060693631
0.00096766368
7.5920455e-21
1.4765453e-18
3.9327728e-17
3.9869047e-16
2.4110527e-15
1.0681514e-14
3.8566609e-14
1.2066433e-13
3.3986554e-13
8.8377487e-13
2.1590139e-12
5.0174465e-12
1.1195319e-11
2.4151616e-11
5.0644926e-11
1.0365861e-10
2.0775433e-10
4.0873449e-10
7.9081917e-10
1.5066513e-09
2.8286008e-09
5.2340972e-09
9.5422996e-09
1.7121192e-08
3.0174619e-08
5.2078211e-08
8.7623738e-08
1.4280381e-07
2.2340419e-07
3.3139165e-07
4.5868617e-07
5.8088323e-07
6.6124141e-07
6.8235862e-07
6.6464317e-07
6.2740072e-07
6.0965141e-07
6.3554313e-07
7.9320219e-07
1.1168339e-06
1.8408208e-06
3.5894621e-06
7.5218301e-06
1.5082213e-05
2.9974106e-05
5.1757321e-05
7.7198252e-05
8.6884805e-05
8.3335415e-05
8.2485455e-05
8.2151318e-05
8.2503281e-05
8.362047e-05
8.6210336e-05
9.0038296e-05
9.6002269e-05
0.00010487032
0.00011818862
0.00013749211
0.00016672603
0.00020872528
0.00027840147
0.00038107263
0.00059410665
0.00091371605
3.3073328e-21
6.4322825e-19
1.7132208e-17
1.7367657e-16
1.0502587e-15
4.6526154e-15
1.6797221e-14
5.2547083e-14
1.4797772e-13
3.8469651e-13
9.3945742e-13
2.1821974e-12
4.8659226e-12
1.0488144e-11
2.1968014e-11
4.4895831e-11
8.9803785e-11
1.76226e-10
3.3982562e-10
6.4463402e-10
1.2034935e-09
2.2109584e-09
3.993519e-09
7.0802022e-09
1.2288222e-08
2.0795903e-08
3.4128025e-08
5.3907292e-08
8.1175463e-08
1.1522604e-07
1.5252093e-07
1.8920651e-07
2.2478917e-07
2.5952312e-07
2.9437216e-07
3.4130068e-07
4.356386e-07
6.3510491e-07
1.0138207e-06
1.7366131e-06
3.261502e-06
6.5161316e-06
1.3167587e-05
2.6784651e-05
4.6409671e-05
6.9478136e-05
8.4860749e-05
8.2036246e-05
8.0917519e-05
8.0948409e-05
8.1398396e-05
8.2435541e-05
8.459636e-05
8.7947236e-05
9.2622302e-05
9.9604373e-05
0.00010952024
0.00012418451
0.00014469533
0.00017544008
0.00021849651
0.00028814464
0.00038606156
0.00058408434
0.00086085853
1.3731563e-21
2.6705856e-19
7.1129706e-18
7.2105714e-17
4.3602116e-16
1.9314388e-15
6.9723758e-15
2.1808972e-14
6.1405278e-14
1.5959695e-13
3.8962602e-13
9.0466667e-13
2.0161937e-12
4.3428438e-12
9.0885618e-12
1.8554121e-11
3.7062723e-11
7.2605978e-11
1.3971363e-10
2.6434004e-10
4.919415e-10
9.0031628e-10
1.6189379e-09
2.8558107e-09
4.9301788e-09
8.3032367e-09
1.3589172e-08
2.1500226e-08
3.2712501e-08
4.777295e-08
6.7709662e-08
9.4486999e-08
1.2939967e-07
1.7819665e-07
2.4913269e-07
3.6561582e-07
5.8049728e-07
9.4065416e-07
1.591245e-06
2.9010201e-06
5.6910193e-06
1.1705788e-05
2.3895225e-05
4.1536785e-05
6.2516526e-05
8.2243877e-05
7.9876602e-05
7.8547808e-05
7.8852133e-05
7.9387478e-05
8.0274334e-05
8.226309e-05
8.5193706e-05
8.9407375e-05
9.4962743e-05
0.00010288874
0.00011380391
0.00012953476
0.00015128023
0.00018338174
0.00022725206
0.00029683834
0.00039037068
0.00057578988
0.00081980774
7.4843116e-22
1.455589e-19
3.8769006e-18
3.9301057e-17
2.3765164e-16
1.052718e-15
3.8002507e-15
1.1887056e-14
3.3470796e-14
8.7001765e-14
2.1243564e-13
4.9339126e-13
1.1000832e-12
2.371107e-12
4.9668824e-12
1.0153504e-11
2.0320655e-11
3.9913531e-11
7.7085054e-11
1.4657742e-10
2.7465349e-10
5.0734855e-10
9.239051e-10
1.6579212e-09
2.9293077e-09
5.0904512e-09
8.6907473e-09
1.4553948e-08
2.3878664e-08
3.830337e-08
6.0113568e-08
9.2772252e-08
1.4137593e-07
2.1505213e-07
3.3568705e-07
5.3344965e-07
8.5888613e-07
1.4425336e-06
2.6061758e-06
5.0890762e-06
1.0503351e-05
2.1292743e-05
3.7035877e-05
5.6320611e-05
7.8876615e-05
7.7049538e-05
7.5421852e-05
7.5957787e-05
7.6394083e-05
7.7286152e-05
7.9147136e-05
8.1921754e-05
8.5666177e-05
9.061699e-05
9.6905974e-05
0.00010577888
0.00011774013
0.00013469312
0.00015749729
0.00019067473
0.00023523906
0.00030443124
0.00039433486
0.00056930347
0.00078774788
7.4546021e-22
1.4498153e-19
3.8615753e-18
3.9146769e-17
2.3672901e-16
1.0487037e-15
3.7861746e-15
1.1845047e-14
3.3361104e-14