/*--------------------------------*- C++ -*----------------------------------*\
  =========                 |
  \\      /  F ield         | OpenFOAM: The Open Source CFD Toolbox
   \\    /   O peration     | Website:  https://openfoam.org
    \\  /    A nd           | Version:  13
     \\/     M anipulation  |
\*---------------------------------------------------------------------------*/
FoamFile
{
    format      ascii;
    class       surfaceScalarField;
    location    "0.001";
    object      CrankNicolson:ddtCorrDdt0(phi);
}
// * * * * * * * * * * * * * * * * * * * * * * * * * * * * * * * * * * * * * //

dimensions      [1 0 -2 0 0 0 0];

internalField   nonuniform List<scalar> 
999
(
1.12218e-08
2.19265e-08
1.01862e-08
-2.2673e-09
-1.0821e-08
2.80026e-08
1.58382e-08
6.51666e-09
-1.13513e-08
-2.37168e-08
-6.01076e-09
-1.46752e-08
1.50252e-09
-1.18596e-08
-3.73437e-11
2.62503e-09
2.07216e-08
2.58695e-08
1.67784e-08
-2.35757e-08
-1.5604e-08
-1.69673e-08
1.89319e-08
-9.77338e-09
1.92045e-09
-2.18172e-08
6.91375e-09
2.41164e-08
-2.14074e-08
-5.95352e-09
-4.513e-09
-3.37273e-09
-2.09385e-09
-9.10722e-09
1.21573e-08
2.97038e-08
2.26995e-08
-2.91337e-09
-3.88227e-09
8.77196e-09
2.89759e-09
5.09058e-09
1.72886e-10
-8.8279e-09
-2.33879e-08
-1.18665e-08
-7.15263e-09
7.17185e-09
5.55691e-09
1.64433e-08
-4.836e-08
-1.25556e-08
2.31405e-09
-1.81822e-08
-1.35227e-08
-1.40764e-08
5.77012e-09
1.4737e-08
-1.78296e-08
1.70366e-09
-3.65739e-08
3.07262e-11
6.54113e-09
2.56733e-08
3.33544e-09
1.61047e-08
6.94191e-09
-2.66333e-08
6.21439e-09
-2.25963e-08
1.92913e-08
-1.71435e-08
1.25228e-08
8.81926e-09
2.92004e-08
-8.57232e-10
-6.58763e-09
3.7403e-09
-9.54711e-09
-7.03176e-09
7.80118e-09
1.80908e-08
-2.41747e-10
-2.99463e-08
-1.2355e-08
-1.38407e-08
-1.34057e-08
5.19691e-09
4.00411e-08
-2.66691e-08
4.24023e-09
-8.23487e-09
-3.04035e-09
9.72453e-09
-5.56904e-10
-1.72324e-08
-1.86343e-08
-9.14153e-09
-2.01644e-09
2.45725e-08
-5.27526e-09
-1.19409e-10
-1.20992e-08
-7.36488e-09
2.53955e-09
4.35795e-08
-1.36707e-08
1.75987e-08
4.82635e-09
-1.86665e-09
-3.37692e-09
4.75681e-09
-1.53117e-08
-2.18116e-08
5.08234e-09
2.7441e-08
-8.43826e-10
7.26486e-09
-2.36779e-08
3.41197e-08
1.38868e-08
1.73445e-08
2.57626e-08
3.18372e-09
1.10665e-08
-3.59127e-08
-3.05226e-08
-1.45609e-08
-2.63508e-08
5.36613e-09
2.74779e-08
2.61615e-08
-1.43579e-09
3.60439e-08
-1.05751e-08
-1.03323e-08
-2.50424e-08
3.45067e-09
-2.35072e-09
-9.39393e-09
1.24223e-08
3.38639e-08
1.09435e-08
-1.99337e-08
1.49323e-08
-3.37826e-08
-5.70787e-09
3.85977e-09
1.83258e-09
-1.58634e-08
-1.40302e-08
2.79196e-08
8.27364e-09
1.49786e-08
2.64789e-09
2.65645e-09
6.44161e-09
-1.40592e-08
2.2053e-08
-1.34842e-08
-6.07602e-09
-1.79e-08
1.65529e-08
-1.06701e-08
-4.86337e-09
2.12585e-08
-8.63061e-09
8.71548e-09
-1.43793e-08
1.89698e-08
1.39939e-10
-5.96031e-09
3.31421e-08
1.14073e-09
-2.16593e-08
-2.11345e-08
1.79392e-08
-3.60112e-08
-7.02812e-09
2.17281e-08
1.22081e-09
-2.12476e-09
-2.8807e-08
3.47681e-08
-3.99398e-09
-7.78858e-09
-1.36234e-08
1.72676e-09
-3.16144e-09
2.36351e-09
-2.0211e-09
2.39967e-09
1.34547e-09
-1.94113e-08
1.26333e-08
-3.035e-08
2.73917e-08
8.80958e-09
1.16696e-08
-1.14649e-08
8.826e-09
1.79146e-08
-1.52762e-08
-4.23352e-09
2.30352e-10
-1.25952e-08
-3.87935e-09
1.35937e-09
8.06082e-09
-2.73092e-08
1.96301e-08
1.42487e-08
-1.07482e-08
-2.45392e-08
-2.39327e-08
2.18907e-08
2.88242e-08
1.60835e-08
-7.90524e-09
-2.88008e-08
-5.24438e-09
1.1787e-09
-8.02156e-09
-7.38589e-09
3.53672e-09
6.85268e-09
5.54487e-08
-6.62734e-09
-9.99015e-09
-2.26581e-08
-3.10622e-08
1.70361e-09
-1.38778e-08
3.00338e-08
-2.25636e-08
-2.59208e-08
1.74313e-09
-1.09421e-08
5.57185e-09
8.28012e-10
-1.40913e-08
-4.43975e-09
-2.52407e-09
-1.28703e-08
-3.88324e-09
1.73072e-08
-3.83689e-09
-1.30134e-08
-7.97081e-09
-5.66221e-09
4.43661e-09
2.41848e-08
2.88377e-09
-1.35532e-08
5.52921e-09
9.29586e-09
2.95636e-08
-6.78354e-09
2.29736e-08
6.173e-09
-1.62164e-08
-5.19655e-09
-1.92877e-08
-1.30925e-08
-1.17389e-08
-2.30515e-08
-1.98545e-08
6.68683e-09
-1.95383e-08
2.11425e-08
1.54114e-08
1.14583e-09
1.40644e-08
7.96325e-09
-7.88215e-10
2.6504e-08
-2.25267e-08
-4.43503e-08
-1.98877e-09
3.61832e-08
3.2669e-08
2.50989e-08
4.24184e-09
2.72617e-08
-2.18132e-08
-1.44573e-08
-1.67078e-08
-8.05598e-09
6.88596e-09
1.52625e-08
-7.32173e-09
1.29446e-08
1.94269e-08
-2.50837e-08
-2.72216e-08
-2.04742e-08
9.82502e-09
1.06588e-08
3.50942e-09
5.32061e-09
5.41411e-08
-4.37599e-08
-2.69803e-08
-2.60025e-08
-4.87616e-09
1.63508e-08
5.56938e-09
-1.06813e-09
1.06546e-08
1.17212e-08
5.39736e-09
-8.70079e-09
-1.60517e-08
-9.52781e-09
3.40285e-08
6.83248e-09
8.46446e-09
6.58266e-10
-7.40267e-09
-5.47476e-09
1.8533e-08
-6.85485e-09
1.48414e-08
1.01453e-08
-9.16766e-09
6.67112e-09
1.68607e-08
-2.19326e-08
-1.05932e-08
2.15188e-08
-1.5934e-08
9.19094e-09
1.47249e-08
1.58382e-08
-3.00707e-09
-2.08382e-08
1.39459e-08
3.80182e-09
-6.38429e-09
6.96511e-09
-7.53123e-09
-2.24312e-09
-3.46664e-08
-1.19599e-09
4.31889e-09
1.69272e-08
2.73323e-08
1.81911e-08
-7.81818e-10
3.36887e-09
8.78571e-09
9.64044e-09
-4.74541e-09
-1.46901e-08
-2.31244e-08
-2.33052e-08
1.64478e-08
1.30045e-08
2.15826e-08
-1.45268e-08
-1.81282e-08
-1.46601e-08
2.97478e-09
1.31447e-08
3.19144e-08
3.00908e-08
8.93436e-09
-2.96995e-08
-1.35336e-08
-1.6787e-10
-2.24179e-08
-1.13324e-08
-3.35485e-08
7.81704e-09
4.77329e-08
2.37481e-08
-3.94831e-09
-1.08363e-08
2.68425e-08
2.391e-08
1.036e-08
3.62005e-09
1.8634e-08
1.95466e-10
4.76231e-09
-3.80835e-08
-8.61209e-08
-3.03124e-08
-1.77945e-08
1.89144e-08
1.32853e-08
2.74001e-08
4.22551e-08
3.8353e-08
1.17569e-08
7.32314e-10
-4.85872e-08
2.83714e-08
-7.15155e-09
-2.1416e-08
-1.88925e-08
2.76081e-08
-7.36538e-09
1.90505e-09
1.26145e-08
-2.15965e-08
1.17226e-09
1.42188e-08
1.97769e-09
-1.04972e-08
-1.13875e-08
2.60057e-08
3.89087e-08
1.04027e-08
-9.91099e-09
-2.94211e-08
-3.18864e-09
-2.79729e-08
-1.09553e-08
2.51525e-08
2.59824e-08
-2.6608e-08
-1.7821e-08
-6.26605e-09
-2.06343e-08
1.64595e-08
7.73539e-08
1.21023e-07
2.65106e-07
1.00645e-06
3.51762e-06
1.19734e-05
3.97749e-05
0.000130281
0.000419107
0.00132358
0.00410139
0.0124628
0.0371124
0.108231
0.308879
0.861956
2.34999
6.25354
16.2262
41.0062
100.805
240.716
557.5
1250.06
2708.24
5656.02
11356.6
21856.5
40179
70280.2
116485
182159
267666
368286
473309
567502
635475
673149
686703
683485
668963
646905
619913
589786
557783
524783
491418
458142
425287
393100
361772
331451
302252
274268
247575
222234
198289
175779
154729
135151
117048
100414
85237.8
71495.8
59159.7
48195.9
38564.5
30218.2
23106.7
17177.8
12376.3
8639.97
5897.9
4070.61
3067.33
2779.03
3069.65
3767.5
4655.58
5462.24
5863.72
5519.73
4170.56
1789.8
-1241.73
-4148.91
-5741.86
-4805.15
-803.827
5656.26
12798.6
18067.6
18312.1
11842.2
1566.33
-691.756
29146.2
122767
297654
522496
725243
839662
841436
747587
592663
413181
239864
97265.7
1667.57
-44219.5
-52865.4
-39360.7
-15103.4
-1699.75
-11208.4
-4981.7
24236.9
-14663.6
-58475.3
102281
116263
-369548
-69583.6
1.1793e+06
-447515
-3.15189e+06
4.89776e+06
9.72771e+06
4.14853e+06
935779
151490
24573.7
4057.18
670.659
110.824
18.3095
3.02466
0.499629
0.0825272
0.013631
0.00225135
0.000371829
6.1406e-05
1.01402e-05
1.67655e-06
2.75419e-07
4.58401e-08
7.47308e-09
-1.03832e-09
1.37195e-09
-1.25387e-09
-5.02704e-10
-8.43896e-10
2.21607e-09
-1.81736e-10
1.78811e-09
4.62042e-11
-9.9892e-10
2.18521e-09
-2.01976e-09
-3.43676e-12
2.00692e-09
-1.40403e-09
-1.68805e-09
-1.1617e-09
4.26432e-10
1.94258e-09
-9.9904e-10
-6.93473e-10
-2.32266e-10
1.07646e-09
-2.6375e-11
-1.4553e-09
-5.74211e-10
7.32608e-10
-1.29261e-10
2.72043e-09
-1.97177e-09
1.18657e-09
1.36993e-09
-1.04154e-09
-8.40585e-10
-9.70172e-11
-8.52629e-10
5.54127e-10
6.56503e-10
-2.19624e-10
1.93382e-11
5.45749e-10
-5.25076e-10
-5.38044e-10
-2.4062e-09
2.91349e-09
2.19746e-09
2.69276e-09
1.64986e-09
-6.81455e-10
6.77265e-10
-3.4369e-09
-1.30222e-09
-2.19719e-09
1.8916e-09
1.31072e-09
-4.47692e-10
2.5597e-09
2.326e-09
-6.25299e-10
-1.62014e-09
-3.21128e-09
7.68415e-10
1.15013e-09
3.88104e-11
2.61175e-10
-3.43518e-10
-2.12417e-09
6.82427e-10
-3.77852e-09
1.66076e-09
3.31706e-09
-2.30579e-09
4.72546e-10
1.34055e-09
-2.16695e-10
-1.88281e-09
-1.9273e-09
1.51498e-09
2.532e-09
1.18164e-09
4.79382e-10
2.49739e-09
9.95962e-10
-2.77756e-09
-1.5582e-10
7.94536e-10
5.29227e-10
-1.05981e-09
-5.08018e-11
2.65836e-09
8.93952e-10
8.37468e-10
-4.43912e-09
-5.12271e-09
-8.29533e-10
6.32896e-09
6.32411e-10
1.27607e-09
2.02478e-09
1.15825e-09
-7.83271e-10
-1.44551e-10
-3.33506e-09
-1.20513e-09
-4.52892e-09
-5.71116e-10
3.47121e-09
2.64852e-09
3.47448e-09
-6.45246e-10
-1.56348e-09
-3.38523e-09
9.29352e-11
-2.40331e-09
1.88083e-09
4.34492e-10
-1.5654e-10
2.46238e-09
1.8021e-09
-2.16559e-09
1.42325e-09
-2.21363e-09
-3.36075e-09
4.44098e-11
-2.22122e-09
-6.20917e-10
3.51297e-10
-2.82445e-09
1.60599e-09
-1.81136e-09
-2.77055e-09
7.02539e-10
8.92171e-10
2.61048e-09
-1.54382e-09
9.21032e-11
7.56264e-10
-3.49269e-10
1.05751e-09
2.19951e-10
-1.48573e-09
5.10805e-10
-5.60849e-10
1.99836e-09
1.75781e-09
1.23992e-09
7.46187e-11
-5.66916e-09
-2.18187e-09
-2.95444e-09
-9.18571e-10
-6.97705e-10
-1.55438e-09
1.36788e-09
3.1917e-09
6.02636e-09
1.23243e-09
-3.307e-09
-3.83639e-09
3.41438e-10
-1.41345e-10
2.40084e-09
4.11822e-09
5.72551e-10
-1.77262e-09
-2.23059e-09
-2.63581e-09
-4.39716e-09
-7.20023e-10
3.52632e-09
3.53507e-09
1.53021e-09
7.05952e-09
1.29756e-10
-1.22831e-09
1.52283e-09
-5.96259e-09
-2.53152e-09
-4.12986e-09
1.1786e-09
2.37288e-09
1.72188e-09
1.31358e-10
7.36604e-10
-1.41636e-09
-1.46813e-09
-9.27572e-10
3.86175e-09
-6.54308e-10
-8.12323e-10
5.10553e-10
1.64171e-09
-1.0955e-09
4.44809e-10
-1.43398e-09
-2.9866e-09
-2.0394e-09
2.99666e-09
2.7213e-09
4.5135e-10
-5.54649e-09
-1.4465e-09
-1.85064e-09
-2.80277e-09
2.27343e-09
1.12234e-09
6.89722e-09
2.95965e-11
-4.3698e-09
-6.37113e-09
-4.10721e-09
1.21286e-09
2.2936e-09
1.092e-10
-4.48675e-10
1.65058e-09
1.61026e-09
1.16515e-09
2.70888e-09
-2.26173e-12
2.31198e-09
1.75753e-09
-2.412e-09
3.12595e-09
-5.96787e-10
3.18869e-09
3.66645e-10
-1.20499e-09
1.36244e-10
1.44747e-09
5.45381e-09
-1.76946e-09
-1.10494e-09
-6.52612e-09
2.24926e-10
3.40687e-09
8.56872e-10
8.86572e-10
6.60308e-10
6.61437e-11
-8.74158e-10
-3.05823e-09
1.97394e-09
-7.30609e-10
6.04535e-10
2.9285e-11
2.06534e-09
1.1882e-09
-2.0056e-09
-4.16497e-09
2.22788e-10
2.50455e-09
2.65341e-09
2.46866e-09
1.84769e-09
1.80334e-11
3.01753e-09
-3.38962e-09
-1.36417e-09
-3.19776e-09
9.93529e-10
4.37014e-09
2.14336e-09
1.81654e-09
-3.16207e-09
-1.70985e-09
6.73795e-10
-1.11291e-09
2.10553e-10
8.93636e-10
8.06061e-10
-1.2725e-09
-1.47703e-10
4.14111e-10
7.63624e-10
4.09439e-11
2.13424e-09
2.97249e-09
4.02342e-10
-4.11527e-10
8.34618e-10
-7.37064e-10
7.18655e-10
-1.31544e-10
-1.46389e-09
-2.94548e-09
1.48711e-09
2.86621e-09
-2.31838e-09
4.0967e-09
-3.77551e-09
-2.17341e-09
-3.85817e-09
-9.50494e-10
-3.26762e-10
1.41939e-09
9.23044e-10
-1.53869e-09
-2.71415e-09
-3.09536e-10
-2.33039e-09
3.75162e-09
-5.53895e-10
-2.69447e-09
-7.44483e-10
3.0042e-09
4.15681e-09
-8.45743e-10
-4.0425e-10
6.00567e-10
-4.34692e-09
-1.24459e-09
5.41784e-09
3.16157e-09
3.39746e-10
-1.58775e-09
-2.21004e-09
-2.62423e-09
-4.35472e-09
2.39111e-09
4.56083e-09
-3.10686e-10
1.74534e-09
9.28804e-10
5.39391e-10
2.57484e-09
-1.71214e-09
-1.03144e-09
-3.12254e-09
-1.5356e-09
9.96646e-10
3.10218e-09
-3.07637e-09
-6.49369e-10
2.52884e-09
5.14607e-10
-1.31653e-09
-5.66843e-09
4.39663e-09
-2.35903e-09
-1.04005e-09
-1.8418e-10
4.699e-10
-1.92638e-09
1.92105e-09
1.0606e-09
-7.21806e-10
1.58556e-09
2.06498e-09
7.62344e-11
-3.44319e-09
-1.34531e-09
1.02489e-09
-2.94037e-09
-1.71005e-09
5.29221e-10
-1.64009e-09
-2.8325e-09
2.07524e-09
4.2368e-09
-4.60852e-09
1.75031e-09
-9.71601e-10
1.24138e-09
2.7199e-09
4.74632e-10
-2.81449e-11
-2.76502e-09
2.28392e-09
1.16224e-10
3.32533e-09
2.29253e-10
-1.02503e-09
-1.12142e-09
2.06145e-09
-5.60734e-10
9.08068e-10
4.29924e-12
2.70047e-09
6.36318e-10
1.13863e-09
2.28981e-09
2.30551e-09
-4.70768e-09
-7.47708e-09
-2.89399e-09
1.90166e-09
-2.61045e-09
-3.58705e-09
-8.4806e-10
-5.05875e-10
4.46169e-09
1.156e-09
1.2721e-09
3.22769e-09
1.25849e-09
1.34788e-09
4.39434e-10
6.24326e-10
-1.75702e-09
2.6744e-10
-2.82516e-09
-3.92926e-09
1.49329e-09
1.87264e-09
1.19421e-09
-1.20752e-09
-4.96949e-09
8.7327e-10
1.51164e-09
2.69802e-09
2.4467e-09
5.37124e-09
4.37221e-10
1.14094e-10
4.53034e-10
-4.71409e-09
-5.18835e-10
6.34698e-10
3.56208e-09
1.07729e-09
2.33165e-09
6.10067e-10
1.56432e-09
1.88035e-09
)
;

boundaryField
{
    sides
    {
        type            calculated;
        value           nonuniform List<scalar> 2(-1.39577e-10 -1.4188e-08);
    }
    empty
    {
        type            empty;
    }
}


// ************************************************************************* //
