/*--------------------------------*- C++ -*----------------------------------*\
  =========                 |
  \\      /  F ield         | OpenFOAM: The Open Source CFD Toolbox
   \\    /   O peration     | Website:  https://openfoam.org
    \\  /    A nd           | Version:  13
     \\/     M anipulation  |
\*---------------------------------------------------------------------------*/
FoamFile
{
    format      ascii;
    class       volScalarField;
    location    "0.001";
    object      CrankNicolson:ddt0(rho,K);
}
// * * * * * * * * * * * * * * * * * * * * * * * * * * * * * * * * * * * * * //

dimensions      [1 -1 -3 0 0 0 0];

internalField   nonuniform List<scalar> 
1000
(
-1.00852e-21
-8.81058e-22
-2.08297e-21
1.86214e-24
1.44247e-23
1.41736e-23
-1.16983e-21
-1.23369e-22
1.33306e-25
-2.32238e-22
1.9454e-22
1.20393e-22
5.41011e-22
1.05618e-23
3.5615e-22
3.55311e-24
-2.54459e-22
1.8236e-21
1.467e-21
-3.25265e-22
-3.55331e-22
-2.11413e-21
6.32311e-24
4.58342e-22
4.8737e-22
-7.21342e-22
-3.02031e-22
-5.47611e-23
6.3689e-24
-1.85076e-22
-2.17038e-23
2.61041e-22
4.64624e-24
-2.03168e-22
1.27739e-22
-2.69337e-22
-9.65509e-22
2.4822e-22
-1.36649e-22
4.8907e-22
6.84051e-24
-9.82377e-23
-1.24075e-22
1.71069e-22
3.85951e-22
-1.64569e-22
-1.40231e-22
3.7705e-22
-6.49469e-23
-1.69399e-23
1.61305e-21
1.24593e-22
-9.29443e-22
1.00932e-21
5.47547e-22
7.54067e-23
2.93067e-23
-3.55705e-23
2.49562e-22
3.06363e-24
1.377e-21
2.67808e-22
9.85857e-23
-9.21063e-23
-4.6438e-22
1.11896e-22
6.79342e-23
-1.21417e-22
-6.45563e-22
-4.23884e-22
-5.40741e-22
5.63512e-22
-2.7993e-22
5.35116e-22
-1.85557e-21
-1.71161e-21
2.66249e-23
-4.61429e-24
1.65252e-24
1.38822e-22
1.5698e-22
-4.63015e-22
-5.24884e-22
3.44966e-22
1.45444e-21
-2.31603e-22
-2.23194e-22
-1.26186e-23
-9.85617e-22
-9.3757e-24
-5.938e-23
-8.96108e-22
-2.52276e-22
1.72794e-22
9.36889e-25
-4.32291e-23
-4.4737e-22
-3.53914e-22
3.42501e-23
-2.3312e-22
-7.35386e-22
7.9766e-22
4.81524e-22
2.94262e-22
1.16714e-22
-4.46589e-23
7.01899e-23
3.19023e-23
2.61587e-22
3.44303e-22
2.29214e-23
6.17139e-22
-3.69523e-24
1.37452e-21
1.41595e-21
-1.63022e-21
-5.052e-22
-1.88548e-22
-5.18629e-22
-6.78463e-23
8.26823e-23
-6.08087e-22
3.05887e-25
-1.65605e-22
2.13429e-24
1.68894e-21
3.08216e-21
1.02304e-21
-1.36087e-21
-5.17478e-22
2.80817e-21
2.69607e-21
8.91134e-22
7.81661e-22
1.10729e-21
-7.98081e-24
-1.09767e-21
2.10799e-22
-3.31666e-22
-4.09896e-22
2.15824e-25
-1.75342e-22
2.49733e-22
-8.91503e-23
2.30136e-22
-2.55528e-22
1.0499e-22
-1.35258e-22
1.06905e-21
2.16795e-22
-1.63762e-21
4.18603e-22
7.92807e-22
1.1436e-21
7.49134e-23
2.01474e-22
-1.599e-22
-1.4588e-23
1.53454e-23
3.03102e-22
2.66579e-23
-5.10457e-22
-1.44283e-22
-3.39616e-24
9.20402e-23
8.95283e-23
-1.35082e-21
-1.45327e-22
-3.47609e-22
8.63989e-22
-1.13857e-22
-8.84267e-23
-1.25464e-21
-3.97069e-24
3.40863e-22
-7.19495e-22
5.70442e-24
3.03049e-24
-4.16477e-22
7.19523e-24
-1.58627e-22
-4.24737e-25
-7.6684e-23
1.26668e-23
-1.03595e-21
9.54891e-23
-3.10404e-22
9.15635e-23
-8.70794e-23
2.37548e-22
8.32304e-22
-2.71654e-22
-4.53705e-22
1.30217e-21
-8.26944e-25
7.67113e-22
6.27766e-22
-3.46133e-22
3.32837e-22
5.90181e-22
-2.45492e-23
7.86073e-22
1.53825e-23
8.82414e-23
-3.19147e-23
3.80313e-23
5.8386e-22
-1.97852e-23
-1.15432e-22
-5.00168e-22
4.06704e-23
-4.35185e-22
2.14201e-23
1.99106e-23
1.79413e-22
3.56017e-24
-1.22515e-21
-4.4404e-22
2.11884e-22
-8.06867e-22
2.13237e-22
-1.37956e-22
-2.8392e-23
9.24622e-22
4.70549e-24
4.2623e-23
3.6248e-22
2.68003e-22
-4.97969e-22
-3.58585e-22
2.02615e-23
1.79511e-22
-2.73481e-22
-3.09045e-23
-3.28509e-22
-8.47894e-22
4.75315e-22
-4.90348e-24
5.4771e-24
5.16358e-23
4.01392e-22
-7.73719e-24
4.62782e-24
5.41642e-22
-4.17419e-25
4.68425e-24
4.68772e-23
-7.05274e-24
5.96552e-24
1.44048e-22
6.00608e-22
-4.64119e-22
-8.34124e-23
-2.04051e-22
-3.10216e-22
4.75405e-22
5.64495e-22
-3.89897e-23
9.44248e-23
5.36624e-22
-2.08533e-22
-1.04282e-22
-1.14247e-22
1.81846e-22
3.22666e-22
-1.80122e-22
-9.7103e-22
2.07636e-22
2.23016e-24
-4.46636e-22
-4.37823e-22
-1.65462e-24
-3.1363e-23
-2.27688e-22
-3.36379e-23
-5.80741e-22
-1.95436e-24
3.93455e-22
-1.23671e-22
5.63608e-22
1.21205e-21
2.49099e-21
9.52804e-23
-6.15156e-23
3.1724e-22
-3.47597e-22
-1.15192e-22
-1.42523e-22
5.93428e-24
3.28909e-23
7.47752e-22
4.66077e-22
2.16827e-21
-6.89281e-22
-6.41528e-22
8.16942e-22
1.51604e-21
-5.79559e-22
-5.94955e-22
-1.53214e-23
2.97227e-21
1.06135e-21
-4.92451e-21
-7.53077e-21
-4.36597e-21
2.07818e-21
1.44111e-21
-1.595e-22
1.16104e-22
2.3632e-22
-3.93312e-22
3.39437e-22
1.68953e-21
1.68451e-21
-1.07248e-21
-5.13427e-22
1.28071e-22
-3.35771e-23
2.08029e-22
7.54938e-22
-1.03082e-21
3.10036e-24
1.83094e-22
1.0403e-22
-1.98098e-24
5.87192e-22
1.51889e-21
5.06605e-24
-2.39785e-21
9.30953e-22
1.2851e-21
-1.08712e-21
1.08679e-21
4.64783e-22
1.87117e-22
1.67913e-22
1.12231e-22
-3.72996e-22
7.87753e-25
6.20425e-24
4.88873e-22
1.75206e-22
-1.41205e-22
-1.03307e-21
-2.86057e-22
4.07627e-22
2.10546e-21
8.36024e-22
-1.82202e-22
6.90099e-24
-6.83658e-22
-5.3597e-22
-4.54984e-22
2.4514e-22
2.44112e-21
2.35483e-21
6.20984e-22
-1.65743e-21
-1.12627e-21
1.68241e-23
1.04766e-21
1.30282e-21
1.22329e-22
-7.76394e-22
-1.49329e-21
-8.01844e-22
-4.69761e-22
-6.47287e-22
-1.03483e-21
-1.32426e-21
-5.89948e-22
-2.58443e-21
-2.10704e-21
-1.63509e-21
3.04967e-21
4.48573e-21
1.63299e-22
1.86239e-22
1.47995e-26
-4.04987e-22
-4.03894e-22
5.5983e-22
-3.93382e-22
-7.12214e-22
-1.61415e-23
4.3352e-22
-2.18677e-21
-9.19083e-22
-8.4864e-22
-1.29699e-22
1.65839e-21
2.9684e-22
1.46594e-21
4.94207e-21
4.25757e-21
7.74136e-22
-1.8594e-21
-1.09249e-21
1.51962e-22
-4.89296e-23
5.85064e-22
6.27835e-23
-2.28675e-22
6.78967e-22
1.19107e-21
-1.11289e-21
-1.41333e-21
5.42081e-22
6.4208e-22
-6.34734e-22
-5.20548e-22
2.95696e-22
1.41029e-21
9.482e-22
9.00693e-24
-6.37228e-23
5.46345e-22
-5.50223e-22
-7.01911e-22
1.5935e-24
-1.20048e-21
-5.73018e-22
1.56864e-21
1.12033e-21
9.63652e-22
6.50676e-24
-3.44901e-21
-1.06914e-21
2.84858e-20
3.26632e-19
3.80838e-18
4.71532e-17
5.45959e-16
6.09315e-15
6.54581e-14
6.78825e-13
6.78621e-12
6.53287e-11
6.04883e-10
5.38005e-09
4.59054e-08
3.75214e-07
2.93329e-06
2.18959e-05
0.000155779
0.00105422
0.00677138
0.0411817
0.23651
1.27885
6.48869
30.7763
135.873
555.654
2093.45
7222.63
22672.9
64333.5
163975
373464
757416
1.36634e+06
2.19946e+06
3.1972e+06
4.28e+06
5.38347e+06
6.46315e+06
7.48904e+06
8.44115e+06
9.30647e+06
1.00767e+07
1.07469e+07
1.13141e+07
1.17772e+07
1.21366e+07
1.23933e+07
1.25496e+07
1.26086e+07
1.25743e+07
1.24513e+07
1.2245e+07
1.19613e+07
1.16067e+07
1.11877e+07
1.07115e+07
1.01853e+07
9.61609e+06
9.01102e+06
8.37707e+06
7.72101e+06
7.04938e+06
6.36847e+06
5.68433e+06
5.00266e+06
4.32887e+06
3.66826e+06
3.02611e+06
2.40775e+06
1.81856e+06
1.26431e+06
751487
287922
-116454
-448290
-688820
-811545
-780761
-554925
-100512
573731
1.3756e+06
2.09975e+06
2.42255e+06
2.07123e+06
1.02161e+06
-425499
-1.79698e+06
-2.68728e+06
-2.80591e+06
-2.10501e+06
-724028
1.17813e+06
3.59906e+06
6.41723e+06
9.65651e+06
1.36859e+07
1.89951e+07
2.54884e+07
3.11408e+07
3.2704e+07
2.84715e+07
2.01066e+07
1.11587e+07
4.34916e+06
435570
-1.24769e+06
-1.7688e+06
-1.78812e+06
-1.29066e+06
-436446
-187490
-414667
500904
851914
-1.87009e+06
-240734
7.33886e+06
-2.29117e+06
-1.69919e+07
2.39677e+07
4.30024e+07
-7.74297e+07
-6.70124e+06
4.13608e+08
2.24906e+08
2.03466e+07
701133
20398.6
553.304
15.0282
0.409881
0.0111858
0.00030525
8.32915e-06
2.27249e-07
6.19965e-09
1.69121e-10
4.61319e-12
1.25834e-13
3.43076e-15
9.3766e-17
2.53816e-18
7.09488e-20
2.94024e-21
4.45871e-22
7.83783e-23
4.58922e-23
-2.68972e-24
-5.03048e-23
5.40421e-23
2.28868e-23
-9.68524e-23
-3.66314e-23
9.60596e-23
-6.88853e-23
6.54168e-25
-2.58204e-23
1.19442e-23
3.76982e-24
4.30982e-23
1.82485e-22
1.11599e-22
-2.34154e-22
2.88109e-25
1.06857e-22
5.20138e-25
-1.1739e-22
7.74425e-23
-6.4206e-23
1.58535e-23
3.13826e-23
-2.59885e-24
4.33669e-23
2.13117e-23
-7.54505e-23
-2.26677e-23
-3.39753e-23
-4.77099e-23
6.85779e-25
8.50627e-29
-1.05994e-23
5.12761e-23
6.53482e-23
-1.47046e-23
-5.52865e-26
-4.27352e-23
4.23286e-24
2.16332e-23
2.72889e-25
-5.41284e-23
8.29109e-23
2.22362e-23
-3.82064e-23
4.66821e-25
-1.12232e-22
-2.97599e-23
-1.00644e-22
-1.7569e-23
3.54622e-24
-6.11679e-24
4.23983e-23
1.03588e-22
-6.37322e-23
1.26723e-23
-3.70131e-23
7.77793e-23
-4.01193e-23
-3.10203e-23
3.53986e-25
-3.92142e-25
-8.68422e-23
3.0072e-23
2.09421e-23
2.16417e-23
-1.33091e-22
-3.58489e-25
6.06036e-24
-7.39351e-25
-5.2192e-23
-3.3046e-23
-4.9943e-23
8.33642e-23
-8.51785e-23
-8.47879e-24
-3.55684e-23
1.46528e-23
-2.39529e-22
-9.58093e-25
1.05439e-22
-5.76302e-26
-1.99274e-23
-5.76336e-23
6.77626e-25
-3.98213e-23
-1.69733e-23
-3.32473e-23
1.8271e-22
8.53606e-23
6.85527e-23
-8.77114e-24
1.26236e-22
-9.21148e-23
-6.83216e-24
-1.07473e-22
-1.04764e-23
6.77231e-23
1.00516e-22
4.01094e-23
1.56826e-22
-6.1775e-23
-1.37087e-22
-1.5238e-22
2.12487e-23
-3.6737e-24
8.58817e-27
-8.49325e-23
5.07622e-23
-6.74134e-24
-5.5231e-25
3.07215e-23
6.49224e-25
-5.5002e-24
-4.73192e-23
3.27e-23
7.50549e-23
1.20157e-22
2.12728e-22
8.01787e-23
6.99157e-23
-1.1315e-22
1.86953e-22
2.0349e-22
7.95649e-23
9.80319e-23
-2.65156e-23
1.46386e-23
-2.08068e-23
-1.22221e-23
7.04187e-25
-2.53313e-23
-1.41739e-23
3.52907e-26
2.07309e-25
5.10257e-24
-2.03842e-23
5.47264e-23
3.11977e-23
1.48911e-24
2.30959e-23
-1.05975e-22
-5.64255e-25
7.68632e-24
-1.9182e-22
1.76264e-22
3.13263e-22
2.29247e-22
4.82448e-23
-7.00541e-23
-9.56677e-23
-2.92763e-22
-2.17507e-22
2.77794e-22
5.63264e-22
1.57393e-22
3.34395e-24
-1.45163e-23
-8.39804e-23
-4.85459e-23
1.72954e-26
5.6459e-23
4.29979e-22
1.10028e-22
9.17045e-23
-3.84706e-23
-2.94825e-22
-6.00392e-23
-3.36304e-22
-1.97654e-22
-7.91023e-23
2.56879e-24
2.14155e-22
5.05374e-22
2.74376e-22
2.15634e-22
-1.43071e-22
-1.19161e-22
2.42193e-23
2.2541e-24
-1.7109e-25
2.48483e-22
8.1876e-23
-1.27061e-22
-9.33691e-23
6.73837e-23
4.11418e-23
8.49131e-23
1.58893e-23
-3.77635e-24
-2.57385e-25
-6.82769e-23
-1.44946e-22
3.58694e-24
2.94284e-22
2.22127e-22
-7.90213e-23
-3.91941e-23
8.04542e-23
4.42057e-23
2.61185e-23
-1.23189e-22
-4.89615e-22
-1.75527e-22
-6.09848e-23
1.94025e-22
-6.01089e-23
-5.89757e-23
-8.15661e-23
-1.62036e-22
-2.8344e-24
6.21734e-27
7.06887e-23
1.83958e-22
3.48084e-22
1.31379e-22
6.05245e-23
1.49659e-22
-3.43353e-24
9.27628e-26
8.82826e-23
1.61624e-22
1.04775e-22
-2.76414e-23
6.49999e-25
9.98895e-26
3.00212e-22
2.98722e-22
-1.63966e-22
-6.65555e-22
-1.68488e-22
-5.12669e-23
1.68721e-23
1.10919e-23
-3.15934e-23
1.3954e-23
4.5838e-26
-1.43288e-22
2.44625e-24
1.90873e-25
1.72646e-25
5.4421e-23
2.63061e-23
7.32177e-23
2.75215e-25
7.73435e-23
-4.73411e-23
5.23361e-23
2.58536e-22
3.28476e-22
3.92461e-22
1.05015e-22
2.43016e-22
1.32472e-22
-2.65129e-22
-3.05931e-22
-1.25968e-22
5.11485e-22
3.48326e-22
1.54829e-22
-4.44373e-23
-1.3227e-22
6.47206e-25
1.44488e-22
1.19314e-24
-3.77771e-23
2.04859e-23
5.74816e-23
2.08351e-23
3.28705e-23
-1.02134e-22
3.6332e-24
-9.78449e-23
-1.05627e-22
-7.05144e-25
-6.34612e-25
6.53397e-25
4.48101e-23
5.47082e-25
-1.25437e-24
9.97134e-25
-2.24262e-22
1.95959e-24
2.71041e-22
6.54392e-23
1.74311e-23
2.3697e-23
5.41057e-23
4.94562e-23
1.50393e-22
1.74382e-22
-5.20086e-23
-1.12447e-22
1.17509e-22
2.52412e-24
-4.8047e-23
1.79876e-22
-9.48232e-23
-7.68997e-23
3.51371e-22
2.41811e-22
-1.91013e-22
-5.13566e-22
-1.78474e-22
2.63704e-24
2.92618e-22
3.09704e-23
8.09292e-23
-1.06496e-22
-4.71833e-22
-2.90823e-22
1.22711e-22
6.43248e-23
1.89354e-22
1.54449e-22
2.36562e-22
-5.06107e-22
-4.13022e-22
-2.06798e-22
-8.09421e-23
-7.88535e-23
-1.42861e-23
1.35698e-23
-1.03632e-22
2.52451e-23
4.62874e-23
-2.5173e-25
2.13887e-23
1.23e-25
-5.60326e-23
-9.38811e-27
-5.95268e-23
5.44242e-23
1.75567e-22
1.06249e-22
-1.94416e-22
1.59827e-22
1.67155e-25
-1.69559e-25
-1.2924e-23
1.35576e-23
-6.69081e-23
1.41693e-23
1.33064e-24
-2.33781e-23
-4.23545e-24
-3.61434e-23
-1.56742e-22
-1.79106e-25
-6.6332e-25
-2.91938e-22
-9.71495e-23
-1.02077e-22
-2.85402e-22
4.72917e-25
5.29147e-22
1.70861e-24
-1.64687e-22
-2.54017e-23
4.5671e-25
-1.97694e-22
-1.84522e-22
4.31088e-25
7.28378e-25
3.53396e-25
-6.9086e-24
4.55812e-23
7.42696e-23
4.31274e-23
9.16018e-23
-8.84074e-23
-5.96298e-23
4.56712e-23
-4.44913e-25
5.39325e-23
5.77379e-24
-8.89245e-24
-2.17764e-25
3.36453e-22
-6.20392e-23
-1.10975e-21
-4.89027e-22
-1.04454e-24
5.18965e-23
3.26622e-22
1.834e-22
2.01124e-22
-1.19071e-22
-1.27941e-22
-3.39382e-26
1.04928e-22
1.35062e-22
6.77048e-23
1.44302e-23
-7.22045e-23
1.68138e-22
7.52473e-23
7.5495e-23
6.14001e-22
2.93215e-22
-2.26313e-22
-1.62577e-22
4.71939e-25
1.89069e-23
-6.52099e-23
-6.22057e-24
-2.77987e-23
-2.46665e-22
-3.84096e-22
-3.55316e-22
6.60986e-25
1.24147e-24
-1.91997e-22
-2.81143e-22
-1.50304e-26
2.43564e-22
1.60052e-22
5.90657e-23
4.8787e-25
4.54521e-23
-3.47595e-23
4.37539e-26
)
;

boundaryField
{
    sides
    {
        type            calculated;
        value           nonuniform List<scalar> 2(4.37539e-26 -1.00852e-21);
    }
    empty
    {
        type            empty;
    }
}


// ************************************************************************* //
