/*--------------------------------*- C++ -*----------------------------------*\
  =========                 |
  \\      /  F ield         | OpenFOAM: The Open Source CFD Toolbox
   \\    /   O peration     | Website:  https://openfoam.org
    \\  /    A nd           | Version:  13
     \\/     M anipulation  |
\*---------------------------------------------------------------------------*/
FoamFile
{
    format      ascii;
    class       volScalarField;
    location    "0.001";
    object      CrankNicolson:ddt0(rho,e);
}
// * * * * * * * * * * * * * * * * * * * * * * * * * * * * * * * * * * * * * //

dimensions      [1 -1 -3 0 0 0 0];

internalField   nonuniform List<scalar> 
1000
(
3.41084e-07
2.49827e-06
-9.46436e-07
6.11935e-07
-2.76862e-06
-2.38122e-06
5.34143e-10
1.66587e-06
-2.48995e-06
-1.77886e-06
-2.70837e-07
2.61271e-07
-1.43866e-09
-1.07547e-06
4.58827e-07
1.1129e-06
-3.2681e-06
2.06885e-07
2.09165e-06
2.6957e-06
-2.03577e-06
1.40627e-06
-1.70981e-07
3.54916e-07
8.21494e-07
9.56831e-07
-1.90947e-06
4.07674e-07
1.32864e-06
-4.87697e-06
5.60616e-07
-3.31318e-07
-2.78168e-07
-1.06419e-06
5.06894e-07
1.2556e-06
-9.17432e-07
2.22533e-06
-3.74944e-06
-4.085e-07
-1.36418e-06
-4.40114e-07
1.00943e-06
1.07701e-06
3.94272e-07
-2.55887e-06
2.57861e-07
-1.91847e-07
2.22222e-06
4.51826e-07
2.12663e-06
-5.96882e-07
1.36232e-07
-1.70812e-08
-3.20425e-06
1.16369e-07
1.24122e-10
1.0296e-07
1.00342e-06
2.01218e-06
2.68905e-06
1.27384e-07
-3.1271e-06
1.36159e-06
-1.10851e-06
-4.69894e-07
3.07131e-07
3.75255e-06
8.26869e-07
-1.37439e-06
-2.4638e-06
1.19011e-06
1.67121e-06
6.72478e-07
-5.42399e-07
2.80223e-06
-4.80106e-06
-1.94967e-06
5.76015e-07
1.58189e-06
4.04042e-07
1.05217e-06
1.03134e-07
2.37511e-07
2.22022e-06
-1.50626e-06
1.38797e-06
1.38146e-07
-1.18582e-06
1.89275e-06
1.08924e-06
-7.09916e-07
-1.77825e-07
-8.55362e-07
-1.01505e-07
-4.36585e-07
-1.31955e-06
1.08387e-06
2.59531e-06
-2.57834e-06
7.68341e-08
-2.3312e-06
-3.86653e-06
9.03426e-07
-7.12633e-09
2.1179e-06
4.90135e-07
-2.56023e-06
3.39993e-06
-2.20522e-06
-8.03987e-07
-6.0142e-07
-3.32601e-07
4.71966e-07
3.01972e-07
-2.64848e-06
-1.27478e-06
1.01966e-06
2.41027e-07
2.48656e-06
-4.55596e-08
1.11623e-06
6.85328e-08
1.9918e-06
1.48367e-06
3.73053e-07
-1.63705e-06
-1.14051e-06
-2.76627e-06
-2.55735e-06
-7.39544e-07
1.40181e-06
2.21817e-06
-3.70987e-06
2.77147e-06
3.77787e-06
3.35592e-06
2.12892e-06
1.09286e-07
2.1486e-06
-1.23638e-06
-4.30578e-08
2.89426e-07
4.35939e-06
-8.01884e-07
-7.01835e-07
2.07582e-08
-1.08913e-06
-2.6541e-06
3.30413e-06
-8.18795e-07
-3.2839e-06
-1.3449e-07
-5.45696e-07
2.0053e-07
2.93382e-08
1.23565e-08
-5.39861e-07
-1.33215e-06
-2.04964e-06
5.45699e-07
2.17849e-06
2.24621e-07
2.72991e-06
-8.33152e-07
2.89949e-06
1.53375e-06
-1.81035e-06
8.38601e-07
1.26076e-06
1.17613e-06
-2.42572e-06
1.11415e-06
-9.02983e-07
1.53172e-06
1.53183e-06
2.71773e-07
-3.49849e-08
2.44755e-06
8.92986e-07
-1.23215e-06
-1.58379e-06
1.17219e-06
-2.8991e-07
4.00386e-07
1.28438e-06
-2.20903e-06
6.61596e-07
8.61e-07
1.84086e-06
1.7481e-08
-1.40426e-06
2.96015e-06
2.79202e-06
2.83947e-06
8.55544e-07
-4.56115e-06
3.6751e-06
-1.46191e-06
7.76733e-08
5.83301e-07
8.78629e-07
3.71765e-06
4.85755e-07
2.21882e-07
1.90998e-06
5.45686e-07
1.65052e-06
6.75726e-07
1.10161e-08
-1.43245e-06
-1.73804e-09
-5.60577e-07
1.22687e-06
2.96425e-06
-1.44583e-06
-1.0719e-06
-5.75117e-08
-1.31561e-06
-2.05169e-07
1.96258e-06
5.2335e-07
-3.70849e-07
3.51326e-07
-1.6525e-06
-4.30669e-07
-2.09429e-06
2.35654e-06
1.63083e-06
9.72395e-08
3.2733e-06
7.96308e-07
1.16974e-06
3.87241e-06
-1.18113e-06
-8.61378e-07
5.85699e-08
-6.46615e-07
-1.37072e-06
-1.04455e-06
-1.43092e-06
-6.83799e-08
-2.56841e-06
4.60527e-06
-8.66628e-08
2.73411e-13
1.03619e-10
2.7258e-06
2.75481e-07
1.89024e-06
-7.93745e-07
3.83898e-07
1.61867e-06
-1.13915e-06
-8.90953e-08
3.01586e-07
-4.8439e-07
1.85056e-06
3.51944e-07
-6.5622e-07
2.80956e-06
-4.39727e-08
1.5786e-06
-2.68788e-07
-1.37027e-06
4.1432e-07
-3.42976e-08
-2.24145e-06
-1.39781e-06
-3.20597e-06
3.19744e-08
-1.12527e-06
-4.72119e-07
-1.16903e-07
3.42325e-06
-1.09445e-06
2.59238e-06
6.92761e-07
-7.47923e-07
-1.30453e-06
9.01714e-08
1.49187e-06
7.8402e-07
2.07916e-07
-1.91318e-06
-6.11886e-07
1.17772e-06
4.9493e-07
-3.66072e-08
-2.08068e-06
-2.66247e-06
1.53527e-06
-1.66214e-07
1.22183e-06
3.0754e-06
1.47296e-06
1.19768e-06
2.62261e-06
-2.43034e-07
-1.95552e-06
9.75934e-09
-2.34519e-08
-2.88893e-06
2.12143e-06
-1.79543e-06
3.11164e-06
3.70036e-06
2.8944e-06
2.57462e-07
1.84297e-06
-4.65852e-07
1.42638e-06
5.44891e-07
-9.83184e-07
-3.05869e-07
2.74514e-06
2.35239e-06
1.8393e-06
1.31924e-06
-2.41599e-06
-5.925e-07
-1.3728e-06
-3.80497e-06
-1.33833e-06
-3.31073e-08
-2.23659e-06
-1.35097e-07
-3.72895e-06
4.03211e-07
-1.40157e-07
2.90527e-06
3.72614e-06
2.68381e-07
3.51254e-06
-2.77914e-06
3.58092e-07
-2.7912e-06
1.06154e-06
-4.28119e-07
-3.38939e-07
-4.90146e-07
-2.20004e-06
-7.52704e-07
7.8684e-07
1.99609e-06
-1.42491e-07
-1.56701e-06
3.96634e-07
-1.16362e-06
-2.81283e-06
2.58854e-06
7.20097e-07
-1.71113e-06
-1.39498e-06
7.21553e-07
5.24544e-07
-7.19817e-07
1.62122e-07
1.43673e-06
-6.41378e-07
1.6351e-06
-1.06254e-06
-9.81148e-07
-2.42148e-06
-1.22361e-06
1.12697e-06
-1.4871e-06
1.20708e-06
5.41528e-07
4.80931e-07
-2.45257e-06
-3.24427e-07
1.1157e-06
4.17695e-07
1.11728e-06
-1.28885e-06
4.05829e-07
3.82649e-06
-1.5531e-06
6.41641e-07
-6.82018e-07
1.23892e-06
-1.54407e-07
-2.05662e-06
-3.40941e-06
-2.16175e-06
-5.67723e-08
-2.39725e-07
2.6254e-06
-9.52582e-07
1.36566e-06
3.30112e-06
-3.68858e-06
-4.07984e-06
5.92398e-07
2.61526e-06
1.89709e-06
-1.73257e-06
2.64679e-06
9.33032e-07
1.67515e-08
-2.85913e-06
2.50572e-06
-1.96671e-06
1.95151e-06
-2.005e-06
2.31288e-07
-6.38551e-07
8.88643e-07
9.93497e-07
-4.27163e-08
-2.85679e-07
1.68263e-06
1.56024e-06
-2.60429e-08
-4.63325e-07
1.49779e-06
-1.32859e-06
-2.23394e-06
-7.15575e-07
2.81631e-07
1.90131e-06
2.0143e-06
-5.51202e-07
1.41514e-06
-1.79032e-07
-1.96474e-06
-2.90959e-06
-5.72748e-06
-1.86397e-05
-5.65392e-05
-0.000201513
-0.000677961
-0.00223657
-0.00728851
-0.0233074
-0.0731428
-0.225176
-0.679585
-2.00931
-5.81605
-16.4683
-45.5779
-123.183
-324.798
-834.589
-2087.44
-5075.33
-11977.9
-27393.1
-60592.4
-129349
-265818
-524322
-989277
-1.77835e+06
-3.03205e+06
-4.87876e+06
-7.37032e+06
-1.04022e+07
-1.36602e+07
-1.6649e+07
-1.88292e+07
-1.99292e+07
-2.00892e+07
-1.95762e+07
-1.86161e+07
-1.73716e+07
-1.59562e+07
-1.44483e+07
-1.29022e+07
-1.1356e+07
-9.83676e+06
-8.36399e+06
-6.95194e+06
-5.61127e+06
-4.34997e+06
-3.17406e+06
-2.08804e+06
-1.09519e+06
-197705
603171
1.30705e+06
1.91433e+06
2.42614e+06
2.84426e+06
3.17107e+06
3.40946e+06
3.56278e+06
3.63476e+06
3.62951e+06
3.5514e+06
3.40514e+06
3.19578e+06
2.92868e+06
2.60971e+06
2.24543e+06
1.84336e+06
1.4124e+06
963429
509938
69025.7
-337574
-682589
-933023
-1.05177e+06
-1.00312e+06
-764068
-343559
198738
736792
1.10648e+06
1.16151e+06
718641
-270608
-1.63455e+06
-3.01542e+06
-3.96213e+06
-4.07127e+06
-2.9363e+06
-887356
193794
-4.10486e+06
-2.06318e+07
-5.56799e+07
-1.06911e+08
-1.60645e+08
-2.00159e+08
-2.15162e+08
-2.04412e+08
-1.72588e+08
-1.28132e+08
-8.11468e+07
-4.04983e+07
-1.13751e+07
5.16499e+06
1.11241e+07
1.01786e+07
6.46554e+06
3.03895e+06
611236
-984564
-627045
719870
-1.11204e+06
-2.1299e+06
5.26982e+06
3.33966e+06
-1.67577e+07
3.93261e+06
5.07749e+07
-2.7679e+07
-8.92523e+07
2.95544e+08
2.18849e+08
811130
-7.32204e+06
-953774
-144468
-24160.8
-4023.05
-666.152
-110.106
-18.1905
-3.00482
-0.496323
-0.0819768
-0.0135395
-0.00223581
-0.000368787
-6.18087e-05
-1.03477e-05
-6.98749e-07
1.11187e-07
8.50652e-08
-6.72877e-07
-5.86109e-07
4.16872e-07
-3.24045e-07
3.66239e-07
-3.44277e-08
2.70125e-07
-7.22085e-08
-6.29213e-07
-2.71125e-07
-2.08933e-07
5.45134e-07
-2.98593e-08
2.40286e-07
-5.37903e-07
-5.61098e-07
6.54348e-07
2.56778e-07
3.82361e-08
-1.30961e-07
-3.40253e-07
2.97362e-07
4.45377e-07
-7.3476e-08
-1.35475e-08
-4.73963e-09
-6.28383e-11
3.24011e-07
-3.3253e-07
-1.84061e-07
-8.31306e-08
-3.52718e-07
-4.75878e-07
-3.83452e-08
4.09033e-09
-1.36699e-07
-2.36611e-07
4.07654e-15
-1.26054e-13
6.46384e-09
-1.38475e-08
-8.34124e-09
-3.749e-07
6.77725e-07
3.85292e-07
-5.86198e-07
1.87583e-07
8.52385e-07
-3.09336e-09
-3.24606e-07
2.5657e-07
1.13576e-08
-4.46843e-07
-1.19083e-07
6.13174e-09
-1.97858e-07
2.91034e-07
5.59583e-08
5.68411e-07
-2.18659e-08
-3.58218e-07
1.1001e-06
2.14699e-07
-1.3642e-07
4.79372e-07
5.19146e-13
1.36415e-07
4.41639e-10
3.08023e-07
-2.66258e-07
5.41564e-07
-9.87143e-08
-9.23524e-07
5.61993e-07
4.09255e-07
-1.24288e-07
2.10629e-07
-7.22112e-07
6.82253e-07
-8.78228e-07
-5.40901e-08
8.21551e-07
-7.24754e-07
-8.36978e-15
-2.55879e-08
2.22576e-07
-6.86088e-07
3.85839e-07
-1.21223e-06
8.87024e-07
-7.34143e-07
1.21851e-08
5.39899e-07
3.7863e-07
-5.02552e-07
3.40796e-07
5.94782e-07
-5.3996e-07
2.73898e-07
1.34123e-07
2.87767e-07
4.15695e-07
6.71243e-07
5.29155e-07
-1.19263e-06
-3.09257e-07
6.47764e-07
3.72286e-07
-1.00918e-08
1.12163e-08
7.7031e-08
-1.38405e-07
9.54969e-07
1.36476e-07
-1.22778e-06
2.81527e-07
-2.34462e-07
-5.10905e-08
3.39012e-07
-8.27089e-08
2.25919e-07
-1.36492e-07
4.12214e-07
1.73613e-08
-8.06798e-07
-4.51269e-07
8.08127e-08
-5.01828e-07
8.08018e-08
2.04263e-09
1.28591e-07
-2.71929e-07
-3.54338e-07
-4.86086e-07
8.49749e-09
1.60292e-10
-1.47948e-07
-1.93489e-08
-2.13174e-08
1.19379e-07
-1.36424e-07
6.99173e-07
5.52058e-07
1.1031e-07
-3.71264e-07
-8.18545e-07
8.52586e-07
4.46352e-07
3.22987e-07
3.2444e-07
2.10762e-07
1.31558e-07
6.85451e-08
-2.57091e-07
4.52058e-07
2.0247e-07
-3.46184e-07
-4.88665e-07
-4.02338e-08
8.1653e-07
-4.68754e-07
-1.16097e-07
1.48148e-07
1.91579e-07
1.47081e-07
-1.74729e-07
2.74613e-07
-2.35143e-07
-2.38805e-07
-4.49476e-07
1.42272e-08
4.13985e-07
-5.22971e-07
-5.46562e-07
-4.10388e-08
6.4867e-07
-6.5348e-07
7.37193e-07
3.6082e-07
5.67758e-07
9.08482e-07
3.61204e-08
-5.15056e-07
4.8266e-07
-5.71088e-07
6.0523e-07
1.13908e-07
-4.13367e-08
-3.48985e-08
-3.46378e-09
2.72689e-07
4.06599e-10
2.78511e-07
2.70948e-07
8.16719e-07
-2.33642e-07
-1.14096e-06
4.01015e-07
7.81617e-08
2.43794e-07
-2.64333e-07
4.30674e-09
-4.90274e-07
-2.41046e-07
2.18915e-07
-8.75857e-07
1.69858e-07
-1.9727e-07
-8.32407e-08
-6.13943e-07
2.7229e-07
-3.80718e-07
1.61492e-08
-4.0886e-07
9.55051e-07
-8.35482e-07
-1.02243e-07
-6.82137e-07
-6.47225e-07
-3.06879e-07
-3.53506e-08
-3.3928e-07
6.94376e-07
-2.40258e-07
3.40747e-08
6.82387e-07
8.1912e-07
3.46639e-07
3.77626e-08
-3.05768e-07
-6.08592e-07
2.46638e-09
-1.29267e-07
1.01779e-07
1.84368e-07
-3.42491e-07
3.67565e-07
1.28127e-08
-3.30273e-08
6.49592e-08
-8.43728e-07
-4.09371e-07
2.99562e-07
-6.99469e-08
-1.41887e-07
-1.34758e-07
-9.11435e-08
5.80858e-07
-8.35565e-07
-4.44895e-08
-2.76313e-07
-2.97917e-11
-2.33479e-07
5.0559e-07
-2.82705e-09
-2.77608e-07
-1.9361e-07
2.91721e-07
4.25493e-07
3.52324e-07
1.68353e-07
-8.34547e-07
3.40755e-07
-3.72808e-07
1.15907e-06
5.89999e-07
3.04015e-07
3.91222e-07
1.42841e-07
-6.78434e-07
1.16049e-07
-5.24143e-08
2.83641e-08
-9.54045e-07
-1.70629e-07
4.10384e-07
-2.36758e-09
-2.47582e-07
2.23206e-07
2.66692e-07
9.55171e-07
-5.59017e-07
-5.99729e-07
-8.28712e-09
-1.28116e-08
6.05576e-07
4.29179e-08
-3.13133e-07
-9.61254e-07
2.58127e-08
-1.70489e-08
-5.79901e-07
-3.38396e-07
-1.12976e-07
-3.38642e-08
-1.96634e-07
-4.55881e-10
-8.02157e-08
-6.8536e-07
2.94446e-08
6.22878e-08
-1.0618e-07
2.5925e-12
4.17e-07
-2.7302e-07
2.86346e-07
4.66466e-09
9.96953e-08
-4.15256e-07
-2.30219e-07
-3.51771e-07
1.36318e-07
8.12117e-07
-2.72582e-07
-1.14934e-08
-2.75983e-07
-1.5341e-07
-2.95297e-07
-3.02679e-07
-1.19369e-07
-6.50823e-07
4.9256e-07
4.4273e-08
-5.9832e-08
3.6554e-07
4.34246e-07
-1.01661e-06
1.947e-07
-1.75835e-07
2.24336e-08
-1.5961e-07
1.01262e-07
-7.72914e-08
-2.77324e-07
2.76246e-07
-3.40679e-09
5.85935e-08
2.03911e-07
-8.84459e-08
-7.79436e-07
2.42617e-09
5.15854e-07
-1.22531e-07
-3.28205e-07
4.73235e-07
1.8587e-07
-6.6136e-07
-9.20864e-07
2.09021e-07
2.89297e-07
-3.94536e-10
1.99589e-10
4.06759e-11
-3.41127e-07
-3.15531e-07
3.49339e-07
-4.66956e-07
-1.77675e-07
1.63431e-07
-1.35172e-07
1.74369e-07
-4.77487e-07
-7.01023e-07
-2.12099e-07
-6.89045e-07
5.65794e-07
6.86439e-07
-4.00514e-07
2.21677e-07
-3.06886e-07
-1.34439e-07
-1.19e-06
-4.25024e-08
1.01362e-07
-3.17772e-07
-1.12204e-09
3.23749e-07
-3.06289e-07
3.6025e-08
2.92841e-09
8.85018e-07
-2.02771e-07
-7.54808e-08
-9.33911e-07
-3.58009e-07
-4.39705e-07
1.58109e-07
-2.03366e-07
1.25198e-08
-3.00692e-08
1.11118e-07
-6.76669e-08
3.97846e-07
-4.37353e-07
-8.61628e-07
4.03464e-08
-1.81337e-08
6.03977e-07
-9.603e-07
-4.69015e-08
3.07125e-07
-1.64848e-08
-1.20623e-06
-1.02917e-08
-1.17548e-07
7.65554e-08
2.61976e-07
4.5305e-08
-1.63689e-07
-1.72666e-07
-6.71859e-09
-1.0018e-06
6.10699e-07
-3.26425e-07
3.79373e-07
-6.31291e-07
-1.09409e-07
1.10994e-07
-5.63838e-07
6.82107e-07
-9.88404e-07
-3.4108e-07
2.56459e-08
-3.77034e-07
-4.15649e-08
)
;

boundaryField
{
    sides
    {
        type            calculated;
        value           nonuniform List<scalar> 2(-4.15649e-08 3.41084e-07);
    }
    empty
    {
        type            empty;
    }
}


// ************************************************************************* //
