/*--------------------------------*- C++ -*----------------------------------*\
  =========                 |
  \\      /  F ield         | OpenFOAM: The Open Source CFD Toolbox
   \\    /   O peration     | Website:  https://openfoam.org
    \\  /    A nd           | Version:  13
     \\/     M anipulation  |
\*---------------------------------------------------------------------------*/
FoamFile
{
    format      ascii;
    class       volScalarField;
    location    "0.001";
    object      mag(U);
}
// * * * * * * * * * * * * * * * * * * * * * * * * * * * * * * * * * * * * * //

dimensions      [0 1 -1 0 0 0 0];

internalField   nonuniform List<scalar> 
1000
(
3.35508e-13
1.50735e-13
3.98719e-13
1.65323e-13
2.82021e-13
8.75238e-14
3.64682e-13
9.72486e-15
2.82021e-13
4.86243e-15
1.6046e-13
9.23862e-14
2.23672e-13
2.43122e-14
1.55598e-13
1.75048e-13
5.34868e-14
3.64682e-13
2.77159e-13
1.9936e-13
3.88995e-14
2.96608e-13
2.04222e-13
1.7991e-13
3.45233e-13
1.11836e-13
5.83492e-14
9.23862e-14
3.4037e-14
1.11836e-13
2.28534e-13
1.16698e-13
9.23862e-14
9.72486e-15
6.32116e-14
5.34868e-14
3.4037e-14
1.06974e-13
4.92249e-28
1.36148e-13
1.94497e-13
4.86243e-14
8.75238e-14
1.11836e-13
1.50735e-13
2.43122e-14
9.72486e-14
1.50735e-13
1.94497e-14
9.72486e-15
3.93857e-13
7.77989e-14
2.82021e-13
3.5982e-13
2.33397e-13
6.8074e-14
2.91746e-14
1.45873e-14
1.55598e-13
8.26613e-14
2.43122e-13
1.36148e-13
7.29365e-14
3.88995e-14
9.72486e-15
6.32116e-14
7.29365e-14
8.75238e-14
1.75048e-13
2.72296e-13
3.54958e-13
3.54958e-13
1.6046e-13
1.89635e-13
3.35508e-13
2.47984e-13
3.88995e-14
6.8074e-14
2.43122e-13
7.29365e-14
9.23862e-14
2.91746e-13
3.30645e-13
1.50735e-13
2.62571e-13
1.50735e-13
1.55598e-13
3.01471e-13
1.65323e-13
4.27894e-13
1.94497e-14
1.70185e-13
1.6046e-13
1.16698e-13
1.94497e-13
9.72486e-15
1.21561e-13
7.29365e-14
5.83492e-14
3.4037e-14
2.04222e-13
3.01471e-13
3.4037e-13
1.36148e-13
8.75238e-14
4.86243e-14
5.34868e-14
2.43122e-13
1.75048e-13
2.43122e-13
1.65323e-13
4.32756e-13
3.20921e-13
3.54958e-13
5.05693e-13
2.18809e-13
6.8074e-14
4.86243e-15
2.77679e-28
2.43122e-14
7.29365e-14
8.75238e-14
8.26613e-14
1.11836e-13
1.41011e-13
3.98719e-13
4.32756e-13
2.62571e-13
1.55598e-13
3.4037e-13
5.15418e-13
4.57069e-13
3.50095e-13
2.23672e-13
4.32756e-13
1.84772e-13
1.75048e-13
9.23862e-14
2.09085e-13
2.57709e-13
1.45873e-13
1.94497e-14
1.16698e-13
4.37619e-14
1.84772e-13
1.50735e-13
5.83492e-14
6.8074e-14
3.69545e-13
1.50735e-13
1.7991e-13
2.91746e-13
1.84772e-13
4.27894e-13
5.83492e-14
1.45873e-13
9.23862e-14
9.72486e-15
1.31286e-13
1.94497e-13
3.88995e-14
6.32116e-14
5.34868e-14
8.26613e-14
6.32116e-14
4.37619e-14
2.38259e-13
1.05707e-28
1.45873e-14
1.9936e-13
4.37619e-14
1.45873e-14
1.50735e-13
4.86243e-15
1.41011e-13
2.09085e-13
1.31286e-13
2.18809e-13
1.21561e-13
1.41011e-13
3.4037e-14
2.04222e-13
1.45873e-14
2.62571e-13
1.9936e-13
7.29365e-14
2.91746e-14
4.37619e-14
4.86243e-15
1.7991e-13
3.11196e-13
1.94497e-13
3.06333e-13
4.52206e-13
3.69545e-13
5.34868e-13
4.03582e-13
2.91746e-14
1.89635e-13
3.7927e-13
3.01471e-13
2.52846e-13
9.23862e-14
6.32116e-14
3.4037e-14
3.4037e-14
2.23672e-13
1.18171e-27
1.45873e-14
1.26423e-13
1.94497e-14
1.02111e-13
6.8074e-14
5.83492e-14
8.75238e-14
2.38259e-13
1.45873e-13
4.86243e-15
1.45873e-13
1.31286e-13
9.23862e-14
8.75238e-14
1.11836e-13
1.94497e-13
2.43122e-14
8.26613e-14
1.55598e-13
1.26423e-13
1.45873e-13
7.77989e-14
7.29365e-14
8.26613e-14
2.43122e-14
8.75238e-14
2.09085e-13
1.26423e-13
1.94497e-13
1.21561e-13
2.13947e-13
4.37619e-14
1.26423e-13
1.50735e-13
1.45873e-14
1.75048e-13
4.37619e-14
5.83492e-14
4.86243e-14
1.36148e-13
4.37619e-14
1.16698e-13
2.38259e-13
5.83492e-14
9.72486e-15
1.06974e-13
2.09085e-13
3.11196e-13
1.7991e-13
3.4037e-14
9.23862e-14
1.50735e-13
1.11836e-13
4.86243e-15
9.72486e-15
8.75238e-14
1.26423e-13
8.75238e-14
1.50735e-13
8.75238e-14
3.88995e-14
1.16698e-13
9.23862e-14
1.94497e-14
1.45873e-14
1.36148e-13
1.45873e-14
4.37619e-14
6.32116e-14
1.84772e-13
1.94497e-14
2.33397e-13
2.23672e-13
3.74407e-13
6.8074e-14
1.94497e-14
2.28534e-13
8.75238e-14
2.91746e-14
5.36425e-28
1.45873e-13
6.32116e-14
2.91746e-13
3.4037e-13
4.37619e-13
1.9936e-13
1.45873e-14
2.13947e-13
5.0083e-13
3.35508e-13
1.75048e-13
2.57709e-13
4.23032e-13
7.3909e-13
5.93217e-13
7.48815e-13
6.66153e-13
7.29365e-13
4.03582e-13
1.02111e-13
7.77989e-14
9.72486e-14
2.38259e-13
2.52846e-13
3.54958e-13
3.30645e-13
3.4037e-13
6.8074e-14
9.72486e-14
2.43122e-14
1.70185e-13
2.91746e-13
3.11196e-13
3.11196e-13
1.31286e-13
6.8074e-14
2.33397e-13
3.84132e-13
5.44592e-13
4.32756e-13
5.05693e-13
6.46703e-13
4.52206e-13
3.45233e-13
3.06333e-13
2.04222e-13
1.31286e-13
1.36148e-13
7.29365e-14
2.43122e-13
2.23672e-13
2.62571e-13
3.30645e-13
1.41011e-13
4.86243e-14
1.26423e-13
1.70185e-13
2.67434e-13
3.64682e-13
1.9936e-13
1.06974e-13
3.06333e-13
4.18169e-13
3.74407e-13
2.96608e-13
1.7991e-13
4.32756e-13
3.98719e-13
4.42481e-13
2.23672e-13
2.18809e-13
5.3973e-13
2.72296e-13
3.4037e-13
1.21561e-13
2.38259e-13
1.70185e-13
1.94497e-14
4.86243e-14
1.84772e-13
1.7991e-13
4.13307e-13
3.84132e-13
5.44592e-13
4.23032e-13
5.25143e-13
5.05693e-13
5.49455e-13
1.26423e-13
7.77989e-14
1.31286e-13
6.68954e-28
3.88995e-14
1.70185e-13
1.11836e-13
4.66793e-13
4.08444e-13
1.84772e-13
5.34868e-14
8.75238e-14
3.88995e-14
5.83492e-14
3.50095e-13
2.33397e-13
3.25783e-13
5.88354e-13
6.46703e-13
5.49455e-13
2.47984e-13
3.45233e-13
9.23862e-14
1.45873e-14
1.70185e-13
5.34868e-14
1.31286e-13
2.52846e-13
4.23032e-13
3.45233e-13
4.47344e-13
3.7927e-13
4.52206e-13
1.94497e-13
1.50735e-13
1.36148e-13
2.62571e-13
2.13947e-13
3.01471e-13
3.4037e-14
1.45873e-13
1.41011e-13
9.23862e-14
9.72486e-15
2.18809e-13
3.7927e-13
3.30645e-13
4.42481e-13
3.5982e-13
3.20921e-13
1.36148e-13
2.43122e-13
1.42955e-12
4.89161e-12
1.66684e-11
5.81061e-11
1.96734e-10
6.54201e-10
2.13488e-09
6.8461e-09
2.15592e-08
6.66376e-08
2.02047e-07
6.00581e-07
1.74902e-06
4.98683e-06
1.39103e-05
3.79304e-05
0.000101018
0.000262522
0.000665035
0.0016404
0.00393502
0.00916739
0.0207105
0.0452956
0.0957269
0.195091
0.382565
0.720152
1.2983
2.23665
3.67524
5.75307
8.57559
12.1799
16.5165
21.4715
26.9173
32.747
38.8813
45.2626
51.8491
58.6097
65.5213
72.5656
79.7283
86.9973
94.3624
101.814
109.345
116.947
124.613
132.335
140.108
147.925
155.779
163.664
171.574
179.503
187.445
195.393
203.341
211.28
219.203
227.1
234.959
242.768
250.51
258.164
265.704
273.096
280.298
287.251
293.882
300.091
305.749
310.688
314.693
317.496
318.789
318.246
315.605
310.79
304.074
296.186
288.34
282.064
278.722
278.932
282.31
287.69
293.535
298.294
300.765
300.437
297.655
293.606
290.109
288.854
290.347
293.409
295.77
295.709
293.497
291.094
290.242
291.013
292.225
292.858
292.806
292.563
292.542
292.738
292.908
292.954
292.941
292.832
292.696
292.88
292.964
292.128
292.072
293.894
291.619
285.655
292.357
292.293
227.505
102.939
24.3576
4.33954
0.727792
0.119775
0.0197717
0.00326623
0.000539593
8.91374e-05
1.47242e-05
2.43209e-06
4.01708e-07
6.63475e-08
1.0958e-08
1.80954e-09
2.99035e-10
4.92808e-11
8.20293e-12
1.55112e-12
7.5854e-13
4.27895e-13
2.62572e-13
5.83493e-14
1.45873e-14
1.70185e-13
1.06974e-13
2.3826e-13
5.83493e-14
5.05694e-13
3.54958e-13
2.43122e-14
1.21561e-13
4.86244e-14
1.94498e-14
2.57709e-13
3.64683e-13
6.02942e-13
3.88995e-13
6.61292e-13
3.06334e-13
2.28535e-13
1.7991e-13
1.70185e-13
6.80741e-14
7.7799e-14
1.89635e-13
4.86244e-15
2.57709e-13
1.11836e-13
1.65323e-13
1.02111e-13
1.70185e-13
9.72488e-14
4.86244e-15
2.3826e-13
4.86244e-14
1.75048e-13
2.09085e-13
6.32117e-14
1.45873e-14
8.26615e-14
4.86244e-14
7.7799e-14
1.6046e-13
1.11836e-13
1.9936e-13
1.31286e-13
1.94498e-13
1.26423e-13
2.67434e-13
3.88995e-14
2.33397e-13
9.72488e-15
4.86244e-14
1.94498e-14
1.50736e-13
2.04222e-13
3.40371e-13
7.29366e-14
5.83493e-14
2.28535e-13
7.29366e-14
1.65323e-13
8.75239e-14
4.3762e-14
1.9936e-13
1.84773e-13
1.21561e-13
9.72488e-14
1.89635e-13
1.45873e-13
3.88995e-14
4.86244e-15
2.77159e-13
5.83493e-14
4.3762e-14
4.47344e-13
1.11836e-13
9.72488e-15
1.89635e-13
9.72488e-14
2.43122e-13
3.40371e-14
2.47984e-13
1.26423e-13
8.26615e-14
2.77159e-13
3.40371e-14
1.84773e-13
7.7799e-14
1.65323e-13
3.7927e-13
1.70185e-13
1.70185e-13
2.91746e-14
1.9936e-13
2.91746e-14
1.94498e-14
2.57709e-13
3.88995e-14
2.23672e-13
2.28535e-13
1.26423e-13
2.96609e-13
4.86244e-15
1.89635e-13
1.94498e-14
9.23863e-14
4.86244e-15
7.29366e-14
1.9936e-13
1.65323e-13
9.72488e-15
1.6046e-13
1.75048e-13
1.94498e-14
1.94498e-14
8.26615e-14
1.6046e-13
4.23032e-13
3.30646e-13
4.47344e-13
2.62572e-13
4.03582e-13
6.1753e-13
9.48176e-13
5.83493e-13
4.66794e-13
2.47984e-13
4.3762e-14
9.72488e-14
9.72488e-14
2.91746e-14
9.23863e-14
1.21561e-13
6.32117e-14
1.45873e-13
3.30646e-13
4.3762e-14
8.26615e-14
2.91746e-13
1.84773e-13
5.83493e-14
9.23863e-14
2.52847e-13
1.02111e-13
8.75239e-14
1.70185e-13
3.35508e-13
4.61932e-13
6.12667e-13
2.86884e-13
3.7927e-13
2.3826e-13
1.89635e-13
1.75048e-13
5.54318e-13
5.54318e-13
3.16059e-13
3.88995e-14
5.83493e-14
5.83493e-14
4.86244e-15
2.62572e-13
1.6046e-13
6.66154e-13
1.9936e-13
1.84773e-13
6.80741e-14
3.35508e-13
5.83493e-14
2.1881e-13
7.7799e-14
4.13307e-13
6.07805e-13
3.5982e-13
5.7863e-13
4.32757e-13
4.52207e-13
2.23672e-13
1.6046e-13
1.50736e-13
6.80741e-14
2.1881e-13
4.76519e-13
4.52207e-13
3.16059e-13
1.41011e-13
2.1881e-13
2.33397e-13
2.67434e-13
8.75239e-14
1.45873e-14
3.40371e-14
1.41011e-13
1.50736e-13
3.88995e-14
4.61932e-13
4.32757e-13
4.3762e-14
2.43122e-14
2.04222e-13
1.31286e-13
1.70185e-13
3.11196e-13
4.27895e-13
9.23863e-14
2.43122e-14
2.82021e-13
3.40371e-14
2.96609e-13
1.75048e-13
2.47984e-13
4.3762e-14
5.83493e-14
3.93858e-13
5.30006e-13
5.49456e-13
3.9872e-13
3.54958e-13
3.25783e-13
4.3762e-13
4.95969e-13
5.15419e-13
4.61932e-13
3.16059e-13
1.31286e-13
1.89635e-13
1.21561e-13
4.08445e-13
5.73768e-13
4.27895e-13
5.05694e-13
1.45873e-13
1.06974e-13
8.26615e-14
6.80741e-14
4.86244e-14
9.72488e-14
2.91746e-14
2.13947e-13
1.94498e-14
4.86244e-13
2.67434e-13
3.16059e-13
1.7991e-13
1.55598e-13
3.50096e-13
1.7991e-13
1.06974e-13
1.36148e-13
5.25143e-13
5.20281e-13
7.73128e-13
6.02942e-13
6.95329e-13
7.14779e-13
4.3762e-13
3.7927e-13
6.85604e-13
6.1753e-13
5.5918e-13
3.50096e-13
7.29366e-14
1.75048e-13
2.91746e-14
3.93858e-13
3.88995e-14
1.9936e-13
1.16699e-13
3.20921e-13
1.26423e-13
1.89635e-13
2.47984e-13
4.86244e-14
2.28535e-13
8.75239e-14
3.11196e-13
1.06974e-13
1.45873e-14
2.62572e-13
2.62572e-13
1.94498e-14
6.80741e-14
2.47984e-13
3.06334e-13
5.54318e-13
3.69545e-13
1.21561e-13
1.50736e-13
1.50736e-13
1.50736e-13
2.57709e-13
4.86244e-13
2.77159e-13
1.75048e-13
3.54958e-13
6.80741e-14
2.62572e-13
3.5982e-13
5.00831e-13
8.75239e-14
5.5918e-13
3.93858e-13
5.00831e-13
4.76519e-13
4.66794e-13
8.99551e-13
7.92578e-13
1.41011e-13
1.94498e-13
2.57709e-13
3.20921e-13
3.50096e-13
3.50096e-13
1.55598e-13
3.30646e-13
2.62572e-13
6.75879e-13
4.61932e-13
7.00191e-13
5.34868e-13
4.27895e-13
4.03582e-13
6.32117e-14
4.3762e-14
2.47984e-13
9.72488e-14
1.21561e-13
6.80741e-14
9.23863e-14
5.34868e-14
4.86244e-14
1.7991e-13
1.26423e-13
3.06334e-13
3.20921e-13
5.7863e-13
4.95969e-13
3.40371e-13
1.31286e-13
1.45873e-13
5.83493e-14
8.75239e-14
1.55598e-13
1.06974e-13
1.11836e-13
9.72488e-15
1.45873e-14
6.32117e-14
2.33397e-13
4.08445e-13
5.9808e-13
3.40371e-13
5.15419e-13
5.30006e-13
4.81381e-13
6.1753e-13
7.73128e-13
4.08445e-13
4.13307e-13
1.31286e-13
3.20921e-13
4.86244e-13
4.47344e-13
2.86884e-13
1.06974e-13
1.6046e-13
9.72488e-15
1.26423e-13
1.7991e-13
1.50736e-13
2.77159e-13
4.71657e-13
1.31286e-13
1.36148e-13
1.21561e-13
1.65323e-13
6.32117e-14
4.3762e-14
5.83493e-14
4.3762e-13
2.91746e-13
5.00831e-13
2.67434e-13
9.72488e-15
3.01471e-13
5.00831e-13
3.69545e-13
5.7863e-13
1.65323e-13
9.72488e-14
1.94498e-14
2.04222e-13
2.3826e-13
3.93858e-13
7.29366e-14
1.6046e-13
4.66794e-13
2.52847e-13
4.52207e-13
7.29366e-13
8.02302e-13
5.88355e-13
4.3762e-13
4.86244e-14
1.06974e-13
1.31286e-13
1.94498e-14
2.91746e-14
2.77159e-13
2.57709e-13
4.03582e-13
1.50736e-13
8.26615e-14
1.9936e-13
4.47344e-13
5.73768e-13
5.05694e-13
2.82021e-13
1.94498e-13
3.40371e-14
1.70185e-13
1.45873e-14
1.63607e-27
)
;

boundaryField
{
    sides
    {
        type            calculated;
        value           nonuniform List<scalar> 2(1.63607e-27 3.35508e-13);
    }
    empty
    {
        type            empty;
    }
}


// ************************************************************************* //
