/*--------------------------------*- C++ -*----------------------------------*\
  =========                 |
  \\      /  F ield         | OpenFOAM: The Open Source CFD Toolbox
   \\    /   O peration     | Website:  https://openfoam.org
    \\  /    A nd           | Version:  13
     \\/     M anipulation  |
\*---------------------------------------------------------------------------*/
FoamFile
{
    format      ascii;
    class       surfaceScalarField;
    location    "0.001";
    object      phi;
}
// * * * * * * * * * * * * * * * * * * * * * * * * * * * * * * * * * * * * * //

dimensions      [1 0 -1 0 0 0 0];

internalField   nonuniform List<scalar> 
999
(
-8.01204e-13
-1.21373e-12
-1.11523e-12
-9.61328e-13
-5.28033e-13
-5.14772e-13
-7.35575e-13
-4.2927e-13
-7.87947e-13
-3.58524e-13
-3.9358e-13
-9.73355e-13
-4.14855e-13
-5.3349e-13
-5.84363e-13
-4.67349e-13
5.28705e-13
1.51407e-12
1.18861e-12
2.95025e-13
8.53947e-13
6.73397e-13
1.15164e-12
9.99148e-13
9.19703e-13
1.54515e-13
4.21293e-13
4.92414e-13
1.26116e-13
7.71774e-13
5.05595e-13
1.64921e-13
-2.65604e-13
-1.84417e-13
-2.3247e-13
-1.22838e-13
-6.51005e-14
-5.36346e-13
5.60604e-13
6.40049e-13
3.13063e-13
-2.82113e-13
-4.52766e-13
-5.3281e-13
-2.92769e-13
1.07691e-13
3.91909e-13
4.90286e-13
-6.46733e-14
-5.55411e-13
-1.46571e-12
-6.082e-13
-1.46218e-12
-1.33795e-12
-7.04234e-13
-1.18061e-13
-1.77034e-13
4.4206e-13
6.37238e-14
-7.18431e-13
-9.23803e-13
-2.44497e-13
3.27266e-13
-7.31659e-15
1.41934e-13
2.24706e-13
5.81879e-13
2.74258e-13
1.23381e-12
9.74418e-13
1.66323e-12
1.09369e-12
-1.1666e-14
-1.38759e-12
-8.05086e-13
-9.58986e-13
-2.06032e-13
4.14804e-13
4.62827e-13
-4.69355e-13
-6.02402e-13
-1.29591e-12
-1.0215e-12
-1.08542e-12
-1.00832e-12
-4.78989e-13
-1.10913e-12
-1.03212e-12
-8.28582e-13
-1.42742e-12
-2.91148e-13
-1.13204e-13
5.01632e-13
8.97102e-13
2.17415e-13
4.50881e-13
3.11956e-13
6.77787e-14
-3.97202e-13
-2.90126e-13
-1.06958e-12
-1.23216e-12
-9.55678e-13
-4.8592e-13
-1.94051e-13
4.49499e-13
2.16668e-13
1.2285e-12
-2.82408e-13
-6.36619e-13
-1.23474e-12
-1.46247e-12
-1.26124e-12
-2.09474e-12
-1.54479e-12
-3.2224e-13
-1.13712e-13
-8.41136e-14
-7.55872e-14
2.11958e-13
-5.92362e-14
-4.446e-13
-3.47991e-13
-5.09995e-13
-1.04506e-12
-1.90705e-12
-1.22738e-12
-3.104e-13
8.19177e-13
1.8263e-12
2.23681e-12
1.67839e-12
9.07316e-13
1.47193e-12
1.19981e-12
9.96567e-13
5.88664e-14
-4.99756e-13
-7.19031e-13
-1.06339e-12
-2.44202e-13
4.69519e-13
4.58264e-13
2.9626e-13
9.17574e-13
6.73317e-15
-1.27548e-13
6.76725e-13
1.24456e-12
8.00707e-13
6.68687e-13
1.46737e-12
9.92603e-13
1.15857e-12
-2.41088e-13
-3.43281e-13
-3.08825e-13
-2.95949e-13
-7.36175e-13
-4.11379e-13
5.09952e-14
-8.36056e-14
-1.24967e-13
-4.39676e-13
-1.06354e-13
-3.53753e-13
-3.50425e-13
-8.7569e-14
4.46023e-13
5.61204e-13
-2.61494e-13
5.87408e-13
2.68447e-14
6.58087e-13
3.6856e-13
8.86935e-13
-1.59809e-13
-2.14071e-13
-6.13651e-14
-2.41982e-13
-6.77644e-13
-3.7827e-13
-1.00141e-12
-4.88929e-13
-5.60416e-13
-8.61869e-14
4.53911e-14
2.30143e-13
-5.65365e-13
-9.88152e-13
-1.01348e-12
-9.06725e-13
-1.45842e-12
-1.83291e-12
-1.63447e-12
-2.28934e-12
-6.68732e-13
2.82785e-13
1.01248e-12
1.3801e-12
1.13345e-12
4.67537e-13
-4.66627e-13
-2.1371e-13
-1.11877e-13
-6.27132e-13
-6.88924e-13
1.73447e-13
3.87346e-13
1.27203e-13
2.95068e-14
-1.79468e-13
1.29932e-13
-3.99184e-13
-7.00779e-13
-7.65127e-13
-1.84991e-13
3.17626e-13
6.76126e-13
-4.52172e-15
-3.90272e-13
-3.12661e-13
-8.6696e-13
-1.94051e-13
1.20273e-13
4.43295e-13
8.54547e-13
4.15404e-13
5.35275e-13
-1.08935e-13
-4.01166e-13
-3.03535e-13
1.36624e-13
-4.97907e-14
-3.38504e-13
-1.79615e-13
-6.4577e-13
-7.95894e-13
-2.98078e-13
-2.45584e-13
2.75e-14
3.47646e-13
-3.81359e-13
-5.67946e-13
2.73527e-14
2.82277e-13
3.45812e-13
2.4089e-13
-1.72344e-16
-1.10457e-12
-4.63532e-13
4.53785e-15
1.14236e-13
6.09862e-13
9.9111e-13
9.68961e-13
7.10368e-13
8.96531e-14
6.06701e-13
6.57e-13
8.58369e-14
4.90135e-14
-1.81449e-13
-4.92318e-13
7.61778e-14
3.29608e-13
1.03708e-13
-1.5614e-13
-4.2526e-13
-4.30037e-13
-2.48674e-13
-1.50683e-13
-2.25925e-13
-3.307e-13
-2.64369e-13
3.74617e-13
-4.91529e-13
-4.32191e-13
4.44621e-13
1.17077e-12
1.26047e-12
1.03339e-12
-6.74018e-14
-3.41513e-13
-4.77735e-13
2.53639e-13
-1.65779e-13
-3.64942e-13
-7.50541e-14
8.53947e-13
1.01991e-12
1.56833e-12
1.555e-12
2.71677e-13
-4.05368e-13
-1.62955e-12
-1.47175e-12
-1.02606e-12
7.61778e-14
1.21577e-12
2.81705e-12
2.24607e-12
3.07069e-12
2.37162e-12
3.08493e-12
2.04146e-12
1.32839e-12
2.50016e-13
5.09231e-13
-2.3247e-13
-1.19968e-12
-1.13137e-12
-1.66835e-12
-1.17543e-12
-7.01173e-13
2.73196e-14
1.733e-13
-4.0378e-13
-1.0133e-12
-1.38299e-12
-9.56072e-13
-1.19788e-12
-2.00415e-13
6.69761e-13
1.15164e-12
1.96807e-12
2.034e-12
1.7334e-12
2.18851e-12
2.60958e-12
1.50543e-12
1.2309e-12
1.28867e-12
6.13065e-13
-5.78899e-14
-5.80888e-13
-4.23325e-13
-1.21028e-12
-8.90829e-13
-1.39741e-12
-8.88487e-13
-2.22089e-13
-7.9223e-14
6.16734e-13
9.57467e-13
1.31473e-12
1.18754e-12
2.58349e-13
-9.89239e-13
-1.31818e-12
-1.75369e-12
-1.52917e-12
-7.66942e-13
-1.16872e-12
-1.9954e-12
-1.95735e-12
-1.07216e-12
-7.36322e-13
-1.51662e-12
-1.64591e-12
-1.31797e-12
-1.02129e-12
-7.73112e-13
-5.65792e-13
-6.10453e-13
-7.11631e-15
3.44178e-13
6.20956e-13
1.29519e-12
1.54318e-12
1.9843e-12
1.76071e-12
1.95094e-12
1.87149e-12
2.32713e-12
1.5204e-12
8.34361e-14
-4.66061e-13
-2.54596e-13
-3.26265e-14
3.91895e-13
6.44905e-14
-1.18625e-12
-1.88453e-12
-1.08313e-12
-5.09795e-13
-4.63471e-13
4.06809e-14
-1.41808e-14
6.5263e-13
1.36719e-12
1.00173e-12
2.14405e-12
2.80846e-12
2.40402e-12
1.6514e-12
7.68138e-13
1.10025e-12
2.5015e-13
-4.99692e-13
-5.86858e-13
-9.93426e-14
1.70455e-13
1.59639e-12
1.45299e-12
1.69129e-12
1.58198e-12
1.90274e-12
1.1318e-12
6.90528e-13
5.01496e-13
8.63787e-13
1.19435e-12
1.024e-12
6.03065e-13
-4.58622e-13
1.13432e-13
4.23886e-13
1.14339e-13
-4.78412e-13
-9.79683e-13
-1.58191e-12
-1.82631e-12
-1.37524e-12
-1.84384e-12
-9.01559e-13
2.5493e-13
2.64768e-12
9.93747e-12
3.40661e-11
1.19253e-10
4.08996e-10
1.37295e-09
4.52459e-09
1.46516e-08
4.66057e-08
1.45549e-07
4.46032e-07
1.34045e-06
3.94816e-06
1.13897e-05
3.21583e-05
8.87982e-05
0.000239601
0.000631187
0.00162178
0.00406
0.00989142
0.0234224
0.0538299
0.119881
0.25825
0.537082
1.07598
2.07161
3.82349
6.7478
11.3602
18.2084
27.7504
40.2014
55.4047
72.8076
91.696
111.458
131.645
151.94
172.117
192.016
211.52
230.543
249.022
266.909
284.169
300.775
316.705
331.944
346.482
360.309
373.422
385.819
397.502
408.473
418.738
428.305
437.183
445.383
452.919
459.803
466.052
471.681
476.708
481.151
485.03
488.363
491.172
493.479
495.31
496.689
497.647
498.218
498.444
498.375
498.071
497.61
497.088
496.62
496.336
496.365
496.801
497.654
498.815
500.04
500.963
501.226
500.65
499.319
497.543
495.752
494.466
494.107
494.725
495.63
495.044
490.06
477.838
457.547
431.088
402.151
374.445
350.623
332.135
319.446
312.234
309.48
309.659
311.156
312.758
313.852
314.291
314.342
314.464
314.534
314.183
314.31
315.189
313.886
311.842
316.659
318.796
302.084
304.888
349.919
291.513
123.228
29.7274
5.18807
0.833148
0.137176
0.0226746
0.00374729
0.000619127
0.00010228
1.68955e-05
2.79079e-06
4.60962e-07
7.61351e-08
1.25745e-08
2.07673e-09
3.42967e-10
5.66691e-11
9.33599e-12
1.60892e-12
4.13497e-13
2.39859e-13
2.09238e-13
4.6416e-14
-1.40787e-14
3.79696e-14
1.0457e-13
-7.2755e-14
-4.04385e-14
-1.72944e-13
-2.16755e-13
-1.05712e-13
2.7154e-14
2.81941e-14
2.64254e-14
-4.84033e-14
-1.67969e-13
-2.93834e-13
-1.97909e-13
-2.67228e-13
-2.42589e-13
-1.64901e-13
-8.6894e-14
-6.42101e-14
-4.5311e-14
1.10186e-14
2.20025e-14
7.20261e-14
4.37216e-14
1.30681e-13
7.20816e-14
-1.45128e-15
-4.29018e-14
-3.94747e-14
2.02616e-14
4.73298e-14
1.01863e-13
3.53183e-14
1.43477e-13
4.83995e-14
2.63546e-14
-3.16407e-14
3.54095e-15
-1.38968e-14
-9.08433e-14
-3.77451e-14
3.96422e-15
1.37228e-13
5.00322e-14
1.04129e-13
1.12185e-13
4.11768e-14
7.90142e-14
4.01689e-14
2.16212e-14
1.3823e-14
2.48839e-14
1.06882e-13
1.84654e-13
4.99965e-14
1.75637e-14
-7.71196e-14
-5.42618e-14
-5.07708e-14
-2.68455e-14
2.92762e-14
6.61631e-14
-1.62405e-15
-5.20688e-14
-1.08963e-13
-4.32161e-14
-4.84605e-14
-8.38642e-14
5.78045e-15
-8.14276e-14
-4.43253e-14
1.6084e-14
8.98916e-14
9.61574e-14
-2.19616e-14
-5.27706e-14
-3.73729e-14
-2.21191e-14
-4.40932e-14
-1.17127e-13
-2.60614e-14
7.63419e-15
8.97432e-14
3.08642e-14
-3.72959e-14
-7.60076e-14
-4.57117e-14
-1.06191e-13
-1.75874e-13
-1.17194e-13
-1.48232e-14
5.86395e-14
6.01828e-14
-3.47968e-14
-8.1474e-14
-6.08024e-14
-6.08579e-14
-1.31004e-13
-9.17446e-14
-9.68808e-14
-9.84376e-14
-6.56173e-14
-2.33972e-14
7.36392e-15
1.24848e-14
-1.29802e-14
2.03744e-14
1.54114e-15
-3.16407e-14
2.47927e-14
1.03272e-13
3.69357e-14
9.16663e-15
-1.63466e-14
3.15463e-14
-8.74016e-14
-1.94517e-13
-2.03086e-13
-1.80038e-13
-1.96282e-13
-2.22872e-13
-4.37381e-13
-3.84532e-13
-2.81866e-13
-1.30557e-13
-1.0932e-13
-3.03626e-14
-3.99795e-14
-2.93349e-14
5.23997e-14
2.95555e-14
2.71897e-14
2.67251e-14
9.46912e-14
1.26604e-13
2.40398e-14
-6.75061e-14
-1.08049e-13
-8.91902e-14
1.56364e-14
-2.47053e-14
-5.61801e-14
2.59625e-14
-4.05794e-15
-3.8664e-14
-1.96831e-13
-2.90908e-13
-2.24176e-13
-1.61047e-13
-1.64918e-13
-9.40988e-14
-5.69597e-14
-1.71896e-13
-3.31104e-13
-2.15968e-13
-7.8293e-14
-4.41967e-14
-2.38855e-14
-3.13682e-15
-6.02637e-14
-1.34455e-13
-2.16224e-13
-1.96366e-13
-1.26175e-13
-7.72835e-14
-8.47691e-14
-1.00394e-13
-9.11442e-14
-5.04163e-14
-1.11318e-13
-2.79191e-13
-2.33741e-13
-2.64253e-13
-2.57316e-13
-2.33129e-13
-1.96194e-13
-6.76349e-14
-8.96585e-15
4.3589e-14
-2.53347e-14
-1.84986e-13
-2.63832e-13
-2.11985e-13
-7.52944e-14
-9.47587e-14
-1.42513e-13
1.99346e-14
7.31976e-14
3.90794e-14
-1.83753e-14
6.25887e-14
3.56287e-14
4.195e-14
1.55e-13
2.56982e-13
1.19605e-13
-4.12426e-15
-4.8631e-14
-9.71908e-14
-1.00863e-13
-8.90935e-14
-1.77251e-13
-1.24199e-13
-1.68338e-14
-8.24172e-14
-9.93169e-14
-7.52185e-14
-1.18724e-13
-1.02396e-13
-3.78976e-14
-2.32923e-14
1.05536e-13
1.94991e-13
3.05294e-13
2.38917e-13
1.82699e-13
1.48359e-13
2.54324e-13
1.81437e-13
2.8974e-13
2.28588e-13
2.36007e-13
8.63898e-14
1.01385e-13
5.97584e-14
1.3055e-13
2.93068e-13
2.42927e-13
2.20777e-13
1.46347e-13
1.04672e-13
4.2791e-15
5.97983e-15
1.06744e-15
1.42104e-14
1.33153e-14
6.04852e-14
5.5204e-14
1.51911e-13
1.924e-13
1.50954e-13
1.22533e-13
9.85187e-14
1.36523e-13
4.86832e-14
-3.03796e-14
7.37732e-14
1.65506e-13
2.78064e-13
3.35165e-13
3.52458e-13
2.94574e-13
3.76578e-13
3.06765e-13
1.79713e-13
2.19749e-13
3.74598e-13
3.15168e-13
2.19927e-13
1.27689e-13
2.73222e-14
4.98934e-14
-5.12184e-14
-1.58801e-13
-4.30184e-14
-7.2703e-14
-1.36187e-13
-1.15017e-13
1.21732e-14
-1.78927e-14
-5.93997e-14
-6.97179e-14
-6.28334e-14
-6.70995e-14
-7.4802e-14
2.87884e-14
7.34197e-14
1.32982e-13
6.68899e-14
3.66162e-14
5.35249e-14
1.40531e-13
2.32056e-13
2.55011e-13
8.19466e-14
1.22111e-13
-1.6585e-14
-7.29511e-14
-1.10582e-13
-1.56976e-13
-2.45635e-13
-9.08343e-14
-9.71824e-14
-1.50933e-13
-7.81383e-14
-1.42995e-13
-2.71262e-13
-1.09577e-13
-1.30379e-13
-3.11328e-13
-1.8581e-13
-2.15494e-13
-2.54433e-13
-3.18195e-13
-4.76026e-13
-2.04522e-13
-1.02321e-13
-1.53906e-13
-1.18507e-13
-1.54859e-13
-1.55143e-13
-1.62707e-13
-1.01466e-13
-1.73251e-13
-2.39929e-13
-2.91692e-13
-2.87554e-13
-2.93264e-13
-2.31716e-13
-2.10524e-13
-1.41086e-13
-1.18284e-14
1.01575e-13
1.89376e-14
-4.57961e-14
-2.18788e-14
6.22074e-14
2.16569e-14
-2.76906e-15
-5.51518e-14
-5.33883e-14
-1.08371e-13
-1.45613e-13
-2.93379e-13
-2.16938e-13
-2.34161e-13
-1.05647e-13
-8.58505e-14
-1.31792e-14
-7.32238e-15
-7.51924e-14
2.84345e-15
4.29777e-14
2.06337e-14
1.18366e-14
3.27581e-14
5.33922e-14
1.45763e-13
3.05976e-13
2.04861e-13
1.89352e-13
2.98681e-13
2.34412e-13
2.45492e-13
3.46238e-13
3.44866e-13
1.63801e-13
9.598e-14
-1.19286e-13
-2.13966e-13
-2.21271e-13
-1.93535e-13
-9.04576e-14
-8.30552e-14
-4.25307e-14
1.07597e-14
1.10134e-13
-2.59629e-15
-1.1153e-13
-1.8883e-13
-1.43997e-13
-7.90907e-14
-7.96076e-15
8.2155e-14
7.23518e-14
2.39117e-14
2.29333e-14
1.29363e-13
2.38346e-13
1.94393e-13
1.42264e-13
8.48573e-14
-5.14711e-14
-1.91713e-13
-2.24938e-13
-2.69188e-13
-1.76325e-13
-3.21876e-14
-2.76558e-14
3.4482e-14
1.57719e-13
1.25744e-13
1.30768e-13
-2.85419e-14
-1.47057e-13
-2.20464e-13
-1.49578e-13
-2.88183e-13
-3.9158e-13
-3.84745e-13
-2.34427e-13
-9.76821e-14
-3.54478e-14
-7.63227e-15
4.71989e-14
-9.37322e-15
-7.87673e-14
-1.29636e-13
-1.4936e-13
-1.32116e-13
-8.50709e-14
6.07152e-14
1.27313e-13
2.73417e-13
2.87947e-13
2.38815e-13
8.26688e-14
9.47932e-14
3.50837e-14
5.55898e-14
-8.43497e-15
)
;

boundaryField
{
    sides
    {
        type            calculated;
        value           nonuniform List<scalar> 2(8.16052e-28 1.33878e-12);
    }
    empty
    {
        type            empty;
    }
}


// ************************************************************************* //
