/*--------------------------------*- C++ -*----------------------------------*\
  =========                 |
  \\      /  F ield         | OpenFOAM: The Open Source CFD Toolbox
   \\    /   O peration     | Website:  https://openfoam.org
    \\  /    A nd           | Version:  13
     \\/     M anipulation  |
\*---------------------------------------------------------------------------*/
FoamFile
{
    format      ascii;
    class       surfaceScalarField;
    location    "0.001";
    object      phi_0;
}
// * * * * * * * * * * * * * * * * * * * * * * * * * * * * * * * * * * * * * //

dimensions      [1 0 -1 0 0 0 0];

internalField   nonuniform List<scalar> 
999
(
-7.85e-13
-1.50089e-12
-1.2273e-12
-9.6862e-13
-3.62066e-13
-7.18137e-13
-8.6568e-13
-4.72638e-13
-7.3089e-13
-7.59282e-14
-3.50212e-13
-8.04446e-13
-2.0714e-13
-4.37842e-13
-6.41207e-13
-6.27132e-13
4.16639e-13
1.28669e-12
1.13906e-12
3.51868e-13
1.05143e-12
8.00559e-13
9.99148e-13
1.0948e-12
8.67423e-13
2.50163e-13
3.98692e-13
1.69392e-13
1.60571e-13
9.24266e-13
5.39838e-13
3.30291e-15
-1.96906e-13
-6.59495e-15
-3.62574e-13
-3.83046e-13
-1.47274e-13
-3.58311e-13
6.03972e-13
6.56253e-13
2.03726e-13
-1.83736e-13
-4.76988e-13
-5.43343e-13
-1.85052e-13
2.60183e-13
3.35065e-13
3.97366e-13
-1.60535e-13
-7.33447e-13
-1.24431e-12
-3.8701e-13
-1.55783e-12
-1.14644e-12
-5.35325e-13
-7.46933e-14
-1.11278e-13
2.93917e-13
1.41334e-13
-7.58857e-13
-6.54469e-13
-1.18955e-13
1.82065e-13
-4.20017e-13
7.26634e-15
8.11267e-14
4.17533e-13
3.4914e-13
1.23381e-12
1.06734e-12
1.54954e-12
1.34021e-12
-1.78498e-14
-1.56998e-12
-8.39329e-13
-9.32035e-13
-2.17887e-13
4.14804e-13
6.76512e-13
-3.87182e-13
-5.84577e-13
-1.58306e-12
-9.78132e-13
-7.81844e-13
-9.9463e-13
-4.13234e-13
-1.04043e-12
-1.12342e-12
-1.27574e-12
-1.34503e-12
-1.77461e-13
-2.7755e-13
5.58475e-13
8.26783e-13
2.74258e-13
6.21411e-13
4.73574e-13
2.97881e-13
-3.72086e-13
-6.77497e-13
-9.73929e-13
-1.27552e-12
-7.73293e-13
-4.03747e-13
-2.85136e-13
2.05921e-13
4.30566e-13
1.28808e-12
-2.79679e-13
-7.24976e-13
-1.19137e-12
-1.50584e-12
-1.09233e-12
-2.00344e-12
-1.51784e-12
-4.95712e-13
-1.40663e-13
1.29785e-13
1.59078e-13
-7.52013e-14
-1.41623e-13
-7.18284e-13
-5.46793e-13
-3.75541e-13
-1.17222e-12
-1.68999e-12
-9.65337e-13
3.06609e-14
9.55465e-13
1.79935e-12
2.00487e-12
1.39418e-12
9.07316e-13
1.19957e-12
1.15209e-12
1.19699e-12
1.02234e-13
-5.43124e-13
-7.62399e-13
-1.11111e-12
-2.30727e-13
1.64535e-13
4.44789e-13
4.09947e-13
7.99324e-13
2.68349e-13
-3.53087e-13
6.69434e-13
1.30869e-12
8.17124e-13
5.79222e-13
1.31032e-12
8.26636e-13
1.14053e-12
-3.11406e-13
-3.43281e-13
-3.52193e-13
-1.88446e-13
-9.7084e-13
-3.72361e-13
1.16965e-13
-1.32869e-14
-7.72494e-14
-4.48589e-13
2.35365e-14
-6.40912e-13
-3.07057e-13
-1.99788e-14
6.25466e-13
3.03937e-13
-3.00299e-13
7.87831e-13
2.22705e-13
5.14508e-13
4.68772e-13
1.03943e-12
-3.16863e-13
-1.27335e-13
-1.38975e-13
-2.49487e-13
-7.59818e-13
-2.04798e-13
-8.27941e-13
-8.88154e-13
-5.17048e-13
-5.01102e-14
1.1571e-13
1.29932e-13
-4.69716e-13
-1.03152e-12
-1.01348e-12
-7.6498e-13
-1.52144e-12
-1.75671e-12
-1.70935e-12
-2.16359e-12
-1.01384e-12
2.62018e-13
9.69108e-13
1.58031e-12
8.94226e-13
3.97218e-13
-3.75328e-13
-1.00023e-13
-6.12179e-14
-5.67346e-13
-6.06751e-13
9.10083e-15
4.05384e-13
7.036e-14
2.49438e-14
-2.66204e-13
3.73509e-13
-2.00382e-13
-5.61549e-13
-8.81756e-13
-3.15095e-13
1.47096e-13
8.67423e-13
9.56898e-14
-3.60379e-13
-1.78208e-13
-8.19029e-13
-2.2373e-13
2.3396e-13
1.72553e-13
4.04149e-13
3.33231e-13
6.35486e-13
1.82573e-13
-2.11276e-13
-3.33428e-13
-4.59745e-14
-4.67054e-13
-1.3079e-13
-1.79323e-15
-6.38478e-13
-8.78067e-13
-1.70916e-13
-2.41021e-13
1.2042e-13
6.64271e-13
-5.21997e-13
-5.5882e-13
1.4104e-13
1.6859e-13
2.93532e-13
3.27626e-13
-5.24528e-14
-1.02674e-12
-5.3223e-13
-2.89913e-13
1.84555e-13
7.23549e-13
1.01644e-12
9.32884e-13
4.08112e-13
-5.39265e-14
2.97154e-13
5.86681e-13
2.42892e-13
1.627e-13
3.24489e-14
-4.44386e-13
1.82573e-13
6.66106e-13
3.35431e-13
-1.47227e-13
-3.34175e-13
-6.78391e-13
-4.17583e-13
-1.89488e-13
-2.1245e-13
-4.21785e-13
-2.21001e-13
2.01145e-13
-1.59595e-13
-2.01875e-13
4.6266e-13
8.04376e-13
1.02397e-12
6.87766e-13
-1.24459e-13
-6.54002e-13
-3.17738e-13
2.89715e-13
1.27351e-13
-3.21574e-13
-2.00595e-13
7.74503e-13
9.63071e-13
1.47997e-12
1.37991e-12
4.76449e-13
-7.6675e-14
-1.53096e-12
-1.64065e-12
-1.1977e-12
6.88863e-14
1.01719e-12
2.45795e-12
2.48875e-12
3.52544e-12
2.57367e-12
3.31047e-12
1.79148e-12
1.2147e-12
1.6328e-13
4.82067e-13
-4.10505e-13
-1.31631e-12
-9.26598e-13
-1.59053e-12
-1.10946e-12
-9.18013e-13
-1.25172e-13
1.29932e-13
-4.17255e-13
-9.17652e-13
-1.31724e-12
-1.17291e-12
-1.27093e-12
-2.98847e-14
4.9194e-13
1.16239e-12
1.98154e-12
1.95912e-12
1.91284e-12
2.24697e-12
2.53014e-12
1.66978e-12
1.06037e-12
1.17042e-12
4.42535e-13
7.20008e-14
-5.64471e-13
-5.53429e-13
-1.26713e-12
-8.74412e-13
-1.43622e-12
-8.40555e-13
-1.99488e-13
3.05206e-13
5.18357e-13
1.128e-12
1.1442e-12
1.00626e-12
3.98876e-14
-9.54997e-13
-1.40654e-12
-1.9838e-12
-1.54102e-12
-7.35428e-13
-9.99806e-13
-1.80551e-12
-1.77931e-12
-1.17531e-12
-8.96319e-13
-1.73346e-12
-1.52928e-12
-1.31319e-12
-7.86407e-13
-7.59637e-13
-7.78069e-13
-8.82516e-13
-2.65704e-13
2.5015e-13
9.09736e-13
1.49561e-12
1.55665e-12
2.18179e-12
1.84745e-12
2.26048e-12
1.71444e-12
1.91119e-12
1.36607e-12
4.0068e-14
-3.35956e-13
-4.71437e-13
-2.49467e-13
1.34629e-13
-1.08982e-13
-1.32092e-12
-1.95484e-12
-1.17878e-12
-8.36189e-14
3.00812e-14
4.20546e-13
6.07009e-14
4.43295e-13
1.27154e-12
6.89454e-13
1.81374e-12
2.54958e-12
2.25882e-12
1.63336e-12
1.13615e-12
9.07122e-13
1.93307e-13
-2.82851e-13
-3.4763e-13
-4.23686e-13
1.0672e-14
1.6279e-12
1.39614e-12
1.93214e-12
1.58198e-12
1.92351e-12
1.13615e-12
7.17479e-13
5.44864e-13
6.36413e-13
8.26339e-13
9.87924e-13
7.46431e-13
-2.68732e-13
2.40594e-13
8.08101e-13
2.05424e-13
-6.95252e-13
-1.10544e-12
-1.43083e-12
-1.596e-12
-1.15861e-12
-1.82742e-12
-1.23025e-12
-5.10386e-13
1.26523e-12
5.63815e-12
1.85096e-11
6.55239e-11
2.28598e-10
7.77548e-10
2.59317e-09
8.49511e-09
2.73444e-08
8.64263e-08
2.68093e-07
8.15699e-07
2.43286e-06
7.10832e-06
2.03318e-05
5.68878e-05
0.000155578
0.000415511
0.00108272
0.00274978
0.00679892
0.0163457
0.0381582
0.0863637
0.189188
0.400357
0.816728
1.60242
3.01624
5.43288
9.3409
15.2963
23.8191
35.2437
49.569
66.3744
84.9532
104.625
124.873
145.331
165.739
185.912
205.718
225.06
243.866
262.084
279.672
296.601
312.848
328.396
343.231
357.345
370.733
383.392
395.324
406.529
417.015
426.788
435.858
444.236
451.934
458.968
465.351
471.101
476.236
480.773
484.733
488.136
491.003
493.358
495.225
496.631
497.607
498.188
498.417
498.344
498.034
497.564
497.034
496.562
496.282
496.324
496.782
497.666
498.856
500.096
501.011
501.236
500.598
499.197
497.367
495.568
494.34
494.084
494.75
495.428
494.036
487.446
473.042
450.654
422.869
393.7
366.753
344.369
327.638
316.71
311
309.305
310.039
311.68
313.187
314.065
314.318
314.4
314.566
314.387
314.111
314.841
314.91
312.342
313.593
319.837
311.111
296.893
329.749
341.489
197.649
59.5994
11.7695
1.89804
0.310097
0.0512248
0.00846631
0.00139887
0.000231096
3.81743e-05
6.30558e-06
1.0415e-06
1.72019e-07
2.84106e-08
4.69216e-09
7.74913e-10
1.27964e-10
2.11621e-11
3.46674e-12
6.24492e-13
2.6046e-13
2.40643e-13
2.04728e-13
5.56035e-14
1.08905e-15
4.11813e-14
1.01801e-13
-6.68767e-14
-5.76882e-14
-1.78751e-13
-2.27754e-13
-1.0608e-13
3.24477e-14
3.52996e-14
1.42966e-14
-4.12003e-14
-1.40406e-13
-3.01453e-13
-1.98423e-13
-2.81023e-13
-2.33915e-13
-1.66713e-13
-7.72902e-14
-7.72205e-14
-2.08583e-14
3.3119e-14
2.12184e-14
6.05838e-14
3.66162e-14
1.13702e-13
9.0359e-14
-3.01947e-15
-3.42282e-14
-3.56517e-14
3.44724e-14
5.16667e-14
1.062e-13
3.53183e-14
1.28482e-13
4.12941e-14
2.43701e-14
-4.03143e-14
-1.38063e-14
-9.56004e-15
-8.11153e-14
-4.82305e-14
-1.82337e-14
1.09763e-13
5.79218e-14
9.87641e-14
1.11671e-13
7.59198e-14
8.88883e-14
6.63358e-14
1.65978e-14
1.59665e-15
1.21438e-14
8.91183e-14
1.77376e-13
4.31613e-14
5.16202e-14
-4.57342e-14
-6.92567e-14
-6.1429e-14
-2.68455e-14
2.57235e-14
6.97158e-14
1.92866e-15
-3.90583e-14
-8.21583e-14
-5.46584e-14
-7.44814e-14
-6.57328e-14
-8.25764e-15
-8.70623e-14
-4.20705e-14
2.7699e-14
1.06357e-13
9.52006e-14
-5.55042e-14
-5.12292e-14
-5.13402e-14
-5.99985e-14
-4.96304e-14
-9.39727e-14
-6.72967e-15
1.49325e-17
8.92293e-14
4.08357e-14
-4.36172e-14
-9.33548e-14
-5.36012e-14
-1.15648e-13
-1.38924e-13
-6.80182e-14
-2.58224e-14
2.86496e-14
2.07352e-14
-3.96741e-14
-1.0186e-13
-6.81781e-14
-6.00738e-14
-1.1748e-13
-7.2559e-14
-7.38989e-14
-5.68105e-14
-6.22374e-14
-4.62817e-14
-2.57624e-14
5.3794e-15
-1.7317e-14
3.38011e-14
2.99628e-14
-2.73038e-14
4.0842e-14
9.33979e-14
3.74496e-14
4.14322e-15
-4.07993e-14
1.94175e-14
-6.18238e-14
-2.11766e-13
-1.92574e-13
-1.39979e-13
-2.01035e-13
-1.90459e-13
-4.46741e-13
-4.1104e-13
-2.44744e-13
-1.25117e-13
-7.77615e-14
-8.67854e-15
-4.43163e-14
-4.23453e-14
3.54202e-14
3.31082e-14
2.71897e-14
1.96197e-14
9.46912e-14
1.19498e-13
2.88904e-14
-4.83471e-14
-1.24342e-13
-7.77479e-14
4.19416e-15
-3.69316e-14
-6.84064e-14
3.10834e-14
5.13148e-14
1.12471e-15
-1.63266e-13
-3.02496e-13
-2.25204e-13
-1.4735e-13
-1.80524e-13
-1.13528e-13
-8.07525e-14
-1.75891e-13
-3.08538e-13
-1.79192e-13
-8.72102e-14
-2.51352e-14
-4.50557e-14
-2.61455e-14
-7.35444e-14
-1.24213e-13
-1.8969e-13
-1.73898e-13
-8.55751e-14
-7.62291e-14
-1.15911e-13
-1.35089e-13
-1.01656e-13
-1.21373e-13
-1.20262e-13
-2.74584e-13
-2.43712e-13
-2.09687e-13
-2.24704e-13
-1.99045e-13
-1.94209e-13
-7.50106e-14
-2.82976e-14
4.48869e-14
-3.34945e-14
-1.65827e-13
-2.67115e-13
-2.10244e-13
-9.14412e-14
-8.55712e-14
-1.40945e-13
1.55978e-14
6.09713e-14
4.74828e-14
-1.75912e-14
6.56276e-14
7.24537e-14
3.42332e-14
1.36452e-13
2.31843e-13
1.27051e-13
5.74979e-15
-1.70729e-14
-7.14402e-14
-8.48132e-14
-1.02888e-13
-1.90261e-13
-2.04317e-13
-1.02423e-14
-2.71905e-14
-3.61033e-14
-5.65733e-14
-1.3884e-13
-1.29714e-13
-5.27198e-14
-1.3148e-14
8.51768e-14
2.0114e-13
2.83193e-13
2.18115e-13
1.76378e-13
1.31379e-13
2.38129e-13
2.03537e-13
2.5855e-13
2.30843e-13
2.15204e-13
6.78422e-14
1.07706e-13
5.49077e-14
1.08893e-13
2.6516e-13
2.53585e-13
2.30921e-13
2.12649e-13
1.23047e-13
7.26382e-16
5.97983e-15
-7.60617e-15
6.32089e-15
1.40994e-14
8.08446e-14
3.53584e-14
1.47402e-13
1.89632e-13
1.47402e-13
1.22533e-13
6.95831e-14
1.45023e-13
5.38041e-14
-1.56282e-14
7.73259e-14
1.44974e-13
2.50426e-13
3.14362e-13
3.31141e-13
2.8132e-13
3.6565e-13
3.41335e-13
1.92453e-13
2.27812e-13
3.73544e-13
2.81182e-13
1.82047e-13
1.10709e-13
6.42448e-14
7.23348e-14
-6.75113e-14
-1.36603e-13
-4.44891e-14
-7.4444e-14
-1.43292e-13
-1.06343e-13
1.21732e-14
-1.25282e-14
-8.35821e-14
-7.53526e-14
-8.09648e-14
-8.87835e-14
-8.72719e-14
4.02307e-14
6.9867e-14
1.46236e-13
5.67456e-14
3.58321e-14
7.61391e-14
1.61847e-13
2.17845e-13
2.26589e-13
1.03777e-13
8.85687e-14
-2.37416e-15
-4.64164e-14
-7.459e-14
-1.47518e-13
-2.50485e-13
-9.67393e-14
-1.01519e-13
-1.29249e-13
-5.5183e-14
-1.56422e-13
-2.53131e-13
-1.45056e-13
-1.26043e-13
-2.76904e-13
-1.81473e-13
-2.3615e-13
-3.00569e-13
-2.94456e-13
-5.00722e-13
-1.99768e-13
-6.27756e-14
-1.41068e-13
-1.79639e-13
-1.78798e-13
-1.63032e-13
-1.47442e-13
-7.50286e-14
-1.31721e-13
-2.01682e-13
-3.14944e-13
-3.26072e-13
-2.99586e-13
-2.49063e-13
-2.19198e-13
-1.59975e-13
3.41007e-15
1.00006e-13
3.16777e-14
-2.12459e-14
-1.72717e-14
6.42895e-14
8.74397e-15
2.39117e-14
-4.43962e-14
-5.51293e-14
-1.19814e-13
-1.22902e-13
-2.61453e-13
-2.61091e-13
-2.18112e-13
-8.63151e-14
-8.58505e-14
-1.31792e-14
-8.86387e-15
-7.24238e-14
-1.6218e-14
5.11374e-14
2.6512e-14
-1.34659e-15
2.64367e-14
9.22993e-14
1.49316e-13
2.95318e-13
2.36835e-13
1.98199e-13
3.13773e-13
2.42572e-13
2.76682e-13
3.36191e-13
3.10464e-13
1.90752e-13
1.01172e-13
-1.08973e-13
-2.38591e-13
-2.53883e-13
-2.11126e-13
-9.22694e-14
-5.63745e-14
-7.47001e-14
1.56103e-14
7.53906e-14
6.86155e-16
-1.03641e-13
-1.75306e-13
-1.72786e-13
-7.0417e-14
-1.63943e-15
8.13709e-14
4.393e-14
1.68063e-14
1.67847e-14
1.02169e-13
2.38076e-13
2.49495e-13
2.07608e-13
1.11538e-13
-5.08865e-14
-1.75226e-13
-1.93969e-13
-2.66052e-13
-1.76325e-13
-7.09486e-14
-4.19642e-14
1.28246e-14
1.44022e-13
1.04428e-13
1.31893e-13
-3.53062e-14
-1.60754e-13
-2.20194e-13
-1.15965e-13
-2.67456e-13
-3.70924e-13
-4.03217e-13
-2.39646e-13
-1.02803e-13
-2.32215e-14
3.80997e-15
4.84968e-14
-2.3438e-14
-1.13976e-13
-1.44485e-13
-2.05739e-13
-1.46154e-13
-8.00475e-14
7.13734e-14
1.70632e-13
2.8944e-13
2.79101e-13
1.9263e-13
8.30099e-14
6.61012e-14
1.45515e-14
3.19213e-14
-2.37977e-14
)
;

boundaryField
{
    sides
    {
        type            calculated;
        value           nonuniform List<scalar> 2(8.15961e-28 1.45519e-12);
    }
    empty
    {
        type            empty;
    }
}


// ************************************************************************* //
