/*--------------------------------*- C++ -*----------------------------------*\
  =========                 |
  \\      /  F ield         | OpenFOAM: The Open Source CFD Toolbox
   \\    /   O peration     | Website:  https://openfoam.org
    \\  /    A nd           | Version:  13
     \\/     M anipulation  |
\*---------------------------------------------------------------------------*/
FoamFile
{
    format      ascii;
    class       volVectorField;
    location    "0.001";
    object      U;
}
// * * * * * * * * * * * * * * * * * * * * * * * * * * * * * * * * * * * * * //

dimensions      [0 1 -1 0 0 0 0];

internalField   nonuniform List<vector> 
1000
(
(-3.35508e-13 0 0)
(-1.50735e-13 0 0)
(-3.98719e-13 0 0)
(-1.65323e-13 0 0)
(-2.82021e-13 0 0)
(8.75238e-14 0 0)
(-3.64682e-13 0 0)
(-9.72486e-15 0 0)
(-2.82021e-13 0 0)
(4.86243e-15 0 0)
(-1.6046e-13 0 0)
(-9.23862e-14 0 0)
(-2.23672e-13 0 0)
(-2.43122e-14 0 0)
(-1.55598e-13 0 0)
(-1.75048e-13 0 0)
(-5.34868e-14 0 0)
(3.64682e-13 0 0)
(2.77159e-13 0 0)
(1.9936e-13 0 0)
(3.88995e-14 0 0)
(2.96608e-13 0 0)
(2.04222e-13 0 0)
(1.7991e-13 0 0)
(3.45233e-13 0 0)
(1.11836e-13 0 0)
(5.83492e-14 0 0)
(9.23862e-14 0 0)
(3.4037e-14 0 0)
(1.11836e-13 0 0)
(2.28534e-13 0 0)
(1.16698e-13 0 0)
(-9.23862e-14 0 0)
(-9.72486e-15 0 0)
(-6.32116e-14 0 0)
(-5.34868e-14 0 0)
(-3.4037e-14 0 0)
(-1.06974e-13 0 0)
(-4.92249e-28 0 0)
(1.36148e-13 0 0)
(1.94497e-13 0 0)
(-4.86243e-14 0 0)
(-8.75238e-14 0 0)
(-1.11836e-13 0 0)
(-1.50735e-13 0 0)
(2.43122e-14 0 0)
(9.72486e-14 0 0)
(1.50735e-13 0 0)
(1.94497e-14 0 0)
(9.72486e-15 0 0)
(-3.93857e-13 0 0)
(-7.77989e-14 0 0)
(-2.82021e-13 0 0)
(-3.5982e-13 0 0)
(-2.33397e-13 0 0)
(-6.8074e-14 0 0)
(-2.91746e-14 0 0)
(-1.45873e-14 0 0)
(1.55598e-13 0 0)
(-8.26613e-14 0 0)
(-2.43122e-13 0 0)
(-1.36148e-13 0 0)
(7.29365e-14 0 0)
(3.88995e-14 0 0)
(-9.72486e-15 0 0)
(6.32116e-14 0 0)
(7.29365e-14 0 0)
(8.75238e-14 0 0)
(1.75048e-13 0 0)
(2.72296e-13 0 0)
(3.54958e-13 0 0)
(3.54958e-13 0 0)
(1.6046e-13 0 0)
(-1.89635e-13 0 0)
(-3.35508e-13 0 0)
(-2.47984e-13 0 0)
(-3.88995e-14 0 0)
(-6.8074e-14 0 0)
(2.43122e-13 0 0)
(-7.29365e-14 0 0)
(-9.23862e-14 0 0)
(-2.91746e-13 0 0)
(-3.30645e-13 0 0)
(-1.50735e-13 0 0)
(-2.62571e-13 0 0)
(-1.50735e-13 0 0)
(-1.55598e-13 0 0)
(-3.01471e-13 0 0)
(-1.65323e-13 0 0)
(-4.27894e-13 0 0)
(-1.94497e-14 0 0)
(-1.70185e-13 0 0)
(1.6046e-13 0 0)
(1.16698e-13 0 0)
(1.94497e-13 0 0)
(9.72486e-15 0 0)
(1.21561e-13 0 0)
(7.29365e-14 0 0)
(-5.83492e-14 0 0)
(-3.4037e-14 0 0)
(-2.04222e-13 0 0)
(-3.01471e-13 0 0)
(-3.4037e-13 0 0)
(-1.36148e-13 0 0)
(-8.75238e-14 0 0)
(4.86243e-14 0 0)
(5.34868e-14 0 0)
(2.43122e-13 0 0)
(1.75048e-13 0 0)
(-2.43122e-13 0 0)
(-1.65323e-13 0 0)
(-4.32756e-13 0 0)
(-3.20921e-13 0 0)
(-3.54958e-13 0 0)
(-5.05693e-13 0 0)
(-2.18809e-13 0 0)
(-6.8074e-14 0 0)
(-4.86243e-15 0 0)
(-2.77679e-28 0 0)
(-2.43122e-14 0 0)
(7.29365e-14 0 0)
(-8.75238e-14 0 0)
(-8.26613e-14 0 0)
(-1.11836e-13 0 0)
(-1.41011e-13 0 0)
(-3.98719e-13 0 0)
(-4.32756e-13 0 0)
(-2.62571e-13 0 0)
(1.55598e-13 0 0)
(3.4037e-13 0 0)
(5.15418e-13 0 0)
(4.57069e-13 0 0)
(3.50095e-13 0 0)
(2.23672e-13 0 0)
(4.32756e-13 0 0)
(1.84772e-13 0 0)
(1.75048e-13 0 0)
(-9.23862e-14 0 0)
(-2.09085e-13 0 0)
(-2.57709e-13 0 0)
(-1.45873e-13 0 0)
(1.94497e-14 0 0)
(1.16698e-13 0 0)
(4.37619e-14 0 0)
(1.84772e-13 0 0)
(1.50735e-13 0 0)
(-5.83492e-14 0 0)
(-6.8074e-14 0 0)
(3.69545e-13 0 0)
(1.50735e-13 0 0)
(1.7991e-13 0 0)
(2.91746e-13 0 0)
(1.84772e-13 0 0)
(4.27894e-13 0 0)
(5.83492e-14 0 0)
(-1.45873e-13 0 0)
(-9.23862e-14 0 0)
(-9.72486e-15 0 0)
(-1.31286e-13 0 0)
(-1.94497e-13 0 0)
(-3.88995e-14 0 0)
(6.32116e-14 0 0)
(-5.34868e-14 0 0)
(-8.26613e-14 0 0)
(-6.32116e-14 0 0)
(4.37619e-14 0 0)
(-2.38259e-13 0 0)
(1.05707e-28 0 0)
(1.45873e-14 0 0)
(1.9936e-13 0 0)
(-4.37619e-14 0 0)
(-1.45873e-14 0 0)
(1.50735e-13 0 0)
(-4.86243e-15 0 0)
(1.41011e-13 0 0)
(2.09085e-13 0 0)
(1.31286e-13 0 0)
(-2.18809e-13 0 0)
(1.21561e-13 0 0)
(-1.41011e-13 0 0)
(-3.4037e-14 0 0)
(-2.04222e-13 0 0)
(-1.45873e-14 0 0)
(-2.62571e-13 0 0)
(-1.9936e-13 0 0)
(-7.29365e-14 0 0)
(2.91746e-14 0 0)
(4.37619e-14 0 0)
(-4.86243e-15 0 0)
(-1.7991e-13 0 0)
(-3.11196e-13 0 0)
(-1.94497e-13 0 0)
(-3.06333e-13 0 0)
(-4.52206e-13 0 0)
(-3.69545e-13 0 0)
(-5.34868e-13 0 0)
(-4.03582e-13 0 0)
(-2.91746e-14 0 0)
(1.89635e-13 0 0)
(3.7927e-13 0 0)
(3.01471e-13 0 0)
(2.52846e-13 0 0)
(-9.23862e-14 0 0)
(-6.32116e-14 0 0)
(-3.4037e-14 0 0)
(-3.4037e-14 0 0)
(-2.23672e-13 0 0)
(1.18171e-27 0 0)
(1.45873e-14 0 0)
(1.26423e-13 0 0)
(1.94497e-14 0 0)
(-1.02111e-13 0 0)
(6.8074e-14 0 0)
(-5.83492e-14 0 0)
(-8.75238e-14 0 0)
(-2.38259e-13 0 0)
(-1.45873e-13 0 0)
(-4.86243e-15 0 0)
(1.45873e-13 0 0)
(1.31286e-13 0 0)
(-9.23862e-14 0 0)
(-8.75238e-14 0 0)
(-1.11836e-13 0 0)
(-1.94497e-13 0 0)
(2.43122e-14 0 0)
(8.26613e-14 0 0)
(1.55598e-13 0 0)
(1.26423e-13 0 0)
(1.45873e-13 0 0)
(7.77989e-14 0 0)
(-7.29365e-14 0 0)
(-8.26613e-14 0 0)
(-2.43122e-14 0 0)
(8.75238e-14 0 0)
(-2.09085e-13 0 0)
(1.26423e-13 0 0)
(-1.94497e-13 0 0)
(-1.21561e-13 0 0)
(-2.13947e-13 0 0)
(4.37619e-14 0 0)
(-1.26423e-13 0 0)
(1.50735e-13 0 0)
(1.45873e-14 0 0)
(-1.75048e-13 0 0)
(-4.37619e-14 0 0)
(5.83492e-14 0 0)
(4.86243e-14 0 0)
(1.36148e-13 0 0)
(4.37619e-14 0 0)
(-1.16698e-13 0 0)
(-2.38259e-13 0 0)
(-5.83492e-14 0 0)
(9.72486e-15 0 0)
(1.06974e-13 0 0)
(2.09085e-13 0 0)
(3.11196e-13 0 0)
(1.7991e-13 0 0)
(3.4037e-14 0 0)
(9.23862e-14 0 0)
(1.50735e-13 0 0)
(1.11836e-13 0 0)
(-4.86243e-15 0 0)
(9.72486e-15 0 0)
(-8.75238e-14 0 0)
(-1.26423e-13 0 0)
(8.75238e-14 0 0)
(1.50735e-13 0 0)
(-8.75238e-14 0 0)
(-3.88995e-14 0 0)
(-1.16698e-13 0 0)
(-9.23862e-14 0 0)
(-1.94497e-14 0 0)
(-1.45873e-14 0 0)
(-1.36148e-13 0 0)
(1.45873e-14 0 0)
(-4.37619e-14 0 0)
(6.32116e-14 0 0)
(-1.84772e-13 0 0)
(-1.94497e-14 0 0)
(2.33397e-13 0 0)
(2.23672e-13 0 0)
(3.74407e-13 0 0)
(6.8074e-14 0 0)
(-1.94497e-14 0 0)
(-2.28534e-13 0 0)
(8.75238e-14 0 0)
(-2.91746e-14 0 0)
(-5.36425e-28 0 0)
(-1.45873e-13 0 0)
(6.32116e-14 0 0)
(2.91746e-13 0 0)
(3.4037e-13 0 0)
(4.37619e-13 0 0)
(1.9936e-13 0 0)
(1.45873e-14 0 0)
(-2.13947e-13 0 0)
(-5.0083e-13 0 0)
(-3.35508e-13 0 0)
(-1.75048e-13 0 0)
(2.57709e-13 0 0)
(4.23032e-13 0 0)
(7.3909e-13 0 0)
(5.93217e-13 0 0)
(7.48815e-13 0 0)
(6.66153e-13 0 0)
(7.29365e-13 0 0)
(4.03582e-13 0 0)
(1.02111e-13 0 0)
(7.77989e-14 0 0)
(9.72486e-14 0 0)
(-2.38259e-13 0 0)
(-2.52846e-13 0 0)
(-3.54958e-13 0 0)
(-3.30645e-13 0 0)
(-3.4037e-13 0 0)
(-6.8074e-14 0 0)
(9.72486e-14 0 0)
(-2.43122e-14 0 0)
(-1.70185e-13 0 0)
(-2.91746e-13 0 0)
(-3.11196e-13 0 0)
(-3.11196e-13 0 0)
(-1.31286e-13 0 0)
(6.8074e-14 0 0)
(2.33397e-13 0 0)
(3.84132e-13 0 0)
(5.44592e-13 0 0)
(4.32756e-13 0 0)
(5.05693e-13 0 0)
(6.46703e-13 0 0)
(4.52206e-13 0 0)
(3.45233e-13 0 0)
(3.06333e-13 0 0)
(2.04222e-13 0 0)
(1.31286e-13 0 0)
(-1.36148e-13 0 0)
(-7.29365e-14 0 0)
(-2.43122e-13 0 0)
(-2.23672e-13 0 0)
(-2.62571e-13 0 0)
(-3.30645e-13 0 0)
(-1.41011e-13 0 0)
(-4.86243e-14 0 0)
(1.26423e-13 0 0)
(1.70185e-13 0 0)
(2.67434e-13 0 0)
(3.64682e-13 0 0)
(1.9936e-13 0 0)
(-1.06974e-13 0 0)
(-3.06333e-13 0 0)
(-4.18169e-13 0 0)
(-3.74407e-13 0 0)
(-2.96608e-13 0 0)
(-1.7991e-13 0 0)
(-4.32756e-13 0 0)
(-3.98719e-13 0 0)
(-4.42481e-13 0 0)
(-2.23672e-13 0 0)
(-2.18809e-13 0 0)
(-5.3973e-13 0 0)
(-2.72296e-13 0 0)
(-3.4037e-13 0 0)
(-1.21561e-13 0 0)
(-2.38259e-13 0 0)
(-1.70185e-13 0 0)
(-1.94497e-14 0 0)
(-4.86243e-14 0 0)
(1.84772e-13 0 0)
(1.7991e-13 0 0)
(4.13307e-13 0 0)
(3.84132e-13 0 0)
(5.44592e-13 0 0)
(4.23032e-13 0 0)
(5.25143e-13 0 0)
(5.05693e-13 0 0)
(5.49455e-13 0 0)
(1.26423e-13 0 0)
(-7.77989e-14 0 0)
(-1.31286e-13 0 0)
(-6.68954e-28 0 0)
(-3.88995e-14 0 0)
(1.70185e-13 0 0)
(-1.11836e-13 0 0)
(-4.66793e-13 0 0)
(-4.08444e-13 0 0)
(-1.84772e-13 0 0)
(-5.34868e-14 0 0)
(-8.75238e-14 0 0)
(3.88995e-14 0 0)
(-5.83492e-14 0 0)
(3.50095e-13 0 0)
(2.33397e-13 0 0)
(3.25783e-13 0 0)
(5.88354e-13 0 0)
(6.46703e-13 0 0)
(5.49455e-13 0 0)
(2.47984e-13 0 0)
(3.45233e-13 0 0)
(9.23862e-14 0 0)
(-1.45873e-14 0 0)
(-1.70185e-13 0 0)
(-5.34868e-14 0 0)
(-1.31286e-13 0 0)
(2.52846e-13 0 0)
(4.23032e-13 0 0)
(3.45233e-13 0 0)
(4.47344e-13 0 0)
(3.7927e-13 0 0)
(4.52206e-13 0 0)
(1.94497e-13 0 0)
(1.50735e-13 0 0)
(1.36148e-13 0 0)
(2.62571e-13 0 0)
(2.13947e-13 0 0)
(3.01471e-13 0 0)
(-3.4037e-14 0 0)
(-1.45873e-13 0 0)
(1.41011e-13 0 0)
(9.23862e-14 0 0)
(-9.72486e-15 0 0)
(-2.18809e-13 0 0)
(-3.7927e-13 0 0)
(-3.30645e-13 0 0)
(-4.42481e-13 0 0)
(-3.5982e-13 0 0)
(-3.20921e-13 0 0)
(-1.36148e-13 0 0)
(2.43122e-13 0 0)
(1.42955e-12 0 0)
(4.89161e-12 0 0)
(1.66684e-11 0 0)
(5.81061e-11 0 0)
(1.96734e-10 0 0)
(6.54201e-10 0 0)
(2.13488e-09 0 0)
(6.8461e-09 0 0)
(2.15592e-08 0 0)
(6.66376e-08 0 0)
(2.02047e-07 0 0)
(6.00581e-07 0 0)
(1.74902e-06 0 0)
(4.98683e-06 0 0)
(1.39103e-05 0 0)
(3.79304e-05 0 0)
(0.000101018 0 0)
(0.000262522 0 0)
(0.000665035 0 0)
(0.0016404 0 0)
(0.00393502 0 0)
(0.00916739 0 0)
(0.0207105 0 0)
(0.0452956 0 0)
(0.0957269 0 0)
(0.195091 0 0)
(0.382565 0 0)
(0.720152 0 0)
(1.2983 0 0)
(2.23665 0 0)
(3.67524 0 0)
(5.75307 0 0)
(8.57559 0 0)
(12.1799 0 0)
(16.5165 0 0)
(21.4715 0 0)
(26.9173 0 0)
(32.747 0 0)
(38.8813 0 0)
(45.2626 0 0)
(51.8491 0 0)
(58.6097 0 0)
(65.5213 0 0)
(72.5656 0 0)
(79.7283 0 0)
(86.9973 0 0)
(94.3624 0 0)
(101.814 0 0)
(109.345 0 0)
(116.947 0 0)
(124.613 0 0)
(132.335 0 0)
(140.108 0 0)
(147.925 0 0)
(155.779 0 0)
(163.664 0 0)
(171.574 0 0)
(179.503 0 0)
(187.445 0 0)
(195.393 0 0)
(203.341 0 0)
(211.28 0 0)
(219.203 0 0)
(227.1 0 0)
(234.959 0 0)
(242.768 0 0)
(250.51 0 0)
(258.164 0 0)
(265.704 0 0)
(273.096 0 0)
(280.298 0 0)
(287.251 0 0)
(293.882 0 0)
(300.091 0 0)
(305.749 0 0)
(310.688 0 0)
(314.693 0 0)
(317.496 0 0)
(318.789 0 0)
(318.246 0 0)
(315.605 0 0)
(310.79 0 0)
(304.074 0 0)
(296.186 0 0)
(288.34 0 0)
(282.064 0 0)
(278.722 0 0)
(278.932 0 0)
(282.31 0 0)
(287.69 0 0)
(293.535 0 0)
(298.294 0 0)
(300.765 0 0)
(300.437 0 0)
(297.655 0 0)
(293.606 0 0)
(290.109 0 0)
(288.854 0 0)
(290.347 0 0)
(293.409 0 0)
(295.77 0 0)
(295.709 0 0)
(293.497 0 0)
(291.094 0 0)
(290.242 0 0)
(291.013 0 0)
(292.225 0 0)
(292.858 0 0)
(292.806 0 0)
(292.563 0 0)
(292.542 0 0)
(292.738 0 0)
(292.908 0 0)
(292.954 0 0)
(292.941 0 0)
(292.832 0 0)
(292.696 0 0)
(292.88 0 0)
(292.964 0 0)
(292.128 0 0)
(292.072 0 0)
(293.894 0 0)
(291.619 0 0)
(285.655 0 0)
(292.357 0 0)
(292.293 0 0)
(227.505 0 0)
(102.939 0 0)
(24.3576 0 0)
(4.33954 0 0)
(0.727792 0 0)
(0.119775 0 0)
(0.0197717 0 0)
(0.00326623 0 0)
(0.000539593 0 0)
(8.91374e-05 0 0)
(1.47242e-05 0 0)
(2.43209e-06 0 0)
(4.01708e-07 0 0)
(6.63475e-08 0 0)
(1.0958e-08 0 0)
(1.80954e-09 0 0)
(2.99035e-10 0 0)
(4.92808e-11 0 0)
(8.20293e-12 0 0)
(1.55112e-12 0 0)
(7.5854e-13 0 0)
(4.27895e-13 0 0)
(2.62572e-13 0 0)
(-5.83493e-14 0 0)
(1.45873e-14 0 0)
(1.70185e-13 0 0)
(1.06974e-13 0 0)
(-2.3826e-13 0 0)
(-5.83493e-14 0 0)
(-5.05694e-13 0 0)
(-3.54958e-13 0 0)
(-2.43122e-14 0 0)
(1.21561e-13 0 0)
(4.86244e-14 0 0)
(1.94498e-14 0 0)
(-2.57709e-13 0 0)
(-3.64683e-13 0 0)
(-6.02942e-13 0 0)
(-3.88995e-13 0 0)
(-6.61292e-13 0 0)
(-3.06334e-13 0 0)
(-2.28535e-13 0 0)
(-1.7991e-13 0 0)
(-1.70185e-13 0 0)
(6.80741e-14 0 0)
(-7.7799e-14 0 0)
(1.89635e-13 0 0)
(4.86244e-15 0 0)
(2.57709e-13 0 0)
(1.11836e-13 0 0)
(1.65323e-13 0 0)
(-1.02111e-13 0 0)
(-1.70185e-13 0 0)
(9.72488e-14 0 0)
(4.86244e-15 0 0)
(2.3826e-13 0 0)
(4.86244e-14 0 0)
(1.75048e-13 0 0)
(2.09085e-13 0 0)
(6.32117e-14 0 0)
(1.45873e-14 0 0)
(-8.26615e-14 0 0)
(4.86244e-14 0 0)
(-7.7799e-14 0 0)
(-1.6046e-13 0 0)
(-1.11836e-13 0 0)
(1.9936e-13 0 0)
(1.31286e-13 0 0)
(1.94498e-13 0 0)
(1.26423e-13 0 0)
(2.67434e-13 0 0)
(3.88995e-14 0 0)
(2.33397e-13 0 0)
(9.72488e-15 0 0)
(4.86244e-14 0 0)
(-1.94498e-14 0 0)
(1.50736e-13 0 0)
(2.04222e-13 0 0)
(3.40371e-13 0 0)
(-7.29366e-14 0 0)
(5.83493e-14 0 0)
(-2.28535e-13 0 0)
(-7.29366e-14 0 0)
(-1.65323e-13 0 0)
(8.75239e-14 0 0)
(4.3762e-14 0 0)
(1.9936e-13 0 0)
(-1.84773e-13 0 0)
(-1.21561e-13 0 0)
(-9.72488e-14 0 0)
(-1.89635e-13 0 0)
(-1.45873e-13 0 0)
(-3.88995e-14 0 0)
(-4.86244e-15 0 0)
(-2.77159e-13 0 0)
(5.83493e-14 0 0)
(4.3762e-14 0 0)
(4.47344e-13 0 0)
(-1.11836e-13 0 0)
(-9.72488e-15 0 0)
(-1.89635e-13 0 0)
(9.72488e-14 0 0)
(-2.43122e-13 0 0)
(-3.40371e-14 0 0)
(-2.47984e-13 0 0)
(1.26423e-13 0 0)
(-8.26615e-14 0 0)
(2.77159e-13 0 0)
(-3.40371e-14 0 0)
(-1.84773e-13 0 0)
(-7.7799e-14 0 0)
(-1.65323e-13 0 0)
(-3.7927e-13 0 0)
(-1.70185e-13 0 0)
(-1.70185e-13 0 0)
(2.91746e-14 0 0)
(1.9936e-13 0 0)
(-2.91746e-14 0 0)
(-1.94498e-14 0 0)
(-2.57709e-13 0 0)
(-3.88995e-14 0 0)
(-2.23672e-13 0 0)
(-2.28535e-13 0 0)
(-1.26423e-13 0 0)
(-2.96609e-13 0 0)
(4.86244e-15 0 0)
(-1.89635e-13 0 0)
(-1.94498e-14 0 0)
(9.23863e-14 0 0)
(-4.86244e-15 0 0)
(-7.29366e-14 0 0)
(1.9936e-13 0 0)
(-1.65323e-13 0 0)
(-9.72488e-15 0 0)
(1.6046e-13 0 0)
(1.75048e-13 0 0)
(1.94498e-14 0 0)
(1.94498e-14 0 0)
(-8.26615e-14 0 0)
(1.6046e-13 0 0)
(-4.23032e-13 0 0)
(-3.30646e-13 0 0)
(-4.47344e-13 0 0)
(-2.62572e-13 0 0)
(-4.03582e-13 0 0)
(-6.1753e-13 0 0)
(-9.48176e-13 0 0)
(-5.83493e-13 0 0)
(-4.66794e-13 0 0)
(-2.47984e-13 0 0)
(-4.3762e-14 0 0)
(-9.72488e-14 0 0)
(-9.72488e-14 0 0)
(2.91746e-14 0 0)
(9.23863e-14 0 0)
(1.21561e-13 0 0)
(-6.32117e-14 0 0)
(1.45873e-13 0 0)
(3.30646e-13 0 0)
(4.3762e-14 0 0)
(8.26615e-14 0 0)
(-2.91746e-13 0 0)
(-1.84773e-13 0 0)
(-5.83493e-14 0 0)
(9.23863e-14 0 0)
(-2.52847e-13 0 0)
(1.02111e-13 0 0)
(-8.75239e-14 0 0)
(1.70185e-13 0 0)
(-3.35508e-13 0 0)
(-4.61932e-13 0 0)
(-6.12667e-13 0 0)
(-2.86884e-13 0 0)
(-3.7927e-13 0 0)
(-2.3826e-13 0 0)
(-1.89635e-13 0 0)
(-1.75048e-13 0 0)
(-5.54318e-13 0 0)
(-5.54318e-13 0 0)
(-3.16059e-13 0 0)
(-3.88995e-14 0 0)
(-5.83493e-14 0 0)
(-5.83493e-14 0 0)
(-4.86244e-15 0 0)
(-2.62572e-13 0 0)
(-1.6046e-13 0 0)
(-6.66154e-13 0 0)
(-1.9936e-13 0 0)
(-1.84773e-13 0 0)
(-6.80741e-14 0 0)
(-3.35508e-13 0 0)
(-5.83493e-14 0 0)
(-2.1881e-13 0 0)
(-7.7799e-14 0 0)
(-4.13307e-13 0 0)
(-6.07805e-13 0 0)
(-3.5982e-13 0 0)
(-5.7863e-13 0 0)
(-4.32757e-13 0 0)
(-4.52207e-13 0 0)
(-2.23672e-13 0 0)
(-1.6046e-13 0 0)
(1.50736e-13 0 0)
(6.80741e-14 0 0)
(-2.1881e-13 0 0)
(-4.76519e-13 0 0)
(-4.52207e-13 0 0)
(-3.16059e-13 0 0)
(-1.41011e-13 0 0)
(-2.1881e-13 0 0)
(-2.33397e-13 0 0)
(2.67434e-13 0 0)
(8.75239e-14 0 0)
(1.45873e-14 0 0)
(-3.40371e-14 0 0)
(1.41011e-13 0 0)
(1.50736e-13 0 0)
(3.88995e-14 0 0)
(4.61932e-13 0 0)
(4.32757e-13 0 0)
(4.3762e-14 0 0)
(-2.43122e-14 0 0)
(-2.04222e-13 0 0)
(-1.31286e-13 0 0)
(-1.70185e-13 0 0)
(-3.11196e-13 0 0)
(-4.27895e-13 0 0)
(-9.23863e-14 0 0)
(2.43122e-14 0 0)
(-2.82021e-13 0 0)
(-3.40371e-14 0 0)
(-2.96609e-13 0 0)
(-1.75048e-13 0 0)
(-2.47984e-13 0 0)
(4.3762e-14 0 0)
(-5.83493e-14 0 0)
(3.93858e-13 0 0)
(5.30006e-13 0 0)
(5.49456e-13 0 0)
(3.9872e-13 0 0)
(3.54958e-13 0 0)
(3.25783e-13 0 0)
(4.3762e-13 0 0)
(4.95969e-13 0 0)
(5.15419e-13 0 0)
(4.61932e-13 0 0)
(3.16059e-13 0 0)
(1.31286e-13 0 0)
(1.89635e-13 0 0)
(1.21561e-13 0 0)
(4.08445e-13 0 0)
(5.73768e-13 0 0)
(4.27895e-13 0 0)
(5.05694e-13 0 0)
(1.45873e-13 0 0)
(1.06974e-13 0 0)
(-8.26615e-14 0 0)
(6.80741e-14 0 0)
(-4.86244e-14 0 0)
(9.72488e-14 0 0)
(-2.91746e-14 0 0)
(2.13947e-13 0 0)
(1.94498e-14 0 0)
(4.86244e-13 0 0)
(2.67434e-13 0 0)
(3.16059e-13 0 0)
(1.7991e-13 0 0)
(1.55598e-13 0 0)
(3.50096e-13 0 0)
(-1.7991e-13 0 0)
(1.06974e-13 0 0)
(1.36148e-13 0 0)
(5.25143e-13 0 0)
(5.20281e-13 0 0)
(7.73128e-13 0 0)
(6.02942e-13 0 0)
(6.95329e-13 0 0)
(7.14779e-13 0 0)
(4.3762e-13 0 0)
(3.7927e-13 0 0)
(6.85604e-13 0 0)
(6.1753e-13 0 0)
(5.5918e-13 0 0)
(3.50096e-13 0 0)
(7.29366e-14 0 0)
(1.75048e-13 0 0)
(2.91746e-14 0 0)
(-3.93858e-13 0 0)
(-3.88995e-14 0 0)
(-1.9936e-13 0 0)
(-1.16699e-13 0 0)
(-3.20921e-13 0 0)
(-1.26423e-13 0 0)
(1.89635e-13 0 0)
(-2.47984e-13 0 0)
(4.86244e-14 0 0)
(-2.28535e-13 0 0)
(-8.75239e-14 0 0)
(-3.11196e-13 0 0)
(1.06974e-13 0 0)
(-1.45873e-14 0 0)
(2.62572e-13 0 0)
(2.62572e-13 0 0)
(1.94498e-14 0 0)
(6.80741e-14 0 0)
(2.47984e-13 0 0)
(3.06334e-13 0 0)
(5.54318e-13 0 0)
(3.69545e-13 0 0)
(1.21561e-13 0 0)
(1.50736e-13 0 0)
(-1.50736e-13 0 0)
(-1.50736e-13 0 0)
(-2.57709e-13 0 0)
(-4.86244e-13 0 0)
(-2.77159e-13 0 0)
(-1.75048e-13 0 0)
(-3.54958e-13 0 0)
(-6.80741e-14 0 0)
(-2.62572e-13 0 0)
(-3.5982e-13 0 0)
(-5.00831e-13 0 0)
(-8.75239e-14 0 0)
(-5.5918e-13 0 0)
(-3.93858e-13 0 0)
(-5.00831e-13 0 0)
(-4.76519e-13 0 0)
(-4.66794e-13 0 0)
(-8.99551e-13 0 0)
(-7.92578e-13 0 0)
(-1.41011e-13 0 0)
(-1.94498e-13 0 0)
(-2.57709e-13 0 0)
(-3.20921e-13 0 0)
(-3.50096e-13 0 0)
(-3.50096e-13 0 0)
(-1.55598e-13 0 0)
(-3.30646e-13 0 0)
(-2.62572e-13 0 0)
(-6.75879e-13 0 0)
(-4.61932e-13 0 0)
(-7.00191e-13 0 0)
(-5.34868e-13 0 0)
(-4.27895e-13 0 0)
(-4.03582e-13 0 0)
(-6.32117e-14 0 0)
(4.3762e-14 0 0)
(2.47984e-13 0 0)
(-9.72488e-14 0 0)
(-1.21561e-13 0 0)
(6.80741e-14 0 0)
(9.23863e-14 0 0)
(-5.34868e-14 0 0)
(4.86244e-14 0 0)
(-1.7991e-13 0 0)
(-1.26423e-13 0 0)
(-3.06334e-13 0 0)
(-3.20921e-13 0 0)
(-5.7863e-13 0 0)
(-4.95969e-13 0 0)
(-3.40371e-13 0 0)
(-1.31286e-13 0 0)
(-1.45873e-13 0 0)
(5.83493e-14 0 0)
(-8.75239e-14 0 0)
(-1.55598e-13 0 0)
(1.06974e-13 0 0)
(1.11836e-13 0 0)
(-9.72488e-15 0 0)
(1.45873e-14 0 0)
(6.32117e-14 0 0)
(2.33397e-13 0 0)
(4.08445e-13 0 0)
(5.9808e-13 0 0)
(3.40371e-13 0 0)
(5.15419e-13 0 0)
(5.30006e-13 0 0)
(4.81381e-13 0 0)
(6.1753e-13 0 0)
(7.73128e-13 0 0)
(4.08445e-13 0 0)
(4.13307e-13 0 0)
(-1.31286e-13 0 0)
(-3.20921e-13 0 0)
(-4.86244e-13 0 0)
(-4.47344e-13 0 0)
(-2.86884e-13 0 0)
(-1.06974e-13 0 0)
(-1.6046e-13 0 0)
(-9.72488e-15 0 0)
(1.26423e-13 0 0)
(1.7991e-13 0 0)
(-1.50736e-13 0 0)
(-2.77159e-13 0 0)
(-4.71657e-13 0 0)
(-1.31286e-13 0 0)
(-1.36148e-13 0 0)
(1.21561e-13 0 0)
(1.65323e-13 0 0)
(6.32117e-14 0 0)
(4.3762e-14 0 0)
(5.83493e-14 0 0)
(4.3762e-13 0 0)
(2.91746e-13 0 0)
(5.00831e-13 0 0)
(2.67434e-13 0 0)
(9.72488e-15 0 0)
(-3.01471e-13 0 0)
(-5.00831e-13 0 0)
(-3.69545e-13 0 0)
(-5.7863e-13 0 0)
(-1.65323e-13 0 0)
(-9.72488e-14 0 0)
(-1.94498e-14 0 0)
(2.04222e-13 0 0)
(2.3826e-13 0 0)
(3.93858e-13 0 0)
(7.29366e-14 0 0)
(-1.6046e-13 0 0)
(-4.66794e-13 0 0)
(-2.52847e-13 0 0)
(-4.52207e-13 0 0)
(-7.29366e-13 0 0)
(-8.02302e-13 0 0)
(-5.88355e-13 0 0)
(-4.3762e-13 0 0)
(-4.86244e-14 0 0)
(-1.06974e-13 0 0)
(1.31286e-13 0 0)
(-1.94498e-14 0 0)
(-2.91746e-14 0 0)
(-2.77159e-13 0 0)
(-2.57709e-13 0 0)
(-4.03582e-13 0 0)
(-1.50736e-13 0 0)
(-8.26615e-14 0 0)
(1.9936e-13 0 0)
(4.47344e-13 0 0)
(5.73768e-13 0 0)
(5.05694e-13 0 0)
(2.82021e-13 0 0)
(1.94498e-13 0 0)
(3.40371e-14 0 0)
(1.70185e-13 0 0)
(-1.45873e-14 0 0)
(1.63607e-27 0 0)
)
;

boundaryField
{
    sides
    {
        type            zeroGradient;
    }
    empty
    {
        type            empty;
    }
}


// ************************************************************************* //
