/*--------------------------------*- C++ -*----------------------------------*\
  =========                 |
  \\      /  F ield         | OpenFOAM: The Open Source CFD Toolbox
   \\    /   O peration     | Website:  https://openfoam.org
    \\  /    A nd           | Version:  13
     \\/     M anipulation  |
\*---------------------------------------------------------------------------*/
FoamFile
{
    format      ascii;
    class       volVectorField;
    location    "0.001";
    object      U_0;
}
// * * * * * * * * * * * * * * * * * * * * * * * * * * * * * * * * * * * * * //

dimensions      [0 1 -1 0 0 0 0];

internalField   nonuniform List<vector> 
1000
(
(-3.45233e-13 0 0)
(-2.04222e-13 0 0)
(-4.61931e-13 0 0)
(-1.75048e-13 0 0)
(-2.62571e-13 0 0)
(8.75238e-14 0 0)
(-3.93857e-13 0 0)
(-3.88995e-14 0 0)
(-2.91746e-13 0 0)
(4.86243e-14 0 0)
(-1.36148e-13 0 0)
(-5.34868e-14 0 0)
(-1.94497e-13 0 0)
(-9.72486e-15 0 0)
(-1.26423e-13 0 0)
(-2.04222e-13 0 0)
(-8.26613e-14 0 0)
(3.16058e-13 0 0)
(2.23672e-13 0 0)
(2.13947e-13 0 0)
(7.29365e-14 0 0)
(3.54958e-13 0 0)
(2.04222e-13 0 0)
(1.50735e-13 0 0)
(3.30645e-13 0 0)
(1.55598e-13 0 0)
(9.72486e-14 0 0)
(9.72486e-15 0 0)
(9.72486e-15 0 0)
(1.36148e-13 0 0)
(2.47984e-13 0 0)
(8.75238e-14 0 0)
(-1.02111e-13 0 0)
(4.37619e-14 0 0)
(-4.37619e-14 0 0)
(-9.23862e-14 0 0)
(-1.16698e-13 0 0)
(-7.77989e-14 0 0)
(3.88995e-14 0 0)
(1.11836e-13 0 0)
(2.04222e-13 0 0)
(-6.32116e-14 0 0)
(-9.23862e-14 0 0)
(-1.26423e-13 0 0)
(-1.31286e-13 0 0)
(5.34868e-14 0 0)
(1.21561e-13 0 0)
(1.21561e-13 0 0)
(-1.45873e-14 0 0)
(-4.86243e-15 0 0)
(-3.69545e-13 0 0)
(-4.86243e-14 0 0)
(-3.11196e-13 0 0)
(-3.4037e-13 0 0)
(-1.94497e-13 0 0)
(-5.34868e-14 0 0)
(-1.45873e-14 0 0)
(-1.94497e-14 0 0)
(1.41011e-13 0 0)
(-8.26613e-14 0 0)
(-1.89635e-13 0 0)
(-9.72486e-14 0 0)
(6.8074e-14 0 0)
(-1.45873e-14 0 0)
(-6.8074e-14 0 0)
(3.4037e-14 0 0)
(3.4037e-14 0 0)
(9.23862e-14 0 0)
(2.13947e-13 0 0)
(2.86883e-13 0 0)
(3.69545e-13 0 0)
(3.5982e-13 0 0)
(1.94497e-13 0 0)
(-1.7991e-13 0 0)
(-4.08444e-13 0 0)
(-2.86883e-13 0 0)
(-2.43122e-14 0 0)
(-6.8074e-14 0 0)
(2.62571e-13 0 0)
(-2.91746e-14 0 0)
(-6.32116e-14 0 0)
(-3.16058e-13 0 0)
(-3.54958e-13 0 0)
(-1.21561e-13 0 0)
(-2.09085e-13 0 0)
(-1.55598e-13 0 0)
(-1.50735e-13 0 0)
(-3.01471e-13 0 0)
(-2.18809e-13 0 0)
(-4.37619e-13 0 0)
(-3.4037e-14 0 0)
(-2.04222e-13 0 0)
(1.65323e-13 0 0)
(1.11836e-13 0 0)
(1.94497e-13 0 0)
(2.43122e-14 0 0)
(1.50735e-13 0 0)
(1.11836e-13 0 0)
(-2.43122e-14 0 0)
(-7.29365e-14 0 0)
(-2.43122e-13 0 0)
(-2.82021e-13 0 0)
(-3.16058e-13 0 0)
(-1.06974e-13 0 0)
(-8.26613e-14 0 0)
(-9.72486e-15 0 0)
(2.91746e-14 0 0)
(2.62571e-13 0 0)
(1.70185e-13 0 0)
(-2.28534e-13 0 0)
(-1.75048e-13 0 0)
(-4.27894e-13 0 0)
(-3.11196e-13 0 0)
(-3.20921e-13 0 0)
(-4.86243e-13 0 0)
(-2.67434e-13 0 0)
(-1.11836e-13 0 0)
(3.88995e-14 0 0)
(6.8074e-14 0 0)
(-3.88995e-14 0 0)
(2.91746e-14 0 0)
(-1.31286e-13 0 0)
(-1.02111e-13 0 0)
(-1.16698e-13 0 0)
(-1.31286e-13 0 0)
(-3.84132e-13 0 0)
(-3.64682e-13 0 0)
(-1.84772e-13 0 0)
(2.23672e-13 0 0)
(3.54958e-13 0 0)
(4.76518e-13 0 0)
(3.84132e-13 0 0)
(3.11196e-13 0 0)
(1.89635e-13 0 0)
(3.84132e-13 0 0)
(1.75048e-13 0 0)
(2.38259e-13 0 0)
(-4.86243e-14 0 0)
(-2.23672e-13 0 0)
(-2.82021e-13 0 0)
(-1.45873e-13 0 0)
(-2.43122e-14 0 0)
(8.75238e-14 0 0)
(6.8074e-14 0 0)
(1.7991e-13 0 0)
(1.65323e-13 0 0)
(-4.37619e-14 0 0)
(-9.23862e-14 0 0)
(3.5982e-13 0 0)
(1.55598e-13 0 0)
(2.23672e-13 0 0)
(2.86883e-13 0 0)
(1.21561e-13 0 0)
(3.98719e-13 0 0)
(5.34868e-14 0 0)
(-1.41011e-13 0 0)
(-1.06974e-13 0 0)
(4.86243e-15 0 0)
(-1.31286e-13 0 0)
(-1.9936e-13 0 0)
(-2.43122e-14 0 0)
(1.06974e-13 0 0)
(-4.37619e-14 0 0)
(-1.02111e-13 0 0)
(-3.4037e-14 0 0)
(3.4037e-14 0 0)
(-3.01471e-13 0 0)
(2.43122e-14 0 0)
(7.77989e-14 0 0)
(1.50735e-13 0 0)
(-7.77989e-14 0 0)
(2.43122e-14 0 0)
(2.09085e-13 0 0)
(4.86243e-15 0 0)
(8.75238e-14 0 0)
(2.38259e-13 0 0)
(1.31286e-13 0 0)
(-2.18809e-13 0 0)
(1.41011e-13 0 0)
(-1.31286e-13 0 0)
(-5.34868e-14 0 0)
(-2.13947e-13 0 0)
(1.45873e-14 0 0)
(-2.72296e-13 0 0)
(-2.33397e-13 0 0)
(-6.8074e-14 0 0)
(7.29365e-14 0 0)
(3.88995e-14 0 0)
(-2.43122e-14 0 0)
(-1.65323e-13 0 0)
(-2.91746e-13 0 0)
(-1.89635e-13 0 0)
(-3.11196e-13 0 0)
(-4.42481e-13 0 0)
(-3.7927e-13 0 0)
(-5.2028e-13 0 0)
(-4.18169e-13 0 0)
(-7.29365e-14 0 0)
(1.84772e-13 0 0)
(4.03582e-13 0 0)
(2.91746e-13 0 0)
(1.89635e-13 0 0)
(-8.26613e-14 0 0)
(-2.91746e-14 0 0)
(-1.94497e-14 0 0)
(-2.91746e-14 0 0)
(-2.04222e-13 0 0)
(-1.45873e-14 0 0)
(-3.4037e-14 0 0)
(1.65323e-13 0 0)
(9.72486e-15 0 0)
(-1.41011e-13 0 0)
(8.75238e-14 0 0)
(-1.45873e-14 0 0)
(-4.37619e-14 0 0)
(-2.28534e-13 0 0)
(-2.04222e-13 0 0)
(-6.32116e-14 0 0)
(1.41011e-13 0 0)
(1.75048e-13 0 0)
(-5.83492e-14 0 0)
(-9.23862e-14 0 0)
(-1.11836e-13 0 0)
(-1.65323e-13 0 0)
(2.43122e-14 0 0)
(1.02111e-13 0 0)
(6.32116e-14 0 0)
(5.34868e-14 0 0)
(1.55598e-13 0 0)
(1.26423e-13 0 0)
(-1.45873e-14 0 0)
(-6.32116e-14 0 0)
(-5.83492e-14 0 0)
(4.86243e-15 0 0)
(-2.13947e-13 0 0)
(1.7991e-13 0 0)
(-1.65323e-13 0 0)
(-1.31286e-13 0 0)
(-2.33397e-13 0 0)
(3.88995e-14 0 0)
(-1.02111e-13 0 0)
(1.89635e-13 0 0)
(1.45873e-14 0 0)
(-1.75048e-13 0 0)
(-3.4037e-14 0 0)
(5.83492e-14 0 0)
(2.43122e-14 0 0)
(1.45873e-13 0 0)
(4.37619e-14 0 0)
(-1.11836e-13 0 0)
(-2.09085e-13 0 0)
(-1.02111e-13 0 0)
(-1.94497e-14 0 0)
(1.31286e-13 0 0)
(2.23672e-13 0 0)
(3.16058e-13 0 0)
(1.36148e-13 0 0)
(-4.86243e-15 0 0)
(5.83492e-14 0 0)
(8.75238e-14 0 0)
(1.26423e-13 0 0)
(2.43122e-14 0 0)
(3.88995e-14 0 0)
(-4.37619e-14 0 0)
(-1.16698e-13 0 0)
(1.21561e-13 0 0)
(2.13947e-13 0 0)
(-5.34868e-14 0 0)
(-2.91746e-14 0 0)
(-1.45873e-13 0 0)
(-1.41011e-13 0 0)
(-2.91746e-14 0 0)
(-1.94497e-14 0 0)
(-1.50735e-13 0 0)
(1.94497e-14 0 0)
(-9.23862e-14 0 0)
(7.29365e-14 0 0)
(-5.34868e-14 0 0)
(2.91746e-14 0 0)
(1.94497e-13 0 0)
(1.45873e-13 0 0)
(2.96608e-13 0 0)
(3.4037e-14 0 0)
(-4.37619e-14 0 0)
(-2.33397e-13 0 0)
(1.16698e-13 0 0)
(1.45873e-14 0 0)
(3.88995e-14 0 0)
(-1.45873e-13 0 0)
(1.45873e-14 0 0)
(2.52846e-13 0 0)
(3.25783e-13 0 0)
(3.88995e-13 0 0)
(2.28534e-13 0 0)
(9.23862e-14 0 0)
(-1.55598e-13 0 0)
(-5.0083e-13 0 0)
(-3.7927e-13 0 0)
(-1.94497e-13 0 0)
(2.38259e-13 0 0)
(3.54958e-13 0 0)
(7.34227e-13 0 0)
(6.56428e-13 0 0)
(8.46063e-13 0 0)
(7.43952e-13 0 0)
(7.1964e-13 0 0)
(3.4037e-13 0 0)
(1.06974e-13 0 0)
(8.26613e-14 0 0)
(5.34868e-14 0 0)
(-2.62571e-13 0 0)
(-2.38259e-13 0 0)
(-3.06333e-13 0 0)
(-2.91746e-13 0 0)
(-3.5982e-13 0 0)
(-1.11836e-13 0 0)
(8.26613e-14 0 0)
(-2.91746e-14 0 0)
(-1.45873e-13 0 0)
(-2.62571e-13 0 0)
(-3.50095e-13 0 0)
(-3.20921e-13 0 0)
(-1.26423e-13 0 0)
(3.4037e-14 0 0)
(2.13947e-13 0 0)
(3.88995e-13 0 0)
(5.25143e-13 0 0)
(4.42481e-13 0 0)
(5.3973e-13 0 0)
(6.32116e-13 0 0)
(4.42481e-13 0 0)
(3.64682e-13 0 0)
(2.62571e-13 0 0)
(1.65323e-13 0 0)
(1.36148e-13 0 0)
(-1.21561e-13 0 0)
(-7.77989e-14 0 0)
(-2.57709e-13 0 0)
(-2.23672e-13 0 0)
(-2.62571e-13 0 0)
(-3.25783e-13 0 0)
(-1.26423e-13 0 0)
(9.72486e-15 0 0)
(1.75048e-13 0 0)
(1.94497e-13 0 0)
(2.62571e-13 0 0)
(3.01471e-13 0 0)
(1.36148e-13 0 0)
(-1.31286e-13 0 0)
(-3.06333e-13 0 0)
(-4.52206e-13 0 0)
(-3.88995e-13 0 0)
(-3.01471e-13 0 0)
(-1.65323e-13 0 0)
(-3.5982e-13 0 0)
(-3.35508e-13 0 0)
(-4.27894e-13 0 0)
(-2.72296e-13 0 0)
(-2.62571e-13 0 0)
(-5.3973e-13 0 0)
(-2.47984e-13 0 0)
(-3.06333e-13 0 0)
(-8.75238e-14 0 0)
(-2.57709e-13 0 0)
(-2.38259e-13 0 0)
(-9.23862e-14 0 0)
(-9.23862e-14 0 0)
(2.13947e-13 0 0)
(2.23672e-13 0 0)
(4.52206e-13 0 0)
(3.98719e-13 0 0)
(5.88354e-13 0 0)
(4.66793e-13 0 0)
(5.54317e-13 0 0)
(4.42481e-13 0 0)
(4.57069e-13 0 0)
(1.11836e-13 0 0)
(-5.34868e-14 0 0)
(-1.31286e-13 0 0)
(-5.83492e-14 0 0)
(-8.26613e-14 0 0)
(1.26423e-13 0 0)
(-1.31286e-13 0 0)
(-4.91106e-13 0 0)
(-4.18169e-13 0 0)
(-1.45873e-13 0 0)
(1.06974e-13 0 0)
(5.34868e-14 0 0)
(1.02111e-13 0 0)
(-8.26613e-14 0 0)
(2.91746e-13 0 0)
(2.09085e-13 0 0)
(2.57709e-13 0 0)
(5.05693e-13 0 0)
(5.93217e-13 0 0)
(5.34868e-13 0 0)
(3.06333e-13 0 0)
(3.74407e-13 0 0)
(4.86243e-14 0 0)
(4.86243e-15 0 0)
(-1.11836e-13 0 0)
(-4.86243e-14 0 0)
(-1.65323e-13 0 0)
(2.33397e-13 0 0)
(4.13307e-13 0 0)
(3.74407e-13 0 0)
(4.76518e-13 0 0)
(3.74407e-13 0 0)
(4.47344e-13 0 0)
(2.13947e-13 0 0)
(1.70185e-13 0 0)
(1.06974e-13 0 0)
(1.75048e-13 0 0)
(1.50735e-13 0 0)
(3.20921e-13 0 0)
(4.86243e-15 0 0)
(-9.72486e-14 0 0)
(1.7991e-13 0 0)
(1.45873e-13 0 0)
(-1.94497e-14 0 0)
(-2.62571e-13 0 0)
(-3.93857e-13 0 0)
(-2.82021e-13 0 0)
(-3.93857e-13 0 0)
(-3.30645e-13 0 0)
(-3.5982e-13 0 0)
(-2.72296e-13 0 0)
(-9.72486e-15 0 0)
(8.07164e-13 0 0)
(2.71324e-12 0 0)
(9.06357e-12 0 0)
(3.22379e-11 0 0)
(1.10713e-10 0 0)
(3.72992e-10 0 0)
(1.23131e-09 0 0)
(3.99518e-09 0 0)
(1.27322e-08 0 0)
(3.98324e-08 0 0)
(1.22262e-07 0 0)
(3.67973e-07 0 0)
(1.08525e-06 0 0)
(3.13432e-06 0 0)
(8.85808e-06 0 0)
(2.44783e-05 0 0)
(6.60852e-05 0 0)
(0.000174145 0 0)
(0.000447475 0 0)
(0.00111998 0 0)
(0.0027272 0 0)
(0.00645232 0 0)
(0.0148107 0 0)
(0.0329302 0 0)
(0.0707932 0 0)
(0.14686 0 0)
(0.293351 0 0)
(0.562911 0 0)
(1.0352 0 0)
(1.82026 0 0)
(3.05408 0 0)
(4.88194 0 0)
(7.42903 0 0)
(10.7641 0 0)
(14.8707 0 0)
(19.6526 0 0)
(24.9793 0 0)
(30.7322 0 0)
(36.8205 0 0)
(43.1786 0 0)
(49.7585 0 0)
(56.5255 0 0)
(63.4534 0 0)
(70.5221 0 0)
(77.7157 0 0)
(85.0212 0 0)
(92.4277 0 0)
(99.9255 0 0)
(107.506 0 0)
(115.161 0 0)
(122.883 0 0)
(130.665 0 0)
(138.5 0 0)
(146.381 0 0)
(154.302 0 0)
(162.256 0 0)
(170.237 0 0)
(178.239 0 0)
(186.255 0 0)
(194.278 0 0)
(202.302 0 0)
(210.319 0 0)
(218.319 0 0)
(226.295 0 0)
(234.233 0 0)
(242.122 0 0)
(249.943 0 0)
(257.676 0 0)
(265.295 0 0)
(272.766 0 0)
(280.044 0 0)
(287.071 0 0)
(293.773 0 0)
(300.047 0 0)
(305.765 0 0)
(310.753 0 0)
(314.793 0 0)
(317.613 0 0)
(318.898 0 0)
(318.318 0 0)
(315.611 0 0)
(310.704 0 0)
(303.888 0 0)
(295.919 0 0)
(288.044 0 0)
(281.823 0 0)
(278.617 0 0)
(279.009 0 0)
(282.56 0 0)
(288.053 0 0)
(293.914 0 0)
(298.576 0 0)
(300.855 0 0)
(300.296 0 0)
(297.317 0 0)
(293.208 0 0)
(289.867 0 0)
(288.939 0 0)
(290.737 0 0)
(293.84 0 0)
(295.896 0 0)
(295.403 0 0)
(292.992 0 0)
(290.762 0 0)
(290.246 0 0)
(291.216 0 0)
(292.409 0 0)
(292.929 0 0)
(292.81 0 0)
(292.581 0 0)
(292.592 0 0)
(292.771 0 0)
(292.912 0 0)
(292.973 0 0)
(292.934 0 0)
(292.758 0 0)
(292.751 0 0)
(293.008 0 0)
(292.587 0 0)
(291.813 0 0)
(293.106 0 0)
(293.62 0 0)
(287.822 0 0)
(287.336 0 0)
(296.964 0 0)
(267.47 0 0)
(160.554 0 0)
(49.8354 0 0)
(9.57995 0 0)
(1.64302 0 0)
(0.270979 0 0)
(0.0446845 0 0)
(0.00738022 0 0)
(0.00121919 0 0)
(0.000201402 0 0)
(3.32683e-05 0 0)
(5.49511e-06 0 0)
(9.0762e-07 0 0)
(1.49905e-07 0 0)
(2.47579e-08 0 0)
(4.089e-09 0 0)
(6.75125e-10 0 0)
(1.11676e-10 0 0)
(1.8346e-11 0 0)
(3.07792e-12 0 0)
(6.51567e-13 0 0)
(6.22392e-13 0 0)
(4.13307e-13 0 0)
(2.57709e-13 0 0)
(-4.86244e-15 0 0)
(6.32117e-14 0 0)
(1.50736e-13 0 0)
(1.11836e-13 0 0)
(-2.57709e-13 0 0)
(-9.72488e-14 0 0)
(-5.20281e-13 0 0)
(-3.69545e-13 0 0)
(-1.45873e-14 0 0)
(1.36148e-13 0 0)
(3.88995e-14 0 0)
(-2.39814e-28 0 0)
(-2.43122e-13 0 0)
(-3.20921e-13 0 0)
(-6.1753e-13 0 0)
(-4.23032e-13 0 0)
(-6.61292e-13 0 0)
(-2.96609e-13 0 0)
(-2.1881e-13 0 0)
(-2.04222e-13 0 0)
(-1.21561e-13 0 0)
(1.11836e-13 0 0)
(-4.86244e-14 0 0)
(1.75048e-13 0 0)
(-9.72488e-15 0 0)
(2.43122e-13 0 0)
(9.72488e-14 0 0)
(2.04222e-13 0 0)
(-1.26423e-13 0 0)
(-1.94498e-13 0 0)
(1.26423e-13 0 0)
(1.45873e-14 0 0)
(2.3826e-13 0 0)
(6.32117e-14 0 0)
(1.45873e-13 0 0)
(1.7991e-13 0 0)
(7.7799e-14 0 0)
(1.45873e-14 0 0)
(-1.11836e-13 0 0)
(1.94498e-14 0 0)
(-4.3762e-14 0 0)
(-1.70185e-13 0 0)
(-1.41011e-13 0 0)
(1.55598e-13 0 0)
(1.26423e-13 0 0)
(2.09085e-13 0 0)
(1.16699e-13 0 0)
(3.06334e-13 0 0)
(7.7799e-14 0 0)
(2.72297e-13 0 0)
(3.88995e-14 0 0)
(2.43122e-14 0 0)
(-3.40371e-14 0 0)
(1.21561e-13 0 0)
(1.55598e-13 0 0)
(3.45233e-13 0 0)
(-2.91746e-14 0 0)
(9.72488e-14 0 0)
(-2.09085e-13 0 0)
(-1.02111e-13 0 0)
(-1.7991e-13 0 0)
(8.75239e-14 0 0)
(4.3762e-14 0 0)
(2.28535e-13 0 0)
(-1.70185e-13 0 0)
(-1.06974e-13 0 0)
(-6.80741e-14 0 0)
(-2.33397e-13 0 0)
(-1.45873e-13 0 0)
(-3.40371e-14 0 0)
(-1.45873e-14 0 0)
(-2.82021e-13 0 0)
(7.7799e-14 0 0)
(8.75239e-14 0 0)
(4.61932e-13 0 0)
(-1.55598e-13 0 0)
(-2.91746e-14 0 0)
(-1.94498e-13 0 0)
(4.86244e-14 0 0)
(-3.11196e-13 0 0)
(-4.86244e-15 0 0)
(-2.04222e-13 0 0)
(1.16699e-13 0 0)
(-1.06974e-13 0 0)
(3.11196e-13 0 0)
(-9.72488e-15 0 0)
(-2.09085e-13 0 0)
(-9.23863e-14 0 0)
(-1.7991e-13 0 0)
(-3.35508e-13 0 0)
(-7.7799e-14 0 0)
(-1.36148e-13 0 0)
(-4.86244e-15 0 0)
(1.21561e-13 0 0)
(-9.23863e-14 0 0)
(-3.40371e-14 0 0)
(-2.86884e-13 0 0)
(-5.34868e-14 0 0)
(-1.94498e-13 0 0)
(-1.94498e-13 0 0)
(-8.26615e-14 0 0)
(-2.28535e-13 0 0)
(7.29366e-14 0 0)
(-2.43122e-13 0 0)
(-1.16699e-13 0 0)
(6.32117e-14 0 0)
(-1.94498e-14 0 0)
(-7.29366e-14 0 0)
(2.28535e-13 0 0)
(-1.36148e-13 0 0)
(9.72488e-15 0 0)
(1.6046e-13 0 0)
(1.70185e-13 0 0)
(2.91746e-14 0 0)
(-9.72488e-15 0 0)
(-1.21561e-13 0 0)
(1.65323e-13 0 0)
(-4.08445e-13 0 0)
(-3.20921e-13 0 0)
(-4.03582e-13 0 0)
(-2.23672e-13 0 0)
(-3.88995e-13 0 0)
(-6.22392e-13 0 0)
(-9.72488e-13 0 0)
(-5.64043e-13 0 0)
(-4.42482e-13 0 0)
(-1.94498e-13 0 0)
(2.43122e-14 0 0)
(-8.26615e-14 0 0)
(-1.11836e-13 0 0)
(-1.45873e-14 0 0)
(9.23863e-14 0 0)
(1.36148e-13 0 0)
(-7.7799e-14 0 0)
(1.45873e-13 0 0)
(3.30646e-13 0 0)
(2.91746e-14 0 0)
(1.06974e-13 0 0)
(-2.86884e-13 0 0)
(-1.70185e-13 0 0)
(-5.83493e-14 0 0)
(6.32117e-14 0 0)
(-2.82021e-13 0 0)
(1.02111e-13 0 0)
(-2.91746e-14 0 0)
(2.47984e-13 0 0)
(-2.57709e-13 0 0)
(-4.32757e-13 0 0)
(-6.12667e-13 0 0)
(-2.72297e-13 0 0)
(-3.84133e-13 0 0)
(-2.67434e-13 0 0)
(-2.67434e-13 0 0)
(-2.28535e-13 0 0)
(-5.10556e-13 0 0)
(-4.61932e-13 0 0)
(-2.91746e-13 0 0)
(-2.43122e-14 0 0)
(-6.32117e-14 0 0)
(-1.06974e-13 0 0)
(-5.34868e-14 0 0)
(-2.72297e-13 0 0)
(-1.16699e-13 0 0)
(-6.07805e-13 0 0)
(-1.36148e-13 0 0)
(-1.26423e-13 0 0)
(-9.72488e-14 0 0)
(-3.93858e-13 0 0)
(-1.02111e-13 0 0)
(-2.96609e-13 0 0)
(-1.65323e-13 0 0)
(-4.3762e-13 0 0)
(-6.1753e-13 0 0)
(-3.11196e-13 0 0)
(-4.81381e-13 0 0)
(-3.74408e-13 0 0)
(-4.08445e-13 0 0)
(-2.57709e-13 0 0)
(-2.04222e-13 0 0)
(1.36148e-13 0 0)
(6.80741e-14 0 0)
(-1.9936e-13 0 0)
(-4.52207e-13 0 0)
(-4.47344e-13 0 0)
(-3.45233e-13 0 0)
(-1.65323e-13 0 0)
(-1.89635e-13 0 0)
(-2.28535e-13 0 0)
(2.3826e-13 0 0)
(8.26615e-14 0 0)
(1.94498e-14 0 0)
(-4.3762e-14 0 0)
(1.7991e-13 0 0)
(1.9936e-13 0 0)
(1.94498e-14 0 0)
(4.03582e-13 0 0)
(4.08445e-13 0 0)
(1.02111e-13 0 0)
(2.91746e-14 0 0)
(-1.6046e-13 0 0)
(-8.75239e-14 0 0)
(-1.55598e-13 0 0)
(-3.40371e-13 0 0)
(-5.20281e-13 0 0)
(-1.75048e-13 0 0)
(9.72488e-14 0 0)
(-1.36148e-13 0 0)
(4.86244e-14 0 0)
(-3.20921e-13 0 0)
(-2.13947e-13 0 0)
(-2.91746e-13 0 0)
(4.3762e-14 0 0)
(-5.83493e-14 0 0)
(3.88995e-13 0 0)
(5.00831e-13 0 0)
(4.91106e-13 0 0)
(3.69545e-13 0 0)
(3.40371e-13 0 0)
(2.82021e-13 0 0)
(4.3762e-13 0 0)
(4.95969e-13 0 0)
(4.91106e-13 0 0)
(4.42482e-13 0 0)
(2.96609e-13 0 0)
(1.36148e-13 0 0)
(1.89635e-13 0 0)
(1.02111e-13 0 0)
(3.45233e-13 0 0)
(5.39731e-13 0 0)
(4.57069e-13 0 0)
(5.93218e-13 0 0)
(2.13947e-13 0 0)
(1.36148e-13 0 0)
(-7.7799e-14 0 0)
(5.34868e-14 0 0)
(-7.7799e-14 0 0)
(8.26615e-14 0 0)
(-1.94498e-14 0 0)
(2.47984e-13 0 0)
(2.91746e-14 0 0)
(4.76519e-13 0 0)
(2.67434e-13 0 0)
(3.01471e-13 0 0)
(1.55598e-13 0 0)
(1.31286e-13 0 0)
(3.50096e-13 0 0)
(-1.45873e-13 0 0)
(1.26423e-13 0 0)
(1.02111e-13 0 0)
(4.81381e-13 0 0)
(4.61932e-13 0 0)
(7.29366e-13 0 0)
(5.7863e-13 0 0)
(6.75879e-13 0 0)
(7.19641e-13 0 0)
(4.81381e-13 0 0)
(4.1817e-13 0 0)
(6.90466e-13 0 0)
(5.73768e-13 0 0)
(4.91106e-13 0 0)
(2.96609e-13 0 0)
(1.11836e-13 0 0)
(2.28535e-13 0 0)
(2.91746e-14 0 0)
(-3.84133e-13 0 0)
(-1.45873e-14 0 0)
(-2.04222e-13 0 0)
(-1.11836e-13 0 0)
(-3.16059e-13 0 0)
(-1.11836e-13 0 0)
(1.84773e-13 0 0)
(-2.86884e-13 0 0)
(2.43122e-14 0 0)
(-2.57709e-13 0 0)
(-1.36148e-13 0 0)
(-3.20921e-13 0 0)
(1.16699e-13 0 0)
(-1.45873e-14 0 0)
(2.57709e-13 0 0)
(2.72297e-13 0 0)
(-4.98919e-28 0 0)
(7.7799e-14 0 0)
(2.96609e-13 0 0)
(3.06334e-13 0 0)
(5.10556e-13 0 0)
(3.64683e-13 0 0)
(9.72488e-14 0 0)
(1.36148e-13 0 0)
(-8.26615e-14 0 0)
(-8.26615e-14 0 0)
(-2.1881e-13 0 0)
(-4.66794e-13 0 0)
(-2.82021e-13 0 0)
(-2.1881e-13 0 0)
(-3.25783e-13 0 0)
(-1.45873e-14 0 0)
(-2.67434e-13 0 0)
(-3.35508e-13 0 0)
(-5.15419e-13 0 0)
(-1.31286e-13 0 0)
(-4.91106e-13 0 0)
(-3.45233e-13 0 0)
(-5.20281e-13 0 0)
(-5.49456e-13 0 0)
(-4.95969e-13 0 0)
(-8.89826e-13 0 0)
(-8.02302e-13 0 0)
(-9.23863e-14 0 0)
(-1.26423e-13 0 0)
(-2.86884e-13 0 0)
(-4.1817e-13 0 0)
(-3.9872e-13 0 0)
(-3.30646e-13 0 0)
(-9.72488e-14 0 0)
(-2.72297e-13 0 0)
(-1.65323e-13 0 0)
(-6.56429e-13 0 0)
(-5.34868e-13 0 0)
(-7.43953e-13 0 0)
(-5.64043e-13 0 0)
(-4.42482e-13 0 0)
(-4.27895e-13 0 0)
(-7.7799e-14 0 0)
(3.40371e-14 0 0)
(2.77159e-13 0 0)
(-5.34868e-14 0 0)
(-7.29366e-14 0 0)
(6.80741e-14 0 0)
(6.32117e-14 0 0)
(-3.40371e-14 0 0)
(9.23863e-14 0 0)
(-1.89635e-13 0 0)
(-1.55598e-13 0 0)
(-3.01471e-13 0 0)
(-2.52847e-13 0 0)
(-5.73768e-13 0 0)
(-5.25143e-13 0 0)
(-3.06334e-13 0 0)
(-1.21561e-13 0 0)
(-1.45873e-13 0 0)
(6.32117e-14 0 0)
(-8.26615e-14 0 0)
(-1.65323e-13 0 0)
(8.26615e-14 0 0)
(1.31286e-13 0 0)
(-3.40371e-14 0 0)
(-1.94498e-14 0 0)
(9.23863e-14 0 0)
(2.77159e-13 0 0)
(3.9872e-13 0 0)
(5.9808e-13 0 0)
(3.88995e-13 0 0)
(5.30006e-13 0 0)
(5.54318e-13 0 0)
(5.25143e-13 0 0)
(6.27255e-13 0 0)
(7.24503e-13 0 0)
(4.08445e-13 0 0)
(4.52207e-13 0 0)
(-1.36148e-13 0 0)
(-3.20921e-13 0 0)
(-5.34868e-13 0 0)
(-5.05694e-13 0 0)
(-2.96609e-13 0 0)
(-8.75239e-14 0 0)
(-1.6046e-13 0 0)
(-3.40371e-14 0 0)
(9.23863e-14 0 0)
(1.45873e-13 0 0)
(-1.21561e-13 0 0)
(-2.57709e-13 0 0)
(-4.86244e-13 0 0)
(-1.6046e-13 0 0)
(-1.06974e-13 0 0)
(1.21561e-13 0 0)
(1.36148e-13 0 0)
(1.94498e-14 0 0)
(4.86244e-14 0 0)
(3.88995e-14 0 0)
(3.84133e-13 0 0)
(3.25783e-13 0 0)
(6.41842e-13 0 0)
(3.69545e-13 0 0)
(1.45873e-14 0 0)
(-2.86884e-13 0 0)
(-4.61932e-13 0 0)
(-3.35508e-13 0 0)
(-5.5918e-13 0 0)
(-2.09085e-13 0 0)
(-1.65323e-13 0 0)
(-2.91746e-14 0 0)
(1.55598e-13 0 0)
(1.89635e-13 0 0)
(3.88995e-13 0 0)
(6.80741e-14 0 0)
(-1.89635e-13 0 0)
(-4.57069e-13 0 0)
(-2.13947e-13 0 0)
(-4.1817e-13 0 0)
(-6.85604e-13 0 0)
(-7.92578e-13 0 0)
(-6.1753e-13 0 0)
(-4.47344e-13 0 0)
(-4.86244e-14 0 0)
(-3.40371e-14 0 0)
(1.70185e-13 0 0)
(-3.40371e-14 0 0)
(-6.80741e-14 0 0)
(-3.35508e-13 0 0)
(-3.35508e-13 0 0)
(-4.71657e-13 0 0)
(-1.6046e-13 0 0)
(-7.29366e-14 0 0)
(2.47984e-13 0 0)
(5.10556e-13 0 0)
(5.83493e-13 0 0)
(4.52207e-13 0 0)
(2.33397e-13 0 0)
(1.65323e-13 0 0)
(9.72488e-15 0 0)
(1.31286e-13 0 0)
(-5.83493e-14 0 0)
(1.63589e-27 0 0)
)
;

boundaryField
{
    sides
    {
        type            calculated;
        value           nonuniform List<vector> 2((1.63589e-27 0 0) (-3.45233e-13 0 0));
    }
    empty
    {
        type            empty;
    }
}


// ************************************************************************* //
