/*--------------------------------*- C++ -*----------------------------------*\
  =========                 |
  \\      /  F ield         | OpenFOAM: The Open Source CFD Toolbox
   \\    /   O peration     | Website:  https://openfoam.org
    \\  /    A nd           | Version:  13
     \\/     M anipulation  |
\*---------------------------------------------------------------------------*/
FoamFile
{
    format      ascii;
    class       volSymmTensorField;
    location    "22.20136";
    object      UPrime2Mean;
}
// * * * * * * * * * * * * * * * * * * * * * * * * * * * * * * * * * * * * * //

dimensions      [0 2 -2 0 0 0 0];

internalField   nonuniform List<symmTensor> 
17140
(
(4.6143239e-12 -3.2436119e-10 -1.8795548e-27 2.4276938e-08 3.649256e-26 9.6482368e-41)
(2.2994129e-10 -2.3572134e-09 -9.450669e-28 2.3177765e-07 8.5202818e-27 8.5722882e-43)
(2.1264622e-09 -5.1528353e-09 1.5944201e-25 7.0519573e-07 -9.2275055e-25 3.7370422e-39)
(1.0353745e-08 -5.8907711e-09 -3.4781667e-25 1.5215867e-06 1.4437965e-24 4.5164229e-39)
(3.5440007e-08 1.0255512e-10 7.0643911e-26 2.774018e-06 -2.2408157e-25 6.1724213e-41)
(9.8682098e-08 2.0706026e-08 -3.7050508e-25 4.5737585e-06 9.3386353e-25 6.6114739e-40)
(2.3993311e-07 6.8519831e-08 -9.4826421e-25 7.0523634e-06 1.9448114e-24 1.873954e-39)
(5.2980312e-07 1.6305372e-07 6.7774568e-25 1.0363474e-05 -1.1494961e-24 4.4665076e-40)
(1.0884556e-06 3.3384096e-07 3.1579478e-24 1.4683997e-05 -4.4797569e-24 4.7853019e-39)
(2.1138539e-06 6.2476548e-07 1.0785792e-23 2.0214271e-05 -1.2910869e-23 2.8788999e-38)
(3.9232096e-06 1.0999701e-06 -2.1881673e-23 2.7176651e-05 2.2254526e-23 6.3304417e-38)
(7.01238e-06 1.8517739e-06 2.6300251e-23 3.581185e-05 -2.2845769e-23 5.0277638e-38)
(1.2138875e-05 3.0110252e-06 5.3652832e-24 4.6372202e-05 -3.9964856e-24 1.177897e-39)
(2.0434621e-05 4.7602262e-06 -4.0012463e-23 5.9110981e-05 2.5661293e-23 3.7677587e-38)
(3.3554384e-05 7.3494683e-06 5.8079387e-24 7.426686e-05 -3.2138777e-24 4.6446085e-40)
(5.3864122e-05 1.111465e-05 -5.9660042e-23 9.2042781e-05 2.8552852e-23 2.9142739e-38)
(8.4669906e-05 1.6496427e-05 2.856133e-24 0.00011257883 -1.1852514e-24 4.0362547e-41)
(0.00013048213 2.405679e-05 -8.2130904e-25 0.00013591947 2.9364663e-25 2.0208844e-42)
(0.00019730162 3.448807e-05 -7.3678536e-23 0.00016197638 2.2983956e-23 1.0164885e-38)
(0.00029290649 4.8606861e-05 1.2032485e-22 0.00019048968 -3.2605281e-23 1.704315e-38)
(0.00042711498 6.7323553e-05 -7.2439461e-23 0.00022099219 1.7048202e-23 3.9356815e-39)
(0.00061200531 9.1578805e-05 1.7111083e-23 0.00025278382 -3.5061745e-24 1.4245355e-40)
(0.00086209716 0.00012224341 1.5494649e-22 0.00028492701 -2.7547661e-23 7.6676969e-39)
(0.0011945692 0.00015999103 -1.8792835e-22 0.00031627867 2.9025838e-23 7.5417794e-39)
(0.0016297534 0.00020517524 -3.6029421e-22 0.00034558091 4.8339185e-23 1.8880485e-38)
(0.0021915826 0.00025777283 3.4518788e-22 0.00037163497 -4.0249574e-23 1.2035542e-38)
(0.0029078721 0.00031754394 2.0034358e-21 0.00039356554 -2.0278118e-22 2.8658919e-37)
(0.0038139806 0.00038411861 2.7658771e-22 0.00041110105 -2.4269653e-23 3.9293804e-39)
(0.0049541985 0.00045723939 -2.8165619e-21 0.00042470103 2.1501593e-22 2.9966608e-37)
(0.0063809962 0.00053793438 -7.5975212e-22 0.00043543102 5.0341804e-23 1.6251034e-38)
(0.0081591772 0.0006271711 -3.1054408e-21 0.00044454304 1.7885638e-22 2.0587856e-37)
(0.01036695 0.00072512522 4.6548842e-21 0.00045281251 -2.3302901e-22 3.5583296e-37)
(0.013097937 0.0008324066 -1.3753223e-21 0.00046040175 5.9669728e-23 2.4156598e-38)
(0.016462747 0.00094933178 -7.4073924e-22 0.00046702907 2.7873487e-23 5.5277952e-39)
(0.020590567 0.001076054 -8.18534e-21 0.00047217731 2.6502475e-22 5.3644713e-37)
(0.025630026 0.0012125506 4.0144698e-21 0.00047526474 -1.1175402e-22 1.039335e-37)
(0.03174835 0.0013587011 -6.7390811e-21 0.00047576402 1.5967365e-22 2.3763834e-37)
(0.039127471 0.0015143524 -5.0538249e-21 0.00047326323 1.0116828e-22 1.096236e-37)
(0.047955206 0.0016793375 -2.5513841e-21 0.0004675675 4.2624988e-23 2.3134971e-38)
(0.058409088 0.0018538595 8.4670535e-21 0.00045891392 -1.1679748e-22 2.1363896e-37)
(0.070630729 0.0020386266 1.7407655e-20 0.00044824621 -1.9373342e-22 7.6348681e-37)
(0.084691597 0.00223497 1.7092873e-20 0.00043725531 -1.4948801e-22 6.2932346e-37)
(0.10055507 0.0024433039 8.0191014e-21 0.00042795093 -5.3009563e-23 1.197824e-37)
(0.11805015 0.0026611911 -4.1701667e-20 0.00042190292 1.9370023e-22 2.825887e-36)
(0.13687329 0.0028806984 -3.2322796e-20 0.00041971539 9.3071409e-23 1.5011025e-36)
(0.15660517 0.0030854454 8.352687e-21 0.00042096209 -1.0611742e-23 8.9844703e-38)
(0.17682952 0.0032562803 -5.9260434e-20 0.00042490844 -1.3550897e-23 4.105572e-36)
(0.1972393 0.0033808999 -2.0836688e-20 0.00043158396 -3.4112456e-23 4.6731615e-37)
(0.2175233 0.0034534173 2.1797239e-20 0.00044220552 6.4956295e-23 4.7794919e-37)
(0.2377421 0.0034799185 5.4341032e-20 0.00045724591 2.3151029e-22 2.8182007e-36)
(0.25783259 0.0034768112 -3.3796268e-20 0.00047729113 -1.8517767e-22 1.0507231e-36)
(0.2776324 0.0034739804 -2.1370709e-20 0.0005041201 -1.4212348e-22 4.1147623e-37)
(0.29669906 0.0035148482 5.5342222e-20 0.00053908254 4.3436893e-22 2.7486944e-36)
(0.31465426 0.0036329939 2.5745807e-20 0.00058033641 2.3382756e-22 6.0314942e-37)
(0.33092252 0.0038287529 1.7884127e-20 0.000624438 1.8532367e-22 3.0109791e-37)
(0.34519578 0.0040844376 -1.3582052e-20 0.00066831048 -1.5884161e-22 1.8281403e-37)
(0.35702479 0.004372746 3.4917735e-20 0.00070499366 4.5600692e-22 1.3097914e-36)
(0.36537883 0.0046485961 2.7509848e-20 0.00072547874 3.983796e-22 9.0062025e-37)
(0.36862 0.0048590396 6.4002628e-21 0.0007215267 1.0205475e-22 5.5791412e-38)
(0.36453937 0.0049898213 -1.5139904e-20 0.00069201409 -2.6389277e-22 3.6670904e-37)
(0.35049651 0.0051733926 -1.0618481e-20 0.00065237196 -2.0410815e-22 2.2280985e-37)
(0.32516729 0.0056326891 -3.4535335e-20 0.00063528993 -7.4526863e-22 3.0319554e-36)
(0.28654038 0.0064107641 -4.3318146e-21 0.00069199667 -1.0768908e-22 6.4973859e-38)
(0.23900951 0.0072970204 3.0431675e-20 0.00087649175 8.8317729e-22 4.5886989e-36)
(0.17970477 0.0074316363 -1.8691151e-20 0.0010365283 -6.491011e-22 2.7423763e-36)
(1.4300333e-10 -3.3519403e-09 2.5008085e-27 7.8634977e-08 -5.0731345e-26 7.8134715e-42)
(2.2816435e-09 -4.0604775e-08 -8.7113526e-25 7.4287189e-07 1.4043307e-23 1.0286057e-37)
(1.0403069e-08 -1.4787662e-07 1.5173283e-24 2.2398664e-06 -2.0129694e-23 8.1454447e-38)
(3.303597e-08 -3.7790729e-07 -6.9608549e-25 4.7852951e-06 7.7135708e-24 6.0536938e-39)
(8.6104374e-08 -8.0466531e-07 -2.235485e-24 8.6282567e-06 2.099998e-23 2.5833653e-38)
(1.9851378e-07 -1.5335596e-06 6.3228566e-24 1.4050686e-05 -5.0905149e-23 9.4322452e-38)
(4.2046466e-07 -2.7105827e-06 -9.4331451e-24 2.1364428e-05 6.554888e-23 1.024934e-37)
(8.3620766e-07 -4.5332639e-06 1.1591535e-24 3.0904823e-05 -6.9857126e-24 7.9386616e-40)
(1.5833719e-06 -7.2633122e-06 -4.9574625e-24 4.3019426e-05 2.6004416e-23 7.7376025e-39)
(2.8815704e-06 -1.1239901e-05 -1.1330107e-25 5.8050671e-05 5.1853478e-25 2.2104938e-42)
(5.0738662e-06 -1.689212e-05 -2.9766082e-23 7.6311311e-05 1.1921532e-22 8.6236636e-38)
(8.6856012e-06 -2.4748264e-05 6.2393605e-23 9.8051872e-05 -2.1899286e-22 2.1768339e-37)
(1.4505932e-05 -3.5438456e-05 6.7396599e-24 0.00012342041 -2.0759749e-23 1.4844002e-39)
(2.3697894e-05 -4.9685867e-05 -8.6328301e-23 0.00015241624 2.3362816e-22 1.4449621e-37)
(3.7942543e-05 -6.828076e-05 3.4168334e-23 0.00018484192 -8.1310609e-23 1.3611482e-38)
(5.9621302e-05 -9.20315e-05 2.778595e-23 0.00022026049 -5.8173337e-23 5.4771993e-39)
(9.2037185e-05 -0.00012168812 -2.2433625e-22 0.00025796851 4.1330974e-22 2.1968857e-37)
(0.00013967032 -0.00015783884 9.2426097e-22 0.00029699782 -1.4986017e-21 2.3209253e-36)
(0.00020845564 -0.00020078826 -7.2724964e-22 0.00033615927 1.0375455e-21 9.0436375e-37)
(0.00030606375 -0.0002504401 1.0877836e-21 0.00037413715 -1.3649762e-21 1.2881683e-36)
(0.00044216243 -0.00030622316 -1.9919859e-21 0.00040963197 2.1974291e-21 2.7853941e-36)
(0.00062864286 -0.00036711392 6.0083804e-22 0.00044153243 -5.8233295e-22 1.6563901e-37)
(0.00087981436 -0.00043180864 3.0212428e-22 0.00046907727 -2.5710872e-22 2.7788566e-38)
(0.0012126373 -0.00049907755 -1.1956816e-21 0.00049195709 8.9273737e-22 2.931418e-37)
(0.0016472239 -0.00056828486 5.1589902e-21 0.00051032108 -3.3783914e-21 3.7423259e-36)
(0.0022073572 -0.00063982772 9.1609039e-22 0.00052470133 -5.2581179e-22 8.2229165e-38)
(0.002920618 -0.00071511374 -5.5940757e-21 0.00053587702 2.8163396e-21 2.183038e-36)
(0.0038220527 -0.00079658262 7.3365013e-21 0.00054459774 -3.2393352e-21 2.7169188e-36)
(0.0049556749 -0.00088708617 -1.1693732e-21 0.00055175094 4.5338575e-22 5.0999898e-38)
(0.0063734416 -0.00098809269 -1.3210809e-20 0.00055889375 4.4939913e-21 4.857914e-36)
(0.0081395769 -0.001101039 1.5681321e-21 0.0005673081 -4.6859288e-22 5.2124283e-38)
(0.010331544 -0.0012278618 1.3701639e-20 0.00057737077 -3.5922741e-21 3.0583943e-36)
(0.01304202 -0.0013697775 3.9421568e-22 0.00058878449 -9.0287595e-23 1.9419917e-39)
(0.016380421 -0.0015279128 -1.3073106e-20 0.0006008391 2.6353455e-21 1.7132132e-36)
(0.020474423 -0.0017030105 1.6391044e-20 0.00061264669 -2.8923037e-21 2.1481401e-36)
(0.025470571 -0.0018950286 -8.2611002e-21 0.0006233086 1.2737497e-21 4.3924426e-37)
(0.031533196 -0.0021023548 1.0818659e-20 0.00063201888 -1.4560994e-21 6.1420857e-37)
(0.038840155 -0.0023206274 3.8162513e-20 0.00063813586 -4.4713872e-21 6.2719907e-36)
(0.047573529 -0.0025412786 9.43502e-21 0.0006413662 -9.5999905e-22 3.176098e-37)
(0.057902787 -0.0027497051 4.0437129e-20 0.00064211656 -3.5636671e-21 4.8938571e-36)
(0.069958775 -0.0029238909 -5.6440488e-20 0.00064199175 4.2900782e-21 8.0827556e-36)
(0.0837995 -0.0030351798 -5.6311495e-20 0.00064412501 3.6683959e-21 6.8771276e-36)
(0.099372691 -0.0030529618 -1.0394528e-20 0.00065319685 5.7562937e-22 2.0185447e-37)
(0.11649063 -0.0029532964 8.8593339e-20 0.00067516468 -4.1263713e-21 1.2901947e-35)
(0.13482915 -0.0027292653 -4.4525154e-20 0.0007166315 1.7159474e-21 2.8783493e-36)
(0.15395373 -0.0024019998 -1.6257433e-20 0.00078348777 5.0720759e-22 3.4387069e-37)
(0.17341208 -0.0020217149 9.0704611e-21 0.00087903496 -2.2165122e-22 9.7959887e-38)
(0.19286308 -0.001648913 2.9346201e-20 0.00100052 -5.3248669e-22 9.435268e-37)
(0.21212364 -0.0013417297 -1.4739921e-20 0.0011346548 1.8243918e-22 2.2312267e-37)
(0.23112455 -0.0011163138 2.7216046e-20 0.0012641031 -1.901149e-22 7.2341691e-37)
(0.24979703 -0.00092681252 1.6540971e-19 0.0013758687 -3.261758e-22 2.5847968e-35)
(0.26794113 -0.00070242873 7.9039569e-21 0.0014668746 2.2532324e-23 5.8126857e-38)
(0.28518312 -0.00038891287 -3.5345613e-20 0.0015449362 -2.6081761e-22 1.161899e-36)
(0.30112925 3.7735959e-05 7.7277597e-20 0.001616597 9.2534665e-22 5.6620166e-36)
(0.31544153 0.00056035519 -6.4189765e-20 0.0016857127 -1.0682994e-21 4.0625757e-36)
(0.32787393 0.0011612236 1.7526116e-19 0.0017493524 3.7518443e-21 3.2185103e-35)
(0.33800039 0.0018788759 4.7557832e-20 0.0017929384 1.2590796e-21 2.5778596e-36)
(0.34495996 0.0027596523 -1.2561538e-19 0.0017973698 -4.0002098e-21 2.0137599e-35)
(0.34715307 0.003864536 1.9770883e-20 0.0017403476 7.5013506e-22 5.730137e-37)
(0.34234434 0.0052433745 2.0479739e-20 0.0016055097 9.1366267e-22 7.3814623e-37)
(0.32781871 0.0069990475 3.6565399e-21 0.0013892145 1.9181941e-22 2.9478035e-38)
(0.30239405 0.0091971326 -4.2414338e-20 0.0011588969 -2.6292761e-21 5.1790374e-36)
(0.26398965 0.011558732 6.9853211e-20 0.0010353411 5.1468229e-21 1.9629931e-35)
(0.21762075 0.013834125 1.7235007e-20 0.0012166704 1.5233798e-21 1.7591766e-36)
(0.15978148 0.013946451 2.2203384e-20 0.0015427381 2.3960377e-21 4.8588801e-36)
(1.2435372e-09 -1.7745916e-08 3.6874375e-25 2.5325412e-07 -4.9999439e-24 2.3748911e-38)
(1.4286741e-08 -1.8471284e-07 -6.0914939e-25 2.3912045e-06 7.5578785e-24 9.3965531e-39)
(5.1202482e-08 -6.0630485e-07 -2.8366163e-25 7.2057055e-06 3.2288427e-24 6.6463748e-40)
(1.3116357e-07 -1.4154839e-06 4.120062e-25 1.5384483e-05 -4.2957018e-24 5.975719e-40)
(2.8445004e-07 -2.7920035e-06 -2.86951e-24 2.7718353e-05 2.7407732e-23 1.4033229e-38)
(5.5948463e-07 -4.9822447e-06 -2.9555073e-25 4.5097315e-05 2.5851731e-24 7.758404e-41)
(1.0322727e-06 -8.3176163e-06 -5.0992841e-24 6.8498374e-05 4.0792215e-23 1.2668705e-38)
(1.8202979e-06 -1.3236466e-05 -7.2904874e-24 9.8961067e-05 5.3236717e-23 1.4707219e-38)
(3.1028773e-06 -2.0309521e-05 7.8024257e-23 0.00013754611 -5.1899147e-22 9.8246815e-37)
(5.1503483e-06 -3.0267056e-05 -9.0318003e-23 0.00018527307 5.460705e-22 7.8321603e-37)
(8.3652698e-06 -4.4025374e-05 5.5598163e-23 0.00024303288 -3.0490775e-22 1.7935638e-37)
(1.333958e-05 -6.2708602e-05 1.0413985e-22 0.00031147292 -5.1698163e-22 3.8500111e-37)
(2.0932359e-05 -8.7659797e-05 -2.6261187e-22 0.00039085524 1.1777935e-21 1.5135068e-36)
(3.2373226e-05 -0.00012043306 -4.1159831e-23 0.00048089443 1.664498e-22 2.3176466e-38)
(4.9396181e-05 -0.00016275635 2.0036805e-22 0.00058058969 -7.2925976e-22 3.4519158e-37)
(7.44075e-05 -0.00021645404 1.7303097e-22 0.00068807719 -5.6570918e-22 1.6287434e-37)
(0.00011068864 -0.00028332034 -2.5108413e-22 0.00080054092 7.3600883e-22 2.1851018e-37)
(0.00016263063 -0.00036494171 1.132851e-21 0.0009142318 -2.9716458e-21 2.8538982e-36)
(0.00023599084 -0.00046248064 -8.3085431e-22 0.0010246479 1.9465892e-21 9.926484e-37)
(0.00033815726 -0.00057645588 5.0744318e-22 0.0011269167 -1.0597401e-21 2.4136696e-37)
(0.0004784032 -0.00070658315 -2.1014574e-21 0.0012163844 3.9045321e-21 2.7259454e-36)
(0.0006681218 -0.00085176776 -6.6722238e-22 0.0012893511 1.1008276e-21 1.8292657e-37)
(0.00092104572 -0.0010103453 1.6874508e-21 0.0013438107 -2.4678013e-21 7.8891787e-37)
(0.0012535078 -0.0011806382 -3.0562451e-21 0.001379978 3.9551054e-21 1.7689303e-36)
(0.0016849492 -0.0013618314 -1.4373848e-21 0.0014003839 1.6434796e-21 2.7138728e-37)
(0.0022385862 -0.0015548225 2.043668e-21 0.0014094287 -2.0629588e-21 3.8785541e-37)
(0.0029412503 -0.0017622464 1.3641851e-20 0.0014123833 -1.2143632e-20 1.2392532e-35)
(0.0038269802 -0.0019886776 7.1996805e-21 0.0014136509 -5.6494309e-21 2.5178083e-36)
(0.004938789 -0.0022396524 -4.1557588e-21 0.001416277 2.875325e-21 6.239645e-37)
(0.0063271195 -0.0025191751 5.1239312e-21 0.0014232228 -3.1228617e-21 7.1223134e-37)
(0.0080542708 -0.0028310448 -3.6585625e-21 0.0014363437 1.9655712e-21 2.7881893e-37)
(0.010195281 -0.0031793105 -2.361287e-20 0.0014556978 1.116393e-20 8.9634741e-36)
(0.012839773 -0.0035669791 8.9588453e-21 0.0014803121 -3.7262641e-21 1.0109497e-36)
(0.016093321 -0.0039965468 3.018899e-20 0.0015087007 -1.1034949e-20 9.0855636e-36)
(0.020078701 -0.0044695362 -1.1306972e-20 0.001539139 3.630313e-21 1.0230839e-36)
(0.024936046 -0.0049856295 -1.7740432e-20 0.0015697521 4.9935008e-21 2.0311952e-36)
(0.030821139 -0.005541161 3.4271851e-20 0.0015984897 -8.4490699e-21 6.1850665e-36)
(0.037900335 -0.0061268888 1.1619607e-20 0.001623165 -2.5048378e-21 5.847179e-37)
(0.046340237 -0.0067250858 -2.2806904e-20 0.0016417019 4.2946299e-21 1.8796337e-36)
(0.056289767 -0.0073063557 -1.0046598e-20 0.0016528547 1.648262e-21 3.0691523e-37)
(0.067853375 -0.0078272071 5.2831212e-20 0.0016573519 -7.5222489e-21 7.192381e-36)
(0.081056874 -0.0082317188 -1.623215e-20 0.0016596658 1.9958678e-21 5.855229e-37)
(0.095811434 -0.0084596795 -2.5414092e-20 0.001669916 2.6832871e-21 1.2414203e-36)
(0.11189035 -0.008461783 -7.2867148e-20 0.0017053558 6.5417088e-21 8.9359669e-36)
(0.12892863 -0.0082188018 1.4754897e-19 0.0017897112 -1.1110414e-20 3.2581094e-35)
(0.14646287 -0.0077630376 -1.0097718e-19 0.0019487775 6.2610737e-21 1.3731959e-35)
(0.16404809 -0.0071887559 -2.6740302e-20 0.0021999912 1.3339763e-21 8.7646845e-37)
(0.18136325 -0.006616752 -1.098362e-19 0.0025357204 4.2331904e-21 1.3760204e-35)
(0.19824547 -0.0061412649 -1.3561924e-19 0.002913775 3.824558e-21 1.9769409e-35)
(0.21465036 -0.0057931841 -7.0421267e-21 0.0032757274 1.34931e-22 5.0785897e-38)
(0.23055478 -0.0055114948 3.0111308e-20 0.0035748872 -2.9495271e-22 9.0657478e-37)
(0.2457941 -0.0051867079 -2.2145648e-19 0.0038006374 2.2103573e-22 4.8719223e-35)
(0.26005111 -0.0047409388 -9.3546059e-20 0.0039783205 -6.7325271e-22 8.773352e-36)
(0.27298803 -0.0041640423 -9.4247469e-20 0.0041383683 -1.4467692e-21 9.1610555e-36)
(0.28439369 -0.0034915616 -3.0016342e-20 0.0042957791 -7.1581904e-22 9.7639572e-37)
(0.29408315 -0.0027292329 -2.2226355e-19 0.0044407501 -7.1681947e-21 5.7575278e-35)
(0.30173358 -0.0017809816 8.3537453e-20 0.004535925 3.4746864e-21 8.9599339e-36)
(0.30653052 -0.00049227743 -2.364896e-20 0.0045367746 -1.2171754e-21 8.1900347e-37)
(0.3068352 0.0013343365 -1.7855632e-19 0.0043904132 -1.1233193e-20 5.4521367e-35)
(0.30052201 0.0038059106 -6.4017392e-20 0.0040609471 -4.8721697e-21 8.5449148e-36)
(0.28484577 0.0069809256 6.7127951e-20 0.0035261981 6.151497e-21 1.2056819e-35)
(0.25899598 0.010786333 1.9848008e-19 0.0029236154 2.1941382e-20 1.4233195e-34)
(0.22094455 0.014528687 -5.2527176e-20 0.0024538318 -7.0433566e-21 1.4517436e-35)
(0.1774147 0.018013104 -6.8074378e-20 0.0025510238 -1.1222225e-20 3.772187e-35)
(0.12387627 0.0178786 -2.1827198e-20 0.0029331516 -4.5149691e-21 6.9205674e-36)
(5.0867664e-09 -5.1702114e-08 -2.4175846e-24 5.2550647e-07 2.3947435e-23 2.6634379e-37)
(5.2651294e-08 -5.1125572e-07 8.1936775e-24 4.9651698e-06 -7.7742908e-23 4.8848521e-37)
(1.7291573e-07 -1.6085702e-06 -4.9637646e-24 1.4971024e-05 4.5048986e-23 6.3868766e-38)
(4.0547559e-07 -3.5994378e-06 7.9234617e-25 3.1984538e-05 -6.8610141e-24 7.5487495e-40)
(8.0697625e-07 -6.8158562e-06 -2.1639176e-23 5.7668232e-05 1.7845776e-22 2.9506442e-37)
(1.459916e-06 -1.1692559e-05 2.9867337e-23 9.3900165e-05 -2.3410691e-22 3.1593499e-37)
(2.4834987e-06 -1.8792073e-05 -5.9059018e-23 0.00014275191 4.3878295e-22 7.2712309e-37)
(4.0488304e-06 -2.88337e-05 3.5634621e-23 0.00020644122 -2.5016347e-22 1.6100626e-37)
(6.400278e-06 -4.2726466e-05 1.717375e-22 0.00028725009 -1.1354087e-21 2.328055e-36)
(9.8848872e-06 -6.1603486e-05 -5.1894946e-23 0.00038739888 3.2199153e-22 1.3465252e-37)
(1.4992473e-05 -8.6854566e-05 -2.468685e-22 0.00050886717 1.4324945e-21 1.954001e-36)
(2.240954e-05 -0.00012015178 9.3693144e-23 0.00065315492 -5.0665514e-22 1.8219883e-37)
(3.3090738e-05 -0.00016346048 7.7544196e-24 0.00082098331 -3.8941001e-23 8.1442596e-40)
(4.8351775e-05 -0.00021902512 -3.7534612e-22 0.0010119458 1.7442027e-21 1.2484818e-36)
(6.9987666e-05 -0.00028931734 1.4477812e-21 0.001224137 -6.2037977e-21 1.2221608e-35)
(0.00010041921 -0.00037693246 -1.0936968e-21 0.0014538102 4.3064186e-21 4.6056404e-36)
(0.00014286904 -0.0004844237 -1.280078e-23 0.001695143 4.6151687e-23 4.1789056e-40)
(0.00020156536 -0.00061407188 9.1050322e-22 0.0019402171 -2.9954302e-21 1.4068825e-36)
(0.00028196807 -0.00076760615 -2.8265817e-21 0.0021793326 8.4555059e-21 9.0588622e-36)
(0.0003910082 -0.00094591983 1.6258886e-21 0.0024017629 -4.4072233e-21 2.0137736e-36)
(0.0005373315 -0.0011488636 2.9445903e-21 0.0025969864 -7.207924e-21 4.4674536e-36)
(0.00073154201 -0.0013752332 1.4417709e-21 0.0027563061 -3.1764308e-21 7.3022966e-37)
(0.00098645467 -0.0016230808 -8.5769114e-21 0.0028745777 1.6954299e-20 1.7811964e-35)
(0.001317395 -0.0018904385 -5.3606879e-21 0.0029515881 9.479102e-21 4.8490907e-36)
(0.0017427142 -0.0021764744 4.114863e-21 0.0029925397 -6.4921455e-21 2.0199623e-36)
(0.0022846251 -0.0024827678 -2.8347981e-21 0.0030072664 3.9804816e-21 6.8603559e-37)
(0.0029688028 -0.0028133154 1.2445466e-20 0.0030081512 -1.5527477e-20 9.627866e-36)
(0.0038276145 -0.0031749848 -4.1624445e-21 0.0030063263 4.6071308e-21 7.9524246e-37)
(0.0049022572 -0.0035759665 1.2973908e-20 0.0030087485 -1.2726662e-20 5.7944705e-36)
(0.0062408438 -0.0040228403 -8.4299308e-21 0.0030207774 7.3215851e-21 1.8607859e-36)
(0.0079024392 -0.0045217145 5.9677738e-21 0.0030457307 -4.5832917e-21 7.1739196e-37)
(0.0099580759 -0.0050786512 -2.489918e-20 0.0030835975 1.689792e-20 9.7477332e-36)
(0.01249236 -0.005698321 4.0486533e-21 0.0031325453 -2.4255497e-21 2.0355288e-37)
(0.015604523 -0.0063843612 -2.4111526e-20 0.0031899412 1.273387e-20 5.741529e-36)
(0.019409242 -0.0071387477 2.592764e-20 0.0032526789 -1.2061884e-20 5.3464084e-36)
(0.024036187 -0.0079604318 9.2977356e-21 0.0033171148 -3.8047041e-21 5.5643831e-37)
(0.02962743 -0.0088431243 -1.2901354e-19 0.0033788622 4.6419332e-20 8.8261261e-35)
(0.03633126 -0.0097720301 -3.7361044e-20 0.003432706 1.1799589e-20 6.1229129e-36)
(0.044290583 -0.010719655 3.4176504e-20 0.0034729643 -9.4599875e-21 4.2892965e-36)
(0.053623767 -0.011641336 -3.6884169e-20 0.0034947205 8.9268988e-21 4.2180012e-36)
(0.064397539 -0.012472409 1.0381042e-20 0.0034962994 -2.1885599e-21 2.8406915e-37)
(0.076594298 -0.013131034 7.0521127e-20 0.0034834623 -1.2910847e-20 1.1329e-35)
(0.090079604 -0.013530355 -3.5286632e-21 0.0034748909 5.5795345e-22 2.4825711e-38)
(0.10458359 -0.013600788 -2.74283e-20 0.0035066044 3.7013722e-21 1.3118803e-36)
(0.11970767 -0.013319653 1.4173884e-20 0.0036314709 -1.6045312e-21 3.1551929e-37)
(0.13498816 -0.012744823 -7.5925523e-21 0.0039092273 7.1880385e-22 7.9505482e-38)
(0.15003045 -0.012025452 -2.2739966e-20 0.0043802859 1.7412676e-21 6.6798289e-37)
(0.16457861 -0.011345644 3.6256242e-19 0.0050268952 -2.1798541e-20 1.5946471e-34)
(0.17857063 -0.0108411 -4.1669732e-20 0.0057557535 1.8520241e-21 2.0003808e-36)
(0.19205614 -0.010537043 3.916407e-20 0.0064398882 -1.2079912e-21 1.7057591e-36)
(0.20504723 -0.010326785 -3.7053956e-19 0.0069822466 6.5943353e-21 1.5000586e-34)
(0.21736952 -0.010051569 2.0212981e-19 0.0073669461 -1.108789e-21 4.4661104e-35)
(0.22870724 -0.0096224056 1.6382747e-19 0.0076542285 1.1050225e-21 2.9897256e-35)
(0.23876526 -0.0090534701 1.522157e-19 0.0079150232 2.8591776e-21 2.686373e-35)
(0.24740896 -0.0084002932 1.4099091e-19 0.0081830139 4.3817909e-21 2.4517399e-35)
(0.25452294 -0.0076477507 2.1014462e-19 0.0084364081 9.2409206e-21 5.9380349e-35)
(0.25979277 -0.0066257856 -3.9387745e-19 0.0086016951 -2.2866086e-20 2.3337542e-34)
(0.26236807 -0.0050702265 2.2399538e-19 0.0085942712 1.648421e-20 8.7068765e-35)
(0.26055227 -0.0026689194 3.085643e-19 0.0083168221 2.8216407e-20 1.9782503e-34)
(0.25236585 0.0007442073 -2.0168622e-19 0.0077107826 -2.2723494e-20 1.0548695e-34)
(0.23520069 0.0051554889 -5.5852974e-20 0.0067403187 -7.7171182e-21 1.0677076e-35)
(0.20894842 0.010342952 -4.0963321e-20 0.0056325158 -6.9638971e-21 8.0980879e-36)
(0.17153661 0.015066127 1.6975301e-19 0.0047068766 3.5731079e-20 2.0978542e-34)
(0.13135693 0.019192022 9.7288127e-20 0.0046210592 2.583534e-20 1.1321573e-34)
(0.084727271 0.018606405 -3.018537e-21 0.0049468793 -1.0512421e-21 2.1978622e-37)
(1.3918536e-08 -1.091529e-07 2.8109908e-24 8.5600836e-07 -2.1706098e-23 1.3205675e-37)
(1.3802425e-07 -1.0570336e-06 -1.9443103e-23 8.0953705e-06 1.4664889e-22 1.0545323e-36)
(4.3634517e-07 -3.2647806e-06 2.5989188e-23 2.4430029e-05 -1.911121e-22 7.0101956e-37)
(9.8227261e-07 -7.1626891e-06 -1.4115281e-23 5.224217e-05 1.0101993e-22 1.0014023e-37)
(1.8744247e-06 -1.3291682e-05 -6.8995208e-24 9.4291868e-05 4.798141e-23 1.3073964e-38)
(3.2469199e-06 -2.2332973e-05 7.7606128e-23 0.00015371493 -5.2346859e-22 9.6848852e-37)
(5.2815092e-06 -3.5136737e-05 -2.5105774e-23 0.00023399557 1.6387056e-22 6.216233e-38)
(8.2236719e-06 -5.2753576e-05 -6.6989405e-23 0.00033889918 4.2198402e-22 2.8045188e-37)
(1.2404275e-05 -7.6468606e-05 -6.3818348e-24 0.00047235035 3.8681902e-23 1.6523849e-39)
(1.8268123e-05 -0.00010783487 -6.675441e-23 0.00063823962 3.8809144e-22 1.1936391e-37)
(2.6411359e-05 -0.00014870218 1.1438015e-22 0.0008401423 -6.3567903e-22 2.3432991e-37)
(3.763001e-05 -0.00020123543 -9.6844294e-23 0.0010809357 5.1270433e-22 1.1335303e-37)
(5.2982304e-05 -0.0002679139 -4.3341047e-22 0.0013623096 2.1777415e-21 1.5414466e-36)
(7.3867616e-05 -0.00035150072 -1.5270803e-23 0.0016841807 7.2548014e-23 1.3035895e-39)
(0.00010212483 -0.00045496938 4.8578933e-22 0.0020440486 -2.1735041e-21 9.0377276e-37)
(0.00014015257 -0.00058137429 4.1591811e-22 0.002436369 -1.7453905e-21 4.542848e-37)
(0.00019105295 -0.0007336556 -4.3218445e-22 0.0028520684 1.6939324e-21 3.3699742e-37)
(0.00025879918 -0.00091437908 4.998171e-23 0.0032783742 -1.8218566e-22 3.1094721e-39)
(0.00034842573 -0.0011254303 1.2240586e-21 0.003699174 -4.1307836e-21 1.2851034e-36)
(0.00046623896 -0.0013677141 1.792989e-21 0.0040961073 -5.5769095e-21 1.9096814e-36)
(0.00062004716 -0.0016409508 -2.4533556e-21 0.0044505079 7.001709e-21 2.4886924e-36)
(0.0008194134 -0.0019436987 -2.9489883e-21 0.0047461151 7.6877872e-21 2.5186462e-36)
(0.001075945 -0.0022737495 4.7197001e-21 0.0049721585 -1.1190108e-20 4.5551798e-36)
(0.001403644 -0.0026289933 -6.9117657e-21 0.0051260733 1.4841779e-20 6.9634901e-36)
(0.0018194315 -0.0030087691 -1.4091478e-20 0.005214866 2.7298536e-20 2.0860875e-35)
(0.0023440375 -0.0034154675 3.8814273e-20 0.0052543022 -6.7601194e-20 1.1556269e-34)
(0.0030018842 -0.0038547941 -2.4809924e-20 0.0052657962 3.8730246e-20 3.492914e-35)
(0.0038229623 -0.0043358834 4.2403624e-20 0.0052703983 -5.9181401e-20 7.6491938e-35)
(0.004845624 -0.0048694607 -6.0724496e-20 0.0052811841 7.5617314e-20 1.1922609e-34)
(0.0061154437 -0.005465057 7.7281051e-20 0.0053070583 -8.5703285e-20 1.4855943e-34)
(0.0076869232 -0.0061308982 -9.0633689e-20 0.0053539857 8.9358171e-20 1.5911043e-34)
(0.0096257203 -0.0068748297 1.7214734e-20 0.0054224185 -1.5067774e-20 4.5248294e-36)
(0.012009697 -0.0077029875 6.6882887e-20 0.0055095704 -5.189422e-20 5.4285135e-35)
(0.014929568 -0.0086197743 -4.224877e-20 0.0056112578 2.9025346e-20 1.740805e-35)
(0.018489179 -0.0096271203 1.4739812e-20 0.0057223304 -8.9560847e-21 1.7197547e-36)
(0.02280437 -0.010722664 4.7760194e-21 0.0058364646 -2.5647044e-21 1.4829711e-37)
(0.027999425 -0.01189681 6.5372065e-20 0.0059456889 -3.0967133e-20 2.2846265e-35)
(0.034199709 -0.013128502 2.3531104e-20 0.006040113 -9.8239552e-21 2.4617101e-36)
(0.041518951 -0.014379965 2.6092535e-20 0.0061084385 -9.5800985e-21 2.5422522e-36)
(0.050039528 -0.015591431 2.8178515e-20 0.0061400211 -9.0842813e-21 2.525484e-36)
(0.059786326 -0.016678456 -1.5621283e-19 0.0061292456 4.4056721e-20 6.6594093e-35)
(0.070697181 -0.017536696 7.4161523e-20 0.0060834585 -1.8217875e-20 1.3010195e-35)
(0.082596445 -0.01805855 1.274932e-20 0.0060334354 -2.7156832e-21 3.3343495e-37)
(0.095184492 -0.018163714 -1.562744e-19 0.0060422551 2.8514573e-20 4.4875697e-35)
(0.10805944 -0.017841285 -8.3932434e-20 0.0062049624 1.2994078e-20 1.1618123e-35)
(0.12081005 -0.017195618 4.3272661e-20 0.0066290658 -5.6009637e-21 2.823493e-36)
(0.1331524 -0.01644723 1.6380488e-19 0.0073820032 -1.7266795e-20 3.7399211e-35)
(0.14497285 -0.0158362 -7.3380616e-20 0.0084198287 6.1626047e-21 7.0800511e-36)
(0.15633294 -0.015511934 2.1893978e-19 0.0095720205 -1.3797334e-20 6.0307628e-35)
(0.16733674 -0.01545343 1.203014e-19 0.010614629 -5.3462268e-21 1.7744619e-35)
(0.17794759 -0.015477088 1.6611442e-19 0.011391487 -4.5522965e-21 3.3554335e-35)
(0.18790243 -0.015371789 4.4178051e-19 0.011897146 -4.562367e-21 2.3987002e-34)
(0.19683742 -0.015057328 -3.3443487e-19 0.012251991 -1.9676306e-21 1.4176638e-34)
(0.20448164 -0.014593286 1.0560728e-19 0.012584104 2.4447495e-21 1.488138e-35)
(0.21076629 -0.014059305 -1.7334659e-19 0.01294792 -6.784128e-21 4.3279661e-35)
(0.21561055 -0.013409762 -1.5525345e-19 0.013303821 -8.9016972e-21 3.8427824e-35)
(0.21864903 -0.012390788 -5.6390171e-20 0.013529405 -4.3634896e-21 5.7841716e-36)
(0.21895657 -0.010630059 -4.6970721e-19 0.013487293 -4.6326848e-20 4.7200085e-34)
(0.21481538 -0.007733982 -1.133401e-19 0.013026632 -1.411008e-20 3.3676075e-35)
(0.20449514 -0.0035075874 2.2761799e-19 0.012059638 3.5499718e-20 1.7427972e-34)
(0.18565138 0.0019179726 7.350318e-20 0.010559229 1.43488e-20 2.4761326e-35)
(0.15911645 0.0081984167 -4.5291853e-20 0.0088306649 -1.1093186e-20 1.3796549e-35)
(0.12316492 0.013568841 -7.3957566e-20 0.0074015528 -2.2977525e-20 5.8981439e-35)
(0.086878353 0.017648189 -8.7243056e-20 0.0070458197 -3.5161711e-20 1.4301918e-34)
(0.04961639 0.016412322 4.4882919e-21 0.0071867215 2.4483531e-21 8.3181689e-37)
(2.9601154e-08 -1.8800138e-07 1.2700433e-23 1.1940262e-06 -7.9829385e-23 1.225981e-36)
(2.8748414e-07 -1.8027475e-06 9.2153433e-24 1.1304752e-05 -5.7135518e-23 1.1063654e-37)
(8.9161669e-07 -5.5180296e-06 -1.207436e-23 3.415122e-05 7.3718141e-23 7.2555284e-38)
(1.9652762e-06 -1.1986679e-05 -6.3271824e-23 7.3115675e-05 3.8000194e-22 9.8953284e-37)
(3.6672838e-06 -2.201174e-05 4.6343679e-23 0.00013213899 -2.7349186e-22 2.9716121e-37)
(6.202884e-06 -3.6576076e-05 -8.6172771e-23 0.00021572995 4.9902536e-22 6.1591407e-37)
(9.8366442e-06 -5.6872109e-05 4.706356e-23 0.00032894262 -2.6698874e-22 1.1537978e-37)
(1.4908544e-05 -8.4331713e-05 1.3914803e-23 0.00047730085 -7.717215e-23 6.5502736e-39)
(2.1854621e-05 -0.00012065578 -9.6572702e-23 0.00066664984 5.2241981e-22 2.1005699e-37)
(3.12329e-05 -0.00016783915 -2.5291735e-22 0.00090290954 1.331163e-21 9.7682963e-37)
(4.375591e-05 -0.00022818645 -1.5334155e-23 0.0011917045 7.8309208e-23 2.4648489e-39)
(6.0331207e-05 -0.00030431209 6.0318555e-22 0.0015378461 -2.979966e-21 2.6493049e-36)
(8.2111587e-05 -0.00039911602 -9.994301e-22 0.0019446519 4.7614405e-21 5.0821885e-36)
(0.00011055687 -0.00051572486 1.9284823e-21 0.0024131075 -8.8295696e-21 1.3288251e-35)
(0.00014750924 -0.00065738729 -6.0139196e-22 0.0029409084 2.6364951e-21 9.1058929e-37)
(0.00019528453 -0.00082731386 1.5232866e-21 0.0035214735 -6.3693617e-21 4.1262254e-36)
(0.0002567814 -0.001028456 -2.1939216e-21 0.004143091 8.7130313e-21 6.057818e-36)
(0.00033561153 -0.0012632315 1.6962581e-21 0.0047884405 -6.3702042e-21 2.5672628e-36)
(0.00043625342 -0.0015332217 -3.1873862e-22 0.0054348063 1.1266402e-21 6.4423693e-38)
(0.00056423463 -0.0018388995 -1.5358544e-21 0.0060553198 5.0847917e-21 1.0654785e-36)
(0.00072634926 -0.0021794807 4.4266733e-21 0.00662149 -1.3657963e-20 6.3295718e-36)
(0.00093092076 -0.0025530309 -7.3889767e-21 0.0071070236 2.1137197e-20 1.2679399e-35)