/*--------------------------------*- C++ -*----------------------------------*\
  =========                 |
  \\      /  F ield         | OpenFOAM: The Open Source CFD Toolbox
   \\    /   O peration     | Website:  https://openfoam.org
    \\  /    A nd           | Version:  13
     \\/     M anipulation  |
\*---------------------------------------------------------------------------*/
FoamFile
{
    format      ascii;
    class       surfaceScalarField;
    location    "2000";
    object      phi;
}
// * * * * * * * * * * * * * * * * * * * * * * * * * * * * * * * * * * * * * //

dimensions      [0 3 -1 0 0 0 0];

internalField   nonuniform List<scalar> 
18914
(
8.0671449e-10
-3.5551424e-10
-4.5119368e-10
3.7172532e-09
-1.2866322e-09
-1.6239176e-09
9.6711672e-09
-2.6420753e-09
-3.3118777e-09
1.9958212e-08
-4.588181e-09
-5.6989145e-09
3.6342956e-08
-7.3546158e-09
-9.0301976e-09
6.1232531e-08
-1.1257657e-08
-1.3632008e-08
9.7902622e-08
-1.6732365e-08
-1.9937846e-08
1.5080171e-07
-2.4376448e-08
-2.8522795e-08
2.2596026e-07
-3.5010084e-08
-4.0148673e-08
3.3154061e-07
-4.975734e-08
-5.582328e-08
4.7857509e-07
-7.0156802e-08
-7.6878038e-08
6.8195581e-07
-9.8311677e-08
-1.0506955e-07
9.617601e-07
-1.3709292e-07
-1.4271212e-07
1.3450231e-06
-1.9041373e-07
-1.9285041e-07
1.8681041e-06
-2.635991e-07
-2.5948369e-07
2.5798397e-06
-3.6388231e-07
-3.478562e-07
3.5457366e-06
-5.0106923e-07
-4.6483206e-07
4.853531e-06
-6.8842394e-07
-6.1937717e-07
6.6205408e-06
-9.4384324e-07
-8.2317603e-07
9.0033518e-06
-1.2914066e-06
-1.0914174e-06
1.2210532e-05
-1.7634082e-06
-1.4437886e-06
1.651924e-05
-2.4030022e-06
-1.9057273e-06
2.2296813e-05
-3.2676175e-06
-2.509983e-06
3.0028657e-05
-4.4333268e-06
-3.2985528e-06
4.035404e-05
-6.0003764e-06
-4.3250551e-06
5.4111698e-05
-8.1001085e-06
-5.6576156e-06
7.2397461e-05
-1.0903516e-05
-7.3823346e-06
9.6636443e-05
-1.4631679e-05
-9.6074094e-06
0.00012867262
-1.9568324e-05
-1.2467978e-05
0.00017087897
-2.607473e-05
-1.6131748e-05
0.00022629151
-3.4607199e-05
-2.0805466e-05
0.00029877096
-4.5737293e-05
-2.67423e-05
0.0003931961
-6.0175086e-05
-3.4250205e-05
0.00051569302
-7.8795712e-05
-4.3701378e-05
0.00067390548
-0.00010266965
-5.5542998e-05
0.000877312
-0.00013309723
-7.0309472e-05
0.0011375966
-0.00017164817
-8.8636564e-05
0.0014690808
-0.00022020647
-0.00011127787
0.001889227
-0.00028102214
-0.00013912423
0.0024192205
-0.00035676697
-0.00017322666
0.003084646
-0.00045060273
-0.00021482301
0.0039162515
-0.00056623714
-0.00026536849
0.0049508485
-0.00070803261
-0.00032656457
0.0062322536
-0.00088099498
-0.00040041026
0.0078125152
-0.0010910555
-0.00048920616
0.0097528775
-0.0013445218
-0.00059584041
0.012125442
-0.0016488728
-0.00072369177
0.015014131
-0.0020123095
-0.00087637901
0.018514327
-0.0024427962
-0.0010573984
0.022744678
-0.0029571253
-0.0012732248
0.027807405
-0.0035396904
-0.0015230354
-0.0043000694
0.033935862
-0.0018283854
8.2970403e-10
-1.1852196e-09
3.823013e-09
-4.2799641e-09
9.9458695e-09
-8.7649766e-09
2.052457e-08
-1.516694e-08
3.7373692e-08
-2.4203815e-08
6.2968564e-08
-3.685263e-08
1.0067764e-07
-5.4441574e-08
1.5507533e-07
-7.877431e-08
2.3236266e-07
-1.1229764e-07
3.4093257e-07
-1.5832755e-07
4.9212864e-07
-2.2135328e-07
7.0126237e-07
-3.0744601e-07
9.8897528e-07
-4.2480677e-07
1.3830601e-06
-5.8449998e-07
1.9208916e-06
-8.0143303e-07
2.6526658e-06
-1.0956601e-06
3.6457042e-06
-1.4941132e-06
4.9901625e-06
-2.0328905e-06
6.8065764e-06
-2.7602685e-06
9.2558014e-06
-3.7406469e-06
1.2552057e-05
-5.0596841e-06
1.6979965e-05
-6.8309359e-06
2.2916685e-05
-9.2043728e-06
3.0860516e-05
-1.2377207e-05
4.1467593e-05
-1.6607522e-05
5.5598634e-05
-2.2231243e-05
7.4378003e-05
-2.9683005e-05
9.9267685e-05
-3.9521508e-05
0.00013215908
-5.2459896e-05
0.00017548586
-6.9401704e-05
0.00023236127
-9.1482848e-05
0.00030674386
-0.00012012017
0.00040363552
-0.00015706708
0.00052931648
-0.00020447706
0.0006916224
-0.00026497599
0.00090026945
-0.00034174472
0.0011672344
-0.00043861362
0.0015071982
-0.00056017066
0.0019380616
-0.00071188607
0.0024815435
-0.00090024955
0.0031638749
-0.0011329347
0.0040165846
-0.0014189475
0.0050774206
-0.0017688692
0.0063913339
-0.0021949086
0.0080117189
-0.0027114402
0.010001461
-0.0033342633
0.012434505
-0.0040819141
0.015397172
-0.0049749732
0.01898725
-0.0060328676
0.023327079
-0.0072969455
0.028521504
-0.0087341021
-0.010588904
0.034810356
8.6061347e-10
-2.0458333e-09
3.9652809e-09
-7.3846529e-09
1.0315599e-08
-1.5115339e-08
2.128672e-08
-2.6138118e-08
3.8759789e-08
-4.167696e-08
6.5300602e-08
-6.3393544e-08
1.0440018e-07
-9.3541284e-08
1.6079853e-07
-1.3517284e-07
2.4092007e-07
-1.9241941e-07
3.534584e-07
-2.7086618e-07
5.1016096e-07
-3.7805629e-07
7.268809e-07
-5.2416659e-07
1.0249848e-06
-7.2291162e-07
1.4332345e-06
-9.9275118e-07
1.9902974e-06
-1.3584983e-06
2.7480905e-06
-1.8534568e-06
3.7762226e-06
-2.5222507e-06
5.1678822e-06
-3.4245577e-06
7.0476169e-06
-4.6400137e-06
9.5815777e-06
-6.2746218e-06
1.2990954e-05
-8.4690792e-06
1.7569516e-05
-1.1409523e-05
2.3706396e-05
-1.5341286e-05
3.1915508e-05
-2.0586364e-05
4.2873285e-05
-2.7565359e-05
5.7466726e-05
-3.6824762e-05
7.6854092e-05
-4.9070467e-05
0.0001025409
-6.520843e-05
0.00013647422
-8.6393347e-05
0.00018115857
-0.00011408619
0.00023979696
-0.0001501214
0.00031646108
-0.00019678447
0.00041629479
-0.00025690098
0.00054575556
-0.00033393803
0.00071289936
-0.00043212
0.00092771503
-0.00055656059
0.0012025155
-0.00071341434
0.0015523946
-0.00091004993
0.0019957589
-0.0011552506
0.0025549449
-0.0014594358
0.0032569352
-0.0018349252
0.0041341733
-0.0022961859
0.0052255115
-0.0028602075
0.0065772496
-0.0035466468
0.0082444031
-0.0043785936
0.010291851
-0.0053817106
0.012795838
-0.0065859014
0.015845643
-0.0080247769
0.019542281
-0.0097295039
0.024012454
-0.011767117
0.029365587
-0.014087233
-0.017070685
0.035847371
9.0009099e-10
-2.945924e-09
4.1469844e-09
-1.0631567e-08
1.0787785e-08
-2.1756182e-08
2.2259767e-08
-3.7610155e-08
4.0528621e-08
-5.9945888e-08
6.8274732e-08
-9.1139753e-08
1.0914404e-07
-1.3441072e-07
1.6808549e-07
-1.9411446e-07
2.5180453e-07
-2.7613866e-07
3.6937185e-07
-3.8843381e-07
5.3304029e-07
-5.4172515e-07
7.5933841e-07
-7.5046533e-07
1.0705344e-06
-1.0341085e-06
1.4965904e-06
-1.4188086e-06
2.0777699e-06
-1.9396801e-06
2.8681069e-06
-2.6437973e-06
3.9400126e-06
-3.5941615e-06
5.3903769e-06
-4.8749296e-06
7.348625e-06
-6.5982725e-06
9.987318e-06
-8.9133292e-06
1.3536047e-05
-1.2017827e-05
1.8299559e-05
-1.617306e-05
2.4681288e-05
-2.1723048e-05
3.3213713e-05
-2.9118833e-05
4.4597277e-05
-3.8948982e-05
5.9749923e-05
-5.1977482e-05
7.9869621e-05
-6.9190258e-05
0.00010651265
-9.1851569e-05
0.00014169067
-0.00012157151
0.00018799008
-0.00016038574
0.00024871716
-0.00021084865
0.00032807338
-0.00027614088
0.00043136489
-0.00036019269
0.00056525139
-0.00046782475
0.00073803988
-0.00060490871
0.00096002968
-0.00077855062
0.0012439167
-0.0009973016
0.0016052659
-0.0012713993
0.002063062
-0.0016130469
0.0026403505
-0.0020367245
0.0033649804
-0.0025595552
0.0042704547
-0.0032016604
0.005396913
-0.0039866658
0.0067922367
-0.0049419705
0.0085133648
-0.0060997215
0.010627549
-0.0074958942
0.013213851
-0.009172203
0.016365084
-0.011176009
0.020186436
-0.013550854
0.024809629
-0.016390308
0.030350845
-0.019628446
-0.023780767
0.037060931
9.4871709e-10
-3.8946409e-09
4.3707109e-09
-1.4053582e-08
1.1368985e-08
-2.8754501e-08
2.3457094e-08
-4.9698324e-08
4.2704409e-08
-7.9193283e-08
7.1931773e-08
-1.2036722e-07
1.1497478e-07
-1.7745386e-07
1.7703771e-07
-2.5617758e-07
2.6516899e-07
-3.6427019e-07
3.8889911e-07
-5.1216426e-07
5.6109553e-07
-7.1392203e-07
7.9910723e-07
-9.8847768e-07
1.1262946e-06
-1.3612968e-06
1.5740715e-06
-1.866587e-06
2.1846262e-06
-2.5502371e-06
3.0145395e-06
-3.473714e-06
4.1395845e-06
-4.7192118e-06
5.661078e-06
-6.3964308e-06
7.7142597e-06
-8.6514649e-06
1.0479307e-05
-1.1678391e-05
1.4195758e-05
-1.5734298e-05
1.9181313e-05
-2.115864e-05
2.585621e-05
-2.8397979e-05
3.4774661e-05
-3.8037328e-05
4.6665111e-05
-5.0839489e-05
6.2481431e-05
-6.7793878e-05
8.3467529e-05
-9.0176452e-05
0.00011123816
-0.00011962231
0.00014787912
-0.00015821261
0.0001960704
-0.00020857718
0.00025923601
-0.00027401443
0.00034172481
-0.00035862987
0.00044902693
-0.00046749501
0.00058803085
-0.00060682889
0.00076732719
-0.00078420527
0.00099756598
-0.0010087897
0.0012918759
-0.0012916117
0.0016663547
-0.0016458784
0.0021406432
-0.0020873356
0.0027385926
-0.0026346742
0.0034890414
-0.0033100042
0.0044267071
-0.0041393262
0.0055932118
-0.0051531706
0.0070382683
-0.006387027
0.008821065
-0.0078825181
0.011011635
-0.0096864632
0.013692406
-0.011852973
0.01696036
-0.014443962
0.020925847
-0.01751634
0.025726354
-0.021190813
0.031487008
-0.025389098
-0.030757054
0.038463298
1.0072332e-09
-4.9018738e-09
4.6398929e-09
-1.7686264e-08
1.2068133e-08
-3.6182787e-08
2.4897091e-08
-6.252734e-08
4.5320522e-08
-9.9616792e-08
7.632759e-08
-1.5137439e-07
1.2198089e-07
-2.231073e-07
1.8779018e-07
-3.2198704e-07
2.8121361e-07
-4.5769385e-07
4.1233017e-07
-6.4328112e-07
5.9473964e-07
-8.9633192e-07
8.4676699e-07
-1.2405056e-06
1.1930699e-06
-1.7076007e-06
1.6667836e-06
-2.340302e-06
2.3123741e-06
-3.1958297e-06
3.1894298e-06
-4.3507731e-06
4.3776853e-06
-5.9074724e-06
5.9836626e-06
-8.0024157e-06
8.1494204e-06
-1.0817234e-05
1.1064045e-05
-1.459303e-05
1.4978676e-05
-1.9648949e-05
2.0226075e-05
-2.6406065e-05
2.7245966e-05
-3.5417904e-05
3.6617679e-05
-4.7409084e-05
4.9101906e-05
-6.3323773e-05
6.5693777e-05
-8.4385823e-05
8.7689748e-05
-0.00011217252
0.00011677125
-0.00014870394
0.00015510835
-0.00019654985
0.00020548707
-0.00025895606
0.00027146438
-0.00033999192
0.00035755525
-0.00044472094
0.00046945664
-0.00057939662
0.00061431384
-0.00075168632
0.0008010355
-0.00097092717
0.0010406648
-0.0012484192
0.0013468157
-0.0015977628
0.0017361842
-0.0020352471
0.0022291485
-0.0025803001
0.0028504689
-0.0032559948
0.0036301033
-0.0040896387
0.0046041478
-0.0051133708
0.0058159139
-0.0063649367
0.0073172093
-0.0078883223
0.009169819
-0.0097351276
0.011446991
-0.011963635
0.014235101
-0.014641083
0.017635975
-0.017844835
0.021766157
-0.02164652
0.02676972
-0.026194374
0.03278289
-0.031402266
-0.038039598
0.040065438
1.0762826e-09
-5.978156e-09
4.9574858e-09
-2.156749e-08
1.28929e-08
-4.4118249e-08
2.6595545e-08
-7.6230048e-08
4.8405597e-08
-1.2142693e-07
8.1510203e-08
-1.8447911e-07
1.3023891e-07
-2.7183615e-07
2.0046017e-07
-3.9220849e-07
3.0011308e-07
-5.5734701e-07
4.3991949e-07
-7.8308788e-07
6.3433721e-07
-1.0907501e-06
9.0283266e-07
-1.5090017e-06
1.2715796e-06
-2.0763485e-06
1.7757212e-06
-2.8444451e-06
2.4623777e-06
-3.8824885e-06
3.394636e-06
-5.2830349e-06
4.656832e-06
-7.1696736e-06
6.3615194e-06
-9.7071108e-06
8.6586453e-06
-1.311437e-05
1.1747578e-05
-1.7681978e-05
1.589282e-05
-2.379421e-05
2.1444432e-05
-3.1957703e-05
2.8864466e-05
-4.2837971e-05
3.8760945e-05
-5.7305607e-05
5.1931315e-05
-7.64942e-05
6.9417572e-05
-0.00010187216
9.2575708e-05
-0.00013533075
0.00012316247
-0.00017929082
0.00016344282
-0.00023683034
0.00021632188
-0.00031183529
0.0002855056
-0.00040917582
0.00037569463
-0.00053491017
0.00049281668
-0.00069651888
0.00064430314
-0.00090317301
0.00083941666
-0.0011660409
0.0010896379
-0.0014986407
0.0014091206
-0.0019172458
0.0018152276
-0.0024413543
0.0023291597
-0.0030942324
0.0029766936
-0.0039035289
0.0037890428
-0.0049019881
0.0048038543
-0.0061281824
0.0060663435
-0.007627426
0.0076306889
-0.0094526675
0.0095616355
-0.011666074
0.011936104
-0.014338102
0.014845015
-0.017549994
0.018395756
-0.021395574
0.022712111
-0.025962874
0.02794564
-0.031427901
0.034245742
-0.037702366
-0.045670066
0.041876213
1.1565467e-09
-7.1347013e-09
5.3266165e-09
-2.5737581e-08
1.3851396e-08
-5.2643074e-08
2.8569099e-08
-9.0947812e-08
5.1989759e-08
-1.4484767e-07
8.7530069e-08
-2.2001953e-07
1.3982879e-07
-3.2413501e-07
2.1516965e-07
-4.6754954e-07
3.2204802e-07
-6.6422561e-07
4.7192906e-07
-9.3296922e-07
6.8026096e-07
-1.2990824e-06
9.678272e-07
-1.7965685e-06
1.3625485e-06
-2.4710707e-06
1.9018796e-06
-3.3837775e-06
2.6359916e-06
-4.6166025e-06
3.6319886e-06
-6.2790352e-06
4.9794803e-06
-8.5171703e-06
6.7979258e-06
-1.1525564e-05
9.246286e-06
-1.5562742e-05
1.2535657e-05
-2.0971365e-05
1.6945752e-05
-2.8204325e-05
2.2846288e-05
-3.7858265e-05
3.0724622e-05
-5.0716338e-05
4.1221236e-05
-6.7802264e-05
5.5175037e-05
-9.0448058e-05
7.3680763e-05
-0.00012037796
9.8161238e-05
-0.00015981133
0.00013045753
-0.00021158723
0.00017294058
-0.00027931354
0.00022864822
-0.0003675431
0.00030145195
-0.00048197975
0.0003962584
-0.00062971682
0.00051925081
-0.00081951151
0.00067817694
-0.0010620994
0.00088269058
-0.0013705548
0.0011447554
-0.0017607058
0.0014791218
-0.0022516124
0.0019038892
-0.0028661219
0.0024411692
-0.0036315127
0.0031178657
-0.0045802255
0.0039665887
-0.0057507113
0.0050267137
-0.0071883075
0.0063455794
-0.0089462917
0.0079800183
-0.011087106
0.0099981117
-0.013684167
0.012480922
-0.016820912
0.015524531
-0.020593602
0.019242621
-0.025113663
0.02376727
-0.030487522
0.029258483
-0.036919112
0.035880787
-0.044324668
-0.053691061
0.043901785
1.2486042e-09
-8.3833042e-09
5.7499455e-09
-3.0238945e-08
1.4950546e-08
-6.1843724e-08
3.0832016e-08
-1.0682935e-07
5.6098844e-08
-1.7011458e-07
9.4430451e-08
-2.5835125e-07
1.5081921e-07
-3.8052393e-07
2.320236e-07
-5.4875412e-07
3.4717428e-07
-7.7937654e-07
5.0858472e-07
-1.09438e-06
7.3283287e-07
-1.523331e-06
1.042203e-06
-2.1059393e-06
1.4666045e-06
-2.8954732e-06
2.0461214e-06
-3.9632957e-06
2.8343917e-06
-5.404875e-06
3.903078e-06
-7.3477248e-06
5.3477676e-06
-9.961865e-06
7.2957367e-06
-1.3473541e-05
9.9161334e-06
-1.8183149e-05
1.3433292e-05
-2.4488539e-05
1.814406e-05
-3.2915113e-05
2.4440263e-05
-4.4154494e-05
3.2837662e-05
-5.9113771e-05
4.4013099e-05
-7.8977745e-05
5.8851823e-05
-0.00010528684
7.8507406e-05
-0.00014003362
0.00010447703
-0.00018578105
0.0001386954
-0.00024580572
0.00018365083
-0.00032426912
0.00024252782
-0.00042642027
0.00031938051
-0.00055883263
0.00041934224
-0.00072967876
0.00054887712
-0.00094904662
0.00071608021
-0.0012293027
0.00093103424
-0.0015855091
0.0012062325
-0.0020359043
0.0015570793
-0.0026024594
0.002002482
-0.0033115248
0.0025655523
-0.0041945832
0.0032744335
-0.0052891069
0.0041632761
-0.0066395539
0.0052733643
-0.0082983958
0.0066543807
-0.010327308
0.0083660966
-0.012798822
0.010480313
-0.015798383
0.013082709
-0.019423307
0.016275139
-0.023786031
0.020178329
-0.029016853
0.024933683
-0.035242875
0.030710649
-0.042696077
0.0376907
-0.051304717
-0.062145329
0.04614497
1.3529836e-09
-9.7362864e-09
6.2299184e-09
-3.5115904e-08
1.6196591e-08
-7.1810448e-08
3.33971e-08
-1.2402992e-07
6.0756079e-08
-1.9747365e-07
1.0225009e-07
-2.9984538e-07
1.6327155e-07
-4.4154555e-07
2.5111525e-07
-6.3659803e-07
3.7562971e-07
-9.0389127e-07
5.5008591e-07
-1.2688365e-06
7.9233598e-07
-1.7655816e-06
1.1263557e-06
-2.4399596e-06
1.5842947e-06
-3.3534131e-06
2.2091949e-06
-4.5881972e-06
3.0585908e-06
-6.254273e-06
4.209265e-06
-8.4984022e-06
5.7635102e-06
-1.1516115e-05
7.8573602e-06
-1.5567398e-05
1.0671364e-05
-2.0997164e-05
1.4444646e-05
-2.8261836e-05
1.9493174e-05
-3.7963662e-05
2.6233399e-05
-5.0894746e-05
3.5212676e-05
-6.8093081e-05
4.7148207e-05
-9.0913319e-05
6.297659e-05
-0.00012111528
8.3916451e-05
-0.00016097355
0.00011154704
-0.00021341174
0.00014790613
-0.00028216494
0.00019561107
-0.00037197422
0.00025800718
-0.00048881656
0.00033934847
-0.00064017412
0.00044501602
-0.00083534652
0.00058178031
-0.0010858111
0.00075811478
-0.0014056374
0.00098456915
-0.0018119637
0.0012742128
-0.0023255482
0.0016431615
-0.0029714083
0.0021112017
-0.0037795653
0.0027025342
-0.0047859158
0.0034466535
-0.0060332264
0.0043793942
-0.0075722947
0.0055441304
-0.009463132
0.0069931035
-0.011776281
0.0087893052
-0.014595023
0.011008638
-0.018017715
0.013741869
-0.022156538
0.017097217
-0.027141378
0.021203192
-0.033122827
0.026211512
-0.040251194
0.032302101
-0.048786665
0.039675042
-0.058677657
-0.071074858
0.048604573
1.4700921e-09
-1.1206376e-08
6.7683481e-09
-4.0414184e-08
1.7594365e-08
-8.2636516e-08
3.6274208e-08
-1.4270983e-07
6.5979146e-08
-2.2717868e-07
1.110186e-07
-3.4488495e-07
1.7723246e-07
-5.0775956e-07
2.7251571e-07
-7.3188149e-07
4.0751922e-07
-1.038895e-06
5.9658363e-07
-1.4579013e-06
8.5898376e-07
-2.0279821e-06
1.220583e-06
-2.8015594e-06
1.7160277e-06
-3.8488586e-06
2.3916554e-06
-5.2638262e-06
3.3093383e-06
-7.1719579e-06
4.5515509e-06
-9.7406178e-06
6.2280353e-06
-1.3192605e-05
8.4845433e-06
-1.7823914e-05
1.1514259e-05
-2.4026891e-05
1.557268e-05
-3.2320272e-05
2.0996915e-05
-4.3387917e-05
2.8230599e-05
-5.8128456e-05
3.7855906e-05
-7.7718421e-05
5.0634451e-05
-0.00010369191
6.7559244e-05
-0.00013804013
8.9920235e-05
-0.00018333462
0.00011938649
-0.00024287809
0.00015810839
-0.00032088696
0.00020884389
-0.00042270988
0.00027511334
-0.00055508618
0.00036138779
-0.00072644877
0.0004733169
-0.00094727584
0.00061800284
-0.0012304973
0.00080432817
-0.001591963
0.001043347
-0.0020509828
0.0013487508
-0.0026309522
0.0017374228
-0.0033600805
0.0022300985
-0.0042722412
0.002852154
-0.0054079716
0.0036345443
-0.0068156168
0.0046149289
-0.0085526794
0.0058389485
-0.010687152
0.0073616069
-0.013298939
0.0092493884
-0.016482804
0.011582669
-0.020350995
0.014457753
-0.025031621
0.017989783
-0.030673407
0.022315759
-0.037448802
0.027598632
-0.045534066
0.034029845
-0.055217877
0.041829658
-0.06647747
-0.080520071
0.051274872
1.6001812e-09
-1.2806555e-08
7.3664496e-09
-4.6180476e-08
1.9146877e-08
-9.4416996e-08
3.9469575e-08
-1.630326e-07
7.1779337e-08
-2.5948853e-07
1.207546e-07
-3.9386034e-07
1.9273127e-07
-5.7973639e-07
2.9626914e-07
-8.3541955e-07
4.4290724e-07
-1.1855334e-06
6.4816984e-07
-1.6631642e-06
9.3290541e-07
-2.3127181e-06
1.3250623e-06
-3.1937168e-06
1.8620442e-06
-4.3858413e-06
2.5938256e-06
-5.9956087e-06
3.58706e-06
-8.165194e-06
4.9304922e-06
-1.1084053e-05
6.7420631e-06
-1.500418e-05
9.1782075e-06
-2.0260065e-05
1.2445988e-05
-2.7294682e-05
1.6818864e-05
-3.6693163e-05
2.2657102e-05
-4.9226175e-05
3.043408e-05
-6.590546e-05
4.0770019e-05
-8.8054394e-05
5.4474988e-05
-0.00011739692
7.2603428e-05
-0.00015616862
9.6522853e-05
-0.00020725411
0.00012799979
-0.00027435512
0.00016930661
-0.00036219391
0.00022335336
-0.00047675678
0.00029384921
-0.00062558222
0.00038549912
-0.00081809887
0.00050424162
-0.0010660185
0.0006575351
-0.001383791
0.00085470095
-0.001789129
0.0011073338
-0.0023036158
0.0014297911
-0.0029534097
0.0018397778
-0.0037700675
0.0023590446
-0.0047915082
0.0030142251
-0.0060631523
0.0038378366
-0.0076392284
0.0048694986
-0.0095843415
0.0061572852
-0.011974938
0.0077591492
-0.014900803
0.0097453236
-0.018468978
0.012201005
-0.022806675
0.01522845
-0.028059065
0.018950227
-0.034395184
0.02351247
-0.042011044
0.029090177
-0.051111773
0.035887367
-0.062015065
0.044146202
-0.074736306
-0.090526658
0.05415279
1.743335e-09
-1.4549887e-08
8.0245695e-09
-5.2461733e-08
2.0855111e-08
-1.0724759e-07
4.298513e-08
-1.8516268e-07
7.8160055e-08
-2.9466355e-07
1.314636e-07
-4.47164e-07
2.0977632e-07
-6.5804925e-07
3.223876e-07
-9.4803102e-07
4.8181048e-07
-1.3449565e-06
7.0486691e-07
-1.8862209e-06
1.0141282e-06
-2.6219798e-06
1.4398266e-06
-3.6194157e-06
2.0223825e-06
-4.9683978e-06
2.8157445e-06
-6.7889716e-06
3.8917902e-06
-9.2412413e-06
5.3461088e-06
-1.2538374e-05
7.3055804e-06
-1.6963656e-05
9.9382805e-06
-2.2892771e-05
1.3466373e-05
-3.0822785e-05
1.8182843e-05
-4.1409646e-05
2.4473105e-05
-5.5516455e-05
3.2842797e-05
-7.4275176e-05
4.3953338e-05
-9.9164966e-05
5.8667197e-05
-0.00013211081
7.8105149e-05
-0.00017560662
0.00010371831
-0.00023286734
0.00013737811
-0.000308015
0.00018148797
-0.00040630389
0.00023912096
-0.00053438992
0.00031418845
-0.00070064988
0.00041164523
-0.00091555585
0.00053773798
-0.0011921115
0.00070030447
-0.0015463577
0.00090913285
-0.0019979576
0.001176392
-0.0025708752
0.0015171466
-0.0032941645
0.0019499732
-0.0042028943
0.002497699
-0.0053392343
0.0031882903
-0.0067537438
0.0040559182
-0.0085068564
0.0051422867
-0.01067071
0.0064980491
-0.0133307
0.0081842728
-0.016587027
0.010275176
-0.020559881
0.012861087
-0.025392587
0.016050563
-0.031248541
0.019974024
-0.038318644
0.024787287
-0.046824306
0.030678046
-0.057002531
0.037863801
-0.069200819
0.046610516
-0.08348302
-0.10113338
0.057217233
1.899407e-09
-1.644929e-08
8.7420171e-09
-5.9304366e-08
2.271714e-08
-1.2122276e-07
4.681682e-08
-2.0926243e-07
8.5113781e-08
-3.329606e-07
1.4313284e-07
-5.0518317e-07
2.2834698e-07
-7.4326354e-07
3.5083833e-07
-1.0705226e-06
5.2417866e-07
-1.518297e-06
7.6659925e-07
-2.1286418e-06
1.1025416e-06
-2.9579224e-06
1.5647139e-06
-4.0815884e-06
2.1968068e-06
-5.6004912e-06
3.0570748e-06
-7.6492404e-06
4.2230485e-06
-1.0407216e-05
5.7977184e-06
-1.4113046e-05
7.9176242e-06
-1.9083565e-05
1.0763405e-05
-2.5738557e-05
1.4573513e-05
-3.4632902e-05
1.9661969e-05
-4.6498115e-05
2.6441248e-05
-6.2295751e-05
3.5451652e-05
-8.3285603e-05
4.7398827e-05
-0.00011111217
6.3201394e-05
-0.00014791342
8.4051129e-05
-0.0001964564
0.00011148847
-0.00026030474
0.00014749673
-0.00034402335
0.00019461885
-0.00045342612
0.00025610123
-0.00059587244
0.00033606966
-0.00078061848
0.00043974359
-0.00101923
0.00057369541
-0.0013260635
0.00074616335
-0.0017188258
0.00096742751
-0.002219222
0.0012502614
-0.0028537093
0.0016104735
-0.0036543768
0.0020675568
-0.0046599778
0.002645469
-0.0059171467
0.0033735744
-0.0074818493
0.0042877762
-0.0094210583
0.0054319697
-0.011814904
0.0068594947
-0.014758225
0.0086346782
-0.01836221
0.010835938
-0.022761141
0.013559023
-0.028115672
0.016918971
-0.034608487
0.021054433
-0.042454107
0.026131308
-0.051901181
0.032350369
-0.063221593
0.039943011
-0.07679346
0.049198378
-0.092738387
-0.11235548
0.06042048
2.0679886e-09
-1.8517274e-08
9.5169118e-09
-6.6753311e-08
2.4728192e-08
-1.3643409e-07
5.0954902e-08
-2.3548921e-07
9.2622674e-08
-3.7462846e-07
1.5573198e-07
-5.6829259e-07
2.4839409e-07
-8.359258e-07
3.815455e-07
-1.2036741e-06
5.6989759e-07
-1.7066493e-06
8.3319679e-07
-2.3919412e-06
1.1978967e-06
-3.3226226e-06
1.6993661e-06
-4.5830582e-06
2.3848066e-06
-6.285932e-06
3.3170925e-06
-8.5815269e-06
4.5798157e-06
-1.166994e-05
6.2838956e-06
-1.5817127e-05
8.5762108e-06
-2.1375883e-05
1.1650837e-05
-2.8813189e-05
1.5763628e-05
-3.87457e-05
2.1251048e-05
-5.1985547e-05
2.8554419e-05
-6.9599138e-05
3.8250952e-05
-9.2982156e-05
5.1093314e-05
-0.00012395455
6.8059753e-05
-0.00016487989
9.0417302e-05
-0.00021881399
0.00011980095
-0.00028968844
0.00015831224
-0.0003825347
0.00020864129
-0.00050375527
0.00027421694
-0.00066144821
0.00035939037
-0.00086579205
0.00046965854
-0.0011294983
0.00061193491
-0.0014683401
0.0007948762
-0.0019017673
0.001029276
-0.0024536219
0.0013285379
-0.0031529715
0.001709245
-0.0040350841
0.0021918437
-0.0051425767
0.0028014677
-0.0065267709
0.0035689327
-0.0082493145
0.0045319356
-0.010384061
0.0057366435
-0.013019612
0.007239096
-0.016260678
0.009106897
-0.020230011
0.011423526
-0.025077769
0.014289474
-0.03098162
0.017826579
-0.038145592
0.022182188
-0.046809715
0.027532398
-0.057251391
0.034091165
-0.069780361
0.042103829
-0.084806124
0.051881459
-0.10251602
-0.1242039
0.063729881
2.2483041e-09
-2.0765573e-08
1.0345738e-08
-7.4850767e-08
2.6879001e-08
-1.5296741e-07
5.5380055e-08
-2.6399033e-07
1.0065171e-07
-4.199002e-07
1.6920195e-07
-6.3684294e-07
2.6982342e-07
-9.3654742e-07
4.1436352e-07
-1.3482144e-06
6.1874829e-07
-1.9110343e-06
9.0433954e-07
-2.6775327e-06
1.2997318e-06
-3.7180151e-06
1.8431251e-06
-5.1264518e-06
2.5854546e-06
-7.0282618e-06
3.5945024e-06
-9.5905752e-06
4.960297e-06
-1.3035736e-05
6.8021683e-06
-1.7659e-05
9.277952e-06
-2.3851669e-05
1.2595954e-05
-3.2131194e-05
1.7030432e-05
-4.3180184e-05
2.2941572e-05
-5.7896698e-05
3.080114e-05
-7.7458719e-05
4.1225256e-05
-0.00010340629
5.5016081e-05
-0.0001377454
7.3214551e-05
-0.00018307838
9.7166689e-05
-0.00024276616
0.00012860655
-0.00032112834
0.00016975934
-0.00042368754
0.00022346884
-0.00055746484
0.00029335398
-0.00073133346
0.00038400031
-0.00095643852
0.00050119283
-0.001246691
0.00065219822
-0.0016193456
0.0008461059
-0.0020956751
0.0010942392
-0.0027017554
0.0014106514
-0.0034693838
0.0018127224
-0.0044371553
0.0023218796
-0.0056517342
0.0029644667
-0.0071693582
0.0037727911
-0.0090576391
0.0047863955
-0.011397666
0.0060537779
-0.014286994
0.0076335827
-0.017840483
0.0095963414
-0.022192769
0.012032037
-0.027513464
0.015045403
-0.033994986
0.018763929
-0.041864118
0.023345157
-0.051390943
0.028974815
-0.062881049
0.035879882
-0.07668543
0.044319517
-0.093245759
0.054625594
-0.1128221
-0.13668496
0.067106646
2.4393144e-09
-2.3204881e-08
1.1223646e-08
-8.3635121e-08
2.9157068e-08
-1.7090088e-07
6.0066565e-08
-2.9489989e-07
1.0915379e-07
-4.6898751e-07
1.8346355e-07
-7.1115281e-07
2.9250809e-07
-1.0455921e-06
4.4909694e-07
-1.5048034e-06
6.7043802e-07
-2.1323756e-06
9.7959671e-07
-2.9866916e-06
1.4074238e-06
-4.1458424e-06
1.9951017e-06
-5.7141299e-06
2.7974935e-06
-7.8306538e-06
3.8875444e-06
-1.0680626e-05
5.3620435e-06
-1.4510235e-05
7.3491512e-06
-1.9646108e-05
1.0018196e-05
-2.6520715e-05
1.3592389e-05
-3.5705391e-05
1.8365255e-05
-4.7953055e-05
2.4721776e-05
-6.4253227e-05
3.3165508e-05
-8.5902463e-05
4.4353143e-05
-0.00011459394
5.9138392e-05
-0.00015253067
7.8627357e-05
-0.00020256737
0.00010424807
-0.00026838689
0.00013783725
-0.00035471755
0.00018174801
-0.00046759834
0.00023898271
-0.00061469961
0.00031335617
-0.000805707
0.00040969479
-0.0010527772
0.00053407896
-0.0013710753
0.00069413681
-0.0017794036
0.00089939946
-0.0023009379
0.0011617301
-0.0029640863
0.0014958424
-0.0038034961
0.0019199258
-0.0048612389
0.0024564034
-0.0061882119
0.003132849
-0.0078458041
0.0039830974
-0.0099078877
0.0050486343
-0.012463203
0.0063805714
-0.015618931
0.0080391391
-0.01949905
0.010098451
-0.024252081
0.01265291
-0.030067923
0.01581497
-0.037157046
0.019719118
-0.045768266
0.024528119
-0.056199944
0.030438844
-0.068791775
0.037690932
-0.083937519
0.046556949
-0.10211178
0.057388296
-0.12365344
-0.14979339
0.070496732
2.6393445e-09
-2.5844219e-08
1.2142965e-08
-9.3138763e-08
3.1542394e-08
-1.9030036e-07
6.4973451e-08
-3.2833101e-07
1.1805466e-07
-5.220688e-07
1.9839187e-07
-7.9149013e-07
3.1624919e-07
-1.1634495e-06
4.854406e-07
-1.673995e-06
7.2451128e-07
-2.3714464e-06
1.0583029e-06
-3.3204833e-06
1.5200181e-06
-4.6075578e-06
2.153944e-06
-6.3480559e-06
3.0190323e-06
-8.6957422e-06
4.1935945e-06
-1.1855189e-05
5.781444e-06
-1.6098085e-05
7.9199046e-06
-2.1784569e-05
1.0790223e-05
-2.9391034e-05
1.463105e-05
-3.9546219e-05
1.975584e-05
-5.3077849e-05
2.6575208e-05
-7.1072601e-05
3.5625513e-05
-9.4952777e-05
4.7605266e-05
-0.0001265737
6.3421214e-05
-0.00016834663
8.4246422e-05
-0.00022339259
0.000111593
-0.00029573349
0.00014740275
-0.00039052732
0.00019415941
-0.00051435503
0.00025502701
-0.00067556725
0.00033401943
-0.00088469948
0.00043620738
-0.0011549653
0.00056797007
-0.0015028381
0.00073730029
-0.0019487339
0.00095417365
-0.0025178114
0.0012309952
-0.0032409079
0.0015831393
-0.0041556403
0.0020296038
-0.0053077036
0.0025938028
-0.0067524111
0.0033045319
-0.0085565333
0.0041971379
-0.010800494
0.0053150273
-0.013581092
0.0067104244
-0.017014328
0.0084460308
-0.021234656
0.01060453
-0.02641058
0.013281763
-0.032745155
0.016592142
-0.040467426
0.020678697
-0.049854822
0.0257127
-0.061233947
0.031900499
-0.074979574
0.039493255
-0.091530276
0.04877603
-0.11139455
0.060117942
-0.13499536
-0.16350874
0.073833284
2.846582e-09
-2.8690793e-08
1.3095322e-08
-1.0338752e-07
3.401325e-08
-2.1121833e-07
7.0055542e-08
-3.6437336e-07
1.2727197e-07
-5.792853e-07
2.1384808e-07
-8.7806635e-07
3.4082469e-07
-1.2904263e-06
5.2305222e-07
-1.8562226e-06
7.8045559e-07
-2.6288499e-06
1.1397062e-06
-3.6797341e-06
1.6364289e-06
-5.1042805e-06
2.3181051e-06
-7.029732e-06
3.2478888e-06
-9.6255257e-06
4.509602e-06
-1.3116902e-05
6.2142647e-06
-1.7802747e-05
8.5085925e-06
-2.4078897e-05
1.1586029e-05
-3.2468471e-05
1.5701015e-05
-4.3661206e-05
2.1187355e-05
-5.8564192e-05
2.8481799e-05
-7.8367049e-05
3.8154111e-05
-0.0001046251
5.0945317e-05
-0.00013936492
6.7816e-05
-0.00018521732
9.0007056e-05
-0.00024558365
0.00011911563
-0.00032484207
0.00015718953
-0.00042860123
0.00020684402
-0.00056400953
0.00027140541
-0.00074012868
0.00035508698
-0.00096838111
0.0004632034
-0.0012630818
0.00060243133
-0.0016420661
0.00078112544
-0.0021274281
0.001009701
-0.002746387
0.0013010968
-0.0035323038
0.0016713364
-0.0045258799
0.0021402066
-0.0057765739
0.0027320821
-0.0073442867
0.0034769219
-0.0093013732
0.0044114642
-0.011735036
0.0055805851
-0.014750213
0.0070385621
-0.018472305
0.0088535306
-0.023049624
0.011109655
-0.028666704
0.013904658
-0.035540158
0.017360177
-0.043922945
0.021624455
-0.054119101
0.026876411
-0.066485904
0.033331062
-0.081434227
0.041249944
-0.099449159
0.050929303
-0.12107391
0.062753596
-0.14681965
-0.17779334
0.077038195
3.0581028e-09
-3.1748887e-08
1.4067307e-08
-1.1439675e-07
3.653476e-08
-2.3368583e-07
7.5241305e-08
-4.0307996e-07
1.3667612e-07
-6.4072019e-07
2.2961515e-07
-9.7100546e-07
3.6588922e-07
-1.4267004e-06
5.6140324e-07
-2.0517368e-06
8.3748406e-07
-2.9049309e-06
1.2226625e-06
-4.0649125e-06
1.7550201e-06
-5.6366381e-06
2.4852778e-06
-7.7599897e-06
3.4808461e-06
-1.0621094e-05
4.8311274e-06
-1.4467182e-05
6.6544253e-06
-1.9626044e-05
9.1069424e-06
-2.6531413e-05
1.239443e-05
-3.5755957e-05
1.6787231e-05
-4.8054007e-05
2.2639637e-05
-6.4416598e-05
3.0414646e-05
-8.614206e-05
4.0715543e-05
-0.000114926
5.4325911e-05
-0.00015297529
7.2260139e-05
-0.00020315155
9.5826757e-05
-0.00026915027
0.0001267075
-0.00035572281
0.00016705536
-0.0004689491
0.00021961572
-0.0006165699
0.00028787502
-0.00080838799
0.00037624257
-0.0010567487
0.00049027208
-0.0013771114
0.00063693069
-0.0017887248
0.00082492504
-0.0023154226
0.0010650964
-0.0029865584
0.0013708988
-0.0038381063
0.0017589791
-0.0049139603
0.0022498794
-0.0062674743
0.002868889
-0.0079632962
0.0036470733
-0.010079558
0.0046225099
-0.012710473
0.0058417305
-0.015969434