/*--------------------------------*- C++ -*----------------------------------*\
  =========                 |
  \\      /  F ield         | OpenFOAM: The Open Source CFD Toolbox
   \\    /   O peration     | Website:  https://openfoam.org
    \\  /    A nd           | Version:  13
     \\/     M anipulation  |
\*---------------------------------------------------------------------------*/
FoamFile
{
    format      ascii;
    class       volSymmTensorField;
    location    "6.599178";
    object      UPrime2Mean;
}
// * * * * * * * * * * * * * * * * * * * * * * * * * * * * * * * * * * * * * //

dimensions      [0 2 -2 0 0 0 0];

internalField   nonuniform List<symmTensor> 
17140
(
(1.9149359e-12 -7.6314603e-11 -6.4175429e-27 3.1721436e-09 1.1570854e-25 3.2435235e-40)
(3.4469665e-10 -3.1572653e-09 -3.6273659e-27 2.9989834e-08 2.6679376e-26 2.8822117e-42)
(3.1304997e-09 -1.6497234e-08 6.3255903e-25 9.0514804e-08 -2.8698345e-24 1.2564838e-38)
(1.4751844e-08 -5.2279717e-08 -1.407571e-24 1.9333162e-07 4.4694971e-24 1.5185297e-38)
(4.9327333e-08 -1.2816579e-07 2.893296e-25 3.4808241e-07 -6.9121454e-25 2.0753149e-40)
(1.3504803e-07 -2.7006081e-07 -1.5294718e-24 5.6536572e-07 2.8722999e-24 2.2229333e-39)
(3.2415845e-07 -5.1458311e-07 -3.934674e-24 8.5648648e-07 5.9658819e-24 6.3006696e-39)
(7.084716e-07 -9.1205747e-07 2.8214459e-24 1.2331163e-06 -3.5166558e-24 1.501742e-39)
(1.443095e-06 -1.5300278e-06 1.3168687e-23 1.7067457e-06 -1.3668451e-23 1.6089259e-38)
(2.7818264e-06 -2.4570846e-06 4.5004156e-23 2.2879444e-06 -3.9278793e-23 9.6794914e-38)
(5.1287427e-06 -3.8067147e-06 -9.1277988e-23 2.985383e-06 6.748579e-23 2.1284285e-37)
(9.1116975e-06 -5.7207343e-06 1.0959237e-22 3.8046329e-06 -6.9029694e-23 1.6904364e-37)
(1.5684627e-05 -8.3716556e-06 2.2315263e-23 4.7467632e-06 -1.202827e-23 3.9603174e-39)
(2.6266223e-05 -1.1963081e-05 -1.6605775e-22 5.8068674e-06 7.6860878e-23 1.2667882e-37)
(4.2922715e-05 -1.6727108e-05 2.4032678e-23 6.9726881e-06 -9.5764129e-24 1.5615938e-39)
(6.8601463e-05 -2.2917709e-05 -2.4604199e-22 8.2235816e-06 8.4557124e-23 9.7982127e-38)
(0.0001074194 -3.0799401e-05 1.1740164e-23 9.5301634e-06 -3.4840038e-24 1.3570374e-40)
(0.00016500645 -4.0631506e-05 -3.350667e-24 1.0855103e-05 8.5913848e-25 6.7944335e-42)
(0.00024889829 -5.2649868e-05 -2.9999175e-22 1.2155452e-05 6.6480122e-23 3.4175006e-38)
(0.00036897187 -6.7050155e-05 4.8757891e-22 1.3386574e-05 -9.3362906e-23 5.7299547e-38)
(0.00053791963 -8.3979716e-05 -2.920016e-22 1.4507644e-05 4.8287171e-23 1.3231711e-38)
(0.00077177389 -0.00010354647 6.8666762e-23 1.5487939e-05 -9.799343e-24 4.7891978e-40)
(0.0010905318 -0.00012585332 6.1820617e-22 1.6312662e-05 -7.6062029e-23 2.5777938e-38)
(0.001519024 -0.00015106141 -7.4577321e-22 1.6986566e-05 7.9034947e-23 2.5354212e-38)
(0.0020883752 -0.00017947749 -1.4225067e-21 1.7533597e-05 1.2973201e-22 6.3471974e-38)
(0.0028372846 -0.00021162639 1.3564246e-21 1.7993195e-05 -1.0637871e-22 4.0460087e-38)
(0.0038142143 -0.00024826285 7.8333206e-21 1.8410247e-05 -5.2801137e-22 9.6341571e-37)
(0.0050842247 -0.000290336 1.0759007e-21 1.8817266e-05 -6.228512e-23 1.3209046e-38)
(0.0067304185 -0.00033893919 -1.0914889e-20 1.9237967e-05 5.4218169e-22 1.0073442e-36)
(0.0088574311 -0.00039513804 -2.9307821e-21 1.9682179e-05 1.2472071e-22 5.4628029e-38)
(0.011602173 -0.0004598865 -1.1931111e-20 2.0140526e-05 4.3374922e-22 6.9205427e-37)
(0.015136564 -0.00053385133 1.7813703e-20 2.0590056e-05 -5.5094769e-22 1.1961078e-36)
(0.019675599 -0.0006172971 -5.2396208e-21 2.0997867e-05 1.370821e-22 8.120004e-38)
(0.025483483 -0.00070996836 -2.811159e-21 2.1326993e-05 6.1734516e-23 1.8580976e-38)
(0.032879548 -0.00081084307 -3.0909731e-20 2.153387e-05 5.6415948e-22 1.8031882e-36)
(0.042242329 -0.00091793612 1.5092837e-20 2.1572131e-05 -2.2587168e-22 3.4935497e-37)
(0.054009296 -0.0010279449 -2.5195718e-20 2.1391038e-05 3.0369843e-22 7.9877862e-37)
(0.068669867 -0.0011357262 -1.8786408e-20 2.093285e-05 1.7771907e-22 3.6847888e-37)
(0.086747375 -0.001233935 -9.4228051e-21 2.0145525e-05 6.7272165e-23 7.7763617e-38)
(0.10876316 -0.001311896 3.1064709e-20 1.8975106e-05 -1.5658228e-22 7.1810291e-37)
(0.13517751 -0.0013556254 6.3350167e-20 1.7412708e-05 -1.9835167e-22 2.5662975e-36)
(0.16630188 -0.0013466232 6.1629941e-20 1.550572e-05 -8.4207658e-23 2.115332e-36)
(0.20217762 -0.0012636351 2.8600764e-20 1.3452362e-05 8.3249629e-24 4.0262126e-37)
(0.24244107 -0.0010839697 -1.466898e-19 1.1639545e-05 -2.7382557e-22 9.4985463e-36)
(0.2862199 -0.00078861913 -1.1185006e-19 1.0702007e-05 -3.8018144e-22 5.0455769e-36)
(0.33201359 -0.00037272888 2.8334652e-20 1.1428903e-05 1.387619e-22 3.0198845e-37)
(0.37776935 0.00015546056 -1.9616257e-19 1.4422611e-05 -1.2485731e-21 1.3799668e-35)
(0.42097245 0.00078103 -6.6926525e-20 1.9939546e-05 -5.2258067e-22 1.5707274e-36)
(0.4582434 0.0014787488 6.7487224e-20 2.7548118e-05 6.2313012e-22 1.6064448e-36)
(0.48704503 0.0022179673 1.6099476e-19 3.6494305e-05 1.7141224e-21 9.4721574e-36)
(0.50429453 0.0029645454 -9.5026399e-20 4.5942787e-05 -1.1462865e-21 3.5314843e-36)
(0.50684966 0.0036418559 -5.648087e-20 5.5556495e-05 -7.6071571e-22 1.3829436e-36)
(0.49344727 0.0042062919 1.3624588e-19 6.4997112e-05 2.032614e-21 9.2380379e-36)
(0.46171951 0.0046464746 5.8310745e-20 7.4033691e-05 9.634617e-22 2.0270804e-36)
(0.41112501 0.0048888143 3.6734406e-20 8.1996742e-05 6.7409318e-22 1.0119244e-36)
(0.34332316 0.004833987 -2.4875617e-20 8.7204796e-05 -5.078147e-22 6.1439318e-37)
(0.26495634 0.0043920414 5.5888394e-20 8.6820912e-05 1.2697467e-21 4.4018771e-36)
(0.18695477 0.0036064866 3.7861502e-20 7.889709e-05 9.5151389e-22 3.0267752e-36)
(0.11996361 0.0026379287 7.4870961e-21 6.3818867e-05 2.0640745e-22 1.8750506e-37)
(0.070638771 0.0017246967 -1.4956117e-20 4.5812533e-05 -4.4836093e-22 1.2324588e-36)
(0.038638871 0.0010263239 -8.9424126e-21 2.9816756e-05 -2.9148623e-22 7.4885258e-37)
(0.019958436 0.00056918308 -2.5071751e-20 1.8172761e-05 -8.9442401e-22 1.0190468e-35)
(0.0099111113 0.00029622252 -2.7592023e-21 1.0556487e-05 -1.0982962e-22 2.1838259e-37)
(0.0050236622 0.00014515614 1.7155463e-20 5.8034733e-06 7.808564e-22 1.5423195e-35)
(0.0028041126 6.5934693e-05 -9.3776614e-21 2.9263269e-06 -5.4594992e-22 9.2175844e-36)
(2.103092e-10 -4.9081542e-09 9.5150468e-27 1.1458964e-07 -1.9609798e-25 2.626718e-41)
(3.4338145e-09 -6.1003644e-08 -3.4218424e-24 1.0841268e-06 5.5306414e-23 3.4584232e-37)
(1.5620114e-08 -2.2607291e-07 6.0666254e-24 3.2734335e-06 -8.0118141e-23 2.7386962e-37)
(4.9039091e-08 -5.8560942e-07 -2.8182416e-24 6.9970687e-06 3.0871376e-23 2.0353978e-38)
(1.260037e-07 -1.2601383e-06 -9.1285744e-24 1.2611095e-05 8.4255724e-23 8.6858921e-38)
(2.8624475e-07 -2.4219671e-06 2.5974807e-23 2.0509746e-05 -2.0435181e-22 3.1713443e-37)
(5.9766869e-07 -4.3104598e-06 -3.8914682e-23 3.1118388e-05 2.6297882e-22 3.4460677e-37)
(1.172695e-06 -7.250578e-06 4.7951386e-24 4.4881802e-05 -2.798811e-23 2.6691607e-39)
(2.192782e-06 -1.1674832e-05 -2.0541612e-23 6.2245749e-05 1.0398445e-22 2.6015565e-38)
(3.9444016e-06 -1.8147479e-05 -4.6914724e-25 8.3630878e-05 2.0664067e-24 7.4321804e-42)
(6.8707727e-06 -2.7389426e-05 -1.2341644e-22 0.0001093978 4.7416272e-22 2.8994593e-37)
(1.1644779e-05 -4.0301407e-05 2.5849756e-22 0.00013980319 -8.6804782e-22 7.31896e-37)
(1.926956e-05 -5.798166e-05 2.7881441e-23 0.00017494795 -8.1961457e-23 4.9908411e-39)
(3.1214045e-05 -8.1733011e-05 -3.5640699e-22 0.00021472074 9.1821901e-22 4.8582236e-37)
(4.9590747e-05 -0.00011305309 1.4070717e-22 0.00025874292 -3.1795069e-22 4.5764045e-38)
(7.7382541e-05 -0.00015360166 1.140667e-22 0.00030632477 -2.2617091e-22 1.8415143e-38)
(0.00011872251 -0.0002051403 -9.1759401e-22 0.00035644641 1.5966785e-21 7.3862004e-37)
(0.00017922809 -0.00026944549 3.7655678e-21 0.00040777968 -5.74933e-21 7.8031736e-36)
(0.0002663857 -0.00034820414 -2.9501522e-21 0.00045876675 3.9506981e-21 3.0405287e-36)
(0.00038998099 -0.00044291596 4.3922208e-21 0.00050776653 -5.1557461e-21 4.3308566e-36)
(0.00056257388 -0.00055484183 -8.0047382e-21 0.00055326547 8.2301771e-21 9.3644516e-36)
(0.00080003309 -0.00068505181 2.4026017e-21 0.00059413154 -2.1619794e-21 5.568679e-37)
(0.0011221748 -0.00083462346 1.2022354e-21 0.00062986267 -9.4610287e-22 9.342193e-38)
(0.0015536459 -0.0010050283 -4.7333648e-21 0.00066076095 3.2555674e-21 9.8549266e-37)
(0.0021253847 -0.0011987109 2.0325641e-20 0.0006879687 -1.2213716e-20 1.258084e-35)
(0.0028760141 -0.0014195291 3.590595e-21 0.00071333214 -1.8849444e-21 2.7643096e-37)
(0.0038536872 -0.0016729277 -2.1835911e-20 0.00073900597 1.0019352e-20 7.3386155e-36)
(0.0051230924 -0.0019661732 2.8508331e-20 0.00076669233 -1.14388e-20 9.1331906e-36)
(0.0067670255 -0.0023078561 -4.5286178e-21 0.00079780154 1.5898782e-21 1.7143831e-37)
(0.0088891221 -0.0027070314 -5.0910197e-20 0.00083321736 1.5643435e-20 1.6329881e-35)
(0.011625066 -0.00317334 6.0221601e-21 0.00087312255 -1.6193651e-21 1.7521336e-37)
(0.015144923 -0.0037158802 5.2367223e-20 0.00091714254 -1.2314548e-20 1.0280563e-35)
(0.019661084 -0.0043428873 1.4930447e-21 0.00096445663 -3.0674154e-22 6.5278914e-39)
(0.025434263 -0.0050610672 -4.9544247e-20 0.0010138848 8.8729347e-21 5.7587423e-36)
(0.032779203 -0.0058746357 6.184538e-20 0.0010638576 -9.6360466e-21 7.2206453e-36)
(0.042068308 -0.0067839861 -3.1015316e-20 0.0011123624 4.193278e-21 1.4764457e-36)
(0.053731246 -0.007783709 4.0432354e-20 0.0011568399 -4.7273276e-21 2.0645478e-36)
(0.068247243 -0.0088596617 1.4177575e-19 0.0011940489 -1.4280058e-20 2.1082077e-35)
(0.086126479 -0.0099853277 3.4818128e-20 0.0012200715 -3.0047317e-21 1.0675819e-36)
(0.10787322 -0.011117057 1.4821458e-19 0.001230436 -1.0868362e-20 1.6449682e-35)
(0.13392597 -0.012189396 -2.0528647e-19 0.0012206772 1.2638082e-20 2.7168431e-35)
(0.16456899 -0.013111558 -2.0285003e-19 0.0011874496 1.0301028e-20 2.3115942e-35)
(0.19980882 -0.013768526 -3.6990334e-20 0.001130475 1.5086304e-21 6.7848709e-37)
(0.23923978 -0.014030431 3.1149445e-19 0.0010547355 -9.7165564e-21 4.3366832e-35)
(0.28192837 -0.013769743 -1.5388842e-19 0.00097157423 3.4038622e-21 9.6748429e-36)
(0.326313 -0.012886932 -5.5047736e-20 0.0008971845 7.3293544e-22 1.1558255e-36)
(0.37019012 -0.011323895 3.0004e-20 0.00084671161 -1.380297e-22 3.2926232e-37)
(0.41088922 -0.0090732519 9.4086679e-20 0.00082585512 3.6225875e-22 3.1713507e-36)
(0.44553124 -0.0062477477 -4.5533372e-20 0.00082938566 -5.50524e-22 7.4994126e-37)
(0.47113664 -0.0029708427 8.0388993e-20 0.00084666338 1.6146489e-21 2.4314528e-36)
(0.48489929 0.00066603678 4.6340399e-19 0.00086942857 1.2946043e-20 8.687525e-35)
(0.48445725 0.0044307961 2.0826111e-20 0.00091097532 7.4449073e-22 1.9536207e-37)
(0.46782834 0.0081836508 -8.6538486e-20 0.00098138789 -3.7915634e-21 3.9050031e-36)
(0.43359401 0.011805403 1.7383374e-19 0.0010863167 9.1662841e-21 1.9029042e-35)
(0.38150084 0.014883628 -1.3074697e-19 0.0012313095 -8.2100898e-21 1.3653434e-35)
(0.31369595 0.016752519 3.1735354e-19 0.001395668 2.3508334e-20 1.0816616e-34)
(0.23717724 0.016629963 7.5079891e-20 0.0015112998 6.4550192e-21 8.6635276e-36)
(0.16290592 0.014404428 -1.698263e-19 0.0014880915 -1.6565886e-20 6.7677788e-35)
(0.10096808 0.010795437 2.2584906e-20 0.0012803772 2.4298433e-21 1.9257812e-36)
(0.056914645 0.0070483185 1.975435e-20 0.00095327966 2.278208e-21 2.480817e-36)
(0.029439182 0.0040881796 2.997863e-21 0.00062798422 3.6389741e-22 9.9074467e-38)
(0.014267554 0.0021504561 -2.9939085e-20 0.00037725749 -3.7855164e-21 1.7406811e-35)
(0.0066954926 0.0010300631 4.3509169e-20 0.0002108049 5.7681795e-21 6.5977744e-35)
(0.0033726005 0.00045304072 9.609183e-21 0.00011051855 1.3588363e-21 5.9127963e-36)
(0.0020073356 0.00017914069 1.1319433e-20 5.2429276e-05 1.9118949e-21 1.6331494e-35)
(1.8467222e-09 -2.637123e-08 1.4418265e-24 3.7659918e-07 -1.9688887e-23 7.9838677e-38)
(2.1107414e-08 -2.7428041e-07 -2.4395239e-24 3.5643061e-06 3.0421982e-23 3.1593534e-38)
(7.5255567e-08 -9.0007915e-07 -1.1514255e-24 1.0765904e-05 1.3162042e-23 2.2346747e-39)
(1.9149662e-07 -2.0996087e-06 1.6864378e-24 2.30225e-05 -1.763181e-23 2.0091827e-39)
(4.1210243e-07 -4.1360384e-06 -1.180481e-23 4.1515674e-05 1.1286549e-22 4.718312e-38)
(8.0369013e-07 -7.3680381e-06 -1.2192416e-24 6.7557953e-05 1.0654059e-23 2.6085626e-40)
(1.4693939e-06 -1.2275637e-05 -2.1077896e-23 0.00010257163 1.6809213e-22 4.2595192e-38)
(2.5666071e-06 -1.9491189e-05 -3.0160763e-23 0.00014805221 2.1910115e-22 4.9449107e-38)
(4.3327393e-06 -2.9835687e-05 3.2286089e-22 0.00020551017 -2.1321022e-21 3.3032826e-36)
(7.1218335e-06 -4.4358402e-05 -3.7357612e-22 0.00027638744 2.2379507e-21 2.6333469e-36)
(1.1455888e-05 -6.4377376e-05 2.2974804e-22 0.00036194454 -1.2459429e-21 6.0303486e-37)
(1.8095679e-05 -9.1516694e-05 4.2969317e-22 0.00046311735 -2.1051758e-21 1.2944535e-36)
(2.8136835e-05 -0.00012773449 -1.0814659e-21 0.00058034607 4.7768695e-21 5.0887071e-36)
(4.3137665e-05 -0.00017533352 -1.6907481e-22 0.0007133863 6.719405e-22 7.7923537e-38)
(6.528548e-05 -0.00023694427 8.2077383e-22 0.000861121 -2.9289372e-21 1.1605919e-36)
(9.7607787e-05 -0.00031547083 7.0643926e-22 0.0010214048 -2.2589126e-21 5.4760768e-37)
(0.00014423351 -0.00041399281 -1.0213498e-21 0.0011909842 2.9202704e-21 7.3465852e-37)
(0.00021070665 -0.00053562398 4.5895602e-21 0.0013655488 -1.1708782e-20 9.5950838e-36)
(0.0003043531 -0.00068334488 -3.3517436e-21 0.0015399672 7.6130077e-21 3.3373481e-36)
(0.00043469968 -0.00085984776 2.0376351e-21 0.0017087505 -4.1115379e-21 8.1148228e-37)
(0.00061395015 -0.0010674614 -8.3994728e-21 0.0018667412 1.5023932e-20 9.1645841e-36)
(0.00085753705 -0.0013082453 -2.6541879e-21 0.0020099623 4.19969e-21 6.1498723e-37)
(0.001184792 -0.0015843405 6.6809066e-21 0.0021364754 -9.3336433e-21 2.6522486e-36)
(0.0016198499 -0.0018986411 -1.2042529e-20 0.0022470233 1.4830322e-20 5.946834e-36)
(0.0021930968 -0.0022558046 -5.6361144e-21 0.0023452177 6.110279e-21 9.1234102e-37)
(0.0029428101 -0.0026631353 7.982155e-21 0.0024371391 -7.6117848e-21 1.3038552e-36)
(0.0039162741 -0.0031306478 5.3037734e-20 0.0025301191 -4.4471325e-20 4.165932e-35)
(0.005177104 -0.0036719084 2.7868254e-20 0.0026302618 -2.0543111e-20 8.4638487e-36)
(0.0068071127 -0.0043028674 -1.6032484e-20 0.0027424172 1.0389525e-20 2.0974804e-36)
(0.0089074049 -0.0050402234 1.9672332e-20 0.0028698971 -1.120524e-20 2.3941642e-36)
(0.011610463 -0.0059020591 -1.4009833e-20 0.0030136975 7.0106443e-21 9.3723484e-37)
(0.015081778 -0.0069056075 -8.9987117e-20 0.0031728907 3.952737e-20 3.012999e-35)
(0.019527348 -0.0080667385 3.4004121e-20 0.0033450129 -1.3095681e-20 3.3981962e-36)
(0.025199379 -0.0093987459 1.1408659e-19 0.0035262782 -3.8465972e-20 3.0539908e-35)
(0.032401308 -0.010910696 -4.257965e-20 0.0037115554 1.2544819e-20 3.4389309e-36)
(0.041490627 -0.012604918 -6.6450038e-20 0.0038941064 1.7074864e-20 6.8275131e-36)
(0.052877618 -0.014473264 1.27704e-19 0.0040651398 -2.8545457e-20 2.078997e-35)
(0.067016361 -0.016491886 4.3027873e-20 0.0042134581 -8.3403108e-21 1.9654215e-36)
(0.084384367 -0.01861417 -8.4004249e-20 0.0043252393 1.4050602e-20 6.3180088e-36)
(0.10544393 -0.020762285 -3.6761938e-20 0.0043846087 5.2708189e-21 1.0316297e-36)
(0.13057978 -0.022817695 1.9165675e-19 0.0043751019 -2.332723e-20 2.4175662e-35)
(0.160007 -0.024614856 -5.8403895e-20 0.0042836292 5.9338993e-21 1.9681113e-36)
(0.19364542 -0.025941989 -9.0359779e-20 0.0041067015 7.5052656e-21 4.1727513e-36)
(0.2309833 -0.026558053 -2.5541295e-19 0.003858198 1.671674e-20 3.003614e-35)
(0.27095752 -0.026225746 5.0867057e-19 0.0035736325 -2.464353e-20 1.0951331e-34)
(0.31187612 -0.02475982 -3.4092236e-19 0.0033051661 1.0895569e-20 4.6156375e-35)
(0.35148453 -0.022078182 -8.7912093e-20 0.0031023173 1.4005553e-21 2.9459864e-36)
(0.38716993 -0.018221154 -3.5027755e-19 0.0029850551 1.8718845e-24 4.625045e-35)
(0.41614168 -0.013346366 -4.162464e-19 0.0029336057 -6.4268958e-21 6.6447423e-35)
(0.43563083 -0.0076702882 -2.0600876e-20 0.0029111776 -6.2179831e-22 1.7069222e-37)
(0.44326656 -0.0014299995 8.3450319e-20 0.0029007596 3.7796843e-21 3.0469846e-36)
(0.43718504 0.0050656877 -5.7688071e-19 0.0029356273 -3.4732219e-20 1.6374326e-34)
(0.41605616 0.011538564 -2.2617376e-19 0.003060646 -1.7138e-20 2.9486268e-35)
(0.37926103 0.017698574 -2.0887818e-19 0.003306933 -1.9425577e-20 3.0788735e-35)
(0.32707384 0.022910043 -6.0104754e-20 0.0036935206 -6.7772687e-21 3.2814634e-36)
(0.26203506 0.026011403 -3.9384349e-19 0.0041684122 -5.3221002e-20 1.934962e-34)
(0.19132016 0.025673498 1.2849407e-19 0.0045183036 2.0425732e-20 3.0112059e-35)
(0.12551665 0.021808533 -3.1036507e-20 0.0044434559 -5.6568473e-21 2.7524951e-36)
(0.073414914 0.015829028 -1.9691123e-19 0.0037953553 -3.9822617e-20 1.8323581e-34)
(0.038456946 0.0098706705 -5.9376814e-20 0.0027830982 -1.2894479e-20 2.8718305e-35)
(0.018214835 0.0053764441 5.2979057e-20 0.001787367 1.206033e-20 4.0522282e-35)
(0.0080903198 0.00260153 1.3619564e-19 0.0010315901 3.1889863e-20 4.7837915e-34)
(0.00364082 0.0011219555 -3.2443778e-20 0.00054474338 -7.7988257e-21 4.8794227e-35)
(0.0019798409 0.00044433851 -3.8842029e-20 0.0002683583 -9.7111648e-21 1.2678754e-34)
(0.0013678127 0.00016922258 -1.1908659e-20 0.00012368792 -3.4811149e-21 2.3261079e-35)
(7.3120327e-09 -7.4354173e-08 -9.5223645e-24 7.5609728e-07 9.4677256e-23 8.9539126e-37)
(7.5501234e-08 -7.3525222e-07 3.3028048e-23 7.1601928e-06 -3.1450299e-22 1.6424106e-36)
(2.4740346e-07 -2.3137767e-06 -2.0274151e-23 2.1639489e-05 1.8472442e-22 2.1474283e-37)
(5.7823407e-07 -5.1743694e-06 3.2606517e-24 4.6304841e-05 -2.8345277e-23 2.5380779e-39)
(1.1459375e-06 -9.7852021e-06 -8.939946e-23 8.3560442e-05 7.3998704e-22 9.9207966e-37)
(2.062598e-06 -1.675338e-05 1.2361299e-22 0.00013608814 -9.7198403e-22 1.0622509e-36)
(3.4882281e-06 -2.6857726e-05 -2.4453773e-22 0.00020681049 1.8213867e-21 2.4447639e-36)
(5.6499308e-06 -4.1086958e-05 1.4749941e-22 0.00029882285 -1.037311e-21 5.4134142e-37)
(8.8686589e-06 -6.0683581e-05 7.1014441e-22 0.00041528346 -4.6994119e-21 7.8274651e-36)
(1.3595857e-05 -8.7190796e-05 -2.1428524e-22 0.00055925244 1.329628e-21 4.5273243e-37)
(2.0463196e-05 -0.00012249939 -1.0173922e-21 0.00073347171 5.8979701e-21 6.569783e-36)
(3.0349368e-05 -0.00016888961 3.8524676e-22 0.0009400812 -2.0789525e-21 6.1259109e-37)
(4.4468776e-05 -0.00022906101 3.1811785e-23 0.0011802752 -1.5921508e-22 2.7382622e-39)
(6.4487539e-05 -0.00030614052 -1.5343565e-21 0.0014539149 7.0959208e-21 4.1976307e-36)
(9.2673087e-05 -0.00040365805 5.898006e-21 0.0017591319 -2.5110127e-20 4.1091146e-35)
(0.00013208312 -0.00052547767 -4.4387559e-21 0.002091982 1.7331373e-20 1.5484864e-35)
(0.00018680057 -0.00067567871 -5.1736149e-23 0.0024462361 1.8456608e-22 1.4050016e-39)
(0.00026221934 -0.00085838819 3.6643152e-21 0.0028134179 -1.189827e-20 4.7300804e-36)
(0.00036538617 -0.001077587 -1.1324165e-20 0.0031832081 3.3341269e-20 3.0456506e-35)
(0.00050540355 -0.0013369372 6.4837097e-21 0.0035443114 -1.7244395e-20 6.7703649e-36)
(0.00069390696 -0.001639717 1.1687064e-20 0.00388581 -2.7975354e-20 1.501951e-35)
(0.00094563824 -0.0019889742 5.6946645e-21 0.0041988974 -1.222483e-20 2.4549856e-36)
(0.0012791575 -0.0023880119 -3.3723822e-20 0.0044787069 6.4710561e-20 5.9881702e-35)
(0.0017177759 -0.0028412798 -2.0980348e-20 0.0047257874 3.5876768e-20 1.6301788e-35)
(0.0022909737 -0.0033557099 1.603847e-20 0.0049466977 -2.4378644e-20 6.7906305e-36)
(0.0030363393 -0.003942114 -1.0998228e-20 0.005153365 1.4828558e-20 2.3062482e-36)
(0.0039998881 -0.0046148972 4.8098999e-20 0.005360991 -5.7441348e-20 3.2365447e-35)
(0.0052434213 -0.0053938759 -1.6021035e-20 0.0055833808 1.6927871e-20 2.6732783e-36)
(0.006846907 -0.006301795 4.9751946e-20 0.0058303104 -4.6464628e-20 1.9478328e-35)
(0.0089077205 -0.0073624028 -3.2209154e-20 0.0061093577 2.6565802e-20 6.2550136e-36)
(0.011553123 -0.008601661 2.2705811e-20 0.0064234736 -1.6521597e-20 2.411481e-36)
(0.014941534 -0.010044307 -9.4406285e-20 0.0067712888 6.052964e-20 3.2766196e-35)
(0.019269051 -0.011713066 1.529724e-20 0.0071480668 -8.6304508e-21 6.8421955e-37)
(0.024774615 -0.013626943 -9.0680051e-20 0.0075460901 4.4953441e-20 1.9299386e-35)
(0.031744056 -0.01579886 9.7110601e-20 0.0079546767 -4.2227588e-20 1.7971127e-35)
(0.040511785 -0.018231923 3.4625601e-20 0.0083595193 -1.3184962e-20 1.8703787e-36)
(0.051457886 -0.020913994 -4.7864916e-19 0.0087418071 1.5915746e-19 2.9667417e-34)
(0.064997458 -0.023810019 -1.3781692e-19 0.0090773518 3.9906726e-20 2.0581017e-35)
(0.081557881 -0.026851765 1.2534804e-19 0.0093361609 -3.1463117e-20 1.4417621e-35)
(0.10153757 -0.029925213 -1.343479e-19 0.0094833776 2.9049537e-20 1.4177955e-35)
(0.1252409 -0.032857102 3.7471644e-20 0.0094826431 -6.9152531e-21 9.5484522e-37)
(0.15278344 -0.035405354 2.524075e-19 0.0093041574 -3.9182917e-20 3.8079984e-35)
(0.18396665 -0.037261669 -1.2502565e-20 0.0089386076 1.5972766e-21 8.344515e-38)
(0.21814626 -0.038078163 -9.5606875e-20 0.0084139914 9.7307728e-21 4.4095878e-36)
(0.25412371 -0.037522334 4.866352e-20 0.007806121 -3.6995537e-21 1.060559e-36)
(0.29012002 -0.035356383 -2.5312628e-20 0.0072271156 1.3348196e-21 2.6723862e-37)
(0.323905 -0.03151257 -7.4179076e-20 0.0067804013 2.0709224e-21 2.2452424e-36)
(0.35301604 -0.026110333 1.146194e-18 0.0065015988 -4.5978815e-21 5.3599055e-34)
(0.37496745 -0.019409292 -1.2666712e-19 0.0063377304 -2.4615149e-21 6.7236292e-36)
(0.38744773 -0.011719854 1.1341597e-19 0.0062029879 4.7743065e-21 5.7332091e-36)
(0.38860024 -0.0033895557 -1.0137678e-18 0.006072218 -6.5500395e-20 5.0417322e-34)
(0.37719191 0.0051603174 5.1746592e-19 0.0060201803 4.5194974e-20 1.5010374e-34)
(0.35268261 0.01354877 3.8845498e-19 0.0061427223 4.3287552e-20 1.004814e-34)
(0.31514806 0.02140006 3.3004599e-19 0.0065082361 4.5698016e-20 9.0284423e-35)
(0.26530999 0.027931062 2.751252e-19 0.0071637001 4.6734212e-20 8.2397626e-35)
(0.20584208 0.031602592 3.6181611e-19 0.0080248017 7.456683e-20 1.9956271e-34)
(0.14385171 0.030690185 -5.8573291e-19 0.0086621704 -1.4356338e-19 7.8431545e-34)
(0.089156407 0.025300914 2.8250749e-19 0.0084527417 8.0002735e-20 2.9261729e-34)
(0.048656436 0.017616193 3.2727689e-19 0.007123403 1.03296e-19 6.6485128e-34)
(0.023478585 0.010404549 -1.8071193e-19 0.0051180293 -6.1139154e-20 3.545271e-34)
(0.01026701 0.0052987539 -4.3141445e-20 0.0031882849 -1.5134574e-20 3.5884975e-35)
(0.004403022 0.0023786278 -2.8336493e-20 0.0017643507 -1.0018158e-20 2.7217927e-35)
(0.0021413895 0.00095994462 1.0955833e-19 0.0008827492 3.8690433e-20 7.0510129e-34)
(0.0013894583 0.00037688458 6.1235214e-20 0.00040843852 2.1833025e-20 3.8053007e-34)
(0.001086402 0.0001609906 -1.9766032e-21 0.00018125786 -8.0742242e-22 7.3873615e-37)
(1.9469373e-08 -1.5273057e-07 1.107328e-23 1.1981243e-06 -8.5698878e-23 4.4394762e-37)
(1.9294275e-07 -1.4801588e-06 -7.8367135e-23 1.135511e-05 5.9260286e-22 3.5456109e-36)
(6.0960984e-07 -4.5756502e-06 1.0617066e-22 3.4344766e-05 -7.8319135e-22 2.3570086e-36)
(1.3702309e-06 -1.0039289e-05 -5.8096589e-23 7.3557163e-05 4.1726632e-22 3.3669715e-37)
(2.6083973e-06 -1.8616261e-05 -2.8503471e-23 0.00013287163 1.9898153e-22 4.3957995e-38)
(4.5034676e-06 -3.1233935e-05 3.2104179e-22 0.00021663964 -2.1740325e-21 3.2563025e-36)
(7.2956151e-06 -4.9037425e-05 -1.0385491e-22 0.00032963835 6.8056488e-22 2.0900522e-37)
(1.1305719e-05 -7.342899e-05 -2.7683984e-22 0.00047697552 1.7506889e-21 9.42948e-37)
(1.6962102e-05 -0.00010611173 -2.6334133e-23 0.000663931 1.6022171e-22 5.5557146e-39)
(2.4835746e-05 -0.00014913419 -2.7485908e-22 0.00089571779 1.6037001e-21 4.0132948e-37)
(3.5686559e-05 -0.00020493273 4.6975435e-22 0.0011771485 -2.6193693e-21 7.8787048e-37)
(5.0523794e-05 -0.00027636652 -3.9657465e-22 0.0015121967 2.1056443e-21 3.8111765e-37)
(7.0684502e-05 -0.00036673829 -1.7688351e-21 0.0019034546 8.9089048e-21 5.1826636e-36)
(9.7934591e-05 -0.00047979196 -6.2074017e-23 0.0023515046 2.9538774e-22 4.382921e-39)
(0.00013459791 -0.00061967738 1.9674244e-21 0.0028542537 -8.8085894e-21 3.0386447e-36)
(0.00018371967 -0.00079087316 1.6771471e-21 0.0034063146 -7.034344e-21 1.5273773e-36)
(0.00024927114 -0.00099806286 -1.7347186e-21 0.0039985661 6.7852974e-21 1.1330306e-36)
(0.00033640452 -0.001245972 1.9980456e-22 0.0046180686 -7.2545269e-22 1.045436e-38)
(0.00045176664 -0.0015391888 4.866306e-21 0.0052485384 -1.632309e-20 4.3206097e-36)
(0.00060388528 -0.0018820234 7.0924583e-21 0.0058715658 -2.1872245e-20 6.4204118e-36)
(0.00080364677 -0.0022784961 -9.6570303e-21 0.0064686662 2.724746e-20 8.3669544e-36)
(0.0010648909 -0.0027325697 -1.1552311e-20 0.0070240582 2.9679899e-20 8.4675309e-36)
(0.0014051677 -0.0032487575 1.8403125e-20 0.0075277712 -4.2854762e-20 1.5313975e-35)
(0.0018467089 -0.0038331723 -2.6828594e-20 0.0079783805 5.6383586e-20 2.341002e-35)
(0.0024178081 -0.0044950597 -5.4459062e-20 0.0083844658 1.0289333e-19 7.0129303e-35)
(0.0031548541 -0.0052485937 1.4941393e-19 0.0087640458 -2.5293413e-19 3.8848708e-34)
(0.0041027663 -0.0061126952 -9.5137378e-20 0.0091418765 1.43912e-19 1.1741919e-34)
(0.0053204886 -0.0071127378 1.6198115e-19 0.0095427869 -2.1847093e-19 2.5713414e-34)
(0.0068847685 -0.0082773743 -2.3114505e-19 0.0099828781 2.7742841e-19 4.0078254e-34)
(0.0088892521 -0.0096372169 2.931127e-19 0.010476025 -3.1253279e-19 4.9938076e-34)
(0.011453592 -0.01122481 -3.4251924e-19 0.011028865 3.2390294e-19 5.3484158e-34)
(0.014727045 -0.013071522 6.483668e-20 0.011640158 -5.4288138e-20 1.5209823e-35)
(0.018892617 -0.015205707 2.5088344e-19 0.012302597 -1.8570373e-19 1.8247344e-34)
(0.024171808 -0.017650744 -1.5786213e-19 0.013003434 1.0312355e-19 5.851483e-35)
(0.030827329 -0.020421847 5.4853815e-20 0.013724511 -3.1567523e-20 5.7806942e-36)
(0.039163398 -0.023521241 1.7716743e-20 0.014441202 -8.9637119e-21 4.9847331e-37)
(0.049521003 -0.026931032 2.4099339e-19 0.015120879 -1.069821e-19 7.6793624e-35)
(0.062265179 -0.03060313 8.6241349e-20 0.015721279 -3.3489351e-20 8.2745778e-36)
(0.077759974 -0.03444587 9.4988426e-20 0.016189702 -3.2119301e-20 8.5453287e-36)
(0.096325009 -0.03830772 1.0198179e-19 0.016464593 -2.9835442e-20 8.4889065e-36)
(0.1181688 -0.041960042 -5.6080451e-19 0.016481244 1.4064777e-19 2.2384255e-34)
(0.14329364 -0.0450858 2.6367099e-19 0.016186219 -5.5911665e-20 4.3731091e-35)
(0.17137515 -0.047285641 4.4676484e-20 0.015561947 -7.8694136e-21 1.1207716e-36)
(0.20164284 -0.0481194 -5.40973e-19 0.014657838 7.6106431e-20 1.5083997e-34)
(0.23280524 -0.04719196 -2.8520599e-19 0.013610133 3.0502226e-20 3.9051623e-35)
(0.26309492 -0.044270358 1.4381932e-19 0.012618047 -1.0609871e-20 9.4904053e-36)
(0.29046089 -0.03936783 5.2912415e-19 0.011853337 -2.1691495e-20 1.2570733e-34)
(0.31278525 -0.032712719 -2.2900096e-19 0.011350118 2.0016894e-21 2.3797245e-35)
(0.32800409 -0.024631755 6.5540782e-19 0.010982731 1.5309705e-20 2.0270395e-34)
(0.33419484 -0.01546779 3.4235182e-19 0.010593047 1.8753675e-20 5.9641486e-35)
(0.32984236 -0.0056322831 4.4510972e-19 0.010170183 3.8228523e-20 1.1277673e-34)
(0.31420466 0.0043321556 1.1051637e-18 0.0098741626 1.3017715e-19 8.0619542e-34)
(0.28749591 0.013903823 -7.7228296e-19 0.0098802865 -1.1727241e-19 4.7646211e-34)
(0.25057032 0.022654157 2.2273509e-19 0.010294513 4.2453862e-20 5.0014271e-35)
(0.2046214 0.029762535 -3.2732129e-19 0.011192879 -7.7444146e-20 1.4545371e-34)
(0.15233027 0.033432997 -2.5772622e-19 0.012460471 -7.4895778e-20 1.291467e-34)
(0.10061443 0.031729096 -8.0586796e-20 0.013383207 -2.8172289e-20 1.943921e-35)
(0.05810347 0.025170658 -5.6722819e-19 0.012924187 -2.3037613e-19 1.5862822e-33)
(0.029198371 0.01665476 -1.1567893e-19 0.010704744 -5.2305292e-20 1.1317868e-34)
(0.013010997 0.0092662605 1.9948833e-19 0.0075048932 9.5595996e-20 5.8573027e-34)
(0.0055074637 0.0044461536 5.7300324e-20 0.004522452 2.7832098e-20 8.3220998e-35)
(0.0025803772 0.0019273773 -3.3100188e-20 0.0024014177 -1.5685156e-20 4.6370496e-35)
(0.0015415125 0.00080333256 -5.3618299e-20 0.0011446749 -2.4538895e-20 1.98241e-34)
(0.0011858229 0.00036447679 -6.5664092e-20 0.00050106257 -2.9480787e-20 4.8070148e-34)
(0.00099245217 0.00018453197 3.7678601e-21 0.00021244775 1.9083605e-21 2.7958908e-36)
(4.0489422e-08 -2.5721096e-07 4.9844144e-23 1.6339482e-06 -3.1376181e-22 4.1215054e-36)
(3.932812e-07 -2.4690633e-06 3.6994974e-23 1.5501147e-05 -2.298254e-22 3.7198967e-37)
(1.2200569e-06 -7.5671084e-06 -4.9145358e-23 4.6933894e-05 3.0083727e-22 2.4395018e-37)
(2.687557e-06 -1.6445561e-05 -2.595061e-22 0.00010063607 1.5635375e-21 3.3270714e-36)
(5.00759e-06 -3.0190085e-05 1.9079189e-22 0.0001820223 -1.1300868e-21 9.9913408e-37)
(8.4501218e-06 -5.011213e-05 -3.5520327e-22 0.000297209 2.0653981e-21 2.0708634e-36)
(1.3358785e-05 -7.778402e-05 1.9394206e-22 0.00045297261 -1.1051213e-21 3.8793649e-37)
(2.0170221e-05 -0.00011507455 5.7269737e-23 0.00065664361 -3.1914074e-22 2.202368e-38)
(2.9439131e-05 -0.00016418591 -3.9671842e-22 0.00091591978 2.1570238e-21 7.0626382e-37)
(4.1870013e-05 -0.0002276878 -1.0364471e-21 0.0012385714 5.4843703e-21 3.2843384e-36)
(5.8357617e-05 -0.00030854561 -6.2634595e-23 0.0016320178 3.2165522e-22 8.2874056e-39)
(8.003846e-05 -0.00041013793 2.4564136e-21 0.002102754 -1.2205346e-20 8.9075634e-36)
(0.00010835655 -0.00053625748 -4.0547485e-21 0.0026556219 1.9429189e-20 1.7087413e-35)
(0.00014514728 -0.00069108902 7.7917542e-21 0.0032929375 -3.5877122e-20 4.4677783e-35)
(0.00019274456 -0.00087915741 -2.4189728e-21 0.0040135248 1.0661837e-20 3.06157e-36)
(0.00025411804 -0.0011052427 6.0976937e-21 0.0048117555 -2.5620434e-20 1.3873052e-35)
(0.00033304814 -0.0013742609 -8.7385227e-21 0.0056767606 3.4845818e-20 2.0367238e-35)
(0.00043435117 -0.0016911262 6.7213317e-21 0.0065920517 -2.5316612e-20 8.6314247e-36)
(0.00056416716 -0.0020606192 -1.2564602e-21 0.0075358489 4.4479679e-21 2.1659744e-37)
(0.00073033084 -0.0024873207 -6.0221884e-21 0.0084824193 1.9932286e-20 3.5821783e-36)
(0.00094285062 -0.0029756964 1.7266699e-20 0.0094046443 -5.314361e-20 2.1279967e-35)
(0.001214522 -0.0035304347 -2.8676636e-20 0.01027778 8.1624317e-20 4.2627383e-35)