/*--------------------------------*- C++ -*----------------------------------*\
  =========                 |
  \\      /  F ield         | OpenFOAM: The Open Source CFD Toolbox
   \\    /   O peration     | Website:  https://openfoam.org
    \\  /    A nd           | Version:  13
     \\/     M anipulation  |
\*---------------------------------------------------------------------------*/
FoamFile
{
    format      ascii;
    class       volSymmTensorField;
    location    "38.696566";
    object      UPrime2Mean;
}
// * * * * * * * * * * * * * * * * * * * * * * * * * * * * * * * * * * * * * //

dimensions      [0 2 -2 0 0 0 0];

internalField   nonuniform List<symmTensor> 
17140
(
(5.6661601e-12 -3.5634109e-10 -9.4318482e-28 2.3889394e-08 1.4223986e-26 5.5363142e-41)
(3.923253e-10 -5.5309269e-09 -4.1644878e-28 2.2821924e-07 3.0978186e-27 4.9188003e-43)
(3.3894113e-09 -2.2942328e-08 6.7253531e-26 6.9470632e-07 -3.2338648e-25 2.1443246e-39)
(1.5800728e-08 -6.4228402e-08 -1.4260176e-25 1.4995824e-06 4.9631516e-25 2.5915355e-39)
(5.271233e-08 -1.4613649e-07 2.8448132e-26 2.7350523e-06 -7.6278698e-26 3.5417521e-41)
(1.4436435e-07 -2.9298683e-07 -1.4742458e-25 4.5115113e-06 3.1674492e-25 3.7936819e-40)
(3.4707331e-07 -5.3901848e-07 -3.7449349e-25 6.9597588e-06 6.5946173e-25 1.0752801e-39)
(7.6037604e-07 -9.3121557e-07 2.6646223e-25 1.0232984e-05 -3.9029786e-25 2.5628954e-40)
(1.5535285e-06 -1.5326266e-06 1.2399972e-24 1.4508246e-05 -1.5262341e-24 2.7458209e-39)
(3.0054862e-06 -2.425964e-06 4.2380065e-24 1.9987082e-05 -4.417895e-24 1.651922e-38)
(5.5638901e-06 -3.7171666e-06 -8.617161e-24 2.6894762e-05 7.6545194e-24 3.632429e-38)
(9.9301518e-06 -5.538389e-06 1.039678e-23 3.5477574e-05 -7.9064669e-24 2.8849492e-38)
(1.7179313e-05 -8.049608e-06 2.1326662e-24 4.5997421e-05 -1.3935399e-24 6.758818e-40)
(2.892449e-05 -1.1437677e-05 -1.5991495e-23 5.8722924e-05 9.0121592e-24 2.1619563e-38)
(4.753595e-05 -1.5911371e-05 2.3379866e-24 7.3916234e-05 -1.1386648e-24 2.6650984e-40)
(7.642318e-05 -2.1690743e-05 -2.4197404e-23 9.1814847e-05 1.0208229e-23 1.672226e-38)
(0.00012038382 -2.8989303e-05 1.1656674e-24 0.00011260806 -4.2690223e-25 2.3160299e-41)
(0.0001860149 -3.7988208e-05 -3.4210349e-25 0.00013640819 1.0831222e-25 1.1595909e-42)
(0.0002821691 -4.8803325e-05 -3.0678652e-23 0.00016321746 8.4740961e-24 5.8326901e-39)
(0.00042042371 -6.1448637e-05 5.0542148e-23 0.00019289257 -1.2145039e-23 9.7795129e-39)
(0.00061551591 -7.580308e-05 -3.0720553e-23 0.00022511019 6.4213935e-24 2.2583338e-39)
(0.00088569355 -9.1591281e-05 7.3031646e-24 0.00025933822 -1.3308695e-24 8.1741626e-41)
(0.0012529442 -0.00010839 6.6808788e-23 0.00029481992 -1.0575994e-23 4.3998274e-39)
(0.0017431337 -0.00012567016 -8.1720446e-23 0.00033058114 1.125287e-23 4.3275854e-39)
(0.0023862672 -0.00014287744 -1.5783623e-22 0.00036547531 1.8890861e-23 1.0833938e-38)
(0.0032166681 -0.00015952209 1.5213499e-22 0.0003982848 -1.5827483e-23 6.9062217e-39)
(0.0042729666 -0.00017519239 8.8894878e-22 0.00042788776 -8.0267166e-23 1.6445073e-37)
(0.0056008546 -0.00018968603 1.2366548e-22 0.00045344971 -9.6735718e-24 2.254761e-39)
(0.0072544628 -0.00020303029 -1.2631125e-21 0.00047456213 8.5754438e-23 1.7195549e-37)
(0.0092972322 -0.00021490999 -3.42757e-22 0.00049126609 2.0139695e-23 9.3252368e-39)
(0.011805018 -0.00022515562 -1.4067294e-21 0.00050390021 7.1505061e-23 1.1813834e-37)
(0.014866624 -0.00023380965 2.1166471e-21 0.00051284133 -9.2926207e-23 2.0418628e-37)
(0.018586657 -0.00024028399 -6.2872492e-22 0.00051851269 2.3739846e-23 1.3861675e-38)
(0.0230853 -0.00024362134 -3.3963522e-22 0.00052143131 1.1014897e-23 3.1719932e-39)
(0.028498002 -0.0002423754 -3.7740095e-21 0.00052213494 1.0408662e-22 3.0782651e-37)
(0.034973337 -0.0002346093 1.8564179e-21 0.0005210545 -4.3411512e-23 5.9639566e-38)
(0.042668646 -0.00021788175 -3.1319723e-21 0.00051846375 6.1358561e-23 1.3636219e-37)
(0.051742333 -0.00018921485 -2.3581162e-21 0.00051453229 3.8287865e-23 6.2904298e-38)
(0.062341119 -0.00014508906 -1.1953966e-21 0.00050947521 1.5819314e-23 1.3275284e-38)
(0.074580262 -8.145396e-05 3.9753478e-21 0.00050378406 -4.2125621e-23 1.2258994e-37)
(0.08851574 5.9436892e-06 8.2010548e-21 0.00049846857 -6.7317856e-23 4.3810139e-37)
(0.10410904 0.00012103822 8.0762232e-21 0.00049514014 -4.9106163e-23 3.6111537e-37)
(0.12118701 0.00026638012 3.7985087e-21 0.00049579103 -1.5868114e-23 6.8732834e-38)
(0.13941012 0.00044208505 -1.9842292e-20 0.00050239197 4.8414287e-23 1.6215273e-36)
(0.15826066 0.00064424196 -1.5436034e-20 0.00051664848 1.3428217e-23 8.6134799e-37)
(0.17704499 0.00086234808 4.0024235e-21 0.00054004041 2.2877374e-24 5.1553709e-38)
(0.19500653 0.001083031 -2.8514324e-20 0.00057436603 -5.4779385e-23 2.3558094e-36)
(0.21143268 0.0012960227 -1.0071126e-20 0.00062265592 -3.2210077e-23 2.6814916e-37)
(0.22555259 0.0014917047 1.0585549e-20 0.00068984323 4.6868977e-23 2.7425014e-37)
(0.23697055 0.0016584464 2.6528534e-20 0.00078228176 1.4898705e-22 1.6170998e-36)
(0.24534692 0.0017878658 -1.6591662e-20 0.00090913408 -1.1240849e-22 6.0291124e-37)
(0.25048831 0.0018827704 -1.055759e-20 0.0010847409 -8.364698e-23 2.3610787e-37)
(0.25223965 0.0019639813 2.7546429e-20 0.0013304873 2.5169519e-22 1.5772228e-36)
(0.25076096 0.0020487655 1.2927519e-20 0.0016784502 1.3478792e-22 3.4609305e-37)
(0.24636969 0.002138013 9.0734404e-21 0.0021792387 1.0716764e-22 1.7277374e-37)
(0.23985667 0.0022347437 -6.9888113e-21 0.0029164386 -9.2752887e-23 1.0490131e-37)
(0.2323367 0.0023515091 1.8241354e-20 0.004009215 2.6922351e-22 7.5158366e-37)
(0.22459497 0.0024756957 1.4672257e-20 0.0056106359 2.3553666e-22 5.1679665e-37)
(0.2173188 0.0025180777 3.5001468e-21 0.0078136915 5.85884e-23 3.2014657e-38)
(0.21029197 0.0023197001 -8.5457318e-21 0.010513328 -1.3743552e-22 2.1042879e-37)
(0.2026829 0.0018523948 -6.2180749e-21 0.013380615 -8.3221477e-23 1.2785598e-37)
(0.19349924 0.0012817324 -2.1141998e-20 0.01638025 -1.7374316e-22 1.7398505e-36)
(0.17993881 0.00087365935 -2.7789296e-21 0.020178737 -5.9470159e-24 3.7284542e-38)
(0.16469779 0.00088091313 2.0708319e-20 0.024499811 -9.8144545e-24 2.6331802e-36)
(0.14169746 0.00083345395 -1.3646894e-20 0.026783007 -6.8512002e-23 1.5736839e-36)
(2.4935312e-10 -5.8540713e-09 1.1063912e-27 1.3748254e-07 -2.1405121e-26 4.4834926e-42)
(3.8837946e-09 -7.0737715e-08 -3.6270278e-25 1.3030787e-06 5.5544027e-24 5.9021641e-38)
(1.7271735e-08 -2.5737575e-07 6.1376741e-25 3.9382954e-06 -7.6756477e-24 4.6738759e-38)
(5.3528798e-08 -6.5761414e-07 -2.7653621e-25 8.4341834e-06 2.8791739e-24 3.4736246e-39)
(1.3660306e-07 -1.4012477e-06 -8.7879358e-25 1.5247073e-05 7.7518122e-24 1.4823415e-38)
(3.0932707e-07 -2.6745223e-06 2.4707605e-24 2.4900124e-05 -1.8708629e-23 5.4122465e-38)
(6.4532197e-07 -4.7377735e-06 -3.6754376e-24 3.7981477e-05 2.4081725e-23 5.8810984e-38)
(1.2672169e-06 -7.9470655e-06 4.5140933e-25 5.513684e-05 -2.5724656e-24 4.5552259e-40)
(2.3743202e-06 -1.2780558e-05 -1.9331542e-24 7.7054433e-05 9.6166406e-24 4.4398585e-39)
(4.2835991e-06 -1.9868139e-05 -4.4552993e-26 0.00010443964 1.9405952e-25 1.2683848e-42)
(7.4892957e-06 -3.0023018e-05 -1.1686752e-23 0.00013797694 4.4644234e-23 4.9482859e-38)
(1.2747883e-05 -4.4272239e-05 2.4619965e-23 0.00017827693 -8.2659376e-23 1.2490749e-37)
(2.1196542e-05 -6.3881372e-05 2.6758614e-24 0.00022580711 -7.9078183e-24 8.5175444e-40)
(3.4514358e-05 -9.0366199e-05 -3.4511009e-23 0.00028080724 8.9883011e-23 8.2912524e-38)
(5.5135572e-05 -0.00012548181 1.3760231e-23 0.00034319341 -3.161442e-23 7.8103324e-39)
(8.6522654e-05 -0.00017117764 1.1282895e-23 0.00041245934 -2.2883192e-23 3.1428458e-39)
(0.00013350265 -0.00022950652 -9.1915645e-23 0.00048758969 1.6461973e-22 1.2605859e-37)
(0.00020266249 -0.0003024793 3.8207114e-22 0.00056700609 -6.0439377e-22 1.3317626e-36)
(0.00030278712 -0.00039186462 -3.0338771e-22 0.00064857129 4.2386243e-22 5.1893094e-37)
(0.00044531034 -0.00049894951 4.5804241e-22 0.0007296765 -5.6500547e-22 7.391624e-37)
(0.0006447356 -0.00062429928 -8.4634108e-22 0.00080742833 9.2135666e-22 1.5982876e-36)
(0.0009189802 -0.00076758105 2.5750746e-22 0.00087893207 -2.4726803e-22 9.5045612e-38)
(0.0012896086 -0.00092753297 1.3052552e-22 0.00094163774 -1.1048313e-22 1.5945456e-38)
(0.0017819839 -0.0011021629 -5.2099191e-22 0.00099368333 3.8839331e-22 1.6820917e-37)
(0.002425542 -0.001289237 2.2636708e-21 0.0010341544 -1.4856149e-21 2.1474102e-36)
(0.0032540509 -0.001486903 4.0525363e-22 0.0010632004 -2.3388934e-22 4.7184584e-38)
(0.0043054824 -0.0016941214 -2.4854004e-21 0.0010819441 1.2622246e-21 1.2526727e-36)
(0.0056247944 -0.0019112172 3.2786139e-21 0.0010920385 -1.4639232e-21 1.5590288e-36)
(0.0072653774 -0.0021397638 -5.235903e-22 0.0010954317 2.0573845e-22 2.9265054e-38)
(0.0092896411 -0.0023814323 -5.961048e-21 0.0010942777 2.0562703e-21 2.7875937e-36)
(0.011772225 -0.0026383155 7.0936959e-22 0.0010902451 -2.1498261e-22 2.9910339e-38)
(0.01480038 -0.0029124204 6.2407005e-21 0.0010841229 -1.6570277e-21 1.754987e-36)
(0.018476762 -0.0032044952 1.830485e-22 0.0010760741 -4.2294915e-23 1.1143471e-39)
(0.022919066 -0.003513778 -6.0077805e-21 0.0010659224 1.2202043e-21 9.8308573e-37)
(0.028259598 -0.0038375446 7.5632866e-21 0.0010532993 -1.3397562e-21 1.2326565e-36)
(0.034642945 -0.004170739 -3.8300469e-21 0.0010376938 5.9038282e-22 2.520487e-37)
(0.042221419 -0.0045054426 5.0273913e-21 0.0010185084 -6.7364073e-22 3.5244724e-37)
(0.051147043 -0.0048300269 1.7818009e-20 0.00099516732 -2.0695567e-21 3.599002e-36)
(0.061558488 -0.0051280821 4.426545e-21 0.00096734028 -4.4472198e-22 1.8225052e-37)
(0.073560997 -0.0053773784 1.9024483e-20 0.00093531671 -1.6497234e-21 2.8081824e-36)
(0.087198318 -0.0055494985 -2.6615583e-20 0.00090047686 1.9848666e-21 4.6380218e-36)
(0.10241742 -0.0056109176 -2.666219e-20 0.00086560754 1.7007121e-21 3.9461975e-36)
(0.11902875 -0.0055264005 -4.9521177e-21 0.00083497989 2.683508e-22 1.1582636e-37)
(0.13667432 -0.0052649903 4.2185644e-20 0.00081426128 -1.9227735e-21 7.4032969e-36)
(0.15481354 -0.0048085309 -2.1320108e-20 0.00081032823 8.0629108e-22 1.6516244e-36)
(0.17273486 -0.0041635296 -7.821179e-21 0.00083071129 2.4083029e-22 1.9731563e-37)
(0.18964403 -0.0033660047 4.3633136e-21 0.00088237397 -1.0631559e-22 5.6210317e-38)
(0.20479956 -0.0024684259 1.4216584e-20 0.00096936945 -2.6226511e-22 5.4140208e-37)
(0.21757064 -0.0015364049 -7.1749303e-21 0.0010905568 9.3959884e-23 1.280292e-37)
(0.22748331 -0.00063114189 1.3331474e-20 0.001243456 -1.0840091e-22 4.1510057e-37)
(0.23424335 0.00021956951 8.1503468e-20 0.001429371 -2.9148573e-22 1.4831716e-35)
(0.23769176 0.0010044715 3.918973e-21 0.0016586504 2.9825213e-24 3.335361e-38)
(0.23781402 0.0017093576 -1.7675402e-20 0.0019543601 -8.3991287e-23 6.6670711e-37)
(0.23484237 0.0023089164 3.9025584e-20 0.0023507 3.4201736e-22 3.2489209e-36)
(0.22936993 0.0027610543 -3.2798656e-20 0.00289934 -4.1883527e-22 2.3311557e-36)
(0.22230777 0.0030377869 9.0858259e-20 0.0036812128 1.5229875e-21 1.8468304e-35)
(0.21483099 0.0031763099 2.5109518e-20 0.0048147487 5.2485212e-22 1.4792231e-36)
(0.20786941 0.0032058025 -6.7809575e-20 0.006462073 -1.6854578e-21 1.1555418e-35)
(0.20203262 0.0031257385 1.0976922e-20 0.0087280384 3.1722348e-22 3.2880989e-37)
(0.19698003 0.0028123076 1.1764784e-20 0.011472916 3.7211385e-22 4.235712e-37)
(0.19152176 0.0022589149 2.1881655e-21 0.014300467 7.2235654e-23 1.6915525e-38)
(0.18453541 0.0014525285 -2.6649967e-20 0.017173226 -8.8945856e-22 2.9719219e-36)
(0.17244408 0.00042717238 4.6281063e-20 0.020760412 1.5376075e-21 1.1264415e-35)
(0.15847655 -0.00026330554 1.2191232e-20 0.024847026 4.5236163e-22 1.009485e-36)
(0.135981 -0.00054990269 1.7050762e-20 0.02708405 8.4599219e-22 2.7882175e-36)
(2.0299698e-09 -2.9002775e-08 1.6006071e-25 4.1437867e-07 -2.1325462e-24 1.3627495e-38)
(2.3113319e-08 -3.0109686e-07 -2.4932197e-25 3.9246888e-06 3.027833e-24 5.3917606e-39)
(8.2113049e-08 -9.8574583e-07 -1.1260645e-25 1.1853753e-05 1.2474134e-24 3.813703e-40)
(2.0846684e-07 -2.2958353e-06 1.607178e-25 2.5368547e-05 -1.6243656e-24 3.4288798e-40)
(4.4817449e-07 -4.5196681e-06 -1.1096313e-24 4.5826046e-05 1.0248833e-23 8.0522959e-39)
(8.7416577e-07 -8.0533448e-06 -1.1401611e-25 7.4774984e-05 9.6354363e-25 4.4517866e-41)
(1.6000709e-06 -1.343163e-05 -1.9648404e-24 0.00011394663 1.5182758e-23 7.2693306e-39)
(2.8004344e-06 -2.1365422e-05 -2.8149492e-24 0.00016522777 1.9863339e-23 8.4390357e-39)
(4.7404785e-06 -3.2787142e-05 3.02258e-23 0.00023060769 -1.9441668e-22 5.6374263e-37)
(7.8184904e-06 -4.8900303e-05 -3.5155128e-23 0.0003120932 2.0573377e-22 4.494114e-37)
(1.2626058e-05 -7.1232652e-05 2.1765691e-23 0.00041158287 -1.1567693e-22 1.029152e-37)
(2.003167e-05 -0.00010168604 4.1045341e-23 0.00053069373 -1.9775586e-22 2.2091481e-37)
(3.1295009e-05 -0.00014257578 -1.0426748e-22 0.0006705371 4.5463641e-22 8.684553e-37)
(4.8219756e-05 -0.00019664697 -1.6480305e-23 0.00083144683 6.4926945e-23 1.3298741e-38)
(7.3352846e-05 -0.00026705178 8.0890524e-23 0.0010126737 -2.8747114e-22 1.980724e-37)
(0.00011023667 -0.00035726821 7.0496399e-23 0.0012120764 -2.256356e-22 9.3458084e-38)
(0.00016371707 -0.00047094067 -1.0325638e-22 0.0014258582 2.9716282e-22 1.2538236e-37)
(0.00024030337 -0.00061162766 4.703779e-22 0.0016484209 -1.2151766e-21 1.6375851e-36)
(0.00034856689 -0.00078245652 -3.4825125e-22 0.0018724236 8.0623644e-22 5.6958908e-37)
(0.00049955294 -0.00098571163 2.1478533e-22 0.002089134 -4.4481598e-22 1.3849843e-37)
(0.00070717086 -0.0012224218 -8.9752847e-22 0.0022891324 1.6598878e-21 1.5641748e-36)
(0.00098852436 -0.0014920578 -2.8750478e-22 0.0024633596 4.7397023e-22 1.0496538e-37)
(0.001364155 -0.0017924839 7.3309687e-22 0.0026043905 -1.0755202e-21 4.5269157e-37)
(0.0018582205 -0.0021203075 -1.3383244e-21 0.0027076865 1.7443214e-21 1.0150388e-36)
(0.0024987924 -0.0024717421 -6.3449854e-22 0.0027724951 7.3345065e-22 1.557265e-37)
(0.0033182742 -0.0028437802 9.0631123e-22 0.0028020945 -9.2850557e-22 2.2255894e-37)
(0.0043530588 -0.0032349284 6.0901681e-21 0.0028031382 -5.5199686e-21 7.1110927e-36)
(0.0056463229 -0.0036462482 3.2337425e-21 0.0027836757 -2.5905601e-21 1.4447741e-36)
(0.007249534 -0.0040810121 -1.8710615e-21 0.0027515167 1.324858e-21 3.580465e-37)
(0.0092225828 -0.0045429641 2.324989e-21 0.0027135728 -1.4512033e-21 4.0869572e-37)
(0.011637123 -0.0050364871 -1.6596372e-21 0.0026747307 9.1398531e-22 1.5999417e-37)
(0.014576512 -0.0055655303 -1.0789972e-20 0.0026371357 5.2223955e-21 5.1434808e-36)
(0.018138572 -0.0061321179 4.1112568e-21 0.0026007456 -1.74744e-21 5.8010989e-37)
(0.022434891 -0.0067355653 1.3921518e-20 0.0025641077 -5.1862245e-21 5.2135309e-36)
(0.027590112 -0.007371715 -5.2231259e-21 0.0025249539 1.704229e-21 5.8707286e-37)
(0.033739211 -0.0080322008 -8.244344e-21 0.0024806066 2.3494824e-21 1.165549e-36)
(0.041022445 -0.0087034131 1.5995986e-20 0.0024282074 -3.9780689e-21 3.5491311e-36)
(0.049576714 -0.0093648755 5.4539055e-21 0.0023649079 -1.1817339e-21 3.3552274e-37)
(0.05952174 -0.0099871486 -1.0718998e-20 0.0022881961 2.0226435e-21 1.0785713e-36)
(0.070939311 -0.010529809 -4.7328748e-21 0.0021965807 7.7607961e-22 1.7611384e-37)
(0.083844743 -0.010940448 2.5013311e-20 0.0020906154 -3.5527307e-21 4.127106e-36)
(0.098151423 -0.01115637 -7.6850626e-21 0.00197421 9.4162393e-22 3.3598307e-37)
(0.11363192 -0.011110459 -1.2094959e-20 0.001855975 1.273275e-21 7.123448e-37)
(0.12988792 -0.010742321 -3.4858521e-20 0.0017504033 3.1275424e-21 5.1275625e-36)
(0.14633742 -0.010014695 7.0826734e-20 0.0016780707 -5.3558385e-21 1.8695376e-35)
(0.16224192 -0.0089366999 -4.8706405e-20 0.0016637259 3.059109e-21 7.8795188e-36)
(0.1768232 -0.0075807709 -1.2991417e-20 0.0017296441 6.6599497e-22 5.0292259e-37)
(0.18936939 -0.0060566421 -5.3518694e-20 0.0018836382 2.171932e-21 7.8956922e-36)
(0.19931585 -0.0044776399 -6.6451456e-20 0.002112925 2.0604894e-21 1.13438e-35)
(0.20630036 -0.0029531849 -3.4767616e-21 0.0023947027 7.9485387e-23 2.9141187e-38)
(0.21018519 -0.0015470416 1.4980328e-20 0.0027111255 -2.1459911e-22 5.2019635e-37)
(0.21097978 -0.00028523839 -1.1089523e-19 0.0030659497 7.2575841e-22 2.7955391e-35)
(0.20886161 0.00080151642 -4.7280656e-20 0.0034888805 -2.2650725e-23 5.0342159e-36)
(0.20423932 0.0016495831 -4.8168877e-20 0.0040230573 -3.5026977e-22 5.2567011e-36)
(0.19792021 0.0021816589 -1.5558141e-20 0.004719908 -2.21533e-22 5.6026693e-37)
(0.19094636 0.002357837 -1.1709124e-19 0.0056483547 -2.4192265e-21 3.3037572e-35)
(0.18457477 0.0022498629 4.4953111e-20 0.0069097251 1.2512434e-21 5.1413694e-36)
(0.17968151 0.0019732604 -1.305384e-20 0.008654588 -4.5204911e-22 4.6996272e-37)
(0.17655865 0.0016346259 -1.0172676e-19 0.010980397 -4.2784257e-21 3.128579e-35)
(0.17457513 0.0011791181 -3.790862e-20 0.013695779 -1.8653928e-21 4.9033268e-36)
(0.17191851 0.00062730424 4.1615686e-20 0.016320097 2.3018597e-21 6.9186055e-36)
(0.16742684 -0.00019032896 1.3008991e-19 0.018792483 8.0113729e-21 8.1675289e-35)
(0.15693897 -0.0015628817 -3.6610734e-20 0.021867031 -2.5008608e-21 8.3306666e-36)
(0.14484217 -0.0026011228 -5.1253356e-20 0.02529461 -4.0906454e-21 2.1646306e-35)
(0.12292598 -0.0027895312 -1.812795e-20 0.0269895 -1.8685717e-21 3.9712918e-36)
(7.9636801e-09 -8.0980926e-08 -1.0493983e-24 8.2347998e-07 1.0305224e-23 1.5283205e-37)
(8.2281641e-08 -8.0116572e-07 3.3540599e-24 7.8014245e-06 -3.147297e-23 2.8029344e-37)
(2.6955486e-07 -2.5202147e-06 -1.9665867e-24 2.35683e-05 1.7587728e-23 3.6647982e-38)
(6.3033761e-07 -5.6379974e-06 3.0809971e-25 5.0453352e-05 -2.6215068e-24 4.3314829e-40)
(1.2509251e-06 -1.0674607e-05 -8.3371219e-24 9.116868e-05 6.7419779e-23 1.6930837e-37)
(2.2564586e-06 -1.8312427e-05 1.146889e-23 0.00014881532 -8.8032261e-23 1.8128396e-37)
(3.8271073e-06 -2.9437232e-05 -2.2690281e-23 0.00022686677 1.6495341e-22 4.1722434e-37)
(6.2206407e-06 -4.5186415e-05 1.3726931e-23 0.00032911722 -9.4247493e-23 9.2385664e-38)
(9.804192e-06 -6.7005323e-05 6.6463383e-23 0.00045957928 -4.2964873e-22 1.3358421e-36)
(1.5097946e-05 -9.6708288e-05 -2.0195995e-23 0.00062231694 1.2252113e-22 7.7263881e-38)
(2.2834642e-05 -0.00013654033 -9.6746873e-23 0.00082119644 5.4901243e-22 1.12121e-36)
(3.4039963e-05 -0.00018923353 3.6995996e-23 0.001059539 -1.957356e-22 1.0454613e-37)
(5.0139029e-05 -0.00025804594 3.0827004e-24 0.0013396686 -1.5155562e-23 4.6732024e-40)
(7.3095409e-05 -0.00034676866 -1.5084156e-22 0.0016623579 6.8702194e-22 7.1638276e-37)
(0.00010558866 -0.00045968065 5.873446e-22 0.0020261975 -2.4701411e-21 7.0128029e-36)
(0.00015123519 -0.00060142722 -4.4807704e-22 0.0024269465 1.7345232e-21 2.642736e-36)
(0.00021485473 -0.00077679884 -5.3000428e-24 0.0028569629 1.8824504e-23 2.3978762e-40)
(0.00030277936 -0.00099039316 3.8065794e-22 0.0033048584 -1.2365741e-21 8.0727743e-37)
(0.00042319567 -0.0012461624 -1.1937013e-21 0.0037555634 3.5353813e-21 5.1980377e-36)
(0.00058650162 -0.0015468817 6.9336262e-22 0.0041909945 -1.8662848e-21 1.1555197e-36)
(0.00080565344 -0.0018936261 1.2677002e-21 0.0045914714 -3.0912987e-21 2.5634676e-36)
(0.0010964768 -0.002285399 6.2656295e-22 0.004937896 -1.3798713e-21 4.190138e-37)
(0.0014779246 -0.0027191031 -3.7570147e-21 0.0052144763 7.450726e-21 1.0220735e-35)
(0.0019722957 -0.0031900389 -2.3669509e-21 0.0054114952 4.2145772e-21 2.7824793e-36)
(0.0026055637 -0.0036930807 1.8279528e-21 0.0055273934 -2.9151675e-21 1.1590889e-36)
(0.0034079815 -0.0042243882 -1.2689213e-21 0.0055694317 1.8073077e-21 3.9365981e-37)
(0.0044135829 -0.0047823504 5.5975265e-21 0.0055524568 -7.107925e-21 5.5246692e-36)
(0.0056627794 -0.0053691549 -1.8825071e-21 0.0054948761 2.1265412e-21 4.5632782e-37)
(0.0072039063 -0.0059898939 5.8932905e-21 0.005413724 -5.9128446e-21 3.3250061e-36)
(0.0090930849 -0.0066505731 -3.8440276e-21 0.0053235135 3.4193809e-21 1.0677665e-36)
(0.011397304 -0.0073578966 2.736488e-21 0.0052345523 -2.1527019e-21 4.1165779e-37)
(0.014193885 -0.0081176467 -1.1453449e-20 0.0051515564 7.9573964e-21 5.5935078e-36)
(0.017573162 -0.0089329876 1.8675628e-21 0.0050745134 -1.1437945e-21 1.1680421e-37)
(0.021637324 -0.0098030796 -1.1187369e-20 0.0050001844 6.0244123e-21 3.2946365e-36)
(0.026499292 -0.010722054 1.2072921e-20 0.0049234023 -5.7107353e-21 3.0679034e-36)
(0.032279476 -0.011677917 4.360478e-21 0.0048380208 -1.8079658e-21 3.1929637e-37)
(0.039100038 -0.012651041 -6.053414e-20 0.0047374393 2.2003355e-20 5.0646316e-35)
(0.047075444 -0.013611832 -1.7608621e-20 0.0046148963 5.6002158e-21 3.5134539e-36)
(0.056297823 -0.014517732 1.6148256e-20 0.0044639539 -4.4884887e-21 2.4612835e-36)
(0.066815574 -0.015310366 -1.7485735e-20 0.0042796381 4.2396658e-21 2.4203665e-36)
(0.078604807 -0.01591427 4.9513724e-21 0.0040604606 -1.0439302e-21 1.6300307e-37)
(0.09153496 -0.016239451 3.3657539e-20 0.0038114065 -6.1593009e-21 6.5007541e-36)
(0.10533302 -0.016190309 -1.683595e-21 0.0035477142 2.6637396e-22 1.4245409e-38)
(0.11955838 -0.015682728 -1.3222297e-20 0.0032983138 1.7895418e-21 7.5277056e-37)
(0.13359885 -0.014670107 6.827746e-21 0.0031068814 -7.7859328e-22 1.8104893e-37)
(0.1467264 -0.013179667 -3.7507966e-21 0.0030272646 3.607824e-22 4.5619928e-38)
(0.15823508 -0.011331135 -1.1148705e-20 0.0031061689 8.8112225e-22 3.8329141e-37)
(0.16750978 -0.0092981715 1.7810835e-19 0.0033559699 -1.13404e-20 9.1501849e-35)
(0.17415545 -0.0072566447 -2.0615116e-20 0.0037422722 1.0116023e-21 1.1478286e-36)
(0.17801793 -0.0053542453 1.9511203e-20 0.0042066718 -7.1930166e-22 9.7877341e-37)
(0.17915339 -0.0036652176 -1.8614397e-19 0.0047014519 4.7067841e-21 8.6074165e-35)
(0.17773618 -0.0022165348 1.0248129e-19 0.0052231978 -1.5028307e-21 2.5626827e-35)
(0.1740993 -0.0010542275 8.4021262e-20 0.0058160924 -3.610274e-22 1.7155261e-35)
(0.16880753 -0.0002732643 7.9090228e-20 0.0065391454 4.3079663e-22 1.5414657e-35)
(0.16279695 2.9426581e-05 7.4432297e-20 0.0074443312 1.1166632e-21 1.4068373e-35)
(0.15717553 -0.00016878707 1.1312438e-19 0.008579071 2.7821227e-21 3.4073337e-35)
(0.1530864 -0.000718826 -2.1721995e-19 0.010009114 -7.555142e-21 1.3391504e-34)
(0.1511322 -0.0014008628 1.2722602e-19 0.01185937 5.7827097e-21 4.9961954e-35)
(0.15103082 -0.001964558 1.8156241e-19 0.014210337 1.0292067e-20 1.1351712e-34)
(0.1517009 -0.0023990192 -1.2383003e-19 0.016778783 -8.5166864e-21 6.0531468e-35)
(0.15068224 -0.0026827002 -3.6073164e-20 0.019003966 -2.9070364e-21 6.1268613e-36)
(0.14719548 -0.0031801938 -2.8193225e-20 0.020840973 -2.6285896e-21 4.6469982e-36)
(0.136886 -0.0045966563 1.2438472e-19 0.023116831 1.3755271e-20 1.2038258e-34)
(0.12505302 -0.0056023028 7.7942751e-20 0.025556004 1.029141e-20 6.4967556e-35)
(0.1031573 -0.0054755142 -2.7208081e-21 0.026339901 -4.4444686e-22 1.2612103e-37)
(2.1325797e-08 -1.672773e-07 1.2274913e-24 1.3121068e-06 -9.4311974e-24 7.5776027e-38)
(2.1163695e-07 -1.6224417e-06 -8.0148738e-24 1.2438087e-05 6.0051929e-23 6.0509101e-37)
(6.6897425e-07 -5.014979e-06 1.0357499e-23 3.7596803e-05 -7.5481815e-23 4.0224531e-37)
(1.5055414e-06 -1.1010699e-05 -5.5159136e-24 8.0535177e-05 3.9044887e-23 5.7460512e-38)
(2.8720352e-06 -2.0449116e-05 -2.6693555e-24 0.00014562885 1.8331642e-23 7.5018471e-39)
(4.9732146e-06 -3.4390934e-05 2.9917575e-23 0.00023789963 -1.9904982e-22 5.5571926e-37)
(8.0863771e-06 -5.4165323e-05 -9.6808657e-24 0.00036299857 6.2273497e-23 3.5668788e-38)
(1.2585785e-05 -8.1422662e-05 -2.59121e-23 0.00052713402 1.607521e-22 1.6092351e-37)
(1.8975554e-05 -0.00011819332 -2.4794912e-24 0.00073692194 1.4792284e-23 9.481401e-40)
(2.7932962e-05 -0.00016694792 -2.6103593e-23 0.00099913225 1.4930632e-22 6.8491143e-38)
(4.0365215e-05 -0.0002306541 4.5055804e-23 0.0013203033 -2.462808e-22 1.344588e-37)
(5.7483059e-05 -0.00031282116 -3.8458772e-23 0.0017061976 2.0022587e-22 6.5042145e-38)
(8.0895283e-05 -0.00041752042 -1.7369052e-22 0.0021610793 8.5831784e-22 8.8448489e-37)
(0.0001127283 -0.00054936441 -6.1887369e-24 0.0026868149 2.8926755e-23 7.48002e-40)
(0.00015577492 -0.00071342368 1.9853496e-22 0.0032818279 -8.7436719e-22 5.1858735e-37)
(0.0002136756 -0.00091505705 1.7178257e-22 0.0039399903 -7.1020839e-22 2.6067017e-37)
(0.00029113375 -0.0011596327 -1.8044178e-22 0.0046496031 6.9758731e-22 1.9337051e-37)
(0.00039416382 -0.0014521265 2.1042701e-23 0.0053926953 -7.5760705e-23 1.7842333e-39)
(0.00053036663 -0.0017966045 5.2190988e-22 0.0061449501 -1.7429819e-21 7.3740027e-37)
(0.00070922239 -0.0021956364 7.725254e-22 0.0068765991 -2.3830182e-21 1.0957892e-36)
(0.00094238812 -0.0026497389 -1.067375e-21 0.0075545754 3.0284728e-21 1.4280337e-36)
(0.0012439872 -0.0031570158 -1.2947012e-21 0.0081460189 3.3647585e-21 1.4452257e-36)
(0.0016308861 -0.0037132066 2.0894247e-21 0.0086228583 -4.9534829e-21 2.6138186e-36)
(0.0021229666 -0.0043123488 -3.0837595e-21 0.0089667012 6.6425741e-21 3.99575e-36)
(0.0027434963 -0.0049482081 -6.3322045e-21 0.0091727939 1.2346241e-20 1.1970307e-35)
(0.0035198195 -0.00561641 1.7543578e-20 0.0092516858 -3.0854685e-20 6.6311996e-35)
(0.0044831862 -0.0063158203 -1.1273455e-20 0.0092277423 1.7827005e-20 2.0043055e-35)
(0.0056702639 -0.0070500105 1.9365964e-20 0.0091331176 -2.7452746e-20 4.3892766e-35)
(0.0071250097 -0.0078260517 -2.7850375e-20 0.0089975253 3.5299901e-20 6.8414772e-35)
(0.0088991599 -0.0086528192 3.5590322e-20 0.0088462372 -4.0226255e-20 8.5247127e-35)
(0.011053379 -0.0095391999 -4.1901218e-20 0.0086973515 4.2121391e-20 9.1301699e-35)
(0.013657257 -0.010492669 7.9821185e-21 0.0085597754 -7.1205857e-21 2.5964694e-36)
(0.016791386 -0.011517353 3.1160349e-20 0.0084341101 -2.460404e-20 3.1150237e-35)
(0.0205459 -0.012611981 -1.9756356e-20 0.0083149969 1.3783769e-20 9.9891894e-36)
(0.025018777 -0.01376864 6.9159911e-21 0.0081934092 -4.2565895e-21 9.868387e-37)
(0.030312062 -0.014971361 2.2419125e-21 0.0080583749 -1.2162298e-21 8.5096836e-38)
(0.036525464 -0.016194207 3.0912418e-20 0.0078979629 -1.474501e-20 1.3109701e-35)
(0.043746205 -0.017398363 1.1181221e-20 0.0076997539 -4.6866247e-21 1.4125786e-36)
(0.052033869 -0.01852846 1.2461732e-20 0.0074515489 -4.5812206e-21 1.4587881e-36)
(0.061399064 -0.019509216 1.3465673e-20 0.0071431571 -4.3373895e-21 1.4491679e-36)
(0.071775929 -0.020244272 -7.4893171e-20 0.0067697937 2.1070963e-20 3.8212786e-35)
(0.08299059 -0.020620206 3.5679465e-20 0.0063376308 -8.7380995e-21 7.4654446e-36)
(0.09473148 -0.020519247 6.2008885e-21 0.005871124 -1.3183154e-21 1.9132767e-37)
(0.10653317 -0.019843531 -7.5840484e-20 0.0054199421 1.3841627e-20 2.5750189e-35)
(0.11778992 -0.018552784 -4.096379e-20 0.0050612834 6.3773743e-21 6.6665867e-36)
(0.12784571 -0.016713124 2.119252e-20 0.0048901472 -2.7849719e-21 1.6201469e-36)
(0.13613514 -0.01450907 8.0848039e-20 0.0049839792 -8.7776308e-21 2.1459918e-35)
(0.14223802 -0.012176313 -3.6406886e-20 0.005352972 3.2304525e-21 4.0625832e-36)
(0.1459763 -0.0099385993 1.0960268e-19 0.0059278058 -7.5942695e-21 3.4604821e-35)
(0.14739528 -0.0079536306 6.0745822e-20 0.0065975856 -3.1959341e-21 1.0181945e-35)
(0.14668298 -0.0062787882 8.4669133e-20 0.0072775922 -3.198e-21 1.9253652e-35)
(0.14410652 -0.0049269431 2.278138e-19 0.0079639499 -5.2372732e-21 1.3763867e-34)
(0.14008291 -0.0039582839 -1.7467444e-19 0.0087280098 1.6835296e-21 8.1346499e-35)
(0.1352682 -0.0034983598 5.6066272e-20 0.0096520951 2.5490655e-22 8.5390376e-36)
(0.13065064 -0.0036508682 -9.3667923e-20 0.010785213 -1.5082061e-21 2.4834343e-35)
(0.12729124 -0.0043895566 -8.5818516e-20 0.012140788 -2.5234252e-21 2.2050406e-35)
(0.12604694 -0.0054511686 -3.2036411e-20 0.013737414 -1.3986681e-21 3.3190482e-36)
(0.12703315 -0.0064731219 -2.7579953e-19 0.015648529 -1.5736477e-20 2.7084413e-34)
(0.12924875 -0.0070856341 -6.9201845e-20 0.017931898 -5.0444702e-21 1.9324197e-35)
(0.13114787 -0.0072381412 1.4555244e-19 0.020191555 1.3221132e-20 1.0000682e-34)
(0.12986377 -0.0069991898 4.9484852e-20 0.021806831 5.4958082e-21 1.4208822e-35)
(0.12562215 -0.006963693 -3.2594951e-20 0.022805569 -4.3294442e-21 7.9169687e-36)
(0.11421329 -0.0080875101 -5.7225763e-20 0.024088176 -9.1946627e-21 3.3845783e-35)
(0.10128662 -0.0087739895 -7.4214406e-20 0.025302325 -1.4728294e-20 8.2069817e-35)
(0.080014322 -0.0082440362 4.3910337e-21 0.025096576 1.0935006e-21 4.7732833e-37)
(4.4923643e-08 -2.8534575e-07 5.5967081e-24 1.8124584e-06 -3.506597e-23 7.0348396e-37)
(4.3705559e-07 -2.7414513e-06 3.8395569e-24 1.7195969e-05 -2.3699408e-23 6.3483168e-38)
(1.3565986e-06 -8.4005252e-06 -4.860346e-24 5.2019815e-05 2.9491114e-23 4.1632176e-38)
(2.9924816e-06 -1.8268426e-05 -2.4959094e-23 0.00011152881 1.4875155e-22 5.6779333e-37)
(5.5884649e-06 -3.3586928e-05 1.809013e-23 0.00020187292 -1.0580346e-22 1.7051093e-37)
(9.4600949e-06 -5.588258e-05 -3.3508036e-23 0.00033014673 1.9211631e-22 3.5341119e-37)
(1.5014815e-05 -8.7016685e-05 1.8306471e-23 0.00050438418 -1.0273111e-22 6.6204868e-38)
(2.2777e-05 -0.00012923701 5.4290934e-24 0.00073348152 -2.9762021e-23 3.7585449e-39)
(3.3420115e-05 -0.00018523103 -3.7861091e-23 0.0010270169 2.0229783e-22 1.2053066e-37)
(4.7807029e-05 -0.00025817458 -9.978328e-23 0.001394929 5.183768e-22 5.6050485e-37)
(6.7040526e-05 -0.00035176952 -6.1038784e-24 0.0018470132 3.0750538e-23 1.4143299e-39)
(9.2525999e-05 -0.00047026021 2.417919e-22 0.0023921915 -1.1777005e-21 1.5201725e-36)
(0.00012604878 -0.00061841591 -4.0439765e-22 0.0030375244 1.8986721e-21 2.916164e-36)
(0.00016986851 -0.00080146179 7.8811207e-22 0.0037869496 -3.5551284e-21 7.6248153e-36)
(0.00022683297 -0.001024939 -2.4836613e-22 0.0046397766 1.0726966e-21 5.2249777e-37)
(0.0003005136 -0.0012944734 6.360572e-22 0.0055890328 -2.6205834e-21 2.367638e-36)
(0.00039536406 -0.001615435 -9.2619013e-22 0.0066198529 3.6258762e-21 3.4759954e-36)
(0.00051690269 -0.0019924857 7.2408928e-22 0.0077082235 -2.6823739e-21 1.4731059e-36)
(0.00067191837 -0.0024290301 -1.3749951e-22 0.0088205223 4.7988834e-22 3.6966662e-38)
(0.00086869859 -0.0029266316 -6.6967785e-22 0.0099143756 2.1920476e-21 6.1137859e-37)
(0.0011172786 -0.0034845018 1.9497599e-21 0.010941332 -5.9574979e-21 3.6319594e-36)
(0.0014297122 -0.0040992383 -3.2848798e-21 0.011851628 9.3241879e-21 7.2755633e-36)