/*--------------------------------*- C++ -*----------------------------------*\
  =========                 |
  \\      /  F ield         | OpenFOAM: The Open Source CFD Toolbox
   \\    /   O peration     | Website:  https://openfoam.org
    \\  /    A nd           | Version:  13
     \\/     M anipulation  |
\*---------------------------------------------------------------------------*/
FoamFile
{
    format      ascii;
    class       volVectorField;
    location    "11.198716";
    object      U;
}
// * * * * * * * * * * * * * * * * * * * * * * * * * * * * * * * * * * * * * //

dimensions      [0 1 -1 0 0 0 0];

internalField   nonuniform List<vector> 
17140
(
(-4.0272622e-06 0.000185739 9.8807961e-24)
(-4.748921e-05 0.00057210628 1.1117488e-24)
(-0.00014044473 0.00099421547 -7.2459018e-23)
(-0.00030211505 0.0014530384 7.9647543e-23)
(-0.00054983466 0.0019494247 -9.3123033e-24)
(-0.00090718997 0.0024837407 3.0632591e-23)
(-0.0014031188 0.0030557506 5.1728049e-23)
(-0.0020724083 0.0036644547 -2.4929006e-23)
(-0.0029567295 0.0043078988 -8.2387265e-23)
(-0.0041055997 0.0049829635 -2.0282752e-22)
(-0.0055773162 0.0056851378 2.9990275e-22)
(-0.0074397803 0.0064082923 -2.6743481e-22)
(-0.0097711436 0.0071444679 -4.1703724e-23)
(-0.012660129 0.0078837111 2.2946909e-22)
(-0.016205877 0.0086140019 -2.5645388e-23)
(-0.020517134 0.0093213207 2.0029643e-22)
(-0.025710612 0.0099899369 -6.6671633e-24)
(-0.031908384 0.010602983 2.4368832e-24)
(-0.039234266 0.011143401 1.1582657e-22)
(-0.047809341 0.01159529 -1.44669e-22)
(-0.05774706 0.011945653 7.0472635e-23)
(-0.069148584 0.012186391 -1.1040718e-23)
(-0.082099161 0.012316231 -9.0278615e-23)
(-0.096669478 0.012342054 9.1073818e-23)
(-0.11293116 0.012278878 1.4150377e-22)
(-0.1309356 0.012148562 -1.0398445e-22)
(-0.15068302 0.011975088 -5.2685659e-22)
(-0.17231334 0.011773034 -7.2200303e-23)
(-0.1959455 0.011558945 5.38835e-22)
(-0.2215993 0.011345889 1.4099212e-22)
(-0.24942361 0.011139487 4.9343537e-22)
(-0.27953582 0.010942313 -6.3224169e-22)
(-0.31205776 0.010754823 1.8644447e-22)
(-0.34711235 0.010576619 8.3295239e-23)
(-0.38481441 0.010406804 9.8403454e-22)
(-0.42526414 0.010243847 -4.2677362e-22)
(-0.46853792 0.010085159 7.6410351e-22)
(-0.51467596 0.0099265575 5.8134003e-22)
(-0.56366623 0.0097616135 3.0708563e-22)
(-0.61542427 0.0095811179 -9.694282e-22)
(-0.6697686 0.0093731291 -2.0713082e-21)
(-0.72639309 0.0091227406 -2.0755053e-21)
(-0.78483938 0.0088112529 -9.8049099e-22)
(-0.84445268 0.0084170879 5.5786074e-21)
(-0.90430146 0.007920816 4.5316129e-21)
(-0.96326651 0.0073167386 -1.2086675e-21)
(-1.0204502 0.0065865141 8.9730584e-21)
(-1.0744293 0.0056665965 3.3210719e-21)
(-1.1234403 0.0045127753 -3.6294182e-21)
(-1.1655967 0.0030658115 -9.423915e-21)
(-1.1988266 0.0012876946 6.046182e-21)
(-1.2204424 -0.00048048423 3.9216047e-21)
(-1.2278558 -0.0024477135 -1.0195973e-20)
(-1.2156313 -0.0063022287 -4.7165409e-21)
(-1.1817554 -0.010259383 -3.1401531e-21)
(-1.1205323 -0.013501327 2.3422067e-21)
(-1.0264556 -0.017639356 -4.8957543e-21)
(-0.89372622 -0.021473057 -3.078362e-21)
(-0.71570494 -0.024508592 -3.9863808e-22)
(-0.50000199 -0.025555785 4.9067071e-22)
(-0.26461788 -0.024583666 -1.7606201e-22)
(-0.030362837 -0.021257225 -1.8796414e-21)
(0.18139412 -0.016299326 -3.2824441e-22)
(0.3540371 -0.010898214 2.5263655e-21)
(0.49686061 -0.0064744277 -1.7192385e-21)
(-3.7543513e-05 0.00087796981 -3.021256e-24)
(-0.00014983229 0.0027019837 3.8960145e-22)
(-0.00031715414 0.0046942733 -3.4736941e-22)
(-0.00055856922 0.0068630902 9.4396179e-23)
(-0.00089143815 0.0092158794 1.9596028e-22)
(-0.0013391505 0.01175832 -3.7549115e-22)
(-0.0019302824 0.014493731 3.9098024e-22)
(-0.0026990612 0.017422292 -3.4452184e-23)
(-0.0036863602 0.020540106 1.0780451e-22)
(-0.0049406182 0.023838123 2.2110556e-24)
(-0.0065187352 0.027300955 3.6040773e-22)
(-0.0084868623 0.030905608 -5.6965507e-22)
(-0.010921026 0.03462023 -4.712654e-23)
(-0.013907446 0.038402976 4.6263098e-22)
(-0.017542399 0.042201206 -1.3975784e-22)
(-0.021931471 0.045951256 -8.8244675e-23)
(-0.027188018 0.04957913 5.6117245e-22)
(-0.033430713 0.053002507 -1.7931623e-21)
(-0.040780143 0.056134481 1.1007059e-21)
(-0.04935458 0.058889369 -1.3010141e-21)
(-0.059265358 0.061190682 1.8680569e-21)
(-0.070612487 0.062980864 -4.4333083e-22)
(-0.08348122 0.064231677 -1.7321306e-22)
(-0.097943041 0.064952985 5.7887502e-22)
(-0.1140705 0.065196824 -1.979835e-21)
(-0.1319225 0.065054508 -3.245192e-22)
(-0.15149598 0.064634604 1.4356175e-21)
(-0.17293036 0.064005101 -1.6453901e-21)
(-0.19635296 0.063243848 1.6662523e-22)
(-0.22177746 0.062416312 2.2341472e-21)
(-0.24935287 0.061558436 -1.941876e-22)
(-0.27919426 0.060690376 -1.9465055e-21)
(-0.31142055 0.059820395 -1.177714e-22)
(-0.34615066 0.05894896 1.6344565e-21)
(-0.38349421 0.058070853 -1.9260242e-21)
(-0.42354464 0.057175571 9.8705947e-22)
(-0.46636943 0.056246269 -1.1308931e-21)
(-0.51199738 0.055258289 -4.2948996e-21)
(-0.56040207 0.054178097 -1.1573595e-21)
(-0.61148091 0.052962753 -4.8879975e-21)
(-0.66502984 0.051559945 6.6958876e-21)
(-0.7207162 0.04990769 7.1536344e-21)
(-0.7780512 0.047930609 1.5376442e-21)
(-0.83634019 0.045539114 -1.1592638e-20)
(-0.89459969 0.042669795 6.5276087e-21)
(-0.951707 0.039360593 2.5570248e-21)
(-1.00666 0.035638736 -1.3048221e-21)
(-1.0579706 0.031278348 -4.7324214e-21)
(-1.1038038 0.026217663 2.4767284e-21)
(-1.1421836 0.020367813 -4.8390527e-21)
(-1.170888 0.013550519 -3.0103219e-20)
(-1.1871138 0.0057603432 -1.4266112e-21)
(-1.1873805 -0.0033779314 6.6215783e-21)
(-1.1684347 -0.014362745 -1.4532168e-20)
(-1.1273375 -0.026546012 1.1708317e-20)
(-1.058127 -0.039954126 -2.9966528e-20)
(-0.95596954 -0.055311327 -7.3342434e-21)
(-0.81516842 -0.071805702 1.4560121e-20)
(-0.62883075 -0.087046348 -1.7940037e-21)
(-0.40566844 -0.095456153 -5.5343118e-22)
(-0.16445443 -0.095696984 1.0518163e-22)
(0.072130535 -0.086913879 -2.2187168e-21)
(0.2828904 -0.071405146 5.4595118e-21)
(0.45444171 -0.054748642 1.4390089e-21)
(0.59521307 -0.039971138 2.2723223e-21)
(-0.00010894966 0.0015559773 -1.6972826e-22)
(-0.00036773434 0.0047886804 1.2544047e-22)
(-0.00069318191 0.0083202348 3.3485259e-23)
(-0.0011039858 0.012166371 -3.1600358e-23)
(-0.0016175415 0.016341332 1.5411851e-22)
(-0.0022567821 0.020856424 1.1907668e-23)
(-0.0030494646 0.025718963 1.4725135e-22)
(-0.0040285641 0.030930895 1.5917735e-22)
(-0.0052331804 0.036487132 -1.2905927e-21)
(-0.0067093636 0.042373642 1.151593e-21)
(-0.0085109261 0.048565306 -5.4992086e-22)
(-0.010700159 0.055023622 -8.0720989e-22)
(-0.013348406 0.061694381 1.5913581e-21)
(-0.01653637 0.068505529 1.9876383e-22)
(-0.020354024 0.075365542 -7.512284e-22)
(-0.024899983 0.082162778 -5.1387412e-22)
(-0.03028019 0.088766386 5.8815551e-22)
(-0.036605793 0.095029516 -2.104688e-21)
(-0.04399019 0.10079558 1.2120641e-21)
(-0.052545346 0.10590826 -5.9676067e-22)
(-0.062377741 0.11022546 1.9412856e-21)
(-0.073584585 0.11363675 4.9351541e-22)
(-0.086250782 0.11608237 -9.8995064e-22)
(-0.1004491 0.11757006 1.4681768e-21)
(-0.11625323 0.11818401 6.0351033e-22)
(-0.13373772 0.11808075 -6.0613872e-22)
(-0.1528897 0.11745414 -3.634012e-21)
(-0.17385156 0.11643255 -1.7405244e-21)
(-0.19677273 0.1151507 7.0491242e-22)
(-0.22164877 0.11372811 -1.0133589e-21)
(-0.24862796 0.1122344 4.1458152e-22)
(-0.27781966 0.11070891 3.3208711e-21)
(-0.30933617 0.10916809 -1.161991e-21)
(-0.34328718 0.10761302 -3.8935127e-21)
(-0.37977062 0.10603358 1.1300005e-21)
(-0.41886467 0.10440934 2.0439659e-21)
(-0.46061698 0.10270802 -4.0136823e-21)
(-0.50503087 0.10088391 -1.5133947e-21)
(-0.55204737 0.098876207 2.6566514e-21)
(-0.60152376 0.09660681 1.1373512e-21)
(-0.65320767 0.093981685 -6.650948e-21)
(-0.70670782 0.090892406 1.7550209e-21)
(-0.76146718 0.087205152 3.1949534e-21)
(-0.81670248 0.082762232 1.0151801e-20)
(-0.87132529 0.07746542 -2.0940045e-20)
(-0.92425761 0.071388079 1.5241736e-20)
(-0.9742728 0.064575367 4.6109607e-21)
(-1.0197787 0.056656331 1.8407853e-20)
(-1.0588717 0.047537925 2.3856808e-20)
(-1.0895401 0.037109208 1.3789866e-21)
(-1.1095623 0.025179967 -6.1313329e-21)
(-1.1163226 0.011640243 4.3242664e-20)
(-1.1067433 -0.0039856527 1.8593889e-20)
(-1.0778394 -0.022427796 1.8781178e-20)
(-1.0258722 -0.043135422 5.9531706e-21)
(-0.94641472 -0.066116673 4.0679315e-20)
(-0.83488034 -0.092479477 -1.416944e-20)
(-0.68548312 -0.12148054 2.827153e-21)
(-0.49059533 -0.14878875 1.5308398e-20)
(-0.26097826 -0.16410398 2.5219318e-21)
(-0.016739828 -0.16445818 1.0887942e-21)
(0.21603061 -0.14910301 1.1278635e-20)
(0.41997123 -0.12272978 -4.6595349e-21)
(0.58344651 -0.094678392 -6.8287335e-21)
(0.71317297 -0.068896843 -2.613545e-21)
(-0.00021611573 0.0021973306 6.2362446e-22)
(-0.00069476357 0.006763727 -9.9206448e-22)
(-0.0012575113 0.011754026 3.5895284e-22)
(-0.001922518 0.017191565 -3.8920543e-23)
(-0.0027072447 0.023097633 7.7388786e-22)
(-0.0036339545 0.029489635 -7.9945215e-22)
(-0.0047291896 0.036379605 1.2162339e-21)
(-0.0060240607 0.043772276 -5.6904043e-22)
(-0.0075550191 0.051662754 -2.1735505e-21)
(-0.0093645384 0.060033808 5.1928664e-22)
(-0.011501797 0.068852825 1.9871108e-21)
(-0.014023279 0.0780685 -6.0282993e-22)
(-0.016993264 0.087607435 -3.7830969e-23)
(-0.020484105 0.097370928 1.5745611e-21)
(-0.024576197 0.1072324 -4.8831832e-21)
(-0.029357517 0.1170361 2.967076e-21)
(-0.034922621 0.12659789 2.8522686e-23)
(-0.041371011 0.13570923 -1.6013025e-21)
(-0.048804837 0.14414539 4.0000623e-21)
(-0.05732602 0.15167908 -1.8417667e-21)
(-0.067033096 0.15809987 -2.6891119e-21)
(-0.078018321 0.16323896 -1.0896402e-21)
(-0.090365322 0.16699688 5.1143474e-21)
(-0.10414837 0.16936898 2.6531935e-21)
(-0.11944238 0.17046035 -1.5586775e-21)
(-0.13634318 0.17048068 9.8610574e-22)
(-0.15482822 0.16971373 -3.3886656e-21)
(-0.17504493 0.16839475 1.0071077e-21)
(-0.19716982 0.16666143 -2.6828794e-21)
(-0.22117581 0.16468964 1.4801597e-21)
(-0.2472083 0.16259812 -1.0551553e-21)
(-0.2753694 0.16044827 3.7261576e-21)
(-0.30576055 0.15826653 -5.0084538e-22)
(-0.33847759 0.15605446 3.2816408e-21)
(-0.37360077 0.15379598 -3.2647557e-21)
(-0.41118539 0.15145926 -1.4106528e-21)
(-0.45124914 0.14899556 1.553471e-20)
(-0.4937569 0.14633609 4.7337011e-21)
(-0.53860243 0.14338959 -4.1127628e-21)
(-0.58558503 0.1400438 4.4986473e-21)
(-0.63438351 0.13616432 -1.4388383e-21)
(-0.68452564 0.13159329 -9.096044e-21)
(-0.73535773 0.1261381 4.1632283e-22)
(-0.78596956 0.11958361 4.1751926e-21)
(-0.83516593 0.11182729 -1.7090745e-21)
(-0.88199247 0.10295917 1.8574831e-21)
(-0.92496339 0.093004462 4.1892007e-21)
(-0.96242643 0.081523632 -6.2784414e-20)
(-0.99256708 0.068416693 7.4798909e-21)
(-1.0135107 0.053556956 -7.4791192e-21)
(-1.0232092 0.036692656 7.4149189e-20)
(-1.0193121 0.017580016 -4.172326e-20)
(-0.99905362 -0.0042960648 -3.5047686e-20)
(-0.95953962 -0.02961276 -3.2804658e-20)
(-0.89719494 -0.058210506 -2.9984634e-20)
(-0.80828759 -0.090220359 -4.2081646e-20)
(-0.68843532 -0.12696529 7.1984026e-20)
(-0.53212731 -0.16825676 -3.4041156e-20)
(-0.3303729 -0.20730979 -3.0921856e-20)
(-0.098081673 -0.22874064 9.9236175e-21)
(0.14185046 -0.22800553 -7.9443683e-22)
(0.36270543 -0.20522229 -3.3529014e-21)
(0.54981498 -0.16811765 1.4824845e-20)
(0.69405693 -0.12876782 1.0666004e-20)
(0.80178415 -0.092674246 -1.634052e-22)
(-0.00035437438 0.0027794061 -4.9087849e-22)
(-0.001116773 0.0085579314 1.6296755e-21)
(-0.0019858467 0.014876104 -1.3289841e-21)
(-0.00297912 0.021764967 5.0245454e-22)
(-0.0041141828 0.029253108 1.8191033e-22)
(-0.0054124918 0.03736461 -1.5644279e-21)
(-0.0068990867 0.046117173 3.942725e-22)
(-0.0086027474 0.055519725 8.4028176e-22)
(-0.010556588 0.065569498 6.3794461e-23)
(-0.01279855 0.076248633 5.4653674e-22)
(-0.015371911 0.087520291 -7.6590255e-22)
(-0.018325725 0.099324382 5.2986315e-22)
(-0.021715185 0.11157309 1.9543366e-21)
(-0.025601848 0.12414653 5.9460672e-23)
(-0.03005364 0.13688908 -1.470271e-21)
(-0.03514458 0.14960706 -1.0354508e-21)
(-0.040954147 0.16206906 8.8648782e-22)
(-0.047566224 0.1740099 -7.5731918e-23)
(-0.055067629 0.18514013 -1.6615708e-21)
(-0.063546287 0.19516223 -2.0066216e-21)
(-0.073089247 0.20379468 2.2346519e-21)
(-0.083780969 0.21080347 2.1831394e-21)
(-0.095702081 0.21603841 -2.8355577e-21)
(-0.10892899 0.2194681 3.4261474e-21)
(-0.12354081 0.22120304 5.8678913e-21)
(-0.13963921 0.22149429 -1.3135654e-20)
(-0.15724704 0.22070955 7.0000879e-21)
(-0.17647651 0.21920584 -1.045865e-20)
(-0.19749303 0.21711838 1.2930701e-20)
(-0.22031909 0.21467437 -1.4665805e-20)
(-0.24505685 0.21205179 1.5445789e-20)
(-0.27181226 0.20933603 -2.4853193e-21)
(-0.30067144 0.2065662 -9.7771091e-21)
(-0.33171212 0.20374481 5.7830613e-21)
(-0.36499161 0.20084891 -1.8705602e-21)
(-0.40053506 0.19783372 -4.5572934e-22)
(-0.43832073 0.1946301 -8.3162842e-21)
(-0.47826569 0.1911446 -3.2577141e-21)
(-0.52020911 0.18725858 -3.8670018e-21)
(-0.56388359 0.18282288 -3.699377e-21)
(-0.60888276 0.17766134 2.0619825e-20)
(-0.65464262 0.17156695 -9.9857892e-21)
(-0.70040424 0.16428777 -2.3474896e-21)
(-0.74512042 0.15556037 2.3036239e-20)
(-0.78756974 0.14531514 1.3410647e-20)
(-0.82684248 0.13372757 -6.9387563e-21)
(-0.86138333 0.1206451 -2.861752e-20)
(-0.88950234 0.10568936 1.31635e-20)
(-0.90961358 0.088779565 -4.1788211e-20)
(-0.92004219 0.069775032 -2.4472506e-20)
(-0.91898183 0.048371852 -3.5645125e-20)
(-0.90433854 0.024192185 -9.9668438e-20)
(-0.87356742 -0.0034248356 7.784081e-20)
(-0.82377499 -0.035265377 -2.6091678e-20)
(-0.75140783 -0.071296828 4.1496055e-20)
(-0.65330434 -0.1116547 3.6229251e-20)
(-0.52561541 -0.15814349 1.261223e-20)
(-0.36325462 -0.21148658 8.2335756e-20)
(-0.15579249 -0.26171446 1.3133786e-20)
(0.075167149 -0.28771277 -1.2279895e-20)
(0.30305268 -0.28451607 1.8289477e-23)
(0.50393245 -0.25360972 -3.6117221e-21)
(0.66465771 -0.20586646 -8.7628821e-21)
(0.78055608 -0.15596813 -1.1101419e-20)
(0.85995981 -0.11112513 7.8383772e-22)
(-0.00051646058 0.0032801403 -1.6860532e-21)
(-0.0016117232 0.010103745 -5.9619463e-22)
(-0.0028403239 0.017569636 4.802872e-22)
(-0.0042191463 0.025716561 1.7793851e-21)
(-0.0057660162 0.034580623 -9.7609044e-22)
(-0.0075015585 0.044193202 1.4040215e-21)
(-0.009449182 0.054578762 -6.072856e-22)
(-0.011635083 0.0657521 -1.4481582e-22)
(-0.014088628 0.077714969 8.1775082e-22)
(-0.016842623 0.090452094 1.7607435e-21)
(-0.019933606 0.10392657 9.1767715e-23)
(-0.023402075 0.1180747 -2.8799599e-21)
(-0.027292693 0.13280052 3.9767132e-21)
(-0.031654391 0.14797024 -6.3802597e-21)
(-0.036540388 0.16340729 1.6560219e-21)
(-0.042008058 0.17888879 -3.5039446e-21)
(-0.048118666 0.19414458 4.1779694e-21)
(-0.054936928 0.20886064 -2.681158e-21)
(-0.062530455 0.22268858 4.1047007e-22)
(-0.070969133 0.23526336 1.6457182e-21)
(-0.080324585 0.24623065 -3.9342829e-21)
(-0.090669961 0.25528407 5.4050116e-21)
(-0.10208019 0.26220988 -5.7272928e-21)
(-0.11463261 0.26693244 -1.0361712e-21)
(-0.12841102 0.26954853 9.1918815e-21)
(-0.14352071 0.27033473 -9.0984318e-21)
(-0.16003891 0.26972192 5.67961e-21)
(-0.17802697 0.26816122 -6.4418069e-21)
(-0.19764716 0.26584241 -8.7912015e-22)
(-0.2189975 0.26303702 -6.1015884e-22)
(-0.24211558 0.25997974 2.4828062e-21)
(-0.26711312 0.25678468 -3.6841544e-22)
(-0.29405822 0.25350556 1.0606529e-20)
(-0.32300767 0.2501467 -2.7783792e-21)
(-0.35399144 0.24667705 -9.8850636e-21)
(-0.38699692 0.24303441 4.7990762e-21)
(-0.42195905 0.23913023 -4.1199697e-21)
(-0.4587493 0.23485014 4.9146383e-21)
(-0.49714351 0.23004366 2.9309801e-20)
(-0.53679597 0.22452245 -1.7765129e-20)
(-0.57721543 0.21806887 -5.0497977e-21)
(-0.61774793 0.21043074 3.1465248e-20)
(-0.65753703 0.2013 -1.0791695e-21)
(-0.69542094 0.19038361 -3.9258502e-21)
(-0.73031169 0.17769671 -5.5964399e-20)
(-0.76115546 0.16348747 -1.4233878e-20)
(-0.78651871 0.14739655 2.4692506e-20)
(-0.80479191 0.12917774 2.7074047e-20)
(-0.81464714 0.10877182 4.1739624e-20)
(-0.81462129 0.086003066 5.57967e-20)
(-0.8031261 0.060489182 3.6248072e-20)
(-0.77824409 0.03169524 5.6666034e-20)
(-0.73750693 -0.0011996989 -1.9400795e-20)
(-0.67784089 -0.039100154 1.2233337e-19)
(-0.59550858 -0.082019426 8.7669498e-21)
(-0.48776487 -0.12998747 5.9007839e-21)
(-0.35147347 -0.18515326 4.0906211e-21)
(-0.1825449 -0.24989239 -9.2501496e-20)
(0.028855844 -0.31032491 -2.3727245e-20)
(0.25261865 -0.33885702 1.9094345e-20)
(0.46198891 -0.33160046 3.318822e-21)
(0.63432226 -0.29211513 -4.5474712e-21)
(0.76098443 -0.23439214 -2.7984468e-21)
(0.84343649 -0.17543874 1.3068786e-20)
(0.89375165 -0.12418084 -3.0242064e-21)
(-0.00069267193 0.0036801207 3.5915149e-22)
(-0.0021506257 0.01134142 1.141464e-21)
(-0.0037708382 0.019731017 -2.7551579e-21)
(-0.0055702394 0.028895099 1.0130091e-22)
(-0.0075668133 0.03887741 1.3404529e-21)
(-0.0097804767 0.049717176 5.9143839e-22)
(-0.012233065 0.061446723 4.3674989e-22)
(-0.014948196 0.074088503 -8.5950856e-22)
(-0.017951415 0.087651408 4.4472649e-21)
(-0.02127022 0.10212637 -3.3467908e-21)
(-0.024934097 0.11748118 1.637687e-22)
(-0.028974515 0.13365464 2.0189593e-21)
(-0.03342489 0.15055006 -7.5218998e-21)
(-0.03832054 0.1680286 7.4623194e-21)
(-0.043698618 0.18590286 -9.8014655e-22)
(-0.049598072 0.20393172 -6.0656645e-21)
(-0.056059659 0.2218177 5.6403109e-21)
(-0.063126074 0.23920869 -1.9284069e-21)
(-0.070842287 0.25570634 3.717014e-21)
(-0.079256181 0.27088358 -4.683321e-21)
(-0.088419602 0.28431361 -8.6068223e-21)
(-0.098389915 0.29561127 8.2855947e-21)
(-0.10923211 0.30448499 1.1890702e-20)
(-0.12102091 0.31079294 -2.220316e-20)
(-0.13384256 0.31459037 1.7252675e-20)
(-0.14780188 0.31614894 -9.7557566e-21)
(-0.16302826 0.31592745 2.3646016e-21)
(-0.17954063 0.31446987 -5.6628787e-21)
(-0.19751127 0.31213804 5.4744051e-21)
(-0.21711294 0.30914376 7.7945233e-21)
(-0.23831775 0.3057792 -5.0090488e-21)
(-0.26123683 0.30221687 -9.1857366e-21)
(-0.28592089 0.29853115 6.4973429e-22)
(-0.3124034 0.29472976 2.3412742e-22)
(-0.34068077 0.29077 6.628696e-21)
(-0.37070328 0.28657406 -3.1961962e-21)
(-0.4023687 0.28203865 -1.250826e-20)
(-0.43549357 0.27702155 -7.2332616e-21)
(-0.46978566 0.27133468 1.1583836e-20)
(-0.50482618 0.26475502 -9.3919641e-21)
(-0.54004523 0.25702799 9.532118e-21)
(-0.57471171 0.24785937 -2.5236005e-21)
(-0.60789168 0.23690289 -1.4272183e-20)
(-0.63835405 0.22387926 3.8105099e-20)
(-0.66522818 0.20885839 2.4439138e-20)
(-0.68732182 0.19212564 1.772737e-20)
(-0.70333647 0.17324782 -6.3446032e-20)
(-0.71184904 0.15205648 -4.4222225e-20)
(-0.71176047 0.12852231 -5.5847166e-20)
(-0.70178757 0.10241701 -1.0406738e-19)
(-0.68049003 0.073255969 3.9014213e-20)
(-0.64601744 0.040315048 -7.985242e-21)
(-0.59586751 0.002534287 -6.680822e-20)
(-0.52664555 -0.041184687 -1.9471472e-19)
(-0.43446405 -0.090741748 -1.2269946e-19)
(-0.31669406 -0.14578525 -4.3761178e-20)
(-0.17072512 -0.2086197 -1.0929666e-19)
(0.006659239 -0.28307927 6.1191636e-20)
(0.21832043 -0.35168569 -6.1181912e-21)
(0.42927445 -0.38054207 -3.3273066e-20)
(0.6126166 -0.36789774 -4.2365768e-21)
(0.74899353 -0.31971641 1.0673877e-21)
(0.83700502 -0.25345645 -1.3611863e-20)
(0.88553253 -0.18784379 -1.5673256e-23)
(0.91084094 -0.13280194 -1.4660386e-21)
(-0.00087149598 0.0039630828 1.5900702e-21)
(-0.0026981689 0.012220738 -1.072298e-21)
(-0.0047166644 0.021272802 1.4482963e-21)
(-0.0069444339 0.03117242 8.2330965e-22)
(-0.0093996847 0.041970905 -2.2959193e-21)
(-0.012101844 0.053715687 -2.1429223e-21)
(-0.015071405 0.066447904 2.1964772e-21)
(-0.018329672 0.080199358 -2.6539596e-22)
(-0.021898643 0.0949887 -6.1154917e-23)
(-0.025800795 0.1108168 -4.3358772e-21)
(-0.030058844 0.12766121 4.7058935e-22)
(-0.034695459 0.14546976 8.6937798e-21)
(-0.039732956 0.16415331 -6.9264317e-21)
(-0.045193016 0.18357795 2.3583539e-22)
(-0.051096455 0.20355714 4.5901502e-21)
(-0.05746314 0.22384468 3.8862535e-22)
(-0.064312148 0.24412981 -9.8192382e-22)
(-0.071662299 0.26403635 -4.3649981e-21)
(-0.079533244 0.28312859 7.893412e-21)
(-0.087947253 0.30092681 -1.364999e-20)
(-0.096931849 0.31693557 2.8615488e-21)
(-0.10652329 0.33068695 -2.0808475e-21)
(-0.11677074 0.34179787 1.6037736e-21)
(-0.12774044 0.35003613 -1.1848237e-22)
(-0.13951835 0.35538204 9.2467231e-21)
(-0.15221197 0.35806402 8.9243673e-21)
(-0.16595668 0.35854179 -1.7221113e-20)
(-0.18084957 0.3574303 -2.8818145e-21)
(-0.19699129 0.35529544 9.5327097e-21)
(-0.21455131 0.35234723 3.3319981e-21)
(-0.23359646 0.34885177 8.3505048e-21)
(-0.25415145 0.34506928 -9.1878419e-21)
(-0.27627014 0.3411079 -4.294082e-21)
(-0.29995418 0.3369822 1.0081857e-20)
(-0.32516993 0.33264175 -4.3369571e-21)
(-0.35183716 0.32799927 -3.1751762e-21)
(-0.37981033 0.32292937 6.5905254e-21)
(-0.40884823 0.31725636 2.0257098e-20)
(-0.43859858 0.31076034 7.2734088e-21)
(-0.4685787 0.3031851 -4.7098953e-21)
(-0.49815532 0.29424327 -1.2628321e-20)
(-0.52653884 0.28360485 -1.4956596e-20)
(-0.55273121 0.27089776 -1.8275113e-20)
(-0.57551694 0.25588112 -4.1666143e-20)
(-0.59420094 0.23873289 2.0130411e-21)
(-0.60758853 0.2196697 -1.9949778e-20)
(-0.61443904 0.19827416 1.3015654e-19)
(-0.6135712 0.1744528 3.9194557e-20)
(-0.60403996 0.14818815 4.7068576e-20)
(-0.58466597 0.11917964 1.4019573e-19)
(-0.55404178 0.086822594 -1.7401162e-19)
(-0.51027142 0.050186838 4.0328066e-20)
(-0.45075614 0.0079408388 1.3246924e-19)
(-0.37172632 -0.041187855 1.6084701e-19)
(-0.26943682 -0.097064851 1.8505861e-20)
(-0.14135584 -0.15887384 -4.6953021e-20)
(0.014020886 -0.22887316 -6.5390015e-20)
(0.20013527 -0.31075287 2.4451761e-20)
(0.40758601 -0.384533 -2.8993838e-20)
(0.59965149 -0.41134868 8.8007883e-21)
(0.74934363 -0.39219397 1.5977126e-21)
(0.84453456 -0.33606637 -3.7476508e-22)
(0.89323106 -0.26357299 1.5128472e-20)
(0.91167177 -0.19427752 -1.4753851e-21)
(0.91890397 -0.13806199 6.9674709e-21)
(-0.0010400516 0.0041172101 -1.6574507e-21)
(-0.00321473 0.012705034 -4.4391428e-22)
(-0.0056096075 0.022130685 4.8730075e-22)
(-0.0082428005 0.032453572 2.3945861e-21)
(-0.011132953 0.043732173 -2.8702325e-21)
(-0.014299293 0.056022163 2.4348304e-21)
(-0.017761361 0.069374118 1.1632277e-21)
(-0.021538638 0.083830557 -6.2158864e-23)
(-0.025650194 0.099422197 -9.7779873e-22)
(-0.03011423 0.11616332 -5.5487494e-21)
(-0.034947564 0.13404614 9.2858493e-21)
(-0.040165042 0.15303407 -1.1111209e-20)
(-0.045778936 0.17305396 3.2437268e-21)
(-0.051798346 0.19398738 4.3769643e-21)
(-0.058228709 0.21566139 -6.6539834e-21)
(-0.065071519 0.23783947 1.2982862e-20)
(-0.072324424 0.26021401 -1.5549333e-20)
(-0.079981926 0.28240207 -2.4780177e-22)
(-0.088036925 0.30394735 -8.6285084e-21)
(-0.096483403 0.32433174 3.3510436e-20)
(-0.10532045 0.34300038 -7.9182781e-21)
(-0.11455766 0.35940364 -3.2043842e-20)
(-0.12422167 0.37305706 1.4672234e-20)
(-0.13436283 0.38361554 1.706526e-20)
(-0.14506049 0.39094989 -4.1105375e-21)
(-0.15642399 0.39520394 -2.1323856e-20)
(-0.16859055 0.39680223 3.1157977e-20)
(-0.18171398 0.39638278 -3.3861061e-20)
(-0.19587564 0.39463158 2.6200828e-20)
(-0.21120469 0.39197944 -4.9536087e-21)
(-0.22784407 0.38862029 8.9108784e-21)
(-0.24580436 0.38480585 1.3135191e-20)
(-0.26510359 0.38072315 -4.6574114e-21)
(-0.28572183 0.37641821 -9.2928169e-22)
(-0.30759468 0.37184106 -2.0794962e-20)
(-0.33061087 0.36689015 3.6166073e-21)
(-0.35457911 0.36141215 -1.1759985e-20)
(-0.37920834 0.35520107 1.1764282e-20)
(-0.40409528 0.34800707 -5.9122268e-21)
(-0.4287051 0.33954428 -5.2281568e-21)
(-0.4523577 0.32949636 -5.2276485e-21)
(-0.47422247 0.3175006 -5.0471668e-21)
(-0.4932488 0.3031664 3.514853e-20)
(-0.50840344 0.28633679 3.198641e-20)
(-0.51894326 0.26732981 -8.5754899e-21)
(-0.52383314 0.24617602 7.408791e-21)
(-0.52184388 0.22257429 -2.8694071e-20)
(-0.51201436 0.19648605 6.5386182e-20)
(-0.49344607 0.16788363 8.2052009e-20)
(-0.46497253 0.13638324 2.5913522e-20)
(-0.42510964 0.10125912 6.862251e-20)
(-0.37188316 0.061385667 -2.3022251e-21)
(-0.30253136 0.015097433 -3.4404617e-20)
(-0.2129351 -0.039053988 -1.7221471e-19)
(-0.099646089 -0.1006785 8.2641386e-20)
(0.038221153 -0.16858523 -3.2396059e-20)
(0.20136458 -0.24534258 7.3828345e-20)
(0.39322775 -0.33242679 -9.8644153e-20)
(0.5919373 -0.40801367 3.6777549e-20)
(0.75808268 -0.43076486 -7.422643e-21)
(0.8675541 -0.40417441 1.0022804e-21)
(0.91946787 -0.34184774 1.4783987e-21)
(0.93230632 -0.26612852 1.784673e-21)
(0.9276306 -0.19630141 -9.5494242e-21)
(0.92423212 -0.14098642 9.098782e-21)
(-0.001184906 0.0041365895 4.055951e-21)
(-0.0036591908 0.012775509 2.7888513e-21)
(-0.0063786289 0.022271006 -4.376514e-21)
(-0.0093620997 0.032687713 1.1511277e-22)
(-0.012628882 0.04409048 3.9520534e-21)
(-0.016198333 0.056542819 2.0649449e-21)
(-0.020089523 0.070104848 -4.3472419e-21)
(-0.024320783 0.084830588 7.1319357e-22)
(-0.028909143 0.1007645 -1.0037856e-20)
(-0.033869662 0.11793707 1.951855e-21)
(-0.039214653 0.13635936 5.1305242e-23)
(-0.044952816 0.15601633 -7.1430329e-21)
(-0.051088301 0.17685876 2.2787034e-20)
(-0.057619766 0.19879403 -1.0564902e-20)
(-0.064539512 0.2216757 -1.8804377e-20)
(-0.07183286 0.24529261 1.9879689e-20)
(-0.07947795 0.2693585 -2.4425131e-21)
(-0.087446274 0.29350389 1.3604498e-20)
(-0.095704305 0.31727304 9.9521191e-21)
(-0.10421662 0.34012955 -3.0818369e-20)
(-0.1129509 0.36147545 2.2675402e-20)
(-0.12188501 0.38068829 -2.9250587e-20)
(-0.13101586 0.39717971 3.3276862e-21)
(-0.14036909 0.41047417 -1.340128e-20)
(-0.15000759 0.4202989 2.8239064e-20)
(-0.16003543 0.42666415 -6.5499283e-21)
(-0.17059283 0.42990128 -1.6190261e-20)
(-0.18184181 0.43062107 3.795514e-20)
(-0.19392843 0.42957248 -1.5944802e-20)
(-0.20693937 0.42740653 -1.7399457e-20)
(-0.22098508 0.42445444 1.4256747e-20)
(-0.23615806 0.42091173 2.1622762e-21)
(-0.25243818 0.41693624 -1.0104567e-20)
(-0.26977502 0.41262934 5.6752884e-21)
(-0.28809171 0.40798015 -9.3984761e-21)
(-0.30723955 0.40287807 3.4565329e-20)
(-0.32698252 0.39714284 -1.983068e-20)
(-0.34698487 0.39054205 -1.3114551e-20)
(-0.36679969 0.38279917 -2.9914633e-20)
(-0.38585186 0.3735998 -5.77332e-21)
(-0.40342992 0.36260021 3.5509756e-20)
(-0.4186848 0.34941456 -1.5373577e-20)
(-0.43054611 0.33368033 -2.4424567e-20)
(-0.43822636 0.3152885 -2.8199506e-21)
(-0.44083016 0.29464866 3.1582516e-20)
(-0.43747672 0.27169168 2.9991564e-20)
(-0.42697093 0.24620904 -9.9378028e-20)
(-0.40848678 0.21821052 -5.673159e-20)
(-0.38108618 0.18763866 -1.3225652e-19)
(-0.3435389 0.15402888 -4.9051673e-20)
(-0.29421692 0.11655308 -2.0157073e-20)
(-0.23107418 0.073870263 -1.5772113e-19)
(-0.15111567 0.024017636 -6.2985624e-20)
(-0.05031492 -0.034646775 2.1118147e-19)
(0.074238622 -0.1011451 -1.5950947e-19)
(0.21982176 -0.17431144 1.3146412e-19)
(0.38921395 -0.2569588 -5.5255319e-20)
(0.58244209 -0.34725402 2.0628873e-19)
(0.76536652 -0.42134394 7.0080081e-20)
(0.89828428 -0.43671766 -1.6281457e-20)
(0.96427686 -0.40425094 -1.0848751e-20)
(0.97445305 -0.33845537 -5.665212e-21)
(0.95848477 -0.26283646 -2.357332e-21)
(0.93893328 -0.19523685 1.3323113e-21)
(0.93080433 -0.14224215 -1.108964e-20)
(-0.0012931563 0.0040219309 7.9250997e-23)
(-0.0039919521 0.012433516 -5.6480122e-21)
(-0.006955154 0.021694764 6.6545492e-21)
(-0.010202419 0.031874121 3.1992483e-21)
(-0.013753791 0.043041576 -6.4040539e-21)
(-0.017629054 0.05526751 -2.0715806e-21)
(-0.021847314 0.068621015 1.0034056e-20)
(-0.026426503 0.083167594 -1.0779948e-20)
(-0.031382654 0.098966164 -2.2684533e-21)
(-0.036729074 0.11606514 -8.9991166e-21)
(-0.042475353 0.13449744 2.3826587e-20)
(-0.048626244 0.15427412 2.8331277e-22)
(-0.055180424 0.1753766 -2.1192912e-20)
(-0.06212918 0.19774717 2.2606484e-20)
(-0.069455122 0.22127791 -1.6053157e-20)
(-0.077131061 0.24579834 -5.8942442e-21)
(-0.085119302 0.27106236 1.2181036e-20)
(-0.093371666 0.29673619 -1.0832138e-20)
(-0.10183072 0.32238958 -1.4220959e-20)
(-0.11043274 0.34749406 3.031272e-22)
(-0.11911307 0.37143337 2.1598661e-20)
(-0.12781413 0.39353178 -1.3088449e-20)
(-0.13649627 0.41310567 7.1451393e-21)
(-0.14515066 0.4295418 3.3430497e-20)
(-0.15381171 0.44239588 1.1027338e-20)
(-0.16256544 0.45149491 -2.8810581e-20)
(-0.17154797 0.45701071 2.835699e-21)
(-0.18092861 0.45946049 -3.1055801e-20)
(-0.1908781 0.45959852 1.7797751e-20)
(-0.20152376 0.4582058 -9.5457157e-21)
(-0.21295848 0.45585204 1.3726993e-20)
(-0.22521765 0.45280429 3.5471618e-21)
(-0.23831455 0.44920411 -1.7637712e-20)
(-0.2522313 0.44515968 1.8648906e-20)
(-0.26684557 0.44067272 3.0278924e-20)
(-0.28197547 0.43562907 -1.2984779e-21)
(-0.29734811 0.42983444 -3.5853438e-20)
(-0.31259151 0.42303146 4.9282224e-20)
(-0.32722349 0.41492396 -1.0900653e-20)
(-0.34064278 0.40517796 2.6474855e-20)
(-0.35212311 0.39343027 -4.9963658e-21)
(-0.36079761 0.37928742 4.9178769e-20)
(-0.3656693 0.36237924 2.5322546e-20)
(-0.36599983 0.34272173 3.7248911e-20)
(-0.36093121 0.32069989 -1.643119e-19)
(-0.34956454 0.29624519 -6.077393e-20)
(-0.33079872 0.26920503 8.5039397e-20)
(-0.30383485 0.23963027 -7.4821435e-20)
(-0.26764526 0.20741828 -6.7995517e-20)
(-0.22087941 0.17202885 8.0912354e-20)
(-0.16175114 0.13255267 4.4703984e-20)
(-0.088167892 0.087512984 1.0980819e-19)
(0.002831775 0.034555812 5.4117567e-20)
(0.11539558 -0.027930215 -1.8015177e-19)
(0.24930886 -0.098254678 -9.5223337e-20)
(0.40094723 -0.17568331 -1.4816132e-20)
(0.57445526 -0.26326889 -7.122084e-22)
(0.76329267 -0.35420884 -4.9542418e-20)
(0.92326782 -0.42334238 5.0104114e-20)
(1.0156981 -0.43341607 3.5824097e-20)
(1.0377161 -0.3942683 4.1695853e-21)
(1.0122348 -0.32790895 1.7192519e-20)
(0.9766971 -0.25549826 7.3971506e-23)
(0.94963092 -0.19213536 -3.1177363e-22)
(0.94022286 -0.14227624 3.2346238e-22)
(-0.0013537434 0.0037815009 -2.8712175e-21)
(-0.0041789445 0.011703493 -2.5407935e-21)
(-0.0072799851 0.020442775 5.2794837e-21)
(-0.01067719 0.030069841 -9.0403817e-21)
(-0.014391373 0.040658101 -2.2583438e-21)
(-0.01844294 0.052283222 9.6726947e-21)
(-0.022851454 0.065021906 -4.9442202e-23)
(-0.02763515 0.078950118 5.7621521e-21)
(-0.032810114 0.094140738 -1.7170942e-21)
(-0.038389355 0.11066034 3.5490679e-23)
(-0.044381676 0.12856495 -9.2736834e-21)
(-0.050790372 0.14789441 -2.1175058e-21)
(-0.057611733 0.16866522 2.1495437e-21)