/*--------------------------------*- C++ -*----------------------------------*\
  =========                 |
  \\      /  F ield         | OpenFOAM: The Open Source CFD Toolbox
   \\    /   O peration     | Website:  https://openfoam.org
    \\  /    A nd           | Version:  13
     \\/     M anipulation  |
\*---------------------------------------------------------------------------*/
FoamFile
{
    format      ascii;
    class       volScalarField;
    location    "9.89623";
    object      pPrime2Mean;
}
// * * * * * * * * * * * * * * * * * * * * * * * * * * * * * * * * * * * * * //

dimensions      [0 4 -4 0 0 0 0];

internalField   nonuniform List<scalar> 
17140
(
31451.74
31451.741
31451.742
31451.742
31451.741
31451.739
31451.735
31451.729
31451.721
31451.709
31451.694
31451.674
31451.649
31451.616
31451.574
31451.521
31451.454
31451.37
31451.263
31451.13
31450.962
31450.752
31450.487
31450.155
31449.736
31449.208
31448.542
31447.7
31446.636
31445.296
31443.609
31441.49
31438.835
31435.516
31431.383
31426.253
31419.911
31412.104
31402.538
31390.871
31376.714
31359.622
31339.094
31314.563
31285.399
31250.9
31210.296
31162.747
31107.341
31043.09
30968.93
30883.714
30786.214
30675.106
30548.971
30406.296
30245.445
30064.659
29862.032
29635.476
29382.655
29101.004
28787.697
28439.711
28053.923
31452.527
31452.528
31452.529
31452.529
31452.528
31452.525
31452.521
31452.515
31452.506
31452.495
31452.48
31452.46
31452.434
31452.401
31452.359
31452.306
31452.238
31452.154
31452.047
31451.914
31451.746
31451.536
31451.271
31450.939
31450.521
31449.995
31449.33
31448.49
31447.429
31446.092
31444.409
31442.294
31439.642
31436.328
31432.199
31427.073
31420.735
31412.933
31403.371
31391.71
31377.56
31360.477
31339.959
31315.441
31286.292
31251.811
31211.228
31163.703
31108.324
31044.103
30969.977
30884.801
30787.346
30676.288
30550.213
30407.603
30246.824
30066.118
29863.58
29637.124
29384.416
29102.892
28789.73
28441.908
28056.284
31454.47
31454.472
31454.472
31454.472
31454.471
31454.468
31454.464
31454.458
31454.449
31454.438
31454.423
31454.403
31454.377
31454.344
31454.302
31454.249
31454.182
31454.098
31453.992
31453.859
31453.692
31453.483
31453.22
31452.89
31452.474
31451.95
31451.288
31450.453
31449.397
31448.066
31446.39
31444.282
31441.639
31438.333
31434.212
31429.095
31422.766
31414.972
31405.422
31393.774
31379.641
31362.579
31342.086
31317.6
31288.487
31254.051
31213.519
31166.053
31110.739
31046.593
30972.552
30887.474
30790.13
30679.198
30553.266
30410.818
30250.218
30069.709
29867.391
29641.183
29388.752
29107.539
28794.725
28447.3
28062.074
31457.633
31457.634
31457.635
31457.634
31457.633
31457.63
31457.626
31457.62
31457.611
31457.6
31457.584
31457.564
31457.539
31457.506
31457.465
31457.412
31457.346
31457.262
31457.157
31457.026
31456.86
31456.653
31456.393
31456.065
31455.653
31455.133
31454.477
31453.648
31452.6
31451.278
31449.611
31447.514
31444.882
31441.587
31437.479
31432.373
31426.057
31418.279
31408.746
31397.121
31383.015
31365.987
31345.536
31321.099
31292.047
31257.681
31217.232
31169.86
31114.654
31050.629
30976.726
30891.806
30794.643
30683.918
30558.22
30416.035
30255.727
30075.542
29873.585
29647.779
29395.799
29115.09
28802.841
28456.056
28071.471
31462.075
31462.076
31462.076
31462.076
31462.074
31462.071
31462.067
31462.061
31462.052
31462.04
31462.025
31462.005
31461.98
31461.947
31461.906
31461.854
31461.788
31461.705
31461.601
31461.471
31461.308
31461.103
31460.845
31460.521
31460.113
31459.599
31458.949
31458.128
31457.09
31455.778
31454.123
31452.04
31449.422
31446.142
31442.049
31436.96
31430.663
31422.906
31413.399
31401.805
31387.739
31370.758
31350.365
31325.999
31297.03
31262.762
31222.428
31175.187
31120.13
31056.275
30982.567
30897.87
30800.961
30690.526
30565.157
30423.342
30263.446
30083.719
29882.271
29657.034
29405.689
29125.689
28814.233
28468.35
28084.665
31467.845
31467.846
31467.846
31467.846
31467.844
31467.841
31467.836
31467.83
31467.821
31467.809
31467.794
31467.774
31467.748
31467.716
31467.675
31467.623
31467.558
31467.477
31467.374
31467.245
31467.084
31466.881
31466.627
31466.307
31465.904
31465.396
31464.755
31463.943
31462.916
31461.618
31459.978
31457.911
31455.31
31452.049
31447.975
31442.908
31436.635
31428.907
31419.435
31407.884
31393.868
31376.95
31356.633
31332.356
31303.495
31269.355
31229.168
31182.096
31127.233
31063.598
30990.143
30905.737
30809.16
30699.103
30574.162
30432.829
30273.473
30094.345
29893.564
29669.072
29418.556
29139.482
28829.061
28484.353
28101.848
31474.997
31474.998
31474.998
31474.997
31474.994
31474.991
31474.986
31474.979
31474.97
31474.958
31474.943
31474.923
31474.898
31474.865
31474.825
31474.773
31474.709
31474.628
31474.527
31474.4
31474.241
31474.042
31473.791
31473.476
31473.079
31472.579
31471.947
31471.147
31470.134
31468.851
31467.229
31465.18
31462.6
31459.361
31455.311
31450.271
31444.029
31436.338
31426.91
31415.411
31401.46
31384.62
31364.395
31340.23
31311.502
31277.518
31237.512
31190.65
31136.026
31072.667
30999.527
30915.483
30819.319
30709.73
30585.321
30444.588
30285.904
30107.526
29907.58
29684.018
29434.538
29156.617
28847.487
28504.246
28123.219
31483.586
31483.587
31483.586
31483.585
31483.583
31483.579
31483.574
31483.567
31483.557
31483.545
31483.53
31483.51
31483.484
31483.452
31483.412
31483.362
31483.298
31483.219
31483.119
31482.994
31482.838
31482.642
31482.397
31482.088
31481.698
31481.207
31480.585
31479.798
31478.801
31477.535
31475.932
31473.905
31471.348
31468.134
31464.113
31459.106
31452.901
31445.255
31435.88
31424.445
31410.571
31393.823
31373.71
31349.679
31321.109
31287.31
31247.522
31200.911
31146.577
31083.55
31010.792
30927.184
30831.517
30722.494
30598.726
30458.715
30300.842
30123.37
29924.437
29702.002
29453.775
29177.249
28869.678
28528.211
28148.979
31493.681
31493.681
31493.68
31493.679
31493.676
31493.672
31493.667
31493.659
31493.65
31493.638
31493.622
31493.602
31493.577
31493.545
31493.505
31493.455
31493.393
31493.315
31493.217
31493.095
31492.942
31492.751
31492.51
31492.208
31491.826
31491.344
31490.734
31489.961
31488.98
31487.733
31486.15
31484.146
31481.614
31478.429
31474.44
31469.47
31463.31
31455.715
31446.402
31435.042
31421.257
31404.617
31384.634
31360.758
31332.373
31298.792
31259.257
31212.942
31158.949
31096.315
31024.008
30940.916
30845.837
30737.48
30614.467
30475.308
30318.393
30141.995
29944.26
29723.156
29476.411
29201.534
28895.808
28556.435
28179.333
31505.353
31505.353
31505.352
31505.35
31505.347
31505.343
31505.337
31505.33
31505.32
31505.308
31505.292
31505.272
31505.247
31505.215
31505.176
31505.127
31505.066
31504.989
31504.894
31504.775
31504.625
31504.438
31504.203
31503.908
31503.534
31503.062
31502.464
31501.704
31500.738
31499.51
31497.948
31495.966
31493.461
31490.306
31486.353
31481.424
31475.313
31467.777
31458.535
31447.259
31433.576
31417.059
31397.225
31373.527
31345.353
31312.02
31272.778
31226.804
31173.207
31111.03
31039.247
30956.754
30862.355
30754.772
30632.634
30494.464
30338.659
30163.507
29967.162
29747.613
29502.596
29229.634
28926.05
28589.11
28214.487
31518.679
31518.679
31518.677
31518.675
31518.672
31518.668
31518.662
31518.654
31518.644
31518.631
31518.616
31518.596
31518.571
31518.54
31518.501
31518.453
31518.393
31518.318
31518.225
31518.108
31517.962
31517.779
31517.549
31517.26
31516.894
31516.431
31515.843
31515.096
31514.144
31512.932
31511.39
31509.431
31506.952
31503.829
31499.913
31495.029
31488.972
31481.501
31472.336
31461.155
31447.587
31431.208
31411.541
31388.043
31360.106
31327.054
31288.142
31242.556
31189.411
31127.756
31056.574
30974.768
30881.153
30774.457
30653.324
30516.285
30361.753
30188.031
29993.288
29775.523
29532.48
29261.714
28960.584
28626.429
28254.652
31533.73
31533.729
31533.728
31533.725
31533.722
31533.717
31533.711
31533.703
31533.693
31533.681
31533.665
31533.645
31533.62
31533.589
31533.551
31533.504
31533.445
31533.371
31533.279
31533.165
31533.022
31532.843
31532.617
31532.333
31531.973
31531.517
31530.938
31530.201
31529.262
31528.064
31526.539
31524.602
31522.15
31519.058
31515.182
31510.345
31504.346
31496.946
31487.866
31476.789
31463.347
31447.123
31427.641
31404.365
31376.693
31343.954
31305.412
31260.261
31207.625
31146.563
31076.066
30995.043
30902.318
30796.632
30676.639
30540.885
30387.798
30215.701
30022.773
29807.023
29566.219
29297.94
28999.589
28668.587
28300.036
31550.567
31550.567
31550.565
31550.562
31550.559
31550.554
31550.548
31550.54
31550.529
31550.517
31550.501
31550.481
31550.457
31550.426
31550.388
31550.341
31550.283
31550.211
31550.12
31550.008
31549.867
31549.69
31549.468
31549.187
31548.832
31548.382
31547.81
31547.081
31546.151
31544.966
31543.458
31541.541
31539.115
31536.056
31532.22
31527.434
31521.497
31514.172
31505.185
31494.222
31480.919
31464.864
31445.587
31422.556
31395.175
31362.784
31324.654
31279.988
31227.924
31167.53
31097.803
31017.662
30925.939
30821.39
30702.68
30568.371
30416.909
30246.636
30055.745
29842.263
29603.97
29338.482
29043.248
28715.781
28350.849
31569.247
31569.246
31569.244
31569.242
31569.238
31569.233
31569.227
31569.218
31569.208
31569.196
31569.18
31569.16
31569.136
31569.105
31569.068
31569.021
31568.964
31568.892
31568.803
31568.691
31568.552
31568.377
31568.157
31567.879
31567.527
31567.081
31566.514
31565.791
31564.871
31563.697
31562.203
31560.307
31557.907
31554.882
31551.089
31546.357
31540.485
31533.241
31524.355
31513.515
31500.365
31484.495
31465.442
31442.68
31415.622
31383.615
31345.941
31301.817
31250.391
31190.742
31121.875
31042.718
30952.115
30848.835
30731.556
30598.857
30449.208
30280.972
30092.354
29881.392
29645.892
29383.51
29091.743
28768.208
28407.301
31589.822
31589.821
31589.819
31589.817
31589.813
31589.808
31589.802
31589.794
31589.784
31589.771
31589.755
31589.736
31589.711
31589.681
31589.644
31589.598
31589.541
31589.47
31589.381
31589.271
31589.133
31588.959
31588.74
31588.464
31588.115
31587.672
31587.108
31586.391
31585.478
31584.315
31582.837
31580.96
31578.587
31575.6
31571.851
31567.175
31561.374
31554.218
31545.44
31534.735
31521.751
31506.084
31487.276
31464.81
31438.107
31406.524
31369.357
31325.835
31275.117
31216.293
31148.378
31070.31
30980.948
30879.073
30763.378
30632.464
30484.824
30318.843
30132.736
29924.558
29692.146
29433.194
29145.257
28826.064
28469.6
31612.355
31612.354
31612.352
31612.349
31612.346
31612.341
31612.335
31612.327
31612.317
31612.304
31612.289
31612.269
31612.245
31612.216
31612.179
31612.133
31612.077
31612.006
31611.918
31611.808
31611.671
31611.498
31611.28
31611.006
31610.658
31610.217
31609.657
31608.945
31608.039
31606.887
31605.423
31603.568
31601.225
31598.272
31594.572
31589.957
31584.231
31577.169
31568.509
31557.951
31545.147
31529.701
31511.163
31489.022
31462.709
31431.596
31394.99
31352.131
31302.194
31244.279
31177.412
31100.542
31012.544
30912.213
30798.262
30669.313
30523.887
30360.384
30177.035
29971.913
29742.89
29487.705
29203.971
28889.545
28537.952
31636.919
31636.918
31636.917
31636.914
31636.911
31636.906
31636.9
31636.892
31636.882
31636.87
31636.855
31636.835
31636.812
31636.782
31636.746
31636.7
31636.644
31636.574
31636.486
31636.377
31636.24
31636.068
31635.851
31635.577
31635.23
31634.791
31634.234
31633.526
31632.627
31631.485
31630.037
31628.203
31625.888
31622.974
31619.323
31614.77
31609.124
31602.164
31593.632
31583.233
31570.627
31555.423
31537.178
31515.394
31489.513
31458.918
31422.928
31380.8
31331.719
31274.798
31209.076
31133.517
31047.011
30948.369
30836.324
30709.529
30566.527
30405.732
30225.391
30023.605
29798.284
29547.213
29268.067
28958.842
28612.561
31663.596
31663.595
31663.594
31663.591
31663.588
31663.583
31663.578
31663.57
31663.56
31663.548
31663.533
31663.514
31663.491
31663.461
31663.425
31663.38
31663.324
31663.254
31663.166
31663.057
31662.919
31662.747
31662.53
31662.257
31661.911
31661.472
31660.917
31660.213
31659.32
31658.187
31656.753
31654.94
31652.653
31649.778
31646.177
31641.692
31636.132
31629.28
31620.886
31610.66
31598.267
31583.327
31565.404
31544.012
31518.604
31488.577
31453.264
31411.935
31363.787
31307.949
31243.474
31169.341
31084.455
30987.649
30877.684
30753.239
30612.872
30455.021
30277.945
30079.783
29858.485
29611.885
29337.723
29034.147
28693.624
31692.468
31692.468
31692.466
31692.464
31692.461
31692.457
31692.451
31692.443
31692.434
31692.422
31692.407
31692.388
31692.364
31692.335
31692.298
31692.253
31692.196
31692.126
31692.038
31691.928
31691.79
31691.617
31691.399
31691.125
31690.779
31690.341
31689.788
31689.087
31688.199
31687.075
31685.654
31683.86
31681.6
31678.763
31675.215
31670.798
31665.328
31658.594
31650.349
31640.309
31628.149
31613.495
31595.924
31574.96
31550.07
31520.664
31486.09
31445.629
31398.496
31343.832
31280.706
31208.116
31124.984
31030.168
30922.461
30800.562
30663.051
30508.379
30334.835
30140.593
29923.65
29681.886
29413.115
29115.645
28781.337
31723.601
31723.6
31723.599
31723.597
31723.594
31723.59
31723.584
31723.577
31723.567
31723.555
31723.54
31723.521
31723.497
31723.468
31723.431
31723.385
31723.328
31723.257
31723.168
31723.057
31722.918
31722.744
31722.526
31722.251
31721.905
31721.468
31720.917
31720.219
31719.338
31718.223
31716.816
31715.041
31712.808
31710.009
31706.514
31702.169
31696.795
31690.186
31682.1
31672.262
31660.353
31646.01
31628.822
31608.324
31583.999
31555.27
31521.497
31481.977
31435.939
31382.542
31320.871
31249.941
31168.699
31076.035
30970.769
30851.619
30717.185
30565.937
30396.198
30206.18
29993.93
29757.379
29494.414
29203.518
28875.889
31757.042
31757.041
31757.04
31757.038
31757.035
31757.031
31757.026
31757.018
31757.009
31756.997
31756.982
31756.963
31756.939
31756.91
31756.873
31756.827
31756.769
31756.697
31756.608
31756.496
31756.357
31756.183
31755.964
31755.69
31755.345
31754.911
31754.363
31753.672
31752.798
31751.696
31750.305
31748.554
31746.353
31743.596
31740.158
31735.89
31730.618
31724.141
31716.226
31706.603
31694.964
31680.958
31664.184
31644.194
31620.481
31592.483
31559.575
31521.069
31476.208
31424.169
31364.056
31294.907
31215.698
31125.355
31022.716
30906.528
30775.392
30627.82
30462.166
30276.687
30069.477
29838.521
29581.786
29297.942
28977.462
31792.819
31792.819
31792.818
31792.816
31792.813
31792.809
31792.804
31792.797
31792.788
31792.776
31792.761
31792.742
31792.719
31792.689
31792.653
31792.607
31792.55
31792.478
31792.39
31792.279
31792.141
31791.968
31791.752
31791.48
31791.14
31790.711
31790.171
31789.49
31788.63
31787.546
31786.179
31784.457
31782.296
31779.59
31776.219
31772.037
31766.876
31760.543
31752.81
31743.419
31732.072
31718.428
31702.103
31682.659
31659.606
31632.394
31600.414
31562.993
31519.39
31468.799
31410.348
31343.106
31266.086
31178.237
31078.419
30965.393
30837.79
30694.151
30532.872
30352.253
30150.437
29925.467
29675.394
29399.089
29086.228
31830.953
31830.953
31830.952
31830.951
31830.948
31830.944
31830.939
31830.933
31830.924
31830.913
31830.898
31830.88
31830.858
31830.829
31830.794
31830.749
31830.694
31830.625
31830.539
31830.431
31830.297
31830.129
31829.918
31829.654
31829.322
31828.903
31828.376
31827.711
31826.872
31825.813
31824.478
31822.797
31820.686
31818.045
31814.754
31810.674
31805.642
31799.468
31791.937
31782.797
31771.765
31758.512
31742.668
31723.81
31701.462
31675.09
31644.099
31607.831
31565.561
31516.507
31459.831
31394.634
31319.964
31234.779
31137.975
31028.321
30904.488
30765.05
30608.442
30433.013
30236.954
30018.367
29775.394
29507.121
29202.352
31871.474
31871.474
31871.473
31871.472
31871.47
31871.466
31871.462
31871.455
31871.447
31871.437
31871.424
31871.407
31871.386
31871.359
31871.326
31871.285
31871.233
31871.168
31871.086
31870.984
31870.857
31870.697
31870.496
31870.243
31869.924
31869.522
31869.014
31868.372
31867.56
31866.534
31865.241
31863.612
31861.565
31859.003
31855.811
31851.851
31846.968
31840.978
31833.672
31824.811
31814.121
31801.291
31785.962
31767.729
31746.132
31720.65
31690.701
31655.644
31614.783
31567.366
31512.587
31449.582
31377.412
31295.075
31201.472
31095.412
30975.595
30840.631
30689
30519.098
30329.167
30117.365
29881.933
29622.198
29325.987
31914.43
31914.43
31914.43
31914.429
31914.427
31914.424
31914.42
31914.414
31914.407
31914.398
31914.386
31914.371
31914.352
31914.328
31914.298
31914.26
31914.213
31914.154
31914.079
31913.985
31913.867
31913.717
31913.529
31913.291
31912.99
31912.608
31912.124
31911.511
31910.734
31909.75
31908.506
31906.938
31904.966
31902.498
31899.421
31895.603
31890.893
31885.113
31878.063
31869.511
31859.196
31846.821
31832.044
31814.476
31793.669
31769.118
31740.262
31706.486
31667.123
31621.452
31568.696
31508.024
31438.516
31359.2
31269
31166.759
31051.212
30921.007
30774.665
30610.635
30427.209
30222.601
29995.156
29744.471
29457.281
31959.894
31959.894
31959.893
31959.892
31959.891
31959.888
31959.885
31959.88
31959.874
31959.866
31959.856
31959.843
31959.826
31959.805
31959.778
31959.745
31959.702
31959.649
31959.581
31959.496
31959.387
31959.25
31959.076
31958.855
31958.573
31958.213
31957.756
31957.174
31956.435
31955.497
31954.31
31952.812
31950.927
31948.565
31945.618
31941.961
31937.445
31931.901
31925.133
31916.921
31907.016
31895.133
31880.946
31864.077
31844.099
31820.53
31792.832
31760.414
31722.647
31678.834
31628.23
31570.025
31503.347
31427.231
31340.641
31242.453
31131.437
31006.281
30865.551
30707.745
30531.208
30334.209
30115.197
29874.087
29596.377
32007.942
32007.942
32007.942
32007.941
32007.94
32007.938
32007.935
32007.931
32007.925
32007.918
32007.909
32007.898
32007.883
32007.864
32007.84
32007.81
32007.772
32007.723
32007.662
32007.584
32007.485
32007.358
32007.197
32006.991
32006.727
32006.39
32005.96
32005.411
32004.712
32003.823
32002.696
32001.273
31999.482
31997.236
31994.433
31990.951
31986.649
31981.361
31974.902
31967.06
31957.596
31946.237
31932.674
31916.548
31897.453
31874.923
31848.45
31817.48
31781.407
31739.561
31691.237
31635.653
31571.96
31499.235
31416.469
31322.575
31216.361
31096.555
30961.767
30810.546
30641.289
30452.319
30242.188
30011.183
29743.42
32058.635
32058.636
32058.636
32058.635
32058.634
32058.632
32058.629
32058.626
32058.621
32058.614
32058.606
32058.595
32058.582
32058.564
32058.542
32058.514
32058.478
32058.433
32058.376
32058.303
32058.21
32058.092
32057.941
32057.747
32057.499
32057.182
32056.777
32056.259
32055.599
32054.761
32053.698
32052.355
32050.664
32048.543
32045.894
32042.599
32038.523
32033.509
32027.379
32019.931
32010.936
32000.139
31987.241
31971.907
31953.746
31932.321
31907.154
31877.721
31843.436
31803.677
31757.764
31704.947
31644.413
31575.272
31496.552
31407.201
31306.069
31191.923
31063.418
30919.151
30757.572
30577.054
30376.258
30155.888
29898.562
32111.998
32111.998
32111.998
32111.997
32111.996
32111.994
32111.992
32111.988
32111.983
32111.977
32111.968
32111.958
32111.944
32111.927
32111.906
32111.879
32111.844
32111.8
32111.745
32111.675
32111.586
32111.473
32111.329
32111.145
32110.91
32110.61
32110.228
32109.74
32109.12
32108.333
32107.336
32106.077
32104.49
32102.5
32100.01
32096.912
32093.075
32088.349
32082.567
32075.536
32067.041
32056.84
32044.654
32030.161
32012.996
31992.747
31968.966
31941.154
31908.766
31871.214
31827.846
31777.951
31720.75
31655.394
31580.949
31496.399
31400.638
31292.474
31170.604
31033.671
30880.177
30708.542
30517.539
30308.338
30061.966
32168.013
32168.013
32168.013
32168.012
32168.011
32168.009
32168.006
32168.002
32167.997
32167.991
32167.982
32167.972
32167.958
32167.941
32167.919
32167.892
32167.858
32167.815
32167.761
32167.692
32167.606
32167.497
32167.358
32167.182
32166.959
32166.675
32166.315
32165.857
32165.277
32164.542
32163.613
32162.441
32160.965
32159.11
32156.788
32153.894
32150.306
32145.882
32140.465
32133.875
32125.911
32116.344
32104.913
32091.316
32075.208
32056.207
32033.893
32007.799
31977.416
31942.189
31901.505
31854.691
31801.007
31739.644
31669.709
31590.229
31500.137
31398.289
31283.418
31154.214
31009.224
30846.913
30666.175
30468.701
30233.798
32226.643
32226.643
32226.642
32226.642
32226.64
32226.638
32226.635
32226.631
32226.626
32226.62
32226.611
32226.6
32226.587
32226.57
32226.548
32226.522
32226.488
32226.446
32226.393
32226.327
32226.243
32226.138
32226.006
32225.84
32225.629
32225.363
32225.027
32224.601
32224.064
32223.385
32222.528
32221.447
32220.085
32218.372
32216.224
32213.543
32210.214
32206.106
32201.072
32194.946
32187.542
32178.648
32168.017
32155.367
32140.379
32122.7
32101.937
32077.655
32049.385
32016.61
31978.754
31935.185
31885.206
31828.051
31762.87
31688.737
31604.627
31509.44
31401.952
31280.889
31144.839
30992.302
30822.322
30637.179
30414.253
32287.848
32287.848
32287.848
32287.847
32287.846
32287.843
32287.841
32287.837
32287.832
32287.826
32287.817
32287.807
32287.794
32287.778
32287.757
32287.732
32287.7
32287.66
32287.61
32287.547
32287.469
32287.371
32287.248
32287.094
32286.899
32286.654
32286.346
32285.958
32285.468
32284.85
32284.07
32283.085
32281.843
32280.277
32278.31
32275.849
32272.788
32269.008
32264.375
32258.738
32251.925
32243.738
32233.952
32222.303
32208.5
32192.214
32173.083
32150.712
32124.668
32094.471
32059.591
32019.438
31973.357
31920.63
31860.457
31791.957
31714.154
31625.993
31526.289
31413.805
31287.159
31144.869
30986.103
30813.802
30603.796
32351.593
32351.593
32351.593
32351.592
32351.591
32351.589
32351.586
32351.583
32351.578
32351.573
32351.565
32351.556
32351.544
32351.53
32351.512
32351.489
32351.46
32351.424
32351.38
32351.324
32351.254
32351.166
32351.056
32350.918
32350.745
32350.527
32350.252
32349.906
32349.469
32348.917
32348.219
32347.336
32346.218
32344.803
32343.021
32340.787
32338.005
32334.568
32330.355
32325.229
32319.036
32311.594
32302.695
32292.1
32279.541
32264.718
32247.306
32226.944
32203.239
32175.754
32144.001
32107.437
32065.454
32017.383
31962.477
31899.91
31828.754
31748
31656.505
31553.071
31436.339
31304.784
31157.583
30999.023
30802.561
32417.858
32417.858
32417.857
32417.857
32417.856
32417.854
32417.852
32417.849
32417.845
32417.84
32417.834
32417.827
32417.817
32417.805
32417.79
32417.771
32417.747
32417.717
32417.68
32417.633
32417.574
32417.5
32417.407
32417.29
32417.141
32416.954
32416.717
32416.418
32416.038
32415.557
32414.945
32414.165
32413.173
32411.912
32410.319
32408.318
32405.825
32402.745
32398.972
32394.384
32388.84
32382.178
32374.207
32364.715
32353.459
32340.173
32324.563
32306.311
32285.062
32260.423
32231.951
32199.152
32161.471
32118.291
32068.922
32012.598
31948.444
31875.503
31792.676
31698.8
31592.512
31472.145
31337.066
31193.046
31010.761
32486.616
32486.616
32486.616
32486.615
32486.614
32486.613
32486.611
32486.609
32486.606
32486.603
32486.598
32486.593
32486.586
32486.577
32486.565
32486.551
32486.533
32486.511
32486.483
32486.447
32486.401
32486.343
32486.27
32486.176
32486.055
32485.902
32485.706
32485.455
32485.134
32484.723
32484.196
32483.519
32482.652
32481.547
32480.146
32478.386
32476.194
32473.488
32470.175
32466.148
32461.282
32455.432
32448.432
32440.092
32430.199
32418.519
32404.798
32388.755
32370.08
32348.422
32323.388
32294.534
32261.363
32223.315
32179.761
32130.001
32073.226
32008.532
31934.866
31851.09
31755.807
31647.349
31524.755
31396.082
31229.048
32557.847
32557.847
32557.846
32557.846
32557.845
32557.844
32557.843
32557.842
32557.84
32557.838
32557.835
32557.831
32557.826
32557.821
32557.813
32557.804
32557.792
32557.778
32557.758
32557.733
32557.701
32557.66
32557.605
32557.534
32557.441
32557.32
32557.163
32556.959
32556.693
32556.349
32555.903
32555.327
32554.585
32553.636
32552.434
32550.924
32549.045
32546.729
32543.895
32540.452
32536.29
32531.285
32525.295
32518.154
32509.682
32499.68
32487.932
32474.201
32458.218
32439.678
32418.239
32393.513
32365.061
32332.39
32294.94
32252.08
32203.076
32147.087
32083.107
32010.013
31926.498
31830.628
31721.094
31608.499
31458.096
32631.498
32631.498
32631.498
32631.497
32631.497
32631.496
32631.495
32631.494
32631.493
32631.492
32631.49
32631.489
32631.486
32631.483
32631.479
32631.474
32631.468
32631.459
32631.448
32631.433
32631.412
32631.384
32631.347
32631.295
32631.226
32631.134
32631.01
32630.847
32630.631
32630.349
32629.98
32629.501
32628.884
32628.095
32627.096
32625.844
32624.291
32622.379
32620.042
32617.203
32613.77
32609.643
32604.699
32598.804
32591.811
32583.559
32573.872
32562.553
32549.379
32534.094
32516.408
32495.992
32472.473
32445.429
32414.376
32378.762
32337.934
32291.116
32237.402
32175.719
32104.736
32022.41
31926.911
31831.051
31698.439
32707.493
32707.493
32707.492
32707.492
32707.491
32707.491
32707.49
32707.489
32707.489
32707.488
32707.487
32707.486
32707.485
32707.483
32707.481
32707.478
32707.475
32707.47
32707.464
32707.454
32707.441
32707.422
32707.395
32707.358
32707.305
32707.234
32707.137
32707.007
32706.834
32706.607
32706.311
32705.927
32705.434
32704.806
32704.016
32703.031
32701.813
32700.317
32698.491
32696.275
32693.598
32690.377
32686.517
32681.916
32676.462
32670.034
32662.494
32653.689
32643.44
32631.544
32617.768
32601.846
32583.474
32562.308
32537.947
32509.916
32477.676
32440.561
32397.746
32348.232
32290.761
32223.209
32143.382
32064.907
31950.07
32785.689
32785.688
32785.688
32785.687
32785.686
32785.686
32785.685
32785.684
32785.683
32785.683
32785.682
32785.681
32785.68
32785.678
32785.677
32785.674
32785.672
32785.668
32785.663
32785.656
32785.646
32785.631
32785.61
32785.58
32785.538
32785.481
32785.404
32785.302
32785.167
32784.992
32784.766
32784.477
32784.111
32783.649
32783.072
32782.36
32781.486
32780.417
32779.116
32777.542
32775.641
32773.354
32770.617
32767.358
32763.503
32758.97
32753.662
32747.468
32740.257
32731.881
32722.165
32710.908
32697.894
32682.857
32665.488
32645.413
32622.193
32595.286
32564.036
32527.592
32484.805
32433.603
32371.769
32310.352
32214.645
32865.92
32865.919
32865.918
32865.918
32865.917
32865.916
32865.915
32865.914
32865.912
32865.911
32865.909
32865.907
32865.905
32865.903
32865.901
32865.898
32865.894
32865.889
32865.883
32865.875
32865.864
32865.85
32865.83
32865.803
32865.766
32865.718
32865.655
32865.575
32865.473
32865.347
32865.19
32864.997
32864.761
32864.467
32864.108
32863.674
32863.149
32862.517
32861.756
32860.841
32859.739
32858.417
32856.84
32854.972
32852.775
32850.207
32847.211
32843.72
32839.658
32834.932
32829.429
32823.028
32815.586
32806.933
32796.857
32785.093
32771.335
32755.177
32736.136
32713.619
32686.719
32653.812
32613.013
32571.271
32499.265
32951.597
32951.596
32951.595
32951.594
32951.592
32951.591
32951.589
32951.587
32951.585
32951.582
32951.58
32951.576
32951.573
32951.568
32951.563
32951.558
32951.551
32951.543
32951.532
32951.52
32951.505
32951.486
32951.462
32951.433
32951.397
32951.353
32951.301
32951.24
32951.17
32951.09
32951.002
32950.906
32950.801
32950.687
32950.565
32950.434
32950.293
32950.14
32949.969
32949.772
32949.544
32949.278
32948.973
32948.628
32948.241
32947.812
32947.329
32946.774
32946.124
32945.351
32944.419
32943.286
32941.899
32940.19
32938.055
32935.36
32931.93
32927.55
32921.927
32914.752
32905.52
32893.341
32878.193
32864.377
32837.909
33041.712
33041.711
33041.709
33041.708
33041.706
33041.704
33041.702
33041.7
33041.697
33041.693
33041.689
33041.685
33041.68
33041.673
33041.666
33041.658
33041.648
33041.636
33041.622
33041.605
33041.585
33041.561
33041.534
33041.503
33041.467
33041.429
33041.389
33041.351
33041.317
33041.293
33041.284
33041.297
33041.34
33041.422
33041.553
33041.749
33042.023
33042.386
33042.844
33043.416
33044.12
33044.983
33046.036
33047.317
33048.865
33050.718
33052.912
33055.483
33058.47
33061.914
33065.861
33070.356
33075.441
33081.155
33087.515
33094.533
33102.189
33110.467
33119.304
33128.699
33138.596
33148.907
33160.57
33175.663
33186.991
33131.63
33131.628
33131.627
33131.625
33131.623
33131.621
33131.619
33131.616
33131.613
33131.61
33131.606
33131.601
33131.596
33131.589
33131.582
33131.574
33131.564
33131.552
33131.539
33131.523
33131.504
33131.483
33131.46
33131.434
33131.408
33131.384
33131.366
33131.358
33131.368
33131.406
33131.48
33131.604
33131.792
33132.064
33132.441
33132.948
33133.613
33134.466
33135.538
33136.868
33138.5
33140.49
33142.904
33145.813
33149.296
33153.432
33158.307
33164.011
33170.646
33178.328
33187.182
33197.345
33208.953
33222.151
33237.083
33253.908
33272.772
33293.859
33317.347
33343.52
33372.667
33405.289
33442.483
33485.516
33533.56
33220.963
33220.961
33220.96
33220.958
33220.957
33220.955
33220.953
33220.95
33220.948
33220.945
33220.941
33220.937
33220.933
33220.928
33220.923
33220.916
33220.908
33220.9
33220.89
33220.878
33220.865
33220.851
33220.836
33220.821
33220.81
33220.806
33220.814
33220.841
33220.897
33220.995
33221.151
33221.382
33221.715
33222.175
33222.792
33223.606
33224.659
33225.998
33227.676
33229.755
33232.307
33235.417
33239.183
33243.712
33249.119
33255.527
33263.069
33271.895
33282.171
33294.086
33307.846
33323.675
33341.811
33362.503
33386.023
33412.673
33442.771
33476.693
33514.847
33557.773
33606.064
33660.619
33722.734
33794.021
33876.67
33309.289
33309.288
33309.286
33309.285
33309.283
33309.282
33309.28
33309.278
33309.277
33309.275
33309.273
33309.271
33309.268
33309.266
33309.263
33309.261
33309.257
33309.254
33309.25
33309.247
33309.243
33309.24
33309.239
33309.242
33309.251
33309.272
33309.312
33309.38
33309.489
33309.656
33309.902
33310.251
33310.733
33311.382
33312.242
33313.364
33314.804
33316.627
33318.907
33321.729
33325.194
33329.415
33334.524
33340.658
33347.971
33356.628
33366.815
33378.739
33392.633
33408.757
33427.396
33448.861
33473.488
33501.639
33533.708
33570.141
33611.42
33658.106
33710.824
33770.359
33837.601
33913.783
34000.506
34099.882
34214.954
33396.271
33396.27
33396.269
33396.268
33396.267
33396.266
33396.265
33396.264
33396.263
33396.263
33396.262
33396.262
33396.263
33396.264
33396.265
33396.267
33396.269
33396.272
33396.276
33396.282
33396.289
33396.3
33396.315
33396.337
33396.371
33396.422
33396.499
33396.615
33396.785
33397.03
33397.374
33397.847
33398.485
33399.33
33400.437
33401.867
33403.694
33405.999
33408.876
33412.436
33416.806