/*--------------------------------*- C++ -*----------------------------------*\
  =========                 |
  \\      /  F ield         | OpenFOAM: The Open Source CFD Toolbox
   \\    /   O peration     | Website:  https://openfoam.org
    \\  /    A nd           | Version:  13
     \\/     M anipulation  |
\*---------------------------------------------------------------------------*/
FoamFile
{
    format      ascii;
    class       volVectorField;
    location    "27.203247";
    object      wallShearStress;
}
// * * * * * * * * * * * * * * * * * * * * * * * * * * * * * * * * * * * * * //

dimensions      [0 2 -2 0 0 0 0];

internalField   uniform (0 0 0);

boundaryField
{
    inlet
    {
        type            calculated;
        value           uniform (0 0 0);
    }
    outlet
    {
        type            calculated;
        value           uniform (0 0 0);
    }
    cylinder
    {
        type            calculated;
        value           nonuniform List<vector> 
132
(
(2.2226138e-05 -0.001290688 -2.452643e-22)
(7.1869974e-05 -0.0016511877 6.9809001e-23)
(0.00014214502 -0.0020013421 3.8511354e-21)
(0.00023176703 -0.0023344291 -1.2907927e-20)
(0.00033920272 -0.0026437587 9.0992222e-21)
(0.00046215226 -0.0029226661 2.7762762e-20)
(0.00059756219 -0.003164835 -5.2522779e-21)
(0.00074166114 -0.0033645623 -2.0776112e-20)
(0.00089000532 -0.0035170145 1.9553001e-20)
(0.0010378664 -0.0036185887 -4.377688e-20)
(0.0011801305 -0.0036669585 -7.9555518e-22)
(0.0013117864 -0.0036618161 2.7125808e-20)
(0.0014279645 -0.003604231 4.4188766e-20)
(0.0015247421 -0.0034980474 -3.5857052e-20)
(0.0015987794 -0.0033480644 3.7723146e-20)
(0.0016486009 -0.003162113 6.0669276e-20)
(0.0016741407 -0.0029490723 -3.9728917e-20)
(0.001677231 -0.0027190628 6.3692974e-20)
(0.0016624642 -0.0024840862 8.4173637e-20)
(0.0016361798 -0.0022555708 -5.4578376e-20)
(0.0016078563 -0.0020458906 -6.9540645e-20)
(0.0015892028 -0.0018663824 2.4469422e-23)
(0.0015951915 -0.0017281237 1.008386e-20)
(0.0016430978 -0.0016402264 -1.2072859e-20)
(0.0017514906 -0.0016086204 -2.0540625e-20)
(0.0019371224 -0.0016335211 4.3941932e-21)
(0.0022079225 -0.0017050595 -3.9691649e-20)
(0.0025610818 -0.0018051252 1.0610935e-20)
(0.0029740287 -0.0019049406 8.3388575e-21)
(0.003401483 -0.001968844 -5.7486848e-20)
(0.003805936 -0.0019762484 7.5091788e-20)
(0.0041528736 -0.0019164544 2.2754406e-21)
(0.0044042141 -0.0017845374 1.6425514e-20)
(0.0045045694 -0.001577305 -1.9496075e-20)
(0.0043561469 -0.0012903325 6.2070981e-20)
(0.0038100903 -0.00092700632 -3.9346446e-21)
(0.0026939767 -0.0005174325 1.5909984e-20)
(0.00079221332 -0.00012254776 -2.1897626e-21)
(-0.0020790741 0.00014744239 3.1479937e-21)
(-0.0061037714 0.00013208482 -1.966272e-21)
(-0.011640804 -0.00038895208 3.6743103e-21)
(-0.018611114 -0.0017302775 -1.1330582e-22)
(-0.026422476 -0.0040655508 4.1504617e-20)
(-0.034639438 -0.0074828816 -1.5971809e-20)
(-0.042670957 -0.011943911 1.4390061e-20)
(-0.050065369 -0.017326286 -9.2314661e-20)
(-0.056373583 -0.023399877 -1.4868167e-20)
(-0.061314823 -0.029898532 1.3039432e-19)
(-0.064693723 -0.036525254 -1.1107561e-19)
(-0.06644887 -0.04299281 -2.1180663e-21)
(-0.066579406 -0.049012079 3.3725053e-20)
(-0.065208702 -0.05435754 -3.0653327e-20)
(-0.062435953 -0.058775969 -5.9863414e-21)
(-0.058477113 -0.062113176 -3.7702178e-21)
(-0.053568316 -0.064257105 -5.4788043e-21)
(-0.047894919 -0.065057765 -3.2209701e-21)
(-0.041730804 -0.064495865 6.1682255e-22)
(-0.035309161 -0.062539454 4.930055e-20)
(-0.028874022 -0.059216074 -7.497397e-20)
(-0.022655195 -0.054584252 -7.9836077e-20)
(-0.016867375 -0.048737717 -3.2375131e-20)
(-0.011704972 -0.041802066 -7.4193187e-20)
(-0.0073376755 -0.03393121 1.6553554e-20)
(-0.0039040786 -0.025302089 2.4092909e-20)
(-0.0015179341 -0.016129626 -3.7464525e-20)
(-0.00023919996 -0.0065772384 -5.0085475e-21)
(-7.7736593e-06 -0.00092290099 -1.1283315e-21)
(-1.7346518e-05 -0.00054728507 -6.7196606e-23)
(-6.7352928e-06 -0.00016634046 -3.8552038e-21)
(2.552753e-05 0.00021370455 1.2916064e-20)
(7.8521978e-05 0.0005860393 -9.1081573e-21)
(0.00015213753 0.0009437007 -2.7802296e-20)
(0.00024417313 0.0012795223 5.2627823e-21)
(0.00035208463 0.0015867117 2.0832808e-20)
(0.00047256099 0.0018589018 -1.9623856e-20)
(0.00060156708 0.0020905343 4.3982699e-20)
(0.0007346281 0.0022771588 8.0027545e-22)
(0.00086696686 0.0024156364 -2.7326849e-20)
(0.00099375385 0.0025045934 -4.4587393e-20)
(0.0011103719 0.0025443594 3.6243953e-20)
(0.0012129682 0.0025375754 -3.8201207e-20)
(0.0012984964 0.0024884468 -6.155854e-20)
(0.0013657107 0.0024039309 4.0391756e-20)
(0.0014145065 0.0022915804 -6.4886371e-20)
(0.0014476409 0.0021617358 -8.59196e-20)
(0.0014700647 0.0020253913 5.58167e-20)
(0.0014891405 0.0018938029 7.1245483e-20)
(0.0015159088 0.0017794194 6.3889335e-20)
(0.0015634541 0.0016930158 5.2548376e-20)
(0.0016478398 0.0016444292 1.2424198e-20)
(0.0017845652 0.0016387124 2.1162835e-20)
(0.0019860722 0.0016747821 -4.5317594e-21)
(0.0022566386 0.0017429028 4.0967125e-20)
(0.0025906847 0.0018263933 -1.0958912e-20)
(0.0029649234 0.0018995818 -8.6163831e-21)
(0.0033434553 0.001935679 5.9418741e-20)
(0.0036999399 0.0019215458 -7.7634356e-20)
(0.0040015848 0.0018469536 -2.339384e-21)
(0.0042019707 0.0017030234 3.8658639e-20)
(0.0042288625 0.0014814781 2.0178427e-20)
(0.0039713025 0.0011775305 -6.4272552e-20)
(0.0032724497 0.00079827644 4.0756198e-21)
(0.0019571422 0.00038023981 1.2019565e-20)
(-0.00019028165 -7.782623e-06 2.2675826e-21)
(-0.0033571017 -0.0002497523 -3.2559886e-21)
(-0.0076655933 -0.00017303351 2.0299647e-21)
(-0.013482102 0.00044622957 -3.7814152e-21)
(-0.02068341 0.0019196512 3.0607067e-20)
(-0.028603282 0.0043978931 -4.2273969e-20)
(-0.036794634 0.0079453726 1.6161032e-20)
(-0.044693612 0.012507611 -1.4457018e-20)
(-0.051859772 0.017944897 9.2016673e-20)
(-0.057862615 0.024014713 1.4695788e-20)
(-0.062460304 0.030453935 -1.2769015e-19)
(-0.065473049 0.036962192 1.0762307e-19)
(-0.066874634 0.043265284 2.026244e-21)
(-0.066656939 0.049066191 -3.172203e-20)
(-0.064995448 0.054176864 2.815821e-20)
(-0.061940363 0.058306118 -4.246261e-20)
(-0.057745821 0.061333288 3.020938e-21)
(-0.052681104 0.063189415 -3.5107808e-21)
(-0.04687268 0.063665267 5.8591745e-21)
(-0.040631909 0.062793029 -7.5789244e-22)
(-0.034178545 0.060531579 -5.5642883e-20)
(-0.027757085 0.056918859 8.1454198e-20)
(-0.021594287 0.05201973 8.4815631e-20)
(-0.015900381 0.045932201 3.387434e-20)
(-0.010865733 0.038788283 7.6747973e-20)
(-0.0066542423 0.030744154 -1.6967154e-20)
(-0.0033990143 0.021982928 4.8594118e-20)
(-0.0012070477 0.012708501 3.7833696e-20)
(-0.00013777037 0.0031376253 5.027768e-21)
)
;
    }
    frontAndBack
    {
        type            empty;
    }
}


// ************************************************************************* //
