/*--------------------------------*- C++ -*----------------------------------*\
  =========                 |
  \\      /  F ield         | OpenFOAM: The Open Source CFD Toolbox
   \\    /   O peration     | Website:  https://openfoam.org
    \\  /    A nd           | Version:  13
     \\/     M anipulation  |
\*---------------------------------------------------------------------------*/
FoamFile
{
    format      ascii;
    class       volScalarField;
    location    "21.800435";
    object      yPlus;
}
// * * * * * * * * * * * * * * * * * * * * * * * * * * * * * * * * * * * * * //

dimensions      [];

internalField   uniform 0;

boundaryField
{
    inlet
    {
        type            calculated;
        value           uniform 0;
    }
    outlet
    {
        type            calculated;
        value           uniform 0;
    }
    cylinder
    {
        type            calculated;
        value           nonuniform List<scalar> 
132
(
3.6817885e-07
3.6536536e-07
3.6066134e-07
3.5399647e-07
3.453525e-07
3.3474851e-07
3.2224212e-07
3.079322e-07
2.9196152e-07
2.7451816e-07
2.5583651e-07
2.3619559e-07
2.1591566e-07
1.9535112e-07
1.7487477e-07
1.5487608e-07
1.3574205e-07
1.1783151e-07
1.0146467e-07
8.6909037e-08
7.4374592e-08
6.4003828e-08
5.5823331e-08
4.96536e-08
4.4986591e-08
4.100031e-08
3.6793731e-08
3.1764414e-08
2.592117e-08
1.9763382e-08
1.398232e-08
9.1721586e-09
5.711562e-09
3.8074767e-09
3.4310748e-09
3.952119e-09
4.8602283e-09
6.0286769e-09
7.4642215e-09
9.2047967e-09
1.1330338e-08
1.3938153e-08
1.681893e-08
1.99358e-08
2.3211123e-08
2.6566591e-08
2.9930095e-08
3.3243806e-08
3.6461029e-08
3.954957e-08
4.2485089e-08
4.5254856e-08
4.784355e-08
5.0240038e-08
5.2469305e-08
5.4506305e-08
5.6360306e-08
5.801922e-08
5.9505388e-08
6.08085e-08
6.1936769e-08
6.2873603e-08
6.3632774e-08
6.4203444e-08
6.4601558e-08
6.4816286e-08
3.6907968e-07
3.6804819e-07
3.6514595e-07
3.6027656e-07
3.5339873e-07
3.4450448e-07
3.3362036e-07
3.2081084e-07
3.0618184e-07
2.898834e-07
2.7211246e-07
2.5311317e-07
2.3317594e-07
2.1262881e-07
1.9183628e-07
1.71195e-07
1.5110832e-07
1.3196975e-07
1.1414134e-07
9.7939455e-08
8.3618877e-08
7.1347749e-08
6.1164268e-08
5.2906844e-08
4.6151604e-08
4.0235046e-08
3.4468799e-08
2.8442915e-08
2.2202986e-08
1.6187522e-08
1.0951959e-08
6.9330588e-09
4.4005173e-09
3.4407952e-09
3.6717373e-09
4.4338623e-09
5.4727415e-09
6.7618127e-09
8.3259574e-09
1.0202944e-08
1.2465363e-08
1.5204101e-08
1.8186824e-08
2.1373008e-08
2.4680966e-08
2.8037188e-08
3.1376324e-08
3.4644121e-08
3.780171e-08
4.0820659e-08
4.3679475e-08
4.6369464e-08
4.8874189e-08
5.1182066e-08
5.334143e-08
5.5293946e-08
5.7066902e-08
5.8649463e-08
6.0061615e-08
6.1291403e-08
6.2340343e-08
6.3203674e-08
6.3885167e-08
6.4383755e-08
6.4704645e-08
6.4847465e-08
)
;
    }
    frontAndBack
    {
        type            empty;
    }
}


// ************************************************************************* //
