/*--------------------------------*- C++ -*----------------------------------*\
  =========                 |
  \\      /  F ield         | OpenFOAM: The Open Source CFD Toolbox
   \\    /   O peration     | Website:  https://openfoam.org
    \\  /    A nd           | Version:  13
     \\/     M anipulation  |
\*---------------------------------------------------------------------------*/
FoamFile
{
    format      ascii;
    class       volVectorField;
    location    "2.298089";
    object      U;
}
// * * * * * * * * * * * * * * * * * * * * * * * * * * * * * * * * * * * * * //

dimensions      [0 1 -1 0 0 0 0];

internalField   nonuniform List<vector> 
17140
(
(-4.8600486e-06 0.00021447667 3.5419327e-23)
(-6.1027528e-05 0.00065902153 3.9411361e-24)
(-0.00018168624 0.001143567 -2.5882104e-22)
(-0.00039214659 0.0016698929 2.8427249e-22)
(-0.00071471168 0.0022397327 -3.3197755e-23)
(-0.00118013 0.002854284 1.0870304e-22)
(-0.0018259472 0.0035140572 1.8289437e-22)
(-0.0026972386 0.0042186485 -8.8680787e-23)
(-0.0038478648 0.0049664741 -2.9049832e-22)
(-0.0053416438 0.0057544699 -7.110882e-22)
(-0.0072533994 0.0065777657 1.0489391e-21)
(-0.0096698306 0.0074293526 -9.3013532e-22)
(-0.012690061 0.0082997696 -1.4240604e-22)
(-0.01642568 0.0091768532 7.9112763e-22)
(-0.021000072 0.010045616 -8.7184974e-23)
(-0.026546811 0.010888325 6.7919269e-22)
(-0.033206943 0.011684897 -2.3912996e-23)
(-0.041125079 0.012413689 6.4919312e-24)
(-0.050444375 0.013052804 3.7895467e-22)
(-0.061300838 0.013581918 -4.7352772e-22)
(-0.073817699 0.01398455 2.2354611e-22)
(-0.088100985 0.014250505 -3.8382764e-23)
(-0.10423819 0.014377961 -2.8564432e-22)
(-0.12230336 0.014374498 2.7765452e-22)
(-0.14235928 0.014256465 4.2376563e-22)
(-0.16445813 0.014045996 -3.1838281e-22)
(-0.18868682 0.01376501 -1.5386758e-21)
(-0.21514598 0.013433129 -1.897624e-22)
(-0.2439343 0.013064664 1.4963422e-21)
(-0.27518506 0.012667437 3.6142173e-22)
(-0.30903153 0.012244091 1.250074e-21)
(-0.34560752 0.011792778 -1.5933497e-21)
(-0.38503514 0.011307457 4.3712399e-22)
(-0.42740713 0.010778145 1.9923256e-22)
(-0.47275772 0.010191889 2.142117e-21)
(-0.52102456 0.0095342749 -9.2628239e-22)
(-0.57201081 0.0087906722 1.535984e-21)
(-0.62535324 0.0079454556 1.1106566e-21)
(-0.6804837 0.0069745222 5.5124093e-22)
(-0.73651683 0.005825528 -1.7074745e-21)
(-0.79194079 0.0043936412 -3.4542452e-21)
(-0.84417475 0.0025268631 -3.2963493e-21)
(-0.88922595 8.7637181e-05 -1.4913543e-21)
(-0.9211251 -0.0029541206 7.5662408e-21)
(-0.93358305 -0.0064403323 5.488793e-21)
(-0.9149583 -0.010338239 -1.2635408e-21)
(-0.86265639 -0.014598401 7.8505074e-21)
(-0.76614449 -0.018600273 2.1032799e-21)
(-0.62491903 -0.021778816 -1.4491759e-21)
(-0.44100388 -0.023457069 -1.6714106e-21)
(-0.23073364 -0.022760503 4.4306778e-23)
(-0.016415154 -0.019696098 -4.5593067e-22)
(0.17601126 -0.014949428 1.5072791e-21)
(0.33196755 -0.01008705 7.4946851e-22)
(0.45142833 -0.0060284261 4.7139168e-22)
(0.54200943 -0.0031360594 -3.2938308e-22)
(0.61441339 -0.0012444379 6.6411811e-22)
(0.67685048 1.6865036e-05 4.5396325e-22)
(0.73378102 0.0010058087 8.7874704e-23)
(0.78591626 0.0019445419 -1.9213124e-22)
(0.83214415 0.0028966237 -1.1445499e-22)
(0.87060559 0.0038184285 -3.088231e-22)
(0.90096266 0.0046216573 -3.4038454e-23)
(0.92343149 0.0052615411 1.9446942e-22)
(0.94009441 0.0056982043 -1.1105773e-22)
(-4.7987388e-05 0.0011216328 -1.0372163e-23)
(-0.00019243759 0.0034470686 1.373743e-21)
(-0.00040822622 0.0059828026 -1.2224872e-21)
(-0.00072041021 0.008740053 3.3258627e-22)
(-0.0011513123 0.011728951 6.8753735e-22)
(-0.0017313811 0.014957151 -1.3132797e-21)
(-0.0024976229 0.018428974 1.3660456e-21)
(-0.003494291 0.022144254 -1.2001513e-22)
(-0.0047740791 0.026096972 3.7397233e-22)
(-0.0063992339 0.030273711 6.8002301e-24)
(-0.0084425518 0.034651967 1.2395721e-21)
(-0.010988206 0.039198394 -1.9553538e-21)
(-0.014132275 0.043867145 -1.6049572e-22)
(-0.017982791 0.048598487 1.5680139e-21)
(-0.022659129 0.053318053 -4.7377659e-22)
(-0.028290508 0.057937106 -2.965717e-22)
(-0.03501347 0.062354347 1.854023e-21)
(-0.042968218 0.066459835 -5.8878181e-21)
(-0.052293937 0.070141481 3.5819182e-21)
(-0.06312346 0.073294351 -4.1678468e-21)
(-0.075578012 0.075832395 5.9259541e-21)
(-0.089763048 0.077701251 -1.3928985e-21)
(-0.10576693 0.078889555 -5.4416512e-22)
(-0.12366572 0.079435093 1.7398035e-21)
(-0.1435262 0.079422284 -5.9344696e-21)
(-0.16540278 0.07896732 -8.9568134e-22)
(-0.18938453 0.07818813 4.208328e-21)
(-0.21557527 0.077191532 -4.6344225e-21)
(-0.24407325 0.076056986 5.4050494e-22)
(-0.27501179 0.074831369 5.9599206e-21)
(-0.30852293 0.073535675 -5.5544522e-22)
(-0.34473856 0.072169938 -4.7825396e-21)
(-0.38377844 0.070713523 -2.0818228e-22)
(-0.42573432 0.069121021 3.7107238e-21)
(-0.47064494 0.067320584 -4.2329026e-21)
(-0.51846444 0.065221162 2.040662e-21)
(-0.56902902 0.062726218 -2.3555505e-21)
(-0.62201709 0.05973405 -8.2861319e-21)
(-0.67687841 0.056092504 -2.0721781e-21)
(-0.73267401 0.051502051 -8.4657256e-21)
(-0.78774808 0.045428498 1.1204571e-20)
(-0.83934946 0.037129095 1.1173421e-20)
(-0.88348953 0.025876771 2.0719828e-21)
(-0.91445837 0.011143753 -1.6305348e-20)
(-0.9255284 -0.0076367497 7.8163037e-21)
(-0.90765394 -0.02915844 2.5010635e-21)
(-0.85342576 -0.052523844 -1.09504e-21)
(-0.75534928 -0.076412651 -3.0007206e-21)
(-0.61148936 -0.097124121 9.3661847e-22)
(-0.4242733 -0.1111065 -9.5950459e-22)
(-0.2104846 -0.11291715 -5.765775e-22)
(0.0066664907 -0.1025844 9.3445888e-23)
(0.19989537 -0.082777441 -9.8637939e-22)
(0.3544858 -0.061557216 2.1977758e-21)
(0.47087583 -0.043720492 -1.7129597e-21)
(0.55758021 -0.031377178 4.055382e-21)
(0.62604509 -0.023904958 9.2789686e-22)
(0.68489091 -0.019554255 -2.0895281e-21)
(0.73877608 -0.016520296 3.0376088e-22)
(0.78853343 -0.013582685 2.6398088e-22)
(0.83312344 -0.01027194 3.9171783e-23)
(0.87064908 -0.0067176147 -3.9493041e-22)
(0.90061979 -0.0033682216 5.8403394e-22)
(0.92303224 -0.00055926017 1.1226112e-22)
(0.9397914 0.0014397417 1.483208e-22)
(-0.00014054838 0.0020072517 -5.7812522e-22)
(-0.0004742959 0.0061699109 4.2683145e-22)
(-0.0008938219 0.010710334 1.1359686e-22)
(-0.0014235621 0.015649377 -1.0742105e-22)
(-0.0020858067 0.021005775 5.2128122e-22)
(-0.0029102552 0.026794015 3.9273435e-23)
(-0.0039326326 0.0330228 4.9478724e-22)
(-0.0051952855 0.039693005 5.3258964e-22)
(-0.00674824 0.046795256 -4.327854e-21)
(-0.0086501873 0.054307174 3.8498838e-21)
(-0.010969368 0.062190348 -1.8328853e-21)
(-0.013784313 0.070387168 -2.6729449e-21)
(-0.017184324 0.07881777 5.2528469e-21)
(-0.021269554 0.08737746 6.4691503e-22)
(-0.026150511 0.095935165 -2.4526382e-21)
(-0.031946821 0.10433366 -1.6618656e-21)
(-0.038785099 0.11239249 1.8883747e-21)
(-0.046795858 0.11991458 -6.6849483e-21)
(-0.056109536 0.12669753 3.8296113e-21)
(-0.066851958 0.13255002 -1.8467768e-21)
(-0.07913985 0.1373127 5.9768404e-21)
(-0.093077268 0.14088157 1.4961308e-21)
(-0.10875426 0.14322904 -2.9806163e-21)
(-0.12625092 0.14441634 4.3229906e-21)
(-0.14564251 0.14459035 1.6832274e-21)
(-0.16698761 0.14395889 -1.8202717e-21)
(-0.19038048 0.14273807 -1.0283964e-20)
(-0.21593224 0.14112355 -4.6606344e-21)
(-0.2437394 0.13926353 2.0488141e-21)
(-0.27393518 0.137247 -2.488543e-21)
(-0.30664918 0.13511477 1.2368015e-21)
(-0.34200953 0.13286988 8.1603986e-21)
(-0.38013159 0.13048031 -2.7642306e-21)
(-0.42110528 0.12787366 -8.7049419e-21)
(-0.46497735 0.12493434 2.6660418e-21)
(-0.51172906 0.12151278 4.2930175e-21)
(-0.56124596 0.11743803 -8.0053563e-21)
(-0.61326273 0.11249672 -2.8065684e-21)
(-0.6672538 0.10633938 4.8839425e-21)
(-0.72224298 0.098333103 2.0076612e-21)
(-0.77651959 0.087473797 -1.1034913e-20)
(-0.82734352 0.072494208 3.1936798e-21)
(-0.87081615 0.052211486 4.8640381e-21)
(-0.90133641 0.025779996 1.3881801e-20)
(-0.91174129 -0.0076705645 -2.6775491e-20)
(-0.89329819 -0.047342457 1.7113271e-20)
(-0.83707121 -0.091046137 3.7318457e-21)
(-0.73655201 -0.13539447 1.2266622e-20)
(-0.58920102 -0.17456614 9.5571429e-21)
(-0.39715103 -0.2015089 -1.6759859e-22)
(-0.1778636 -0.20586017 -2.7591849e-23)
(0.044447189 -0.18733496 -2.9078042e-21)
(0.24061104 -0.15084661 -2.411341e-21)
(0.3947248 -0.11166042 -2.8139661e-21)
(0.50739072 -0.079007644 -7.8343641e-22)
(0.58826447 -0.056865292 -5.3014211e-21)
(0.65011478 -0.04397467 1.6237708e-21)
(0.70249399 -0.036965116 -3.1561556e-22)
(0.75059853 -0.032426088 -2.6723372e-21)
(0.79559444 -0.028048779 -8.6413531e-22)
(0.83667489 -0.022883524 7.8494409e-22)
(0.87198329 -0.017079232 2.0582032e-21)
(0.90083683 -0.011412716 -5.027641e-22)
(0.92284898 -0.006529038 -5.4817393e-22)
(0.93959306 -0.0029795848 -1.8133271e-22)
(-0.00027918876 0.0028387542 2.0185508e-21)
(-0.00089649776 0.0087283467 -3.2083118e-21)
(-0.0016211844 0.015155391 1.1595834e-21)
(-0.002476741 0.022150443 -1.258125e-22)
(-0.003485389 0.029741077 2.4905163e-21)
(-0.0046756828 0.037949189 -2.5718147e-21)
(-0.0060814033 0.046788836 3.8991546e-21)
(-0.0077420138 0.056263389 -1.8266309e-21)
(-0.0097035151 0.066362155 -6.939059e-21)
(-0.012019238 0.077056491 1.6586419e-21)
(-0.014750554 0.088295513 6.3026592e-21)
(-0.01796748 0.10000154 -1.9093618e-21)
(-0.021749083 0.11206564 -1.2365167e-22)
(-0.026183585 0.12434368 4.9193543e-21)
(-0.031368029 0.13665377 -1.5185327e-20)
(-0.037407405 0.14877603 9.1717087e-21)
(-0.044413091 0.160456 8.6238806e-23)
(-0.052500595 0.17141321 -4.8653407e-21)
(-0.061786626 0.18135638 1.2031032e-20)
(-0.072385763 0.190006 -5.4949656e-21)
(-0.084407158 0.19712396 -7.9220854e-21)
(-0.097951927 0.20254729 -3.1272372e-21)
(-0.11311195 0.20621992 1.4695239e-20)
(-0.12997288 0.20821308 7.4453859e-21)
(-0.1486218 0.20872383 -4.4838075e-21)
(-0.16912527 0.20804594 2.6450222e-21)
(-0.19158527 0.20650117 -9.308231e-21)
(-0.21612264 0.20436847 2.6566443e-21)
(-0.24283325 0.20187076 -6.9637472e-21)
(-0.27185009 0.19914671 3.8103959e-21)
(-0.3033006 0.19626073 -2.5043855e-21)
(-0.33730952 0.1932217 8.8651904e-21)
(-0.37398943 0.18999099 -1.2144782e-21)
(-0.41343219 0.18647934 7.182279e-21)
(-0.45569814 0.18254344 -6.9867628e-21)
(-0.50080084 0.17798885 -2.6870971e-21)
(-0.54867669 0.17256813 3.0820975e-20)
(-0.59911776 0.16593491 8.8665951e-21)
(-0.65164835 0.15751963 -7.5807747e-21)
(-0.70533812 0.14637007 8.0012218e-21)
(-0.75855758 0.13107724 -2.503256e-21)
(-0.80868454 0.1098821 -1.461372e-20)
(-0.85178127 0.080942161 5.3819881e-22)
(-0.8818573 0.042606913 5.7383006e-21)
(-0.89114298 -0.0061376901 -3.4348909e-21)
(-0.87068638 -0.064273874 1.8835809e-21)
(-0.81160165 -0.12874951 4.0140386e-21)
(-0.70785616 -0.1943383 -4.4973469e-20)
(-0.55726318 -0.2529353 4.9848017e-21)
(-0.3614567 -0.29398982 -1.8963313e-21)
(-0.13866027 -0.3016547 4.3499066e-21)
(0.086526818 -0.27493977 3.3934261e-21)
(0.28461006 -0.22066842 4.1966903e-21)
(0.43839808 -0.1617105 4.3282628e-21)
(0.5483486 -0.11258028 3.7611247e-21)
(0.62448732 -0.079584008 5.0290237e-21)
(0.68034263 -0.06091849 -8.3749975e-21)
(0.72622648 -0.051410073 4.1235946e-21)
(0.76795287 -0.045830805 5.0274194e-21)
(0.80719729 -0.040633616 -2.7882411e-21)
(0.84361713 -0.034269208 -7.5282949e-22)
(0.87563052 -0.026790146 -5.2007277e-22)
(0.90252997 -0.019212778 1.7975754e-21)
(0.92356972 -0.012478389 8.9657892e-22)
(0.93995975 -0.0074628649 -5.4988627e-24)
(-0.00045686864 0.0035835036 -1.4976507e-21)
(-0.001437767 0.011022767 4.9673402e-21)
(-0.0025538398 0.019146136 -4.047574e-21)
(-0.0038274015 0.027993836 1.5286673e-21)
(-0.0052805963 0.037602487 5.5218772e-22)
(-0.0069405354 0.048002099 -4.7445848e-21)
(-0.0088385393 0.05921337 1.1973526e-21)
(-0.011010418 0.071244178 2.5412986e-21)
(-0.013497063 0.084085388 1.9357976e-22)
(-0.016344985 0.097705996 1.6453784e-21)
(-0.019606802 0.11204768 -2.2960725e-21)
(-0.023341641 0.12701895 1.5847172e-21)
(-0.027615429 0.14248923 5.8067161e-21)
(-0.032500993 0.15828349 1.7012859e-22)
(-0.038077896 0.17417827 -4.3346034e-21)
(-0.044431958 0.18990044 -3.0282378e-21)
(-0.051654389 0.20513024 2.5651243e-21)
(-0.059840534 0.21951073 -2.2981192e-22)
(-0.069088267 0.23266546 -4.7469136e-21)
(-0.07949621 0.24422594 -5.6430642e-21)
(-0.091162046 0.2538688 6.2237243e-21)
(-0.10418129 0.26135963 6.0237989e-21)
(-0.11864685 0.26659628 -7.7655923e-21)
(-0.13465093 0.26963981 9.2545393e-21)
(-0.15229113 0.27071905 1.5538846e-20)
(-0.17165502 0.27020071 -3.4857576e-20)
(-0.19284767 0.26851047 1.8462573e-20)
(-0.21599487 0.2660149 -2.6865701e-20)
(-0.24120728 0.26301928 3.2655582e-20)
(-0.26861034 0.25972229 -3.6041633e-20)
(-0.29833235 0.25621891 3.6998485e-20)
(-0.33049525 0.25252965 -5.98172e-21)
(-0.36521159 0.24861696 -2.1994766e-20)
(-0.40258 0.24438687 1.264487e-20)
(-0.44267858 0.23968238 -4.013732e-21)
(-0.48555361 0.2342774 -1.0378164e-21)
(-0.53119329 0.22785576 -1.6283748e-20)
(-0.57945714 0.21993814 -5.9327025e-21)
(-0.62994648 0.20973564 -6.8534089e-21)
(-0.68181127 0.19597302 -6.4298115e-21)
(-0.73346891 0.17679196 3.5135679e-20)
(-0.78221318 0.14982732 -1.6509176e-20)
(-0.8237201 0.11248142 -3.1931255e-21)
(-0.85141673 0.062347874 3.4553021e-20)
(-0.85689464 -0.0018636953 1.7702497e-20)
(-0.83099305 -0.078839982 -7.0709852e-21)
(-0.7657945 -0.16424009 -2.8338028e-20)
(-0.65713032 -0.25099936 7.5510066e-21)
(-0.50401141 -0.32933032 -2.4653757e-20)
(-0.30692694 -0.38532155 -7.7165196e-21)
(-0.085268658 -0.39713466 -1.3987054e-21)
(0.13635643 -0.36318954 2.8740759e-21)
(0.33049231 -0.29152657 -7.7978002e-21)
(0.47999896 -0.21232026 2.5033684e-21)
(0.58603505 -0.1458051 -4.7073256e-21)
(0.65850009 -0.10093028 -4.0529428e-21)
(0.71040851 -0.075696473 -9.5496687e-22)
(0.75168887 -0.063294635 -8.818486e-21)
(0.78819116 -0.0566851 -2.0186825e-21)
(0.82201237 -0.051009192 3.6252053e-21)
(0.85347444 -0.043997544 1.0031544e-21)
(0.88157011 -0.035448711 -6.0806941e-22)
(0.90584854 -0.026464682 -9.4811589e-22)
(0.92535844 -0.018210264 -9.7161743e-22)
(0.9410177 -0.011891634 4.4832915e-23)
(-0.00066279946 0.0042098757 -4.8394198e-21)
(-0.0020654398 0.012956516 -1.7077333e-21)
(-0.0036357268 0.022515571 1.3789087e-21)
(-0.0053946747 0.032936724 5.0949836e-21)
(-0.0073643727 0.04426575 -2.7902788e-21)
(-0.0095703208 0.056541502 4.010145e-21)
(-0.012041068 0.069792791 -1.732176e-21)
(-0.014808291 0.084034401 -4.1193981e-22)
(-0.017907076 0.099262295 2.3238391e-21)
(-0.021376164 0.11544798 4.9907069e-21)
(-0.025258153 0.13253211 2.5357862e-22)
(-0.02959965 0.15041743 -8.1181084e-21)
(-0.034451388 0.16896153 1.1156084e-20)
(-0.039868253 0.18796979 -1.7834412e-20)
(-0.045909254 0.20718978 4.6065033e-21)
(-0.052637406 0.22630828 -9.6660803e-21)
(-0.060119556 0.24495297 1.1467808e-20)
(-0.068426198 0.26270122 -7.2972993e-21)
(-0.077631341 0.27909852 1.1171411e-21)
(-0.087812533 0.29368884 4.4186994e-21)
(-0.099051152 0.30605755 -1.0433447e-20)
(-0.11143305 0.31588438 1.4208862e-20)
(-0.12504938 0.32299893 -1.4901825e-20)
(-0.13999799 0.32742505 -2.5720023e-21)
(-0.15638703 0.32939644 2.3405876e-20)
(-0.17432826 0.32932972 -2.2916866e-20)
(-0.19393051 0.32774039 1.4313104e-20)
(-0.21532858 0.32510022 -1.5866843e-20)
(-0.23865331 0.32180286 -1.8500163e-21)
(-0.26401972 0.31811922 -1.2273541e-21)
(-0.29155783 0.31418741 5.8753679e-21)
(-0.32138709 0.31004955 -6.6621009e-22)
(-0.35362191 0.30567869 2.3327945e-20)
(-0.38836711 0.30098614 -6.1352879e-21)
(-0.42571557 0.29581357 -2.0353503e-20)
(-0.46574272 0.28991828 9.6924636e-21)
(-0.50847871 0.28292958 -8.1696624e-21)
(-0.55383369 0.27424499 9.3036522e-21)
(-0.60145534 0.26285576 5.3666773e-20)
(-0.65049624 0.24713659 -3.1689517e-20)
(-0.69924829 0.22470046 -8.5057269e-21)
(-0.74463239 0.19243825 5.2315276e-20)
(-0.7815996 0.14685635 -2.0792918e-21)
(-0.80276585 0.084829726 -6.4255663e-21)
(-0.79925712 0.0050488502 -8.2764692e-20)
(-0.76254474 -0.090358991 -1.7997429e-20)
(-0.68716107 -0.19547859 2.7131933e-20)
(-0.57251297 -0.30192085 2.2633052e-20)
(-0.41907077 -0.39938402 2.4516898e-20)
(-0.22441503 -0.47069996 1.8540855e-20)
(-0.0096573129 -0.48731122 3.9575961e-21)
(0.20064496 -0.44754115 -2.423363e-21)
(0.38281402 -0.36021695 2.906148e-21)
(0.52129223 -0.26197387 -1.2364459e-20)
(0.61949707 -0.17881049 -2.5857171e-22)
(0.68751482 -0.1220641 -3.8841131e-22)
(0.73687511 -0.089714151 1.1682678e-22)
(0.77570152 -0.073720871 9.2058801e-21)
(0.80882991 -0.065594205 2.6989447e-21)
(0.83834279 -0.059339906 -3.3712487e-21)
(0.86524035 -0.051950191 -3.8423979e-21)
(0.88930211 -0.042817155 -1.319954e-21)
(0.91059562 -0.032927425 -3.5047118e-22)
(0.92816061 -0.023538791 1.2331151e-21)
(0.94276269 -0.016138882 -2.5362879e-22)
(-0.00088252623 0.0046896199 9.7182649e-22)
(-0.0027365845 0.014442672 3.0856391e-21)
(-0.0047926327 0.0251131 -7.4434682e-21)
(-0.0070714707 0.036759372 2.7523099e-22)
(-0.0095947787 0.049436391 3.6171104e-21)
(-0.012386454 0.063192445 1.5933328e-21)
(-0.015472221 0.078065907 1.1748218e-21)
(-0.018879491 0.094081003 -2.3095555e-21)
(-0.022637326 0.11124266 1.1926488e-20)
(-0.02677637 0.12953039 -8.9636666e-21)
(-0.031328715 0.14889115 4.3433256e-22)
(-0.036327771 0.16923138 5.3735236e-21)
(-0.041808112 0.1904084 -1.9957739e-20)
(-0.047805375 0.21222185 1.9716467e-20)
(-0.054356238 0.23440598 -2.5878245e-21)
(-0.061498557 0.25662436 -1.5855825e-20)
(-0.069271775 0.27846914 1.4655753e-20)
(-0.077717722 0.2994675 -4.9970111e-21)
(-0.086881924 0.31909864 9.5180084e-21)
(-0.096815535 0.33682443 -1.1887672e-20)
(-0.10757787 0.35213545 -2.1646336e-20)
(-0.11923935 0.36461126 2.0673384e-20)
(-0.1318843 0.37398772 2.9312793e-20)
(-0.1456127 0.38021722 -5.4339841e-20)
(-0.16054136 0.38350077 4.191711e-20)
(-0.17680399 0.38427086 -2.3500608e-20)
(-0.19452237 0.38311429 5.7507561e-21)
(-0.21384078 0.3806254 -1.3470643e-20)
(-0.23490792 0.37728321 1.3100476e-20)
(-0.25783626 0.3734484 1.7929851e-20)
(-0.28275201 0.36932343 -1.1498998e-20)
(-0.30977175 0.36498583 -2.0013269e-20)
(-0.33900709 0.36042901 1.5255266e-21)
(-0.37056201 0.35557806 5.8104546e-22)
(-0.40453466 0.35028655 1.3537757e-20)
(-0.44101063 0.34430893 -6.2948923e-21)
(-0.48002903 0.33723101 -2.4009821e-20)
(-0.52149599 0.32833277 -1.3284924e-20)
(-0.56501185 0.31636991 2.1187623e-20)
(-0.60957291 0.29930931 -1.7120764e-20)
(-0.65310565 0.27412874 1.6608919e-20)
(-0.69187416 0.23686019 -4.3000498e-21)
(-0.71990692 0.18309666 -2.3157602e-20)
(-0.72905419 0.10919853 6.2925446e-20)
(-0.71052194 0.014281085 3.6162542e-20)
(-0.65757166 -0.098058431 2.7317789e-20)
(-0.56875786 -0.21998525 -7.6521856e-20)
(-0.44850504 -0.34272306 -4.4220552e-20)
(-0.2984357 -0.45781987 -3.9026401e-20)
(-0.11129147 -0.54476637 -4.4043753e-20)
(0.090406488 -0.56716621 6.5224191e-21)
(0.28237561 -0.52315037 -2.2296966e-21)
(0.44481838 -0.42271085 3.0524215e-21)
(0.56540343 -0.30792733 1.5152388e-20)
(0.6511143 -0.21036235 1.0203362e-20)
(0.71266246 -0.14306035 3.4752503e-21)
(0.75957156 -0.10380049 8.7793112e-21)
(0.79717313 -0.083684177 -5.0669117e-21)
(0.8284064 -0.073342503 1.12207e-22)
(0.85481886 -0.0660704 5.20414e-21)
(0.87789272 -0.058269182 2.9243623e-21)
(0.89819834 -0.048842939 1.5159444e-22)
(0.91645091 -0.038465743 -2.3523535e-21)
(0.93184248 -0.028327059 8.2591884e-23)
(0.94515104 -0.020098262 -1.4146091e-22)
(-0.0010992133 0.0049995628 4.0740168e-21)
(-0.003399172 0.01540973 -2.7452554e-21)
(-0.0059354386 0.02681408 3.7059731e-21)
(-0.0087287834 0.039278979 2.1048876e-21)
(-0.01180051 0.052868057 -5.8671338e-21)
(-0.015173035 0.067639321 -5.4702662e-21)
(-0.018869431 0.08364189 5.6027657e-21)
(-0.022913073 0.10091178 -6.7436746e-22)
(-0.027327297 0.11946668 -1.5525254e-22)
(-0.032135001 0.13929966 -1.1004725e-20)
(-0.037358174 0.16037169 1.1975428e-21)
(-0.043017416 0.18260297 2.1963454e-20)
(-0.049131479 0.20586337 -1.7439302e-20)
(-0.055716909 0.22996229 5.9444281e-22)
(-0.062787889 0.25463882 1.146064e-20)
(-0.070356443 0.27955365 9.6871907e-22)
(-0.078433185 0.30428474 -2.4290099e-21)
(-0.087028846 0.32832986 -1.0728265e-20)
(-0.096156802 0.35111967 1.9232563e-20)
(-0.10583677 0.37204552 -3.2961241e-20)
(-0.11609964 0.3905051 6.8693717e-21)
(-0.12699306 0.40596674 -4.9280335e-21)
(-0.1385869 0.41804686 3.8187982e-21)
(-0.15097684 0.42658713 -2.3182182e-22)
(-0.16428478 0.4317084 2.1445625e-20)
(-0.17865629 0.43381437 2.0631238e-20)
(-0.1942454 0.43352795 -3.959225e-20)
(-0.21119588 0.4315546 -6.5324381e-21)
(-0.22966438 0.42849351 2.1729771e-20)
(-0.24978678 0.42479246 7.5512267e-21)
(-0.27166843 0.42074476 1.7957971e-20)
(-0.29542156 0.41648436 -1.9654579e-20)
(-0.32114387 0.41203542 -8.918121e-21)
(-0.34892608 0.40734598 2.0729342e-20)
(-0.37885032 0.40229 -8.8248291e-21)
(-0.41097647 0.39662655 -5.7710364e-21)
(-0.44529686 0.38990397 1.2934479e-20)
(-0.48162747 0.38128118 3.8130387e-20)
(-0.51939244 0.36925137 1.3256625e-20)
(-0.55725702 0.35130995 -8.7701082e-21)
(-0.59258738 0.32370868 -2.247289e-20)
(-0.62085524 0.28155624 -2.6081424e-20)
(-0.63524143 0.21960698 -3.1630783e-20)
(-0.62724074 0.13404229 -7.0114104e-20)
(-0.58894408 0.025022409 2.2778827e-22)
(-0.51640278 -0.10161869 -3.1435739e-20)
(-0.4130632 -0.23589623 1.6270018e-19)
(-0.28850648 -0.36970246 3.6112213e-20)
(-0.14511614 -0.4997968 3.6884226e-20)
(0.029149433 -0.60362445 6.6060048e-20)
(0.2123627 -0.63221015 -4.0149452e-20)
(0.38065938 -0.5858698 2.8617115e-21)
(0.51668058 -0.47541359 -2.972727e-21)
(0.61377651 -0.34752314 -1.0627225e-20)
(0.68324457 -0.23882328 -2.1978038e-21)
(0.7363367 -0.1632324 2.3484343e-21)
(0.78007155 -0.11799695 3.4185005e-21)
(0.81654628 -0.093645273 -1.1763677e-21)
(0.84648368 -0.0805101 1.5684804e-21)
(0.87061512 -0.071682931 -1.5340496e-21)
(0.89062415 -0.063237595 -3.2493114e-22)
(0.90766606 -0.053615102 -6.7434774e-22)
(0.92305945 -0.043040758 2.8500491e-21)
(0.93622675 -0.032486748 -1.0171076e-22)
(0.94810298 -0.023681138 5.4381958e-22)
(-0.0012941264 0.0051240655 -4.0431295e-21)
(-0.0039959298 0.015808909 -1.0818732e-21)
(-0.0069655529 0.027532642 1.1876691e-21)
(-0.010223744 0.040368245 5.8318346e-21)
(-0.013791536 0.054387197 -6.9856104e-21)
(-0.01769009 0.069656998 5.9218268e-21)
(-0.021940205 0.086238141 2.8252632e-21)
(-0.026561787 0.10418018 -1.5134752e-22)
(-0.031573231 0.12351678 -2.3705522e-21)
(-0.03699071 0.14425959 -1.3425844e-20)
(-0.04282738 0.1663908 2.2424278e-20)
(-0.049092539 0.18985426 -2.676765e-20)
(-0.055790803 0.21454526 7.7948544e-21)
(-0.062921391 0.24029915 1.0476948e-20)
(-0.070477666 0.26687951 -1.5865815e-20)
(-0.078447146 0.29396693 3.0810343e-20)
(-0.08681226 0.32115049 -3.6688686e-20)
(-0.095552184 0.34792482 -5.7366464e-22)
(-0.10464613 0.37369692 -2.0093415e-20)
(-0.11407841 0.39780758 7.7500517e-20)
(-0.12384528 0.41957239 -1.8174271e-20)
(-0.13396332 0.43834523 -7.2886126e-20)
(-0.14447803 0.45360209 3.316172e-20)
(-0.15547062 0.46503397 3.825602e-20)
(-0.16706014 0.47262645 -9.1966398e-21)
(-0.17939884 0.47669419 -4.7160855e-20)
(-0.19266059 0.47784207 6.8946598e-20)
(-0.20701284 0.47684245 -7.4637827e-20)
(-0.22260776 0.47444469 5.7521215e-20)
(-0.23959075 0.47121839 -1.0784484e-20)
(-0.25807097 0.46754379 1.8928765e-20)
(-0.2781332 0.46364044 2.7324666e-20)
(-0.29985416 0.45958318 -9.8861419e-21)
(-0.32328823 0.45535142 -2.1408531e-21)
(-0.34846987 0.45084091 -4.1414168e-20)
(-0.37538678 0.4458154 7.4187392e-21)
(-0.40391667 0.43978473 -2.2518955e-20)
(-0.43369017 0.43177956 2.1819791e-20)
(-0.46383519 0.42000937 -1.1205628e-20)
(-0.49256578 0.40146096 -9.5568608e-21)
(-0.51663543 0.37162608 -9.613625e-21)
(-0.53084778 0.32470956 -9.1775231e-21)
(-0.52797762 0.25477042 6.2310064e-20)
(-0.49992869 0.1581283 5.52145e-20)
(-0.44053235 0.036447839 -1.7479483e-20)
(-0.34892465 -0.10160563 1.1149018e-20)
(-0.23272842 -0.24345177 -3.6737575e-20)
(-0.10567146 -0.38233848 6.9881078e-20)
(0.029636177 -0.52308098 6.8536622e-20)
(0.18820784 -0.6420408 1.3231395e-20)
(0.35109163 -0.67961176 1.4164122e-20)
(0.49192014 -0.63262435 7.5595811e-22)
(0.5962353 -0.51556052 1.8198535e-21)
(0.66594977 -0.37875635 5.2420333e-21)
(0.71702892 -0.26282532 -4.0341408e-21)
(0.760453 -0.18169448 2.2104008e-22)
(0.8000887 -0.13184536 -4.9814949e-21)
(0.83476941 -0.10354597 5.8683299e-21)
(0.86321527 -0.087338916 -3.401518e-21)
(0.88538184 -0.076541753 6.2378619e-22)
(0.90291564 -0.067169461 3.7526036e-23)
(0.91723738 -0.057310663 4.5227576e-22)
(0.9300925 -0.046697958 7.9169216e-22)
(0.94112421 -0.035985775 -1.1597658e-21)
(0.95152335 -0.02682773 7.7987098e-22)
(-0.0014483246 0.0050573482 9.4724055e-21)
(-0.0044689343 0.015621183 6.5087585e-21)
(-0.0077829887 0.027233794 -1.0211202e-20)
(-0.011411162 0.039973007 2.682897e-22)
(-0.015374295 0.053916701 9.2110201e-21)
(-0.019692568 0.069140927 4.8084482e-21)
(-0.024385026 0.085717334 -1.0118609e-20)
(-0.029468921 0.10370977 1.6567986e-21)
(-0.034958878 0.12316992 -2.3305094e-20)
(-0.040865929 0.14413175 4.5256694e-21)
(-0.047196431 0.16660451 1.1739536e-22)
(-0.05395089 0.19056417 -1.6484058e-20)
(-0.061122751 0.21594308 5.2455928e-20)
(-0.068697252 0.24261792 -2.4242125e-20)
(-0.076650508 0.27039622 -4.2986738e-20)
(-0.084949061 0.29900233 4.5251873e-20)
(-0.093550256 0.32806444 -5.5130936e-21)
(-0.10240382 0.3571053 3.065048e-20)
(-0.11145525 0.38554063 2.2296136e-20)
(-0.1206515 0.41269092 -6.8515353e-20)
(-0.12994921 0.43781287 5.0076144e-20)
(-0.13932558 0.46015607 -6.4058077e-20)
(-0.1487903 0.47904653 7.2493787e-21)
(-0.15839667 0.4939907 -2.8934326e-20)
(-0.16824762 0.50478044 6.0687779e-20)
(-0.17849268 0.51156605 -1.3974541e-20)
(-0.18931424 0.51485848 -3.4445396e-20)
(-0.20090218 0.51543563 8.0853241e-20)
(-0.21342756 0.51416084 -3.4090181e-20)
(-0.22701959 0.51177491 -3.6802237e-20)
(-0.24178563 0.50879505 2.9918696e-20)
(-0.25779711 0.50553132 4.2961075e-21)
(-0.2750784 0.50211947 -2.0626458e-20)
(-0.29363231 0.49857817 1.1409177e-20)
(-0.3134107 0.49482979 -1.8597041e-20)
(-0.33428031 0.49063976 6.7100084e-20)
(-0.35593811 0.48547535 -3.7657972e-20)
(-0.37775114 0.47823905 -2.4607258e-20)
(-0.39847765 0.46686452 -5.5324964e-20)
(-0.41585828 0.44785636 -1.0405582e-20)
(-0.42615177 0.41601089 6.5385148e-20)
(-0.42385175 0.3647553 -2.8944038e-20)
(-0.40203587 0.28762534 -4.6096736e-20)
(-0.35395297 0.18120061 -6.0476439e-21)
(-0.27586475 0.04864128 5.6578791e-20)
(-0.1693804 -0.098507031 5.1283405e-20)
(-0.043928953 -0.24448075 -1.3993779e-19)
(0.08286884 -0.38324974 -6.4003664e-20)
(0.21166348 -0.52950107 -1.117739e-19)
(0.35529046 -0.66349208 -2.957571e-20)
(0.49897488 -0.71000894 -8.2388255e-21)
(0.61027949 -0.66197426 -2.1173304e-20)
(0.67959911 -0.54142539 1.5370666e-21)
(0.72023978 -0.40045122 -3.0580295e-21)
(0.75255951 -0.28152264 4.2756057e-21)
(0.78599709 -0.19770567 -6.1468703e-21)
(0.82071038 -0.14473691 1.6578316e-21)
(0.85260452 -0.11304481 -8.9124735e-21)
(0.87892663 -0.093807872 -3.9297007e-21)
(0.89908088 -0.080854379 9.5308888e-22)
(0.91451734 -0.070334225 1.3557429e-21)
(0.92660378 -0.060132122 1.7197767e-21)
(0.93728499 -0.04953146 -5.0469433e-23)
(0.94635363 -0.038834069 1.7241456e-22)
(0.9553044 -0.029503683 -9.6069065e-22)
(-0.0015447488 0.00480562 1.7821344e-22)
(-0.004765825 0.014863952 -1.2686508e-20)
(-0.0082970943 0.025945119 1.4942653e-20)
(-0.01215901 0.038129542 7.1811399e-21)
(-0.016372216 0.051499404 -1.4367297e-20)
(-0.020956157 0.066137534 -4.6447437e-21)
(-0.025928679 0.082125435 2.2478914e-20)
(-0.03130531 0.099540644 -2.4127129e-20)
(-0.037098288 0.11845324 -5.0711147e-21)
(-0.043315435 0.1389212 -2.0088275e-20)
(-0.049958858 0.16098438 5.3082378e-20)
(-0.057023509 0.18465675 6.3390903e-22)
(-0.064495613 0.20991661 -4.6979658e-20)
(-0.072351085 0.2366946 4.993939e-20)
(-0.080554039 0.2648594 -3.5322658e-20)
(-0.089055666 0.2942016 -1.2906867e-20)
(-0.097793811 0.32441663 2.6518453e-20)
(-0.10669378 0.35508911 -2.3444011e-20)
(-0.115671 0.38568198 -3.0534109e-20)
(-0.1246364 0.41553625 6.2716726e-22)
(-0.13350498 0.44388823 4.5616725e-20)
(-0.14220811 0.46991251 -2.7438561e-20)
(-0.15070848 0.49279639 1.4827938e-20)
(-0.15901576 0.5118456 6.9534802e-20)
(-0.1671986 0.52660814 2.2837123e-20)
(-0.17538671 0.53698693 -5.9651899e-20)
(-0.18376018 0.54330006 5.8449788e-21)
(-0.19252072 0.54623685 -6.4217814e-20)
(-0.20185555 0.54671171 3.6916868e-20)
(-0.2119 0.54560157 -1.969607e-20)
(-0.22275308 0.54362266 2.8115115e-20)
(-0.23445249 0.54123244 7.114083e-21)
(-0.24696264 0.53866217 -3.5585444e-20)
(-0.26020807 0.53597421 3.698324e-20)
(-0.27403037 0.53310188 5.862727e-20)
(-0.28813714 0.5298011 -3.0096243e-21)
(-0.30200164 0.52549699 -6.8222962e-20)
(-0.31468522 0.51898266 9.287079e-20)
(-0.32456268 0.50797 -2.0493751e-20)
(-0.32897138 0.48858873 4.9429269e-20)
(-0.32389892 0.45511886 -9.3414694e-21)
(-0.30398705 0.40045246 9.288233e-20)
(-0.26329714 0.31784828 4.8621053e-20)
(-0.1970176 0.20416766 7.0632183e-20)
(-0.10385259 0.063401068 -3.0631092e-19)
(0.013130035 -0.091228034 -9.9431376e-20)
(0.14286876 -0.23912966 1.1989376e-19)
(0.26545437 -0.37581996 -8.7406151e-20)
(0.3896715 -0.52286175 -5.9228716e-20)
(0.52322688 -0.66732223 5.1531244e-20)
(0.64728155 -0.72033405 1.6124702e-20)
(0.7288608 -0.67370143 1.4299474e-20)
(0.76203025 -0.55273086 1.868596e-21)
(0.7744947 -0.4124164 -3.3672082e-21)
(0.7893459 -0.29462195 -1.5536305e-21)
(0.81317233 -0.21076757 1.1044171e-22)
(0.84231386 -0.15611084 -1.0461489e-21)
(0.87042321 -0.12172831 3.4709783e-21)
(0.89390225 -0.099762692 -1.4018201e-21)
(0.91183657 -0.084699942 -2.1146543e-21)
(0.92537813 -0.072926339 -6.6986392e-22)
(0.9356021 -0.062266742 -2.5362e-21)
(0.94444838 -0.051656678 -1.6164412e-21)
(0.95176174 -0.041072774 -1.3096544e-22)
(0.95934589 -0.031699846 3.152804e-23)
(-0.0015705722 0.0043883774 -6.2398185e-21)
(-0.0048469717 0.013595173 -5.5187649e-21)
(-0.0084388999 0.023764161 1.1464492e-20)
(-0.012366327 0.034975683 -1.962422e-20)
(-0.016649557 0.047313516 -4.9009223e-21)
(-0.02130744 0.060864605 2.097495e-20)
(-0.026357084 0.075717787 -1.074031e-22)
(-0.031813158 0.091962067 1.2476764e-20)
(-0.037686881 0.1096842 -3.7138556e-21)
(-0.043984834 0.12896529 7.7875183e-23)
(-0.050707565 0.14987608 -1.9990187e-20)
(-0.057847979 0.17247058 -4.5513876e-21)
(-0.065389517 0.19677757 4.6066116e-21)
(-0.07330417 0.22278957 -1.7180006e-20)