/*--------------------------------*- C++ -*----------------------------------*\
  =========                 |
  \\      /  F ield         | OpenFOAM: The Open Source CFD Toolbox
   \\    /   O peration     | Website:  https://openfoam.org
    \\  /    A nd           | Version:  13
     \\/     M anipulation  |
\*---------------------------------------------------------------------------*/
FoamFile
{
    format      ascii;
    class       volVectorField;
    location    "12.002018";
    object      U;
}
// * * * * * * * * * * * * * * * * * * * * * * * * * * * * * * * * * * * * * //

dimensions      [0 1 -1 0 0 0 0];

internalField   nonuniform List<vector> 
17140
(
(-2.1234648e-06 7.4106433e-05 9.9805894e-24)
(-3.2988036e-05 0.00022903261 1.1192515e-24)
(-0.00010103385 0.00039854603 -7.3180679e-23)
(-0.00022086484 0.00058217381 8.0460237e-23)
(-0.00040574606 0.0007793545 -9.409682e-24)
(-0.00067378507 0.00098921962 3.0923503e-23)
(-0.0010473078 0.0012105613 5.2205013e-23)
(-0.0015533178 0.0014417827 -2.5250513e-23)
(-0.0022243887 0.0016808431 -8.331454e-23)
(-0.0030995428 0.0019252049 -2.0510664e-22)
(-0.0042251597 0.0021717842 3.0378733e-22)
(-0.0056558676 0.0024169139 -2.7123003e-22)
(-0.0074553778 0.0026563252 -4.2214968e-23)
(-0.0096971635 0.0028851577 2.3402586e-22)
(-0.012464874 0.0030980176 -2.6203405e-23)
(-0.015852341 0.0032890925 2.0569168e-22)
(-0.019963012 0.0034523548 -7.0761351e-24)
(-0.024908651 0.0035818631 2.3012221e-24)
(-0.030807152 0.003672188 1.207664e-22)
(-0.037779392 0.003718961 -1.5296726e-22)
(-0.045945188 0.0037195332 7.4387008e-23)
(-0.055418648 0.0036736837 -1.2526696e-23)
(-0.066303562 0.0035842522 -9.8883263e-23)
(-0.078689426 0.0034575135 9.9084884e-23)
(-0.092649296 0.0033030203 1.5540102e-22)
(-0.10824628 0.003132602 -1.1804147e-22)
(-0.12555251 0.0029584906 -5.8733447e-22)
(-0.14456521 0.0027926761 -7.6431019e-23)
(-0.16537111 0.002643693 5.9509415e-22)
(-0.18811239 0.0025122307 1.5002739e-22)
(-0.21281382 0.0024017835 5.2801878e-22)
(-0.23959019 0.002313831 -6.8235288e-22)
(-0.26856395 0.0022494704 1.9440993e-22)
(-0.29985664 0.0022118834 8.8312719e-23)
(-0.33359212 0.002206884 1.0049932e-21)
(-0.36988905 0.0022426213 -4.3849191e-22)
(-0.4088517 0.0023283228 7.5768027e-22)
(-0.45055962 0.0024727168 5.6552873e-22)
(-0.49505367 0.0026825367 2.9327456e-22)
(-0.54231817 0.0029613339 -9.2189213e-22)
(-0.59225851 0.0033087364 -1.9429024e-21)
(-0.64467455 0.0037198849 -1.9299313e-21)
(-0.69923201 0.0041847195 -9.0689996e-22)
(-0.75543456 0.0046874931 5.117822e-21)
(-0.81258289 0.005206064 4.1502305e-21)
(-0.86970403 0.0057122772 -1.108339e-21)
(-0.92566177 0.0061735015 8.1972408e-21)
(-0.97944523 0.0065376704 3.0406174e-21)
(-1.0296059 0.0067310499 -3.3358771e-21)
(-1.0744129 0.0066781494 -8.7095274e-21)
(-1.1120259 0.0062928129 5.6324707e-21)
(-1.1405304 0.0055182339 3.7001022e-21)
(-1.1570076 0.0045882882 -9.7357041e-21)
(-1.161882 0.0031804568 -4.5842487e-21)
(-1.1440591 0.00018488287 -3.1467907e-21)
(-1.1071354 -0.0035296064 2.3993502e-21)
(-1.0424255 -0.0073701568 -5.4624199e-21)
(-0.94461407 -0.012221399 -3.7611482e-21)
(-0.80564443 -0.017431093 -6.1933095e-22)
(-0.62072359 -0.022143862 1.0474889e-21)
(-0.40026357 -0.024352356 1.4969153e-22)
(-0.16702698 -0.02429472 -1.2221844e-21)
(0.061930687 -0.021141901 -2.9380327e-22)
(0.2516074 -0.016207198 2.5883986e-21)
(0.41515901 -0.01168074 -1.8655365e-21)
(-2.5557155e-05 0.00059540918 -2.9755389e-24)
(-0.00010469227 0.0018354238 3.8798218e-22)
(-0.00022504472 0.0031930841 -3.4582714e-22)
(-0.00040115091 0.0046744039 9.4069238e-23)
(-0.00064632901 0.006285068 1.9510788e-22)
(-0.0009785998 0.0080298058 -3.7375526e-22)
(-0.0014200985 0.0099120632 3.8944672e-22)
(-0.0019975124 0.011933555 -3.4328772e-23)
(-0.0027429457 0.014093716 1.0744353e-22)
(-0.0036947687 0.01638906 2.117124e-24)
(-0.004898497 0.018812457 3.5982565e-22)
(-0.0064076556 0.021352325 -5.7007524e-22)
(-0.0082845897 0.023991792 -4.7252519e-23)
(-0.010601128 0.026707843 4.651426e-22)
(-0.013438996 0.029470574 -1.4130208e-22)
(-0.016889838 0.03224265 -8.9465321e-23)
(-0.021054694 0.034979147 5.7123804e-22)
(-0.026042778 0.037627987 -1.8400005e-21)
(-0.031969404 0.040131248 1.1389604e-21)
(-0.038952989 0.042427598 -1.3550104e-21)
(-0.047111193 0.044456106 1.9673442e-21)
(-0.056556477 0.046161506 -4.7245507e-22)
(-0.067391668 0.047500708 -1.8854618e-22)
(-0.079706148 0.048449895 6.2424532e-22)
(-0.093573734 0.049010853 -2.1754662e-21)
(-0.1090587 0.049214451 -3.4435157e-22)
(-0.12623435 0.049119311 1.6062166e-21)
(-0.14510407 0.048808059 -1.8135872e-21)
(-0.16575062 0.048362007 2.0250396e-22)
(-0.18831436 0.047813807 2.4405015e-21)
(-0.21282623 0.047216447 -2.2532811e-22)
(-0.23939543 0.046611814 -2.0716567e-21)
(-0.26814435 0.046021855 -1.0518701e-22)
(-0.29919169 0.045459592 1.6931718e-21)
(-0.33265782 0.044931902 -1.9752051e-21)
(-0.36865672 0.044441608 9.8714271e-22)
(-0.4072865 0.043986971 -1.1397603e-21)
(-0.44861852 0.043559801 -4.1998676e-21)
(-0.49268297 0.043143275 -1.1024677e-21)
(-0.53945047 0.042710477 -4.617633e-21)
(-0.58880865 0.042223611 6.2945023e-21)
(-0.64053465 0.041633934 6.6338033e-21)
(-0.69426621 0.040881635 1.4074294e-21)
(-0.74947328 0.039893318 -1.065152e-20)
(-0.8054122 0.038582561 5.9631125e-21)
(-0.86105331 0.036878299 2.3364175e-21)
(-0.91523268 0.034783257 -1.2030486e-21)
(-0.96684746 0.032277679 -4.3292631e-21)
(-1.0143882 0.029172223 2.2769867e-21)
(-1.0560639 0.025390332 -4.4569909e-21)
(-1.0899695 0.020827843 -2.7950914e-20)
(-1.1140535 0.015345199 -1.3402401e-21)
(-1.1255182 0.0090488651 6.3174956e-21)
(-1.1210645 0.00084474169 -1.4119531e-20)
(-1.0973094 -0.009229515 1.1680351e-20)
(-1.0517942 -0.020637588 -3.109808e-20)
(-0.97822825 -0.034350001 -8.0599112e-21)
(-0.87102299 -0.050619815 1.7875289e-20)
(-0.72270583 -0.068756945 -2.4813925e-21)
(-0.52815616 -0.085159634 -1.3153589e-21)
(-0.29923571 -0.093161995 -1.3466978e-23)
(-0.060828447 -0.092504761 -1.3146708e-21)
(0.16776758 -0.08141142 4.8302093e-21)
(0.35760658 -0.065602911 1.4673925e-21)
(0.51929808 -0.050265954 2.4593982e-21)
(-7.759146e-05 0.0011075102 -1.6452354e-22)
(-0.00026377814 0.0034137852 1.2164849e-22)
(-0.00049999693 0.0059393789 3.2454806e-23)
(-0.00080062969 0.0086969178 -3.0669096e-23)
(-0.0011791141 0.011698437 1.4939854e-22)
(-0.0016532663 0.014954434 1.1464326e-23)
(-0.0022447771 0.018473253 1.4270494e-22)
(-0.0029796003 0.022260254 1.5427344e-22)
(-0.0038887527 0.026316782 -1.2537276e-21)
(-0.0050090927 0.030638962 1.1199532e-21)
(-0.0063841323 0.035216306 -5.3570735e-22)
(-0.0080648346 0.040030157 -7.8724155e-22)
(-0.010110368 0.045052013 1.5568191e-21)
(-0.012588733 0.050241822 1.9468892e-22)
(-0.015577164 0.055546389 -7.4015685e-22)
(-0.01916219 0.060898126 -5.0840336e-22)
(-0.023439209 0.066214442 5.857891e-22)
(-0.028511435 0.071398199 -2.1093414e-21)
(-0.034488077 0.076339733 1.2273382e-21)
(-0.041481694 0.080920994 -6.0727214e-22)
(-0.049604758 0.085022301 2.0022316e-21)
(-0.05896566 0.088532002 5.1448601e-22)
(-0.06966471 0.091358776 -1.046706e-21)
(-0.081790682 0.093445517 1.5618287e-21)
(-0.095418789 0.094782465 6.318634e-22)
(-0.1106156 0.095415745 -6.7824118e-22)
(-0.12745644 0.095447297 -3.9737735e-21)
(-0.14595922 0.095028157 -1.8611765e-21)
(-0.16619629 0.094313118 7.9903407e-22)
(-0.18830369 0.093370224 -1.0522831e-21)
(-0.21232748 0.092303532 4.9143878e-22)
(-0.23836226 0.091196915 3.534155e-21)
(-0.26652976 0.090093802 -1.2230157e-21)
(-0.29694123 0.089017515 -3.9997114e-21)
(-0.32970794 0.087975939 1.2062956e-21)
(-0.36493186 0.086966049 2.0590372e-21)
(-0.40269553 0.085974263 -3.952855e-21)
(-0.44305021 0.084974523 -1.4384204e-21)
(-0.48599997 0.083926046 2.5491336e-21)
(-0.53148183 0.082770999 1.0888173e-21)
(-0.57934226 0.081431909 -6.2051703e-21)
(-0.62930736 0.079814897 1.6381682e-21)
(-0.6809509 0.077810988 2.9526894e-21)
(-0.73367006 0.075286876 9.301257e-21)
(-0.78662844 0.072090509 -1.916632e-20)
(-0.83868695 0.068116173 1.3906171e-20)
(-0.88866949 0.063406948 4.191474e-21)
(-0.93527517 0.05795102 1.6795061e-20)
(-0.97688384 0.051457153 2.1864379e-20)
(-1.0116095 0.043830621 1.2759053e-21)
(-1.0374712 0.034941448 -5.6929714e-21)
(-1.0523244 0.02458399 4.0418047e-20)
(-1.0535056 0.012689935 1.7642253e-20)
(-1.0382055 -0.001502701 1.8157679e-20)
(-1.0037947 -0.018503268 5.8900991e-21)
(-0.94639836 -0.038105341 4.2165522e-20)
(-0.86178916 -0.061149226 -1.5508631e-20)
(-0.74455324 -0.088575919 3.5661253e-21)
(-0.58691743 -0.11948027 2.248201e-20)
(-0.38336553 -0.14735232 5.185828e-21)
(-0.14793242 -0.16031471 -1.387865e-21)
(0.091298865 -0.15751791 6.5680409e-21)
(0.31370901 -0.13781471 -4.1137002e-21)
(0.49697208 -0.11099598 -6.9081977e-21)
(0.64775384 -0.084064042 -2.7901692e-21)
(-0.00015678209 0.0015938634 5.8408178e-22)
(-0.0005058672 0.0049135008 -9.2964433e-22)
(-0.00091836589 0.008549967 3.3640329e-22)
(-0.001408437 0.012522507 -3.6511086e-23)
(-0.0019897129 0.016849581 7.252919e-22)
(-0.0026797111 0.02154766 -7.4979951e-22)
(-0.0034994576 0.026630345 1.1407584e-21)
(-0.0044737998 0.032107182 -5.3461202e-22)
(-0.0056321075 0.037982194 -2.0422562e-21)
(-0.0070089405 0.044252143 4.8904463e-22)
(-0.008644756 0.050904517 1.8723476e-21)
(-0.0105866 0.057915247 -5.6949921e-22)
(-0.012888774 0.065246225 -3.6224421e-23)
(-0.015613389 0.072842731 1.4957019e-21)
(-0.018830758 0.080630968 -4.6589528e-21)
(-0.02261949 0.088516004 2.8464761e-21)
(-0.027066209 0.096380575 2.7669268e-23)
(-0.032264738 0.10408532 -1.5576484e-21)
(-0.038314672 0.11147123 3.9234906e-21)
(-0.045319245 0.11836504 -1.8255573e-21)
(-0.053382532 0.12458859 -2.6943522e-21)
(-0.062606178 0.12997239 -1.0954154e-21)
(-0.073086067 0.13437347 5.2452024e-21)
(-0.084909448 0.137696 2.7357882e-21)
(-0.098153151 0.13991166 -1.6668439e-21)
(-0.11288695 0.14107419 1.0273355e-21)
(-0.12918872 0.14132202 -3.6357698e-21)
(-0.14709879 0.14086903 1.0655814e-21)
(-0.16667306 0.13994347 -2.8392717e-21)
(-0.18804216 0.13865564 1.5775123e-21)
(-0.21127659 0.13716119 -1.0838291e-21)
(-0.23644698 0.13558792 3.8827686e-21)
(-0.26367371 0.13400202 -5.3250948e-22)
(-0.2930562 0.13243798 3.3197086e-21)
(-0.32469119 0.13090479 -3.288408e-21)
(-0.35866194 0.12939292 -1.3483742e-21)
(-0.39502677 0.12787612 1.5226898e-20)
(-0.43380533 0.12630964 4.5378915e-21)
(-0.47496176 0.1246258 -3.924402e-21)
(-0.51838284 0.12273351 4.2414409e-21)
(-0.56385277 0.12051775 -1.3187468e-21)
(-0.61102401 0.11783757 -8.425909e-21)
(-0.65938022 0.1145323 3.9214543e-22)
(-0.70821527 0.11041103 3.8060548e-21)
(-0.75656058 0.10526395 -1.5534469e-21)
(-0.80315227 0.098976549 1.6645588e-21)
(-0.84688299 0.091589085 3.7923391e-21)
(-0.88618866 0.083109834 -5.7201519e-20)
(-0.91939815 0.073189636 6.8058243e-21)
(-0.94466221 0.061735428 -6.8691267e-21)
(-0.9601202 0.048619867 6.8609869e-20)
(-0.96381926 0.03360435 -3.9067293e-20)
(-0.95345712 0.016464509 -3.3191041e-20)
(-0.92652761 -0.0035961597 -3.1700486e-20)
(-0.88043408 -0.027049637 -2.9803838e-20)
(-0.81182375 -0.054009078 -4.3654783e-20)
(-0.71733661 -0.085677817 7.9108042e-20)
(-0.59171977 -0.1236434 -4.0673112e-20)
(-0.42696096 -0.16709178 -4.4429074e-20)
(-0.21702056 -0.20616368 1.9382226e-20)
(0.019424703 -0.22299564 1.6034244e-21)
(0.25076925 -0.2167599 -2.3404077e-21)
(0.45862829 -0.18803753 1.2381518e-20)
(0.62397719 -0.15012329 1.0647303e-20)
(0.75232922 -0.11199626 -1.9040709e-22)
(-0.00025981549 0.0020377304 -4.4301131e-22)
(-0.0008208927 0.006283263 1.4715089e-21)
(-0.0014628317 0.010936024 -1.2002493e-21)
(-0.0021995383 0.016021813 4.5390298e-22)
(-0.0030449293 0.021565534 1.6435761e-22)
(-0.0040161735 0.027589848 -1.4142417e-21)
(-0.0051334751 0.03411405 3.5689551e-22)
(-0.006420292 0.041152589 7.6081001e-22)
(-0.0079039027 0.048713217 5.7959368e-23)
(-0.0096159312 0.056794799 4.9636462e-22)
(-0.011592911 0.065384726 -6.9630937e-22)
(-0.013876837 0.074455979 4.8313833e-22)
(-0.0165157 0.083963878 1.7854568e-21)
(-0.019563949 0.093842652 5.4840134e-23)
(-0.023082834 0.10400207 -1.3547844e-21)
(-0.027140547 0.11432446 -9.5885211e-22)
(-0.031812077 0.12466276 8.2553326e-22)
(-0.037178704 0.13484016 -7.2817769e-23)
(-0.043327031 0.14465252 -1.5770675e-21)
(-0.050347511 0.15387455 -1.9185329e-21)
(-0.058332488 0.16227092 2.1600989e-21)
(-0.067373862 0.16961316 2.1397407e-21)
(-0.077560697 0.17570247 -2.8215974e-21)
(-0.08897718 0.18039692 3.4491776e-21)
(-0.10170126 0.18363936 5.9521578e-21)
(-0.11580624 0.1854794 -1.3597429e-20)
(-0.13137217 0.18608085 7.3296674e-21)
(-0.1484674 0.18571042 -1.0892493e-20)
(-0.16712392 0.1846687 1.3448239e-20)
(-0.18747303 0.18311913 -1.5188962e-20)
(-0.20962329 0.18126554 1.5950732e-20)
(-0.23360717 0.17928255 -2.6023509e-21)
(-0.25954168 0.17726311 -9.941089e-21)
(-0.2875109 0.1752545 5.8329456e-21)
(-0.31759267 0.17326738 -1.876876e-21)
(-0.34984552 0.17128512 -4.7955376e-22)
(-0.38429561 0.16926681 -8.0804276e-21)
(-0.42092085 0.16714578 -3.0922669e-21)
(-0.45963488 0.16482814 -3.5859929e-21)
(-0.5002661 0.16218935 -3.4683679e-21)
(-0.54252204 0.15907304 1.9156475e-20)
(-0.58596212 0.15529217 -9.2074899e-21)
(-0.62997135 0.15063405 -2.1231963e-21)
(-0.67372764 0.14484991 2.1031392e-20)
(-0.71611521 0.13767783 1.2232339e-20)
(-0.75579714 0.12902149 -6.3314369e-21)
(-0.79170863 0.1189895 -2.5992474e-20)
(-0.82219939 0.10748288 1.2026503e-20)
(-0.84556961 0.094198783 -3.8100339e-20)
(-0.86018431 0.079074079 -2.245116e-20)
(-0.86441096 0.061982595 -3.3019314e-20)
(-0.85656854 0.042645953 -9.2881694e-20)
(-0.83469815 0.020718893 7.3534812e-20)
(-0.7965204 -0.0046536623 -2.4730165e-20)
(-0.73939153 -0.034117076 4.0895313e-20)
(-0.66028619 -0.067895961 3.7009664e-20)
(-0.55647034 -0.10740884 1.3521925e-20)
(-0.42300943 -0.15523829 9.7744873e-20)
(-0.25175234 -0.2108882 1.8710002e-20)
(-0.03705428 -0.26009624 -2.4455162e-20)
(0.19356252 -0.27918724 -3.5799671e-21)
(0.40919216 -0.26829215 -2.3353742e-21)
(0.59287733 -0.2303601 -7.7677492e-21)
(0.73008416 -0.1816869 -1.093265e-20)
(0.82820092 -0.13369692 8.8591023e-22)
(-0.00038150843 0.0024230708 -1.4682064e-21)
(-0.0011930811 0.0074738404 -5.1934387e-22)
(-0.0021062233 0.013012211 4.187266e-22)
(-0.0031346046 0.019070366 1.5512427e-21)
(-0.0042925298 0.025679589 -8.5118989e-22)
(-0.0055968238 0.032868907 1.2251062e-21)
(-0.0070667981 0.040663773 -5.3031441e-22)
(-0.0087243575 0.049084355 -1.2659165e-22)
(-0.01059441 0.058143403 7.1563996e-22)
(-0.012705218 0.067843672 1.5434674e-21)
(-0.015088791 0.078174885 8.0443973e-23)
(-0.017781255 0.08911021 -2.5351395e-21)
(-0.020823231 0.10060232 3.5109144e-21)
(-0.024260159 0.11257916 -5.655465e-21)
(-0.028142562 0.12493961 1.4743714e-21)
(-0.032526193 0.13754958 -3.136517e-21)
(-0.03747203 0.1502389 3.7663142e-21)
(-0.043046065 0.16280018 -2.4375638e-21)
(-0.049318842 0.17499057 3.7664852e-22)
(-0.056364726 0.18653783 1.5284293e-21)
(-0.064260895 0.19715243 -3.6956389e-21)
(-0.073086159 0.20654669 5.1438799e-21)
(-0.082919725 0.21446162 -5.5255908e-21)
(-0.09384026 0.22070017 -9.9137352e-22)
(-0.10592524 0.22516282 9.1098542e-21)
(-0.11925094 0.22787807 -9.1276138e-21)
(-0.13389861 0.22901657 5.7905633e-21)
(-0.14996602 0.22887744 -6.5510716e-21)
(-0.16746431 0.22783461 -8.2739563e-22)
(-0.18653277 0.22617326 -5.6275377e-22)
(-0.20731764 0.22407563 2.5431349e-21)
(-0.22980669 0.2217652 -3.2717495e-22)
(-0.25411274 0.21938209 1.0625799e-20)
(-0.28030283 0.21699034 -2.8133574e-21)
(-0.30843174 0.21460383 -9.6908739e-21)
(-0.3385273 0.212197 4.6873556e-21)
(-0.37057617 0.20971196 -4.0052075e-21)
(-0.40451203 0.20706179 4.6557013e-21)
(-0.4401944 0.20412592 2.7638968e-20)
(-0.47737931 0.20074313 -1.6600154e-20)
(-0.51569072 0.19671271 -4.6640685e-21)
(-0.55459293 0.1918045 2.8854516e-20)
(-0.59337108 0.18575662 -1.0352854e-21)
(-0.63109407 0.1782625 -3.6043399e-21)
(-0.66651845 0.16902206 -5.0914062e-20)
(-0.69839631 0.15800519 -1.2911247e-20)
(-0.72552268 0.14540229 2.2399548e-20)
(-0.74639642 0.13095291 2.4616442e-20)
(-0.75939104 0.11448441 3.8087177e-20)
(-0.76316253 0.09596765 5.1189662e-20)
(-0.75633457 0.075270038 3.3511306e-20)
(-0.7374952 0.052048927 5.2842096e-20)
(-0.70491019 0.025792726 -1.8498464e-20)
(-0.65632531 -0.0044770765 1.1713154e-19)
(-0.58890754 -0.03947825 8.4260159e-21)
(-0.49978665 -0.079435854 6.175383e-21)
(-0.38673487 -0.12602053 4.1401192e-21)
(-0.24484675 -0.18285842 -1.0880008e-19)
(-0.065931741 -0.24973859 -3.2392773e-20)
(0.15068796 -0.30760181 3.2018527e-20)
(0.36887116 -0.32670253 1.7769795e-20)
(0.56054784 -0.30990308 -8.8130638e-22)
(0.71120935 -0.26274165 -2.31017e-21)
(0.81309592 -0.20445668 1.2486752e-20)
(0.87815219 -0.14888974 -3.0849209e-21)
(-0.00051486318 0.0027352038 3.0292471e-22)
(-0.0016012606 0.0084400652 9.6331464e-22)
(-0.0028119628 0.014700119 -2.32583e-21)
(-0.0041606473 0.021553577 8.561159e-23)
(-0.0056620466 0.029037925 1.132632e-21)
(-0.0073327141 0.037188639 4.999271e-22)
(-0.0091910942 0.046037741 3.6948151e-22)
(-0.011257519 0.05561195 -7.2791846e-22)
(-0.013554441 0.06593036 3.7711676e-21)
(-0.016106595 0.077001613 -2.8427413e-21)
(-0.018941192 0.088820507 1.3922109e-22)
(-0.022088085 0.10136403 1.7230603e-21)
(-0.025579949 0.11458684 -6.4383281e-21)
(-0.029452427 0.12841627 6.4118923e-21)
(-0.033744269 0.14274711 -8.4676418e-22)
(-0.038497442 0.15743659 -5.2665521e-21)
(-0.0437572 0.17230007 4.9323449e-21)
(-0.04957213 0.18710852 -1.7035879e-21)
(-0.055994164 0.20158903 3.3107499e-21)
(-0.063078582 0.21543002 -4.2145714e-21)
(-0.070884026 0.22829294 -7.8418504e-21)
(-0.079472564 0.23983242 7.6526317e-21)
(-0.088909876 0.24972585 1.1120783e-20)
(-0.099265608 0.25771159 -2.1088719e-20)
(-0.11061386 0.2636322 1.6639732e-20)
(-0.12303332 0.26747439 -9.5395807e-21)
(-0.13660954 0.26939279 2.3647168e-21)
(-0.15144552 0.26970272 -5.6563636e-21)
(-0.167604 0.26884284 5.523466e-21)
(-0.1851753 0.2672351 7.7538676e-21)
(-0.20429588 0.26503317 -5.0316057e-21)
(-0.22501214 0.26250641 -9.0522264e-21)
(-0.24737622 0.25985608 6.7459122e-22)
(-0.27144965 0.2571646 2.5340529e-22)
(-0.29725755 0.25445147 6.4561124e-21)
(-0.32479272 0.25168203 -3.0629311e-21)
(-0.35400361 0.24878468 -1.1912934e-20)
(-0.38477674 0.2456516 -6.7826032e-21)
(-0.41690882 0.24212954 1.0811934e-20)
(-0.4500818 0.23801894 -8.7501559e-21)
(-0.48383766 0.23307964 8.7552476e-21)
(-0.51755159 0.22703976 -2.3712884e-21)
(-0.55042005 0.21959273 -1.3034373e-20)
(-0.58142809 0.21038801 3.4692329e-20)
(-0.6092525 0.19912141 2.2227793e-20)
(-0.63282296 0.18581346 1.6030274e-20)
(-0.65082698 0.17071231 -5.7502813e-20)
(-0.66193851 0.15351436 -4.0147426e-20)
(-0.66473182 0.13412449 -5.0921748e-20)
(-0.65815064 0.11256179 -9.5343207e-20)
(-0.64105052 0.088660689 3.6041929e-20)
(-0.61219598 0.061986928 -7.3041267e-21)
(-0.56990808 0.031829341 -6.2721266e-20)
(-0.51177805 -0.0029881959 -1.8572692e-19)
(-0.43464974 -0.04325801 -1.2037757e-19)
(-0.33570156 -0.088959665 -4.4913243e-20)
(-0.21304869 -0.14200255 -1.1781541e-19)
(-0.061473108 -0.20708853 7.0276917e-20)
(0.12628935 -0.2835913 -7.4802065e-21)
(0.33925293 -0.34679309 -5.3891018e-20)
(0.53939671 -0.36327411 -1.5282699e-20)
(0.69884707 -0.3400801 7.8688811e-22)
(0.80989128 -0.2845018 -8.8504849e-21)
(0.87357058 -0.21871482 -4.6021077e-22)
(0.9078659 -0.15841666 -1.3468311e-21)
(-0.00065137836 0.002961889 1.3054991e-21)
(-0.0020197206 0.0091440561 -8.8090885e-22)
(-0.003535571 0.015933777 1.1902058e-21)
(-0.0052131718 0.023374683 6.7690683e-22)
(-0.0070676229 0.031510141 -1.8884906e-21)
(-0.0091153418 0.040381994 -1.763875e-21)
(-0.011374033 0.050029096 1.8093583e-21)
(-0.013862592 0.060485437 -2.1871516e-22)
(-0.016601143 0.071777743 -5.0613297e-23)
(-0.019611019 0.083922533 -3.5863684e-21)
(-0.022914736 0.09692253 3.897909e-22)
(-0.02653594 0.1107624 7.2236551e-21)
(-0.030499355 0.12540379 -5.7733761e-21)
(-0.034830716 0.14077974 1.9664699e-22)
(-0.039556733 0.15678862 3.8585001e-21)
(-0.04470508 0.17328797 3.2921179e-22)
(-0.050304469 0.19008887 -8.3706249e-22)
(-0.056384852 0.20695167 -3.7528946e-21)
(-0.062977803 0.22358462 6.845147e-21)
(-0.07011717 0.2396471 -1.1963832e-20)
(-0.077840052 0.25475983 2.5394378e-21)
(-0.086188159 0.26852423 -1.8697063e-21)
(-0.095209546 0.28055301 1.4714999e-21)
(-0.1049606 0.29051188 -9.884093e-23)
(-0.11550803 0.29816963 8.6930575e-21)
(-0.12693019 0.30344846 8.5212416e-21)
(-0.13931696 0.30646092 -1.6684234e-20)
(-0.15277249 0.30751573 -2.8038083e-21)
(-0.16741247 0.30707881 9.3856719e-21)
(-0.18326744 0.30566069 3.2850649e-21)
(-0.20047817 0.3035643 8.0733456e-21)
(-0.21917261 0.30098987 -8.9619305e-21)
(-0.23932129 0.29819498 -4.1517331e-21)
(-0.26098033 0.29530926 9.7657462e-21)
(-0.28414228 0.29236082 -4.1988142e-21)
(-0.30876809 0.28931244 -2.9009557e-21)
(-0.33476728 0.28607941 6.3218269e-21)
(-0.36197396 0.28252758 1.905074e-20)
(-0.39012258 0.27847109 6.7260602e-21)
(-0.41882621 0.27367429 -4.366601e-21)
(-0.44755281 0.26785909 -1.1620652e-20)
(-0.47560361 0.26071617 -1.3652133e-20)
(-0.50210967 0.25190081 -1.6626916e-20)
(-0.52599767 0.24103201 -3.7934162e-20)
(-0.54594476 0.22783194 1.8471164e-21)
(-0.56105794 0.21238981 -1.8060203e-20)
(-0.57002657 0.19495901 1.1801174e-19)
(-0.57167364 0.17526133 3.5657777e-20)
(-0.56483039 0.15327716 4.2900824e-20)
(-0.54866504 0.12905475 1.2846084e-19)
(-0.52216815 0.10236595 -1.6035674e-19)
(-0.48412803 0.072653808 3.7455261e-20)
(-0.4328033 0.038975725 1.2406803e-19)
(-0.36554315 -9.2276882e-05 1.5317223e-19)
(-0.27870755 -0.045322735 1.8505066e-20)
(-0.16959045 -0.096413249 -4.7379337e-20)
(-0.036961237 -0.15553325 -6.9281669e-20)
(0.12486939 -0.22821865 2.7052115e-20)
(0.31971463 -0.31139412 -3.651725e-20)
(0.52446783 -0.37757994 1.5126352e-20)
(0.69893348 -0.38981988 3.145576e-21)
(0.81860931 -0.35829308 1.9838871e-21)
(0.88715774 -0.29576671 8.939999e-21)
(0.91452459 -0.2253571 -1.7600291e-21)
(0.92425164 -0.16331798 7.0215497e-21)
(-0.00078170356 0.0030942787 -1.3316556e-21)
(-0.0024194572 0.0095583713 -3.5688905e-22)
(-0.0042271396 0.016665048 3.9187386e-22)
(-0.0062196315 0.024462631 1.9266151e-21)
(-0.0084125119 0.032999794 -2.3104974e-21)
(-0.010822216 0.042324425 1.9613841e-21)
(-0.013465914 0.052482237 9.3780453e-22)
(-0.016361329 0.063514955 -5.0008205e-23)
(-0.019526593 0.075457979 -7.9007169e-22)
(-0.022980044 0.088337469 -4.4916229e-21)
(-0.026739983 0.10216673 7.5323185e-21)
(-0.030824397 0.11694186 -9.0359628e-21)
(-0.035250656 0.13263651 2.6460555e-21)
(-0.040035206 0.14919591 3.584531e-21)
(-0.045193289 0.1665301 -5.4763338e-21)
(-0.050738755 0.18450675 1.0746774e-20)
(-0.056684013 0.20294406 -1.2958468e-20)
(-0.063040244 0.22160454 -2.0893026e-22)
(-0.06981799 0.24019122 -7.3221056e-21)
(-0.077028258 0.258348 2.8743052e-20)
(-0.084684291 0.27566683 -6.8734015e-21)
(-0.092804105 0.29170457 -2.8184851e-20)
(-0.10141377 0.30601222 1.3099953e-20)
(-0.11055127 0.31817797 1.545845e-20)
(-0.1202703 0.32788232 -3.7937317e-21)
(-0.13064328 0.33495839 -1.989785e-20)
(-0.14176168 0.33944339 2.9568839e-20)
(-0.1537331 0.34160085 -3.253344e-20)
(-0.16667903 0.34189145 2.5370346e-20)
(-0.18068869 0.34088635 -4.8013083e-21)
(-0.19583446 0.33908661 8.5562601e-21)
(-0.21224094 0.33669984 1.2562687e-20)
(-0.22994888 0.33392671 -4.5595021e-21)
(-0.24893591 0.33097294 -9.6279561e-22)
(-0.26918359 0.32790382 -1.9845743e-20)
(-0.29061426 0.32468467 3.5231154e-21)
(-0.31309609 0.32121429 -1.1083999e-20)
(-0.33641155 0.31733189 1.0893915e-20)
(-0.36023884 0.31282055 -5.584794e-21)
(-0.38413089 0.30741072 -4.7972991e-21)
(-0.40749475 0.30078998 -4.7418807e-21)
(-0.42957869 0.29261731 -4.6022114e-21)
(-0.44947577 0.28251781 3.1947278e-20)
(-0.46607308 0.27009014 2.9030627e-20)
(-0.47818207 0.25510021 -7.7414359e-21)
(-0.48491924 0.23775767 6.704267e-21)
(-0.48517029 0.21822882 -2.6037132e-20)
(-0.47783269 0.19633504 5.9440206e-20)
(-0.4619829 0.1721127 7.4803367e-20)
(-0.43688379 0.14561631 2.374616e-20)
(-0.40152914 0.1165366 6.3282692e-20)
(-0.35461102 0.084196105 -2.1584195e-21)
(-0.2942852 0.047391895 -3.2295614e-20)
(-0.21753553 0.0043964858 -1.6318241e-19)
(-0.1204578 -0.045577818 8.0824875e-20)
(-0.00091490886 -0.10160657 -3.2191854e-20)
(0.14090397 -0.16633527 7.8832376e-20)
(0.31196971 -0.24565594 -1.1285048e-19)
(0.51068188 -0.33291531 4.8343118e-20)
(0.69961431 -0.3978752 -1.0879782e-20)
(0.84102005 -0.40187208 1.0170021e-21)
(0.91699216 -0.36454646 2.9157695e-22)
(0.94360728 -0.29783864 -8.4972412e-22)
(0.94067201 -0.22608086 -7.5044346e-21)
(0.93393399 -0.16492962 8.2935272e-21)
(-0.00089595758 0.003127624 3.2049321e-21)
(-0.0027701886 0.0096680367 2.2051451e-21)
(-0.0048342975 0.0168673 -3.4615339e-21)
(-0.0071038299 0.024777462 9.1127803e-23)
(-0.0095949285 0.033451674 3.1291103e-21)
(-0.012324207 0.042943251 1.6362105e-21)
(-0.015308555 0.053304443 -3.446991e-21)
(-0.018564889 0.064584786 5.6631004e-22)
(-0.022109848 0.076828964 -7.9782155e-21)
(-0.025959421 0.090074072 1.5538676e-21)
(-0.030128512 0.10434617 4.0643057e-23)
(-0.03463044 0.11965602 -5.7126665e-21)
(-0.039476391 0.13599385 1.8281175e-20)
(-0.044674847 0.15332319 -8.5072125e-21)
(-0.050231031 0.17157369 -1.5215672e-20)
(-0.056146446 0.19063306 1.6175497e-20)
(-0.062418594 0.21033863 -1.997923e-21)
(-0.069041025 0.23046913 1.1236541e-20)
(-0.076003895 0.25073805 8.3014615e-21)
(-0.083295256 0.27079037 -2.5962714e-20)
(-0.090903307 0.29020548 1.9338952e-20)
(-0.098819825 0.30850943 -2.5267828e-20)
(-0.10704482 0.32520034 2.9193094e-21)
(-0.11559225 0.33978968 -1.1912255e-20)
(-0.12449605 0.35185956 2.551328e-20)
(-0.13381534 0.36113119 -6.0061341e-21)
(-0.14363663 0.36753155 -1.5055486e-20)
(-0.15407065 0.37123697 3.5844484e-20)
(-0.16524298 0.37266711 -1.526681e-20)
(-0.1772767 0.3724121 -1.6664528e-20)
(-0.19024929 0.37107963 1.3661641e-20)
(-0.20421817 0.36906961 2.0293026e-21)
(-0.21926519 0.36657211 -9.6183509e-21)
(-0.235384 0.36374651 5.4117121e-21)
(-0.25249534 0.36070158 -8.886305e-21)
(-0.27050643 0.35743602 3.2588434e-20)
(-0.28923997 0.35384236 -1.8536347e-20)
(-0.30842736 0.3497381 -1.215846e-20)
(-0.32769554 0.34487944 -2.7502743e-20)
(-0.34654763 0.33896467 -5.1795636e-21)
(-0.36434523 0.33165085 3.2480355e-20)
(-0.38030358 0.32257091 -1.3993969e-20)
(-0.39350281 0.31132749 -2.2227114e-20)
(-0.40281695 0.29751909 -2.5874639e-21)
(-0.4072744 0.280958 2.8533375e-20)
(-0.40589649 0.26195643 2.7117984e-20)
(-0.39780886 0.24060956 -9.006778e-20)
(-0.38195839 0.21684606 -5.1560326e-20)
(-0.35758341 0.19074285 -1.2060465e-19)
(-0.32391923 0.16233768 -4.4851976e-20)
(-0.27985792 0.13123691 -1.847534e-20)
(-0.22392129 0.096656436 -1.4580625e-19)
(-0.15413704 0.057121304 -5.9125101e-20)
(-0.067185245 0.010572094 2.0049046e-19)
(0.040944426 -0.043557378 -1.5620501e-19)
(0.16954687 -0.10391617 1.3270372e-19)
(0.31935482 -0.17383783 -5.7911614e-20)
(0.49797203 -0.25874831 2.3294708e-19)
(0.69452047 -0.34673436 8.8019431e-20)
(0.8589683 -0.40696798 -2.2878297e-20)
(0.95974856 -0.40447379 -1.8215207e-20)
(0.99195173 -0.36043137 -1.4127064e-20)
(0.98175145 -0.29242572 -3.1893681e-21)
(0.95748416 -0.2225687 1.0387183e-21)
(0.94205073 -0.16429728 -9.8559591e-21)
(-0.00098464713 0.0030621787 6.1892064e-23)
(-0.0030427608 0.0094733233 -4.4121332e-21)
(-0.0053065281 0.016540166 5.2002702e-21)
(-0.0077921181 0.024317292 2.5013445e-21)
(-0.010516264 0.032861213 -5.0094558e-21)
(-0.013495888 0.042229707 -1.6216426e-21)
(-0.016747855 0.052480808 7.8613619e-21)
(-0.020288685 0.06367143 -8.4546407e-21)
(-0.024134113 0.075855535 -1.7816663e-21)
(-0.028298591 0.089081733 -7.079837e-21)
(-0.032794685 0.10339018 1.8781995e-20)
(-0.037632387 0.11880864 2.2494556e-22)
(-0.042818334 0.13534751 -1.6802371e-20)
(-0.048354986 0.15299377 1.7992331e-20)
(-0.054239768 0.17170366 -1.2836864e-20)
(-0.060464285 0.19139414 -4.741099e-21)
(-0.067013692 0.2119334 9.861592e-21)
(-0.073866411 0.23313073 -8.8415605e-21)
(-0.080994396 0.25472708 -1.1712604e-20)
(-0.08836426 0.27638773 2.4777319e-22)
(-0.095939595 0.29769988 1.8168398e-20)
(-0.10368479 0.31817854 -1.1146445e-20)
(-0.11157067 0.33728526 6.1648337e-21)
(-0.11958182 0.35446412 2.9302016e-20)
(-0.12772502 0.36919702 9.7881511e-21)
(-0.13603722 0.38107666 -2.6036869e-20)
(-0.14459078 0.38988678 2.5963189e-21)
(-0.15349243 0.3956693 -2.8886942e-20)
(-0.1628729 0.39874863 1.6805922e-20)
(-0.17286636 0.39968375 -9.0378566e-21)
(-0.18357603 0.39913662 1.3056192e-20)
(-0.19506255 0.39767556 3.3457112e-21)
(-0.20734404 0.39562883 -1.6673434e-20)
(-0.22042052 0.39314633 1.7619618e-20)
(-0.23424418 0.39033739 2.8305818e-20)
(-0.24867429 0.38720974 -1.4338374e-21)
(-0.26349213 0.38365314 -3.3376449e-20)
(-0.27838916 0.37947032 4.5643023e-20)
(-0.29294853 0.37440072 -1.0093606e-20)
(-0.30663367 0.36812109 2.4278708e-20)
(-0.31877426 0.36026422 -4.534156e-21)
(-0.32856904 0.35044339 4.4738766e-20)
(-0.33509995 0.33825037 2.3013829e-20)
(-0.33728898 0.32329533 3.3689911e-20)
(-0.33429205 0.30543404 -1.4841757e-19)
(-0.32513353 0.28502165 -5.4984104e-20)
(-0.3090548 0.2621742 7.7070559e-20)
(-0.28506006 0.23687282 -6.793325e-20)
(-0.25244119 0.20922654 -6.1935007e-20)
(-0.2103305 0.17922903 7.3876796e-20)
(-0.15744052 0.14640991 4.1004871e-20)
(-0.092148399 0.10992782 1.0140505e-19)
(-0.012438627 0.068053314 5.0553356e-20)
(0.085339157 0.018376936 -1.7166439e-19)
(0.2041494 -0.038969938 -9.2434151e-20)
(0.33984785 -0.10304969 -1.4474937e-20)
(0.49660853 -0.17770501 -2.0491133e-22)
(0.67966687 -0.26665719 -5.6581205e-20)
(0.86650365 -0.35191826 6.1081504e-20)
(0.99875896 -0.40568921 5.1059766e-20)
(1.0524517 -0.39612808 7.3611075e-21)
(1.0439342 -0.3479288 3.3034697e-20)
(1.0064636 -0.28189659 7.1412648e-21)
(0.97010645 -0.21643933 7.7972407e-22)
(0.95154399 -0.1621425 7.5707472e-22)
(-0.0010395305 0.0029035387 -2.2236201e-21)
(-0.0032117917 0.0089908714 -1.9689744e-21)
(-0.0055997402 0.015711602 4.0928336e-21)
(-0.0082200389 0.023121451 -7.0115128e-21)
(-0.01108995 0.031278904 -1.7526954e-21)
(-0.014226761 0.040244861 7.5112011e-21)
(-0.017647516 0.050081927 -3.8413721e-23)
(-0.021368714 0.060853351 4.4835289e-21)
(-0.025405787 0.072621628 -1.3375999e-21)
(-0.02977251 0.085446552 2.7989648e-23)